/*--------------------------------*- C++ -*----------------------------------*\
| =========                 |                                                 |
| \\      /  F ield         | OpenFOAM: The Open Source CFD Toolbox           |
|  \\    /   O peration     | Version:  2.1.0                                 |
|   \\  /    A nd           | Web:      www.OpenFOAM.org                      |
|    \\/     M anipulation  |                                                 |
\*---------------------------------------------------------------------------*/
FoamFile
{
    version     2.0;
    format      ascii;
    class       volScalarField;
    location    "0.07";
    object      k;
}
// * * * * * * * * * * * * * * * * * * * * * * * * * * * * * * * * * * * * * //

dimensions      [0 2 -2 0 0 0 0];

internalField   nonuniform List<scalar> 
6400
(
0.0308244
0.0308215
0.0308141
0.0308059
0.0307998
0.0307936
0.0307865
0.0307782
0.0307671
0.0307532
0.0307365
0.0307159
0.0306901
0.0306563
0.0306139
0.0305632
0.030501
0.0304248
0.0303326
0.0302238
0.0300983
0.0299534
0.0297871
0.0295974
0.0293813
0.0291367
0.028861
0.0285526
0.0282119
0.027838
0.0274307
0.0269898
0.0265169
0.0260137
0.0254827
0.0249277
0.0243525
0.0237623
0.0231646
0.0225658
0.0219692
0.0213773
0.0207951
0.0202289
0.0196874
0.019176
0.0186955
0.018246
0.0178296
0.0174492
0.0171035
0.0167897
0.0165122
0.0162765
0.0160831
0.0159393
0.0158892
0.0158903
0.0159271
0.0159956
0.0160844
0.0161868
0.0163021
0.0164265
0.0165538
0.0166775
0.016792
0.0168926
0.0169777
0.0170421
0.0170634
0.0170617
0.0170318
0.016964
0.016858
0.0167087
0.0165074
0.0162721
0.0160221
0.0157479
0.0154372
0.0150896
0.0147084
0.0142894
0.0138056
0.0132627
0.0126511
0.011963
0.0111779
0.0102648
0.0091759
0.00783329
0.00618048
0.00426977
0.00224714
0.00151246
0.00185953
0.00407387
0.00621158
0.0069009
0.00772689
0.00770489
0.00769651
0.00768373
0.00767412
0.00765952
0.00764554
0.00762241
0.00759392
0.00755787
0.00751591
0.00746564
0.00740807
0.00734211
0.00727072
0.00719379
0.00710981
0.00702113
0.00693214
0.00684681
0.0067673
0.00669304
0.00662718
0.00657151
0.00652735
0.00650197
0.00649186
0.00648899
0.00649204
0.00651586
0.00657029
0.0066486
0.00674204
0.00685435
0.00699566
0.00717647
0.00741226
0.0077216
0.00812009
0.00862117
0.00922677
0.00993124
0.0107221
0.0115758
0.0124592
0.0133502
0.0142529
0.0151844
0.0161696
0.0172369
0.0184163
0.0197204
0.0211443
0.0226781
0.0243027
0.025988
0.0277027
0.0294286
0.0311468
0.0328328
0.0344646
0.0360514
0.0376064
0.0391258
0.0405977
0.0420054
0.0433363
0.0445847
0.0457448
0.0468079
0.0477644
0.0486056
0.0493153
0.0498813
0.0503235
0.050576
0.0506635
0.0506729
0.0505773
0.0502907
0.0498011
0.0491149
0.048262
0.0472727
0.0460976
0.0445932
0.0427872
0.0407211
0.0383452
0.0356151
0.0324959
0.0289444
0.0250683
0.0211724
0.017292
0.0135398
0.0105938
0.00858127
0.00729784
0.00603597
0.00144696
0.00144518
0.00144494
0.00144491
0.00144517
0.00144587
0.00144699
0.00144843
0.00145022
0.00145297
0.0014571
0.0014632
0.00147188
0.00148389
0.0015001
0.00152183
0.00154968
0.00158446
0.00162775
0.00167908
0.00174073
0.00181278
0.00189718
0.00199368
0.00210058
0.00221447
0.00233236
0.00245756
0.00260141
0.00277133
0.0029748
0.00321315
0.00349069
0.00381379
0.00419077
0.00462895
0.00513682
0.00573496
0.0064389
0.00725705
0.00819098
0.00923293
0.0103672
0.0115835
0.0128802
0.0142447
0.015657
0.0171013
0.0185767
0.0200852
0.0216389
0.023258
0.0249474
0.026694
0.0284793
0.0302901
0.0321157
0.0339457
0.0357721
0.0375863
0.0393794
0.0411059
0.0427579
0.044354
0.0458771
0.0472977
0.0486085
0.0498093
0.0508886
0.0518352
0.0526557
0.0533436
0.0538555
0.0541283
0.0542488
0.05428
0.0541749
0.0537409
0.0531004
0.0523529
0.0513704
0.0501099
0.0486818
0.0471068
0.0453088
0.043314
0.0411831
0.0389171
0.0364216
0.0336952
0.0307981
0.0276629
0.0242046
0.0205109
0.0167235
0.0130732
0.00999232
0.00758465
0.0057547
0.00381216
0.00104472
0.00104465
0.00104469
0.00104483
0.00104522
0.001046
0.00104725
0.00104928
0.00105219
0.0010566
0.00106332
0.00107289
0.00108657
0.00110459
0.00112764
0.0011564
0.00118939
0.00122556
0.00126542
0.00131002
0.00136345
0.00142626
0.00150078
0.00158816
0.00168781
0.00180098
0.00192827
0.00207237
0.0022399
0.00243543
0.00267032
0.00295298
0.0032962
0.00371125
0.00420879
0.0048001
0.00548718
0.0062691
0.00714119
0.0081038
0.00915265
0.0102836
0.0114954
0.0127729
0.0140983
0.0154677
0.0168854
0.0183485
0.0198544
0.0214011
0.0229901
0.0246168
0.0262739
0.0279486
0.029624
0.0312852
0.0329181
0.0345079
0.0360417
0.0375043
0.0388838
0.0401781
0.0413711
0.0424453
0.0434003
0.0442259
0.0449156
0.0454645
0.0458259
0.0459906
0.0460496
0.0460396
0.0457858
0.0452756
0.0447023
0.0439957
0.0430442
0.0419568
0.0407879
0.0394432
0.0379321
0.036336
0.034628
0.0327914
0.0308839
0.028896
0.0267856
0.0246222
0.0224414
0.0202756
0.0180841
0.0158698
0.0136714
0.0115479
0.0095021
0.00754188
0.00576966
0.00428581
0.00322237
0.00272749
0.00105627
0.00105583
0.00105461
0.00105391
0.0010534
0.00105299
0.00105279
0.00105285
0.00105353
0.00105567
0.00105954
0.00106716
0.00107817
0.00109311
0.00111181
0.00113319
0.00115715
0.00118394
0.00121469
0.00125251
0.00129844
0.00135491
0.00142336
0.0015049
0.00160095
0.00171078
0.00183702
0.00198417
0.00215808
0.00236609
0.00261819
0.00292652
0.00330414
0.00376071
0.00430352
0.00493499
0.00565476
0.00645721
0.00733212
0.00826758
0.00924686
0.0102555
0.0112799
0.0123193
0.0133812
0.0144708
0.015589
0.016735
0.0179013
0.0190766
0.0202529
0.0214236
0.0225832
0.0237229
0.0248315
0.0258964
0.0269065
0.0278526
0.0287267
0.0295184
0.0302221
0.0308309
0.0313361
0.0317267
0.0319929
0.0321145
0.0321557
0.0321429
0.0319365
0.0315581
0.0311395
0.0305804
0.0298457
0.0290414
0.0281492
0.0271232
0.0260312
0.0248764
0.023622
0.0222922
0.0209025
0.0194774
0.0180711
0.0166978
0.0153657
0.0139637
0.0126076
0.011339
0.0102521
0.00926053
0.00823766
0.00714711
0.00623988
0.00534842
0.00457744
0.00389261
0.00329733
0.00287181
0.00269023
0.00265145
0.0010796
0.0010802
0.00107865
0.00107671
0.00107575
0.00107483
0.00107336
0.00107275
0.00107223
0.00107299
0.00107594
0.00108207
0.0010908
0.00110078
0.00111336
0.00112675
0.00114151
0.00115945
0.00118056
0.00121055
0.00124936
0.00129853
0.00135951
0.0014312
0.00151729
0.0016139
0.00172684
0.00185758
0.0020129
0.00220113
0.0024315
0.0027158
0.00306407
0.0034805
0.00396957
0.00452852
0.00515427
0.00583544
0.00655637
0.00729747
0.00803725
0.00876176
0.00946514
0.010155
0.0108429
0.0115384
0.0122374
0.0129313
0.0136068
0.0142578
0.0148814
0.0154769
0.0160426
0.0165717
0.017056
0.0174875
0.017868
0.0181907
0.0184453
0.0186254
0.0187142
0.0187465
0.0187443
0.0186252
0.0183987
0.0181402
0.0177822
0.0173295
0.0168721
0.0163363
0.0157576
0.0151624
0.0145432
0.0138637
0.0132147
0.0125346
0.0118513
0.0111759
0.0105065
0.00984387
0.00920895
0.00860706
0.0080346
0.00748765
0.00696207
0.00645719
0.00599277
0.00556458
0.00517675
0.00480261
0.00443474
0.00408995
0.00377648
0.00347621
0.0032223
0.00298982
0.00282795
0.00275392
0.00273884
0.00280181
0.00108871
0.00108831
0.00108763
0.00108714
0.00108654
0.00108562
0.00108387
0.00108253
0.00108241
0.00108269
0.00108518
0.00108863
0.00109319
0.00109925
0.00110643
0.00111347
0.00112313
0.00113579
0.00115297
0.00117841
0.00121134
0.00125354
0.00130477
0.0013647
0.00143552
0.00151528
0.00160593
0.0017107
0.00183296
0.00198085
0.00215852
0.00237094
0.00262347
0.00293277
0.00331233
0.00377065
0.00429496
0.00486138
0.00543178
0.00597289
0.00646476
0.00691135
0.00732687
0.00772631
0.00811626
0.00849083
0.00883725
0.00914681
0.00942026
0.00966222
0.00987633
0.0100615
0.0102153
0.0103359
0.0104118
0.0104447
0.0104553
0.0104482
0.010384
0.01028
0.0101668
0.0100193
0.00983168
0.00962831
0.00941023
0.00916556
0.00889846
0.00862459
0.00834954
0.00805916
0.00777146
0.00748782
0.00720098
0.00691521
0.00664976
0.00638058
0.00612008
0.00587349
0.0056368
0.00540596
0.00519243
0.00499185
0.00479841
0.00461488
0.00444271
0.00427602
0.00411818
0.00396864
0.00382589
0.00368491
0.00355319
0.00342864
0.00331389
0.00321062
0.00312904
0.00307539
0.00305332
0.00307242
0.00321729
0.00330589
0.0010881
0.00108792
0.0010878
0.00108697
0.00108682
0.001086
0.00108556
0.0010849
0.00108448
0.00108461
0.00108626
0.00108768
0.00108999
0.00109324
0.00109718
0.00110205
0.00110882
0.00111958
0.00113537
0.00115657
0.0011837
0.00121885
0.00126023
0.00130912
0.00136484
0.00142693
0.0014956
0.00157131
0.00165623
0.00175265
0.00186685
0.0020133
0.00220751
0.00246221
0.00278172
0.00315806
0.00356996
0.00398998
0.0043904
0.00475544
0.00508222
0.0053814
0.00566387
0.00593319
0.00618239
0.00639949
0.0065798
0.00672395
0.00683849
0.00692981
0.00699964
0.00704485
0.00706559
0.00707389
0.00707502
0.00706193
0.00702348
0.00696957
0.00691038
0.00684616
0.00677321
0.00669088
0.00660457
0.00651989
0.00643421
0.00634739
0.0062618
0.00618103
0.00610333
0.0060282
0.0059587
0.00589304
0.00582998
0.00577204
0.00571965
0.00566873
0.00562153
0.00557828
0.00553711
0.00549777
0.00546127
0.00542567
0.00538994
0.005354
0.00531684
0.00527691
0.00523364
0.00518537
0.00513128
0.00507116
0.005005
0.0049336
0.00486093
0.00479185
0.00474693
0.00472933
0.0047522
0.00489599
0.00513091
0.00528531
0.00108543
0.0010852
0.00108532
0.00108555
0.00108526
0.00108477
0.00108413
0.00108368
0.00108338
0.00108323
0.00108372
0.0010843
0.00108541
0.00108724
0.00108999
0.00109484
0.00110092
0.00111023
0.00112404
0.00114223
0.00116533
0.00119443
0.00122869
0.00126848
0.00131303
0.00135967
0.00140844
0.00145658
0.00150852
0.0015725
0.00165985
0.001784
0.00195706
0.00218442
0.00246363
0.00278199
0.00311939
0.00345371
0.00376818
0.00405619
0.00432183
0.0045739
0.00481708
0.00504808
0.00525753
0.0054374
0.00558676
0.00571098
0.00581675
0.00590752
0.00598351
0.00604548
0.00609753
0.00614442
0.00618764
0.00622483
0.00625493
0.00628074
0.00630685
0.00633398
0.00636159
0.00639084
0.00642479
0.0064648
0.00651068
0.00656134
0.00661768
0.00668066
0.00675011
0.0068256
0.00690771
0.00699667
0.00709322
0.00719805
0.00731127
0.00743213
0.00756086
0.00769689
0.00784029
0.00799169
0.00815158
0.0083199
0.00849646
0.00868118
0.00887368
0.0090732
0.00927879
0.00948878
0.00970005
0.00991156
0.0101221
0.0103331
0.0105447
0.0107626
0.0109944
0.0112616
0.0116158
0.0120734
0.0125986
0.0128596
0.00108401
0.00108427
0.00108376
0.00108355
0.00108329
0.00108301
0.00108264
0.00108256
0.00108193
0.00108139
0.00108147
0.00108198
0.0010828
0.00108425
0.00108723
0.00109158
0.0010974
0.00110651
0.001119
0.00113557
0.00115672
0.00118295
0.00121383
0.00124923
0.00128724
0.00132475
0.00135991
0.00139408
0.00143323
0.00148628
0.00156505
0.00168131
0.00184459
0.00205833
0.00231729
0.00260875
0.00291355
0.00321375
0.00349713
0.00376108
0.00401145
0.00425546
0.00449515
0.00472504
0.0049355
0.00512022
0.00527968
0.00541958
0.0055453
0.00565867
0.00575963
0.00584956
0.00593256
0.00601229
0.00608952
0.0061626
0.00623086
0.006296
0.00636061
0.00642575
0.00649237
0.00656185
0.00663646
0.00671741
0.00680521
0.00689971
0.00700161
0.00711171
0.00722993
0.00735577
0.00748963
0.00763221
0.00778469
0.00794792
0.0081228
0.00830897
0.00850609
0.00871385
0.0089326
0.00916367
0.00940829
0.0096675
0.00994251
0.0102344
0.0105443
0.0108731
0.0112211
0.0115885
0.011977
0.0123868
0.0128203
0.0132798
0.013769
0.0142915
0.0148504
0.0154461
0.0160628
0.0165949
0.0168295
0.0168413
0.00108422
0.0010843
0.00108414
0.00108425
0.00108367
0.00108338
0.0010824
0.00108235
0.00108177
0.00108129
0.00108158
0.00108276
0.00108397
0.00108517
0.00108813
0.00109212
0.00109829
0.00110718
0.00111995
0.00113729
0.00115892
0.0011854
0.00121678
0.00125303
0.00129223
0.00133157
0.00136871
0.00140512
0.00144577
0.00149964
0.00157843
0.00169411
0.00185666
0.00206944
0.00232809
0.00261906
0.00292353
0.00322277
0.00350392
0.00376429
0.00400959
0.00424787
0.00448191
0.00470688
0.00491319
0.00509424
0.00525001
0.00538613
0.00550782
0.00561695
0.00571312
0.0057977
0.00587448
0.00594767
0.00601814
0.00608465
0.00614663
0.00620564
0.00626417
0.00632338
0.00638442
0.00644857
0.0065179
0.00659358
0.00667597
0.00676515
0.0068617
0.00696639
0.0070791
0.00719918
0.00732685
0.00746252
0.00760726
0.00776196
0.0079276
0.00810409
0.0082913
0.00848886
0.00869695
0.00891641
0.00914813
0.00939284
0.00965158
0.00992541
0.0102155
0.0105228
0.0108479
0.0111916
0.0115552
0.0119399
0.0123475
0.0127795
0.0132459
0.0137524
0.014308
0.0149252
0.0156092
0.0163288
0.0167411
0.0168834
0.00108614
0.00108612
0.00108561
0.00108477
0.00108446
0.00108449
0.00108401
0.00108355
0.00108304
0.00108317
0.00108342
0.00108381
0.00108519
0.00108793
0.0010901
0.00109499
0.00110188
0.00111157
0.00112678
0.00114629
0.00117077
0.00120046
0.00123636
0.0012778
0.00132423
0.00137364
0.00142548
0.00147841
0.00153384
0.00159915
0.0016856
0.00180682
0.00197606
0.00219916
0.00247447
0.00278947
0.00312359
0.00345426
0.00376309
0.00404253
0.00429652
0.00453496
0.00476447
0.00498363
0.00518354
0.00535586
0.0054981
0.00561492
0.00571241
0.00579387
0.00585881
0.00590733
0.00594297
0.005971
0.00599229
0.00600654
0.00601397
0.00601824
0.00602117
0.00602238
0.00602388
0.00602688
0.00603346
0.00604369
0.00605804
0.00607618
0.0060979
0.00612377
0.00615324
0.00618517
0.00621944
0.00625547
0.00629312
0.00633251
0.00637408
0.00641654
0.00645919
0.0065009
0.00654076
0.00657814
0.00661274
0.00664419
0.00667196
0.00669605
0.00671658
0.00673389
0.00674897
0.00676318
0.00677827
0.00679663
0.00682153
0.0068565
0.0069005
0.00696799
0.00706679
0.00722003
0.00746148
0.00783157
0.00834879
0.0086999
0.00108915
0.00108853
0.00108785
0.00108732
0.00108638
0.00108584
0.0010854
0.00108454
0.00108417
0.00108453
0.001086
0.00108794
0.00109043
0.00109376
0.00109687
0.00110258
0.00111056
0.00112161
0.00113849
0.00116225
0.00119086
0.00122684
0.00127032
0.00132094
0.00137897
0.00144287
0.00151445
0.00159332
0.0016826
0.00178305
0.00189942
0.0020431
0.00223024
0.00247478
0.00278271
0.00314789
0.00355061
0.00396228
0.00435459
0.00470822
0.00502078
0.00530275
0.00556811
0.00582395
0.00606405
0.00627759
0.00645733
0.00660192
0.00671661
0.00680761
0.00687582
0.00691044
0.00692497
0.00692888
0.00692206
0.00688492
0.00682399
0.00675874
0.00668666
0.00659719
0.00649693
0.0063942
0.00628686
0.00617469
0.00606089
0.00594483
0.00582917
0.00571691
0.00560637
0.00549646
0.00538948
0.00528599
0.00518324
0.00508155
0.00498463
0.00489045
0.00479632
0.00470418
0.0046147
0.00452524
0.00443665
0.00435087
0.00426636
0.0041825
0.00410121
0.00402232
0.00394549
0.00387224
0.00380359
0.00373932
0.00368061
0.00362923
0.00358755
0.00355822
0.00354543
0.00354459
0.0036165
0.00373677
0.00393698
0.00402986
0.00108907
0.00108894
0.00108726
0.00108605
0.00108603
0.00108487
0.00108306
0.00108227
0.00108193
0.00108256
0.00108426
0.00108802
0.00109368
0.0010995
0.00110616
0.00111332
0.00112412
0.00113862
0.00115728
0.0011832
0.00121818
0.00126048
0.00131363
0.00137489
0.00144698
0.00152815
0.00162085
0.00172673
0.00185119
0.00199841
0.00217711
0.00238798
0.00263586
0.00293217
0.00329372
0.00372831
0.00423061
0.00477662
0.00533109
0.00585606
0.0063324
0.00676139
0.00715866
0.0075429
0.00792419
0.00829971
0.00865538
0.00897977
0.00927062
0.00953098
0.00976483
0.00997057
0.0101443
0.0102817
0.0103775
0.0104305
0.0104541
0.0104603
0.0104394
0.0103566
0.0102498
0.0101293
0.00996887
0.00978122
0.00957982
0.00935511
0.00910785
0.00884483
0.00857521
0.00830247
0.00801883
0.0077349
0.00745599
0.00716951
0.00688939
0.00662335
0.00635811
0.00609769
0.00585115
0.00561145
0.00537334
0.00514854
0.004934
0.00472382
0.00452274
0.00432989
0.00414042
0.00395857
0.00378592
0.0036183
0.00346315
0.00331837
0.00318259
0.00306204
0.00294984
0.00287226
0.00283579
0.00282848
0.00294083
0.00301637
0.00107922
0.00107927
0.00107715
0.00107714
0.00107593
0.00107413
0.00107385
0.00107243
0.00107251
0.00107304
0.00107573
0.00108198
0.00109004
0.00109964
0.00111248
0.001125
0.0011407
0.00116077
0.00118268
0.00121293
0.00125262
0.00130185
0.0013638
0.00143613
0.00152148
0.00161938
0.00173139
0.00186245
0.00201585
0.00220034
0.0024251
0.00270052
0.00303539
0.00343495
0.0039016
0.0044354
0.00503129
0.00568183
0.00637219
0.00708484
0.00780061
0.00850556
0.0091934
0.00987118
0.0105503
0.0112421
0.011948
0.0126583
0.0133612
0.0140461
0.0147085
0.0153474
0.0159608
0.016544
0.0170886
0.0175846
0.0180301
0.0184258
0.0187568
0.019017
0.0192073
0.0193007
0.0193351
0.0193338
0.019212
0.0189794
0.0187132
0.0183408
0.0178848
0.0174283
0.0168964
0.0163106
0.0157299
0.0151054
0.0144382
0.013779
0.0131076
0.0124242
0.0117539
0.0111003
0.0104312
0.00977528
0.00914403
0.00853135
0.00795017
0.00740516
0.00686634
0.00634138
0.00584639
0.00537165
0.00490827
0.00447539
0.0040584
0.0036842
0.00332421
0.00301225
0.00279168
0.00268643
0.00265734
0.00269272
0.00105535
0.00105502
0.00105416
0.00105401
0.00105342
0.0010533
0.00105316
0.00105334
0.00105412
0.00105576
0.00105932
0.00106593
0.0010771
0.00109097
0.00110892
0.00112998
0.00115419
0.00118128
0.00121283
0.00124945
0.00129593
0.00135173
0.00142004
0.001501
0.0015953
0.00170439
0.00182888
0.00197369
0.00214293
0.00234423
0.00258714
0.00288262
0.00324156
0.00367382
0.00418682
0.00478383
0.00546411
0.00622376
0.00705355
0.00794376
0.00887975
0.00985034
0.0108408
0.0118479
0.012878
0.0139413
0.0150414
0.0161753
0.017339
0.0185229
0.0197152
0.02091
0.0221012
0.0232834
0.0244455
0.0255759
0.0266628
0.0276965
0.0286683
0.0295692
0.0303929
0.0311299
0.0317755
0.0323194
0.0327495
0.0330645
0.0332301
0.033297
0.033308
0.0331877
0.0328522
0.0324545
0.0319802
0.0313222
0.0305573
0.0297181
0.0287559
0.0276971
0.0265897
0.0254167
0.0241672
0.0228332
0.0214048
0.0198973
0.018382
0.0169813
0.0155703
0.0141992
0.0127843
0.0114156
0.0100457
0.00875786
0.00745458
0.00641482
0.00539465
0.00434515
0.00357299
0.00297892
0.00270092
0.00260338
0.00104461
0.00104438
0.00104437
0.00104453
0.00104507
0.00104571
0.00104707
0.00104894
0.00105186
0.00105587
0.00106177
0.00107063
0.00108334
0.00109988
0.001122
0.0011487
0.00118072
0.00121631
0.00125588
0.00130083
0.00135291
0.00141512
0.00148802
0.00157315
0.00167133
0.00178191
0.00190677
0.00204775
0.00220854
0.0023982
0.00262174
0.0028921
0.00321717
0.00360816
0.00407699
0.00463238
0.0052796
0.00601548
0.006835
0.00773842
0.0087224
0.009786
0.0109253
0.0121416
0.0134168
0.0147368
0.0161059
0.0175267
0.0189984
0.0205172
0.0220814
0.0236922
0.0253431
0.0270242
0.0287213
0.0304205
0.0321081
0.0337696
0.0353935
0.036965
0.0384737
0.0399063
0.0412557
0.0425152
0.0436637
0.0446978
0.0456115
0.0463922
0.0470394
0.047536
0.0478365
0.0479717
0.0480155
0.0479795
0.0476816
0.0471759
0.0466115
0.0458945
0.0449538
0.0438902
0.0427403
0.0414212
0.0399297
0.0383282
0.0365897
0.034672
0.0326265
0.0304541
0.0281085
0.0256006
0.0229583
0.0202131
0.0173711
0.014532
0.0117943
0.00919613
0.00697419
0.00501952
0.00358922
0.00290864
0.00146991
0.00146594
0.00146354
0.00145925
0.00145538
0.00145151
0.00144864
0.00144753
0.00144721
0.00144731
0.00144885
0.00145309
0.00146027
0.00147037
0.0014844
0.00150322
0.00152847
0.00156091
0.00160172
0.00165133
0.00171014
0.0017798
0.0018612
0.00195481
0.00205992
0.00217258
0.00228929
0.00241226
0.00254962
0.00271301
0.00290603
0.00313399
0.00339895
0.00370595
0.00406223
0.00447222
0.00494485
0.00549771
0.00614865
0.00690821
0.00777777
0.00875472
0.00982602
0.0109767
0.0122042
0.0135039
0.0148613
0.0162582
0.0176888
0.0191565
0.0206672
0.0222386
0.0238835
0.0255961
0.0273595
0.029159
0.0309851
0.0328257
0.0346725
0.036515
0.0383478
0.0401681
0.0419535
0.0436667
0.0453248
0.0469278
0.0484436
0.0498565
0.0511689
0.0523729
0.0534529
0.0544057
0.0552434
0.055952
0.0564861
0.0567933
0.0569304
0.0569684
0.0568649
0.0564003
0.0556988
0.0548593
0.0537369
0.052293
0.0506397
0.0487772
0.0466144
0.0441556
0.041468
0.0385153
0.0352017
0.0315044
0.0274858
0.0231615
0.0187101
0.0146704
0.0111911
0.00859168
0.0065824
0.00433758
0.00788235
0.00786848
0.00784892
0.00781933
0.00777833
0.00773161
0.00768106
0.00762739
0.00757365
0.00752021
0.00746589
0.00741091
0.00734952
0.00727846
0.00720015
0.00711534
0.00702486
0.00693274
0.00684118
0.00675214
0.00666876
0.00659121
0.00652163
0.00646294
0.00641693
0.00638812
0.00637636
0.0063726
0.00637379
0.00639233
0.00644062
0.00651424
0.00660365
0.0067102
0.00684266
0.00700949
0.0072243
0.00750443
0.00786489
0.0083211
0.00887882
0.00953319
0.0102737
0.0110801
0.0119224
0.0127725
0.0136294
0.014508
0.0154304
0.0164225
0.0175144
0.0187299
0.0200682
0.0215211
0.0230766
0.0247142
0.0264045
0.0281225
0.0298547
0.0315844
0.0332927
0.034961
0.0365832
0.0381806
0.0397548
0.0412947
0.0427844
0.0442083
0.0455582
0.0468289
0.0480117
0.0490963
0.0500779
0.0509474
0.0516895
0.0522878
0.0527549
0.0530198
0.0531119
0.0531144
0.0529343
0.052489
0.0517924
0.0508262
0.0495863
0.048069
0.046218
0.0439494
0.041223
0.0380473
0.0344031
0.0304294
0.026215
0.0218416
0.0177853
0.0142296
0.0113804
0.0092653
0.00801445
0.00668058
0.0307792
0.0307915
0.0307968
0.0308057
0.0308116
0.0308171
0.0308187
0.0308178
0.0308122
0.0308005
0.0307827
0.0307592
0.0307289
0.0306902
0.030643
0.0305866
0.0305183
0.0304354
0.0303375
0.0302238
0.0300929
0.0299436
0.0297731
0.0295789
0.0293589
0.0291102
0.0288317
0.0285213
0.0281771
0.0278003
0.0273903
0.0269464
0.0264703
0.0259643
0.0254301
0.0248706
0.0242906
0.0236954
0.0230908
0.0224842
0.0218796
0.0212801
0.0206893
0.0201123
0.019557
0.0190315
0.0185362
0.0180707
0.017637
0.0172387
0.0168764
0.0165457
0.0162497
0.015993
0.015779
0.0156009
0.0155059
0.0154915
0.015518
0.015588
0.0156922
0.0158187
0.0159586
0.0161121
0.0162797
0.0164559
0.0166342
0.0168089
0.0169744
0.0171259
0.0172596
0.0173727
0.0174658
0.0175085
0.0175138
0.0174923
0.0174316
0.0173197
0.0171457
0.0169336
0.0166961
0.0164041
0.016038
0.0155968
0.0150733
0.0144528
0.0137142
0.0128169
0.0117004
0.0102982
0.00854699
0.00660263
0.00482295
0.00325789
0.00214467
0.00157363
0.00183117
0.00415339
0.00669659
0.00754972
0.00644086
0.00164093
0.00144252
0.0013609
0.00132301
0.00129706
0.00126396
0.00125122
0.0012482
0.00126106
0.00128103
0.00131678
0.00134865
0.00135639
0.0013604
0.00142508
0.00170527
0.00246916
0.00411093
0.00577402
0.00443931
0.00166881
0.00149705
0.00142154
0.00138748
0.00135048
0.00133527
0.00133047
0.00132946
0.00133205
0.00134491
0.00138559
0.00140406
0.00141698
0.0014407
0.00154217
0.00186329
0.00268704
0.00420409
0.00530986
0.0029611
0.00173251
0.00161127
0.00155167
0.00148547
0.00144943
0.0014206
0.0014081
0.0014029
0.00141552
0.00145577
0.00148442
0.00149588
0.0015042
0.0015418
0.00170132
0.00215736
0.00298975
0.00419026
0.00479619
0.00248326
0.00186364
0.00176372
0.00164692
0.00159321
0.00155033
0.00153394
0.00153052
0.00156108
0.00158528
0.00159385
0.00159702
0.00159878
0.00162792
0.00172299
0.00197204
0.00244191
0.003232
0.00408012
0.00423492
0.00242702
0.00201682
0.00192515
0.00181897
0.00178214
0.00176399
0.00176319
0.00177869
0.0017863
0.00177977
0.00175637
0.001754
0.00177222
0.0018329
0.00198285
0.00229378
0.0028413
0.00352057
0.00382877
0.00362512
0.00251455
0.0022764
0.0022038
0.00213499
0.00211789
0.00211199
0.00213217
0.00214513
0.00215008
0.00213103
0.00209941
0.00209786
0.00214595
0.00225876
0.00251749
0.00288061
0.00326708
0.00347603
0.00348272
0.00297537
0.00297949
0.00290418
0.00287422
0.00286138
0.00289949
0.00293284
0.002993
0.00301831
0.00302907
0.00302497
0.00299537
0.00300401
0.00307854
0.00312806
0.0032772
0.00334477
0.00338545
0.00334811
0.00297045
0.00230007
0.00513315
0.00528461
0.0054562
0.00568178
0.00589336
0.0059705
0.0059747
0.00560275
0.00522721
0.00493105
0.00454882
0.00436228
0.00407872
0.00394565
0.00370463
0.00357108
0.00332651
0.00303498
0.0022947
0.00162286
0.01232
0.0119698
0.0114855
0.0104815
0.0095287
0.00851197
0.00774064
0.00689358
0.0063666
0.00570509
0.0053425
0.0048259
0.00453677
0.00410169
0.00383892
0.00342973
0.00296541
0.0022772
0.00140547
0.000944626
0.0141113
0.0129859
0.0116231
0.0103766
0.00924738
0.00828267
0.0074394
0.00670834
0.00611065
0.005513
0.00511755
0.00454193
0.00423846
0.00361515
0.00326597
0.00243383
0.00192136
0.00112606
0.000642979
0.000404569
0.0146126
0.0133531
0.0123111
0.0108219
0.00995743
0.00870569
0.00808737
0.00715383
0.00670046
0.00602117
0.00568751
0.00514441
0.00487462
0.00435991
0.00406985
0.00341713
0.00282196
0.00182281
0.00103426
0.000636312
0.00871479
0.00880496
0.00884573
0.0087327
0.00848602
0.00797044
0.00718649
0.00668288
0.00602968
0.00567862
0.00526554
0.00497946
0.00472028
0.0044253
0.0042314
0.00390314
0.0036415
0.00307405
0.00205273
0.00133651
0.00373796
0.0037259
0.0037341
0.00378204
0.00387225
0.00396227
0.00409229
0.00415439
0.00416165
0.00395107
0.00387452
0.00384252
0.00383835
0.00386404
0.00388311
0.00390848
0.00379021
0.0036355
0.00295045
0.0020739
0.00264712
0.00254585
0.00248737
0.00244634
0.00244099
0.00244613
0.0024774
0.00249999
0.00251043
0.00251188
0.00249798
0.00253898
0.00266211
0.0029009
0.00316055
0.00351987
0.00379129
0.00387626
0.00361106
0.00282202
0.00237572
0.0021388
0.00206174
0.0019737
0.00194471
0.00193041
0.00193031
0.00193876
0.00194671
0.00194268
0.0019221
0.00194716
0.00200402
0.00212984
0.00239903
0.00286215
0.00346671
0.0039633
0.00409142
0.00355847
0.00232737
0.00194568
0.00185639
0.00174621
0.00170502
0.00167492
0.00166871
0.00166851
0.00168134
0.00168432
0.00167175
0.00168214
0.0017146
0.00178071
0.00196098
0.00233229
0.00298346
0.00394585
0.00445731
0.0042667
0.00242271
0.00179533
0.00170112
0.00159472
0.00154446
0.00150022
0.00148184
0.00147488
0.00147676
0.00150891
0.0015244
0.00155223
0.0015646
0.00158737
0.00167358
0.00194445
0.00253662
0.00352602
0.00468797
0.00492448
0.00311273
0.00169614
0.0015674
0.00150758
0.00144678
0.00141463
0.00139189
0.00138057
0.00137545
0.0013745
0.00140372
0.00143577
0.001474
0.00149221
0.00153345
0.00170239
0.00219783
0.00321629
0.00477775
0.00553067
0.00488376
0.00165246
0.00147298
0.00139498
0.00136079
0.00132357
0.00130215
0.00129624
0.0012957
0.00130517
0.00131307
0.0013444
0.00137451
0.00139832
0.00142187
0.0015284
0.00191616
0.00289159
0.00474924
0.0060807
0.00711843
0.00163462
0.00142731
0.00134216
0.0012998
0.00128353
0.00125275
0.00123859
0.00123332
0.00123295
0.00125483
0.0012786
0.0013239
0.00134976
0.00135915
0.00141887
0.00171449
0.002619
0.00461254
0.0065805
0.00397418
0.00375025
0.00374679
0.00374679
0.00374651
0.00374627
0.00374612
0.00374604
0.003746
0.00374598
0.00374598
0.003746
0.00374604
0.00374612
0.00374627
0.00374651
0.00374679
0.00374679
0.00375025
0.00397419
0.00440925
0.00375339
0.00374135
0.00374092
0.00374055
0.00374012
0.00373987
0.00373975
0.00373968
0.00373965
0.00373965
0.00373968
0.00373975
0.00373987
0.00374012
0.00374055
0.00374092
0.00374135
0.00375339
0.00440924
0.00485395
0.00376037
0.00373295
0.00373271
0.00373289
0.00373276
0.00373257
0.00373243
0.00373235
0.00373231
0.00373231
0.00373235
0.00373243
0.00373257
0.00373276
0.00373289
0.00373272
0.00373296
0.00376038
0.00485394
0.00531362
0.00377257
0.00372438
0.00372399
0.00372494
0.00372525
0.00372525
0.00372518
0.00372514
0.00372511
0.00372511
0.00372514
0.00372518
0.00372525
0.00372525
0.00372494
0.003724
0.00372438
0.00377257
0.00531362
0.00574861
0.00378496
0.00371513
0.00371463
0.00371655
0.00371752
0.00371786
0.00371793
0.00371794
0.00371794
0.00371794
0.00371794
0.00371793
0.00371785
0.00371752
0.00371654
0.00371462
0.00371511
0.00378492
0.00574862
0.00615598
0.00379789
0.00370603
0.00370519
0.00370803
0.00370969
0.00371043
0.00371069
0.00371077
0.00371079
0.00371079
0.00371077
0.00371069
0.00371043
0.00370969
0.00370803
0.00370519
0.00370604
0.00379792
0.00615597
0.00657721
0.00380963
0.00369575
0.00369512
0.00369913
0.00370164
0.00370289
0.00370341
0.00370361
0.00370367
0.00370367
0.00370361
0.00370341
0.00370289
0.00370164
0.00369913
0.00369512
0.00369575
0.00380962
0.0065772
0.00701272
0.00381635
0.00368244
0.00368355
0.00368941
0.00369312
0.00369508
0.003696
0.00369638
0.00369651
0.00369651
0.00369638
0.003696
0.00369508
0.00369313
0.00368941
0.00368355
0.00368244
0.00381633
0.00701273
0.00741399
0.0038209
0.00366786
0.00367119
0.00367917
0.00368424
0.00368704
0.00368846
0.0036891
0.00368934
0.00368934
0.0036891
0.00368845
0.00368704
0.00368424
0.00367917
0.00367118
0.00366785
0.00382089
0.00741401
0.00776333
0.00382758
0.00365385
0.00365886
0.00366881
0.00367522
0.00367888
0.00368083
0.00368178
0.00368215
0.00368215
0.00368178
0.00368083
0.00367888
0.00367521
0.00366881
0.00365886
0.00365384
0.00382755
0.00776338
0.00809728
0.00383147
0.00363886
0.0036461
0.00365821
0.00366603
0.0036706
0.00367312
0.00367439
0.00367491
0.00367491
0.00367439
0.00367312
0.0036706
0.00366602
0.00365821
0.00364609
0.00363883
0.00383136
0.00809731
0.00844279
0.00383138
0.00362109
0.00363193
0.00364686
0.00365639
0.00366203
0.0036652
0.00366685
0.00366753
0.00366753
0.00366685
0.0036652
0.00366203
0.00365639
0.00364686
0.00363194
0.00362108
0.00383125
0.00844285
0.00877551
0.0038297
0.00360049
0.0036161
0.00363452
0.00364614
0.00365305
0.003657
0.00365909
0.00365998
0.00365998
0.00365908
0.00365698
0.00365303
0.00364613
0.00363451
0.0036161
0.00360047
0.00382952
0.00877566
0.00905686
0.00382496
0.00357859
0.00359932
0.0036215
0.00363536
0.00364364
0.00364843
0.00365101
0.00365212
0.00365211
0.00365099
0.0036484
0.0036436
0.00363531
0.00362144
0.00359925
0.00357847
0.00382465
0.00905708
0.00928563
0.0038207
0.00355734
0.00358269
0.00360843
0.00362445
0.00363405
0.00363962
0.00364264
0.00364394
0.00364394
0.00364263
0.0036396
0.00363401
0.00362441
0.00360836
0.00358259
0.00355714
0.00382013
0.00928604
0.00949532
0.0038177
0.00353733
0.00356674
0.00359573
0.00361378
0.00362466
0.00363107
0.0036346
0.00363615
0.00363614
0.00363458
0.00363104
0.00362463
0.00361376
0.00359571
0.00356668
0.00353714
0.00381688
0.00949598
0.00971125
0.00381397
0.00351649
0.00355021
0.00358278
0.00360311
0.00361541
0.00362268
0.00362666
0.0036284
0.00362839
0.00362663
0.00362261
0.00361532
0.00360301
0.00358271
0.00355014
0.00351625
0.00381294
0.00971205
0.00992307
0.00380671
0.00349162
0.00353151
0.00356861
0.00359154