/*--------------------------------*- C++ -*----------------------------------*\
| =========                 |                                                 |
| \\      /  F ield         | OpenFOAM: The Open Source CFD Toolbox           |
|  \\    /   O peration     | Version:  2.1.0                                 |
|   \\  /    A nd           | Web:      www.OpenFOAM.org                      |
|    \\/     M anipulation  |                                                 |
\*---------------------------------------------------------------------------*/
FoamFile
{
    version     2.0;
    format      ascii;
    class       volScalarField;
    location    "0.07";
    object      nut;
}
// * * * * * * * * * * * * * * * * * * * * * * * * * * * * * * * * * * * * * //

dimensions      [0 2 -1 0 0 0 0];

internalField   nonuniform List<scalar> 
6400
(
5.6342e-06
5.63393e-06
5.63264e-06
5.63186e-06
5.63173e-06
5.6319e-06
5.63218e-06
5.63264e-06
5.63326e-06
5.63418e-06
5.63538e-06
5.63658e-06
5.63756e-06
5.63804e-06
5.63811e-06
5.63794e-06
5.63724e-06
5.63566e-06
5.63272e-06
5.62827e-06
5.62238e-06
5.61463e-06
5.60478e-06
5.59257e-06
5.57757e-06
5.55943e-06
5.53768e-06
5.51201e-06
5.48239e-06
5.44854e-06
5.41028e-06
5.36736e-06
5.31985e-06
5.26782e-06
5.21149e-06
5.15135e-06
5.08783e-06
5.02172e-06
4.95424e-06
4.88651e-06
4.81896e-06
4.75192e-06
4.6863e-06
4.62343e-06
4.56523e-06
4.51307e-06
4.46726e-06
4.42802e-06
4.396e-06
4.37217e-06
4.35644e-06
4.34834e-06
4.34925e-06
4.36102e-06
4.38422e-06
4.42139e-06
4.4857e-06
4.56637e-06
4.65972e-06
4.76524e-06
4.88015e-06
5.00299e-06
5.13394e-06
5.27236e-06
5.41661e-06
5.56498e-06
5.71586e-06
5.86787e-06
6.02066e-06
6.17247e-06
6.31515e-06
6.45593e-06
6.59284e-06
6.72199e-06
6.84299e-06
6.95341e-06
7.04909e-06
7.13716e-06
7.22632e-06
7.31303e-06
7.39209e-06
7.46396e-06
7.53121e-06
7.59325e-06
7.6372e-06
7.66697e-06
7.67779e-06
7.66397e-06
7.60818e-06
7.47645e-06
7.20422e-06
6.66604e-06
5.69586e-06
4.19923e-06
2.2685e-06
1.48333e-06
1.63442e-06
2.83535e-06
2.85315e-06
3.07741e-06
9.17143e-06
9.1495e-06
9.1494e-06
9.14502e-06
9.14587e-06
9.14328e-06
9.1432e-06
9.13425e-06
9.12235e-06
9.10618e-06
9.08737e-06
9.06183e-06
9.03056e-06
8.9936e-06
8.95512e-06
8.91374e-06
8.86938e-06
8.8236e-06
8.77981e-06
8.74485e-06
8.71851e-06
8.70089e-06
8.69547e-06
8.7042e-06
8.72845e-06
8.77716e-06
8.8453e-06
8.92214e-06
9.00471e-06
9.11205e-06
9.25722e-06
9.43012e-06
9.61702e-06
9.82137e-06
1.00558e-05
1.03338e-05
1.06761e-05
1.11079e-05
1.16495e-05
1.23171e-05
1.31093e-05
1.4013e-05
1.50053e-05
1.60479e-05
1.70901e-05
1.80988e-05
1.90778e-05
2.00492e-05
2.10452e-05
2.21018e-05
2.32556e-05
2.45191e-05
2.58824e-05
2.73299e-05
2.88352e-05
3.03599e-05
3.18658e-05
3.33311e-05
3.47339e-05
3.60473e-05
3.72484e-05
3.83494e-05
3.93665e-05
4.02972e-05
4.11308e-05
4.18517e-05
4.24497e-05
4.2922e-05
4.32654e-05
4.34746e-05
4.35439e-05
4.34692e-05
4.32411e-05
4.28546e-05
4.23343e-05
4.1632e-05
4.0778e-05
3.98507e-05
3.88349e-05
3.76725e-05
3.63651e-05
3.49297e-05
3.33992e-05
3.18038e-05
3.01199e-05
2.82684e-05
2.62885e-05
2.42272e-05
2.20784e-05
1.98466e-05
1.755e-05
1.52104e-05
1.29267e-05
1.08485e-05
8.93311e-06
7.13145e-06
5.68259e-06
4.6547e-06
4.07861e-06
4.88816e-06
5.48451e-06
5.49221e-06
5.49645e-06
5.50425e-06
5.51085e-06
5.52319e-06
5.53788e-06
5.56192e-06
5.59315e-06
5.63548e-06
5.68754e-06
5.75555e-06
5.83933e-06
5.94429e-06
6.07062e-06
6.22453e-06
6.40926e-06
6.62204e-06
6.86324e-06
7.14004e-06
7.4636e-06
7.84487e-06
8.28194e-06
8.77648e-06
9.28866e-06
9.63261e-06
9.74497e-06
9.84592e-06
9.97907e-06
1.01661e-05
1.04251e-05
1.07495e-05
1.11427e-05
1.1613e-05
1.21726e-05
1.28286e-05
1.35888e-05
1.44898e-05
1.55497e-05
1.6767e-05
1.8125e-05
1.959e-05
2.11175e-05
2.26802e-05
2.42715e-05
2.58657e-05
2.74271e-05
2.89319e-05
3.03832e-05
3.17898e-05
3.31749e-05
3.45722e-05
3.59891e-05
3.74073e-05
3.88024e-05
4.01593e-05
4.14672e-05
4.2716e-05
4.38983e-05
4.50062e-05
4.60306e-05
4.69208e-05
4.76724e-05
4.83105e-05
4.88202e-05
4.91748e-05
4.93728e-05
4.94208e-05
4.93145e-05
4.90514e-05
4.86469e-05
4.81035e-05
4.7391e-05
4.64679e-05
4.5425e-05
4.43243e-05
4.31345e-05
4.17166e-05
4.01845e-05
3.86257e-05
3.69573e-05
3.51661e-05
3.33442e-05
3.15161e-05
2.96462e-05
2.77657e-05
2.59241e-05
2.41322e-05
2.2349e-05
2.05816e-05
1.88578e-05
1.71842e-05
1.54469e-05
1.3671e-05
1.18391e-05
1.00007e-05
8.24959e-06
6.71193e-06
5.91779e-06
6.95104e-06
1.72763e-05
1.73247e-05
1.73395e-05
1.73621e-05
1.73809e-05
1.74199e-05
1.74757e-05
1.75621e-05
1.76954e-05
1.78628e-05
1.80829e-05
1.83664e-05
1.87114e-05
1.91279e-05
1.96149e-05
2.01668e-05
2.08278e-05
1.79619e-05
1.71414e-05
1.58284e-05
1.4781e-05
1.39412e-05
1.32614e-05
1.27271e-05
1.23083e-05
1.19922e-05
1.17631e-05
1.16136e-05
1.15621e-05
1.16102e-05
1.17898e-05
1.21108e-05
1.25944e-05
1.32466e-05
1.40675e-05
1.50574e-05
1.61893e-05
1.74337e-05
1.8759e-05
2.01522e-05
2.15919e-05
2.30618e-05
2.45557e-05
2.60408e-05
2.74848e-05
2.88872e-05
3.02609e-05
3.16048e-05
3.29178e-05
3.41997e-05
3.54552e-05
3.66792e-05
3.78637e-05
3.89949e-05
4.00554e-05
4.10321e-05
4.19158e-05
4.26973e-05
4.33704e-05
4.39271e-05
4.43639e-05
4.46881e-05
4.48911e-05
4.49639e-05
4.49159e-05
4.47474e-05
4.44624e-05
4.4064e-05
4.35201e-05
4.2834e-05
4.20967e-05
4.13438e-05
4.04375e-05
3.93831e-05
3.83428e-05
3.72658e-05
3.60777e-05
3.4865e-05
3.36672e-05
3.24243e-05
3.11435e-05
2.98754e-05
2.85924e-05
2.72785e-05
2.59816e-05
2.46645e-05
2.32917e-05
2.19156e-05
2.04953e-05
1.90721e-05
1.75938e-05
1.60879e-05
1.45283e-05
1.29354e-05
1.1297e-05
9.67288e-06
8.27194e-06
7.44469e-06
6.56388e-06
6.07587e-06
5.16874e-05
5.17092e-05
5.1758e-05
5.18998e-05
5.20548e-05
5.21714e-05
5.24132e-05
5.27539e-05
5.32459e-05
5.37846e-05
5.42187e-05
5.50083e-05
5.59565e-05
5.74817e-05
3.41823e-05
5.00821e-05
3.68037e-05
2.50377e-05
2.47742e-05
2.08365e-05
1.86954e-05
1.70189e-05
1.5685e-05
1.46665e-05
1.39006e-05
1.33196e-05
1.29014e-05
1.26337e-05
1.25197e-05
1.2573e-05
1.28289e-05
1.33026e-05
1.40034e-05
1.48976e-05
1.59471e-05
1.71125e-05
1.83638e-05
1.96706e-05
2.10021e-05
2.2327e-05
2.3614e-05
2.48383e-05
2.59816e-05
2.70548e-05
2.80825e-05
2.9082e-05
3.00598e-05
3.10201e-05
3.19549e-05
3.28517e-05
3.37035e-05
3.4506e-05
3.52568e-05
3.59498e-05
3.65777e-05
3.71303e-05
3.76034e-05
3.79938e-05
3.83002e-05
3.85199e-05
3.86562e-05
3.87098e-05
3.86797e-05
3.85633e-05
3.83588e-05
3.80553e-05
3.77174e-05
3.73646e-05
3.68854e-05
3.63065e-05
3.57329e-05
3.50843e-05
3.43358e-05
3.35679e-05
3.27523e-05
3.18587e-05
3.09521e-05
3.00176e-05
2.89831e-05
2.79285e-05
2.68e-05
2.56425e-05
2.44726e-05
2.31126e-05
2.16315e-05
2.00515e-05
1.85165e-05
1.70691e-05
1.58637e-05
1.47613e-05
1.35718e-05
1.22126e-05
1.11042e-05
9.96624e-06
8.99742e-06
8.12165e-06
7.33929e-06
6.79344e-06
6.61908e-06
6.64926e-06
0.000109523
0.00011006
4.12984e-05
7.91982e-05
4.30928e-05
8.02352e-05
8.37948e-05
5.04887e-05
0.000111119
9.89055e-05
0.000113172
4.55306e-05
0.000119191
0.000123296
3.48408e-05
9.82586e-05
3.265e-05
3.25731e-05
3.18096e-05
2.3836e-05
2.15959e-05
1.94098e-05
1.76336e-05
1.63111e-05
1.53234e-05
1.45478e-05
1.39843e-05
1.35944e-05
1.34222e-05
1.3528e-05
1.39787e-05
1.47122e-05
1.56676e-05
1.67393e-05
1.78628e-05
1.89997e-05
2.0146e-05
2.12933e-05
2.2426e-05
2.35079e-05
2.45119e-05
2.54178e-05
2.62224e-05
2.69516e-05
2.76383e-05
2.83091e-05
2.89642e-05
2.9597e-05
3.019e-05
3.07382e-05
3.12405e-05
3.17018e-05
3.2124e-05
3.25023e-05
3.28307e-05
3.30993e-05
3.33164e-05
3.3477e-05
3.35735e-05
3.36007e-05
3.35506e-05
3.34562e-05
3.33348e-05
3.31147e-05
3.2805e-05
3.24688e-05
3.20534e-05
3.11818e-05
3.02837e-05
2.92916e-05
2.82494e-05
2.72389e-05
2.62471e-05
2.51482e-05
2.41467e-05
2.31108e-05
2.20654e-05
2.10531e-05
2.00549e-05
1.90554e-05
1.81056e-05
1.71986e-05
1.63225e-05
1.5478e-05
1.46485e-05
1.3839e-05
1.30829e-05
1.23737e-05
1.17224e-05
1.10793e-05
1.04308e-05
9.81543e-06
9.24923e-06
8.69998e-06
8.24365e-06
7.81961e-06
7.53001e-06
7.39634e-06
7.37301e-06
7.54589e-06
0.000172329
4.30813e-05
3.55702e-05
4.39112e-05
4.33744e-05
2.52051e-05
5.58547e-05
0.00013932
8.45355e-05
0.000115147
5.54874e-05
9.34887e-05
7.3017e-05
3.87399e-05
0.000103612
7.55882e-05
2.72177e-05
5.26342e-05
3.53216e-05
2.65349e-05
2.55804e-05
2.2838e-05
2.05415e-05
1.89478e-05
1.76749e-05
1.66472e-05
1.58417e-05
1.52588e-05
1.50883e-05
1.5425e-05
1.6241e-05
1.58697e-05
1.59553e-05
1.65428e-05
1.76182e-05
1.91355e-05
2.09379e-05
2.28251e-05
2.45439e-05
2.54673e-05
2.62401e-05
2.68709e-05
2.7392e-05
2.78464e-05
2.82649e-05
2.86545e-05
2.90022e-05
2.92963e-05
2.95343e-05
2.97235e-05
2.98734e-05
2.99952e-05
3.00859e-05
3.01406e-05
3.00639e-05
2.96813e-05
2.9282e-05
2.88813e-05
2.83737e-05
2.78113e-05
2.72742e-05
2.66922e-05
2.60479e-05
2.54079e-05
2.47782e-05
2.41111e-05
2.34022e-05
2.26899e-05
2.20063e-05
2.13048e-05
2.06146e-05
1.99382e-05
1.92601e-05
1.85886e-05
1.79668e-05
1.73319e-05
1.67139e-05
1.61288e-05
1.55614e-05
1.50007e-05
1.44783e-05
1.39807e-05
1.34933e-05
1.30263e-05
1.25822e-05
1.21463e-05
1.17284e-05
1.13275e-05
1.0941e-05
1.05565e-05
1.01954e-05
9.85154e-06
9.53043e-06
9.23693e-06
8.99808e-06
8.81775e-06
8.70626e-06
8.66663e-06
9.01424e-06
9.25199e-06
7.68841e-05
3.32527e-05
3.90085e-05
8.65761e-05
2.25754e-05
1.91587e-05
8.44902e-05
3.86256e-05
0.000104748
0.000237701
4.59819e-05
6.0421e-05
8.26167e-05
3.04427e-05
8.56736e-05
3.55539e-05
3.52788e-05
8.23903e-05
3.35901e-05
3.10802e-05
3.25317e-05
2.82369e-05
2.53586e-05
2.36152e-05
2.1946e-05
2.04381e-05
1.9228e-05
1.84488e-05
1.76599e-05
1.57827e-05
1.46526e-05
1.41875e-05
1.43488e-05
1.50996e-05
1.63712e-05
1.80241e-05
1.98439e-05
2.15985e-05
2.31016e-05
2.43004e-05
2.52477e-05
2.60593e-05
2.6816e-05
2.75227e-05
2.81225e-05
2.85502e-05
2.88007e-05
2.89031e-05
2.89059e-05
2.88356e-05
2.86964e-05
2.84763e-05
2.81838e-05
2.78743e-05
2.75703e-05
2.72394e-05
2.68343e-05
2.63961e-05
2.59646e-05
2.55381e-05
2.50967e-05
2.4639e-05
2.41836e-05
2.37464e-05
2.33151e-05
2.28886e-05
2.24709e-05
2.20732e-05
2.16904e-05
2.13192e-05
2.09651e-05
2.06229e-05
2.02901e-05
1.9973e-05
1.96707e-05
1.93721e-05
1.90832e-05
1.88043e-05
1.85296e-05
1.82587e-05
1.79945e-05
1.77308e-05
1.74652e-05
1.7198e-05
1.69265e-05
1.66471e-05
1.63586e-05
1.60572e-05
1.57406e-05
1.54098e-05
1.50636e-05
1.47053e-05
1.43442e-05
1.39933e-05
1.37052e-05
1.34817e-05
1.33586e-05
1.35505e-05
1.40953e-05
1.45021e-05
4.87954e-05
0.000112492
3.61112e-05
2.22084e-05
2.09402e-05
7.11874e-05
2.40184e-05
5.09091e-05
8.09628e-05
8.58369e-05
5.51636e-05
8.86592e-05
4.77099e-05
4.84347e-05
0.000107537
3.11975e-05
6.44894e-05
8.07049e-05
3.54336e-05
4.05449e-05
4.42201e-05
3.58977e-05
3.3083e-05
3.14674e-05
2.91285e-05
2.67677e-05
2.35374e-05
1.92724e-05
1.63618e-05
1.44784e-05
1.34249e-05
1.30913e-05
1.34113e-05
1.43117e-05
1.56904e-05
1.73783e-05
1.91525e-05
2.07983e-05
2.2189e-05
2.33293e-05
2.43131e-05
2.52431e-05
2.61519e-05
2.69939e-05
2.76892e-05
2.81931e-05
2.85247e-05
2.87392e-05
2.88789e-05
2.89507e-05
2.89466e-05
2.88708e-05
2.87541e-05
2.8623e-05
2.84819e-05
2.83143e-05
2.81162e-05
2.79023e-05
2.7694e-05
2.74918e-05
2.72913e-05
2.70973e-05
2.69226e-05
2.67715e-05
2.66406e-05
2.65245e-05
2.64256e-05
2.63469e-05
2.62864e-05
2.62404e-05
2.62097e-05
2.6195e-05
2.61971e-05
2.62169e-05
2.62534e-05
2.63038e-05
2.63673e-05
2.64411e-05
2.65248e-05
2.66196e-05
2.6726e-05
2.68421e-05
2.69666e-05
2.70984e-05
2.7236e-05
2.73775e-05
2.75195e-05
2.76588e-05
2.77881e-05
2.79065e-05
2.80122e-05
2.81099e-05
2.82005e-05
2.82965e-05
2.8412e-05
2.85851e-05
2.89054e-05
2.94231e-05
3.01614e-05
2.79854e-05
0.000126114
0.000184963
0.000185171
4.4115e-05
0.000121465
2.57362e-05
3.46301e-05
5.37954e-05
5.72744e-05
0.000121892
8.41924e-05
6.18375e-05
3.88096e-05
0.000129317
7.37425e-05
3.88945e-05
9.24021e-05
7.52026e-05
4.01441e-05
5.1883e-05
5.43234e-05
4.21495e-05
4.12798e-05
3.98859e-05
3.65898e-05
2.91006e-05
2.28732e-05
1.85787e-05
1.56822e-05
1.3844e-05
1.2858e-05
1.25991e-05
1.2987e-05
1.39446e-05
1.53538e-05
1.70416e-05
1.87817e-05
2.03764e-05
2.1728e-05
2.28671e-05
2.39009e-05
2.4919e-05
2.5931e-05
2.68704e-05
2.76519e-05
2.82419e-05
2.86717e-05
2.89991e-05
2.92574e-05
2.94426e-05
2.95454e-05
2.95766e-05
2.95701e-05
2.95479e-05
2.95096e-05
2.94413e-05
2.93417e-05
2.92232e-05
2.90998e-05
2.89731e-05
2.88451e-05
2.87225e-05
2.86161e-05
2.85297e-05
2.84624e-05
2.84122e-05
2.83813e-05
2.83719e-05
2.83808e-05
2.84046e-05
2.84433e-05
2.84978e-05
2.85708e-05
2.86628e-05
2.8775e-05
2.89042e-05
2.90465e-05
2.91986e-05
2.93594e-05
2.95311e-05
2.9715e-05
2.99122e-05
3.01237e-05
3.03497e-05
3.05902e-05
3.08434e-05
3.11076e-05
3.1379e-05
3.16572e-05
3.19381e-05
3.22224e-05
3.25089e-05
3.28002e-05
3.3096e-05
3.33962e-05
3.36941e-05
3.39646e-05
3.40137e-05
3.37144e-05
3.34077e-05
7.29172e-05
7.2228e-05
0.00029755
6.01802e-05
7.45041e-05
4.20814e-05
0.000100505
2.76941e-05
9.98082e-05
0.000175561
3.94409e-05
3.82792e-05
3.92542e-05
4.75992e-05
5.05036e-05
3.63703e-05
5.19157e-05
7.57984e-05
3.65678e-05
4.59431e-05
5.37059e-05
4.04472e-05
3.92125e-05
3.79948e-05
3.49711e-05
2.92595e-05
2.30324e-05
1.87345e-05
1.58216e-05
1.39617e-05
1.29509e-05
1.26659e-05
1.30289e-05
1.39606e-05
1.53489e-05
1.70175e-05
1.87435e-05
2.03247e-05
2.16582e-05
2.27724e-05
2.37723e-05
2.47538e-05
2.57317e-05
2.66448e-05
2.74068e-05
2.7982e-05
2.83974e-05
2.87106e-05
2.89554e-05
2.91276e-05
2.92168e-05
2.9233e-05
2.92084e-05
2.91683e-05
2.91128e-05
2.90301e-05
2.89188e-05
2.87905e-05
2.86591e-05
2.85269e-05
2.83965e-05
2.82738e-05
2.81688e-05
2.80853e-05
2.80219e-05
2.79774e-05
2.79534e-05
2.79522e-05
2.79708e-05
2.80047e-05
2.80537e-05
2.81193e-05
2.82027e-05
2.83057e-05
2.84301e-05
2.8574e-05
2.87352e-05
2.89099e-05
2.90978e-05
2.92993e-05
2.9516e-05
2.97475e-05
2.99953e-05
3.02601e-05
3.05427e-05
3.08424e-05
3.11584e-05
3.14891e-05
3.18338e-05
3.21915e-05
3.25625e-05
3.29467e-05
3.33574e-05
3.37992e-05
3.42781e-05
3.48064e-05
3.53777e-05
3.59387e-05
3.59903e-05
3.59155e-05
3.84222e-05
3.90732e-05
4.92323e-05
0.00017353
0.000189682
0.000120246
5.36111e-05
8.93688e-05
7.44133e-05
6.48126e-05
2.63368e-05
6.05849e-05
9.27344e-05
2.52768e-05
0.000113154
0.000118997
2.0191e-05
9.44795e-05
4.05826e-05
3.2301e-05
4.15379e-05
3.36072e-05
3.05799e-05
2.91818e-05
2.71425e-05
2.51122e-05
2.35337e-05
1.9619e-05
1.66789e-05
1.47458e-05
1.3632e-05
1.32326e-05
1.34871e-05
1.4324e-05
1.56436e-05
1.72806e-05
1.90116e-05
2.06192e-05
2.19667e-05
2.30478e-05
2.39548e-05
2.47974e-05
2.56213e-05
2.63947e-05
2.70387e-05
2.75062e-05
2.78051e-05
2.79863e-05
2.80924e-05
2.81292e-05
2.80866e-05
2.79647e-05
2.7791e-05
2.75959e-05
2.73813e-05
2.71414e-05
2.68755e-05
2.66012e-05
2.6329e-05
2.60562e-05
2.57885e-05
2.55291e-05
2.5288e-05
2.50651e-05
2.48596e-05
2.46691e-05
2.4492e-05
2.43306e-05
2.41818e-05
2.40405e-05
2.39057e-05
2.37734e-05
2.36442e-05
2.35172e-05
2.33941e-05
2.32703e-05
2.31439e-05
2.30111e-05
2.28687e-05
2.27161e-05
2.25518e-05
2.23759e-05
2.21866e-05
2.19855e-05
2.17727e-05
2.15501e-05
2.13212e-05
2.10917e-05
2.08659e-05
2.06507e-05
2.04542e-05
2.02851e-05
2.01388e-05
2.00513e-05
2.0037e-05
2.01458e-05
2.04559e-05
2.107e-05
2.22009e-05
2.2258e-05
3.05739e-05
6.93724e-05
3.82606e-05
5.53712e-05
5.20242e-05
0.0001825
5.60351e-05
2.6915e-05
7.02524e-05
5.23634e-05
2.79016e-05
6.66619e-05
4.29683e-05
2.5944e-05
3.80905e-05
5.48949e-05
1.94666e-05
4.31991e-05
4.85322e-05
2.65925e-05
3.00347e-05
2.6844e-05
2.40032e-05
2.24391e-05
2.09564e-05
1.9637e-05
1.85808e-05
1.78814e-05
1.80046e-05
1.61456e-05
1.49624e-05
1.4418e-05
1.44791e-05
1.51209e-05
1.6281e-05
1.78342e-05
1.95764e-05
2.12697e-05
2.27211e-05
2.38506e-05
2.47109e-05
2.54189e-05
2.607e-05
2.66948e-05
2.72362e-05
2.76352e-05
2.78699e-05
2.79594e-05
2.79507e-05
2.78688e-05
2.77157e-05
2.74457e-05
2.71214e-05
2.67903e-05
2.64522e-05
2.6029e-05
2.55438e-05
2.50681e-05
2.4596e-05
2.40874e-05
2.3562e-05
2.30459e-05
2.2533e-05
2.20192e-05
2.15114e-05
2.10067e-05
2.05115e-05
2.0033e-05
1.95647e-05
1.91034e-05
1.86541e-05
1.82176e-05
1.77846e-05
1.73576e-05
1.69466e-05
1.65447e-05
1.61444e-05
1.57517e-05
1.53687e-05
1.49878e-05
1.46122e-05
1.42477e-05
1.38903e-05
1.35382e-05
1.31977e-05
1.2868e-05
1.2548e-05
1.22389e-05
1.19457e-05
1.16654e-05
1.1402e-05
1.11588e-05
1.09421e-05
1.07571e-05
1.06183e-05
1.04966e-05
1.05698e-05
1.07687e-05
1.12735e-05
1.15464e-05
6.36362e-05
2.48553e-05
9.79732e-05
0.000180996
9.32352e-05
5.60176e-05
0.000101563
5.89892e-05
5.18333e-05
5.4934e-05
4.80428e-05
2.79198e-05
4.36164e-05
4.94123e-05
2.85329e-05
4.85069e-05
6.48341e-05
2.29264e-05
4.2219e-05
2.53464e-05
2.42811e-05
2.22246e-05
2.00342e-05
1.85384e-05
1.73557e-05
1.63936e-05
1.56563e-05
1.51016e-05
1.49406e-05
1.52283e-05
1.60056e-05
1.6108e-05
1.612e-05
1.6594e-05
1.75421e-05
1.89148e-05
2.05985e-05
2.23895e-05
2.39019e-05
2.4757e-05
2.54768e-05
2.60614e-05
2.65501e-05
2.69826e-05
2.73955e-05
2.77981e-05
2.81754e-05
2.85143e-05
2.88028e-05
2.90467e-05
2.925e-05
2.94194e-05
2.95575e-05
2.96576e-05
2.93966e-05
2.90389e-05
2.86459e-05
2.82546e-05
2.78397e-05
2.73097e-05
2.6766e-05
2.62349e-05
2.56479e-05
2.50348e-05
2.44308e-05
2.38152e-05
2.31681e-05
2.24954e-05
2.18241e-05
2.11757e-05
2.05158e-05
1.98578e-05
1.9215e-05
1.85597e-05
1.79204e-05
1.7313e-05
1.67048e-05
1.61038e-05
1.55317e-05
1.49729e-05
1.44112e-05
1.38788e-05
1.33669e-05
1.28602e-05
1.2372e-05
1.19014e-05
1.14364e-05
1.09917e-05
1.05697e-05
1.01611e-05
9.78669e-06
9.43937e-06
9.11582e-06
8.82464e-06
8.55292e-06
8.352e-06
8.25293e-06
8.17243e-06
8.45128e-06
8.66354e-06
0.000107044
4.98328e-05
0.000102322
4.01203e-05
9.66941e-05
0.00010906
5.55519e-05
0.00011122
0.000112591
7.46239e-05
8.48757e-05
4.36205e-05
9.51875e-05
0.000112824
4.31353e-05
2.68993e-05
0.000132781
2.16231e-05
3.21546e-05
2.43082e-05
2.13209e-05
1.93398e-05
1.76025e-05
1.63012e-05
1.53221e-05
1.45712e-05
1.40093e-05
1.36276e-05
1.34455e-05
1.35155e-05
1.39161e-05
1.46025e-05
1.55013e-05
1.6526e-05
1.75997e-05
1.86881e-05
1.97754e-05
2.08616e-05
2.19344e-05
2.29633e-05
2.39319e-05
2.48161e-05
2.56135e-05
2.63451e-05
2.70406e-05
2.77284e-05
2.84152e-05
2.90922e-05
2.97423e-05
3.03537e-05
3.09219e-05
3.14489e-05
3.19385e-05
3.23893e-05
3.27911e-05
3.31372e-05
3.34282e-05
3.36676e-05
3.38429e-05
3.39508e-05
3.39942e-05
3.39502e-05
3.38623e-05
3.37441e-05
3.35226e-05
3.32114e-05
3.28714e-05
3.23721e-05
3.1397e-05
3.04883e-05
2.95099e-05
2.84707e-05
2.74644e-05
2.64544e-05
2.53951e-05
2.43612e-05
2.33445e-05
2.23059e-05
2.12946e-05
2.03244e-05
1.93201e-05
1.83369e-05
1.73953e-05
1.6473e-05
1.5592e-05
1.47648e-05
1.39324e-05
1.31107e-05
1.23365e-05
1.15851e-05
1.08441e-05
1.0151e-05
9.476e-06
8.87039e-06
8.27134e-06
7.75329e-06
7.40104e-06
7.26259e-06
7.24824e-06
7.38508e-06
5.0334e-05
5.0508e-05
5.08749e-05
5.13431e-05
5.16265e-05
5.21479e-05
5.25365e-05
5.32351e-05
5.38047e-05
5.44105e-05
5.51368e-05
5.57612e-05
4.44132e-05
5.82805e-05
5.86542e-05
2.83408e-05
5.83087e-05
2.48257e-05
2.46175e-05
2.14639e-05
1.89626e-05
1.72467e-05
1.58856e-05
1.48415e-05
1.40486e-05
1.34562e-05
1.30239e-05
1.2743e-05
1.26065e-05
1.26298e-05
1.2846e-05
1.3273e-05
1.39118e-05
1.47413e-05
1.57246e-05
1.68247e-05
1.80089e-05
1.92503e-05
2.05195e-05
2.17892e-05
2.30328e-05
2.42306e-05
2.53595e-05
2.64237e-05
2.74453e-05
2.845e-05
2.94477e-05
3.04365e-05
3.14131e-05
3.23656e-05
3.32802e-05
3.41525e-05
3.49783e-05
3.57557e-05
3.6474e-05
3.71249e-05
3.77003e-05
3.81955e-05
3.86083e-05
3.8936e-05
3.91803e-05
3.93388e-05
3.9415e-05
3.94061e-05
3.93081e-05
3.9127e-05
3.88397e-05
3.84988e-05
3.81396e-05
3.77036e-05
3.71305e-05
3.65461e-05
3.5935e-05
3.52199e-05
3.44596e-05
3.36741e-05
3.28284e-05
3.19272e-05
3.10073e-05
3.00765e-05
2.90848e-05
2.80273e-05
2.69304e-05
2.57547e-05
2.41166e-05
2.25793e-05
2.10419e-05
1.95646e-05
1.8039e-05
1.65591e-05
1.50602e-05
1.36483e-05
1.21644e-05
1.1056e-05
9.89969e-06
8.57962e-06
7.62999e-06
6.88122e-06
6.60848e-06
6.59317e-06
1.67841e-05
1.68892e-05
1.69444e-05
1.70662e-05
1.71896e-05
1.73295e-05
1.74887e-05
1.76667e-05
1.78582e-05
1.8074e-05
1.83309e-05
1.86262e-05
1.89828e-05
1.94026e-05
1.98781e-05
2.04741e-05
2.02384e-05
1.99008e-05
1.71708e-05
1.62447e-05
1.51112e-05
1.42203e-05
1.35025e-05
1.29336e-05
1.24943e-05
1.21552e-05
1.1911e-05
1.1747e-05
1.1667e-05
1.16977e-05
1.18409e-05
1.21301e-05
1.25677e-05
1.31644e-05
1.39273e-05
1.48504e-05
1.59178e-05
1.70936e-05
1.83454e-05
1.96608e-05
2.10217e-05
2.24188e-05
2.38394e-05
2.52841e-05
2.67158e-05
2.81108e-05
2.94825e-05
3.0839e-05
3.21807e-05
3.35031e-05
3.48051e-05
3.60896e-05
3.73482e-05
3.85692e-05
3.97366e-05
4.08363e-05
4.18572e-05
4.27883e-05
4.36235e-05
4.4353e-05
4.49735e-05
4.54777e-05
4.58667e-05
4.61411e-05
4.6286e-05
4.6307e-05
4.62072e-05
4.59835e-05
4.56421e-05
4.51772e-05
4.45564e-05
4.382e-05
4.3041e-05
4.22327e-05
4.12562e-05
4.01698e-05
3.90965e-05
3.79704e-05
3.67496e-05
3.55141e-05
3.42908e-05
3.30299e-05
3.17355e-05
3.04464e-05
2.91454e-05
2.77908e-05
2.64238e-05
2.50689e-05
2.36134e-05
2.21153e-05
2.05156e-05
1.88192e-05
1.69908e-05
1.50692e-05
1.31165e-05
1.11564e-05
9.41879e-06
8.21661e-06
6.98286e-06
6.38261e-06
5.48592e-06
5.48662e-06
5.48811e-06
5.4935e-06
5.50308e-06
5.5162e-06
5.53627e-06
5.56753e-06
5.60529e-06
5.64776e-06
5.69925e-06
5.76353e-06
5.84464e-06
5.94444e-06
6.06512e-06
6.21181e-06
6.3902e-06
6.59962e-06
6.83768e-06
7.11032e-06
7.4276e-06
7.80198e-06
8.23482e-06
8.725e-06
9.24569e-06
9.66754e-06
9.78792e-06
9.89246e-06
1.00137e-05
1.01919e-05
1.04314e-05
1.07412e-05
1.11169e-05
1.15638e-05
1.20923e-05
1.27029e-05
1.34072e-05
1.42372e-05
1.52195e-05
1.63592e-05
1.76392e-05
1.9037e-05
2.05114e-05
2.20242e-05
2.35667e-05
2.51277e-05
2.66792e-05
2.81906e-05
2.96558e-05
3.10848e-05
3.24914e-05
3.39059e-05
3.53488e-05
3.68116e-05
3.82703e-05
3.97063e-05
4.11099e-05
4.24676e-05
4.37714e-05
4.50103e-05
4.61793e-05
4.72757e-05
4.82738e-05
4.9132e-05
4.98724e-05
5.04969e-05
5.09733e-05
5.12884e-05
5.14494e-05
5.14543e-05
5.12937e-05
5.09721e-05
5.05092e-05
4.98995e-05
4.91117e-05
4.81145e-05
4.69726e-05
4.57556e-05
4.44383e-05
4.2866e-05
4.11572e-05
3.94019e-05
3.75142e-05
3.54924e-05
3.34338e-05
3.13596e-05
2.92382e-05
2.71029e-05
2.50176e-05
2.29822e-05
2.09315e-05
1.88803e-05
1.68592e-05
1.47684e-05
1.2708e-05
1.07768e-05
8.96567e-06
7.46495e-06
6.59003e-06
7.49606e-06
9.33262e-06
9.32064e-06
9.30895e-06
9.28898e-06
9.25765e-06
9.22127e-06
9.18258e-06
9.14263e-06
9.10564e-06
9.07291e-06
9.04405e-06
9.01768e-06
8.98641e-06
8.94767e-06
8.90378e-06
8.85717e-06
8.80375e-06
8.76234e-06
8.71436e-06
8.67842e-06
8.64903e-06
8.62899e-06
8.62052e-06
8.62706e-06
8.65075e-06
8.69721e-06
8.76554e-06
8.84397e-06
8.92716e-06
9.03113e-06
9.17243e-06
9.34439e-06
9.53217e-06
9.73591e-06
9.96647e-06
1.02345e-05
1.05584e-05
1.09622e-05
1.14657e-05
1.2089e-05
1.28366e-05
1.3697e-05
1.465e-05
1.56614e-05
1.66843e-05
1.76759e-05
1.86332e-05
1.95754e-05
2.05323e-05
2.15377e-05
2.26293e-05
2.38357e-05
2.5152e-05
2.6565e-05
2.80567e-05
2.95995e-05
3.11562e-05
3.26965e-05
3.42037e-05
3.56586e-05
3.70397e-05
3.83273e-05
3.95159e-05
4.06302e-05
4.16728e-05
4.26321e-05
4.34917e-05
4.42359e-05
4.48571e-05
4.53511e-05
4.57097e-05
4.59241e-05
4.59912e-05
4.59047e-05
4.56542e-05
4.52306e-05
4.4651e-05
4.38633e-05
4.2903e-05
4.18471e-05
4.06315e-05
3.92073e-05
3.76035e-05
3.58268e-05
3.38971e-05
3.18364e-05
2.96358e-05
2.72778e-05
2.47828e-05
2.22069e-05
1.95834e-05
1.70047e-05
1.44884e-05
1.20129e-05
9.80214e-06
7.89435e-06
6.34352e-06
5.1807e-06
4.52725e-06
5.02338e-06
5.62785e-06
5.62919e-06
5.6291e-06
5.63065e-06
5.6323e-06
5.63424e-06
5.63583e-06
5.63744e-06
5.63891e-06
5.64021e-06
5.6414e-06
5.64238e-06
5.64293e-06
5.6429e-06
5.64241e-06
5.64153e-06
5.64011e-06
5.63777e-06
5.63432e-06
5.6295e-06
5.62308e-06
5.61497e-06
5.6048e-06
5.59217e-06
5.57686e-06
5.55838e-06
5.53653e-06
5.51092e-06
5.48106e-06
5.44712e-06
5.40878e-06
5.36574e-06
5.31808e-06
5.26599e-06
5.20953e-06
5.14898e-06
5.08502e-06
5.01839e-06
4.95003e-06
4.88118e-06
4.8125e-06
4.74435e-06
4.6774e-06
4.61261e-06
4.55179e-06
4.49683e-06
4.44795e-06
4.40527e-06
4.36941e-06
4.34145e-06
4.32181e-06
4.30959e-06
4.30587e-06
4.31222e-06
4.32997e-06
4.35775e-06
4.40945e-06
4.48566e-06
4.57599e-06
4.68201e-06
4.80182e-06
4.9325e-06
5.07199e-06
5.22102e-06
5.38042e-06
5.54922e-06
5.72607e-06
5.90981e-06
6.09933e-06
6.29383e-06
6.49292e-06
6.69652e-06
6.90622e-06
7.11117e-06
7.31758e-06
7.53129e-06
7.74893e-06
7.96684e-06
8.18147e-06
8.40596e-06
8.64982e-06
8.90162e-06
9.15326e-06
9.40531e-06
9.65427e-06
9.88949e-06
1.00902e-05
1.02097e-05
1.01603e-05
9.80383e-06
8.93417e-06
7.5241e-06
5.88416e-06
4.12118e-06
2.69963e-06
1.85904e-06
1.85244e-06
3.16185e-06
3.19378e-06
3.41563e-06
8.53959e-06
7.67657e-07
9.50616e-07
1.24988e-06
1.58192e-06
1.90652e-06
2.1938e-06
2.49512e-06
2.79948e-06
3.12982e-06
3.46094e-06
3.81631e-06
4.13412e-06
4.32886e-06
4.44096e-06
4.69661e-06
5.67725e-06
7.58557e-06
7.82415e-06
4.17284e-06
3.77073e-06
9.85392e-07
9.68773e-07
1.151e-06
1.41123e-06
1.6797e-06
1.98146e-06
2.2913e-06
2.60857e-06
2.94538e-06
3.25291e-06
3.61043e-06
3.90628e-06
4.14802e-06
4.37927e-06
4.90182e-06
6.10917e-06
7.67487e-06
7.89501e-06
4.27656e-06
3.33884e-06
1.42598e-06
1.43693e-06
1.44153e-06
1.60063e-06
1.8195e-06
2.04813e-06
2.33255e-06
2.64711e-06
3.06074e-06
3.31934e-06
3.56935e-06
3.82876e-06
4.08043e-06
4.49743e-06
5.35997e-06
6.85086e-06
7.96901e-06
7.82978e-06
4.39857e-06
3.70222e-06
2.08263e-06
2.11809e-06
1.96374e-06
2.11037e-06
2.17244e-06
2.43593e-06
2.73612e-06
3.21176e-06
3.82841e-06
3.78948e-06
3.86953e-06
4.12204e-06
4.57344e-06
5.29e-06
6.48218e-06
7.77855e-06
8.12977e-06
7.6631e-06
4.53767e-06
4.367e-06
3.00544e-06
3.03743e-06
2.7623e-06
3.05789e-06
3.0623e-06
3.46251e-06
3.83866e-06
4.51114e-06
5.06583e-06
4.75051e-06
4.85218e-06
5.32066e-06
5.91125e-06
6.92092e-06
8.04022e-06
8.67316e-06
8.50383e-06
7.31378e-06
4.68339e-06
5.39417e-06
4.33305e-06
4.34429e-06
4.0291e-06
4.45552e-06
4.58995e-06
5.19074e-06
5.85415e-06
7.02276e-06
7.33223e-06
7.2358e-06
7.60741e-06
8.09879e-06
8.79228e-06
9.61675e-06
9.64939e-06
9.17641e-06
8.2467e-06
6.90413e-06
4.82722e-06
7.0659e-06
6.39335e-06
6.43831e-06
6.22261e-06
6.9529e-06
7.60409e-06
9.02535e-06
1.08344e-05
1.32862e-05
1.33385e-05
1.32372e-05
1.32981e-05
1.28181e-05
1.17041e-05
1.09386e-05
9.96452e-06
9.0189e-06
8.03323e-06
6.28835e-06
4.30863e-06
1.06439e-05
1.08794e-05
1.12942e-05
1.2066e-05
1.39717e-05
1.63384e-05
1.96822e-05
2.14925e-05
1.97851e-05
1.81767e-05
1.62331e-05
1.49193e-05
1.33104e-05
1.22073e-05
1.08687e-05
9.94994e-06
8.83573e-06
7.56617e-06
5.36288e-06
3.37486e-06
2.19348e-05
2.39206e-05
2.48483e-05
2.65892e-05
2.59941e-05
2.37847e-05
2.18789e-05
1.96587e-05
1.82179e-05
1.6338e-05
1.52467e-05
1.36882e-05
1.27697e-05
1.1447e-05
1.06378e-05
9.45671e-06
8.12556e-06
6.25768e-06
3.87606e-06
2.24282e-06
2.90034e-05
2.76552e-05
2.51715e-05
2.34147e-05
2.12799e-05
1.97053e-05
1.79971e-05
1.66704e-05
1.53914e-05
1.41828e-05
1.33072e-05
1.20177e-05
1.13413e-05
9.85097e-06
9.07043e-06
6.97187e-06
5.77138e-06
3.59405e-06
2.1078e-06
1.10304e-06
3.2091e-05
3.03781e-05
2.84774e-05
2.60405e-05
2.44101e-05
2.19418e-05
2.06609e-05
1.86004e-05
1.75691e-05
1.59303e-05
1.51112e-05
1.37086e-05
1.30202e-05
1.16679e-05
1.09351e-05
9.2298e-06
7.77972e-06
5.28203e-06
3.07961e-06
1.62702e-06
1.65226e-05
1.80285e-05
1.86618e-05
2.0138e-05
2.29125e-05
2.56509e-05
2.32989e-05
2.17073e-05
1.93815e-05
1.79149e-05
1.62473e-05
1.48973e-05
1.36945e-05
1.23903e-05
1.14748e-05
1.02934e-05
9.29184e-06
7.60889e-06
5.00195e-06
2.92658e-06
9.31924e-06
9.05102e-06
9.1607e-06
9.26421e-06
1.04571e-05
1.19108e-05
1.42575e-05
1.73789e-05
1.85163e-05
1.6857e-05
1.56624e-05
1.4532e-05
1.34155e-05
1.24167e-05
1.14168e-05
1.05825e-05
9.5157e-06
8.42159e-06
6.29129e-06
4.01291e-06
6.68976e-06
5.89309e-06
5.84573e-06
5.47051e-06
5.99947e-06
6.30622e-06
7.31126e-06
8.5213e-06
1.0318e-05
1.00621e-05
1.03559e-05
1.07423e-05
1.13121e-05
1.14731e-05
1.07728e-05
1.03524e-05
9.70511e-06
8.73915e-06
7.06135e-06
4.93916e-06
5.21905e-06
4.10872e-06
4.09578e-06
3.73091e-06
4.08287e-06
4.1354e-06
4.6244e-06
5.09545e-06
6.01319e-06
6.23519e-06
5.89534e-06
6.43006e-06
6.95501e-06
7.88178e-06
9.04303e-06
9.53407e-06
9.40968e-06
8.8811e-06
7.57377e-06
5.12592e-06
4.25406e-06
2.8707e-06
2.87639e-06
2.58259e-06
2.8276e-06
2.78588e-06
3.1122e-06
3.43403e-06
4.01703e-06
4.51419e-06
4.28637e-06
4.31519e-06
4.82192e-06
5.41655e-06
6.52541e-06
7.93077e-06
8.86952e-06
9.08351e-06
8.00303e-06
4.9559e-06
3.66471e-06
2.006e-06
2.0234e-06
1.88438e-06
2.0215e-06
2.08105e-06
2.29393e-06
2.56035e-06
2.93411e-06
3.47425e-06
3.496e-06
3.66162e-06
3.90067e-06
4.30868e-06
5.00232e-06
6.28938e-06
7.87423e-06
8.46543e-06
8.30684e-06
4.79162e-06
3.465e-06
1.38363e-06
1.36461e-06
1.38204e-06
1.53863e-06
1.75923e-06
1.99258e-06
2.26742e-06
2.56355e-06
2.91899e-06
3.16682e-06
3.42801e-06
3.74444e-06
3.99629e-06
4.36506e-06
5.24182e-06
6.83635e-06
8.19898e-06
8.43683e-06
4.64228e-06
4.16972e-06
9.74363e-07
9.50949e-07
1.12731e-06
1.38701e-06
1.65035e-06
1.93502e-06
2.236e-06
2.54467e-06
2.87965e-06
3.17427e-06
3.50703e-06
3.82206e-06
4.07668e-06
4.27899e-06
4.77578e-06
6.13734e-06
7.90671e-06
8.45476e-06
4.5102e-06
9.05459e-06
7.69443e-07
9.44774e-07
1.2381e-06
1.55944e-06
1.89166e-06
2.17848e-06
2.47196e-06
2.76608e-06
3.05583e-06
3.38217e-06
3.69273e-06
4.03645e-06
4.27268e-06
4.38136e-06
4.5897e-06
5.58536e-06
7.72015e-06
8.3176e-06
4.40253e-06
1.23514e-06
0.000116499
0.000293952
0.000330885
0.000334808
0.000335356
0.000335357
0.000335342
0.000335343
0.000335346
0.000335346
0.000335343
0.000335342
0.000335357
0.000335356
0.000334808
0.000330885
0.000293951
0.000116499
1.23514e-06
1.36798e-06
6.82349e-05
0.000219779
0.000309585
0.000330925
0.000334529
0.000335273
0.000335316
0.000335296
0.000335286
0.000335286
0.000335296
0.000335316
0.000335273
0.000334529
0.000330925
0.000309585
0.000219779
6.82351e-05
1.36797e-06
1.5117e-06
5.30245e-05
0.000176803
0.000280821
0.000322255
0.000332516
0.000334606
0.000335102
0.000335168
0.000335173
0.000335173