/*--------------------------------*- C++ -*----------------------------------*\
| =========                 |                                                 |
| \\      /  F ield         | OpenFOAM: The Open Source CFD Toolbox           |
|  \\    /   O peration     | Version:  2.1.0                                 |
|   \\  /    A nd           | Web:      www.OpenFOAM.org                      |
|    \\/     M anipulation  |                                                 |
\*---------------------------------------------------------------------------*/
FoamFile
{
    version     2.0;
    format      ascii;
    class       volScalarField;
    location    "0.07";
    object      omega;
}
// * * * * * * * * * * * * * * * * * * * * * * * * * * * * * * * * * * * * * //

dimensions      [0 0 -1 0 0 0 0];

internalField   nonuniform List<scalar> 
6400
(
1596.46
1596.4
1596.21
1596.01
1595.85
1595.7
1595.53
1595.32
1595.06
1594.72
1594.31
1593.81
1593.18
1592.36
1591.32
1590.08
1588.56
1586.69
1584.41
1581.72
1578.61
1575
1570.85
1566.1
1560.67
1554.49
1547.5
1539.63
1530.88
1521.22
1510.61
1499.04
1486.51
1473.05
1458.71
1443.55
1427.66
1411.15
1394.22
1377.03
1359.68
1342.24
1324.85
1307.7
1291.06
1275.13
1259.98
1245.63
1232.17
1219.73
1208.33
1197.88
1188.53
1180.51
1173.88
1168.78
1166.84
1166.78
1167.92
1170.15
1173.1
1176.5
1180.34
1184.49
1188.73
1192.85
1196.66
1200.01
1202.84
1205.02
1205.77
1205.74
1204.81
1202.63
1199.19
1194.32
1187.68
1179.83
1171.42
1162.15
1151.55
1139.57
1126.26
1111.45
1094.09
1074.27
1051.47
1025.2
994.373
957.264
911.046
850.619
769.74
664.083
529.759
471.513
499.793
652.212
771.333
806.002
781.88
781.023
780.652
780.067
779.626
778.968
778.327
777.367
776.22
774.796
773.214
771.308
769.112
766.507
763.526
760.116
756.134
751.598
746.61
741.231
735.443
729.105
722.244
714.828
706.875
698.493
689.813
680.775
671.288
661.349
651.203
641.12
631.326
621.979
612.862
603.438
593.66
583.343
571.976
561.147
557.847
558.028
561.219
567.874
577.348
588.796
601.546
615.103
629.163
643.549
658.159
672.939
687.866
702.916
718.061
733.248
748.424
763.544
778.721
794.068
809.488
825.008
840.684
856.543
872.601
888.874
905.384
922.174
939.296
956.806
974.747
993.197
1012.25
1032
1052.53
1073.97
1096.41
1120.07
1144.57
1169.95
1196.25
1223.62
1251.86
1280.72
1309.79
1338.45
1366.02
1391.87
1415.3
1435.46
1449.39
1455.35
1455.9
1439.66
1400.52
1312.62
1192.79
1045.93
887.736
729.77
263.828
263.132
262.886
262.508
262.241
261.782
261.289
260.42
259.285
257.826
256.192
254.224
252.064
249.632
247.109
244.488
241.788
239.271
237.169
235.163
233.23
231.078
229.075
227.162
226.145
225.852
225.827
226.271
227.963
231.405
236.649
243.41
251.395
260.812
272.811
287.971
305.029
322.511
339.579
356.148
372.846
390.214
408.306
426.976
446.043
465.351
484.773
504.221
523.653
543.06
562.452
581.845
601.232
620.593
639.896
659.125
678.265
697.316
716.168
734.814
753.405
771.885
790.29
808.72
827.188
845.677
864.215
882.843
901.575
920.408
939.33
958.339
977.408
996.513
1015.69
1035
1054.33
1073.52
1092.68
1112.02
1131.32
1150.45
1169.63
1188.91
1208
1226.6
1244.64
1261.69
1276.62
1287.59
1292.64
1293.7
1280.72
1251.67
1198.24
1115.43
1001.6
857.578
698.346
548.43
60.4708
60.298
60.2491
60.1789
60.1359
60.0462
59.9265
59.7468
59.4615
59.1509
58.8024
58.4159
58.0697
57.7476
57.4888
57.3419
57.1058
56.8718
56.8349
56.98
57.6469
59.1052
61.5818
65.2627
70.446
77.6692
87.7093
100.988
117.146
135.304
154.573
174.15
193.552
212.627
231.441
250.135
268.671
287.044
305.37
323.81
342.367
360.986
379.723
398.645
417.736
436.915
456.092
475.219
494.288
513.311
532.302
551.243
570.113
588.883
607.52
625.993
644.275
662.343
680.176
697.765
715.109
732.198
749.025
765.601
781.923
797.967
813.726
829.206
844.391
859.276
873.85
888.079
901.854
915.128
927.951
940.253
951.797
962.478
972.296
981.123
988.617
994.721
998.856
1000.77
1001.3
999.076
993.439
985.292
972.276
955.536
933.262
905.947
871.172
828.419
775.391
710.991
637.754
560.475
490.925
448.905
20.4357
20.4186
20.3759
20.3066
20.2363
20.1833
20.0863
19.9577
19.7861
19.6278
19.542
19.3999
19.2681
19.0166
18.6805
18.2197
17.8727
17.8348
17.998
18.7757
20.5401
23.6746
28.4866
35.267
44.2628
55.689
69.6292
86.0218
104.378
124.01
144.124
164.235
183.938
202.923
220.975
238.08
254.374
270.136
285.68
301.352
317.353
333.78
350.586
367.613
384.728
401.822
418.823
435.743
452.573
469.313
485.94
502.423
518.732
534.821
550.673
566.245
581.516
596.447
611.02
625.19
638.945
652.238
665.016
677.284
688.991
700.056
710.481
720.231
729.105
737.171
744.407
750.632
755.696
759.741
762.36
763.582
763.961
763.115
759.903
755.951
749.828
742.353
733.382
722.452
710.34
696.389
680.884
664.301
646.26
627.35
606.967
585.224
561.938
536.654
508.75
479.288
449.271
422.733
406.436
398.758
9.85737
9.81466
9.81981
9.83107
9.81563
9.77122
9.74418
9.6969
9.64936
9.57136
9.50709
9.37279
9.15175
8.92792
8.66
8.49445
8.48894
8.65575
9.20859
10.5088
12.7963
16.4616
21.7691
29.0815
38.6755
50.7163
65.2047
81.9028
100.119
119.246
138.466
157.283
175.101
191.526
206.361
219.746
232.076
243.918
255.811
268.168
281.073
294.422
307.949
321.432
334.788
348.029
361.201
374.359
387.437
400.358
413.041
425.465
437.612
449.445
460.931
471.994
482.561
492.598
502.088
510.951
519.211
526.804
533.671
539.78
545.053
549.488
553.095
555.757
557.133
557.713
557.802
556.645
554.087
551.281
547.269
542.371
537.1
530.842
523.887
516.592
508.623
500.451
492.24
483.76
475.277
466.595
458.063
449.71
441.611
433.475
425.157
416.685
408.302
399.565
390.883
382.349
375.557
372.336
371.468
371.303
5.94776
5.93454
5.93875
5.93555
5.93756
5.93824
5.93569
5.92893
5.91196
5.87695
5.78155
5.6968
5.56339
5.48029
5.46605
5.48134
5.65321
6.07389
6.85877
8.27745
10.6051
14.2212
19.43
26.6176
36.1
48.023
62.3328
78.6605
96.3284
114.608
132.553
149.401
164.426
177.284
188.006
197.051
205.129
212.984
221.167
229.852
238.865
247.892
256.63
265.018
273.176
281.278
289.387
297.453
305.311
312.865
320.095
327.106
333.862
340.291
346.32
351.893
357.055
361.764
365.973
369.636
372.762
375.364
377.447
378.949
379.779
380.138
380.24
380.108
379.416
378.279
376.988
375.551
373.881
372.013
370.113
368.14
366.167
364.162
362.23
360.381
358.636
357.052
355.615
354.275
353.096
352.042
351.129
350.356
349.685
349.066
348.508
348.03
347.717
347.585
347.745
348.773
350.704
354.511
356.912
357.317
4.34662
4.36357
4.36624
4.35275
4.3597
4.35863
4.33447
4.3091
4.25072
4.20456
4.12933
4.08355
4.0658
4.07793
4.12803
4.26737
4.54562
5.0477
5.88927
7.31451
9.59753
13.1321
18.2206
25.308
34.693
46.5195
60.6733
76.6753
93.785
111.048
127.407
141.907
153.846
163.065
169.916
175.213
179.902
184.734
190.047
195.694
201.294
206.506
211.212
215.574
219.837
224.149
228.46
232.637
236.577
240.321
243.921
247.393
250.697
253.778
256.617
259.255
261.735
264.038
266.147
268.077
269.884
271.557
273.101
274.563
275.968
277.317
278.662
280.024
281.383
282.759
284.22
285.752
287.331
288.992
290.77
292.624
294.58
296.648
298.826
301.103
303.497
306.002
308.61
311.314
314.113
316.987
319.933
322.931
325.989
329.086
332.257
335.499
338.877
342.439
346.36
350.797
355.741
361.315
364.015
364.451
3.77709
3.78219
3.78666
3.79926
3.777
3.75151
3.71686
3.64763
3.56728
3.50017
3.43457
3.39618
3.39715
3.42957
3.49382
3.65936
3.94933
4.46513
5.34186
6.77065
9.05833
12.5483
17.6272
24.6794
34.0303
45.8106
59.8384
75.5784
92.1975
108.61
123.639
136.273
145.926
152.631
157.015
160.084
162.871
166.057
169.822
173.867
177.757
181.194
184.196
187.008
189.877
192.863
195.857
198.718
201.418
204.054
206.708
209.398
212.058
214.667
217.248
219.847
222.467
225.097
227.733
230.395
233.1
235.848
238.64
241.481
244.389
247.369
250.427
253.565
256.791
260.118
263.555
267.1
270.763
274.558
278.489
282.55
286.751
291.096
295.583
300.219
305.006
309.957
315.073
320.357
325.806
331.411
337.171
343.065
349.072
355.171
361.345
367.596
373.917
380.352
386.962
393.966
401.856
410.338
417.706
421.141
3.62908
3.63959
3.62432
3.60339
3.59491
3.56365
3.51195
3.44084
3.34431
3.25853
3.18271
3.15568
3.1558
3.17289
3.24288
3.39858
3.68838
4.21391
5.10524
6.55167
8.84686
12.3344
17.4069
24.4533
33.7876
45.523
59.4541
75.0365
91.3922
107.359
121.717
133.447
142.033
147.608
150.926
153.081
155.127
157.719
160.951
164.475
167.837
170.772
173.35
175.846
178.487
181.299
184.143
186.888
189.535
192.193
194.942
197.776
200.627
203.476
206.358
209.319
212.355
215.445
218.579
221.784
225.077
228.457
231.913
235.453
239.094
242.843
246.698
250.661
254.747
258.964
263.318
267.817
272.47
277.291
282.286
287.466
292.844
298.434
304.25
310.305
316.618
323.196
330.056
337.215
344.696
352.526
360.719
369.308
378.335
387.837
397.868
408.497
419.785
431.819
444.674
458.422
472.928
487.889
499.178
504.113
3.63271
3.64354
3.64357
3.6339
3.59509
3.55106
3.49662
3.4231
3.34886
3.25191
3.2125
3.20411
3.20881
3.23679
3.30844
3.46643
3.7578
4.28778
5.16997
6.6089
8.89627
12.3823
17.4415
24.4719
33.7916
45.5089
59.4256
75.0018
91.3791
107.411
121.878
133.753
142.503
148.235
151.677
153.904
155.976
158.564
161.782
165.301
168.667
171.605
174.178
176.653
179.269
182.054
184.877
187.601
190.217
192.839
195.542
198.327
201.123
203.909
206.718
209.598
212.548
215.545
218.575
221.663
224.831
228.076
231.387
234.77
238.241
241.808
245.469
249.225
253.089
257.07
261.172
265.388
269.735
274.218
278.845
283.618
288.541
293.632
298.887
304.321
309.938
315.752
321.77
328.004
334.467
341.178
348.152
355.412
362.986
370.902
379.194
387.885
397.092
406.885
417.409
428.806
441.215
454.351
465.157
470.088
3.8306
3.83467
3.81533
3.78893
3.76001
3.70703
3.67592
3.63541
3.56802
3.50752
3.47337
3.45823
3.46359
3.51178
3.59527
3.77726
4.11342
4.65271
5.51036
6.92965
9.20854
12.6793
17.7211
24.7285
34.0099
45.7176
59.6733
75.3559
91.9632
108.448
123.65
136.543
146.515
153.529
158.178
161.423
164.299
167.527
171.309
175.397
179.359
182.881
185.958
188.812
191.708
194.715
197.737
200.631
203.344
205.974
208.598
211.242
213.845
216.373
218.846
221.305
223.771
226.24
228.689
231.13
233.588
236.078
238.59
241.12
243.69
246.307
248.975
251.69
254.457
257.281
260.166
263.129
266.16
269.271
272.466
275.739
279.088
282.511
286.013
289.58
293.225
296.935
300.72
304.567
308.487
312.476
316.538
320.655
324.849
329.124
333.502
338.006
342.648
347.509
352.687
358.388
364.76
371.692
376.056
377.713
4.3983
4.39938
4.38631
4.37658
4.33399
4.30252
4.29383
4.25038
4.22519
4.1709
4.14652
4.12438
4.12122
4.16662
4.24056
4.42573
4.7694
5.31975
6.13746
7.56908
9.83823
13.3232
18.3744
25.365
34.6281
46.3076
60.308
76.1707
93.1777
110.436
126.946
141.704
154.032
163.666
170.917
176.508
181.372
186.287
191.654
197.404
203.181
208.614
213.583
218.168
222.647
227.159
231.695
236.125
240.302
244.273
248.084
251.786
255.332
258.634
261.682
264.509
267.148
269.616
271.859
273.885
275.738
277.455
279.007
280.423
281.752
282.997
284.19
285.374
286.555
287.721
288.916
290.158
291.445
292.756
294.137
295.591
297.088
298.645
300.266
301.928
303.627
305.373
307.148
308.94
310.753
312.583
314.43
316.387
318.406
320.548
322.805
325.235
327.865
330.778
333.897
337.691
342.154
347.004
349.225
349.014
6.03588
6.02057
6.00676
6.00041
5.9553
5.94019
5.89224
5.8434
5.81585
5.7788
5.73928
5.67624
5.55601
5.52912
5.53373
5.61339
5.85086
6.33547
7.12592
8.5285
10.834
14.3749
19.527
26.5961
35.9055
47.6168
61.6891
77.7601
95.2342
113.32
131.305
148.248
163.514
176.7
187.761
197.11
205.384
213.342
221.566
230.305
239.476
248.739
257.845
266.61
275.158
283.635
292.129
300.636
308.962
317.036
324.773
332.241
339.48
346.433
353.017
359.192
364.94
370.214
374.98
379.228
382.941
386.102
388.682
390.705
392.12
392.821
393.12
393.184
392.923
392.075
390.86
389.515
388.03
386.294
384.443
382.564
380.616
378.649
376.724
374.775
372.858
370.965
369.121
367.321
365.564
363.812
362.038
360.141
358.185
356.092
353.864
351.545
349.128
346.987
344.893
343.9
343.61
346.1
347.974
348.168
10.082
10.0285
10.0061
9.93381
9.84421
9.78481
9.68613
9.64239
9.52574
9.46538
9.36494
9.22025
9.0661
8.86126
8.62905
8.58375
8.59084
8.80378
9.39989
10.6181
12.889
16.4399
21.6552
28.8197
38.1904
49.9758
64.1524
80.4874
98.4359
117.191
136.277
154.959
172.773
189.289
204.259
217.792
230.209
242.033
253.837
266.034
278.82
292.086
305.636
319.203
332.667
346.026
359.304
372.583
385.802
398.912
411.82
424.483
436.916
449.091
460.98
472.504
483.602
494.222
504.341
513.938
522.93
531.269
539.037
546.096
552.388
557.917
562.647
566.562
569.633
571.639
572.566
572.89
572.735
570.997
568.544
565.614
561.485
556.993
551.968
546.156
539.912
533.094
525.661
517.899
509.887
501.541
492.833
483.681
473.909
463.67
452.621
440.883
428.282
415.337
401.896
388.512
377.201
369.899
366.619
364.616
20.9669
20.8881
20.7206
20.5288
20.4047
20.1983
20.0462
19.7866
19.5915
19.4036
19.2127
19.1159
19.0024
18.7193
18.3832
17.9874
17.6678
17.6276
17.7811
18.4812
20.167
23.1722
27.8361
34.4368
43.1887
54.3213
67.9111
83.8849
101.845
121.045
140.842
160.658
180.148
198.998
216.956
233.977
250.168
265.763
281.081
296.44
312.095
328.165
344.635
361.388
378.27
395.166
411.991
428.741
445.41
461.995
478.495
494.866
511.103
527.163
543.028
558.661
574.048
589.154
603.96
618.441
632.567
646.303
659.647
672.541
684.98
696.93
708.323
719.159
729.408
738.9
747.661
755.748
763.011
769.35
774.776
779.223
782.613
784.626
785.489
785.656
784.117
780.859
776.549
770.05
762.214
752.075
739.966
725.761
708.701
689.385
667.038
641.68
612.818
580.214
544.932
506.45
468.282
432.905
408.706
394.861
62.2377
61.8375
61.6353
61.2046
60.7964
60.3426
59.8713
59.3738
58.9007
58.4193
57.9225
57.4798
57.0698
56.6875
56.4438
56.1051
55.7326
55.372
55.3024
55.3805
55.8994
57.1825
59.4766
62.9904
68.0432
75.1342
85.0117
98.0063
113.675
131.324
150.112
169.345
188.511
207.354
225.909
244.298
262.514
280.526
298.414
316.392
334.534
352.775
371.109
389.591
408.255
427.035
445.847
464.625
483.354
502.025
520.666
539.259
557.797
576.247
594.588
612.785
630.821
648.665
666.307
683.725
700.927
717.909
734.672
751.221
767.567
783.716
799.663
815.408
830.962
846.324
861.498
876.483
891.282
905.874
920.153
934.102
947.811
961.156
973.949
986.151
997.683
1008.38
1018.04
1026.44
1033.36
1037.37
1039.03
1039.15
1033.37
1023.72
1007.07
982.79
948.708
902.653
844.433
771.507
686.755
594.488
514.004
455.714
267.943
267.184
266.675
265.632
264.467
263.136
261.663
259.996
258.186
256.263
254.218
252.117
249.847
247.353
244.743
241.994
239.19
236.516
234.249
232.244
230.241
228.122
226.016
224.047
222.798
222.384
222.301
222.582
223.989
227.076
231.946
238.351
245.987
254.93
266.185
280.642
297.235
314.451
331.339
347.644
363.81
380.497
397.934
415.986
434.48
453.257
472.192
491.181
510.164
529.115
548.044
566.952
585.838
604.687
623.467
642.15
660.724
679.175
697.5
715.629
733.578
751.485
769.283
787.047
804.876
822.797
840.814
858.967
877.312
895.884
914.698
933.771
953.12
972.747
992.632
1012.76
1033.17
1053.93
1074.95
1096.03
1117.34
1139.06
1160.97
1182.95
1205.24
1227.71
1249.98
1271.57
1291.75
1309.47
1319.77
1323.59
1316.55
1284.91
1229.9
1149.75
1040.49
904.849
741.607
578.649
783.097
782.512
782.164
781.45
780.735
779.94
779.073
777.942
776.544
774.859
772.896
770.724
768.272
765.463
762.311
758.731
754.571
749.836
744.688
739.206
733.332
726.959
720.012
712.5
704.461
695.935
687.127
677.982
668.379
658.379
648.131
637.921
627.964
618.437
609.227
599.792
590.064
579.912
568.924
556.751
550.164
549.311
551.04
556.183
564.412
574.91
586.913
599.865
613.407
627.305
641.443
655.749
670.18
684.719
699.335
713.995
728.64
743.247
757.779
772.338
787.022
801.725
816.493
831.382
846.427
861.647
877.063
892.706
908.625
924.88
941.536
958.667
976.355
994.671
1013.7
1033.58
1054.42
1076.35
1099.48
1124
1150.22
1177.64
1205.88
1235.45
1265.77
1296.22
1325.66
1352.49
1374.81
1387.85
1392.76
1392.14
1380.11
1360.63
1325.57
1265.29
1173.07
1053.62
918.607
765.4
1595.32
1595.62
1595.75
1595.97
1596.12
1596.26
1596.31
1596.3
1596.17
1595.9
1595.47
1594.9
1594.16
1593.22
1592.06
1590.68
1589
1586.96
1584.55
1581.73
1578.48
1574.76
1570.51
1565.64
1560.11
1553.82
1546.75
1538.83
1529.99
1520.24
1509.55
1497.89
1485.27
1471.73
1457.29
1441.99
1425.95
1409.29
1392.14
1374.69
1357.09
1339.39
1321.71
1304.19
1287.08
1270.67
1254.99
1240.08
1226.01
1212.93
1200.9
1189.82
1179.8
1171.01
1163.6
1157.4
1153.83
1153.19
1153.98
1156.27
1159.75
1164.01
1168.72
1173.87
1179.49
1185.38
1191.32
1197.13
1202.62
1207.63
1212.05
1215.78
1218.86
1220.33
1220.54
1219.88
1217.97
1214.39
1208.76
1201.81
1193.99
1184.32
1172.06
1157.1
1139.07
1117.3
1090.81
1057.72
1015.03
958.688
883.27
791.162
696.296
600.638
521.983
476.606
497.531
657.034
795.884
837.324
754.051
292.795
161.961
110.581
87.1569
70.8137
58.5001
52.5674
45.9602
42.8392
41.8443
41.8578
44.835
53.9084
75.1439
115.489
193.585
324.388
525.415
748.604
609.753
298.392
196.715
139.99
107.838
86.4503
74.1619
63.9173
56.8513
53.6159
52.5591
52.6538
57.7515
70.7128
94.5218
141.973
223.954
350.108
532.499
723.613
492.503
291.737
221.615
162.799
129.633
106.557
88.6123
77.4987
69.9739
66.8663
65.9835
67.5501
75.3699
90.5271
121.751
174.202
257.95
375.172
535.17
694.908
412.307
281.703
234.779
175.858
148.452
120.139
105.112
93.3428
87.4727
84.8747
84.2495
86.9765
98.1217
120.053
155.306
212.89
293.7
397.552
532.437
662.122
360.898
274.399
240.562
189.323
166.848
140.027
127.565
115.215
109.624
106.979
106.32
113.854
131.683
156.94
198.591
255.698
327.597
413.998
523.5
624.549
330.136
271.628
246.05
203.956
185.495
161.497
150.738
140.857
137.276
136.275
142.718
157.629
178.365
208.29
249.253
298.528
356.03
421.506
504.44
581.84
316.252
276.48
257.867
224.966
210.879
194.615
188.081
185.074
184.606
191.374
202.679
219.097
240.171
267.262
299.599
335.668
375.373
416.783
472.373
533.829
328.119
305.617
295.229
277.262
270.24
263.84
261.377
260.684
264.199
271.284
280.219
292.391
306.432
323.22
340.853
358.904
376.484
401.125
427.886
480.868
404.701
393.346
387.76
373.277
366.572
357.875
353.795
350.664
349.469
349.192
350.404
352.559
355.275
358.32
360.876
362.677
364.948
363.905
362.602
421.178
486.54
469.563
461.755
443.167
434.56
420.327
413.367
402.412
397.017
388.711
384.571
377.937
373.719
366.984
360.067
349.093
332.912
313.313
305.048
366.777
455.349
439.566
432.311
415.578
407.923
396.763
391.434
384.607
381.377
377.97
376.377
375.269
374.39
373.668
372.181
370.228
362.734
345.096
335.842
391.092
352.382
341.917
335.175
322.513
316.814
310.727
308.448
307.863
311.105
316.977
324.088
334.252
344.683
357.157
368.755
379.19
391.903
404.007
410.386
456.679
308.99
281.162
268.13
244.76
235.131
225.798
222.308
221.229
224.756
234.388
247.377
264.418
286.112
311.198
340.123
369.336
398.311
431.688
468.973
516.808
307.325
265.731
245.832
210.775
195.615
176.5
168.272
162.81
161.296
164.337
177.391
194.998
219.696
252.843
293.382
340.004
390.649
443.551
511.384
571.356
323.206
264.067
238.438
195.705
176.936
152.42
141.339
130.168
125.657
123.965
125.912
142.109
162.457
195.28
241.65
300.203
368.42
446.263
540.209
620.367
353.533
266.999
232.935
181.676
158.978
131.677
118.915
107.105
101.642
99.1732
98.6061
103.393
121.839
147.251
191.155
254.85
336.373
434.397
556.953
664.085
406.212
275.07
228.155
171.046
143.994
116.259
99.8443
87.9976
81.3883
78.6546
78.0433
81.1573
90.9115
113.052
149.776
211.54
300.58
416.519
564.351
702.248
494.034
284.824
213.174
156.888
124.457
102.509
85.3036
74.2261
66.5038
63.1316
62.0746
62.84
71.0033
85.9563
116.952
172.853
263.188
392.279
566.297
735.668
630.007
293.944
192.022
134.784
104.555
83.4563
70.8271
60.9928
54.0591
50.7595
49.7025
49.8334
54.043
67.1195
91.8037
140.648
228.311
365.714
561.724
764.727
786.168
291.826
158.162
106.986
83.2516
69.0575
56.9197
50.257
44.2648
40.8391
39.7121
39.6629
42.9598
51.5703
72.4914
115.069
197.273
339.243
554.551
790.208
646.234
32.1913
12.7463
11.3235
11.19
11.171
11.1705
11.1708
11.1706
11.1705
11.1705
11.1706
11.1708
11.1705
11.171
11.19
11.3235
12.7463
32.1913
646.235
672.395
55.0068
17.0233
12.0837
11.3033
11.1802
11.1547
11.1529
11.1534
11.1536
11.1536
11.1534
11.1529
11.1547
11.1802
11.3033
12.0837
17.0233
55.0067
672.395
698.168
70.9174
21.1136
13.2921
11.5836
11.2258
11.1551
11.1382
11.1357
11.1355
11.1355
11.1357
11.1382
11.1551
11.2258
11.5837
13.2922
21.1136
70.9169
698.168
723.805
86.2498
25.2133
14.6679
12.0506
11.3391
11.1687
11.1266
11.1183
11.1171
11.1171
11.1183
11.1266
11.1687
11.339
12.0505
14.6676
25.2129
86.2491
723.805
747.206
102.213
29.2816
16.0881
12.5965
11.5263
11.2074
11.1274
11.1051
11.1004
11.1004
11.1051
11.1274
11.2074
11.5264
12.5965
16.0882
29.2819
102.214
747.207
768.526
117.876
33.2571
17.5101
13.1856
11.7576
11.2814
11.1363
11.0943
11.0842
11.0842
11.0943
11.1363
11.2814
11.7576
13.1856
17.5101
33.257
117.875
768.526
790.025
134.364
37.4272
19.0079
13.8332
12.0358
11.3842
11.1589
11.0916
11.0716
11.0716
11.0916
11.1589
11.3841
12.0358
13.8331
19.0076
37.4264
134.362
790.024
811.605
151.65
41.8472
20.6013
14.541
12.3597
11.519
11.2035
11.0955
11.0626
11.0626
11.0955
11.2035
11.519
12.3597
14.541
20.6013
41.8472
151.649
811.605
830.924
167.899
46.1603
22.1893
15.2659
12.7077
11.6759
11.2626
11.1071
11.0595
11.0595
11.1071
11.2626
11.6759
12.7077
15.2658
22.1889
46.1588
167.894
830.924
847.4
182.305
50.1354
23.6914
15.9711
13.0601
11.8446
11.3331
11.1294
11.0619
11.0619
11.1294
11.3331
11.8445
13.0599
15.9708
23.691
50.1341
182.301
847.403
862.93
196.157
53.9905
25.1586
16.6708
13.4201
12.0254
11.4148
11.1595
11.0692
11.0692
11.1595
11.4149
12.0254
13.42
16.6705
25.1577
53.9879
196.149
862.932
878.716
210.59
58.0334
26.6897
17.4036
13.8042
12.2257
11.5114
11.1997
11.0845
11.0845
11.1996
11.5113
12.2255
13.8039
17.4029
26.6878
58.0273
210.573
878.719
893.595
224.933
62.2033
28.2832
18.1711
14.2126
12.4452
11.6231
11.2517
11.1102
11.1101
11.2516
11.6229
12.4448
14.212
18.1701
28.2809
62.1963
224.913
893.602
905.942
237.727
66.1393
29.8314
18.9316
14.626
12.6742
11.7455
11.314
11.1452
11.1452
11.314
11.7455
12.6741
14.6256
18.9304
29.8283
66.1304
237.7
905.951
915.878
248.597
69.6454
31.2536
19.6468
15.0232
12.8996
11.8698
11.3803
11.1851
11.1851
11.3804
11.8699
12.8995
15.0229
19.6456
31.2486
69.6267
248.553
915.896
924.947
258.456
72.8449
32.5657
20.3161
15.4023
13.121
11.9973
11.4528
11.2316
11.2316
11.4524
11.9966
13.1197
15.4005
20.3131
32.5589
72.8243
258.409
924.976
934.212
268.411
76.0546
33.8744
20.9836
15.7815
13.3445
12.1285
11.5304
11.2844
11.2843
11.5303
12.1285
13.3442
15.7798
20.9783
33.8619
76.0215
268.336
934.246
943.174
278.522
79.3916
35.233
21.6756
16.1753
13.5782
12.2679
11.6151
11.3434
11.3433
11.6144
12.2668
13.5768
16.1738
21.6722
35.2213
79.3481
278.426
943.223
950.561
287.648
82.5862
36.5724
22.3702
16.5863
13.8352
12.4308
11.7188
11.4184
11.4189
11.7194
12.4306
13.833
16.5824
22.3658
36.56
82.5416
287.573
950.639
955.785
294.771
85.2862
37.792
23.036
16.9848
14.0854
12.5927
11.835
11.5144
11.5133
11.8343
12.5939
14.0873
16.9866
23.0302
37.7765
85.2439
294.723
955.893
959.529
300.082
87.3692
38.7959
23.6115
17.3261
14.3049
12.7502
11.9541
11.6127
11.6124
11.9488
12.7428
14.3048
17.3281
23.6111
38.7863
87.3297
300.039
959.661
963.161
304.783
89.0942
39.5966
24.0609
17.6516
14.5434
12.9149
12.0528
11.676
11.6792
12.06
12.9156
14.5222
17.6305
24.0604
39.5902
89.0541
304.761
963.317
967.588
310.104
90.8444
40.3513
24.4955
17.9807
14.8059
13.0774
12.1399
11.7429
11.7457
12.149
13.0824
14.7866
17.9564
24.4808
40.3457
90.8234
310.136
967.777
972.446
316.198
92.7382
41.2011
25.0648
18.3668
15.0592
13.2417
12.2959
11.8988
11.9002
12.3015
13.2427
15.0487
18.354
25.0529
41.2153
92.7943
316.362
972.654
976.321
321.896
94.6754
42.1927
25.7632
18.8662
15.3807
13.5008
12.5346
12.1271
12.1305
12.5443
13.5103
15.3823
18.8687
25.7719
42.2365
94.7941
322.135
976.502
978.102
325.963
96.5757
43.3061
26.5761
19.4931
15.8307
13.8491
12.8488
12.4282
12.4327
12.8611
13.8661
15.8488
19.5116
26.6062
43.376
96.7117
326.187
978.224
978.298
328.471
98.3391
44.467
27.4439
20.1596
16.3187
14.2208
13.1613
12.7121
12.7152
13.1719
14.2374
16.3422
20.1955
27.4958
44.552
98.4666
328.647
978.389
978.055
330.537
99.9448
45.5521
28.2337
20.7576
16.7423
14.5082
13.372
12.8903
12.8917
13.3775
14.517
16.7652
20.8095
28.3126
45.6639
100.083
330.716
978.129
977.197
332.667
101.289
46.3909
28.8311
21.1683
16.9877
14.6507
13.4656
12.9613
12.9618
13.467
14.6517
17.0065
21.2341
28.9468
46.5561
101.505
332.939
977.232
975.124
334.338
102.197
46.8468
29.1461
21.3263
17.0493
14.6818
13.4758
12.9631
12.963
13.4755
14.6782
17.0626
21.3984
29.3016
47.0711
102.488
334.612
975.084
969.84
335.441
102.523
46.9415
29.1927
21.323
17.0175
14.6324
13.4115
12.8905
12.8891
13.4068
14.6222
17.0233
21.3938
29.3684
47.1935
102.813
335.61
969.632
961.178
337.535
102.452
46.8221
29.0831
21.1405
16.785
14.3902
13.1509
12.6141
12.6071
13.1294
14.3558
16.7642
21.1964
29.2573
47.0855
102.731
337.506
960.888
952.476
341.078
101.729
46.1105
28.4119
20.3693
15.9817
13.573
12.2991
11.7391
11.7167
12.2298
13.4682
15.8859
20.373
28.5585
46.3745
101.967
341.02
952.146
944.725
344.355
98.979
43.5943
26.1363
18.1289
13.8568
11.5981
10.4224
9.89549
9.85254
10.3014
11.4175
13.669
18.0241
26.1955
43.7964
99.0861
344.307
944.368
938.316
346.678
91.8819
38.9113
22.5991
15.2565
11.4782
9.4933
8.46273
7.99856
7.94911
8.31789
9.28165
11.2442
15.0888
22.6077
39.0834
91.9962
346.581
937.924
933.232
347.956
85.0781
34.7502
19.4625
12.7379
9.39254
7.65955
6.75763
6.34282
6.29767
6.61002
7.42829
9.15361
12.5953
19.4433
34.8585
85.233
347.745
932.816
929.297
348.143
81.8766
31.7888
16.9788
10.7355
7.71626
6.16306
5.37127
5.0171
4.98588
5.23851
5.97914
7.50188
10.5471
16.9776
31.8592
81.7451
347.864
928.878
926.278
347.621
81.5163
29.8777
15.2226
9.29193
6.50472
5.09128
4.36362
4.06489
4.05819
4.28087
4.92258
6.3048
9.14215
15.1595
29.892
81.0963
347.243
925.902
923.972
346.184
81.6681
28.7095
14.0595
8.29961
5.68756
4.38875
3.72969
3.45939
3.43487
3.65728
4.24968
5.50811
8.15509
13.9786
28.6089
81.1231
345.584
923.693
922.211
345.086
82.1466
28.022
13.3112
7.71558
5.19017
3.93636
3.30787
3.05821
3.03885
3.25174
3.80189
5.01951
7.56716
13.1855
27.8466
81.2294
344.368
922.055
920.849
344.328
82.5981
27.6397
12.901
7.3533
4.85681
3.63469
3.03707
2.79875
2.78234
2.98605
3.53437
4.71319
7.19224
12.7739
27.4135
81.4846
343.646
920.809
919.802
343.685
82.7412
27.4454
12.6821
7.13988
4.64782
3.44574
2.86203
2.63653
2.63081
2.83119
3.34808
4.49908
7.00049
12.5395
27.1856
81.7163
343.024
919.861
919.032
343.018
82.7238
27.3045
12.5585
7.02032
4.51684
3.32621
2.77178
2.56147
2.56919
2.7671
3.27118
4.42018
6.89054
12.4292
27.0565
81.8119
342.384
919.137
918.481
342.396
82.5996
27.2108
12.4919
6.93275
4.45487
3.29086
2.73891
2.51947
2.52761
2.73694
3.23872
4.3808
6.8359
12.3676
27.0076
81.8918
341.941
918.606
918.082
341.937
82.2934
27.0941
12.4477
6.9031
4.41858
3.25275
2.71331
2.50155
2.492
2.71369
3.22034
4.36451
6.82097
12.3436
27.0087
82.0011
341.744
918.19
917.773
341.675
82.1147
27.0287
12.4407
6.88743
4.40664
3.25305
2.71293
2.49599
2.483
2.69438
3.20545
4.34453
6.80417
12.3605
27.0054
82.0492
341.627
917.847
917.518
341.577
82.077
27.0259
12.4179
6.87461
4.40406
3.24947
2.71282
2.49495
2.48376
2.69014
3.20782
4.36029
6.82037
12.3427
27.0046
82.042
341.514
917.578
917.291
341.54
82.0879
27.029
12.4249
6.86227
4.37111
3.21727
2.7001
2.48385
2.47741
2.6845
3.21594
4.38323
6.81028
12.3336
26.9811
81.989
341.365
917.364
917.079
341.486
82.1005
27.0394
12.4228
6.84221
4.34812
3.20075
2.68907
2.48218
2.4696
2.68541
3.22721
4.39228
6.80243
12.3065
26.9611
81.8119
341.156
917.205
916.901
341.385
82.0865
27.03
12.4093
6.83579
4.3425
3.18859
2.67008
2.46948
2.46205
2.66363
3.20512
4.37729
6.79277
12.2891
26.8746
81.4863
340.894
917.096
916.746
341.171
82.0244
27.0152
12.4007
6.80127
4.34303
3.19327
2.65945
2.45903
2.46198
2.65631
3.18292
4.3473
6.77718
12.2605
26.7981
81.231
340.668
917.036
916.624
340.834
81.8268
26.9718
12.3601
6.79862
4.35064
3.20195
2.663
2.46367
2.4624
2.66319
3.17973
4.33551
6.77813
12.2633
26.7421
81.134
340.598
917.006
916.526
340.511
81.489
26.8631
12.3097
6.80674
4.34158
3.19907
2.67496
2.47836
2.4648
2.66822
3.17848
4.32988
6.77966
12.2557
26.7457
81.1341
340.609
916.982
916.458
340.317
81.2322
26.7757
12.2808
6.77754
4.33815
3.19916
2.6714
2.47842
2.47277
2.6702
3.17716
4.33226
6.78927
12.2755
26.7504
81.1853
340.678
916.947
916.43
340.152
81.0454
26.6951
12.2715
6.77576
4.3131
3.17683
2.67033
2.47963
2.4777
2.6728
3.17386
4.34307
6.81162
12.2909
26.8077
81.4048
340.855
916.868
916.43
339.958
80.8853
26.6426
12.2454
6.77584
4.30668
3.16519
2.68104
2.48904
2.47879
2.67837
3.19519
4.3529
6.83771
12.349
26.8582
81.6555
340.941
916.74
916.45
339.886
80.7809
26.5997
12.2127
6.7719
4.31712
3.1703
2.67547
2.487
2.47778
2.67214
3.20701
4.3666
6.8439
12.3638
26.9073
81.7673
340.95
916.645
916.511
339.895
80.7569
26.585
12.2079
6.77521
4.3229
3.173
2.67027
2.47881
2.46958
2.66699
3.20601
4.3631
6.83143
12.3759
26.9292
81.7855
340.93
916.542
916.661
339.941
80.7578
26.5662
12.2157
6.78219
4.30967
3.15702
2.66008
2.46468
2.45736
2.66927
3.20184
4.36212
6.83483
12.3705
26.9296
81.761
340.848
916.416
916.797
339.978
80.7645
26.5837
12.2216
6.75973
4.31111
3.15848
2.6429
2.46189
2.46118
2.66038
3.18632
4.35192
6.8259
12.3741
26.9108
81.631
340.609
916.288
916.899
340.044
80.7917
26.5772
12.2304
6.7744
4.31896
3.16383
2.64232
2.47055
2.45761
2.65603
3.18122
4.34498
6.81058
12.3515
26.8608
81.3294
340.292
916.205
916.973
340.219
80.9122
26.6232
12.2507
6.79078
4.32265
3.17065
2.64778
2.45907
2.44787
2.66679
3.17988
4.32284
6.81631
12.3375
26.7656
81.0785
340.038
916.166
916.99
340.507
81.2475
26.7325
12.3062
6.81888
4.33875
3.19711
2.66563
2.45366
2.44835
2.6629
3.18059
4.32868
6.8117
12.3208
26.7136
80.934
339.92
916.166
916.976
340.761
81.5821
26.8691
12.3679
6.8238
4.3481
3.20572
2.67354
2.45782
2.4459
2.65525
3.18191
4.31966
6.79778
12.3175
26.6637
80.862
339.878
916.206
916.899
340.939
81.8526
26.985
12.4177
6.83073
4.35637
3.2145
2.67526
2.46567
2.46045
2.64979
3.16155