/*--------------------------------*- C++ -*----------------------------------*\
| =========                 |                                                 |
| \\      /  F ield         | OpenFOAM: The Open Source CFD Toolbox           |
|  \\    /   O peration     | Version:  2.1.0                                 |
|   \\  /    A nd           | Web:      www.OpenFOAM.org                      |
|    \\/     M anipulation  |                                                 |
\*---------------------------------------------------------------------------*/
FoamFile
{
    version     2.0;
    format      ascii;
    class       volScalarField;
    location    "0.07";
    object      p;
}
// * * * * * * * * * * * * * * * * * * * * * * * * * * * * * * * * * * * * * //

dimensions      [1 -1 -2 0 0 0 0];

internalField   nonuniform List<scalar> 
6400
(
100001
100008
100013
100017
100021
100024
100027
100030
100032
100035
100038
100040
100042
100044
100046
100048
100049
100051
100052
100053
100054
100055
100055
100056
100056
100056
100055
100054
100052
100051
100048
100046
100042
100039
100034
100030
100025
100019
100013
100006
99999
99991.3
99983.2
99974.6
99965.5
99956
99946
99935.7
99924.9
99913.8
99902.3
99890.6
99878.5
99866.2
99853.6
99840.8
99827.8
99814.6
99801.3
99787.8
99774.2
99760.5
99746.6
99732.6
99718.5
99704.3
99689.9
99675.4
99660.7
99645.8
99630.8
99615.5
99600.1
99584.3
99568.4
99552.1
99535.5
99518.7
99501.5
99483.9
99465.9
99447.5
99428.6
99409
99388.5
99367.1
99344.4
99320.1
99293.8
99265.5
99235.1
99203.8
99173.5
99145
99116.4
99088.3
99037
98930.9
98583.8
97069
100002
100008
100013
100017
100020
100023
100026
100028
100031
100033
100036
100038
100039
100041
100043
100045
100047
100048
100049
100050
100051
100052
100052
100053
100053
100052
100052
100051
100050
100048
100046
100043
100040
100037
100033
100028
100023
100018
100012
100005
99997.9
99990.3
99982.2
99973.6
99964.6
99955.1
99945.1
99934.8
99924
99912.9
99901.4
99889.6
99877.6
99865.2
99852.6
99839.8
99826.8
99813.7
99800.4
99786.9
99773.3
99759.6
99745.8
99731.8
99717.7
99703.5
99689.2
99674.7
99660.1
99645.3
99630.3
99615.1
99599.7
99584
99568.1
99551.9
99535.4
99518.6
99501.5
99484
99466
99447.7
99428.8
99409.2
99388.9
99367.5
99344.9
99320.7
99294.7
99266.6
99236.5
99205.4
99174.9
99146.7
99122.6
99096.7
99050.8
98959
98679.2
98166.3
100002
100009
100013
100017
100021
100023
100026
100028
100031
100034
100036
100037
100039
100041
100043
100045
100047
100048
100049
100050
100051
100052
100052
100052
100053
100052
100052
100051
100050
100048
100046
100043
100040
100037
100033
100028
100023
100018
100012
100005
99997.9
99990.3
99982.1
99973.5
99964.5
99955
99945
99934.6
99923.9
99912.7
99901.2
99889.4
99877.3
99864.9
99852.3
99839.5
99826.5
99813.3
99800
99786.6
99773.1
99759.4
99745.6
99731.7
99717.7
99703.5
99689.3
99674.9
99660.3
99645.6
99630.8
99615.7
99600.4
99584.9
99569.2
99553.1
99536.8
99520.2
99503.2
99485.9
99468.2
99450
99431.2
99411.8
99391.6
99370.3
99347.9
99323.9
99298.2
99270.6
99241.5
99212
99183.7
99158.8
99138.5
99114.8
99084.2
99029.4
98887.7
98989.5
100003
100010
100014
100017
100021
100024
100026
100028
100031
100034
100037
100037
100039
100042
100043
100045
100047
100048
100050
100050
100051
100052
100053
100053
100053
100053
100052
100051
100050
100049
100046
100044
100041
100037
100033
100029
100024
100018
100012
100005
99998.3
99990.6
99982.5
99973.9
99964.8
99955.3
99945.3
99935
99924.2
99913
99901.6
99889.7
99877.6
99865.3
99852.7
99839.9
99826.9
99813.8
99800.5
99787.1
99773.6
99760
99746.3
99732.4
99718.5
99704.4
99690.2
99675.9
99661.5
99646.9
99632.1
99617.1
99601.9
99586.5
99570.8
99554.9
99538.6
99522
99505
99487.6
99469.8
99451.5
99432.5
99412.9
99392.5
99371.1
99348.5
99324.5
99299.1
99272.3
99244.7
99217.6
99193
99172.9
99158.9
99149.7
99147.9
99156.7
99189.7
99605.5
100005
100011
100015
100017
100022
100024
100025
100028
100030
100035
100037
100037
100039
100042
100043
100046
100047
100048
100050
100051
100052
100053
100053
100053
100054
100053
100053
100052
100051
100049
100047
100045
100042
100038
100034
100029
100024
100019
100013
100006
99998.9
99991.3
99983.2
99974.6
99965.5
99956
99946
99935.7
99924.9
99913.8
99902.3
99890.5
99878.4
99866.1
99853.5
99840.8
99827.8
99814.7
99801.5
99788.1
99774.6
99761
99747.3
99733.5
99719.5
99705.5
99691.3
99677
99662.6
99648
99633.2
99618.3
99603.1
99587.6
99571.9
99555.9
99539.6
99522.9
99505.8
99488.3
99470.3
99451.8
99432.6
99412.8
99392.1
99370.5
99347.7
99323.8
99298.8
99273
99247.2
99223.3
99203.6
99190.2
99186.9
99199.3
99238
99329.8
99526
100087
100006
100014
100017
100016
100024
100024
100025
100029
100030
100036
100038
100037
100040
100042
100043
100047
100048
100049
100051
100051
100052
100053
100054
100054
100054
100054
100054
100053
100051
100050
100048
100045
100042
100039
100035
100030
100025
100020
100014
100007
99999.8
99992.1
99984
99975.4
99966.4
99956.8
99946.9
99936.5
99925.8
99914.7
99903.2
99891.4
99879.3
99867
99854.4
99841.6
99828.7
99815.6
99802.3
99789
99775.5
99761.9
99748.2
99734.3
99720.4
99706.4
99692.2
99677.9
99663.5
99648.9
99634.1
99619.1
99603.8
99588.3
99572.6
99556.5
99540.1
99523.3
99506.1
99488.4
99470.2
99451.5
99432.1
99411.9
99390.9
99369
99346.1
99322.2
99297.6
99272.9
99249.1
99228.6
99214.1
99208.6
99219
99257.1
99342.7
99522.1
99846.6
100461
100009
100020
100019
100014
100026
100026
100025
100029
100030
100037
100038
100036
100041
100042
100043
100047
100047
100050
100052
100052
100053
100054
100054
100055
100055
100055
100054
100053
100052
100050
100048
100046
100043
100039
100035
100031
100026
100020
100014
100008
100001
99992.9
99984.8
99976.2
99967.1
99957.6
99947.7
99937.3
99926.6
99915.4
99904
99892.2
99880.1
99867.8
99855.2
99842.4
99829.5
99816.4
99803.1
99789.7
99776.2
99762.6
99748.8
99735
99721
99707
99692.8
99678.5
99664.1
99649.4
99634.6
99619.6
99604.4
99588.8
99573
99556.9
99540.4
99523.5
99506.1
99488.3
99469.9
99450.8
99431.1
99410.7
99389.4
99367.1
99344
99320.2
99296
99272.2
99250.3
99232.9
99223.4
99225.9
99250.6
99314.7
99447
99705.4
100120
100741
100023
100026
100021
100011
100025
100029
100025
100028
100030
100036
100037
100038
100041
100041
100045
100047
100046
100051
100052
100052
100053
100054
100055
100055
100055
100055
100055
100054
100053
100051
100049
100046
100043
100040
100036
100031
100026
100021
100015
100008
100001
99993.4
99985.3
99976.7
99967.6
99958.1
99948.2
99937.8
99927.1
99916
99904.5
99892.7
99880.6
99868.3
99855.7
99842.9
99830
99816.8
99803.6
99790.2
99776.6
99763
99749.2
99735.4
99721.4
99707.4
99693.2
99678.9
99664.5
99649.9
99635.1
99620.1
99604.8
99589.3
99573.5
99557.3
99540.8
99523.8
99506.3
99488.3
99469.6
99450.4
99430.3
99409.5
99387.8
99365.3
99341.9
99318
99294.1
99271.1
99250.7
99235.7
99230.3
99240
99277.1
99364
99536.5
99857.5
100329
100937
100044
100030
100024
100011
100022
100031
100027
100027
100030
100036
100036
100041
100041
100041
100047
100046
100046
100052
100053
100052
100054
100054
100055
100055
100056
100056
100055
100054
100053
100051
100049
100047
100044
100040
100036
100031
100026
100021
100015
100008
100001
99993.6
99985.4
99976.9
99967.8
99958.3
99948.4
99938
99927.3
99916.2
99904.7
99892.9
99880.8
99868.5
99855.9
99843.2
99830.2
99817.1
99803.8
99790.4
99776.9
99763.2
99749.5
99735.7
99721.8
99707.7
99693.6
99679.3
99664.9
99650.4
99635.6
99620.6
99605.4
99589.9
99574.1
99557.9
99541.3
99524.2
99506.6
99488.4
99469.6
99450
99429.7
99408.5
99386.5
99363.5
99339.8
99315.8
99292
99269.5
99250.1
99236.6
99233.9
99249
99295.4
99398.5
99599.9
99963.6
100467
101061
100052
100030
100024
100015
100020
100029
100028
100026
100029
100036
100035
100041
100041
100041
100047
100046
100046
100052
100053
100052
100054
100055
100055
100056
100056
100056
100055
100055
100053
100052
100049
100047
100044
100040
100036
100032
100027
100021
100015
100008
100001
99993.6
99985.5
99976.9
99967.8
99958.3
99948.4
99938.1
99927.3
99916.2
99904.7
99893
99880.9
99868.6
99856
99843.2
99830.3
99817.2
99803.9
99790.5
99777
99763.4
99749.7
99735.9
99722
99708
99693.9
99679.7
99665.4
99650.8
99636.1
99621.2
99606
99590.5
99574.7
99558.5
99541.8
99524.7
99507
99488.7
99469.7
99449.9
99429.2
99407.7
99385.2
99361.8
99337.8
99313.4
99289.5
99267.1
99248.1
99235.4
99233.9
99251.7
99303
99414.2
99630
100015
100532
101121
100036
100027
100023
100017
100020
100024
100028
100027
100028
100037
100035
100039
100044
100041
100045
100047
100046
100052
100053
100052
100054
100055
100055
100056
100056
100056
100055
100054
100053
100052
100049
100047
100044
100040
100036
100032
100027
100021
100015
100008
100001
99993.6
99985.5
99976.9
99967.8
99958.3
99948.4
99938.1
99927.3
99916.2
99904.7
99892.9
99880.9
99868.5
99856
99843.2
99830.3
99817.2
99803.9
99790.6
99777.1
99763.5
99749.8
99736
99722.2
99708.2
99694.2
99680
99665.7
99651.3
99636.6
99621.7
99606.5
99591.1
99575.3
99559.1
99542.4
99525.2
99507.5
99489
99469.8
99449.7
99428.8
99406.9
99384
99360.2
99335.6
99310.9
99286.5
99263.9
99244.7
99231.8
99230.1
99247.5
99298.5
99408.9
99623.1
100006
100521
101110
100016
100022
100021
100019
100020
100021
100027
100027
100026
100039
100036
100037
100045
100042
100043
100047
100048
100051
100053
100052
100053
100054
100055
100055
100056
100056
100055
100054
100053
100051
100049
100047
100044
100040
100036
100031
100026
100021
100015
100008
100001
99993.6
99985.4
99976.9
99967.8
99958.3
99948.4
99938
99927.3
99916.1
99904.7
99892.9
99880.8
99868.5
99855.9
99843.2
99830.2
99817.1
99803.9
99790.5
99777.1
99763.5
99749.8
99736.1
99722.3
99708.4
99694.4
99680.3
99666
99651.6
99637
99622.2
99607.1
99591.7
99575.9
99559.7
99543
99525.8
99507.9
99489.3
99470
99449.7
99428.4
99406.2
99382.8
99358.5
99333.4
99308.1
99283.1
99260
99240.1
99226
99222.5
99236.9
99282.5
99383.2
99580.2
99937.9
100437
101031
99997.6
100015
100019
100019
100018
100021
100027
100025
100024
100039
100038
100035
100044
100044
100041
100046
100050
100050
100053
100052
100053
100054
100055
100055
100055
100055
100055
100054
100053
100051
100049
100046
100043
100040
100036
100031
100026
100021
100015
100008
100001
99993.3
99985.2
99976.6
99967.6
99958.1
99948.1
99937.8
99927
99915.9
99904.4
99892.6
99880.6
99868.3
99855.7
99843
99830
99816.9
99803.7
99790.4
99776.9
99763.4
99749.8
99736.1
99722.3
99708.5
99694.5
99680.5
99666.3
99651.9
99637.4
99622.6
99607.6
99592.2
99576.5
99560.3
99543.7
99526.4
99508.5
99489.8
99470.3
99449.8
99428.3
99405.6
99381.9
99357.1
99331.4
99305.2
99279.5
99255.3
99234.3
99218.4
99211.7
99220.8
99256.7
99339.6
99505.6
99817.8
100282
100891
99988.2
100008
100016
100019
100017
100023
100026
100024
100025
100037
100039
100035
100041
100046
100040
100045
100051
100049
100052
100052
100053
100054
100054
100055
100055
100055
100054
100053
100052
100050
100048
100046
100043
100039
100035
100031
100026
100020
100014
100008
100000
99992.8
99984.7
99976.1
99967.1
99957.5
99947.6
99937.2
99926.5
99915.3
99903.9
99892.1
99880
99867.7
99855.2
99842.4
99829.5
99816.5
99803.3
99790
99776.6
99763.1
99749.5
99735.9
99722.2
99708.4
99694.6
99680.6
99666.5
99652.2
99637.8
99623.1
99608.1
99592.8
99577.2
99561
99544.4
99527.1
99509.2
99490.4
99470.8
99450.1
99428.3
99405.4
99381.3
99355.9
99329.6
99302.6
99275.8
99250.3
99227.7
99209.5
99198.6
99200.8
99223.6
99282.9
99407.1
99654.3
100059
100679
99994.2
100004
100013
100017
100018
100022
100025
100024
100026
100035
100039
100036
100039
100045
100042
100045
100050
100049
100051
100052
100052
100053
100054
100054
100054
100054
100054
100053
100051
100050
100048
100045
100042
100039
100035
100030
100025
100020
100013
100007
99999.7
99992.1
99984
99975.4
99966.3
99956.8
99946.8
99936.4
99925.7
99914.6
99903.1
99891.3
99879.3
99867
99854.4
99841.7
99828.8
99815.8
99802.6
99789.3
99776
99762.6
99749.1
99735.5
99721.9
99708.1
99694.3
99680.4
99666.4
99652.3
99637.9
99623.3
99608.4
99593.3
99577.7
99561.6
99545
99527.8
99509.8
99491
99471.3
99450.5
99428.6
99405.4
99380.9
99355
99328
99300.1
99272.1
99245.1
99220.6
99199.8
99185
99179.2
99187.4
99220.3
99296.9
99463.4
99774.5
100385
99997.7
100004
100011
100016
100018
100021
100024
100025
100028
100033
100037
100037
100039
100043
100043
100045
100048
100049
100050
100051
100052
100053
100053
100053
100054
100053
100053
100052
100051
100049
100047
100045
100042
100038
100034
100029
100024
100019
100013
100006
99999
99991.3
99983.2
99974.6
99965.5
99956
99946
99935.6
99924.9
99913.8
99902.3
99890.5
99878.4
99866.1
99853.6
99840.9
99828
99814.9
99801.8
99788.6
99775.2
99761.8
99748.4
99734.8
99721.2
99707.6
99693.8
99680
99666
99651.9
99637.6
99623.1
99608.4
99593.3
99577.8
99561.8
99545.3
99528.1
99510.2
99491.4
99471.6
99450.7
99428.6
99405.2
99380.4
99354.1
99326.5
99297.8
99268.6
99239.9
99213.4
99190
99171.4
99158.5
99152.8
99160
99189.5
99267.7
99447
99997.4
99998.2
100004
100010
100015
100018
100021
100024
100026
100028
100033
100036
100037
100039
100042
100043
100045
100047
100049
100049
100051
100051
100052
100053
100053
100053
100053
100052
100052
100050
100049
100047
100044
100041
100037
100033
100029
100024
100018
100012
100006
99998.4
99990.7
99982.6
99973.9
99964.9
99955.3
99945.4
99935
99924.3
99913.1
99901.6
99889.8
99877.8
99865.4
99852.9
99840.1
99827.2
99814.2
99801
99787.8
99774.4
99761
99747.6
99734
99720.4
99706.8
99693.1
99679.2
99665.3
99651.3
99637
99622.6
99607.9
99592.8
99577.4
99561.5
99545
99527.8
99509.9
99491.1
99471.3
99450.4
99428.2
99404.6
99379.6
99353
99324.8
99295.3
99265
99234.9
99206.4
99180.7
99159
99140.9
99124
99110
99099.3
99094.6
99108.1
99503.5
99998.6
100004
100010
100014
100018
100021
100023
100026
100029
100032
100035
100037
100039
100041
100043
100045
100047
100048
100049
100050
100051
100052
100052
100053
100053
100052
100052
100051
100050
100048
100046
100043
100040
100037
100033
100028
100023
100018
100012
100005
99998
99990.4
99982.3
99973.7
99964.6
99955.1
99945.1
99934.8
99924
99912.9
99901.4
99889.6
99877.5
99865.2
99852.6
99839.9
99826.9
99813.9
99800.7
99787.4
99774.1
99760.6
99747.1
99733.6
99719.9
99706.2
99692.5
99678.6
99664.6
99650.5
99636.2
99621.7
99607
99591.9
99576.4
99560.4
99543.9
99526.7
99508.7
99489.9
99470
99449.1
99426.8
99403.1
99377.9
99351
99322.5
99292.4
99261.3
99230
99200
99172.7
99148.5
99128.1
99104.4
99076.1
99037.2
98969.2
98806.7
98873.8
99998.7
100004
100010
100014
100018
100021
100023
100026
100029
100032
100035
100037
100039
100041
100043
100045
100047
100048
100049
100050
100051
100052
100052
100053
100053
100052
100052
100051
100050
100048
100046
100043
100040
100037
100033
100028
100023
100018
100012
100005
99998
99990.4
99982.3
99973.8
99964.7
99955.2
99945.3
99935
99924.2
99913.1
99901.7
99889.9
99877.8
99865.5
99853
99840.3
99827.4
99814.3
99801.2
99787.9
99774.5
99761.1
99747.6
99734
99720.3
99706.6
99692.7
99678.8
99664.8
99650.6
99636.2
99621.7
99606.8
99591.6
99576
99559.9
99543.2
99525.9
99507.8
99488.7
99468.7
99447.5
99425
99401
99375.5
99348.2
99319.2
99288.5
99256.6
99224.1
99192.8
99163.8
99137.3
99114.1
99092.1
99059.3
99005
98900.1
98598.9
98027.5
99998.8
100004
100010
100014
100018
100022
100025
100028
100031
100034
100037
100039
100042
100044
100046
100048
100050
100051
100052
100053
100054
100055
100056
100056
100056
100056
100055
100054
100053
100051
100048
100046
100042
100039
100035
100030
100025
100019
100013
100006
99999.2
99991.5
99983.4
99974.8
99965.7
99956.2
99946.2
99935.9
99925.1
99914
99902.6
99890.8
99878.8
99866.5
99854
99841.3
99828.4
99815.3
99802.2
99788.9
99775.5
99762.1
99748.5
99734.9
99721.3
99707.5
99693.7
99679.8
99665.7
99651.6
99637.2
99622.6
99607.7
99592.5
99576.9
99560.8
99544.1
99526.7
99508.6
99489.5
99469.5
99448.2
99425.6
99401.6
99375.9
99348.6
99319.4
99288.6
99256.4
99224
99192.9
99164.2
99138.9
99113.4
99083.4
99042
98984.3
98869
98502.6
96894.1
100525
101742
102257
102549
102748
102897
103014
103108
103186
103250
103304
103349
103386
103417
103443
103463
103478
103489
103494
103494
100475
101456
102059
102436
102688
102868
103004
103111
103197
103267
103324
103372
103411
103443
103469
103489
103505
103515
103519
103518
100740
101478
101996
102373
102643
102842
102992
103110
103203
103278
103339
103389
103430
103463
103489
103509
103524
103533
103537
103535
100992
101592
102032
102374
102637
102839
102995
103117
103215
103294
103357
103409
103450
103484
103509
103529
103543
103551
103554
103551
101204
101712
102098
102408
102656
102852
103008
103132
103232
103312
103377
103429
103471
103504
103530
103548
103561
103567
103569
103566
101380
101823
102169
102454
102686
102875
103027
103151
103251
103332
103397
103450
103492
103525
103549
103566
103577
103582
103583
103577
101521
101917
102234
102500
102720
102901
103050
103171
103270
103351
103417
103470
103511
103543
103567
103583
103592
103595
103594
103586
101626
101989
102287
102539
102750
102925
103070
103190
103289
103369
103435
103488
103529
103560
103583
103597
103604
103606
103603
103592
101696
102039
102326
102569
102775
102946
103089
103208
103306
103386
103451
103503
103544
103574
103596
103609
103614
103614
103610
103597
101733
102067
102348
102588
102790
102959
103101
103218
103315
103395
103459
103511
103552
103582
103603
103615
103620
103619
103613
103599
101722
102057
102339
102579
102781
102951
103093
103211
103309
103389
103454
103506
103547
103578
103599
103612
103617
103617
103611
103594
101670
102016
102303
102548
102754
102927
103071
103191
103290
103371
103437
103491
103533
103564
103587
103601
103608
103609
103605
103591
101588
101954
102255
102509
102722
102899
103046
103168
103268
103351
103418
103472
103515
103548
103572
103587
103596
103599
103596
103585
101471
101871
102191
102460
102683
102868
103019
103143
103245
103328
103396
103450
103494
103528
103553
103571
103582
103586
103585
103578
101319
101767
102117
102406
102642
102835
102991
103118
103221
103304
103373
103428
103472
103507
103533
103552
103565
103571
103572
103567
101133
101647
102037
102353
102605
102806
102966
103094
103198
103281
103349
103404
103449
103484
103512
103532
103546
103554
103557
103553
100910
101517
101963
102313
102582
102789
102950
103077
103178
103260
103326
103381
103425
103461
103489
103510
103526
103535
103539
103537
100647
101394
101922
102306
102584
102789
102944
103066
103163
103242
103306
103359
103402
103438
103466
103488
103505
103515
103520
103518
100370
101367
101981
102368
102627
102813
102955
103066
103156
103229
103290
103340
103382
103417
103445
103467
103484
103495
103500
103498
100411
101653
102180
102481
102686
102841
102962
103061
103142
103210
103267
103315
103355
103388
103415
103437
103454
103466
103472
103472
103349
103347
103347
103346
103345
103344
103344
103344
103344
103343
103343
103344
103344
103344
103344
103345
103346
103347
103347
103349
103346
103344
103344
103344
103343
103343
103343
103343
103342
103342
103342
103342
103343
103343
103343
103343
103344
103344
103344
103346
103346
103343
103343
103343
103343
103343
103343
103343
103343
103343
103343
103343
103343
103343
103343
103343
103343
103343
103343
103346
103346
103344
103344
103344
103344
103344
103344
103344
103344
103344
103344
103344
103344
103344
103344
103344
103344
103344
103344
103346
103345
103344
103343
103343
103343
103343
103343
103343
103343
103343
103343
103343
103343
103343
103343
103343
103343
103343
103344
103345
103345
103343
103343
103343
103343
103343
103343
103343
103342
103342
103342
103342
103343
103343
103343
103343
103343
103343
103343
103345
103344
103342
103342
103342
103342
103342
103342
103342
103342
103342
103342
103342
103342
103342
103342
103342
103342
103342
103342
103344
103343
103342
103342
103341
103341
103341
103341
103341
103341
103341
103341
103341
103341
103341
103341
103341
103341
103342
103342
103343
103343
103341
103341
103341
103341
103341
103341
103341
103341
103341
103341
103341
103341
103341
103341
103341
103341
103341
103341
103343
103342
103340
103340
103340
103340
103340
103340
103340
103340
103340
103340
103340
103340
103340
103340
103340
103340
103340
103340
103342
103341
103340
103340
103340
103339
103339
103339
103339
103339
103339
103339
103339
103339
103339
103339
103339
103340
103340
103340
103341
103341
103339
103339
103339
103339
103339
103339
103339
103339
103339
103339
103339
103339
103339
103339
103339
103339
103339
103339
103341
103340
103338
103338
103338
103338
103338
103338
103338
103338
103338
103338
103338
103338
103338
103338
103338
103338
103338
103338
103340
103339
103337
103337
103337
103337
103337
103337
103337
103337
103337
103337
103337
103337
103337
103337
103337
103337
103337
103337
103339
103338
103337
103337
103336
103336
103336
103336
103336
103336
103336
103336
103336
103336
103336
103336
103336
103336
103337
103337
103338
103337
103336
103336
103336
103336
103336
103336
103336
103336
103336
103336
103336
103336
103336
103336
103336
103336
103336
103336
103337
103337
103335
103335
103335
103335
103335
103335
103335
103335
103335
103335
103335
103335
103335
103335
103335
103335
103335
103335
103337
103336
103334
103334
103334
103334
103334
103334
103334
103334
103334
103334
103334
103334
103334
103334
103334
103334
103334
103334
103336
103335
103333
103333
103333
103333
103333
103333
103334
103334
103334
103334
103334
103334
103333
103333
103333
103333
103333
103333
103335
103334
103332
103332
103332
103332
103332
103333
103333
103333
103333
103333
103333
103333
103333
103332
103332
103332
103332
103332
103334
103333
103331
103331
103331
103331
103331
103332
103332
103333
103333
103333
103333
103332
103332
103331
103331
103331
103331
103331
103333
103331
103330
103329
103330
103330
103330
103330
103330
103330
103330
103330
103330
103330
103330
103330
103330
103330
103329
103330
103331
103330
103328
103328
103328
103328
103328
103328
103328
103327
103327
103327
103327
103328
103328
103328
103328
103328
103328
103328
103330
103329
103327
103327
103327
103327
103327
103328
103329
103330
103330
103330
103330
103329
103328
103327
103327
103327
103327
103327
103329
103327
103325
103325
103325
103325
103326
103326
103327
103328
103329
103329
103328
103327
103326
103326
103325
103325
103325
103325
103327
103325
103323
103323
103323
103323
103323
103323
103322
103321
103321
103321
103321
103322
103323
103323
103323
103323
103323
103323
103325
103324
103322
103322
103321
103321
103322
103322
103322
103322
103323
103323
103323
103322
103322
103322
103321
103321
103321
103322
103324
103322
103320
103320
103320
103320
103321
103322
103322
103323
103323
103323
103323
103322
103322
103321
103320
103320
103320
103320
103322
103320
103318
103318
103318
103318
103317
103317
103316
103315
103315
103315
103315
103316
103317
103317
103318
103318
103318
103318
103320
103318
103316
103316
103316
103316
103316
103316
103316
103316
103316
103316
103316
103316
103316
103316
103316
103316
103316
103316
103318
103316
103315
103315
103315
103315
103316
103317
103318
103318
103318
103318
103318
103318
103317
103316
103315
103315
103315
103315
103316
103314
103313
103313
103313
103313
103313
103313
103313
103313
103313
103313
103313
103313
103313
103313
103313
103313
103313
103313
103314
103312
103311
103311
103311
103311
103310
103310
103310
103311
103311
103311
103311
103310
103310
103310
103310
103311
103311
103311
103312
103310
103309
103309
103309
103309
103309
103309
103308
103307
103306
103306
103307
103307
103308
103309
103309
103309
103309
103309
103310
103308
103307
103307
103307
103307
103307
103307
103307
103307
103307
103307
103307
103307
103306
103307
103307
103307
103307
103307
103308
103307
103306
103306
103306
103306
103306
103306
103307
103308
103308
103308
103308
103307
103306
103306
103306
103306
103306
103306
103307
103305
103304
103304
103304
103304
103304
103304
103303
103303
103303
103303
103302
103303
103303
103304
103304
103304
103304
103304
103305
103303
103303
103303
103303
103303
103303
103303
103304
103304
103304
103303
103304
103304
103303
103303
103303
103303
103303
103303
103304
103302
103301
103301
103302
103302
103303
103303
103302
103302
103303
103304
103304
103303
103303
103303
103302
103302
103302
103302
103302
103300
103300
103300
103300
103300
103300
103300
103299
103298
103298
103298
103299
103300
103300
103300
103300
103300
103300
103300
103301
103298
103298
103298
103298
103298
103298
103298
103298
103298
103298
103297
103297
103298
103298
103299
103299
103299
103299
103299
103299
103297
103296
103296
103296
103296
103296
103295
103295
103295
103295
103295
103296
103297
103297
103298
103298
103298
103298
103298
103298
103295
103295
103295
103295
103294
103294
103293
103293
103293
103293
103294
103295
103297
103298
103297
103297
103297
103297
103296
103297
103294
103294
103294
103294
103294
103294
103294
103295
103295
103296
103297
103297
103297
103297
103296
103296
103295
103295
103295
103295
103292
103292
103292
103292
103293
103293
103294
103294
103295
103295
103296
103296
103295
103295
103294
103294
103293
103293
103293
103293
103291
103291
103291
103291
103291
103292
103292
103293
103294
103295
103295
103293
103293
103292
103292
103291
103291
103291
103291
103291
103289
103289
103289
103289
103289
103290
103290
103290
103291
103292
103293
103292
103290
103289
103289
103289
103289
103289
103289
103289
103287
103287
103287
103287
103287
103287
103287
103287
103286
103286
103285
103285
103285
103286
103286
103286
103286
103286
103286
103286
103285
103285
103285
103285
103285
103284
103284
103284
103284
103283
103282
103282
103282
103282
103283
103283
103284
103284
103284
103284
103283
103283
103282
103282
103282
103283
103283
103282
103280
103279
103279
103279
103280
103281
103281
103282
103282
103282
103282
103282
103281
103281
103280
103280
103280
103280
103279
103278
103278
103277
103277
103278
103278
103279
103280
103280
103280
103280
103280
103280
103279
103279
103279
103278
103278
103278
103278
103277
103278
103278
103279
103279
103279
103279
103278
103279
103279
103279
103279
103279
103277
103277
103277
103277
103277
103277
103277
103276
103276
103276
103277
103277
103277
103277
103277
103277
103277
103277
103277
103277
103276
103276
103276
103276
103276
103276
103276
103276
103276
103275
103275
103274
103275
103275
103275
103275
103276
103276
103276
103276
103274
103274
103274
103274
103274
103274
103275
103276
103277
103278
103277
103276
103275
103275
103275
103274
103274
103274
103274
103274
103273
103273
103273
103273
103273
103273
103273
103273
103275
103276
103277
103277
103275
103274
103273
103273
103273
103273
103273
103273
103271
103271
103271
103271
103271
103271
103271
103270
103268
103268
103267
103268
103270
103271
103271
103271
103271
103271
103271
103271
103270
103270
103270
103270
103270
103269
103269
103268
103267
103266
103266
103267
103268
103268
103268
103269
103269
103269
103270
103270
103269
103269
103269
103269
103269
103269
103268
103267
103267
103266
103266
103266
103266
103266
103267
103267
103268
103268
103268
103268
103268
103268
103268
103268
103267
103267
103267
103267
103266
103266
103266
103265
103265
103266
103266
103266
103267
103267
103267
103267
103267
103267
103267
103267
103267
103267
103267
103267
103268
103267
103267
103267
103266
103266
103266
103266
103266
103266
103266
103266
103266
103266
103266
103266
103266
103267
103267
103267
103267
103267
103266
103266
103266
103266
103265
103265
103265
103265
103265
103265
103265
103265
103265
103265
103265
103265
103265
103266
103266
103266
103265
103265
103264
103264
103265
103265
103265
103265
103264
103264
103264
103264
103264
103264
103264
103264
103264
103264
103264
103264
103264
103264
103265
103265
103264
103264
103264
103264
103264
103264
103263
103263
103263
103263
103263
103262
103262
103262
103262
103262
103263
103263
103263
103263
103263
103263
103263
103263
103263
103263
103261
103261
103261
103261
103261
103261
103262
103262
103262
103261
103261
103261
103261
103261
103261
103261
103261
103262
103262
103262
103260
103260
103260
103260
103260
103260
103260
103260
103260
103261
103260
103260
103260
103260
103260
103261
103261
103261
103261
103261
103259
103259
103259
103259
103259
103259
103259
103259
103260
103261
103260
103260
103260
103260
103260
103260
103260
103260
103260
103260
103258
103258
103258
103258
103258
103259
103260
103260
103260
103259
103260
103260
103260
103259
103259
103259
103259
103259
103259
103259
103257
103257
103257
103257
103257
103257
103256
103256
103257
103257
103257
103257
103258
103259
103259
103259
103258
103258
103258
103258
103256
103256
103256
103256
103256
103256
103255
103255
103255
103256
103256
103257
103257
103257
103256
103256
103257
103257
103257
103257
103255
103255
103255
103255
103255
103255
103255
103256
103256
103256
103256
103255
103255
103255
103255
103255
103255
103255
103255
103255
103254
103254
103254
103254
103255
103255
103255
103254
103254
103254
103253
103254
103254
103254
103254
103254
103254
103254
103254
103254
103253
103253
103253
103253
103253
103253
103254
103254
103254
103254
103255
103255
103254
103254
103253
103253
103253
103253
103253
103253
103251
103251
103251
103251
103251
103251
103251
103252
103253
103253
103254
103253
103253
103252
103252
103252
103251
103251
103251
103251
103250
103250
103250
103250
103250
103250
103249
103249
103250
103250
103249
103249
103249
103249
103249
103249
103250
103250
103250
103250
103248
103248
103248
103248
103248
103248
103248
103247
103246
103246
103245
103245
103246
103247
103248
103249
103249
103249
103249
103249
103247
103247
103247
103247
103247
103247
103246
103246
103245
103245
103246
103246
103247
103247
103247
103248
103248
103248
103248
103248
103246
103246
103246
103246
103247
103247
103247
103247
103247
103247
103247
103247
103247
103247
103247
103247
103247
103248
103248
103248
103245
103245
103245
103245
103245
103246
103247
103247
103247
103247
103247
103247
103247
103247
103247
103247
103247
103247
103247
103247
103243
103243
103244
103244
103244
103244
103243
103244
103244
103246
103246
103246
103246
103246
103246
103246
103246
103246
103247
103247
103242
103242
103242
103242
103242
103242
103242
103242
103243
103244
103244