/*--------------------------------*- C++ -*----------------------------------*\
| =========                 |                                                 |
| \\      /  F ield         | OpenFOAM: The Open Source CFD Toolbox           |
|  \\    /   O peration     | Version:  2.1.0                                 |
|   \\  /    A nd           | Web:      www.OpenFOAM.org                      |
|    \\/     M anipulation  |                                                 |
\*---------------------------------------------------------------------------*/
FoamFile
{
    version     2.0;
    format      ascii;
    class       surfaceScalarField;
    location    "0.07";
    object      phi;
}
// * * * * * * * * * * * * * * * * * * * * * * * * * * * * * * * * * * * * * //

dimensions      [0 3 -1 0 0 0 0];

internalField   nonuniform List<scalar> 
12460
(
-2.95421e-05
5.06947e-09
-2.95448e-05
2.67626e-09
-2.95452e-05
4.47397e-10
-2.95454e-05
1.75113e-10
-2.9545e-05
-4.13004e-10
-2.95442e-05
-8.11581e-10
-2.95429e-05
-1.31984e-09
-2.954e-05
-2.89134e-09
-2.95338e-05
-6.13208e-09
-2.95251e-05
-8.73376e-09
-2.95142e-05
-1.09424e-08
-2.95014e-05
-1.2738e-08
-2.94863e-05
-1.51076e-08
-2.94676e-05
-1.8669e-08
-2.94449e-05
-2.27742e-08
-2.94171e-05
-2.77978e-08
-2.93827e-05
-3.43407e-08
-2.93418e-05
-4.08844e-08
-2.92949e-05
-4.69051e-08
-2.92416e-05
-5.33789e-08
-2.91811e-05
-6.04699e-08
-2.91126e-05
-6.84668e-08
-2.90352e-05
-7.74543e-08
-2.89476e-05
-8.75645e-08
-2.88487e-05
-9.88717e-08
-2.87375e-05
-1.11268e-07
-2.86129e-05
-1.24612e-07
-2.8474e-05
-1.3887e-07
-2.832e-05
-1.53937e-07
-2.81503e-05
-1.69711e-07
-2.79643e-05
-1.86082e-07
-2.77614e-05
-2.02904e-07
-2.75413e-05
-2.20024e-07
-2.73041e-05
-2.37263e-07
-2.70496e-05
-2.54421e-07
-2.67784e-05
-2.71281e-07
-2.64907e-05
-2.87618e-07
-2.61875e-05
-3.03229e-07
-2.58696e-05
-3.17937e-07
-2.5538e-05
-3.31625e-07
-2.51937e-05
-3.44271e-07
-2.48377e-05
-3.55938e-07
-2.4471e-05
-3.6674e-07
-2.40942e-05
-3.76804e-07
-2.3708e-05
-3.86214e-07
-2.33131e-05
-3.94928e-07
-2.29103e-05
-4.02784e-07
-2.25008e-05
-4.09463e-07
-2.2086e-05
-4.14795e-07
-2.16673e-05
-4.18721e-07
-2.1246e-05
-4.21269e-07
-2.08235e-05
-4.22569e-07
-2.04007e-05
-4.22804e-07
-1.99785e-05
-4.22189e-07
-1.95575e-05
-4.20955e-07
-1.91381e-05
-4.19395e-07
-1.87204e-05
-4.17748e-07
-1.83042e-05
-4.16142e-07
-1.78895e-05
-4.14689e-07
-1.74761e-05
-4.1348e-07
-1.70636e-05
-4.125e-07
-1.66519e-05
-4.11671e-07
-1.62409e-05
-4.10994e-07
-1.58303e-05
-4.10546e-07
-1.54199e-05
-4.104e-07
-1.50093e-05
-4.10608e-07
-1.45981e-05
-4.11233e-07
-1.41857e-05
-4.12353e-07
-1.37718e-05
-4.13968e-07
-1.33556e-05
-4.16147e-07
-1.29366e-05
-4.19049e-07
-1.25139e-05
-4.22638e-07
-1.20872e-05
-4.26741e-07
-1.16557e-05
-4.31479e-07
-1.12186e-05
-4.37136e-07
-1.07749e-05
-4.43688e-07
-1.0324e-05
-4.50886e-07
-9.86519e-06
-4.58826e-07
-9.39702e-06
-4.68171e-07
-8.91758e-06
-4.79439e-07
-8.42467e-06
-4.92915e-07
-7.91556e-06
-5.09109e-07
-7.38682e-06
-5.28739e-07
-6.83407e-06
-5.52746e-07
-6.25222e-06
-5.81849e-07
-5.6361e-06
-6.16124e-07
-4.98109e-06
-6.55005e-07
-4.28446e-06
-6.96639e-07
-3.54743e-06
-7.37026e-07
-2.77934e-06
-7.68087e-07
-2.00586e-06
-7.7348e-07
-1.28401e-06
-7.21854e-07
-7.06558e-07
-5.7745e-07
-3.67838e-07
-3.3872e-07
-3.19167e-07
-4.86703e-08
-5.88612e-07
2.69445e-07
-1.47888e-06
8.90265e-07
-3.69063e-06
2.21175e-06
-8.9494e-06
5.25878e-06
1.4538e-05
-2.34874e-05
-3.82979e-05
7.78925e-09
-3.82941e-05
-1.12204e-09
-3.82869e-05
-6.75341e-09
-3.82768e-05
-9.9103e-09
-3.82633e-05
-1.38841e-08
-3.82468e-05
-1.73064e-08
-3.82271e-05
-2.10628e-08
-3.82028e-05
-2.71757e-08
-3.81723e-05
-3.6642e-08
-3.81343e-05
-4.66959e-08
-3.80897e-05
-5.55474e-08
-3.80387e-05
-6.37669e-08
-3.79801e-05
-7.36622e-08
-3.7912e-05
-8.68184e-08
-3.78333e-05
-1.01509e-07
-3.77428e-05
-1.18224e-07
-3.76384e-05
-1.38747e-07
-3.75204e-05
-1.58952e-07
-3.73899e-05
-1.77409e-07
-3.72464e-05
-1.96859e-07
-3.70894e-05
-2.17471e-07
-3.6918e-05
-2.3986e-07
-3.67314e-05
-2.64039e-07
-3.65288e-05
-2.90125e-07
-3.63096e-05
-3.1806e-07
-3.60735e-05
-3.47448e-07
-3.58204e-05
-3.77719e-07
-3.55507e-05
-4.08489e-07
-3.52652e-05
-4.39473e-07
-3.49645e-05
-4.70435e-07
-3.46495e-05
-5.01101e-07
-3.43212e-05
-5.31143e-07
-3.39809e-05
-5.60343e-07
-3.36296e-05
-5.88526e-07
-3.32686e-05
-6.15504e-07
-3.28988e-05
-6.41074e-07
-3.25214e-05
-6.65017e-07
-3.21375e-05
-6.871e-07
-3.17483e-05
-7.07097e-07
-3.13551e-05
-7.24858e-07
-3.0959e-05
-7.40375e-07
-3.05612e-05
-7.53786e-07
-3.01626e-05
-7.65297e-07
-2.97643e-05
-7.7514e-07
-2.93669e-05
-7.83544e-07
-2.89712e-05
-7.90675e-07
-2.85774e-05
-7.96565e-07
-2.81858e-05
-8.01067e-07
-2.77966e-05
-8.04036e-07
-2.74099e-05
-8.05359e-07
-2.70262e-05
-8.04969e-07
-2.66459e-05
-8.02921e-07
-2.62693e-05
-7.99396e-07
-2.58968e-05
-7.94649e-07
-2.55288e-05
-7.88963e-07
-2.51655e-05
-7.82697e-07
-2.48071e-05
-7.76185e-07
-2.44536e-05
-7.69652e-07
-2.41049e-05
-7.63318e-07
-2.3761e-05
-7.57406e-07
-2.34214e-05
-7.52062e-07
-2.30858e-05
-7.47286e-07
-2.27538e-05
-7.43021e-07
-2.24251e-05
-7.39279e-07
-2.20993e-05
-7.36155e-07
-2.17762e-05
-7.33711e-07
-2.14555e-05
-7.31976e-07
-2.11368e-05
-7.31024e-07
-2.082e-05
-7.3081e-07
-2.05047e-05
-7.31408e-07
-2.01907e-05
-7.33066e-07
-1.98776e-05
-7.35702e-07
-1.95653e-05
-7.39077e-07
-1.92534e-05
-7.43367e-07
-1.89417e-05
-7.48828e-07
-1.86299e-05
-7.55465e-07
-1.83173e-05
-7.63478e-07
-1.8003e-05
-7.73203e-07
-1.7686e-05
-7.8509e-07
-1.73657e-05
-7.9975e-07
-1.70406e-05
-8.18006e-07
-1.6709e-05
-8.40737e-07
-1.6369e-05
-8.68769e-07
-1.60183e-05
-9.03458e-07
-1.56542e-05
-9.45913e-07
-1.52741e-05
-9.96183e-07
-1.48757e-05
-1.05341e-06
-1.44575e-05
-1.11483e-06
-1.40201e-05
-1.17447e-06
-1.35678e-05
-1.22038e-06
-1.31109e-05
-1.23041e-06
-1.26651e-05
-1.16764e-06
-1.22626e-05
-9.79919e-07
-1.19781e-05
-6.23262e-07
-1.20353e-05
8.57073e-09
-1.25282e-05
7.62346e-07
-1.37731e-05
2.13516e-06
-1.62712e-05
4.70984e-06
-2.10069e-05
9.99442e-06
2.48685e-05
-3.13374e-05
-4.00686e-05
1.16217e-08
-4.00619e-05
-7.87321e-09
-4.00512e-05
-1.74567e-08
-4.00386e-05
-2.25033e-08
-4.00226e-05
-2.98955e-08
-4.00037e-05
-3.6151e-08
-3.99815e-05
-4.33165e-08
-3.99549e-05
-5.37712e-08
-3.99213e-05
-7.02455e-08
-3.98793e-05
-8.8712e-08
-3.98308e-05
-1.0402e-07
-3.97764e-05
-1.18185e-07
-3.97147e-05
-1.35356e-07
-3.96435e-05
-1.58023e-07
-3.95618e-05
-1.83156e-07
-3.94699e-05
-2.10158e-07
-3.93648e-05
-2.43814e-07
-3.92469e-05
-2.7692e-07
-3.91185e-05
-3.05755e-07
-3.89792e-05
-3.36178e-07
-3.88291e-05
-3.67595e-07
-3.86677e-05
-4.01242e-07
-3.84949e-05
-4.36831e-07
-3.83105e-05
-4.74488e-07
-3.81147e-05
-5.13879e-07
-3.79077e-05
-5.54478e-07
-3.76897e-05
-5.95729e-07
-3.74611e-05
-6.371e-07
-3.72224e-05
-6.78099e-07
-3.69745e-05
-7.18327e-07
-3.67183e-05
-7.57353e-07
-3.64547e-05
-7.94695e-07
-3.6185e-05
-8.30099e-07
-3.59101e-05
-8.63446e-07
-3.56309e-05
-8.94621e-07
-3.53485e-05
-9.23537e-07
-3.50634e-05
-9.5011e-07
-3.47763e-05
-9.74192e-07
-3.44878e-05
-9.9557e-07
-3.41986e-05
-1.01407e-06
-3.39093e-05
-1.0297e-06
-3.36205e-05
-1.04261e-06
-3.33327e-05
-1.05306e-06
-3.30465e-05
-1.06133e-06
-3.27624e-05
-1.06769e-06
-3.24807e-05
-1.07236e-06
-3.22018e-05
-1.07549e-06
-3.19257e-05
-1.07715e-06
-3.16524e-05
-1.07734e-06
-3.13817e-05
-1.076e-06
-3.11136e-05
-1.07308e-06
-3.0848e-05
-1.06854e-06
-3.05849e-05
-1.06246e-06
-3.03246e-05
-1.05498e-06
-3.00673e-05
-1.04626e-06
-2.98134e-05
-1.03658e-06
-2.95634e-05
-1.02623e-06
-2.93176e-05
-1.01543e-06
-2.90765e-05
-1.00441e-06
-2.88405e-05
-9.93414e-07
-2.86099e-05
-9.82686e-07
-2.83848e-05
-9.72345e-07
-2.81655e-05
-9.62373e-07
-2.7952e-05
-9.52711e-07
-2.77448e-05
-9.43379e-07
-2.75441e-05
-9.34425e-07
-2.73503e-05
-9.25807e-07
-2.71637e-05
-9.17625e-07
-2.69847e-05
-9.09806e-07
-2.68138e-05
-9.02263e-07
-2.66517e-05
-8.9516e-07
-2.64989e-05
-8.88496e-07
-2.63558e-05
-8.82191e-07
-2.62228e-05
-8.76376e-07
-2.61005e-05
-8.7112e-07
-2.59894e-05
-8.6657e-07
-2.58896e-05
-8.63259e-07
-2.58013e-05
-8.61556e-07
-2.57245e-05
-8.61862e-07
-2.56593e-05
-8.64978e-07
-2.56052e-05
-8.72074e-07
-2.55614e-05
-8.84556e-07
-2.55266e-05
-9.03543e-07
-2.54994e-05
-9.3063e-07
-2.54782e-05
-9.67175e-07
-2.54609e-05
-1.01351e-06
-2.54455e-05
-1.06879e-06
-2.54306e-05
-1.12969e-06
-2.54162e-05
-1.1889e-06
-2.54041e-05
-1.23245e-06
-2.53986e-05
-1.23597e-06
-2.54051e-05
-1.16107e-06
-2.54336e-05
-9.51404e-07
-2.55224e-05
-5.34499e-07
-2.56704e-05
1.56523e-07
-2.61096e-05
1.20157e-06
-2.70219e-05
3.04753e-06
-2.87603e-05
6.44816e-06
-3.20102e-05
1.32443e-05
2.91156e-05
-3.62573e-05
-4.02774e-05
1.27927e-08
-4.02713e-05
-1.39256e-08
-4.02635e-05
-2.52433e-08
-4.02563e-05
-2.97881e-08
-4.02456e-05
-4.05457e-08
-4.02341e-05
-4.76303e-08
-4.02204e-05
-5.70856e-08
-4.0205e-05
-6.90981e-08
-4.01844e-05
-9.08588e-08
-4.01553e-05
-1.17784e-07
-4.01243e-05
-1.35102e-07
-4.00914e-05
-1.51007e-07
-4.00531e-05
-1.73692e-07
-4.001e-05
-2.01096e-07
-3.99619e-05
-2.31263e-07
-3.99067e-05
-2.6536e-07
-3.98431e-05
-3.07405e-07
-3.97708e-05
-3.49251e-07
-3.96911e-05
-3.85453e-07
-3.96044e-05
-4.22849e-07
-3.95109e-05
-4.61107e-07
-3.94103e-05
-5.01867e-07
-3.93026e-05
-5.44519e-07
-3.91878e-05
-5.89298e-07
-3.9066e-05
-6.35686e-07
-3.89376e-05
-6.82881e-07
-3.88032e-05
-7.30156e-07
-3.86633e-05
-7.76962e-07
-3.85186e-05
-8.22757e-07
-3.83699e-05
-8.67109e-07
-3.82177e-05
-9.09552e-07
-3.80629e-05
-9.49476e-07
-3.79063e-05
-9.86658e-07
-3.77487e-05
-1.02111e-06
-3.75905e-05
-1.05283e-06
-3.74321e-05
-1.08186e-06
-3.7274e-05
-1.10823e-06
-3.71163e-05
-1.1319e-06
-3.69592e-05
-1.15264e-06
-3.68031e-05
-1.17025e-06
-3.6648e-05
-1.18471e-06
-3.64945e-05
-1.19619e-06
-3.63426e-05
-1.2049e-06
-3.61928e-05
-1.21112e-06
-3.60454e-05
-1.2151e-06
-3.59008e-05
-1.21703e-06
-3.57592e-05
-1.21708e-06
-3.56209e-05
-1.21541e-06
-3.54861e-05
-1.21217e-06
-3.53546e-05
-1.20743e-06
-3.52265e-05
-1.2012e-06
-3.51016e-05
-1.19344e-06
-3.49799e-05
-1.18414e-06
-3.48615e-05
-1.17336e-06
-3.47467e-05
-1.16114e-06
-3.46356e-05
-1.14766e-06
-3.45286e-05
-1.13319e-06
-3.44262e-05
-1.11786e-06
-3.43288e-05
-1.1018e-06
-3.4237e-05
-1.08521e-06
-3.41514e-05
-1.06824e-06
-3.40728e-05
-1.05101e-06
-3.40016e-05
-1.03356e-06
-3.39384e-05
-1.01586e-06
-3.3884e-05
-9.97856e-07
-3.38388e-05
-9.7962e-07
-3.38037e-05
-9.60917e-07
-3.37792e-05
-9.42046e-07
-3.37658e-05
-9.23243e-07
-3.37638e-05
-9.04216e-07
-3.3774e-05
-8.85038e-07
-3.37966e-05
-8.65857e-07
-3.38321e-05
-8.46716e-07
-3.38805e-05
-8.28001e-07
-3.39416e-05
-8.10022e-07
-3.40153e-05
-7.92836e-07
-3.41015e-05
-7.77002e-07
-3.41998e-05
-7.63348e-07
-3.43089e-05
-7.52726e-07
-3.44278e-05
-7.46053e-07
-3.45553e-05
-7.44574e-07
-3.469e-05
-7.49898e-07
-3.48301e-05
-7.63458e-07
-3.49741e-05
-7.86573e-07
-3.51209e-05
-8.20405e-07
-3.52689e-05
-8.65474e-07
-3.54171e-05
-9.20593e-07
-3.55651e-05
-9.81748e-07
-3.57128e-05
-1.04112e-06
-3.58606e-05
-1.0847e-06
-3.6008e-05
-1.08853e-06
-3.61533e-05
-1.0158e-06
-3.62951e-05
-8.0963e-07
-3.64312e-05
-3.98385e-07
-3.65686e-05
2.93929e-07
-3.68232e-05
1.45623e-06
-3.73084e-05
3.53264e-06
-3.81848e-05
7.3246e-06
-3.96204e-05
1.468e-05
2.90364e-05
-3.95412e-05
-4.02577e-05
1.77757e-08
-4.02497e-05
-2.19211e-08
-4.02408e-05
-3.41283e-08
-4.02395e-05
-3.11123e-08
-4.02343e-05
-4.57185e-08
-4.02277e-05
-5.42607e-08
-4.02211e-05
-6.36822e-08
-4.02128e-05
-7.73875e-08
-4.02021e-05
-1.01539e-07
-4.0187e-05
-1.32922e-07
-4.01761e-05
-1.45927e-07
-4.01674e-05
-1.59728e-07
-4.01525e-05
-1.88656e-07
-4.01404e-05
-2.13129e-07
-4.01321e-05
-2.39579e-07
-4.01183e-05
-2.79171e-07
-4.01026e-05
-3.23113e-07
-4.00824e-05
-3.69435e-07
-4.00565e-05
-4.11308e-07
-4.00284e-05
-4.51006e-07
-3.99977e-05
-4.91791e-07
-3.99649e-05
-5.34708e-07
-3.993e-05
-5.79368e-07
-3.9893e-05
-6.26307e-07
-3.98537e-05
-6.74949e-07
-3.98125e-05
-7.2412e-07
-3.97699e-05
-7.72723e-07
-3.97266e-05
-8.20268e-07
-3.96832e-05
-8.66222e-07
-3.96401e-05
-9.10187e-07
-3.95979e-05
-9.51777e-07
-3.95571e-05
-9.90227e-07
-3.95184e-05
-1.02542e-06
-3.94819e-05
-1.05754e-06
-3.94481e-05
-1.08669e-06
-3.94169e-05
-1.11297e-06
-3.93887e-05
-1.13646e-06
-3.93634e-05
-1.15718e-06
-3.93412e-05
-1.1749e-06
-3.9322e-05
-1.18936e-06
-3.93061e-05
-1.20065e-06
-3.92933e-05
-1.209e-06
-3.92836e-05
-1.21463e-06
-3.92769e-05
-1.21779e-06
-3.92733e-05
-1.21868e-06
-3.92728e-05
-1.21749e-06
-3.92755e-05
-1.2144e-06
-3.92814e-05
-1.20957e-06
-3.92904e-05
-1.20317e-06
-3.93025e-05
-1.19528e-06
-3.93178e-05
-1.18588e-06
-3.93364e-05
-1.17489e-06
-3.93583e-05
-1.16228e-06
-3.93835e-05
-1.14811e-06
-3.94123e-05
-1.1323e-06
-3.9445e-05
-1.11499e-06
-3.94817e-05
-1.0965e-06
-3.95227e-05
-1.0769e-06
-3.95682e-05
-1.05626e-06
-3.96186e-05
-1.03479e-06
-3.96742e-05
-1.01265e-06
-3.97353e-05
-9.89898e-07
-3.98023e-05
-9.66615e-07
-3.98753e-05
-9.42862e-07
-3.99545e-05
-9.18619e-07
-4.00402e-05
-8.9396e-07
-4.01324e-05
-8.68676e-07
-4.02318e-05
-8.42693e-07
-4.03388e-05
-8.1621e-07
-4.04536e-05
-7.89371e-07
-4.05764e-05
-7.62254e-07
-4.07073e-05
-7.34946e-07
-4.08463e-05
-7.07744e-07
-4.09931e-05
-6.81191e-07
-4.11475e-05
-6.55605e-07
-4.13092e-05
-6.31159e-07
-4.14777e-05
-6.08522e-07
-4.16524e-05
-5.88636e-07
-4.18328e-05
-5.72367e-07
-4.20181e-05
-5.60728e-07
-4.22075e-05
-5.55153e-07
-4.24002e-05
-5.57182e-07
-4.25953e-05
-5.6834e-07
-4.27918e-05
-5.90106e-07
-4.29887e-05
-6.2346e-07
-4.31855e-05
-6.68694e-07
-4.33814e-05
-7.24729e-07
-4.35755e-05
-7.8764e-07
-4.37671e-05
-8.49476e-07
-4.39553e-05
-8.96551e-07
-4.41369e-05
-9.06933e-07
-4.43048e-05
-8.47896e-07
-4.44449e-05
-6.69509e-07
-4.45391e-05
-3.04209e-07
-4.45896e-05
3.44447e-07
-4.4629e-05
1.49565e-06
-4.46692e-05
3.57281e-06
-4.47059e-05
7.36135e-06
-4.44242e-05
1.43982e-05
2.62323e-05
-4.162e-05
-4.02041e-05
2.63373e-09
-4.01943e-05
-3.16865e-08
-4.01881e-05
-4.0308e-08
-4.01901e-05
-2.91393e-08
-4.019e-05
-4.58115e-08
-4.01834e-05
-6.08619e-08
-4.01827e-05
-6.43789e-08
-4.01801e-05
-8.0032e-08
-4.01793e-05
-1.0235e-07
-4.01843e-05
-1.27933e-07
-4.01909e-05
-1.39243e-07
-4.02021e-05
-1.48608e-07
-4.02114e-05
-1.79309e-07
-4.02271e-05
-1.97423e-07
-4.02479e-05
-2.1882e-07
-4.0268e-05
-2.59002e-07
-4.02958e-05
-2.95329e-07
-4.03245e-05
-3.40767e-07
-4.0351e-05
-3.84789e-07
-4.0379e-05
-4.23009e-07
-4.04081e-05
-4.62663e-07
-4.04394e-05
-5.03407e-07
-4.04732e-05
-5.45604e-07
-4.05092e-05
-5.90264e-07
-4.05474e-05
-6.36794e-07
-4.05879e-05
-6.8361e-07
-4.06315e-05
-7.29176e-07
-4.06784e-05
-7.7331e-07
-4.07291e-05
-8.15569e-07
-4.07839e-05
-8.55317e-07
-4.08433e-05
-8.92406e-07
-4.09074e-05
-9.26117e-07
-4.09768e-05
-9.56079e-07
-4.1052e-05
-9.82352e-07
-4.11334e-05
-1.00521e-06
-4.12213e-05
-1.02509e-06
-4.13154e-05
-1.04238e-06
-4.14153e-05
-1.05732e-06
-4.15204e-05
-1.06981e-06
-4.16301e-05
-1.07959e-06
-4.17442e-05
-1.0866e-06
-4.18622e-05
-1.09098e-06
-4.19838e-05
-1.09301e-06
-4.21086e-05
-1.09296e-06
-4.22363e-05
-1.09103e-06
-4.23664e-05
-1.08735e-06
-4.24988e-05
-1.08202e-06
-4.26332e-05
-1.07519e-06
-4.27694e-05
-1.06696e-06
-4.29073e-05
-1.05739e-06
-4.30467e-05
-1.04643e-06
-4.31876e-05
-1.034e-06
-4.33299e-05
-1.02005e-06
-4.34733e-05
-1.00468e-06
-4.36178e-05
-9.87806e-07
-4.37634e-05
-9.69381e-07
-4.39104e-05
-9.49549e-07
-4.40588e-05
-9.28478e-07
-4.42087e-05
-9.06324e-07
-4.43603e-05
-8.83233e-07
-4.45136e-05
-8.59353e-07
-4.46688e-05
-8.34739e-07
-4.48259e-05
-8.09448e-07
-4.49852e-05
-7.83586e-07
-4.51466e-05
-7.57203e-07
-4.53103e-05
-7.30227e-07
-4.54764e-05
-7.02658e-07
-4.56445e-05
-6.74518e-07
-4.58149e-05
-6.45808e-07
-4.59876e-05
-6.16717e-07
-4.61625e-05
-5.87361e-07
-4.63397e-05
-5.57756e-07
-4.65191e-05
-5.28334e-07
-4.67007e-05
-4.99607e-07
-4.68845e-05
-4.71804e-07
-4.70703e-05
-4.45305e-07
-4.72581e-05
-4.2079e-07
-4.74476e-05
-3.99081e-07
-4.76388e-05
-3.81159e-07
-4.78314e-05
-3.68188e-07
-4.80249e-05
-3.61583e-07
-4.82193e-05
-3.62836e-07
-4.84141e-05
-3.73485e-07
-4.86092e-05
-3.95058e-07
-4.88041e-05
-4.28537e-07
-4.89986e-05
-4.74148e-07
-4.91923e-05
-5.31029e-07
-4.93844e-05
-5.95567e-07
-4.95738e-05
-6.60136e-07
-4.9758e-05
-7.12305e-07
-4.99317e-05
-7.33279e-07
-5.0084e-05
-6.95543e-07
-5.01929e-05
-5.6065e-07
-5.02317e-05
-2.65373e-07
-5.0182e-05
2.94698e-07
-5.00134e-05
1.32708e-06
-4.96484e-05
3.20777e-06
-4.89241e-05
6.63711e-06
-4.72537e-05
1.27278e-05
2.17959e-05
-4.28174e-05
-4.01328e-05
-6.33635e-08
-4.01295e-05
-3.49532e-08
-4.01301e-05
-3.97492e-08
-4.01302e-05
-2.89988e-08
-4.01349e-05
-4.1103e-08
-4.0132e-05
-6.37955e-08
-4.01364e-05
-5.99561e-08
-4.01487e-05
-6.77551e-08
-4.01681e-05
-8.29749e-08
-4.01929e-05
-1.03104e-07
-4.02119e-05
-1.20256e-07
-4.02334e-05
-1.27044e-07
-4.02679e-05
-1.44819e-07
-4.0308e-05
-1.57367e-07
-4.03469e-05
-1.79881e-07
-4.03958e-05
-2.10132e-07
-4.04544e-05
-2.36778e-07
-4.05207e-05
-2.74395e-07
-4.05913e-05
-3.14164e-07
-4.06662e-05
-3.48163e-07
-4.07461e-05
-3.82806e-07
-4.08319e-05
-4.17553e-07
-4.09241e-05
-4.5336e-07
-4.10226e-05
-4.91811e-07
-4.11271e-05
-5.32321e-07
-4.12377e-05
-5.72936e-07
-4.13552e-05
-6.11734e-07
-4.14799e-05
-6.48633e-07
-4.16117e-05
-6.83726e-07
-4.1751e-05
-7.15982e-07
-4.18985e-05
-7.44908e-07
-4.20542e-05
-7.70417e-07
-4.2218e-05
-7.92358e-07
-4.23896e-05
-8.107e-07
-4.2569e-05
-8.25835e-07
-4.27557e-05
-8.38356e-07
-4.29494e-05
-8.48762e-07
-4.31494e-05
-8.5722e-07
-4.33556e-05
-8.63688e-07
-4.3567e-05
-8.68114e-07
-4.37832e-05
-8.70465e-07
-4.40033e-05
-8.7086e-07
-4.42267e-05
-8.69606e-07
-4.44526e-05
-8.67018e-07
-4.46804e-05
-8.63267e-07
-4.49094e-05
-8.58371e-07
-4.51391e-05
-8.52315e-07
-4.53692e-05
-8.45128e-07
-4.55993e-05
-8.36859e-07
-4.58291e-05
-8.2753e-07
-4.60585e-05
-8.17075e-07
-4.62871e-05
-8.05389e-07
-4.65147e-05
-7.92393e-07
-4.67414e-05
-7.78052e-07
-4.69667e-05
-7.62503e-07
-4.71902e-05
-7.45839e-07
-4.74118e-05
-7.27991e-07
-4.76312e-05
-7.09e-07
-4.78485e-05
-6.89079e-07
-4.80633e-05
-6.68373e-07
-4.82758e-05
-6.46934e-07
-4.84857e-05
-6.24798e-07
-4.86931e-05
-6.02025e-07
-4.8898e-05
-5.7868e-07
-4.91004e-05
-5.54791e-07
-4.93004e-05
-5.30244e-07
-4.94979e-05
-5.05147e-07
-4.96928e-05
-4.79704e-07
-4.98847e-05
-4.53849e-07
-5.00739e-05
-4.27554e-07
-5.02604e-05
-4.00883e-07
-5.04443e-05
-3.73781e-07
-5.0626e-05
-3.46654e-07
-5.08056e-05
-3.19973e-07
-5.09836e-05
-2.93896e-07
-5.116e-05
-2.68824e-07
-5.13354e-05
-2.45453e-07
-5.15099e-05
-2.24564e-07
-5.16839e-05
-2.07144e-07
-5.18577e-05
-1.94401e-07
-5.20316e-05
-1.87695e-07
-5.22059e-05
-1.88484e-07
-5.23811e-05
-1.98318e-07
-5.25575e-05
-2.18686e-07
-5.27353e-05
-2.5067e-07
-5.29149e-05
-2.94587e-07
-5.30959e-05
-3.50021e-07
-5.32774e-05
-4.1405e-07
-5.34576e-05
-4.79994e-07
-5.36321e-05
-5.37755e-07
-5.37931e-05
-5.72299e-07
-5.39269e-05
-5.61761e-07
-5.40083e-05
-4.79214e-07
-5.40013e-05
-2.72413e-07
-5.38629e-05
1.56284e-07
-5.35168e-05
9.81071e-07
-5.28098e-05
2.50078e-06
-5.14505e-05
5.27776e-06
-4.87564e-05
1.00337e-05
1.64494e-05
-4.34099e-05
-4.00639e-05
-1.1297e-07
-4.00707e-05
-2.81097e-08
-4.00795e-05
-3.10335e-08
-4.00786e-05
-2.98404e-08
-4.00931e-05
-2.66439e-08
-4.01075e-05
-4.93269e-08
-4.01132e-05
-5.42742e-08
-4.0137e-05
-4.39838e-08
-4.01733e-05
-4.66513e-08
-4.02113e-05
-6.51521e-08
-4.02522e-05
-7.93697e-08
-4.02842e-05
-9.4973e-08
-4.03331e-05
-9.59873e-08
-4.03851e-05
-1.05363e-07
-4.04394e-05
-1.25514e-07
-4.05118e-05
-1.37744e-07
-4.0591e-05
-1.57603e-07
-4.06814e-05
-1.84022e-07
-4.07813e-05
-2.14278e-07
-4.0889e-05
-2.40428e-07
-4.10056e-05
-2.66168e-07
-4.1132e-05
-2.91146e-07
-4.12685e-05
-3.16862e-07
-4.14149e-05
-3.45487e-07
-4.15707e-05
-3.76464e-07
-4.17368e-05
-4.06892e-07
-4.19134e-05
-4.35101e-07
-4.21011e-05
-4.60942e-07
-4.23001e-05
-4.84736e-07
-4.25098e-05
-5.06284e-07
-4.27297e-05
-5.24965e-07
-4.29593e-05
-5.40832e-07
-4.31976e-05
-5.54027e-07
-4.34437e-05
-5.6466e-07
-4.36964e-05
-5.73065e-07
-4.39551e-05
-5.7965e-07
-4.42192e-05
-5.84696e-07
-4.44882e-05
-5.88194e-07
-4.47619e-05
-5.90065e-07
-4.50396e-05
-5.90408e-07
-4.53206e-05
-5.89388e-07
-4.56043e-05
-5.87225e-07
-4.58897e-05
-5.84218e-07
-4.61761e-05
-5.80597e-07
-4.64629e-05
-5.76439e-07
-4.67496e-05
-5.71686e-07
-4.70356e-05
-5.66268e-07
-4.73206e-05
-5.60188e-07
-4.7604e-05
-5.5347e-07
-4.78854e-05
-5.46108e-07
-4.81645e-05
-5.38007e-07
-4.84408e-05
-5.29072e-07
-4.87139e-05
-5.19246e-07
-4.89835e-05
-5.08453e-07
-4.92492e-05
-4.96822e-07
-4.95105e-05
-4.8451e-07
-4.97671e-05
-4.7146e-07
-5.00184e-05
-4.57641e-07
-5.02643e-05
-4.43168e-07
-5.05046e-05
-4.28104e-07
-5.07391e-05
-4.12421e-07
-5.09678e-05
-3.96123e-07
-5.11906e-05
-3.79247e-07
-5.14075e-05
-3.61778e-07
-5.16186e-05
-3.43639e-07
-5.18241e-05
-3.24757e-07
-5.20241e-05
-3.05189e-07
-5.22188e-05
-2.84969e-07
-5.24086e-05
-2.64015e-07
-5.25939e-05
-2.42292e-07
-5.2775e-05
-2.1982e-07
-5.29523e-05
-1.96454e-07
-5.31263e-05
-1.72645e-07
-5.32974e-05
-1.48848e-07
-5.34662e-05
-1.2513e-07
-5.36331e-05
-1.01908e-07
-5.37987e-05
-7.98793e-08
-5.39634e-05
-5.98203e-08
-5.41278e-05
-4.27225e-08
-5.42925e-05
-2.97841e-08
-5.44578e-05
-2.23388e-08
-5.46244e-05
-2.18545e-08
-5.47929e-05
-2.99022e-08
-5.49636e-05
-4.79839e-08
-5.51368e-05
-7.7457e-08
-5.53129e-05
-1.1849e-07
-5.54914e-05
-1.71459e-07
-5.56707e-05
-2.34759e-07
-5.58482e-05
-3.02503e-07
-5.60185e-05
-3.67458e-07
-5.61722e-05
-4.1861e-07
-5.6293e-05
-4.40952e-07
-5.63566e-05
-4.15583e-07
-5.63175e-05
-3.11601e-07
-5.61109e-05
-5.02967e-08
-5.56267e-05
4.96918e-07
-5.46559e-05
1.52994e-06
-5.28153e-05
3.43718e-06
-4.94238e-05
6.6422e-06
1.06535e-05
-4.3628e-05
-4.00153e-05
-8.48255e-08
-4.00319e-05
-1.14985e-08
-4.00617e-05
-1.25385e-09
-4.00576e-05
-3.39278e-08
-4.00638e-05
-2.04342e-08
-4.01003e-05
-1.28917e-08
-4.01278e-05
-2.67119e-08
-4.01545e-05
-1.73129e-08
-4.01915e-05
-9.66814e-09
-4.02331e-05
-2.35602e-08
-4.02848e-05
-2.7672e-08
-4.03381e-05
-4.16685e-08
-4.0392e-05
-4.20408e-08
-4.0452e-05
-4.53656e-08
-4.0525e-05
-5.25003e-08
-4.0605e-05
-5.77174e-08
-4.06942e-05
-6.84185e-08
-4.07963e-05
-8.19649e-08
-4.09109e-05
-9.96894e-08
-4.1037e-05
-1.14352e-07
-4.11758e-05
-1.27323e-07
-4.13275e-05
-1.39404e-07
-4.14923e-05
-1.52074e-07
-4.16708e-05
-1.67e-07
-4.18633e-05
-1.83975e-07
-4.20706e-05
-1.99623e-07
-4.22924e-05
-2.13225e-07
-4.25278e-05
-2.25607e-07
-4.27758e-05
-2.36679e-07
-4.30356e-05
-2.46548e-07
-4.33056e-05
-2.54937e-07
-4.35846e-05
-2.61867e-07
-4.38712e-05
-2.67416e-07
-4.41642e-05
-2.71674e-07
-4.44624e-05
-2.74829e-07
-4.4765e-05
-2.77087e-07
-4.50711e-05
-2.7857e-07
-4.538e-05
-2.79256e-07
-4.5691e-05
-2.79096e-07
-4.60033e-05
-2.78145e-07
-4.63161e-05
-2.7653e-07
-4.66289e-05
-2.74412e-07
-4.69412e-05
-2.71969e-07
-4.72525e-05
-2.6931e-07
-4.75624e-05
-2.66458e-07
-4.78708e-05
-2.63378e-07
-4.8177e-05
-2.60036e-07
-4.84807e-05
-2.56449e-07
-4.87816e-05
-2.52627e-07
-4.90791e-05
-2.48549e-07
-4.9373e-05
-2.44135e-07
-4.96628e-05
-2.3932e-07
-4.99479e-05
-2.34067e-07
-5.02281e-05
-2.28328e-07
-5.05028e-05
-2.22123e-07
-5.07718e-05
-2.15487e-07
-5.10348e-05
-2.08411e-07
-5.12916e-05
-2.00889e-07
-5.15418e-05
-1.92927e-07
-5.17854e-05
-1.84475e-07
-5.20224e-05
-1.75473e-07
-5.22526e-05
-1.65889e-07
-5.24762e-05
-1.55675e-07
-5.26932e-05
-1.44743e-07
-5.29039e-05
-1.3298e-07
-5.31084e-05
-1.20292e-07
-5.33069e-05
-1.06641e-07
-5.34999e-05
-9.19573e-08
-5.36878e-05
-7.61439e-08
-5.38709e-05
-5.91458e-08
-5.40498e-05
-4.09376e-08
-5.42247e-05
-2.15583e-08
-5.43961e-05
-1.21471e-09
-5.45649e-05
1.992e-08
-5.47314e-05
4.13712e-08
-5.48961e-05
6.27638e-08
-5.50595e-05
8.35257e-08
-5.52222e-05
1.029e-07
-5.53848e-05
1.19915e-07
-5.5548e-05
1.33413e-07
-5.57125e-05
1.42081e-07
-5.58788e-05
1.4446e-07
-5.60477e-05
1.38978e-07
-5.62197e-05
1.24056e-07
-5.63954e-05
9.82434e-08
-5.65743e-05
6.04234e-08
-5.67563e-05
1.04784e-08
-5.69396e-05
-5.14e-08
-5.71212e-05
-1.20948e-07
-5.72944e-05
-1.94189e-07
-5.7449e-05
-2.64036e-07
-5.75679e-05
-3.22106e-07
-5.76247e-05
-3.58701e-07
-5.75756e-05
-3.60735e-07
-5.73388e-05
-2.87145e-07
-5.67723e-05
-6.95387e-08
-5.5636e-05
3.93686e-07
-5.34902e-05
1.2913e-06
-4.9669e-05
2.82106e-06
4.65727e-06
-4.36728e-05
-4.00068e-05
8.52895e-09
-4.00141e-05
-4.24195e-09
-4.00345e-05
1.91047e-08
-4.00529e-05
-1.55129e-08
-4.00566e-05
-1.67037e-08
-4.00944e-05
2.48561e-08
-4.01429e-05
2.18275e-08
-4.01729e-05
1.26909e-08
-4.02081e-05
2.55647e-08
-4.02528e-05
2.1088e-08
-4.02992e-05
1.87837e-08
-4.0365e-05
2.40823e-08
-4.04264e-05
1.93813e-08
-4.04918e-05
2.00689e-08
-4.05732e-05
2.88459e-08
-4.06564e-05
2.55229e-08
-4.07474e-05
2.25541e-08
-4.08521e-05
2.26867e-08
-4.09701e-05
1.83562e-08
-4.11035e-05
1.90804e-08
-4.12525e-05
2.16192e-08
-4.14158e-05
2.39685e-08
-4.1594e-05
2.60675e-08
-4.17894e-05
2.8376e-08
-4.2004e-05
3.06363e-08
-4.22364e-05
3.28489e-08
-4.24844e-05
3.46848e-08
-4.27462e-05
3.62172e-08
-4.30206e-05
3.77199e-08
-4.33062e-05
3.90454e-08
-4.36013e-05
4.02095e-08
-4.39044e-05
4.11697e-08
-4.42137e-05
4.19725e-08
-4.45281e-05
4.26664e-08
-4.48462e-05
4.32808e-08
-4.51671e-05
4.38368e-08
-4.549e-05
4.43412e-08
-4.58141e-05
4.47948e-08
-4.61384e-05
4.52255e-08
-4.64622e-05
4.56639e-08
-4.67849e-05
4.61307e-08
-4.71059e-05
4.66443e-08
-4.74251e-05
4.72006e-08
-4.77422e-05
4.77851e-08
-4.8057e-05
4.83643e-08
-4.83693e-05
4.89088e-08
-4.86787e-05
4.94102e-08
-4.89851e-05
4.9863e-08
-4.9288e-05
5.02771e-08
-4.95872e-05
5.06568e-08
-4.98823e-05
5.10267e-08
-5.01731e-05
5.1418e-08
-5.0459e-05
5.18514e-08
-5.07397e-05
5.2375e-08
-5.10148e-05
5.30249e-08
-5.12842e-05
5.38311e-08
-5.15474e-05
5.48112e-08
-5.18042e-05
5.59745e-08
-5.20545e-05
5.7378e-08
-5.22982e-05
5.91474e-08
-5.2535e-05
6.13876e-08
-5.27651e-05
6.41814e-08
-5.29884e-05
6.76495e-08
-5.32051e-05
7.19413e-08
-5.34153e-05
7.72074e-08
-5.36192e-05
8.35843e-08
-5.3817e-05
9.11994e-08
-5.40092e-05
1.00206e-07
-5.41961e-05
1.10739e-07
-5.43781e-05
1.22875e-07
-5.45557e-05
1.36679e-07
-5.47292e-05
1.51948e-07
-5.48992e-05
1.6875e-07
-5.50664e-05
1.87165e-07
-5.52317e-05
2.06636e-07
-5.53956e-05
2.26675e-07
-5.55588e-05
2.46733e-07
-5.5722e-05
2.66064e-07
-5.58858e-05
2.83708e-07
-5.60509e-05
2.98528e-07
-5.6218e-05
3.09217e-07
-5.63878e-05
3.14298e-07
-5.6561e-05
3.12163e-07
-5.67381e-05
3.01113e-07
-5.69193e-05
2.79507e-07
-5.71042e-05
2.45274e-07
-5.72916e-05
1.97879e-07
-5.74804e-05
1.37433e-07
-5.76657e-05
6.43402e-08
-5.78416e-05
-1.83109e-08
-5.79989e-05
-1.06756e-07
-5.81202e-05
-2.00815e-07
-5.81768e-05
-3.02026e-07
-5.81268e-05
-4.10794e-07
-5.78856e-05
-5.28283e-07
-5.72992e-05
-6.55961e-07
-5.61027e-05
-8.02809e-07
-5.38269e-05
-9.8452e-07
-4.9798e-05
-1.2079e-06
-1.41702e-06
-4.37237e-05
-4.00158e-05
1.49723e-08
-4.00286e-05
8.56559e-09
-4.00271e-05
1.76152e-08
-4.00433e-05
7.15501e-10
-4.00691e-05
9.10163e-09
-4.00944e-05
5.01447e-08
-4.0128e-05
5.54082e-08
-4.01682e-05
5.29026e-08
-4.02008e-05
5.8151e-08
-4.02442e-05
6.44736e-08
-4.0297e-05
7.16041e-08
-4.03575e-05
8.46301e-08
-4.04208e-05
8.26875e-08
-4.04867e-05
8.59266e-08
-4.05641e-05
1.06197e-07
-4.0647e-05
1.0848e-07
-4.07344e-05
1.09953e-07
-4.08374e-05
1.25688e-07
-4.09556e-05
1.36534e-07
-4.10887e-05
1.52214e-07
-4.12368e-05
1.69677e-07
-4.13987e-05
1.85912e-07
-4.15748e-05
2.02122e-07
-4.1767e-05
2.20552e-07
-4.19775e-05
2.41178e-07
-4.22054e-05
2.60727e-07
-4.24485e-05
2.77777e-07
-4.27056e-05
2.93356e-07
-4.29754e-05
3.07514e-07
-4.32565e-05
3.2019e-07
-4.35475e-05
3.31197e-07
-4.38468e-05
3.40414e-07
-4.41528e-05
3.48e-07
-4.44642e-05
3.54111e-07
-4.47799e-05
3.58953e-07
-4.50988e-05
3.62746e-07
-4.54201e-05
3.65611e-07
-4.57428e-05
3.67522e-07
-4.60661e-05
3.68494e-07
-4.63891e-05
3.68647e-07
-4.67111e-05
3.68138e-07
-4.70316e-05
3.67154e-07
-4.73503e-05
3.65864e-07
-4.76668e-05
3.6436e-07
-4.79811e-05
3.62617e-07
-4.82927e-05
3.60556e-07
-4.86015e-05
3.58139e-07
-4.8907e-05
3.55375e-07
-4.9209e-05
3.52299e-07
-4.95072e-05
3.48902e-07
-4.98014e-05
3.45157e-07
-5.0091e-05
3.41066e-07
-5.03758e-05
3.3662e-07
-5.06553e-05
3.31869e-07
-5.09292e-05
3.26905e-07
-5.11971e-05
3.21814e-07
-5.1459e-05
3.16634e-07
-5.17144e-05
3.11378e-07
-5.19631e-05
3.06147e-07
-5.22051e-05
3.01155e-07
-5.24403e-05
2.96564e-07
-5.26686e-05
2.92502e-07
-5.28902e-05
2.89157e-07
-5.3105e-05
2.86743e-07
-5.33132e-05
2.85453e-07
-5.35151e-05
2.8547e-07
-5.37109e-05
2.86995e-07
-5.3901e-05
2.90274e-07
-5.40857e-05
2.95497e-07
-5.42656e-05
3.02762e-07
-5.4441e-05
3.1213e-07
-5.46126e-05
3.23547e-07
-5.4781e-05
3.37058e-07
-5.49464e-05
3.52643e-07
-5.51097e-05
3.69935e-07
-5.52715e-05
3.88485e-07
-5.54326e-05
4.07745e-07
-5.55935e-05
4.26989e-07
-5.5755e-05
4.45271e-07
-5.5918e-05
4.6148e-07
-5.60831e-05
4.74333e-07
-5.62512e-05
4.82346e-07
-5.64229e-05
4.83865e-07
-5.65989e-05
4.77118e-07
-5.67795e-05
4.60108e-07
-5.69648e-05
4.30634e-07
-5.7154e-05
3.87042e-07
-5.73443e-05
3.27745e-07
-5.75308e-05
2.50869e-07
-5.77058e-05
1.56689e-07
-5.78597e-05
4.71354e-08
-5.79777e-05
-8.28221e-08
-5.8033e-05
-2.46727e-07
-5.79803e-05
-4.63494e-07
-5.77405e-05
-7.68108e-07
-5.71665e-05
-1.22999e-06
-5.59899e-05
-1.97942e-06
-5.3743e-05
-3.23135e-06
-4.97546e-05
-5.19635e-06
-7.45807e-06
-4.37135e-05
-4.00331e-05
2.64799e-08
-4.00372e-05
1.26283e-08
-4.00306e-05
1.10197e-08
-4.00553e-05
2.54338e-08
-4.00944e-05
4.81623e-08
-4.00982e-05
5.39118e-08
-4.01128e-05
7.00717e-08
-4.01473e-05
8.73804e-08
-4.01788e-05
8.96887e-08
-4.02221e-05
1.07751e-07
-4.02645e-05
1.13948e-07
-4.0311e-05
1.31163e-07
-4.03725e-05
1.44222e-07
-4.04359e-05
1.49299e-07
-4.05027e-05
1.72969e-07
-4.05804e-05
1.86202e-07
-4.06649e-05
1.94416e-07
-4.076e-05
2.2084e-07
-4.08726e-05
2.49132e-07
-4.09964e-05
2.76019e-07
-4.11322e-05
3.05479e-07
-4.12799e-05
3.33617e-07
-4.14397e-05
3.61901e-07
-4.16121e-05
3.92905e-07
-4.17973e-05
4.26467e-07
-4.19962e-05
4.59625e-07
-4.22093e-05
4.90798e-07
-4.24358e-05
5.19899e-07
-4.2675e-05
5.46685e-07
-4.2926e-05
5.71178e-07
-4.31875e-05
5.9274e-07
-4.34583e-05
6.11197e-07
-4.37371e-05
6.26818e-07
-4.40228e-05
6.39756e-07
-4.43141e-05
6.50324e-07
-4.46103e-05
6.58926e-07
-4.49105e-05
6.65837e-07
-4.5214e-05
6.71027e-07
-4.552e-05
6.74496e-07
-4.58278e-05
6.76403e-07
-4.61365e-05
6.76891e-07
-4.64456e-05
6.76166e-07