/*--------------------------------*- C++ -*----------------------------------*\
| =========                 |                                                 |
| \\      /  F ield         | OpenFOAM: The Open Source CFD Toolbox           |
|  \\    /   O peration     | Version:  2.1.0                                 |
|   \\  /    A nd           | Web:      www.OpenFOAM.org                      |
|    \\/     M anipulation  |                                                 |
\*---------------------------------------------------------------------------*/
FoamFile
{
    version     2.0;
    format      ascii;
    class       volVectorField;
    location    "0.07";
    object      U;
}
// * * * * * * * * * * * * * * * * * * * * * * * * * * * * * * * * * * * * * //

dimensions      [0 1 -1 0 0 0 0];

internalField   nonuniform List<vector> 
6400
(
(-1.47704 6.40148e-05 0)
(-1.47711 3.37955e-05 0)
(-1.47725 5.64964e-06 0)
(-1.47727 2.21128e-06 0)
(-1.47726 -5.21524e-06 0)
(-1.47723 -1.02482e-05 0)
(-1.47718 -1.66659e-05 0)
(-1.47707 -3.65089e-05 0)
(-1.47684 -7.7428e-05 0)
(-1.47647 -0.000110276 0)
(-1.47598 -0.00013816 0)
(-1.47539 -0.000160825 0)
(-1.47469 -0.000190735 0)
(-1.47385 -0.000235688 0)
(-1.47281 -0.0002875 0)
(-1.47154 -0.000350898 0)
(-1.46999 -0.000433465 0)
(-1.46811 -0.000516029 0)
(-1.46591 -0.000591975 0)
(-1.46341 -0.000673626 0)
(-1.46056 -0.000763047 0)
(-1.45734 -0.00086388 0)
(-1.45369 -0.000977187 0)
(-1.44956 -0.00110463 0)
(-1.4449 -0.00124715 0)
(-1.43965 -0.00140336 0)
(-1.43375 -0.00157148 0)
(-1.42716 -0.00175108 0)
(-1.41984 -0.00194083 0)
(-1.41175 -0.00213945 0)
(-1.40285 -0.00234557 0)
(-1.39313 -0.00255734 0)
(-1.38255 -0.00277284 0)
(-1.37112 -0.00298982 0)
(-1.35883 -0.00320579 0)
(-1.34569 -0.003418 0)
(-1.33172 -0.00362364 0)
(-1.31695 -0.00382018 0)
(-1.30142 -0.0040054 0)
(-1.28518 -0.00417786 0)
(-1.26829 -0.00433725 0)
(-1.25078 -0.00448442 0)
(-1.23272 -0.00462076 0)
(-1.21413 -0.00474789 0)
(-1.19505 -0.00486684 0)
(-1.17552 -0.00497711 0)
(-1.15558 -0.00507662 0)
(-1.13528 -0.00516135 0)
(-1.11467 -0.00522918 0)
(-1.09384 -0.00527933 0)
(-1.07284 -0.00531218 0)
(-1.05174 -0.00532933 0)
(-1.03061 -0.00533312 0)
(-1.00948 -0.00532622 0)
(-0.988405 -0.00531154 0)
(-0.967397 -0.00529275 0)
(-0.946468 -0.00527287 0)
(-0.92562 -0.00525349 0)
(-0.904849 -0.00523604 0)
(-0.884144 -0.00522165 0)
(-0.863494 -0.00521014 0)
(-0.84289 -0.00520051 0)
(-0.822324 -0.00519278 0)
(-0.801785 -0.00518793 0)
(-0.781261 -0.00518687 0)
(-0.760735 -0.00519025 0)
(-0.740189 -0.0051989 0)
(-0.719599 -0.00521376 0)
(-0.698941 -0.00523487 0)
(-0.678188 -0.0052631 0)
(-0.657308 -0.00530045 0)
(-0.636266 -0.00534648 0)
(-0.615031 -0.00539901 0)
(-0.593576 -0.00545955 0)
(-0.57186 -0.00553172 0)
(-0.54984 -0.00561525 0)
(-0.527476 -0.00570695 0)
(-0.504734 -0.00580809 0)
(-0.481558 -0.00592703 0)
(-0.457868 -0.00607037 0)
(-0.433559 -0.00624174 0)
(-0.408509 -0.0064476 0)
(-0.382563 -0.00669711 0)
(-0.355526 -0.00700224 0)
(-0.327161 -0.00737216 0)
(-0.297213 -0.00780792 0)
(-0.265436 -0.00830241 0)
(-0.231648 -0.00883227 0)
(-0.195809 -0.00934679 0)
(-0.158185 -0.00974345 0)
(-0.119649 -0.00981457 0)
(-0.082267 -0.00916152 0)
(-0.0497815 -0.00732935 0)
(-0.0268698 -0.00429867 0)
(-0.017182 -0.000617473 0)
(-0.022709 0.00342026 0)
(-0.0517749 0.0113122 0)
(-0.129732 0.0281504 0)
(-0.31933 0.0671069 0)
(-0.897995 0.186424 0)
(-1.91493 0.000160297 0)
(-1.91469 1.9056e-05 0)
(-1.91452 -7.90605e-05 0)
(-1.91409 -0.000121974 0)
(-1.9135 -0.000179029 0)
(-1.91275 -0.000226829 0)
(-1.91184 -0.000280174 0)
(-1.91074 -0.000376193 0)
(-1.90937 -0.000534878 0)
(-1.90766 -0.00069302 0)
(-1.90559 -0.000831241 0)
(-1.9032 -0.000956443 0)
(-1.90046 -0.00110975 0)
(-1.8973 -0.00131867 0)
(-1.89362 -0.00155356 0)
(-1.88939 -0.0018252 0)
(-1.88452 -0.00216339 0)
(-1.87895 -0.00249757 0)
(-1.87274 -0.00280331 0)
(-1.86589 -0.00312721 0)
(-1.85838 -0.00347333 0)
(-1.85017 -0.003853 0)
(-1.84122 -0.00426743 0)
(-1.83149 -0.00471974 0)
(-1.82095 -0.00521013 0)
(-1.80956 -0.00573232 0)
(-1.79733 -0.00627738 0)
(-1.78426 -0.00684014 0)
(-1.77039 -0.00741574 0)
(-1.75573 -0.00799997 0)
(-1.74034 -0.00858807 0)
(-1.72426 -0.00917408 0)
(-1.70755 -0.00975343 0)
(-1.69026 -0.0103217 0)
(-1.67245 -0.010874 0)
(-1.65418 -0.0114052 0)
(-1.63551 -0.0119096 0)
(-1.61648 -0.0123818 0)
(-1.59715 -0.0128167 0)
(-1.57759 -0.013211 0)
(-1.55786 -0.0135642 0)
(-1.53801 -0.0138789 0)
(-1.5181 -0.0141589 0)
(-1.49818 -0.0144089 0)
(-1.47828 -0.0146326 0)
(-1.45845 -0.0148316 0)
(-1.43872 -0.0150045 0)
(-1.41908 -0.0151452 0)
(-1.39957 -0.0152499 0)
(-1.38017 -0.0153163 0)
(-1.36091 -0.015344 0)
(-1.34181 -0.0153353 0)
(-1.32289 -0.0152946 0)
(-1.30416 -0.015228 0)
(-1.28565 -0.0151417 0)
(-1.26736 -0.015044 0)
(-1.24932 -0.0149421 0)
(-1.23152 -0.0148403 0)
(-1.21396 -0.0147429 0)
(-1.19665 -0.0146538 0)
(-1.17956 -0.0145747 0)
(-1.16268 -0.0145045 0)
(-1.14599 -0.0144427 0)
(-1.12947 -0.0143903 0)
(-1.11311 -0.0143494 0)
(-1.09689 -0.0143215 0)
(-1.08079 -0.0143077 0)
(-1.0648 -0.0143099 0)
(-1.04892 -0.0143275 0)
(-1.03311 -0.0143625 0)
(-1.01738 -0.0144197 0)
(-1.0017 -0.014498 0)
(-0.986068 -0.0145919 0)
(-0.970464 -0.0147053 0)
(-0.954874 -0.014845 0)
(-0.939288 -0.0150108 0)
(-0.923679 -0.015202 0)
(-0.908006 -0.0154241 0)
(-0.892223 -0.015691 0)
(-0.876291 -0.0160169 0)
(-0.860156 -0.0164157 0)
(-0.84374 -0.0169049 0)
(-0.82695 -0.0175038 0)
(-0.809679 -0.0182412 0)
(-0.791808 -0.01914 0)
(-0.773205 -0.020202 0)
(-0.753744 -0.0214094 0)
(-0.733327 -0.0227046 0)
(-0.711933 -0.0239624 0)
(-0.689686 -0.024932 0)
(-0.666949 -0.0251311 0)
(-0.644375 -0.0237052 0)
(-0.623183 -0.019551 0)
(-0.606052 -0.0120874 0)
(-0.600829 -0.000490374 0)
(-0.61453 0.0130077 0)
(-0.658422 0.038099 0)
(-0.753282 0.0870626 0)
(-0.940068 0.191576 0)
(-1.39318 0.493145 0)
(-2.0034 0.000242661 0)
(-2.0032 -0.000112582 0)
(-2.00282 -0.000302831 0)
(-2.00224 -0.000405404 0)
(-2.00153 -0.000547541 0)
(-2.00065 -0.000668568 0)
(-1.99963 -0.000805162 0)
(-1.99841 -0.00101234 0)
(-1.9969 -0.00133676 0)
(-1.99501 -0.00169346 0)
(-1.99275 -0.00199563 0)
(-1.99017 -0.00227563 0)
(-1.98727 -0.00261366 0)
(-1.98395 -0.00306237 0)
(-1.98012 -0.00356059 0)
(-1.97579 -0.00410583 0)
(-1.97081 -0.00478406 0)
(-1.96525 -0.00544956 0)
(-1.95916 -0.00604036 0)
(-1.95243 -0.00666359 0)
(-1.94521 -0.0073137 0)
(-1.93742 -0.00801395 0)
(-1.92906 -0.00876087 0)
(-1.92013 -0.00955749 0)
(-1.91062 -0.0103989 0)
(-1.90054 -0.0112737 0)
(-1.88992 -0.0121679 0)
(-1.87876 -0.0130699 0)
(-1.86708 -0.01397 0)
(-1.85492 -0.0148603 0)
(-1.84232 -0.0157319 0)
(-1.82933 -0.0165747 0)
(-1.816 -0.0173829 0)
(-1.80238 -0.0181527 0)
(-1.78853 -0.0188803 0)
(-1.77449 -0.0195622 0)
(-1.76031 -0.0201944 0)
(-1.746 -0.0207721 0)
(-1.73161 -0.0212899 0)
(-1.71717 -0.0217437 0)
(-1.70271 -0.0221333 0)
(-1.68825 -0.0224625 0)
(-1.67383 -0.0227372 0)
(-1.65948 -0.0229636 0)
(-1.64522 -0.023148 0)
(-1.63108 -0.0232954 0)
(-1.61706 -0.023408 0)
(-1.60318 -0.0234849 0)
(-1.58945 -0.0235243 0)
(-1.57585 -0.0235241 0)
(-1.56239 -0.0234827 0)
(-1.54904 -0.0234004 0)
(-1.53583 -0.0232804 0)
(-1.52274 -0.0231276 0)
(-1.5098 -0.0229476 0)
(-1.49702 -0.0227483 0)
(-1.48442 -0.0225376 0)
(-1.47202 -0.0223209 0)
(-1.45985 -0.0221038 0)
(-1.44792 -0.0218924 0)
(-1.43626 -0.0216914 0)
(-1.42486 -0.0215023 0)
(-1.41375 -0.0213242 0)
(-1.40293 -0.0211565 0)
(-1.39242 -0.0210006 0)
(-1.38222 -0.020858 0)
(-1.37236 -0.0207285 0)
(-1.36284 -0.0206141 0)
(-1.3537 -0.0205135 0)
(-1.34496 -0.0204265 0)
(-1.33664 -0.0203582 0)
(-1.32876 -0.0203074 0)
(-1.32136 -0.0202704 0)
(-1.31447 -0.0202508 0)
(-1.30809 -0.0202528 0)
(-1.30225 -0.020278 0)
(-1.29698 -0.0203358 0)
(-1.29228 -0.020435 0)
(-1.28815 -0.0205861 0)
(-1.2846 -0.0208068 0)
(-1.28162 -0.0211219 0)
(-1.27917 -0.02156 0)
(-1.27721 -0.0221455 0)
(-1.27566 -0.022915 0)
(-1.27445 -0.0238994 0)
(-1.27348 -0.0251034 0)
(-1.27266 -0.0265055 0)
(-1.2719 -0.0280297 0)
(-1.27116 -0.0295099 0)
(-1.27048 -0.030622 0)
(-1.27002 -0.0307851 0)
(-1.27001 -0.0290596 0)
(-1.27086 -0.0240926 0)
(-1.27386 -0.0144275 0)
(-1.281 0.00208684 0)
(-1.29535 0.0245797 0)
(-1.32994 0.0648099 0)
(-1.39822 0.139458 0)
(-1.52928 0.29022 0)
(-1.77802 0.672489 0)
(-2.01404 0.000305505 0)
(-2.01353 -0.000272807 0)
(-2.01337 -0.000534595 0)
(-2.01299 -0.000654595 0)
(-2.01255 -0.000881828 0)
(-2.012 -0.00104869 0)
(-2.01136 -0.00125615 0)
(-2.01065 -0.00153806 0)
(-2.00973 -0.00201597 0)
(-2.00848 -0.00258507 0)
(-2.007 -0.00299344 0)
(-2.00507 -0.00336827 0)
(-2.00429 -0.00386438 0)
(-2.00124 -0.00449249 0)
(-1.99865 -0.00518176 0)
(-1.99758 -0.00594679 0)
(-1.99305 -0.00689388 0)
(-1.99051 -0.00782677 0)
(-1.98666 -0.00864045 0)
(-1.98237 -0.00948773 0)
(-1.97791 -0.0103584 0)
(-1.97305 -0.0112884 0)
(-1.96784 -0.0122664 0)
(-1.96227 -0.0132969 0)
(-1.95635 -0.0143692 0)
(-1.95009 -0.0154667 0)
(-1.94352 -0.0165734 0)
(-1.93667 -0.0176757 0)
(-1.92955 -0.0187608 0)
(-1.92222 -0.0198183 0)
(-1.9147 -0.0208369 0)
(-1.90703 -0.021803 0)
(-1.89924 -0.0227107 0)
(-1.89139 -0.0235583 0)
(-1.88349 -0.0243447 0)
(-1.87558 -0.025069 0)
(-1.86766 -0.0257308 0)
(-1.85976 -0.0263275 0)
(-1.85189 -0.0268539 0)
(-1.84406 -0.027305 0)
(-1.83628 -0.0276808 0)
(-1.82856 -0.0279854 0)
(-1.82093 -0.0282248 0)
(-1.81338 -0.0284056 0)
(-1.80595 -0.0285345 0)
(-1.79865 -0.0286166 0)
(-1.7915 -0.0286561 0)
(-1.7845 -0.0286558 0)
(-1.77767 -0.0286172 0)
(-1.77102 -0.028541 0)
(-1.76453 -0.0284263 0)
(-1.7582 -0.0282723 0)
(-1.75204 -0.0280799 0)
(-1.74603 -0.0278515 0)
(-1.7402 -0.0275896 0)
(-1.73455 -0.0273001 0)
(-1.7291 -0.0269898 0)
(-1.72387 -0.0266632 0)
(-1.71887 -0.0263246 0)
(-1.71414 -0.0259796 0)
(-1.70971 -0.0256333 0)
(-1.7056 -0.0252885 0)
(-1.70186 -0.0249455 0)
(-1.6985 -0.024603 0)
(-1.69556 -0.0242609 0)
(-1.69307 -0.0239204 0)
(-1.69106 -0.0235782 0)
(-1.68957 -0.023239 0)
(-1.68862 -0.0229051 0)
(-1.68825 -0.0225717 0)
(-1.68845 -0.0222418 0)
(-1.68926 -0.0219171 0)
(-1.69072 -0.0215972 0)
(-1.69282 -0.0212887 0)
(-1.69556 -0.0209962 0)
(-1.69893 -0.0207223 0)
(-1.70293 -0.0204807 0)
(-1.70754 -0.0202863 0)
(-1.71273 -0.0201549 0)
(-1.71843 -0.0201079 0)
(-1.72459 -0.0201755 0)
(-1.73114 -0.0203953 0)
(-1.73801 -0.0207994 0)
(-1.74512 -0.0214239 0)
(-1.75238 -0.0223003 0)
(-1.75975 -0.0234393 0)
(-1.76716 -0.0248153 0)
(-1.77456 -0.0263367 0)
(-1.78193 -0.0278146 0)
(-1.78929 -0.0288998 0)
(-1.79663 -0.0289892 0)
(-1.80389 -0.0271454 0)
(-1.81099 -0.0219554 0)
(-1.81833 -0.0116222 0)
(-1.82646 0.00563894 0)
(-1.8359 0.0331925 0)
(-1.85539 0.0821475 0)
(-1.8916 0.171883 0)
(-1.9534 0.348294 0)
(-2.04205 0.724736 0)
(-2.01229 0.00038227 0)
(-2.01423 -0.000448218 0)
(-2.01119 -0.000742855 0)
(-2.01201 -0.00076125 0)
(-2.01169 -0.00107931 0)
(-2.0109 -0.00127376 0)
(-2.01304 -0.00150955 0)
(-2.00922 -0.00183328 0)
(-2.01169 -0.00240611 0)
(-2.00906 -0.00313699 0)
(-2.00827 -0.00351479 0)
(-2.00761 -0.00388093 0)
(-2.01123 -0.00452976 0)
(-2.00505 -0.00517601 0)
(-2.00683 -0.00587699 0)
(-2.00761 -0.00680809 0)
(-2.00318 -0.00787863 0)
(-2.00614 -0.00898086 0)
(-2.0034 -0.00995924 0)
(-2.00215 -0.0109217 0)
(-2.00074 -0.0119098 0)
(-1.9991 -0.0129559 0)
(-1.99741 -0.0140473 0)
(-1.9956 -0.0151938 0)
(-1.99369 -0.0163816 0)
(-1.99167 -0.0175862 0)
(-1.98958 -0.0187845 0)
(-1.98743 -0.0199637 0)
(-1.98526 -0.0211104 0)
(-1.9831 -0.0222142 0)
(-1.98097 -0.0232646 0)
(-1.9789 -0.0242438 0)
(-1.97691 -0.0251479 0)
(-1.97502 -0.0259795 0)
(-1.97326 -0.0267397 0)
(-1.97163 -0.0274307 0)
(-1.97015 -0.0280537 0)
(-1.96881 -0.0286081 0)
(-1.96761 -0.0290886 0)
(-1.96658 -0.0294888 0)
(-1.9657 -0.0298101 0)
(-1.96498 -0.0300574 0)
(-1.96442 -0.0302364 0)
(-1.96401 -0.0303532 0)
(-1.96375 -0.0304137 0)
(-1.96365 -0.0304225 0)
(-1.96371 -0.0303841 0)
(-1.96392 -0.0303026 0)
(-1.96429 -0.0301815 0)
(-1.96482 -0.0300232 0)
(-1.96551 -0.0298273 0)
(-1.96635 -0.0295926 0)
(-1.96736 -0.0293182 0)
(-1.96854 -0.029006 0)
(-1.96989 -0.028655 0)
(-1.97143 -0.0282695 0)
(-1.97316 -0.0278571 0)
(-1.9751 -0.0274198 0)
(-1.97727 -0.0269604 0)
(-1.97967 -0.0264839 0)
(-1.98232 -0.0259945 0)
(-1.98524 -0.0254939 0)
(-1.98843 -0.0249841 0)
(-1.99193 -0.0244651 0)
(-1.99574 -0.0239362 0)
(-1.99987 -0.0233992 0)
(-2.00431 -0.0228485 0)
(-2.0091 -0.0222869 0)
(-2.01426 -0.0217198 0)
(-2.01982 -0.0211454 0)
(-2.02576 -0.0205657 0)
(-2.03209 -0.0199836 0)
(-2.03884 -0.0194033 0)
(-2.04599 -0.0188365 0)
(-2.05352 -0.018291 0)
(-2.06142 -0.0177697 0)
(-2.06968 -0.0172879 0)
(-2.07826 -0.0168678 0)
(-2.08714 -0.0165309 0)
(-2.09628 -0.0163012 0)
(-2.10565 -0.0162121 0)
(-2.11521 -0.016303 0)
(-2.12489 -0.0166109 0)
(-2.13469 -0.0171706 0)
(-2.14452 -0.018009 0)
(-2.15437 -0.019136 0)
(-2.16419 -0.0205235 0)
(-2.17393 -0.0220721 0)
(-2.18355 -0.0235849 0)
(-2.193 -0.0247163 0)
(-2.20219 -0.0248937 0)
(-2.21087 -0.0232498 0)
(-2.21845 -0.0184515 0)
(-2.225 -0.00876193 0)
(-2.22968 0.00797318 0)
(-2.23162 0.0368472 0)
(-2.2346 0.0886806 0)
(-2.23833 0.183256 0)
(-2.2334 0.36273 0)
(-2.2106 0.689549 0)
(-2.00913 0.000254371 0)
(-2.01475 -0.000670312 0)
(-2.00539 -0.000930573 0)
(-2.01181 -0.000751275 0)
(-2.00608 -0.001144 0)
(-2.00956 -0.00143967 0)
(-2.01512 -0.0015998 0)
(-2.00226 -0.00196704 0)
(-2.01386 -0.0025485 0)
(-2.00617 -0.00325649 0)
(-2.00587 -0.00355789 0)
(-2.01261 -0.0038482 0)
(-2.01343 -0.00460051 0)
(-2.00554 -0.00513006 0)
(-2.01791 -0.00573199 0)
(-2.01032 -0.00672332 0)
(-2.0114 -0.00771943 0)
(-2.01875 -0.00887697 0)
(-2.0159 -0.00995151 0)
(-2.01856 -0.0109239 0)
(-2.01984 -0.0119299 0)
(-2.02122 -0.0129758 0)
(-2.02287 -0.0140613 0)
(-2.02461 -0.0152061 0)
(-2.02645 -0.0163956 0)
(-2.02841 -0.0175951 0)
(-2.03051 -0.0187718 0)
(-2.03278 -0.0199174 0)
(-2.03522 -0.0210196 0)
(-2.03787 -0.0220651 0)
(-2.04068 -0.0230475 0)
(-2.0438 -0.0239483 0)
(-2.04713 -0.0247615 0)
(-2.05074 -0.0254905 0)
(-2.05465 -0.0261397 0)
(-2.05888 -0.0267161 0)
(-2.06343 -0.0272255 0)
(-2.06827 -0.0276708 0)
(-2.07337 -0.028048 0)
(-2.07875 -0.0283504 0)
(-2.08435 -0.0285785 0)
(-2.09015 -0.028737 0)
(-2.09614 -0.0288322 0)
(-2.10231 -0.0288705 0)
(-2.10862 -0.0288571 0)
(-2.11507 -0.0287956 0)
(-2.12163 -0.0286898 0)
(-2.1283 -0.0285434 0)
(-2.13506 -0.0283599 0)
(-2.14191 -0.0281411 0)
(-2.14885 -0.027886 0)
(-2.15586 -0.0275927 0)
(-2.16293 -0.0272602 0)
(-2.17007 -0.0268904 0)
(-2.17726 -0.0264814 0)
(-2.18453 -0.0260342 0)
(-2.19184 -0.0255548 0)
(-2.19922 -0.0250459 0)
(-2.20668 -0.0245105 0)
(-2.21422 -0.0239531 0)
(-2.22184 -0.0233776 0)
(-2.22955 -0.0227851 0)
(-2.23736 -0.0221776 0)
(-2.24527 -0.0215571 0)
(-2.25329 -0.0209241 0)
(-2.26142 -0.0202784 0)
(-2.26964 -0.0196176 0)
(-2.27802 -0.0189413 0)
(-2.28648 -0.0182517 0)
(-2.29506 -0.0175528 0)
(-2.30375 -0.0168473 0)
(-2.31256 -0.0161362 0)
(-2.32147 -0.0154287 0)
(-2.3305 -0.014738 0)
(-2.33963 -0.0140709 0)
(-2.34887 -0.0134344 0)
(-2.35822 -0.0128453 0)
(-2.36765 -0.0123256 0)
(-2.37717 -0.0118983 0)
(-2.38677 -0.0115908 0)
(-2.39642 -0.0114385 0)
(-2.40612 -0.0114793 0)
(-2.41585 -0.0117515 0)
(-2.4256 -0.0122925 0)
(-2.43535 -0.013127 0)
(-2.44509 -0.0142614 0)
(-2.45479 -0.0156713 0)
(-2.46443 -0.0172628 0)
(-2.47394 -0.0188413 0)
(-2.48324 -0.0200808 0)
(-2.49213 -0.0204727 0)
(-2.50021 -0.0192652 0)
(-2.5066 -0.0153555 0)
(-2.51102 -0.00711053 0)
(-2.51167 0.00797787 0)
(-2.5059 0.0352356 0)
(-2.49338 0.0846387 0)
(-2.46731 0.174726 0)
(-2.40671 0.33857 0)
(-2.31064 0.599824 0)
(-2.00962 -0.000757094 0)
(-2.01052 -0.000833233 0)
(-1.9951 -0.00100014 0)
(-2.02032 -0.000726756 0)
(-1.99595 -0.00108572 0)
(-2.00539 -0.00156329 0)
(-2.01882 -0.00155339 0)
(-1.99561 -0.00184062 0)
(-2.01324 -0.00231155 0)
(-2.00492 -0.00288022 0)
(-2.00567 -0.00323806 0)
(-2.02081 -0.00344888 0)
(-2.01072 -0.0040424 0)
(-2.00816 -0.00442317 0)
(-2.02551 -0.004987 0)
(-2.01186 -0.00585876 0)
(-2.02287 -0.00665193 0)
(-2.02679 -0.00769417 0)
(-2.02532 -0.00873535 0)
(-2.03248 -0.00963859 0)
(-2.03549 -0.0105682 0)
(-2.03941 -0.0115118 0)
(-2.04398 -0.0124865 0)
(-2.04873 -0.0135252 0)
(-2.05377 -0.0146129 0)
(-2.05915 -0.0157054 0)
(-2.06486 -0.0167593 0)
(-2.07092 -0.0177711 0)
(-2.0773 -0.0187369 0)
(-2.08413 -0.0196356 0)
(-2.09121 -0.0204593 0)
(-2.09886 -0.0211991 0)
(-2.10686 -0.0218477 0)
(-2.11524 -0.0224051 0)
(-2.12401 -0.0228794 0)
(-2.13315 -0.0232836 0)
(-2.14264 -0.0236286 0)
(-2.15246 -0.0239197 0)
(-2.16257 -0.0241555 0)
(-2.17304 -0.0243323 0)
(-2.18374 -0.0244487 0)
(-2.19465 -0.024508 0)
(-2.20574 -0.0245173 0)
(-2.21698 -0.0244839 0)
(-2.22832 -0.0244125 0)
(-2.23974 -0.0243048 0)
(-2.2512 -0.0241621 0)
(-2.2627 -0.0239864 0)
(-2.2742 -0.0237798 0)
(-2.2857 -0.0235432 0)
(-2.29718 -0.0232752 0)
(-2.30863 -0.0229734 0)
(-2.32004 -0.0226363 0)
(-2.33139 -0.0222646 0)
(-2.34267 -0.0218593 0)
(-2.35391 -0.0214209 0)
(-2.36504 -0.02095 0)
(-2.37606 -0.0204495 0)
(-2.38698 -0.0199238 0)
(-2.39779 -0.0193767 0)
(-2.40847 -0.0188105 0)
(-2.41903 -0.0182265 0)
(-2.42946 -0.0176261 0)
(-2.43977 -0.0170114 0)
(-2.44996 -0.0163833 0)
(-2.46001 -0.0157397 0)
(-2.46994 -0.0150818 0)
(-2.47976 -0.0144124 0)
(-2.48943 -0.0137307 0)
(-2.49896 -0.0130388 0)
(-2.50835 -0.0123389 0)
(-2.51762 -0.0116304 0)
(-2.52675 -0.010924 0)
(-2.5358 -0.0102319 0)
(-2.54473 -0.00955876 0)
(-2.55359 -0.00891453 0)
(-2.56239 -0.00831632 0)
(-2.57114 -0.00778416 0)
(-2.57985 -0.00734263 0)
(-2.58855 -0.00702138 0)
(-2.59725 -0.00685505 0)
(-2.60595 -0.00688054 0)
(-2.6147 -0.0071364 0)
(-2.62349 -0.0076603 0)
(-2.63234 -0.00847805 0)
(-2.64128 -0.00959642 0)
(-2.65029 -0.0109995 0)
(-2.65934 -0.0126056 0)
(-2.66836 -0.0142361 0)
(-2.67719 -0.0156097 0)
(-2.68553 -0.0163038 0)
(-2.69282 -0.0157018 0)
(-2.69807 -0.0129876 0)
(-2.70039 -0.00671908 0)
(-2.6978 0.00562791 0)
(-2.68521 0.0288201 0)
(-2.65945 0.0712864 0)
(-2.60831 0.148802 0)
(-2.50533 0.284324 0)
(-2.36392 0.478119 0)
(-2.01078 -0.00220402 0)
(-2.00281 -0.000785846 0)
(-1.9878 -0.000880287 0)
(-2.02711 -0.000735404 0)
(-1.99427 -0.000842401 0)
(-1.98807 -0.00140687 0)
(-2.02482 -0.00142761 0)
(-1.99923 -0.00139481 0)
(-2.0091 -0.00161769 0)
(-2.00733 -0.00210456 0)
(-2.00989 -0.0024975 0)
(-2.0183 -0.00278108 0)
(-2.01398 -0.00301547 0)
(-2.01897 -0.00329022 0)
(-2.02263 -0.00381867 0)
(-2.01778 -0.00434692 0)
(-2.03345 -0.00493449 0)
(-2.0302 -0.00572958 0)
(-2.03419 -0.00660303 0)
(-2.04374 -0.00735664 0)
(-2.04735 -0.00811179 0)
(-2.05325 -0.00885779 0)
(-2.06018 -0.00962661 0)
(-2.06715 -0.010465 0)
(-2.07466 -0.0113584 0)
(-2.08271 -0.0122456 0)
(-2.09126 -0.0130822 0)
(-2.10043 -0.0138655 0)
(-2.11 -0.0146009 0)
(-2.12033 -0.0152737 0)
(-2.13104 -0.0158691 0)
(-2.1423 -0.0163862 0)
(-2.154 -0.0168251 0)
(-2.1661 -0.0171868 0)
(-2.17856 -0.0174804 0)
(-2.19132 -0.0177186 0)
(-2.20436 -0.017911 0)
(-2.21767 -0.0180597 0)
(-2.23121 -0.0181633 0)
(-2.24501 -0.0182223 0)
(-2.25899 -0.0182384 0)
(-2.27312 -0.0182158 0)
(-2.28734 -0.018162 0)
(-2.30163 -0.0180839 0)
(-2.31596 -0.0179845 0)
(-2.33029 -0.0178636 0)
(-2.34461 -0.0177199 0)
(-2.35889 -0.0175539 0)
(-2.3731 -0.0173664 0)
(-2.38722 -0.0171577 0)
(-2.40123 -0.0169257 0)
(-2.41512 -0.016668 0)
(-2.42886 -0.0163828 0)
(-2.44243 -0.0160688 0)
(-2.4558 -0.0157291 0)
(-2.46898 -0.015367 0)
(-2.48193 -0.0149809 0)
(-2.49463 -0.014571 0)
(-2.50706 -0.0141413 0)
(-2.51922 -0.0136943 0)
(-2.53108 -0.0132305 0)
(-2.54266 -0.0127504 0)
(-2.55395 -0.0122551 0)
(-2.56494 -0.0117452 0)
(-2.57564 -0.0112202 0)
(-2.58606 -0.0106776 0)
(-2.5962 -0.0101197 0)
(-2.60607 -0.00954919 0)
(-2.61568 -0.00896437 0)
(-2.62506 -0.00836445 0)
(-2.63422 -0.00775047 0)
(-2.64318 -0.00711993 0)
(-2.65196 -0.00648356 0)
(-2.66059 -0.00585292 0)
(-2.66909 -0.0052308 0)
(-2.67748 -0.00462743 0)
(-2.6858 -0.00406017 0)
(-2.69406 -0.00354853 0)
(-2.70229 -0.00311719 0)
(-2.71052 -0.00279626 0)
(-2.71877 -0.00261936 0)
(-2.72707 -0.00262309 0)
(-2.73545 -0.00284643 0)
(-2.74393 -0.00332675 0)
(-2.75253 -0.00409454 0)
(-2.76126 -0.00515581 0)
(-2.77012 -0.00651011 0)
(-2.77906 -0.00810099 0)
(-2.78796 -0.00977148 0)
(-2.79662 -0.0113051 0)
(-2.80467 -0.0123765 0)
(-2.81147 -0.0125252 0)
(-2.81597 -0.0111789 0)
(-2.8166 -0.00729921 0)
(-2.81164 0.00131733 0)
(-2.79384 0.0184555 0)
(-2.75766 0.0503477 0)
(-2.68739 0.10889 0)
(-2.55478 0.208452 0)
(-2.38766 0.339105 0)
(-2.00406 -0.00247503 0)
(-1.99905 -0.000496024 0)
(-1.99681 -0.000406548 0)
(-2.01404 -0.000798523 0)
(-2.00694 -0.000588922 0)
(-1.9774 -0.000775221 0)
(-2.0196 -0.00101231 0)
(-2.00883 -0.000769541 0)
(-2.01108 -0.000706514 0)
(-2.00567 -0.00111083 0)
(-2.01746 -0.00133952 0)
(-2.01006 -0.00170274 0)
(-2.01795 -0.00172539 0)
(-2.02886 -0.00188686 0)
(-2.01813 -0.00222207 0)
(-2.02826 -0.00244579 0)
(-2.03871 -0.00282481 0)
(-2.03165 -0.00331961 0)
(-2.04186 -0.00392302 0)
(-2.05151 -0.00443362 0)
(-2.05473 -0.00491647 0)
(-2.06229 -0.00537945 0)
(-2.07083 -0.00585936 0)
(-2.07909 -0.00640355 0)
(-2.08824 -0.00700272 0)
(-2.09834 -0.00757855 0)
(-2.10906 -0.00810126 0)
(-2.12064 -0.00857976 0)
(-2.13267 -0.00901612 0)
(-2.1454 -0.00940896 0)
(-2.15863 -0.00974733 0)
(-2.17234 -0.010032 0)
(-2.18647 -0.0102659 0)
(-2.20095 -0.0104517 0)
(-2.21571 -0.0105958 0)
(-2.23071 -0.010706 0)
(-2.2459 -0.0107874 0)
(-2.26125 -0.0108395 0)
(-2.27675 -0.0108607 0)
(-2.29234 -0.0108528 0)
(-2.30798 -0.0108196 0)
(-2.32362 -0.0107659 0)
(-2.33925 -0.0106975 0)
(-2.35482 -0.0106188 0)
(-2.37035 -0.0105309 0)
(-2.38581 -0.0104329 0)
(-2.40118 -0.0103233 0)
(-2.41643 -0.0102023 0)
(-2.43155 -0.0100705 0)
(-2.4465 -0.00992744 0)
(-2.46129 -0.00977096 0)
(-2.47588 -0.00959907 0)
(-2.49026 -0.00941059 0)
(-2.50439 -0.00920396 0)
(-2.51826 -0.00898105 0)
(-2.53185 -0.00874421 0)
(-2.54515 -0.00849267 0)
(-2.55815 -0.00822594 0)
(-2.57083 -0.00794555 0)
(-2.58317 -0.00765167 0)
(-2.59519 -0.00734319 0)
(-2.60687 -0.00701976 0)
(-2.61821 -0.00668123 0)
(-2.62923 -0.00632634 0)
(-2.63992 -0.00595268 0)
(-2.6503 -0.0055582 0)
(-2.66038 -0.00514312 0)
(-2.67016 -0.00470699 0)
(-2.67969 -0.00424758 0)
(-2.68896 -0.00376375 0)
(-2.69801 -0.00325545 0)
(-2.70686 -0.00272135 0)
(-2.71555 -0.00216967 0)
(-2.72403 -0.00160819 0)
(-2.73241 -0.00104375 0)
(-2.74069 -0.000486252 0)
(-2.74889 4.84638e-05 0)
(-2.75704 0.000541221 0)
(-2.76518 0.000967505 0)
(-2.77333 0.00129788 0)
(-2.78152 0.00149929 0)
(-2.78979 0.00153514 0)
(-2.79817 0.00136619 0)
(-2.80669 0.000953924 0)
(-2.81538 0.000263268 0)
(-2.82425 -0.000721852 0)
(-2.83335 -0.00200761 0)
(-2.84242 -0.00357141 0)
(-2.85151 -0.00528643 0)
(-2.86036 -0.00701272 0)
(-2.86851 -0.00852449 0)
(-2.87529 -0.00952961 0)
(-2.8796 -0.0096711 0)
(-2.8796 -0.00840003 0)
(-2.87291 -0.00422182 0)
(-2.85297 0.00532867 0)
(-2.81013 0.0240258 0)
(-2.72761 0.0591038 0)
(-2.57706 0.118401 0)
(-2.39729 0.191817 0)
(-1.99856 -0.000953129 0)
(-2.00087 -0.000197267 0)
(-2.00289 0.000223412 0)
(-1.99757 -0.000616578 0)
(-2.01328 -0.000465388 0)
(-1.98994 0.000145148 0)
(-2.00793 -6.1513e-05 0)
(-2.01097 -5.73097e-05 0)
(-2.0165 0.00019853 0)
(-2.00133 -3.05834e-05 0)
(-2.02088 -0.000111046 0)
(-2.01145 -0.000219971 0)
(-2.01658 -0.000281073 0)
(-2.03199 -0.000314971 0)
(-2.01855 -0.000295073 0)
(-2.03266 -0.000401307 0)
(-2.04128 -0.000572751 0)
(-2.03389 -0.000740475 0)
(-2.04491 -0.00101589 0)
(-2.05534 -0.00119047 0)
(-2.05767 -0.00132005 0)
(-2.06641 -0.00144177 -1.69479e-41)
(-2.07577 -0.00157404 0)
(-2.08448 -0.00173155 0)
(-2.0945 -0.00191546 0)
(-2.10601 -0.00208392 0)
(-2.11818 -0.00223159 0)
(-2.13095 -0.00236744 0)
(-2.14431 -0.00248718 0)
(-2.15829 -0.00259392 0)
(-2.17279 -0.00268417 0)
(-2.18773 -0.0027587 0)
(-2.20303 -0.00281794 0)
(-2.21861 -0.00286241 0)
(-2.2344 -0.00289409 0)
(-2.25035 -0.0029153 0)
(-2.26642 -0.00292748 0)
(-2.28258 -0.00293035 0)
(-2.29879 -0.00292294 0)
(-2.315 -0.00290553 0)
(-2.33117 -0.00287946 0)
(-2.34727 -0.0028465 0)
(-2.36327 -0.00280896 0)
(-2.37916 -0.00276835 0)
(-2.39495 -0.00272542 0)
(-2.41063 -0.00268008 0)
(-2.42618 -0.00263201 0)
(-2.44158 -0.00258147 0)
(-2.45681 -0.00252847 0)
(-2.47186 -0.00247272 0)
(-2.48672 -0.00241289 0)
(-2.50137 -0.00234778 0)
(-2.51579 -0.00227668 0)
(-2.52996 -0.00219838 0)
(-2.54385 -0.00211267 0)
(-2.55746 -0.00201964 0)
(-2.57078 -0.00191893 0)
(-2.58378 -0.00181035 0)
(-2.59646 -0.00169329 0)
(-2.60881 -0.00156553 0)
(-2.62082 -0.00142502 0)
(-2.6325 -0.00127031 0)
(-2.64383 -0.00109932 0)
(-2.65483 -0.000909065 0)
(-2.6655 -0.000696245 0)
(-2.67586 -0.000458004 0)
(-2.6859 -0.000192248 0)
(-2.69565 0.000103789 0)
(-2.70513 0.000433013 0)
(-2.71435 0.000797069 0)
(-2.72334 0.00119708 0)
(-2.73212 0.00163003 0)
(-2.74074 0.00209417 0)
(-2.74914 0.0025883 0)
(-2.75745 0.00309955 0)
(-2.76568 0.00361715 0)
(-2.77386 0.0041271 0)
(-2.78202 0.00461061 0)
(-2.79019 0.00504355 0)
(-2.79841 0.00539726 0)
(-2.80672 0.00563905 0)
(-2.81514 0.00573221 0)
(-2.82372 0.00563705 6.62632e-41)
(-2.83247 0.00531259 0)
(-2.84143 0.00472024 0)
(-2.85058 0.00382015 0)
(-2.85996 0.00260414 0)
(-2.86931 0.00107585 1.26465e-41)
(-2.87867 -0.0007063 0)
(-2.88777 -0.00265389 0)
(-2.89597 -0.00463109 0)
(-2.90289 -0.00653119 0)
(-2.90727 -0.00825257 0)
(-2.90731 -0.00963702 -5.66413e-41)
(-2.89979 -0.0101871 0)
(-2.87932 -0.0090704 0)
(-2.83423 -0.00512425 -6.02353e-41)
(-2.74669 0.0038278 0)
(-2.58847 0.0202199 0)
(-2.40376 0.0407233 0)
(-2.00121 0.000293776 0)
(-2.00143 5.47946e-05 0)
(-1.9991 0.000458984 0)
(-2.00039 -0.000185477 0)
(-2.00831 -9.5707e-05 0)
(-2.0033 0.000939017 0)
(-2.00738 0.000964685 0)
(-1.99829 0.000821988 0)
(-2.02029 0.00104777 0)
(-2.00218 0.00107177 0)
(-2.01721 0.00113256 0)
(-2.01944 0.00135696 0)
(-2.00952 0.00127709 0)
(-2.03096 0.00132601 0)
(-2.02535 0.00168474 0)
(-2.02488 0.00167471 0)
(-2.04218 0.00165861 0)
(-2.03624 0.00185081 0)
(-2.04137 0.00193571 0)
(-2.05539 0.00214059 0)
(-2.0571 0.00238906 0)
(-2.06547 0.00262161 3.08169e-41)
(-2.07486 0.0028507 0)
(-2.08347 0.00310966 0)
(-2.09332 0.0033957 0)
(-2.10454 0.00366838 0)
(-2.11648 0.00390535 0)
(-2.12902 0.00411966 0)
(-2.14217 0.00431562 0)
(-2.15592 0.00449058 0)
(-2.1702 0.0046426 0)
(-2.18495 0.00476967 0)
(-2.20007 0.00487438 0)
(-2.21549 0.00495929 0)
(-2.23115 0.00502735 0)
(-2.24699 0.00508158 0)
(-2.26296 0.0051236 0)
(-2.27905 0.00515309 0)
(-2.2952 0.00517054 0)
(-2.31136 0.00517785 0)
(-2.3275 0.00517722 0)
(-2.34357 0.00517122 0)
(-2.35954 0.00516193 0)
(-2.37541 0.00515033 0)
(-2.39117 0.00513569 0)
(-2.40682 0.00511666 0)
(-2.42234 0.00509264 0)
(-2.4377 0.00506367 0)
(-2.45289 0.00503033 0)
(-2.46789 0.00499253 0)
(-2.4827 0.00495028 0)
(-2.4973 0.00490397 0)
(-2.51166 0.00485376 0)
(-2.52577 0.00480086 0)
(-2.5396 0.00474686 0)
(-2.55315 0.00469325 0)
(-2.56639 0.00464071 0)
(-2.57933 0.00458949 0)
(-2.59193 0.0045416 0)
(-2.6042 0.00450127 0)
(-2.61613 0.00447185 0)
(-2.62772 0.00445594 0)
(-2.63897 0.00445743 0)
(-2.64987 0.00448084 0)
(-2.66045 0.00453046 0)
(-2.6707 0.0046103 0)
(-2.68065 0.00472445 0)
(-2.69029 0.00487788 0)
(-2.69966 0.00507467 0)
(-2.70878 0.005317 0)
(-2.71767 0.00560643 0)
(-2.72634 0.00593975 0)
(-2.73484 0.00631835 0)
(-2.74319 0.00674306 0)
(-2.75141 0.00720225 0)
(-2.75953 0.00768424 0)
(-2.7676 0.00817534 0)
(-2.77565 0.00865713 0)
(-2.78371 0.00910579 0)
(-2.79182 0.00949326 0)
(-2.80003 0.00978718 0)
(-2.80835 0.00995055 0)
(-2.81685 0.00994264 1.16875e-40)
(-2.82554 0.0097201 0)
(-2.83445 0.00923748 0)
(-2.8436 0.00844143 0)
(-2.85295 0.00730467 0)
(-2.86243 0.00580884 6.82826e-41)
(-2.87188 0.00393548 0)
(-2.88099 0.00172651 0)
(-2.88921 -0.000746856 0)
(-2.89597 -0.00354454 0)
(-2.90019 -0.00685479 0)
(-2.90018 -0.0109191 -6.41766e-41)
(-2.89275 -0.016189 0)
(-2.8722 -0.0235513 0)
(-2.82806 -0.0347562 -4.08557e-40)
(-2.74184 -0.0527139 0)
(-2.58533 -0.0802162 0)
(-2.4022 -0.111404 0)
(-2.00742 0.00051802 0)
(-1.99178 0.000265102 0)
(-2.00074 0.000357881 0)
(-2.00627 0.000328148 0)
(-2.00522 0.000715949 0)
(-2.00634 0.00130329 0)
(-2.01303 0.00157069 0)
(-1.98871 0.00174411 0)
(-2.02229 0.00184649 0)
(-2.00083 0.00215501 0)
(-2.0097 0.00232414 0)
(-2.02767 0.00270062 0)
(-2.00216 0.00283278 0)
(-2.0249 0.00294464 0)
(-2.03018 0.00349373 0)
(-2.01954 0.00367609 0)
(-2.03306 0.00381443 0)
(-2.03953 0.00433168 0)
(-2.0346 0.00481632 0)
(-2.05045 0.00535234 0)
(-2.05313 0.00593804 0)
(-2.05982 0.00649192 0)
(-2.06831 0.00704825 0)
(-2.07632 0.00766604 0)
(-2.08517 0.00834312 0)
(-2.09484 0.00900147 0)
(-2.1051 0.00960387 0)
(-2.11622 0.0101628 0)
(-2.12784 0.0106752 0)
(-2.14013 0.0111401 0)
(-2.15293 0.0115472 0)
(-2.16623 0.0118929 0)
(-2.17997 0.0121826 0)
(-2.19407 0.0124202 0)
(-2.20847 0.0126124 0)
(-2.22313 0.0127669 0)
(-2.23802 0.0128888 0)
(-2.25309 0.0129773 0)
(-2.26832 0.0130325 0)
(-2.28367 0.013058 0)
(-2.2991 0.0130574 0)
(-2.31455 0.0130357 0)
(-2.32999 0.0129985 0)
(-2.34539 0.0129497 0)
(-2.36074 0.0128899 0)
(-2.37602 0.0128172 0)
(-2.39121 0.0127304 0)
(-2.40629 0.0126297 0)
(-2.42123 0.0125162 0)
(-2.43601 0.01239 0)
(-2.45061 0.0122503 0)
(-2.46503 0.0120968 0)
(-2.47923 0.0119284 0)
(-2.49319 0.0117467 0)
(-2.50688 0.0115554 0)
(-2.5203 0.011357 0)
(-2.53342 0.0111522 0)
(-2.54624 0.0109416 0)
(-2.55873 0.0107287 0)
(-2.5709 0.0105198 0)
(-2.58272 0.0103199 0)
(-2.5942 0.0101327 0)
(-2.60534 0.00996368 0)
(-2.61614 0.00981902 0)
(-2.62661 0.00970414 0)
(-2.63675 0.00962416 0)
(-2.64657 0.00958466 0)
(-2.65609 0.00959319 0)
(-2.66533 0.00965556 0)
(-2.67431 0.00977399 0)
(-2.68304 0.00995041 0)
(-2.69156 0.0101849 0)
(-2.69989 0.0104781 0)
(-2.70805 0.0108293 0)
(-2.71608 0.0112311 0)
(-2.724 0.0116728 0)
(-2.73185 0.0121411 0)
(-2.73966 0.0126182 0)
(-2.74749 0.0130809 0)
(-2.75535 0.0135016 0)
(-2.7633 0.013849 0)
(-2.77138 0.014086 0)
(-2.77962 0.0141709 0)
(-2.78807 0.0140583 0)
(-2.79675 0.0136958 0)
(-2.80569 0.0130233 0)
(-2.81486 0.0119867 0)
(-2.82418 0.010527 0)
(-2.83348 0.00857851 0)
(-2.84246 0.00609362 0)
(-2.85071 0.00306199 0)
(-2.85759 -0.000637866 0)
(-2.86164 -0.0054632 0)
(-2.86188 -0.0121362 0)
(-2.85533 -0.0219105 0)
(-2.83672 -0.0373103 0)
(-2.79645 -0.0629803 0)
(-2.71718 -0.106691 0)
(-2.57066 -0.176549 0)