/*--------------------------------*- C++ -*----------------------------------*\
| =========                 |                                                 |
| \\      /  F ield         | OpenFOAM: The Open Source CFD Toolbox           |
|  \\    /   O peration     | Version:  2.1.0                                 |
|   \\  /    A nd           | Web:      www.OpenFOAM.org                      |
|    \\/     M anipulation  |                                                 |
\*---------------------------------------------------------------------------*/
FoamFile
{
    version     2.0;
    format      ascii;
    class       volScalarField;
    location    "0.28";
    object      k;
}
// * * * * * * * * * * * * * * * * * * * * * * * * * * * * * * * * * * * * * //

dimensions      [0 2 -2 0 0 0 0];

internalField   nonuniform List<scalar> 
6400
(
0.0302423
0.0303004
0.030314
0.0303207
0.0303218
0.0303242
0.0303221
0.0303231
0.0303216
0.0303229
0.030323
0.0303261
0.0303284
0.0303338
0.0303392
0.0303474
0.0303561
0.0303667
0.0303784
0.0303911
0.0304052
0.0304196
0.0304356
0.0304513
0.0304685
0.0304848
0.0305022
0.030518
0.0305344
0.0305485
0.0305625
0.0305736
0.0305838
0.0305896
0.0305918
0.0305921
0.0305895
0.0305801
0.0305656
0.0305454
0.0305176
0.0304827
0.0304395
0.030387
0.0303249
0.0302523
0.0301691
0.0300742
0.0299673
0.0298463
0.0297113
0.0295612
0.0293969
0.0292236
0.0290417
0.0288482
0.0286448
0.0284313
0.0282067
0.0279721
0.0277297
0.0274756
0.0272123
0.0269389
0.0266545
0.0263594
0.026052
0.0257277
0.0253929
0.025038
0.0246699
0.024283
0.0238775
0.0234555
0.0230134
0.022555
0.0220794
0.0215888
0.0210852
0.0205701
0.0200447
0.0195075
0.0189482
0.0183364
0.0177087
0.0170434
0.0163254
0.0155371
0.0146358
0.0135815
0.0122988
0.0106876
0.00864406
0.00619487
0.00357515
0.00232903
0.00273712
0.00551953
0.00874538
0.0098973
0.0489772
0.0493567
0.0495314
0.0498524
0.0500603
0.0503792
0.0506151
0.050931
0.0511915
0.0515067
0.0517885
0.0521059
0.0524064
0.0527291
0.0530464
0.0533768
0.053709
0.0540489
0.0543959
0.0547473
0.0551084
0.0554721
0.0558458
0.056221
0.0566054
0.0569905
0.0573842
0.0577776
0.0581781
0.0585777
0.0589828
0.0593862
0.0597936
0.0601986
0.0606061
0.0610113
0.0614178
0.0618216
0.0622261
0.0626258
0.0630219
0.0634118
0.0637955
0.0641699
0.0645346
0.0648879
0.065228
0.065553
0.0658619
0.0661533
0.0664301
0.0666854
0.0669174
0.0671443
0.0673591
0.0675578
0.0677444
0.0679147
0.0680649
0.0681923
0.0683055
0.0684015
0.0684769
0.068536
0.0685661
0.0685782
0.0685765
0.0685232
0.0684494
0.0683221
0.0681555
0.0679294
0.0676431
0.0672874
0.0668519
0.0663336
0.0657196
0.0650085
0.0641915
0.063267
0.0622344
0.0610976
0.0598615
0.0585083
0.0569606
0.0552242
0.053222
0.0509293
0.0482581
0.0451727
0.0416062
0.0375416
0.0329883
0.0281864
0.0232606
0.0185706
0.0149497
0.0123728
0.0107436
0.00920387
0.0550195
0.0555701
0.0558223
0.0562833
0.0566031
0.0570504
0.0574145
0.057856
0.0582527
0.0586948
0.0591169
0.0595643
0.0600071
0.0604626
0.0609226
0.0613868
0.06186
0.0623332
0.0628192
0.0633053
0.0638038
0.0643016
0.0648102
0.0653166
0.0658313
0.0663413
0.0668592
0.0673724
0.0678905
0.068403
0.0689182
0.0694262
0.0699347
0.0704346
0.0709324
0.0714202
0.0719032
0.0723747
0.0728375
0.0732891
0.073731
0.0741573
0.074572
0.0749677
0.0753452
0.0757014
0.0760304
0.0763286
0.0765905
0.076815
0.0770224
0.0772056
0.0773648
0.0774981
0.0776092
0.0776887
0.0777448
0.0777713
0.0777805
0.0777696
0.0777041
0.0776189
0.0774811
0.0773124
0.0770935
0.076833
0.0765223
0.0761578
0.0757425
0.0752595
0.0747155
0.0740924
0.0733895
0.0725954
0.071701
0.0706993
0.0695782
0.0683327
0.066951
0.0654289
0.0637574
0.0619322
0.0599466
0.0577956
0.055503
0.0530554
0.0504649
0.0477152
0.0448012
0.0416932
0.0383635
0.0347637
0.0308803
0.0266916
0.0223184
0.0179903
0.0143763
0.011409
0.0092445
0.00709799
0.0597889
0.0604175
0.0607046
0.0612427
0.0616215
0.0621402
0.0625729
0.0630819
0.0635501
0.0640572
0.0645505
0.0650605
0.0655719
0.0660866
0.0666096
0.0671268
0.0676536
0.0681679
0.0686889
0.069206
0.0697307
0.0702493
0.0707743
0.0712912
0.0718133
0.0723272
0.0728395
0.0733399
0.0738373
0.0743191
0.0747952
0.0752531
0.0757021
0.0761306
0.0765467
0.0769402
0.0773188
0.0776746
0.0780068
0.078315
0.0786015
0.0788548
0.0790865
0.0792833
0.0794502
0.0795862
0.0796846
0.0797415
0.0797652
0.0797687
0.0797185
0.0796317
0.0795047
0.0793265
0.0791097
0.0788317
0.0785081
0.0781205
0.0776712
0.0771564
0.0765704
0.0759174
0.0751847
0.074376
0.0734845
0.072508
0.0714459
0.0702949
0.0690561
0.0677268
0.0663116
0.0648074
0.0632216
0.0615523
0.0598061
0.057985
0.0560928
0.0541343
0.0521119
0.0500304
0.0478908
0.045697
0.0434491
0.0411511
0.0388038
0.0364097
0.0339782
0.0315212
0.0290408
0.0265426
0.0240359
0.0215211
0.0190145
0.0165205
0.0140824
0.0117727
0.00963452
0.00782092
0.00656718
0.00597625
0.0615826
0.0621814
0.0624492
0.0629674
0.0633155
0.0638111
0.0642051
0.0646817
0.0651023
0.0655647
0.0659998
0.0664511
0.0668923
0.0673334
0.0677733
0.0682031
0.0686362
0.0690539
0.0694764
0.0698803
0.0702853
0.0706705
0.071054
0.0714142
0.0717644
0.0720936
0.0724087
0.0726989
0.0729731
0.0732167
0.0734421
0.0736329
0.0738017
0.073933
0.0740382
0.0740982
0.0741249
0.0741303
0.0740853
0.073993
0.0738714
0.0736876
0.0734728
0.0731989
0.0728792
0.0725098
0.072082
0.071606
0.0710717
0.0704821
0.0698352
0.0691287
0.0683654
0.0675427
0.0666654
0.0657263
0.0647327
0.0636783
0.0625679
0.0614018
0.0601787
0.0589059
0.0575784
0.056205
0.0547841
0.0533193
0.0518151
0.0502712
0.048694
0.0470839
0.0454456
0.0437822
0.042098
0.0403994
0.0386909
0.0369758
0.035259
0.0335446
0.0318369
0.0301415
0.0284622
0.0268062
0.0251766
0.0235822
0.0220252
0.0205147
0.0190466
0.0176183
0.016235
0.0148935
0.0135975
0.0123444
0.0111409
0.00998768
0.00890014
0.00789723
0.00700094
0.00638038
0.00611216
0.00611083
0.058781
0.0591547
0.0593216
0.0596535
0.0598698
0.0601798
0.0604151
0.0606975
0.0609346
0.0611879
0.0614152
0.0616382
0.061847
0.0620378
0.0622203
0.062376
0.0625268
0.0626457
0.0627585
0.0628334
0.0628904
0.0629151
0.0629229
0.0629018
0.0628329
0.0627429
0.0626165
0.0624572
0.0622684
0.0620363
0.0617767
0.0614698
0.0611339
0.06075
0.060335
0.0598725
0.0593783
0.0588389
0.0582626
0.0576446
0.0569923
0.0562956
0.0555689
0.0547985
0.0539973
0.0531591
0.0522865
0.0513832
0.0504461
0.0494797
0.0484852
0.0474612
0.0464149
0.0453408
0.0442479
0.0431317
0.0419997
0.0408523
0.0396945
0.0385278
0.037355
0.0361797
0.035003
0.0338294
0.0326598
0.0314971
0.0303444
0.0292023
0.0280758
0.0269646
0.0258737
0.0248032
0.0237568
0.0227322
0.021733
0.0207594
0.0198149
0.0188997
0.018017
0.0171648
0.0163415
0.0155483
0.0147837
0.0140485
0.0133406
0.0126595
0.0120022
0.0113672
0.0107516
0.0101527
0.00956865
0.00899598
0.00843534
0.00788648
0.00736192
0.00687557
0.00652274
0.00636914
0.00634428
0.00656314
0.0500142
0.0499824
0.0499709
0.0499591
0.049947
0.0499195
0.0498897
0.0498337
0.0497766
0.0496853
0.0495944
0.0494639
0.0493343
0.0491613
0.0489889
0.0487717
0.0485549
0.0482929
0.0480283
0.0477168
0.0474001
0.0470399
0.046673
0.0462613
0.0458319
0.0453649
0.0448775
0.0443535
0.0438117
0.0432329
0.0426398
0.0420113
0.041371
0.0406987
0.0400169
0.0393074
0.0385907
0.0378511
0.0371062
0.0363454
0.0355824
0.0348081
0.0340348
0.0332537
0.0324767
0.0316959
0.0309211
0.0301473
0.0293812
0.0286197
0.0278689
0.0271248
0.0263946
0.0256698
0.0249609
0.0242607
0.0235786
0.022907
0.022253
0.0216123
0.0209899
0.0203824
0.0197936
0.0192199
0.0186643
0.0181248
0.0176023
0.0170934
0.0166008
0.0161204
0.0156552
0.0152005
0.0147589
0.014326
0.0139038
0.0134881
0.0130803
0.0126759
0.0122776
0.0118901
0.0115137
0.0111466
0.0107901
0.0104406
0.0101006
0.00976549
0.00943906
0.009116
0.00880198
0.00849257
0.00819624
0.00791047
0.0076477
0.0074085
0.00721542
0.00709543
0.00704488
0.00709428
0.00743112
0.00762046
0.0368389
0.0364724
0.0363173
0.0360243
0.0358408
0.0355434
0.0353263
0.035013
0.0347602
0.034424
0.0341343
0.0337708
0.0334444
0.0330517
0.0326887
0.0322665
0.0318691
0.0314178
0.0309843
0.0305002
0.0300304
0.0295142
0.0290085
0.0284647
0.0279438
0.0273897
0.0268532
0.0262882
0.0257437
0.025177
0.0246337
0.0240739
0.0235398
0.0229946
0.022477
0.021953
0.021458
0.0209607
0.0204927
0.0200248
0.0195844
0.0191469
0.0187359
0.0183299
0.0179493
0.0175752
0.0172255
0.016883
0.0165634
0.0162519
0.0159613
0.0156789
0.0154171
0.0151628
0.0149284
0.0147012
0.0144932
0.0142916
0.014108
0.0139306
0.0137696
0.0136146
0.0134744
0.01334
0.0132191
0.0131021
0.0129985
0.0128995
0.0128127
0.0127293
0.012657
0.0125869
0.0125263
0.0124669
0.012415
0.0123633
0.0123171
0.0122697
0.0122253
0.0121778
0.0121287
0.0120726
0.0120109
0.0119382
0.0118552
0.0117567
0.0116433
0.01151
0.0113585
0.0111859
0.0109976
0.010796
0.0105929
0.010399
0.010254
0.0101889
0.0101786
0.0104086
0.0107519
0.0109176
0.0232085
0.0227003
0.0224893
0.0220898
0.0218628
0.0214739
0.0212308
0.0208473
0.0205894
0.0202087
0.0199375
0.0195581
0.0192751
0.0188965
0.0186043
0.0182282
0.0179317
0.0175609
0.0172615
0.016896
0.016597
0.0162403
0.0159453
0.015603
0.0153237
0.0150022
0.0147406
0.014444
0.0142031
0.0139339
0.013716
0.0134761
0.0132828
0.013073
0.0129049
0.0127255
0.0125832
0.0124334
0.0123166
0.0121948
0.0121027
0.0120074
0.0119392
0.0118692
0.0118237
0.0117783
0.011755
0.0117383
0.0117327
0.0117325
0.0117536
0.0117754
0.0118164
0.0118589
0.0119195
0.0119825
0.0120626
0.0121467
0.0122474
0.012353
0.0124746
0.0126019
0.0127444
0.0128936
0.0130577
0.0132295
0.0134157
0.0136101
0.013819
0.0140368
0.0142695
0.014512
0.0147695
0.0150377
0.015321
0.0156158
0.0159255
0.0162472
0.0165832
0.0169308
0.0172913
0.0176616
0.0180421
0.0184291
0.0188211
0.019213
0.0196023
0.0199818
0.020347
0.0206901
0.0210072
0.0212931
0.021549
0.0217789
0.0219966
0.0222481
0.0226604
0.0232408
0.024017
0.024841
0.015308
0.0148874
0.0147184
0.014398
0.0142333
0.0139284
0.013768
0.0134785
0.0133232
0.0130489
0.0128992
0.0126401
0.0124969
0.0122537
0.0121185
0.0118919
0.0117658
0.0115565
0.0114408
0.0112499
0.0111463
0.0109755
0.0108857
0.0107364
0.0106617
0.0105368
0.0104751
0.0103758
0.0103272
0.0102536
0.0102182
0.0101702
0.0101479
0.0101261
0.0101176
0.0101147
0.0101241
0.01014
0.0101694
0.0102015
0.0102497
0.0102984
0.0103639
0.0104305
0.0105121
0.0105968
0.0106949
0.0107974
0.0109123
0.0110326
0.0111655
0.0113032
0.0114541
0.0116097
0.0117791
0.0119537
0.0121424
0.012337
0.0125459
0.0127615
0.0129917
0.0132298
0.0134832
0.0137457
0.0140242
0.0143133
0.0146192
0.0149375
0.0152736
0.0156239
0.0159938
0.01638
0.0167877
0.0172144
0.0176649
0.0181375
0.0186366
0.0191617
0.0197169
0.0203026
0.0209229
0.0215792
0.022276
0.0230156
0.0238035
0.0246439
0.025543
0.0265069
0.0275439
0.0286622
0.0298729
0.0311882
0.0326231
0.0341948
0.0359217
0.0378162
0.039856
0.0420266
0.0435382
0.0441538
0.0181874
0.0178048
0.0176483
0.0173485
0.017187
0.0168957
0.0167291
0.0164454
0.0162747
0.0159981
0.0158245
0.0155548
0.0153792
0.0151165
0.0149404
0.0146847
0.0145093
0.0142618
0.014091
0.0138548
0.0136908
0.0134676
0.0133131
0.0131056
0.0129627
0.0127728
0.0126433
0.0124728
0.0123581
0.012208
0.0121094
0.0119809
0.0118993
0.0117929
0.0117289
0.0116449
0.0115993
0.0115391
0.0115096
0.0114751
0.0114593
0.0114516
0.01145
0.0114636
0.0114832
0.0115166
0.0115569
0.0116093
0.0116708
0.0117424
0.0118251
0.0119159
0.0120198
0.0121304
0.0122553
0.0123868
0.0125328
0.0126859
0.0128533
0.0130283
0.0132177
0.0134153
0.0136276
0.0138494
0.0140862
0.0143337
0.0145968
0.0148716
0.015163
0.0154671
0.0157891
0.0161253
0.0164811
0.0168528
0.017246
0.0176576
0.0180928
0.0185496
0.0190326
0.0195409
0.020079
0.020647
0.0212494
0.0218873
0.0225652
0.0232852
0.0240519
0.0248687
0.0257412
0.026679
0.027687
0.0287765
0.0299576
0.0312479
0.032668
0.0342485
0.0360266
0.0379758
0.0395666
0.0402699
0.0291945
0.028845
0.0286965
0.0284129
0.0282415
0.027956
0.0277593
0.0274655
0.0272441
0.0269394
0.026695
0.0263788
0.0261089
0.025775
0.025481
0.0251285
0.0248103
0.0244381
0.0241001
0.0237135
0.02336
0.0229623
0.0225977
0.0221944
0.021823
0.0214181
0.0210455
0.0206441
0.0202751
0.0198816
0.0195211
0.0191401
0.0187923
0.0184278
0.0180965
0.0177518
0.0174394
0.0171167
0.0168251
0.0165263
0.0162572
0.0159841
0.0157385
0.0154918
0.0152707
0.015052
0.014857
0.0146667
0.0144987
0.0143372
0.0141966
0.0140632
0.01395
0.0138441
0.0137579
0.0136795
0.0136198
0.0135677
0.0135331
0.0135082
0.0134969
0.0134933
0.0135019
0.013523
0.0135548
0.0135966
0.0136499
0.0137114
0.0137848
0.0138646
0.0139551
0.0140495
0.0141539
0.0142604
0.0143756
0.0144914
0.0146138
0.0147356
0.0148614
0.0149855
0.0151112
0.0152338
0.0153558
0.0154735
0.0155887
0.0156994
0.0158059
0.015908
0.0160062
0.016096
0.0161809
0.0162613
0.0163491
0.0164499
0.0165916
0.0168063
0.0171561
0.0177091
0.0184651
0.0195246
0.042425
0.0422719
0.0422069
0.0420853
0.0420012
0.0418673
0.0417562
0.0415991
0.0414572
0.0412716
0.0410969
0.0408796
0.0406709
0.0404187
0.0401722
0.0398815
0.039592
0.0392586
0.0389259
0.0385512
0.0381753
0.0377591
0.0373406
0.0368846
0.0364252
0.0359305
0.0354333
0.0349035
0.0343716
0.0338107
0.0332493
0.0326625
0.0320768
0.0314699
0.0308659
0.0302455
0.0296299
0.0290027
0.0283805
0.0277466
0.0271204
0.0264873
0.0258646
0.025239
0.0246265
0.024015
0.0234189
0.0228276
0.022254
0.0216886
0.0211421
0.0206051
0.0200879
0.0195816
0.0190954
0.0186203
0.0181646
0.0177222
0.0173
0.0168911
0.0165016
0.0161245
0.0157655
0.0154176
0.0150854
0.0147631
0.0144546
0.0141542
0.013865
0.0135805
0.01331
0.0130442
0.0127902
0.0125395
0.0122991
0.0120606
0.0118311
0.0116023
0.011381
0.0111599
0.0109453
0.0107309
0.0105232
0.0103163
0.0101169
0.00991999
0.00973069
0.00954495
0.00936727
0.0091977
0.00904056
0.00889542
0.00876565
0.0086651
0.0086164
0.00860292
0.00872972
0.00898942
0.0094021
0.00958383
0.0539523
0.0540957
0.0541594
0.0542916
0.05437
0.0544837
0.0545567
0.0546415
0.0546976
0.0547489
0.0547778
0.0547909
0.054795
0.0547779
0.0547459
0.0546887
0.0546175
0.0545134
0.0543971
0.0542444
0.0540787
0.0538741
0.0536546
0.0533951
0.0531186
0.0528006
0.0524642
0.0520872
0.051689
0.0512487
0.0507874
0.050285
0.0497595
0.0491957
0.0486065
0.0479826
0.047332
0.0466494
0.045941
0.0452022
0.0444392
0.043647
0.0428327
0.0419911
0.0411298
0.0402441
0.0393415
0.0384187
0.0374823
0.0365306
0.0355707
0.034602
0.0336308
0.0326561
0.031685
0.0307157
0.0297563
0.0288038
0.0278664
0.0269413
0.026036
0.025148
0.024278
0.0234265
0.0225968
0.0217892
0.0210059
0.0202467
0.0195139
0.0188073
0.0181236
0.0174635
0.0168257
0.0162092
0.0156135
0.0150364
0.014478
0.013935
0.013408
0.0128931
0.0123912
0.0118985
0.0114158
0.0109394
0.0104704
0.010025
0.00958855
0.00917941
0.00878358
0.00841502
0.00806197
0.00773829
0.00743543
0.00716649
0.00692004
0.00675687
0.00668425
0.00668172
0.00701251
0.00720351
0.0604453
0.060865
0.0610512
0.0614195
0.0616601
0.0620087
0.0622746
0.0626003
0.0628751
0.0631786
0.0634527
0.0637349
0.0640019
0.0642625
0.064515
0.0647531
0.0649846
0.0651946
0.0653987
0.0655777
0.0657499
0.0658942
0.0660294
0.0661345
0.0662279
0.0662886
0.0663254
0.0663389
0.0663394
0.0662934
0.0662288
0.0661266
0.0659949
0.065828
0.0656243
0.0653846
0.0651037
0.0647833
0.0644215
0.0640212
0.063578
0.063091
0.0625604
0.0619821
0.0613553
0.0606808
0.0599555
0.059181
0.0583557
0.0574804
0.056556
0.0555822
0.0545628
0.0534954
0.0523874
0.0512346
0.0500462
0.0488179
0.0475595
0.046268
0.0449517
0.0436111
0.042255
0.0408856
0.0395072
0.0381249
0.0367408
0.0353613
0.0339873
0.0326249
0.031275
0.0299431
0.0286302
0.0273407
0.0260762
0.0248394
0.0236325
0.0224569
0.0213071
0.0201891
0.0191012
0.0180465
0.0170257
0.0160394
0.0150893
0.0141731
0.0132922
0.0124412
0.0116213
0.0108301
0.01007
0.00933913
0.00864122
0.00798664
0.00736926
0.0068196
0.00639601
0.00620433
0.00616437
0.00635
0.0617589
0.0623094
0.0625552
0.06303
0.0633488
0.0638036
0.0641641
0.0646026
0.0649877
0.0654145
0.0658142
0.0662322
0.0666393
0.0670504
0.0674601
0.0678654
0.0682734
0.068671
0.0690721
0.06946
0.0698512
0.0702276
0.0706058
0.0709678
0.0713297
0.0716739
0.0720158
0.0723413
0.072663
0.0729644
0.07326
0.0735356
0.0738
0.0740453
0.074274
0.074483
0.0746709
0.0748359
0.0749772
0.0750928
0.0751814
0.0752322
0.0752538
0.0752566
0.0752024
0.0751178
0.0749825
0.0748039
0.0745727
0.0742883
0.0739474
0.0735443
0.0730809
0.0725476
0.0719505
0.0712802
0.0705426
0.0697273
0.0688419
0.06788
0.0668433
0.0657342
0.0645507
0.0633016
0.0619792
0.0605955
0.0591448
0.0576365
0.0560696
0.0544498
0.0527802
0.0510637
0.0493059
0.0475077
0.0456756
0.0438093
0.0419162
0.0399953
0.0380636
0.0361141
0.0341598
0.0321976
0.0302388
0.0282832
0.0263417
0.0244163
0.0225203
0.0206555
0.0188391
0.0170603
0.0153425
0.0136874
0.0121211
0.0106535
0.0093183
0.00810401
0.00708661
0.00635088
0.00602472
0.00599575
0.0592116
0.0597568
0.0600053
0.060468
0.0607922
0.0612372
0.0616051
0.0620402
0.0624364
0.0628677
0.0632834
0.0637146
0.0641436
0.0645768
0.0650158
0.0654531
0.0659001
0.0663416
0.0667935
0.067238
0.0676925
0.0681388
0.0685936
0.0690394
0.0694912
0.0699317
0.0703732
0.0707989
0.0712327
0.0716559
0.0720832
0.0725026
0.0729224
0.0733361
0.0737481
0.0741549
0.0745597
0.0749606
0.0753569
0.0757442
0.0761248
0.0764945
0.0768565
0.0772059
0.0775403
0.0778618
0.0781643
0.078449
0.0787115
0.0789502
0.0791631
0.0793458
0.0794984
0.0796132
0.079684
0.0797146
0.0797209
0.0796697
0.0795644
0.0794108
0.0791861
0.0789066
0.0785428
0.0781115
0.0775844
0.0769719
0.0762626
0.0754526
0.0745424
0.0735191
0.0723882
0.0711383
0.069776
0.0682952
0.0667013
0.0649938
0.063177
0.0612535
0.0592273
0.0571013
0.0548793
0.0525629
0.0501543
0.0476529
0.0450599
0.0423725
0.039594
0.0367195
0.0337589
0.0307249
0.0276371
0.0245057
0.0213735
0.0182812
0.015354
0.0125708
0.0101672
0.00809688
0.00662683
0.0059209
0.0541054
0.0545628
0.0547728
0.0551548
0.055419
0.0557896
0.0560884
0.0564532
0.0567773
0.0571409
0.0574844
0.0578496
0.0582076
0.058576
0.0589457
0.0593192
0.059699
0.0600788
0.060467
0.0608527
0.0612472
0.0616381
0.0620378
0.0624334
0.0628371
0.0632364
0.0636427
0.0640458
0.0644583
0.0648687
0.0652872
0.0657054
0.0661299
0.0665552
0.0669858
0.0674171
0.0678521
0.0682859
0.0687231
0.0691615
0.0696033
0.0700459
0.0704913
0.0709365
0.0713831
0.0718292
0.0722744
0.0727171
0.0731576
0.0735942
0.0740246
0.0744438
0.0748511
0.0752369
0.0755981
0.0759234
0.0762027
0.0764747
0.0767104
0.0769266
0.0771025
0.0772544
0.0773631
0.0774472
0.0774905
0.0775095
0.0775041
0.0774118
0.0772885
0.0770879
0.0768308
0.0764994
0.0760869
0.0755873
0.0749854
0.074272
0.0734302
0.0724433
0.0712959
0.0699673
0.0684445
0.0667088
0.0647521
0.062562
0.0601349
0.0574662
0.0545601
0.0514172
0.048032
0.0444231
0.0405537
0.0364059
0.0319796
0.0272999
0.0225566
0.0182349
0.0144551
0.0116429
0.00944393
0.00727524
0.0478249
0.0481262
0.0482647
0.0485196
0.0486802
0.0489348
0.0491164
0.049368
0.0495691
0.0498189
0.050037
0.0502865
0.0505181
0.0507685
0.0510107
0.0512633
0.0515145
0.0517709
0.05203
0.0522906
0.052556
0.0528209
0.0530917
0.0533613
0.0536374
0.0539123
0.0541939
0.0544755
0.0547644
0.0550538
0.05535
0.0556476
0.0559511
0.0562563
0.056567
0.0568795
0.0571971
0.0575172
0.057843
0.0581719
0.0585064
0.0588447
0.0591888
0.0595373
0.0598919
0.0602517
0.0606182
0.0609908
0.0613666
0.0617445
0.0621229
0.0624994
0.0628735
0.0632415
0.0636038
0.0639575
0.0643065
0.0646596
0.065005
0.0653499
0.0656813
0.0660018
0.0662928
0.0665476
0.066768
0.0669645
0.0671428
0.0672856
0.0674136
0.0674984
0.0675406
0.0675541
0.0675155
0.0674018
0.0672251
0.0669518
0.066586
0.0660963
0.0654788
0.0647073
0.0637719
0.0626518
0.0613345
0.0598052
0.0580502
0.0560636
0.0538176
0.0512965
0.0484533
0.0451498
0.0413411
0.0369219
0.0321407
0.0272442
0.022408
0.0180522
0.0145677
0.0122393
0.0107477
0.00922301
0.0295329
0.0295649
0.029567
0.0295581
0.0295397
0.0295295
0.0295058
0.0294947
0.02947
0.0294583
0.0294341
0.0294222
0.0293984
0.0293853
0.0293626
0.0293475
0.0293259
0.0293094
0.029289
0.0292714
0.0292519
0.0292335
0.0292145
0.0291954
0.0291765
0.0291568
0.0291377
0.0291174
0.0290978
0.0290765
0.0290558
0.0290333
0.0290109
0.0289866
0.0289622
0.0289357
0.028909
0.0288802
0.0288509
0.0288195
0.0287873
0.028753
0.0287176
0.0286799
0.0286408
0.028599
0.028555
0.0285075
0.0284561
0.0284002
0.0283393
0.0282725
0.0281999
0.0281207
0.0280355
0.0279437
0.0278462
0.0277418
0.0276274
0.0275028
0.0273633
0.0272072
0.0270287
0.0268239
0.0266005
0.0263637
0.0261156
0.02585
0.0255753
0.02528
0.0249704
0.0246453
0.0242956
0.0239212
0.0235262
0.0230958
0.0226409
0.0221477
0.0216217
0.021057
0.0204534
0.0198105
0.0191261
0.0184015
0.017633
0.0168184
0.0159404
0.014976
0.013852
0.0125297
0.0109433
0.00900543
0.0068253
0.00476831
0.00300148
0.00231017
0.00259663
0.00526828
0.00861781
0.00984428
0.0094552
0.00466477
0.00402498
0.00389506
0.00386498
0.00388531
0.00381818
0.00377469
0.00375776
0.00375325
0.00376629
0.00381708
0.00407461
0.00462846
0.00539738
0.0065068
0.00691144
0.00691369
0.00582082
0.00342128
0.00776054
0.00467091
0.00428121
0.00417932
0.00415376
0.00404636
0.00396198
0.00392163
0.00390625
0.00390438
0.00393508
0.00410919
0.00449891
0.00506463
0.00611134
0.00683338
0.00699283
0.00678261
0.00525713
0.00279679
0.00619767
0.00477374
0.00459286
0.00452983
0.00436765
0.00426747
0.00418752
0.00415484
0.00414323
0.00414286
0.00425061
0.0045087
0.00496511
0.00585106
0.00673752
0.00703628
0.00704418
0.00651644
0.00463812
0.00215466
0.00578077
0.00510636
0.00502783
0.00479276
0.00463449
0.00451128
0.00444276
0.00441324
0.00440639
0.00448657
0.00469434
0.00510249
0.00590508
0.00678361
0.00715599
0.00722968
0.00699384
0.00608594
0.00385565
0.00153601
0.00590947
0.00547941
0.00534149
0.00504672
0.00492844
0.00484294
0.00481873
0.00483917
0.00494454
0.00519178
0.00556652
0.00633561
0.00708337
0.00743083
0.00753341
0.00740839
0.00681155
0.00547312
0.00302416
0.000987445
0.00628083
0.00592774
0.00579148
0.00559317
0.00555206
0.00554617
0.00565755
0.0058584
0.00623767
0.00668387
0.00734509
0.0078783
0.00812834
0.00818771
0.00795971
0.00735001
0.00643191
0.00469266
0.00192502
0.00052801
0.00719542
0.0070585
0.00703472
0.00703312
0.00729286
0.00758626
0.00810062
0.00874921
0.00942795
0.00966294
0.00974918
0.00970331
0.00935848
0.00883435
0.0080423
0.00711849
0.00571984
0.0035185
0.00114845
0.000240895
0.0107888
0.0111883
0.0116752
0.0122861
0.0132164
0.0141881
0.0146649
0.0148217
0.0138973
0.0132692
0.0122711
0.0114762
0.0102894
0.00920476
0.00786906
0.0064889
0.00447123
0.00229663
0.000671086
0.000104279
0.0250583
0.0255089
0.0257011
0.0256763
0.0250125
0.023626
0.0220071
0.019785
0.0180896
0.0161686
0.0144315
0.0126285
0.010746
0.00897091
0.00711233
0.00507006
0.00308163
0.00151339
0.000490623
6.20842e-05
0.0409008
0.0391322
0.0371719
0.0344011
0.031887
0.0283242
0.0257614
0.0226077
0.0202826
0.0174108
0.0152127
0.0124727
0.010208
0.00744168
0.00532961
0.00340283
0.00213811
0.00112422
0.000458653
8.61276e-05
0.0378107
0.03627
0.0347225
0.0322491
0.0301254
0.0268331
0.0244811
0.0215863
0.0194725
0.0168231
0.014865
0.0122712
0.0103293
0.00757761
0.00558504
0.00340756
0.0021439
0.00104887
0.000388991
7.32531e-05
0.0199212
0.0208586
0.0213808
0.0216418
0.0217295
0.0210303
0.0198187
0.0180042
0.0166965
0.014947
0.0137421
0.0119545
0.0106138
0.00879321
0.00721941
0.00517022
0.00310284
0.00139961
0.000400996
5.64268e-05
0.00942737
0.00961688
0.0100228
0.0104846
0.0112712
0.0121841
0.0129756
0.0132881
0.0131234
0.0122034
0.0117613
0.0108334
0.0100185
0.00896387
0.00781155
0.00647643
0.0045103
0.00226876
0.00060832
6.73483e-05
0.00683883
0.00665311
0.00659606
0.00656755
0.00673314
0.00697165
0.0073929
0.00797941
0.00875969
0.00913607
0.00932133
0.00939297
0.00913571
0.00869535
0.00794104
0.00706836
0.00568432
0.00350833
0.00108108
0.000148229
0.00610013
0.00576509
0.00563405
0.00542979
0.0053775
0.00536175
0.00544069
0.00561069
0.00596598
0.00641219
0.00708919
0.00770416
0.00799948
0.00808169
0.00791917
0.00730677
0.00639065
0.00467045
0.00191206
0.000433525
0.00577992
0.00537953
0.00525093
0.00496736
0.00485093
0.00476463
0.0047373
0.0047472
0.00484442
0.00508158
0.00545574
0.00621163
0.00700563
0.00737349
0.0074803
0.00738346
0.00679335
0.00545471
0.00302055
0.000923752
0.00567445
0.00501417
0.00494434
0.0047417
0.0045868
0.0044719
0.00440308
0.00437259
0.00436348
0.00444361
0.00465686
0.00505164
0.00585385
0.00675975
0.00714362
0.00721727
0.0069875
0.0060788
0.00387073
0.00151602
0.00618196
0.00472642
0.00452468
0.00445706
0.0043235
0.00422246
0.00415172
0.00412279
0.00411368
0.00411861
0.00423163
0.00449037
0.00494309
0.00582862
0.00672881
0.00703308
0.00704116
0.00651536
0.00465054
0.00216758
0.00780375
0.00465288
0.00425365
0.00414168
0.00410697
0.00402236
0.0039376
0.00389793
0.00388453
0.00388391
0.00392552
0.0040989
0.00449236
0.00506518
0.00611327
0.00683826
0.00699974
0.00678786
0.00527092
0.0028296
0.00947149
0.00465317
0.00399675
0.00386712
0.00383441
0.0038429
0.00379809
0.00375302
0.00373842
0.00373529
0.00375376
0.00381483
0.00407063
0.00462596
0.0054032
0.00651074
0.00691582
0.00691978
0.00583565
0.00346161
0.00397116
0.00375019
0.00374679
0.0037468
0.00374652
0.00374628
0.00374612
0.00374604
0.003746
0.00374598
0.00374598
0.003746
0.00374604
0.00374612
0.00374628
0.00374652
0.0037468
0.00374679
0.00375019
0.00397116
0.00441488
0.00375346
0.00374141
0.00374096
0.00374056
0.00374012
0.00373987
0.00373975
0.00373969
0.00373966
0.00373966
0.00373969
0.00373975
0.00373987
0.00374012
0.00374056
0.00374096
0.00374141
0.00375346
0.00441488
0.00485944
0.00376059
0.00373287
0.00373264
0.00373284
0.00373273
0.00373256
0.00373242
0.00373235
0.00373231
0.00373231
0.00373235
0.00373242
0.00373256
0.00373273
0.00373284
0.00373264
0.00373287
0.00376059
0.00485945
0.0053018
0.00377206
0.0037243
0.00372396
0.00372492
0.00372524
0.00372525
0.00372519
0.00372514
0.00372512
0.00372512
0.00372514
0.00372519
0.00372525
0.00372524
0.00372492
0.00372396
0.0037243
0.00377206
0.0053018
0.00573917
0.00378544
0.00371551
0.00371483
0.00371665
0.00371758
0.00371789
0.00371795
0.00371795
0.00371795
0.00371795
0.00371795
0.00371795
0.00371789
0.00371758
0.00371665
0.00371483
0.00371551
0.00378544
0.00573917
0.00617057
0.00379767
0.00370577
0.0037051
0.003708
0.00370969
0.00371043
0.0037107
0.00371078
0.0037108
0.0037108
0.00371078
0.0037107
0.00371043
0.00370969
0.003708
0.0037051
0.00370577
0.00379767
0.00617057
0.00659192
0.00380847
0.00369498
0.00369474
0.00369894
0.00370155
0.00370284
0.0037034
0.00370361
0.00370368
0.00370368
0.00370361
0.0037034
0.00370284
0.00370155
0.00369893
0.00369474
0.00369498
0.00380847
0.00659192
0.00700087
0.0038167
0.00368271
0.00368362
0.00368941
0.00369311
0.00369508
0.00369602
0.00369642
0.00369656
0.00369656
0.00369642
0.00369602
0.00369508
0.00369311
0.00368941
0.00368362
0.00368271
0.0038167
0.00700087
0.0073933
0.00382334
0.00366915
0.00367174
0.00367942
0.00368438
0.00368714
0.00368854
0.00368919
0.00368943
0.00368943
0.00368919
0.00368854
0.00368714
0.00368437
0.00367942
0.00367174
0.00366915
0.00382334
0.0073933
0.00776765
0.00382735
0.00365405
0.00365903
0.00366893
0.00367532
0.00367898
0.00368095
0.0036819
0.00368228
0.00368228
0.0036819
0.00368095
0.00367898
0.00367532
0.00366893
0.00365903
0.00365405
0.00382736
0.00776765
0.00812027
0.00383021
0.00363764
0.00364552
0.00365794
0.00366592
0.00367061
0.00367321
0.00367453
0.00367507
0.00367507
0.00367453
0.00367321
0.00367061
0.00366592
0.00365794
0.00364552
0.00363764
0.00383021
0.00812027
0.00845038
0.00383068
0.00361988
0.00363121
0.00364645
0.0036562
0.00366201
0.00366531
0.00366705
0.00366778
0.00366778
0.00366705
0.00366531
0.00366201
0.0036562
0.00364645
0.00363121
0.00361988
0.00383068
0.00845037
0.00875523
0.00383018
0.0036009
0.00361613
0.00363446
0.00364613
0.00365316
0.00365725
0.00365946
0.00366041
0.00366041
0.00365946
0.00365725
0.00365316
0.00364613
0.00363446
0.00361613
0.0036009
0.00383018
0.00875523
0.00903543
0.00382886
0.00358085
0.00360032
0.00362199
0.00363573
0.00364408
0.00364901
0.00365173
0.00365292
0.00365292
0.00365173
0.00364901
0.00364408
0.00363573
0.00362199
0.00360032
0.00358085
0.00382886
0.00903542
0.00928895
0.00382648
0.00355982
0.0035838
0.00360904
0.003625
0.00363475
0.00364059
0.00364385
0.00364531
0.00364531
0.00364385
0.00364059
0.00363475
0.003625
0.00360904
0.0035838
0.00355982
0.00382649
0.00928894
0.0095174
0.00382339
0.00353793
0.00356664
0.00359565
0.00361394
0.00362518
0.00363197
0.00363582
0.00363755
0.00363755
0.00363582
0.00363197
0.00362518
0.00361394
0.00359565
0.00356664
0.00353793
0.0038234
0.00951739
0.00971929
0.0038201
0.00351531
0.00354885
0.00358181
0.00360255
0.00361535
0.00362316
0.00362762
0.00362964
0.00362964
0.00362762
0.00362315
0.00361535
0.00360255
0.00358181
0.00354885
0.00351531
0.0038201
0.00971928
0.00989731
0.00381662
0.00349215
0.00353054
0.00356757
0.00359087
0.00360529
0.00361414
0.00361924
0.00362157
0.00362157
0.00361924
0.00361414
0.00360529
0.00359087
0.00356757
0.00353054
0.00349215
0.00381662
0.00989729
0.0100502
0.00381348
0.0034685
0.0035117
0.00355293
0.00357888
0.00359499
0.00360492
0.00361068
0.00361332
0.00361332
0.00361068
0.00360492
0.00359499
0.00357887
0.00355293
0.0035117
0.0034685
0.00381348
0.0100502
0.0101815
0.00381057
0.00344462
0.00349247
0.00353795
0.0035666
0.00358445
0.0035955
0.00360193
0.0036049
0.0036049
0.00360193
0.0035955
0.00358445
0.0035666
0.00353795
0.00349248
0.00344463
0.00381058
0.0101815
0.0102898
0.00380853
0.00342047
0.0034728
0.0035226
0.00355404
0.00357367
0.00358587
0.003593
0.0035963
0.0035963
0.003593
0.00358587
0.00357367
0.00355404
0.0035226
0.00347279
0.00342046
0.00380853
0.0102897
0.0103795
0.00380713
0.00339642
0.00345287
0.00350697
0.00354123
0.00356267
0.00357603
0.00358387
0.00358751
0.00358751
0.00358387
0.00357603
0.00356267
0.00354123
0.00350697
0.00345287
0.00339643
0.00380714
0.0103794
0.0104486
0.00380736
0.0033723
0.00343259
0.00349103
0.00352816
0.00355145
0.003566
0.00357455
0.00357853
0.00357853
0.00357455
0.003566
0.00355145
0.00352816
0.00349103
0.00343259
0.0033723
0.00380736