/*--------------------------------*- C++ -*----------------------------------*\
| =========                 |                                                 |
| \\      /  F ield         | OpenFOAM: The Open Source CFD Toolbox           |
|  \\    /   O peration     | Version:  2.1.0                                 |
|   \\  /    A nd           | Web:      www.OpenFOAM.org                      |
|    \\/     M anipulation  |                                                 |
\*---------------------------------------------------------------------------*/
FoamFile
{
    version     2.0;
    format      ascii;
    class       volScalarField;
    location    "0.28";
    object      nut;
}
// * * * * * * * * * * * * * * * * * * * * * * * * * * * * * * * * * * * * * //

dimensions      [0 2 -1 0 0 0 0];

internalField   nonuniform List<scalar> 
6400
(
6.86768e-06
6.88941e-06
6.90231e-06
6.91879e-06
6.93569e-06
6.95411e-06
6.97222e-06
6.99168e-06
7.01101e-06
7.03142e-06
7.05192e-06
7.07352e-06
7.09532e-06
7.11829e-06
7.14169e-06
7.16624e-06
7.19144e-06
7.21761e-06
7.2446e-06
7.27238e-06
7.30113e-06
7.33057e-06
7.36108e-06
7.39224e-06
7.42452e-06
7.4574e-06
7.49141e-06
7.52594e-06
7.56158e-06
7.59768e-06
7.63482e-06
7.67237e-06
7.7109e-06
7.74957e-06
7.78865e-06
7.82861e-06
7.86926e-06
7.9097e-06
7.95036e-06
7.99118e-06
8.03173e-06
8.07215e-06
8.11219e-06
8.15167e-06
8.19052e-06
8.22855e-06
8.26579e-06
8.30197e-06
8.33702e-06
8.37032e-06
8.4019e-06
8.43143e-06
8.45902e-06
8.48622e-06
8.51312e-06
8.53881e-06
8.56386e-06
8.58823e-06
8.61163e-06
8.63445e-06
8.65747e-06
8.67952e-06
8.70143e-06
8.72309e-06
8.74419e-06
8.76498e-06
8.78507e-06
8.80291e-06
8.8209e-06
8.83577e-06
8.85013e-06
8.86211e-06
8.87202e-06
8.88083e-06
8.88755e-06
8.89398e-06
8.90032e-06
8.90819e-06
8.91935e-06
8.93575e-06
8.9597e-06
8.99265e-06
9.03264e-06
9.06777e-06
9.11912e-06
9.18043e-06
9.24791e-06
9.31523e-06
9.3565e-06
9.33608e-06
9.171e-06
8.70951e-06
7.70797e-06
5.96009e-06
3.56948e-06
2.27234e-06
2.38508e-06
3.76667e-06
3.86687e-06
4.17624e-06
7.31685e-05
7.36452e-05
7.37593e-05
7.40754e-05
7.42065e-05
7.44783e-05
7.46338e-05
7.48775e-05
7.50534e-05
7.52788e-05
7.54694e-05
7.56837e-05
7.58846e-05
7.60933e-05
7.63016e-05
7.65078e-05
7.672e-05
7.69242e-05
7.71382e-05
7.73415e-05
7.75546e-05
7.77564e-05
7.7966e-05
7.81642e-05
7.83673e-05
7.85587e-05
7.87527e-05
7.89342e-05
7.91151e-05
7.92828e-05
7.94467e-05
7.9596e-05
7.97386e-05
7.98652e-05
7.9982e-05
8.00831e-05
8.01733e-05
8.02476e-05
8.03098e-05
8.03523e-05
8.03771e-05
8.03796e-05
8.03607e-05
8.03157e-05
8.0244e-05
8.01436e-05
8.00119e-05
7.98469e-05
7.96473e-05
7.94121e-05
7.91461e-05
7.87988e-05
7.82111e-05
7.75933e-05
7.69403e-05
7.6249e-05
7.55249e-05
7.47638e-05
7.39622e-05
7.31181e-05
7.2241e-05
7.13291e-05
7.03789e-05
6.93958e-05
6.8367e-05
6.73048e-05
6.62133e-05
6.50568e-05
6.38668e-05
6.26138e-05
6.13137e-05
5.99506e-05
5.85278e-05
5.70413e-05
5.5487e-05
5.38681e-05
5.21803e-05
5.04288e-05
4.8614e-05
4.67416e-05
4.48185e-05
4.28536e-05
4.08566e-05
3.8821e-05
3.67035e-05
3.45194e-05
3.22347e-05
2.9854e-05
2.73516e-05
2.47421e-05
2.20347e-05
1.9276e-05
1.65245e-05
1.3911e-05
1.14353e-05
9.19276e-06
7.46917e-06
6.27325e-06
5.65828e-06
6.87067e-06
0.000111762
0.000112044
0.000112162
0.000112302
0.000112422
0.000112525
0.000112645
0.000112724
0.000112841
0.000112902
0.000113009
0.000113057
0.000113151
0.000113186
0.000113263
0.000113284
0.000113339
0.000113343
0.000113375
0.000113367
0.000113378
0.000113352
0.000113338
0.000113289
0.000113243
0.000113161
0.000113077
0.00011296
0.000112834
0.000112675
0.000112503
0.000112296
0.000112071
0.000111811
0.000111529
0.000111207
0.000110855
0.000110464
0.000110043
0.000109582
0.000109087
0.000108548
0.000107973
0.000107351
0.000106683
0.000105968
0.000105197
0.000104368
0.000103394
0.000102013
0.000100595
9.91374e-05
9.76477e-05
9.61202e-05
9.45632e-05
9.29671e-05
9.1345e-05
8.96913e-05
8.80226e-05
8.63368e-05
8.45973e-05
8.28461e-05
8.10502e-05
7.9236e-05
7.73866e-05
7.55144e-05
7.36142e-05
7.16869e-05
6.97389e-05
6.77589e-05
6.57578e-05
6.37245e-05
6.16638e-05
5.95718e-05
5.74475e-05
5.52921e-05
5.31031e-05
5.08842e-05
4.86345e-05
4.63591e-05
4.40603e-05
4.17441e-05
3.94157e-05
3.70829e-05
3.47718e-05
3.24854e-05
3.02439e-05
2.80512e-05
2.59196e-05
2.38476e-05
2.18182e-05
1.98407e-05
1.79018e-05
1.59036e-05
1.38873e-05
1.18874e-05
1.01024e-05
8.58882e-06
8.10346e-06
1.13168e-05
0.000132495
0.000132262
0.000132183
0.000131968
0.000131911
0.000131675
0.000131608
0.00013136
0.000131268
0.000131011
0.000130886
0.000130617
0.000130457
0.000130172
0.000129971
0.000129662
0.000129412
0.000129065
0.000128456
0.000127761
0.000127059
0.000126326
0.000125585
0.000124811
0.000124026
0.00012321
0.000122371
0.000121493
0.000120592
0.000119647
0.000118675
0.000117656
0.000116608
0.000115513
0.000114385
0.000113212
0.000112005
0.000110757
0.000109468
0.000108141
0.000106782
0.000105376
0.000103946
0.000102474
0.000100971
9.94405e-05
9.7876e-05
9.62772e-05
9.46573e-05
9.30397e-05
9.13812e-05
8.9707e-05
8.80173e-05
8.62999e-05
8.45715e-05
8.28106e-05
8.10372e-05
7.92358e-05
7.74126e-05
7.55676e-05
7.36999e-05
7.18173e-05
6.99124e-05
6.79929e-05
6.60572e-05
6.41079e-05
6.21488e-05
6.01821e-05
5.82128e-05
5.62431e-05
5.42806e-05
5.23267e-05
5.03901e-05
4.84727e-05
4.65814e-05
4.47195e-05
4.28908e-05
4.10991e-05
3.93447e-05
3.76296e-05
3.59517e-05
3.43093e-05
3.26917e-05
3.11019e-05
2.95476e-05
2.79863e-05
2.64461e-05
2.4897e-05
2.33508e-05
2.17841e-05
2.02071e-05
1.86018e-05
1.6972e-05
1.52876e-05
1.35669e-05
1.18969e-05
1.04569e-05
9.74367e-06
1.18974e-05
1.20404e-05
0.000131346
0.000131504
0.000131177
0.000131045
0.000130321
0.000129806
0.000128993
0.00012832
0.000127491
0.000126737
0.000125903
0.000125096
0.00012425
0.000123401
0.000122537
0.000121654
0.00012077
0.000119852
0.000118945
0.000117996
0.000117043
0.000116053
0.000115056
0.000114017
0.000112957
0.000111863
0.000110745
0.000109588
0.000108408
0.000107185
0.000105941
0.000104653
0.000103344
0.000101993
0.000100622
9.92074e-05
9.77696e-05
9.63268e-05
9.48456e-05
9.33334e-05
9.18177e-05
9.02607e-05
8.87056e-05
8.71214e-05
8.55285e-05
8.39257e-05
8.23069e-05
8.0687e-05
7.9057e-05
7.74235e-05
7.57827e-05
7.41331e-05
7.24799e-05
7.08229e-05
6.91689e-05
6.75128e-05
6.58634e-05
6.42162e-05
6.25777e-05
6.09491e-05
5.93307e-05
5.77295e-05
5.61418e-05
5.45751e-05
5.30274e-05
5.15006e-05
4.99974e-05
4.85154e-05
4.70575e-05
4.56167e-05
4.42008e-05
4.28132e-05
4.14314e-05
4.00782e-05
3.87331e-05
3.74066e-05
3.60849e-05
3.47733e-05
3.34602e-05
3.21487e-05
3.08307e-05
2.95078e-05
2.81768e-05
2.68428e-05
2.55016e-05
2.41633e-05
2.28269e-05
2.14959e-05
2.01804e-05
1.8885e-05
1.76212e-05
1.6392e-05
1.52159e-05
1.40843e-05
1.3039e-05
1.22415e-05
1.20691e-05
1.37302e-05
1.37652e-05
1.40901e-05
0.000118022
0.000117557
0.000117126
0.000116671
0.00011586
0.000115118
0.000114204
0.000113344
0.000112404
0.000111489
0.000110541
0.000109592
0.000108636
0.000107662
0.000106696
0.000105706
0.000104734
0.000103728
0.00010274
0.000101708
0.000100671
9.96021e-05
9.85311e-05
9.74314e-05
9.62842e-05
9.51242e-05
9.39346e-05
9.27188e-05
9.14877e-05
9.02207e-05
8.89464e-05
8.76367e-05
8.63229e-05
8.4979e-05
8.36333e-05
8.22641e-05
8.08971e-05
7.95142e-05
7.81313e-05
7.67416e-05
7.53577e-05
7.39673e-05
7.25897e-05
7.12084e-05
6.98402e-05
6.84764e-05
6.71213e-05
6.57774e-05
6.44407e-05
6.31145e-05
6.18001e-05
6.04937e-05
5.92017e-05
5.79195e-05
5.66518e-05
5.5397e-05
5.41581e-05
5.29264e-05
5.17121e-05
5.05069e-05
4.93151e-05
4.81333e-05
4.69625e-05
4.58013e-05
4.46491e-05
4.35035e-05
4.23663e-05
4.12335e-05
4.01087e-05
3.89877e-05
3.7877e-05
3.67721e-05
3.56764e-05
3.45879e-05
3.35071e-05
3.24365e-05
3.13761e-05
3.03307e-05
2.92991e-05
2.82848e-05
2.72871e-05
2.63087e-05
2.53491e-05
2.44116e-05
2.34965e-05
2.26004e-05
2.17236e-05
2.08695e-05
2.00465e-05
1.92586e-05
1.85195e-05
1.78402e-05
1.72465e-05
1.67827e-05
1.65662e-05
1.66053e-05
1.60376e-05
1.57956e-05
1.57702e-05
1.31908e-05
0.000102505
0.000101541
0.000101085
0.000100404
9.96823e-05
9.88504e-05
9.80299e-05
9.71384e-05
9.62796e-05
9.53625e-05
9.44848e-05
9.35511e-05
9.26568e-05
9.17056e-05
9.07947e-05
8.98343e-05
8.89141e-05
8.79409e-05
8.69975e-05
8.60005e-05
8.50308e-05
8.40166e-05
8.30264e-05
8.19853e-05
8.09619e-05
7.99093e-05
7.88685e-05
7.78034e-05
7.67529e-05
7.56798e-05
7.46248e-05
7.35498e-05
7.24947e-05
7.1424e-05
7.03728e-05
6.93089e-05
6.82642e-05
6.72124e-05
6.6182e-05
6.51426e-05
6.41252e-05
6.31028e-05
6.20997e-05
6.10927e-05
6.0103e-05
5.9111e-05
5.81326e-05
5.71553e-05
5.6188e-05
5.52232e-05
5.42695e-05
5.3318e-05
5.238e-05
5.14376e-05
5.05072e-05
4.95771e-05
4.86601e-05
4.77464e-05
4.68458e-05
4.59531e-05
4.50754e-05
4.42092e-05
4.33608e-05
4.25265e-05
4.17085e-05
4.09112e-05
4.01334e-05
3.93761e-05
3.86408e-05
3.79273e-05
3.72345e-05
3.65621e-05
3.591e-05
3.52776e-05
3.46634e-05
3.40666e-05
3.34833e-05
3.28557e-05
3.19383e-05
3.10222e-05
3.0115e-05
2.92106e-05
2.83186e-05
2.74296e-05
2.65561e-05
2.56865e-05
2.48355e-05
2.39905e-05
2.31704e-05
2.23637e-05
2.1594e-05
2.08519e-05
2.0164e-05
1.95334e-05
1.89811e-05
1.85941e-05
1.83315e-05
1.82379e-05
1.89246e-05
1.4913e-05
9.03159e-05
8.89705e-05
8.86126e-05
8.78614e-05
8.73351e-05
8.65434e-05
8.59418e-05
8.51483e-05
8.45139e-05
8.37309e-05
8.30796e-05
8.23037e-05
8.16386e-05
8.086e-05
8.01808e-05
7.94076e-05
7.8729e-05
7.79489e-05
7.72481e-05
7.64467e-05
7.57179e-05
7.4894e-05
7.39652e-05
7.26725e-05
7.1482e-05
7.021e-05
6.90438e-05
6.78103e-05
6.66832e-05
6.55036e-05
6.44296e-05
6.3316e-05
6.23061e-05
6.1265e-05
6.03255e-05
5.93637e-05
5.84995e-05
5.76203e-05
5.68337e-05
5.6036e-05
5.53181e-05
5.45946e-05
5.39419e-05
5.32863e-05
5.26937e-05
5.20993e-05
5.1561e-05
5.10205e-05
5.0528e-05
5.00339e-05
4.95833e-05
4.91224e-05
4.87e-05
4.82656e-05
4.78648e-05
4.74478e-05
4.70596e-05
4.66504e-05
4.62637e-05
4.58539e-05
4.54603e-05
4.5041e-05
4.46226e-05
4.4194e-05
4.37789e-05
4.33208e-05
4.28913e-05
4.24282e-05
4.19895e-05
4.152e-05
4.10717e-05
4.05953e-05
4.01367e-05
3.96529e-05
3.91828e-05
3.86904e-05
3.82076e-05
3.77049e-05
3.72062e-05
3.6686e-05
3.61598e-05
3.56075e-05
3.50427e-05
3.44473e-05
3.38318e-05
3.31804e-05
3.25024e-05
3.17837e-05
3.10342e-05
3.0246e-05
2.94348e-05
2.86056e-05
2.77865e-05
2.7001e-05
2.63372e-05
2.58463e-05
2.54563e-05
2.55853e-05
2.60844e-05
2.0438e-05
7.51563e-05
7.34603e-05
7.27745e-05
7.14881e-05
7.08131e-05
6.95946e-05
6.89256e-05
6.77663e-05
6.71024e-05
6.59969e-05
6.53386e-05
6.42824e-05
6.36288e-05
6.26184e-05
6.19729e-05
6.10089e-05
6.03777e-05
5.94633e-05
5.88491e-05
5.79846e-05
5.7395e-05
5.65863e-05
5.60305e-05
5.52866e-05
5.479e-05
5.41214e-05
5.36857e-05
5.30965e-05
5.27206e-05
5.22108e-05
5.18918e-05
5.14583e-05
5.11931e-05
5.08339e-05
5.06179e-05
5.03263e-05
5.01561e-05
4.99228e-05
4.97913e-05
4.9605e-05
4.95057e-05
4.93555e-05
4.9281e-05
4.91609e-05
4.9103e-05
4.90043e-05
4.89507e-05
4.88968e-05
4.88534e-05
4.87682e-05
4.87457e-05
4.86725e-05
4.86576e-05
4.8596e-05
4.85866e-05
4.85369e-05
4.85325e-05
4.84982e-05
4.85033e-05
4.84857e-05
4.85012e-05
4.85001e-05
4.85258e-05
4.85411e-05
4.85771e-05
4.86094e-05
4.86604e-05
4.8708e-05
4.87733e-05
4.88363e-05
4.89161e-05
4.89939e-05
4.9087e-05
4.91788e-05
4.92834e-05
4.93868e-05
4.94994e-05
4.96096e-05
4.97252e-05
4.98353e-05
4.99446e-05
5.00425e-05
5.01314e-05
5.02003e-05
5.02485e-05
5.02629e-05
5.02414e-05
5.01696e-05
5.00435e-05
4.98504e-05
4.95895e-05
4.92539e-05
4.88519e-05
4.83935e-05
4.79073e-05
4.74718e-05
4.72831e-05
4.73534e-05
4.78221e-05
3.96299e-05
6.42338e-05
6.29108e-05
6.23858e-05
6.14064e-05
6.09298e-05
6.00054e-05
5.95718e-05
5.8702e-05
5.83072e-05
5.74907e-05
5.71309e-05
5.6367e-05
5.60395e-05
5.53287e-05
5.50331e-05
5.43765e-05
5.41124e-05
5.35106e-05
5.32784e-05
5.27327e-05
5.25333e-05
5.20454e-05
5.18799e-05
5.14515e-05
5.13192e-05
5.09594e-05
5.08448e-05
5.05553e-05
5.04541e-05
5.02323e-05
5.01413e-05
4.99759e-05
4.98968e-05
4.98001e-05
4.974e-05
4.96649e-05
4.96288e-05
4.95848e-05
4.9583e-05
4.95565e-05
4.95829e-05
4.95757e-05
4.96214e-05
4.96396e-05
4.96992e-05
4.97444e-05
4.98203e-05
4.98897e-05
4.99824e-05
5.0073e-05
5.01859e-05
5.02953e-05
5.04309e-05
5.05594e-05
5.07171e-05
5.0867e-05
5.10467e-05
5.12193e-05
5.14205e-05
5.16158e-05
5.18386e-05
5.20576e-05
5.23034e-05
5.25484e-05
5.28181e-05
5.30902e-05
5.3385e-05
5.36849e-05
5.40065e-05
5.43354e-05
5.46859e-05
5.50458e-05
5.54277e-05
5.58213e-05
5.62373e-05
5.66677e-05
5.7121e-05
5.75919e-05
5.8087e-05
5.86028e-05
5.91451e-05
5.97116e-05
6.03079e-05
6.09328e-05
6.15923e-05
6.22877e-05
6.30247e-05
6.38059e-05
6.46382e-05
6.55256e-05
6.64759e-05
6.7495e-05
6.85923e-05
6.97749e-05
7.10499e-05
7.24119e-05
7.38163e-05
7.52676e-05
7.59853e-05
6.60725e-05
6.91977e-05
6.7851e-05
6.73145e-05
6.62986e-05
6.57824e-05
6.48189e-05
6.43219e-05
6.34096e-05
6.29318e-05
6.20696e-05
6.16114e-05
6.07992e-05
6.03605e-05
5.95987e-05
5.91824e-05
5.84695e-05
5.80796e-05
5.74148e-05
5.70583e-05
5.64437e-05
5.61238e-05
5.55612e-05
5.52801e-05
5.47729e-05
5.45308e-05
5.40807e-05
5.38764e-05
5.34832e-05
5.33136e-05
5.29748e-05
5.28376e-05
5.25506e-05
5.24431e-05
5.22043e-05
5.21212e-05
5.19262e-05
5.18668e-05
5.17159e-05
5.16642e-05
5.1551e-05
5.14955e-05
5.14507e-05
5.13737e-05
5.13441e-05
5.12921e-05
5.12786e-05
5.12499e-05
5.12491e-05
5.12444e-05
5.12572e-05
5.1276e-05
5.1302e-05
5.1344e-05
5.13851e-05
5.14484e-05
5.15087e-05
5.15904e-05
5.16721e-05
5.17766e-05
5.18803e-05
5.20073e-05
5.21329e-05
5.22825e-05
5.24326e-05
5.26061e-05
5.27822e-05
5.29807e-05
5.31831e-05
5.3407e-05
5.36359e-05
5.38863e-05
5.41424e-05
5.44207e-05
5.47058e-05
5.50135e-05
5.53302e-05
5.56696e-05
5.60212e-05
5.63958e-05
5.67861e-05
5.72009e-05
5.76352e-05
5.80966e-05
5.85815e-05
5.90967e-05
5.96397e-05
6.02161e-05
6.0825e-05
6.1472e-05
6.21667e-05
6.291e-05
6.3711e-05
6.45758e-05
6.55182e-05
6.65542e-05
6.77092e-05
6.90278e-05
7.04804e-05
7.15852e-05
6.29167e-05
8.89535e-05
8.74581e-05
8.68423e-05
8.56825e-05
8.50191e-05
8.39078e-05
8.31961e-05
8.21201e-05
8.1365e-05
8.03163e-05
7.95235e-05
7.85041e-05
7.76705e-05
7.66646e-05
7.58085e-05
7.48021e-05
7.39456e-05
7.29333e-05
7.20809e-05
7.1076e-05
7.02328e-05
6.92448e-05
6.84175e-05
6.74586e-05
6.66538e-05
6.57322e-05
6.49593e-05
6.40828e-05
6.33473e-05
6.25225e-05
6.18342e-05
6.1065e-05
6.04281e-05
5.97186e-05
5.91361e-05
5.84882e-05
5.79592e-05
5.73718e-05
5.68944e-05
5.63655e-05
5.59347e-05
5.5461e-05
5.50704e-05
5.46479e-05
5.42903e-05
5.39082e-05
5.35791e-05
5.32311e-05
5.29257e-05
5.26041e-05
5.23171e-05
5.20131e-05
5.17392e-05
5.1442e-05
5.1167e-05
5.08899e-05
5.06335e-05
5.03535e-05
5.01047e-05
4.98429e-05
4.95987e-05
4.93372e-05
4.90888e-05
4.88446e-05
4.86089e-05
4.83713e-05
4.81464e-05
4.79155e-05
4.77006e-05
4.74785e-05
4.72699e-05
4.70483e-05
4.6839e-05
4.66128e-05
4.63947e-05
4.61574e-05
4.59233e-05
4.56687e-05
4.54117e-05
4.5133e-05
4.48472e-05
4.45419e-05
4.4227e-05
4.38924e-05
4.35469e-05
4.31839e-05
4.28095e-05
4.2421e-05
4.20245e-05
4.16079e-05
4.11836e-05
4.07491e-05
4.03298e-05
3.99312e-05
3.96002e-05
3.93795e-05
3.93711e-05
3.96884e-05
4.03764e-05
3.41717e-05
9.81546e-05
9.71559e-05
9.67494e-05
9.60965e-05
9.54997e-05
9.47488e-05
9.40567e-05
9.32626e-05
9.25269e-05
9.17162e-05
9.09596e-05
9.01427e-05
8.9377e-05
8.85574e-05
8.77809e-05
8.69417e-05
8.61343e-05
8.52736e-05
8.44501e-05
8.35785e-05
8.27396e-05
8.18559e-05
8.1002e-05
8.01083e-05
7.92406e-05
7.83366e-05
7.74582e-05
7.65412e-05
7.56588e-05
7.47455e-05
7.38551e-05
7.29418e-05
7.20511e-05
7.11414e-05
7.02531e-05
6.93506e-05
6.84684e-05
6.7577e-05
6.66984e-05
6.58007e-05
6.49143e-05
6.40154e-05
6.31266e-05
6.22306e-05
6.13465e-05
6.04592e-05
5.9586e-05
5.87148e-05
5.78627e-05
5.70171e-05
5.61945e-05
5.53807e-05
5.45941e-05
5.38194e-05
5.30738e-05
5.23411e-05
5.16096e-05
5.08271e-05
5.0066e-05
4.93019e-05
4.85554e-05
4.78016e-05
4.70603e-05
4.63062e-05
4.55569e-05
4.47917e-05
4.40278e-05
4.32463e-05
4.24637e-05
4.16543e-05
4.08537e-05
4.00468e-05
3.9248e-05
3.84274e-05
3.76264e-05
3.68069e-05
3.60078e-05
3.51939e-05
3.44009e-05
3.35976e-05
3.28163e-05
3.20216e-05
3.1251e-05
3.04742e-05
2.97244e-05
2.89753e-05
2.8254e-05
2.75387e-05
2.68517e-05
2.61829e-05
2.55516e-05
2.49481e-05
2.43865e-05
2.38994e-05
2.35406e-05
2.32469e-05
2.32679e-05
2.35427e-05
2.43138e-05
1.88712e-05
0.000112292
0.00011161
0.000111261
0.000110767
0.000110095
0.000109385
0.000108587
0.000107771
0.000106915
0.00010604
0.000105143
0.000104223
0.000103309
0.000102369
0.000101423
0.000100442
9.9456e-05
9.84307e-05
9.741e-05
9.63482e-05
9.52923e-05
9.41948e-05
9.31025e-05
9.19711e-05
9.08442e-05
8.96798e-05
8.85209e-05
8.73292e-05
8.6142e-05
8.49256e-05
8.37166e-05
8.24835e-05
8.12575e-05
8.0015e-05
7.87786e-05
7.75334e-05
7.62938e-05
7.50508e-05
7.38163e-05
7.25834e-05
7.13594e-05
7.01372e-05
6.89237e-05
6.77091e-05
6.65022e-05
6.52996e-05
6.41049e-05
6.29055e-05
6.17164e-05
6.0524e-05
5.93413e-05
5.8158e-05
5.69844e-05
5.58111e-05
5.46479e-05
5.34858e-05
5.23353e-05
5.11866e-05
5.00519e-05
4.89246e-05
4.78152e-05
4.67164e-05
4.56272e-05
4.45477e-05
4.34822e-05
4.24336e-05
4.14016e-05
4.03904e-05
3.94012e-05
3.84417e-05
3.75039e-05
3.65975e-05
3.57166e-05
3.48684e-05
3.40486e-05
3.32571e-05
3.24916e-05
3.1754e-05
3.10409e-05
3.03539e-05
2.96883e-05
2.90384e-05
2.84104e-05
2.77964e-05
2.68136e-05
2.58477e-05
2.48882e-05
2.39836e-05
2.31001e-05
2.2274e-05
2.1476e-05
2.07407e-05
2.00428e-05
1.94096e-05
1.8808e-05
1.83896e-05
1.81684e-05
1.79729e-05
1.87098e-05
1.44587e-05
0.000128224
0.00012796
0.000127696
0.000127426
0.000126721
0.000126105
0.000125264
0.000124493
0.000123602
0.000122748
0.000121831
0.000120922
0.000119984
0.000119032
0.000118062
0.000117062
0.000116048
0.000114997
0.000113939
0.000112842
0.00011174
0.000110598
0.000109449
0.000108261
0.000107068
0.000105836
0.000104583
0.000103314
0.000102045
0.000100723
9.93944e-05
9.80326e-05
9.66543e-05
9.52528e-05
9.3831e-05
9.23923e-05
9.09336e-05
8.94604e-05
8.79744e-05
8.64823e-05
8.49816e-05
8.34739e-05
8.19623e-05
8.04438e-05
7.89209e-05
7.73962e-05
7.58687e-05
7.43417e-05
7.28156e-05
7.12923e-05
6.97745e-05
6.8262e-05
6.67596e-05
6.52644e-05
6.37836e-05
6.23109e-05
6.08542e-05
5.9407e-05
5.7976e-05
5.65529e-05
5.51514e-05
5.37638e-05
5.23899e-05
5.10406e-05
4.9702e-05
4.83862e-05
4.70781e-05
4.5789e-05
4.45048e-05
4.32355e-05
4.19694e-05
4.07142e-05
3.94615e-05
3.82165e-05
3.69748e-05
3.57435e-05
3.45182e-05
3.33038e-05
3.20941e-05
3.0895e-05
2.97059e-05
2.85292e-05
2.73702e-05
2.62278e-05
2.5105e-05
2.39996e-05
2.29207e-05
2.18619e-05
2.08342e-05
1.98258e-05
1.88627e-05
1.79251e-05
1.7095e-05
1.63747e-05
1.59061e-05
1.60816e-05
1.60742e-05
1.5861e-05
1.58793e-05
1.3183e-05
0.000139978
0.000140323
0.000140162
0.00014018
0.000139581
0.00013918
0.000138464
0.000137886
0.000137139
0.000136468
0.000135704
0.00013497
0.000134188
0.000133404
0.000132593
0.000131758
0.000130905
0.000130018
0.000129118
0.00012818
0.00012723
0.000126238
0.000125233
0.000124185
0.000123122
0.000122016
0.00012089
0.000119731
0.000118556
0.000117335
0.000116098
0.000114822
0.000113526
0.000112197
0.000110842
0.00010946
0.000108049
0.000106611
0.000105147
0.000103658
0.000102145
0.000100596
9.90279e-05
9.74565e-05
9.58363e-05
9.42057e-05
9.25434e-05
9.0863e-05
8.91582e-05
8.74326e-05
8.56876e-05
8.39218e-05
8.21427e-05
8.03445e-05
7.85396e-05
7.6721e-05
7.49013e-05
7.30682e-05
7.12323e-05
6.93897e-05
6.75462e-05
6.57064e-05
6.38717e-05
6.20524e-05
6.02432e-05
5.84566e-05
5.66877e-05
5.49457e-05
5.32279e-05
5.1539e-05
4.98788e-05
4.82481e-05
4.66474e-05
4.50715e-05
4.35207e-05
4.2001e-05
4.05005e-05
3.90112e-05
3.75439e-05
3.60802e-05
3.46262e-05
3.31659e-05
3.17033e-05
3.02252e-05
2.87336e-05
2.72207e-05
2.56939e-05
2.41469e-05
2.2594e-05
2.10314e-05
1.94748e-05
1.79184e-05
1.63765e-05
1.49027e-05
1.3533e-05
1.24613e-05
1.20852e-05
1.36129e-05
1.38455e-05
1.43349e-05
0.000136465
0.000136318
0.000136269
0.000136108
0.000136074
0.00013589
0.000135846
0.00013565
0.000135585
0.000135378
0.000135284
0.000135064
0.000134936
0.000134697
0.000134532
0.000134271
0.000134065
0.000133777
0.000133528
0.000133208
0.000132912
0.000132553
0.000132206
0.000131801
0.000131397
0.000130936
0.000130464
0.000129701
0.000128818
0.000127887
0.000126939
0.000125951
0.000124941
0.000123896
0.000122824
0.000121721
0.00012059
0.00011943
0.00011824
0.000117014
0.000115756
0.000114461
0.000113135
0.000111773
0.000110372
0.000108939
0.000107466
0.000105958
0.000104411
0.000102828
0.000101207
9.95487e-05
9.78551e-05
9.61213e-05
9.43451e-05
9.25339e-05
9.07182e-05
8.8855e-05
8.69581e-05
8.50393e-05
8.30816e-05
8.11081e-05
7.90947e-05
7.70653e-05
7.49973e-05
7.29054e-05
7.0784e-05
6.8637e-05
6.64708e-05
6.42821e-05
6.20822e-05
5.98689e-05
5.76545e-05
5.54407e-05
5.32381e-05
5.10522e-05
4.88911e-05
4.67614e-05
4.46698e-05
4.26208e-05
4.06188e-05
3.86648e-05
3.67593e-05
3.48982e-05
3.3068e-05
3.12696e-05
2.95193e-05
2.77476e-05
2.59964e-05
2.42172e-05
2.24243e-05
2.05756e-05
1.86605e-05
1.66917e-05
1.47237e-05
1.27642e-05
1.10901e-05
1.00966e-05
1.19752e-05
1.21284e-05
0.000113405
0.0001137
0.00011382
0.000113969
0.000114085
0.0001142
0.000114318
0.000114412
0.000114527
0.000114604
0.000114714
0.000114775
0.000114873
0.000114918
0.000114997
0.000115026
0.000115085
0.000115097
0.000115134
0.000115127
0.000115136
0.000115106
0.000115085
0.000115028
0.000114974
0.000114886
0.000114795
0.000114674
0.000114553
0.000114403
0.000114249
0.00011407
0.000113882
0.00011367
0.000113446
0.0001132
0.000112937
0.000112649
0.000112338
0.000112002
0.000111642
0.000111253
0.000110838
0.000110391
0.000109913
0.000109398
0.000108849
0.000108265
0.000107647
0.000106995
0.000106307
0.000105567
0.000104781
0.000103932
0.00010302
0.000102024
0.000100473
9.88793e-05
9.72173e-05
9.55141e-05
9.37488e-05
9.19462e-05
9.0087e-05
8.81994e-05
8.62675e-05
8.43108e-05
8.23321e-05
8.02702e-05
7.81907e-05
7.6052e-05
7.3882e-05
7.16697e-05
6.94163e-05
6.7124e-05
6.47876e-05
6.2408e-05
5.99809e-05
5.75036e-05
5.49755e-05
5.23936e-05
4.97623e-05
4.70828e-05
4.43656e-05
4.16191e-05
3.88593e-05
3.6104e-05
3.33777e-05
3.07035e-05
2.81031e-05
2.56052e-05
2.31851e-05
2.08512e-05
1.8593e-05
1.63279e-05
1.41485e-05
1.21464e-05
1.03275e-05
8.93884e-06
8.38991e-06
1.15403e-05
7.31068e-05
7.35623e-05
7.36483e-05
7.39468e-05
7.40507e-05
7.43022e-05
7.44329e-05
7.46554e-05
7.48086e-05
7.5013e-05
7.5182e-05
7.53742e-05
7.55517e-05
7.57344e-05
7.59145e-05
7.60899e-05
7.627e-05
7.6441e-05
7.66196e-05
7.67867e-05
7.69614e-05
7.71237e-05
7.72926e-05
7.74495e-05
7.76117e-05
7.77626e-05
7.79174e-05
7.80624e-05
7.82107e-05
7.83494e-05
7.84891e-05
7.862e-05
7.87491e-05
7.88694e-05
7.89855e-05
7.90917e-05
7.91913e-05
7.92804e-05
7.93641e-05
7.94378e-05
7.95042e-05
7.95605e-05
7.96081e-05
7.96449e-05
7.96721e-05
7.96883e-05
7.96945e-05
7.96898e-05
7.96695e-05
7.96316e-05
7.9573e-05
7.94895e-05
7.93806e-05
7.92403e-05
7.9069e-05
7.88622e-05
7.86234e-05
7.8366e-05
7.80728e-05
7.77527e-05
7.73899e-05
7.69873e-05
7.65247e-05
7.58673e-05
7.49545e-05
7.39762e-05
7.29438e-05
7.18412e-05
7.06935e-05
6.94715e-05
6.81785e-05
6.68305e-05
6.54063e-05
6.38874e-05
6.22904e-05
6.05901e-05
5.87981e-05
5.68958e-05
5.48911e-05
5.27745e-05
5.05526e-05
4.82243e-05
4.57971e-05
4.32778e-05
4.06751e-05
3.80044e-05
3.52683e-05
3.24808e-05
2.96424e-05
2.67088e-05
2.37036e-05
2.06098e-05
1.75772e-05
1.46814e-05
1.19811e-05
9.63093e-06
7.77597e-06
6.55935e-06
5.88376e-06
6.76711e-06
6.8239e-06
6.84104e-06
6.85273e-06
6.86711e-06
6.88106e-06
6.89823e-06
6.91307e-06
6.93161e-06
6.94753e-06
6.96706e-06
6.98415e-06
7.00468e-06
7.02288e-06
7.04415e-06
7.06361e-06
7.08543e-06
7.10622e-06
7.12878e-06
7.15102e-06
7.17458e-06
7.19834e-06
7.22307e-06
7.24838e-06
7.27443e-06
7.30134e-06
7.32887e-06
7.35742e-06
7.38655e-06
7.4168e-06
7.4476e-06
7.47957e-06
7.51213e-06
7.54586e-06
7.58023e-06
7.61579e-06
7.65208e-06
7.68961e-06
7.72799e-06
7.76769e-06
7.80835e-06
7.8504e-06
7.89356e-06
7.9382e-06
7.98409e-06
8.03155e-06
8.08038e-06
8.13081e-06
8.18263e-06
8.23586e-06
8.29047e-06
8.34648e-06
8.40385e-06
8.46277e-06
8.52318e-06
8.58551e-06
8.64979e-06
8.71642e-06
8.78534e-06
8.85574e-06
8.92777e-06
9.00017e-06
9.0727e-06
9.14369e-06
9.212e-06
9.2804e-06
9.35105e-06
9.42506e-06
9.5006e-06
9.58131e-06
9.66349e-06
9.75021e-06
9.8418e-06
9.93549e-06
1.0032e-05
1.01339e-05
1.0236e-05
1.0344e-05
1.04526e-05
1.05654e-05
1.06805e-05
1.07991e-05
1.09219e-05
1.10488e-05
1.11816e-05
1.13193e-05
1.14609e-05
1.15935e-05
1.16934e-05
1.16835e-05
1.14828e-05
1.09381e-05
9.79826e-06
7.97535e-06
5.81013e-06
3.65562e-06
2.65049e-06
2.56266e-06
3.92432e-06
4.02337e-06
4.33456e-06
1.09279e-05
2.07317e-06
2.59738e-06
3.51229e-06
4.53996e-06
5.60806e-06
6.4913e-06
7.33043e-06
8.14042e-06
8.89467e-06
9.58541e-06
1.02445e-05
1.13115e-05
1.31038e-05
1.52609e-05
1.77347e-05
1.75748e-05
1.55553e-05
1.03655e-05
4.00178e-06
5.86681e-06
2.18194e-06
2.47038e-06
3.17628e-06
4.04484e-06
4.86575e-06
5.68857e-06
6.53852e-06
7.39493e-06
8.26411e-06
9.17532e-06
1.02385e-05
1.18585e-05
1.38684e-05
1.67532e-05
1.82129e-05
1.74456e-05
1.4742e-05
9.6253e-06
3.97267e-06
4.93515e-06
2.69019e-06
2.89489e-06
3.40889e-06
4.01039e-06
4.7178e-06
5.46679e-06
6.29049e-06
7.18456e-06
8.30227e-06
9.37864e-06
1.08311e-05
1.26776e-05
1.54584e-05
1.78254e-05
1.82263e-05
1.7125e-05
1.40428e-05
8.99862e-06
3.83668e-06
5.0471e-06
3.43435e-06
3.63442e-06
3.87351e-06
4.36511e-06
4.91707e-06
5.64614e-06
6.53997e-06
7.65349e-06
9.34615e-06
1.09654e-05
1.26495e-05
1.53285e-05
1.79354e-05
1.90291e-05
1.87189e-05
1.70195e-05
1.3322e-05
8.10445e-06
3.24383e-06
5.68485e-06
4.47757e-06
4.61802e-06
4.63129e-06
5.18858e-06
5.66686e-06
6.53934e-06
7.75844e-06
9.46391e-06
1.27355e-05
1.44162e-05
1.66432e-05
1.90155e-05
2.01983e-05
2.02843e-05
1.91998e-05
1.65531e-05
1.25972e-05
7.08569e-06
2.32289e-06
6.8937e-06
5.97398e-06
6.04391e-06
6.00561e-06
6.7353e-06
7.67936e-06
9.20652e-06
1.13835e-05
1.57019e-05
1.89963e-05
2.05603e-05
2.19831e-05
2.28186e-05
2.26936e-05
2.1639e-05
1.91081e-05
1.60456e-05
1.1789e-05
5.23695e-06
1.39011e-06
9.02424e-06
8.59663e-06
8.81424e-06
9.36003e-06
1.10213e-05
1.34453e-05
1.67802e-05
2.16246e-05
2.82769e-05
2.9027e-05
2.87824e-05
2.81248e-05
2.68239e-05
2.47731e-05
2.16924e-05
1.85934e-05
1.49638e-05
1.02237e-05
3.83285e-06
6.91074e-07
1.45692e-05
1.60058e-05
1.72122e-05
1.9488e-05
2.30071e-05
2.73019e-05
3.28529e-05
3.97941e-05
3.96919e-05
3.74188e-05
3.41591e-05
3.15038e-05
2.80219e-05
2.49941e-05
2.09475e-05
1.71724e-05
1.29543e-05
8.32189e-06
2.91234e-06
3.13452e-07
3.23912e-05
3.53556e-05
3.65925e-05
3.90502e-05
4.35223e-05
4.7869e-05
5.15867e-05
4.74479e-05
4.39195e-05
4.00345e-05
3.63047e-05
3.25138e-05
2.84309e-05
2.34553e-05
1.86729e-05
1.41253e-05
1.04843e-05
7.50633e-06
3.02559e-06
1.89507e-07
5.27074e-05
5.55939e-05
5.58667e-05
5.7383e-05
6.22417e-05
5.9218e-05
5.50449e-05
5.01065e-05
4.6135e-05
4.11822e-05
3.72259e-05
3.20217e-05
2.71206e-05
1.98612e-05
1.42688e-05
1.01967e-05
8.58225e-06
7.67959e-06
3.75125e-06
2.60595e-07
5.02692e-05
5.30142e-05
5.34128e-05
5.50258e-05
5.9856e-05
5.76359e-05
5.36475e-05
4.88902e-05
4.51365e-05
4.03548e-05
3.67572e-05
3.16334e-05
2.77076e-05
2.05796e-05
1.50031e-05
1.03033e-05
8.38669e-06
7.09379e-06
3.22193e-06
2.22684e-07
2.79055e-05
3.08207e-05
3.22045e-05
3.46946e-05
3.91059e-05
4.36899e-05
4.93515e-05
4.54539e-05
4.24436e-05
3.83174e-05
3.55465e-05
3.12979e-05
2.83183e-05
2.39106e-05
1.93269e-05
1.45481e-05
1.03138e-05
6.64617e-06
2.32946e-06
1.726e-07
1.30582e-05
1.39767e-05
1.49406e-05
1.6986e-05
2.01405e-05
2.41882e-05
2.94404e-05
3.63633e-05
3.96743e-05
3.60419e-05
3.39258e-05
3.05078e-05
2.7611e-05
2.44459e-05
2.12258e-05
1.7357e-05
1.28747e-05
7.92106e-06
2.54047e-06
2.05176e-07
8.63212e-06
8.10369e-06
8.24744e-06
8.63482e-06
1.00416e-05
1.21728e-05
1.5158e-05
1.97606e-05
2.6228e-05
2.74014e-05
2.77249e-05
2.75452e-05
2.6653e-05
2.46844e-05
2.14112e-05
1.85955e-05
1.48424e-05
9.94489e-06
3.50994e-06
4.38705e-07
6.73724e-06
5.80244e-06
5.86669e-06
5.82773e-06
6.5057e-06
7.35917e-06
8.73645e-06
1.07133e-05
1.47731e-05
1.81112e-05
1.98958e-05
2.16593e-05
2.26998e-05
2.27499e-05
2.18285e-05
1.89327e-05
1.58203e-05
1.1531e-05
5.10995e-06
1.17218e-06
5.62138e-06
4.42668e-06
4.56456e-06
4.60793e-06
5.15519e-06
5.64094e-06
6.48125e-06
7.6272e-06
9.22433e-06
1.23168e-05
1.40893e-05
1.644e-05
1.89955e-05
2.03059e-05
2.04278e-05
1.93428e-05
1.63988e-05
1.24226e-05
6.96316e-06
2.20404e-06
5.04357e-06
3.43394e-06
3.63673e-06
3.9172e-06
4.41815e-06
4.99554e-06
5.72564e-06
6.60441e-06
7.67783e-06
9.31715e-06
1.08937e-05
1.26301e-05
1.53484e-05
1.80754e-05
1.92225e-05
1.88788e-05
1.70902e-05
1.31974e-05
8.04567e-06
3.21295e-06
5.05489e-06
2.73372e-06
2.93073e-06
3.46053e-06
4.09498e-06
4.8135e-06
5.58362e-06
6.41708e-06
7.30528e-06
8.40175e-06
9.48191e-06
1.09304e-05
1.27921e-05
1.5586e-05
1.80011e-05
1.83787e-05
1.72033e-05
1.39453e-05
8.95817e-06
3.80476e-06
6.12934e-06
2.24385e-06
2.53683e-06
3.25164e-06
4.12787e-06
4.98828e-06
5.82554e-06
6.68962e-06
7.55739e-06
8.42431e-06
9.34257e-06
1.04059e-05
1.20265e-05
1.40479e-05
1.69352e-05
1.83579e-05
1.75153e-05
1.4724e-05
9.60187e-06
3.9607e-06
1.09716e-05
2.14038e-06
2.66375e-06
3.59723e-06
4.64172e-06
5.71126e-06
6.64253e-06
7.49003e-06
8.31226e-06
9.06997e-06
9.76702e-06
1.04376e-05
1.14883e-05
1.32642e-05
1.5423e-05
1.78556e-05
1.7623e-05
1.55259e-05
1.0357e-05
3.99558e-06
1.23421e-06
0.000116558
0.000294184
0.000330906
0.00033481
0.000335356
0.000335357
0.000335342
0.000335343
0.000335345
0.000335345
0.000335343
0.000335342
0.000335357
0.000335356
0.00033481
0.000330906
0.000294184
0.000116558
1.23421e-06
1.36972e-06
6.81674e-05
0.000219585
0.000309504
0.000330909
0.000334527
0.000335273
0.000335315
0.000335296
0.000335287
0.000335287
0.000335296
0.000335315
0.000335273
0.000334527
0.000330909
0.000309504
0.000219585
6.81675e-05
1.36972e-06
1.5134e-06
5.28954e-05
0.000176458
0.000280578
0.000322147
0.000332504
0.000334604
0.0003351
0.000335168
0.000335172