/*--------------------------------*- C++ -*----------------------------------*\
| =========                 |                                                 |
| \\      /  F ield         | OpenFOAM: The Open Source CFD Toolbox           |
|  \\    /   O peration     | Version:  2.1.0                                 |
|   \\  /    A nd           | Web:      www.OpenFOAM.org                      |
|    \\/     M anipulation  |                                                 |
\*---------------------------------------------------------------------------*/
FoamFile
{
    version     2.0;
    format      ascii;
    class       volScalarField;
    location    "0.28";
    object      omega;
}
// * * * * * * * * * * * * * * * * * * * * * * * * * * * * * * * * * * * * * //

dimensions      [0 0 -1 0 0 0 0];

internalField   nonuniform List<scalar> 
6400
(
1581.44
1582.89
1583.22
1583.39
1583.41
1583.47
1583.41
1583.43
1583.39
1583.41
1583.41
1583.48
1583.54
1583.67
1583.8
1584
1584.21
1584.47
1584.76
1585.07
1585.42
1585.78
1586.17
1586.56
1586.99
1587.4
1587.83
1588.22
1588.63
1588.98
1589.33
1589.61
1589.87
1590.02
1590.08
1590.09
1590.03
1589.8
1589.44
1588.94
1588.25
1587.39
1586.31
1585
1583.45
1581.64
1579.56
1577.18
1574.49
1571.44
1568.03
1564.24
1560.07
1555.66
1551.02
1546.07
1540.85
1535.34
1529.54
1523.44
1517.12
1510.47
1503.54
1496.31
1488.76
1480.87
1472.62
1463.86
1454.77
1445.06
1434.92
1424.19
1412.86
1400.96
1388.39
1375.24
1361.46
1347.09
1332.19
1316.77
1300.85
1284.37
1266.98
1247.69
1227.57
1205.89
1182.04
1155.3
1123.94
1086.1
1038.21
974.724
887.698
770.555
621.266
535.837
565.237
734.976
892.219
942.031
669.377
670.196
671.527
672.995
674.608
676.428
678.179
680.191
682.068
684.212
686.219
688.469
690.606
692.954
695.219
697.665
700.065
702.626
705.176
707.865
710.576
713.409
716.283
719.268
722.308
725.451
728.662
731.972
735.36
738.846
742.42
746.095
749.87
753.752
757.748
761.85
766.063
770.385
774.826
779.39
784.079
788.904
793.865
798.971
804.229
809.645
815.228
820.983
826.919
833.038
839.335
845.821
852.512
859.461
866.675
874.154
881.934
890.031
898.464
907.265
916.462
926.075
936.155
946.734
957.819
969.324
981.274
993.723
1006.83
1020.55
1034.99
1050.17
1066.16
1083.02
1100.81
1119.63
1139.57
1160.72
1183.24
1207.27
1233.03
1260.63
1288.98
1318.71
1349.58
1381.14
1412.67
1443.2
1471.49
1496.14
1514.28
1522.69
1524.43
1510.4
1475.43
1397.13
1285.43
1150.21
1004.47
847.284
492.29
495.967
497.694
501.177
503.487
507.003
509.693
513.254
516.238
519.874
523.115
526.852
530.328
534.189
537.886
541.886
545.795
549.954
554.081
558.412
562.754
567.271
571.83
576.547
581.328
586.258
591.272
596.428
601.684
607.082
612.592
618.245
624.022
629.945
635.998
642.227
648.623
655.186
661.903
668.806
675.89
683.172
690.652
698.343
706.25
714.382
722.745
731.342
740.178
749.258
758.601
768.212
778.107
788.309
798.828
809.677
820.876
832.437
844.376
856.71
869.448
882.604
896.185
910.195
924.649
939.59
955.026
970.887
987.069
1003.58
1020.34
1037.33
1054.5
1071.81
1089.22
1106.7
1124.24
1141.85
1159.53
1177.3
1195.21
1213.26
1231.49
1249.96
1268.59
1287.22
1305.71
1323.5
1340.02
1354.07
1361.98
1364.86
1359.1
1333.88
1286.82
1207.83
1099.75
958.459
795.711
627.208
451.254
456.802
459.247
464.071
467.145
471.92
475.449
480.22
484.125
488.947
493.18
498.1
502.632
507.687
512.495
517.708
522.776
528.168
533.491
539.082
544.656
550.459
556.287
562.318
568.408
574.684
581.047
587.585
594.23
601.047
607.987
615.098
622.344
629.763
637.33
645.059
652.934
660.984
669.213
677.597
686.136
694.83
703.667
712.647
721.759
730.999
740.354
749.818
759.381
769.036
778.774
788.588
798.47
808.416
818.413
828.452
838.527
848.626
858.738
868.858
878.968
889.063
899.121
909.129
919.08
928.997
938.843
948.614
958.282
967.833
977.253
986.495
995.521
1004.31
1012.79
1020.93
1028.62
1035.83
1042.4
1048.27
1053.25
1057.2
1059.59
1060.61
1060.73
1057.8
1053.16
1045.13
1034.2
1018.99
999.383
973.967
941.807
900.808
849.204
784.849
709.543
627.51
551.985
496.351
447.874
454.461
457.315
462.957
466.495
472.042
476.059
481.545
485.938
491.411
496.113
501.614
506.578
512.137
517.324
522.956
528.341
534.072
539.65
545.501
551.259
557.235
563.167
569.28
575.383
581.638
587.911
594.31
600.737
607.271
613.835
620.487
627.167
633.917
640.689
647.51
654.343
661.205
668.06
674.929
681.786
688.629
695.449
702.235
708.977
715.672
722.301
728.868
735.355
741.762
748.079
754.294
760.392
766.409
772.301
778.069
783.671
789.096
794.315
799.307
804.039
808.49
812.624
816.413
819.826
822.823
825.373
827.432
828.963
829.753
830.062
829.995
828.782
827.157
824.489
821.176
816.838
811.69
805.494
798.357
790.131
780.867
770.519
759.162
746.687
733.233
718.78
703.329
686.895
669.349
650.593
630.278
608.223
583.681
555.927
525.65
493.998
464.699
444.028
432.654
444.764
450.919
453.553
458.763
461.95
467.018
470.559
475.482
479.266
484.068
488.025
492.731
496.81
501.438
505.601
510.164
514.389
518.918
523.202
527.709
532.032
536.519
540.869
545.333
549.68
554.106
558.489
562.947
567.35
571.799
576.183
580.584
584.907
589.22
593.439
597.618
601.69
605.695
609.566
613.336
616.963
620.447
623.772
626.923
629.885
632.65
635.191
637.51
639.571
641.375
642.893
644.115
645.021
645.691
646.014
646.125
645.925
645.264
644.303
642.896
641.129
638.923
636.325
633.296
629.866
626.01
621.758
617.093
612.044
606.606
600.855
594.769
588.383
581.745
574.84
567.744
560.435
553.015
545.485
537.889
530.267
522.67
515.118
507.659
500.3
492.967
485.648
478.323
471.023
463.637
456.143
448.411
440.364
431.823
422.931
414.059
406.716
403.221
402.296
402.349
419.368
423.914
425.824
429.603
431.807
435.453
437.811
441.29
443.727
447.033
449.502
452.641
455.108
458.085
460.525
463.348
465.752
468.445
470.81
473.369
475.665
478.088
480.294
482.566
484.6
486.679
488.578
490.486
492.182
493.835
495.255
496.589
497.67
498.629
499.32
499.83
500.069
500.152
500.021
499.571
498.941
498.017
496.886
495.48
493.852
491.968
489.851
487.503
484.923
482.133
479.129
475.939
472.575
469.019
465.292
461.427
457.42
453.323
449.135
444.907
440.638
436.379
432.124
427.914
423.734
419.7
415.761
412.013
408.413
405.045
401.837
398.873
396.1
393.589
391.285
389.245
387.399
385.806
384.416
383.276
382.325
381.596
381.026
380.632
380.35
380.181
380.064
379.983
379.881
379.748
379.561
379.365
379.274
379.273
380.138
381.595
384.305
388.985
392.669
393.71
373.289
376.021
377.116
379.245
380.323
382.296
383.292
385.053
385.933
387.445
388.196
389.433
390.043
390.988
391.447
392.096
392.404
392.738
392.874
392.927
392.836
392.61
392.191
391.685
390.921
390.111
388.93
387.672
386.06
384.361
382.335
380.218
377.809
375.33
372.596
369.805
366.807
363.772
360.574
357.355
354.032
350.711
347.335
343.989
340.635
337.34
334.079
330.907
327.807
324.817
321.909
319.18
316.573
314.152
311.887
309.839
307.975
306.355
304.947
303.803
302.894
302.271
301.963
301.851
301.951
302.444
303.056
304.03
305.14
306.583
308.169
310.058
312.091
314.4
316.849
319.546
322.374
325.414
328.582
331.948
335.419
339.046
342.751
346.564
350.417
354.325
358.23
362.134
365.998
369.83
373.626
377.408
381.223
385.134
389.334
394.209
399.847
406.821
412.195
414.344
308.803
309.015
309.027
309
308.74
308.557
308.025
307.636
306.835
306.206
305.141
304.253
302.93
301.772
300.2
298.779
296.991
295.324
293.318
291.387
289.171
287
284.583
282.22
279.68
277.196
274.572
272.033
269.402
266.879
264.319
261.884
259.464
257.171
254.947
252.86
250.881
249.053
247.363
245.839
244.472
243.284
242.267
241.437
240.793
240.352
240.139
240.064
240.161
240.577
241.121
241.931
242.848
244.031
245.324
246.874
248.546
250.456
252.508
254.777
257.203
259.833
262.631
265.623
268.804
272.159
275.701
279.422
283.331
287.426
291.715
296.199
300.884
305.775
310.875
316.193
321.731
327.501
333.497
339.736
346.209
352.933
359.897
367.111
374.561
382.251
390.163
398.285
406.586
415.044
423.621
432.314
441.11
450.037
459.149
468.66
479.249
490.795
502.216
507.853
238.317
236.643
235.926
234.47
233.601
232.118
231.117
229.61
228.5
226.974
225.783
224.246
223.002
221.47
220.204
218.696
217.433
215.966
214.735
213.339
212.176
210.883
209.824
208.67
207.753
206.769
206.022
205.237
204.686
204.124
203.789
203.502
203.377
203.334
203.409
203.659
203.995
204.499
205.099
205.857
206.719
207.731
208.86
210.125
211.514
213.026
214.669
216.425
218.323
220.331
222.482
224.737
227.125
229.625
232.251
235
237.869
240.867
243.986
247.24
250.619
254.138
257.787
261.582
265.518
269.604
273.845
278.243
282.81
287.546
292.466
297.57
302.876
308.384
314.113
320.067
326.265
332.716
339.437
346.444
353.756
361.39
369.371
377.721
386.469
395.646
405.286
415.431
426.124
437.421
449.38
462.081
475.609
490.073
505.584
522.237
539.935
558.363
572.982
579.499
262.832
262.41
262.177
261.673
261.27
260.66
260.084
259.351
258.609
257.744
256.844
255.839
254.79
253.638
252.447
251.151
249.817
248.4
246.957
245.462
243.939
242.392
240.83
239.272
237.712
236.181
234.673
233.21
231.8
230.45
229.182
227.987
226.9
225.899
225.031
224.259
223.637
223.126
222.777
222.597
222.53
222.573
222.877
223.27
223.879
224.588
225.501
226.526
227.747
229.088
230.616
232.27
234.103
236.068
238.205
240.48
242.93
245.507
248.245
251.123
254.151
257.33
260.654
264.137
267.768
271.562
275.512
279.63
283.913
288.372
293.008
297.831
302.846
308.062
313.487
319.132
325.004
331.118
337.482
344.115
351.026
358.237
365.76
373.621
381.835
390.431
399.426
408.857
418.746
429.153
440.105
451.673
463.913
476.935
490.849
505.817
521.915
538.813
552.72
559.026
328.2
329.815
330.443
331.606
332.179
333.175
333.661
334.456
334.838
335.416
335.687
336.018
336.149
336.205
336.123
335.933
335.52
335.075
334.348
333.636
332.608
331.611
330.291
329.007
327.408
325.839
323.98
322.147
320.062
317.991
315.7
313.438
310.986
308.577
306.014
303.511
300.89
298.347
295.725
293.199
290.646
288.205
285.788
283.484
281.278
279.215
277.29
275.53
273.945
272.549
271.357
270.377
269.622
269.121
268.882
268.806
268.989
269.449
270.097
271.016
272.123
273.492
275.05
276.859
278.854
281.088
283.508
286.159
288.986
292.019
295.223
298.619
302.183
305.934
309.854
313.957
318.221
322.663
327.26
332.031
336.948
342.011
347.204
352.532
357.976
363.547
369.215
375.002
380.878
386.85
392.897
399.059
405.386
411.957
418.978
426.778
435.754
446.204
457.325
463.135
379.01
382.205
383.528
386.125
387.582
390.066
391.581
393.918
395.446
397.628
399.142
401.168
402.673
404.564
406.025
407.767
409.129
410.687
411.904
413.267
414.311
415.45
416.285
417.172
417.767
418.37
418.69
418.904
418.972
418.928
418.595
418.185
417.496
416.709
415.648
414.479
413.045
411.499
409.675
407.672
405.4
402.964
400.278
397.446
394.399
391.231
387.883
384.446
380.889
377.274
373.599
369.91
366.219
362.562
358.953
355.414
351.961
348.677
345.544
342.606
339.85
337.321
335.007
332.949
331.133
329.594
328.306
327.293
326.514
326.029
325.796
325.723
325.881
326.316
326.874
327.673
328.57
329.668
330.835
332.163
333.533
335.114
336.731
338.527
340.358
342.36
344.4
346.601
348.852
351.287
353.816
356.557
359.447
362.565
366.023
370.068
375.183
381.836
386.698
388.498
414.689
419.158
421.054
424.82
427.084
430.754
433.246
436.802
439.445
442.893
445.636
448.986
451.831
455.143
458.071
461.355
464.333
467.572
470.565
473.759
476.754
479.894
482.867
485.941
488.867
491.856
494.707
497.587
500.335
503.068
505.664
508.218
510.62
512.95
515.106
517.161
519.021
520.749
522.295
523.744
524.968
526.032
526.837
527.398
527.661
527.744
527.534
526.952
526.121
524.919
523.44
521.597
519.462
516.977
514.203
511.1
507.723
504.044
500.115
495.95
491.603
487.069
482.355
477.499
472.51
467.459
462.322
457.185
452.038
447.002
442.017
437.207
432.517
428.054
423.76
419.671
415.744
412.041
408.501
405.182
402.007
398.945
396.033
393.213
390.49
387.849
385.265
382.737
380.239
377.795
375.395
373.097
370.977
369.224
367.93
367.429
367.905
371.766
374.804
375.703
429.946
435.412
437.756
442.42
445.307
449.882
453.134
457.629
461.153
465.598
469.34
473.771
477.701
482.149
486.249
490.744
494.992
499.534
503.904
508.502
512.987
517.65
522.239
526.968
531.651
536.445
541.213
546.069
550.911
555.822
560.722
565.672
570.607
575.572
580.511
585.46
590.366
595.256
600.105
604.961
609.754
614.515
619.189
623.793
628.281
632.667
636.899
640.985
644.889
648.6
652.094
655.35
658.351
661.067
663.486
665.573
667.316
668.68
669.617
670.067
670.217
669.946
669.129
668.047
666.367
664.343
661.706
658.673
655.035
650.969
646.325
641.235
635.604
629.524
622.949
616.013
608.647
600.948
592.89
584.518
575.843
566.873
557.676
548.209
538.536
528.549
518.349
507.804
496.992
485.591
473.864
461.536
448.723
435.687
422.21
409.301
397.906
391.168
388.203
386.868
429.14
434.611
436.985
441.686
444.646
449.283
452.657
457.26
460.963
465.576
469.563
474.231
478.469
483.23
487.709
492.598
497.312
502.347
507.281
512.477
517.631
523.006
528.382
533.947
539.545
545.311
551.13
557.099
563.14
569.317
575.574
581.958
588.426
595.013
601.686
608.469
615.337
622.307
629.359
636.503
643.719
651.013
658.369
665.789
673.253
680.767
688.309
695.881
703.458
711.034
718.585
726.123
733.624
741.08
748.48
755.81
763.059
770.215
777.26
784.176
790.94
797.519
803.915
810.11
816.034
821.686
826.982
831.92
836.413
840.45
843.953
846.895
849.203
850.741
851.462
851.672
850.912
849.08
846.319
842.333
837.212
830.685
822.792
813.282
802.157
789.206
774.453
757.632
738.78
717.699
694.299
668.198
639.122
606.799
571.922
534.11
496.288
460.664
435.141
418.262
433.898
438.364
440.344
444.265
446.76
450.637
453.492
457.354
460.495
464.386
467.78
471.736
475.363
479.421
483.274
487.472
491.553
495.913
500.22
504.761
509.302
514.05
518.838
523.815
528.863
534.089
539.409
544.899
550.503
556.276
562.18
568.258
574.485
580.894
587.47
594.24
601.197
608.359
615.713
623.277
631.046
639.031
647.227
655.642
664.27
673.11
682.17
691.479
701.031
710.845
720.932
731.21
741.718
752.414
763.309
774.377
785.611
796.995
808.509
820.144
831.876
843.703
855.603
867.575
879.597
891.672
903.773
915.886
927.982
940.025
951.971
963.865
975.67
987.363
998.911
1010.27
1021.36
1032.12
1042.46
1052.25
1061.35
1069.58
1076.72
1082.48
1086.01
1087.5
1087.66
1083.01
1075.39
1062.18
1043.6
1017.53
982.948
937.502
881.02
809.824
727.031
635.343
553.377
488.186
477.1
479.883
481.224
483.948
485.769
488.524
490.633
493.422
495.754
498.596
501.111
504.025
506.715
509.721
512.583
515.702
518.737
521.982
525.189
528.571
531.954
535.491
539.059
542.769
546.533
550.43
554.401
558.505
562.696
567.018
571.446
576.008
580.69
585.511
590.464
595.56
600.793
606.182
611.752
617.504
623.453
629.609
635.983
642.593
649.452
656.583
663.99
671.657
679.604
687.829
696.331
705.18
714.36
723.905
733.817
744.11
754.789
765.885
777.398
789.356
801.773
814.676
828.085
842.028
856.537
871.639
887.348
903.679
920.653
938.272
956.565
975.408
994.773
1014.59
1034.8
1055.32
1076.08
1097.02
1118.09
1139.25
1160.47
1181.74
1203.05
1224.36
1245.54
1266.84
1287.86
1308.15
1327.14
1343.47
1352.97
1356.48
1350.43
1322
1271.26
1196.14
1093.15
964.098
803.222
630.421
654.178
654.223
655.341
656.142
657.39
658.592
659.875
661.279
662.613
664.137
665.545
667.158
668.656
670.35
671.95
673.72
675.424
677.267
679.069
680.986
682.887
684.886
686.892
688.983
691.099
693.294
695.531
697.846
700.217
702.67
705.194
707.804
710.498
713.284
716.169
719.158
722.265
725.491
728.831
732.295
735.891
739.623
743.503
747.535
751.73
756.093
760.633
765.352
770.264
775.377
780.704
786.26
792.051
798.098
804.409
811.004
817.905
825.098
832.621
840.485
848.707
857.307
866.293
875.678
885.54
895.93
906.872
918.378
930.517
943.271
956.704
970.791
985.736
1001.52
1018.26
1035.97
1054.79
1074.75
1095.99
1118.58
1142.65
1168.28
1195.6
1224.68
1255.61
1287.67
1320.3
1352.21
1381.58
1406.15
1420.08
1425.15
1422.77
1407.06
1375.81
1317.49
1230.77
1121.32
997.784
849.042
1563.58
1564.39
1564.44
1564.21
1563.74
1563.48
1562.87
1562.59
1561.96
1561.66
1561.04
1560.74
1560.13
1559.8
1559.22
1558.83
1558.28
1557.86
1557.34
1556.89
1556.39
1555.92
1555.43
1554.94
1554.46
1553.96
1553.47
1552.95
1552.45
1551.91
1551.38
1550.8
1550.23
1549.61
1548.99
1548.31
1547.63
1546.89
1546.14
1545.34
1544.51
1543.64
1542.73
1541.76
1540.76
1539.68
1538.55
1537.33
1536
1534.56
1532.99
1531.26
1529.38
1527.33
1525.12
1522.73
1520.19
1517.47
1514.48
1511.21
1507.55
1503.44
1498.72
1493.3
1487.36
1481.03
1474.38
1467.22
1459.77
1451.73
1443.25
1434.29
1424.59
1414.13
1403.01
1390.79
1377.76
1363.49
1348.1
1331.39
1313.29
1293.73
1272.57
1249.78
1225.15
1198.49
1169.08
1135.88
1095.93
1046.98
985.057
903.678
802.319
693.229
583.492
534.443
555.298
721.293
886.534
939.801
865.234
324.565
176.599
119.684
95.2815
82.2819
75.8426
72.8364
71.8448
73.5823
80.1066
95.7693
117.153
153.838
204.276
269.081
347.458
444.001
561.558
611.361
692.634
329.035
219.018
154.343
121.844
103.933
92.7328
87.1736
85.1644
86.7017
98.2318
114.038
142.344
181.988
235.095
297.946
371.432
460.087
546.179
569.411
544.453
318.81
242.478
180.354
147.653
125.216
111.457
105.39
103.602
107.45
118.881
141.766
172.026
215.815
267.105
324.643
389.859
464.041
515.426
522.773
444.603
305.168
256.285
197.986
170.94
145.751
133.555
127.775
126.105
129.872
151.657
174.975
211.106
253.905
300.186
351.414
407.113
456.833
475.745
473.518
388.332
300.568
266.433
214.746
192.016
168.317
158.431
154.349
153.849
172.07
192.853
219.979
254.893
290.827
329.686
370.925
411.497
434.471
426.798
425.094
360.197
300.384
273.815
231.651
213.922
199.612
195.586
195.321
208.733
224.929
245.456
270.118
297.808
325.776
356.007
384.654
400.35
398.054
367.584
379.832
352.126
312.383
295.345
271.415
263.838
261.11
260.683
267.461
276.769
289.289
304.436
321.222
339.019
355.804
370.743
377.804
376.345
344.151
299.634
348.581
385.926
373.826
369.838
360.206
355.673
350.158
348.04
347.583
350.129
354.615
359.235
364.279
367.189
368.278
367.235
358.836
331.53
275.975
230.429
332.679
498.212
483.097
475.676
456.792
447.908
433.61
426.604
416.984
411.88
403.868
397.509
388.404
377.97
365.506
349.147
315.689
266.052
201.615
162.158
327.609
561.976
540.615
530.96
507.946
496.92
478.304
468.007
451.193
439.636
422.775
408.658
389.506
369.495
340.672
301.084
251.262
198.297
146.39
122.267
330.503
543.606
523.573
514.607
493.049
482.761
465.562
456.332
441.527
431.414
416.879
404.412
387.918
370.114
345.439
309.368
259.702
204.828
147.857
120.732
328.956
456.729
445.817
440.416
424.638
417.454
406.727
401.583
396.098
393.381
390.083
386.594
381.958
374.805
365.21
353.567
326.165
277.296
210.589
172.141
326.922
358.093
342.799
337.72
329.954
326.651
323.695
322.927
325.884
330.779
338.59
346.678
355.104
362.843
366.682
368.022
363.61
340.027
286.422
239.452
328.247
336.226
296.345
278.798
253.52
245.069
242.082
241.896
250.311
261.103
275.162
292.66
311.547
332.032
352.26
370.882
380.112
381.332
352.778
308.006
337.879
346.402
287.864
262.005
220.78
203.366
188.796
184.408
183.894
197.584
214.833
236.355
262.704
291.648
321.495
353.848
385.935
403.953
405.036
374.183
369.844
374.099
289.037
255.8
206.099
184.169
161.309
151.626
147.511
146.882
164.719
186.095
214.081
250.051
287.304
327.477
370.15
414.258
439.095
433.789
419.117
429.117
293.699
245.971
189.853
163.71
139.936
128.411
123.052
121.586
125.725
146.746
170.772
207.07
250.807
298.314
350.657
407.643
460.605
481.095
471.847
531.214
307.942
233.458
173.591
141.839
120.332
107.313
101.603
100.005
104.463
115.846
138.674
169.381
213.249
265.337
323.771
390.558
467.208
519.139
523.759
686.475
317.841
211.07
148.115
116.888
99.8084
89.4828
84.3701
82.5617
84.4792
95.8763
111.861
140.217
180.214
233.693
296.937
370.977
461.007
548.947
571.697
863.272
313.286
170.588
115.666
92.01
79.5293
73.1488
70.4543
69.6725
72.0075
78.5773
94.0902
115.721
152.262
203.206
268.404
347.384
444.644
563.451
613.977
646.053
32.1745
12.7362
11.3229
11.19
11.171
11.1705
11.1708
11.1706
11.1705
11.1705
11.1706
11.1708
11.1705
11.171
11.19
11.3229
12.7362
32.1745
646.053
672.74
55.0625
17.0385
12.0869
11.3039
11.1803
11.1547
11.1529
11.1534
11.1536
11.1536
11.1534
11.1529
11.1547
11.1803
11.3039
12.0869
17.0385
55.0624
672.74
698.456
71.0948
21.1545
13.3034
11.5874
11.2261
11.1552
11.1382
11.1358
11.1355
11.1355
11.1358
11.1382
11.1552
11.2261
11.5874
13.3034
21.1544
71.0947
698.456
723.137
85.8506
25.137
14.6461
12.0431
11.3371
11.1684
11.1265
11.1183
11.1171
11.1171
11.1183
11.1265
11.1684
11.3371
12.0431
14.6461
25.137
85.8506
723.137
746.739
101.864
29.206
16.0657
12.5884
11.5234
11.2064
11.1273
11.105
11.1003
11.1003
11.105
11.1273
11.2064
11.5234
12.5884
16.0657
29.2059
101.864
746.739
769.309
118.432
33.3667
17.5405
13.1971
11.7624
11.283
11.1366
11.0944
11.0843
11.0843
11.0944
11.1366
11.283
11.7624
13.1971
17.5405
33.3667
118.432
769.309
790.732
134.97
37.5682
19.0512
13.8502
12.0431
11.3872
11.16
11.0918
11.0718
11.0718
11.0918
11.16
11.3872
12.0431
13.8502
19.0512
37.5682
134.971
790.732
810.983
151.252
41.7805
20.5853
14.5352
12.3571
11.5178
11.2031
11.0955
11.0625
11.0625
11.0955
11.2031
11.5178
12.3571
14.5352
20.5853
41.7805
151.253
810.983
829.952
167.076
45.9687
22.1302
15.2422
12.6968
11.6708
11.2604
11.1065
11.0594
11.0594
11.1065
11.2604
11.6708
12.6968
15.2422
22.1302
45.9688
167.077
829.952
847.652
182.4
50.1204
23.6795
15.9647
13.0568
11.843
11.3324
11.129
11.0619
11.0619
11.129
11.3324
11.843
13.0568
15.9647
23.6796
50.1205
182.4
847.652
863.992
197.097
54.2106
25.2247
16.6968
13.4321
12.0315
11.4179
11.1609
11.0697
11.0697
11.1609
11.4179
12.0315
13.4321
16.6968
25.2248
54.2108
197.097
863.992
879.014
211.157
58.2325
26.762
17.4347
13.8193
12.2335
11.5156
11.2021
11.0862
11.0862
11.2021
11.5156
12.2335
13.8193
17.4348
26.7621
58.2327
211.157
879.014
892.662
224.491
62.1652
28.2845
18.1745
14.2149
12.4467
11.6242
11.2528
11.1113
11.1113
11.2528
11.6242
12.4467
14.215
18.1745
28.2846
62.1655
224.491
892.662
905.025
237.118
66.0086
29.7906
18.914
14.6169
12.6691
11.7427
11.3126
11.1446
11.1446
11.3126
11.7427
12.6691
14.6169
18.9141
29.7907
66.0089
237.118
905.025
916.068
248.97
69.7456
31.2753
19.6506
15.023
12.899
11.8698
11.381
11.1861
11.1861
11.381
11.8698
12.899
15.023
19.6506
31.2754
69.7458
248.97
916.067
925.905
260.09
73.3781
32.7378
20.383
15.4319
13.1351
12.0048
11.4576
11.2357
11.2357
11.4576
12.0048
13.1352
15.4319
20.383
32.7379
73.3783
260.09
925.905
934.513
270.424
76.8909
34.1735
21.1088
15.8418
13.3762
12.1466
11.5418
11.293
11.293
11.5418
12.1466
13.3762
15.8418
21.1089
34.1735
76.8911
270.424
934.512
942.037
280.036
80.289
35.5824
21.8276
16.2519
13.6211
12.2944
11.6331
11.3579
11.3579
11.6331
12.2944
13.6211
16.2519
21.8276
35.5825
80.2891
280.035
942.036
948.451
288.885
83.5604
36.9608
22.5374
16.6609
13.8691
12.4475
11.7309
11.4299
11.4299
11.7309
12.4475
13.8691
16.661
22.5374
36.9608
83.5604
288.885
948.45
953.925
297.052
86.712
38.3095
23.2382
17.0685
14.1193
12.6053
11.8348
11.5085
11.5085
11.8348
12.6053
14.1193
17.0685
23.2383
38.3096
86.7121
297.051
953.925
958.416
304.505
89.7344
39.6251
23.9283
17.4735
14.3712
12.7671
11.9442
11.5934
11.5934
11.9442
12.7671
14.3712
17.4735
23.9283
39.6251
89.7344
304.505
958.416
962.12
311.327
92.6352
40.9091
24.6079
17.8757
14.6241
12.9325
12.0587
11.684
11.684
12.0587
12.9325
14.6242
17.8757
24.608
40.9092
92.6354
311.327
962.12
964.967
317.504
95.408
42.1582
25.2755
18.2742
14.8776
13.1009
12.1777
11.78
11.78
12.1777
13.1009
14.8776
18.2742
25.2756
42.1582
95.408
317.504
964.966
967.18
323.104
98.0612
43.3748
25.9317
18.669
15.1313
13.2719
12.3009
11.8809
11.8809
12.3009
13.2719
15.1313
18.669
25.9317
43.3749
98.0614
323.104
967.179
968.649
328.146
100.59
44.5556
26.575
19.0593
15.3846
13.445
12.4277
11.9862
11.9862
12.4277
13.445
15.3846
19.0593
26.575
44.5557
100.59
328.146
968.648
969.635
332.656
103.004
45.704
27.2062
19.4452
15.6374
13.62
12.5579
12.0955
12.0955
12.5579
13.62
15.6374
19.4452
27.2063
45.7041
103.004
332.655
969.634
969.97
336.703
105.3
46.8164
27.824
19.8261
15.8892
13.7964
12.691
12.2085
12.2085
12.691
13.7964
15.8892
19.8261
27.8241
46.8165
105.3
336.703
969.969
969.834
340.244
107.487
47.8971
28.4295
20.202
16.14
13.974
12.8267
12.3248
12.3248
12.8267
13.9741
16.14
20.2021
28.4295
47.8971
107.487
340.244
969.833
969.425
343.401
109.561
48.9419
29.0212
20.5725
16.3892
14.1525
12.9646
12.4441
12.4441
12.9646
14.1525
16.3892
20.5726
29.0212
48.9419
109.561
343.4
969.424
968.579
346.143
111.538
49.9564
29.6006
20.9378
16.6369
14.3316
13.1045
12.5659
12.5659
13.1045
14.3316
16.6369
20.9378
29.6005
49.9563
111.538
346.142
968.578
967.379
348.532
113.407
50.9358
30.1661
21.2973
16.8828
14.5111
13.2461
12.69
12.69
13.2461
14.5111
16.8828
21.2973
30.1661
50.9359
113.407
348.53
967.378
965.891
350.554
115.187
51.8865
30.7193
21.6514
17.1267
14.6907
13.389
12.8161
12.8161
13.389
14.6907
17.1267
21.6514
30.7193
51.8865
115.186
350.554
965.89
964.156
352.264
116.865
52.8036
31.259
21.9996
17.3685
14.8702
13.5331
12.944
12.944
13.5331
14.8702
17.3685
21.9996
31.259
52.8036
116.865
352.262
964.155
962.205
353.661
118.463
53.6935
31.7865
22.3421
17.608
15.0495
13.6782
13.0733
13.0733
13.6782
15.0495
17.608
22.3421
31.7865
53.6934
118.463
353.66
962.204
960.074
354.764
119.967
54.5516
32.3009
22.6788
17.8451
15.2284
13.8239
13.2039
13.2039
13.8239
15.2284
17.8451
22.6788
32.3009
54.5515
119.966
354.762
960.073
957.789
355.617
121.397
55.3842
32.8035
23.0097
18.0798
15.4067
13.9702
13.3355
13.3355
13.9702
15.4067
18.0798
23.0097
32.8034
55.3842
121.396
355.616
957.788
955.382
356.174
122.738
56.1872
33.2934
23.3348
18.3119
15.5842
14.1168
13.468
13.468
14.1168
15.5842
18.3119
23.3348
33.2934
56.187
122.738
356.173
955.382
952.869
356.559
124.013
56.9662
33.7719
23.6542
18.5414
15.761
14.2636
13.601
13.601
14.2635
15.761
18.5414
23.6542
33.7719
56.9662
124.013
356.558
952.869
950.287
356.612
125.207
57.7181
34.2386
23.9678
18.7682
15.9367
14.4103
13.7346
13.7346
14.4103
15.9367
18.7681
23.9678
34.2384
57.7178
125.206
356.611
950.287
947.635
356.52
126.338
58.4478
34.6941
24.2758
18.9922
16.1114
14.557
13.8684
13.8684
14.557
16.1114
18.9922
24.2758
34.6942
58.448
126.338
356.519
947.634
944.959
356.291
127.396
59.1528
35.1387
24.5781
19.2134
16.2849
14.7033
14.0024
14.0024
14.7033
16.2849
19.2134
24.578
35.1384
59.1522
127.395
356.29
944.958
942.243
355.823
128.402
59.8376
35.5727
24.8749
19.4319
16.4571
14.8493
14.1364
14.1364
14.8493
16.4571
19.4319
24.875
35.5728
59.838
128.402
355.822
942.243
939.54
355.241
129.34
60.5007
35.9966
25.1664
19.6475
16.628
14.9948
14.2703
14.2703
14.9948
16.628
19.6474
25.1663
35.9962
60.4999
129.338
355.241
939.54
936.819
354.509
130.246
61.1468
36.4106
25.4525
19.8603
16.7975
15.1397
14.404
14.404
15.1397
16.7975
19.8603
25.4526
36.4109
61.1475
130.247
354.507
936.82
934.146
353.719
131.105
61.7766
36.8156
25.7335
20.0702
16.9655
15.2839
14.5373
14.5373
15.2839
16.9654
20.0701
25.7333
36.8151
61.7755
131.103
353.719
934.146
931.464
352.875
131.98
62.3969
37.2118
26.0095
20.2773
17.132
15.4273
14.6702
14.6702
15.4273
17.132
20.2774
26.0097
37.2123
62.3979
131.982
352.873
931.465
928.861
352.023
132.876
63.0153
37.6006
26.2807
20.4817
17.2969
15.5699
14.8026
14.8026
15.5699
17.2969
20.4815
26.2804
37.6
63.0139
132.874
352.023
928.861
926.332
351.165
133.819
63.6359
37.9825
26.5472
20.6832
17.4603
15.7115
14.9344
14.9344
15.7116
17.4603
20.6834
26.5475
37.9832
63.6372
133.82
351.164
926.332
923.873
350.422
134.847
64.2666
38.3596
26.8096
20.8821
17.622
15.8522
15.0654
15.0654
15.8522
17.6219
20.8819
26.8091
38.3588
64.2651
134.845
350.422
923.873
921.483
349.753
135.97
64.9092
38.7321
27.0676
21.0782
17.7821
15.9919
15.1958
15.1958
15.9919
17.7822
21.0785
27.0681
38.733
64.9107
135.971
349.753
921.483
919.157
349.293
137.196
65.5679
39.1025
27.3224
21.2719
17.9405
16.1304
15.3253
15.3253
16.1304
17.9404
21.2717
27.3219
39.1015
65.5666
137.195
349.294
919.156
916.895
348.942
138.525
66.243
39.4703
27.5735
21.463
18.0973
16.2679
15.454
15.454
16.268
18.0974
21.4633
27.5741
39.4713
66.2444
138.526
348.942
916.895
914.695
348.851
139.944
66.9361
39.8383
27.8221
21.6518
18.2524
16.4042
15.5817
15.5817
16.4041
18.2522
21.6515
27.8215
39.8375
66.9353
139.945
348.853
914.694
912.558
348.916
141.455
67.6456
40.2052
28.0675
21.8383
18.4059
16.5393
15.7086
15.7086
16.5394
18.4061
21.8387
28.0684
40.2067
67.6477
141.456
348.918
912.558
910.481
349.098
143.033
68.3758
40.5751
28.3117
22.0228
18.5578
16.6732
15.8343
15.8343
16.6731
18.5576
22.0224
28.3108
40.5736
68.374
143.033
349.101
910.48
908.468
349.47
144.662
69.1145
40.9428
28.5526
22.2049
18.708
16.8059
15.9592
15.9592
16.8061
18.7085
22.2058
28.5542
40.9457
69.1192
144.669
349.471
908.468
906.516
349.989
146.357
69.8795
41.317
28.7936
22.3858
18.8568
16.9373
16.0828
16.0827
16.9372
18.8565
22.3851
28.7923
41.3149
69.8767
146.355
350
906.512
904.625
350.63
148.058
70.6441
41.6883
29.0315
22.5642
19.004
17.0677
16.2056
16.2057
17.068
19.0047
22.5655
29.0339
41.6921
70.65
148.068
350.632
904.625
902.799
351.374
149.823
71.4353
42.066
29.2696
22.7414
19.1497
17.1965
16.3269
16.3269
17.1964
19.1494
22.7407
29.2685
42.0647
71.4353
149.826
351.393
902.792
901.029
352.211
151.565
72.228
42.445
29.5069
22.9172
19.2943
17.3245
16.4476
16.4478
17.3249
19.2952
22.9188
29.5096
42.4486
72.2319
151.571
352.215
901.027
899.328
353.111
153.345
73.0322
42.8239
29.7418
23.0907
19.4368
17.4507
16.5666
16.5666
17.4506
19.4366
23.0904
29.7417
42.8257
73.0409
153.365
353.144
899.315
897.677
354.087
155.108
73.8517
43.2121
29.9796
23.2645
19.5789
17.5764
16.6852
16.6854
17.5771
19.5802
23.2667
29.9828
43.2155
73.8516
155.104
354.095
897.672
896.097
355.086
156.864
74.6619
43.5928
30.2123
23.435
19.7185
17.7001
16.8018
16.8018
17.7001
19.7186
23.4351
30.2134
43.5981
74.682
156.908
355.141
896.077
894.565
356.15
158.624
75.4993
43.9875
30.4499
23.6065
19.8582
17.8235
16.9183
16.9187
17.8246
19.8603
23.6101
30.4551
43.9935
75.5
158.614
356.172
894.551
893.101
357.206
160.339
76.3168
44.3725
30.682
23.7747
19.9952
17.9446
17.0324
17.0325
17.9447
19.9955
23.7753
30.6841
44.3812
76.3485
160.412
357.293