/*--------------------------------*- C++ -*----------------------------------*\
| =========                 |                                                 |
| \\      /  F ield         | OpenFOAM: The Open Source CFD Toolbox           |
|  \\    /   O peration     | Version:  2.1.0                                 |
|   \\  /    A nd           | Web:      www.OpenFOAM.org                      |
|    \\/     M anipulation  |                                                 |
\*---------------------------------------------------------------------------*/
FoamFile
{
    version     2.0;
    format      ascii;
    class       volScalarField;
    location    "0.28";
    object      p;
}
// * * * * * * * * * * * * * * * * * * * * * * * * * * * * * * * * * * * * * //

dimensions      [1 -1 -2 0 0 0 0];

internalField   nonuniform List<scalar> 
6400
(
99997.8
99995.3
99993.6
99992.2
99990.9
99989.7
99988.5
99987.3
99986
99984.7
99983.4
99982
99980.6
99979.1
99977.6
99976
99974.4
99972.6
99970.8
99968.9
99967
99964.9
99962.8
99960.6
99958.3
99955.9
99953.5
99950.9
99948.2
99945.5
99942.6
99939.6
99936.5
99933.3
99930
99926.5
99922.9
99919.2
99915.4
99911.4
99907.3
99903.1
99898.7
99894.1
99889.4
99884.6
99879.5
99874.3
99868.9
99863.3
99857.6
99851.6
99845.5
99839.1
99832.6
99825.8
99818.8
99811.6
99804.2
99796.5
99788.6
99780.3
99771.8
99763.1
99754
99744.6
99734.8
99724.7
99714.3
99703.5
99692.3
99680.7
99668.6
99656.2
99643.2
99629.8
99615.8
99601.3
99586.3
99570.6
99554.2
99537
99518.9
99499.8
99479.4
99457.6
99434
99408.2
99379.8
99348.6
99314.6
99278.8
99243.5
99210
99178.5
99142.2
99084.8
98969.6
98599
96993.7
99996.1
99994.7
99993.2
99991.8
99990.6
99989.3
99988.1
99986.9
99985.7
99984.4
99983.1
99981.7
99980.3
99978.8
99977.2
99975.6
99974
99972.2
99970.4
99968.5
99966.5
99964.5
99962.4
99960.2
99957.9
99955.5
99953
99950.4
99947.8
99945
99942.1
99939.1
99936
99932.8
99929.5
99926
99922.4
99918.7
99914.9
99910.9
99906.8
99902.5
99898.1
99893.6
99888.9
99884
99878.9
99873.7
99868.3
99862.8
99857
99851.1
99845
99838.6
99832.1
99825.3
99818.4
99811.2
99803.8
99796.1
99788.2
99780
99771.5
99762.7
99753.6
99744.3
99734.5
99724.5
99714.1
99703.3
99692.1
99680.5
99668.5
99656.1
99643.2
99629.8
99615.8
99601.4
99586.3
99570.6
99554.2
99537
99518.9
99499.8
99479.4
99457.6
99434
99408.3
99380.1
99349.1
99315.4
99279.9
99244.6
99211.4
99182.5
99151.8
99100.5
98999.8
98699.5
98146.7
99994.7
99993.9
99992.7
99991.5
99990.3
99989.1
99987.9
99986.7
99985.5
99984.2
99982.9
99981.5
99980.1
99978.6
99977.1
99975.5
99973.8
99972
99970.2
99968.3
99966.4
99964.3
99962.2
99960
99957.7
99955.3
99952.8
99950.3
99947.6
99944.8
99941.9
99938.9
99935.8
99932.6
99929.3
99925.9
99922.3
99918.6
99914.8
99910.8
99906.7
99902.4
99898.1
99893.5
99888.8
99884
99879
99873.8
99868.5
99862.9
99857.2
99851.3
99845.2
99838.9
99832.4
99825.7
99818.8
99811.6
99804.3
99796.6
99788.7
99780.6
99772.1
99763.4
99754.4
99745.1
99735.4
99725.4
99715.1
99704.4
99693.3
99681.8
99669.9
99657.6
99644.7
99631.4
99617.6
99603.3
99588.3
99572.7
99556.4
99539.3
99521.3
99502.2
99481.9
99460.2
99436.7
99411.2
99383.4
99353.1
99320.5
99286.8
99253.9
99223.9
99198.6
99171.1
99135.5
99073.7
98917.9
99008.7
99992.9
99993.1
99992.3
99991.3
99990.2
99989.1
99988
99986.8
99985.6
99984.3
99983
99981.6
99980.2
99978.7
99977.2
99975.6
99974
99972.2
99970.4
99968.5
99966.6
99964.6
99962.4
99960.2
99958
99955.6
99953.1
99950.6
99947.9
99945.1
99942.3
99939.3
99936.2
99933
99929.7
99926.3
99922.7
99919.1
99915.3
99911.3
99907.3
99903
99898.7
99894.2
99889.5
99884.7
99879.8
99874.6
99869.3
99863.9
99858.2
99852.3
99846.3
99840
99833.6
99826.9
99820
99812.9
99805.6
99798
99790.2
99782.1
99773.7
99765
99756.1
99746.8
99737.2
99727.2
99717
99706.3
99695.2
99683.8
99671.9
99659.5
99646.7
99633.4
99619.5
99605.1
99590.1
99574.3
99557.9
99540.6
99522.4
99503.2
99482.7
99460.8
99437.3
99411.8
99384.3
99354.8
99323.8
99292.8
99264
99239.2
99220.4
99207.8
99202.5
99207.4
99234.4
99655.1
99990.9
99992.2
99992
99991.2
99990.3
99989.3
99988.2
99987.1
99985.9
99984.6
99983.3
99982
99980.6
99979.1
99977.6
99976
99974.4
99972.7
99970.9
99969.1
99967.1
99965.1
99963
99960.8
99958.5
99956.2
99953.7
99951.2
99948.6
99945.8
99943
99940
99937
99933.8
99930.5
99927.1
99923.6
99920
99916.2
99912.3
99908.2
99904
99899.7
99895.2
99890.6
99885.8
99880.9
99875.7
99870.5
99865
99859.4
99853.5
99847.5
99841.3
99834.8
99828.2
99821.3
99814.2
99806.9
99799.3
99791.5
99783.4
99775
99766.4
99757.4
99748.1
99738.4
99728.5
99718.1
99707.4
99696.3
99684.8
99672.8
99660.4
99647.5
99634
99620.1
99605.5
99590.3
99574.4
99557.8
99540.3
99521.9
99502.5
99481.8
99459.8
99436.2
99410.9
99384
99355.6
99326.7
99299.2
99275.8
99258.4
99251.1
99260.8
99298
99390.3
99588.9
100165
99989
99991.3
99991.6
99991.2
99990.5
99989.6
99988.6
99987.5
99986.4
99985.1
99983.9
99982.5
99981.1
99979.7
99978.2
99976.6
99975
99973.3
99971.5
99969.6
99967.7
99965.7
99963.6
99961.5
99959.2
99956.9
99954.4
99951.9
99949.3
99946.6
99943.7
99940.8
99937.8
99934.6
99931.3
99928
99924.4
99920.8
99917
99913.1
99909.1
99904.9
99900.5
99896.1
99891.4
99886.6
99881.7
99876.6
99871.3
99865.8
99860.1
99854.3
99848.3
99842
99835.6
99828.9
99822
99814.9
99807.5
99799.9
99792.1
99783.9
99775.5
99766.8
99757.8
99748.5
99738.8
99728.8
99718.5
99707.7
99696.5
99685
99672.9
99660.5
99647.5
99633.9
99619.9
99605.2
99589.8
99573.8
99557
99539.3
99520.7
99501
99480.1
99457.9
99434.3
99409.2
99382.9
99355.9
99329.3
99305.6
99288.1
99279.3
99286.6
99323.3
99409.9
99594.8
99929.7
100565
99987.4
99990.4
99991.2
99991.2
99990.7
99989.9
99989
99987.9
99986.8
99985.6
99984.3
99983
99981.6
99980.1
99978.6
99977
99975.4
99973.7
99971.9
99970.1
99968.2
99966.2
99964.1
99961.9
99959.6
99957.3
99954.9
99952.4
99949.7
99947
99944.2
99941.2
99938.2
99935
99931.7
99928.3
99924.8
99921.1
99917.4
99913.4
99909.4
99905.2
99900.8
99896.3
99891.7
99886.9
99881.9
99876.8
99871.5
99866
99860.3
99854.5
99848.4
99842.2
99835.7
99829
99822.1
99815
99807.6
99800
99792.1
99784
99775.6
99766.9
99757.9
99748.5
99738.9
99728.9
99718.5
99707.7
99696.5
99684.9
99672.9
99660.3
99647.3
99633.7
99619.5
99604.7
99589.2
99573
99556
99538.1
99519.2
99499.2
99478.1
99455.7
99432.1
99407.2
99381.5
99355.8
99331.4
99311.2
99299.3
99299.4
99322
99386.2
99522.2
99791.2
100223
100868
99986.1
99989.7
99990.8
99991
99990.7
99990
99989.1
99988.1
99987
99985.8
99984.5
99983.2
99981.7
99980.3
99978.8
99977.2
99975.6
99973.9
99972.1
99970.3
99968.3
99966.3
99964.2
99962.1
99959.8
99957.4
99955
99952.5
99949.8
99947.1
99944.2
99941.3
99938.2
99935
99931.7
99928.3
99924.7
99921.1
99917.3
99913.3
99909.2
99905
99900.7
99896.2
99891.5
99886.7
99881.7
99876.6
99871.3
99865.8
99860.2
99854.3
99848.3
99842
99835.6
99828.9
99822
99814.9
99807.6
99800
99792.1
99783.9
99775.6
99766.9
99757.9
99748.5
99738.9
99728.9
99718.5
99707.7
99696.5
99684.9
99672.8
99660.2
99647.1
99633.4
99619.2
99604.2
99588.6
99572.2
99555
99536.9
99517.7
99497.4
99476.1
99453.6
99429.8
99405.2
99380
99355.3
99332.8
99315.5
99308.1
99316.1
99351.9
99440.5
99619.2
99955.2
100449
101084
99985.3
99989.1
99990.5
99990.8
99990.6
99990
99989.1
99988.1
99987
99985.8
99984.5
99983.2
99981.7
99980.2
99978.7
99977.2
99975.5
99973.8
99972
99970.2
99968.2
99966.2
99964.1
99961.9
99959.7
99957.3
99954.8
99952.3
99949.6
99946.9
99944
99941
99937.9
99934.7
99931.4
99928
99924.4
99920.8
99917
99913
99908.9
99904.7
99900.4
99895.9
99891.2
99886.4
99881.5
99876.4
99871.1
99865.6
99860
99854.1
99848.1
99841.9
99835.5
99828.8
99822
99814.9
99807.5
99799.9
99792.1
99784
99775.6
99766.9
99757.9
99748.6
99739
99729
99718.6
99707.8
99696.6
99685
99672.8
99660.2
99647
99633.3
99618.9
99603.9
99588.1
99571.5
99554.1
99535.7
99516.3
99495.8
99474.2
99451.5
99427.6
99403
99378.2
99354.3
99333.1
99317.9
99313.6
99327.5
99373.6
99479.3
99688.6
100070
100600
101221
99985
99988.8
99990.2
99990.7
99990.5
99989.9
99989.1
99988.1
99987
99985.8
99984.5
99983.1
99981.6
99980.1
99978.6
99977
99975.4
99973.7
99971.9
99970
99968.1
99966
99963.9
99961.7
99959.5
99957.1
99954.6
99952.1
99949.4
99946.7
99943.8
99940.8
99937.8
99934.6
99931.3
99927.8
99924.3
99920.6
99916.8
99912.9
99908.8
99904.6
99900.3
99895.8
99891.1
99886.3
99881.4
99876.3
99871
99865.6
99859.9
99854.1
99848.1
99841.9
99835.5
99828.9
99822
99815
99807.6
99800.1
99792.2
99784.1
99775.7
99767.1
99758.1
99748.8
99739.2
99729.2
99718.8
99708
99696.8
99685.1
99673
99660.3
99647.1
99633.3
99618.8
99603.7
99587.7
99571
99553.4
99534.8
99515.1
99494.2
99472.5
99449.6
99425.6
99400.9
99376.3
99352.8
99332.4
99318.2
99315.5
99332.5
99384.2
99498.7
99723.2
100127
100673
101289
99984.9
99988.8
99990.3
99990.7
99990.5
99990
99989.2
99988.2
99987.1
99985.9
99984.7
99983.3
99982
99980.5
99979
99977.3
99975.6
99973.9
99972.1
99970.2
99968.2
99966.2
99964.1
99961.9
99959.6
99957.2
99954.8
99952.2
99949.5
99946.8
99943.9
99940.9
99937.9
99934.7
99931.4
99927.9
99924.4
99920.7
99916.9
99913
99908.9
99904.7
99900.3
99895.9
99891.2
99886.4
99881.5
99876.4
99871.1
99865.7
99860.1
99854.3
99848.3
99842.1
99835.7
99829.1
99822.3
99815.2
99807.9
99800.4
99792.6
99784.5
99776.1
99767.4
99758.5
99749.2
99739.5
99729.5
99719.2
99708.4
99697.2
99685.5
99673.3
99660.6
99647.3
99633.4
99618.9
99603.6
99587.6
99570.7
99552.9
99534.1
99514.2
99493.4
99471.1
99447.9
99423.6
99398.8
99374.1
99350.7
99330.4
99316.3
99313.6
99330.7
99382.7
99497.1
99720.7
100123
100669
101284
99985.2
99989.1
99990.5
99990.9
99990.7
99990.1
99989.3
99988.3
99987.2
99986
99984.7
99983.4
99982.1
99980.6
99979.1
99977.5
99975.8
99974.1
99972.3
99970.4
99968.5
99966.5
99964.4
99962.2
99960
99957.6
99955.2
99952.6
99950
99947.3
99944.4
99941.5
99938.4
99935.2
99931.9
99928.5
99925
99921.3
99917.6
99913.6
99909.6
99905.4
99901
99896.5
99891.9
99887.1
99882.1
99877
99871.7
99866.2
99860.6
99854.8
99848.7
99842.5
99836.1
99829.5
99822.7
99815.6
99808.3
99800.8
99793
99784.9
99776.5
99767.9
99758.9
99749.6
99740
99730
99719.6
99708.8
99697.6
99685.9
99673.7
99660.9
99647.6
99633.6
99619
99603.6
99587.4
99570.4
99552.4
99533.4
99513.3
99492.1
99469.7
99446.1
99421.5
99396.3
99371.3
99347.5
99326.7
99311.7
99307.5
99321.8
99368.7
99473.4
99679.8
100057
100585
101206
99986.1
99989.7
99990.9
99991.1
99990.7
99990.1
99989.2
99988.2
99987.1
99985.9
99984.7
99983.4
99982
99980.5
99979
99977.4
99975.8
99974
99972.3
99970.4
99968.5
99966.5
99964.4
99962.3
99960
99957.7
99955.3
99952.8
99950.1
99947.4
99944.6
99941.7
99938.6
99935.5
99932.2
99928.8
99925.3
99921.6
99917.9
99913.9
99909.9
99905.7
99901.4
99896.9
99892.3
99887.5
99882.5
99877.4
99872.1
99866.7
99861
99855.2
99849.2
99843
99836.5
99829.9
99823.1
99816
99808.7
99801.2
99793.4
99785.3
99777
99768.3
99759.3
99750
99740.4
99730.4
99720
99709.2
99698
99686.3
99674
99661.2
99647.9
99633.9
99619.1
99603.7
99587.4
99570.2
99552
99532.8
99512.5
99491.1
99468.4
99444.5
99419.5
99393.9
99368.3
99343.8
99321.9
99305.2
99298
99307
99344
99430.6
99605
99934.3
100425
101060
99987.5
99990.5
99991.3
99991.2
99990.7
99989.9
99989
99988
99986.8
99985.6
99984.4
99983.1
99981.7
99980.2
99978.7
99977.1
99975.5
99973.8
99972
99970.1
99968.2
99966.2
99964.2
99962
99959.8
99957.5
99955.1
99952.5
99949.9
99947.2
99944.4
99941.5
99938.5
99935.3
99932.1
99928.7
99925.2
99921.5
99917.8
99913.9
99909.9
99905.7
99901.4
99896.9
99892.3
99887.5
99882.6
99877.5
99872.3
99866.8
99861.2
99855.4
99849.4
99843.2
99836.8
99830.2
99823.4
99816.3
99809.1
99801.5
99793.7
99785.7
99777.3
99768.7
99759.7
99750.4
99740.8
99730.8
99720.4
99709.7
99698.4
99686.7
99674.4
99661.7
99648.2
99634.2
99619.4
99603.9
99587.5
99570.2
99551.9
99532.5
99512
99490.3
99467.4
99443.2
99417.8
99391.7
99365.3
99339.8
99316.5
99297.6
99286.1
99287.9
99311.5
99373.6
99504.3
99765
100190
100834
99989.2
99991.4
99991.7
99991.3
99990.5
99989.7
99988.7
99987.6
99986.4
99985.2
99983.9
99982.6
99981.2
99979.7
99978.2
99976.6
99974.9
99973.2
99971.4
99969.6
99967.7
99965.7
99963.6
99961.4
99959.2
99956.9
99954.4
99951.9
99949.3
99946.6
99943.8
99940.9
99937.8
99934.7
99931.4
99928.1
99924.6
99920.9
99917.2
99913.3
99909.3
99905.2
99900.9
99896.4
99891.9
99887.1
99882.2
99877.2
99871.9
99866.5
99860.9
99855.2
99849.2
99843
99836.7
99830.1
99823.3
99816.3
99809.1
99801.6
99793.8
99785.8
99777.5
99768.9
99760
99750.7
99741.1
99731.2
99720.8
99710
99698.8
99687.1
99674.9
99662.1
99648.7
99634.6
99619.8
99604.2
99587.7
99570.3
99551.9
99532.4
99511.8
99489.9
99466.6
99442.1
99416.4
99389.6
99362.3
99335.5
99310.5
99288.8
99272.7
99266.7
99275.4
99309.9
99390.7
99566.3
99891.8
100523
99991.1
99992.3
99992.1
99991.3
99990.4
99989.4
99988.3
99987.2
99986
99984.7
99983.4
99982.1
99980.7
99979.2
99977.6
99976
99974.4
99972.6
99970.8
99969
99967
99965
99962.9
99960.7
99958.5
99956.1
99953.7
99951.2
99948.6
99945.8
99943
99940
99937
99933.8
99930.5
99927.2
99923.6
99920
99916.2
99912.4
99908.3
99904.2
99899.9
99895.4
99890.9
99886.1
99881.2
99876.2
99871
99865.6
99860
99854.3
99848.3
99842.2
99835.9
99829.3
99822.6
99815.6
99808.4
99801
99793.3
99785.3
99777
99768.5
99759.6
99750.4
99740.9
99731
99720.7
99709.9
99698.8
99687.1
99674.9
99662.1
99648.7
99634.6
99619.8
99604.2
99587.7
99570.3
99551.8
99532.2
99511.4
99489.4
99466
99441.2
99415.1
99387.7
99359.5
99331.3
99304.3
99279.9
99260.3
99246.3
99240.4
99248.2
99279.5
99362.3
99549.2
100117
99993.1
99993.2
99992.5
99991.4
99990.4
99989.2
99988.1
99986.9
99985.7
99984.4
99983.1
99981.8
99980.3
99978.8
99977.3
99975.7
99974
99972.2
99970.4
99968.5
99966.6
99964.6
99962.5
99960.3
99958
99955.6
99953.1
99950.6
99947.9
99945.2
99942.3
99939.3
99936.3
99933.1
99929.8
99926.4
99922.8
99919.2
99915.4
99911.5
99907.4
99903.2
99898.9
99894.4
99889.8
99885
99880.1
99875
99869.8
99864.4
99858.8
99853
99847.1
99840.9
99834.6
99828
99821.3
99814.3
99807.1
99799.6
99791.9
99783.9
99775.7
99767.1
99758.3
99749.1
99739.6
99729.7
99719.5
99708.8
99697.6
99686
99673.9
99661.1
99647.8
99633.8
99619
99603.4
99587
99569.5
99551.1
99531.4
99510.6
99488.5
99465
99440
99413.5
99385.7
99356.7
99327.1
99298.2
99271.3
99248.2
99228.7
99211.3
99196.8
99186.1
99181.9
99195.8
99601.2
99994.9
99994.1
99992.9
99991.7
99990.5
99989.3
99988.1
99986.9
99985.7
99984.4
99983.1
99981.7
99980.3
99978.7
99977.2
99975.6
99973.9
99972.1
99970.3
99968.4
99966.5
99964.4
99962.3
99960.1
99957.8
99955.4
99952.9
99950.3
99947.7
99944.9
99942
99939
99935.9
99932.7
99929.4
99926
99922.4
99918.7
99914.9
99911
99906.9
99902.7
99898.4
99893.9
99889.2
99884.4
99879.5
99874.4
99869.1
99863.6
99858
99852.2
99846.2
99840
99833.6
99827
99820.2
99813.1
99805.9
99798.4
99790.6
99782.6
99774.3
99765.7
99756.8
99747.6
99738
99728.1
99717.7
99707
99695.8
99684.1
99671.9
99659.2
99645.8
99631.7
99616.9
99601.3
99584.8
99567.3
99548.8
99529.2
99508.3
99486.1
99462.6
99437.5
99410.8
99382.7
99353.1
99322.7
99292.3
99263.6
99237.9
99215.9
99191.5
99161.7
99121.4
99051.2
98882
98947.7
99996.3
99994.9
99993.4
99992
99990.7
99989.5
99988.3
99987.1
99985.9
99984.6
99983.3
99981.9
99980.4
99978.9
99977.4
99975.7
99974.1
99972.3
99970.5
99968.6
99966.6
99964.6
99962.5
99960.3
99958
99955.6
99953.1
99950.5
99947.8
99945.1
99942.2
99939.2
99936.1
99932.9
99929.6
99926.2
99922.6
99918.9
99915.1
99911.1
99907.1
99902.9
99898.5
99894
99889.3
99884.5
99879.6
99874.4
99869.2
99863.7
99858
99852.2
99846.2
99840
99833.5
99826.9
99820
99812.9
99805.6
99798.1
99790.3
99782.2
99773.9
99765.2
99756.3
99747
99737.4
99727.4
99717
99706.2
99694.9
99683.2
99670.9
99658
99644.5
99630.3
99615.4
99599.6
99582.9
99565.3
99546.5
99526.7
99505.6
99483.1
99459.2
99433.8
99406.7
99378
99347.7
99316.3
99284.6
99254.1
99225.8
99200.9
99177.6
99143.9
99087.7
98979
98665.6
98072.6
99997.9
99995.5
99993.8
99992.4
99991.1
99989.9
99988.7
99987.5
99986.2
99984.9
99983.6
99982.2
99980.8
99979.3
99977.7
99976.1
99974.4
99972.7
99970.9
99969
99967
99965
99962.9
99960.7
99958.4
99956
99953.6
99951
99948.3
99945.5
99942.7
99939.7
99936.6
99933.4
99930.1
99926.7
99923.1
99919.4
99915.6
99911.7
99907.6
99903.4
99899.1
99894.6
99889.9
99885.1
99880.2
99875.1
99869.8
99864.3
99858.7
99852.9
99846.9
99840.6
99834.2
99827.6
99820.7
99813.7
99806.4
99798.8
99791
99782.9
99774.6
99765.9
99756.9
99747.6
99738
99728
99717.6
99706.8
99695.5
99683.7
99671.4
99658.5
99645
99630.8
99615.8
99600
99583.3
99565.6
99546.8
99526.9
99505.7
99483.2
99459.2
99433.7
99406.5
99377.7
99347.2
99315.6
99283.9
99253.5
99225.1
99199.3
99164.7
99126.4
99066.6
98946.7
98565.2
96900.2
100570
101845
102387
102697
102908
103066
103191
103291
103373
103440
103496
103541
103577
103607
103629
103646
103657
103663
103664
103660
100525
101550
102183
102582
102849
103041
103185
103298
103388
103460
103518
103565
103602
103630
103652
103667
103676
103679
103679
103671
100812
101581
102126
102523
102809
103019
103178
103300
103397
103473
103534
103581
103618
103646
103666
103680
103688
103690
103689
103677
101088
101714
102175
102536
102813
103025
103188
103315
103415
103493
103554
103602
103638
103664
103683
103694
103700
103701
103698
103682
101324
101856
102259
102585
102844
103049
103211
103338
103438
103517
103577
103624
103658
103683
103699
103708
103712
103711
103706
103685
101524
101987
102349
102647
102890
103086
103243
103367
103466
103543
103602
103646
103679
103701
103714
103721
103722
103720
103712
103687
101685
102100
102433
102710
102939
103126
103277
103398
103494
103569
103627
103669
103699
103718
103729
103733
103732
103727
103716
103688
101807
102188
102500
102763
102982
103162
103309
103427
103521
103594
103650
103691
103718
103735
103742
103744
103740
103734
103720
103690
101888
102249
102549
102803
103015
103191
103335
103452
103545
103617
103671
103710
103735
103749
103754
103753
103748
103739
103722
103693
101932
102284
102578
102827
103037
103211
103354
103470
103562
103633
103686
103724
103747
103759
103763
103760
103753
103743
103723
103698
101928
102280
102575
102824
103034
103208
103351
103467
103559
103631
103684
103722
103746
103758
103761
103759
103752
103742
103724
103697
101876
102238
102538
102793
103006
103183
103327
103445
103538
103611
103666
103705
103731
103746
103751
103751
103746
103737
103721
103696
101787
102171
102484
102748
102968
103149
103297
103417
103512
103587
103643
103685
103713
103731
103739
103741
103738
103732
103718
103695
101658
102076
102410
102689
102920
103109
103262
103385
103483
103560
103619
103662
103693
103714
103725
103730
103730
103725
103715
103692
101491
101957
102322
102622
102868
103066
103226
103353
103453
103532
103593
103639
103673
103696
103710
103718
103720
103717
103710
103688
101286
101820
102227
102556
102819
103027
103192
103322
103425
103505
103568
103616
103651
103677
103695
103705
103709
103708
103704
103685
101045
101675
102140
102505
102785
103001
103168
103298
103400
103480
103544
103593
103631
103659
103678
103691
103697
103699
103696
103682
100764
101537
102087
102490
102781
102995
103157
103283
103382
103460
103523
103572
103611
103640
103662
103676
103685
103688
103687
103677
100471
101503
102144
102550
102821
103017
103165
103280
103373
103447
103507
103555
103594
103624
103647
103663
103673
103677
103677
103670
100515
101801
102350
102665
102881
103043
103170
103273
103358
103427
103484
103531
103569
103600
103624
103641
103653
103660
103662
103659
103502
103500
103499
103498
103497
103497
103496
103496
103496
103496
103496
103496
103496
103496
103497
103497
103498
103499
103500
103502
103499
103497
103496
103496
103495
103495
103495
103495
103495
103495
103495
103495
103495
103495
103495
103495
103496
103496
103497
103499
103498
103496
103495
103495
103495
103495
103495
103495
103495
103495
103495
103495
103495
103495
103495
103495
103495
103495
103496
103498
103498
103496
103496
103496
103496
103496
103496
103496
103496
103496
103496
103496
103496
103496
103496
103496
103496
103496
103496
103498
103497
103496
103496
103495
103495
103495
103495
103495
103495
103495
103495
103495
103495
103495
103495
103495
103495
103496
103496
103497
103497
103495
103495
103495
103495
103495
103495
103495
103495
103495
103495
103495
103495
103495
103495
103495
103495
103495
103495
103497
103496
103495
103494
103494
103494
103494
103494
103494
103494
103494
103494
103494
103494
103494
103494
103494
103494
103494
103495
103496
103496
103494
103494
103494
103494
103493
103493
103493
103493
103493
103493
103493
103493
103493
103493
103494
103494
103494
103494
103496
103495
103493
103493
103493
103493
103493
103493
103493
103493
103493
103493
103493
103493
103493
103493
103493
103493
103493
103493
103495
103494
103493
103492
103492
103492
103492
103492
103492
103492
103492
103492
103492
103492
103492
103492
103492
103492
103492
103493
103494
103494
103492
103492
103492
103492
103491
103491
103491
103491
103491
103491
103491
103491
103491
103491
103492
103492
103492
103492
103494
103493
103491
103491
103491
103491
103491
103491
103491
103491
103491
103491
103491
103491
103491
103491
103491
103491
103491
103491
103493
103492
103490
103490
103490
103490
103490
103490
103490
103490
103490
103490
103490
103490
103490
103490
103490
103490
103490
103490
103492
103491
103490
103490
103489
103489
103489
103489
103489
103489
103489
103489
103489
103489
103489
103489
103489
103489
103490
103490
103491
103490
103489
103489
103489
103489
103489
103489
103488
103488
103488
103488
103488
103488
103489
103489
103489
103489
103489
103489
103490
103490
103488
103488
103488
103488
103488
103488
103488
103488
103488
103488
103488
103488
103488
103488
103488
103488
103488
103488
103490
103489
103487
103487
103487
103487
103487
103487
103487
103487
103487
103487
103487
103487
103487
103487
103487
103487
103487
103487
103489
103488
103487
103487
103486
103486
103486
103486
103486
103486
103486
103486
103486
103486
103486
103486
103486
103486
103487
103487
103488
103487
103486
103486
103486
103486
103486
103485
103485
103485
103485
103485
103485
103485
103485
103486
103486
103486
103486
103486
103487
103486
103485
103485
103485
103485
103485
103485
103485
103485
103485
103485
103485
103485
103485
103485
103485
103485
103485
103485
103486
103486
103484
103484
103484
103484
103484
103484
103484
103484
103484
103484
103484
103484
103484
103484
103484
103484
103484
103484
103486
103485
103483
103483
103483
103483
103483
103483
103483
103483
103483
103483
103483
103483
103483
103483
103483
103483
103483
103483
103485
103484
103483
103483
103482
103482
103482
103482
103482
103482
103482
103482
103482
103482
103482
103482
103482
103482
103483
103483
103484
103483
103482
103482
103482
103482
103482
103482
103481
103481
103481
103481
103481
103481
103482
103482
103482
103482
103482
103482
103483
103482
103481
103481
103481
103481
103481
103481
103481
103481
103481
103481
103481
103481
103481
103481
103481
103481
103481
103481
103482
103481
103480
103480
103480
103480
103480
103480
103480
103480
103480
103480
103480
103480
103480
103480
103480
103480
103480
103480
103481
103481
103479
103479
103479
103479
103479
103479
103479
103479
103479
103479
103479
103479
103479
103479
103479
103479
103479
103479
103481
103480
103479
103478
103478
103478
103478
103478
103478
103478
103478
103478
103478
103478
103478
103478
103478
103478
103478
103479
103480
103479
103478
103478
103478
103478
103478
103477
103477
103477
103477
103477
103477
103477
103477
103478
103478
103478
103478
103478
103479
103478
103477
103477
103477
103477
103477
103477
103477
103477
103477
103477
103477
103477
103477
103477
103477
103477
103477
103477
103478
103477
103476
103476
103476
103476
103476
103476
103476
103476
103476
103476
103476
103476
103476
103476
103476
103476
103476
103476
103477
103476
103475
103475
103475
103475
103475
103475
103475
103475
103475
103475
103475
103475
103475
103475
103475
103475
103475
103475
103476
103475
103475
103474
103474
103474
103474
103474
103474
103474
103474
103474
103474
103474
103474
103474
103474
103474
103474
103475
103475
103475
103474
103474
103474
103474
103474
103474
103473
103473
103473
103473
103473
103473
103474
103474
103474
103474
103474
103474
103475
103474
103473
103473
103473
103473
103473
103473
103473
103473
103473
103473
103473
103473
103473
103473
103473
103473
103473
103473
103474
103473
103472
103472
103472
103472
103472
103472
103472
103472
103472
103472
103472
103472
103472
103472
103472
103472
103472
103472
103473
103472
103471
103471
103471
103471
103471
103471
103471
103471
103471
103471
103471
103471
103471
103471
103471
103471
103471
103471
103472
103471
103471
103471
103471
103470
103470
103470
103470
103470
103470
103470
103470
103470
103470
103470
103470
103471
103471
103471
103471
103470
103470
103470
103470
103470
103470
103470
103470
103470
103470
103470
103470
103470
103470
103470
103470
103470
103470
103470
103470
103470
103469
103469
103469
103469
103469
103469
103469
103469
103469
103469
103469
103469
103469
103469
103469
103469
103469
103469
103470
103469
103468
103468
103468
103468
103468
103468
103468
103468
103468
103468
103468
103468
103468
103468
103468
103468
103468
103468
103469
103468
103468
103467
103467
103467
103467
103467
103467
103467
103467
103467
103467
103467
103467
103467
103467
103467
103467
103468
103468
103467
103467
103467
103467
103467
103467
103467
103467
103467
103467
103467
103467
103467
103467
103467
103467
103467
103467
103467
103467
103466
103466
103466
103466
103466
103466
103466
103466
103466
103466
103466
103466
103466
103466
103466
103466
103466
103466
103466
103466
103466
103465
103465
103465
103465
103465
103465
103465
103465
103465
103465
103465
103465
103465
103465
103465
103465
103465
103465
103466
103465
103465
103465
103464
103464
103464
103464
103464
103464
103464
103464
103464
103464
103464
103464
103464
103464
103465
103465
103465
103464
103464
103464
103464
103464
103464
103464
103464
103464
103464
103464
103464
103464
103464
103464
103464
103464
103464
103464
103464
103463
103463
103463
103463
103463
103463
103463
103463
103463
103463
103463
103463
103463
103463
103463
103463
103463
103463
103463
103463
103463
103462
103462
103462
103462
103462
103462
103462
103462
103462
103462
103462
103462
103462
103462
103462
103462
103462
103462
103463
103462
103462
103462
103462
103462
103461
103461
103461
103461
103461
103461
103461
103461
103461
103461
103462
103462
103462
103462
103462
103461
103461
103461
103461
103461
103461
103461
103461
103461
103461
103461
103461
103461
103461
103461
103461
103461
103461
103461
103461
103460
103460
103460
103460
103460
103460
103460
103460
103460
103460
103460
103460
103460
103460
103460
103460
103460
103460
103460
103460
103460
103460
103459
103459
103459
103459
103459
103459
103459
103459
103459
103459
103459
103459
103459
103459
103459
103459
103460
103460
103459
103459
103459
103459
103459
103459
103459
103459
103459
103459
103459
103459
103459
103459
103459
103459
103459
103459
103459
103459
103458
103458
103458
103458
103458
103458
103458
103458
103458
103458
103458
103458
103458
103458
103458
103458
103458
103458
103458
103458
103458
103457
103457
103457
103457
103457
103457
103457
103457
103457
103457
103457
103457
103457
103457
103457
103457
103457
103457
103458
103457
103457
103457
103457
103457
103457
103457
103457
103457
103457
103457
103457
103457
103457
103457
103457
103457
103457
103457
103457
103456
103456
103456
103456
103456
103456
103456
103456
103456
103456
103456
103456
103456
103456
103456
103456
103456
103456
103456
103456
103456
103455
103455
103455
103455
103455
103455
103455
103455
103455
103455
103455
103455
103455
103455
103455
103455
103455
103455
103456
103455
103455
103455
103455
103455
103455
103455
103455
103454
103454
103454
103454
103455
103455
103455
103455
103455
103455
103455
103455
103454
103454
103454
103454
103454
103454
103454
103454
103454
103454
103454
103454
103454
103454
103454
103454
103454
103454
103454
103454
103453
103453
103453
103453
103453
103453
103453
103453
103453
103453
103453
103453
103453
103453
103453
103453
103453
103453
103453
103453
103453
103453
103453
103453
103453
103453
103453
103453
103452
103452
103452
103453
103453
103453
103453
103453
103453
103453
103453
103453
103452
103452
103452
103452
103452
103452
103452
103452
103452
103452
103452
103452
103452
103452
103452
103452
103452
103452
103452
103452
103451
103451
103451
103451
103451
103451
103451
103451
103451
103451
103451
103451
103451
103451
103451
103451
103451
103451
103451
103451
103451
103451
103451
103451
103451
103451
103451
103451
103451
103451
103451
103451
103451
103451
103451
103451
103451
103451
103451
103451
103450
103450
103450
103450
103450
103450
103450
103450
103450
103450
103450
103450
103450
103450
103450
103450
103450
103450
103450
103450
103449
103449
103449
103449
103449
103449
103449
103449
103449
103449
103449
103449
103449
103449
103449
103449
103449
103449
103450
103450
103449
103449
103449
103449
103449
103449
103449
103449
103449
103449
103449
103449
103449
103449
103449
103449
103449
103449
103449
103449
103448
103448
103448
103448
103448
103448
103448
103448
103448
103448
103448
103448
103448
103448
103448
103448
103448
103448
103448
103448
103447
103447
103447
103447
103447
103447
103447
103447
103447
103447
103447
103447
103447
103447
103447
103448
103448
103448
103448
103448
103447
103447
103447
103447
103447
103447
103447
103447
103447
103447
103447
103447
103447
103447
103447
103447
103447
103447
103447
103447
103446
103446
103446
103446
103446
103446
103446
103446
103446
103446
103446
103446
103446
103446
103446
103446
103446
103447
103447
103447
103445
103445
103445
103445
103445
103445
103445
103445
103445
103445
103445
103446
103446
103446
103446
103446
103446
103446
103446
103446
103445
103445
103445
103445
103445
103445
103445
103445
103445
103445
103445
103445
103445
103445
103445
103445
103445
103445
103446
103446
103444
103444
103444
103444
103444
103444
103444
103444
103444
103444
103444
103444
103444
103445
103445
103445
103445
103445
103445
103445
103443
103443
103443
103443
103443
103443
103443
103443
103443
103444
103444
103444
103444
103444
103444
103444
103444
103445
103445
103445