/*--------------------------------*- C++ -*----------------------------------*\
| =========                 |                                                 |
| \\      /  F ield         | OpenFOAM: The Open Source CFD Toolbox           |
|  \\    /   O peration     | Version:  2.1.0                                 |
|   \\  /    A nd           | Web:      www.OpenFOAM.org                      |
|    \\/     M anipulation  |                                                 |
\*---------------------------------------------------------------------------*/
FoamFile
{
    version     2.0;
    format      ascii;
    class       surfaceScalarField;
    location    "0.28";
    object      phi;
}
// * * * * * * * * * * * * * * * * * * * * * * * * * * * * * * * * * * * * * //

dimensions      [0 3 -1 0 0 0 0];

internalField   nonuniform List<scalar> 
12460
(
-2.4708e-05
-8.59147e-10
-2.46763e-05
-3.45596e-08
-2.46231e-05
-5.61647e-08
-2.45594e-05
-6.69092e-08
-2.44898e-05
-7.3005e-08
-2.44164e-05
-7.69555e-08
-2.43406e-05
-7.96939e-08
-2.42628e-05
-8.17709e-08
-2.41836e-05
-8.34685e-08
-2.41031e-05
-8.49674e-08
-2.40215e-05
-8.63725e-08
-2.39388e-05
-8.77553e-08
-2.38548e-05
-8.91834e-08
-2.37697e-05
-9.06937e-08
-2.36832e-05
-9.23116e-08
-2.35952e-05
-9.40111e-08
-2.35058e-05
-9.5777e-08
-2.3415e-05
-9.75361e-08
-2.33225e-05
-9.93637e-08
-2.32285e-05
-1.01306e-07
-2.31327e-05
-1.03348e-07
-2.30351e-05
-1.05469e-07
-2.29355e-05
-1.07683e-07
-2.2834e-05
-1.09995e-07
-2.27303e-05
-1.12426e-07
-2.26243e-05
-1.14969e-07
-2.2516e-05
-1.1763e-07
-2.24052e-05
-1.20405e-07
-2.22917e-05
-1.23301e-07
-2.21755e-05
-1.26316e-07
-2.20564e-05
-1.29455e-07
-2.19343e-05
-1.32714e-07
-2.18091e-05
-1.36098e-07
-2.16805e-05
-1.39604e-07
-2.15485e-05
-1.43236e-07
-2.14129e-05
-1.46988e-07
-2.12737e-05
-1.50871e-07
-2.11305e-05
-1.54874e-07
-2.09834e-05
-1.59001e-07
-2.08321e-05
-1.63264e-07
-2.06765e-05
-1.67654e-07
-2.05164e-05
-1.72168e-07
-2.03518e-05
-1.76805e-07
-2.01825e-05
-1.81553e-07
-2.00083e-05
-1.86414e-07
-1.98292e-05
-1.91371e-07
-1.9645e-05
-1.96423e-07
-1.94557e-05
-2.01551e-07
-1.92612e-05
-2.06651e-07
-1.90614e-05
-2.1194e-07
-1.88559e-05
-2.17569e-07
-1.86446e-05
-2.23236e-07
-1.84279e-05
-2.28708e-07
-1.82057e-05
-2.33979e-07
-1.79783e-05
-2.39206e-07
-1.77454e-05
-2.44505e-07
-1.75071e-05
-2.4994e-07
-1.7263e-05
-2.55533e-07
-1.7013e-05
-2.61308e-07
-1.6757e-05
-2.67235e-07
-1.64948e-05
-2.73366e-07
-1.6226e-05
-2.7974e-07
-1.59505e-05
-2.86351e-07
-1.56679e-05
-2.93236e-07
-1.5378e-05
-3.00401e-07
-1.50804e-05
-3.07908e-07
-1.47747e-05
-3.15794e-07
-1.44605e-05
-3.24097e-07
-1.41374e-05
-3.32838e-07
-1.38049e-05
-3.4206e-07
-1.34625e-05
-3.51828e-07
-1.31094e-05
-3.62188e-07
-1.27452e-05
-3.73227e-07
-1.23689e-05
-3.85027e-07
-1.19798e-05
-3.97704e-07
-1.15767e-05
-4.11393e-07
-1.11587e-05
-4.26257e-07
-1.07242e-05
-4.42511e-07
-1.02715e-05
-4.60445e-07
-9.79872e-06
-4.80414e-07
-9.30326e-06
-5.02848e-07
-8.7821e-06
-5.28313e-07
-8.2315e-06
-5.57485e-07
-7.6471e-06
-5.91007e-07
-7.02411e-06
-6.29271e-07
-6.35753e-06
-6.725e-07
-5.64266e-06
-7.20388e-07
-4.8763e-06
-7.71411e-07
-4.05916e-06
-8.21683e-07
-3.20039e-06
-8.62715e-07
-2.32639e-06
-8.7728e-07
-1.49797e-06
-8.30943e-07
-8.2182e-07
-6.77892e-07
-4.10633e-07
-4.12154e-07
-2.97733e-07
-1.13729e-07
-5.43952e-07
2.43578e-07
-1.4379e-06
8.8661e-07
-3.73056e-06
2.28602e-06
-9.29394e-06
5.56104e-06
1.54785e-05
-2.47734e-05
-2.98733e-05
-1.61302e-08
-2.98326e-05
-8.12947e-08
-2.97791e-05
-1.16208e-07
-2.97179e-05
-1.34872e-07
-2.96522e-05
-1.45942e-07
-2.95835e-05
-1.53183e-07
-2.95129e-05
-1.58227e-07
-2.9441e-05
-1.62066e-07
-2.9368e-05
-1.65224e-07
-2.92941e-05
-1.68034e-07
-2.92194e-05
-1.70699e-07
-2.91438e-05
-1.73353e-07
-2.90673e-05
-1.76122e-07
-2.89898e-05
-1.7907e-07
-2.89113e-05
-1.82231e-07
-2.88315e-05
-1.85527e-07
-2.87506e-05
-1.88947e-07
-2.86685e-05
-1.92299e-07
-2.85853e-05
-1.95715e-07
-2.85009e-05
-1.99337e-07
-2.84151e-05
-2.03105e-07
-2.8328e-05
-2.07011e-07
-2.82395e-05
-2.11074e-07
-2.81495e-05
-2.15315e-07
-2.80579e-05
-2.19766e-07
-2.79646e-05
-2.24417e-07
-2.78694e-05
-2.29265e-07
-2.77724e-05
-2.34313e-07
-2.76733e-05
-2.39561e-07
-2.75722e-05
-2.4501e-07
-2.74688e-05
-2.50662e-07
-2.73632e-05
-2.56511e-07
-2.72551e-05
-2.62561e-07
-2.71446e-05
-2.68806e-07
-2.70315e-05
-2.75246e-07
-2.69157e-05
-2.81869e-07
-2.67971e-05
-2.88685e-07
-2.66758e-05
-2.95673e-07
-2.65515e-05
-3.02826e-07
-2.64243e-05
-3.10174e-07
-2.6294e-05
-3.17703e-07
-2.61606e-05
-3.25414e-07
-2.60239e-05
-3.33314e-07
-2.5884e-05
-3.41386e-07
-2.57406e-05
-3.49651e-07
-2.55938e-05
-3.5809e-07
-2.54434e-05
-3.6671e-07
-2.52892e-05
-3.75502e-07
-2.51313e-05
-3.84286e-07
-2.49699e-05
-3.92979e-07
-2.48054e-05
-4.01598e-07
-2.46381e-05
-4.10125e-07
-2.44677e-05
-4.18579e-07
-2.42941e-05
-4.26933e-07
-2.41173e-05
-4.3525e-07
-2.39373e-05
-4.43644e-07
-2.37541e-05
-4.52194e-07
-2.35676e-05
-4.60929e-07
-2.33778e-05
-4.69911e-07
-2.31845e-05
-4.79147e-07
-2.29876e-05
-4.88672e-07
-2.27872e-05
-4.98508e-07
-2.2583e-05
-5.08651e-07
-2.2375e-05
-5.19135e-07
-2.21632e-05
-5.29986e-07
-2.19475e-05
-5.41274e-07
-2.17276e-05
-5.53056e-07
-2.15035e-05
-5.65421e-07
-2.12749e-05
-5.7843e-07
-2.10416e-05
-5.92183e-07
-2.08032e-05
-6.068e-07
-2.05594e-05
-6.22395e-07
-2.03097e-05
-6.39144e-07
-2.00535e-05
-6.57223e-07
-1.97902e-05
-6.7686e-07
-1.95189e-05
-6.98316e-07
-1.92386e-05
-7.21894e-07
-1.89483e-05
-7.47961e-07
-1.86466e-05
-7.77003e-07
-1.83321e-05
-8.09585e-07
-1.8003e-05
-8.46341e-07
-1.76575e-05
-8.88055e-07
-1.72932e-05
-9.35621e-07
-1.69079e-05
-9.8992e-07
-1.64992e-05
-1.05145e-06
-1.60645e-05
-1.12031e-06
-1.56022e-05
-1.19568e-06
-1.51117e-05
-1.27474e-06
-1.45949e-05
-1.35117e-06
-1.40582e-05
-1.41224e-06
-1.35142e-05
-1.43417e-06
-1.29828e-05
-1.37559e-06
-1.24964e-05
-1.17783e-06
-1.21391e-05
-7.82966e-07
-1.21374e-05
-1.27573e-07
-1.26449e-05
7.41512e-07
-1.39984e-05
2.23139e-06
-1.67094e-05
4.99108e-06
-2.18142e-05
1.06637e-05
2.65239e-05
-3.28605e-05
-3.2818e-05
-3.89333e-08
-3.27868e-05
-1.21695e-07
-3.2746e-05
-1.66918e-07
-3.26992e-05
-1.92032e-07
-3.26488e-05
-2.07122e-07
-3.25964e-05
-2.16991e-07
-3.25428e-05
-2.23797e-07
-3.24883e-05
-2.28966e-07
-3.24334e-05
-2.33172e-07
-3.23781e-05
-2.36937e-07
-3.23224e-05
-2.40501e-07
-3.22664e-05
-2.44106e-07
-3.22099e-05
-2.4789e-07
-3.21529e-05
-2.51995e-07
-3.20951e-05
-2.56436e-07
-3.20365e-05
-2.61126e-07
-3.1977e-05
-2.65998e-07
-3.19165e-05
-2.70888e-07
-3.18551e-05
-2.75774e-07
-3.17929e-05
-2.80727e-07
-3.173e-05
-2.8578e-07
-3.16662e-05
-2.90984e-07
-3.16016e-05
-2.96375e-07
-3.15362e-05
-3.01989e-07
-3.14698e-05
-3.07876e-07
-3.14023e-05
-3.14027e-07
-3.13337e-05
-3.20421e-07
-3.12639e-05
-3.27062e-07
-3.11929e-05
-3.33937e-07
-3.11205e-05
-3.41046e-07
-3.10468e-05
-3.48382e-07
-3.09717e-05
-3.55936e-07
-3.08951e-05
-3.63701e-07
-3.08171e-05
-3.71664e-07
-3.07376e-05
-3.79814e-07
-3.06565e-05
-3.88127e-07
-3.0574e-05
-3.96617e-07
-3.04899e-05
-4.05248e-07
-3.04044e-05
-4.13981e-07
-3.03174e-05
-4.22856e-07
-3.0229e-05
-4.31845e-07
-3.01392e-05
-4.40939e-07
-3.00482e-05
-4.50141e-07
-2.99559e-05
-4.5942e-07
-2.98625e-05
-4.68795e-07
-2.9768e-05
-4.78236e-07
-2.96726e-05
-4.87723e-07
-2.95765e-05
-4.97199e-07
-2.94796e-05
-5.06615e-07
-2.9382e-05
-5.15877e-07
-2.9284e-05
-5.24802e-07
-2.91857e-05
-5.33462e-07
-2.9087e-05
-5.42075e-07
-2.8988e-05
-5.50658e-07
-2.88886e-05
-5.59163e-07
-2.87888e-05
-5.6764e-07
-2.86889e-05
-5.76142e-07
-2.85888e-05
-5.84694e-07
-2.84889e-05
-5.93336e-07
-2.83891e-05
-6.02098e-07
-2.82897e-05
-6.11009e-07
-2.81907e-05
-6.20059e-07
-2.80924e-05
-6.29222e-07
-2.7995e-05
-6.38486e-07
-2.78987e-05
-6.47867e-07
-2.78038e-05
-6.57403e-07
-2.77107e-05
-6.67123e-07
-2.76195e-05
-6.77106e-07
-2.75306e-05
-6.87422e-07
-2.74443e-05
-6.98166e-07
-2.7361e-05
-7.09469e-07
-2.72808e-05
-7.21456e-07
-2.72041e-05
-7.34339e-07
-2.7131e-05
-7.48349e-07
-2.70617e-05
-7.63783e-07
-2.69961e-05
-7.80999e-07
-2.69341e-05
-8.00411e-07
-2.68756e-05
-8.22506e-07
-2.68201e-05
-8.47945e-07
-2.67671e-05
-8.77482e-07
-2.67158e-05
-9.11911e-07
-2.66654e-05
-9.52164e-07
-2.66149e-05
-9.99241e-07
-2.65632e-05
-1.05405e-06
-2.65094e-05
-1.11716e-06
-2.64525e-05
-1.18848e-06
-2.63922e-05
-1.2667e-06
-2.6329e-05
-1.3481e-06
-2.62651e-05
-1.42476e-06
-2.62047e-05
-1.48162e-06
-2.61551e-05
-1.49226e-06
-2.61247e-05
-1.41358e-06
-2.61269e-05
-1.18224e-06
-2.6198e-05
-7.17011e-07
-2.63852e-05
5.63046e-08
-2.68797e-05
1.23358e-06
-2.7882e-05
3.23136e-06
-2.9787e-05
6.89409e-06
-3.33156e-05
1.41912e-05
3.11306e-05
-3.79231e-05
-3.55167e-05
-6.19068e-08
-3.55008e-05
-1.50589e-07
-3.54799e-05
-2.01745e-07
-3.54551e-05
-2.31388e-07
-3.5428e-05
-2.49423e-07
-3.53998e-05
-2.61084e-07
-3.53712e-05
-2.68972e-07
-3.53426e-05
-2.7483e-07
-3.53143e-05
-2.7947e-07
-3.52864e-05
-2.83555e-07
-3.52589e-05
-2.87367e-07
-3.5232e-05
-2.91224e-07
-3.52054e-05
-2.95286e-07
-3.51792e-05
-2.99757e-07
-3.51533e-05
-3.04642e-07
-3.51276e-05
-3.09831e-07
-3.51021e-05
-3.15104e-07
-3.50768e-05
-3.20455e-07
-3.50517e-05
-3.25897e-07
-3.50266e-05
-3.31369e-07
-3.50017e-05
-3.36929e-07
-3.49768e-05
-3.42628e-07
-3.49521e-05
-3.48507e-07
-3.49274e-05
-3.54603e-07
-3.49027e-05
-3.60984e-07
-3.4878e-05
-3.67634e-07
-3.48532e-05
-3.74514e-07
-3.48284e-05
-3.81623e-07
-3.48035e-05
-3.88936e-07
-3.47786e-05
-3.96444e-07
-3.47537e-05
-4.04132e-07
-3.47287e-05
-4.1198e-07
-3.47038e-05
-4.1997e-07
-3.46789e-05
-4.28076e-07
-3.46541e-05
-4.36277e-07
-3.46296e-05
-4.44534e-07
-3.46053e-05
-4.52843e-07
-3.45813e-05
-4.61175e-07
-3.45578e-05
-4.6949e-07
-3.45349e-05
-4.77778e-07
-3.45127e-05
-4.86005e-07
-3.44913e-05
-4.94148e-07
-3.4471e-05
-5.02186e-07
-3.4452e-05
-5.10077e-07
-3.44344e-05
-5.17815e-07
-3.44186e-05
-5.2534e-07
-3.44047e-05
-5.32623e-07
-3.43931e-05
-5.39581e-07
-3.4384e-05
-5.46244e-07
-3.43773e-05
-5.5281e-07
-3.43727e-05
-5.59182e-07
-3.43704e-05
-5.65218e-07
-3.43705e-05
-5.70991e-07
-3.43731e-05
-5.76507e-07
-3.43786e-05
-5.81743e-07
-3.4387e-05
-5.86725e-07
-3.43986e-05
-5.91472e-07
-3.44137e-05
-5.96005e-07
-3.44324e-05
-6.00331e-07
-3.44552e-05
-6.04457e-07
-3.44823e-05
-6.08443e-07
-3.45139e-05
-6.12296e-07
-3.45502e-05
-6.15971e-07
-3.45917e-05
-6.19437e-07
-3.46385e-05
-6.22705e-07
-3.46909e-05
-6.2583e-07
-3.47493e-05
-6.2887e-07
-3.48137e-05
-6.31921e-07
-3.48845e-05
-6.35092e-07
-3.49618e-05
-6.38527e-07
-3.50456e-05
-6.42421e-07
-3.51359e-05
-6.46996e-07
-3.52327e-05
-6.52548e-07
-3.53358e-05
-6.5942e-07
-3.54447e-05
-6.68042e-07
-3.55591e-05
-6.78923e-07
-3.56784e-05
-6.92628e-07
-3.58017e-05
-7.0975e-07
-3.59283e-05
-7.31114e-07
-3.60571e-05
-7.57637e-07
-3.6187e-05
-7.90179e-07
-3.63168e-05
-8.29723e-07
-3.64454e-05
-8.77308e-07
-3.65717e-05
-9.33791e-07
-3.66948e-05
-9.99477e-07
-3.68143e-05
-1.07388e-06
-3.69302e-05
-1.15512e-06
-3.70435e-05
-1.23871e-06
-3.71559e-05
-1.31578e-06
-3.727e-05
-1.37046e-06
-3.73886e-05
-1.3763e-06
-3.7512e-05
-1.29247e-06
-3.76393e-05
-1.05681e-06
-3.77715e-05
-5.86312e-07
-3.79152e-05
1.98796e-07
-3.81853e-05
1.50267e-06
-3.87218e-05
3.76682e-06
-3.96931e-05
7.86453e-06
-4.12828e-05
1.57801e-05
3.11768e-05
-4.133e-05
-3.83029e-05
-7.8056e-08
-3.83082e-05
-1.62893e-07
-3.83144e-05
-2.14207e-07
-3.83202e-05
-2.45161e-07
-3.83257e-05
-2.64238e-07
-3.83317e-05
-2.76322e-07
-3.83384e-05
-2.84305e-07
-3.83462e-05
-2.8994e-07
-3.83553e-05
-2.94222e-07
-3.83657e-05
-2.97798e-07
-3.83775e-05
-3.01047e-07
-3.83908e-05
-3.0427e-07
-3.84056e-05
-3.07693e-07
-3.84219e-05
-3.11531e-07
-3.84396e-05
-3.15827e-07
-3.84587e-05
-3.20387e-07
-3.84793e-05
-3.24921e-07
-3.85016e-05
-3.29427e-07
-3.85253e-05
-3.3409e-07
-3.85504e-05
-3.38909e-07
-3.85767e-05
-3.43854e-07
-3.86043e-05
-3.48905e-07
-3.86332e-05
-3.54042e-07
-3.86634e-05
-3.59346e-07
-3.8695e-05
-3.64893e-07
-3.87279e-05
-3.70618e-07
-3.87622e-05
-3.76487e-07
-3.8798e-05
-3.82489e-07
-3.88354e-05
-3.88596e-07
-3.88743e-05
-3.94793e-07
-3.89148e-05
-4.01057e-07
-3.8957e-05
-4.07364e-07
-3.90011e-05
-4.13692e-07
-3.90469e-05
-4.20005e-07
-3.90947e-05
-4.26281e-07
-3.91445e-05
-4.32489e-07
-3.91964e-05
-4.386e-07
-3.92504e-05
-4.4458e-07
-3.93068e-05
-4.50419e-07
-3.93654e-05
-4.56083e-07
-3.94266e-05
-4.61538e-07
-3.94903e-05
-4.66769e-07
-3.95566e-05
-4.71744e-07
-3.96257e-05
-4.76435e-07
-3.96975e-05
-4.80828e-07
-3.97723e-05
-4.84872e-07
-3.98501e-05
-4.88549e-07
-3.99309e-05
-4.91825e-07
-4.00147e-05
-4.94725e-07
-4.01017e-05
-4.97328e-07
-4.0192e-05
-4.99584e-07
-4.02856e-05
-5.01431e-07
-4.03827e-05
-5.02882e-07
-4.04833e-05
-5.03944e-07
-4.05875e-05
-5.04629e-07
-4.06954e-05
-5.0497e-07
-4.0807e-05
-5.04998e-07
-4.09223e-05
-5.04748e-07
-4.10414e-05
-5.04255e-07
-4.11642e-05
-5.03561e-07
-4.12908e-05
-5.02748e-07
-4.1421e-05
-5.01877e-07
-4.15548e-05
-5.00923e-07
-4.1692e-05
-4.99842e-07
-4.18326e-05
-4.98676e-07
-4.19765e-05
-4.97513e-07
-4.21234e-05
-4.96451e-07
-4.22731e-05
-4.95605e-07
-4.24256e-05
-4.95112e-07
-4.25804e-05
-4.95142e-07
-4.27375e-05
-4.95899e-07
-4.28966e-05
-4.97632e-07
-4.30573e-05
-5.00647e-07
-4.32195e-05
-5.05294e-07
-4.33829e-05
-5.12011e-07
-4.35471e-05
-5.21312e-07
-4.37119e-05
-5.33816e-07
-4.3877e-05
-5.50024e-07
-4.40421e-05
-5.70793e-07
-4.4207e-05
-5.97137e-07
-4.43712e-05
-6.29823e-07
-4.45347e-05
-6.6979e-07
-4.4697e-05
-7.18039e-07
-4.48583e-05
-7.75386e-07
-4.50183e-05
-8.41932e-07
-4.51775e-05
-9.16918e-07
-4.53364e-05
-9.98267e-07
-4.54956e-05
-1.08133e-06
-4.56558e-05
-1.15727e-06
-4.58168e-05
-1.21084e-06
-4.59769e-05
-1.21758e-06
-4.61296e-05
-1.14092e-06
-4.62609e-05
-9.26601e-07
-4.63503e-05
-4.97774e-07
-4.63991e-05
2.46714e-07
-4.64395e-05
1.54232e-06
-4.64961e-05
3.82265e-06
-4.65693e-05
7.93696e-06
-4.63347e-05
1.55447e-05
2.83365e-05
-4.34959e-05
-4.13221e-05
-8.20875e-08
-4.13536e-05
-1.54021e-07
-4.13926e-05
-1.9919e-07
-4.14355e-05
-2.27256e-07
-4.1481e-05
-2.44645e-07
-4.15289e-05
-2.55401e-07
-4.15789e-05
-2.62223e-07
-4.1631e-05
-2.66692e-07
-4.16853e-05
-2.69819e-07
-4.17417e-05
-2.72193e-07
-4.18002e-05
-2.74228e-07
-4.18609e-05
-2.76199e-07
-4.19238e-05
-2.7837e-07
-4.19887e-05
-2.80993e-07
-4.20555e-05
-2.84169e-07
-4.21242e-05
-2.87615e-07
-4.21948e-05
-2.90972e-07
-4.22673e-05
-2.94228e-07
-4.23419e-05
-2.97509e-07
-4.24185e-05
-3.00842e-07
-4.24972e-05
-3.0424e-07
-4.2578e-05
-3.07688e-07
-4.2661e-05
-3.11011e-07
-4.27464e-05
-3.14377e-07
-4.2834e-05
-3.17926e-07
-4.2924e-05
-3.21525e-07
-4.30164e-05
-3.25164e-07
-4.31113e-05
-3.28825e-07
-4.32087e-05
-3.32504e-07
-4.33085e-05
-3.36183e-07
-4.34109e-05
-3.39854e-07
-4.35158e-05
-3.43498e-07
-4.36232e-05
-3.47108e-07
-4.3733e-05
-3.50654e-07
-4.38453e-05
-3.54125e-07
-4.396e-05
-3.57506e-07
-4.4077e-05
-3.60775e-07
-4.41964e-05
-3.63895e-07
-4.4318e-05
-3.6687e-07
-4.44417e-05
-3.69684e-07
-4.45676e-05
-3.72315e-07
-4.46954e-05
-3.74748e-07
-4.48252e-05
-3.76964e-07
-4.49568e-05
-3.78937e-07
-4.50901e-05
-3.80656e-07
-4.52251e-05
-3.82073e-07
-4.53617e-05
-3.83186e-07
-4.54997e-05
-3.83968e-07
-4.56391e-05
-3.84426e-07
-4.57798e-05
-3.84612e-07
-4.59217e-05
-3.845e-07
-4.60649e-05
-3.84078e-07
-4.62091e-05
-3.83356e-07
-4.63542e-05
-3.82342e-07
-4.65002e-05
-3.81055e-07
-4.6647e-05
-3.79524e-07
-4.67945e-05
-3.77785e-07
-4.69425e-05
-3.75874e-07
-4.70911e-05
-3.73827e-07
-4.724e-05
-3.7168e-07
-4.73893e-05
-3.69522e-07
-4.75389e-05
-3.67453e-07
-4.76885e-05
-3.65437e-07
-4.78383e-05
-3.63357e-07
-4.79882e-05
-3.61238e-07
-4.81381e-05
-3.59186e-07
-4.82881e-05
-3.57299e-07
-4.84381e-05
-3.55678e-07
-4.85881e-05
-3.54453e-07
-4.87382e-05
-3.53785e-07
-4.88883e-05
-3.53862e-07
-4.90385e-05
-3.54919e-07
-4.91889e-05
-3.57264e-07
-4.93394e-05
-3.6124e-07
-4.94901e-05
-3.67279e-07
-4.96411e-05
-3.75886e-07
-4.97923e-05
-3.87681e-07
-4.9944e-05
-4.03164e-07
-5.00961e-05
-4.22989e-07
-5.02493e-05
-4.48085e-07
-5.04035e-05
-4.79364e-07
-5.0559e-05
-5.17749e-07
-5.0716e-05
-5.64198e-07
-5.08747e-05
-6.19588e-07
-5.10354e-05
-6.83934e-07
-5.11986e-05
-7.56212e-07
-5.13647e-05
-8.34442e-07
-5.15339e-05
-9.14269e-07
-5.17056e-05
-9.87514e-07
-5.18777e-05
-1.0405e-06
-5.20448e-05
-1.05204e-06
-5.21962e-05
-9.9091e-07
-5.2309e-05
-8.14999e-07
-5.23523e-05
-4.55641e-07
-5.23051e-05
1.98594e-07
-5.21385e-05
1.37477e-06
-5.17737e-05
3.45679e-06
-5.10421e-05
7.20401e-06
-4.93279e-05
1.38286e-05
2.37328e-05
-4.47272e-05
-4.44813e-05
-7.27395e-08
-4.45384e-05
-1.24014e-07
-4.46076e-05
-1.58338e-07
-4.46839e-05
-1.8039e-07
-4.47649e-05
-1.94025e-07
-4.48494e-05
-2.02208e-07
-4.49369e-05
-2.07073e-07
-4.50269e-05
-2.09913e-07
-4.51192e-05
-2.11587e-07
-4.52138e-05
-2.12596e-07
-4.53104e-05
-2.13316e-07
-4.54091e-05
-2.13986e-07
-4.55097e-05
-2.14874e-07
-4.56122e-05
-2.1628e-07
-4.57164e-05
-2.18401e-07
-4.58221e-05
-2.20848e-07
-4.59293e-05
-2.23097e-07
-4.60382e-05
-2.25143e-07
-4.61487e-05
-2.27124e-07
-4.62609e-05
-2.29086e-07
-4.63747e-05
-2.31084e-07
-4.649e-05
-2.3311e-07
-4.66069e-05
-2.34965e-07
-4.67255e-05
-2.36627e-07
-4.6846e-05
-2.38219e-07
-4.69684e-05
-2.39748e-07
-4.70927e-05
-2.41269e-07
-4.72189e-05
-2.42777e-07
-4.73469e-05
-2.44302e-07
-4.74766e-05
-2.45831e-07
-4.76079e-05
-2.4739e-07
-4.77408e-05
-2.48963e-07
-4.7875e-05
-2.50574e-07
-4.80105e-05
-2.52193e-07
-4.81471e-05
-2.5383e-07
-4.82847e-05
-2.5547e-07
-4.84232e-05
-2.57109e-07
-4.85623e-05
-2.58717e-07
-4.87019e-05
-2.60306e-07
-4.88419e-05
-2.61852e-07
-4.89821e-05
-2.63344e-07
-4.91224e-05
-2.64756e-07
-4.92627e-05
-2.6607e-07
-4.94028e-05
-2.67253e-07
-4.95427e-05
-2.6829e-07
-4.96822e-05
-2.6912e-07
-4.98213e-05
-2.69751e-07
-4.99598e-05
-2.70149e-07
-5.00978e-05
-2.70283e-07
-5.02352e-05
-2.70207e-07
-5.0372e-05
-2.69889e-07
-5.0508e-05
-2.69317e-07
-5.06434e-05
-2.68498e-07
-5.07781e-05
-2.67434e-07
-5.0912e-05
-2.66142e-07
-5.10452e-05
-2.64628e-07
-5.11777e-05
-2.62917e-07
-5.13096e-05
-2.61032e-07
-5.14408e-05
-2.58999e-07
-5.15715e-05
-2.56828e-07
-5.17017e-05
-2.54588e-07
-5.18314e-05
-2.52447e-07
-5.19607e-05
-2.50375e-07
-5.20897e-05
-2.48082e-07
-5.22186e-05
-2.45637e-07
-5.23475e-05
-2.43146e-07
-5.24765e-05
-2.40712e-07
-5.26058e-05
-2.3843e-07
-5.27354e-05
-2.36418e-07
-5.28656e-05
-2.34824e-07
-5.29965e-05
-2.33829e-07
-5.31283e-05
-2.33659e-07
-5.32612e-05
-2.34604e-07
-5.33953e-05
-2.37003e-07
-5.35308e-05
-2.41272e-07
-5.3668e-05
-2.47879e-07
-5.38072e-05
-2.57336e-07
-5.39486e-05
-2.70363e-07
-5.40921e-05
-2.87712e-07
-5.42381e-05
-3.10069e-07
-5.43868e-05
-3.38281e-07
-5.45386e-05
-3.7319e-07
-5.46942e-05
-4.15642e-07
-5.48537e-05
-4.66725e-07
-5.50175e-05
-5.26509e-07
-5.51862e-05
-5.93585e-07
-5.536e-05
-6.66384e-07
-5.55385e-05
-7.4123e-07
-5.572e-05
-8.11135e-07
-5.59007e-05
-8.6461e-07
-5.60725e-05
-8.84594e-07
-5.62209e-05
-8.46537e-07
-5.632e-05
-7.19388e-07
-5.63273e-05
-4.51442e-07
-5.61949e-05
6.35093e-08
-5.58497e-05
1.02702e-06
-5.51262e-05
2.7302e-06
-5.37171e-05
5.79072e-06
-5.08989e-05
1.10044e-05
1.81043e-05
-4.52787e-05
-4.7393e-05
-5.27925e-08
-4.74635e-05
-8.20613e-08
-4.75473e-05
-1.04239e-07
-4.76393e-05
-1.18853e-07
-4.77368e-05
-1.27846e-07
-4.78379e-05
-1.33079e-07
-4.79417e-05
-1.35945e-07
-4.80476e-05
-1.37363e-07
-4.81552e-05
-1.37915e-07
-4.82642e-05
-1.37988e-07
-4.83746e-05
-1.3785e-07
-4.84861e-05
-1.37706e-07
-4.85989e-05
-1.37772e-07
-4.87126e-05
-1.38411e-07
-4.88271e-05
-1.39979e-07
-4.89422e-05
-1.41996e-07
-4.90581e-05
-1.43576e-07
-4.91748e-05
-1.44804e-07
-4.92923e-05
-1.45875e-07
-4.94107e-05
-1.46867e-07
-4.95301e-05
-1.47792e-07
-4.96503e-05
-1.48606e-07
-4.97714e-05
-1.49425e-07
-4.98929e-05
-1.50253e-07
-5.00147e-05
-1.51032e-07
-5.01369e-05
-1.51752e-07
-5.02593e-05
-1.52514e-07
-5.03819e-05
-1.53304e-07
-5.05044e-05
-1.54187e-07
-5.06269e-05
-1.55132e-07
-5.07492e-05
-1.56191e-07
-5.08712e-05
-1.57326e-07
-5.09929e-05
-1.58589e-07
-5.1114e-05
-1.59936e-07
-5.12346e-05
-1.61374e-07
-5.13546e-05
-1.62887e-07
-5.14739e-05
-1.64465e-07
-5.15925e-05
-1.66083e-07
-5.17103e-05
-1.67727e-07
-5.18272e-05
-1.69377e-07
-5.19433e-05
-1.71016e-07
-5.20586e-05
-1.726e-07
-5.2173e-05
-1.74111e-07
-5.22866e-05
-1.75503e-07
-5.23993e-05
-1.76754e-07
-5.25113e-05
-1.778e-07
-5.26225e-05
-1.78627e-07
-5.2733e-05
-1.79213e-07
-5.28429e-05
-1.7951e-07
-5.29523e-05
-1.79531e-07
-5.30611e-05
-1.79261e-07
-5.31696e-05
-1.78689e-07
-5.32778e-05
-1.77818e-07
-5.33858e-05
-1.76652e-07
-5.34936e-05
-1.75205e-07
-5.36013e-05
-1.73479e-07
-5.37091e-05
-1.71483e-07
-5.38171e-05
-1.69237e-07
-5.39253e-05
-1.66761e-07
-5.40339e-05
-1.64056e-07
-5.41431e-05
-1.61122e-07
-5.42529e-05
-1.5826e-07
-5.43632e-05
-1.55578e-07
-5.44743e-05
-1.52372e-07
-5.45864e-05
-1.48852e-07
-5.46997e-05
-1.45166e-07
-5.48143e-05
-1.41408e-07
-5.49304e-05
-1.37665e-07
-5.5048e-05
-1.3404e-07
-5.51675e-05
-1.3067e-07
-5.52889e-05
-1.27728e-07
-5.54124e-05
-1.25429e-07
-5.55383e-05
-1.24045e-07
-5.56667e-05
-1.23901e-07
-5.5798e-05
-1.25393e-07
-5.59323e-05
-1.2897e-07
-5.607e-05
-1.35116e-07
-5.62112e-05
-1.44592e-07
-5.63563e-05
-1.58189e-07
-5.65055e-05
-1.76538e-07
-5.6659e-05
-2.00398e-07
-5.68174e-05
-2.3053e-07
-5.69814e-05
-2.675e-07
-5.71513e-05
-3.1276e-07
-5.73268e-05
-3.66896e-07
-5.75089e-05
-4.2753e-07
-5.76973e-05
-4.93967e-07
-5.7891e-05
-5.63554e-07
-5.80872e-05
-6.30865e-07
-5.82806e-05
-6.87025e-07
-5.84613e-05
-7.19495e-07
-5.86114e-05
-7.11653e-07
-5.87045e-05
-6.40971e-07
-5.86896e-05
-4.80177e-07
-5.8499e-05
-1.39681e-07
-5.8008e-05
5.23891e-07
-5.70051e-05
1.71398e-06
-5.508e-05
3.84888e-06
-5.14971e-05
7.39907e-06
1.19139e-05
-4.53338e-05
-4.96437e-05
-2.34829e-08
-4.97156e-05
-3.59608e-08
-4.97995e-05
-4.67956e-08
-4.98912e-05
-5.40517e-08
-4.99879e-05
-5.85907e-08
-5.00875e-05
-6.1273e-08
-5.01888e-05
-6.2746e-08
-5.0291e-05
-6.34644e-08
-5.03938e-05
-6.37152e-08
-5.04969e-05
-6.37118e-08
-5.06e-05
-6.36105e-08
-5.0703e-05
-6.35517e-08
-5.0806e-05
-6.36872e-08
-5.09089e-05
-6.43924e-08
-5.10112e-05
-6.6311e-08
-5.11128e-05
-6.89867e-08
-5.12139e-05
-7.07871e-08
-5.13147e-05
-7.20764e-08
-5.14151e-05
-7.3137e-08
-5.15153e-05
-7.40932e-08
-5.1615e-05
-7.49501e-08
-5.17144e-05
-7.56969e-08
-5.18133e-05
-7.65492e-08
-5.19115e-05
-7.758e-08
-5.20089e-05
-7.8681e-08
-5.21053e-05
-7.97812e-08
-5.22008e-05
-8.09249e-08
-5.22955e-05
-8.21056e-08
-5.23891e-05
-8.3364e-08
-5.24819e-05
-8.4684e-08
-5.25738e-05
-8.60943e-08
-5.26648e-05
-8.75728e-08
-5.27549e-05
-8.9146e-08
-5.28442e-05
-9.07877e-08
-5.29328e-05
-9.2488e-08
-5.30207e-05
-9.42291e-08
-5.31079e-05
-9.60016e-08
-5.31944e-05
-9.7773e-08
-5.32804e-05
-9.95391e-08
-5.33659e-05
-1.01249e-07
-5.3451e-05
-1.02927e-07
-5.35357e-05
-1.04494e-07
-5.36201e-05
-1.0594e-07
-5.37043e-05
-1.07228e-07
-5.37883e-05
-1.08316e-07
-5.38721e-05
-1.09174e-07
-5.39559e-05
-1.09737e-07
-5.40398e-05
-1.09985e-07
-5.41239e-05
-1.09911e-07
-5.42081e-05
-1.09483e-07
-5.42926e-05
-1.08683e-07
-5.43776e-05
-1.07517e-07
-5.4463e-05
-1.05982e-07
-5.4549e-05
-1.04088e-07
-5.46356e-05
-1.01845e-07
-5.4723e-05
-9.92642e-08
-5.48113e-05
-9.63342e-08
-5.49005e-05
-9.30762e-08
-5.49907e-05
-8.95009e-08
-5.50821e-05
-8.56285e-08
-5.51748e-05
-8.13382e-08
-5.5269e-05
-7.69864e-08
-5.53644e-05
-7.32739e-08
-5.54613e-05
-6.85402e-08
-5.556e-05
-6.33234e-08
-5.56606e-05
-5.78599e-08
-5.57632e-05
-5.2229e-08
-5.5868e-05
-4.65005e-08
-5.59751e-05
-4.07621e-08
-5.60847e-05
-3.51362e-08
-5.61969e-05
-2.97839e-08
-5.6312e-05
-2.4906e-08
-5.64301e-05
-2.07553e-08
-5.65516e-05
-1.76391e-08
-5.66766e-05
-1.59268e-08
-5.68055e-05
-1.60501e-08
-5.69385e-05
-1.85168e-08
-5.7076e-05
-2.39899e-08
-5.72184e-05
-3.31672e-08
-5.73662e-05
-4.6711e-08
-5.75199e-05
-6.53225e-08
-5.76799e-05
-8.98584e-08
-5.78472e-05
-1.20351e-07
-5.80226e-05
-1.58428e-07
-5.82047e-05
-2.06701e-07
-5.83954e-05
-2.60021e-07
-5.85942e-05
-3.19556e-07
-5.87996e-05
-3.83918e-07
-5.90084e-05
-4.49532e-07
-5.92144e-05
-5.10232e-07
-5.94067e-05
-5.58335e-07
-5.95668e-05
-5.84891e-07
-5.96647e-05
-5.78618e-07
-5.96556e-05
-5.27117e-07
-5.94503e-05
-3.8528e-07
-5.88916e-05
-7.5746e-08
-5.77267e-05
5.06842e-07
-5.54864e-05
1.5604e-06
-5.14453e-05
3.29983e-06
5.43864e-06
-4.50328e-05
-5.07794e-05
1.10421e-08
-5.08433e-05
8.92129e-09
-5.09179e-05
8.54055e-09
-5.09996e-05
8.16396e-09
-5.10855e-05
7.59059e-09
-5.11736e-05
6.92671e-09
-5.12625e-05
6.2369e-09
-5.13516e-05
5.58069e-09
-5.14403e-05
4.95077e-09
-5.15285e-05
4.34464e-09
-5.16158e-05
3.70563e-09
-5.17023e-05
2.98651e-09
-5.1788e-05
2.10347e-09
-5.18729e-05
7.44884e-10
-5.19567e-05
-2.1118e-09
-5.20386e-05
-6.39661e-09
-5.21196e-05
-8.9691e-09
-5.21998e-05
-1.09051e-08
-5.22791e-05
-1.25885e-08
-5.23575e-05
-1.41557e-08
-5.2435e-05
-1.5616e-08
-5.25116e-05
-1.70065e-08
-5.25872e-05
-1.8444e-08
-5.26621e-05
-1.99715e-08
-5.27362e-05
-2.15055e-08
-5.28096e-05
-2.30265e-08
-5.28822e-05
-2.45164e-08
-5.29542e-05
-2.60066e-08
-5.30257e-05
-2.74866e-08
-5.30966e-05
-2.89892e-08
-5.31671e-05
-3.04992e-08
-5.32371e-05
-3.20461e-08
-5.33069e-05
-3.36002e-08
-5.33763e-05
-3.51703e-08
-5.34456e-05
-3.67457e-08
-5.35146e-05
-3.83135e-08
-5.35836e-05
-3.98596e-08
-5.36526e-05
-4.13514e-08
-5.37215e-05
-4.27941e-08
-5.37905e-05
-4.41371e-08
-5.38596e-05
-4.53972e-08
-5.39289e-05
-4.65167e-08
-5.39983e-05
-4.74702e-08
-5.4068e-05
-4.82326e-08
-5.4138e-05
-4.87549e-08
-5.42083e-05
-4.90133e-08
-5.4279e-05
-4.89318e-08
-5.43502e-05
-4.84841e-08
-5.44218e-05
-4.76677e-08
-5.44941e-05
-4.64356e-08
-5.45669e-05
-4.47765e-08
-5.46405e-05
-4.26893e-08
-5.47148e-05
-4.01799e-08
-5.479e-05
-3.72521e-08
-5.4866e-05
-3.3923e-08
-5.4943e-05
-3.02045e-08
-5.50211e-05
-2.60644e-08
-5.51002e-05
-2.15161e-08
-5.51806e-05
-1.65811e-08
-5.52623e-05
-1.12502e-08
-5.53452e-05
-5.52996e-09
-5.54302e-05
1.01647e-09
-5.55159e-05
5.52975e-09
-5.56034e-05
1.21742e-08
-5.56929e-05
1.93844e-08
-5.57844e-05
2.68709e-08
-5.58779e-05
3.46131e-08
-5.59737e-05
4.25661e-08
-5.60719e-05
5.06624e-08
-5.61726e-05
5.87963e-08
-5.6276e-05
6.68211e-08
-5.63824e-05
7.45547e-08
-5.64919e-05
8.17693e-08
-5.66049e-05
8.81796e-08
-5.67214e-05
9.34459e-08
-5.6842e-05
9.71605e-08
-5.69668e-05
9.88367e-08
-5.70963e-05
9.78882e-08
-5.72308e-05
9.36844e-08
-5.73709e-05
8.55908e-08
-5.7517e-05
7.29052e-08
-5.76696e-05
5.49737e-08
-5.78286e-05
3.08729e-08
-5.79968e-05
2.10275e-09
-5.81706e-05
-4.0562e-08
-5.83533e-05
-8.52635e-08
-5.85441e-05
-1.3708e-07
-5.87413e-05
-1.9573e-07
-5.89409e-05
-2.59711e-07
-5.91367e-05
-3.25227e-07
-5.93179e-05
-3.89546e-07
-5.9466e-05
-4.51201e-07
-5.95507e-05
-5.10933e-07
-5.95286e-05
-5.69815e-07
-5.93108e-05
-6.28712e-07
-5.87339e-05
-6.85557e-07
-5.7518e-05
-7.48305e-07
-5.51654e-05
-8.33882e-07
-5.09474e-05
-9.5799e-07
-1.06807e-06
-4.44681e-05
-5.03503e-05
4.41092e-08
-5.04081e-05
5.50675e-08
-5.04774e-05
6.59445e-08
-5.05541e-05
7.29176e-08
-5.06355e-05
7.67945e-08
-5.07194e-05
7.86109e-08
-5.08047e-05
7.91643e-08
-5.08904e-05
7.89982e-08
-5.09763e-05
7.84023e-08
-5.1062e-05
7.75613e-08
-5.11473e-05
7.65288e-08
-5.12321e-05
7.53109e-08
-5.13162e-05
7.38176e-08
-5.13995e-05
7.16907e-08
-5.14824e-05
6.83997e-08
-5.15655e-05
6.44271e-08
-5.1648e-05
6.13464e-08
-5.17297e-05
5.88059e-08
-5.18108e-05
5.65452e-08
-5.18912e-05
5.44444e-08
-5.1971e-05
5.24692e-08
-5.205e-05
5.05665e-08
-5.21285e-05
4.86701e-08
-5.22063e-05
4.67452e-08
-5.22836e-05
4.48491e-08
-5.23603e-05
4.29766e-08
-5.24365e-05
4.11722e-08
-5.25122e-05
3.9399e-08
-5.25874e-05
3.76798e-08
-5.26621e-05
3.59725e-08
-5.27365e-05
3.43023e-08
-5.28104e-05
3.26302e-08
-5.2884e-05
3.09973e-08
-5.29573e-05
2.93846e-08
-5.30303e-05
2.78102e-08
-5.3103e-05
2.62799e-08
-5.31756e-05
2.48227e-08
-5.3248e-05
2.34475e-08
-5.33202e-05
2.21753e-08
-5.33924e-05
2.10125e-08
-5.34646e-05
2.00093e-08
-5.35367e-05
1.9162e-08
-5.36088e-05
1.85122e-08
-5.3681e-05
1.80929e-08
-5.37533e-05
1.79457e-08
-5.38257e-05
1.81101e-08
-5.38983e-05
1.86459e-08
-5.39711e-05
1.95938e-08
-5.40443e-05
2.09757e-08
-5.41177e-05
2.28365e-08
-5.41916e-05
2.5185e-08
-5.4266e-05
2.80308e-08
-5.43409e-05
3.13585e-08
-5.44165e-05
3.5165e-08
-5.44927e-05
3.94314e-08
-5.45697e-05
4.41482e-08
-5.46475e-05
4.93618e-08
-5.47262e-05
5.50707e-08
-5.48059e-05
6.12469e-08
-5.48866e-05
6.78702e-08
-5.49685e-05
7.49886e-08
-5.5051e-05
8.24197e-08
-5.51358e-05
8.94948e-08
-5.52219e-05
9.77684e-08
-5.53094e-05
1.06731e-07
-5.53986e-05
1.16164e-07
-5.54895e-05
1.26017e-07
-5.55823e-05
1.36238e-07
-5.56772e-05
1.46771e-07
-5.57743e-05
1.5753e-07
-5.58738e-05
1.68382e-07
-5.59759e-05
1.79162e-07
-5.60808e-05
1.89676e-07
-5.61888e-05
1.9966e-07
-5.63001e-05
2.08803e-07
-5.6415e-05
2.16726e-07
-5.65339e-05
2.22976e-07
-5.66571e-05
2.27019e-07
-5.6785e-05
2.2828e-07
-5.69181e-05
2.26141e-07
-5.70569e-05
2.19951e-07
-5.72017e-05
2.08988e-07
-5.73531e-05
1.92425e-07
-5.75094e-05
1.69689e-07
-5.76758e-05
1.38421e-07
-5.78483e-05
1.0175e-07
-5.80262e-05
5.73398e-08
-5.82074e-05
4.56128e-09
-5.83889e-05
-5.66393e-08
-5.8564e-05
-1.25858e-07
-5.87218e-05
-2.04648e-07
-5.88439e-05
-2.98676e-07
-5.89014e-05
-4.19384e-07
-5.88472e-05
-5.85907e-07
-5.85984e-05
-8.34777e-07
-5.80006e-05
-1.2356e-06
-5.67738e-05
-1.92182e-06
-5.44309e-05
-3.11787e-06
-5.02709e-05
-5.05425e-06
-7.37462e-06
-4.39003e-05
-4.86541e-05
6.87121e-08
-4.87072e-05
1.01638e-07
-4.87728e-05
1.24735e-07
-4.88465e-05
1.39819e-07
-4.89254e-05
1.48903e-07
-4.90077e-05
1.54039e-07
-4.90923e-05
1.56788e-07
-4.91783e-05
1.58092e-07
-4.92654e-05
1.58568e-07
-4.93533e-05
1.58526e-07
-4.94419e-05
1.58172e-07
-4.9531e-05
1.57521e-07
-4.96206e-05
1.56522e-07
-4.97106e-05
1.54879e-07
-4.98013e-05
1.52351e-07
-4.9893e-05
1.49438e-07
-4.99853e-05
1.47008e-07
-5.00781e-05
1.44979e-07
-5.01712e-05
1.43181e-07
-5.02647e-05
1.41525e-07
-5.03584e-05
1.39963e-07
-5.04525e-05
1.38444e-07
-5.05468e-05
1.36919e-07
-5.06413e-05
1.35361e-07
-5.0736e-05
1.3379e-07
-5.08309e-05
1.32207e-07
-5.09258e-05
1.30643e-07
-5.10208e-05
1.29084e-07
-5.11158e-05
1.27534e-07
-5.12108e-05
1.2597e-07
-5.13056e-05
1.24396e-07
-5.14004e-05
1.22792e-07
-5.1495e-05
1.21184e-07
-5.15894e-05
1.19564e-07
-5.16835e-05
1.17958e-07
-5.17774e-05
1.1637e-07
-5.1871e-05
1.14841e-07
-5.19643e-05
1.13372e-07
-5.20573e-05
1.12004e-07
-5.21499e-05
1.10721e-07