/*--------------------------------*- C++ -*----------------------------------*\
| =========                 |                                                 |
| \\      /  F ield         | OpenFOAM: The Open Source CFD Toolbox           |
|  \\    /   O peration     | Version:  2.1.0                                 |
|   \\  /    A nd           | Web:      www.OpenFOAM.org                      |
|    \\/     M anipulation  |                                                 |
\*---------------------------------------------------------------------------*/
FoamFile
{
    version     2.0;
    format      ascii;
    class       volScalarField;
    location    "0.28";
    object      rho;
}
// * * * * * * * * * * * * * * * * * * * * * * * * * * * * * * * * * * * * * //

dimensions      [1 -3 0 0 0 0 0];

internalField   nonuniform List<scalar> 
6400
(
998.719
998.607
998.489
998.364
998.232
998.091
997.941
997.783
997.614
997.436
997.248
997.049
996.838
996.617
996.383
996.138
995.879
995.609
995.325
995.028
994.717
994.394
994.056
993.705
993.34
992.962
992.57
992.165
991.746
991.314
990.87
990.413
989.945
989.465
988.974
988.473
987.962
987.442
986.914
986.378
985.834
985.285
984.729
984.169
983.605
983.037
982.465
981.892
981.316
980.739
980.161
979.582
979.004
978.424
977.844
977.264
976.683
976.102
975.522
974.943
974.365
973.788
973.213
972.641
972.072
971.506
970.943
970.385
969.832
969.283
968.739
968.2
967.666
967.137
966.613
966.094
965.58
965.07
964.566
964.068
963.577
963.097
962.632
962.186
961.768
961.389
961.067
960.828
960.713
960.797
961.218
962.257
964.512
969.077
975.968
971.762
953.523
945.965
944.974
944.821
997.476
997.281
997.073
996.854
996.623
996.38
996.124
995.855
995.572
995.275
994.964
994.638
994.297
993.941
993.57
993.184
992.782
992.364
991.931
991.483
991.019
990.539
990.044
989.535
989.011
988.472
987.919
987.354
986.775
986.184
985.581
984.967
984.343
983.709
983.067
982.416
981.758
981.094
980.424
979.749
979.069
978.387
977.702
977.015
976.326
975.638
974.95
974.262
973.577
972.893
972.21
971.529
970.849
970.171
969.495
968.823
968.153
967.486
966.824
966.165
965.51
964.861
964.216
963.577
962.943
962.315
961.693
961.077
960.468
959.865
959.27
958.681
958.1
957.527
956.961
956.404
955.856
955.318
954.79
954.274
953.772
953.283
952.811
952.356
951.92
951.506
951.114
950.746
950.402
950.079
949.768
949.449
949.079
948.587
947.887
946.983
945.84
945.072
944.846
944.767
996.295
996.027
995.739
995.437
995.121
994.79
994.443
994.079
993.7
993.303
992.889
992.459
992.011
991.546
991.063
990.564
990.048
989.515
988.967
988.401
987.82
987.224
986.612
985.985
985.344
984.69
984.022
983.343
982.652
981.95
981.239
980.519
979.791
979.055
978.314
977.566
976.815
976.059
975.301
974.541
973.78
973.018
972.257
971.496
970.737
969.98
969.226
968.476
967.729
966.986
966.248
965.514
964.786
964.065
963.35
962.642
961.943
961.251
960.568
959.894
959.23
958.575
957.93
957.296
956.673
956.061
955.46
954.871
954.294
953.73
953.177
952.638
952.113
951.601
951.105
950.623
950.159
949.711
949.282
948.872
948.482
948.114
947.767
947.442
947.139
946.858
946.599
946.362
946.145
945.948
945.768
945.605
945.456
945.32
945.197
945.09
944.959
944.837
944.764
944.715
994.942
994.593
994.219
993.829
993.421
992.996
992.552
992.09
991.609
991.108
990.589
990.05
989.492
988.916
988.32
987.706
987.074
986.425
985.759
985.076
984.377
983.663
982.935
982.192
981.437
980.67
979.892
979.104
978.306
977.5
976.687
975.868
975.044
974.216
973.385
972.552
971.719
970.885
970.053
969.222
968.395
967.572
966.753
965.94
965.133
964.333
963.54
962.757
961.982
961.216
960.463
959.721
958.993
958.278
957.577
956.891
956.221
955.567
954.93
954.31
953.707
953.123
952.558
952.012
951.485
950.979
950.494
950.029
949.586
949.165
948.765
948.388
948.033
947.7
947.39
947.102
946.837
946.593
946.37
946.168
945.985
945.821
945.675
945.545
945.43
945.329
945.241
945.164
945.097
945.039
944.988
944.944
944.906
944.871
944.84
944.811
944.777
944.741
944.707
944.674
993.394
992.957
992.491
992.005
991.5
990.974
990.429
989.862
989.275
988.667
988.038
987.389
986.72
986.031
985.322
984.596
983.851
983.089
982.31
981.516
980.708
979.886
979.052
978.207
977.351
976.487
975.614
974.735
973.851
972.962
972.071
971.178
970.285
969.393
968.503
967.617
966.736
965.861
964.993
964.134
963.285
962.447
961.622
960.809
960.011
959.228
958.462
957.714
956.984
956.273
955.582
954.913
954.265
953.64
953.037
952.458
951.903
951.371
950.865
950.383
949.925
949.493
949.085
948.701
948.342
948.006
947.694
947.404
947.136
946.889
946.663
946.455
946.267
946.095
945.94
945.799
945.673
945.56
945.458
945.367
945.286
945.213
945.148
945.091
945.039
944.993
944.952
944.915
944.882
944.853
944.826
944.803
944.782
944.763
944.746
944.73
944.713
944.695
944.676
944.655
991.699
991.177
990.62
990.043
989.444
988.824
988.182
987.519
986.836
986.132
985.408
984.664
983.902
983.123
982.326
981.514
980.687
979.847
978.994
978.13
977.256
976.373
975.483
974.587
973.686
972.782
971.876
970.97
970.066
969.164
968.266
967.374
966.489
965.613
964.747
963.892
963.05
962.222
961.409
960.613
959.834
959.074
958.333
957.613
956.913
956.236
955.581
954.949
954.341
953.755
953.194
952.657
952.143
951.653
951.187
950.744
950.324
949.926
949.551
949.197
948.864
948.551
948.257
947.982
947.724
947.484
947.26
947.051
946.857
946.676
946.508
946.352
946.208
946.074
945.949
945.834
945.727
945.628
945.536
945.452
945.373
945.3
945.232
945.169
945.111
945.057
945.007
944.961
944.919
944.88
944.846
944.815
944.788
944.766
944.747
944.732
944.719
944.706
944.696
944.691
990.142
989.559
988.943
988.307
987.65
986.974
986.279
985.566
984.836
984.089
983.327
982.55
981.761
980.959
980.147
979.325
978.495
977.659
976.817
975.971
975.122
974.273
973.424
972.576
971.732
970.892
970.059
969.233
968.416
967.609
966.814
966.031
965.262
964.508
963.77
963.048
962.344
961.657
960.989
960.339
959.708
959.097
958.505
957.932
957.379
956.844
956.328
955.83
955.351
954.889
954.444
954.015
953.603
953.206
952.824
952.456
952.101
951.76
951.431
951.114
950.808
950.513
950.229
949.954
949.689
949.433
949.186
948.948
948.717
948.494
948.279
948.072
947.871
947.677
947.49
947.309
947.134
946.965
946.802
946.644
946.492
946.345
946.203
946.065
945.933
945.804
945.681
945.562
945.449
945.343
945.244
945.154
945.075
945.009
944.958
944.924
944.898
944.88
944.875
944.895
989.303
988.719
988.11
987.484
986.843
986.188
985.521
984.841
984.151
983.452
982.744
982.03
981.31
980.586
979.859
979.13
978.401
977.673
976.946
976.223
975.505
974.793
974.087
973.39
972.702
972.024
971.358
970.704
970.063
969.436
968.823
968.224
967.64
967.071
966.517
965.978
965.453
964.943
964.448
963.967
963.499
963.044
962.602
962.173
961.755
961.348
960.952
960.566
960.189
959.822
959.462
959.111
958.767
958.429
958.098
957.772
957.452
957.136
956.825
956.518
956.214
955.913
955.614
955.319
955.025
954.733
954.443
954.155
953.868
953.582
953.297
953.012
952.729
952.446
952.163
951.88
951.597
951.314
951.029
950.742
950.452
950.159
949.863
949.563
949.258
948.947
948.633
948.313
947.991
947.668
947.348
947.036
946.74
946.468
946.231
946.047
945.909
945.809
945.763
945.806
989.756
989.249
988.726
988.192
987.651
987.102
986.548
985.988
985.426
984.86
984.294
983.727
983.162
982.598
982.037
981.48
980.928
980.382
979.842
979.309
978.786
978.271
977.766
977.271
976.786
976.311
975.848
975.394
974.952
974.52
974.098
973.687
973.286
972.895
972.514
972.142
971.779
971.425
971.079
970.742
970.411
970.089
969.773
969.463
969.16
968.863
968.571
968.284
968.003
967.726
967.453
967.185
966.92
966.658
966.4
966.144
965.891
965.64
965.391
965.143
964.896
964.65
964.405
964.159
963.913
963.666
963.418
963.169
962.917
962.664
962.408
962.148
961.885
961.617
961.344
961.066
960.78
960.486
960.183
959.869
959.542
959.2
958.841
958.462
958.061
957.632
957.173
956.682
956.155
955.59
954.986
954.345
953.672
952.975
952.264
951.566
950.975
950.483
950.131
950.027
991.745
991.378
991.003
990.623
990.241
989.856
989.469
989.081
988.692
988.304
987.917
987.532
987.149
986.769
986.392
986.02
985.651
985.287
984.927
984.573
984.224
983.881
983.545
983.214
982.89
982.572
982.261
981.957
981.659
981.367
981.083
980.804
980.533
980.267
980.008
979.756
979.509
979.268
979.033
978.804
978.581
978.363
978.15
977.942
977.74
977.542
977.349
977.161
976.978
976.799
976.624
976.454
976.288
976.126
975.968
975.814
975.664
975.518
975.375
975.236
975.101
974.969
974.841
974.715
974.592
974.47
974.351
974.233
974.116
974
973.885
973.771
973.657
973.542
973.427
973.311
973.193
973.073
972.95
972.824
972.695
972.561
972.423
972.279
972.13
971.964
971.778
971.569
971.331
971.058
970.745
970.386
969.976
969.505
968.963
968.334
967.598
966.862
966.248
965.942
994.442
994.216
993.984
993.75
993.514
993.277
993.038
992.799
992.559
992.319
992.079
991.84
991.601
991.364
991.128
990.893
990.66
990.43
990.202
989.976
989.754
989.535
989.319
989.108
988.9
988.696
988.496
988.301
988.111
987.925
987.745
987.569
987.398
987.233
987.072
986.917
986.767
986.623
986.484
986.35
986.221
986.098
985.98
985.868
985.76
985.658
985.562
985.47
985.384
985.303
985.227
985.157
985.092
985.032
984.977
984.928
984.884
984.846
984.813
984.785
984.763
984.746
984.735
984.731
984.733
984.743
984.76
984.785
984.819
984.861
984.912
984.972
985.042
985.123
985.214
985.317
985.431
985.557
985.695
985.846
986.009
986.185
986.374
986.574
986.787
987.02
987.276
987.558
987.87
988.208
988.575
988.974
989.411
989.89
990.414
990.988
991.61
992.274
992.953
993.596
996.55
996.42
996.286
996.151
996.016
995.881
995.745
995.609
995.473
995.338
995.204
995.07
994.937
994.806
994.676
994.547
994.42
994.295
994.171
994.049
993.93
993.813
993.699
993.587
993.479
993.373
993.271
993.172
993.076
992.984
992.896
992.811
992.73
992.653
992.58
992.511
992.446
992.385
992.328
992.275
992.227
992.183
992.143
992.108
992.078
992.051
992.03
992.013
992.001
991.994
991.992
991.995
992.003
992.017
992.036
992.06
992.09
992.126
992.168
992.216
992.27
992.331
992.399
992.473
992.555
992.644
992.741
992.846
992.959
993.081
993.211
993.351
993.499
993.657
993.823
994
994.185
994.38
994.583
994.795
995.015
995.242
995.476
995.715
995.959
996.205
996.452
996.699
996.943
997.19
997.441
997.694
997.945
998.191
998.43
998.66
998.875
999.069
999.236
999.365
997.942
997.868
997.793
997.717
997.642
997.568
997.494
997.42
997.347
997.275
997.204
997.134
997.065
996.997
996.931
996.866
996.803
996.742
996.682
996.625
996.569
996.516
996.466
996.418
996.372
996.329
996.289
996.252
996.217
996.186
996.158
996.133
996.111
996.092
996.076
996.064
996.055
996.049
996.046
996.047
996.051
996.058
996.069
996.083
996.101
996.122
996.146
996.173
996.204
996.239
996.277
996.319
996.364
996.412
996.464
996.52
996.579
996.642
996.709
996.779
996.853
996.93
997.011
997.095
997.182
997.272
997.366
997.463
997.562
997.664
997.769
997.876
997.985
998.095
998.207
998.32
998.432
998.545
998.657
998.768
998.877
998.984
999.087
999.186
999.28
999.37
999.453
999.53
999.601
999.664
999.719
999.767
999.81
999.848
999.881
999.909
999.931
999.949
999.962
999.971
998.818
998.777
998.735
998.694
998.654
998.615
998.576
998.537
998.5
998.463
998.427
998.392
998.358
998.325
998.294
998.264
998.235
998.208
998.182
998.158
998.136
998.116
998.097
998.081
998.066
998.054
998.044
998.037
998.032
998.029
998.028
998.03
998.034
998.04
998.049
998.06
998.074
998.09
998.108
998.128
998.15
998.175
998.201
998.23
998.26
998.293
998.327
998.362
998.4
998.438
998.479
998.52
998.563
998.608
998.653
998.7
998.747
998.795
998.844
998.893
998.943
998.994
999.044
999.094
999.145
999.195
999.244
999.294
999.342
999.39
999.436
999.482
999.526
999.569
999.61
999.65
999.688
999.724
999.757
999.789
999.818
999.845
999.87
999.892
999.912
999.929
999.944
999.956
999.967
999.975
999.982
999.987
999.99
999.993
999.995
999.997
999.998
999.998
999.999
999.999
999.329
999.306
999.284
999.262
999.241
999.221
999.201
999.182
999.163
999.145
999.128
999.112
999.096
999.081
999.067
999.055
999.043
999.032
999.023
999.014
999.007
999.002
998.997
998.994
998.993
998.993
998.994
998.997
999.002
999.008
999.015
999.024
999.035
999.047
999.06
999.075
999.091
999.108
999.127
999.146
999.167
999.188
999.211
999.234
999.258
999.283
999.308
999.334
999.36
999.386
999.413
999.44
999.467
999.494
999.52
999.547
999.573
999.599
999.624
999.649
999.673
999.697
999.72
999.742
999.763
999.784
999.803
999.822
999.839
999.856
999.872
999.886
999.9
999.912
999.924
999.935
999.944
999.953
999.961
999.968
999.974
999.979
999.984
999.987
999.99
999.993
999.995
999.996
999.998
999.998
999.999
999.999
1000
1000
1000
1000
1000
1000
1000
1000
999.618
999.605
999.593
999.582
999.571
999.561
999.551
999.541
999.532
999.523
999.515
999.508
999.501
999.494
999.489
999.484
999.479
999.476
999.473
999.471
999.469
999.469
999.469
999.471
999.473
999.476
999.48
999.484
999.49
999.496
999.504
999.512
999.521
999.531
999.541
999.553
999.564
999.577
999.59
999.603
999.617
999.631
999.646
999.661
999.676
999.691
999.706
999.721
999.736
999.751
999.766
999.781
999.795
999.809
999.822
999.836
999.848
999.861
999.872
999.884
999.894
999.904
999.914
999.923
999.931
999.939
999.946
999.953
999.959
999.964
999.969
999.974
999.978
999.981
999.984
999.987
999.99
999.992
999.993
999.995
999.996
999.997
999.998
999.998
999.999
999.999
1000
1000
1000
1000
1000
1000
1000
1000
1000
1000
1000
1000
1000
1000
999.783
999.776
999.77
999.764
999.758
999.753
999.748
999.743
999.738
999.734
999.73
999.727
999.724
999.721
999.718
999.716
999.715
999.714
999.713
999.713
999.713
999.714
999.715
999.717
999.719
999.722
999.726
999.729
999.734
999.739
999.744
999.75
999.756
999.762
999.769
999.777
999.784
999.792
999.8
999.808
999.817
999.825
999.834
999.842
999.851
999.859
999.868
999.876
999.884
999.892
999.9
999.908
999.915
999.922
999.929
999.935
999.941
999.947
999.952
999.957
999.962
999.966
999.97
999.974
999.977
999.981
999.983
999.986
999.988
999.99
999.992
999.993
999.994
999.995
999.996
999.997
999.998
999.998
999.999
999.999
999.999
999.999
1000
1000
1000
1000
1000
1000
1000
1000
1000
1000
1000
1000
1000
1000
1000
1000
1000
1000
999.881
999.877
999.874
999.871
999.868
999.865
999.862
999.86
999.858
999.855
999.854
999.852
999.85
999.849
999.848
999.847
999.847
999.846
999.846
999.846
999.847
999.848
999.849
999.85
999.852
999.853
999.856
999.858
999.861
999.864
999.867
999.871
999.874
999.878
999.882
999.887
999.891
999.895
999.9
999.905
999.909
999.914
999.919
999.924
999.928
999.933
999.937
999.942
999.946
999.95
999.954
999.958
999.962
999.965
999.969
999.972
999.975
999.978
999.98
999.983
999.985
999.987
999.989
999.99
999.992
999.993
999.994
999.995
999.996
999.997
999.997
999.998
999.998
999.999
999.999
999.999
999.999
1000
1000
1000
1000
1000
1000
1000
1000
1000
1000
1000
1000
1000
1000
1000
1000
1000
1000
1000
1000
1000
1000
1000
999.94
999.938
999.936
999.934
999.933
999.931
999.93
999.929
999.928
999.927
999.926
999.925
999.924
999.924
999.923
999.923
999.922
999.922
999.922
999.923
999.923
999.923
999.924
999.925
999.926
999.927
999.928
999.929
999.931
999.932
999.934
999.936
999.938
999.94
999.942
999.944
999.946
999.949
999.951
999.953
999.956
999.958
999.961
999.963
999.965
999.968
999.97
999.972
999.974
999.977
999.979
999.981
999.982
999.984
999.986
999.987
999.989
999.99
999.991
999.992
999.993
999.994
999.995
999.996
999.997
999.997
999.998
999.998
999.998
999.999
999.999
999.999
999.999
999.999
1000
1000
1000
1000
1000
1000
1000
1000
1000
1000
1000
1000
1000
1000
1000
1000
1000
1000
1000
1000
1000
1000
1000
1000
1000
1000
999.979
999.978
999.978
999.977
999.976
999.976
999.975
999.975
999.974
999.974
999.974
999.973
999.973
999.973
999.973
999.972
999.972
999.972
999.972
999.972
999.972
999.973
999.973
999.973
999.973
999.974
999.974
999.974
999.975
999.976
999.976
999.977
999.977
999.978
999.979
999.98
999.98
999.981
999.982
999.983
999.984
999.985
999.986
999.986
999.987
999.988
999.989
999.99
999.991
999.991
999.992
999.993
999.994
999.994
999.995
999.995
999.996
999.996
999.997
999.997
999.998
999.998
999.998
999.999
999.999
999.999
999.999
999.999
999.999
1000
1000
1000
1000
1000
1000
1000
1000
1000
1000
1000
1000
1000
1000
1000
1000
1000
1000
1000
1000
1000
1000
1000
1000
1000
1000
1000
1000
1000
1000
1000
944.783
944.608
944.577
944.572
944.574
944.578
944.586
944.598
944.615
944.642
944.682
944.743
944.838
944.984
945.211
945.567
946.131
947.056
948.658
951.791
944.718
944.598
944.578
944.577
944.582
944.59
944.604
944.623
944.652
944.694
944.756
944.849
944.989
945.199
945.517
946.004
946.768
948.013
950.204
954.8
944.663
944.593
944.584
944.588
944.598
944.614
944.638
944.671
944.719
944.787
944.885
945.028
945.235
945.54
945.99
946.669
947.726
949.459
952.596
959.659
944.631
944.599
944.601
944.614
944.635
944.665
944.707
944.766
944.847
944.959
945.116
945.336
945.648
946.093
946.739
947.703
949.2
951.681
956.303
967.197
944.633
944.63
944.648
944.678
944.721
944.779
944.857
944.961
945.101
945.288
945.54
945.881
946.35
947.005
947.942
949.326
951.47
955.034
961.758
977.464
944.702
944.732
944.781
944.848
944.936
945.051
945.199
945.388
945.631
945.938
946.337
946.863
947.564
948.524
949.876
951.851
954.874
959.818
968.973
988.288
944.972
945.063
945.182
945.332
945.518
945.747
946.025
946.36
946.761
947.25
947.864
948.649
949.674
951.049
952.95
955.681
959.762
966.247
977.493
995.773
946.026
946.256
946.529
946.85
947.22
947.64
948.11
948.634
949.239
949.966
950.855
951.963
953.378
955.238
957.769
961.33
966.533
974.447
986.432
998.872
950.408
950.868
951.375
951.928
952.513
953.096
953.712
954.382
955.176
956.104
957.215
958.556
960.241
962.42
965.416
969.624
975.66
983.986
993.724
999.656
966.272
966.8
967.367
967.955
968.543
969.087
969.674
970.347
971.094
971.915
972.859
973.945
975.299
977.01
979.447
982.929
987.708
993.253
998.03
999.707
993.985
993.99
994.025
994.086
994.203
994.45
994.74
995.045
995.364
995.72
996.099
996.538
997.013
997.574
998.076
998.515
998.861
999.282
999.796
999.941
999.414
999.396
999.383
999.373
999.373
999.395
999.431
999.484
999.536
999.591
999.646
999.705
999.763
999.823
999.871
999.906
999.929
999.954
999.989
999.989
999.973
999.97
999.968
999.965
999.962
999.96
999.96
999.963
999.967
999.972
999.976
999.981
999.985
999.99
999.993
999.995
999.996
999.998
1000
999.998
999.999
999.999
999.999
999.999
999.999
999.999
999.998
999.998
999.998
999.999
999.999
999.999
999.999
999.999
1000
1000
1000
1000
1000
1000
1000
1000
1000
1000
1000
1000
1000
1000
1000
1000
1000
1000
1000
1000
1000
1000
1000
1000
1000
1000
1000
1000
1000
1000
1000
1000
1000
1000
1000
1000
1000
1000
1000
1000
1000
1000
1000
1000
1000
1000
1000
1000
1000
1000
1000
1000
1000
1000
1000
1000
1000
1000
1000
1000
1000
1000
1000
1000
1000
1000
1000
1000
1000
1000
1000
1000
1000
1000
1000
1000
1000
1000
1000
1000
1000
1000
1000
1000
1000
1000
1000
1000
1000
1000
1000
1000
1000
1000
1000
1000
1000
1000
1000
1000
1000
1000
1000
1000
1000
1000
1000
1000
1000
1000
1000
1000
1000
1000
1000
1000
1000
1000
1000
1000
1000
1000
1000
1000
1000
1000
944.555
944.555
944.555
944.555
944.555
944.555
944.555
944.555
944.555
944.555
944.555
944.555
944.555
944.555
944.555
944.555
944.555
944.555
944.555
944.555
944.555
944.555
944.555
944.555
944.555
944.555
944.555
944.555
944.555
944.555
944.555
944.555
944.555
944.555
944.555
944.555
944.555
944.555
944.555
944.555
944.555
944.555
944.555
944.555
944.555
944.555
944.555
944.555
944.555
944.555
944.555
944.555
944.555
944.555
944.555
944.555
944.555
944.555
944.555
944.555
944.555
944.555
944.555
944.555
944.555
944.555
944.555
944.555
944.555
944.555
944.555
944.555
944.555
944.555
944.555
944.555
944.555
944.555
944.555
944.555
944.555
944.555
944.555
944.555
944.555
944.555
944.555
944.555
944.555
944.555
944.555
944.555
944.555
944.555
944.555
944.555
944.555
944.555
944.555
944.555
944.555
944.555
944.555
944.555
944.555
944.555
944.555
944.555
944.555
944.555
944.555
944.555
944.555
944.555
944.555
944.555
944.555
944.555
944.555
944.555
944.555
944.555
944.555
944.555
944.555
944.555
944.555
944.555
944.555
944.555
944.555
944.555
944.555
944.555
944.555
944.555
944.555
944.555
944.555
944.555
944.555
944.555
944.555
944.555
944.555
944.555
944.555
944.555
944.555
944.555
944.555
944.555
944.555
944.555
944.555
944.555
944.555
944.555
944.555
944.555
944.555
944.555
944.555
944.555
944.555
944.555
944.555
944.555
944.555
944.555
944.555
944.555
944.555
944.555
944.555
944.555
944.555
944.555
944.555
944.555
944.555
944.555
944.555
944.555
944.555
944.555
944.555
944.555
944.555
944.555
944.555
944.555
944.555
944.555
944.555
944.555
944.555
944.555
944.555
944.555
944.555
944.555
944.555
944.555
944.555
944.555
944.555
944.555
944.555
944.555
944.555
944.555
944.555
944.555
944.555
944.555
944.555
944.555
944.555
944.555
944.555
944.555
944.555
944.555
944.555
944.555
944.555
944.555
944.555
944.555
944.555
944.555
944.555
944.555
944.555
944.555
944.555
944.555
944.555
944.555
944.555
944.555
944.555
944.555
944.555
944.555
944.555
944.555
944.555
944.555
944.555
944.555
944.555
944.555
944.555
944.555
944.555
944.555
944.555
944.555
944.555
944.555
944.555
944.555
944.555
944.555
944.555
944.555
944.555
944.555
944.555
944.555
944.555
944.555
944.555
944.555
944.555
944.555
944.555
944.555
944.555
944.555
944.555
944.555
944.555
944.555
944.555
944.555
944.555
944.555
944.555
944.555
944.555
944.555
944.555
944.555
944.555
944.555
944.555
944.555
944.555
944.555
944.555
944.555
944.555
944.555
944.555
944.555
944.555
944.555
944.555
944.555
944.555
944.555
944.555
944.555
944.555
944.555
944.555
944.555
944.555
944.555
944.555
944.555
944.555
944.555
944.555
944.555
944.555
944.555
944.555
944.555
944.555
944.555
944.555
944.555
944.555
944.555
944.555
944.555
944.555
944.555
944.555
944.555
944.555
944.555
944.555
944.555
944.555
944.555
944.555
944.555
944.555
944.555
944.555
944.555
944.555
944.555
944.555
944.555
944.555
944.555
944.555
944.555
944.555
944.555
944.555
944.555
944.555
944.555
944.555
944.555
944.555
944.555
944.555
944.555
944.555
944.555
944.555
944.555
944.555
944.555
944.555
944.555
944.555
944.555
944.555
944.555
944.555
944.555
944.555
944.555
944.555
944.555
944.555
944.555
944.555
944.555
944.555
944.555
944.555
944.555
944.555
944.555
944.555
944.555
944.555
944.555
944.555
944.555
944.555
944.555
944.555
944.555
944.555
944.555
944.555
944.555
944.555
944.555
944.555
944.555
944.555
944.555
944.555
944.555
944.555
944.555
944.555
944.555
944.555
944.555
944.555
944.555
944.555
944.555
944.555
944.555
944.555
944.555
944.555
944.555
944.555
944.555
944.555
944.555
944.555
944.555
944.555
944.555
944.555
944.555
944.555
944.555
944.555
944.555
944.555
944.555
944.555
944.555
944.555
944.555
944.555
944.555
944.555
944.555
944.555
944.555
944.555
944.555
944.555
944.555
944.555
944.555
944.555
944.555
944.555
944.555
944.555
944.555
944.555
944.555
944.555
944.555
944.555
944.555
944.555
944.555
944.555
944.555
944.555
944.555
944.555
944.555
944.555
944.555
944.555
944.555
944.555
944.555
944.555
944.555
944.555
944.555
944.555
944.555
944.555
944.555
944.555
944.555
944.555
944.555
944.555
944.555
944.555
944.555
944.555
944.555
944.555
944.555
944.555
944.555
944.555
944.555
944.555
944.555
944.555
944.555
944.555
944.555
944.555
944.555
944.555
944.555
944.555
944.555
944.555
944.555
944.555
944.555
944.555
944.555
944.555
944.555
944.555
944.555
944.555
944.555
944.555
944.555
944.555
944.555
944.555
944.555
944.555
944.555
944.555
944.555
944.555
944.555
944.555
944.555
944.555
944.555
944.555
944.555
944.555
944.555
944.555
944.555
944.555
944.555
944.555
944.555
944.555
944.555
944.555
944.555
944.555
944.555
944.555
944.555
944.555
944.555
944.555
944.555
944.555
944.555
944.555
944.555
944.555
944.555
944.555
944.555
944.555
944.555
944.555
944.555
944.555
944.555
944.555
944.555
944.555
944.555
944.555
944.555
944.555
944.555
944.555
944.555
944.555
944.555
944.555
944.555
944.555
944.555
944.555
944.555
944.555
944.555
944.555
944.555
944.555
944.555
944.555
944.555
944.555
944.555
944.555
944.555
944.555
944.555
944.555
944.555
944.555
944.555
944.555
944.555
944.555
944.555
944.555
944.555
944.555
944.555
944.555
944.555
944.555
944.555
944.555
944.555
944.555
944.555
944.555
944.555
944.555
944.555
944.555
944.555
944.555
944.555
944.555
944.555
944.555
944.555
944.555
944.555
944.555
944.555
944.555
944.555
944.555
944.555
944.555
944.555
944.555
944.555
944.555
944.555
944.555
944.555
944.555
944.555
944.555
944.555
944.555
944.555
944.555
944.555
944.555
944.555
944.555
944.555
944.555
944.555
944.555
944.555
944.555
944.555
944.555
944.555
944.555
944.555
944.555
944.555
944.555
944.555
944.555
944.555
944.555
944.555
944.555
944.555
944.555
944.555
944.555
944.555
944.555
944.555
944.555
944.555
944.555
944.555
944.555
944.555
944.555
944.555
944.555
944.555
944.555
944.555
944.555
944.555
944.555
944.555
944.555
944.555
944.555
944.555
944.555
944.555
944.555
944.555
944.555
944.555
944.555
944.555
944.555
944.555
944.555
944.555
944.555
944.555
944.555
944.555
944.555
944.555
944.555
944.555
944.555
944.555
944.555
944.555
944.555
944.555
944.555
944.555
944.555
944.555
944.555
944.555
944.555
944.555
944.555
944.555
944.555
944.555
944.555
944.555
944.555
944.555
944.555
944.555
944.555
944.555
944.555
944.555
944.555
944.555
944.555
944.555
944.555
944.555
944.555
944.555
944.555
944.555
944.555
944.555
944.555
944.555
944.555
944.555
944.555
944.555
944.555
944.555
944.555
944.555
944.555
944.555
944.555
944.555
944.555
944.555
944.555
944.555
944.555
944.555
944.555
944.555
944.555
944.555
944.555
944.555
944.555
944.555
944.555
944.555
944.555
944.555
944.555
944.555
944.555
944.555
944.555
944.555
944.555
944.555
944.555
944.555
944.555
944.555
944.555
944.555
944.555
944.555
944.555
944.555
944.555
944.555
944.555
944.555
944.555
944.555
944.555
944.555
944.555
944.555
944.555
944.555
944.555
944.555
944.555
944.555
944.555
944.555
944.555
944.555
944.555
944.555
944.555
944.555
944.555
944.555
944.555
944.555
944.555
944.555
944.555
944.555
944.555
944.555
944.555
944.555
944.555
944.555
944.555
944.555
944.555
944.555
944.555
944.555
944.555
944.555
944.555
944.555
944.555
944.555
944.555
944.555
944.555
944.555
944.555
944.555
944.555
944.555
944.555
944.555
944.555
944.555
944.555
944.555
944.555
944.555
944.555
944.555
944.555
944.555
944.555
944.555
944.555
944.555
944.555
944.555
944.555
944.555
944.555
944.555
944.555
944.555
944.555
944.555
944.555
944.555
944.555
944.555
944.555
944.555
944.555
944.555
944.555
944.555
944.555
944.555
944.555
944.555
944.555
944.555
944.555
944.555
944.555
944.555
944.555
944.555
944.555
944.555
944.555
944.555
944.555
944.555
944.555
944.555
944.555
944.555
944.555
944.555
944.555
944.555
944.555
944.555
944.555
944.555
944.555
944.555
944.555
944.555
944.555
944.555
944.555
944.555
944.555
944.555
944.555
944.555
944.555
944.555
944.555
944.555
944.555
944.555
944.555
944.555
944.555
944.555
944.555
944.555
944.555
944.555
944.555
944.555
944.555
944.555
944.555
944.555
944.555
944.555
944.555
944.555
944.555
944.555
944.555
944.555
944.555
944.555
944.555
944.555
944.555
944.555
944.555
944.555
944.555
944.555
944.555
944.555
944.555
944.555
944.555
944.555
944.555
944.555
944.555
944.555
944.555
944.555
944.555
944.555
944.555
944.555
944.555
944.555
944.555
944.555
944.555
944.555
944.555
944.555
944.555
944.555
944.555
944.555
944.555
944.555
944.555
944.555
944.555
944.555
944.555
944.555
944.555
944.555
944.555
944.555
944.555
944.555
944.555
944.555
944.555
944.555
944.555
944.555
944.555
944.555
944.555
944.555
944.555
944.555
944.555
944.555
944.555
944.555
944.555
944.555
944.555
944.555
944.555
944.555
944.555
944.555
944.555
944.555
944.555
944.555
944.555
944.555
944.555
944.555
944.555
944.555
944.555
944.555
944.555
944.555
944.555
944.555
944.555
944.555
944.555
944.555
944.555
944.555
944.555
944.555
944.555
944.555
944.555
944.555
944.555
944.555
944.555
944.555
944.555
944.555
944.555
944.555
944.555
944.555
944.555
944.555
944.555
944.555
944.555
944.555
944.555
944.555
944.555
944.555
944.555
944.555
944.555
944.555
944.555
944.555
944.555
944.555
944.555
944.555
944.555
944.555
944.555
944.555
944.555
944.555
944.555
944.555
944.555
944.555
944.555
944.555
944.555
944.555
944.555
944.555
944.555
944.555
944.555
944.555
944.555
944.555
944.555
944.555
944.555
944.555
944.555
944.555
944.555
944.555
944.555
944.555
944.555
944.555
944.555
944.555
944.555
944.555
944.555
944.555
944.555
944.555
944.555
944.555
944.555
944.555
944.555
944.555
944.555
944.555
944.555
944.555
944.555
944.555
944.555
944.555
944.555
944.555
944.555
944.555
944.555
944.555
944.555
944.555
944.555
944.555
944.555
944.555
944.555
944.555
944.555
944.555
944.555
944.555
944.555
944.555
944.555
944.555
944.555
944.555
944.555
944.555
944.555
944.555
944.555
944.555
944.555
944.555
944.555
944.555
944.555
944.555
944.555
944.555
944.555
944.555
944.555
944.555
944.555
944.555
944.555
944.555
944.555
944.555
944.555
944.555
944.555
944.555
944.555
944.555
944.555
944.555
944.555
944.555
944.555
944.555
944.555
944.555
944.555
944.555
944.555
944.555
944.555
944.555
944.555
944.555
944.555
944.555
944.555
944.555
944.555
944.555
944.555
944.555
944.555
944.555
944.555
944.555
944.555
944.555
944.555
944.555
944.555
944.555
944.555
944.555
944.555
944.555
944.555
944.555
944.555
944.555
944.555
944.555
944.555
944.555
944.555
944.555
944.555
944.555
944.555
944.555
944.555
944.555
944.555
944.555
944.555
944.555
944.555
944.555
944.555
944.555
944.555
944.555
944.555
944.555
944.555
944.555
944.555
944.555
944.555
944.555
944.555
944.555
944.555
944.555
944.555
944.555
944.555
944.555
944.555
944.555
944.555
944.555
944.555
944.555
944.555
944.555
944.555
944.555
944.555
944.555
944.555
944.555
944.555
944.555
944.555
944.555
944.555
944.555
944.555
944.555
944.555
944.555
944.555
944.555
944.555
944.555