/*--------------------------------*- C++ -*----------------------------------*\
| =========                 |                                                 |
| \\      /  F ield         | OpenFOAM: The Open Source CFD Toolbox           |
|  \\    /   O peration     | Version:  2.1.0                                 |
|   \\  /    A nd           | Web:      www.OpenFOAM.org                      |
|    \\/     M anipulation  |                                                 |
\*---------------------------------------------------------------------------*/
FoamFile
{
    version     2.0;
    format      ascii;
    class       volScalarField;
    location    "0.28";
    object      T;
}
// * * * * * * * * * * * * * * * * * * * * * * * * * * * * * * * * * * * * * //

dimensions      [0 0 0 1 0 0 0];

internalField   nonuniform List<scalar> 
6400
(
295.336
295.526
295.728
295.941
296.168
296.409
296.664
296.936
297.224
297.529
297.851
298.192
298.553
298.933
299.334
299.755
300.199
300.664
301.152
301.663
302.197
302.754
303.336
303.941
304.571
305.224
305.902
306.603
307.328
308.076
308.846
309.639
310.453
311.287
312.142
313.015
313.906
314.814
315.738
316.676
317.628
318.591
319.566
320.551
321.544
322.545
323.553
324.566
325.584
326.605
327.63
328.656
329.683
330.714
331.747
332.782
333.818
334.856
335.894
336.931
337.968
339.003
340.036
341.066
342.091
343.113
344.128
345.137
346.139
347.134
348.121
349.1
350.07
351.033
351.988
352.935
353.874
354.806
355.729
356.642
357.541
358.422
359.278
360.098
360.867
361.565
362.158
362.601
362.812
362.658
361.882
359.967
355.829
347.509
335.097
342.651
376.184
390.461
392.349
392.641
297.461
297.794
298.151
298.527
298.923
299.34
299.779
300.241
300.727
301.238
301.773
302.334
302.921
303.534
304.174
304.841
305.535
306.257
307.007
307.784
308.588
309.42
310.28
311.166
312.078
313.017
313.981
314.969
315.981
317.015
318.072
319.149
320.245
321.36
322.492
323.64
324.802
325.977
327.163
328.361
329.567
330.78
332.001
333.226
334.455
335.686
336.918
338.151
339.382
340.612
341.842
343.071
344.299
345.525
346.749
347.969
349.185
350.397
351.604
352.806
354.001
355.189
356.37
357.542
358.706
359.86
361.005
362.14
363.264
364.378
365.48
366.57
367.648
368.713
369.765
370.802
371.823
372.827
373.812
374.777
375.718
376.633
377.519
378.373
379.192
379.972
380.709
381.402
382.051
382.661
383.248
383.852
384.551
385.481
386.809
388.524
390.697
392.162
392.593
392.745
299.485
299.946
300.44
300.958
301.502
302.072
302.67
303.296
303.951
304.635
305.35
306.094
306.869
307.675
308.511
309.377
310.274
311.2
312.155
313.14
314.154
315.196
316.266
317.364
318.487
319.636
320.809
322.006
323.224
324.462
325.719
326.994
328.286
329.592
330.911
332.241
333.582
334.932
336.288
337.651
339.017
340.387
341.758
343.13
344.501
345.87
347.236
348.598
349.956
351.308
352.654
353.994
355.325
356.647
357.958
359.257
360.545
361.819
363.079
364.324
365.554
366.767
367.963
369.141
370.3
371.441
372.561
373.661
374.739
375.797
376.831
377.843
378.83
379.792
380.727
381.634
382.511
383.356
384.167
384.942
385.68
386.378
387.036
387.653
388.228
388.762
389.253
389.705
390.117
390.493
390.835
391.147
391.431
391.69
391.924
392.128
392.378
392.611
392.75
392.843
301.81
302.41
303.055
303.728
304.431
305.166
305.932
306.732
307.565
308.433
309.334
310.27
311.24
312.244
313.282
314.353
315.457
316.593
317.76
318.958
320.185
321.441
322.725
324.034
325.369
326.726
328.106
329.506
330.924
332.359
333.81
335.274
336.749
338.234
339.726
341.225
342.728
344.233
345.739
347.243
348.745
350.242
351.733
353.216
354.691
356.155
357.608
359.047
360.473
361.883
363.273
364.644
365.992
367.318
368.618
369.893
371.141
372.361
373.551
374.71
375.838
376.933
377.994
379.02
380.01
380.963
381.878
382.754
383.591
384.388
385.144
385.859
386.531
387.162
387.751
388.297
388.802
389.265
389.689
390.074
390.421
390.734
391.012
391.26
391.479
391.671
391.84
391.986
392.114
392.225
392.322
392.406
392.48
392.546
392.605
392.661
392.726
392.795
392.859
392.923
304.479
305.232
306.039
306.879
307.754
308.665
309.612
310.597
311.618
312.678
313.774
314.907
316.077
317.284
318.525
319.801
321.111
322.453
323.826
325.229
326.659
328.116
329.597
331.1
332.625
334.168
335.728
337.302
338.889
340.487
342.092
343.703
345.318
346.934
348.548
350.159
351.764
353.36
354.946
356.518
358.076
359.616
361.136
362.634
364.108
365.556
366.975
368.365
369.722
371.045
372.332
373.582
374.793
375.964
377.094
378.181
379.225
380.224
381.178
382.087
382.951
383.768
384.539
385.265
385.946
386.582
387.174
387.724
388.233
388.702
389.133
389.527
389.886
390.212
390.508
390.775
391.016
391.232
391.426
391.6
391.755
391.893
392.017
392.127
392.225
392.313
392.392
392.462
392.525
392.581
392.631
392.676
392.716
392.752
392.785
392.815
392.848
392.882
392.918
392.958
307.409
308.314
309.279
310.282
311.323
312.403
313.522
314.679
315.874
317.106
318.376
319.681
321.02
322.393
323.798
325.232
326.696
328.186
329.7
331.238
332.795
334.371
335.963
337.569
339.186
340.812
342.444
344.079
345.715
347.349
348.979
350.601
352.214
353.813
355.397
356.963
358.509
360.031
361.528
362.997
364.435
365.842
367.215
368.552
369.852
371.113
372.334
373.514
374.652
375.748
376.8
377.808
378.773
379.694
380.572
381.406
382.198
382.948
383.658
384.327
384.957
385.55
386.107
386.628
387.116
387.572
387.998
388.395
388.764
389.108
389.427
389.723
389.998
390.253
390.49
390.71
390.913
391.102
391.277
391.439
391.589
391.728
391.857
391.976
392.087
392.19
392.286
392.373
392.454
392.528
392.594
392.653
392.704
392.747
392.782
392.811
392.837
392.86
392.88
392.89
310.11
311.123
312.195
313.304
314.45
315.632
316.848
318.098
319.379
320.692
322.034
323.403
324.797
326.215
327.654
329.113
330.588
332.077
333.579
335.09
336.609
338.132
339.657
341.183
342.705
344.221
345.728
347.224
348.707
350.174
351.622
353.049
354.454
355.834
357.187
358.512
359.807
361.071
362.303
363.502
364.668
365.799
366.897
367.96
368.988
369.983
370.943
371.871
372.765
373.628
374.46
375.262
376.034
376.778
377.495
378.186
378.852
379.494
380.113
380.71
381.286
381.842
382.378
382.897
383.397
383.881
384.348
384.8
385.236
385.657
386.065
386.458
386.839
387.206
387.562
387.905
388.237
388.558
388.868
389.168
389.458
389.737
390.008
390.269
390.522
390.766
391.001
391.227
391.443
391.646
391.835
392.006
392.156
392.282
392.379
392.444
392.495
392.529
392.538
392.501
311.57
312.585
313.648
314.741
315.861
317.007
318.177
319.37
320.583
321.814
323.061
324.322
325.594
326.876
328.165
329.459
330.755
332.052
333.347
334.639
335.923
337.2
338.466
339.719
340.957
342.178
343.379
344.561
345.72
346.856
347.968
349.056
350.118
351.154
352.164
353.148
354.106
355.038
355.945
356.827
357.685
358.52
359.332
360.122
360.892
361.641
362.372
363.084
363.78
364.46
365.125
365.775
366.413
367.039
367.653
368.258
368.853
369.44
370.019
370.591
371.158
371.718
372.275
372.827
373.375
373.92
374.462
375.002
375.54
376.075
376.609
377.142
377.674
378.205
378.737
379.268
379.801
380.335
380.871
381.412
381.958
382.51
383.07
383.637
384.214
384.8
385.396
386.001
386.611
387.224
387.831
388.423
388.986
389.503
389.954
390.304
390.567
390.757
390.845
390.764
310.781
311.663
312.575
313.505
314.45
315.409
316.378
317.358
318.344
319.336
320.332
321.329
322.325
323.319
324.309
325.293
326.27
327.238
328.195
329.141
330.071
330.988
331.887
332.77
333.634
334.482
335.312
336.123
336.916
337.69
338.447
339.185
339.906
340.609
341.295
341.966
342.62
343.259
343.884
344.494
345.091
345.676
346.248
346.809
347.358
347.898
348.427
348.948
349.46
349.963
350.46
350.949
351.431
351.908
352.379
352.846
353.308
353.766
354.222
354.675
355.126
355.576
356.026
356.476
356.927
357.38
357.835
358.293
358.755
359.221
359.692
360.169
360.654
361.147
361.65
362.164
362.691
363.233
363.793
364.374
364.979
365.611
366.276
366.978
367.724
368.52
369.372
370.286
371.268
372.322
373.449
374.646
375.905
377.213
378.547
379.861
380.973
381.9
382.563
382.76
307.33
307.965
308.616
309.274
309.939
310.608
311.281
311.957
312.633
313.309
313.985
314.657
315.327
315.991
316.65
317.303
317.949
318.589
319.22
319.842
320.455
321.058
321.651
322.233
322.804
323.365
323.914
324.452
324.978
325.493
325.997
326.49
326.971
327.441
327.901
328.349
328.787
329.215
329.632
330.039
330.437
330.825
331.204
331.574
331.935
332.287
332.63
332.966
333.293
333.613
333.924
334.229
334.525
334.815
335.097
335.373
335.641
335.903
336.159
336.407
336.65
336.886
337.116
337.341
337.563
337.78
337.995
338.207
338.416
338.624
338.83
339.036
339.241
339.447
339.654
339.864
340.076
340.292
340.512
340.738
340.971
341.212
341.461
341.72
341.99
342.289
342.623
343.001
343.431
343.924
344.49
345.138
345.88
346.733
347.716
348.858
350.197
351.537
352.656
353.215
302.672
303.061
303.461
303.864
304.271
304.681
305.093
305.507
305.921
306.336
306.751
307.165
307.579
307.99
308.399
308.806
309.21
309.611
310.007
310.398
310.785
311.166
311.541
311.91
312.272
312.627
312.975
313.315
313.647
313.971
314.286
314.593
314.892
315.181
315.461
315.733
315.995
316.248
316.491
316.726
316.951
317.166
317.373
317.57
317.758
317.937
318.107
318.267
318.418
318.56
318.693
318.817
318.931
319.036
319.132
319.218
319.295
319.363
319.421
319.47
319.509
319.538
319.557
319.565
319.561
319.544
319.514
319.47
319.411
319.337
319.248
319.141
319.018
318.877
318.717
318.537
318.337
318.116
317.873
317.609
317.322
317.014
316.684
316.333
315.961
315.554
315.106
314.613
314.068
313.478
312.839
312.143
311.382
310.55
309.638
308.642
307.563
306.415
305.241
304.13
299.047
299.271
299.501
299.732
299.964
300.197
300.43
300.663
300.896
301.128
301.36
301.59
301.818
302.044
302.268
302.49
302.709
302.925
303.139
303.348
303.554
303.755
303.952
304.144
304.332
304.514
304.691
304.862
305.027
305.186
305.339
305.485
305.625
305.759
305.885
306.005
306.117
306.223
306.321
306.412
306.496
306.572
306.64
306.701
306.754
306.799
306.836
306.865
306.886
306.899
306.902
306.897
306.883
306.86
306.827
306.785
306.733
306.671
306.598
306.515
306.421
306.316
306.199
306.07
305.928
305.774
305.606
305.425
305.229
305.019
304.794
304.553
304.297
304.025
303.738
303.434
303.114
302.779
302.428
302.063
301.685
301.294
300.892
300.481
300.063
299.64
299.215
298.792
298.374
297.95
297.52
297.087
296.659
296.238
295.828
295.437
295.069
294.737
294.453
294.233
296.663
296.789
296.919
297.047
297.176
297.303
297.43
297.556
297.681
297.805
297.927
298.047
298.165
298.281
298.395
298.505
298.614
298.719
298.821
298.919
299.014
299.105
299.192
299.275
299.353
299.427
299.496
299.559
299.618
299.672
299.721
299.764
299.802
299.834
299.861
299.882
299.898
299.908
299.912
299.911
299.904
299.891
299.873
299.849
299.819
299.783
299.741
299.694
299.641
299.581
299.516
299.445
299.368
299.284
299.195
299.099
298.997
298.889
298.775
298.655
298.528
298.396
298.258
298.114
297.964
297.809
297.649
297.483
297.313
297.138
296.959
296.776
296.59
296.401
296.21
296.018
295.825
295.632
295.44
295.251
295.065
294.883
294.707
294.538
294.377
294.224
294.082
293.95
293.83
293.723
293.629
293.547
293.473
293.409
293.353
293.306
293.267
293.237
293.214
293.199
295.166
295.237
295.308
295.377
295.446
295.513
295.58
295.645
295.71
295.773
295.834
295.894
295.952
296.008
296.061
296.113
296.162
296.209
296.252
296.294
296.332
296.366
296.398
296.426
296.45
296.471
296.488
296.501
296.51
296.515
296.516
296.513
296.506
296.495
296.48
296.461
296.438
296.411
296.38
296.345
296.307
296.265
296.22
296.171
296.119
296.064
296.006
295.945
295.881
295.814
295.746
295.674
295.601
295.525
295.448
295.368
295.287
295.205
295.122
295.037
294.952
294.866
294.78
294.694
294.608
294.523
294.438
294.354
294.272
294.19
294.111
294.033
293.958
293.885
293.814
293.747
293.682
293.621
293.564
293.51
293.46
293.414
293.372
293.334
293.301
293.271
293.246
293.225
293.207
293.192
293.181
293.173
293.167
293.162
293.159
293.156
293.154
293.153
293.152
293.151
294.294
294.333
294.371
294.408
294.444
294.478
294.512
294.545
294.577
294.607
294.637
294.665
294.692
294.717
294.74
294.762
294.782
294.8
294.817
294.831
294.843
294.853
294.86
294.865
294.868
294.868
294.865
294.86
294.852
294.842
294.829
294.814
294.796
294.775
294.753
294.727
294.7
294.671
294.639
294.606
294.57
294.534
294.495
294.456
294.415
294.373
294.33
294.286
294.241
294.196
294.151
294.105
294.059
294.013
293.968
293.923
293.878
293.834
293.79
293.748
293.707
293.666
293.627
293.59
293.553
293.519
293.485
293.454
293.424
293.395
293.369
293.344
293.321
293.299
293.279
293.261
293.245
293.23
293.217
293.205
293.195
293.186
293.178
293.172
293.166
293.162
293.159
293.156
293.154
293.153
293.152
293.151
293.151
293.15
293.15
293.15
293.15
293.15
293.15
293.15
293.802
293.823
293.843
293.863
293.881
293.899
293.916
293.932
293.948
293.962
293.976
293.989
294.001
294.012
294.021
294.03
294.037
294.044
294.048
294.052
294.054
294.055
294.054
294.052
294.049
294.044
294.037
294.029
294.019
294.008
293.996
293.982
293.966
293.95
293.932
293.913
293.892
293.871
293.849
293.826
293.802
293.778
293.753
293.728
293.703
293.677
293.651
293.625
293.599
293.574
293.549
293.524
293.5
293.476
293.453
293.43
293.408
293.387
293.367
293.348
293.33
293.313
293.297
293.281
293.267
293.254
293.242
293.231
293.22
293.211
293.202
293.195
293.188
293.182
293.176
293.172
293.168
293.164
293.161
293.159
293.157
293.155
293.154
293.153
293.152
293.151
293.151
293.151
293.15
293.15
293.15
293.15
293.15
293.15
293.15
293.15
293.15
293.15
293.15
293.15
293.519
293.531
293.542
293.552
293.562
293.571
293.58
293.588
293.596
293.603
293.609
293.615
293.621
293.626
293.63
293.633
293.636
293.638
293.639
293.639
293.639
293.637
293.635
293.632
293.628
293.623
293.618
293.611
293.604
293.595
293.586
293.577
293.566
293.555
293.543
293.531
293.518
293.504
293.491
293.477
293.462
293.448
293.433
293.419
293.404
293.39
293.375
293.361
293.347
293.333
293.32
293.307
293.295
293.283
293.271
293.26
293.25
293.24
293.231
293.223
293.215
293.207
293.2
293.194
293.188
293.183
293.179
293.174
293.171
293.167
293.164
293.162
293.16
293.158
293.156
293.155
293.154
293.153
293.152
293.152
293.151
293.151
293.151
293.15
293.15
293.15
293.15
293.15
293.15
293.15
293.15
293.15
293.15
293.15
293.15
293.15
293.15
293.15
293.15
293.15
293.353
293.359
293.365
293.37
293.375
293.38
293.384
293.389
293.393
293.396
293.4
293.402
293.405
293.407
293.409
293.411
293.412
293.412
293.412
293.412
293.411
293.41
293.408
293.406
293.403
293.4
293.396
293.392
293.387
293.382
293.376
293.37
293.364
293.357
293.35
293.343
293.336
293.328
293.32
293.312
293.304
293.296
293.288
293.28
293.272
293.264
293.257
293.249
293.242
293.235
293.228
293.221
293.215
293.209
293.203
293.198
293.193
293.188
293.184
293.18
293.176
293.173
293.17
293.167
293.164
293.162
293.16
293.159
293.157
293.156
293.155
293.154
293.153
293.152
293.152
293.151
293.151
293.151
293.151
293.15
293.15
293.15
293.15
293.15
293.15
293.15
293.15
293.15
293.15
293.15
293.15
293.15
293.15
293.15
293.15
293.15
293.15
293.15
293.15
293.15
293.253
293.256
293.259
293.262
293.264
293.267
293.269
293.271
293.273
293.275
293.277
293.278
293.279
293.28
293.281
293.282
293.282
293.282
293.282
293.282
293.281
293.281
293.28
293.278
293.277
293.275
293.273
293.271
293.268
293.265
293.262
293.259
293.256
293.253
293.249
293.245
293.241
293.238
293.233
293.229
293.225
293.221
293.217
293.213
293.209
293.205
293.201
293.197
293.193
293.19
293.186
293.183
293.18
293.177
293.174
293.172
293.169
293.167
293.165
293.163
293.161
293.16
293.158
293.157
293.156
293.155
293.154
293.153
293.153
293.152
293.152
293.151
293.151
293.151
293.151
293.15
293.15
293.15
293.15
293.15
293.15
293.15
293.15
293.15
293.15
293.15
293.15
293.15
293.15
293.15
293.15
293.15
293.15
293.15
293.15
293.15
293.15
293.15
293.15
293.15
293.186
293.187
293.188
293.189
293.19
293.191
293.192
293.193
293.194
293.194
293.195
293.195
293.196
293.196
293.197
293.197
293.197
293.197
293.197
293.197
293.197
293.197
293.196
293.196
293.196
293.195
293.194
293.193
293.193
293.192
293.191
293.19
293.189
293.187
293.186
293.185
293.183
293.182
293.181
293.179
293.178
293.176
293.175
293.173
293.172
293.17
293.169
293.167
293.166
293.165
293.163
293.162
293.161
293.16
293.159
293.158
293.157
293.156
293.155
293.155
293.154
293.154
293.153
293.153
293.152
293.152
293.151
293.151
293.151
293.151
293.151
293.15
293.15
293.15
293.15
293.15
293.15
293.15
293.15
293.15
293.15
293.15
293.15
293.15
293.15
293.15
293.15
293.15
293.15
293.15
293.15
293.15
293.15
293.15
293.15
293.15
293.15
293.15
293.15
293.15
392.713
393.049
393.108
393.117
393.114
393.104
393.09
393.068
393.034
392.984
392.907
392.79
392.61
392.331
391.897
391.219
390.144
388.386
385.346
379.435
392.838
393.066
393.106
393.107
393.098
393.082
393.056
393.019
392.965
392.884
392.765
392.587
392.322
391.921
391.314
390.386
388.933
386.569
382.423
373.793
392.942
393.076
393.095
393.086
393.067
393.036
392.992
392.928
392.837
392.706
392.518
392.247
391.851
391.27
390.412
389.121
387.113
383.832
377.923
364.759
393.003
393.066
393.062
393.037
392.997
392.939
392.859
392.747
392.593
392.378
392.078
391.658
391.064
390.217
388.988
387.157
384.32
379.642
370.988
350.923
393.001
393.007
392.972
392.914
392.832
392.722
392.573
392.373
392.106
391.749
391.271
390.62
389.727
388.482
386.704
384.083
380.038
373.357
360.884
332.425
392.869
392.812
392.718
392.59
392.421
392.203
391.921
391.559
391.097
390.511
389.751
388.753
387.42
385.6
383.044
379.322
373.656
364.466
347.696
313.338
392.354
392.18
391.952
391.666
391.311
390.876
390.346
389.708
388.946
388.017
386.852
385.363
383.426
380.832
377.258
372.149
364.569
352.657
332.374
300.382
390.343
389.907
389.387
388.777
388.073
387.278
386.386
385.393
384.248
382.874
381.197
379.111
376.457
372.976
368.263
361.674
352.136
337.82
316.581
295.073
382.042
381.173
380.219
379.178
378.08
376.986
375.83
374.576
373.093
371.361
369.293
366.804
363.684
359.667
354.175
346.517
335.648
320.874
303.909
293.736
352.613
351.651
350.618
349.547
348.479
347.491
346.428
345.209
343.858
342.375
340.675
338.722
336.294
333.235
328.897
322.736
314.35
304.723
296.513
293.649
303.458
303.45
303.39
303.284
303.084
302.658
302.158
301.632
301.084
300.472
299.822
299.068
298.254
297.293
296.434
295.683
295.092
294.374
293.498
293.251
294.149
294.179
294.202
294.218
294.219
294.181
294.119
294.03
293.942
293.847
293.754
293.652
293.555
293.451
293.37
293.309
293.271
293.229
293.169
293.168
293.196
293.2
293.205
293.21
293.215
293.218
293.218
293.213
293.207
293.198
293.19
293.182
293.175
293.168
293.163
293.159
293.156
293.154
293.151
293.153
293.151
293.151
293.151
293.152
293.152
293.152
293.153
293.153
293.153
293.152
293.152
293.152
293.151
293.151
293.151
293.15
293.15
293.15
293.15
293.15
293.15
293.15
293.15
293.15
293.15
293.15
293.15
293.15
293.15
293.15
293.15
293.15
293.15
293.15
293.15
293.15
293.15
293.15
293.15
293.15
293.15
293.15
293.15
293.15
293.15
293.15
293.15
293.15
293.15
293.15
293.15
293.15
293.15
293.15
293.15
293.15
293.15
293.15
293.15
293.15
293.15
293.15
293.15
293.15
293.15
293.15
293.15
293.15
293.15
293.15
293.15
293.15
293.15
293.15
293.15
293.15
293.15
293.15
293.15
293.15
293.15
293.15
293.15
293.15
293.15
293.15
293.15
293.15
293.15
293.15
293.15
293.15
293.15
293.15
293.15
293.15
293.15
293.15
293.15
293.15
293.15
293.15
293.15
293.15
293.15
293.15
293.15
293.15
293.15
293.15
293.15
293.15
293.15
293.15
293.15
293.15
293.15
293.15
293.15
293.15
293.15
293.15
293.15
293.15
293.15
293.15
293.15
293.15
293.15
293.15
293.15
293.15
293.15
293.15
293.15
293.15
293.15
293.15
293.15
293.15
393.15
393.15
393.15
393.15
393.15
393.15
393.15
393.15
393.15
393.15
393.15
393.15
393.15
393.15
393.15
393.15
393.15
393.15
393.15
393.15
393.15
393.15
393.15
393.15
393.15
393.15
393.15
393.15
393.15
393.15
393.15
393.15
393.15
393.15
393.15
393.15
393.15
393.15
393.15
393.15
393.15
393.15
393.15
393.15
393.15
393.15
393.15
393.15
393.15
393.15
393.15
393.15
393.15
393.15
393.15
393.15
393.15
393.15
393.15
393.15
393.15
393.15
393.15
393.15
393.15
393.15
393.15
393.15
393.15
393.15
393.15
393.15
393.15
393.15
393.15
393.15
393.15
393.15
393.15
393.15
393.15
393.15
393.15
393.15
393.15
393.15
393.15
393.15
393.15
393.15
393.15
393.15
393.15
393.15
393.15
393.15
393.15
393.15
393.15
393.15
393.15
393.15
393.15
393.15
393.15
393.15
393.15
393.15
393.15
393.15
393.15
393.15
393.15
393.15
393.15
393.15
393.15
393.15
393.15
393.15
393.15
393.15
393.15
393.15
393.15
393.15
393.15
393.15
393.15
393.15
393.15
393.15
393.15
393.15
393.15
393.15
393.15
393.15
393.15
393.15
393.15
393.15
393.15
393.15
393.15
393.15
393.15
393.15
393.15
393.15
393.15
393.15
393.15
393.15
393.15
393.15
393.15
393.15
393.15
393.15
393.15
393.15
393.15
393.15
393.15
393.15
393.15
393.15
393.15
393.15
393.15
393.15
393.15
393.15
393.15
393.15
393.15
393.15
393.15
393.15
393.15
393.15
393.15
393.15
393.15
393.15
393.15
393.15
393.15
393.15
393.15
393.15
393.15
393.15
393.15
393.15
393.15
393.15
393.15
393.15
393.15
393.15
393.15
393.15
393.15
393.15
393.15
393.15
393.15
393.15
393.15
393.15
393.15
393.15
393.15
393.15
393.15
393.15
393.15
393.15
393.15
393.15
393.15
393.15
393.15
393.15
393.15
393.15
393.15
393.15
393.15
393.15
393.15
393.15
393.15
393.15
393.15
393.15
393.15
393.15
393.15
393.15
393.15
393.15
393.15
393.15
393.15
393.15
393.15
393.15
393.15
393.15
393.15
393.15
393.15
393.15
393.15
393.15
393.15
393.15
393.15
393.15
393.15
393.15
393.15
393.15
393.15
393.15
393.15
393.15
393.15
393.15
393.15
393.15
393.15
393.15
393.15
393.15
393.15
393.15
393.15
393.15
393.15
393.15
393.15
393.15
393.15
393.15
393.15
393.15
393.15
393.15
393.15
393.15
393.15
393.15
393.15
393.15
393.15
393.15
393.15
393.15
393.15
393.15
393.15
393.15
393.15
393.15
393.15
393.15
393.15
393.15
393.15
393.15
393.15
393.15
393.15
393.15
393.15
393.15
393.15
393.15
393.15
393.15
393.15
393.15
393.15
393.15
393.15
393.15
393.15
393.15
393.15
393.15
393.15
393.15
393.15
393.15
393.15
393.15
393.15
393.15
393.15
393.15
393.15
393.15
393.15
393.15
393.15
393.15
393.15
393.15
393.15
393.15
393.15
393.15
393.15
393.15
393.15
393.15
393.15
393.15
393.15
393.15
393.15
393.15
393.15
393.15
393.15
393.15
393.15
393.15
393.15
393.15
393.15
393.15
393.15
393.15
393.15
393.15
393.15
393.15
393.15
393.15
393.15
393.15
393.15
393.15
393.15
393.15
393.15
393.15
393.15
393.15
393.15
393.15
393.15
393.15
393.15
393.15
393.15
393.15
393.15
393.15
393.15
393.15
393.15
393.15
393.15
393.15
393.15
393.15
393.15
393.15
393.15
393.15
393.15
393.15
393.15
393.15
393.15
393.15
393.15
393.15
393.15
393.15
393.15
393.15
393.15
393.15
393.15
393.15
393.15
393.15
393.15
393.15
393.15
393.15
393.15
393.15
393.15
393.15
393.15
393.15
393.15
393.15
393.15
393.15
393.15
393.15
393.15
393.15
393.15
393.15
393.15
393.15
393.15
393.15
393.15
393.15
393.15
393.15
393.15
393.15
393.15
393.15
393.15
393.15
393.15
393.15
393.15
393.15
393.15
393.15
393.15
393.15
393.15
393.15
393.15
393.15
393.15
393.15
393.15
393.15
393.15
393.15
393.15
393.15
393.15
393.15
393.15
393.15
393.15
393.15
393.15
393.15
393.15
393.15
393.15
393.15
393.15
393.15
393.15
393.15
393.15
393.15
393.15
393.15
393.15
393.15
393.15
393.15
393.15
393.15
393.15
393.15
393.15
393.15
393.15
393.15
393.15
393.15
393.15
393.15
393.15
393.15
393.15
393.15
393.15
393.15
393.15
393.15
393.15
393.15
393.15
393.15
393.15
393.15
393.15
393.15
393.15
393.15
393.15
393.15
393.15
393.15
393.15
393.15
393.15
393.15
393.15
393.15
393.15
393.15
393.15
393.15
393.15
393.15
393.15
393.15
393.15
393.15
393.15
393.15
393.15
393.15
393.15
393.15
393.15
393.15
393.15
393.15
393.15
393.15
393.15
393.15
393.15
393.15
393.15
393.15
393.15
393.15
393.15
393.15
393.15
393.15
393.15
393.15
393.15
393.15
393.15
393.15
393.15
393.15
393.15
393.15
393.15
393.15
393.15
393.15
393.15
393.15
393.15
393.15
393.15
393.15
393.15
393.15
393.15
393.15
393.15
393.15
393.15
393.15
393.15
393.15
393.15
393.15
393.15
393.15
393.15
393.15
393.15
393.15
393.15
393.15
393.15
393.15
393.15
393.15
393.15
393.15
393.15
393.15
393.15
393.15
393.15
393.15
393.15
393.15
393.15
393.15
393.15
393.15
393.15
393.15
393.15
393.15
393.15
393.15
393.15
393.15
393.15
393.15
393.15
393.15
393.15
393.15
393.15
393.15
393.15
393.15
393.15
393.15
393.15
393.15
393.15
393.15
393.15
393.15
393.15
393.15
393.15
393.15
393.15
393.15
393.15
393.15
393.15
393.15
393.15
393.15
393.15
393.15
393.15
393.15
393.15
393.15
393.15
393.15
393.15
393.15
393.15
393.15
393.15
393.15
393.15
393.15
393.15
393.15
393.15
393.15
393.15
393.15
393.15
393.15
393.15
393.15
393.15
393.15
393.15
393.15
393.15
393.15
393.15
393.15
393.15
393.15
393.15
393.15
393.15
393.15
393.15
393.15
393.15
393.15
393.15
393.15
393.15
393.15
393.15
393.15
393.15
393.15
393.15
393.15
393.15
393.15
393.15
393.15
393.15
393.15
393.15
393.15
393.15
393.15
393.15
393.15
393.15
393.15
393.15
393.15
393.15
393.15
393.15
393.15
393.15
393.15
393.15
393.15
393.15
393.15
393.15
393.15
393.15
393.15
393.15
393.15
393.15
393.15
393.15
393.15
393.15
393.15
393.15
393.15
393.15
393.15
393.15
393.15
393.15
393.15
393.15
393.15
393.15
393.15
393.15
393.15
393.15
393.15
393.15
393.15
393.15
393.15
393.15
393.15
393.15
393.15
393.15
393.15
393.15
393.15
393.15
393.15
393.15
393.15
393.15
393.15
393.15
393.15
393.15
393.15
393.15
393.15
393.15
393.15
393.15
393.15
393.15
393.15
393.15
393.15
393.15
393.15
393.15
393.15
393.15
393.15
393.15
393.15
393.15
393.15
393.15
393.15
393.15
393.15
393.15
393.15
393.15
393.15
393.15
393.15
393.15
393.15
393.15
393.15
393.15
393.15
393.15
393.15
393.15
393.15
393.15
393.15
393.15
393.15
393.15
393.15
393.15
393.15
393.15
393.15
393.15
393.15
393.15
393.15
393.15
393.15
393.15
393.15
393.15
393.15
393.15
393.15
393.15
393.15
393.15
393.15
393.15
393.15
393.15
393.15
393.15
393.15
393.15
393.15
393.15
393.15
393.15
393.15
393.15
393.15
393.15
393.15
393.15
393.15
393.15
393.15
393.15
393.15
393.15
393.15
393.15
393.15
393.15
393.15
393.15
393.15
393.15
393.15
393.15
393.15
393.15
393.15
393.15
393.15
393.15
393.15
393.15
393.15
393.15
393.15
393.15
393.15
393.15
393.15
393.15
393.15
393.15
393.15
393.15
393.15
393.15
393.15
393.15
393.15
393.15
393.15
393.15
393.15
393.15
393.15
393.15
393.15
393.15
393.15
393.15
393.15
393.15
393.15
393.15
393.15
393.15
393.15
393.15
393.15
393.15
393.15
393.15
393.15
393.15
393.15
393.15
393.15
393.15
393.15
393.15
393.15
393.15
393.15
393.15
393.15
393.15
393.15
393.15
393.15
393.15
393.15
393.15
393.15
393.15
393.15
393.15
393.15
393.15
393.15
393.15
393.15
393.15
393.15
393.15
393.15
393.15
393.15
393.15
393.15
393.15
393.15
393.15
393.15
393.15
393.15
393.15
393.15
393.15
393.15
393.15
393.15
393.15
393.15
393.15
393.15
393.15
393.15
393.15
393.15
393.15
393.15
393.15
393.15
393.15
393.15
393.15
393.15
393.15
393.15
393.15
393.15
393.15
393.15
393.15
393.15
393.15
393.15
393.15
393.15
393.15
393.15
393.15
393.15
393.15
393.15
393.15
393.15
393.15
393.15
393.15
393.15
393.15
393.15
393.15
393.15
393.15
393.15
393.15
393.15
393.15
393.15
393.15
393.15
393.15
393.15
393.15
393.15
393.15
393.15
393.15
393.15
393.15
393.15
393.15
393.15
393.15
393.15
393.15
393.15
393.15
393.15
393.15
393.15
393.15
393.15
393.15
393.15
393.15
393.15
393.15
393.15
393.15
393.15
393.15
393.15
393.15
393.15
393.15
393.15
393.15
393.15
393.15
393.15
393.15
393.15
393.15
393.15
393.15
393.15
393.15
393.15
393.15
393.15
393.15
393.15
393.15
393.15
393.15
393.15
393.15
393.15
393.15
393.15
393.15
393.15
393.15
393.15
393.15
393.15
393.15
393.15
393.15
393.15
393.15
393.15
393.15
393.15
393.15
393.15
393.15
393.15
393.15
393.15
393.15
393.15
393.15
393.15
393.15
393.15
393.15
393.15
393.15
393.15
393.15
393.15
393.15
393.15
393.15
393.15
393.15
393.15
393.15
393.15
393.15
393.15
393.15
393.15
393.15
393.15
393.15
393.15
393.15
393.15
393.15
393.15
393.15
393.15
393.15
393.15
393.15
393.15
393.15
393.15
393.15
393.15
393.15
393.15
393.15
393.15
393.15
393.15
393.15
393.15
393.15
393.15
393.15
393.15
393.15
393.15
393.15
393.15
393.15
393.15
393.15
393.15
393.15
393.15
393.15
393.15
393.15
393.15
393.15
393.15
393.15
393.15
393.15
393.15
393.15
393.15
393.15
393.15
393.15
393.15
393.15
393.15
393.15
393.15
393.15
393.15
393.15
393.15
393.15
393.15
393.15
393.15
393.15
393.15
393.15
393.15
393.15
393.15
393.15
393.15
393.15
393.15
393.15
393.15
393.15
393.15
393.15
393.15
393.15
393.15
393.15
393.15
393.15
393.15
393.15
393.15
393.15
393.15
393.15
393.15
393.15
393.15
393.15
393.15
393.15
393.15
393.15
393.15
393.15
393.15
393.15
393.15
393.15
393.15
393.15
393.15
393.15
393.15
393.15
393.15
393.15
393.15
393.15
393.15
393.15
393.15
393.15
393.15
393.15
393.15
393.15
393.15
393.15
393.15
393.15
393.15
393.15
393.15
393.15
393.15
393.15
393.15
393.15
393.15
393.15
393.15
393.15
393.15
393.15
393.15
393.15
393.15
393.15
393.15
393.15
393.15
393.15
393.15
393.15
393.15
393.15
393.15
393.15
393.15
393.15
393.15
393.15
393.15
393.15
393.15
393.15
393.15
393.15
393.15
393.15
393.15
393.15
393.15
393.15
393.15
393.15
393.15
393.15
393.15
393.15
393.15
393.15
393.15
393.15
393.15
393.15
393.15
393.15
393.15
393.15
393.15
393.15
393.15
393.15
393.15
393.15
393.15
393.15
393.15
393.15
393.15
393.15
393.15
393.15
393.15
393.15
393.15
393.15
393.15
393.15
393.15
393.15
393.15
393.15
393.15
393.15
393.15
393.15
393.15
393.15
393.15
393.15
393.15
393.15
393.15
393.15
393.15
393.15
393.15
393.15
393.15
393.15
393.15
393.15
393.15
393.15
393.15
393.15
393.15
393.15
393.15
393.15
393.15
393.15
393.15
393.15
393.15
393.15
393.15
393.15
393.15
393.15
393.15
393.15
393.15
393.15
393.15
393.15
393.15
393.15
393.15
393.15
393.15
393.15
393.15
393.15
393.15
393.15
393.15
393.15
393.15
393.15
393.15
393.15
393.15
393.15
393.15
393.15
393.15
393.15
393.15
393.15
393.15
393.15
393.15
393.15
393.15
393.15
393.15
393.15
393.15
393.15
393.15
393.15
393.15
393.15
393.15
393.15
393.15
393.15
393.15
393.15
393.15
393.15
393.15
393.15
393.15
393.15
393.15
393.15
393.15
393.15
393.15
393.15
393.15
393.149
393.15
393.15
393.15
393.15