/*--------------------------------*- C++ -*----------------------------------*\
| =========                 |                                                 |
| \\      /  F ield         | OpenFOAM: The Open Source CFD Toolbox           |
|  \\    /   O peration     | Version:  2.1.0                                 |
|   \\  /    A nd           | Web:      www.OpenFOAM.org                      |
|    \\/     M anipulation  |                                                 |
\*---------------------------------------------------------------------------*/
FoamFile
{
    version     2.0;
    format      ascii;
    class       volVectorField;
    location    "0.28";
    object      U;
}
// * * * * * * * * * * * * * * * * * * * * * * * * * * * * * * * * * * * * * //

dimensions      [0 1 -1 0 0 0 0];

internalField   nonuniform List<vector> 
6400
(
(-1.23542 -1.08487e-05 0)
(-1.23452 -0.000436726 0)
(-1.23247 -0.000709733 0)
(-1.22955 -0.000845491 0)
(-1.22623 -0.000922495 0)
(-1.22265 -0.000972386 0)
(-1.21892 -0.00100696 0)
(-1.21508 -0.00103316 0)
(-1.21116 -0.00105458 0)
(-1.20716 -0.00107347 0)
(-1.20311 -0.00109118 0)
(-1.199 -0.0011086 0)
(-1.19484 -0.0011266 0)
(-1.19061 -0.00114562 0)
(-1.18632 -0.00116601 0)
(-1.18196 -0.00118742 0)
(-1.17752 -0.00120966 0)
(-1.17302 -0.00123181 0)
(-1.16843 -0.00125483 0)
(-1.16377 -0.0012793 0)
(-1.15902 -0.00130501 0)
(-1.15419 -0.00133172 0)
(-1.14926 -0.0013596 0)
(-1.14423 -0.00138872 0)
(-1.1391 -0.00141933 0)
(-1.13386 -0.00145135 0)
(-1.1285 -0.00148486 0)
(-1.12302 -0.00151981 0)
(-1.11742 -0.00155627 0)
(-1.11168 -0.00159423 0)
(-1.10579 -0.00163376 0)
(-1.09977 -0.0016748 0)
(-1.09358 -0.00171742 0)
(-1.08724 -0.00176157 0)
(-1.08072 -0.0018073 0)
(-1.07403 -0.00185455 0)
(-1.06716 -0.00190344 0)
(-1.0601 -0.00195385 0)
(-1.05284 -0.00200582 0)
(-1.04538 -0.0020595 0)
(-1.03771 -0.00211478 0)
(-1.02982 -0.00217162 0)
(-1.0217 -0.00223002 0)
(-1.01336 -0.00228981 0)
(-1.00477 -0.00235102 0)
(-0.995937 -0.00241344 0)
(-0.986854 -0.00247705 0)
(-0.977517 -0.00254163 0)
(-0.967922 -0.00260584 0)
(-0.958065 -0.00267241 0)
(-0.947931 -0.00274326 0)
(-0.937511 -0.0028146 0)
(-0.926812 -0.00288343 0)
(-0.915839 -0.00294974 0)
(-0.904599 -0.0030155 0)
(-0.893093 -0.00308215 0)
(-0.881313 -0.00315052 0)
(-0.869252 -0.00322089 0)
(-0.856902 -0.00329354 0)
(-0.844253 -0.00336813 0)
(-0.831296 -0.00344528 0)
(-0.81802 -0.00352551 0)
(-0.804413 -0.00360872 0)
(-0.790459 -0.00369539 0)
(-0.776147 -0.0037856 0)
(-0.76146 -0.00388013 0)
(-0.746378 -0.00397945 0)
(-0.730883 -0.00408404 0)
(-0.714952 -0.00419415 0)
(-0.698562 -0.00431036 0)
(-0.681687 -0.00443346 0)
(-0.6643 -0.00456403 0)
(-0.646367 -0.00470319 0)
(-0.627854 -0.00485197 0)
(-0.608719 -0.00501183 0)
(-0.588916 -0.00518449 0)
(-0.568389 -0.00537201 0)
(-0.547075 -0.0055771 0)
(-0.524897 -0.00580345 0)
(-0.501761 -0.00605553 0)
(-0.477555 -0.00633879 0)
(-0.45214 -0.00666041 0)
(-0.425347 -0.00702892 0)
(-0.396973 -0.00745248 0)
(-0.36679 -0.00793606 0)
(-0.334553 -0.00848252 0)
(-0.30002 -0.00908799 0)
(-0.262994 -0.00973316 0)
(-0.223411 -0.0103688 0)
(-0.18152 -0.0108872 0)
(-0.138206 -0.0110698 0)
(-0.0956469 -0.01048 0)
(-0.0580224 -0.00853877 0)
(-0.0308129 -0.0051772 0)
(-0.0176644 -0.00142257 0)
(-0.020945 0.0030533 0)
(-0.0496229 0.0112248 0)
(-0.129841 0.0291002 0)
(-0.329341 0.0710256 0)
(-0.948136 0.19874 0)
(-1.49458 -0.00021366 0)
(-1.49196 -0.00145092 0)
(-1.49028 -0.00215764 0)
(-1.4874 -0.00252545 0)
(-1.48425 -0.00274018 0)
(-1.48088 -0.00288017 0)
(-1.47741 -0.00297751 0)
(-1.47384 -0.00305147 0)
(-1.47022 -0.00311219 0)
(-1.46655 -0.00316606 0)
(-1.46283 -0.00321694 0)
(-1.45907 -0.00326741 0)
(-1.45527 -0.00331989 0)
(-1.45142 -0.00337563 0)
(-1.44752 -0.00343538 0)
(-1.44356 -0.00349784 0)
(-1.43955 -0.00356266 0)
(-1.43547 -0.00362656 0)
(-1.43134 -0.00369209 0)
(-1.42715 -0.00376161 0)
(-1.42289 -0.00383421 0)
(-1.41857 -0.00390953 0)
(-1.41418 -0.00398796 0)
(-1.40972 -0.00406983 0)
(-1.40518 -0.00415582 0)
(-1.40056 -0.00424571 0)
(-1.39584 -0.00433953 0)
(-1.39104 -0.00443729 0)
(-1.38614 -0.00453905 0)
(-1.38113 -0.0046448 0)
(-1.37602 -0.00475464 0)
(-1.37079 -0.00486845 0)
(-1.36545 -0.00498632 0)
(-1.35999 -0.00510815 0)
(-1.3544 -0.00523399 0)
(-1.34867 -0.00536361 0)
(-1.34282 -0.00549729 0)
(-1.33682 -0.00563461 0)
(-1.33068 -0.00577553 0)
(-1.32439 -0.00592058 0)
(-1.31795 -0.0060695 0)
(-1.31136 -0.00622221 0)
(-1.30461 -0.00637885 0)
(-1.29769 -0.00653903 0)
(-1.29061 -0.00670302 0)
(-1.28336 -0.00687039 0)
(-1.27593 -0.00704122 0)
(-1.26831 -0.00721517 0)
(-1.2605 -0.00738865 0)
(-1.25253 -0.00756331 0)
(-1.24438 -0.00774125 0)
(-1.23608 -0.00791856 0)
(-1.22764 -0.00809259 0)
(-1.21904 -0.00826292 0)
(-1.21028 -0.00843226 0)
(-1.20137 -0.00860348 0)
(-1.19228 -0.00877838 0)
(-1.18304 -0.00895761 0)
(-1.17363 -0.00914222 0)
(-1.16406 -0.00933195 0)
(-1.1543 -0.00952789 0)
(-1.14437 -0.0097308 0)
(-1.13425 -0.00994054 0)
(-1.12395 -0.010158 0)
(-1.11346 -0.0103836 0)
(-1.10277 -0.0106191 0)
(-1.09188 -0.0108655 0)
(-1.08078 -0.0111244 0)
(-1.06946 -0.011397 0)
(-1.05791 -0.0116851 0)
(-1.04612 -0.0119909 0)
(-1.03407 -0.0123164 0)
(-1.02173 -0.0126651 0)
(-1.00908 -0.01304 0)
(-0.996094 -0.0134457 0)
(-0.982727 -0.013887 0)
(-0.968937 -0.0143699 0)
(-0.954673 -0.0149016 0)
(-0.939874 -0.0154919 0)
(-0.924471 -0.0161524 0)
(-0.908381 -0.0168964 0)
(-0.891515 -0.017741 0)
(-0.873769 -0.0187059 0)
(-0.855031 -0.0198102 0)
(-0.83518 -0.0210653 0)
(-0.814093 -0.0224753 0)
(-0.791669 -0.0240264 0)
(-0.767847 -0.0256644 0)
(-0.742663 -0.0272616 0)
(-0.71632 -0.0285523 0)
(-0.689291 -0.029023 0)
(-0.66239 -0.0277242 0)
(-0.636945 -0.0233437 0)
(-0.6159 -0.0150616 0)
(-0.607365 -0.00304032 0)
(-0.620065 0.0124607 0)
(-0.667111 0.0393288 0)
(-0.770206 0.0915969 0)
(-0.97213 0.203867 0)
(-1.45962 0.525705 0)
(-1.64236 -0.000689022 0)
(-1.63901 -0.00253682 0)
(-1.63829 -0.00353784 0)
(-1.63611 -0.00408471 0)
(-1.63369 -0.00441147 0)
(-1.63112 -0.00462517 0)
(-1.62847 -0.00477311 0)
(-1.62577 -0.00488557 0)
(-1.62303 -0.00497747 0)
(-1.62028 -0.00505952 0)
(-1.6175 -0.00513724 0)
(-1.61472 -0.00521534 0)
(-1.6119 -0.00529711 0)
(-1.60907 -0.00538514 0)
(-1.60619 -0.00548001 0)
(-1.60329 -0.00557969 0)
(-1.60033 -0.00568318 0)
(-1.59733 -0.00578606 0)
(-1.59428 -0.00588967 0)
(-1.5912 -0.00599665 0)
(-1.58806 -0.0061067 0)
(-1.5849 -0.00622035 0)
(-1.58169 -0.00633831 0)
(-1.57844 -0.00646126 0)
(-1.57514 -0.00659024 0)
(-1.5718 -0.00672503 0)
(-1.56839 -0.0068653 0)
(-1.56493 -0.00701116 0)
(-1.56141 -0.00716245 0)
(-1.55783 -0.00731915 0)
(-1.55418 -0.00748122 0)
(-1.55046 -0.00764849 0)
(-1.54667 -0.00782088 0)
(-1.5428 -0.0079982 0)
(-1.53886 -0.00818029 0)
(-1.53485 -0.00836669 0)
(-1.53076 -0.00855775 0)
(-1.52659 -0.00875269 0)
(-1.52235 -0.00895099 0)
(-1.51804 -0.0091535 0)
(-1.51366 -0.00935973 0)
(-1.5092 -0.00956952 0)
(-1.50468 -0.00978306 0)
(-1.5001 -0.00999973 0)
(-1.49546 -0.01022 0)
(-1.49076 -0.0104433 0)
(-1.48601 -0.0106695 0)
(-1.48122 -0.0108977 0)
(-1.47638 -0.0111252 0)
(-1.47154 -0.0113498 0)
(-1.46665 -0.0115694 0)
(-1.46174 -0.0117845 0)
(-1.45682 -0.0119982 0)
(-1.45188 -0.0122103 0)
(-1.44691 -0.012421 0)
(-1.44194 -0.0126324 0)
(-1.43694 -0.0128461 0)
(-1.43195 -0.0130628 0)
(-1.42695 -0.0132837 0)
(-1.42195 -0.0135093 0)
(-1.41697 -0.0137405 0)
(-1.41201 -0.0139774 0)
(-1.40708 -0.0142195 0)
(-1.40219 -0.0144673 0)
(-1.39735 -0.0147211 0)
(-1.39257 -0.0149823 0)
(-1.38787 -0.0152521 0)
(-1.38326 -0.0155325 0)
(-1.37876 -0.0158251 0)
(-1.37438 -0.0161324 0)
(-1.37014 -0.0164574 0)
(-1.36605 -0.0168033 0)
(-1.36213 -0.0171748 0)
(-1.35839 -0.017577 0)
(-1.35483 -0.0180164 0)
(-1.35145 -0.0185008 0)
(-1.34826 -0.0190391 0)
(-1.34525 -0.019642 0)
(-1.3424 -0.0203238 0)
(-1.33969 -0.021101 0)
(-1.33709 -0.0219914 0)
(-1.33454 -0.0230165 0)
(-1.33202 -0.0241998 0)
(-1.32947 -0.0255637 0)
(-1.32683 -0.0271214 0)
(-1.32406 -0.0288729 0)
(-1.32113 -0.0307911 0)
(-1.31804 -0.0327943 0)
(-1.31485 -0.0347038 0)
(-1.31173 -0.036172 0)
(-1.30895 -0.0365715 0)
(-1.30691 -0.0348469 0)
(-1.30617 -0.0294748 0)
(-1.30802 -0.0187165 0)
(-1.31595 -0.000856477 0)
(-1.33263 0.0247404 0)
(-1.37088 0.0683349 0)
(-1.44588 0.148573 0)
(-1.58866 0.310428 0)
(-1.85852 0.718133 0)
(-1.77749 -0.00126026 0)
(-1.77405 -0.00340113 0)
(-1.77448 -0.0046048 0)
(-1.77335 -0.00528872 0)
(-1.77206 -0.00570241 0)
(-1.77068 -0.00597129 0)
(-1.76926 -0.00615474 0)
(-1.76784 -0.00629241 0)
(-1.76641 -0.00640281 0)
(-1.76501 -0.00650081 0)
(-1.76362 -0.00659284 0)
(-1.76227 -0.00668598 0)
(-1.76092 -0.00678391 0)
(-1.75961 -0.00689096 0)
(-1.7583 -0.00700736 0)
(-1.75702 -0.0071307 0)
(-1.75573 -0.00725735 0)
(-1.75445 -0.00738524 0)
(-1.7532 -0.00751429 0)
(-1.75195 -0.00764459 0)
(-1.7507 -0.00777724 0)
(-1.74946 -0.00791352 0)
(-1.74821 -0.00805441 0)
(-1.74698 -0.00820081 0)
(-1.74574 -0.00835416 0)
(-1.74451 -0.00851421 0)
(-1.74327 -0.00868016 0)
(-1.74203 -0.00885209 0)
(-1.74079 -0.0090295 0)
(-1.73955 -0.0092123 0)
(-1.7383 -0.0094002 0)
(-1.73706 -0.00959284 0)
(-1.73581 -0.00978991 0)
(-1.73456 -0.00999095 0)
(-1.73332 -0.0101955 0)
(-1.73209 -0.0104029 0)
(-1.73087 -0.0106131 0)
(-1.72966 -0.0108254 0)
(-1.72848 -0.0110388 0)
(-1.72732 -0.0112537 0)
(-1.72619 -0.0114693 0)
(-1.7251 -0.0116851 0)
(-1.72406 -0.0119011 0)
(-1.72308 -0.0121161 0)
(-1.72216 -0.0123306 0)
(-1.72133 -0.0125431 0)
(-1.72059 -0.0127533 0)
(-1.71995 -0.0129593 0)
(-1.71943 -0.0131608 0)
(-1.71904 -0.0133592 0)
(-1.71876 -0.0135509 0)
(-1.71858 -0.0137351 0)
(-1.71853 -0.0139155 0)
(-1.7186 -0.0140922 0)
(-1.7188 -0.0142644 0)
(-1.71915 -0.0144331 0)
(-1.71965 -0.0145992 0)
(-1.72032 -0.0147632 0)
(-1.72116 -0.0149256 0)
(-1.7222 -0.0150871 0)
(-1.72345 -0.0152485 0)
(-1.72491 -0.01541 0)
(-1.72661 -0.0155706 0)
(-1.72856 -0.0157297 0)
(-1.73077 -0.0158878 0)
(-1.73325 -0.0160458 0)
(-1.73602 -0.0162049 0)
(-1.73909 -0.0163674 0)
(-1.74247 -0.0165353 0)
(-1.74617 -0.0167117 0)
(-1.7502 -0.0169006 0)
(-1.75455 -0.0171063 0)
(-1.75923 -0.0173353 0)
(-1.76423 -0.0175947 0)
(-1.76953 -0.0178935 0)
(-1.77512 -0.0182426 0)
(-1.78096 -0.0186543 0)
(-1.78702 -0.019142 0)
(-1.79327 -0.0197244 0)
(-1.79965 -0.0204222 0)
(-1.80612 -0.0212563 0)
(-1.81261 -0.0222504 0)
(-1.81907 -0.02343 0)
(-1.82545 -0.0248172 0)
(-1.83168 -0.0264228 0)
(-1.83774 -0.0282395 0)
(-1.84362 -0.0302273 0)
(-1.84934 -0.0322837 0)
(-1.85497 -0.0341989 0)
(-1.8606 -0.0355868 0)
(-1.86638 -0.0357879 0)
(-1.87236 -0.0337554 0)
(-1.87853 -0.027924 0)
(-1.88522 -0.0162451 0)
(-1.89415 0.00320359 0)
(-1.90372 0.0341764 0)
(-1.92507 0.0873746 0)
(-1.96522 0.184197 0)
(-2.03346 0.3738 0)
(-2.13343 0.776403 0)
(-1.91662 -0.00174899 0)
(-1.9138 -0.00391639 0)
(-1.91554 -0.00519648 0)
(-1.91581 -0.00595348 0)
(-1.91613 -0.0064172 0)
(-1.91641 -0.00671392 0)
(-1.91674 -0.00691233 0)
(-1.9171 -0.007056 0)
(-1.91753 -0.00716759 0)
(-1.91801 -0.00726343 0)
(-1.91857 -0.00735179 0)
(-1.9192 -0.0074404 0)
(-1.9199 -0.00753407 0)
(-1.92068 -0.00763804 0)
(-1.92153 -0.00775292 0)
(-1.92245 -0.00787491 0)
(-1.92344 -0.00799763 0)
(-1.92451 -0.00812099 0)
(-1.92566 -0.00824743 0)
(-1.92689 -0.00837621 0)
(-1.92817 -0.00850767 0)
(-1.92952 -0.00864221 0)
(-1.93093 -0.00878007 0)
(-1.93241 -0.00892278 0)
(-1.93395 -0.00907206 0)
(-1.93557 -0.00922699 0)
(-1.93725 -0.00938657 0)
(-1.939 -0.0095507 0)
(-1.94083 -0.00971872 0)
(-1.94274 -0.00989032 0)
(-1.94472 -0.010065 0)
(-1.9468 -0.0102423 0)
(-1.94895 -0.0104216 0)
(-1.9512 -0.0106022 0)
(-1.95354 -0.0107835 0)
(-1.95598 -0.0109647 0)
(-1.95852 -0.0111453 0)
(-1.96117 -0.0113246 0)
(-1.96393 -0.0115019 0)
(-1.96681 -0.0116766 0)
(-1.96981 -0.011848 0)
(-1.97293 -0.0120156 0)
(-1.97618 -0.0121786 0)
(-1.97957 -0.0123362 0)
(-1.98309 -0.0124881 0)
(-1.98676 -0.012633 0)
(-1.99057 -0.0127702 0)
(-1.99453 -0.0128983 0)
(-1.99865 -0.0130179 0)
(-2.00292 -0.0131325 0)
(-2.00735 -0.0132402 0)
(-2.01195 -0.0133386 0)
(-2.01672 -0.0134287 0)
(-2.02167 -0.0135106 0)
(-2.02679 -0.0135842 0)
(-2.03209 -0.0136502 0)
(-2.03757 -0.0137093 0)
(-2.04325 -0.0137621 0)
(-2.04911 -0.0138093 0)
(-2.05516 -0.0138513 0)
(-2.06139 -0.0138899 0)
(-2.06781 -0.0139261 0)
(-2.07441 -0.013959 0)
(-2.08119 -0.0139875 0)
(-2.08813 -0.0140124 0)
(-2.09525 -0.0140356 0)
(-2.10251 -0.0140588 0)
(-2.10993 -0.0140849 0)
(-2.11748 -0.0141168 0)
(-2.12517 -0.0141586 0)
(-2.13297 -0.0142151 0)
(-2.14087 -0.0142924 0)
(-2.14886 -0.0143979 0)
(-2.15694 -0.0145404 0)
(-2.16507 -0.0147306 0)
(-2.17326 -0.0149813 0)
(-2.18149 -0.0153074 0)
(-2.18974 -0.0157224 0)
(-2.19799 -0.0162474 0)
(-2.20624 -0.0169065 0)
(-2.21447 -0.0177199 0)
(-2.22266 -0.0187118 0)
(-2.23081 -0.0199075 0)
(-2.2389 -0.0213279 0)
(-2.24693 -0.022978 0)
(-2.25491 -0.0248422 0)
(-2.26285 -0.026871 0)
(-2.2708 -0.0289506 0)
(-2.27876 -0.0308595 0)
(-2.28676 -0.0322097 0)
(-2.29473 -0.0323659 0)
(-2.30247 -0.0303623 0)
(-2.30944 -0.0247466 0)
(-2.31541 -0.0135241 0)
(-2.32083 0.00556595 0)
(-2.32226 0.0380097 0)
(-2.32588 0.0947195 0)
(-2.331 0.197158 0)
(-2.32821 0.39071 0)
(-2.30994 0.742392 0)
(-2.06709 -0.00200174 0)
(-2.06549 -0.00396101 0)
(-2.06862 -0.00516692 0)
(-2.07065 -0.00590461 0)
(-2.0729 -0.00636051 0)
(-2.07522 -0.00664606 0)
(-2.07769 -0.00683126 0)
(-2.08023 -0.00695766 0)
(-2.0829 -0.00705041 0)
(-2.08566 -0.00712491 0)
(-2.08854 -0.00719112 0)
(-2.09152 -0.0072562 0)
(-2.09461 -0.00732629 0)
(-2.0978 -0.00740721 0)
(-2.10109 -0.00750079 0)
(-2.10449 -0.00760105 0)
(-2.10796 -0.00769988 0)
(-2.11155 -0.00779708 0)
(-2.11522 -0.00789655 0)
(-2.11901 -0.00799862 0)
(-2.12289 -0.00810308 0)
(-2.12688 -0.00820948 0)
(-2.13097 -0.00831539 0)
(-2.13518 -0.00842389 0)
(-2.13951 -0.00853773 0)
(-2.14395 -0.00865442 0)
(-2.14851 -0.00877341 0)
(-2.1532 -0.00889433 0)
(-2.158 -0.0090168 0)
(-2.16293 -0.00914036 0)
(-2.16799 -0.00926467 0)
(-2.17317 -0.00938918 0)
(-2.17848 -0.00951349 0)
(-2.18391 -0.00963681 0)
(-2.18946 -0.00975871 0)
(-2.19514 -0.0098786 0)
(-2.20093 -0.00999587 0)
(-2.20685 -0.0101096 0)
(-2.21287 -0.0102197 0)
(-2.21901 -0.0103256 0)
(-2.22524 -0.0104266 0)
(-2.23159 -0.0105222 0)
(-2.23803 -0.0106119 0)
(-2.24456 -0.0106949 0)
(-2.25119 -0.010771 0)
(-2.2579 -0.0108389 0)
(-2.26468 -0.0108984 0)
(-2.27155 -0.0109487 0)
(-2.27848 -0.0109901 0)
(-2.28549 -0.0110245 0)
(-2.29255 -0.0110507 0)
(-2.29968 -0.0110679 0)
(-2.30686 -0.0110763 0)
(-2.3141 -0.0110762 0)
(-2.32138 -0.011068 0)
(-2.3287 -0.0110524 0)
(-2.33605 -0.0110303 0)
(-2.34344 -0.0110025 0)
(-2.35085 -0.01097 0)
(-2.35829 -0.0109337 0)
(-2.36575 -0.0108959 0)
(-2.37322 -0.0108584 0)
(-2.3807 -0.0108206 0)
(-2.38818 -0.0107803 0)
(-2.39567 -0.0107386 0)
(-2.40317 -0.0106978 0)
(-2.41067 -0.0106603 0)
(-2.41817 -0.0106289 0)
(-2.42567 -0.0106069 0)
(-2.43317 -0.0105984 0)
(-2.44067 -0.0106084 0)
(-2.44818 -0.0106428 0)
(-2.4557 -0.0107093 0)
(-2.46322 -0.0108167 0)
(-2.47075 -0.0109757 0)
(-2.47829 -0.0111991 0)
(-2.48585 -0.0115023 0)
(-2.49341 -0.0118979 0)
(-2.50102 -0.0124048 0)
(-2.50865 -0.013047 0)
(-2.51634 -0.0138457 0)
(-2.52408 -0.014824 0)
(-2.53189 -0.0160065 0)
(-2.53979 -0.0174142 0)
(-2.54777 -0.0190485 0)
(-2.55587 -0.0208872 0)
(-2.5641 -0.0228796 0)
(-2.57247 -0.0249132 0)
(-2.58097 -0.0267755 0)
(-2.58952 -0.0281054 0)
(-2.59794 -0.0283332 0)
(-2.60582 -0.0266126 0)
(-2.61228 -0.0217413 0)
(-2.61665 -0.0119031 0)
(-2.61846 0.00555685 0)
(-2.61219 0.0364099 0)
(-2.59992 0.0908578 0)
(-2.57371 0.188972 0)
(-2.5116 0.366602 0)
(-2.41498 0.650267 0)
(-2.22447 -0.00193531 0)
(-2.22425 -0.00347537 0)
(-2.22861 -0.00446901 0)
(-2.23226 -0.00509552 0)
(-2.23619 -0.00548336 0)
(-2.24035 -0.00572013 0)
(-2.24464 -0.00586626 0)
(-2.24909 -0.00595766 0)
(-2.25364 -0.00601771 0)
(-2.25832 -0.00606004 0)
(-2.26309 -0.00609452 0)
(-2.26798 -0.00612756 0)
(-2.27296 -0.00616585 0)
(-2.27805 -0.00621626 0)
(-2.28321 -0.00628253 0)
(-2.28846 -0.00635624 0)
(-2.29378 -0.00642637 0)
(-2.29919 -0.00649269 0)
(-2.30467 -0.0065585 0)
(-2.31024 -0.00662472 0)
(-2.31588 -0.00669222 0)
(-2.32162 -0.00676066 0)
(-2.32741 -0.00682541 0)
(-2.33332 -0.00688824 0)
(-2.33929 -0.0069525 0)
(-2.34537 -0.00701655 0)
(-2.35153 -0.00708099 0)
(-2.3578 -0.00714554 0)
(-2.36415 -0.00721052 0)
(-2.3706 -0.0072755 0)
(-2.37712 -0.00734075 0)
(-2.38373 -0.00740582 0)
(-2.3904 -0.00747093 0)
(-2.39715 -0.0075353 0)
(-2.40395 -0.00759896 0)
(-2.41081 -0.00766151 0)
(-2.41771 -0.00772263 0)
(-2.42465 -0.00778147 0)
(-2.43161 -0.00783827 0)
(-2.43861 -0.0078925 0)
(-2.44561 -0.00794376 0)
(-2.45263 -0.00799153 0)
(-2.45964 -0.00803535 0)
(-2.46665 -0.00807451 0)
(-2.47365 -0.00810865 0)
(-2.48063 -0.00813645 0)
(-2.4876 -0.00815794 0)
(-2.49454 -0.0081724 0)
(-2.50145 -0.00817953 0)
(-2.50834 -0.00818063 0)
(-2.51519 -0.008175 0)
(-2.52201 -0.00816232 0)
(-2.52879 -0.00814283 0)
(-2.53555 -0.00811664 0)
(-2.54226 -0.00808421 0)
(-2.54894 -0.00804599 0)
(-2.55558 -0.0080027 0)
(-2.56219 -0.00795513 0)
(-2.56877 -0.00790399 0)
(-2.57532 -0.00784992 0)
(-2.58184 -0.00779486 0)
(-2.58833 -0.00774215 0)
(-2.59481 -0.00769101 0)
(-2.60127 -0.00763627 0)
(-2.60771 -0.00757917 0)
(-2.61416 -0.00752234 0)
(-2.62061 -0.00746826 0)
(-2.62707 -0.00741941 0)
(-2.63354 -0.00737888 0)
(-2.64004 -0.00735054 0)
(-2.64656 -0.00733899 0)
(-2.65313 -0.00735 0)
(-2.65975 -0.00739102 0)
(-2.66642 -0.0074706 0)
(-2.67316 -0.00759932 0)
(-2.67998 -0.00778936 0)
(-2.68689 -0.00805484 0)
(-2.69389 -0.00841106 0)
(-2.70103 -0.00887564 0)
(-2.70827 -0.00946872 0)
(-2.71564 -0.0102122 0)
(-2.72316 -0.0111283 0)
(-2.73084 -0.0122393 0)
(-2.73872 -0.01357 0)
(-2.7468 -0.0151212 0)
(-2.75512 -0.0168626 0)
(-2.76367 -0.0187499 0)
(-2.77247 -0.0206825 0)
(-2.78144 -0.022471 0)
(-2.79046 -0.023801 0)
(-2.79922 -0.0241948 0)
(-2.80714 -0.0229556 0)
(-2.81319 -0.0191702 0)
(-2.81602 -0.0113355 0)
(-2.81496 0.0032679 0)
(-2.80191 0.0299929 0)
(-2.77588 0.0772704 0)
(-2.72314 0.162307 0)
(-2.61521 0.310229 0)
(-2.4691 0.523087 0)
(-2.36961 -0.00156874 0)
(-2.37031 -0.00257523 0)
(-2.37522 -0.00328131 0)
(-2.37968 -0.00373955 0)
(-2.38436 -0.00402232 0)
(-2.38938 -0.00418998 0)
(-2.39446 -0.00428656 0)
(-2.39975 -0.00433976 0)
(-2.40504 -0.00436755 0)
(-2.4105 -0.00438104 0)
(-2.41595 -0.00438827 0)
(-2.42153 -0.00439479 0)
(-2.42711 -0.00440667 0)
(-2.4328 -0.00443218 0)
(-2.43848 -0.00447823 0)
(-2.44425 -0.00453399 0)
(-2.44999 -0.00458177 0)
(-2.45584 -0.00462264 0)
(-2.46167 -0.00466069 0)
(-2.46759 -0.00469753 0)
(-2.47351 -0.00473396 0)
(-2.47951 -0.00476935 0)
(-2.48552 -0.00480269 0)
(-2.49162 -0.00483377 0)
(-2.49769 -0.00486338 0)
(-2.50381 -0.00489145 0)
(-2.5099 -0.00491991 0)
(-2.51605 -0.00494857 0)
(-2.52216 -0.00497861 0)
(-2.5283 -0.00500945 0)
(-2.53441 -0.00504207 0)
(-2.54053 -0.00507583 0)
(-2.54661 -0.00511165 0)
(-2.55269 -0.00514861 0)
(-2.55872 -0.00518692 0)
(-2.56475 -0.00522623 0)
(-2.57072 -0.0052663 0)
(-2.57668 -0.00530652 0)
(-2.58258 -0.0053468 0)
(-2.58845 -0.00538664 0)
(-2.59427 -0.00542566 0)
(-2.60006 -0.00546299 0)
(-2.6058 -0.00549818 0)
(-2.6115 -0.00553027 0)
(-2.61715 -0.00555875 0)
(-2.62278 -0.0055821 0)
(-2.62835 -0.00560023 0)
(-2.6339 -0.00561243 0)
(-2.6394 -0.00561774 0)
(-2.64489 -0.00561697 0)
(-2.65034 -0.00560954 0)
(-2.65578 -0.00559517 0)
(-2.66119 -0.00557398 0)
(-2.6666 -0.00554605 0)
(-2.67198 -0.00551174 0)
(-2.67738 -0.0054712 0)
(-2.68276 -0.00542481 0)
(-2.68816 -0.00537315 0)
(-2.69356 -0.00531674 0)
(-2.69899 -0.00525577 0)
(-2.70443 -0.00519105 0)
(-2.7099 -0.00512849 0)
(-2.7154 -0.00506906 0)
(-2.72094 -0.00500029 0)
(-2.72652 -0.00492571 0)
(-2.73216 -0.00484848 0)
(-2.73785 -0.00477103 0)
(-2.74362 -0.00469568 0)
(-2.74946 -0.00462518 0)
(-2.75539 -0.00456308 0)
(-2.76141 -0.00451382 0)
(-2.76754 -0.0044829 0)
(-2.77377 -0.00447739 0)
(-2.78013 -0.00450553 0)
(-2.78662 -0.00457753 0)
(-2.79327 -0.00470483 0)
(-2.80006 -0.00489993 0)
(-2.80703 -0.00518132 0)
(-2.8142 -0.00556831 0)
(-2.82156 -0.00607741 0)
(-2.82912 -0.00672873 0)
(-2.83693 -0.00754229 0)
(-2.84499 -0.00853582 0)
(-2.85333 -0.00974109 0)
(-2.86196 -0.0111664 0)
(-2.8709 -0.0127643 0)
(-2.88016 -0.0145065 0)
(-2.8897 -0.0163138 0)
(-2.89943 -0.0180312 0)
(-2.90914 -0.0194038 0)
(-2.91844 -0.0200615 0)
(-2.92664 -0.0194895 0)
(-2.93261 -0.0170178 0)
(-2.93443 -0.0116599 0)
(-2.93105 -0.00096679 0)
(-2.91331 0.019377 0)
(-2.87606 0.0555542 0)
(-2.80286 0.120535 0)
(-2.66264 0.23022 0)
(-2.48709 0.375863 0)
(-2.48177 -0.00095298 0)
(-2.48305 -0.00147469 0)
(-2.48782 -0.00188723 0)
(-2.49232 -0.00216055 0)
(-2.49693 -0.00232964 0)
(-2.50193 -0.00242856 0)
(-2.50686 -0.00248275 0)
(-2.51204 -0.00250943 0)
(-2.51708 -0.00251943 0)
(-2.52231 -0.00252027 0)
(-2.52738 -0.00251723 0)
(-2.53261 -0.00251465 0)
(-2.53769 -0.00251712 0)
(-2.54291 -0.00253388 0)
(-2.54797 -0.00257741 0)
(-2.55313 -0.00263606 0)
(-2.55814 -0.00267825 0)
(-2.56325 -0.00270967 0)
(-2.56822 -0.00273624 0)
(-2.57329 -0.00276052 0)
(-2.57824 -0.0027827 0)
(-2.58326 -0.00280212 0)
(-2.58817 -0.0028229 0)
(-2.59315 -0.00284601 0)
(-2.598 -0.00286939 0)
(-2.60288 -0.00289202 0)
(-2.60764 -0.00291571 0)
(-2.61243 -0.00294022 0)
(-2.61711 -0.00296687 0)
(-2.6218 -0.00299506 0)
(-2.62639 -0.00302579 0)
(-2.63098 -0.00305835 0)
(-2.63549 -0.00309368 0)
(-2.64 -0.00313092 0)
(-2.64443 -0.00317002 0)
(-2.64885 -0.00321058 0)
(-2.65321 -0.00325234 0)
(-2.65757 -0.0032946 0)
(-2.66187 -0.00333711 0)
(-2.66617 -0.003379 0)
(-2.67042 -0.00342036 0)
(-2.67468 -0.00345964 0)
(-2.6789 -0.00349649 0)
(-2.68312 -0.00352989 0)
(-2.68731 -0.00355902 0)
(-2.69152 -0.00358274 0)
(-2.6957 -0.00360002 0)
(-2.6999 -0.00361033 0)
(-2.70409 -0.00361303 0)
(-2.70831 -0.00360786 0)
(-2.71252 -0.00359439 0)
(-2.71676 -0.00357259 0)
(-2.72101 -0.00354242 0)
(-2.72531 -0.00350407 0)
(-2.72962 -0.00345784 0)
(-2.73397 -0.00340391 0)
(-2.73836 -0.00334224 0)
(-2.7428 -0.00327334 0)
(-2.74728 -0.0031976 0)
(-2.75183 -0.00311526 0)
(-2.75642 -0.00302483 0)
(-2.7611 -0.00293452 0)
(-2.76583 -0.00285448 0)
(-2.77065 -0.00275509 0)
(-2.77553 -0.00264573 0)
(-2.78052 -0.0025312 0)
(-2.7856 -0.00241366 0)
(-2.79079 -0.00229507 0)
(-2.79608 -0.00217783 0)
(-2.8015 -0.00206516 0)
(-2.80704 -0.00196124 0)
(-2.81273 -0.00187126 0)
(-2.81856 -0.0018018 0)
(-2.82455 -0.00176075 0)
(-2.83071 -0.00175768 0)
(-2.83706 -0.00180361 0)
(-2.8436 -0.00191095 0)
(-2.85037 -0.00209749 0)
(-2.85737 -0.00238184 0)
(-2.86462 -0.0027802 0)
(-2.87216 -0.00331086 0)
(-2.88 -0.00399404 0)
(-2.88819 -0.00483726 0)
(-2.89675 -0.00587903 0)
(-2.90568 -0.00715974 0)
(-2.915 -0.00858499 0)
(-2.92473 -0.010161 0)
(-2.93482 -0.0118373 0)
(-2.94515 -0.0135018 0)
(-2.95549 -0.0149664 0)
(-2.96541 -0.0159786 0)
(-2.97415 -0.0162189 0)
(-2.98052 -0.0152647 0)
(-2.98254 -0.0126203 0)
(-2.97768 -0.00660256 0)
(-2.95913 0.00555573 0)
(-2.9155 0.0277282 0)
(-2.82983 0.0676458 0)
(-2.67067 0.133965 0)
(-2.48029 0.217587 0)
(-2.53845 -0.000154911 0)
(-2.53976 -0.000337227 0)
(-2.54398 -0.000477205 0)
(-2.548 -0.000572443 0)
(-2.55208 -0.000636215 0)
(-2.55653 -0.00067794 0)
(-2.56085 -0.000704891 0)
(-2.5654 -0.000722004 0)
(-2.56975 -0.000732948 0)
(-2.57427 -0.000740425 0)
(-2.57856 -0.00074709 0)
(-2.583 -0.000755292 0)
(-2.58722 -0.000767968 0)
(-2.59157 -0.000793713 0)
(-2.5957 -0.000853355 0)
(-2.59992 -0.000940335 0)
(-2.60392 -0.000994941 0)
(-2.60803 -0.0010352 0)
(-2.61194 -0.00106945 0)
(-2.61595 -0.00110094 0)
(-2.61978 -0.00112984 0)
(-2.6237 -0.00115651 -1.35947e-41)
(-2.62745 -0.00118508 0)
(-2.63127 -0.00121699 0)
(-2.63494 -0.00124986 0)
(-2.63868 -0.00128257 0)
(-2.64228 -0.00131542 0)
(-2.64594 -0.00134874 0)
(-2.64949 -0.0013829 0)
(-2.65308 -0.00141811 0)
(-2.65658 -0.00145454 0)
(-2.66012 -0.00149229 0)
(-2.6636 -0.0015313 0)
(-2.66709 -0.00157137 0)
(-2.67054 -0.00161224 0)
(-2.67402 -0.00165352 0)
(-2.67746 -0.00169492 0)
(-2.68092 -0.00173563 0)
(-2.68435 -0.00177565 0)
(-2.68781 -0.00181373 0)
(-2.69125 -0.00185037 0)
(-2.69472 -0.00188386 0)
(-2.69818 -0.00191377 0)
(-2.70167 -0.0019393 0)
(-2.70515 -0.00195935 0)
(-2.70866 -0.00197322 0)
(-2.71219 -0.00197915 0)
(-2.71574 -0.00197657 0)
(-2.7193 -0.00196536 0)
(-2.7229 -0.00194452 0)
(-2.72653 -0.0019137 0)
(-2.73019 -0.00187296 0)
(-2.73388 -0.00182232 0)
(-2.73763 -0.00176195 0)
(-2.7414 -0.00169223 0)
(-2.74523 -0.0016134 0)
(-2.74911 -0.00152494 0)
(-2.75304 -0.00142728 0)
(-2.75702 -0.00132081 0)
(-2.76108 -0.00120567 0)
(-2.76519 -0.00108045 0)
(-2.7694 -0.000944091 0)
(-2.77366 -0.000841199 0)
(-2.77799 -0.000698847 0)
(-2.78241 -0.000543384 0)
(-2.78694 -0.000381382 0)
(-2.79156 -0.000214087 0)
(-2.7963 -4.29276e-05 0)
(-2.80115 0.000130161 0)
(-2.80612 0.00030233 0)
(-2.81122 0.000469735 0)
(-2.81647 0.000627597 0)
(-2.82187 0.000769915 0)
(-2.82743 0.000889292 0)
(-2.83316 0.000976873 0)
(-2.83909 0.00102218 0)
(-2.84523 0.00101278 0)
(-2.85159 0.000933089 0)
(-2.85819 0.000766515 0)
(-2.86505 0.000496865 0)
(-2.87221 0.000106605 0)
(-2.87968 -0.000423112 0)
(-2.88747 -0.00110431 -1.29811e-41)
(-2.89571 -0.00193828 0)
(-2.9042 -0.0030734 0)
(-2.91311 -0.00429662 0)
(-2.92244 -0.00568633 0)
(-2.93213 -0.00722178 -8.48917e-41)
(-2.94203 -0.00883999 0)
(-2.95189 -0.0104168 0)
(-2.96128 -0.0118227 0)
(-2.96946 -0.0129287 0)
(-2.97521 -0.0136048 0)
(-2.97663 -0.0137117 -8.05903e-41)
(-2.97036 -0.0127037 0)
(-2.95086 -0.0096015 0)
(-2.90546 -0.00319287 -3.7532e-41)
(-2.81543 0.00877857 0)
(-2.64966 0.0288376 0)
(-2.45464 0.0541755 0)
(-2.51727 0.00068955 0)
(-2.5181 0.000800316 0)
(-2.52209 0.000931689 0)
(-2.52585 0.00101428 0)
(-2.52969 0.00105567 0)
(-2.53392 0.00107016 0)
(-2.53806 0.00106851 0)
(-2.54242 0.00105828 0)
(-2.54663 0.001043 0)
(-2.551 0.00102495 0)
(-2.55519 0.00100409 0)
(-2.55952 0.000979913 0)
(-2.56367 0.000950237 0)
(-2.56793 0.00090671 0)
(-2.57202 0.000829914 0)
(-2.57623 0.000726788 0)
(-2.58031 0.000656172 0)
(-2.58448 0.000600265 0)
(-2.58849 0.000551004 0)
(-2.59258 0.000505199 0)
(-2.59653 0.000462293 0)
(-2.60056 0.000421172 4.95085e-42)
(-2.60444 0.000379537 0)
(-2.6084 0.000336429 0)
(-2.61223 0.000293593 0)
(-2.61613 0.000251221 0)
(-2.61991 0.000210086 0)
(-2.62374 0.000169338 0)
(-2.62748 0.000129395 0)
(-2.63126 8.93172e-05 0)
(-2.63496 4.96126e-05 0)
(-2.63869 9.42391e-06 0)
(-2.64235 -3.03615e-05 0)
(-2.64605 -7.00953e-05 0)
(-2.64968 -0.000109415 0)
(-2.65335 -0.000148087 0)
(-2.65696 -0.000185571 0)
(-2.6606 -0.000221353 0)
(-2.6642 -0.000255231 0)
(-2.66783 -0.000286499 0)
(-2.67143 -0.000314732 0)
(-2.67504 -0.000339261 0)
(-2.67864 -0.000359247 0)
(-2.68225 -0.000373965 0)
(-2.68586 -0.000382285 0)
(-2.68948 -0.000383412 0)
(-2.69311 -0.000375652 0)
(-2.69674 -0.00035817 0)
(-2.70039 -0.000330657 0)
(-2.70406 -0.000291968 0)
(-2.70774 -0.00024185 0)
(-2.71145 -0.000180173 0)
(-2.71518 -0.000107199 0)
(-2.71894 -2.30198e-05 0)
(-2.72273 7.19179e-05 0)
(-2.72657 0.000177346 0)
(-2.73043 0.000294244 0)
(-2.73435 0.000422429 0)
(-2.73831 0.000561281 0)
(-2.74232 0.000710659 0)
(-2.74638 0.000871083 0)
(-2.7505 0.0010457 0)
(-2.75468 0.00119055 0)
(-2.75895 0.00137693 0)
(-2.76329 0.00157897 0)
(-2.76771 0.00179035 0)
(-2.77221 0.00201014 0)
(-2.77681 0.00223716 0)
(-2.7815 0.00246986 0)
(-2.7863 0.00270584 0)
(-2.79121 0.00294161 0)
(-2.79626 0.00317283 0)
(-2.80143 0.00339425 0)
(-2.80675 0.00359899 0)
(-2.81224 0.00377895 0)
(-2.81789 0.00392431 0)
(-2.82374 0.00402332 0)
(-2.82979 0.00406206 0)
(-2.83607 0.00402545 0)
(-2.84259 0.00389789 0)
(-2.84939 0.00366253 0)
(-2.85648 0.00330221 0)
(-2.86388 0.00279512 3.28565e-41)
(-2.87163 0.00215275 0)
(-2.87966 0.00123094 0)
(-2.88813 0.000216319 0)
(-2.89689 -0.000983342 0)
(-2.90596 -0.00237232 -2.78865e-41)
(-2.91494 -0.00393223 0)
(-2.92384 -0.00561074 0)
(-2.93215 -0.00739325 0)
(-2.93912 -0.00933251 0)
(-2.94357 -0.0115806 0)
(-2.94358 -0.0143901 -8.45775e-41)
(-2.93588 -0.0182288 0)
(-2.91449 -0.023943 0)
(-2.86849 -0.0333121 -3.91582e-40)
(-2.77848 -0.049379 0)
(-2.61426 -0.0752962 0)
(-2.421 -0.106027 0)
(-2.43304 0.00140929 0)
(-2.43293 0.00195749 0)
(-2.43696 0.00238191 0)
(-2.44052 0.00265749 0)
(-2.44426 0.00281941 0)
(-2.44836 0.00290629 0)
(-2.45247 0.00294755 0)
(-2.4568 0.00296179 0)
(-2.46107 0.00296031 0)
(-2.4655 0.00294929 0)
(-2.46986 0.00293199 0)
(-2.47434 0.00290866 0)
(-2.47877 0.00287755 0)
(-2.4833 0.00283048 0)
(-2.48778 0.00275782 0)
(-2.49238 0.00267186 0)
(-2.49694 0.00260306 0)
(-2.50161 0.00254602 0)
(-2.50622 0.00249534 0)
(-2.51092 0.00244846 0)
(-2.51556 0.0024043 0)
(-2.52029 0.0023616 0)
(-2.52497 0.00231888 0)
(-2.52972 0.00227542 0)
(-2.53442 0.00223214 0)
(-2.53919 0.00218902 0)
(-2.54391 0.00214697 0)
(-2.54868 0.00210537 0)
(-2.55341 0.00206457 0)
(-2.55818 0.00202374 0)
(-2.5629 0.00198324 0)
(-2.56767 0.00194235 0)
(-2.57238 0.00190188 0)
(-2.57712 0.00186153 0)
(-2.58182 0.00182183 0)
(-2.58654 0.0017829 0)
(-2.59121 0.00174562 0)
(-2.5959 0.0017101 0)
(-2.60054 0.00167714 0)
(-2.60519 0.0016466 0)
(-2.60981 0.00162018 0)
(-2.61442 0.00159748 0)
(-2.619 0.00157982 0)
(-2.62358 0.00156806 0)
(-2.62813 0.00156328 0)
(-2.63268 0.00156654 0)
(-2.6372 0.00157929 0)
(-2.64172 0.00160264 0)
(-2.64621 0.00163724 0)
(-2.6507 0.00168424 0)
(-2.65518 0.00174389 0)
(-2.65965 0.00181658 0)
(-2.66411 0.00190197 0)
(-2.66858 0.00199994 0)
(-2.67304 0.00211029 0)
(-2.67751 0.00223305 0)
(-2.68198 0.00236912 0)
(-2.68648 0.00251852 0)
(-2.69097 0.00268068 0)
(-2.6955 0.0028552 0)
(-2.70004 0.00304266 0)
(-2.70461 0.00323832 0)
(-2.70922 0.00343302 0)
(-2.71388 0.00365443 0)
(-2.71858 0.00389394 0)
(-2.72334 0.00414724 0)
(-2.72815 0.00441297 0)
(-2.73302 0.00469001 0)
(-2.73797 0.00497699 0)
(-2.743 0.00527202 0)
(-2.74812 0.00557198 0)
(-2.75334 0.00587309 0)
(-2.75867 0.00617077 0)
(-2.76414 0.00645875 0)
(-2.76974 0.00672961 0)
(-2.7755 0.00697425 0)
(-2.78143 0.00718179 0)
(-2.78755 0.00733949 0)
(-2.79389 0.0074335 0)
(-2.80047 0.00744873 0)
(-2.80731 0.00736924 0)
(-2.81444 0.00717699 0)
(-2.82188 0.00685121 0)
(-2.82966 0.00637305 0)
(-2.83782 0.00570213 0)
(-2.84636 0.00488301 0)
(-2.85523 0.00385411 0)
(-2.86446 0.00259549 0)
(-2.87365 0.00108094 0)