/*--------------------------------*- C++ -*----------------------------------*\
| =========                 |                                                 |
| \\      /  F ield         | OpenFOAM: The Open Source CFD Toolbox           |
|  \\    /   O peration     | Version:  2.1.0                                 |
|   \\  /    A nd           | Web:      www.OpenFOAM.org                      |
|    \\/     M anipulation  |                                                 |
\*---------------------------------------------------------------------------*/
FoamFile
{
    version     2.0;
    format      ascii;
    class       volScalarField;
    location    "0.45";
    object      k;
}
// * * * * * * * * * * * * * * * * * * * * * * * * * * * * * * * * * * * * * //

dimensions      [0 2 -2 0 0 0 0];

internalField   nonuniform List<scalar> 
6400
(
0.0327902
0.0328294
0.0328327
0.0328264
0.0328039
0.032793
0.0327625
0.0327479
0.032714
0.0326971
0.0326612
0.0326411
0.0326043
0.0325802
0.0325427
0.0325143
0.0324758
0.0324432
0.0324033
0.0323668
0.0323253
0.0322852
0.0322422
0.0321992
0.0321546
0.0321091
0.0320628
0.0320149
0.0319667
0.0319163
0.0318657
0.0318127
0.0317595
0.0317036
0.0316474
0.0315884
0.0315287
0.0314662
0.0314025
0.0313355
0.0312664
0.031193
0.0311166
0.0310349
0.030949
0.0308568
0.0307589
0.0306535
0.0305408
0.0304197
0.0302897
0.0301502
0.0300004
0.0298373
0.0296585
0.0294619
0.0292463
0.0290283
0.0287927
0.0285528
0.0282975
0.0280368
0.0277632
0.0274822
0.0271878
0.0268846
0.0265676
0.0262403
0.0258959
0.025536
0.0251599
0.0247644
0.024351
0.0239165
0.0234625
0.0229876
0.0224932
0.0219803
0.0214509
0.0209077
0.0203529
0.0197881
0.0192089
0.018597
0.0179232
0.0172274
0.0164769
0.0156529
0.0147207
0.0136286
0.012304
0.0106364
0.00854335
0.00606072
0.0034031
0.00235712
0.00274623
0.00552327
0.00876181
0.00991659
0.051876
0.0522128
0.0523672
0.05265
0.0528248
0.0531055
0.0532992
0.0535738
0.0537852
0.0540543
0.0542808
0.0545462
0.0547849
0.0550481
0.0552962
0.0555583
0.0558133
0.0560751
0.0563348
0.0565964
0.0568592
0.0571212
0.0573864
0.05765
0.0579186
0.0581864
0.0584603
0.0587337
0.059014
0.059294
0.059581
0.059868
0.0601619
0.0604562
0.0607571
0.0610592
0.0613676
0.0616781
0.0619952
0.0623153
0.0626419
0.0629692
0.0633009
0.0636327
0.0639662
0.0642983
0.0646286
0.0649547
0.0652749
0.0655873
0.0658898
0.0661819
0.0664666
0.0667432
0.0670014
0.0672399
0.0674465
0.0676595
0.0678459
0.0680251
0.0681769
0.0683167
0.0684325
0.0685373
0.0686139
0.0686728
0.0687005
0.0687099
0.0686862
0.0686155
0.0685044
0.0683373
0.0681116
0.0678158
0.0674425
0.0669818
0.0664246
0.065763
0.0649883
0.0640959
0.0630801
0.0619422
0.0606844
0.0593043
0.0577646
0.0559923
0.0539736
0.0516379
0.0489304
0.0457753
0.0421193
0.0379209
0.0332419
0.028353
0.0233626
0.018624
0.0149769
0.0123968
0.0107881
0.00922061
0.0576056
0.0581065
0.0583345
0.0587489
0.0590305
0.0594297
0.0597445
0.0601338
0.0604721
0.0608563
0.0612123
0.0615949
0.0619643
0.0623476
0.0627273
0.0631126
0.0635
0.0638877
0.0642804
0.0646699
0.0650654
0.0654551
0.0658504
0.066239
0.0666341
0.0670242
0.0674231
0.0678172
0.0682198
0.0686181
0.0690238
0.0694258
0.0698339
0.0702389
0.0706486
0.0710555
0.0714655
0.0718722
0.0722796
0.0726829
0.0730852
0.0734839
0.0738793
0.0742695
0.0746531
0.0750286
0.0753927
0.0757434
0.0760755
0.0763848
0.0766648
0.0769059
0.0771109
0.0773065
0.077469
0.0776152
0.0777312
0.0778284
0.0778942
0.0779338
0.0779498
0.0779506
0.0778871
0.0778025
0.0776585
0.0774808
0.0772427
0.0769604
0.0766137
0.0762115
0.0757365
0.0751905
0.0745577
0.0738351
0.0730065
0.072066
0.0709973
0.0697934
0.0684393
0.0669295
0.0652519
0.0634043
0.0613782
0.0591739
0.0567911
0.0542588
0.0515555
0.0486991
0.0456572
0.0424283
0.0389624
0.0352368
0.0312213
0.0269206
0.0224464
0.0180963
0.0144246
0.0114654
0.00928281
0.00710614
0.0618555
0.0624161
0.0626713
0.0631511
0.0634841
0.0639438
0.0643192
0.0647654
0.065167
0.065606
0.0660248
0.0664608
0.0668913
0.0673269
0.0677656
0.0682022
0.0686461
0.0690839
0.0695307
0.069969
0.0704161
0.070853
0.071297
0.0717272
0.0721575
0.0725682
0.07299
0.0733985
0.0738126
0.0742148
0.0746188
0.0750113
0.0754024
0.0757813
0.0761558
0.076517
0.0768707
0.0772094
0.0775391
0.0778512
0.0781471
0.0784272
0.0786856
0.0789257
0.07914
0.0793318
0.0794938
0.0796287
0.0797297
0.079792
0.0798196
0.0798254
0.079779
0.0796995
0.079569
0.0793978
0.0791703
0.0788928
0.0785514
0.0781489
0.0776731
0.0771275
0.0765012
0.0757987
0.0750057
0.0741287
0.0731536
0.0720879
0.0709199
0.0696574
0.0682915
0.0668305
0.0652689
0.0636159
0.0618675
0.0600342
0.0581128
0.0561143
0.054036
0.0518884
0.0496686
0.0473862
0.0450382
0.042633
0.0401696
0.0376554
0.0350904
0.0325
0.0298799
0.0272491
0.0246086
0.0219756
0.0193551
0.0167692
0.0142495
0.0118766
0.00969858
0.00786146
0.00658643
0.00598995
0.0630324
0.0635675
0.0638061
0.0642702
0.0645795
0.0650215
0.0653681
0.0657899
0.0661564
0.066562
0.0669379
0.0673302
0.0677087
0.0680892
0.0684648
0.0688336
0.069202
0.0695579
0.0699151
0.0702559
0.0705977
0.0709212
0.0712437
0.0715471
0.0718459
0.0721279
0.0724042
0.0726623
0.0729118
0.0731408
0.0733577
0.0735516
0.0737297
0.0738819
0.0740142
0.0741176
0.0741962
0.0742354
0.0742507
0.0742448
0.0741804
0.0740945
0.0739535
0.0737798
0.0735509
0.0732808
0.0729538
0.0725789
0.0721446
0.0716572
0.0711094
0.0705044
0.0698353
0.0691077
0.0683139
0.0674596
0.0665426
0.0655644
0.0645226
0.0634201
0.0622543
0.0610298
0.0597441
0.0584029
0.0570039
0.0555539
0.054051
0.0525028
0.0509076
0.0492736
0.0475994
0.0458932
0.0441549
0.0423926
0.0406098
0.0388152
0.0370095
0.0352012
0.0333923
0.0315912
0.0298009
0.0280307
0.0262851
0.024573
0.0228993
0.0212718
0.019696
0.0181629
0.0166844
0.0152539
0.0138808
0.0125588
0.0112983
0.0100972
0.00897307
0.00794224
0.00703051
0.00639849
0.00612455
0.00612137
0.0595728
0.0599057
0.0600544
0.0603552
0.0605505
0.0608315
0.0610429
0.0612979
0.0615093
0.061737
0.0619383
0.0621381
0.0623222
0.0624929
0.0626538
0.0627934
0.0629257
0.0630315
0.06313
0.0631985
0.0632553
0.063282
0.0632926
0.0632863
0.0632432
0.0631819
0.0630888
0.0629704
0.0628274
0.0626547
0.0624552
0.0622223
0.0619599
0.0616609
0.0613299
0.0609597
0.060555
0.0601092
0.0596279
0.0591037
0.0585399
0.0579358
0.0572894
0.0566035
0.055875
0.0551078
0.0542988
0.0534524
0.0525662
0.0516444
0.0506856
0.0496935
0.0486677
0.0476119
0.0465261
0.0454144
0.0442767
0.0431172
0.041937
0.0407431
0.0395348
0.0383179
0.0370924
0.0358639
0.0346329
0.0334046
0.0321797
0.0309634
0.0297567
0.0285643
0.0273875
0.0262307
0.0250952
0.0239846
0.0228976
0.0218369
0.0208046
0.0198026
0.0188339
0.0178995
0.017
0.0161308
0.0152972
0.0144939
0.0137248
0.0129842
0.0122748
0.0115907
0.0109337
0.0102967
0.00968163
0.00908132
0.00849945
0.00793328
0.00739647
0.00689934
0.00653549
0.00637735
0.00635084
0.00656791
0.0504865
0.0504588
0.05045
0.0504459
0.0504399
0.0504211
0.0503983
0.0503523
0.0503032
0.0502242
0.0501432
0.0500283
0.0499116
0.0497585
0.0496033
0.0494104
0.0492147
0.0489809
0.0487431
0.0484677
0.0481873
0.0478709
0.0475483
0.0471889
0.0468169
0.0464116
0.0459902
0.0455379
0.0450679
0.0445681
0.0440498
0.0435028
0.042937
0.042344
0.0417327
0.0410959
0.0404419
0.0397645
0.0390717
0.0383578
0.0376305
0.0368862
0.0361323
0.035365
0.0345911
0.0338078
0.0330211
0.0322291
0.0314369
0.0306437
0.0298538
0.0290667
0.0282866
0.0275129
0.0267496
0.025996
0.0252523
0.0245219
0.023805
0.023101
0.0224121
0.0217381
0.0210807
0.0204394
0.0198154
0.0192078
0.0186194
0.0180462
0.01749
0.0169486
0.0164231
0.0159111
0.0154133
0.0149274
0.0144535
0.0139896
0.0135352
0.0130884
0.0126478
0.0122111
0.0117925
0.0113845
0.0109928
0.0106101
0.0102415
0.00988057
0.00953204
0.00919015
0.00886042
0.00853868
0.00823209
0.00793913
0.00766985
0.00742685
0.00723036
0.00710012
0.00704672
0.00709072
0.00743126
0.00762339
0.037626
0.0372783
0.0371316
0.0368564
0.0366818
0.0364007
0.0361925
0.0358946
0.0356514
0.0353312
0.0350528
0.0347081
0.0343959
0.0340256
0.0336806
0.0332841
0.0329075
0.0324848
0.0320777
0.0316292
0.0311928
0.0307188
0.0302539
0.0297606
0.0292794
0.0287755
0.0282834
0.0277719
0.0272674
0.0267471
0.0262361
0.0257129
0.0252013
0.0246808
0.0241741
0.0236617
0.023165
0.0226654
0.0221833
0.021701
0.0212377
0.0207759
0.0203328
0.0198934
0.0194734
0.0190588
0.0186639
0.0182758
0.0179075
0.0175471
0.017206
0.016873
0.0165591
0.0162552
0.0159689
0.0156935
0.0154341
0.0151863
0.0149526
0.0147303
0.0145207
0.0143221
0.0141352
0.0139585
0.0137928
0.0136368
0.0134887
0.0133512
0.0132221
0.0131023
0.0129896
0.012885
0.0127861
0.0126939
0.012606
0.0125233
0.0124434
0.012367
0.0122916
0.0122177
0.0121431
0.0120651
0.0119829
0.0118935
0.0117957
0.0116865
0.0115647
0.0114272
0.0112741
0.0111047
0.010922
0.0107298
0.0105373
0.0103558
0.0102276
0.010172
0.0101661
0.010413
0.0107755
0.0109537
0.0247713
0.0242455
0.024027
0.0236125
0.0233736
0.0229688
0.0227096
0.0223106
0.0220334
0.0216391
0.0213485
0.0209579
0.0206573
0.0202708
0.0199637
0.0195827
0.0192726
0.0188985
0.0185887
0.0182236
0.0179171
0.0175632
0.0172634
0.0169252
0.0166386
0.0163195
0.0160484
0.0157497
0.0154958
0.0152192
0.0149846
0.0147313
0.0145172
0.0142883
0.0140956
0.013892
0.0137211
0.0135429
0.0133941
0.0132415
0.0131148
0.0129872
0.0128829
0.0127797
0.0126978
0.0126186
0.0125591
0.0125034
0.0124663
0.0124355
0.0124208
0.0124149
0.0124149
0.0124353
0.0124583
0.0124995
0.0125451
0.012607
0.0126755
0.0127592
0.0128508
0.0129568
0.0130715
0.0132
0.0133381
0.0134897
0.0136516
0.0138265
0.014012
0.0142107
0.0144205
0.0146437
0.0148788
0.0151275
0.0153887
0.0156637
0.0159515
0.0162531
0.0165675
0.0168953
0.0172354
0.0175872
0.017949
0.0183194
0.0186956
0.0190747
0.0194527
0.0198244
0.0201846
0.020528
0.0208499
0.0211472
0.0214202
0.0216734
0.021922
0.0222152
0.0226607
0.0232746
0.0241002
0.0250052
0.0176721
0.0171408
0.0169256
0.0165155
0.0163
0.0159092
0.0156954
0.0153256
0.0151158
0.0147682
0.0145651
0.0142406
0.0140467
0.0137461
0.0135634
0.0132871
0.0131175
0.012866
0.0127111
0.0124845
0.0123455
0.0121438
0.0120218
0.0118449
0.0117404
0.0115878
0.0115008
0.0113719
0.0113026
0.0111971
0.0111446
0.0110641
0.011025
0.0109703
0.0109445
0.0109156
0.0109032
0.0108978
0.0108977
0.0109131
0.0109336
0.010966
0.0110053
0.0110552
0.0111134
0.0111808
0.0112577
0.0113429
0.0114386
0.011542
0.0116566
0.0117788
0.0119124
0.0120544
0.0122072
0.0123695
0.0125427
0.0127261
0.0129205
0.013126
0.0133431
0.013572
0.0138134
0.0140676
0.0143354
0.0146172
0.0149136
0.0152254
0.0155533
0.0158981
0.0162608
0.0166424
0.0170441
0.0174669
0.0179124
0.0183819
0.0188775
0.0194005
0.0199534
0.020538
0.0211569
0.0218131
0.0225098
0.0232504
0.0240392
0.0248807
0.0257805
0.0267445
0.0277814
0.0288989
0.0301084
0.0314214
0.0328534
0.0344207
0.0361423
0.0380286
0.0400851
0.0422729
0.0438002
0.0444229
0.0205654
0.0200068
0.0197777
0.0193403
0.0191035
0.0186828
0.0184407
0.0180372
0.0177927
0.0174073
0.0171631
0.0167974
0.0165568
0.0162122
0.0159786
0.0156557
0.0154322
0.0151317
0.0149207
0.0146432
0.0144466
0.0141926
0.014012
0.0137816
0.0136181
0.0134114
0.0132658
0.0130828
0.0129556
0.0127961
0.0126877
0.0125515
0.0124619
0.0123489
0.0122779
0.0121881
0.0121356
0.0120688
0.0120352
0.0119942
0.011975
0.0119626
0.0119587
0.011963
0.011983
0.0120077
0.0120476
0.0120926
0.0121525
0.0122178
0.0122978
0.0123837
0.012484
0.0125909
0.0127121
0.0128402
0.0129824
0.0131322
0.0132961
0.0134682
0.0136542
0.0138497
0.0140592
0.0142795
0.0145142
0.0147606
0.0150222
0.0152967
0.0155873
0.0158922
0.0162144
0.0165522
0.0169089
0.0172831
0.017678
0.0180927
0.0185304
0.0189908
0.019477
0.0199892
0.0205309
0.0211028
0.0217087
0.02235
0.0230309
0.0237537
0.0245233
0.0253429
0.0262179
0.0271523
0.0281535
0.0292297
0.0303989
0.031672
0.033076
0.0346351
0.0363892
0.0383089
0.0398587
0.0405398
0.0310295
0.0304893
0.0302615
0.029828
0.0295717
0.0291439
0.0288593
0.0284322
0.0281227
0.0276951
0.0273587
0.0269247
0.026566
0.0261272
0.0257519
0.0253097
0.0249231
0.0244799
0.0240868
0.0236455
0.0232502
0.0228141
0.0224206
0.0219927
0.0216049
0.0211882
0.0208096
0.0204071
0.0200408
0.0196552
0.0193042
0.0189378
0.0186046
0.0182594
0.0179457
0.0176227
0.0173298
0.0170305
0.0167602
0.0164857
0.0162388
0.0159907
0.0157685
0.0155478
0.0153513
0.0151579
0.0149873
0.0148211
0.0146762
0.0145366
0.0144173
0.0143039
0.0142099
0.0141227
0.0140538
0.0139916
0.0139466
0.0139084
0.0138869
0.0138763
0.0138731
0.0138819
0.0139038
0.0139345
0.0139781
0.0140301
0.0140943
0.0141662
0.0142498
0.0143393
0.0144387
0.0145433
0.0146562
0.0147731
0.0148966
0.0150223
0.0151528
0.0152835
0.0154166
0.0155478
0.0156788
0.0158054
0.0159291
0.0160459
0.0161571
0.016259
0.0163531
0.0164368
0.0165126
0.0165781
0.0166386
0.016691
0.0167382
0.0168018
0.0168992
0.0170764
0.0173892
0.0179155
0.0186448
0.0196892
0.0440195
0.0436883
0.0435487
0.0432826
0.0431136
0.0428384
0.0426324
0.0423367
0.0420924
0.0417708
0.0414888
0.0411386
0.0408194
0.0404391
0.040083
0.0396722
0.03928
0.0388389
0.038412
0.0379413
0.0374814
0.0369824
0.0364919
0.0359665
0.0354477
0.0348984
0.0343546
0.0337845
0.0332197
0.0326322
0.0320507
0.0314503
0.0308568
0.0302482
0.0296482
0.0290373
0.0284314
0.0278173
0.0272115
0.0266013
0.0260023
0.0254026
0.0248167
0.0242332
0.0236657
0.0231034
0.0225588
0.0220219
0.021504
0.020994
0.0205034
0.020022
0.0195598
0.0191071
0.0186728
0.0182489
0.0178428
0.0174463
0.0170687
0.0167016
0.0163518
0.0160126
0.0156894
0.0153747
0.0150741
0.0147809
0.0144996
0.0142228
0.0139553
0.0136953
0.013444
0.0131983
0.0129602
0.0127256
0.0124974
0.0122709
0.0120497
0.0118287
0.0116121
0.0113947
0.0111812
0.0109665
0.0107557
0.0105445
0.0103377
0.0101322
0.00992991
0.0097303
0.00953663
0.00934953
0.00917398
0.00901263
0.00887263
0.00875711
0.00869993
0.00868108
0.00878976
0.00904935
0.00945159
0.00962987
0.0556057
0.0556039
0.0556129
0.0556252
0.0556317
0.0556326
0.0556211
0.0555888
0.05555
0.0554798
0.0554127
0.0553086
0.055208
0.0550672
0.0549287
0.0547485
0.0545682
0.0543458
0.0541204
0.0538528
0.0535794
0.0532642
0.0529402
0.0525767
0.0522
0.051784
0.051354
0.0508847
0.0504001
0.0498769
0.0493371
0.04876
0.0481653
0.047535
0.0468868
0.0462051
0.0455058
0.044775
0.0440272
0.0432505
0.0424579
0.0416396
0.0408073
0.0399523
0.0390865
0.0382017
0.0373091
0.0364018
0.0354903
0.0345702
0.0336505
0.0327269
0.0318082
0.0308904
0.029982
0.0290794
0.0281907
0.0273126
0.0264516
0.0256049
0.0247758
0.0239596
0.0231642
0.0223849
0.0216287
0.0208908
0.0201777
0.0194855
0.0188192
0.0181706
0.017546
0.0169386
0.0163534
0.0157842
0.0152346
0.014699
0.0141803
0.0136731
0.0131798
0.0126954
0.0122216
0.0117536
0.0112928
0.010835
0.0103812
0.00994918
0.00952953
0.00913267
0.00874886
0.00838854
0.00804379
0.00772586
0.00742751
0.00716738
0.00692848
0.00677061
0.00670089
0.00669979
0.00703159
0.0072199
0.0622461
0.0625645
0.0627074
0.0629919
0.0631824
0.0634476
0.0636541
0.0638956
0.0641034
0.0643213
0.0645218
0.0647161
0.0649023
0.065072
0.0652383
0.0653816
0.065523
0.0656374
0.065749
0.0658311
0.0659084
0.0659543
0.0659837
0.0659937
0.0659919
0.0659487
0.0658968
0.0658051
0.065699
0.0655536
0.0653886
0.0651833
0.0649535
0.0646818
0.0643809
0.064036
0.0636638
0.0632478
0.0627995
0.0623072
0.0617781
0.0612015
0.0605878
0.0599244
0.059223
0.0584714
0.0576809
0.0568413
0.055963
0.0550375
0.0540744
0.0530671
0.0520245
0.0509416
0.0498264
0.0486753
0.0474963
0.0462864
0.0450536
0.0437956
0.0425246
0.041236
0.0399409
0.0386353
0.0373298
0.0360208
0.0347184
0.0334194
0.032133
0.0308565
0.0295987
0.028357
0.0271394
0.0259434
0.0247761
0.0236348
0.022522
0.0214332
0.0203745
0.0193426
0.0183421
0.017371
0.0164321
0.0155243
0.0146494
0.0138051
0.0129857
0.012194
0.011425
0.0106823
0.00996172
0.00926662
0.00859538
0.00795562
0.0073613
0.00681271
0.00640048
0.00621266
0.00617412
0.00636077
0.0637464
0.0642278
0.0644437
0.0648608
0.0651438
0.0655401
0.0658577
0.0662363
0.0665723
0.0669373
0.0672822
0.0676365
0.0679838
0.0683289
0.0686741
0.06901
0.0693493
0.0696753
0.0700054
0.0703198
0.0706375
0.0709379
0.0712399
0.0715252
0.0718079
0.0720721
0.0723333
0.0725744
0.0728113
0.0730294
0.0732395
0.0734292
0.0736075
0.0737632
0.0739036
0.0740196
0.074118
0.0741889
0.0742303
0.0742471
0.0742485
0.0741976
0.0741274
0.0740082
0.0738598
0.0736611
0.0734252
0.073136
0.0728024
0.0724116
0.0719704
0.0714683
0.0709106
0.0702905
0.0696104
0.0688631
0.0680571
0.0671803
0.0662442
0.0652362
0.0641693
0.0630355
0.0618445
0.0605882
0.0592781
0.0579066
0.0564851
0.0550079
0.0534855
0.0519143
0.0503038
0.0486517
0.0469665
0.0452471
0.0435004
0.0417269
0.0399358
0.0381312
0.0363151
0.0344919
0.032663
0.0308339
0.0290057
0.0271855
0.0253747
0.0235821
0.021811
0.0200709
0.0183676
0.0166906
0.0150657
0.0134893
0.0119888
0.0105676
0.00927397
0.00807991
0.00708187
0.00635305
0.00603084
0.00600384
0.0613209
0.0618201
0.0620482
0.0624706
0.0627682
0.0631715
0.0635065
0.0638977
0.0642552
0.0646401
0.0650122
0.0653948
0.0657766
0.0661592
0.0665475
0.0669312
0.0673239
0.0677091
0.0681042
0.0684905
0.0688863
0.0692726
0.0696671
0.0700514
0.070441
0.0708191
0.0711983
0.0715621
0.0719197
0.0722749
0.072629
0.0729785
0.0733275
0.0736716
0.0740161
0.0743533
0.0746863
0.0750101
0.0753281
0.0756369
0.075937
0.0762229
0.0765005
0.0767603
0.0770089
0.0772365
0.0774493
0.0776381
0.0778075
0.07795
0.0780679
0.0781545
0.0782019
0.0782205
0.078221
0.0781567
0.0780754
0.0779293
0.0777517
0.077506
0.0772154
0.0768505
0.0764262
0.0759177
0.0753371
0.0746699
0.0739174
0.0730724
0.0721312
0.0710911
0.0699472
0.0687011
0.0673485
0.0658944
0.0643355
0.0626796
0.0609247
0.0590781
0.0571394
0.0551144
0.0530024
0.0508067
0.0485251
0.0461584
0.0437022
0.0411556
0.0385163
0.0357821
0.0329592
0.0300698
0.0271142
0.0241126
0.0210907
0.0180941
0.0152293
0.0125118
0.0101214
0.00808788
0.00662569
0.00592604
0.0562586
0.0566906
0.0568888
0.0572457
0.0574921
0.0578356
0.0581107
0.0584454
0.0587406
0.0590709
0.0593809
0.05971
0.0600314
0.0603618
0.0606922
0.0610251
0.0613626
0.0616987
0.0620417
0.0623811
0.0627281
0.0630702
0.0634197
0.0637636
0.064114
0.0644586
0.0648087
0.0651537
0.0655049
0.0658556
0.0662119
0.0665686
0.06693
0.0672914
0.0676559
0.0680208
0.0683904
0.0687605
0.0691339
0.0695079
0.069884
0.0702604
0.0706381
0.0710146
0.0713917
0.0717659
0.07214
0.0725108
0.0728788
0.0732389
0.0735917
0.0739303
0.0742528
0.0745525
0.0748193
0.0750366
0.0752618
0.0754444
0.075621
0.0757573
0.0758797
0.0759659
0.0760382
0.0760766
0.0760928
0.0760814
0.0760047
0.0758975
0.0757257
0.0755083
0.0752228
0.0748784
0.0744494
0.0739444
0.0733362
0.0726273
0.0717905
0.0708227
0.0696976
0.0684087
0.0669326
0.0652625
0.0633798
0.06128
0.0589526
0.0563969
0.0536074
0.0505861
0.0473463
0.0438717
0.0401415
0.0361207
0.0318105
0.0272223
0.0225274
0.0182199
0.0144574
0.011624
0.00943559
0.00727278
0.0498911
0.0501783
0.0503103
0.050549
0.050698
0.0509348
0.0510997
0.0513313
0.0515113
0.0517384
0.0519317
0.0521559
0.0523601
0.0525833
0.0527963
0.0530196
0.0532393
0.0534635
0.0536881
0.0539135
0.0541416
0.0543681
0.0545985
0.0548262
0.0550583
0.0552877
0.0555219
0.0557545
0.0559934
0.0562319
0.0564766
0.0567223
0.0569736
0.0572265
0.0574848
0.0577457
0.0580121
0.0582815
0.0585568
0.0588357
0.0591206
0.0594098
0.0597054
0.0600062
0.0603141
0.060628
0.0609471
0.0612689
0.0615935
0.0619183
0.0622432
0.062565
0.0628836
0.0631958
0.0635022
0.0638055
0.064116
0.0644166
0.0647211
0.0650073
0.0652836
0.0655238
0.065738
0.0659396
0.066116
0.0662836
0.0664228
0.0665499
0.0666431
0.0667067
0.0667338
0.0667378
0.0666687
0.0665519
0.0663533
0.0660788
0.0657003
0.0652156
0.0645996
0.063846
0.0629323
0.0618509
0.0605832
0.0591236
0.0574615
0.0555901
0.0534714
0.0510947
0.0482889
0.0450529
0.0412808
0.0369501
0.03223
0.0273589
0.0224834
0.0180657
0.0146151
0.0122388
0.0107421
0.00922546
0.0310885
0.0311156
0.0311131
0.0310943
0.0310685
0.0310475
0.0310122
0.0309901
0.0309512
0.0309271
0.0308868
0.0308599
0.0308192
0.030789
0.030748
0.0307142
0.0306724
0.030635
0.0305921
0.0305512
0.0305068
0.0304626
0.0304163
0.0303691
0.030321
0.0302714
0.0302215
0.03017
0.0301188
0.0300656
0.0300127
0.0299579
0.0299031
0.0298465
0.0297898
0.0297313
0.0296726
0.0296123
0.0295516
0.0294892
0.0294264
0.0293618
0.0292963
0.029229
0.0291601
0.0290886
0.0290143
0.0289363
0.0288544
0.0287678
0.0286765
0.0285796
0.0284774
0.0283692
0.0282558
0.0281372
0.0280121
0.0278768
0.0277319
0.0275703
0.0273927
0.0271902
0.02697
0.0267426
0.0265003
0.026252
0.0259889
0.0257179
0.0254304
0.025132
0.0248174
0.0244881
0.0241334
0.0237629
0.0233632
0.0229418
0.0224886
0.022008
0.021493
0.0209468
0.0203649
0.0197498
0.0190992
0.0184154
0.0176955
0.016933
0.0161013
0.0151453
0.014048
0.0127706
0.0112125
0.00929933
0.00710176
0.004979
0.00301694
0.0023223
0.00260798
0.00528014
0.00862431
0.00984816
0.00947215
0.00467551
0.00403045
0.00390138
0.00387305
0.00389708
0.00381777
0.00378069
0.00376598
0.00376304
0.00378541
0.00385674
0.00413382
0.00471682
0.00547383
0.00655167
0.00691995
0.00690155
0.00576409
0.00340302
0.00777608
0.00468057
0.00428948
0.00419012
0.00416622
0.00404597
0.00396685
0.0039322
0.00392035
0.00392278
0.00397614
0.00416377
0.00455789
0.00514189
0.00622011
0.00686851
0.0070044
0.00675932
0.00519327
0.00278292
0.00621338
0.00478478
0.00460508
0.00454123
0.00436897
0.00426777
0.00420001
0.0041729
0.00416487
0.00417782
0.0043054
0.00456695
0.00505147
0.00599216
0.00679657
0.0070496
0.00703852
0.00647822
0.00456271
0.0021508
0.00579522
0.00511615
0.00503437
0.0047946
0.00463721
0.00452196
0.0044646
0.00444046
0.00443824
0.00454011
0.00476579
0.00519791
0.00606619
0.00686949
0.00719479
0.00725473
0.00697763
0.00602607
0.00378294
0.00154485
0.00591788
0.00548172
0.00534363
0.00505441
0.00493987
0.00486752
0.00484964
0.00488374
0.00500288
0.00528672
0.005687
0.00651171
0.00718455
0.00748889
0.00757522
0.0073953
0.00678068
0.0054033
0.00293273
0.00101565
0.00628483
0.00593536
0.00580189
0.00561777
0.00558585
0.00559517
0.00572218
0.00595471
0.0063755
0.00689957
0.00752025
0.00800145
0.00820662
0.00824977
0.0079626
0.00732516
0.00636984
0.00458406
0.00189279
0.000562142
0.00721742
0.00709176
0.00707635
0.0071059
0.00738133
0.00770524
0.00825427
0.0089557
0.00962978
0.00983016
0.00989487
0.00975155
0.009424
0.00883828
0.00801709
0.00707591
0.00563828
0.00347113
0.00114891
0.000251967
0.0108609
0.011301
0.0118061
0.0124657
0.0134249
0.0144108
0.0148909
0.0150411
0.0140094
0.0134132
0.0123205
0.011531
0.0103079
0.00917474
0.00784142
0.0064434
0.00445193
0.0022493
0.000647107
9.16875e-05
0.0252605
0.0257408
0.0259435
0.0259435
0.0252472
0.0238863
0.0222275
0.0199591
0.0182167
0.0162738
0.0144716
0.012665
0.0107288
0.00894277
0.00708424
0.00503976
0.00296831
0.00131638
0.000390806
3.95671e-05
0.0411667
0.0393853
0.0374136
0.0346199
0.0320792
0.0284889
0.025866
0.0226941
0.0203126
0.0174313
0.0151783
0.0124461
0.0101184
0.00732765
0.00513683
0.00310796
0.00186308
0.000868335
0.000340576
6.26502e-05
0.0379903
0.0364543
0.034855
0.0323776
0.0302097
0.0269044
0.0244886
0.0215828
0.0194213
0.0167648
0.0147757
0.0121828
0.0102313
0.00743702
0.00538845
0.00309252
0.00178826
0.000736713
0.000249338
4.97734e-05
0.0200781
0.0210013
0.0215128
0.021766
0.0218486
0.0211288
0.0199257
0.0180579
0.0167583
0.0149659
0.013768
0.0119424
0.010607
0.00878916
0.00721096
0.00517217
0.00295892
0.00116367
0.000286187
3.46928e-05
0.00947065
0.00966917
0.0100762
0.0105425
0.0113344
0.0122494
0.0130375
0.0133481
0.0131651
0.0122421
0.0117939
0.0108633
0.0100318
0.00897693
0.0078185
0.00648747
0.00455615
0.00224155
0.000566993
4.60988e-05
0.00684782
0.00666623
0.00661137
0.00658495
0.00675614
0.00699632
0.00742361
0.00801665
0.00879579
0.00916592
0.00934245
0.00940966
0.00914915
0.00870831
0.00794751
0.00707095
0.00567271
0.00352753
0.0010722
0.000127524
0.00610528
0.0057693
0.00563766
0.00543538
0.00538534
0.00537149
0.00545282
0.00562663
0.00598711
0.00644147
0.00713073
0.00772842
0.00801569
0.00809416
0.00792648
0.00731041
0.00639016
0.00465234
0.00191385
0.000435734
0.0057858
0.0053828
0.0052531
0.00496865
0.00485188
0.00476948
0.00474357
0.00475534
0.00485453
0.00509673
0.00547562
0.00624651
0.00702875
0.00738831
0.0074914
0.00738724
0.00679461
0.00545457
0.00300692
0.000935474
0.00568095
0.00502076
0.00494887
0.00474283
0.00458536
0.00447323
0.00440755
0.00437797
0.0043694
0.00445259
0.00466662
0.00506595
0.00588521
0.00677852
0.00715356
0.00722417
0.0069892
0.0060714
0.00385871
0.00151263
0.00617997
0.00473047
0.00453187
0.0044644
0.00432377
0.00421876
0.00415387
0.00412722
0.00411934
0.00412849
0.00424296
0.0044969
0.0049567
0.00585796
0.00674308
0.00703802
0.00704405
0.00651464
0.0046395
0.00215766
0.00780336
0.00465325
0.00425635
0.00414809
0.00411555
0.0040217
0.00393528
0.00389759
0.0038854
0.00388765
0.00393735
0.00410979
0.00449886
0.00507885
0.00613687
0.00684609
0.00700245
0.0067869
0.00525757
0.00281696
0.00947296
0.00465259
0.00399481
0.00386828
0.00383854
0.00385249
0.00379713
0.00375416
0.00373919
0.00373604
0.0037585
0.00382649
0.00407902
0.00464045
0.00541986
0.00652201
0.00691889
0.00692008
0.00582744
0.00344974
0.00397118
0.00375019
0.00374679
0.0037468
0.00374652
0.00374628
0.00374612
0.00374604
0.003746
0.00374598
0.00374598
0.003746
0.00374604
0.00374612
0.00374628
0.00374652
0.0037468
0.00374679
0.00375019
0.00397117
0.00441489
0.00375346
0.00374141
0.00374096
0.00374056
0.00374012
0.00373987
0.00373975
0.00373969
0.00373966
0.00373966
0.00373969
0.00373975
0.00373987
0.00374012
0.00374056
0.00374096
0.00374141
0.00375346
0.00441489
0.0048594
0.00376059
0.00373287
0.00373264
0.00373284
0.00373273
0.00373256
0.00373242
0.00373235
0.00373231
0.00373231
0.00373235
0.00373242
0.00373256
0.00373273
0.00373284
0.00373264
0.00373287
0.00376059
0.0048594
0.00530178
0.00377206
0.0037243
0.00372396
0.00372492
0.00372524
0.00372525
0.00372519
0.00372514
0.00372512
0.00372512
0.00372514
0.00372519
0.00372525
0.00372524
0.00372492
0.00372396
0.0037243
0.00377206
0.00530178
0.00573924
0.00378544
0.00371551
0.00371483
0.00371665
0.00371758
0.00371789
0.00371795
0.00371795
0.00371795
0.00371795
0.00371795
0.00371795
0.00371789
0.00371758
0.00371665
0.00371483
0.00371551
0.00378544
0.00573924
0.00617058
0.00379767
0.00370577
0.0037051
0.003708
0.00370969
0.00371043
0.0037107
0.00371078
0.0037108
0.0037108
0.00371078
0.0037107
0.00371043
0.00370969
0.003708
0.0037051
0.00370577
0.00379767
0.00617059
0.00659185
0.00380847
0.00369498
0.00369474
0.00369894
0.00370155
0.00370284
0.0037034
0.00370361
0.00370368
0.00370368
0.00370361
0.0037034
0.00370284
0.00370155
0.00369894
0.00369474
0.00369498
0.00380847
0.00659185
0.00700084
0.00381671
0.00368272
0.00368362
0.00368941
0.00369311
0.00369508
0.00369602
0.00369642
0.00369656
0.00369656
0.00369642
0.00369602
0.00369508
0.00369311
0.00368941
0.00368362
0.00368272
0.00381671
0.00700084
0.00739336
0.00382333
0.00366915
0.00367174
0.00367942
0.00368437
0.00368714
0.00368854
0.00368919
0.00368943
0.00368943
0.00368919
0.00368854
0.00368714
0.00368437
0.00367942
0.00367174
0.00366915
0.00382334
0.00739336
0.00776768
0.00382735
0.00365405
0.00365903
0.00366893
0.00367532
0.00367898
0.00368095
0.0036819
0.00368228
0.00368228
0.0036819
0.00368095
0.00367898
0.00367532
0.00366893
0.00365903
0.00365405
0.00382735
0.00776768
0.00812024
0.00383021
0.00363764
0.00364552
0.00365794
0.00366592
0.00367061
0.00367321
0.00367453
0.00367507
0.00367507
0.00367453
0.00367321
0.00367061
0.00366592
0.00365794
0.00364552
0.00363765
0.00383021
0.00812023
0.00845034
0.00383068
0.00361989
0.00363122
0.00364645
0.0036562
0.00366201
0.00366531
0.00366705
0.00366779
0.00366779
0.00366705
0.00366531
0.00366201
0.0036562
0.00364645
0.00363121
0.00361989
0.00383069
0.00845034
0.00875525
0.00383018
0.0036009
0.00361613
0.00363446
0.00364613
0.00365316
0.00365725
0.00365946
0.00366041
0.00366041
0.00365946
0.00365725
0.00365316
0.00364613
0.00363446
0.00361613
0.00360091
0.00383019
0.00875524
0.00903545
0.00382886
0.00358085
0.00360032
0.00362199
0.00363573
0.00364408
0.00364901
0.00365173
0.00365292
0.00365292
0.00365173
0.00364901
0.00364408
0.00363573
0.00362199
0.00360032
0.00358084
0.00382886
0.00903544
0.00928895
0.00382647
0.00355981
0.00358379
0.00360904
0.003625
0.00363475
0.00364059
0.00364385
0.00364531
0.00364531
0.00364385
0.00364059
0.00363475
0.003625
0.00360904
0.0035838
0.00355982
0.00382648
0.00928894
0.00951739
0.0038234
0.00353794
0.00356664
0.00359565
0.00361394
0.00362518
0.00363197
0.00363582
0.00363755
0.00363755
0.00363582
0.00363197
0.00362518
0.00361394
0.00359565
0.00356664
0.00353793
0.00382339
0.00951738
0.00971929
0.00382011
0.00351531
0.00354885
0.00358181
0.00360255
0.00361535
0.00362316
0.00362762
0.00362964
0.00362964
0.00362762
0.00362316
0.00361535
0.00360255
0.00358181
0.00354886
0.00351532
0.00382012
0.00971928
0.00989731
0.00381663
0.00349216
0.00353055
0.00356758
0.00359087
0.00360529
0.00361414
0.00361924
0.00362157
0.00362157
0.00361924
0.00361414
0.00360529
0.00359087
0.00356757
0.00353054
0.00349215
0.00381662
0.0098973
0.0100502
0.00381347
0.00346849
0.0035117
0.00355293
0.00357887
0.00359499
0.00360492
0.00361068
0.00361332
0.00361332
0.00361068
0.00360492
0.00359499
0.00357888
0.00355293
0.00351171
0.00346851
0.00381348
0.0100502
0.0101815
0.00381057
0.00344463
0.00349248
0.00353795
0.0035666
0.00358445
0.0035955
0.00360193
0.0036049
0.0036049
0.00360193
0.00359549
0.00358445
0.0035666
0.00353795
0.00349247
0.00344461
0.00381057
0.0101815
0.0102898
0.00380853
0.00342045
0.00347279
0.0035226
0.00355404
0.00357367
0.00358587
0.003593
0.0035963
0.0035963
0.003593
0.00358587
0.00357367
0.00355404
0.0035226
0.0034728
0.00342048
0.00380854
0.0102897
0.0103794
0.00380714
0.00339644
0.00345288
0.00350698
0.00354123
0.00356267
0.00357603
0.00358387
0.00358751
0.00358751
0.00358387
0.00357603
0.00356267
0.00354123
0.00350697
0.00345287
0.00339642
0.00380714
0.0103794
0.0104486
0.00380736
0.00337228
0.00343258
0.00349103
0.00352816
0.00355145
0.003566
0.00357455
0.00357853
0.00357853
0.00357455
0.003566
0.00355145
0.00352816