/*--------------------------------*- C++ -*----------------------------------*\
| =========                 |                                                 |
| \\      /  F ield         | OpenFOAM: The Open Source CFD Toolbox           |
|  \\    /   O peration     | Version:  2.1.0                                 |
|   \\  /    A nd           | Web:      www.OpenFOAM.org                      |
|    \\/     M anipulation  |                                                 |
\*---------------------------------------------------------------------------*/
FoamFile
{
    version     2.0;
    format      ascii;
    class       volScalarField;
    location    "0.45";
    object      nut;
}
// * * * * * * * * * * * * * * * * * * * * * * * * * * * * * * * * * * * * * //

dimensions      [0 2 -1 0 0 0 0];

internalField   nonuniform List<scalar> 
6400
(
7.08382e-06
7.10255e-06
7.1149e-06
7.13076e-06
7.14502e-06
7.16327e-06
7.17822e-06
7.19748e-06
7.21315e-06
7.23321e-06
7.24967e-06
7.27019e-06
7.2876e-06
7.30841e-06
7.32683e-06
7.34792e-06
7.36736e-06
7.38879e-06
7.40924e-06
7.43112e-06
7.45262e-06
7.47513e-06
7.49773e-06
7.52108e-06
7.54486e-06
7.56923e-06
7.59425e-06
7.61976e-06
7.64609e-06
7.67285e-06
7.70053e-06
7.72864e-06
7.75776e-06
7.78733e-06
7.81795e-06
7.84909e-06
7.88131e-06
7.91412e-06
7.94803e-06
7.98253e-06
8.01801e-06
8.05397e-06
8.09083e-06
8.12808e-06
8.16605e-06
8.20429e-06
8.24303e-06
8.28191e-06
8.32106e-06
8.36025e-06
8.39949e-06
8.4386e-06
8.47741e-06
8.51513e-06
8.55106e-06
8.58463e-06
8.61534e-06
8.64818e-06
8.67862e-06
8.71063e-06
8.74088e-06
8.77254e-06
8.80332e-06
8.8351e-06
8.86602e-06
8.89774e-06
8.92867e-06
8.96014e-06
8.99002e-06
9.01893e-06
9.04682e-06
9.07271e-06
9.09726e-06
9.11958e-06
9.14041e-06
9.15958e-06
9.17808e-06
9.1968e-06
9.2174e-06
9.24212e-06
9.27347e-06
9.31423e-06
9.36507e-06
9.42016e-06
9.46738e-06
9.53093e-06
9.59754e-06
9.65913e-06
9.69315e-06
9.65365e-06
9.45379e-06
8.92374e-06
7.82499e-06
5.96671e-06
3.45138e-06
2.31994e-06
2.40682e-06
3.78161e-06
3.87722e-06
4.18301e-06
7.53737e-05
7.58417e-05
7.59346e-05
7.62401e-05
7.6345e-05
7.66009e-05
7.67263e-05
7.6949e-05
7.70915e-05
7.72907e-05
7.74444e-05
7.76264e-05
7.77853e-05
7.79537e-05
7.81129e-05
7.82697e-05
7.84252e-05
7.85713e-05
7.87199e-05
7.88553e-05
7.89944e-05
7.91189e-05
7.92475e-05
7.93618e-05
7.948e-05
7.95859e-05
7.9695e-05
7.9792e-05
7.98911e-05
7.99784e-05
8.00663e-05
8.01426e-05
8.02174e-05
8.02808e-05
8.03405e-05
8.03882e-05
8.04299e-05
8.04589e-05
8.04831e-05
8.04961e-05
8.05026e-05
8.04941e-05
8.04745e-05
8.04384e-05
8.03866e-05
8.03151e-05
8.02227e-05
8.0106e-05
7.99626e-05
7.97898e-05
7.95848e-05
7.93465e-05
7.90791e-05
7.87836e-05
7.84468e-05
7.8044e-05
7.73398e-05
7.66126e-05
7.58282e-05
7.50117e-05
7.41419e-05
7.32377e-05
7.22859e-05
7.13024e-05
7.02688e-05
6.91976e-05
6.80754e-05
6.69164e-05
6.57067e-05
6.44351e-05
6.311e-05
6.17198e-05
6.02661e-05
5.87429e-05
5.71489e-05
5.54822e-05
5.37417e-05
5.19291e-05
5.00455e-05
4.8096e-05
4.60849e-05
4.40218e-05
4.19161e-05
3.97735e-05
3.7577e-05
3.52909e-05
3.29229e-05
3.04502e-05
2.78685e-05
2.51712e-05
2.23775e-05
1.95227e-05
1.66894e-05
1.40203e-05
1.15069e-05
9.23598e-06
7.49603e-06
6.29086e-06
5.6797e-06
6.86424e-06
0.000115403
0.000115679
0.000115788
0.00011591
0.000116006
0.000116087
0.000116173
0.000116225
0.000116298
0.000116325
0.000116383
0.000116387
0.000116423
0.000116404
0.000116414
0.00011637
0.000116351
0.000116279
0.000116228
0.000116126
0.000116039
0.000115904
0.000115775
0.000115602
0.000115433
0.000115225
0.000115023
0.000114786
0.000114549
0.00011428
0.000114007
0.000113704
0.000113393
0.000113054
0.000112703
0.000112326
0.000111934
0.000111515
0.00011107
0.000110593
0.000110093
0.000109564
0.000109006
0.000108415
0.000107789
0.000107126
0.000106422
0.000105675
0.000104878
0.000104026
0.000103114
0.000101986
0.000100476
9.89357e-05
9.73427e-05
9.57238e-05
9.40682e-05
9.23865e-05
9.0667e-05
8.89186e-05
8.71474e-05
8.53646e-05
8.35195e-05
8.16628e-05
7.97573e-05
7.78342e-05
7.58704e-05
7.38866e-05
7.18678e-05
6.98275e-05
6.77544e-05
6.56563e-05
6.35249e-05
6.13643e-05
5.9168e-05
5.69388e-05
5.46718e-05
5.23706e-05
5.00329e-05
4.76642e-05
4.52661e-05
4.28477e-05
4.04141e-05
3.79776e-05
3.55508e-05
3.31635e-05
3.08169e-05
2.85348e-05
2.63144e-05
2.41688e-05
2.2068e-05
2.00339e-05
1.80371e-05
1.59931e-05
1.3947e-05
1.19381e-05
1.01372e-05
8.62571e-06
8.12527e-06
1.1314e-05
0.000137496
0.000137225
0.000137123
0.000136859
0.000136756
0.000136465
0.000136336
0.000136025
0.000135859
0.000135529
0.000135323
0.000134972
0.000134722
0.000134349
0.000134054
0.000133653
0.000133313
0.000132881
0.000132491
0.000132022
0.000131581
0.00013107
0.000130573
0.000130009
0.000129441
0.000128453
0.000127416
0.000126335
0.000125244
0.000124115
0.000122973
0.000121796
0.000120602
0.000119375
0.000118128
0.000116849
0.000115548
0.000114214
0.000112859
0.000111472
0.000110055
0.000108613
0.000107137
0.000105637
0.000104104
0.000102545
0.000100954
9.93368e-05
9.76886e-05
9.60076e-05
9.43018e-05
9.25913e-05
9.08464e-05
8.90878e-05
8.73021e-05
8.55047e-05
8.36842e-05
8.1848e-05
7.99848e-05
7.81012e-05
7.61896e-05
7.42584e-05
7.23027e-05
7.03314e-05
6.83371e-05
6.63308e-05
6.43055e-05
6.22734e-05
6.02297e-05
5.81865e-05
5.61412e-05
5.41056e-05
5.20795e-05
5.00737e-05
4.80891e-05
4.61355e-05
4.4213e-05
4.233e-05
4.0485e-05
3.8683e-05
3.69204e-05
3.51987e-05
3.35066e-05
3.18447e-05
3.02207e-05
2.86019e-05
2.6995e-05
2.53916e-05
2.37855e-05
2.2169e-05
2.0538e-05
1.88884e-05
1.72101e-05
1.54816e-05
1.3713e-05
1.19856e-05
1.05118e-05
9.77632e-06
1.19118e-05
1.20611e-05
0.000140115
0.000140227
0.000139967
0.000139819
0.000139056
0.000138461
0.000137552
0.000136765
0.000135806
0.000134913
0.000133926
0.000132962
0.000131946
0.000130925
0.000129876
0.000128805
0.000127718
0.000126599
0.00012547
0.000124303
0.000123128
0.000121914
0.00012069
0.00011943
0.000118152
0.000116856
0.000115544
0.000114202
0.000112849
0.000111469
0.000110078
0.00010866
0.000107229
0.000105774
0.000104305
0.000102813
0.000101307
9.97687e-05
9.8224e-05
9.66785e-05
9.50868e-05
9.35004e-05
9.18805e-05
9.02587e-05
8.86115e-05
8.69594e-05
8.52879e-05
8.36115e-05
8.19212e-05
8.0228e-05
7.85273e-05
7.68255e-05
7.51186e-05
7.34107e-05
7.16957e-05
6.99811e-05
6.82681e-05
6.65606e-05
6.48583e-05
6.31652e-05
6.14812e-05
5.98112e-05
5.8155e-05
5.65176e-05
5.48978e-05
5.33005e-05
5.17238e-05
5.01721e-05
4.86424e-05
4.71382e-05
4.56513e-05
4.41897e-05
4.27575e-05
4.13321e-05
3.9933e-05
3.85424e-05
3.71684e-05
3.57979e-05
3.44352e-05
3.30685e-05
3.17004e-05
3.03237e-05
2.89394e-05
2.75474e-05
2.61502e-05
2.47469e-05
2.3351e-05
2.19553e-05
2.05792e-05
1.92216e-05
1.78997e-05
1.66136e-05
1.53837e-05
1.41941e-05
1.31027e-05
1.227e-05
1.208e-05
1.37498e-05
1.37877e-05
1.41374e-05
0.000127159
0.00012654
0.000126132
0.000125596
0.000124673
0.000123773
0.000122686
0.00012163
0.000120483
0.000119349
0.000118172
0.000116991
0.000115793
0.000114577
0.000113359
0.000112115
0.000110878
0.000109611
0.000108354
0.000107068
0.000105789
0.000104488
0.00010319
0.000101892
0.000100568
9.92472e-05
9.79071e-05
9.65561e-05
9.51991e-05
9.38282e-05
9.24522e-05
9.10619e-05
8.96673e-05
8.82591e-05
8.68479e-05
8.54248e-05
8.39999e-05
8.25659e-05
8.11332e-05
7.96929e-05
7.8254e-05
7.68147e-05
7.53763e-05
7.39423e-05
7.25111e-05
7.10875e-05
6.96693e-05
6.82613e-05
6.68611e-05
6.54729e-05
6.40941e-05
6.27274e-05
6.1371e-05
6.00278e-05
5.86954e-05
5.73758e-05
5.60683e-05
5.47801e-05
5.35074e-05
5.22447e-05
5.09988e-05
4.97624e-05
4.85395e-05
4.73249e-05
4.61209e-05
4.49242e-05
4.37355e-05
4.25528e-05
4.13764e-05
4.02052e-05
3.90396e-05
3.7881e-05
3.67304e-05
3.55867e-05
3.4452e-05
3.33231e-05
3.22065e-05
3.10982e-05
3.00092e-05
2.8932e-05
2.78752e-05
2.68346e-05
2.58174e-05
2.482e-05
2.38485e-05
2.28996e-05
2.19724e-05
2.10704e-05
2.02052e-05
1.93775e-05
1.8603e-05
1.78894e-05
1.72648e-05
1.67637e-05
1.65175e-05
1.66373e-05
1.60618e-05
1.5818e-05
1.57931e-05
1.32104e-05
0.00011163
0.000110458
0.000109911
0.000109045
0.000108112
0.000107027
0.000105948
0.00010478
0.000103644
0.000102445
0.000101286
0.000100075
9.89054e-05
9.76888e-05
9.65136e-05
9.52962e-05
9.41183e-05
9.29036e-05
9.17264e-05
9.05175e-05
8.93447e-05
8.81486e-05
8.69832e-05
8.57927e-05
8.46309e-05
8.3453e-05
8.22971e-05
8.11313e-05
7.99854e-05
7.88325e-05
7.76968e-05
7.65563e-05
7.54313e-05
7.43032e-05
7.31892e-05
7.20735e-05
7.09705e-05
6.98668e-05
6.87743e-05
6.76776e-05
6.65946e-05
6.55175e-05
6.44438e-05
6.33771e-05
6.23152e-05
6.12597e-05
6.02089e-05
5.9164e-05
5.81237e-05
5.70898e-05
5.60602e-05
5.50375e-05
5.40196e-05
5.30105e-05
5.2009e-05
5.10185e-05
5.00282e-05
4.90522e-05
4.80814e-05
4.7122e-05
4.61714e-05
4.52337e-05
4.43091e-05
4.33994e-05
4.25049e-05
4.16254e-05
4.07717e-05
3.99351e-05
3.91249e-05
3.83347e-05
3.75723e-05
3.68309e-05
3.6114e-05
3.5418e-05
3.47457e-05
3.40927e-05
3.34608e-05
3.28432e-05
3.22443e-05
3.1293e-05
3.03387e-05
2.93916e-05
2.84631e-05
2.75428e-05
2.66421e-05
2.57512e-05
2.48817e-05
2.40245e-05
2.31937e-05
2.23826e-05
2.16081e-05
2.08669e-05
2.01761e-05
1.95431e-05
1.9002e-05
1.85979e-05
1.83375e-05
1.8234e-05
1.89298e-05
1.49388e-05
0.000100593
9.88442e-05
9.82828e-05
9.72013e-05
9.63502e-05
9.51814e-05
9.42243e-05
9.30538e-05
9.20655e-05
9.09231e-05
8.99355e-05
8.88297e-05
8.78543e-05
8.67849e-05
8.58245e-05
8.47874e-05
8.38416e-05
8.28317e-05
8.18981e-05
8.09093e-05
7.99842e-05
7.90071e-05
7.78846e-05
7.65807e-05
7.53336e-05
7.40549e-05
7.28497e-05
7.16091e-05
7.04426e-05
6.92481e-05
6.81285e-05
6.69879e-05
6.59223e-05
6.48417e-05
6.38352e-05
6.28174e-05
6.18724e-05
6.09206e-05
6.00399e-05
5.91559e-05
5.83392e-05
5.75214e-05
5.67656e-05
5.60081e-05
5.53096e-05
5.46093e-05
5.39639e-05
5.33163e-05
5.27187e-05
5.21182e-05
5.15616e-05
5.10032e-05
5.0479e-05
4.99521e-05
4.9451e-05
4.89504e-05
4.84663e-05
4.7982e-05
4.75046e-05
4.70242e-05
4.65448e-05
4.606e-05
4.55712e-05
4.50673e-05
4.45608e-05
4.40626e-05
4.35384e-05
4.30236e-05
4.24952e-05
4.19741e-05
4.14405e-05
4.09129e-05
4.03742e-05
3.98401e-05
3.92958e-05
3.87547e-05
3.82041e-05
3.76551e-05
3.70978e-05
3.65378e-05
3.59678e-05
3.53859e-05
3.47897e-05
3.41764e-05
3.35434e-05
3.28874e-05
3.2206e-05
3.14961e-05
3.07583e-05
2.99937e-05
2.92095e-05
2.84161e-05
2.76331e-05
2.6886e-05
2.6268e-05
2.58087e-05
2.54316e-05
2.56022e-05
2.61359e-05
2.05156e-05
8.3741e-05
8.16518e-05
8.08034e-05
7.92244e-05
7.83391e-05
7.68685e-05
7.59535e-05
7.45846e-05
7.36522e-05
7.23476e-05
7.14476e-05
7.02019e-05
6.93293e-05
6.81454e-05
6.73044e-05
6.61849e-05
6.53799e-05
6.4327e-05
6.35629e-05
6.25786e-05
6.18601e-05
6.09465e-05
6.02773e-05
5.94425e-05
5.88315e-05
5.80795e-05
5.75304e-05
5.68573e-05
5.63706e-05
5.57734e-05
5.53471e-05
5.48215e-05
5.44514e-05
5.39933e-05
5.36739e-05
5.32798e-05
5.30063e-05
5.26703e-05
5.24358e-05
5.21517e-05
5.19499e-05
5.17083e-05
5.1534e-05
5.13265e-05
5.11744e-05
5.09936e-05
5.08585e-05
5.06893e-05
5.05628e-05
5.04399e-05
5.031e-05
5.01946e-05
5.00445e-05
4.99569e-05
4.98267e-05
4.97453e-05
4.96323e-05
4.95576e-05
4.94634e-05
4.9401e-05
4.93257e-05
4.92772e-05
4.9221e-05
4.9187e-05
4.91494e-05
4.91298e-05
4.91119e-05
4.91103e-05
4.91101e-05
4.9125e-05
4.91424e-05
4.91734e-05
4.92072e-05
4.92532e-05
4.9302e-05
4.93611e-05
4.94218e-05
4.94898e-05
4.95577e-05
4.96297e-05
4.96984e-05
4.97646e-05
4.98212e-05
4.98665e-05
4.98926e-05
4.98949e-05
4.9865e-05
4.97951e-05
4.96755e-05
4.9501e-05
4.92649e-05
4.89671e-05
4.86109e-05
4.82091e-05
4.77896e-05
4.74355e-05
4.7304e-05
4.74325e-05
4.79732e-05
3.97733e-05
7.421e-05
7.23472e-05
7.16011e-05
7.02009e-05
6.94972e-05
6.81781e-05
6.75129e-05
6.62817e-05
6.5654e-05
6.45143e-05
6.39279e-05
6.28776e-05
6.23356e-05
6.13736e-05
6.08779e-05
6.00023e-05
5.95541e-05
5.87623e-05
5.83619e-05
5.76508e-05
5.72979e-05
5.66638e-05
5.6357e-05
5.57959e-05
5.55325e-05
5.50393e-05
5.48156e-05
5.43845e-05
5.4197e-05
5.38245e-05
5.36657e-05
5.33545e-05
5.32031e-05
5.29543e-05
5.28297e-05
5.26356e-05
5.25129e-05
5.23739e-05
5.22472e-05
5.21489e-05
5.20562e-05
5.19799e-05
5.19148e-05
5.18622e-05
5.18243e-05
5.17941e-05
5.1782e-05
5.17746e-05
5.1788e-05
5.18041e-05
5.18401e-05
5.18799e-05
5.19394e-05
5.20076e-05
5.20913e-05
5.21875e-05
5.22969e-05
5.24209e-05
5.25567e-05
5.27079e-05
5.28709e-05
5.30498e-05
5.32411e-05
5.34494e-05
5.36706e-05
5.39089e-05
5.4161e-05
5.44304e-05
5.47146e-05
5.50164e-05
5.53341e-05
5.56698e-05
5.6023e-05
5.63953e-05
5.67866e-05
5.71984e-05
5.76313e-05
5.80866e-05
5.85651e-05
5.90681e-05
5.95965e-05
6.01527e-05
6.07381e-05
6.13551e-05
6.20061e-05
6.26938e-05
6.34216e-05
6.41931e-05
6.50147e-05
6.58904e-05
6.6828e-05
6.78334e-05
6.89154e-05
7.0081e-05
7.13372e-05
7.26772e-05
7.40934e-05
7.55551e-05
7.62798e-05
6.62014e-05
7.90557e-05
7.70756e-05
7.62815e-05
7.47806e-05
7.40134e-05
7.25989e-05
7.18593e-05
7.05359e-05
6.98271e-05
6.85982e-05
6.79231e-05
6.67919e-05
6.61533e-05
6.51203e-05
6.45251e-05
6.35844e-05
6.30382e-05
6.21854e-05
6.16908e-05
6.09218e-05
6.04796e-05
5.97901e-05
5.93991e-05
5.87843e-05
5.84423e-05
5.7897e-05
5.76006e-05
5.71194e-05
5.68643e-05
5.64413e-05
5.62231e-05
5.58524e-05
5.56655e-05
5.53426e-05
5.5181e-05
5.49003e-05
5.47586e-05
5.4508e-05
5.43778e-05
5.4195e-05
5.40471e-05
5.39174e-05
5.37743e-05
5.36492e-05
5.35478e-05
5.34445e-05
5.33659e-05
5.32844e-05
5.32281e-05
5.31687e-05
5.31348e-05
5.30985e-05
5.30875e-05
5.30754e-05
5.30863e-05
5.30989e-05
5.31354e-05
5.31743e-05
5.32367e-05
5.33019e-05
5.3389e-05
5.34821e-05
5.35953e-05
5.37165e-05
5.38575e-05
5.40075e-05
5.4177e-05
5.43563e-05
5.45547e-05
5.47639e-05
5.49921e-05
5.52314e-05
5.54901e-05
5.57608e-05
5.60506e-05
5.63538e-05
5.66773e-05
5.70158e-05
5.73758e-05
5.77531e-05
5.81537e-05
5.85742e-05
5.90204e-05
5.94899e-05
5.99883e-05
6.05141e-05
6.10729e-05
6.16641e-05
6.22928e-05
6.29584e-05
6.36672e-05
6.44241e-05
6.52483e-05
6.61441e-05
6.7137e-05
6.82434e-05
6.9509e-05
7.0905e-05
7.19416e-05
6.3079e-05
9.70927e-05
9.49136e-05
9.40175e-05
9.23355e-05
9.1381e-05
8.97885e-05
8.87834e-05
8.72697e-05
8.6227e-05
8.47935e-05
8.37131e-05
8.23593e-05
8.126e-05
7.99574e-05
7.88907e-05
7.76314e-05
7.65984e-05
7.53897e-05
7.43949e-05
7.32423e-05
7.22904e-05
7.11981e-05
7.02935e-05
6.92648e-05
6.84112e-05
6.74486e-05
6.66469e-05
6.5753e-05
6.50079e-05
6.41815e-05
6.34942e-05
6.2735e-05
6.21057e-05
6.14124e-05
6.08388e-05
6.02072e-05
5.96867e-05
5.91137e-05
5.86432e-05
5.8125e-05
5.76986e-05
5.72299e-05
5.68366e-05
5.64101e-05
5.60468e-05
5.56552e-05
5.53166e-05
5.49524e-05
5.46321e-05
5.4288e-05
5.39806e-05
5.3648e-05
5.33395e-05
5.30268e-05
5.274e-05
5.24255e-05
5.21478e-05
5.18469e-05
5.15788e-05
5.13057e-05
5.10303e-05
5.07578e-05
5.05034e-05
5.02434e-05
5.0001e-05
4.97531e-05
4.95215e-05
4.92873e-05
4.90683e-05
4.88428e-05
4.86275e-05
4.84049e-05
4.81892e-05
4.79629e-05
4.77388e-05
4.75006e-05
4.72597e-05
4.70009e-05
4.67346e-05
4.64465e-05
4.61487e-05
4.58271e-05
4.54914e-05
4.51297e-05
4.47508e-05
4.43449e-05
4.39205e-05
4.34707e-05
4.30064e-05
4.25216e-05
4.20308e-05
4.15266e-05
4.10167e-05
4.05361e-05
4.01133e-05
3.98155e-05
3.97369e-05
4.00005e-05
4.06416e-05
3.43524e-05
0.000104947
0.000103403
0.000102759
0.000101653
0.000100756
9.95514e-05
9.85414e-05
9.73227e-05
9.62719e-05
9.50722e-05
9.40134e-05
9.28431e-05
9.17899e-05
9.06484e-05
8.96073e-05
8.84933e-05
8.74658e-05
8.63779e-05
8.53645e-05
8.43011e-05
8.33024e-05
8.22622e-05
8.12787e-05
8.02597e-05
7.929e-05
7.82858e-05
7.73344e-05
7.63536e-05
7.54109e-05
7.44483e-05
7.35206e-05
7.25767e-05
7.16644e-05
7.07391e-05
6.98438e-05
6.89394e-05
6.8047e-05
6.71438e-05
6.6255e-05
6.53595e-05
6.44791e-05
6.3597e-05
6.27314e-05
6.18677e-05
6.10233e-05
6.0184e-05
5.9368e-05
5.85596e-05
5.7778e-05
5.70041e-05
5.62587e-05
5.55237e-05
5.48174e-05
5.41226e-05
5.3455e-05
5.28053e-05
5.21862e-05
5.14773e-05
5.07444e-05
5.00014e-05
4.92731e-05
4.85341e-05
4.78038e-05
4.70565e-05
4.63127e-05
4.55504e-05
4.47896e-05
4.40041e-05
4.32099e-05
4.24166e-05
4.16271e-05
4.08134e-05
4.00135e-05
3.91933e-05
3.83872e-05
3.75641e-05
3.67554e-05
3.59333e-05
3.51266e-05
3.43108e-05
3.35049e-05
3.2692e-05
3.18921e-05
3.10901e-05
3.03053e-05
2.95239e-05
2.87573e-05
2.79995e-05
2.72636e-05
2.65466e-05
2.58641e-05
2.52175e-05
2.46257e-05
2.40917e-05
2.37092e-05
2.33968e-05
2.33666e-05
2.36412e-05
2.43826e-05
1.89178e-05
0.000118841
0.000117695
0.000117159
0.000116272
0.000115301
0.000114183
0.00011305
0.000111826
0.000110625
0.000109353
0.000108127
0.000106842
0.000105603
0.000104309
0.000103058
0.000101757
0.000100496
9.91887e-05
9.79172e-05
9.66052e-05
9.5325e-05
9.40095e-05
9.27231e-05
9.14083e-05
9.01162e-05
8.88008e-05
8.75078e-05
8.61936e-05
8.48996e-05
8.35884e-05
8.22974e-05
8.09925e-05
7.97064e-05
7.84101e-05
7.71321e-05
7.58479e-05
7.45842e-05
7.33175e-05
7.20699e-05
7.08212e-05
6.95896e-05
6.83578e-05
6.714e-05
6.59272e-05
6.4731e-05
6.35308e-05
6.23489e-05
6.11648e-05
5.99966e-05
5.88298e-05
5.76776e-05
5.65278e-05
5.53917e-05
5.42594e-05
5.31408e-05
5.20276e-05
5.09297e-05
4.98384e-05
4.8764e-05
4.77012e-05
4.66532e-05
4.56098e-05
4.45828e-05
4.35656e-05
4.25666e-05
4.15804e-05
4.06154e-05
3.96727e-05
3.87553e-05
3.78596e-05
3.69914e-05
3.61477e-05
3.5333e-05
3.45433e-05
3.37778e-05
3.3037e-05
3.23198e-05
3.16264e-05
3.09545e-05
3.03035e-05
2.96665e-05
2.90484e-05
2.84414e-05
2.78498e-05
2.68372e-05
2.58607e-05
2.49063e-05
2.3997e-05
2.31144e-05
2.22815e-05
2.14825e-05
2.07417e-05
2.0042e-05
1.94161e-05
1.88205e-05
1.84106e-05
1.81792e-05
1.79929e-05
1.87266e-05
1.44605e-05
0.000135252
0.000134612
0.000134196
0.000133612
0.000132639
0.000131661
0.000130505
0.000129361
0.000128137
0.000126912
0.000125656
0.000124382
0.0001231
0.000121789
0.000120482
0.00011914
0.000117808
0.000116438
0.00011508
0.000113685
0.000112302
0.000110885
0.000109465
0.000108036
0.000106616
0.000105157
0.000103718
0.000102248
0.000100795
9.93155e-05
9.78413e-05
9.63421e-05
9.48449e-05
9.33259e-05
9.18075e-05
9.02707e-05
8.87426e-05
8.72019e-05
8.56677e-05
8.41253e-05
8.25871e-05
8.10419e-05
7.95041e-05
7.79607e-05
7.64272e-05
7.48908e-05
7.33666e-05
7.18431e-05
7.03339e-05
6.88293e-05
6.73408e-05
6.58604e-05
6.43976e-05
6.29456e-05
6.15113e-05
6.00892e-05
5.86856e-05
5.72916e-05
5.59149e-05
5.45569e-05
5.3213e-05
5.18913e-05
5.05859e-05
4.92987e-05
4.80263e-05
4.6768e-05
4.5522e-05
4.42865e-05
4.3061e-05
4.18431e-05
4.06335e-05
3.94295e-05
3.82325e-05
3.70417e-05
3.58627e-05
3.46906e-05
3.35272e-05
3.23712e-05
3.12239e-05
3.00878e-05
2.89627e-05
2.78543e-05
2.67601e-05
2.56874e-05
2.46302e-05
2.35949e-05
2.25772e-05
2.15835e-05
2.0607e-05
1.9657e-05
1.87445e-05
1.78721e-05
1.7053e-05
1.63916e-05
1.59618e-05
1.61316e-05
1.60763e-05
1.58674e-05
1.58837e-05
1.31642e-05
0.000147015
0.000147127
0.000146851
0.000146643
0.000145832
0.000145149
0.000144174
0.000143295
0.000142266
0.000141283
0.000140224
0.000139174
0.000138085
0.000136983
0.000135862
0.000134714
0.000133557
0.000132366
0.000131171
0.000129938
0.000128703
0.000127429
0.00012615
0.000124837
0.000123515
0.000122158
0.000120795
0.000119395
0.000118
0.000116572
0.000115136
0.000113673
0.000112201
0.000110704
0.000109198
0.000107668
0.000106128
0.000104566
0.000102983
0.000101388
9.9795e-05
9.8158e-05
9.65244e-05
9.48582e-05
9.3189e-05
9.14928e-05
8.97906e-05
8.80659e-05
8.63343e-05
8.45842e-05
8.28283e-05
8.10584e-05
7.92856e-05
7.75061e-05
7.57252e-05
7.39417e-05
7.21605e-05
7.03719e-05
6.85888e-05
6.68026e-05
6.50274e-05
6.3259e-05
6.1507e-05
5.97666e-05
5.80481e-05
5.63458e-05
5.46694e-05
5.3014e-05
5.1387e-05
4.97845e-05
4.82116e-05
4.66642e-05
4.51454e-05
4.3645e-05
4.21733e-05
4.07322e-05
3.9295e-05
3.7889e-05
3.64837e-05
3.50957e-05
3.37015e-05
3.23112e-05
3.09066e-05
2.94949e-05
2.80611e-05
2.66141e-05
2.51488e-05
2.36676e-05
2.21812e-05
2.06833e-05
1.91934e-05
1.77052e-05
1.62179e-05
1.47931e-05
1.3479e-05
1.24367e-05
1.20865e-05
1.36428e-05
1.38506e-05
1.43364e-05
0.000141056
0.000140731
0.000140603
0.000140279
0.000140139
0.00013979
0.00013962
0.000139257
0.000139051
0.000138674
0.000138427
0.000138034
0.000137745
0.000137333
0.000137001
0.000136565
0.00013619
0.000135726
0.000135306
0.00013481
0.000134343
0.00013381
0.000133294
0.000132718
0.000132147
0.000131521
0.000130887
0.000130197
0.000129129
0.000127983
0.000126816
0.000125623
0.000124416
0.000123185
0.000121941
0.000120671
0.00011938
0.000118062
0.000116722
0.000115355
0.000113966
0.000112543
0.000111101
0.000109624
0.000108126
0.000106593
0.000105036
0.000103445
0.00010183
0.000100181
9.85073e-05
9.68013e-05
9.5058e-05
9.32943e-05
9.15241e-05
8.97043e-05
8.78851e-05
8.60204e-05
8.41525e-05
8.2248e-05
8.03368e-05
7.83937e-05
7.6439e-05
7.44502e-05
7.24438e-05
7.04109e-05
6.83593e-05
6.62877e-05
6.41994e-05
6.2098e-05
5.99859e-05
5.787e-05
5.57532e-05
5.36446e-05
5.15473e-05
4.94718e-05
4.74206e-05
4.54033e-05
4.34216e-05
4.14823e-05
3.95852e-05
3.77329e-05
3.59218e-05
3.41502e-05
3.24011e-05
3.06775e-05
2.89931e-05
2.72832e-05
2.55884e-05
2.38669e-05
2.21276e-05
2.03328e-05
1.847e-05
1.65375e-05
1.46162e-05
1.26992e-05
1.10401e-05
1.00809e-05
1.19765e-05
1.21314e-05
0.000116686
0.000116913
0.000117
0.000117076
0.000117144
0.000117183
0.000117239
0.000117251
0.000117294
0.000117283
0.000117309
0.000117277
0.000117282
0.00011723
0.000117212
0.000117141
0.000117099
0.000117006
0.000116936
0.000116819
0.000116718
0.000116574
0.00011644
0.000116265
0.000116094
0.000115886
0.000115676
0.000115432
0.000115185
0.000114915
0.000114637
0.000114339
0.000114031
0.000113701
0.000113358
0.000112995
0.00011262
0.000112227
0.000111812
0.000111375
0.000110914
0.000110426
0.000109913
0.000109367
0.00010879
0.000108184
0.00010755
0.000106885
0.000106193
0.000105459
0.000104686
0.000103864
0.000102991
0.00010206
0.00010106
9.9505e-05
9.79307e-05
9.62815e-05
9.46118e-05
9.28824e-05
9.11307e-05
8.9333e-05
8.75209e-05
8.56685e-05
8.37932e-05
8.18915e-05
7.99279e-05
7.79446e-05
7.59112e-05
7.38526e-05
7.17521e-05
6.96245e-05
6.74524e-05
6.52504e-05
6.30021e-05
6.0718e-05
5.83841e-05
5.60081e-05
5.35798e-05
5.11061e-05
4.85821e-05
4.60166e-05
4.34114e-05
4.07795e-05
3.81313e-05
3.5486e-05
3.28618e-05
3.02822e-05
2.77786e-05
2.5361e-05
2.30156e-05
2.07406e-05
1.85373e-05
1.62989e-05
1.41352e-05
1.21314e-05
1.03198e-05
8.92129e-06
8.37948e-06
1.1538e-05
7.49291e-05
7.53672e-05
7.54508e-05
7.57233e-05
7.58145e-05
7.6039e-05
7.61483e-05
7.63415e-05
7.64664e-05
7.66382e-05
7.67735e-05
7.69303e-05
7.7071e-05
7.72168e-05
7.73586e-05
7.74956e-05
7.7635e-05
7.7764e-05
7.78981e-05
7.80191e-05
7.81454e-05
7.82577e-05
7.83745e-05
7.84773e-05
7.85835e-05
7.86766e-05
7.87721e-05
7.88562e-05
7.89426e-05
7.90195e-05
7.90964e-05
7.91648e-05
7.9231e-05
7.92888e-05
7.93426e-05
7.93878e-05
7.9427e-05
7.9456e-05
7.94807e-05
7.94957e-05
7.95044e-05
7.95038e-05
7.94956e-05
7.94779e-05
7.94525e-05
7.94181e-05
7.93723e-05
7.93114e-05
7.92346e-05
7.91375e-05
7.90197e-05
7.88762e-05
7.87064e-05
7.85058e-05
7.82742e-05
7.80137e-05
7.77398e-05
7.74286e-05
7.70975e-05
7.672e-05
7.6306e-05
7.57622e-05
7.49311e-05
7.40485e-05
7.31053e-05
7.21234e-05
7.10823e-05
7.00014e-05
6.88581e-05
6.76585e-05
6.63967e-05
6.5088e-05
6.36853e-05
6.22176e-05
6.06569e-05
5.90152e-05
5.72742e-05
5.54413e-05
5.35048e-05
5.14715e-05
4.9336e-05
4.71069e-05
4.47848e-05
4.23816e-05
3.99056e-05
3.73689e-05
3.47643e-05
3.21076e-05
2.93224e-05
2.64531e-05
2.34888e-05
2.04643e-05
1.74878e-05
1.46363e-05
1.1947e-05
9.59255e-06
7.77156e-06
6.54269e-06
5.87329e-06
6.77686e-06
6.97782e-06
6.99456e-06
7.00633e-06
7.01998e-06
7.03397e-06
7.05048e-06
7.06467e-06
7.08267e-06
7.09743e-06
7.11622e-06
7.13182e-06
7.15107e-06
7.16767e-06
7.18726e-06
7.2049e-06
7.22481e-06
7.24348e-06
7.26378e-06
7.28343e-06
7.30421e-06
7.32483e-06
7.34621e-06
7.36782e-06
7.38997e-06
7.41264e-06
7.43575e-06
7.45962e-06
7.4839e-06
7.50909e-06
7.53469e-06
7.56127e-06
7.58832e-06
7.6164e-06
7.64504e-06
7.67475e-06
7.70513e-06
7.73664e-06
7.76896e-06
7.80249e-06
7.83696e-06
7.87272e-06
7.90954e-06
7.94774e-06
7.98709e-06
8.02783e-06
8.06972e-06
8.11283e-06
8.15703e-06
8.20242e-06
8.24885e-06
8.29649e-06
8.34522e-06
8.3953e-06
8.44673e-06
8.49987e-06
8.55482e-06
8.61146e-06
8.66874e-06
8.72705e-06
8.78433e-06
8.84106e-06
8.89456e-06
8.94716e-06
9.00265e-06
9.05868e-06
9.11853e-06
9.17965e-06
9.24491e-06
9.31173e-06
9.38273e-06
9.45662e-06
9.53475e-06
9.61368e-06
9.69803e-06
9.78339e-06
9.87372e-06
9.96578e-06
1.00626e-05
1.01624e-05
1.02676e-05
1.03777e-05
1.04957e-05
1.0622e-05
1.07603e-05
1.09113e-05
1.10737e-05
1.12307e-05
1.13379e-05
1.1363e-05
1.12355e-05
1.07831e-05
9.77303e-06
8.06081e-06
5.93699e-06
3.61881e-06
2.6361e-06
2.55635e-06
3.91763e-06
4.01835e-06
4.33072e-06
1.09393e-05
2.07737e-06
2.60067e-06
3.51751e-06
4.54842e-06
5.62317e-06
6.48751e-06
7.33712e-06
8.15039e-06
8.90648e-06
9.61994e-06
1.0338e-05
1.14566e-05
1.33355e-05
1.547e-05
1.78507e-05
1.75967e-05
1.55416e-05
1.02872e-05
3.99562e-06
5.8798e-06
2.18619e-06
2.47519e-06
3.18437e-06
4.05643e-06
4.86411e-06
5.69338e-06
6.55245e-06
7.41583e-06
8.29951e-06
9.2751e-06
1.03726e-05
1.20258e-05
1.40995e-05
1.70538e-05
1.83241e-05
1.74933e-05
1.47071e-05
9.53305e-06
3.96689e-06
4.94609e-06
2.69543e-06
2.90125e-06
3.41686e-06
4.01115e-06
4.71749e-06
5.48177e-06
6.31642e-06
7.22229e-06
8.38994e-06
9.51027e-06
1.10217e-05
1.29398e-05
1.58372e-05
1.80268e-05
1.83051e-05
1.71509e-05
1.40013e-05
8.87002e-06
3.83924e-06
5.0565e-06
3.43954e-06
3.63823e-06
3.876e-06
4.36892e-06
4.92966e-06
5.67448e-06
6.5829e-06
7.71574e-06
9.48936e-06
1.12197e-05
1.29544e-05
1.57418e-05
1.82213e-05
1.91985e-05
1.8822e-05
1.70301e-05
1.32335e-05
7.97803e-06
3.25731e-06
5.68869e-06
4.4772e-06
4.61697e-06
4.63445e-06
5.19477e-06
5.69388e-06
6.58673e-06
7.8445e-06
9.60102e-06
1.31105e-05
1.47779e-05
1.70912e-05
1.93531e-05
2.04386e-05
2.04407e-05
1.92213e-05
1.65356e-05
1.24889e-05
6.87825e-06
2.37447e-06
6.89548e-06
5.97712e-06
6.04853e-06
6.02769e-06
6.77346e-06
7.77003e-06
9.35334e-06
1.16084e-05
1.6127e-05
1.95228e-05
2.09976e-05
2.239e-05
2.30804e-05
2.28795e-05
2.16792e-05
1.90996e-05
1.59601e-05
1.15534e-05
5.14509e-06
1.46624e-06
9.04374e-06
8.62767e-06
8.85927e-06
9.4658e-06
1.11854e-05
1.36767e-05
1.70888e-05
2.20432e-05
2.8789e-05
2.94399e-05
2.91208e-05
2.83287e-05
2.6924e-05
2.4785e-05
2.16783e-05
1.85287e-05
1.48181e-05
1.0101e-05
3.82152e-06
7.20242e-07
1.466e-05
1.61397e-05
1.73683e-05
1.96667e-05
2.31981e-05
2.75248e-05
3.30993e-05
4.00656e-05
3.99374e-05
3.77739e-05
3.42816e-05
3.16644e-05
2.81035e-05
2.49264e-05
2.08581e-05
1.70831e-05
1.29158e-05
8.10352e-06
2.78125e-06
2.76861e-07
3.25324e-05
3.5489e-05
3.67154e-05
3.91771e-05
4.36309e-05
4.79747e-05
5.20262e-05
4.77993e-05
4.41756e-05
4.02502e-05
3.63746e-05
3.25842e-05
2.83711e-05
2.33262e-05
1.85619e-05
1.40691e-05
1.01864e-05
6.4478e-06
2.41544e-06
1.21795e-07
5.28243e-05
5.57084e-05
5.59621e-05
5.74661e-05
6.23172e-05
5.94131e-05
5.51253e-05
5.01653e-05
4.60788e-05
4.11202e-05
3.70427e-05
3.18702e-05
2.70262e-05
1.97572e-05
1.40347e-05
9.62681e-06
7.55991e-06
6.05744e-06
2.92482e-06
1.91197e-07
5.03412e-05
5.30738e-05
5.34399e-05
5.50228e-05
5.98182e-05
5.77719e-05
5.36593e-05
4.88967e-05
4.50406e-05
4.02491e-05
3.65723e-05
3.14434e-05
2.76193e-05
2.04773e-05
1.48153e-05
9.77182e-06
7.19033e-06
5.11893e-06
2.19946e-06
1.52627e-07
2.8023e-05
3.09192e-05
3.22762e-05
3.47499e-05
3.91484e-05
4.36881e-05
4.96425e-05
4.56347e-05
4.26529e-05
3.84276e-05
3.56706e-05
3.13208e-05
2.83414e-05
2.39316e-05
1.93663e-05
1.4612e-05
1.00114e-05
5.48443e-06
1.67574e-06
1.06987e-07
1.31026e-05
1.40458e-05
1.50231e-05
1.70689e-05
2.02322e-05
2.42808e-05
2.9543e-05
3.64303e-05
3.97672e-05
3.61571e-05
3.4028e-05
3.06158e-05
2.7675e-05
2.4507e-05
2.12663e-05
1.73741e-05
1.29749e-05
7.81181e-06
2.36888e-06
1.41553e-07
8.63826e-06
8.11667e-06
8.26403e-06
8.65936e-06
1.00782e-05
1.22215e-05
1.52231e-05
1.9844e-05
2.63244e-05
2.74894e-05
2.77838e-05
2.75944e-05
2.66708e-05
2.47316e-05
2.14462e-05
1.86193e-05
1.48278e-05
1.00124e-05
3.48492e-06
3.80177e-07
6.73716e-06
5.805e-06
5.8694e-06
5.83208e-06
6.51337e-06
7.37362e-06
8.75977e-06
1.07497e-05
1.48393e-05
1.81968e-05
1.99866e-05
2.17352e-05
2.27539e-05
2.27866e-05
2.18411e-05
1.89564e-05
1.583e-05
1.14931e-05
5.11236e-06
1.1774e-06
5.62045e-06
4.42679e-06
4.56444e-06
4.6069e-06
5.15438e-06
5.64455e-06
6.48886e-06
7.64133e-06
9.24747e-06
1.23729e-05
1.4152e-05
1.65281e-05
1.90601e-05
2.0355e-05
2.04619e-05
1.93543e-05
1.64122e-05
1.24338e-05
6.93283e-06
2.22606e-06
5.04231e-06
3.43519e-06
3.63731e-06
3.91543e-06
4.41436e-06
4.99448e-06
5.72912e-06
6.61102e-06
7.6882e-06
9.34007e-06
1.09287e-05
1.26841e-05
1.54319e-05
1.81298e-05
1.92559e-05
1.88991e-05
1.70965e-05
1.31892e-05
8.03053e-06
3.20764e-06
5.04746e-06
2.7334e-06
2.93265e-06
3.46329e-06
4.09235e-06
4.80643e-06
5.58378e-06
6.42158e-06
7.31364e-06
8.42269e-06
9.50563e-06
1.09533e-05
1.28389e-05
1.56652e-05
1.80427e-05
1.83942e-05
1.72083e-05
1.39478e-05
8.9456e-06
3.79905e-06
6.12005e-06
2.24185e-06
2.53617e-06
3.25414e-06
4.13376e-06
4.98468e-06
5.81939e-06
6.68641e-06
7.55654e-06
8.43098e-06
9.37012e-06
1.04314e-05
1.20458e-05
1.40903e-05
1.69981e-05
1.8378e-05
1.75188e-05
1.4719e-05
9.58513e-06
3.95296e-06
1.0972e-05
2.13805e-06
2.66027e-06
3.59575e-06
4.64386e-06
5.72246e-06
6.63777e-06
7.48922e-06
8.31079e-06
9.06836e-06
9.77592e-06
1.0466e-05
1.1508e-05
1.33026e-05
1.54676e-05
1.78816e-05
1.76244e-05
1.55204e-05
1.03483e-05
3.99021e-06
1.23421e-06
0.000116558
0.000294184
0.000330906
0.00033481
0.000335356
0.000335357
0.000335342
0.000335343
0.000335345
0.000335345
0.000335343
0.000335342
0.000335357
0.000335356
0.00033481
0.000330906
0.000294184
0.000116558
1.23421e-06
1.36973e-06
6.81669e-05
0.000219584
0.000309504
0.000330909
0.000334527
0.000335273
0.000335315
0.000335296
0.000335287
0.000335287
0.000335296
0.000335315
0.000335273
0.000334527
0.000330909
0.000309504
0.000219584
6.8167e-05
1.36973e-06
1.51338e-06
5.28962e-05
0.00017646
0.00028058
0.000322148
0.000332504
0.000334604
0.0003351
0.000335168
0.000335172
0.000335172