/*--------------------------------*- C++ -*----------------------------------*\
| =========                 |                                                 |
| \\      /  F ield         | OpenFOAM: The Open Source CFD Toolbox           |
|  \\    /   O peration     | Version:  2.1.0                                 |
|   \\  /    A nd           | Web:      www.OpenFOAM.org                      |
|    \\/     M anipulation  |                                                 |
\*---------------------------------------------------------------------------*/
FoamFile
{
    version     2.0;
    format      ascii;
    class       volScalarField;
    location    "0.45";
    object      omega;
}
// * * * * * * * * * * * * * * * * * * * * * * * * * * * * * * * * * * * * * //

dimensions      [0 0 -1 0 0 0 0];

internalField   nonuniform List<scalar> 
6400
(
1644.16
1645.1
1645.18
1645.03
1644.49
1644.22
1643.49
1643.14
1642.32
1641.91
1641.04
1640.56
1639.67
1639.08
1638.18
1637.49
1636.56
1635.77
1634.8
1633.91
1632.91
1631.93
1630.89
1629.84
1628.75
1627.64
1626.52
1625.35
1624.17
1622.94
1621.7
1620.41
1619.1
1617.74
1616.36
1614.91
1613.44
1611.9
1610.34
1608.68
1606.98
1605.17
1603.28
1601.26
1599.13
1596.84
1594.41
1591.78
1588.97
1585.95
1582.69
1579.19
1575.43
1571.32
1566.8
1561.81
1556.33
1550.76
1544.72
1538.55
1531.96
1525.19
1518.06
1510.7
1502.95
1494.93
1486.5
1477.74
1468.47
1458.72
1448.46
1437.59
1426.14
1414
1401.21
1387.7
1373.5
1358.61
1343.07
1326.93
1310.25
1293.04
1275.15
1255.98
1234.52
1211.96
1187.15
1159.29
1126.95
1087.84
1038.42
972.655
883.2
763.626
610.187
537.924
565.884
735.183
892.955
942.848
688.25
688.445
689.635
690.582
691.923
693.275
694.667
696.224
697.68
699.363
700.901
702.676
704.309
706.164
707.901
709.832
711.676
713.684
715.636
717.726
719.788
721.966
724.142
726.42
728.719
731.115
733.55
736.085
738.681
741.375
744.146
747.019
749.985
753.06
756.245
759.554
762.994
766.579
770.288
774.141
778.135
782.284
786.595
791.074
795.732
800.575
805.615
810.858
816.318
822
827.919
834.087
840.508
847.171
854.1
861.289
868.755
876.612
884.785
893.371
902.332
911.75
921.61
931.982
942.877
954.365
966.402
978.898
991.946
1005.73
1020.22
1035.5
1051.62
1068.66
1086.67
1105.74
1125.97
1147.46
1170.33
1194.73
1220.85
1248.94
1278.69
1309.14
1341.35
1374.18
1407.24
1439.27
1469
1494.79
1513.47
1522.04
1523.76
1509.44
1474.07
1394.78
1285.02
1150.76
1005.88
848.267
499.168
502.31
503.804
506.848
508.859
511.941
514.272
517.393
519.974
523.156
525.956
529.227
532.234
535.616
538.827
542.345
545.763
549.435
553.057
556.893
560.721
564.737
568.779
572.99
577.254
581.678
586.171
590.816
595.553
600.439
605.436
610.583
615.857
621.286
626.856
632.585
638.464
644.506
650.759
657.213
663.849
670.692
677.757
685.051
692.588
700.377
708.43
716.758
725.373
734.283
743.495
753.013
762.848
773.014
783.518
794.379
805.612
817.256
829.305
841.796
854.727
868.129
882.001
896.366
911.22
926.576
942.449
958.899
975.843
993.132
1010.79
1028.73
1046.91
1065.27
1083.78
1102.37
1121.03
1139.74
1158.5
1177.31
1196.21
1215.22
1234.36
1253.65
1273.08
1292.44
1311.56
1329.93
1346.87
1361.21
1369.05
1371.86
1365.3
1339.05
1290.35
1210.63
1102.14
960.95
797.337
628.085
449.873
454.845
457.045
461.431
464.213
468.572
471.769
476.129
479.665
484.073
487.906
492.404
496.512
501.137
505.51
510.292
514.926
519.895
524.796
529.979
535.154
540.576
546.032
551.71
557.454
563.398
569.433
575.655
581.988
588.501
595.143
601.964
608.929
616.074
623.377
630.865
638.522
646.37
654.38
662.571
670.971
679.565
688.338
697.298
706.435
715.748
725.229
734.873
744.669
754.611
764.686
774.887
785.199
795.618
806.125
816.72
827.387
838.125
848.917
859.76
870.633
881.53
892.43
903.323
914.179
924.982
935.721
946.419
957.02
967.525
977.893
988.114
998.131
1007.89
1017.37
1026.46
1035.12
1043.23
1050.71
1057.39
1063.14
1067.77
1070.79
1072.15
1072.46
1069.9
1065.01
1056.91
1045.4
1029.66
1009.13
982.813
949.47
907.323
854.368
788.893
712.206
629.205
552.932
496.633
438.673
444.746
447.382
452.646
455.949
461.164
464.94
470.131
474.282
479.494
483.964
489.236
493.989
499.356
504.366
509.853
515.103
520.728
526.209
531.991
537.694
543.641
549.555
555.672
561.788
568.072
574.385
580.84
587.336
593.951
600.612
607.374
614.183
621.075
628.012
635.017
642.059
649.153
656.274
663.431
670.599
677.786
684.976
692.172
699.352
706.52
713.653
720.754
727.8
734.795
741.717
748.568
755.328
761.999
768.552
774.983
781.322
787.507
793.532
799.351
804.953
810.285
815.332
820.04
824.386
828.318
831.804
834.793
837.243
839.105
840.167
840.617
840.672
839.485
837.756
834.88
831.238
826.429
820.68
813.719
805.672
796.365
785.865
774.141
761.239
747.057
731.829
715.373
697.868
679.103
659.079
637.415
613.984
588.059
559.005
527.706
495.219
465.352
444.205
432.56
429.641
435.639
438.211
443.364
446.528
451.597
455.157
460.137
463.987
468.901
472.974
477.847
482.098
486.951
491.344
496.19
500.696
505.542
510.136
514.984
519.642
524.489
529.192
534.032
538.759
543.582
548.313
553.116
557.892
562.716
567.504
572.315
577.077
581.839
586.537
591.208
595.8
600.34
604.781
609.142
613.383
617.517
621.495
625.345
629.007
632.509
635.792
638.881
641.719
644.326
646.65
648.702
650.435
651.856
652.919
653.63
653.996
654.124
653.937
653.209
652.183
650.629
648.704
646.261
643.403
640.038
636.236
631.944
627.212
622.013
616.387
610.355
603.968
597.198
590.148
582.762
575.156
567.274
559.273
551.101
542.845
534.518
526.199
517.895
509.663
501.488
493.275
485.047
476.856
468.594
460.256
451.7
442.878
433.628
424.068
414.692
406.896
403.171
402.126
402.105
401.05
405.882
407.931
412.036
414.47
418.484
421.151
425.04
427.855
431.617
434.525
438.166
441.126
444.652
447.63
451.041
454.008
457.302
460.23
463.401
466.264
469.303
472.081
474.959
477.603
480.289
482.763
485.249
487.569
489.857
491.954
493.977
495.789
497.489
498.957
500.282
501.356
502.258
502.894
503.269
503.423
503.443
503.047
502.508
501.601
500.516
499.085
497.455
495.499
493.339
490.875
488.212
485.273
482.151
478.807
475.323
471.589
467.745
463.709
459.592
455.358
451.075
446.741
442.394
438.039
433.693
429.467
425.311
421.325
417.467
413.825
410.35
407.084
404.013
401.177
398.547
396.155
393.949
391.997
390.217
388.696
387.34
386.212
385.222
384.412
383.694
383.094
382.533
382.018
381.488
380.973
380.465
380.146
380.024
380.505
381.771
384.28
388.874
392.57
393.632
355.085
358.527
359.943
362.724
364.235
366.864
368.385
370.809
372.288
374.481
375.872
377.83
379.096
380.81
381.918
383.378
384.301
385.494
386.207
387.119
387.594
388.174
388.446
388.618
388.664
388.57
388.243
387.826
387.087
386.249
385.097
383.843
382.288
380.632
378.696
376.674
374.399
372.048
369.476
366.845
364.037
361.187
358.189
355.189
352.079
349.002
345.858
342.782
339.681
336.679
333.697
330.822
328.039
325.415
322.924
320.6
318.45
316.501
314.761
313.248
311.973
310.945
310.179
309.727
309.527
309.486
309.812
310.322
311.143
312.152
313.452
314.936
316.69
318.621
320.798
323.142
325.709
328.428
331.33
334.385
337.611
340.958
344.439
348.002
351.656
355.35
359.084
362.812
366.54
370.234
373.918
377.595
381.329
385.173
389.356
394.133
399.743
406.725
412.285
414.552
295.808
296.937
297.351
298.046
298.365
298.807
298.993
299.131
299.155
299.1
298.8
298.538
297.959
297.464
296.619
295.878
294.778
293.788
292.445
291.211
289.64
288.174
286.4
284.732
282.818
280.986
278.955
277.004
274.892
272.876
270.738
268.713
266.608
264.632
262.616
260.737
258.858
257.127
255.438
253.904
252.452
251.163
249.988
248.988
248.128
247.454
246.942
246.667
246.551
246.54
246.885
247.336
248.077
248.921
250.033
251.271
252.76
254.39
256.259
258.279
260.529
262.937
265.568
268.364
271.379
274.573
277.968
281.541
285.318
289.276
293.442
297.798
302.37
307.138
312.13
317.329
322.762
328.413
334.308
340.428
346.8
353.407
360.269
367.368
374.718
382.297
390.108
398.12
406.329
414.699
423.22
431.867
440.646
449.57
458.719
468.323
479.045
490.689
502.368
508.137
238.137
236.924
236.387
235.26
234.542
233.348
232.48
231.218
230.234
228.913
227.836
226.482
225.339
223.973
222.796
221.444
220.263
218.95
217.798
216.553
215.462
214.313
213.315
212.29
211.414
210.536
209.809
209.101
208.546
208.029
207.667
207.369
207.225
207.166
207.165
207.38
207.629
208.078
208.579
209.269
210.034
210.965
211.988
213.165
214.445
215.87
217.406
219.082
220.874
222.801
224.856
227.04
229.352
231.781
234.343
237.02
239.835
242.767
245.84
249.032
252.371
255.834
259.449
263.196
267.1
271.146
275.357
279.722
284.262
288.97
293.867
298.948
304.233
309.722
315.434
321.371
327.556
333.993
340.705
347.7
355.003
362.629
370.604
378.947
387.691
396.861
406.494
416.627
427.309
438.59
450.535
463.215
476.721
491.157
506.641
523.254
541.008
559.498
574.204
580.765
260.138
259.574
259.272
258.627
258.109
257.343
256.622
255.717
254.81
253.758
252.684
251.488
250.28
248.957
247.634
246.219
244.807
243.333
241.862
240.361
238.868
237.374
235.895
234.443
233.017
231.643
230.307
229.043
227.834
226.716
225.668
224.727
223.872
223.136
222.503
222.004
221.621
221.414
221.326
221.316
221.566
221.868
222.387
222.985
223.782
224.675
225.755
226.945
228.309
229.793
231.445
233.221
235.159
237.226
239.461
241.817
244.327
246.965
249.754
252.677
255.748
258.96
262.322
265.83
269.492
273.307
277.28
281.416
285.719
290.195
294.85
299.689
304.719
309.951
315.393
321.055
326.946
333.079
339.463
346.115
353.046
360.275
367.817
375.694
383.924
392.532
401.542
410.982
420.882
431.274
442.198
453.708
465.895
478.833
492.664
507.523
523.517
540.285
554.042
560.269
319.586
321.232
321.871
323.039
323.609
324.584
325.052
325.797
326.147
326.618
326.815
326.917
326.926
326.764
326.425
326.024
325.374
324.711
323.769
322.84
321.623
320.431
318.957
317.516
315.809
314.139
312.237
310.36
308.283
306.244
304.03
301.869
299.563
297.325
294.972
292.7
290.346
288.096
285.799
283.625
281.442
279.412
277.435
275.621
273.901
272.354
270.937
269.708
268.637
267.769
267.083
266.626
266.404
266.33
266.472
266.885
267.444
268.258
269.237
270.463
271.86
273.493
275.303
277.34
279.557
281.994
284.61
287.422
290.408
293.58
296.925
300.45
304.139
308.01
312.043
316.256
320.627
325.174
329.875
334.745
339.745
344.893
350.157
355.551
361.045
366.65
372.336
378.111
383.956
389.875
395.866
401.935
408.083
414.49
421.286
428.888
437.61
447.88
458.761
464.48
370.436
373.856
375.276
378.06
379.613
382.265
383.863
386.34
387.932
390.221
391.795
393.895
395.409
397.298
398.701
400.371
401.618
403.05
404.104
405.279
406.107
407.004
407.577
408.174
408.471
408.673
408.733
408.671
408.343
407.94
407.275
406.524
405.519
404.422
403.084
401.653
399.921
398.066
395.94
393.692
391.205
388.608
385.809
382.922
379.87
376.757
373.534
370.276
366.959
363.642
360.316
357.027
353.77
350.581
347.455
344.467
341.606
338.913
336.367
334.022
331.861
329.924
328.204
326.728
325.486
324.494
323.727
323.215
322.964
322.876
322.964
323.382
323.897
324.687
325.562
326.664
327.835
329.184
330.579
332.104
333.717
335.45
337.254
339.159
341.12
343.185
345.3
347.517
349.793
352.193
354.7
357.396
360.299
363.491
366.943
371.037
376.168
382.779
387.637
389.424
407.952
412.722
414.748
418.781
421.198
425.12
427.766
431.549
434.333
437.973
440.888
444.448
447.449
450.932
453.979
457.385
460.445
463.768
466.809
470.038
473.031
476.152
479.068
482.065
484.875
487.723
490.405
493.076
495.587
498.057
500.36
502.593
504.649
506.606
508.373
510.013
511.526
512.893
514.078
515.08
515.86
516.405
516.667
516.755
516.6
516.083
515.354
514.283
512.966
511.322
509.413
507.195
504.71
501.935
498.904
495.612
492.087
488.349
484.433
480.35
476.118
471.716
467.199
462.585
457.896
453.162
448.408
443.722
439.081
434.564
430.164
425.943
421.888
418.04
414.333
410.85
407.527
404.431
401.492
398.759
396.116
393.665
391.279
389.037
386.822
384.722
382.615
380.576
378.503
376.48
374.434
372.481
370.597
369.146
368.135
367.757
368.601
372.357
375.487
376.379
424.659
430.446
432.932
437.893
440.967
445.845
449.316
454.115
457.882
462.635
466.638
471.373
475.567
480.306
484.658
489.415
493.896
498.681
503.269
508.083
512.757
517.599
522.34
527.206
531.996
536.876
541.698
546.583
551.42
556.301
561.138
565.996
570.806
575.614
580.363
585.085
589.793
594.468
599.099
603.674
608.176
612.595
616.915
621.124
625.201
629.131
632.901
636.488
639.882
643.056
646.001
648.69
651.11
653.236
655.054
656.538
657.673
658.367
658.678
658.747
658.237
657.525
656.295
654.75
652.687
650.24
647.279
643.899
640.018
635.706
630.912
625.692
620.016
613.957
607.561
600.82
593.756
586.432
578.802
570.963
562.855
554.6
546.111
537.496
528.664
519.643
510.382
500.883
490.966
480.588
469.81
458.459
446.555
434.007
421.542
408.832
398.131
391.536
388.709
387.443
426.355
432.027
434.495
439.401
442.502
447.36
450.912
455.755
459.668
464.537
468.752
473.685
478.167
483.201
487.935
493.096
498.067
503.375
508.573
514.041
519.457
525.096
530.723
536.537
542.368
548.359
554.384
560.549
566.758
573.093
579.48
585.975
592.526
599.173
605.878
612.67
619.52
626.442
633.415
640.449
647.525
654.646
661.802
668.987
676.194
683.416
690.641
697.856
705.046
712.22
719.359
726.455
733.498
740.478
747.384
754.203
760.936
767.553
774.056
780.403
786.579
792.621
798.438
804.048
809.375
814.416
819.103
823.422
827.308
830.74
833.658
836.025
837.787
838.7
839.055
838.985
837.543
835.636
832.427
828.443
823.115
816.737
808.896
799.737
788.945
776.61
762.551
746.611
728.834
708.93
686.837
662.106
634.449
603.336
569.576
532.704
495.602
460.595
435.42
418.784
434.727
439.277
441.301
445.331
447.901
451.902
454.852
458.846
462.099
466.13
469.651
473.758
477.523
481.742
485.744
490.104
494.339
498.865
503.336
508.052
512.765
517.693
522.659
527.82
533.05
538.463
543.968
549.647
555.433
561.389
567.467
573.714
580.099
586.659
593.373
600.271
607.34
614.604
622.04
629.669
637.481
645.487
653.681
662.066
670.633
679.423
688.431
697.677
707.17
716.842
726.722
736.779
747.02
757.425
767.991
778.696
789.542
800.495
811.561
822.709
833.946
845.252
856.628
868.06
879.542
891.056
902.584
914.105
925.583
936.984
948.386
959.698
970.949
982.075
993.08
1003.88
1014.42
1024.67
1034.49
1043.81
1052.46
1060.3
1067.08
1072.58
1075.94
1077.37
1077.52
1073.08
1065.79
1053.12
1035.29
1010.14
976.668
932.368
876.866
807.176
725.055
634.438
553.225
488.487
482.138
484.897
486.23
488.962
490.78
493.55
495.659
498.465
500.797
503.661
506.191
509.137
511.857
514.901
517.796
520.954
524.025
527.313
530.563
533.999
537.433
541.031
544.657
548.431
552.259
556.224
560.262
564.432
568.695
573.083
577.577
582.202
586.946
591.826
596.834
601.983
607.266
612.691
618.303
624.089
630.075
636.264
642.676
649.324
656.231
663.371
670.761
678.397
686.284
694.479
702.976
711.802
720.963
730.476
740.348
750.583
761.213
772.233
783.673
795.541
807.867
820.666
833.973
847.816
862.206
877.169
892.709
908.851
925.597
942.972
961.01
979.415
998.301
1017.58
1037.2
1057.1
1077.22
1097.52
1117.94
1138.47
1159.08
1179.76
1200.46
1221.26
1242.16
1263.12
1283.92
1304.02
1322.93
1339.28
1349.15
1352.91
1348.23
1320.92
1271.28
1196.05
1093.13
963.517
802.424
630.336
665.844
665.784
666.797
667.549
668.711
669.851
671.055
672.39
673.647
675.099
676.427
677.963
679.376
680.982
682.487
684.162
685.764
687.509
689.209
691.03
692.831
694.732
696.635
698.625
700.634
702.72
704.843
707.04
709.293
711.621
714.023
716.509
719.082
721.748
724.514
727.388
730.382
733.506
736.743
740.111
743.613
747.258
751.053
755.005
759.121
763.403
767.864
772.511
777.357
782.414
787.692
793.205
798.964
804.982
811.279
817.875
824.751
831.949
839.471
847.332
855.551
864.124
873.108
882.595
892.549
903.052
914.09
925.742
938.007
950.961
964.353
978.644
993.638
1009.57
1026.38
1044.23
1063.14
1083.23
1104.56
1127.25
1151.4
1177.14
1204.57
1233.91
1265.02
1296.79
1329.27
1360.87
1390.05
1414.47
1428.43
1433.58
1431.34
1415.02
1383
1321.85
1233.68
1122.4
997.86
848.982
1602.58
1603.25
1603.19
1602.72
1602.08
1601.57
1600.69
1600.14
1599.18
1598.58
1597.58
1596.91
1595.9
1595.15
1594.13
1593.29
1592.25
1591.32
1590.25
1589.23
1588.12
1587.02
1585.86
1584.68
1583.47
1582.23
1580.98
1579.69
1578.4
1577.07
1575.74
1574.35
1572.97
1571.55
1570.11
1568.64
1567.15
1565.62
1564.09
1562.5
1560.91
1559.27
1557.6
1555.88
1554.13
1552.3
1550.4
1548.41
1546.31
1544.09
1541.74
1539.24
1536.61
1533.81
1530.88
1527.8
1524.55
1521.03
1517.25
1513.02
1508.35
1503.02
1497.2
1491.16
1484.71
1478.06
1470.98
1463.66
1455.85
1447.7
1439.05
1429.95
1420.08
1409.69
1398.4
1386.4
1373.37
1359.42
1344.31
1328.1
1310.61
1291.86
1271.73
1250.23
1227.18
1202.28
1174.53
1141.79
1103.02
1056.09
995.868
916.515
815.901
705.211
584.549
535.35
556.111
721.949
886.827
939.965
865.883
324.723
176.601
119.702
95.264
82.3304
76.129
73.1615
72.1895
74.0342
80.9583
97.4697
118.897
156.238
207.123
271.569
349
444.071
560.319
610.181
693.161
329.166
219.139
154.331
121.757
104.136
92.9369
87.4673
85.5421
87.5399
99.6659
115.6
144.582
184.769
237.979
299.991
372.426
459.597
544.764
568.45
544.575
318.728
242.266
180.154
147.624
125.459
111.881
105.98
104.313
108.677
120.224
144.149
174.746
218.796
269.562
326.192
390.274
462.689
514.397
522.491
444.614
305.163
256.283
198.159
171.196
146.157
134.088
128.452
126.902
131.266
154.176
177.737
213.986
256.463
302.099
352.295
406.659
455.364
474.17
474.273
388.179
300.415
266.288
214.675
191.993
168.732
159.19
155.463
155.22
175.091
195.483
222.882
257.402
292.859
330.852
370.821
410.066
432.649
426.377
427.738
360.075
300.361
273.827
232.022
214.526
201.045
197.447
197.435
211.712
227.9
247.923
272.685
299.479
326.825
355.896
383.524
398.916
396.773
367.883
383.39
352.311
312.837
296.046
273.008
265.949
263.433
263.074
269.923
279.161
291.2
306.022
322.378
339.258
355.564
369.821
376.628
374.92
343.642
300.641
349.837
386.873
375.218
371.402
361.622
356.863
351.348
349.148
348.619
350.784
355.092
359.392
364.163
366.783
367.786
366.311
357.914
331.052
277.571
232.667
331.168
499.029
483.8
476.414
457.509
448.617
434.276
427.237
417.561
412.371
404.316
397.848
388.684
378.16
365.47
349.194
316.743
268.515
204.159
161.795
324.867
563.31
541.915
532.258
509.197
498.151
479.505
469.223
452.387
440.824
423.911
409.75
390.525
370.455
341.827
302.33
252.001
198.219
143.35
116.444
327.673
544.475
524.317
515.257
493.494
483.104
465.7
456.373
441.396
431.195
416.527
404.012
387.45
369.701
345.123
309.43
259.738
203.647
143.252
113.364
326.111
457.707
446.509
440.872
424.913
417.613
406.65
401.383
395.704
392.9
389.456
385.975
381.292
374.26
364.767
353.382
326.921
279.395
212.177
170.782
324.271
358.965
343.861
338.873
330.915
327.513
324.401
323.558
326.187
331.055
338.58
346.593
354.827
362.487
366.3
367.647
363.23
339.574
286.944
239.35
325.663
336.692
296.812
279.278
254.08
245.686
242.72
242.529
250.903
261.615
275.612
292.941
311.76
331.986
352.113
370.579
379.765
380.96
352.317
307.667
335.433
346.795
288.19
262.293
221.047
203.632
189.13
184.787
184.306
198.102
215.369
236.838
263.156
291.969
321.691
353.797
385.645
403.675
404.793
374.358
370.083
374.522
289.323
256.039
206.268
184.316
161.482
151.828
147.75
147.153
165.196
186.572
214.636
250.467
287.677
327.737
370.169
413.997
438.688
433.722
420.238
429.602
294.01
246.225
190.012
163.836
140.065
128.555
123.207
121.753
125.966
147.121
171.32
207.662
251.235
298.661
350.876
407.71
460.333
480.505
471.57
531.598
308.235
233.698
173.721
141.927
120.38
107.421
101.739
100.16
104.699
116.03
139.018
169.945
213.865
265.783
324.085
390.668
467.073
518.634
523.011
686.659
318.12
211.263
148.262
116.995
99.8624
89.5204
84.4248
82.6383
84.6832
96.1653
112.086
140.582
180.78
234.253
297.36
371.269
461.097
548.514
570.82
863.379
313.527
170.702
115.742
92.0809
79.5934
73.2033
70.4976
69.7144
72.0739
78.7659
94.3903
116.019
152.745
203.769
268.901
347.711
444.767
563.131
613.21
646.053
32.1745
12.7362
11.3229
11.19
11.171
11.1705
11.1708
11.1706
11.1705
11.1705
11.1706
11.1708
11.1705
11.171
11.19
11.3229
12.7362
32.1744
646.053
672.74
55.0628
17.0386
12.087
11.3039
11.1803
11.1547
11.1529
11.1534
11.1536
11.1536
11.1534
11.1529
11.1547
11.1803
11.3039
12.087
17.0386
55.0628
672.74
698.453
71.0937
21.1542
13.3033
11.5874
11.2261
11.1552
11.1382
11.1358
11.1355
11.1355
11.1358
11.1382
11.1552
11.2261
11.5874
13.3033
21.1542
71.0935
698.453
723.136
85.8502
25.1369
14.6461
12.0431
11.3371
11.1684
11.1265
11.1183
11.1171
11.1171
11.1183
11.1265
11.1684
11.3371
12.0431
14.6461
25.1369
85.8502
723.136
746.743
101.867
29.2065
16.0658
12.5885
11.5234
11.2064
11.1273
11.105
11.1003
11.1003
11.105
11.1273
11.2064
11.5234
12.5884
16.0658
29.2065
101.867
746.743
769.31
118.433
33.3669
17.5406
13.1971
11.7624
11.283
11.1366
11.0944
11.0843
11.0843
11.0944
11.1366
11.283
11.7624
13.1971
17.5406
33.3669
118.433
769.31
790.728
134.968
37.5676
19.0511
13.8502
12.0431
11.3872
11.16
11.0918
11.0718
11.0718
11.0918
11.16
11.3872
12.0431
13.8502
19.0511
37.5677
134.968
790.728
810.982
151.251
41.7801
20.5851
14.5352
12.3571
11.5178
11.2031
11.0955
11.0625
11.0625
11.0955
11.2031
11.5178
12.3571
14.5352
20.5852
41.7802
151.251
810.982
829.955
167.079
45.9691
22.1303
15.2422
12.6968
11.6708
11.2604
11.1065
11.0594
11.0594
11.1065
11.2604
11.6708
12.6968
15.2422
22.1303
45.9692
167.079
829.955
847.653
182.401
50.1209
23.6797
15.9648
13.0568
11.8431
11.3324
11.129
11.0619
11.0619
11.129
11.3324
11.8431
13.0568
15.9648
23.6797
50.121
182.402
847.653
863.991
197.096
54.2105
25.2247
16.6968
13.4321
12.0315
11.4179
11.1609
11.0697
11.0698
11.1609
11.4179
12.0315
13.4321
16.6968
25.2248
54.2106
197.096
863.991
879.013
211.155
58.2321
26.7619
17.4347
13.8193
12.2335
11.5156
11.2021
11.0862
11.0862
11.2021
11.5156
12.2335
13.8193
17.4347
26.7619
58.2323
211.156
879.013
892.663
224.491
62.1651
28.2844
18.1745
14.2149
12.4467
11.6242
11.2528
11.1113
11.1113
11.2528
11.6242
12.4467
14.2149
18.1745
28.2845
62.1653
224.491
892.663
905.026
237.118
66.009
29.7908
18.9141
14.6169
12.6691
11.7427
11.3126
11.1446
11.1446
11.3126
11.7427
12.6691
14.6169
18.9141
29.7908
66.0092
237.119
905.026
916.068
248.971
69.7457
31.2753
19.6506
15.023
12.899
11.8698
11.381
11.1861
11.1861
11.381
11.8698
12.899
15.0231
19.6507
31.2754
69.7459
248.971
916.067
925.904
260.089
73.3781
32.7379
20.383
15.4319
13.1352
12.0048
11.4576
11.2357
11.2357
11.4576
12.0048
13.1352
15.4319
20.383
32.738
73.3783
260.09
925.904
934.512
270.424
76.8906
34.1733
21.1087
15.8417
13.3762
12.1466
11.5418
11.293
11.293
11.5418
12.1466
13.3762
15.8418
21.1088
34.1734
76.8907
270.423
934.512
942.037
280.035
80.2892
35.5826
21.8276
16.2519
13.6211
12.2944
11.6331
11.3579
11.3579
11.6331
12.2944
13.6211
16.2519
21.8276
35.5825
80.2892
280.036
942.036
948.451
288.886
83.5602
36.9606
22.5374
16.6609
13.8691
12.4475
11.7309
11.4299
11.4299
11.7309
12.4475
13.8691
16.661
22.5374
36.9608
83.5604
288.885
948.45
953.925
297.051
86.7124
38.3098
23.2383
17.0685
14.1194
12.6053
11.8348
11.5085
11.5085
11.8348
12.6053
14.1194
17.0685
23.2383
38.3097
86.7124
297.052
953.924
958.416
304.506
89.734
39.6248
23.9282
17.4734
14.3712
12.7671
11.9442
11.5934
11.5934
11.9442
12.7671
14.3712
17.4735
23.9283
39.625
89.7341
304.504
958.415
962.12
311.326
92.6356
40.9093
24.608
17.8757
14.6242
12.9325
12.0587
11.684
11.684
12.0587
12.9325
14.6242
17.8757
24.608
40.9092
92.6355
311.327
962.12
964.967
317.506
95.4074
42.1578
25.2754
18.2741
14.8776
13.1009
12.1777
11.78
11.78
12.1777
13.1009
14.8776
18.2742
25.2755
42.1581
95.4077
317.503
964.966
967.18
323.102
98.0618
43.3751
25.9318
18.669
15.1313
13.2719
12.3009
11.8809
11.8809
12.3009
13.2719
15.1313
18.669
25.9318
43.375
98.0617
323.105
967.179
968.649
328.148
100.59
44.5553
26.5748
19.0592
15.3846
13.445
12.4277
11.9862
11.9862
12.4277
13.445
15.3846
19.0593
26.575
44.5556
100.59
328.144
968.648
969.635
332.653
103.005
45.7045
27.2064
19.4453
15.6374
13.62
12.5579
12.0955
12.0955
12.5579
13.62
15.6374
19.4453
27.2063
45.7042
103.005
332.657
969.634
969.97
336.705
105.299
46.8159
27.8239
19.826
15.8892
13.7964
12.691
12.2085
12.2085
12.691
13.7964
15.8892
19.826
27.824
46.8163
105.3
336.7
969.969
969.834
340.242
107.488
47.8975
28.4297
20.2021
16.14
13.9741
12.8267
12.3248
12.3248
12.8267
13.9741
16.14
20.2021
28.4296
47.8972
107.488
340.246
969.833
969.425
343.403
109.561
48.9414
29.021
20.5725
16.3892
14.1525
12.9646
12.4441
12.4441
12.9646
14.1525
16.3892
20.5725
29.0211
48.9418
109.561
343.398
969.424
968.579
346.14
111.539
49.9569
29.6008
20.9379
16.637
14.3316
13.1045
12.5659
12.5659
13.1045
14.3316
16.637
20.9379
29.6007
49.9565
111.538
346.144
968.578
967.379
348.534
113.406
50.9352
30.1658
21.2973
16.8828
14.511
13.2461
12.69
12.69
13.2461
14.511
16.8828
21.2973
30.166
50.9356
113.406
348.528
967.378
965.891
350.552
115.188
51.8872
30.7196
21.6515
17.1267
14.6907
13.389
12.8161
12.8161
13.389
14.6907
17.1267
21.6515
30.7195
51.8867
115.187
350.556
965.89
964.155
352.265
116.864
52.8028
31.2587
21.9995
17.3684
14.8702
13.5331
12.944
12.944
13.5331
14.8702
17.3684
21.9995
31.2588
52.8033
116.865
352.259
964.155
962.205
353.658
118.465
53.6944
31.7868
22.3423
17.608
15.0495
13.6782
13.0733
13.0733
13.6782
15.0495
17.608
22.3422
31.7867
53.6938
118.463
353.662
962.203
960.073
354.766
119.965
54.5507
32.3005
22.6787
17.8451
15.2283
13.8239
13.2039
13.2039
13.8239
15.2283
17.8451
22.6787
32.3006
54.5512
119.966
354.761
960.074
957.789
355.615
121.399
55.3853
32.8039
23.0099
18.0798
15.4067
13.9702
13.3355
13.3355
13.9702
15.4067
18.0799
23.0099
32.8037
55.3846
121.397
355.618
957.788
955.381
356.175
122.736
56.186
33.293
23.3347
18.3118
15.5842
14.1168
13.468
13.468
14.1168
15.5842
18.3118
23.3346
33.2931
56.1865
122.737
356.171
955.382
952.87
356.557
124.016
56.9676
33.7724
23.6544
18.5414
15.761
14.2636
13.6011
13.6011
14.2636
15.761
18.5415
23.6544
33.7723
56.9668
124.013
356.559
952.868
950.286
356.613
125.204
57.7167
34.238
23.9676
18.7681
15.9367
14.4103
13.7346
13.7346
14.4103
15.9366
18.768
23.9676
34.238
57.7173
125.206
356.611
950.287
947.635
356.52
126.342
58.4494
34.6947
24.2759
18.9922
16.1114
14.557
13.8684
13.8684
14.557
16.1114
18.9923
24.276
34.6946
58.4485
126.339
356.519
947.634
944.957
356.291
127.392
59.1511
35.1381
24.5779
19.2134
16.2848
14.7033
14.0024
14.0024
14.7033
16.2848
19.2133
24.5778
35.138
59.1518
127.395
356.29
944.959
942.244
355.82
128.406
59.8395
35.5733
24.8751
19.4319
16.4571
14.8493
14.1364
14.1364
14.8494
16.4572
19.432
24.8753
35.5733
59.8385
128.402
355.826
942.242
939.539
355.244
129.335
60.4986
35.9959
25.1662
19.6474
16.628
14.9948
14.2703
14.2703
14.9947
16.6279
19.6473
25.1659
35.9957
60.4994
129.339
355.236
939.541
936.821
354.505
130.251
61.149
36.4113
25.4527
19.8603
16.7975
15.1397
14.404
14.404
15.1398
16.7976
19.8605
25.453
36.4115
61.148
130.246
354.511
936.818
934.145
353.722
131.099
61.7743
36.8149
25.7334
20.0701
16.9655
15.2839
14.5373
14.5373
15.2838
16.9653
20.0699
25.7329
36.8145
61.7751
131.104
353.714
934.147
931.466
352.872
131.987
62.3994
37.2125
26.0097
20.2774
17.132
15.4273
14.6702
14.6703
15.4274
17.1321
20.2777
26.0102
37.213
62.3985
131.981
352.877
931.463
928.859
352.024
132.869
63.0126
37.5999
26.2805
20.4816
17.2969
15.5699
14.8026
14.8025
15.5698
17.2967
20.4813
26.2799
37.5991
63.0132
132.875
352.019
928.862
926.333
351.164
133.826
63.6387
37.9833
26.5474
20.6833
17.4603
15.7116
14.9344
14.9344
15.7117
17.4605
20.6837
26.5482
37.9843
63.6384
133.819
351.166
926.33
923.871
350.422
134.84
64.2638
38.3588
26.8093
20.882
17.622
15.8522
15.0654
15.0654
15.8521
17.6217
20.8816
26.8085
38.3576
64.264
134.846
350.42
923.875
921.484
349.753
135.976
64.912
38.7329
27.0679
21.0783
17.7821
15.9919
15.1958
15.1959
15.992
17.7824
21.0789
27.0689
38.7345
64.9124
135.97
349.755
921.481
919.155
349.293
137.189
65.565
39.1016
27.3221
21.2718
17.9404
16.1304
15.3253
15.3252
16.1303
17.9402
21.2712
27.321
39.0999
65.5646
137.196
349.292
919.158
916.897
348.942
138.533
66.246
39.4712
27.5738
21.4631
18.0973
16.2679
15.4541
15.4541
16.2681
18.0977
21.4638
27.5752
39.4735
66.2475
138.527
348.943
916.893
914.693
348.851
139.937
66.9331
39.8374
27.8218
21.6517
18.2523
16.4041
15.5817
15.5816
16.404
18.252
21.651
27.8203
39.8351
66.9318
139.944
348.853
914.696
912.56
348.916
141.463
67.6495
40.2064
28.0679
21.8384
18.4059
16.5394
15.7086
15.7087
16.5396
18.4064
21.8394
28.0699
40.2097
67.6526
141.459
348.918
912.554
910.479
349.098
143.022
68.3711
40.5735
28.3111
22.0226
18.5577
16.6731
15.8342
15.8342
16.6729
18.5573
22.0217
28.3094
40.5705
68.3689
143.029
349.101
910.482
908.471
349.471
144.676
69.1203
40.9447
28.5532
22.2052
18.7081
16.806
15.9592
15.9593
16.8063
18.7088
22.2066
28.5559
40.9493
69.1254
144.675
349.481
908.463
906.512
349.99
146.342
69.873
41.315
28.7929
22.3855
18.8567
16.9373
16.0827
16.0826
16.937
18.8562
22.3844
28.7907
41.3113
69.87
146.347
349.989
906.516
904.629
350.63
148.077
70.651
41.6902
29.0321
22.5644
19.0041
17.0677
16.2056
16.2058
17.0682
19.0051
22.5663
29.0357
41.6964
70.659
148.081
350.645
904.62
902.794
351.376
149.806
71.4301
42.065
29.2695
22.7414
19.1497
17.1965
16.3268
16.3268
17.1962
19.1491
22.74
29.2669
42.0607
71.4265
149.811
351.379
902.796
901.035
352.209
151.58
72.2316
42.4452
29.5067
22.9171
19.2942
17.3245
16.4477
16.4479
17.3252
19.2956
22.9198
29.5117
42.4537
72.2436
151.592
352.231
901.021
899.321
353.116
153.335
73.0313
42.8251
29.7426
23.0911
19.437
17.4508
16.5666
16.5665
17.4504
19.4362
23.0895
29.7397
42.8206
73.0281
153.339
353.127
899.319
897.684
354.081
155.115
73.8509
43.2104
29.9786
23.264
19.5787
17.5764
16.6853
16.6856
17.5774
19.5808
23.2679
29.9856
43.2223
73.8685
155.138
354.116
897.665
896.089
355.096
156.864
74.6654
43.5954
30.2137
23.4356
19.7188
17.7001
16.8017
16.8017
17.6998
19.7181
23.434
30.2107
43.5913
74.6643
156.873
355.121
896.082
894.571
356.143
158.624
75.4974
43.9856
30.4488
23.6061
19.858
17.8234
16.9184
16.9188
17.8249
19.861
23.6117
30.4589
44.0027
75.5237
158.662
356.199
894.542
893.092
357.219
160.343
76.3209
44.3755
30.6836
23.7754
19.9955
17.9447
17.0324
17.0324
17.9445
19.995
23.7741
30.681
44.3729
76.3253
160.362