/*--------------------------------*- C++ -*----------------------------------*\
| =========                 |                                                 |
| \\      /  F ield         | OpenFOAM: The Open Source CFD Toolbox           |
|  \\    /   O peration     | Version:  2.1.0                                 |
|   \\  /    A nd           | Web:      www.OpenFOAM.org                      |
|    \\/     M anipulation  |                                                 |
\*---------------------------------------------------------------------------*/
FoamFile
{
    version     2.0;
    format      ascii;
    class       surfaceScalarField;
    location    "0.45";
    object      phi;
}
// * * * * * * * * * * * * * * * * * * * * * * * * * * * * * * * * * * * * * //

dimensions      [0 3 -1 0 0 0 0];

internalField   nonuniform List<scalar> 
12460
(
-2.60243e-05
-3.65733e-09
-2.59865e-05
-3.95542e-08
-2.59258e-05
-6.24791e-08
-2.58533e-05
-7.41445e-08
-2.57739e-05
-8.10377e-08
-2.56898e-05
-8.56642e-08
-2.56023e-05
-8.90003e-08
-2.55122e-05
-9.16241e-08
-2.54198e-05
-9.38405e-08
-2.53253e-05
-9.58409e-08
-2.5229e-05
-9.77272e-08
-2.51307e-05
-9.95644e-08
-2.50306e-05
-1.01389e-07
-2.49286e-05
-1.03218e-07
-2.48247e-05
-1.0507e-07
-2.47189e-05
-1.06945e-07
-2.46111e-05
-1.08855e-07
-2.45014e-05
-1.10794e-07
-2.43896e-05
-1.12771e-07
-2.42758e-05
-1.14775e-07
-2.41599e-05
-1.16814e-07
-2.40419e-05
-1.18874e-07
-2.39218e-05
-1.20976e-07
-2.37995e-05
-1.23122e-07
-2.3675e-05
-1.25268e-07
-2.35483e-05
-1.27466e-07
-2.34192e-05
-1.29806e-07
-2.32877e-05
-1.32233e-07
-2.31536e-05
-1.34737e-07
-2.30169e-05
-1.37312e-07
-2.28776e-05
-1.3997e-07
-2.27354e-05
-1.42712e-07
-2.25904e-05
-1.4555e-07
-2.24424e-05
-1.48488e-07
-2.22914e-05
-1.51535e-07
-2.21371e-05
-1.54691e-07
-2.19796e-05
-1.57966e-07
-2.18187e-05
-1.61362e-07
-2.16541e-05
-1.64892e-07
-2.14859e-05
-1.68568e-07
-2.13139e-05
-1.72414e-07
-2.11378e-05
-1.76426e-07
-2.09574e-05
-1.80613e-07
-2.07727e-05
-1.84983e-07
-2.05835e-05
-1.89541e-07
-2.03894e-05
-1.9429e-07
-2.01904e-05
-1.99231e-07
-1.99862e-05
-2.04358e-07
-1.97768e-05
-2.0966e-07
-1.95618e-05
-2.15149e-07
-1.93412e-05
-2.20771e-07
-1.91149e-05
-2.26407e-07
-1.88827e-05
-2.32366e-07
-1.8644e-05
-2.38816e-07
-1.83985e-05
-2.45604e-07
-1.8146e-05
-2.52599e-07
-1.78867e-05
-2.59441e-07
-1.76208e-05
-2.66001e-07
-1.73484e-05
-2.72446e-07
-1.70695e-05
-2.78965e-07
-1.67839e-05
-2.85631e-07
-1.64915e-05
-2.9245e-07
-1.61921e-05
-2.99479e-07
-1.58853e-05
-3.06776e-07
-1.5571e-05
-3.14353e-07
-1.52488e-05
-3.22254e-07
-1.49183e-05
-3.30504e-07
-1.45791e-05
-3.39165e-07
-1.42309e-05
-3.48272e-07
-1.3873e-05
-3.57858e-07
-1.3505e-05
-3.67949e-07
-1.31264e-05
-3.78598e-07
-1.27366e-05
-3.89842e-07
-1.23348e-05
-4.01747e-07
-1.19204e-05
-4.14388e-07
-1.14925e-05
-4.27859e-07
-1.10502e-05
-4.42287e-07
-1.05923e-05
-4.57829e-07
-1.01176e-05
-4.74711e-07
-9.62429e-06
-4.93264e-07
-9.11035e-06
-5.13899e-07
-8.57318e-06
-5.37127e-07
-8.00952e-06
-5.63609e-07
-7.41539e-06
-5.94076e-07
-6.78623e-06
-6.29101e-07
-6.11728e-06
-6.68888e-07
-5.40415e-06
-7.13055e-07
-4.6441e-06
-7.59959e-07
-3.83845e-06
-8.05544e-07
-2.99729e-06
-8.41042e-07
-2.14853e-06
-8.48616e-07
-1.35517e-06
-7.93184e-07
-7.20464e-07
-6.34527e-07
-3.46564e-07
-3.73802e-07
-2.74911e-07
-7.1888e-08
-5.2968e-07
2.54258e-07
-1.42303e-06
8.9296e-07
-3.71675e-06
2.29369e-06
-9.28786e-06
5.57111e-06
1.54964e-05
-2.47843e-05
-3.13442e-05
-2.25389e-08
-3.12939e-05
-9.21092e-08
-3.12289e-05
-1.29716e-07
-3.1155e-05
-1.50263e-07
-3.10753e-05
-1.62858e-07
-3.09917e-05
-1.71364e-07
-3.09052e-05
-1.7751e-07
-3.08165e-05
-1.82335e-07
-3.07259e-05
-1.8641e-07
-3.06336e-05
-1.9008e-07
-3.05396e-05
-1.93545e-07
-3.0444e-05
-1.96916e-07
-3.03469e-05
-2.00271e-07
-3.02482e-05
-2.03636e-07
-3.01479e-05
-2.07053e-07
-3.00459e-05
-2.10518e-07
-2.99423e-05
-2.14058e-07
-2.98369e-05
-2.17659e-07
-2.97298e-05
-2.21341e-07
-2.96209e-05
-2.25085e-07
-2.95102e-05
-2.28903e-07
-2.93976e-05
-2.32767e-07
-2.92832e-05
-2.36691e-07
-2.91669e-05
-2.40708e-07
-2.90487e-05
-2.44674e-07
-2.89286e-05
-2.48657e-07
-2.88066e-05
-2.52881e-07
-2.86827e-05
-2.57213e-07
-2.85569e-05
-2.61646e-07
-2.8429e-05
-2.66184e-07
-2.8299e-05
-2.70846e-07
-2.8167e-05
-2.75638e-07
-2.80329e-05
-2.80576e-07
-2.78965e-05
-2.85669e-07
-2.77579e-05
-2.9093e-07
-2.7617e-05
-2.96362e-07
-2.74737e-05
-3.01981e-07
-2.73279e-05
-3.078e-07
-2.71796e-05
-3.1383e-07
-2.70287e-05
-3.20068e-07
-2.68752e-05
-3.26556e-07
-2.67189e-05
-3.33304e-07
-2.65597e-05
-3.40324e-07
-2.63975e-05
-3.47637e-07
-2.62323e-05
-3.55255e-07
-2.60638e-05
-3.63194e-07
-2.5892e-05
-3.71467e-07
-2.57166e-05
-3.80084e-07
-2.55376e-05
-3.89045e-07
-2.53547e-05
-3.98375e-07
-2.51678e-05
-4.08037e-07
-2.49767e-05
-4.17782e-07
-2.47818e-05
-4.27557e-07
-2.45834e-05
-4.37434e-07
-2.43819e-05
-4.47433e-07
-2.41771e-05
-4.57596e-07
-2.39689e-05
-4.67838e-07
-2.37571e-05
-4.77988e-07
-2.35417e-05
-4.88057e-07
-2.33226e-05
-4.98215e-07
-2.30999e-05
-5.08561e-07
-2.28734e-05
-5.19135e-07
-2.2643e-05
-5.29977e-07
-2.24088e-05
-5.41126e-07
-2.21707e-05
-5.52616e-07
-2.19286e-05
-5.64498e-07
-2.16824e-05
-5.76816e-07
-2.14321e-05
-5.89643e-07
-2.11774e-05
-6.03046e-07
-2.09183e-05
-6.17106e-07
-2.06545e-05
-6.31896e-07
-2.03857e-05
-6.47524e-07
-2.01115e-05
-6.64086e-07
-1.98317e-05
-6.81731e-07
-1.95456e-05
-7.00626e-07
-1.92526e-05
-7.20971e-07
-1.8952e-05
-7.43019e-07
-1.86429e-05
-7.67064e-07
-1.83243e-05
-7.93484e-07
-1.79948e-05
-8.22812e-07
-1.76532e-05
-8.5567e-07
-1.72978e-05
-8.92752e-07
-1.69266e-05
-9.34901e-07
-1.65379e-05
-9.83028e-07
-1.61293e-05
-1.03785e-06
-1.56988e-05
-1.09958e-06
-1.52448e-05
-1.16733e-06
-1.47668e-05
-1.23823e-06
-1.42669e-05
-1.30581e-06
-1.37511e-05
-1.35723e-06
-1.32317e-05
-1.36847e-06
-1.27271e-05
-1.29844e-06
-1.2273e-05
-1.08954e-06
-1.19497e-05
-6.98204e-07
-1.20195e-05
-3.13667e-09
-1.25632e-05
7.97202e-07
-1.39399e-05
2.26933e-06
-1.66716e-05
5.02537e-06
-2.17981e-05
1.06976e-05
2.65669e-05
-3.28686e-05
-3.43217e-05
-4.91668e-08
-3.42784e-05
-1.38074e-07
-3.42233e-05
-1.87473e-07
-3.41608e-05
-2.15424e-07
-3.40936e-05
-2.32724e-07
-3.40231e-05
-2.44383e-07
-3.39504e-05
-2.52715e-07
-3.3876e-05
-2.59221e-07
-3.38002e-05
-2.64639e-07
-3.37232e-05
-2.69501e-07
-3.3645e-05
-2.74041e-07
-3.35657e-05
-2.78457e-07
-3.34854e-05
-2.82823e-07
-3.3404e-05
-2.87213e-07
-3.33215e-05
-2.91656e-07
-3.32379e-05
-2.96179e-07
-3.31532e-05
-3.00797e-07
-3.30673e-05
-3.0552e-07
-3.29802e-05
-3.10358e-07
-3.28918e-05
-3.15315e-07
-3.28022e-05
-3.204e-07
-3.27111e-05
-3.25599e-07
-3.26186e-05
-3.30931e-07
-3.25245e-05
-3.36449e-07
-3.24288e-05
-3.42028e-07
-3.23315e-05
-3.47564e-07
-3.22328e-05
-3.5312e-07
-3.21328e-05
-3.58678e-07
-3.20316e-05
-3.643e-07
-3.19292e-05
-3.70019e-07
-3.18255e-05
-3.75859e-07
-3.17206e-05
-3.81831e-07
-3.16145e-05
-3.8795e-07
-3.15071e-05
-3.94226e-07
-3.13985e-05
-4.00667e-07
-3.12887e-05
-4.07279e-07
-3.11777e-05
-4.14066e-07
-3.10655e-05
-4.21044e-07
-3.09521e-05
-4.2824e-07
-3.08374e-05
-4.35614e-07
-3.07217e-05
-4.43211e-07
-3.06048e-05
-4.51042e-07
-3.04868e-05
-4.59108e-07
-3.03678e-05
-4.67433e-07
-3.02477e-05
-4.76019e-07
-3.01268e-05
-4.84878e-07
-3.00049e-05
-4.94017e-07
-2.98821e-05
-5.03442e-07
-2.97586e-05
-5.13146e-07
-2.96344e-05
-5.23106e-07
-2.95097e-05
-5.33263e-07
-2.93845e-05
-5.43541e-07
-2.92587e-05
-5.53798e-07
-2.91327e-05
-5.63879e-07
-2.90067e-05
-5.73822e-07
-2.8881e-05
-5.8374e-07
-2.87554e-05
-5.93801e-07
-2.86298e-05
-6.03921e-07
-2.85043e-05
-6.13943e-07
-2.83789e-05
-6.23919e-07
-2.82539e-05
-6.33892e-07
-2.81294e-05
-6.43904e-07
-2.80057e-05
-6.5397e-07
-2.7883e-05
-6.64089e-07
-2.77616e-05
-6.74276e-07
-2.76418e-05
-6.84547e-07
-2.75239e-05
-6.94928e-07
-2.74083e-05
-7.05442e-07
-2.72955e-05
-7.16133e-07
-2.71858e-05
-7.2707e-07
-2.70796e-05
-7.38322e-07
-2.69773e-05
-7.49999e-07
-2.68795e-05
-7.62194e-07
-2.67863e-05
-7.75085e-07
-2.66983e-05
-7.88887e-07
-2.66157e-05
-8.03857e-07
-2.65386e-05
-8.20344e-07
-2.64671e-05
-8.38749e-07
-2.64013e-05
-8.5956e-07
-2.63409e-05
-8.8349e-07
-2.62855e-05
-9.11355e-07
-2.62346e-05
-9.43995e-07
-2.61874e-05
-9.82359e-07
-2.61433e-05
-1.0274e-06
-2.61016e-05
-1.07988e-06
-2.60616e-05
-1.13996e-06
-2.60228e-05
-1.20644e-06
-2.59857e-05
-1.2756e-06
-2.59524e-05
-1.33954e-06
-2.59267e-05
-1.3833e-06
-2.59147e-05
-1.38075e-06
-2.59243e-05
-1.28926e-06
-2.5967e-05
-1.04706e-06
-2.60873e-05
-5.78196e-07
-2.62736e-05
1.83082e-07
-2.67878e-05
1.3114e-06
-2.78185e-05
3.30002e-06
-2.97485e-05
6.95529e-06
-3.33003e-05
1.42494e-05
3.11956e-05
-3.79289e-05
-3.70087e-05
-7.55859e-08
-3.69778e-05
-1.72153e-07
-3.69397e-05
-2.28738e-07
-3.68961e-05
-2.62138e-07
-3.6849e-05
-2.83023e-07
-3.67995e-05
-2.9695e-07
-3.67486e-05
-3.06738e-07
-3.66966e-05
-3.14234e-07
-3.66438e-05
-3.20335e-07
-3.65906e-05
-3.25718e-07
-3.65368e-05
-3.30654e-07
-3.64827e-05
-3.35407e-07
-3.64283e-05
-3.40051e-07
-3.63735e-05
-3.44697e-07
-3.63185e-05
-3.4936e-07
-3.62633e-05
-3.54094e-07
-3.62078e-05
-3.58897e-07
-3.6152e-05
-3.63796e-07
-3.60961e-05
-3.6879e-07
-3.604e-05
-3.73895e-07
-3.59837e-05
-3.79119e-07
-3.59272e-05
-3.84439e-07
-3.58705e-05
-3.89876e-07
-3.58138e-05
-3.95392e-07
-3.57571e-05
-4.01019e-07
-3.57e-05
-4.06736e-07
-3.56429e-05
-4.12386e-07
-3.55857e-05
-4.17973e-07
-3.55284e-05
-4.23564e-07
-3.54712e-05
-4.29203e-07
-3.5414e-05
-4.34911e-07
-3.5357e-05
-4.407e-07
-3.53002e-05
-4.46578e-07
-3.52436e-05
-4.52551e-07
-3.51874e-05
-4.5862e-07
-3.51315e-05
-4.64781e-07
-3.50761e-05
-4.7103e-07
-3.50213e-05
-4.77365e-07
-3.49673e-05
-4.83808e-07
-3.4914e-05
-4.90337e-07
-3.48616e-05
-4.96965e-07
-3.48103e-05
-5.03679e-07
-3.47602e-05
-5.10472e-07
-3.47115e-05
-5.17346e-07
-3.46645e-05
-5.24292e-07
-3.46192e-05
-5.31295e-07
-3.45759e-05
-5.38344e-07
-3.4535e-05
-5.45418e-07
-3.44966e-05
-5.52488e-07
-3.44612e-05
-5.59502e-07
-3.4429e-05
-5.66365e-07
-3.44002e-05
-5.7316e-07
-3.43747e-05
-5.80077e-07
-3.43524e-05
-5.86972e-07
-3.43333e-05
-5.9368e-07
-3.43175e-05
-6.00237e-07
-3.43052e-05
-6.06697e-07
-3.42968e-05
-6.12967e-07
-3.42924e-05
-6.18911e-07
-3.42924e-05
-6.2453e-07
-3.4297e-05
-6.29823e-07
-3.43066e-05
-6.34794e-07
-3.43215e-05
-6.39476e-07
-3.43422e-05
-6.43878e-07
-3.43689e-05
-6.48009e-07
-3.44019e-05
-6.51887e-07
-3.44417e-05
-6.55541e-07
-3.44885e-05
-6.59013e-07
-3.45426e-05
-6.62372e-07
-3.46042e-05
-6.65711e-07
-3.46737e-05
-6.69147e-07
-3.47512e-05
-6.72852e-07
-3.48366e-05
-6.77018e-07
-3.493e-05
-6.81911e-07
-3.50313e-05
-6.87859e-07
-3.51401e-05
-6.95259e-07
-3.52561e-05
-7.04614e-07
-3.53785e-05
-7.16504e-07
-3.55068e-05
-7.31518e-07
-3.56399e-05
-7.50548e-07
-3.57768e-05
-7.74593e-07
-3.59164e-05
-8.04552e-07
-3.60575e-05
-8.41403e-07
-3.6199e-05
-8.86045e-07
-3.63399e-05
-9.39065e-07
-3.64797e-05
-1.00032e-06
-3.66181e-05
-1.06815e-06
-3.67556e-05
-1.1381e-06
-3.68939e-05
-1.20135e-06
-3.70349e-05
-1.24233e-06
-3.71806e-05
-1.23509e-06
-3.73303e-05
-1.13964e-06
-3.74835e-05
-8.93902e-07
-3.76379e-05
-4.23765e-07
-3.78008e-05
3.45958e-07
-3.81037e-05
1.61427e-06
-3.86663e-05
3.86266e-06
-3.9661e-05
7.94996e-06
-4.12715e-05
1.58599e-05
3.12602e-05
-4.13361e-05
-3.9714e-05
-9.50982e-08
-3.97006e-05
-1.89121e-07
-3.9686e-05
-2.46971e-07
-3.96694e-05
-2.82377e-07
-3.96514e-05
-3.04765e-07
-3.96326e-05
-3.19415e-07
-3.96134e-05
-3.29511e-07
-3.95943e-05
-3.36938e-07
-3.95754e-05
-3.42795e-07
-3.95569e-05
-3.4775e-07
-3.95389e-05
-3.52174e-07
-3.95214e-05
-3.56304e-07
-3.95046e-05
-3.60267e-07
-3.94886e-05
-3.64148e-07
-3.94733e-05
-3.67991e-07
-3.94589e-05
-3.71823e-07
-3.94454e-05
-3.75658e-07
-3.94329e-05
-3.79502e-07
-3.94215e-05
-3.83361e-07
-3.94113e-05
-3.87235e-07
-3.94024e-05
-3.91141e-07
-3.93949e-05
-3.95018e-07
-3.93889e-05
-3.98864e-07
-3.93846e-05
-4.02658e-07
-3.93821e-05
-4.0645e-07
-3.93813e-05
-4.10393e-07
-3.93821e-05
-4.14429e-07
-3.93845e-05
-4.18421e-07
-3.93884e-05
-4.22364e-07
-3.93941e-05
-4.26276e-07
-3.94015e-05
-4.30171e-07
-3.94108e-05
-4.34054e-07
-3.9422e-05
-4.3793e-07
-3.94353e-05
-4.41796e-07
-3.94507e-05
-4.4565e-07
-3.94685e-05
-4.49479e-07
-3.94886e-05
-4.53279e-07
-3.95113e-05
-4.5705e-07
-3.95366e-05
-4.60779e-07
-3.95647e-05
-4.64466e-07
-3.95957e-05
-4.68122e-07
-3.96298e-05
-4.71718e-07
-3.96671e-05
-4.7525e-07
-3.97077e-05
-4.7872e-07
-3.97519e-05
-4.8212e-07
-3.97997e-05
-4.85437e-07
-3.98512e-05
-4.88664e-07
-3.99066e-05
-4.91791e-07
-3.9966e-05
-4.948e-07
-4.00295e-05
-4.97665e-07
-4.00972e-05
-5.00352e-07
-4.0169e-05
-5.02907e-07
-4.02451e-05
-5.05431e-07
-4.03257e-05
-5.07839e-07
-4.04107e-05
-5.10046e-07
-4.05001e-05
-5.12069e-07
-4.05942e-05
-5.13917e-07
-4.06928e-05
-5.15506e-07
-4.07961e-05
-5.16732e-07
-4.09041e-05
-5.17598e-07
-4.10168e-05
-5.18132e-07
-4.11341e-05
-5.18376e-07
-4.12561e-05
-5.18372e-07
-4.13827e-05
-5.18157e-07
-4.15137e-05
-5.17775e-07
-4.1649e-05
-5.17264e-07
-4.17885e-05
-5.1668e-07
-4.19321e-05
-5.16087e-07
-4.20794e-05
-5.15573e-07
-4.22304e-05
-5.15249e-07
-4.23848e-05
-5.15251e-07
-4.25423e-05
-5.15754e-07
-4.27027e-05
-5.16968e-07
-4.28658e-05
-5.19163e-07
-4.30313e-05
-5.22676e-07
-4.3199e-05
-5.27905e-07
-4.33685e-05
-5.35335e-07
-4.35396e-05
-5.45634e-07
-4.3712e-05
-5.59261e-07
-4.38856e-05
-5.7713e-07
-4.40599e-05
-6.00376e-07
-4.42348e-05
-6.29782e-07
-4.441e-05
-6.66277e-07
-4.45855e-05
-7.10672e-07
-4.47612e-05
-7.63402e-07
-4.49374e-05
-8.2421e-07
-4.51143e-05
-8.91347e-07
-4.52922e-05
-9.6022e-07
-4.54715e-05
-1.02205e-06
-4.56518e-05
-1.06202e-06
-4.58306e-05
-1.05637e-06
-4.60007e-05
-9.69536e-07
-4.61472e-05
-7.47336e-07
-4.62506e-05
-3.204e-07
-4.63148e-05
4.10096e-07
-4.63776e-05
1.67711e-06
-4.64552e-05
3.94025e-06
-4.65473e-05
8.04209e-06
-4.63297e-05
1.56423e-05
2.8435e-05
-4.35045e-05
-4.25724e-05
-1.01002e-07
-4.25814e-05
-1.84189e-07
-4.25957e-05
-2.36643e-07
-4.26128e-05
-2.69457e-07
-4.26314e-05
-2.90209e-07
-4.26515e-05
-3.03438e-07
-4.26729e-05
-3.12214e-07
-4.26956e-05
-3.18261e-07
-4.27197e-05
-3.22715e-07
-4.27453e-05
-3.26184e-07
-4.27724e-05
-3.29076e-07
-4.28011e-05
-3.31593e-07
-4.28315e-05
-3.3389e-07
-4.28635e-05
-3.36025e-07
-4.28974e-05
-3.38062e-07
-4.29331e-05
-3.40009e-07
-4.29708e-05
-3.41892e-07
-4.30105e-05
-3.43703e-07
-4.30523e-05
-3.45453e-07
-4.30962e-05
-3.47135e-07
-4.31424e-05
-3.48797e-07
-4.31908e-05
-3.50352e-07
-4.32418e-05
-3.51742e-07
-4.32951e-05
-3.53077e-07
-4.33509e-05
-3.54422e-07
-4.34092e-05
-3.55818e-07
-4.34701e-05
-3.57232e-07
-4.35336e-05
-3.58579e-07
-4.35998e-05
-3.59844e-07
-4.36687e-05
-3.61033e-07
-4.37403e-05
-3.62158e-07
-4.38148e-05
-3.63226e-07
-4.3892e-05
-3.64248e-07
-4.39722e-05
-3.65222e-07
-4.40552e-05
-3.66155e-07
-4.41412e-05
-3.67035e-07
-4.42301e-05
-3.67869e-07
-4.43219e-05
-3.68665e-07
-4.44167e-05
-3.69415e-07
-4.45145e-05
-3.70107e-07
-4.46152e-05
-3.70775e-07
-4.47189e-05
-3.7141e-07
-4.48254e-05
-3.72009e-07
-4.49348e-05
-3.72583e-07
-4.50471e-05
-3.73134e-07
-4.5162e-05
-3.73661e-07
-4.52797e-05
-3.74161e-07
-4.54e-05
-3.74635e-07
-4.55228e-05
-3.75078e-07
-4.5648e-05
-3.75468e-07
-4.57755e-05
-3.75799e-07
-4.59052e-05
-3.76097e-07
-4.60371e-05
-3.76418e-07
-4.6171e-05
-3.76706e-07
-4.63068e-05
-3.7694e-07
-4.64444e-05
-3.77161e-07
-4.65835e-05
-3.77368e-07
-4.67241e-05
-3.77435e-07
-4.6866e-05
-3.77246e-07
-4.70092e-05
-3.7679e-07
-4.71535e-05
-3.76101e-07
-4.72988e-05
-3.75225e-07
-4.74451e-05
-3.74192e-07
-4.75923e-05
-3.73026e-07
-4.77402e-05
-3.71773e-07
-4.78888e-05
-3.70441e-07
-4.80382e-05
-3.69078e-07
-4.81882e-05
-3.67739e-07
-4.83388e-05
-3.66492e-07
-4.84901e-05
-3.65435e-07
-4.86421e-05
-3.64693e-07
-4.87947e-05
-3.64422e-07
-4.8948e-05
-3.64813e-07
-4.91022e-05
-3.66133e-07
-4.92572e-05
-3.6872e-07
-4.94131e-05
-3.72972e-07
-4.957e-05
-3.79358e-07
-4.97279e-05
-3.88535e-07
-4.98869e-05
-4.01003e-07
-5.00472e-05
-4.1746e-07
-5.02093e-05
-4.38907e-07
-5.03734e-05
-4.66265e-07
-5.05396e-05
-5.00491e-07
-5.07084e-05
-5.42352e-07
-5.088e-05
-5.92204e-07
-5.10547e-05
-6.49782e-07
-5.12328e-05
-7.13567e-07
-5.1414e-05
-7.79244e-07
-5.15977e-05
-8.38578e-07
-5.17814e-05
-8.78473e-07
-5.19594e-05
-8.78498e-07
-5.21202e-05
-8.08833e-07
-5.22398e-05
-6.27808e-07
-5.22902e-05
-2.70031e-07
-5.22539e-05
3.73707e-07
-5.21008e-05
1.52399e-06
-5.17505e-05
3.58998e-06
-5.10328e-05
7.32431e-06
-4.93312e-05
1.39407e-05
2.38439e-05
-4.47402e-05
-4.55207e-05
-9.15358e-08
-4.55536e-05
-1.55557e-07
-4.55973e-05
-1.97125e-07
-4.56475e-05
-2.23553e-07
-4.57019e-05
-2.40043e-07
-4.57594e-05
-2.50121e-07
-4.58196e-05
-2.56355e-07
-4.58819e-05
-2.60164e-07
-4.59463e-05
-2.62545e-07
-4.60127e-05
-2.64029e-07
-4.6081e-05
-2.64972e-07
-4.61512e-05
-2.65555e-07
-4.62234e-05
-2.65923e-07
-4.62975e-05
-2.66128e-07
-4.63736e-05
-2.66237e-07
-4.64516e-05
-2.66256e-07
-4.65315e-05
-2.66219e-07
-4.66133e-05
-2.66116e-07
-4.66971e-05
-2.6597e-07
-4.67827e-05
-2.65771e-07
-4.68702e-05
-2.65573e-07
-4.69596e-05
-2.65307e-07
-4.70509e-05
-2.64853e-07
-4.71441e-05
-2.64213e-07
-4.72394e-05
-2.63491e-07
-4.73369e-05
-2.62752e-07
-4.74365e-05
-2.62012e-07
-4.75383e-05
-2.61232e-07
-4.76421e-05
-2.60407e-07
-4.7748e-05
-2.5954e-07
-4.7856e-05
-2.58657e-07
-4.79659e-05
-2.57761e-07
-4.80777e-05
-2.56885e-07
-4.81914e-05
-2.56027e-07
-4.83068e-05
-2.55209e-07
-4.8424e-05
-2.54417e-07
-4.85427e-05
-2.53679e-07
-4.86629e-05
-2.52982e-07
-4.87846e-05
-2.52354e-07
-4.89075e-05
-2.51785e-07
-4.90316e-05
-2.51297e-07
-4.91568e-05
-2.50887e-07
-4.92829e-05
-2.50561e-07
-4.94098e-05
-2.50321e-07
-4.95375e-05
-2.50175e-07
-4.96658e-05
-2.50115e-07
-4.97946e-05
-2.50136e-07
-4.99238e-05
-2.50225e-07
-5.00533e-05
-2.50397e-07
-5.0183e-05
-2.50602e-07
-5.03128e-05
-2.50855e-07
-5.04427e-05
-2.51134e-07
-5.05725e-05
-2.51484e-07
-5.07023e-05
-2.51842e-07
-5.08319e-05
-2.5218e-07
-5.09614e-05
-2.5258e-07
-5.10907e-05
-2.53058e-07
-5.12196e-05
-2.53421e-07
-5.13483e-05
-2.53483e-07
-5.14767e-05
-2.53225e-07
-5.1605e-05
-2.52685e-07
-5.17332e-05
-2.51911e-07
-5.18613e-05
-2.50914e-07
-5.19893e-05
-2.49703e-07
-5.21175e-05
-2.48307e-07
-5.22459e-05
-2.4673e-07
-5.23745e-05
-2.44995e-07
-5.25037e-05
-2.43144e-07
-5.26333e-05
-2.41234e-07
-5.27638e-05
-2.3935e-07
-5.28951e-05
-2.37601e-07
-5.30275e-05
-2.36131e-07
-5.31612e-05
-2.35126e-07
-5.32965e-05
-2.34827e-07
-5.34334e-05
-2.35571e-07
-5.35723e-05
-2.37758e-07
-5.37134e-05
-2.41833e-07
-5.38571e-05
-2.48264e-07
-5.40036e-05
-2.57764e-07
-5.4153e-05
-2.71243e-07
-5.43054e-05
-2.89473e-07
-5.44613e-05
-3.13202e-07
-5.46211e-05
-3.43356e-07
-5.47853e-05
-3.80676e-07
-5.49544e-05
-4.25481e-07
-5.51288e-05
-4.77541e-07
-5.53085e-05
-5.35922e-07
-5.54926e-05
-5.9702e-07
-5.56795e-05
-6.53366e-07
-5.58652e-05
-6.94317e-07
-5.60414e-05
-7.03694e-07
-5.61932e-05
-6.58169e-07
-5.62924e-05
-5.29551e-07
-5.63016e-05
-2.61473e-07
-5.61769e-05
2.48409e-07
-5.58384e-05
1.18504e-06
-5.51239e-05
2.87482e-06
-5.37237e-05
5.92339e-06
-5.09137e-05
1.11297e-05
1.82283e-05
-4.52994e-05
-4.81892e-05
-6.96168e-08
-4.82388e-05
-1.09957e-07
-4.83017e-05
-1.38182e-07
-4.83731e-05
-1.561e-07
-4.845e-05
-1.67014e-07
-4.85307e-05
-1.7333e-07
-4.86141e-05
-1.76824e-07
-4.86996e-05
-1.78542e-07
-4.87868e-05
-1.79184e-07
-4.88755e-05
-1.7915e-07
-4.89656e-05
-1.78706e-07
-4.90569e-05
-1.77988e-07
-4.91495e-05
-1.77106e-07
-4.92433e-05
-1.76106e-07
-4.93383e-05
-1.75037e-07
-4.94344e-05
-1.73912e-07
-4.95316e-05
-1.72755e-07
-4.96299e-05
-1.71562e-07
-4.97293e-05
-1.70353e-07
-4.98298e-05
-1.69116e-07
-4.99313e-05
-1.67825e-07
-5.0034e-05
-1.66482e-07
-5.01375e-05
-1.65156e-07
-5.02418e-05
-1.63793e-07
-5.03468e-05
-1.62405e-07
-5.04524e-05
-1.61027e-07
-5.05587e-05
-1.59701e-07
-5.06654e-05
-1.58404e-07
-5.07727e-05
-1.57145e-07
-5.08803e-05
-1.55915e-07
-5.09883e-05
-1.54757e-07
-5.10965e-05
-1.53647e-07
-5.12049e-05
-1.5264e-07
-5.13134e-05
-1.51713e-07
-5.1422e-05
-1.50905e-07
-5.15306e-05
-1.50175e-07
-5.16391e-05
-1.49572e-07
-5.17475e-05
-1.49048e-07
-5.18557e-05
-1.48654e-07
-5.19638e-05
-1.48366e-07
-5.20716e-05
-1.48192e-07
-5.21792e-05
-1.48126e-07
-5.22865e-05
-1.48162e-07
-5.23935e-05
-1.48303e-07
-5.25002e-05
-1.48543e-07
-5.26067e-05
-1.48871e-07
-5.27129e-05
-1.49269e-07
-5.28189e-05
-1.49722e-07
-5.29247e-05
-1.50228e-07
-5.30302e-05
-1.50753e-07
-5.31357e-05
-1.5129e-07
-5.3241e-05
-1.51807e-07
-5.33463e-05
-1.52315e-07
-5.34517e-05
-1.52766e-07
-5.35572e-05
-1.53108e-07
-5.36629e-05
-1.53452e-07
-5.37688e-05
-1.53925e-07
-5.38749e-05
-1.54235e-07
-5.39814e-05
-1.54096e-07
-5.40884e-05
-1.53491e-07
-5.41959e-05
-1.52501e-07
-5.43042e-05
-1.51179e-07
-5.44134e-05
-1.49538e-07
-5.45234e-05
-1.47581e-07
-5.46344e-05
-1.45302e-07
-5.47467e-05
-1.42709e-07
-5.48602e-05
-1.39817e-07
-5.49752e-05
-1.36649e-07
-5.50919e-05
-1.33251e-07
-5.52104e-05
-1.29693e-07
-5.53308e-05
-1.26073e-07
-5.54535e-05
-1.2252e-07
-5.55786e-05
-1.19219e-07
-5.57064e-05
-1.16373e-07
-5.5837e-05
-1.1432e-07
-5.59708e-05
-1.1346e-07
-5.6108e-05
-1.14196e-07
-5.62489e-05
-1.16965e-07
-5.63939e-05
-1.2247e-07
-5.65432e-05
-1.31695e-07
-5.66969e-05
-1.45504e-07
-5.68556e-05
-1.64371e-07
-5.70196e-05
-1.89185e-07
-5.71895e-05
-2.2069e-07
-5.73656e-05
-2.59251e-07
-5.75484e-05
-3.04587e-07
-5.77375e-05
-3.56659e-07
-5.7931e-05
-4.13275e-07
-5.81266e-05
-4.67363e-07
-5.83189e-05
-5.11479e-07
-5.84977e-05
-5.3411e-07
-5.86451e-05
-5.19504e-07
-5.87336e-05
-4.49262e-07
-5.87147e-05
-2.87863e-07
-5.85196e-05
4.68745e-08
-5.80362e-05
6.95342e-07
-5.70371e-05
1.86871e-06
-5.51156e-05
3.9932e-06
-5.1536e-05
7.53869e-06
1.20534e-05
-4.53749e-05
-5.0214e-05
-3.60333e-08
-5.02708e-05
-5.602e-08
-5.03412e-05
-7.05679e-08
-5.04204e-05
-7.97027e-08
-5.05049e-05
-8.51088e-08
-5.05927e-05
-8.81162e-08
-5.06825e-05
-8.95941e-08
-5.07735e-05
-9.01293e-08
-5.0865e-05
-9.00845e-08
-5.09569e-05
-8.96585e-08
-5.1049e-05
-8.90123e-08
-5.11411e-05
-8.82119e-08
-5.12332e-05
-8.7324e-08
-5.13251e-05
-8.63756e-08
-5.1417e-05
-8.5397e-08
-5.15087e-05
-8.43945e-08
-5.16002e-05
-8.33834e-08
-5.16915e-05
-8.23627e-08
-5.17825e-05
-8.13421e-08
-5.18733e-05
-8.03145e-08
-5.19639e-05
-7.92381e-08
-5.20542e-05
-7.81513e-08
-5.21441e-05
-7.71931e-08
-5.22335e-05
-7.63534e-08
-5.23223e-05
-7.55793e-08
-5.24105e-05
-7.48513e-08
-5.24981e-05
-7.4184e-08
-5.25851e-05
-7.3558e-08
-5.26714e-05
-7.2977e-08
-5.27571e-05
-7.24312e-08
-5.28422e-05
-7.1951e-08
-5.29267e-05
-7.15191e-08
-5.30106e-05
-7.11682e-08
-5.30939e-05
-7.08833e-08
-5.31767e-05
-7.06874e-08
-5.3259e-05
-7.05495e-08
-5.33409e-05
-7.04945e-08
-5.34224e-05
-7.04795e-08
-5.35034e-05
-7.05586e-08
-5.35842e-05
-7.06813e-08
-5.36647e-05
-7.08765e-08
-5.37451e-05
-7.1124e-08
-5.38253e-05
-7.1407e-08
-5.39054e-05
-7.17415e-08
-5.39855e-05
-7.21084e-08
-5.40657e-05
-7.24944e-08
-5.41461e-05
-7.28853e-08
-5.42267e-05
-7.32772e-08
-5.43075e-05
-7.36237e-08
-5.43887e-05
-7.39259e-08
-5.44704e-05
-7.41574e-08
-5.45527e-05
-7.43158e-08
-5.46355e-05
-7.43633e-08
-5.47191e-05
-7.42649e-08
-5.48035e-05
-7.39412e-08
-5.48889e-05
-7.34793e-08
-5.49752e-05
-7.32949e-08
-5.50624e-05
-7.29296e-08
-5.51507e-05
-7.19105e-08
-5.52403e-05
-7.02445e-08
-5.53313e-05
-6.81036e-08
-5.54237e-05
-6.55544e-08
-5.55178e-05
-6.26092e-08
-5.56135e-05
-5.92543e-08
-5.57111e-05
-5.54727e-08
-5.58106e-05
-5.1264e-08
-5.59122e-05
-4.66359e-08
-5.6016e-05
-4.16009e-08
-5.61222e-05
-3.61929e-08
-5.6231e-05
-3.04697e-08
-5.63425e-05
-2.45165e-08
-5.6457e-05
-1.84484e-08
-5.65746e-05
-1.24337e-08
-5.66956e-05
-6.68556e-09
-5.68203e-05
-1.48393e-09
-5.6949e-05
2.82945e-09
-5.70819e-05
5.7969e-09
-5.72195e-05
6.98333e-09
-5.73618e-05
5.70156e-09
-5.75097e-05
1.31283e-09
-5.76633e-05
-7.36627e-09
-5.78234e-05
-2.05267e-08
-5.79905e-05
-3.9189e-08
-5.8165e-05
-6.40417e-08
-5.83475e-05
-9.57034e-08
-5.85383e-05
-1.33613e-07
-5.87375e-05
-1.78562e-07
-5.89416e-05
-2.31529e-07
-5.91487e-05
-2.84064e-07
-5.93524e-05
-3.33102e-07
-5.95416e-05
-3.71909e-07
-5.96974e-05
-3.9249e-07
-5.97918e-05
-3.85289e-07
-5.97748e-05
-3.36804e-07
-5.95613e-05
-2.00069e-07
-5.89989e-05
9.91267e-08
-5.78331e-05
6.66968e-07
-5.55906e-05
1.70884e-06
-5.15463e-05
3.44308e-06
5.57773e-06
-4.51305e-05
-5.11857e-05
3.37024e-09
-5.1242e-05
-5.88798e-10
-5.13112e-05
-2.15318e-09
-5.13887e-05
-2.95751e-09
-5.14709e-05
-3.5212e-09
-5.15557e-05
-3.97058e-09
-5.16416e-05
-4.32129e-09
-5.17277e-05
-4.59604e-09
-5.18135e-05
-4.83204e-09
-5.18987e-05
-5.00108e-09
-5.19831e-05
-5.14875e-09
-5.20665e-05
-5.25987e-09
-5.2149e-05
-5.34262e-09
-5.22304e-05
-5.41303e-09
-5.23108e-05
-5.46298e-09
-5.23901e-05
-5.50058e-09
-5.24685e-05
-5.51829e-09
-5.25457e-05
-5.52206e-09
-5.2622e-05
-5.50402e-09
-5.26973e-05
-5.4619e-09
-5.27716e-05
-5.37123e-09
-5.2845e-05
-5.27781e-09
-5.29174e-05
-5.24834e-09
-5.2989e-05
-5.28824e-09
-5.30598e-05
-5.35107e-09
-5.31298e-05
-5.42839e-09
-5.31991e-05
-5.514e-09
-5.32677e-05
-5.5964e-09
-5.33357e-05
-5.6594e-09
-5.34031e-05
-5.71599e-09
-5.347e-05
-5.76299e-09
-5.35365e-05
-5.83093e-09
-5.36026e-05
-5.90776e-09
-5.36683e-05
-6.00544e-09
-5.37337e-05
-6.10862e-09
-5.37989e-05
-6.23948e-09
-5.3864e-05
-6.36358e-09
-5.3929e-05
-6.49581e-09
-5.39939e-05
-6.64502e-09
-5.40588e-05
-6.7815e-09
-5.41238e-05
-6.92251e-09
-5.4189e-05
-7.05538e-09
-5.42543e-05
-7.16471e-09
-5.43199e-05
-7.25353e-09
-5.43859e-05
-7.31332e-09
-5.44522e-05
-7.32553e-09
-5.45191e-05
-7.27905e-09
-5.45864e-05
-7.16733e-09
-5.46544e-05
-6.94288e-09
-5.4723e-05
-6.60767e-09
-5.47924e-05
-6.13633e-09
-5.48625e-05
-5.52141e-09
-5.49336e-05
-4.7184e-09
-5.50056e-05
-3.68577e-09
-5.50786e-05
-2.37346e-09
-5.5153e-05
-5.85713e-10
-5.52284e-05
5.69418e-10
-5.53048e-05
1.84422e-09
-5.53824e-05
4.06891e-09
-5.54616e-05
7.16614e-09
-5.55423e-05
1.07933e-08
-5.56247e-05
1.48728e-08
-5.57087e-05
1.94192e-08
-5.57946e-05
2.44666e-08
-5.58824e-05
3.00326e-08
-5.59723e-05
3.61297e-08
-5.60643e-05
4.27621e-08
-5.61587e-05
4.99275e-08
-5.62555e-05
5.76018e-08
-5.6355e-05
6.57401e-08
-5.64573e-05
7.42727e-08
-5.65627e-05
8.31014e-08
-5.66714e-05
9.20806e-08
-5.67835e-05
1.00987e-07
-5.68995e-05
1.09609e-07
-5.70196e-05
1.17668e-07
-5.71441e-05
1.24722e-07
-5.72735e-05
1.30295e-07
-5.74081e-05
1.33727e-07
-5.75482e-05
1.3437e-07
-5.76947e-05
1.31509e-07
-5.78479e-05
1.24553e-07
-5.80084e-05
1.12649e-07
-5.81766e-05
9.50654e-08
-5.83531e-05
7.12426e-08
-5.85371e-05
4.04142e-08
-5.87305e-05
4.45482e-09
-5.89275e-05
-4.57422e-08
-5.91277e-05
-9.63157e-08
-5.93242e-05
-1.50837e-07
-5.95056e-05
-2.06953e-07
-5.96538e-05
-2.63368e-07
-5.97397e-05
-3.22076e-07
-5.97177e-05
-3.85816e-07
-5.94981e-05
-4.52713e-07
-5.89196e-05
-5.1987e-07
-5.77022e-05
-5.97123e-07
-5.53462e-05
-6.97858e-07
-5.11197e-05
-8.35341e-07
-9.60616e-07
-4.46281e-05
-5.07485e-05
4.14078e-08
-5.08033e-05
5.5495e-08
-5.0872e-05
6.75815e-08
-5.09491e-05
7.52821e-08
-5.10314e-05
7.97375e-08
-5.11164e-05
8.20227e-08
-5.12028e-05
8.2976e-08
-5.12896e-05
8.31227e-08
-5.13763e-05
8.27848e-08
-5.14627e-05
8.2166e-08
-5.15484e-05
8.13808e-08
-5.16334e-05
8.04901e-08
-5.17176e-05
7.95613e-08
-5.18009e-05
7.85899e-08
-5.18833e-05
7.76189e-08
-5.19647e-05
7.66424e-08
-5.20453e-05
7.56875e-08
-5.21249e-05
7.47463e-08
-5.22036e-05
7.3841e-08
-5.22813e-05
7.29678e-08
-5.23582e-05
7.21469e-08
-5.24341e-05
7.13386e-08
-5.25092e-05
7.05186e-08
-5.25835e-05
6.9672e-08
-5.2657e-05
6.88383e-08
-5.27297e-05
6.80156e-08
-5.28017e-05
6.7221e-08
-5.28729e-05
6.64664e-08
-5.29435e-05
6.57836e-08
-5.30135e-05
6.51497e-08
-5.30829e-05
6.45777e-08
-5.31518e-05
6.4022e-08
-5.32202e-05
6.35131e-08
-5.32882e-05
6.30275e-08
-5.33558e-05
6.25948e-08
-5.3423e-05
6.2181e-08
-5.34899e-05
6.18345e-08
-5.35566e-05
6.15102e-08
-5.36232e-05
6.12672e-08
-5.36896e-05
6.10607e-08
-5.3756e-05
6.0931e-08
-5.38223e-05
6.08686e-08
-5.38887e-05
6.08712e-08
-5.39552e-05
6.09702e-08
-5.40219e-05
6.11639e-08
-5.40889e-05
6.14691e-08
-5.41561e-05
6.18993e-08
-5.42237e-05
6.24697e-08
-5.42918e-05
6.32088e-08
-5.43603e-05
6.41305e-08
-5.44295e-05
6.52513e-08
-5.44992e-05
6.65923e-08
-5.45697e-05
6.81888e-08
-5.46409e-05
7.00704e-08
-5.47129e-05
7.23103e-08
-5.47855e-05
7.48129e-08
-5.48593e-05
7.72065e-08
-5.49345e-05
7.9966e-08
-5.50108e-05
8.35392e-08
-5.50883e-05
8.79031e-08
-5.5167e-05
9.29008e-08
-5.5247e-05
9.84762e-08
-5.53285e-05
1.04636e-07
-5.54115e-05
1.11411e-07
-5.54961e-05
1.18821e-07
-5.55825e-05
1.26885e-07
-5.56708e-05
1.3562e-07
-5.5761e-05
1.45043e-07
-5.58534e-05
1.5514e-07
-5.59481e-05
1.65877e-07
-5.60453e-05
1.77211e-07
-5.61452e-05
1.89064e-07
-5.62479e-05
2.01311e-07
-5.63537e-05
2.13772e-07
-5.64629e-05
2.2625e-07
-5.65758e-05
2.38477e-07
-5.66925e-05
2.50071e-07
-5.68136e-05
2.60576e-07
-5.69394e-05
2.69425e-07
-5.70703e-05
2.7601e-07
-5.72069e-05
2.79699e-07
-5.73495e-05
2.79825e-07
-5.74988e-05
2.75559e-07
-5.7655e-05
2.66185e-07
-5.78185e-05
2.50939e-07
-5.79893e-05
2.28753e-07
-5.81643e-05
1.9865e-07
-5.83466e-05
1.57827e-07
-5.85279e-05
1.09097e-07
-5.87005e-05
4.90744e-08
-5.88536e-05
-2.27369e-08
-5.89715e-05
-1.10765e-07
-5.9025e-05
-2.29793e-07
-5.89665e-05
-4.01015e-07
-5.8712e-05
-6.58866e-07
-5.81062e-05
-1.07186e-06
-5.68703e-05
-1.77328e-06
-5.45169e-05
-2.9856e-06
-5.03432e-05
-4.93841e-06
-7.27659e-06
-4.39579e-05
-4.91521e-05
7.05758e-08
-4.92038e-05
1.10012e-07
-4.92698e-05
1.36336e-07
-4.9345e-05
1.53207e-07
-4.9426e-05
1.63423e-07
-4.95106e-05
1.69282e-07
-4.95975e-05
1.72513e-07
-4.96859e-05
1.74088e-07
-4.97752e-05
1.74721e-07
-4.98652e-05
1.74721e-07
-4.99557e-05
1.74393e-07
-5.00465e-05
1.73805e-07
-5.01375e-05
1.73091e-07
-5.02287e-05
1.72271e-07
-5.032e-05
1.71396e-07
-5.04114e-05
1.70469e-07
-5.05027e-05
1.69522e-07
-5.0594e-05
1.6855e-07
-5.06853e-05
1.67576e-07
-5.07764e-05
1.66593e-07
-5.08674e-05
1.65614e-07
-5.09582e-05
1.64613e-07
-5.10487e-05
1.63581e-07
-5.1139e-05
1.62499e-07
-5.1229e-05
1.61399e-07
-5.13187e-05
1.60275e-07
-5.1408e-05
1.59146e-07
-5.14969e-05
1.58034e-07
-5.15853e-05
1.56981e-07
-5.16734e-05
1.5597e-07
-5.1761e-05
1.54996e-07
-5.18481e-05
1.54036e-07
-5.19348e-05
1.53107e-07
-5.2021e-05
1.52204e-07
-5.21067e-05
1.51349e-07
-5.21919e-05
1.50533e-07
-5.22766e-05
1.49779e-07
-5.23608e-05
1.49067e-07
-5.24446e-05