/*--------------------------------*- C++ -*----------------------------------*\
| =========                 |                                                 |
| \\      /  F ield         | OpenFOAM: The Open Source CFD Toolbox           |
|  \\    /   O peration     | Version:  2.1.0                                 |
|   \\  /    A nd           | Web:      www.OpenFOAM.org                      |
|    \\/     M anipulation  |                                                 |
\*---------------------------------------------------------------------------*/
FoamFile
{
    version     2.0;
    format      ascii;
    class       volScalarField;
    location    "0.45";
    object      rho;
}
// * * * * * * * * * * * * * * * * * * * * * * * * * * * * * * * * * * * * * //

dimensions      [1 -3 0 0 0 0 0];

internalField   nonuniform List<scalar> 
6400
(
946.663
946.598
946.534
946.472
946.411
946.351
946.294
946.238
946.183
946.13
946.079
946.029
945.981
945.934
945.888
945.844
945.801
945.76
945.72
945.681
945.644
945.608
945.573
945.54
945.508
945.477
945.447
945.419
945.391
945.365
945.34
945.316
945.293
945.271
945.25
945.23
945.212
945.194
945.177
945.161
945.145
945.131
945.118
945.105
945.093
945.082
945.072
945.062
945.053
945.045
945.037
945.03
945.024
945.018
945.013
945.009
945.005
945.001
944.998
944.995
944.993
944.992
944.99
944.99
944.989
944.989
944.99
944.991
944.992
944.994
944.997
945
945.003
945.007
945.012
945.017
945.024
945.031
945.039
945.048
945.058
945.07
945.084
945.101
945.12
945.145
945.175
945.216
945.271
945.351
945.477
945.694
946.11
946.954
948.097
945.925
944.6
944.555
944.555
944.555
946.902
946.834
946.764
946.696
946.628
946.562
946.498
946.434
946.372
946.312
946.252
946.195
946.138
946.083
946.03
945.977
945.926
945.877
945.828
945.781
945.736
945.691
945.648
945.606
945.566
945.527
945.489
945.453
945.417
945.383
945.351
945.319
945.289
945.26
945.232
945.206
945.18
945.156
945.133
945.111
945.09
945.07
945.051
945.033
945.016
945
944.985
944.971
944.958
944.946
944.934
944.923
944.913
944.904
944.895
944.887
944.879
944.872
944.866
944.86
944.855
944.849
944.845
944.841
944.837
944.833
944.83
944.827
944.824
944.821
944.819
944.817
944.815
944.813
944.811
944.809
944.808
944.807
944.806
944.805
944.804
944.804
944.804
944.804
944.805
944.806
944.807
944.808
944.81
944.811
944.811
944.807
944.794
944.762
944.699
944.612
944.558
944.555
944.555
944.555
947.323
947.249
947.172
947.096
947.02
946.944
946.871
946.798
946.726
946.656
946.587
946.519
946.452
946.387
946.323
946.261
946.199
946.139
946.081
946.023
945.967
945.912
945.859
945.806
945.755
945.706
945.657
945.61
945.565
945.521
945.478
945.436
945.396
945.358
945.32
945.284
945.25
945.217
945.185
945.154
945.125
945.097
945.07
945.045
945.021
944.998
944.976
944.955
944.935
944.917
944.899
944.883
944.867
944.853
944.839
944.826
944.814
944.803
944.792
944.782
944.773
944.764
944.756
944.748
944.741
944.734
944.727
944.721
944.715
944.709
944.703
944.698
944.692
944.687
944.681
944.676
944.67
944.664
944.659
944.653
944.647
944.641
944.635
944.628
944.622
944.615
944.609
944.602
944.595
944.589
944.582
944.576
944.57
944.565
944.56
944.558
944.555
944.555
944.555
944.555
948.002
947.921
947.835
947.748
947.661
947.575
947.49
947.405
947.321
947.238
947.157
947.076
946.997
946.919
946.842
946.766
946.691
946.618
946.545
946.474
946.404
946.336
946.268
946.202
946.137
946.073
946.011
945.95
945.89
945.832
945.775
945.72
945.666
945.613
945.562
945.512
945.464
945.417
945.372
945.328
945.285
945.245
945.205
945.167
945.131
945.096
945.063
945.031
945
944.971
944.944
944.917
944.893
944.869
944.847
944.826
944.806
944.787
944.77
944.753
944.738
944.723
944.71
944.697
944.685
944.674
944.664
944.654
944.645
944.637
944.629
944.622
944.615
944.609
944.603
944.598
944.592
944.588
944.583
944.579
944.576
944.572
944.569
944.567
944.564
944.562
944.561
944.559
944.558
944.557
944.556
944.556
944.555
944.555
944.555
944.555
944.555
944.555
944.555
944.555
949.055
948.967
948.872
948.776
948.678
948.58
948.483
948.385
948.289
948.193
948.098
948.004
947.91
947.818
947.726
947.635
947.545
947.456
947.368
947.281
947.195
947.11
947.026
946.944
946.862
946.781
946.702
946.624
946.546
946.47
946.395
946.321
946.249
946.178
946.108
946.039
945.971
945.905
945.841
945.777
945.716
945.656
945.597
945.54
945.484
945.43
945.378
945.328
945.279
945.232
945.186
945.143
945.101
945.061
945.023
944.986
944.952
944.919
944.888
944.858
944.831
944.805
944.781
944.758
944.737
944.718
944.7
944.683
944.668
944.655
944.642
944.631
944.621
944.611
944.603
944.596
944.59
944.584
944.579
944.575
944.571
944.568
944.565
944.563
944.561
944.559
944.558
944.557
944.556
944.556
944.555
944.555
944.555
944.555
944.555
944.555
944.555
944.555
944.555
944.555
950.71
950.615
950.514
950.41
950.304
950.198
950.091
949.985
949.879
949.773
949.667
949.562
949.457
949.353
949.249
949.145
949.042
948.94
948.837
948.736
948.634
948.534
948.433
948.334
948.235
948.137
948.039
947.942
947.845
947.749
947.654
947.56
947.466
947.373
947.281
947.189
947.099
947.009
946.92
946.832
946.745
946.659
946.574
946.49
946.407
946.326
946.246
946.167
946.09
946.014
945.939
945.867
945.796
945.726
945.659
945.593
945.53
945.468
945.408
945.351
945.295
945.242
945.191
945.143
945.096
945.052
945.011
944.971
944.934
944.899
944.866
944.835
944.807
944.78
944.755
944.733
944.712
944.692
944.675
944.659
944.644
944.631
944.619
944.608
944.598
944.59
944.582
944.576
944.57
944.565
944.562
944.559
944.557
944.556
944.555
944.555
944.555
944.555
944.555
944.555
953.302
953.206
953.104
952.999
952.892
952.785
952.677
952.569
952.461
952.353
952.245
952.137
952.03
951.922
951.815
951.707
951.6
951.492
951.384
951.276
951.168
951.059
950.95
950.84
950.731
950.622
950.513
950.404
950.295
950.186
950.077
949.968
949.86
949.751
949.642
949.534
949.425
949.316
949.207
949.098
948.989
948.88
948.771
948.662
948.552
948.443
948.333
948.224
948.114
948.004
947.895
947.785
947.676
947.567
947.458
947.349
947.241
947.134
947.027
946.921
946.815
946.711
946.608
946.507
946.407
946.308
946.212
946.117
946.025
945.934
945.846
945.761
945.678
945.597
945.52
945.444
945.372
945.302
945.235
945.171
945.109
945.051
944.995
944.942
944.891
944.843
944.798
944.756
944.717
944.681
944.65
944.623
944.601
944.585
944.575
944.569
944.565
944.562
944.56
944.558
957.134
957.044
956.951
956.856
956.76
956.663
956.566
956.469
956.373
956.277
956.181
956.086
955.991
955.896
955.802
955.708
955.614
955.52
955.426
955.332
955.238
955.144
955.05
954.955
954.861
954.766
954.671
954.575
954.48
954.384
954.288
954.19
954.093
953.995
953.895
953.795
953.694
953.592
953.489
953.385
953.279
953.171
953.063
952.952
952.84
952.726
952.61
952.492
952.372
952.25
952.125
951.999
951.87
951.739
951.605
951.469
951.33
951.189
951.046
950.9
950.751
950.6
950.447
950.291
950.134
949.974
949.812
949.648
949.483
949.315
949.147
948.977
948.806
948.633
948.46
948.286
948.111
947.936
947.76
947.583
947.405
947.225
947.045
946.862
946.678
946.492
946.305
946.117
945.929
945.742
945.56
945.386
945.224
945.081
944.962
944.876
944.805
944.748
944.706
944.679
962.582
962.518
962.452
962.386
962.32
962.253
962.188
962.123
962.06
961.996
961.935
961.873
961.813
961.754
961.696
961.638
961.582
961.526
961.471
961.417
961.364
961.311
961.259
961.207
961.156
961.103
961.05
960.996
960.942
960.886
960.83
960.773
960.714
960.654
960.592
960.529
960.465
960.398
960.33
960.26
960.188
960.114
960.038
959.96
959.88
959.797
959.712
959.624
959.534
959.441
959.346
959.247
959.146
959.042
958.935
958.824
958.71
958.593
958.472
958.347
958.218
958.085
957.948
957.807
957.661
957.51
957.355
957.194
957.028
956.857
956.68
956.497
956.307
956.111
955.908
955.697
955.478
955.249
955.01
954.761
954.5
954.227
953.939
953.634
953.31
952.965
952.596
952.2
951.775
951.318
950.832
950.316
949.777
949.22
948.656
948.112
947.637
947.201
946.829
946.554
969.846
969.826
969.806
969.786
969.767
969.747
969.729
969.711
969.693
969.676
969.659
969.643
969.627
969.611
969.596
969.581
969.566
969.551
969.536
969.521
969.506
969.491
969.476
969.46
969.444
969.427
969.41
969.392
969.374
969.355
969.336
969.316
969.296
969.275
969.253
969.231
969.208
969.185
969.161
969.136
969.111
969.085
969.059
969.033
969.005
968.978
968.95
968.921
968.892
968.862
968.832
968.801
968.77
968.738
968.705
968.672
968.639
968.605
968.57
968.535
968.498
968.46
968.421
968.381
968.34
968.297
968.252
968.206
968.157
968.106
968.052
967.996
967.936
967.872
967.804
967.731
967.654
967.571
967.481
967.384
967.278
967.161
967.034
966.895
966.743
966.576
966.393
966.192
965.958
965.684
965.364
964.99
964.554
964.045
963.447
962.742
961.929
961.084
960.27
959.607
977.633
977.66
977.686
977.711
977.736
977.76
977.783
977.806
977.827
977.849
977.869
977.888
977.907
977.926
977.944
977.962
977.979
977.996
978.013
978.03
978.047
978.064
978.081
978.098
978.115
978.133
978.151
978.17
978.19
978.21
978.231
978.252
978.275
978.298
978.322
978.348
978.374
978.401
978.43
978.459
978.49
978.522
978.555
978.589
978.625
978.662
978.701
978.74
978.782
978.825
978.87
978.916
978.964
979.014
979.066
979.12
979.177
979.236
979.297
979.361
979.429
979.5
979.576
979.655
979.74
979.829
979.923
980.024
980.13
980.244
980.365
980.494
980.632
980.78
980.937
981.106
981.286
981.479
981.686
981.907
982.143
982.394
982.662
982.946
983.248
983.566
983.902
984.255
984.638
985.057
985.517
986.022
986.568
987.157
987.794
988.48
989.209
989.968
990.717
991.378
983.993
984.058
984.124
984.191
984.257
984.324
984.39
984.456
984.521
984.587
984.651
984.716
984.779
984.843
984.905
984.968
985.03
985.093
985.155
985.217
985.279
985.341
985.403
985.466
985.528
985.592
985.655
985.72
985.784
985.85
985.917
985.984
986.052
986.122
986.192
986.265
986.338
986.413
986.489
986.567
986.647
986.728
986.812
986.897
986.985
987.075
987.168
987.263
987.361
987.461
987.564
987.67
987.779
987.892
988.007
988.127
988.249
988.376
988.507
988.642
988.782
988.927
989.077
989.233
989.395
989.564
989.74
989.922
990.113
990.311
990.518
990.734
990.96
991.195
991.44
991.695
991.961
992.238
992.525
992.823
993.131
993.448
993.775
994.109
994.451
994.797
995.147
995.499
995.85
996.196
996.536
996.868
997.202
997.529
997.846
998.147
998.428
998.68
998.893
999.051
988.78
988.863
988.949
989.039
989.128
989.219
989.31
989.402
989.493
989.584
989.676
989.767
989.858
989.95
990.041
990.133
990.224
990.316
990.407
990.499
990.591
990.684
990.777
990.87
990.963
991.058
991.152
991.247
991.343
991.439
991.536
991.634
991.732
991.832
991.932
992.034
992.136
992.24
992.345
992.451
992.558
992.667
992.777
992.889
993.002
993.116
993.233
993.351
993.47
993.592
993.715
993.84
993.967
994.096
994.227
994.361
994.496
994.634
994.774
994.916
995.06
995.207
995.355
995.507
995.66
995.815
995.973
996.133
996.294
996.458
996.623
996.789
996.957
997.126
997.295
997.465
997.634
997.803
997.971
998.136
998.299
998.458
998.612
998.762
998.905
999.041
999.17
999.289
999.399
999.498
999.586
999.661
999.724
999.778
999.825
999.864
999.896
999.922
999.941
999.953
992.276
992.361
992.451
992.544
992.64
992.736
992.833
992.93
993.028
993.125
993.223
993.32
993.418
993.516
993.614
993.711
993.809
993.907
994.005
994.104
994.202
994.301
994.4
994.499
994.598
994.698
994.797
994.898
994.998
995.098
995.199
995.3
995.402
995.503
995.605
995.707
995.81
995.912
996.015
996.118
996.221
996.323
996.426
996.529
996.632
996.735
996.837
996.94
997.042
997.144
997.245
997.346
997.447
997.547
997.646
997.745
997.843
997.94
998.037
998.132
998.226
998.319
998.411
998.501
998.59
998.677
998.762
998.845
998.926
999.005
999.082
999.156
999.228
999.297
999.363
999.427
999.488
999.545
999.599
999.65
999.697
999.741
999.781
999.818
999.85
999.879
999.904
999.926
999.944
999.958
999.97
999.979
999.985
999.989
999.992
999.995
999.996
999.998
999.998
999.999
994.653
994.732
994.818
994.908
994.998
995.09
995.182
995.274
995.367
995.459
995.551
995.643
995.735
995.827
995.918
996.009
996.1
996.191
996.281
996.371
996.461
996.551
996.64
996.729
996.818
996.906
996.994
997.081
997.168
997.254
997.34
997.426
997.51
997.595
997.678
997.761
997.843
997.924
998.004
998.083
998.161
998.239
998.315
998.389
998.463
998.535
998.606
998.675
998.743
998.81
998.874
998.938
998.999
999.059
999.117
999.173
999.227
999.279
999.33
999.378
999.424
999.469
999.511
999.552
999.59
999.626
999.661
999.693
999.724
999.752
999.779
999.804
999.827
999.849
999.868
999.886
999.903
999.917
999.931
999.942
999.953
999.962
999.97
999.977
999.982
999.987
999.99
999.993
999.995
999.997
999.998
999.999
999.999
1000
1000
1000
1000
1000
1000
1000
996.226
996.297
996.374
996.453
996.535
996.616
996.698
996.779
996.861
996.942
997.022
997.102
997.182
997.261
997.34
997.417
997.495
997.571
997.647
997.723
997.797
997.871
997.944
998.016
998.087
998.158
998.227
998.295
998.363
998.429
998.494
998.559
998.622
998.684
998.744
998.804
998.862
998.919
998.975
999.029
999.082
999.133
999.183
999.231
999.278
999.323
999.367
999.409
999.449
999.488
999.525
999.56
999.594
999.626
999.656
999.685
999.712
999.738
999.762
999.784
999.805
999.825
999.843
999.86
999.876
999.89
999.903
999.915
999.926
999.936
999.945
999.953
999.96
999.966
999.972
999.977
999.981
999.984
999.988
999.99
999.992
999.994
999.996
999.997
999.998
999.998
999.999
999.999
1000
1000
1000
1000
1000
1000
1000
1000
1000
1000
1000
1000
997.295
997.357
997.423
997.491
997.56
997.628
997.697
997.765
997.833
997.9
997.966
998.031
998.096
998.16
998.224
998.286
998.348
998.409
998.469
998.528
998.586
998.643
998.699
998.755
998.809
998.862
998.914
998.965
999.015
999.063
999.111
999.157
999.202
999.246
999.288
999.329
999.369
999.407
999.444
999.48
999.514
999.547
999.579
999.609
999.638
999.665
999.692
999.716
999.74
999.762
999.783
999.802
999.82
999.838
999.853
999.868
999.882
999.894
999.906
999.917
999.927
999.935
999.943
999.951
999.957
999.963
999.968
999.973
999.977
999.981
999.984
999.987
999.989
999.991
999.993
999.994
999.996
999.997
999.997
999.998
999.999
999.999
999.999
1000
1000
1000
1000
1000
1000
1000
1000
1000
1000
1000
1000
1000
1000
1000
1000
1000
998.055
998.107
998.162
998.218
998.274
998.33
998.385
998.439
998.493
998.546
998.598
998.65
998.7
998.75
998.799
998.848
998.895
998.941
998.987
999.031
999.075
999.118
999.159
999.2
999.24
999.279
999.316
999.353
999.389
999.424
999.457
999.489
999.52
999.55
999.579
999.607
999.634
999.659
999.683
999.706
999.729
999.749
999.769
999.788
999.806
999.822
999.838
999.853
999.867
999.879
999.891
999.902
999.912
999.922
999.931
999.938
999.946
999.952
999.958
999.964
999.968
999.973
999.977
999.98
999.983
999.986
999.988
999.99
999.992
999.993
999.994
999.996
999.996
999.997
999.998
999.998
999.999
999.999
999.999
999.999
1000
1000
1000
1000
1000
1000
1000
1000
1000
1000
1000
1000
1000
1000
1000
1000
1000
1000
1000
1000
998.614
998.657
998.701
998.745
998.789
998.833
998.875
998.918
998.959
999
999.04
999.079
999.118
999.156
999.193
999.229
999.264
999.298
999.332
999.365
999.396
999.427
999.457
999.487
999.515
999.542
999.569
999.594
999.619
999.643
999.665
999.687
999.708
999.728
999.747
999.765
999.783
999.799
999.815
999.83
999.843
999.857
999.869
999.88
999.891
999.901
999.911
999.92
999.928
999.935
999.942
999.948
999.954
999.96
999.964
999.969
999.973
999.976
999.98
999.982
999.985
999.987
999.989
999.991
999.992
999.994
999.995
999.996
999.996
999.997
999.998
999.998
999.999
999.999
999.999
999.999
1000
1000
1000
1000
1000
1000
1000
1000
1000
1000
1000
1000
1000
1000
1000
1000
1000
1000
1000
1000
1000
1000
1000
1000
999.112
999.144
999.176
999.208
999.239
999.27
999.3
999.33
999.359
999.387
999.415
999.442
999.468
999.493
999.518
999.542
999.566
999.588
999.61
999.631
999.652
999.672
999.691
999.709
999.727
999.744
999.76
999.776
999.791
999.805
999.819
999.832
999.844
999.855
999.866
999.877
999.887
999.896
999.905
999.913
999.921
999.928
999.934
999.941
999.946
999.952
999.957
999.961
999.965
999.969
999.973
999.976
999.979
999.981
999.984
999.986
999.988
999.989
999.991
999.992
999.993
999.994
999.995
999.996
999.997
999.997
999.998
999.998
999.999
999.999
999.999
999.999
999.999
1000
1000
1000
1000
1000
1000
1000
1000
1000
1000
1000
1000
1000
1000
1000
1000
1000
1000
1000
1000
1000
1000
1000
1000
1000
1000
1000
944.555
944.555
944.555
944.555
944.555
944.555
944.555
944.555
944.555
944.555
944.555
944.555
944.555
944.555
944.555
944.555
944.555
944.555
944.555
944.555
944.555
944.555
944.555
944.555
944.555
944.555
944.555
944.555
944.555
944.555
944.555
944.555
944.555
944.555
944.555
944.555
944.555
944.555
944.555
944.555
944.555
944.555
944.555
944.555
944.555
944.555
944.555
944.555
944.555
944.555
944.555
944.555
944.555
944.555
944.555
944.555
944.555
944.555
944.555
944.555
944.555
944.555
944.555
944.555
944.555
944.555
944.555
944.555
944.555
944.555
944.555
944.555
944.555
944.555
944.555
944.555
944.555
944.555
944.556
944.56
944.555
944.555
944.555
944.555
944.555
944.555
944.555
944.555
944.555
944.555
944.555
944.555
944.555
944.555
944.556
944.556
944.558
944.562
944.574
944.628
944.555
944.555
944.555
944.555
944.555
944.555
944.555
944.555
944.556
944.556
944.556
944.557
944.558
944.56
944.563
944.57
944.585
944.624
944.75
945.379
944.559
944.559
944.561
944.562
944.564
944.565
944.567
944.569
944.571
944.572
944.573
944.577
944.582
944.592
944.611
944.652
944.743
944.988
945.845
950.646
944.678
944.692
944.708
944.725
944.742
944.756
944.765
944.765
944.761
944.756
944.754
944.757
944.769
944.801
944.873
945.03
945.384
946.3
949.411
967.42
946.491
946.576
946.657
946.733
946.79
946.794
946.762
946.692
946.623
946.544
946.467
946.385
946.319
946.286
946.394
946.763
947.69
949.841
955.348
985.262
959.38
959.555
959.721
959.865
959.952
959.906
959.813
959.711
959.578
959.384
959.149
958.821
958.458
957.968
957.649
957.724
958.96
962.072
969.216
985.398
991.68
991.584
991.513
991.465
991.476
991.639
991.85
992.068
992.298
992.566
992.858
993.218
993.615
994.124
994.474
994.578
994.177
993.529
993.261
992.961
999.097
999.057
999.022
998.989
998.969
998.979
999.01
999.065
999.121
999.184
999.246
999.318
999.387
999.466
999.518
999.538
999.503
999.431
999.311
996.797
999.954
999.949
999.943
999.936
999.93
999.925
999.923
999.925
999.929
999.936
999.942
999.949
999.955
999.961
999.964
999.964
999.959
999.943
999.857
998.864
999.999
999.999
999.998
999.998
999.997
999.997
999.996
999.996
999.996
999.996
999.997
999.997
999.997
999.998
999.998
999.997
999.996
999.993
999.976
999.822
1000
1000
1000
1000
1000
1000
1000
1000
1000
1000
1000
1000
1000
1000
1000
1000
1000
1000
999.999
999.997
1000
1000
1000
1000
1000
1000
1000
1000
1000
1000
1000
1000
1000
1000
1000
1000
1000
1000
1000
1000
1000
1000
1000
1000
1000
1000
1000
1000
1000
1000
1000
1000
1000
1000
1000
1000
1000
1000
1000
1000
1000
1000
1000
1000
1000
1000
1000
1000
1000
1000
1000
1000
1000
1000
1000
1000
1000
1000
1000
1000
1000
1000
1000
1000
1000
1000
1000
1000
1000
1000
1000
1000
1000
1000
1000
1000
1000
1000
1000
1000
1000
1000
1000
1000
1000
1000
1000
1000
1000
1000
1000
1000
1000
1000
1000
1000
1000
1000
1000
1000
944.555
944.555
944.555
944.555
944.555
944.555
944.555
944.555
944.555
944.555
944.555
944.555
944.555
944.555
944.555
944.555
944.555
944.555
944.555
944.555
944.555
944.555
944.555
944.555
944.555
944.555
944.555
944.555
944.555
944.555
944.555
944.555
944.555
944.555
944.555
944.555
944.555
944.555
944.555
944.555
944.555
944.555
944.555
944.555
944.555
944.555
944.555
944.555
944.555
944.555
944.555
944.555
944.555
944.555
944.555
944.555
944.555
944.555
944.555
944.555
944.555
944.555
944.555
944.555
944.555
944.555
944.555
944.555
944.555
944.555
944.555
944.555
944.555
944.555
944.555
944.555
944.555
944.555
944.555
944.555
944.555
944.555
944.555
944.555
944.555
944.555
944.555
944.555
944.555
944.555
944.555
944.555
944.555
944.555
944.555
944.555
944.555
944.555
944.555
944.555
944.555
944.555
944.555
944.555
944.555
944.555
944.555
944.555
944.555
944.555
944.555
944.555
944.555
944.555
944.555
944.555
944.555
944.555
944.555
944.555
944.555
944.555
944.555
944.555
944.555
944.555
944.555
944.555
944.555
944.555
944.555
944.555
944.555
944.555
944.555
944.555
944.555
944.555
944.555
944.555
944.555
944.555
944.555
944.555
944.555
944.555
944.555
944.555
944.555
944.555
944.555
944.555
944.555
944.555
944.555
944.555
944.555
944.555
944.555
944.555
944.555
944.555
944.555
944.555
944.555
944.555
944.555
944.555
944.555
944.555
944.555
944.555
944.555
944.555
944.555
944.555
944.555
944.555
944.555
944.555
944.555
944.555
944.555
944.555
944.555
944.555
944.555
944.555
944.555
944.555
944.555
944.555
944.555
944.555
944.555
944.555
944.555
944.555
944.555
944.555
944.555
944.555
944.555
944.555
944.555
944.555
944.555
944.555
944.555
944.555
944.555
944.555
944.555
944.555
944.555
944.555
944.555
944.555
944.555
944.555
944.555
944.555
944.555
944.555
944.555
944.555
944.555
944.555
944.555
944.555
944.555
944.555
944.555
944.555
944.555
944.555
944.555
944.555
944.555
944.555
944.555
944.555
944.555
944.555
944.555
944.555
944.555
944.555
944.555
944.555
944.555
944.555
944.555
944.555
944.555
944.555
944.555
944.555
944.555
944.555
944.555
944.555
944.555
944.555
944.555
944.555
944.555
944.555
944.555
944.555
944.555
944.555
944.555
944.555
944.555
944.555
944.555
944.555
944.555
944.555
944.555
944.555
944.555
944.555
944.555
944.555
944.555
944.555
944.555
944.555
944.555
944.555
944.555
944.555
944.555
944.555
944.555
944.555
944.555
944.555
944.555
944.555
944.555
944.555
944.555
944.555
944.555
944.555
944.555
944.555
944.555
944.555
944.555
944.555
944.555
944.555
944.555
944.555
944.555
944.555
944.555
944.555
944.555
944.555
944.555
944.555
944.555
944.555
944.555
944.555
944.555
944.555
944.555
944.555
944.555
944.555
944.555
944.555
944.555
944.555
944.555
944.555
944.555
944.555
944.555
944.555
944.555
944.555
944.555
944.555
944.555
944.555
944.555
944.555
944.555
944.555
944.555
944.555
944.555
944.555
944.555
944.555
944.555
944.555
944.555
944.555
944.555
944.555
944.555
944.555
944.555
944.555
944.555
944.555
944.555
944.555
944.555
944.555
944.555
944.555
944.555
944.555
944.555
944.555
944.555
944.555
944.555
944.555
944.555
944.555
944.555
944.555
944.555
944.555
944.555
944.555
944.555
944.555
944.555
944.555
944.555
944.555
944.555
944.555
944.555
944.555
944.555
944.555
944.555
944.555
944.555
944.555
944.555
944.555
944.555
944.555
944.555
944.555
944.555
944.555
944.555
944.555
944.555
944.555
944.555
944.555
944.555
944.555
944.555
944.555
944.555
944.555
944.555
944.555
944.555
944.555
944.555
944.555
944.555
944.555
944.555
944.555
944.555
944.555
944.555
944.555
944.555
944.555
944.555
944.555
944.555
944.555
944.555
944.555
944.555
944.555
944.555
944.555
944.555
944.555
944.555
944.555
944.555
944.555
944.555
944.555
944.555
944.555
944.555
944.555
944.555
944.555
944.555
944.555
944.555
944.555
944.555
944.555
944.555
944.555
944.555
944.555
944.555
944.555
944.555
944.555
944.555
944.555
944.555
944.555
944.555
944.555
944.555
944.555
944.555
944.555
944.555
944.555
944.555
944.555
944.555
944.555
944.555
944.555
944.555
944.555
944.555
944.555
944.555
944.555
944.555
944.555
944.555
944.555
944.555
944.555
944.555
944.555
944.555
944.555
944.555
944.555
944.555
944.555
944.555
944.555
944.555
944.555
944.555
944.555
944.555
944.555
944.555
944.555
944.555
944.555
944.555
944.555
944.555
944.555
944.555
944.555
944.555
944.555
944.555
944.555
944.555
944.555
944.555
944.555
944.555
944.555
944.555
944.555
944.555
944.555
944.555
944.555
944.555
944.555
944.555
944.555
944.555
944.555
944.555
944.555
944.555
944.555
944.555
944.555
944.555
944.555
944.555
944.555
944.555
944.555
944.555
944.555
944.555
944.555
944.555
944.555
944.555
944.555
944.555
944.555
944.555
944.555
944.555
944.555
944.555
944.555
944.555
944.555
944.555
944.555
944.555
944.555
944.555
944.555
944.555
944.555
944.555
944.555
944.555
944.555
944.555
944.555
944.555
944.555
944.555
944.555
944.555
944.555
944.555
944.555
944.555
944.555
944.555
944.555
944.555
944.555
944.555
944.555
944.555
944.555
944.555
944.555
944.555
944.555
944.555
944.555
944.555
944.555
944.555
944.555
944.555
944.555
944.555
944.555
944.555
944.555
944.555
944.555
944.555
944.555
944.555
944.555
944.555
944.555
944.555
944.555
944.555
944.555
944.555
944.555
944.555
944.555
944.555
944.555
944.555
944.555
944.555
944.555
944.555
944.555
944.555
944.555
944.555
944.555
944.555
944.555
944.555
944.555
944.555
944.555
944.555
944.555
944.555
944.555
944.555
944.555
944.555
944.555
944.555
944.555
944.555
944.555
944.555
944.555
944.555
944.555
944.555
944.555
944.555
944.555
944.555
944.555
944.555
944.555
944.555
944.555
944.555
944.555
944.555
944.555
944.555
944.555
944.555
944.555
944.555
944.555
944.555
944.555
944.555
944.555
944.555
944.555
944.555
944.555
944.555
944.555
944.555
944.555
944.555
944.555
944.555
944.555
944.555
944.555
944.555
944.555
944.555
944.555
944.555
944.555
944.555
944.555
944.555
944.555
944.555
944.555
944.555
944.555
944.555
944.555
944.555
944.555
944.555
944.555
944.555
944.555
944.555
944.555
944.555
944.555
944.555
944.555
944.555
944.555
944.555
944.555
944.555
944.555
944.555
944.555
944.555
944.555
944.555
944.555
944.555
944.555
944.555
944.555
944.555
944.555
944.555
944.555
944.555
944.555
944.555
944.555
944.555
944.555
944.555
944.555
944.555
944.555
944.555
944.555
944.555
944.555
944.555
944.555
944.555
944.555
944.555
944.555
944.555
944.555
944.555
944.555
944.555
944.555
944.555
944.555
944.555
944.555
944.555
944.555
944.555
944.555
944.555
944.555
944.555
944.555
944.555
944.555
944.555
944.555
944.555
944.555
944.555
944.555
944.555
944.555
944.555
944.555
944.555
944.555
944.555
944.555
944.555
944.555
944.555
944.555
944.555
944.555
944.555
944.555
944.555
944.555
944.555
944.555
944.555
944.555
944.555
944.555
944.555
944.555
944.555
944.555
944.555
944.555
944.555
944.555
944.555
944.555
944.555
944.555
944.555
944.555
944.555
944.555
944.555
944.555
944.555
944.555
944.555
944.555
944.555
944.555
944.555
944.555
944.555
944.555
944.555
944.555
944.555
944.555
944.555
944.555
944.555
944.555
944.555
944.555
944.555
944.555
944.555
944.555
944.555
944.555
944.555
944.555
944.555
944.555
944.555
944.555
944.555
944.555
944.555
944.555
944.555
944.555
944.555
944.555
944.555
944.555
944.555
944.555
944.555
944.555
944.555
944.555
944.555
944.555
944.555
944.555
944.555
944.555
944.555
944.555
944.555
944.555
944.555
944.555
944.555
944.555
944.555
944.555
944.555
944.555
944.555
944.555
944.555
944.555
944.555
944.555
944.555
944.555
944.555
944.555
944.555
944.555
944.555
944.555
944.555
944.555
944.555
944.555
944.555
944.555
944.555
944.555
944.555
944.555
944.555
944.555
944.555
944.555
944.555
944.555
944.555
944.555
944.555
944.555
944.555
944.555
944.555
944.555
944.555
944.555
944.555
944.555
944.555
944.555
944.555
944.555
944.555
944.555
944.555
944.555
944.555
944.555
944.555
944.555
944.555
944.555
944.555
944.555
944.555
944.555
944.555
944.555
944.555
944.555
944.555
944.555
944.555
944.555
944.555
944.555
944.555
944.555
944.555
944.555
944.555
944.555
944.555
944.555
944.555
944.555
944.555
944.555
944.555
944.555
944.555
944.555
944.555
944.555
944.555
944.555
944.555
944.555
944.555
944.555
944.555
944.555
944.555
944.555
944.555
944.555
944.555
944.555
944.555
944.555
944.555
944.555
944.555
944.555
944.555
944.555
944.555
944.555
944.555
944.555
944.555
944.555
944.555
944.555
944.555
944.555
944.555
944.555
944.555
944.555
944.555
944.555
944.555
944.555
944.555
944.555
944.555
944.555
944.555
944.555
944.555
944.555
944.555
944.555
944.555
944.555
944.555
944.555
944.555
944.555
944.555
944.555
944.555
944.555
944.555
944.555
944.555
944.555
944.555
944.555
944.555
944.555
944.555
944.555
944.555
944.555
944.555
944.555
944.555
944.555
944.555
944.555
944.555
944.555
944.555
944.555
944.555
944.555
944.555
944.555
944.555
944.555
944.555
944.555
944.555
944.555
944.555
944.555
944.555
944.555
944.555
944.555
944.555
944.555
944.555
944.555
944.555
944.555
944.555
944.555
944.555
944.555
944.555
944.555
944.555
944.555
944.555
944.555
944.555
944.555
944.555
944.555
944.555
944.555
944.555
944.555
944.555
944.555
944.555
944.555
944.555
944.555
944.555
944.555
944.555
944.555
944.555
944.555
944.555
944.555
944.555
944.555
944.555
944.555
944.555
944.555
944.555
944.555
944.555
944.555
944.555
944.555
944.555
944.555
944.555
944.555
944.555
944.555
944.555
944.555
944.555
944.555
944.555
944.555
944.555
944.555
944.555
944.555
944.555
944.555
944.555
944.555
944.555
944.555
944.555
944.555
944.555
944.555
944.555
944.555
944.555
944.555
944.555
944.555
944.555
944.555
944.555
944.555
944.555
944.555
944.555
944.555
944.555
944.555
944.555
944.555
944.555
944.555
944.555
944.555
944.555
944.555
944.555
944.555
944.555
944.555
944.555
944.555
944.555
944.555
944.555
944.555
944.555
944.555
944.555
944.555
944.555
944.555
944.555
944.555
944.555
944.555
944.555
944.555
944.555
944.555
944.555
944.555
944.555
944.555
944.555
944.555
944.555
944.555
944.555
944.555
944.555
944.555
944.555
944.555
944.555
944.555
944.555
944.555
944.555
944.555
944.555
944.555
944.555
944.555
944.555
944.555
944.555
944.555
944.555
944.555
944.555
944.555
944.555
944.555
944.555
944.555
944.555
944.555
944.555
944.555
944.555
944.555
944.555
944.555
944.555
944.555
944.555
944.555
944.555
944.555
944.555
944.555
944.555
944.555
944.555
944.555
944.555
944.555
944.555
944.555
944.555
944.555
944.555
944.555
944.555
944.555
944.555
944.555
944.555
944.555
944.555
944.555
944.555
944.555
944.555
944.555
944.555
944.555
944.555
944.555
944.555
944.555
944.555
944.555
944.555
944.555
944.555
944.555
944.555
944.555
944.555
944.555
944.555
944.555
944.555
944.555
944.555
944.555
944.555
944.555
944.555
944.555
944.555
944.555
944.555
944.555
944.555
944.555
944.555
944.555
944.555
944.555
944.555
944.555
944.555