/*--------------------------------*- C++ -*----------------------------------*\
| =========                 |                                                 |
| \\      /  F ield         | OpenFOAM: The Open Source CFD Toolbox           |
|  \\    /   O peration     | Version:  2.1.0                                 |
|   \\  /    A nd           | Web:      www.OpenFOAM.org                      |
|    \\/     M anipulation  |                                                 |
\*---------------------------------------------------------------------------*/
FoamFile
{
    version     2.0;
    format      ascii;
    class       volScalarField;
    location    "0.45";
    object      T;
}
// * * * * * * * * * * * * * * * * * * * * * * * * * * * * * * * * * * * * * //

dimensions      [0 0 0 1 0 0 0];

internalField   nonuniform List<scalar> 
6400
(
389.133
389.257
389.378
389.497
389.613
389.725
389.835
389.942
390.045
390.146
390.244
390.339
390.431
390.521
390.607
390.691
390.773
390.851
390.927
391.001
391.072
391.141
391.207
391.27
391.332
391.391
391.447
391.502
391.554
391.604
391.652
391.697
391.741
391.783
391.823
391.86
391.896
391.931
391.963
391.994
392.023
392.05
392.075
392.1
392.122
392.143
392.163
392.181
392.199
392.214
392.229
392.242
392.254
392.265
392.275
392.284
392.291
392.298
392.304
392.309
392.313
392.316
392.318
392.32
392.32
392.32
392.319
392.317
392.315
392.311
392.306
392.301
392.294
392.286
392.277
392.267
392.255
392.241
392.226
392.209
392.189
392.166
392.139
392.108
392.07
392.024
391.965
391.889
391.784
391.631
391.391
390.978
390.185
388.579
386.41
390.537
393.064
393.149
393.15
393.15
388.679
388.808
388.94
389.071
389.199
389.324
389.447
389.568
389.686
389.801
389.914
390.024
390.131
390.236
390.338
390.438
390.535
390.629
390.721
390.811
390.898
390.982
391.064
391.144
391.221
391.295
391.367
391.437
391.504
391.569
391.631
391.691
391.749
391.804
391.857
391.908
391.956
392.002
392.047
392.089
392.129
392.167
392.203
392.237
392.269
392.299
392.328
392.355
392.38
392.404
392.426
392.447
392.466
392.484
392.5
392.516
392.53
392.544
392.556
392.567
392.578
392.587
392.596
392.604
392.612
392.619
392.625
392.631
392.636
392.641
392.646
392.65
392.654
392.657
392.661
392.664
392.666
392.668
392.67
392.672
392.673
392.674
392.674
392.674
392.673
392.671
392.668
392.665
392.662
392.66
392.66
392.668
392.694
392.755
392.875
393.041
393.143
393.15
393.15
393.15
387.879
388.019
388.165
388.311
388.455
388.598
388.739
388.877
389.013
389.147
389.278
389.407
389.533
389.657
389.779
389.898
390.015
390.129
390.241
390.35
390.457
390.561
390.663
390.763
390.86
390.955
391.047
391.136
391.223
391.307
391.389
391.468
391.544
391.618
391.689
391.757
391.823
391.887
391.948
392.006
392.062
392.115
392.166
392.215
392.261
392.305
392.346
392.386
392.423
392.459
392.492
392.523
392.553
392.581
392.607
392.632
392.655
392.676
392.697
392.716
392.733
392.75
392.766
392.78
392.794
392.808
392.82
392.832
392.844
392.855
392.866
392.877
392.887
392.898
392.908
392.919
392.93
392.94
392.951
392.962
392.974
392.986
392.997
393.01
393.022
393.034
393.047
393.06
393.072
393.085
393.097
393.109
393.121
393.131
393.139
393.145
393.149
393.15
393.15
393.15
386.592
386.745
386.908
387.072
387.237
387.401
387.563
387.724
387.883
388.04
388.195
388.348
388.498
388.647
388.794
388.938
389.08
389.22
389.357
389.492
389.625
389.756
389.884
390.01
390.133
390.255
390.373
390.489
390.603
390.714
390.822
390.928
391.031
391.131
391.229
391.324
391.416
391.505
391.591
391.675
391.756
391.833
391.908
391.981
392.05
392.117
392.18
392.241
392.299
392.355
392.407
392.457
392.505
392.55
392.593
392.633
392.671
392.706
392.74
392.771
392.801
392.828
392.854
392.878
392.901
392.922
392.941
392.96
392.977
392.993
393.007
393.021
393.034
393.046
393.058
393.068
393.078
393.087
393.095
393.103
393.11
393.116
393.122
393.127
393.131
393.135
393.138
393.141
393.143
393.145
393.147
393.148
393.149
393.149
393.149
393.15
393.15
393.15
393.15
393.15
384.598
384.765
384.943
385.126
385.311
385.496
385.681
385.865
386.048
386.229
386.409
386.588
386.765
386.94
387.114
387.287
387.457
387.626
387.793
387.958
388.122
388.283
388.443
388.6
388.755
388.908
389.059
389.208
389.355
389.5
389.642
389.783
389.921
390.056
390.19
390.321
390.449
390.575
390.698
390.818
390.936
391.05
391.162
391.271
391.377
391.48
391.579
391.675
391.769
391.858
391.945
392.028
392.108
392.184
392.257
392.326
392.392
392.455
392.514
392.57
392.623
392.672
392.718
392.761
392.801
392.838
392.873
392.904
392.933
392.959
392.983
393.005
393.024
393.042
393.057
393.071
393.083
393.094
393.104
393.112
393.119
393.125
393.13
393.134
393.138
393.141
393.143
393.145
393.147
393.148
393.149
393.149
393.15
393.15
393.15
393.15
393.15
393.15
393.15
393.15
381.473
381.652
381.843
382.039
382.238
382.439
382.64
382.841
383.041
383.241
383.441
383.639
383.837
384.035
384.231
384.427
384.622
384.816
385.009
385.202
385.393
385.584
385.774
385.962
386.15
386.336
386.522
386.706
386.889
387.07
387.251
387.43
387.608
387.784
387.96
388.133
388.306
388.476
388.645
388.812
388.978
389.141
389.303
389.462
389.619
389.774
389.927
390.077
390.224
390.368
390.51
390.648
390.784
390.916
391.044
391.169
391.29
391.408
391.522
391.631
391.737
391.838
391.935
392.028
392.116
392.2
392.28
392.355
392.426
392.493
392.556
392.614
392.669
392.72
392.767
392.81
392.85
392.887
392.921
392.952
392.98
393.005
393.028
393.048
393.067
393.083
393.097
393.11
393.12
393.129
393.136
393.142
393.145
393.148
393.149
393.149
393.149
393.15
393.15
393.15
376.6
376.781
376.972
377.169
377.369
377.571
377.773
377.976
378.179
378.382
378.584
378.787
378.989
379.191
379.393
379.595
379.797
380
380.203
380.407
380.611
380.816
381.021
381.227
381.433
381.639
381.845
382.05
382.256
382.461
382.666
382.871
383.077
383.282
383.487
383.693
383.898
384.104
384.309
384.515
384.722
384.928
385.135
385.342
385.549
385.756
385.964
386.171
386.379
386.587
386.795
387.002
387.21
387.417
387.624
387.83
388.035
388.239
388.442
388.644
388.844
389.042
389.237
389.43
389.62
389.808
389.991
390.171
390.347
390.519
390.687
390.85
391.008
391.161
391.309
391.453
391.591
391.724
391.851
391.974
392.091
392.203
392.31
392.411
392.508
392.599
392.685
392.766
392.841
392.909
392.969
393.02
393.061
393.092
393.111
393.122
393.131
393.137
393.14
393.143
369.447
369.613
369.786
369.964
370.142
370.323
370.503
370.683
370.862
371.042
371.22
371.398
371.574
371.751
371.927
372.102
372.277
372.453
372.628
372.803
372.978
373.154
373.33
373.507
373.684
373.861
374.038
374.217
374.395
374.575
374.755
374.937
375.119
375.303
375.489
375.676
375.865
376.057
376.25
376.446
376.644
376.846
377.05
377.257
377.468
377.682
377.899
378.121
378.346
378.575
378.809
379.047
379.289
379.536
379.788
380.044
380.304
380.57
380.84
381.115
381.395
381.68
381.969
382.262
382.56
382.862
383.167
383.476
383.789
384.105
384.424
384.745
385.069
385.395
385.723
386.053
386.384
386.717
387.051
387.386
387.724
388.065
388.408
388.754
389.104
389.458
389.814
390.172
390.53
390.886
391.233
391.565
391.872
392.145
392.372
392.537
392.672
392.781
392.861
392.914
359.372
359.49
359.61
359.733
359.855
359.977
360.097
360.216
360.333
360.45
360.563
360.676
360.787
360.896
361.003
361.109
361.213
361.316
361.417
361.517
361.615
361.712
361.808
361.903
361.999
362.096
362.193
362.293
362.393
362.495
362.599
362.705
362.814
362.925
363.038
363.154
363.274
363.396
363.522
363.651
363.784
363.921
364.061
364.206
364.355
364.508
364.665
364.827
364.994
365.166
365.343
365.525
365.712
365.905
366.104
366.309
366.52
366.738
366.962
367.194
367.433
367.679
367.934
368.196
368.467
368.747
369.036
369.334
369.643
369.961
370.291
370.632
370.985
371.35
371.729
372.122
372.531
372.958
373.404
373.87
374.357
374.868
375.407
375.978
376.585
377.233
377.925
378.669
379.468
380.327
381.243
382.215
383.233
384.286
385.352
386.382
387.284
388.111
388.818
389.341
346.117
346.153
346.189
346.226
346.261
346.295
346.329
346.362
346.394
346.425
346.455
346.485
346.514
346.542
346.57
346.597
346.624
346.651
346.678
346.705
346.732
346.76
346.788
346.816
346.846
346.876
346.907
346.939
346.972
347.006
347.041
347.077
347.114
347.152
347.191
347.232
347.273
347.316
347.359
347.403
347.449
347.495
347.543
347.591
347.64
347.691
347.742
347.794
347.847
347.901
347.956
348.012
348.069
348.127
348.185
348.245
348.306
348.367
348.43
348.495
348.562
348.63
348.701
348.773
348.849
348.927
349.008
349.093
349.181
349.274
349.371
349.474
349.583
349.699
349.823
349.955
350.096
350.247
350.41
350.587
350.781
350.992
351.224
351.477
351.755
352.059
352.393
352.76
353.188
353.687
354.272
354.955
355.753
356.686
357.783
359.078
360.573
362.131
363.633
364.859
332.127
332.078
332.032
331.986
331.942
331.899
331.858
331.818
331.779
331.742
331.706
331.67
331.637
331.603
331.572
331.54
331.509
331.478
331.448
331.418
331.389
331.358
331.328
331.298
331.267
331.235
331.202
331.168
331.134
331.098
331.061
331.023
330.983
330.941
330.898
330.853
330.806
330.758
330.707
330.654
330.6
330.543
330.484
330.423
330.359
330.293
330.225
330.154
330.08
330.004
329.924
329.842
329.756
329.667
329.575
329.479
329.378
329.274
329.165
329.05
328.93
328.803
328.67
328.528
328.379
328.221
328.053
327.875
327.686
327.484
327.27
327.041
326.796
326.535
326.256
325.958
325.638
325.297
324.931
324.541
324.124
323.68
323.208
322.706
322.175
321.614
321.023
320.401
319.728
318.992
318.185
317.3
316.345
315.313
314.2
313.004
311.733
310.413
309.113
307.966
320.863
320.749
320.633
320.515
320.398
320.28
320.164
320.048
319.933
319.818
319.706
319.592
319.481
319.369
319.259
319.149
319.04
318.93
318.821
318.712
318.604
318.494
318.385
318.275
318.165
318.054
317.943
317.83
317.717
317.601
317.485
317.367
317.247
317.125
317.002
316.875
316.747
316.616
316.483
316.346
316.207
316.064
315.917
315.768
315.614
315.456
315.295
315.128
314.958
314.783
314.602
314.417
314.226
314.03
313.828
313.62
313.406
313.185
312.958
312.722
312.478
312.226
311.964
311.692
311.409
311.116
310.811
310.493
310.162
309.817
309.457
309.083
308.692
308.284
307.859
307.417
306.956
306.477
305.98
305.465
304.933
304.385
303.821
303.244
302.656
302.06
301.457
300.852
300.25
299.655
299.072
298.502
297.93
297.369
296.828
296.312
295.832
295.401
295.038
294.768
312.481
312.337
312.186
312.03
311.874
311.716
311.558
311.399
311.24
311.081
310.922
310.763
310.604
310.445
310.287
310.128
309.969
309.809
309.65
309.49
309.33
309.17
309.009
308.847
308.685
308.522
308.358
308.193
308.027
307.86
307.692
307.523
307.352
307.18
307.006
306.83
306.653
306.473
306.292
306.108
305.923
305.734
305.544
305.351
305.156
304.958
304.757
304.554
304.347
304.137
303.925
303.709
303.49
303.267
303.041
302.811
302.578
302.341
302.1
301.855
301.607
301.355
301.099
300.84
300.576
300.309
300.038
299.764
299.487
299.206
298.923
298.637
298.35
298.06
297.77
297.48
297.189
296.901
296.614
296.332
296.054
295.782
295.517
295.262
295.017
294.785
294.566
294.362
294.175
294.005
293.856
293.727
293.621
293.528
293.448
293.381
293.327
293.283
293.251
293.23
306.411
306.265
306.108
305.946
305.782
305.615
305.448
305.28
305.111
304.943
304.774
304.606
304.437
304.268
304.1
303.931
303.762
303.593
303.424
303.254
303.085
302.914
302.744
302.573
302.402
302.231
302.059
301.887
301.714
301.541
301.368
301.194
301.02
300.845
300.67
300.494
300.319
300.143
299.966
299.79
299.613
299.436
299.26
299.083
298.907
298.731
298.555
298.379
298.204
298.03
297.856
297.683
297.511
297.34
297.17
297
296.833
296.666
296.501
296.338
296.177
296.018
295.861
295.707
295.556
295.407
295.262
295.12
294.981
294.847
294.716
294.589
294.466
294.348
294.235
294.127
294.023
293.925
293.833
293.746
293.666
293.591
293.523
293.461
293.405
293.356
293.313
293.277
293.246
293.221
293.201
293.186
293.176
293.169
293.163
293.159
293.156
293.154
293.153
293.152
302.308
302.171
302.023
301.87
301.714
301.556
301.397
301.239
301.08
300.921
300.763
300.604
300.447
300.289
300.132
299.976
299.82
299.664
299.509
299.354
299.2
299.046
298.893
298.741
298.589
298.438
298.287
298.137
297.988
297.84
297.693
297.547
297.402
297.258
297.115
296.973
296.833
296.694
296.557
296.422
296.288
296.156
296.026
295.898
295.773
295.649
295.528
295.41
295.294
295.18
295.07
294.962
294.857
294.755
294.656
294.56
294.468
294.379
294.293
294.21
294.131
294.055
293.983
293.914
293.849
293.787
293.728
293.673
293.621
293.572
293.526
293.484
293.444
293.408
293.375
293.344
293.316
293.291
293.268
293.248
293.23
293.215
293.201
293.19
293.18
293.173
293.166
293.161
293.158
293.155
293.153
293.152
293.151
293.151
293.15
293.15
293.15
293.15
293.15
293.15
299.604
299.482
299.35
299.213
299.074
298.934
298.794
298.654
298.515
298.376
298.238
298.101
297.964
297.829
297.694
297.561
297.429
297.298
297.168
297.039
296.911
296.785
296.66
296.537
296.415
296.294
296.176
296.059
295.944
295.83
295.719
295.609
295.501
295.395
295.292
295.19
295.09
294.993
294.898
294.806
294.716
294.628
294.543
294.461
294.381
294.304
294.23
294.158
294.089
294.023
293.96
293.9
293.843
293.788
293.736
293.687
293.641
293.597
293.556
293.517
293.482
293.448
293.417
293.388
293.362
293.337
293.315
293.295
293.276
293.259
293.244
293.231
293.219
293.208
293.198
293.19
293.183
293.176
293.171
293.167
293.163
293.16
293.157
293.155
293.154
293.153
293.152
293.151
293.151
293.15
293.15
293.15
293.15
293.15
293.15
293.15
293.15
293.15
293.15
293.15
297.771
297.665
297.552
297.435
297.317
297.2
297.083
296.966
296.85
296.736
296.622
296.51
296.399
296.29
296.181
296.074
295.969
295.865
295.762
295.662
295.562
295.465
295.369
295.274
295.182
295.091
295.002
294.915
294.83
294.747
294.666
294.587
294.511
294.436
294.364
294.294
294.226
294.16
294.097
294.036
293.978
293.921
293.868
293.816
293.767
293.72
293.676
293.633
293.594
293.556
293.52
293.487
293.456
293.427
293.4
293.375
293.351
293.33
293.31
293.292
293.275
293.26
293.246
293.234
293.223
293.213
293.204
293.196
293.189
293.183
293.177
293.172
293.168
293.165
293.162
293.16
293.158
293.156
293.154
293.153
293.152
293.152
293.151
293.151
293.151
293.15
293.15
293.15
293.15
293.15
293.15
293.15
293.15
293.15
293.15
293.15
293.15
293.15
293.15
293.15
296.469
296.381
296.286
296.191
296.095
296
295.906
295.813
295.721
295.631
295.542
295.453
295.367
295.282
295.198
295.116
295.035
294.955
294.878
294.802
294.727
294.654
294.583
294.514
294.446
294.38
294.315
294.253
294.192
294.133
294.076
294.02
293.967
293.916
293.867
293.82
293.774
293.731
293.69
293.65
293.613
293.577
293.543
293.511
293.481
293.453
293.426
293.401
293.377
293.356
293.335
293.317
293.299
293.283
293.268
293.255
293.242
293.231
293.221
293.212
293.204
293.196
293.19
293.184
293.179
293.174
293.17
293.167
293.164
293.162
293.159
293.158
293.156
293.155
293.154
293.153
293.152
293.152
293.151
293.151
293.151
293.15
293.15
293.15
293.15
293.15
293.15
293.15
293.15
293.15
293.15
293.15
293.15
293.15
293.15
293.15
293.15
293.15
293.15
293.15
295.514
295.442
295.366
295.29
295.215
295.141
295.068
294.996
294.925
294.855
294.787
294.72
294.654
294.59
294.527
294.465
294.405
294.346
294.289
294.233
294.179
294.126
294.075
294.025
293.977
293.93
293.885
293.841
293.799
293.759
293.72
293.683
293.647
293.613
293.581
293.55
293.52
293.492
293.466
293.44
293.417
293.394
293.373
293.354
293.335
293.318
293.302
293.287
293.273
293.26
293.249
293.238
293.228
293.219
293.211
293.203
293.196
293.19
293.185
293.18
293.176
293.172
293.169
293.166
293.163
293.161
293.159
293.157
293.156
293.155
293.154
293.153
293.152
293.152
293.151
293.151
293.151
293.151
293.15
293.15
293.15
293.15
293.15
293.15
293.15
293.15
293.15
293.15
293.15
293.15
293.15
293.15
293.15
293.15
293.15
293.15
293.15
293.15
293.15
293.15
294.664
294.61
294.555
294.501
294.447
294.394
294.343
294.292
294.243
294.195
294.148
294.102
294.057
294.014
293.971
293.93
293.89
293.852
293.814
293.778
293.743
293.709
293.677
293.645
293.615
293.586
293.558
293.532
293.506
293.482
293.459
293.437
293.416
293.396
293.377
293.36
293.343
293.327
293.312
293.298
293.285
293.273
293.262
293.251
293.242
293.232
293.224
293.216
293.209
293.203
293.197
293.191
293.186
293.182
293.178
293.174
293.171
293.168
293.166
293.163
293.161
293.16
293.158
293.157
293.156
293.155
293.154
293.153
293.153
293.152
293.152
293.151
293.151
293.151
293.151
293.15
293.15
293.15
293.15
293.15
293.15
293.15
293.15
293.15
293.15
293.15
293.15
293.15
293.15
293.15
293.15
293.15
293.15
293.15
293.15
293.15
293.15
293.15
293.15
293.15
393.15
393.15
393.15
393.15
393.15
393.15
393.15
393.15
393.15
393.15
393.15
393.15
393.15
393.15
393.15
393.15
393.15
393.15
393.15
393.15
393.15
393.15
393.15
393.15
393.15
393.15
393.15
393.15
393.15
393.15
393.15
393.15
393.15
393.15
393.15
393.15
393.15
393.15
393.15
393.15
393.15
393.15
393.15
393.15
393.15
393.15
393.15
393.15
393.15
393.15
393.15
393.15
393.15
393.15
393.15
393.15
393.15
393.15
393.15
393.15
393.15
393.15
393.15
393.15
393.15
393.15
393.15
393.15
393.15
393.15
393.15
393.15
393.15
393.15
393.15
393.15
393.149
393.149
393.147
393.141
393.15
393.15
393.15
393.15
393.15
393.15
393.15
393.15
393.15
393.15
393.15
393.15
393.149
393.149
393.148
393.147
393.144
393.136
393.112
393.01
393.15
393.15
393.15
393.15
393.149
393.149
393.149
393.149
393.148
393.148
393.147
393.146
393.144
393.141
393.134
393.122
393.093
393.018
392.777
391.578
393.142
393.141
393.139
393.136
393.133
393.129
393.125
393.122
393.119
393.117
393.114
393.108
393.098
393.079
393.042
392.965
392.789
392.323
390.689
381.592
392.914
392.887
392.858
392.825
392.793
392.766
392.749
392.748
392.756
392.765
392.77
392.764
392.741
392.68
392.542
392.243
391.568
389.822
383.923
350.52
389.461
389.298
389.145
389
388.891
388.885
388.945
389.077
389.21
389.359
389.507
389.662
389.787
389.849
389.644
388.943
387.182
383.111
372.773
318.633
365.279
364.955
364.648
364.382
364.221
364.306
364.479
364.667
364.912
365.271
365.706
366.315
366.988
367.896
368.489
368.349
366.057
360.311
347.257
318.393
307.443
307.61
307.732
307.815
307.795
307.514
307.148
306.77
306.373
305.908
305.404
304.782
304.097
303.22
302.617
302.436
303.128
304.245
304.709
305.226
294.69
294.758
294.818
294.874
294.909
294.892
294.839
294.744
294.648
294.542
294.436
294.312
294.195
294.061
293.972
293.937
293.996
294.12
294.324
298.624
293.229
293.238
293.247
293.258
293.269
293.277
293.281
293.278
293.27
293.259
293.248
293.237
293.227
293.217
293.212
293.211
293.219
293.248
293.394
295.087
293.152
293.152
293.153
293.154
293.154
293.155
293.156
293.157
293.157
293.156
293.156
293.155
293.155
293.154
293.154
293.155
293.156
293.162
293.19
293.454
293.15
293.15
293.15
293.15
293.15
293.15
293.15
293.15
293.15
293.15
293.15
293.15
293.15
293.15
293.15
293.15
293.15
293.151
293.152
293.155
293.15
293.15
293.15
293.15
293.15
293.15
293.15
293.15
293.15
293.15
293.15
293.15
293.15
293.15
293.15
293.15
293.15
293.15
293.15
293.15
293.15
293.15
293.15
293.15
293.15
293.15
293.15
293.15
293.15
293.15
293.15
293.15
293.15
293.15
293.15
293.15
293.15
293.15
293.15
293.15
293.15
293.15
293.15
293.15
293.15
293.15
293.15
293.15
293.15
293.15
293.15
293.15
293.15
293.15
293.15
293.15
293.15
293.15
293.15
293.15
293.15
293.15
293.15
293.15
293.15
293.15
293.15
293.15
293.15
293.15
293.15
293.15
293.15
293.15
293.15
293.15
293.15
293.15
293.15
293.15
293.15
293.15
293.15
293.15
293.15
293.15
293.15
293.15
293.15
293.15
293.15
293.15
293.15
293.15
293.15
293.15
293.15
293.15
293.15
293.15
393.15
393.15
393.15
393.15
393.15
393.15
393.15
393.15
393.15
393.15
393.15
393.15
393.15
393.15
393.15
393.15
393.15
393.15
393.15
393.15
393.15
393.15
393.15
393.15
393.15
393.15
393.15
393.15
393.15
393.15
393.15
393.15
393.15
393.15
393.15
393.15
393.15
393.15
393.15
393.15
393.15
393.15
393.15
393.15
393.15
393.15
393.15
393.15
393.15
393.15
393.15
393.15
393.15
393.15
393.15
393.15
393.15
393.15
393.15
393.15
393.15
393.15
393.15
393.15
393.15
393.15
393.15
393.15
393.15
393.15
393.15
393.15
393.15
393.15
393.15
393.15
393.15
393.15
393.15
393.15
393.15
393.15
393.15
393.15
393.15
393.15
393.15
393.15
393.15
393.15
393.15
393.15
393.15
393.15
393.15
393.15
393.15
393.15
393.15
393.15
393.15
393.15
393.15
393.15
393.15
393.15
393.15
393.15
393.15
393.15
393.15
393.15
393.15
393.15
393.15
393.15
393.15
393.15
393.15
393.15
393.15
393.15
393.15
393.15
393.15
393.15
393.15
393.15
393.15
393.15
393.15
393.15
393.15
393.15
393.15
393.15
393.15
393.15
393.15
393.15
393.15
393.15
393.15
393.15
393.15
393.15
393.15
393.15
393.15
393.15
393.15
393.15
393.15
393.15
393.15
393.15
393.15
393.15
393.15
393.15
393.15
393.15
393.15
393.15
393.15
393.15
393.15
393.15
393.15
393.15
393.15
393.15
393.15
393.15
393.15
393.15
393.15
393.15
393.15
393.15
393.15
393.15
393.15
393.15
393.15
393.15
393.15
393.15
393.15
393.15
393.15
393.15
393.15
393.15
393.15
393.15
393.15
393.15
393.15
393.15
393.15
393.15
393.15
393.15
393.15
393.15
393.15
393.15
393.15
393.15
393.15
393.15
393.15
393.15
393.15
393.15
393.15
393.15
393.15
393.15
393.15
393.15
393.15
393.15
393.15
393.15
393.15
393.15
393.15
393.15
393.15
393.15
393.15
393.15
393.15
393.15
393.15
393.15
393.15
393.15
393.15
393.15
393.15
393.15
393.15
393.15
393.15
393.15
393.15
393.15
393.15
393.15
393.15
393.15
393.15
393.15
393.15
393.15
393.15
393.15
393.15
393.15
393.15
393.15
393.15
393.15
393.15
393.15
393.15
393.15
393.15
393.15
393.15
393.15
393.15
393.15
393.15
393.15
393.15
393.15
393.15
393.15
393.15
393.15
393.15
393.15
393.15
393.15
393.15
393.15
393.15
393.15
393.15
393.15
393.15
393.15
393.15
393.15
393.15
393.15
393.15
393.15
393.15
393.15
393.15
393.15
393.15
393.15
393.15
393.15
393.15
393.15
393.15
393.15
393.15
393.15
393.15
393.15
393.15
393.15
393.15
393.15
393.15
393.15
393.15
393.15
393.15
393.15
393.15
393.15
393.15
393.15
393.15
393.15
393.15
393.15
393.15
393.15
393.15
393.15
393.15
393.15
393.15
393.15
393.15
393.15
393.15
393.15
393.15
393.15
393.15
393.15
393.15
393.15
393.15
393.15
393.15
393.15
393.15
393.15
393.15
393.15
393.15
393.15
393.15
393.15
393.15
393.15
393.15
393.15
393.15
393.15
393.15
393.15
393.15
393.15
393.15
393.15
393.15
393.15
393.15
393.15
393.15
393.15
393.15
393.15
393.15
393.15
393.15
393.15
393.15
393.15
393.15
393.15
393.15
393.15
393.15
393.15
393.15
393.15
393.15
393.15
393.15
393.15
393.15
393.15
393.15
393.15
393.15
393.15
393.15
393.15
393.15
393.15
393.15
393.15
393.15
393.15
393.15
393.15
393.15
393.15
393.15
393.15
393.15
393.15
393.15
393.15
393.15
393.15
393.15
393.15
393.15
393.15
393.15
393.15
393.15
393.15
393.15
393.15
393.15
393.15
393.15
393.15
393.15
393.15
393.15
393.15
393.15
393.15
393.15
393.15
393.15
393.15
393.15
393.15
393.15
393.15
393.15
393.15
393.15
393.15
393.15
393.15
393.15
393.15
393.15
393.15
393.15
393.15
393.15
393.15
393.15
393.15
393.15
393.15
393.15
393.15
393.15
393.15
393.15
393.15
393.15
393.15
393.15
393.15
393.15
393.15
393.15
393.15
393.15
393.15
393.15
393.15
393.15
393.15
393.15
393.15
393.15
393.15
393.15
393.15
393.15
393.15
393.15
393.15
393.15
393.15
393.15
393.15
393.15
393.15
393.15
393.15
393.15
393.15
393.15
393.15
393.15
393.15
393.15
393.15
393.15
393.15
393.15
393.15
393.15
393.15
393.15
393.15
393.15
393.15
393.15
393.15
393.15
393.15
393.15
393.15
393.15
393.15
393.15
393.15
393.15
393.15
393.15
393.15
393.15
393.15
393.15
393.15
393.15
393.15
393.15
393.15
393.15
393.15
393.15
393.15
393.15
393.15
393.15
393.15
393.15
393.15
393.15
393.15
393.15
393.15
393.15
393.15
393.15
393.15
393.15
393.15
393.15
393.15
393.15
393.15
393.15
393.15
393.15
393.15
393.15
393.15
393.15
393.15
393.15
393.15
393.15
393.15
393.15
393.15
393.15
393.15
393.15
393.15
393.15
393.15
393.15
393.15
393.15
393.15
393.15
393.15
393.15
393.15
393.15
393.15
393.15
393.15
393.15
393.15
393.15
393.15
393.15
393.15
393.15
393.15
393.15
393.15
393.15
393.15
393.15
393.15
393.15
393.15
393.15
393.15
393.15
393.15
393.15
393.15
393.15
393.15
393.15
393.15
393.15
393.15
393.15
393.15
393.15
393.15
393.15
393.15
393.15
393.15
393.15
393.15
393.15
393.15
393.15
393.15
393.15
393.15
393.15
393.15
393.15
393.15
393.15
393.15
393.15
393.15
393.15
393.15
393.15
393.15
393.15
393.15
393.15
393.15
393.15
393.15
393.15
393.15
393.15
393.15
393.15
393.15
393.15
393.15
393.15
393.15
393.15
393.15
393.15
393.15
393.15
393.15
393.15
393.15
393.15
393.15
393.15
393.15
393.15
393.15
393.15
393.15
393.15
393.15
393.15
393.15
393.15
393.15
393.15
393.15
393.15
393.15
393.15
393.15
393.15
393.15
393.15
393.15
393.15
393.15
393.15
393.15
393.15
393.15
393.15
393.15
393.15
393.15
393.15
393.15
393.15
393.15
393.15
393.15
393.15
393.15
393.15
393.15
393.15
393.15
393.15
393.15
393.15
393.15
393.15
393.15
393.15
393.15
393.15
393.15
393.15
393.15
393.15
393.15
393.15
393.15
393.15
393.15
393.15
393.15
393.15
393.15
393.15
393.15
393.15
393.15
393.15
393.15
393.15
393.15
393.15
393.15
393.15
393.15
393.15
393.15
393.15
393.15
393.15
393.15
393.15
393.15
393.15
393.15
393.15
393.15
393.15
393.15
393.15
393.15
393.15
393.15
393.15
393.15
393.15
393.15
393.15
393.15
393.15
393.15
393.15
393.15
393.15
393.15
393.15
393.15
393.15
393.15
393.15
393.15
393.15
393.15
393.15
393.15
393.15
393.15
393.15
393.15
393.15
393.15
393.15
393.15
393.15
393.15
393.15
393.15
393.15
393.15
393.15
393.15
393.15
393.15
393.15
393.15
393.15
393.15
393.15
393.15
393.15
393.15
393.15
393.15
393.15
393.15
393.15
393.15
393.15
393.15
393.15
393.15
393.15
393.15
393.15
393.15
393.15
393.15
393.15
393.15
393.15
393.15
393.15
393.15
393.15
393.15
393.15
393.15
393.15
393.15
393.15
393.15
393.15
393.15
393.15
393.15
393.15
393.15
393.15
393.15
393.15
393.15
393.15
393.15
393.15
393.15
393.15
393.15
393.15
393.15
393.15
393.15
393.15
393.15
393.15
393.15
393.15
393.15
393.15
393.15
393.15
393.15
393.15
393.15
393.15
393.15
393.15
393.15
393.15
393.15
393.15
393.15
393.15
393.15
393.15
393.15
393.15
393.15
393.15
393.15
393.15
393.15
393.15
393.15
393.15
393.15
393.15
393.15
393.15
393.15
393.15
393.15
393.15
393.15
393.15
393.15
393.15
393.15
393.15
393.15
393.15
393.15
393.15
393.15
393.15
393.15
393.15
393.15
393.15
393.15
393.15
393.15
393.15
393.15
393.15
393.15
393.15
393.15
393.15
393.15
393.15
393.15
393.15
393.15
393.15
393.15
393.15
393.15
393.15
393.15
393.15
393.15
393.15
393.15
393.15
393.15
393.15
393.15
393.15
393.15
393.15
393.15
393.15
393.15
393.15
393.15
393.15
393.15
393.15
393.15
393.15
393.15
393.15
393.15
393.15
393.15
393.15
393.15
393.15
393.15
393.15
393.15
393.15
393.15
393.15
393.15
393.15
393.15
393.15
393.15
393.15
393.15
393.15
393.15
393.15
393.15
393.15
393.15
393.15
393.15
393.15
393.15
393.15
393.15
393.15
393.15
393.15
393.15
393.15
393.15
393.15
393.15
393.15
393.15
393.15
393.15
393.15
393.15
393.15
393.15
393.15
393.15
393.15
393.15
393.15
393.15
393.15
393.15
393.15
393.15
393.15
393.15
393.15
393.15
393.15
393.15
393.15
393.15
393.15
393.15
393.15
393.15
393.15
393.15
393.15
393.15
393.15
393.15
393.15
393.15
393.15
393.15
393.15
393.15
393.15
393.15
393.15
393.15
393.15
393.15
393.15
393.15
393.15
393.15
393.15
393.15
393.15
393.15
393.15
393.15
393.15
393.15
393.15
393.15
393.15
393.15
393.15
393.15
393.15
393.15
393.15
393.15
393.15
393.15
393.15
393.15
393.15
393.15
393.15
393.15
393.15
393.15
393.15
393.15
393.15
393.15
393.15
393.15
393.15
393.15
393.15
393.15
393.15
393.15
393.15
393.15
393.15
393.15
393.15
393.15
393.15
393.15
393.15
393.15
393.15
393.15
393.15
393.15
393.15
393.15
393.15
393.15
393.15
393.15
393.15
393.15
393.15
393.15
393.15
393.15
393.15
393.15
393.15
393.15
393.15
393.15
393.15
393.15
393.15
393.15
393.15
393.15
393.15
393.15
393.15
393.15
393.15
393.15
393.15
393.15
393.15
393.15
393.15
393.15
393.15
393.15
393.15
393.15
393.15
393.15
393.15
393.15
393.15
393.15
393.15
393.15
393.15
393.15
393.15
393.15
393.15
393.15
393.15
393.15
393.15
393.15
393.15
393.15
393.15
393.15
393.15
393.15
393.15
393.15
393.15
393.15
393.15
393.15
393.15
393.15
393.15
393.15
393.15
393.15
393.15
393.15
393.15
393.15
393.15
393.15
393.15
393.15
393.15
393.15
393.15
393.15
393.15
393.15
393.15
393.15
393.15
393.15
393.15
393.15
393.15
393.15
393.15
393.15
393.15
393.15
393.15
393.15
393.15
393.15
393.15
393.15
393.15
393.15
393.15
393.15
393.15
393.15
393.15
393.15
393.15
393.15
393.15
393.15
393.15
393.15
393.15
393.15
393.15
393.15
393.15
393.15
393.15
393.15
393.15
393.15
393.15
393.15
393.15
393.15
393.15
393.15
393.15
393.15
393.15
393.15
393.15
393.15
393.15
393.15
393.15
393.15
393.15
393.15
393.15
393.15
393.15
393.15
393.15
393.15
393.15
393.15
393.15
393.15
393.15
393.15
393.15
393.15
393.15
393.15
393.15
393.15
393.15
393.15
393.15
393.15
393.15
393.15
393.15
393.15
393.15
393.15
393.15
393.15
393.15
393.15
393.15
393.15
393.15
393.15
393.15
393.15
393.15
393.15
393.15
393.15
393.15
393.15
393.15
393.15
393.15
393.15
393.15
393.15
393.15
393.15
393.15
393.15
393.15
393.15
393.15
393.15
393.15
393.15
393.15
393.15
393.15
393.15
393.15
393.15
393.15
393.15
393.15
393.15
393.15
393.15
393.15
393.15
393.15
393.15
393.15
393.15
393.15
393.15
393.15
393.15
393.15
393.15
393.15
393.15
393.15
393.15
393.15
393.15
393.15
393.15
393.15
393.15
393.15
393.15
393.15
393.15
393.15
393.15
393.15
393.15
393.15
393.15
393.15
393.15
393.15
393.15
393.15
393.15
393.15
393.15
393.15
393.15
393.15
393.15
393.15
393.15
393.15
393.15
393.15
393.15
393.15
393.15
393.15
393.15
393.15
393.15
393.15
393.15
393.15
393.15
393.15
393.15
393.15
393.15
393.15
393.15
393.15
393.15
393.15
393.15
393.15
393.15
393.15
393.15
393.15
393.15
393.15
393.15
393.15
393.15
393.15
393.15
393.15
393.15
393.15
393.15
393.15
393.15
393.15
393.15
393.15
393.15
393.15
393.15
393.15
393.15
393.15
393.15
393.15
393.15
393.15
393.15
393.15
393.15
393.15
393.15
393.15
393.15
393.15
393.15
393.15
393.15
393.15
393.15
393.15
393.15
393.15
393.15
393.15
393.15
393.15
393.15
393.15
393.15
393.15
393.15
393.15
393.15
393.15
393.15
393.15
393.15
393.15
393.15
393.15
393.15
393.15
393.15
393.15
393.15
393.15
393.15
393.15
393.15
393.15
393.15
393.15
393.15