/*--------------------------------*- C++ -*----------------------------------*\
| =========                 |                                                 |
| \\      /  F ield         | OpenFOAM: The Open Source CFD Toolbox           |
|  \\    /   O peration     | Version:  2.1.0                                 |
|   \\  /    A nd           | Web:      www.OpenFOAM.org                      |
|    \\/     M anipulation  |                                                 |
\*---------------------------------------------------------------------------*/
FoamFile
{
    version     2.0;
    format      ascii;
    class       volVectorField;
    location    "0.45";
    object      U;
}
// * * * * * * * * * * * * * * * * * * * * * * * * * * * * * * * * * * * * * //

dimensions      [0 1 -1 0 0 0 0];

internalField   nonuniform List<vector> 
6400
(
(-1.30133 -4.62302e-05 0)
(-1.30018 -0.000500389 0)
(-1.29779 -0.000790421 0)
(-1.29447 -0.000938019 0)
(-1.29068 -0.00102524 0)
(-1.28659 -0.00108379 0)
(-1.2823 -0.00112601 0)
(-1.27786 -0.00115922 0)
(-1.2733 -0.00118727 0)
(-1.26863 -0.00121259 0)
(-1.26386 -0.00123647 0)
(-1.25899 -0.00125973 0)
(-1.25403 -0.00128283 0)
(-1.24898 -0.00130599 0)
(-1.24383 -0.00132944 0)
(-1.23859 -0.00135318 0)
(-1.23325 -0.00137736 0)
(-1.22781 -0.00140191 0)
(-1.22227 -0.00142693 0)
(-1.21663 -0.00145231 0)
(-1.21089 -0.00147813 0)
(-1.20505 -0.0015042 0)
(-1.19909 -0.00153081 0)
(-1.19303 -0.00155798 0)
(-1.18686 -0.00158515 0)
(-1.18058 -0.00161299 0)
(-1.17419 -0.00164261 0)
(-1.16767 -0.00167334 0)
(-1.16103 -0.00170504 0)
(-1.15426 -0.00173764 0)
(-1.14736 -0.00177129 0)
(-1.14032 -0.00180601 0)
(-1.13314 -0.00184194 0)
(-1.12582 -0.00187914 0)
(-1.11834 -0.00191773 0)
(-1.11071 -0.0019577 0)
(-1.10292 -0.00199916 0)
(-1.09496 -0.00204217 0)
(-1.08682 -0.00208688 0)
(-1.0785 -0.00213343 0)
(-1.06999 -0.00218213 0)
(-1.06129 -0.00223294 0)
(-1.05238 -0.00228596 0)
(-1.04325 -0.00234131 0)
(-1.0339 -0.00239905 0)
(-1.02432 -0.00245919 0)
(-1.01449 -0.00252177 0)
(-1.00441 -0.00258671 0)
(-0.994074 -0.00265387 0)
(-0.983463 -0.00272341 0)
(-0.972573 -0.00279461 0)
(-0.961402 -0.002866 0)
(-0.949939 -0.00294144 0)
(-0.938166 -0.0030231 0)
(-0.926061 -0.00310905 0)
(-0.913609 -0.00319763 0)
(-0.900816 -0.00328423 0)
(-0.887684 -0.00336729 0)
(-0.874227 -0.00344888 0)
(-0.860445 -0.0035314 0)
(-0.846333 -0.00361579 0)
(-0.831884 -0.00370215 0)
(-0.817088 -0.00379114 0)
(-0.801933 -0.00388355 0)
(-0.786407 -0.0039795 0)
(-0.770493 -0.00407957 0)
(-0.754175 -0.00418407 0)
(-0.737434 -0.00429378 0)
(-0.720248 -0.00440917 0)
(-0.702596 -0.00453064 0)
(-0.68445 -0.00465852 0)
(-0.665786 -0.00479349 0)
(-0.646575 -0.00493602 0)
(-0.626785 -0.00508695 0)
(-0.606381 -0.00524723 0)
(-0.585324 -0.00541807 0)
(-0.563569 -0.00560107 0)
(-0.541065 -0.00579823 0)
(-0.51775 -0.00601241 0)
(-0.493549 -0.00624784 0)
(-0.468369 -0.00650972 0)
(-0.442091 -0.00680456 0)
(-0.414571 -0.00714077 0)
(-0.385627 -0.00752767 0)
(-0.355045 -0.00797255 0)
(-0.322594 -0.00847807 0)
(-0.288044 -0.00903949 0)
(-0.251217 -0.00963603 0)
(-0.212078 -0.0102162 0)
(-0.170913 -0.0106688 0)
(-0.128669 -0.010767 0)
(-0.0876179 -0.0100645 0)
(-0.0519121 -0.00804995 0)
(-0.0266846 -0.00473924 0)
(-0.0155303 -0.000910517 0)
(-0.020127 0.0032259 0)
(-0.0489152 0.0113503 0)
(-0.129031 0.0292112 0)
(-0.328818 0.0711591 0)
(-0.948379 0.198979 0)
(-1.56835 -0.000329178 0)
(-1.56521 -0.0016495 0)
(-1.56305 -0.00240664 0)
(-1.55958 -0.00280969 0)
(-1.55575 -0.00305358 0)
(-1.55167 -0.00321793 0)
(-1.54742 -0.0033366 0)
(-1.54304 -0.0034298 0)
(-1.53856 -0.00350855 0)
(-1.53398 -0.00357949 0)
(-1.52933 -0.00364647 0)
(-1.52459 -0.00371162 0)
(-1.51977 -0.00377644 0)
(-1.51488 -0.00384143 0)
(-1.5099 -0.00390736 0)
(-1.50484 -0.00397418 0)
(-1.4997 -0.00404237 0)
(-1.49448 -0.0041117 0)
(-1.48917 -0.0041825 0)
(-1.48377 -0.00425444 0)
(-1.47828 -0.00432773 0)
(-1.4727 -0.00440184 0)
(-1.46702 -0.00447724 0)
(-1.46125 -0.00455435 0)
(-1.45539 -0.00463082 0)
(-1.44943 -0.00470812 0)
(-1.44338 -0.00479019 0)
(-1.43723 -0.00487468 0)
(-1.43099 -0.00496142 0)
(-1.42464 -0.00505034 0)
(-1.4182 -0.00514185 0)
(-1.41165 -0.00523602 0)
(-1.40499 -0.00533323 0)
(-1.39823 -0.00543361 0)
(-1.39136 -0.00553747 0)
(-1.38437 -0.00564482 0)
(-1.37726 -0.00575599 0)
(-1.37004 -0.00587117 0)
(-1.36269 -0.00599067 0)
(-1.35521 -0.00611457 0)
(-1.3476 -0.00624374 0)
(-1.33985 -0.00637821 0)
(-1.33196 -0.00651827 0)
(-1.32393 -0.00666429 0)
(-1.31574 -0.00681648 0)
(-1.3074 -0.00697505 0)
(-1.29889 -0.00714022 0)
(-1.29021 -0.00731202 0)
(-1.28135 -0.00749032 0)
(-1.2723 -0.00767559 0)
(-1.26306 -0.00786668 0)
(-1.2536 -0.00805898 0)
(-1.24396 -0.00825561 0)
(-1.23413 -0.00845959 0)
(-1.22413 -0.00866929 0)
(-1.21396 -0.00888363 0)
(-1.20365 -0.00909718 0)
(-1.19315 -0.00930614 0)
(-1.18247 -0.00951268 0)
(-1.17161 -0.00972128 0)
(-1.16056 -0.0099341 0)
(-1.14933 -0.0101517 0)
(-1.13791 -0.0103753 0)
(-1.12629 -0.0106062 0)
(-1.11449 -0.0108448 0)
(-1.10248 -0.0110924 0)
(-1.09027 -0.0113499 0)
(-1.07786 -0.011619 0)
(-1.06523 -0.0119008 0)
(-1.05239 -0.012197 0)
(-1.03932 -0.0125087 0)
(-1.026 -0.0128379 0)
(-1.01243 -0.0131864 0)
(-0.998578 -0.0135569 0)
(-0.984429 -0.0139523 0)
(-0.969951 -0.0143765 0)
(-0.955112 -0.0148342 0)
(-0.939869 -0.0153311 0)
(-0.924176 -0.0158747 0)
(-0.907975 -0.0164761 0)
(-0.8912 -0.017148 0)
(-0.873773 -0.0179057 0)
(-0.855608 -0.018768 0)
(-0.83661 -0.0197555 0)
(-0.816676 -0.0208846 0)
(-0.7957 -0.0221603 0)
(-0.773586 -0.0235672 0)
(-0.750284 -0.0250486 0)
(-0.725834 -0.0264728 0)
(-0.700436 -0.0275691 0)
(-0.674549 -0.0278129 0)
(-0.648943 -0.0262508 0)
(-0.624988 -0.0216549 0)
(-0.605601 -0.0134803 0)
(-0.599756 -0.000926526 0)
(-0.615065 0.0132734 0)
(-0.663567 0.0398603 0)
(-0.767708 0.0921248 0)
(-0.970761 0.204427 0)
(-1.45952 0.526479 0)
(-1.71787 -0.000897515 0)
(-1.71382 -0.00287765 0)
(-1.71252 -0.00396484 0)
(-1.70959 -0.00457091 0)
(-1.70635 -0.00494449 0)
(-1.70291 -0.00519646 0)
(-1.69933 -0.00537732 0)
(-1.69566 -0.00551887 0)
(-1.6919 -0.00563743 0)
(-1.68809 -0.00574397 0)
(-1.6842 -0.00584394 0)
(-1.68027 -0.00594116 0)
(-1.67627 -0.00603756 0)
(-1.67224 -0.00613439 0)
(-1.66813 -0.00623252 0)
(-1.66399 -0.00633227 0)
(-1.65977 -0.00643413 0)
(-1.65551 -0.00653806 0)
(-1.65118 -0.00664444 0)
(-1.6468 -0.00675311 0)
(-1.64235 -0.00686429 0)
(-1.63783 -0.00697746 0)
(-1.63324 -0.00709307 0)
(-1.62858 -0.00721217 0)
(-1.62382 -0.0073314 0)
(-1.61901 -0.00745029 0)
(-1.61411 -0.00757238 0)
(-1.60914 -0.00769584 0)
(-1.60411 -0.00782137 0)
(-1.59902 -0.00794942 0)
(-1.59386 -0.00808053 0)
(-1.58865 -0.00821491 0)
(-1.58338 -0.00835295 0)
(-1.57804 -0.00849487 0)
(-1.57264 -0.00864097 0)
(-1.56718 -0.00879134 0)
(-1.56166 -0.00894623 0)
(-1.55608 -0.00910601 0)
(-1.55044 -0.00927114 0)
(-1.54474 -0.0094411 0)
(-1.53898 -0.00961698 0)
(-1.53316 -0.00979903 0)
(-1.52729 -0.00998741 0)
(-1.52136 -0.0101827 0)
(-1.51539 -0.0103851 0)
(-1.50936 -0.0105948 0)
(-1.50329 -0.0108123 0)
(-1.49717 -0.0110377 0)
(-1.49102 -0.0112708 0)
(-1.48482 -0.0115118 0)
(-1.47859 -0.0117594 0)
(-1.47234 -0.0120097 0)
(-1.46608 -0.0122602 0)
(-1.45978 -0.0125099 0)
(-1.45348 -0.0127595 0)
(-1.44719 -0.0130107 0)
(-1.44091 -0.0132648 0)
(-1.43463 -0.0135185 0)
(-1.42835 -0.0137701 0)
(-1.42208 -0.0140221 0)
(-1.41582 -0.0142766 0)
(-1.40958 -0.0145343 0)
(-1.40338 -0.0147961 0)
(-1.39722 -0.0150625 0)
(-1.39111 -0.0153339 0)
(-1.38508 -0.0156113 0)
(-1.37914 -0.0158956 0)
(-1.37331 -0.0161878 0)
(-1.3676 -0.0164895 0)
(-1.36203 -0.0168024 0)
(-1.35664 -0.0171283 0)
(-1.35142 -0.01747 0)
(-1.34642 -0.0178297 0)
(-1.34165 -0.0182116 0)
(-1.33712 -0.0186205 0)
(-1.33285 -0.0190619 0)
(-1.32886 -0.0195434 0)
(-1.32515 -0.0200738 0)
(-1.32172 -0.0206637 0)
(-1.31856 -0.0213288 0)
(-1.31567 -0.022087 0)
(-1.31301 -0.0229575 0)
(-1.31056 -0.0239625 0)
(-1.30828 -0.0251254 0)
(-1.30613 -0.0264643 0)
(-1.30409 -0.0279839 0)
(-1.30211 -0.0296581 0)
(-1.30021 -0.0314039 0)
(-1.29844 -0.0330415 0)
(-1.29695 -0.0342236 0)
(-1.29599 -0.0343237 0)
(-1.29589 -0.0322971 0)
(-1.29717 -0.026655 0)
(-1.30132 -0.0159026 0)
(-1.31033 0.00228095 0)
(-1.3275 0.0264038 0)
(-1.367 0.0696625 0)
(-1.44332 0.149767 0)
(-1.58731 0.311581 0)
(-1.85836 0.719482 0)
(-1.85251 -0.00155969 0)
(-1.84818 -0.00387634 0)
(-1.8479 -0.00520037 0)
(-1.84587 -0.00596692 0)
(-1.84361 -0.00644399 0)
(-1.84121 -0.00676365 0)
(-1.83869 -0.00698998 0)
(-1.83613 -0.00716489 0)
(-1.8335 -0.00730872 0)
(-1.83086 -0.00743666 0)
(-1.82818 -0.00755497 0)
(-1.82549 -0.00766946 0)
(-1.82277 -0.00778194 0)
(-1.82005 -0.00789478 0)
(-1.8173 -0.00800847 0)
(-1.81455 -0.00812405 0)
(-1.81177 -0.00824169 0)
(-1.809 -0.00836183 0)
(-1.8062 -0.00848459 0)
(-1.8034 -0.00861024 0)
(-1.80059 -0.00873899 0)
(-1.79777 -0.00887033 0)
(-1.79494 -0.00900483 0)
(-1.79211 -0.00914263 0)
(-1.78925 -0.00928262 0)
(-1.78642 -0.00942333 0)
(-1.78357 -0.00956347 0)
(-1.78071 -0.00970289 0)
(-1.77785 -0.00984317 0)
(-1.77499 -0.00998527 0)
(-1.77213 -0.0101298 0)
(-1.76928 -0.0102769 0)
(-1.76643 -0.010427 0)
(-1.76359 -0.0105803 0)
(-1.76077 -0.0107369 0)
(-1.75797 -0.0108967 0)
(-1.75519 -0.0110598 0)
(-1.75244 -0.0112265 0)
(-1.74971 -0.0113972 0)
(-1.74703 -0.0115712 0)
(-1.74439 -0.0117492 0)
(-1.7418 -0.0119313 0)
(-1.73926 -0.0121173 0)
(-1.73679 -0.0123075 0)
(-1.7344 -0.0125019 0)
(-1.73209 -0.0127005 0)
(-1.72988 -0.0129031 0)
(-1.72777 -0.0131096 0)
(-1.72579 -0.0133195 0)
(-1.72395 -0.0135319 0)
(-1.72225 -0.0137448 0)
(-1.72072 -0.0139584 0)
(-1.71938 -0.0141731 0)
(-1.71818 -0.0143854 0)
(-1.71715 -0.0145936 0)
(-1.71627 -0.0147996 0)
(-1.71557 -0.015006 0)
(-1.71505 -0.0152108 0)
(-1.71473 -0.0154103 0)
(-1.71462 -0.0156051 0)
(-1.71474 -0.0157956 0)
(-1.71509 -0.0159826 0)
(-1.71571 -0.0161666 0)
(-1.7166 -0.0163476 0)
(-1.71778 -0.016526 0)
(-1.71928 -0.0167022 0)
(-1.7211 -0.0168769 0)
(-1.72326 -0.0170508 0)
(-1.72578 -0.0172253 0)
(-1.72868 -0.0174026 0)
(-1.73196 -0.0175848 0)
(-1.73563 -0.0177755 0)
(-1.7397 -0.0179784 0)
(-1.74418 -0.0181988 0)
(-1.74904 -0.0184436 0)
(-1.7543 -0.018721 0)
(-1.75992 -0.0190417 0)
(-1.76588 -0.0194178 0)
(-1.77214 -0.019863 0)
(-1.77868 -0.0203971 0)
(-1.78543 -0.021043 0)
(-1.79234 -0.0218223 0)
(-1.79936 -0.0227591 0)
(-1.80642 -0.0238765 0)
(-1.81348 -0.0251912 0)
(-1.8205 -0.0267036 0)
(-1.82745 -0.0283777 0)
(-1.83434 -0.0301115 0)
(-1.84122 -0.031696 0)
(-1.84818 -0.0327503 0)
(-1.8553 -0.0326246 0)
(-1.86262 -0.0302888 0)
(-1.8701 -0.0241978 0)
(-1.87829 -0.0124804 0)
(-1.8876 0.00662446 0)
(-1.89886 0.0365436 0)
(-1.92165 0.0894286 0)
(-1.96303 0.186028 0)
(-2.03239 0.375521 0)
(-2.13335 0.778249 0)
(-1.98772 -0.00213344 0)
(-1.98376 -0.00451416 0)
(-1.98463 -0.00594383 0)
(-1.98383 -0.00680348 0)
(-1.98301 -0.00734425 0)
(-1.98208 -0.00770136 0)
(-1.98115 -0.00794993 0)
(-1.98018 -0.00813649 0)
(-1.97924 -0.00828604 0)
(-1.97831 -0.00841532 0)
(-1.97739 -0.00853241 0)
(-1.97651 -0.00864353 0)
(-1.97565 -0.00875123 0)
(-1.97483 -0.00885792 0)
(-1.97404 -0.00896435 0)
(-1.97331 -0.00907153 0)
(-1.9726 -0.00917964 0)
(-1.97196 -0.00928905 0)
(-1.97136 -0.00939984 0)
(-1.97082 -0.00951221 0)
(-1.97034 -0.00962647 0)
(-1.96993 -0.00974155 0)
(-1.96959 -0.00985774 0)
(-1.96934 -0.00997424 0)
(-1.96916 -0.0100921 0)
(-1.96909 -0.0102129 0)
(-1.96909 -0.0103341 0)
(-1.96917 -0.0104539 0)
(-1.96932 -0.0105732 0)
(-1.96956 -0.0106927 0)
(-1.96989 -0.0108128 0)
(-1.97031 -0.0109338 0)
(-1.97082 -0.0110558 0)
(-1.97143 -0.0111788 0)
(-1.97215 -0.0113029 0)
(-1.97298 -0.0114279 0)
(-1.97393 -0.0115535 0)
(-1.975 -0.0116799 0)
(-1.9762 -0.011807 0)
(-1.97753 -0.0119347 0)
(-1.97901 -0.0120632 0)
(-1.98064 -0.012192 0)
(-1.98243 -0.012321 0)
(-1.98437 -0.0124502 0)
(-1.98649 -0.0125794 0)
(-1.98879 -0.0127082 0)
(-1.99127 -0.0128365 0)
(-1.99395 -0.0129637 0)
(-1.99682 -0.0130894 0)
(-1.99989 -0.0132126 0)
(-2.00317 -0.0133316 0)
(-2.00666 -0.013448 0)
(-2.01036 -0.0135654 0)
(-2.01427 -0.0136811 0)
(-2.01841 -0.0137919 0)
(-2.02278 -0.0138984 0)
(-2.02736 -0.0140015 0)
(-2.03218 -0.0140989 0)
(-2.03723 -0.0141876 0)
(-2.04251 -0.0142678 0)
(-2.04803 -0.0143396 0)
(-2.05378 -0.0144037 0)
(-2.05976 -0.0144611 0)
(-2.06598 -0.0145123 0)
(-2.07242 -0.0145579 0)
(-2.07907 -0.0145988 0)
(-2.08595 -0.0146359 0)
(-2.09302 -0.0146706 0)
(-2.1003 -0.0147049 0)
(-2.10775 -0.0147413 0)
(-2.11539 -0.014783 0)
(-2.12318 -0.0148344 0)
(-2.13113 -0.0149004 0)
(-2.13922 -0.0149878 0)
(-2.14744 -0.0151048 0)
(-2.15576 -0.0152615 0)
(-2.16419 -0.0154701 0)
(-2.17271 -0.0157463 0)
(-2.1813 -0.0161031 0)
(-2.18995 -0.0165629 0)
(-2.19865 -0.0171526 0)
(-2.20738 -0.017893 0)
(-2.21613 -0.0188081 0)
(-2.2249 -0.019919 0)
(-2.23368 -0.0212385 0)
(-2.24248 -0.0227617 0)
(-2.2513 -0.0244459 0)
(-2.26016 -0.026178 0)
(-2.26907 -0.0277387 0)
(-2.27803 -0.0287484 0)
(-2.28695 -0.0285869 0)
(-2.29558 -0.0263118 0)
(-2.30338 -0.0204727 0)
(-2.31049 -0.0092789 0)
(-2.31577 0.00944374 0)
(-2.31863 0.0410864 0)
(-2.32331 0.0973835 0)
(-2.32944 0.199534 0)
(-2.32755 0.392918 0)
(-2.31006 0.744649 0)
(-2.13021 -0.00245171 0)
(-2.12733 -0.00466653 0)
(-2.12939 -0.00604522 0)
(-2.13016 -0.00689792 0)
(-2.13109 -0.00743723 0)
(-2.13205 -0.00778573 0)
(-2.13311 -0.00802171 0)
(-2.1342 -0.00819018 0)
(-2.13538 -0.00831914 0)
(-2.13662 -0.00842448 0)
(-2.13794 -0.008516 0)
(-2.13934 -0.00859913 0)
(-2.14081 -0.00867744 0)
(-2.14238 -0.00875269 0)
(-2.14402 -0.00882622 0)
(-2.14577 -0.00889849 0)
(-2.1476 -0.00897 0)
(-2.14954 -0.00904072 0)
(-2.15157 -0.00911085 0)
(-2.15371 -0.00918029 0)
(-2.15596 -0.00924988 0)
(-2.15833 -0.00931775 0)
(-2.16082 -0.00938315 0)
(-2.16342 -0.00944717 0)
(-2.16615 -0.0095113 0)
(-2.169 -0.00957788 0)
(-2.17198 -0.00964583 0)
(-2.1751 -0.00971239 0)
(-2.17834 -0.00977731 0)
(-2.18172 -0.00984086 0)
(-2.18523 -0.0099034 0)
(-2.18888 -0.00996504 0)
(-2.19267 -0.010026 0)
(-2.19661 -0.0100863 0)
(-2.20069 -0.0101458 0)
(-2.20491 -0.0102044 0)
(-2.20928 -0.010262 0)
(-2.2138 -0.0103187 0)
(-2.21847 -0.0103744 0)
(-2.22328 -0.0104288 0)
(-2.22825 -0.0104824 0)
(-2.23335 -0.0105349 0)
(-2.23861 -0.0105861 0)
(-2.24401 -0.0106362 0)
(-2.24955 -0.0106852 0)
(-2.25523 -0.0107328 0)
(-2.26105 -0.0107789 0)
(-2.267 -0.0108234 0)
(-2.27307 -0.010866 0)
(-2.27927 -0.0109062 0)
(-2.28559 -0.0109434 0)
(-2.29202 -0.0109785 0)
(-2.29856 -0.0110136 0)
(-2.30521 -0.0110467 0)
(-2.31195 -0.0110767 0)
(-2.31878 -0.0111042 0)
(-2.3257 -0.0111294 0)
(-2.3327 -0.0111495 0)
(-2.33976 -0.011162 0)
(-2.34688 -0.0111666 0)
(-2.35407 -0.0111642 0)
(-2.36131 -0.0111558 0)
(-2.3686 -0.0111424 0)
(-2.37594 -0.0111247 0)
(-2.38331 -0.0111038 0)
(-2.39073 -0.0110804 0)
(-2.39818 -0.0110557 0)
(-2.40566 -0.0110312 0)
(-2.41318 -0.0110089 0)
(-2.42073 -0.0109913 0)
(-2.42831 -0.0109818 0)
(-2.43592 -0.0109844 0)
(-2.44357 -0.0110041 0)
(-2.45126 -0.0110478 0)
(-2.45899 -0.0111237 0)
(-2.46676 -0.011242 0)
(-2.47458 -0.0114143 0)
(-2.48246 -0.0116574 0)
(-2.49037 -0.0119831 0)
(-2.49836 -0.0124116 0)
(-2.50643 -0.0129695 0)
(-2.51458 -0.0136782 0)
(-2.52284 -0.0145611 0)
(-2.53122 -0.015638 0)
(-2.53973 -0.0169187 0)
(-2.54838 -0.0183967 0)
(-2.5572 -0.0200311 0)
(-2.56617 -0.0217108 0)
(-2.57527 -0.0232233 0)
(-2.58442 -0.0242202 0)
(-2.59341 -0.0241497 0)
(-2.60178 -0.0221961 0)
(-2.60866 -0.0171634 0)
(-2.61387 -0.00736918 0)
(-2.61509 0.00978384 0)
(-2.60997 0.0399549 0)
(-2.5984 0.0939856 0)
(-2.57291 0.191779 0)
(-2.51146 0.369205 0)
(-2.4154 0.652858 0)
(-2.27708 -0.00240679 0)
(-2.2755 -0.00424661 0)
(-2.27873 -0.00542169 0)
(-2.2811 -0.0061621 0)
(-2.28371 -0.00662754 0)
(-2.28653 -0.00691878 0)
(-2.28946 -0.00710631 0)
(-2.29254 -0.00722942 0)
(-2.2957 -0.00731475 0)
(-2.29898 -0.00737655 0)
(-2.30234 -0.00742438 0)
(-2.30581 -0.00746301 0)
(-2.30936 -0.00749619 0)
(-2.31303 -0.00752532 0)
(-2.31677 -0.007552 0)
(-2.32063 -0.00757643 0)
(-2.32457 -0.00759936 0)
(-2.32863 -0.00762057 0)
(-2.33276 -0.00764047 0)
(-2.337 -0.00765884 0)
(-2.34132 -0.00767698 0)
(-2.34575 -0.00769292 0)
(-2.35026 -0.00770446 0)
(-2.35488 -0.00771296 0)
(-2.35959 -0.00772055 0)
(-2.36441 -0.00772855 0)
(-2.36934 -0.00773676 0)
(-2.37438 -0.00774362 0)
(-2.37951 -0.0077489 0)
(-2.38476 -0.00775269 0)
(-2.3901 -0.0077555 0)
(-2.39555 -0.0077574 0)
(-2.40109 -0.00775899 0)
(-2.40673 -0.00776021 0)
(-2.41246 -0.0077614 0)
(-2.41828 -0.00776227 0)
(-2.42417 -0.00776324 0)
(-2.43015 -0.00776424 0)
(-2.43619 -0.00776555 0)
(-2.44231 -0.00776688 0)
(-2.44848 -0.00776892 0)
(-2.45471 -0.00777153 0)
(-2.46099 -0.00777476 0)
(-2.46732 -0.00777876 0)
(-2.47369 -0.00778367 0)
(-2.48009 -0.00778935 0)
(-2.48651 -0.00779572 0)
(-2.49296 -0.00780263 0)
(-2.49943 -0.00781021 0)
(-2.50591 -0.00781756 0)
(-2.5124 -0.00782479 0)
(-2.51889 -0.00783193 0)
(-2.52538 -0.00784026 0)
(-2.53187 -0.00784831 0)
(-2.53836 -0.00785543 0)
(-2.54484 -0.00786319 0)
(-2.5513 -0.00787176 0)
(-2.55776 -0.00787715 0)
(-2.5642 -0.00787557 0)
(-2.57063 -0.00786667 0)
(-2.57705 -0.00785134 0)
(-2.58346 -0.00783076 0)
(-2.58986 -0.00780543 0)
(-2.59627 -0.00777574 0)
(-2.60267 -0.00774266 0)
(-2.60909 -0.00770632 0)
(-2.61551 -0.00766759 0)
(-2.62196 -0.00762772 0)
(-2.62843 -0.00758825 0)
(-2.63493 -0.00755144 0)
(-2.64148 -0.00752026 0)
(-2.64807 -0.00749841 0)
(-2.65473 -0.00749066 0)
(-2.66145 -0.00750329 0)
(-2.66826 -0.00754479 0)
(-2.67515 -0.0076251 0)
(-2.68215 -0.00775564 0)
(-2.68927 -0.00795047 0)
(-2.6965 -0.00822477 0)
(-2.70393 -0.00859873 0)
(-2.71148 -0.00909441 0)
(-2.71919 -0.00973266 0)
(-2.72708 -0.010537 0)
(-2.73518 -0.0115262 0)
(-2.74351 -0.0127088 0)
(-2.7521 -0.0140784 0)
(-2.76095 -0.0156046 0)
(-2.77003 -0.0171883 0)
(-2.77928 -0.0186333 0)
(-2.78856 -0.0196431 0)
(-2.79755 -0.0197606 0)
(-2.80567 -0.0183221 0)
(-2.8118 -0.0144556 0)
(-2.81525 -0.00664041 0)
(-2.81326 0.00776588 0)
(-2.80119 0.0338276 0)
(-2.77554 0.0807312 0)
(-2.72325 0.165448 0)
(-2.61574 0.313156 0)
(-2.46997 0.525963 0)
(-2.41006 -0.00201349 0)
(-2.40948 -0.00331703 0)
(-2.41346 -0.00418889 0)
(-2.41689 -0.00474285 0)
(-2.42054 -0.00508513 0)
(-2.42454 -0.00528987 0)
(-2.4286 -0.00541129 0)
(-2.43287 -0.00548026 0)
(-2.43714 -0.00551791 0)
(-2.44158 -0.00553591 0)
(-2.44601 -0.00554202 0)
(-2.45058 -0.00554022 0)
(-2.45515 -0.00553367 0)
(-2.45984 -0.0055236 0)
(-2.46453 -0.00551148 0)
(-2.46933 -0.00549752 0)
(-2.47414 -0.00548247 0)
(-2.47905 -0.00546615 0)
(-2.48397 -0.00544908 0)
(-2.48899 -0.005431 0)
(-2.49402 -0.00541226 0)
(-2.49913 -0.00539202 0)
(-2.50427 -0.0053697 0)
(-2.50949 -0.00534464 0)
(-2.51471 -0.00531823 0)
(-2.51999 -0.00529176 0)
(-2.52527 -0.00526591 0)
(-2.53061 -0.00523992 0)
(-2.53595 -0.00521386 0)
(-2.54134 -0.00518763 0)
(-2.54671 -0.00516211 0)
(-2.55213 -0.00513703 0)
(-2.55753 -0.00511349 0)
(-2.56297 -0.00509117 0)
(-2.56838 -0.00507084 0)
(-2.57382 -0.00505182 0)
(-2.57924 -0.00503506 0)
(-2.58467 -0.00501981 0)
(-2.59008 -0.00500706 0)
(-2.59549 -0.00499636 0)
(-2.60088 -0.00498809 0)
(-2.60627 -0.00498216 0)
(-2.61164 -0.00497855 0)
(-2.617 -0.00497735 0)
(-2.62234 -0.00497856 0)
(-2.62768 -0.00498193 0)
(-2.63299 -0.0049872 0)
(-2.6383 -0.00499401 0)
(-2.64359 -0.00500252 0)
(-2.64887 -0.00501168 0)
(-2.65415 -0.00502158 0)
(-2.65942 -0.00503157 0)
(-2.66468 -0.00504233 0)
(-2.66995 -0.00505248 0)
(-2.67522 -0.00506101 0)
(-2.6805 -0.00507035 0)
(-2.68579 -0.00508228 0)
(-2.69109 -0.00509074 0)
(-2.69641 -0.00508981 0)
(-2.70174 -0.00507905 0)
(-2.70711 -0.00505997 0)
(-2.7125 -0.00503378 0)
(-2.71794 -0.00500085 0)
(-2.72342 -0.00496126 0)
(-2.72895 -0.00491534 0)
(-2.73453 -0.00486321 0)
(-2.74017 -0.00480537 0)
(-2.74589 -0.00474264 0)
(-2.75168 -0.00467627 0)
(-2.75756 -0.00460821 0)
(-2.76353 -0.00454105 0)
(-2.76961 -0.0044782 0)
(-2.77581 -0.00442432 0)
(-2.78213 -0.00438492 0)
(-2.78859 -0.0043685 0)
(-2.7952 -0.00438503 0)
(-2.80198 -0.00444511 0)
(-2.80893 -0.00456009 0)
(-2.81607 -0.00474764 0)
(-2.82344 -0.00503146 0)
(-2.83102 -0.00543207 0)
(-2.83883 -0.00596473 0)
(-2.8469 -0.00665215 0)
(-2.85525 -0.0075129 0)
(-2.86389 -0.00855557 0)
(-2.87287 -0.00977374 0)
(-2.88216 -0.0111553 0)
(-2.89171 -0.0126278 0)
(-2.90142 -0.0140094 0)
(-2.91108 -0.0150739 0)
(-2.92031 -0.0154751 0)
(-2.9284 -0.0147245 0)
(-2.93417 -0.01224 0)
(-2.93615 -0.00687336 0)
(-2.93199 0.00368285 0)
(-2.9143 0.0234957 0)
(-2.87755 0.0592875 0)
(-2.80453 0.123972 0)
(-2.66446 0.233479 0)
(-2.48905 0.379073 0)
(-2.5108 -0.00131927 0)
(-2.5111 -0.00207276 0)
(-2.51524 -0.00260696 0)
(-2.51911 -0.00294483 0)
(-2.52308 -0.00314863 0)
(-2.5275 -0.00326507 0)
(-2.53184 -0.00332711 0)
(-2.53645 -0.00335523 0)
(-2.54092 -0.00336263 0)
(-2.54559 -0.00335685 0)
(-2.55011 -0.00334317 0)
(-2.55479 -0.00332417 0)
(-2.55933 -0.003302 0)
(-2.56399 -0.00327762 0)
(-2.56853 -0.00325199 0)
(-2.57317 -0.00322537 0)
(-2.5777 -0.00319823 0)
(-2.58232 -0.00317054 0)
(-2.58683 -0.00314262 0)
(-2.59142 -0.00311429 0)
(-2.59591 -0.00308466 0)
(-2.60047 -0.00305426 0)
(-2.60494 -0.00302565 0)
(-2.60946 -0.00299808 0)
(-2.61388 -0.002971 0)
(-2.61834 -0.00294465 0)
(-2.6227 -0.0029197 0)
(-2.6271 -0.00289562 0)
(-2.6314 -0.00287259 0)
(-2.63573 -0.00285037 0)
(-2.63997 -0.00282986 0)
(-2.64424 -0.00281057 0)
(-2.64842 -0.00279357 0)
(-2.65262 -0.0027784 0)
(-2.65676 -0.00276582 0)
(-2.6609 -0.00275495 0)
(-2.66499 -0.00274671 0)
(-2.66909 -0.00273996 0)
(-2.67314 -0.00273601 0)
(-2.6772 -0.00273392 0)
(-2.68122 -0.00273417 0)
(-2.68525 -0.00273641 0)
(-2.68926 -0.00274037 0)
(-2.69327 -0.0027463 0)
(-2.69727 -0.00275386 0)
(-2.70129 -0.00276275 0)
(-2.70529 -0.00277259 0)
(-2.70932 -0.00278312 0)
(-2.71335 -0.00279374 0)
(-2.71741 -0.00280404 0)
(-2.72148 -0.0028136 0)
(-2.72558 -0.002822 0)
(-2.72971 -0.0028289 0)
(-2.73386 -0.00283326 0)
(-2.73807 -0.00283342 0)
(-2.74231 -0.00283188 0)
(-2.74661 -0.00283542 0)
(-2.75094 -0.00283468 0)
(-2.75533 -0.00282012 0)
(-2.75977 -0.00279165 0)
(-2.76429 -0.00275241 0)
(-2.76887 -0.00270391 0)
(-2.77354 -0.00264647 0)
(-2.77828 -0.00257994 0)
(-2.78312 -0.00250404 0)
(-2.78804 -0.00241885 0)
(-2.79307 -0.00232468 0)
(-2.7982 -0.00222196 0)
(-2.80346 -0.00211167 0)
(-2.80883 -0.00199543 0)
(-2.81434 -0.0018755 0)
(-2.81999 -0.00175497 0)
(-2.82579 -0.00163823 0)
(-2.83176 -0.00153048 0)
(-2.83791 -0.00143946 0)
(-2.84423 -0.00137445 0)
(-2.85077 -0.0013462 0)
(-2.85753 -0.00136565 0)
(-2.86453 -0.00145017 0)
(-2.8718 -0.00162006 0)
(-2.87933 -0.00190096 0)
(-2.88718 -0.0023012 0)
(-2.89536 -0.0028447 0)
(-2.90389 -0.0035494 0)
(-2.91282 -0.00442767 0)
(-2.92215 -0.00546899 0)
(-2.93189 -0.00668292 0)
(-2.94196 -0.00805472 0)
(-2.95222 -0.00939004 0)
(-2.96246 -0.0105577 0)
(-2.97224 -0.0113296 0)
(-2.98081 -0.0114091 0)
(-2.98697 -0.0104465 0)
(-2.98878 -0.00782936 0)
(-2.98374 -0.00194257 0)
(-2.96428 0.00990517 0)
(-2.92068 0.0316901 0)
(-2.83504 0.0713414 0)
(-2.67569 0.137554 0)
(-2.48528 0.22115 0)
(-2.55916 -0.000406325 0)
(-2.55979 -0.000704919 0)
(-2.56377 -0.000905688 0)
(-2.56758 -0.00102951 0)
(-2.57143 -0.00110387 0)
(-2.57574 -0.00114694 0)
(-2.57987 -0.0011697 0)
(-2.5843 -0.00117979 0)
(-2.58848 -0.00118215 0)
(-2.59287 -0.00117895 0)
(-2.597 -0.00117272 0)
(-2.60129 -0.00116412 0)
(-2.60534 -0.00115407 0)
(-2.60953 -0.00114313 0)
(-2.61349 -0.00113154 0)
(-2.61757 -0.00111951 0)
(-2.62143 -0.00110711 0)
(-2.6254 -0.00109443 0)
(-2.62916 -0.00108148 0)
(-2.63302 -0.00106813 0)
(-2.63669 -0.00105357 0)
(-2.64045 -0.00103885 -1.22117e-41)
(-2.64403 -0.00102653 0)
(-2.64769 -0.00101655 0)
(-2.6512 -0.00100768 0)
(-2.65477 -0.000999567 0)
(-2.6582 -0.000992309 0)
(-2.6617 -0.000985529 0)
(-2.66507 -0.000979063 0)
(-2.66849 -0.000972959 0)
(-2.67181 -0.000967548 0)
(-2.67518 -0.000963006 0)
(-2.67846 -0.00095958 0)
(-2.68179 -0.000957239 0)
(-2.68504 -0.000956073 0)
(-2.68833 -0.000955978 0)
(-2.69157 -0.000956829 0)
(-2.69483 -0.00095828 0)
(-2.69807 -0.000961115 0)
(-2.70132 -0.000964332 0)
(-2.70457 -0.000968509 0)
(-2.70782 -0.000973231 0)
(-2.71108 -0.000978101 0)
(-2.71436 -0.000983352 0)
(-2.71765 -0.000988641 0)
(-2.72096 -0.000993569 0)
(-2.72428 -0.000997819 0)
(-2.72764 -0.00100126 0)
(-2.73102 -0.00100272 0)
(-2.73444 -0.00100224 0)
(-2.73789 -0.000999163 0)
(-2.74137 -0.000993374 0)
(-2.7449 -0.000983841 0)
(-2.74848 -0.000969607 0)
(-2.75211 -0.000949056 0)
(-2.75579 -0.000920812 0)
(-2.75954 -0.00090396 0)
(-2.76333 -0.000883355 0)
(-2.76718 -0.000842682 0)
(-2.7711 -0.000783003 0)
(-2.7751 -0.000710757 0)
(-2.77918 -0.000627751 0)
(-2.78334 -0.00053395 0)
(-2.78759 -0.000428758 0)
(-2.79193 -0.000311745 0)
(-2.79637 -0.000182742 0)
(-2.80092 -4.17941e-05 0)
(-2.80558 0.000110913 0)
(-2.81036 0.000274661 0)
(-2.81527 0.000448163 0)
(-2.82031 0.000629491 0)
(-2.82551 0.000815979 0)
(-2.83086 0.00100371 0)
(-2.83638 0.00118723 0)
(-2.84208 0.0013604 0)
(-2.84798 0.0015155 0)
(-2.8541 0.00164124 0)
(-2.86044 0.00172629 0)
(-2.86704 0.00175379 0)
(-2.87392 0.00170767 0)
(-2.88108 0.00156424 0)
(-2.88857 0.00131367 0)
(-2.89641 0.000932566 1.09623e-41)
(-2.90463 0.000403157 0)
(-2.91325 -0.000289297 0)
(-2.92226 -0.00114752 0)
(-2.93176 -0.00215773 0)
(-2.94144 -0.00344672 -4.0516e-41)
(-2.95136 -0.00473517 0)
(-2.96125 -0.00603017 0)
(-2.97066 -0.00721877 0)
(-2.97885 -0.00818597 0)
(-2.98462 -0.00883883 0)
(-2.98607 -0.00904527 -5.31633e-41)
(-2.97992 -0.00820143 0)
(-2.96014 -0.00535288 0)
(-2.91457 0.000699875 8.227e-42)
(-2.82449 0.0123532 0)
(-2.65837 0.0322111 0)
(-2.46321 0.0573498 0)
(-2.53743 0.000561013 0)
(-2.53784 0.000688469 0)
(-2.54182 0.000820557 0)
(-2.54561 0.000907122 0)
(-2.54945 0.000955983 0)
(-2.55377 0.000979061 0)
(-2.55792 0.000986655 0)
(-2.56237 0.00098509 0)
(-2.56659 0.000977919 0)
(-2.57103 0.000968071 0)
(-2.57523 0.000956388 0)
(-2.57959 0.00094385 0)
(-2.58373 0.000931174 0)
(-2.588 0.000918129 0)
(-2.59207 0.000905334 0)
(-2.59624 0.000892632 0)
(-2.60022 0.00088044 0)
(-2.60429 0.000868601 0)
(-2.60818 0.000857475 0)
(-2.61216 0.00084706 0)
(-2.61596 0.000837897 0)
(-2.61984 0.000828934 9.74407e-42)
(-2.62356 0.000819021 0)
(-2.62735 0.000807918 0)
(-2.63099 0.000796684 0)
(-2.63469 0.000785414 0)
(-2.63826 0.000774389 0)
(-2.64189 0.000763909 0)
(-2.64539 0.000754567 0)
(-2.64895 0.000745923 0)
(-2.6524 0.00073817 0)
(-2.65589 0.000730365 0)
(-2.65929 0.000723035 0)
(-2.66273 0.000715739 0)
(-2.66609 0.000709036 0)
(-2.66948 0.000702228 0)
(-2.67282 0.000696347 0)
(-2.67618 0.000690645 0)
(-2.67949 0.000685751 0)
(-2.68283 0.000681473 0)
(-2.68614 0.000678104 0)
(-2.68946 0.000675678 0)
(-2.69278 0.000674363 0)
(-2.6961 0.000674511 0)
(-2.69943 0.000676209 0)
(-2.70278 0.000679899 0)
(-2.70613 0.000685886 0)
(-2.7095 0.000694444 0)
(-2.71289 0.000706521 0)
(-2.71631 0.000722267 0)
(-2.71975 0.000742204 0)
(-2.72322 0.000766689 0)
(-2.72672 0.000796719 0)
(-2.73027 0.000833183 0)
(-2.73385 0.000877619 0)
(-2.73747 0.000931265 0)
(-2.74113 0.000975675 0)
(-2.74485 0.00102616 0)
(-2.74864 0.00109867 0)
(-2.75248 0.00119194 0)
(-2.75639 0.00129975 0)
(-2.76036 0.00142043 0)
(-2.76439 0.00155424 0)
(-2.76851 0.00170199 0)
(-2.7727 0.00186415 0)
(-2.77698 0.00204112 0)
(-2.78134 0.00223314 0)
(-2.78581 0.00244039 0)
(-2.79037 0.00266243 0)
(-2.79505 0.00289824 0)
(-2.79985 0.00314643 0)
(-2.80478 0.00340478 0)
(-2.80984 0.0036699 0)
(-2.81505 0.00393678 0)
(-2.82043 0.00420032 0)
(-2.82598 0.00445367 0)
(-2.83172 0.00468657 0)
(-2.83767 0.00488736 0)
(-2.84384 0.00504074 0)
(-2.85026 0.00513106 0)
(-2.85695 0.00514153 0)
(-2.86393 0.00505646 0)
(-2.87123 0.00485488 5.70688e-41)
(-2.87886 0.00451879 0)
(-2.88686 0.00403169 0)
(-2.89521 0.00337074 0)
(-2.90392 0.00254701 0)
(-2.91281 0.00141241 1.66029e-41)
(-2.92188 0.00017436 0)
(-2.93075 -0.00125372 0)
(-2.93894 -0.00284854 0)
(-2.94562 -0.004649 0)
(-2.94986 -0.00686503 0)
(-2.94966 -0.00979572 -5.75741e-41)
(-2.9417 -0.0138489 0)
(-2.91998 -0.0198485 0)
(-2.87353 -0.0295944 -3.4788e-40)
(-2.78301 -0.0460628 0)
(-2.61816 -0.0723676 0)
(-2.42437 -0.103531 0)
(-2.4581 0.00139923 0)
(-2.45772 0.00206833 0)
(-2.46177 0.00254841 0)
(-2.46544 0.00285556 0)
(-2.46922 0.00303895 0)
(-2.47347 0.00314078 0)
(-2.47765 0.0031931 0)
(-2.48213 0.00321465 0)
(-2.48649 0.00321836 0)
(-2.49105 0.00321066 0)
(-2.49549 0.00319676 0)
(-2.50009 0.00317832 0)
(-2.50458 0.0031578 0)
(-2.50918 0.00313544 0)
(-2.5137 0.00311239 0)
(-2.51831 0.00308864 0)
(-2.52283 0.00306489 0)
(-2.52744 0.00304101 0)
(-2.53197 0.00301753 0)
(-2.53657 0.00299436 0)
(-2.54108 0.00297189 0)
(-2.54566 0.0029493 0)
(-2.55016 0.00292616 0)
(-2.55471 0.00290209 0)
(-2.55919 0.00287793 0)
(-2.56371 0.00285362 0)
(-2.56816 0.00282959 0)
(-2.57264 0.00280629 0)
(-2.57705 0.00278459 0)
(-2.58148 0.00276404 0)
(-2.58585 0.00274473 0)
(-2.59024 0.00272579 0)
(-2.59457 0.00270782 0)
(-2.59891 0.00269047 0)
(-2.60319 0.00267437 0)
(-2.60747 0.00265899 0)
(-2.61171 0.00264523 0)
(-2.61595 0.00263228 0)
(-2.62013 0.00262161 0)
(-2.62432 0.00261197 0)
(-2.62847 0.0026047 0)
(-2.63261 0.00259943 0)
(-2.63672 0.00259629 0)
(-2.64083 0.00259606 0)
(-2.6449 0.00259882 0)
(-2.64898 0.00260499 0)
(-2.65303 0.00261502 0)
(-2.65709 0.00262933 0)
(-2.66113 0.00264863 0)
(-2.66518 0.00267334 0)
(-2.66922 0.00270395 0)
(-2.67328 0.00274091 0)
(-2.67733 0.00278512 0)
(-2.6814 0.00283751 0)
(-2.68548 0.00289943 0)
(-2.68959 0.00296852 0)
(-2.69371 0.00303876 0)
(-2.69787 0.00311975 0)
(-2.70207 0.00322054 0)
(-2.70631 0.00334069 0)
(-2.71057 0.00347754 0)
(-2.71488 0.00363039 0)
(-2.71923 0.00379934 0)
(-2.72364 0.00398508 0)
(-2.7281 0.00418817 0)
(-2.73262 0.00440912 0)
(-2.7372 0.00464853 0)
(-2.74187 0.00490693 0)
(-2.7466 0.00518422 0)
(-2.75143 0.00547978 0)
(-2.75635 0.00579274 0)
(-2.76138 0.0061214 0)
(-2.76653 0.00646295 0)
(-2.7718 0.00681333 0)
(-2.77722 0.00716783 0)
(-2.78279 0.00752 0)
(-2.78854 0.00786091 0)
(-2.79447 0.0081796 0)
(-2.80062 0.00846269 0)
(-2.80701 0.00869567 0)
(-2.81365 0.00886319 0)
(-2.82058 0.00894859 0)
(-2.82783 0.00893025 0)
(-2.83542 0.00879059 0)
(-2.84337 0.00850931 0)
(-2.85169 0.00805548 0)
(-2.86035 0.00739119 0)
(-2.86934 0.00645182 0)