/*--------------------------------*- C++ -*----------------------------------*\
| =========                 |                                                 |
| \\      /  F ield         | OpenFOAM: The Open Source CFD Toolbox           |
|  \\    /   O peration     | Version:  2.1.0                                 |
|   \\  /    A nd           | Web:      www.OpenFOAM.org                      |
|    \\/     M anipulation  |                                                 |
\*---------------------------------------------------------------------------*/
FoamFile
{
    version     2.0;
    format      ascii;
    class       volScalarField;
    location    "0.23";
    object      C1;
}
// * * * * * * * * * * * * * * * * * * * * * * * * * * * * * * * * * * * * * //

dimensions      [0 0 0 0 0 0 0];

internalField   nonuniform List<scalar> 
6400
(
1.27194e-08
1.42234e-08
1.5906e-08
1.77374e-08
1.97322e-08
2.19045e-08
2.42669e-08
2.68318e-08
2.96114e-08
3.26173e-08
3.58611e-08
3.93536e-08
4.31056e-08
4.7127e-08
5.1427e-08
5.6014e-08
6.08954e-08
6.60775e-08
7.15652e-08
7.73621e-08
8.34698e-08
8.98887e-08
9.66164e-08
1.03648e-07
1.10978e-07
1.18595e-07
1.26488e-07
1.34641e-07
1.43036e-07
1.51652e-07
1.60462e-07
1.6944e-07
1.78554e-07
1.87768e-07
1.97044e-07
2.06341e-07
2.15612e-07
2.24811e-07
2.33885e-07
2.42781e-07
2.51442e-07
2.5981e-07
2.67825e-07
2.75425e-07
2.82548e-07
2.89134e-07
2.95121e-07
3.00451e-07
3.05072e-07
3.08932e-07
3.11985e-07
3.14184e-07
3.15495e-07
3.15892e-07
3.15356e-07
3.13874e-07
3.1144e-07
3.08054e-07
3.03723e-07
2.98464e-07
2.92299e-07
2.85261e-07
2.77388e-07
2.68728e-07
2.59334e-07
2.49267e-07
2.38594e-07
2.27387e-07
2.15724e-07
2.03686e-07
1.91358e-07
1.78829e-07
1.66186e-07
1.5352e-07
1.40918e-07
1.28469e-07
1.16255e-07
1.04359e-07
9.28556e-08
8.18179e-08
7.13121e-08
6.1399e-08
5.21339e-08
4.35667e-08
3.57418e-08
2.86967e-08
2.24605e-08
1.70524e-08
1.24785e-08
8.72908e-09
5.77414e-09
3.56049e-09
2.01165e-09
1.02851e-09
4.83138e-10
2.20118e-10
8.89232e-11
2.77357e-11
5.97029e-12
8.7082e-13
2.53953e-08
2.83957e-08
3.17129e-08
3.53066e-08
3.92076e-08
4.34431e-08
4.80377e-08
5.30145e-08
5.83957e-08
6.4203e-08
7.04568e-08
7.7177e-08
8.43821e-08
9.20896e-08
1.00315e-07
1.09074e-07
1.18377e-07
1.28234e-07
1.38654e-07
1.4964e-07
1.61194e-07
1.73314e-07
1.85996e-07
1.99229e-07
2.12999e-07
2.27287e-07
2.42068e-07
2.57313e-07
2.72987e-07
2.89048e-07
3.0545e-07
3.22139e-07
3.39057e-07
3.56138e-07
3.73311e-07
3.905e-07
4.0762e-07
4.24583e-07
4.41296e-07
4.5766e-07
4.73573e-07
4.88928e-07
5.03614e-07
5.17522e-07
5.30537e-07
5.42547e-07
5.53439e-07
5.63103e-07
5.71436e-07
5.78343e-07
5.83739e-07
5.87551e-07
5.89714e-07
5.90176e-07
5.88901e-07
5.85863e-07
5.8105e-07
5.7446e-07
5.66108e-07
5.5602e-07
5.44241e-07
5.30827e-07
5.15853e-07
4.99405e-07
4.81587e-07
4.62513e-07
4.42312e-07
4.21124e-07
3.99098e-07
3.76392e-07
3.53169e-07
3.29597e-07
3.05847e-07
2.82089e-07
2.58489e-07
2.35211e-07
2.12409e-07
1.90233e-07
1.68819e-07
1.48299e-07
1.28791e-07
1.10407e-07
9.32489e-08
7.74124e-08
6.2984e-08
5.00406e-08
3.86452e-08
2.88427e-08
2.06518e-08
1.40557e-08
8.99038e-09
5.33385e-09
2.89947e-09
1.43913e-09
6.68374e-10
3.14928e-10
1.36545e-10
5.09568e-11
1.62154e-11
4.80366e-12
5.7664e-08
6.44183e-08
7.18552e-08
7.98963e-08
8.86087e-08
9.80519e-08
1.08279e-07
1.1934e-07
1.31283e-07
1.44154e-07
1.57997e-07
1.72852e-07
1.8876e-07
2.05757e-07
2.23875e-07
2.43145e-07
2.63591e-07
2.85233e-07
3.08085e-07
3.32154e-07
3.57442e-07
3.83942e-07
4.11642e-07
4.40518e-07
4.70542e-07
5.0167e-07
5.33851e-07
5.67021e-07
6.01102e-07
6.36008e-07
6.71638e-07
7.07878e-07
7.44605e-07
7.81677e-07
8.18946e-07
8.56247e-07
8.93403e-07
9.30229e-07
9.66525e-07
1.00208e-06
1.03669e-06
1.07011e-06
1.10213e-06
1.1325e-06
1.16099e-06
1.18736e-06
1.21137e-06
1.2328e-06
1.25142e-06
1.26703e-06
1.27944e-06
1.2885e-06
1.29407e-06
1.29602e-06
1.29426e-06
1.28873e-06
1.27937e-06
1.26617e-06
1.24916e-06
1.22836e-06
1.20388e-06
1.1758e-06
1.14428e-06
1.1095e-06
1.07166e-06
1.031e-06
9.8779e-07
9.4233e-07
8.94932e-07
8.45934e-07
7.95685e-07
7.44544e-07
6.92874e-07
6.41037e-07
5.89389e-07
5.38273e-07
4.8802e-07
4.38939e-07
3.91327e-07
3.45463e-07
3.01613e-07
2.6003e-07
2.20954e-07
1.84622e-07
1.51259e-07
1.21078e-07
9.42729e-08
7.10032e-08
5.13745e-08
3.54101e-08
2.30186e-08
1.39621e-08
7.83467e-09
4.07468e-09
2.03168e-09
1.06623e-09
5.26239e-10
2.39659e-10
1.03113e-10
4.66782e-11
1.25968e-07
1.40533e-07
1.56568e-07
1.73908e-07
1.92684e-07
2.13017e-07
2.35019e-07
2.58795e-07
2.84444e-07
3.12061e-07
3.41739e-07
3.73564e-07
4.07618e-07
4.43978e-07
4.82713e-07
5.23884e-07
5.67544e-07
6.13736e-07
6.62489e-07
7.13823e-07
7.6774e-07
8.2423e-07
8.83264e-07
9.44799e-07
1.00877e-06
1.0751e-06
1.14369e-06
1.21439e-06
1.28706e-06
1.36153e-06
1.43758e-06
1.515e-06
1.59352e-06
1.67288e-06
1.75275e-06
1.83282e-06
1.91272e-06
1.99208e-06
2.07049e-06
2.14754e-06
2.22278e-06
2.29575e-06
2.36599e-06
2.43303e-06
2.49637e-06
2.55553e-06
2.61005e-06
2.65946e-06
2.70333e-06
2.74122e-06
2.77273e-06
2.79748e-06
2.81517e-06
2.82551e-06
2.82825e-06
2.82321e-06
2.81026e-06
2.78932e-06
2.76035e-06
2.72341e-06
2.67859e-06
2.62605e-06
2.56604e-06
2.49885e-06
2.42486e-06
2.34451e-06
2.25828e-06
2.16674e-06
2.07049e-06
1.97015e-06
1.86641e-06
1.75996e-06
1.65149e-06
1.54172e-06
1.43132e-06
1.32097e-06
1.2113e-06
1.10294e-06
9.96463e-07
8.92465e-07
7.91515e-07
6.94181e-07
6.01036e-07
5.12679e-07
4.29739e-07
3.52866e-07
2.82728e-07
2.19989e-07
1.65255e-07
1.19008e-07
8.15005e-08
5.26401e-08
3.18801e-08
1.8168e-08
1.00616e-08
5.84359e-09
3.24595e-09
1.72291e-09
9.0527e-10
5.23611e-10
2.57564e-07
2.86911e-07
3.19277e-07
3.54322e-07
3.92282e-07
4.33388e-07
4.77855e-07
5.2589e-07
5.77688e-07
6.33441e-07
6.9333e-07
7.5753e-07
8.26205e-07
8.99511e-07
9.7759e-07
1.06057e-06
1.14856e-06
1.24165e-06
1.33993e-06
1.44342e-06
1.55216e-06
1.66615e-06
1.78534e-06
1.90966e-06
2.03901e-06
2.17324e-06
2.31218e-06
2.45561e-06
2.60323e-06
2.75475e-06
2.9098e-06
3.06797e-06
3.2288e-06
3.39177e-06
3.55635e-06
3.72191e-06
3.88782e-06
4.05337e-06
4.21783e-06
4.38041e-06
4.54031e-06
4.69667e-06
4.84862e-06
4.99527e-06
5.13571e-06
5.26904e-06
5.39434e-06
5.51071e-06
5.6173e-06
5.71322e-06
5.79766e-06
5.86984e-06
5.92905e-06
5.97464e-06
6.00604e-06
6.02275e-06
6.02437e-06
6.01057e-06
5.98112e-06
5.93589e-06
5.87486e-06
5.79814e-06
5.70594e-06
5.5986e-06
5.47658e-06
5.34045e-06
5.19092e-06
5.02878e-06
4.85492e-06
4.67033e-06
4.47604e-06
4.27316e-06
4.06281e-06
3.84611e-06
3.62419e-06
3.39813e-06
3.16901e-06
2.93789e-06
2.70581e-06
2.47383e-06
2.24305e-06
2.01465e-06
1.78987e-06
1.57014e-06
1.35709e-06
1.15261e-06
9.58806e-07
7.78098e-07
6.13067e-07
4.66331e-07
3.40282e-07
2.36703e-07
1.56304e-07
9.82849e-08
6.02566e-08
3.82371e-08
2.36076e-08
1.42098e-08
8.64899e-09
5.84368e-09
4.89716e-07
5.44743e-07
6.05578e-07
6.71589e-07
7.43174e-07
8.20739e-07
9.04676e-07
9.95364e-07
1.09317e-06
1.19846e-06
1.31158e-06
1.43287e-06
1.56264e-06
1.70121e-06
1.84886e-06
2.00586e-06
2.17243e-06
2.34878e-06
2.53508e-06
2.73147e-06
2.93803e-06
3.15481e-06
3.38178e-06
3.61889e-06
3.86601e-06
4.12296e-06
4.38951e-06
4.66531e-06
4.94997e-06
5.24302e-06
5.54391e-06
5.852e-06
6.16658e-06
6.48685e-06
6.81193e-06
7.14085e-06
7.47258e-06
7.80598e-06
8.13984e-06
8.4729e-06
8.8038e-06
9.13113e-06
9.45342e-06
9.76915e-06
1.00768e-05
1.03747e-05
1.06612e-05
1.09349e-05
1.11939e-05
1.14368e-05
1.16619e-05
1.18676e-05
1.20525e-05
1.22152e-05
1.23543e-05
1.24685e-05
1.25568e-05
1.2618e-05
1.26512e-05
1.26558e-05
1.2631e-05
1.25764e-05
1.24918e-05
1.2377e-05
1.22322e-05
1.20576e-05
1.18538e-05
1.16215e-05
1.13614e-05
1.10748e-05
1.07626e-05
1.04263e-05
1.0067e-05
9.68615e-06
9.28506e-06
8.865e-06
8.42717e-06
7.97278e-06
7.50301e-06
7.01908e-06
6.52236e-06
6.01438e-06
5.49692e-06
4.97231e-06
4.44376e-06
3.91527e-06
3.39195e-06
2.88037e-06
2.38848e-06
1.92559e-06
1.50196e-06
1.12799e-06
8.12863e-07
5.62822e-07
3.79537e-07
2.61136e-07
1.77359e-07
1.18781e-07
8.10268e-08
6.07265e-08
8.6e-07
9.55649e-07
1.06168e-06
1.17701e-06
1.30229e-06
1.43819e-06
1.58539e-06
1.74455e-06
1.91634e-06
2.10139e-06
2.30037e-06
2.51388e-06
2.74255e-06
2.98696e-06
3.24768e-06
3.52522e-06
3.82008e-06
4.13272e-06
4.46352e-06
4.81282e-06
5.18092e-06
5.56801e-06
5.97423e-06
6.39962e-06
6.84415e-06
7.3077e-06
7.79006e-06
8.29092e-06
8.80983e-06
9.34626e-06
9.89953e-06
1.04689e-05
1.10533e-05
1.16518e-05
1.22633e-05
1.28863e-05
1.35195e-05
1.41613e-05
1.48099e-05
1.54636e-05
1.61203e-05
1.67781e-05
1.74347e-05
1.80877e-05
1.87348e-05
1.93735e-05
2.00013e-05
2.06153e-05
2.1213e-05
2.17916e-05
2.23481e-05
2.288e-05
2.33842e-05
2.3858e-05
2.42987e-05
2.47035e-05
2.50698e-05
2.53951e-05
2.56768e-05
2.59128e-05
2.61009e-05
2.62391e-05
2.63258e-05
2.63593e-05
2.63385e-05
2.62622e-05
2.61298e-05
2.59408e-05
2.5695e-05
2.53924e-05
2.50333e-05
2.46181e-05
2.41474e-05
2.36216e-05
2.3041e-05
2.24058e-05
2.1716e-05
2.0971e-05
2.01702e-05
1.93125e-05
1.8397e-05
1.74226e-05
1.63881e-05
1.52933e-05
1.41403e-05
1.29326e-05
1.16767e-05
1.03834e-05
9.06841e-06
7.75313e-06
6.46559e-06
5.23987e-06
4.1144e-06
3.1287e-06
2.31682e-06
1.71542e-06
1.27153e-06
9.35011e-07
6.99437e-07
5.63683e-07
1.38099e-06
1.53413e-06
1.70427e-06
1.88982e-06
2.09176e-06
2.31118e-06
2.54919e-06
2.8069e-06
3.08543e-06
3.3859e-06
3.70943e-06
4.05715e-06
4.43014e-06
4.8295e-06
5.25629e-06
5.71151e-06
6.19616e-06
6.71116e-06
7.25739e-06
7.83563e-06
8.44662e-06
9.09099e-06
9.76927e-06
1.04819e-05
1.12292e-05
1.20114e-05
1.28285e-05
1.36804e-05
1.45671e-05
1.5488e-05
1.64426e-05
1.74303e-05
1.84501e-05
1.9501e-05
2.05816e-05
2.16907e-05
2.28265e-05
2.39872e-05
2.51707e-05
2.63748e-05
2.75971e-05
2.88349e-05
3.00853e-05
3.13454e-05
3.26119e-05
3.38813e-05
3.51502e-05
3.64146e-05
3.76708e-05
3.89145e-05
4.01415e-05
4.13475e-05
4.2528e-05
4.36783e-05
4.4794e-05
4.58702e-05
4.69023e-05
4.78855e-05
4.88153e-05
4.96869e-05
5.04959e-05
5.12378e-05
5.19085e-05
5.25039e-05
5.302e-05
5.34533e-05
5.38002e-05
5.40574e-05
5.42218e-05
5.42903e-05
5.42597e-05
5.41277e-05
5.38919e-05
5.35497e-05
5.30984e-05
5.25348e-05
5.18548e-05
5.10535e-05
5.0125e-05
4.90616e-05
4.78544e-05
4.64923e-05
4.49604e-05
4.32406e-05
4.13218e-05
3.91915e-05
3.68403e-05
3.42674e-05
3.14802e-05
2.84985e-05
2.53594e-05
2.21206e-05
1.88639e-05
1.56953e-05
1.27403e-05
1.01763e-05
8.17753e-06
6.54529e-06
5.29575e-06
4.50639e-06
2.00347e-06
2.22728e-06
2.47648e-06
2.74894e-06
3.0462e-06
3.36992e-06
3.72183e-06
4.10368e-06
4.51727e-06
4.96442e-06
5.44699e-06
5.96684e-06
6.52585e-06
7.12589e-06
7.76881e-06
8.45647e-06
9.19066e-06
9.97316e-06
1.08057e-05
1.16898e-05
1.26272e-05
1.36192e-05
1.46673e-05
1.57726e-05
1.69363e-05
1.81594e-05
1.94426e-05
2.07866e-05
2.21918e-05
2.36584e-05
2.51866e-05
2.67762e-05
2.84267e-05
3.01375e-05
3.19077e-05
3.37363e-05
3.56217e-05
3.75624e-05
3.95564e-05
4.16014e-05
4.3695e-05
4.58344e-05
4.80164e-05
5.02378e-05
5.24948e-05
5.47835e-05
5.70998e-05
5.9439e-05
6.17965e-05
6.41671e-05
6.65455e-05
6.89262e-05
7.13035e-05
7.36712e-05
7.60234e-05
7.83536e-05
8.06555e-05
8.29225e-05
8.51481e-05
8.73256e-05
8.94484e-05
9.15102e-05
9.35045e-05
9.54251e-05
9.72661e-05
9.90219e-05
0.000100687
0.000102256
0.000103725
0.000105088
0.000106328
0.000107438
0.000108407
0.000109227
0.000109888
0.00011038
0.000110692
0.000110813
0.000110734
0.000110444
0.000109935
0.0001092
0.000108223
0.000106918
0.000105247
0.000103157
0.000100583
9.74776e-05
9.37915e-05
8.94852e-05
8.45343e-05
7.89369e-05
7.2722e-05
6.59563e-05
5.87562e-05
5.1343e-05
4.43195e-05
3.8445e-05
3.34163e-05
2.97656e-05
2.58954e-06
2.88455e-06
3.21386e-06
3.57508e-06
3.97042e-06
4.40232e-06
4.87329e-06
5.38594e-06
5.94299e-06
6.5472e-06
7.20142e-06
7.90857e-06
8.6716e-06
9.49352e-06
1.03774e-05
1.13262e-05
1.2343e-05
1.34308e-05
1.45927e-05
1.58316e-05
1.71505e-05
1.8552e-05
2.00391e-05
2.16142e-05
2.32799e-05
2.50384e-05
2.6892e-05
2.88425e-05
3.08918e-05
3.30414e-05
3.52924e-05
3.7646e-05
4.01028e-05
4.26633e-05
4.53276e-05
4.80955e-05
5.09664e-05
5.39395e-05
5.70134e-05
6.01866e-05
6.34571e-05
6.68225e-05
7.02802e-05
7.3827e-05
7.74595e-05
8.11737e-05
8.49657e-05
8.88307e-05
9.27639e-05
9.67601e-05
0.000100814
0.000104919
0.00010907
0.00011326
0.000117483
0.000121732
0.000126001
0.000130281
0.000134567
0.000138851
0.000143125
0.000147383
0.000151618
0.00015582
0.000159985
0.000164102
0.000168165
0.000172165
0.000176095
0.000179945
0.00018372
0.000187412
0.000191016
0.000194525
0.000197929
0.000201218
0.000204381
0.000207401
0.000210261
0.000212937
0.000215403
0.000217623
0.000219572
0.00022128
0.000222741
0.000223937
0.000224671
0.000224871
0.000224443
0.000223294
0.000221334
0.000218473
0.000214617
0.00020966
0.000203466
0.00019585
0.000186527
0.00017556
0.000164206
0.000153412
2.93722e-06
3.28256e-06
3.66968e-06
4.09613e-06
4.56493e-06
5.07933e-06
5.64277e-06
6.25885e-06
6.93132e-06
7.66408e-06
8.46116e-06
9.32676e-06
1.02652e-05
1.12808e-05
1.23781e-05
1.35618e-05
1.48364e-05
1.62068e-05
1.76776e-05
1.92537e-05
2.09397e-05
2.27404e-05
2.46605e-05
2.67046e-05
2.8877e-05
3.11823e-05
3.36246e-05
3.62077e-05
3.89356e-05
4.18118e-05
4.48394e-05
4.80215e-05
5.13606e-05
5.4859e-05
5.85186e-05
6.2341e-05
6.63271e-05
7.04776e-05
7.47927e-05
7.9272e-05
8.39147e-05
8.87196e-05
9.36848e-05
9.8808e-05
0.000104086
0.000109516
0.000115094
0.000120816
0.000126676
0.000132669
0.000138789
0.000145031
0.000151388
0.000157852
0.000164416
0.000171073
0.000177816
0.000184637
0.000191529
0.000198483
0.000205492
0.000212551
0.000219651
0.000226788
0.000233956
0.000241149
0.000248365
0.000255599
0.000262851
0.000270118
0.000277402
0.0002847
0.000292015
0.000299345
0.000306691
0.000314052
0.000321426
0.00032881
0.000336198
0.000343584
0.000350957
0.000358303
0.000365606
0.000372842
0.000379984
0.000387013
0.000394072
0.000401207
0.000408327
0.000415351
0.000422269
0.000429083
0.000435801
0.00044242
0.000448891
0.000455057
0.000460516
0.00046438
0.000464741
0.000457961
2.91096e-06
3.26687e-06
3.66806e-06
4.11235e-06
4.60336e-06
5.14508e-06
5.74172e-06
6.39773e-06
7.11781e-06
7.90689e-06
8.77014e-06
9.71295e-06
1.0741e-05
1.186e-05
1.30761e-05
1.43954e-05
1.58245e-05
1.73699e-05
1.90382e-05
2.08364e-05
2.27712e-05
2.48497e-05
2.70789e-05
2.94658e-05
3.20174e-05
3.47405e-05
3.7642e-05
4.07284e-05
4.40064e-05
4.7482e-05
5.11612e-05
5.50497e-05
5.91527e-05
6.34751e-05
6.80213e-05
7.27954e-05
7.78007e-05
8.30402e-05
8.85162e-05
9.42305e-05
0.000100184
0.000106377
0.00011281
0.000119481
0.000126389
0.000133531
0.000140904
0.000148505
0.000156328
0.000164367
0.000172618
0.000181073
0.000189725
0.000198567
0.000207589
0.000216783
0.00022614
0.000235651
0.000245306
0.000255097
0.000265013
0.000275048
0.000285191
0.000295436
0.000305775
0.000316203
0.000326713
0.000337301
0.000347965
0.000358701
0.000369509
0.000380388
0.000391337
0.000402357
0.000413447
0.000424609
0.00043584
0.000447138
0.0004585
0.000469919
0.000481387
0.000492891
0.000504418
0.000515947
0.000527458
0.000538928
0.000550325
0.000561611
0.000572889
0.000584264
0.000595661
0.000606978
0.000618169
0.000629169
0.00063985
0.000649948
0.000658927
0.000665731
0.000668258
0.00066257
2.53629e-06
2.85982e-06
3.22655e-06
3.6348e-06
4.08842e-06
4.59169e-06
5.14914e-06
5.76564e-06
6.44634e-06
7.19673e-06
8.0226e-06
8.93008e-06
9.92563e-06
1.1016e-05
1.22083e-05
1.351e-05
1.49288e-05
1.64727e-05
1.81499e-05
1.99692e-05
2.19392e-05
2.40691e-05
2.63679e-05
2.88451e-05
3.15102e-05
3.43728e-05
3.74423e-05
4.07285e-05
4.42408e-05
4.79886e-05
5.19813e-05
5.62277e-05
6.07367e-05
6.55165e-05
7.05751e-05
7.592e-05
8.15582e-05
8.74959e-05
9.37389e-05
0.000100292
0.00010716
0.000114345
0.00012185
0.000129677
0.000137827
0.000146298
0.00015509
0.000164199
0.000173623
0.000183355
0.000193392
0.000203725
0.000214346
0.000225247
0.000236417
0.000247846
0.000259521
0.000271431
0.000283562
0.000295901
0.000308435
0.000321148
0.000334026
0.000347057
0.000360226
0.00037352
0.000386926
0.000400432
0.000414026
0.000427697
0.000441435
0.000455231
0.000469074
0.000482955
0.000496865
0.000510794
0.00052473
0.000538662
0.000552576
0.000566456
0.000580285
0.000594043
0.000607706
0.000621249
0.000634646
0.000647867
0.000660879
0.00067365
0.000686151
0.000698336
0.000710281
0.000722071
0.000733536
0.000744608
0.000755177
0.000765037
0.000773792
0.000780676
0.000784162
0.000781177
1.95841e-06
2.21908e-06
2.51601e-06
2.84807e-06
3.21886e-06
3.63237e-06
4.0929e-06
4.60505e-06
5.17376e-06
5.8043e-06
6.50234e-06
7.2739e-06
8.12541e-06
9.06367e-06
1.00959e-05
1.12298e-05
1.24733e-05
1.3835e-05
1.53237e-05
1.69487e-05
1.87196e-05
2.06466e-05
2.274e-05
2.50107e-05
2.74696e-05
3.01282e-05
3.29982e-05
3.60912e-05
3.94195e-05
4.29949e-05
4.68299e-05
5.09365e-05
5.53268e-05
6.0013e-05
6.50068e-05
7.03196e-05
7.59628e-05
8.19469e-05
8.8282e-05
9.49776e-05
0.000102043
0.000109485
0.000117312
0.000125529
0.000134142
0.000143154
0.000152567
0.000162385
0.000172605
0.000183226
0.000194246
0.000205659
0.000217459
0.000229638
0.000242187
0.000255094
0.000268346
0.000281928
0.000295826
0.00031002
0.000324494
0.000339226
0.000354197
0.000369385
0.000384768
0.000400322
0.000416025
0.000431853
0.000447784
0.000463793
0.000479857
0.000495953
0.000512059
0.000528149
0.000544202
0.000560192
0.000576096
0.000591887
0.000607542
0.000623031
0.000638328
0.000653403
0.000668226
0.000682767
0.000696995
0.000710881
0.000724393
0.000737503
0.000750183
0.000762403
0.000774136
0.000785361
0.000796211
0.000806582
0.000816416
0.000825602
0.000833915
0.000840908
0.000845657
0.000846114
1.35479e-06
1.54254e-06
1.75725e-06
1.99827e-06
2.26855e-06
2.57137e-06
2.91027e-06
3.28905e-06
3.71183e-06
4.18305e-06
4.70751e-06
5.29036e-06
5.93715e-06
6.6538e-06
7.4467e-06
8.32263e-06
9.28885e-06
1.03531e-05
1.15234e-05
1.28086e-05
1.42177e-05
1.57604e-05
1.74468e-05
1.92875e-05
2.12934e-05
2.34763e-05
2.5848e-05
2.84209e-05
3.12079e-05
3.42221e-05
3.74771e-05
4.09866e-05
4.47647e-05
4.88257e-05
5.31839e-05
5.78537e-05
6.28495e-05
6.81857e-05
7.38763e-05
7.99352e-05
8.63759e-05
9.32114e-05
0.000100454
0.000108116
0.000116208
0.00012474
0.00013372
0.000143158
0.000153059
0.000163427
0.000174267
0.000185581
0.000197367
0.000209624
0.000222347
0.00023553
0.000249165
0.00026324
0.000277741
0.000292655
0.000307961
0.000323641
0.000339673
0.000356031
0.000372689
0.00038962
0.000406795
0.000424181
0.000441748
0.000459461
0.000477288
0.000495193
0.000513142
0.000531098
0.000549025
0.000566888
0.000584649
0.000602271
0.000619716
0.000636945
0.00065392
0.000670601
0.000686948
0.00070292
0.000718479
0.000733585
0.0007482
0.000762287
0.000775813
0.000788748
0.000801061
0.000812729
0.000823744
0.000834206
0.00084412
0.000853445
0.00086209
0.00086984
0.000876207
0.000880011
8.49001e-07
9.71115e-07
1.11123e-06
1.26901e-06
1.44662e-06
1.64644e-06
1.87105e-06
2.12325e-06
2.40606e-06
2.72278e-06
3.07699e-06
3.47258e-06
3.91376e-06
4.40507e-06
4.95144e-06
5.55817e-06
6.23095e-06
6.97591e-06
7.79961e-06
8.70907e-06
9.71176e-06
1.08157e-05
1.20292e-05
1.33614e-05
1.48217e-05
1.64202e-05
1.81674e-05
2.00742e-05
2.21524e-05
2.44139e-05
2.68715e-05
2.95381e-05
3.24275e-05
3.55535e-05
3.89306e-05
4.25736e-05
4.64975e-05
5.07178e-05
5.525e-05
6.01101e-05
6.53139e-05
7.08773e-05
7.68162e-05
8.31463e-05
8.98831e-05
9.70417e-05
0.000104637
0.000112682
0.000121191
0.000130176
0.000139648
0.000149617
0.000160092
0.000171079
0.000182585
0.000194611
0.00020716
0.000220231
0.000233818
0.000247918
0.00026252
0.000277614
0.000293184
0.000309214
0.000325684
0.000342571
0.000359849
0.000377491
0.000395466
0.000413742
0.000432285
0.000451059
0.000470027
0.000489151
0.000508392
0.00052771
0.000547066
0.00056642
0.00058573
0.000604957
0.000624058
0.000642991
0.000661709
0.000680167
0.000698315
0.000716097
0.000733458
0.000750334
0.00076666
0.000782365
0.000797378
0.000811626
0.000825038
0.000837558
0.000849389
0.000860539
0.000870989
0.000880632
0.000889181
0.000896014
4.86001e-07
5.58293e-07
6.41504e-07
7.35492e-07
8.41684e-07
9.61639e-07
1.09704e-06
1.24972e-06
1.42169e-06
1.61513e-06
1.83246e-06
2.07628e-06
2.34946e-06
2.65512e-06
2.99664e-06
3.37771e-06
3.80231e-06
4.27478e-06
4.79978e-06
5.38234e-06
6.02788e-06
6.74222e-06
7.53158e-06
8.40266e-06
9.36256e-06
1.04189e-05
1.15797e-05
1.28537e-05
1.42499e-05
1.57779e-05
1.74479e-05
1.92706e-05
2.12573e-05
2.34196e-05
2.57698e-05
2.83208e-05
3.10858e-05
3.40786e-05
3.73134e-05
4.08051e-05
4.45686e-05
4.86196e-05
5.29739e-05
5.76475e-05
6.26568e-05
6.80184e-05
7.37486e-05
7.98642e-05
8.63815e-05
9.33167e-05
0.000100686
0.000108504
0.000116785
0.000125545
0.000134795
0.000144548
0.000154814
0.000165602
0.00017692
0.000188773
0.000201165
0.000214098
0.00022757
0.000241577
0.000256114
0.000271171
0.000286738
0.000302799
0.000319339
0.000336336
0.000353771
0.000371618
0.000389853
0.000408448
0.000427376
0.000446609
0.000466119
0.00048588
0.000505866
0.000526054
0.000546421
0.000566947
0.000587614
0.000608405
0.0006293
0.000650282
0.000671325
0.000692397
0.000713453
0.000734431
0.000755233
0.000775714
0.000795651
0.000814735
0.000832647
0.000849509
0.000865223
0.000879469
0.000891794
0.000901745
2.56321e-07
2.95596e-07
3.40978e-07
3.92415e-07
4.5076e-07
5.16936e-07
5.91945e-07
6.76886e-07
7.72966e-07
8.81515e-07
1.004e-06
1.14202e-06
1.29735e-06
1.47193e-06
1.66788e-06
1.88752e-06
2.13338e-06
2.40824e-06
2.7151e-06
3.05721e-06
3.43814e-06
3.86171e-06
4.33206e-06
4.85367e-06
5.43136e-06
6.0703e-06
6.77609e-06
7.55471e-06
8.41256e-06
9.35646e-06
1.03937e-05
1.1532e-05
1.27796e-05
1.41453e-05
1.56381e-05
1.72678e-05
1.90447e-05
2.09794e-05
2.30832e-05
2.53679e-05
2.78458e-05
3.05298e-05
3.3433e-05
3.65692e-05
3.99527e-05
4.35981e-05
4.75203e-05
5.17347e-05
5.62569e-05
6.11026e-05
6.62877e-05
7.1828e-05
7.77395e-05
8.40377e-05
9.07382e-05
9.78562e-05
0.000105407
0.000113404
0.000121863
0.000130795
0.000140212
0.000150123
0.000160539
0.000171465
0.000182907
0.00019487
0.000207353
0.000220358
0.000233881
0.000247917
0.000262459
0.000277498
0.000293023
0.000309024
0.000325485
0.000342396
0.000359743
0.000377516
0.000395705
0.000414307
0.000433322
0.000452758
0.000472629
0.000492962
0.000513798
0.000535197
0.000557243
0.000580057
0.000603811
0.000628747
0.000655176
0.000683442
0.000713776
0.000745991
0.00077879
0.000810564
0.000840594
0.000866829
0.000887424
0.000901819
1.28337e-07
1.48498e-07
1.7194e-07
1.9863e-07
2.29041e-07
2.63687e-07
3.03132e-07
3.47997e-07
3.98972e-07
4.56819e-07
5.22382e-07
5.96596e-07
6.80496e-07
7.75221e-07
8.82029e-07
1.00231e-06
1.13757e-06
1.2895e-06
1.45991e-06
1.65082e-06
1.86441e-06
2.10306e-06
2.36939e-06
2.66621e-06
2.99661e-06
3.36391e-06
3.77175e-06
4.224e-06
4.72489e-06
5.27893e-06
5.891e-06
6.56632e-06
7.3105e-06
8.12951e-06
9.02974e-06
1.0018e-05
1.11015e-05
1.22879e-05
1.35855e-05
1.50026e-05
1.65485e-05
1.82327e-05
2.00651e-05
2.20564e-05
2.42173e-05
2.65594e-05
2.90945e-05
3.18349e-05
3.47932e-05
3.79824e-05
4.14158e-05
4.51071e-05
4.90701e-05
5.33187e-05
5.78674e-05
6.27306e-05
6.7923e-05
7.34593e-05
7.93536e-05
8.56195e-05
9.22702e-05
9.93181e-05
0.000106775
0.000114653
0.000122961
0.000131711
0.00014091
0.000150566
0.000160682
0.000171264
0.000182312
0.000193828
0.00020581
0.000218256
0.000231161
0.000244523
0.000258337
0.000272599
0.000287306
0.000302457
0.000318056
0.000334108
0.000350627
0.00036763
0.000385144
0.000403209
0.000421884
0.000441266
0.000461537
0.000483056
0.000506548
0.000533401
0.000565895
0.000606685
0.000658973
0.000718419
0.000780512
0.000836439
0.00087645
0.000899074
7.09865e-08
8.2317e-08
9.56343e-08
1.10882e-07
1.28341e-07
1.48324e-07
1.71176e-07
1.97283e-07
2.27074e-07
2.61027e-07
2.99675e-07
3.43612e-07
3.93498e-07
4.50063e-07
5.14122e-07
5.86572e-07
6.68408e-07
7.60728e-07
8.64741e-07
9.8178e-07
1.11331e-06
1.26094e-06
1.42642e-06
1.6117e-06
1.81887e-06
2.05024e-06
2.30832e-06
2.59582e-06
2.91569e-06
3.27114e-06
3.66563e-06
4.10289e-06
4.58697e-06
5.12219e-06
5.71323e-06
6.36507e-06
7.08306e-06
7.87293e-06
8.74077e-06
9.69305e-06
1.07367e-05
1.18789e-05
1.31274e-05
1.44904e-05
1.59764e-05
1.75943e-05
1.93535e-05
2.12637e-05
2.33351e-05
2.55783e-05
2.80041e-05
3.06238e-05
3.34491e-05
3.64917e-05
3.97641e-05
4.32789e-05
4.70483e-05
5.10849e-05
5.5401e-05
6.00089e-05
6.49203e-05
7.0147e-05
7.57003e-05
8.1592e-05
8.78333e-05
9.44347e-05
0.000101406
0.000108754
0.000116488
0.000124612
0.000133132
0.000142051
0.000151372
0.000161095
0.00017122
0.000181748
0.000192677
0.000204005
0.000215733
0.00022786
0.000240388
0.000253321
0.000266666
0.000280432
0.000294631
0.000309278
0.000324392
0.000339998
0.000356147
0.000372975
0.000390894
0.000411191
0.000436942
0.000472342
0.000523105
0.000591858
0.000682
0.000782667
0.000858624
0.000895109
1.25051e-13
2.03907e-13
3.56405e-13
5.75808e-13
8.73248e-13
1.26329e-12
1.76622e-12
2.41417e-12
3.26229e-12
4.40877e-12
6.03189e-12
8.46149e-12
1.23237e-11
1.88468e-11
3.0532e-11
5.26608e-11
9.67065e-11
1.87612e-10
3.74329e-10
7.00083e-10
2.01002e-12
2.94059e-12
4.50564e-12
6.66588e-12
9.46582e-12
1.2964e-11
1.72517e-11
2.24915e-11
2.89842e-11
3.72832e-11
4.83963e-11
6.41597e-11
8.79665e-11
1.26265e-10
1.9174e-10
3.10215e-10
5.3565e-10
9.79913e-10
1.84777e-09
3.26264e-09
3.07349e-11
4.10625e-11
5.63141e-11
7.61894e-11
1.00787e-10
1.30133e-10
1.64406e-10
2.04201e-10
2.50924e-10
3.07398e-10
3.78869e-10
4.74761e-10
6.11923e-10
8.21111e-10
1.16028e-09
1.74241e-09
2.79324e-09
4.75749e-09
8.38428e-09
1.38182e-08
4.23088e-10
5.24833e-10
6.62835e-10
8.31282e-10
1.02919e-09
1.25439e-09
1.50512e-09
1.78189e-09
2.0898e-09
2.44163e-09
2.86233e-09
3.3963e-09
4.12006e-09
5.16682e-09
6.77514e-09
9.3853e-09
1.38248e-08
2.16126e-08
3.50037e-08
5.28892e-08
5.19732e-09
6.06334e-09
7.1695e-09
8.44437e-09
9.86497e-09
1.14028e-08
1.30311e-08
1.47357e-08
1.65275e-08
1.84568e-08
2.06322e-08
2.32443e-08
2.66082e-08
3.12442e-08
3.80234e-08
4.84313e-08
6.50127e-08
9.1927e-08
1.33996e-07
1.82727e-07
5.63665e-08
6.24844e-08
6.99819e-08
7.81995e-08
8.68925e-08
9.58108e-08
1.0473e-07
1.135e-07
1.22103e-07
1.30714e-07
1.39776e-07
1.50022e-07
1.62615e-07
1.79377e-07
2.0304e-07
2.37687e-07
2.89182e-07
3.64965e-07
4.67949e-07
5.69782e-07
5.31124e-07
5.64358e-07
6.04231e-07
6.45894e-07
6.87494e-07
7.27376e-07
7.64167e-07
7.96918e-07
8.25281e-07
8.50066e-07
8.72826e-07
8.9604e-07
9.23461e-07
9.60693e-07
1.01468e-06
1.09295e-06
1.20127e-06
1.33779e-06
1.48139e-06
1.60451e-06
4.25106e-06
4.36271e-06
4.49971e-06
4.63386e-06
4.75464e-06
4.85364e-06
4.92474e-06
4.9642e-06
4.97076e-06
4.94834e-06
4.9005e-06
4.83384e-06
4.75899e-06
4.6889e-06
4.63576e-06
4.60021e-06
4.55692e-06
4.44018e-06
4.22049e-06
4.08388e-06
2.79812e-05
2.79208e-05
2.79266e-05
2.78783e-05
2.77343e-05
2.74657e-05
2.70548e-05
2.64984e-05
2.57971e-05
2.49447e-05
2.39444e-05
2.28086e-05
2.15566e-05
2.0204e-05
1.87588e-05
1.71696e-05
1.53013e-05
1.30405e-05
1.07497e-05
9.40159e-06
0.000144329
0.000140901
0.000137497
0.000133857
0.00012989
0.000125561
0.000120839
0.000115669
0.000110033
0.000103878
9.71827e-05
8.99383e-05
8.20959e-05
7.3643e-05
6.4512e-05
5.46078e-05
4.39476e-05
3.32425e-05
2.43842e-05
1.95753e-05
0.000439843
0.000425871
0.000410961
0.000395514
0.000379637
0.000363313
0.000346464
0.000329023
0.00031083
0.000291719
0.00027147
0.000249733
0.000226049
0.000199894
0.000170606
0.000138181
0.00010434
7.29305e-05
4.93911e-05
3.67769e-05
0.000643248
0.000626735
0.000608619
0.000589387
0.000569203
0.000548159
0.000526255
0.000503361
0.000479236
0.000453576
0.000426013
0.000395982
0.000362739
0.000325372
0.000282936
0.000234919
0.000182312
0.000130076
8.77371e-05
6.31741e-05
0.000766459
0.000751867
0.000735215
0.000716982
0.000697347
0.000676412
0.000654192
0.000630602
0.00060546
0.000578386
0.000548877
0.00051628
0.000479711
0.000438037
0.00038999
0.00033442
0.00027108
0.000203025
0.000141246
0.00010193
0.000837928
0.000827018
0.000813688
0.000798403
0.000781388
0.000762788
0.000742648
0.000720905
0.000697381
0.000671742
0.000643471
0.000611889
0.000576095
0.00053488
0.000486755
0.000430044
0.000363391
0.000287403
0.000210494
0.000155775
0.000878245
0.000871603
0.000862187
0.000850431
0.000836652
0.000821083
0.000803834
0.000784888
0.000764091
0.000741156
0.000715621
0.000686842
0.000653957
0.000615808
0.000570884
0.00051728
0.000452901
0.00037657
0.000292701
0.00022648
0.000899611
0.000897379
0.000892014
0.000883851
0.000873349
0.000860871
0.000846618
0.000830631
0.000812809
0.000792912
0.00077055
0.000745161
0.000715979
0.00068197
0.000641735
0.000593413
0.000534676
0.000463314
0.00038061
0.000307776
0.000909243
0.000911348
0.000909995
0.000905305
0.000897913
0.000888352
0.000876931
0.00086376
0.000848788
0.000831829
0.000812565
0.000790525
0.000765062
0.000735296
0.000700033
0.000657641
0.000605946
0.000542469
0.00046677
0.000393978
0.000911722
0.000917905
0.000920408
0.000918986
0.000914463
0.000907565
0.000898718
0.000888104
0.000875724
0.000861442
0.000845
0.00082601
0.000803938
0.000778057
0.000747391
0.000710614
0.000665928
0.000611142
0.000545179
0.000478153
0.000910255
0.000920049
0.000926103
0.000927666
0.000925734
0.000921211
0.000914642
0.000906284
0.000896194
0.000884279
0.000870333
0.000854032
0.000834931
0.000812432
0.000785747
0.000753839
0.000715343
0.000668599
0.000612655
0.000554597
0.000907371
0.000920073
0.000929133
0.000933281
0.000933602
0.000931133
0.000926526
0.000920113
0.000912001
0.000902142
0.000890368
0.000876405
0.000859873
0.00084027
0.000816951
0.000789105
0.000755737
0.000715743
0.000668691
0.00062018
4.20986e-158
3.39135e-158
2.39301e-158
1.54346e-158
9.40577e-159
5.64599e-159
3.60892e-159
2.84188e-159
3.20388e-159
5.04155e-159
9.47781e-159
1.89264e-158
3.79811e-158
7.46212e-158
1.41396e-157
2.55415e-157
4.34546e-157
6.8556e-157
9.7992e-157
1.2199e-156
1.69599e-156
1.34774e-156
9.40329e-157
6.00707e-157
3.631e-157
2.16545e-157
1.37884e-157
1.08653e-157
1.23126e-157
1.94948e-157
3.68557e-157
7.39916e-157
1.49306e-156
2.95084e-156
5.62793e-156
1.02407e-155
1.75683e-155
2.79838e-155
4.04521e-155
5.1051e-155
6.54784e-155
5.12664e-155
3.53317e-155
2.23423e-155
1.33907e-155
7.9324e-156
5.0315e-156