/*--------------------------------*- C++ -*----------------------------------*\
| =========                 |                                                 |
| \\      /  F ield         | OpenFOAM: The Open Source CFD Toolbox           |
|  \\    /   O peration     | Version:  2.1.0                                 |
|   \\  /    A nd           | Web:      www.OpenFOAM.org                      |
|    \\/     M anipulation  |                                                 |
\*---------------------------------------------------------------------------*/
FoamFile
{
    version     2.0;
    format      ascii;
    class       volScalarField;
    location    "0.23";
    object      k;
}
// * * * * * * * * * * * * * * * * * * * * * * * * * * * * * * * * * * * * * //

dimensions      [0 2 -2 0 0 0 0];

internalField   nonuniform List<scalar> 
6400
(
0.0298481
0.0298698
0.02986
0.0298401
0.0298089
0.0297855
0.0297458
0.0297204
0.0296773
0.0296491
0.0296047
0.0295731
0.0295282
0.029493
0.0294476
0.0294089
0.0293632
0.0293214
0.0292753
0.0292311
0.0291847
0.0291386
0.0290917
0.029044
0.0289964
0.0289472
0.0288985
0.0288479
0.0287979
0.0287457
0.0286941
0.0286403
0.0285868
0.0285311
0.0284755
0.0284175
0.0283592
0.0282979
0.0282355
0.0281694
0.0281005
0.0280271
0.0279496
0.0278662
0.0277771
0.0276807
0.0275769
0.0274642
0.0273427
0.0272101
0.0270637
0.0269013
0.0267322
0.026556
0.0263708
0.0261798
0.0259787
0.0257708
0.0255526
0.0253264
0.0250924
0.0248488
0.0245957
0.0243326
0.0240588
0.0237738
0.0234746
0.0231629
0.0228369
0.0224948
0.0221369
0.0217626
0.0213727
0.0209667
0.0205464
0.0201127
0.0196674
0.0192131
0.0187513
0.0182848
0.0178137
0.017337
0.0168517
0.016357
0.015837
0.0152666
0.0146514
0.013975
0.0132017
0.0122955
0.0111912
0.00979197
0.00796886
0.00570342
0.00324229
0.00207782
0.00254701
0.00533471
0.00848119
0.00960108
0.0479501
0.0482095
0.0483296
0.048549
0.0486854
0.0489034
0.0490548
0.0492676
0.0494329
0.0496405
0.0498174
0.0500213
0.0502072
0.0504086
0.0506013
0.0508015
0.0509992
0.0511993
0.0514014
0.0516032
0.0518103
0.0520166
0.05223
0.0524424
0.0526632
0.0528833
0.053112
0.0533404
0.0535774
0.0538148
0.0540607
0.0543077
0.0545629
0.0548204
0.0550863
0.0553553
0.0556326
0.0559142
0.0562039
0.0564983
0.0567977
0.0570997
0.0574048
0.0577099
0.0580148
0.0583159
0.0586127
0.0589016
0.0591841
0.0594623
0.0597275
0.0599726
0.060217
0.060458
0.0606935
0.0609247
0.0611471
0.0613603
0.0615607
0.0617448
0.06192
0.0620795
0.0622266
0.0623559
0.0624689
0.0625611
0.0626206
0.0626509
0.0626605
0.0626172
0.0625309
0.0623925
0.0621954
0.0619334
0.061601
0.0611906
0.0606964
0.0601118
0.0594291
0.0586434
0.0577493
0.0567374
0.0555876
0.0543066
0.0528676
0.0512831
0.0494488
0.0473679
0.0449719
0.0422398
0.0391133
0.035569
0.0315464
0.0272067
0.022567
0.0179627
0.0144329
0.0119905
0.0104042
0.0089177
0.0536547
0.054043
0.054222
0.0545457
0.0547707
0.0550821
0.0553343
0.0556375
0.0559082
0.0562072
0.0564913
0.0567888
0.0570825
0.05738
0.0576805
0.0579789
0.0582838
0.058583
0.0588905
0.0591908
0.0595004
0.0598044
0.0601194
0.0604285
0.0607478
0.0610625
0.0613876
0.0617092
0.0620402
0.0623687
0.0627058
0.0630412
0.063384
0.0637254
0.0640727
0.0644189
0.0647693
0.0651187
0.0654703
0.0658204
0.0661725
0.0665218
0.0668698
0.0672112
0.0675468
0.0678691
0.0681763
0.0684582
0.0687092
0.0689527
0.069184
0.0694014
0.0696096
0.0697994
0.0699765
0.0701357
0.0702773
0.0704004
0.0705079
0.0705989
0.070654
0.0706823
0.0706912
0.0706543
0.0705843
0.0704722
0.0703177
0.0701169
0.0698656
0.0695563
0.0691829
0.0687417
0.0682209
0.0676165
0.0669176
0.0661167
0.065204
0.0641705
0.0630066
0.061705
0.0602583
0.0586617
0.0569093
0.0549981
0.0529217
0.0506792
0.0482808
0.0457149
0.0429759
0.0400437
0.0368838
0.0334607
0.0297493
0.02574
0.0215357
0.0173474
0.0138335
0.0109582
0.00881154
0.00684216
0.0581063
0.0585366
0.0587349
0.0591076
0.0593729
0.0597285
0.0600287
0.0603728
0.0606932
0.0610311
0.0613638
0.0616988
0.0620391
0.062373
0.0627172
0.0630502
0.0633949
0.0637254
0.0640659
0.0643897
0.0647185
0.0650316
0.0653587
0.0656738
0.0660002
0.0663152
0.0666373
0.0669487
0.067265
0.0675709
0.0678792
0.0681769
0.0684747
0.0687614
0.0690465
0.0693203
0.0695869
0.0698435
0.0700893
0.0703225
0.0705433
0.070748
0.0709384
0.0711096
0.0712641
0.0713956
0.0715075
0.0715952
0.0716647
0.0717027
0.0717182
0.0717156
0.0716765
0.0716035
0.0714982
0.0713527
0.0711644
0.0709294
0.0706437
0.0703013
0.0699029
0.0694413
0.0689196
0.0683263
0.0676658
0.0669306
0.0661232
0.0652374
0.0642767
0.063235
0.062115
0.0609137
0.0596299
0.058262
0.0568076
0.0552637
0.0536291
0.0519009
0.0500805
0.0481683
0.0461679
0.0440828
0.0419195
0.0396882
0.0373998
0.0350645
0.0326949
0.0303136
0.0279128
0.0255068
0.0230935
0.0206849
0.0182864
0.0159103
0.0135805
0.0113697
0.00931958
0.00759864
0.00647418
0.00594863
0.0597356
0.0601218
0.0602964
0.0606384
0.0608712
0.0611942
0.0614552
0.0617596
0.0620335
0.0623224
0.0626
0.0628755
0.0631507
0.0634135
0.0636816
0.0639324
0.0641888
0.0644268
0.0646678
0.0648909
0.0651156
0.0653224
0.0655307
0.0657187
0.0659062
0.0660724
0.0662362
0.0663779
0.0665144
0.0666277
0.0667324
0.066812
0.0668791
0.0669179
0.0669368
0.066941
0.066908
0.0668562
0.0667688
0.0666542
0.0665057
0.0663225
0.0661051
0.0658478
0.0655546
0.065218
0.0648436
0.064424
0.0639657
0.0634604
0.062914
0.0623207
0.0616846
0.0609994
0.0602711
0.0594961
0.0586789
0.0578165
0.0569117
0.0559626
0.0549726
0.0539398
0.0528697
0.0517589
0.0506145
0.0494331
0.0482208
0.0469736
0.045697
0.0443858
0.0430441
0.0416674
0.0402572
0.0388096
0.0373255
0.0358051
0.0342542
0.0326745
0.031075
0.0294643
0.0278509
0.0262467
0.0246601
0.0231059
0.0215885
0.0201196
0.0186947
0.0173083
0.0159691
0.0146706
0.0134179
0.0122073
0.0110397
0.00992079
0.00886001
0.0078847
0.00700178
0.00640074
0.00613703
0.00613819
0.0570298
0.0572044
0.0572858
0.0574555
0.0575708
0.0577227
0.0578447
0.0579723
0.0580869
0.0581881
0.0582868
0.0583605
0.0584371
0.0584819
0.0585263
0.0585458
0.0585541
0.0585476
0.0585196
0.0584712
0.0584082
0.0583173
0.0582139
0.0580781
0.0579292
0.0577449
0.0575451
0.0573082
0.0570531
0.0567626
0.056454
0.0561082
0.0557414
0.0553362
0.054908
0.0544411
0.0539471
0.0534167
0.052857
0.0522617
0.0516377
0.0509782
0.0502917
0.0495707
0.0488246
0.0480458
0.0472442
0.0464124
0.0455604
0.0446809
0.0437839
0.0428633
0.0419286
0.0409745
0.0400101
0.0390309
0.0380446
0.0370481
0.0360489
0.0350449
0.0340431
0.0330409
0.0320462
0.0310565
0.0300793
0.0291121
0.0281605
0.027221
0.0262979
0.0253867
0.0244906
0.023604
0.0227292
0.021862
0.0210061
0.0201594
0.019323
0.0185017
0.0176964
0.0169119
0.0161485
0.0154101
0.0146976
0.0140098
0.0133437
0.0127007
0.0120746
0.0114667
0.0108729
0.010293
0.00972217
0.00915784
0.0085966
0.00804221
0.00750574
0.00701573
0.00663959
0.00647964
0.00645671
0.00670005
0.0487304
0.0485399
0.048462
0.048323
0.048237
0.0480856
0.0479754
0.0477996
0.0476576
0.0474516
0.0472739
0.0470345
0.0468186
0.0465437
0.0462879
0.045977
0.0456797
0.0453324
0.0449924
0.0446079
0.0442264
0.0438041
0.0433823
0.0429225
0.0424622
0.0419654
0.0414613
0.0409223
0.0403751
0.0397946
0.0392054
0.0385847
0.0379552
0.0372963
0.036629
0.0359348
0.0352331
0.0345077
0.0337761
0.0330247
0.0322708
0.0315017
0.0307328
0.0299531
0.0291768
0.0283942
0.0276189
0.0268422
0.0260773
0.0253162
0.0245718
0.0238366
0.0231229
0.0224236
0.0217497
0.0210928
0.0204614
0.0198502
0.0192652
0.0187017
0.018165
0.0176517
0.0171668
0.0167059
0.0162725
0.0158619
0.0154765
0.0151097
0.0147647
0.0144325
0.0141175
0.0138084
0.0135101
0.0132139
0.0129244
0.0126357
0.0123528
0.0120715
0.0117981
0.0115241
0.0112522
0.0109793
0.0107044
0.0104288
0.0101543
0.009875
0.00959554
0.00931091
0.0090271
0.00874454
0.00846464
0.00819046
0.00792837
0.00768411
0.00747601
0.00735068
0.00729587
0.00733609
0.00766899
0.0078542
0.0359824
0.0354987
0.0352952
0.0349072
0.034671
0.0342797
0.0340062
0.0336019
0.0332906
0.0328682
0.0325205
0.0320773
0.0316947
0.0312293
0.0308136
0.0303255
0.029878
0.0293671
0.02889
0.0283577
0.0278528
0.0272996
0.0267691
0.0261957
0.0256413
0.0250515
0.0244912
0.023901
0.0233401
0.0227512
0.02219
0.0216062
0.0210512
0.0204784
0.0199357
0.0193794
0.0188544
0.0183199
0.0178178
0.0173098
0.0168336
0.0163543
0.0159076
0.0154605
0.0150467
0.0146349
0.014257
0.0138833
0.0135435
0.0132102
0.0129101
0.0126186
0.0123585
0.0121087
0.0118887
0.0116783
0.0114961
0.0113223
0.0111751
0.0110359
0.0109213
0.0108149
0.010731
0.010655
0.0105989
0.0105506
0.0105187
0.0104959
0.0104851
0.0104812
0.0104838
0.0104991
0.010513
0.0105397
0.010565
0.0105986
0.0106376
0.0106763
0.0107238
0.0107693
0.0108154
0.0108614
0.0109023
0.0109355
0.0109552
0.0109629
0.0109633
0.0109357
0.0108818
0.0108185
0.0107241
0.0106147
0.010497
0.0103696
0.0102822
0.0102458
0.0102799
0.0105028
0.0107923
0.0109163
0.0222885
0.0216734
0.0214179
0.0209295
0.020654
0.0201768
0.0198824
0.0194127
0.0191027
0.01864
0.0183184
0.0178632
0.017534
0.0170877
0.0167549
0.0163193
0.0159868
0.0155639
0.0152348
0.0148261
0.0145036
0.0141116
0.0137989
0.013426
0.0131264
0.0127761
0.0124971
0.0121739
0.0119166
0.0116212
0.0113871
0.0111205
0.0109106
0.0106734
0.0104881
0.0102804
0.0101205
0.00994205
0.00980765
0.00965809
0.00954916
0.00942812
0.00934468
0.00925164
0.0091933
0.00912733
0.00909382
0.00906109
0.00904756
0.00904255
0.00904523
0.00907056
0.00910036
0.00914577
0.00920211
0.0092669
0.0093477
0.00943275
0.00953595
0.00964314
0.00976753
0.00989766
0.0100432
0.0101963
0.0103632
0.010539
0.0107278
0.0109265
0.0111379
0.0113604
0.0115955
0.0118427
0.0121029
0.0123769
0.0126647
0.0129677
0.0132866
0.0136208
0.0139729
0.0143404
0.0147246
0.0151246
0.0155388
0.0159624
0.0163964
0.0168332
0.0172713
0.0177028
0.0181243
0.0185288
0.0189111
0.0192665
0.0195937
0.0198943
0.0201802
0.0204867
0.0208975
0.0215055
0.0221606
0.0225895
0.0132986
0.0127581
0.0125423
0.012133
0.0119275
0.0115396
0.0113451
0.0109804
0.0107982
0.0104587
0.0102892
0.00997642
0.00982044
0.00953519
0.00939317
0.00913608
0.00900833
0.00877969
0.00866635
0.00846626
0.00836737
0.00819574
0.00811124
0.00796777
0.00789752
0.00778175
0.00772549
0.00763661
0.0075939
0.00753058
0.00750067
0.0074618
0.00744421
0.00743009
0.00742562
0.0074252
0.00744056
0.00745743
0.00748883
0.00752233
0.00756972
0.00761912
0.00768248
0.00774747
0.00782675
0.00790716
0.00800233
0.00809847
0.00820927
0.00832155
0.00844788
0.00857724
0.00871944
0.00886577
0.0090248
0.00918829
0.00936522
0.00954671
0.00974246
0.00994356
0.0101593
0.0103818
0.0106191
0.010865
0.0111259
0.0113972
0.0116843
0.0119837
0.0123
0.0126305
0.0129797
0.0133455
0.0137317
0.0141376
0.0145663
0.015018
0.0154958
0.0160001
0.0165343
0.0170986
0.0176965
0.0183288
0.0189993
0.0197111
0.0204679
0.0212734
0.0221349
0.0230563
0.0240471
0.025114
0.0262686
0.027521
0.0288856
0.0303762
0.03201
0.0337984
0.0357249
0.0377038
0.0391205
0.0396962
0.0149951
0.0144253
0.0141954
0.0137581
0.0135327
0.013115
0.0128947
0.0124977
0.012284
0.011909
0.0117039
0.0113522
0.0111578
0.0108303
0.0106487
0.010346
0.0101788
0.00990165
0.00975003
0.00949879
0.00936378
0.00913856
0.00902078
0.00882156
0.00872137
0.00854948
0.00846432
0.00832104
0.00825047
0.00813583
0.0080798
0.00799352
0.00795185
0.00789324
0.00786553
0.00783452
0.0078213
0.00781544
0.00781492
0.00782891
0.00785105
0.00788074
0.00792282
0.00796848
0.00802914
0.00809071
0.00816871
0.00824644
0.00834066
0.00843467
0.00854444
0.00865459
0.00877977
0.00890617
0.00904683
0.00918994
0.00934677
0.00950705
0.00968062
0.00985885
0.01005
0.0102474
0.0104573
0.0106752
0.0109061
0.0111461
0.0114004
0.0116643
0.0119442
0.0122345
0.0125419
0.0128617
0.0131992
0.0135516
0.0139229
0.0143117
0.0147214
0.0151513
0.015605
0.0160819
0.0165863
0.0171176
0.0176813
0.0182775
0.0189118
0.0195857
0.0203042
0.0210699
0.0218928
0.0227782
0.023735
0.024771
0.0258976
0.0271305
0.0284915
0.0300114
0.0317221
0.0336075
0.0352171
0.0359441
0.0260038
0.0253969
0.0251435
0.0246621
0.0243851
0.0239128
0.0236109
0.0231425
0.0228168
0.0223468
0.0219974
0.0215254
0.0211577
0.0206846
0.0203038
0.0198313
0.0194422
0.0189729
0.01858
0.0181168
0.0177245
0.0172704
0.0168829
0.0164412
0.0160626
0.0156365
0.0152702
0.0148621
0.0145111
0.0141245
0.0137927
0.0134314
0.0131224
0.0127896
0.0125105
0.0122123
0.0119637
0.0117006
0.0114832
0.0112556
0.0110695
0.0108767
0.0107221
0.0105627
0.0104386
0.0103107
0.0102153
0.010117
0.0100483
0.00997713
0.00993249
0.0098859
0.00986278
0.00984282
0.00983516
0.00983329
0.00984465
0.00986334
0.0098912
0.00992721
0.00996922
0.0100221
0.010079
0.0101469
0.0102202
0.0103014
0.0103918
0.010486
0.0105918
0.0106989
0.0108171
0.0109373
0.0110658
0.0111964
0.0113319
0.0114694
0.01161
0.0117513
0.0118954
0.012038
0.0121834
0.0123259
0.0124712
0.0126137
0.012759
0.0129028
0.0130513
0.0132
0.0133521
0.0135043
0.0136657
0.0138364
0.0140222
0.0142279
0.0144699
0.014779
0.0152106
0.0158117
0.0165686
0.0174006
0.0398344
0.0394361
0.0392689
0.0389531
0.0387581
0.0384368
0.0382072
0.0378694
0.0376035
0.0372439
0.0369417
0.0365573
0.0362188
0.0358078
0.0354334
0.0349947
0.0345852
0.0341182
0.0336744
0.0331792
0.0327023
0.0321792
0.0316705
0.0311206
0.0305817
0.0300062
0.0294401
0.0288424
0.0282527
0.0276357
0.0270262
0.0263936
0.025769
0.0251251
0.0245049
0.023873
0.0232651
0.0226477
0.0220558
0.0214603
0.0208921
0.0203252
0.019787
0.019254
0.0187506
0.0182552
0.0177885
0.017331
0.0169013
0.0164811
0.0160877
0.0157029
0.0153438
0.0149922
0.0146648
0.0143441
0.0140461
0.0137542
0.0134836
0.0132187
0.0129733
0.0127338
0.012511
0.0122945
0.0120938
0.0118983
0.0117184
0.0115414
0.0113789
0.0112161
0.0110647
0.0109106
0.0107636
0.0106185
0.0104789
0.010337
0.0102009
0.0100594
0.00992423
0.00978354
0.00964794
0.00950734
0.00937178
0.00923354
0.00910082
0.00896836
0.00884227
0.00871874
0.00860416
0.00849513
0.00839234
0.0082966
0.00821505
0.00816153
0.00813982
0.00815548
0.00831758
0.00858115
0.00898364
0.00915483
0.0518723
0.0517902
0.0517583
0.0517087
0.0516774
0.0516129
0.0515634
0.051472
0.0513956
0.0512756
0.0511708
0.0510192
0.0508813
0.0506955
0.0505208
0.0502985
0.050084
0.0498228
0.0495663
0.0492644
0.0489638
0.0486211
0.0482744
0.0478884
0.0474958
0.047066
0.0466271
0.0461534
0.0456689
0.0451517
0.0446228
0.0440636
0.0434928
0.0428945
0.0422794
0.0416381
0.0409818
0.0403015
0.0396081
0.0388935
0.0381684
0.0374255
0.0366746
0.0359099
0.0351401
0.0343609
0.0335811
0.0327965
0.0320144
0.0312307
0.0304514
0.0296732
0.028901
0.0281318
0.0273699
0.0266125
0.025864
0.0251221
0.0243913
0.023669
0.0229604
0.0222631
0.0215823
0.0209146
0.0202672
0.0196366
0.0190255
0.0184328
0.0178616
0.0173077
0.0167744
0.0162564
0.0157572
0.0152688
0.0147963
0.0143318
0.0138784
0.0134282
0.0129864
0.0125469
0.0121121
0.0116764
0.011241
0.0108039
0.0103683
0.00994402
0.00952683
0.00911894
0.00872607
0.00834659
0.00799067
0.0076547
0.00734757
0.00705782
0.00680986
0.00663427
0.00655729
0.00655168
0.00687024
0.00705997
0.0588682
0.0591084
0.0592178
0.0594404
0.059591
0.059797
0.0599612
0.0601459
0.0603098
0.0604726
0.0606275
0.0607677
0.0609071
0.0610237
0.0611425
0.0612335
0.0613271
0.0613901
0.0614545
0.0614868
0.0615087
0.061515
0.0615061
0.0614683
0.0614186
0.0613394
0.0612454
0.0611207
0.0609782
0.0608033
0.0606076
0.0603779
0.0601246
0.0598362
0.059521
0.0591702
0.0587908
0.0583795
0.057939
0.0574656
0.056962
0.0564254
0.0558579
0.055259
0.0546289
0.0539693
0.0532796
0.0525617
0.0518155
0.0510421
0.0502421
0.0494156
0.0485641
0.0476869
0.0467856
0.0458589
0.0449089
0.0439348
0.0429387
0.04192
0.0408825
0.0398258
0.0387538
0.037667
0.0365699
0.0354638
0.0343565
0.0332458
0.0321384
0.031033
0.0299346
0.0288402
0.0277521
0.026667
0.0255905
0.0245212
0.0234634
0.0224123
0.0213711
0.0203408
0.0193223
0.0183136
0.0173183
0.0163351
0.0153723
0.0144302
0.0135126
0.0126197
0.0117568
0.0109261
0.0101244
0.0093531
0.00862197
0.00793899
0.0073007
0.00673841
0.00630948
0.0061172
0.00607784
0.00626116
0.0605507
0.0609605
0.0611449
0.0615037
0.061748
0.0620886
0.0623637
0.062688
0.0629789
0.0632903
0.0635881
0.0638891
0.0641878
0.0644795
0.0647748
0.0650572
0.0653457
0.065618
0.0658967
0.0661572
0.066423
0.0666716
0.0669211
0.0671539
0.0673861
0.067602
0.067817
0.0680143
0.0682081
0.0683836
0.0685526
0.0687024
0.0688423
0.0689616
0.0690682
0.0691539
0.0692243
0.069272
0.0692959
0.069304
0.0692867
0.0692439
0.0691703
0.0690735
0.0689415
0.0687822
0.0685863
0.0683582
0.068092
0.0677891
0.0674456
0.0670612
0.0666337
0.0661623
0.0656452
0.0650799
0.0644661
0.0638018
0.0630833
0.0623098
0.0614811
0.0605954
0.0596529
0.0586571
0.0576057
0.0565021
0.0553464
0.0541405
0.0528866
0.0515852
0.0502406
0.0488525
0.0474226
0.0459465
0.0444256
0.0428574
0.0412473
0.039592
0.03789
0.0361396
0.0343483
0.0325276
0.0306702
0.0287852
0.0268722
0.0249537
0.0230354
0.0211244
0.0192328
0.0173852
0.0155875
0.0138613
0.0122094
0.0106901
0.00928831
0.00807118
0.00700852
0.00628298
0.00595636
0.00592976
0.0582741
0.0587078
0.0589064
0.0592758
0.0595379
0.0598902
0.0601858
0.060527
0.0608426
0.0611782
0.0615066
0.0618402
0.0621769
0.0625106
0.0628529
0.0631877
0.0635334
0.0638692
0.0642163
0.0645524
0.0648986
0.0652329
0.0655743
0.0659024
0.0662325
0.0665451
0.0668702
0.0671835
0.0675043
0.0678163
0.068133
0.068443
0.0687565
0.0690653
0.0693746
0.069677
0.069978
0.0702721
0.0705631
0.070847
0.0711255
0.071397
0.0716602
0.0719169
0.0721626
0.0723999
0.0726247
0.0728381
0.0730373
0.0732221
0.0733906
0.0735408
0.0736712
0.0737808
0.0738679
0.0739273
0.0739578
0.0739675
0.0739307
0.0738566
0.0737341
0.0735619
0.0733309
0.0730382
0.072674
0.0722384
0.0717245
0.0711286
0.0704478
0.0696738
0.0688043
0.0678369
0.06677
0.0655977
0.0643221
0.0629372
0.0614434
0.0598396
0.0581233
0.056294
0.0543489
0.0522871
0.0501043
0.0477965
0.0453576
0.0427859
0.04008
0.0372395
0.0342671
0.0311858
0.0280291
0.0248142
0.0215813
0.0184091
0.0153708
0.0125799
0.0101197
0.00805704
0.00657496
0.00586675
0.0534016
0.0537764
0.0539489
0.0542591
0.0544745
0.0547726
0.0550137
0.0553042
0.0555633
0.0558501
0.0561226
0.0564087
0.0566914
0.0569788
0.0572693
0.057559
0.0578554
0.0581479
0.0584486
0.0587437
0.0590472
0.0593443
0.0596494
0.0599481
0.0602544
0.0605564
0.0608687
0.0611773
0.0614957
0.0618117
0.0621362
0.0624592
0.0627889
0.0631171
0.0634515
0.0637863
0.0641272
0.0644692
0.0648167
0.0651657
0.0655198
0.0658759
0.0662361
0.0665988
0.0669643
0.0673321
0.0677041
0.0680784
0.0684547
0.0688306
0.0692034
0.0695694
0.0699232
0.0702572
0.0705612
0.0708707
0.0711636
0.0714515
0.0717208
0.0719778
0.0722156
0.0724391
0.0726445
0.0728346
0.0730101
0.0731505
0.073259
0.0733135
0.0733343
0.0733169
0.0732238
0.0730748
0.0728524
0.0725479
0.0721484
0.0716415
0.0710102
0.0702417
0.0693117
0.0682091
0.0669073
0.0653953
0.0636519
0.0616672
0.0594281
0.056929
0.0541665
0.0511404
0.0478461
0.0442788
0.0404277
0.0362605
0.0318002
0.027073
0.0223808
0.0180194
0.0143123
0.0114988
0.00939119
0.00720012
0.0473378
0.0475836
0.0476969
0.0479002
0.0480274
0.0482291
0.0483702
0.0485673
0.0487218
0.0489149
0.0490811
0.0492716
0.0494472
0.0496367
0.0498196
0.050009
0.0501974
0.0503874
0.0505798
0.050771
0.0509664
0.0511592
0.0513574
0.0515531
0.051755
0.0519559
0.0521637
0.0523709
0.0525855
0.0527998
0.0530212
0.0532431
0.0534715
0.0537013
0.0539379
0.0541771
0.054423
0.0546723
0.0549285
0.055189
0.0554568
0.0557299
0.056011
0.0562988
0.0565952
0.0569
0.0572106
0.0575275
0.0578493
0.0581751
0.0585036
0.0588338
0.0591646
0.0594957
0.05983
0.0601763
0.0605241
0.06088
0.061234
0.0615866
0.061925
0.0622425
0.062555
0.0628584
0.0631436
0.0634211
0.0636833
0.0639285
0.0641555
0.0643564
0.0645242
0.0646488
0.064711
0.0647323
0.0646862
0.0645421
0.0643025
0.0639493
0.0634585
0.0628227
0.0620131
0.0610187
0.0598153
0.0583866
0.0567122
0.0547757
0.0525338
0.0499557
0.0469808
0.0435688
0.0397055
0.03542
0.0309696
0.0264397
0.0219686
0.0176537
0.0143485
0.0120228
0.0106569
0.00912224
0.0293246
0.0293429
0.0293271
0.0293071
0.0292723
0.0292479
0.0292059
0.029179
0.0291344
0.0291047
0.0290595
0.0290267
0.0289814
0.0289452
0.0288999
0.0288604
0.0288147
0.0287721
0.0287257
0.0286805
0.0286332
0.0285857
0.0285375
0.0284882
0.0284392
0.0283888
0.0283389
0.0282872
0.0282362
0.0281833
0.028131
0.0280768
0.0280232
0.0279678
0.0279129
0.0278564
0.0278001
0.0277425
0.027685
0.0276261
0.0275672
0.027507
0.0274465
0.0273847
0.0273219
0.0272573
0.0271906
0.0271214
0.0270495
0.0269743
0.0268958
0.0268138
0.0267284
0.0266397
0.0265484
0.0264538
0.0263531
0.0262464
0.0261292
0.0260007
0.0258553
0.0256916
0.0255197
0.0253382
0.0251465
0.0249482
0.0247393
0.0245204
0.0242888
0.0240433
0.0237825
0.023502
0.0232011
0.0228809
0.0225323
0.0221552
0.0217442
0.0213017
0.0208177
0.020296
0.019729
0.0191172
0.0184563
0.0177435
0.0169739
0.0161386
0.0152167
0.0141802
0.0129772
0.0115405
0.0097869
0.00776197
0.00576795
0.00396683
0.00274578
0.00211243
0.00244705
0.00514437
0.00850846
0.00974107
0.00917495
0.00454872
0.00401323
0.00391207
0.00387891
0.00386841
0.00386423
0.0037743
0.0037318
0.00371749
0.00371498
0.00373364
0.0038525
0.00423176
0.0050405
0.00624051
0.00675297
0.0067969
0.00574974
0.00316542
0.00751855
0.0046047
0.00428263
0.00419877
0.0041806
0.00416468
0.00406009
0.00395512
0.00390802
0.00388369
0.00387398
0.00391375
0.00416986
0.00475855
0.00576876
0.00661323
0.00681838
0.00663996
0.0051359
0.00251581
0.00603328
0.0047678
0.00463085
0.00459231
0.00448651
0.00434853
0.00420746
0.00412291
0.00408698
0.00407412
0.00410275
0.00428642
0.00473201
0.0054792
0.0064372
0.00678729
0.00681353
0.00633515
0.00443696
0.00188276
0.00579116
0.00519529
0.0051414
0.00493903
0.00473955
0.00459441
0.00447751
0.00442992
0.00441448
0.00444772
0.00458081
0.00489145
0.0054942
0.00642081
0.00685129
0.00696779
0.00671074
0.00580675
0.00369642
0.00133969
0.00601652
0.00565534
0.00551878
0.00518224
0.0050367
0.00490695
0.00485464
0.0048466
0.004904
0.00505013
0.00530836
0.00585149
0.00667632
0.00707798
0.00721301
0.00695687
0.00644269
0.00512527
0.00291578
0.000895547
0.00649978
0.00611279
0.00596248
0.00569954
0.00562042
0.00558403
0.00563383
0.00576112
0.00600706
0.00631141
0.00681462
0.00741528
0.00767519
0.00771836
0.00730354
0.0068075
0.00586118
0.00439233
0.00209827
0.000547791
0.00740487
0.00717044
0.0070952
0.00704252
0.00719279
0.00742985
0.00782474
0.0084237
0.0089161
0.00907091
0.00912983
0.00889291
0.00848419
0.00791268
0.00722124
0.00641139
0.00521585
0.00358394
0.00135025
0.000297114
0.0106353
0.0107898
0.0112383
0.0116638
0.0124901
0.0129643
0.013175
0.013086
0.0119011
0.0113932
0.0104071
0.00984413
0.00883655
0.00807435
0.00699609
0.00589609
0.00439238
0.00260956
0.000874639
0.000150524
0.0225537
0.0225966
0.0226416
0.0219397
0.0211782
0.0195078
0.0179554
0.0163005
0.0148691
0.0134416
0.0121904
0.0107786
0.00949621
0.00799626
0.00655159
0.00495843
0.0033148
0.00176486
0.000624051
9.16764e-05
0.0363669
0.0346213
0.032628
0.0298725
0.0273937
0.0246859
0.0224877
0.0201364
0.0180731
0.0159725
0.0139882
0.0118074
0.00979926
0.00734637
0.00549156
0.00356705
0.00231719
0.00118329
0.000471562
9.19802e-05
0.0337153
0.032109
0.0306922
0.0281764
0.0261458
0.0235235
0.0217059
0.0194674
0.0176939
0.0157929
0.0139313
0.012053
0.010052
0.00791459
0.00591031
0.0039078
0.00241203
0.00115843
0.000407548
7.63518e-05
0.0176665
0.0184004
0.0187578
0.0188897
0.01887
0.017827
0.0166776
0.0154979
0.0142159
0.0132315
0.0119824
0.0109772
0.00964877
0.00844352
0.00701506
0.00541927
0.00360627
0.00178428
0.000534894
7.23652e-05
0.00893465
0.00898267
0.00934646
0.00969738
0.0104111
0.0113018
0.011842
0.0120717
0.0116158
0.011025
0.0104822
0.00980795
0.00905444
0.0083076
0.00735851
0.00627192
0.00473559
0.00278125
0.00083005
0.000105854
0.00668479
0.0064562
0.00637332
0.00630732
0.00640488
0.00660797
0.0069471
0.00748488
0.00823032
0.00857471
0.0088508
0.00892612
0.0085842
0.00814157
0.00749574
0.00672965
0.0055262
0.00381146
0.00134025
0.000223977
0.00601597
0.00566647
0.00552763
0.0052864
0.00521086
0.0051763
0.00522123
0.00534734
0.0056176
0.00596417
0.00649858
0.00731037
0.00769366
0.00779566
0.00754155
0.00703266
0.00616167
0.00465547
0.00223306
0.000499841
0.00572245
0.00531417
0.00518373
0.00488246
0.00474816
0.00462973
0.00458588
0.00458118
0.00464918
0.00482347
0.00511602
0.00568524
0.006653
0.00714385
0.00730269
0.00714616
0.00663267
0.00536046
0.00307533
0.000891592
0.00562916
0.00496628
0.00488611
0.00469555
0.00451892
0.00437483
0.00427589
0.00423602
0.00422331
0.00427702
0.00444708
0.00479698
0.00540292
0.00646238
0.0069615
0.00709175
0.0068523
0.00600623
0.00387821
0.00139761
0.00613481
0.00469491
0.00449348
0.00441892
0.00430937
0.0041937
0.00406047
0.00399755
0.00397099
0.00396219
0.00401514
0.00425374
0.00471109
0.00544249
0.00649184
0.0068873
0.00692734
0.00645098
0.00462325
0.00200801
0.00771582
0.00461243
0.00423412
0.0041068
0.00405824
0.00401973
0.00394003
0.00385016
0.00381761
0.00380572
0.00380398
0.00388914
0.00419797
0.00482749
0.00582152
0.00669991
0.00691435
0.00673128
0.00527008
0.00268649
0.00938643
0.00459621
0.0039895
0.00386055
0.00380557
0.00378347
0.00376703
0.00369287
0.00365828
0.00365005
0.0036652
0.00371111
0.00387048
0.00428465
0.00512536
0.00632142
0.0068283
0.00687007
0.00583424
0.00335412
0.00397122
0.00375019
0.00374679
0.0037468
0.00374652
0.00374628
0.00374612
0.00374604
0.003746
0.00374598
0.00374598
0.003746
0.00374604
0.00374612
0.00374628
0.00374652
0.0037468
0.00374679
0.00375019
0.00397122
0.00441479
0.00375346
0.00374141
0.00374095
0.00374056
0.00374012
0.00373987
0.00373975
0.00373969
0.00373966
0.00373966
0.00373969
0.00373975
0.00373987
0.00374012
0.00374056
0.00374095
0.00374141
0.00375346
0.00441479
0.00485932
0.00376058
0.00373287
0.00373264
0.00373284
0.00373273
0.00373256
0.00373242
0.00373235
0.00373231
0.00373231
0.00373235
0.00373242
0.00373256
0.00373273
0.00373284
0.00373264
0.00373287
0.00376058
0.00485932
0.00530201
0.00377207
0.0037243
0.00372396
0.00372492
0.00372524
0.00372525
0.00372519
0.00372514
0.00372512
0.00372512
0.00372514
0.00372519
0.00372525
0.00372524
0.00372492
0.00372396
0.0037243
0.00377207
0.00530201
0.00573933
0.00378543
0.0037155
0.00371482
0.00371665
0.00371758
0.00371789
0.00371795
0.00371795
0.00371795
0.00371795
0.00371795
0.00371795
0.00371789
0.00371758
0.00371665
0.00371482
0.0037155
0.00378543
0.00573933
0.00617035
0.00379767
0.00370577
0.0037051
0.003708
0.00370969
0.00371043
0.0037107
0.00371078
0.0037108
0.0037108
0.00371078
0.0037107
0.00371043
0.00370969
0.003708
0.0037051
0.00370577
0.00379767
0.00617035
0.00659173
0.0038085
0.00369499
0.00369475
0.00369894
0.00370155
0.00370284
0.0037034
0.00370361
0.00370368
0.00370368
0.00370361
0.0037034
0.00370284
0.00370155
0.00369894
0.00369475
0.00369499
0.0038085
0.00659173
0.00700105
0.00381669
0.00368271
0.00368361
0.00368941
0.00369311
0.00369508
0.00369602
0.00369642
0.00369656
0.00369656
0.00369642
0.00369602
0.00369508
0.00369311
0.00368941
0.00368361
0.00368271
0.00381669
0.00700105
0.00739349
0.0038233
0.00366913
0.00367173
0.00367941
0.00368437
0.00368714
0.00368854
0.00368919
0.00368943
0.00368943
0.00368919
0.00368854
0.00368714
0.00368437
0.00367941
0.00367173
0.00366913
0.0038233
0.00739349
0.00776755
0.00382736
0.00365405
0.00365903
0.00366893
0.00367532
0.00367898
0.00368095
0.0036819
0.00368228
0.00368228
0.0036819
0.00368095
0.00367898
0.00367531
0.00366893
0.00365903
0.00365405
0.00382736
0.00776754
0.0081201
0.00383024
0.00363766
0.00364553
0.00365794
0.00366593
0.00367061
0.00367321
0.00367453
0.00367507
0.00367507
0.00367453
0.00367321
0.00367061
0.00366593
0.00365794
0.00364553
0.00363766
0.00383024
0.0081201
0.00845042
0.00383068
0.00361989
0.00363122
0.00364645
0.0036562
0.00366201
0.00366531
0.00366705
0.00366779
0.00366779
0.00366705
0.00366531
0.00366201
0.0036562
0.00364645
0.00363122
0.00361989
0.00383068
0.00845042
0.00875536
0.00383017
0.00360089
0.00361613
0.00363446
0.00364613
0.00365316
0.00365725
0.00365946
0.00366041
0.00366041
0.00365946
0.00365725
0.00365316
0.00364613
0.00363446
0.00361613
0.0036009
0.00383018
0.00875535
0.00903544
0.00382883
0.00358083
0.00360031
0.00362199
0.00363573
0.00364408
0.00364901
0.00365173
0.00365292
0.00365292
0.00365173
0.00364901
0.00364408
0.00363573
0.00362199
0.00360031
0.00358083
0.00382883
0.00903543
0.00928889
0.00382647
0.00355981
0.0035838
0.00360904
0.00362499
0.00363475
0.00364059
0.00364385
0.00364531
0.00364531
0.00364385
0.00364059
0.00363475
0.00362499
0.00360904
0.0035838
0.00355981
0.00382647
0.00928888
0.00951738
0.00382342
0.00353795
0.00356665
0.00359565
0.00361394
0.00362518
0.00363197
0.00363582
0.00363755
0.00363755
0.00363582
0.00363197
0.00362518
0.00361394
0.00359565
0.00356665
0.00353795
0.00382342
0.00951737
0.00971933
0.00382013
0.00351533
0.00354886
0.00358181
0.00360256
0.00361536
0.00362316
0.00362762
0.00362964
0.00362964
0.00362762
0.00362316
0.00361536
0.00360256
0.00358181
0.00354886
0.00351533
0.00382013
0.00971931
0.00989733
0.00381659
0.00349213
0.00353054
0.00356757
0.00359087
0.00360529
0.00361414
0.00361924
0.00362157
0.00362157
0.00361924
0.00361414
0.00360529
0.00359087
0.00356757
0.00353054
0.00349213
0.00381659
0.00989731
0.0100502
0.00381345
0.00346848
0.0035117
0.00355293
0.00357887
0.00359498
0.00360492
0.00361068
0.00361332
0.00361332
0.00361068
0.00360492
0.00359498
0.00357887
0.00355293
0.0035117
0.00346849
0.00381345
0.0100502
0.0101815
0.00381059
0.00344462
0.00349247
0.00353795
0.0035666
0.00358445
0.00359549
0.00360193
0.0036049
0.0036049
0.00360193
0.00359549
0.00358445
0.0035666
0.00353795
0.00349247
0.00344462
0.00381059
0.0101815
0.0102898
0.00380854
0.00342048
0.0034728
0.00352261
0.00355405
0.00357367
0.00358587
0.003593
0.0035963
0.0035963
0.003593
0.00358587
0.00357367
0.00355405
0.00352261
0.0034728
0.00342048
0.00380855
0.0102898
0.0103795
0.00380713
0.00339642
0.00345287
0.00350698
0.00354123
0.00356267
0.00357603
0.00358387
0.00358751
0.00358751
0.00358387
0.00357603
0.00356267
0.00354123
0.00350698
0.00345287
0.00339643
0.00380713
0.0103794
0.0104486
0.00380735
0.0033723