/*--------------------------------*- C++ -*----------------------------------*\
| =========                 |                                                 |
| \\      /  F ield         | OpenFOAM: The Open Source CFD Toolbox           |
|  \\    /   O peration     | Version:  2.1.0                                 |
|   \\  /    A nd           | Web:      www.OpenFOAM.org                      |
|    \\/     M anipulation  |                                                 |
\*---------------------------------------------------------------------------*/
FoamFile
{
    version     2.0;
    format      ascii;
    class       volScalarField;
    location    "0.23";
    object      nut;
}
// * * * * * * * * * * * * * * * * * * * * * * * * * * * * * * * * * * * * * //

dimensions      [0 2 -1 0 0 0 0];

internalField   nonuniform List<scalar> 
6400
(
6.82164e-06
6.83672e-06
6.84624e-06
6.85872e-06
6.87045e-06
6.88531e-06
6.89729e-06
6.91329e-06
6.9258e-06
6.94233e-06
6.95559e-06
6.97238e-06
6.98654e-06
7.00353e-06
7.01865e-06
7.0359e-06
7.05204e-06
7.0697e-06
7.08691e-06
7.10518e-06
7.12353e-06
7.14258e-06
7.16209e-06
7.18208e-06
7.20279e-06
7.22384e-06
7.24578e-06
7.26801e-06
7.29123e-06
7.31474e-06
7.3393e-06
7.36421e-06
7.39021e-06
7.41663e-06
7.44416e-06
7.47216e-06
7.50125e-06
7.5308e-06
7.56131e-06
7.5922e-06
7.62377e-06
7.65561e-06
7.68789e-06
7.72021e-06
7.75268e-06
7.78493e-06
7.81701e-06
7.84856e-06
7.87955e-06
7.90943e-06
7.93734e-06
7.96258e-06
7.98785e-06
8.01302e-06
8.03747e-06
8.06219e-06
8.08589e-06
8.10955e-06
8.13211e-06
8.15431e-06
8.17618e-06
8.19715e-06
8.21727e-06
8.23628e-06
8.25397e-06
8.27007e-06
8.28356e-06
8.29485e-06
8.30333e-06
8.3082e-06
8.3095e-06
8.30694e-06
8.30084e-06
8.29096e-06
8.27818e-06
8.26313e-06
8.24692e-06
8.23135e-06
8.21797e-06
8.20942e-06
8.20748e-06
8.21409e-06
8.23068e-06
8.26056e-06
8.29989e-06
8.33975e-06
8.38704e-06
8.43649e-06
8.46768e-06
8.45066e-06
8.31631e-06
7.92991e-06
7.04992e-06
5.44432e-06
3.2204e-06
2.02343e-06
2.22206e-06
3.65452e-06
3.77677e-06
4.09369e-06
7.23002e-05
7.2682e-05
7.27415e-05
7.29792e-05
7.30469e-05
7.32385e-05
7.33231e-05
7.34842e-05
7.35827e-05
7.37221e-05
7.38289e-05
7.39521e-05
7.40617e-05
7.41721e-05
7.42801e-05
7.43797e-05
7.4483e-05
7.45732e-05
7.46699e-05
7.47521e-05
7.48422e-05
7.49185e-05
7.50025e-05
7.50732e-05
7.51506e-05
7.52157e-05
7.52858e-05
7.53444e-05
7.5406e-05
7.54566e-05
7.55078e-05
7.55481e-05
7.55864e-05
7.56137e-05
7.56397e-05
7.56555e-05
7.56679e-05
7.56707e-05
7.56685e-05
7.56565e-05
7.56342e-05
7.5598e-05
7.55473e-05
7.54777e-05
7.53887e-05
7.52748e-05
7.51354e-05
7.49655e-05
7.47663e-05
7.45433e-05
7.42854e-05
7.38201e-05
7.32439e-05
7.26337e-05
7.19901e-05
7.13163e-05
7.06081e-05
6.98658e-05
6.90861e-05
6.82665e-05
6.74158e-05
6.65277e-05
6.56071e-05
6.46488e-05
6.36559e-05
6.26249e-05
6.15458e-05
6.04244e-05
5.9271e-05
5.80577e-05
5.67978e-05
5.54869e-05
5.41237e-05
5.2708e-05
5.12406e-05
4.97211e-05
4.81509e-05
4.6531e-05
4.48619e-05
4.31462e-05
4.13861e-05
3.95811e-05
3.77235e-05
3.58247e-05
3.38741e-05
3.18877e-05
2.98107e-05
2.7661e-05
2.54184e-05
2.3099e-05
2.07076e-05
1.82793e-05
1.58352e-05
1.34723e-05
1.11471e-05
8.94827e-06
7.26289e-06
6.12367e-06
5.52471e-06
6.74185e-06
0.000110334
0.000110452
0.000110495
0.000110498
0.000110521
0.00011049
0.000110496
0.00011044
0.00011043
0.000110353
0.000110324
0.000110226
0.000110174
0.000110055
0.000109976
0.000109834
0.000109724
0.000109558
0.000109415
0.000109221
0.000109045
0.000108826
0.000108624
0.000108382
0.00010815
0.000107884
0.000107623
0.000107333
0.000107044
0.000106728
0.00010641
0.000106068
0.00010572
0.000105348
0.000104962
0.000104549
0.000104117
0.000103657
0.000103172
0.000102659
0.000102125
0.000101562
0.000100974
0.000100348
9.96868e-05
9.89801e-05
9.82268e-05
9.74139e-05
9.62061e-05
9.48575e-05
9.34723e-05
9.20571e-05
9.06183e-05
8.91451e-05
8.76478e-05
8.61228e-05
8.45736e-05
8.30021e-05
8.14144e-05
7.98121e-05
7.81763e-05
7.65209e-05
7.48575e-05
7.31614e-05
7.14506e-05
6.97198e-05
6.79734e-05
6.62116e-05
6.44352e-05
6.26419e-05
6.08311e-05
5.90046e-05
5.71574e-05
5.52915e-05
5.34036e-05
5.14931e-05
4.9558e-05
4.75974e-05
4.56102e-05
4.35972e-05
4.15596e-05
3.95012e-05
3.74257e-05
3.53396e-05
3.32485e-05
3.11627e-05
2.91004e-05
2.70677e-05
2.50759e-05
2.31285e-05
2.12052e-05
1.93234e-05
1.74626e-05
1.55406e-05
1.35832e-05
1.16303e-05
9.8599e-06
8.35858e-06
7.84342e-06
1.10652e-05
0.000130708
0.000130259
0.000130082
0.000129689
0.000129504
0.000129094
0.00012888
0.000128456
0.000128202
0.000127765
0.000127466
0.000127012
0.000126668
0.000126193
0.000125802
0.000125299
0.000124859
0.000124322
0.000123826
0.000123244
0.000122574
0.000121595
0.000120617
0.000119597
0.000118581
0.000117526
0.000116467
0.000115374
0.000114273
0.00011314
0.000111997
0.000110822
0.000109634
0.000108415
0.000107182
0.000105922
0.000104639
0.000103333
0.000102003
0.000100649
9.92725e-05
9.78702e-05
9.64472e-05
9.49989e-05
9.35313e-05
9.20391e-05
9.05298e-05
8.89994e-05
8.7464e-05
8.59056e-05
8.43383e-05
8.27721e-05
8.11871e-05
7.95884e-05
7.79803e-05
7.63575e-05
7.47215e-05
7.30722e-05
7.14103e-05
6.97341e-05
6.80493e-05
6.63535e-05
6.46545e-05
6.29463e-05
6.12375e-05
5.95259e-05
5.78182e-05
5.61128e-05
5.44165e-05
5.27274e-05
5.10509e-05
4.93869e-05
4.77363e-05
4.60999e-05
4.44766e-05
4.28659e-05
4.12663e-05
3.96767e-05
3.8097e-05
3.65267e-05
3.49655e-05
3.34125e-05
3.18622e-05
3.03284e-05
2.88079e-05
2.72817e-05
2.57679e-05
2.42521e-05
2.27333e-05
2.12016e-05
1.96556e-05
1.809e-05
1.64989e-05
1.48719e-05
1.3202e-05
1.15999e-05
1.01923e-05
9.51828e-06
1.18915e-05
1.20991e-05
0.000130424
0.00013028
0.000129941
0.000129596
0.000128779
0.000128045
0.000127093
0.000126197
0.000125198
0.000124216
0.000123189
0.000122149
0.000121094
0.000120008
0.000118921
0.000117797
0.000116673
0.000115513
0.00011435
0.000113153
0.000111955
0.000110729
0.0001095
0.000108237
0.000106973
0.000105676
0.000104379
0.000103051
0.000101722
0.000100364
9.90039e-05
9.76175e-05
9.62269e-05
9.4811e-05
9.33856e-05
9.19597e-05
9.05058e-05
8.90513e-05
8.75776e-05
8.60985e-05
8.46089e-05
8.3111e-05
8.1609e-05
8.00996e-05
7.85911e-05
7.70779e-05
7.55704e-05
7.40621e-05
7.25646e-05
7.10674e-05
6.9577e-05
6.8088e-05
6.66071e-05
6.51295e-05
6.36634e-05
6.2207e-05
6.07663e-05
5.93395e-05
5.79309e-05
5.65389e-05
5.51679e-05
5.38155e-05
5.24872e-05
5.11787e-05
4.98955e-05
4.86327e-05
4.73936e-05
4.61724e-05
4.49707e-05
4.37769e-05
4.25977e-05
4.14329e-05
4.02551e-05
3.90839e-05
3.78928e-05
3.66961e-05
3.54758e-05
3.4241e-05
3.29811e-05
3.17047e-05
3.04048e-05
2.90906e-05
2.77592e-05
2.64267e-05
2.50855e-05
2.37548e-05
2.24276e-05
2.11126e-05
1.9816e-05
1.85459e-05
1.73097e-05
1.61181e-05
1.49743e-05
1.38863e-05
1.2878e-05
1.21354e-05
1.19762e-05
1.38682e-05
1.39122e-05
1.41027e-05
0.000116801
0.00011603
0.000115544
0.000114853
0.000113911
0.000112919
0.000111835
0.00011072
0.000109582
0.000108409
0.000107244
0.000106038
0.000104854
0.000103625
0.000102417
0.000101182
9.99514e-05
9.87178e-05
9.74759e-05
9.62254e-05
9.49821e-05
9.37234e-05
9.24741e-05
9.12022e-05
8.99419e-05
8.86517e-05
8.73713e-05
8.60633e-05
8.47608e-05
8.34378e-05
8.21247e-05
8.07934e-05
7.94719e-05
7.81355e-05
7.68102e-05
7.54741e-05
7.41478e-05
7.28184e-05
7.14994e-05
7.01825e-05
6.88792e-05
6.75815e-05
6.63013e-05
6.503e-05
6.37794e-05
6.25404e-05
6.13243e-05
6.01213e-05
5.89417e-05
5.77763e-05
5.66343e-05
5.55073e-05
5.44026e-05
5.33091e-05
5.22381e-05
5.11887e-05
5.01579e-05
4.91393e-05
4.81422e-05
4.7152e-05
4.61818e-05
4.52151e-05
4.42649e-05
4.33175e-05
4.23826e-05
4.14506e-05
4.05263e-05
3.96028e-05
3.86817e-05
3.77579e-05
3.68321e-05
3.58988e-05
3.49583e-05
3.40089e-05
3.30488e-05
3.20822e-05
3.1103e-05
3.01235e-05
2.91402e-05
2.81667e-05
2.71999e-05
2.62509e-05
2.53195e-05
2.44101e-05
2.35193e-05
2.26467e-05
2.1791e-05
2.096e-05
2.01573e-05
1.93914e-05
1.8672e-05
1.80116e-05
1.74318e-05
1.69812e-05
1.68205e-05
1.70227e-05
1.63759e-05
1.61018e-05
1.60711e-05
1.3264e-05
0.000100292
9.90376e-05
9.84842e-05
9.75581e-05
9.66811e-05
9.55953e-05
9.45966e-05
9.34513e-05
9.24002e-05
9.12349e-05
9.01584e-05
8.89872e-05
8.78964e-05
8.67249e-05
8.56257e-05
8.44581e-05
8.33539e-05
8.2194e-05
8.10875e-05
7.99376e-05
7.88332e-05
7.76946e-05
7.65969e-05
7.54743e-05
7.43909e-05
7.32785e-05
7.22006e-05
7.11056e-05
7.00391e-05
6.89612e-05
6.79115e-05
6.68523e-05
6.58188e-05
6.47775e-05
6.37591e-05
6.27343e-05
6.173e-05
6.07171e-05
5.97261e-05
5.87359e-05
5.77586e-05
5.67826e-05
5.58208e-05
5.48608e-05
5.3914e-05
5.29696e-05
5.20377e-05
5.11096e-05
5.01936e-05
4.92848e-05
4.83891e-05
4.75046e-05
4.66359e-05
4.57828e-05
4.49517e-05
4.41359e-05
4.33374e-05
4.2559e-05
4.18014e-05
4.10656e-05
4.03554e-05
3.96705e-05
3.90174e-05
3.83931e-05
3.7802e-05
3.72418e-05
3.67147e-05
3.62174e-05
3.57515e-05
3.53094e-05
3.48944e-05
3.44933e-05
3.41085e-05
3.37316e-05
3.33659e-05
3.30062e-05
3.24879e-05
3.19142e-05
3.13356e-05
3.07213e-05
3.00856e-05
2.94179e-05
2.87187e-05
2.79961e-05
2.72639e-05
2.6503e-05
2.57287e-05
2.49377e-05
2.41444e-05
2.33583e-05
2.258e-05
2.1822e-05
2.10949e-05
2.04098e-05
1.97908e-05
1.93406e-05
1.90558e-05
1.8903e-05
1.9582e-05
1.49432e-05
8.61743e-05
8.45933e-05
8.4093e-05
8.31048e-05
8.24071e-05
8.13786e-05
8.06006e-05
7.95775e-05
7.87668e-05
7.77676e-05
7.69447e-05
7.5972e-05
7.51444e-05
7.4195e-05
7.33651e-05
7.24313e-05
7.16023e-05
7.06762e-05
6.98482e-05
6.89224e-05
6.80915e-05
6.71764e-05
6.63263e-05
6.54109e-05
6.44558e-05
6.30867e-05
6.18399e-05
6.05161e-05
5.93109e-05
5.80373e-05
5.68793e-05
5.5663e-05
5.45603e-05
5.34081e-05
5.23675e-05
5.12844e-05
5.03095e-05
4.92989e-05
4.83935e-05
4.7459e-05
4.66237e-05
4.57617e-05
4.49969e-05
4.42086e-05
4.35149e-05
4.28006e-05
4.21783e-05
4.15383e-05
4.09864e-05
4.04203e-05
3.99358e-05
3.94446e-05
3.90238e-05
3.85998e-05
3.8241e-05
3.78761e-05
3.75719e-05
3.7256e-05
3.69961e-05
3.67231e-05
3.64997e-05
3.62647e-05
3.60721e-05
3.58605e-05
3.56894e-05
3.55275e-05
3.53632e-05
3.52206e-05
3.50729e-05
3.49344e-05
3.47807e-05
3.46529e-05
3.44906e-05
3.43517e-05
3.41831e-05
3.40215e-05
3.38559e-05
3.36698e-05
3.34927e-05
3.32916e-05
3.30805e-05
3.28533e-05
3.26055e-05
3.23235e-05
3.2003e-05
3.16438e-05
3.12703e-05
3.08215e-05
3.03112e-05
2.97852e-05
2.91885e-05
2.85628e-05
2.79248e-05
2.72659e-05
2.67101e-05
2.62507e-05
2.59355e-05
2.60336e-05
2.64395e-05
2.0124e-05
7.06753e-05
6.86228e-05
6.77898e-05
6.62303e-05
6.53716e-05
6.38912e-05
6.30383e-05
6.16211e-05
6.07782e-05
5.94246e-05
5.85974e-05
5.73087e-05
5.65034e-05
5.5281e-05
5.45036e-05
5.33491e-05
5.26047e-05
5.1521e-05
5.08121e-05
4.97995e-05
4.9129e-05
4.81897e-05
4.75639e-05
4.66986e-05
4.6122e-05
4.53346e-05
4.48216e-05
4.41183e-05
4.36679e-05
4.30454e-05
4.2654e-05
4.21086e-05
4.17727e-05
4.13001e-05
4.10145e-05
4.061e-05
4.03741e-05
4.00319e-05
3.98409e-05
3.9555e-05
3.94045e-05
3.91696e-05
3.90559e-05
3.88668e-05
3.8786e-05
3.86369e-05
3.85852e-05
3.8491e-05
3.84506e-05
3.84238e-05
3.83588e-05
3.83808e-05
3.83613e-05
3.83939e-05
3.84221e-05
3.84661e-05
3.85336e-05
3.85958e-05
3.86943e-05
3.87836e-05
3.89075e-05
3.90268e-05
3.91745e-05
3.93223e-05
3.94924e-05
3.96654e-05
3.98558e-05
4.00526e-05
4.02627e-05
4.04813e-05
4.07106e-05
4.09486e-05
4.11954e-05
4.14525e-05
4.17182e-05
4.19949e-05
4.22829e-05
4.25776e-05
4.28854e-05
4.31964e-05
4.3514e-05
4.38316e-05
4.41467e-05
4.4443e-05
4.47267e-05
4.49765e-05
4.51938e-05
4.53606e-05
4.54756e-05
4.55271e-05
4.55099e-05
4.54192e-05
4.52577e-05
4.50304e-05
4.47635e-05
4.45161e-05
4.44236e-05
4.46282e-05
4.4973e-05
3.79857e-05
5.61009e-05
5.43314e-05
5.36289e-05
5.23094e-05
5.1678e-05
5.04302e-05
4.98665e-05
4.86957e-05
4.81954e-05
4.71084e-05
4.66661e-05
4.56674e-05
4.52793e-05
4.43714e-05
4.40336e-05
4.32179e-05
4.29264e-05
4.22033e-05
4.19539e-05
4.13228e-05
4.11109e-05
4.05706e-05
4.03916e-05
3.99396e-05
3.97884e-05
3.94209e-05
3.92923e-05
3.90041e-05
3.88918e-05
3.86792e-05
3.85828e-05
3.84286e-05
3.83546e-05
3.82842e-05
3.8219e-05
3.8162e-05
3.81472e-05
3.81251e-05
3.81399e-05
3.815e-05
3.81942e-05
3.82331e-05
3.83072e-05
3.83732e-05
3.84766e-05
3.85686e-05
3.87005e-05
3.8819e-05
3.89777e-05
3.91236e-05
3.9305e-05
3.94809e-05
3.9685e-05
3.98885e-05
4.0118e-05
4.03466e-05
4.06025e-05
4.08557e-05
4.11376e-05
4.14173e-05
4.17244e-05
4.20322e-05
4.23649e-05
4.27014e-05
4.30605e-05
4.3426e-05
4.38132e-05
4.42087e-05
4.46256e-05
4.50527e-05
4.55014e-05
4.59626e-05
4.64454e-05
4.69435e-05
4.74641e-05
4.80031e-05
4.85661e-05
4.91494e-05
4.97598e-05
5.03905e-05
5.10482e-05
5.17267e-05
5.24324e-05
5.31642e-05
5.39261e-05
5.47172e-05
5.55469e-05
5.64131e-05
5.73265e-05
5.8288e-05
5.93082e-05
6.03896e-05
6.15407e-05
6.27641e-05
6.40667e-05
6.54427e-05
6.68557e-05
6.82108e-05
6.8917e-05
6.44227e-05
5.86661e-05
5.68014e-05
5.60575e-05
5.46592e-05
5.39735e-05
5.26492e-05
5.20169e-05
5.07732e-05
5.01921e-05
4.90337e-05
4.8505e-05
4.74338e-05
4.69596e-05
4.59746e-05
4.55567e-05
4.46572e-05
4.42958e-05
4.34807e-05
4.31751e-05
4.24429e-05
4.21909e-05
4.15393e-05
4.13377e-05
4.07638e-05
4.06088e-05
4.01162e-05
3.99905e-05
3.9583e-05
3.94799e-05
3.91553e-05
3.90692e-05
3.88241e-05
3.87511e-05
3.85805e-05
3.85155e-05
3.84071e-05
3.83582e-05
3.83299e-05
3.82719e-05
3.82741e-05
3.82685e-05
3.82867e-05
3.83242e-05
3.83623e-05
3.84366e-05
3.84964e-05
3.86017e-05
3.86858e-05
3.8817e-05
3.89265e-05
3.90801e-05
3.92145e-05
3.93893e-05
3.9548e-05
3.97417e-05
3.99244e-05
4.01371e-05
4.03424e-05
4.05743e-05
4.08024e-05
4.10529e-05
4.13041e-05
4.1573e-05
4.18471e-05
4.21379e-05
4.24343e-05
4.27501e-05
4.3069e-05
4.34097e-05
4.3752e-05
4.41162e-05
4.44839e-05
4.48716e-05
4.52664e-05
4.56791e-05
4.61017e-05
4.65422e-05
4.69946e-05
4.74668e-05
4.79517e-05
4.84592e-05
4.89814e-05
4.95299e-05
5.00979e-05
5.06965e-05
5.13206e-05
5.19782e-05
5.26667e-05
5.34003e-05
5.41799e-05
5.5014e-05
5.59051e-05
5.686e-05
5.78901e-05
5.90138e-05
6.02584e-05
6.1654e-05
6.31862e-05
6.44299e-05
6.0705e-05
7.85567e-05
7.64197e-05
7.55465e-05
7.39087e-05
7.29896e-05
7.14409e-05
7.0479e-05
6.90112e-05
6.80142e-05
6.66031e-05
6.55944e-05
6.42302e-05
6.32347e-05
6.19126e-05
6.09359e-05
5.96611e-05
5.87097e-05
5.74868e-05
5.65672e-05
5.54004e-05
5.45188e-05
5.34121e-05
5.25744e-05
5.15313e-05
5.07428e-05
4.97673e-05
4.90293e-05
4.81224e-05
4.74386e-05
4.66027e-05
4.59769e-05
4.52161e-05
4.46516e-05
4.3969e-05
4.34762e-05
4.28799e-05
4.24552e-05
4.1942e-05
4.15806e-05
4.11469e-05
4.08462e-05
4.04826e-05
4.02392e-05
3.99396e-05
3.97476e-05
3.95033e-05
3.93551e-05
3.91583e-05
3.90464e-05
3.8889e-05
3.88053e-05
3.8675e-05
3.8608e-05
3.8535e-05
3.84636e-05
3.83969e-05
3.83392e-05
3.82937e-05
3.82452e-05
3.82113e-05
3.81652e-05
3.81421e-05
3.81027e-05
3.80843e-05
3.8058e-05
3.80397e-05
3.80296e-05
3.80115e-05
3.80126e-05
3.7997e-05
3.80004e-05
3.79901e-05
3.79886e-05
3.79729e-05
3.79565e-05
3.7926e-05
3.78905e-05
3.78374e-05
3.77791e-05
3.76985e-05
3.76136e-05
3.75039e-05
3.73914e-05
3.72584e-05
3.71248e-05
3.69757e-05
3.68302e-05
3.66751e-05
3.65204e-05
3.6357e-05
3.62073e-05
3.60677e-05
3.59516e-05
3.58603e-05
3.58194e-05
3.58724e-05
3.61013e-05
3.65968e-05
3.73656e-05
3.19549e-05
9.11152e-05
8.96661e-05
8.91483e-05
8.81985e-05
8.74647e-05
8.64466e-05
8.56205e-05
8.45909e-05
8.37279e-05
8.27122e-05
8.1838e-05
8.08419e-05
7.99653e-05
7.89883e-05
7.81118e-05
7.71516e-05
7.62755e-05
7.53291e-05
7.44529e-05
7.35168e-05
7.26393e-05
7.17099e-05
7.08287e-05
6.99017e-05
6.90166e-05
6.80801e-05
6.71935e-05
6.62648e-05
6.53616e-05
6.44286e-05
6.35137e-05
6.25738e-05
6.16461e-05
6.02919e-05
5.90176e-05
5.77182e-05
5.651e-05
5.52867e-05
5.41542e-05
5.30161e-05
5.19677e-05
5.09212e-05
4.9961e-05
4.90067e-05
4.81367e-05
4.72771e-05
4.64934e-05
4.57201e-05
4.50175e-05
4.43221e-05
4.36926e-05
4.30648e-05
4.2498e-05
4.19275e-05
4.14117e-05
4.08896e-05
4.04159e-05
3.9933e-05
3.9489e-05
3.9033e-05
3.86081e-05
3.81721e-05
3.77576e-05
3.73324e-05
3.69247e-05
3.65016e-05
3.60969e-05
3.5669e-05
3.52588e-05
3.48177e-05
3.43831e-05
3.39189e-05
3.34641e-05
3.29807e-05
3.25088e-05
3.20021e-05
3.1511e-05
3.09834e-05
3.04738e-05
2.99336e-05
2.94092e-05
2.88615e-05
2.83297e-05
2.77785e-05
2.72414e-05
2.66965e-05
2.61667e-05
2.56392e-05
2.51318e-05
2.46357e-05
2.41517e-05
2.36835e-05
2.32535e-05
2.28946e-05
2.26068e-05
2.23903e-05
2.25242e-05
2.2824e-05
2.36103e-05
1.83488e-05
0.000106485
0.000105359
0.000104853
0.000104024
0.000103165
0.000102141
0.000101145
0.000100037
9.89807e-05
9.78405e-05
9.67585e-05
9.5602e-05
9.45024e-05
9.33354e-05
9.22209e-05
9.1046e-05
8.99186e-05
8.87379e-05
8.76001e-05
8.64159e-05
8.5271e-05
8.40884e-05
8.29378e-05
8.17584e-05
8.06073e-05
7.94327e-05
7.82847e-05
7.71203e-05
7.59799e-05
7.48288e-05
7.37008e-05
7.25675e-05
7.14609e-05
7.03454e-05
6.92516e-05
6.816e-05
6.70871e-05
6.60231e-05
6.49779e-05
6.39416e-05
6.29238e-05
6.19149e-05
6.09208e-05
5.99342e-05
5.89741e-05
5.80122e-05
5.70714e-05
5.61355e-05
5.52148e-05
5.42998e-05
5.33947e-05
5.24944e-05
5.15995e-05
5.07078e-05
4.98172e-05
4.89279e-05
4.80381e-05
4.71486e-05
4.6258e-05
4.53684e-05
4.44786e-05
4.35929e-05
4.27122e-05
4.18331e-05
4.0965e-05
4.01043e-05
3.92563e-05
3.84197e-05
3.7601e-05
3.67957e-05
3.601e-05
3.52398e-05
3.44922e-05
3.37597e-05
3.30509e-05
3.23604e-05
3.16912e-05
3.10364e-05
3.03959e-05
2.97724e-05
2.91611e-05
2.8564e-05
2.79743e-05
2.73503e-05
2.64417e-05
2.55468e-05
2.46565e-05
2.37773e-05
2.29244e-05
2.20941e-05
2.13119e-05
2.05676e-05
1.98745e-05
1.92204e-05
1.86328e-05
1.81909e-05
1.79831e-05
1.77867e-05
1.85088e-05
1.43059e-05
0.000123393
0.000122717
0.00012229
0.000121696
0.000120796
0.000119875
0.000118824
0.000117765
0.000116657
0.000115531
0.000114393
0.000113225
0.000112065
0.000110866
0.000109684
0.00010846
0.000107257
0.000106013
0.000104789
0.000103528
0.000102272
0.000101011
9.9751e-05
9.84704e-05
9.71987e-05
9.59123e-05
9.46317e-05
9.33319e-05
9.20356e-05
9.07219e-05
8.94109e-05
8.80853e-05
8.67648e-05
8.54267e-05
8.40915e-05
8.27437e-05
8.13965e-05
8.00466e-05
7.87009e-05
7.73551e-05
7.60164e-05
7.46818e-05
7.33566e-05
7.20409e-05
7.07372e-05
6.9447e-05
6.81718e-05
6.69126e-05
6.56708e-05
6.44461e-05
6.32394e-05
6.20492e-05
6.08762e-05
5.97176e-05
5.85731e-05
5.74397e-05
5.63175e-05
5.5203e-05
5.40935e-05
5.29893e-05
5.18976e-05
5.07983e-05
4.97122e-05
4.86249e-05
4.75473e-05
4.64677e-05
4.53974e-05
4.43238e-05
4.32562e-05
4.2184e-05
4.11144e-05
4.00375e-05
3.89571e-05
3.7865e-05
3.67666e-05
3.56576e-05
3.4543e-05
3.34186e-05
3.22894e-05
3.11556e-05
3.00184e-05
2.8879e-05
2.77376e-05
2.65976e-05
2.5463e-05
2.43385e-05
2.32271e-05
2.21324e-05
2.10599e-05
2.00142e-05
1.89857e-05
1.80096e-05
1.71152e-05
1.63058e-05
1.57827e-05
1.59242e-05
1.58936e-05
1.5701e-05
1.57367e-05
1.31609e-05
0.000136302
0.000136259
0.000135974
0.000135716
0.000134954
0.000134293
0.000133394
0.000132565
0.00013162
0.000130703
0.000129731
0.000128757
0.000127759
0.000126739
0.000125713
0.000124653
0.000123595
0.000122498
0.000121405
0.000120271
0.00011914
0.000117974
0.000116804
0.000115602
0.000114393
0.000113164
0.000111928
0.000110663
0.000109393
0.000108097
0.000106794
0.000105468
0.000104133
0.000102774
0.000101406
0.000100018
9.86206e-05
9.72062e-05
9.57757e-05
9.43423e-05
9.28957e-05
9.14385e-05
8.9967e-05
8.84935e-05
8.7006e-05
8.55171e-05
8.40186e-05
8.25188e-05
8.10139e-05
7.95086e-05
7.80018e-05
7.64962e-05
7.49925e-05
7.34918e-05
7.19961e-05
7.05004e-05
6.90053e-05
6.75093e-05
6.60111e-05
6.45118e-05
6.3013e-05
6.15142e-05
6.00184e-05
5.85297e-05
5.70475e-05
5.55753e-05
5.41144e-05
5.26663e-05
5.12331e-05
4.98142e-05
4.84132e-05
4.70278e-05
4.56582e-05
4.42988e-05
4.29492e-05
4.1599e-05
4.02568e-05
3.89269e-05
3.75749e-05
3.62251e-05
3.48525e-05
3.34771e-05
3.20709e-05
3.06449e-05
2.91798e-05
2.76881e-05
2.61623e-05
2.46046e-05
2.30193e-05
2.14181e-05
1.98054e-05
1.81776e-05
1.65748e-05
1.50101e-05
1.35655e-05
1.24847e-05
1.20392e-05
1.35361e-05
1.37275e-05
1.42217e-05
0.000134131
0.000133767
0.000133623
0.000133286
0.000133137
0.000132784
0.000132607
0.00013224
0.000132025
0.000131643
0.000131389
0.000130992
0.000130697
0.000130283
0.000129949
0.000129514
0.000129139
0.000128678
0.00012826
0.000127767
0.000127304
0.000126773
0.000126257
0.000125681
0.000125104
0.000124127
0.000123145
0.000122122
0.000121095
0.000120037
0.000118971
0.000117879
0.000116778
0.000115654
0.000114516
0.000113352
0.000112173
0.000110969
0.000109746
0.000108501
0.000107235
0.000105948
0.000104638
0.000103309
0.000101955
0.000100583
9.91863e-05
9.77698e-05
9.63308e-05
9.48715e-05
9.33915e-05
9.18909e-05
9.03706e-05
8.88307e-05
8.7278e-05
8.57032e-05
8.41103e-05
8.25127e-05
8.08859e-05
7.92449e-05
7.75821e-05
7.59006e-05
7.41938e-05
7.24617e-05
7.06986e-05
6.89098e-05
6.70944e-05
6.52546e-05
6.33936e-05
6.15101e-05
5.96087e-05
5.76931e-05
5.57684e-05
5.38355e-05
5.19025e-05
4.99703e-05
4.80455e-05
4.61327e-05
4.42351e-05
4.23581e-05
4.05034e-05
3.86747e-05
3.68707e-05
3.50907e-05
3.33291e-05
3.15682e-05
2.98293e-05
2.80992e-05
2.63302e-05
2.45584e-05
2.27344e-05
2.08612e-05
1.89061e-05
1.68937e-05
1.4824e-05
1.28582e-05
1.11254e-05
1.01048e-05
1.18936e-05
1.20438e-05
0.000112068
0.000112233
0.000112296
0.000112332
0.000112375
0.000112375
0.000112404
0.00011238
0.000112397
0.000112354
0.000112355
0.000112295
0.000112278
0.000112201
0.000112162
0.000112067
0.000112004
0.000111888
0.000111798
0.00011166
0.00011154
0.000111377
0.000111224
0.000111034
0.000110848
0.000110631
0.000110423
0.000110185
0.000109951
0.000109693
0.000109434
0.000109152
0.000108866
0.000108559
0.000108247
0.000107911
0.000107564
0.000107195
0.000106812
0.000106406
0.000105983
0.000105535
0.000105066
0.00010457
0.000104046
0.000103496
0.000102924
0.000102327
0.000101705
0.000101055
0.00010037
9.96429e-05
9.88676e-05
9.80349e-05
9.67515e-05
9.53889e-05
9.39761e-05
9.25342e-05
9.10484e-05
8.95308e-05
8.79753e-05
8.63926e-05
8.47781e-05
8.31359e-05
8.14694e-05
7.97587e-05
7.80115e-05
7.62094e-05
7.43788e-05
7.25195e-05
7.05999e-05
6.86459e-05
6.66476e-05
6.46039e-05
6.25116e-05
6.03685e-05
5.81699e-05
5.59156e-05
5.35979e-05
5.1221e-05
4.87787e-05
4.62785e-05
4.3722e-05
4.1121e-05
3.84866e-05
3.58377e-05
3.31967e-05
3.05892e-05
2.80378e-05
2.55622e-05
2.31468e-05
2.0797e-05
1.85156e-05
1.62438e-05
1.4091e-05
1.20779e-05
1.02856e-05
8.89341e-06
8.37233e-06
1.14051e-05
7.25497e-05
7.2937e-05
7.30112e-05
7.32452e-05
7.33244e-05
7.35147e-05
7.36091e-05
7.37715e-05
7.38793e-05
7.40228e-05
7.41394e-05
7.42696e-05
7.43903e-05
7.45106e-05
7.46314e-05
7.47436e-05
7.48612e-05
7.49661e-05
7.50783e-05
7.5176e-05
7.5281e-05
7.53716e-05
7.54688e-05
7.55528e-05
7.56425e-05
7.57216e-05
7.58056e-05
7.58793e-05
7.59566e-05
7.6024e-05
7.6093e-05
7.61524e-05
7.62109e-05
7.626e-05
7.63061e-05
7.63451e-05
7.63809e-05
7.64093e-05
7.64336e-05
7.64502e-05
7.6462e-05
7.6466e-05
7.64645e-05
7.64555e-05
7.64407e-05
7.64196e-05
7.63877e-05
7.63449e-05
7.62887e-05
7.62167e-05
7.61261e-05
7.6015e-05
7.58809e-05
7.57227e-05
7.55424e-05
7.53528e-05
7.51384e-05
7.49071e-05
7.46462e-05
7.43558e-05
7.40213e-05
7.34636e-05
7.27655e-05
7.20173e-05
7.12119e-05
7.03633e-05
6.94642e-05
6.85133e-05
6.751e-05
6.6447e-05
6.53181e-05
6.41158e-05
6.28241e-05
6.14684e-05
6.00272e-05
5.84785e-05
5.6833e-05
5.50837e-05
5.32209e-05
5.12507e-05
4.91636e-05
4.69666e-05
4.46579e-05
4.22438e-05
3.97295e-05
3.71252e-05
3.44267e-05
3.16438e-05
2.87754e-05
2.58416e-05
2.28788e-05
1.99271e-05
1.71165e-05
1.44262e-05
1.1897e-05
9.53506e-06
7.73558e-06
6.49713e-06
5.86016e-06
6.67447e-06
6.79947e-06
6.81438e-06
6.823e-06
6.83585e-06
6.84712e-06
6.8622e-06
6.87403e-06
6.8902e-06
6.9028e-06
6.91951e-06
6.93305e-06
6.95007e-06
6.96464e-06
6.98192e-06
6.99753e-06
7.01511e-06
7.03175e-06
7.04974e-06
7.0674e-06
7.08595e-06
7.10465e-06
7.12394e-06
7.14375e-06
7.16399e-06
7.185e-06
7.20635e-06
7.22861e-06
7.25119e-06
7.27477e-06
7.29868e-06
7.32365e-06
7.34902e-06
7.3755e-06
7.40249e-06
7.43065e-06
7.45946e-06
7.48948e-06
7.52028e-06
7.55236e-06
7.58536e-06
7.61971e-06
7.65513e-06
7.69197e-06
7.73e-06
7.76948e-06
7.81018e-06
7.85221e-06
7.89554e-06
7.9402e-06
7.98623e-06
8.03373e-06
8.08284e-06
8.1338e-06
8.18682e-06
8.24226e-06
8.30014e-06
8.35984e-06
8.42156e-06
8.48422e-06
8.54782e-06
8.61089e-06
8.67313e-06
8.73833e-06
8.80639e-06
8.87758e-06
8.9537e-06
9.03399e-06
9.11936e-06
9.20967e-06
9.30535e-06
9.40681e-06
9.51341e-06
9.62589e-06
9.74601e-06
9.87119e-06
1.00026e-05
1.01392e-05
1.02835e-05
1.04319e-05
1.05875e-05
1.07477e-05
1.09135e-05
1.10833e-05
1.12555e-05
1.14262e-05
1.15868e-05
1.17153e-05
1.17741e-05
1.16861e-05
1.13222e-05
1.04424e-05
9.0043e-06
7.12644e-06
5.0392e-06
3.44592e-06
2.4813e-06
2.45541e-06
3.87276e-06
3.99604e-06
4.30759e-06
1.0738e-05
2.04002e-06
2.59998e-06
3.53931e-06
4.57477e-06
5.61289e-06
6.61391e-06
7.39246e-06
8.16984e-06
8.9191e-06
9.58531e-06
1.0153e-05
1.08385e-05
1.21287e-05
1.44085e-05
1.71197e-05
1.71289e-05
1.50176e-05
1.02324e-05
3.78445e-06
5.75177e-06
2.16593e-06
2.4803e-06
3.20239e-06
4.08842e-06
5.03472e-06
5.86799e-06
6.64705e-06
7.46618e-06
8.28437e-06
9.06407e-06
9.81326e-06
1.10603e-05
1.31207e-05
1.59796e-05
1.77632e-05
1.70161e-05
1.41153e-05
9.49048e-06
3.67814e-06
4.85636e-06
2.69757e-06
2.9271e-06
3.46687e-06
4.13552e-06
4.83184e-06
5.52556e-06
6.28019e-06
7.11942e-06
8.10935e-06
9.02958e-06
1.02176e-05
1.20689e-05
1.46212e-05
1.7263e-05
1.78161e-05
1.66101e-05
1.34763e-05
8.75009e-06
3.47787e-06
5.05305e-06
3.48824e-06
3.70878e-06
3.98335e-06
4.46379e-06
5.0099e-06
5.68984e-06
6.54241e-06
7.59576e-06
9.04071e-06
1.03478e-05
1.19468e-05
1.43744e-05
1.72313e-05
1.86297e-05
1.8405e-05
1.61243e-05
1.26544e-05
7.89842e-06
2.93286e-06
5.74446e-06
4.57017e-06
4.71742e-06
4.71799e-06
5.26234e-06
5.68978e-06
6.49889e-06
7.60943e-06
9.14288e-06
1.1687e-05
1.35259e-05
1.55295e-05
1.82443e-05
1.9793e-05
2.00781e-05
1.84411e-05
1.55224e-05
1.18542e-05
6.95326e-06
2.15034e-06
6.98014e-06
6.04699e-06
6.1146e-06
6.02789e-06
6.71246e-06
7.53001e-06
8.88798e-06
1.08422e-05
1.4513e-05
1.77006e-05
1.94643e-05
2.10338e-05
2.2357e-05
2.23987e-05
2.03108e-05
1.75497e-05
1.45766e-05
1.11594e-05
5.78236e-06
1.43427e-06
9.04563e-06
8.56196e-06
8.72725e-06
9.10645e-06
1.05508e-05
1.27326e-05
1.57819e-05
2.02341e-05
2.65701e-05
2.77271e-05
2.78199e-05
2.74149e-05
2.49745e-05
2.21365e-05
1.93651e-05
1.68764e-05
1.39181e-05
1.05527e-05
4.5259e-06
8.37074e-07
1.41329e-05
1.52654e-05
1.63318e-05
1.841e-05
2.17645e-05
2.58013e-05
3.10889e-05
3.79649e-05
3.45723e-05
3.25002e-05
2.91334e-05
2.70312e-05
2.40159e-05
2.18696e-05
1.89861e-05
1.63905e-05
1.29097e-05
9.47814e-06
3.75914e-06
4.45128e-07
3.09066e-05
3.37692e-05
3.49827e-05
3.72705e-05
4.17548e-05
4.54974e-05
4.24799e-05
3.93332e-05
3.62598e-05
3.33686e-05
3.07081e-05
2.77616e-05
2.5144e-05
2.18875e-05
1.82448e-05
1.41048e-05
1.14611e-05
8.397e-06
3.60669e-06
2.76821e-07
5.15392e-05
5.43962e-05
5.48049e-05
5.65047e-05
5.51253e-05
5.15649e-05
4.79919e-05
4.4562e-05
4.1023e-05
3.76855e-05
3.41332e-05
3.02323e-05
2.64684e-05
2.00635e-05
1.47297e-05
1.08448e-05
9.56653e-06
7.52233e-06
3.56249e-06
2.77714e-07
4.89134e-05
5.17082e-05
5.23213e-05
5.42264e-05
5.39232e-05
5.01405e-05
4.71352e-05
4.3582e-05
4.04781e-05
3.73004e-05
3.38768e-05
3.05087e-05
2.66454e-05
2.13081e-05
1.57113e-05
1.15394e-05
9.59563e-06
7.31187e-06
3.1687e-06
2.31843e-07
2.60617e-05
2.89474e-05
3.03913e-05
3.29783e-05
3.74043e-05
4.2318e-05
4.1617e-05
3.89144e-05
3.58307e-05
3.34258e-05
3.04745e-05
2.81556e-05
2.52379e-05
2.26668e-05
1.93187e-05
1.50313e-05
1.18266e-05
8.21291e-06
3.02807e-06
2.20055e-07
1.25247e-05
1.31564e-05
1.39319e-05
1.57505e-05
1.86916e-05
2.26403e-05
2.76125e-05
3.48499e-05
3.55637e-05
3.26054e-05
3.00705e-05
2.72032e-05
2.44854e-05
2.21996e-05
1.95951e-05
1.69801e-05
1.3385e-05
9.65039e-06
3.4379e-06
3.18e-07
8.49302e-06
7.92043e-06
8.02764e-06
8.2956e-06
9.53118e-06
1.14432e-05
1.41759e-05
1.84269e-05
2.4779e-05
2.62732e-05
2.70129e-05
2.72001e-05
2.552e-05
2.26625e-05
1.97935e-05
1.73663e-05
1.42769e-05
1.07644e-05
4.31102e-06
6.46061e-07
6.67556e-06
5.72269e-06
5.77676e-06
5.69947e-06
6.33831e-06
7.11328e-06
8.37119e-06
1.01829e-05
1.3771e-05
1.70673e-05
1.89408e-05
2.0965e-05
2.24132e-05
2.2638e-05
2.08802e-05
1.78359e-05
1.49972e-05
1.14317e-05
5.93051e-06
1.32609e-06
5.60019e-06
4.38916e-06
4.51889e-06
4.54109e-06
5.06043e-06
5.49734e-06
6.28674e-06
7.36118e-06
8.84618e-06
1.14737e-05
1.33302e-05
1.55225e-05
1.84469e-05
2.0079e-05
2.03568e-05
1.88849e-05
1.57145e-05
1.20944e-05
7.13337e-06
2.14273e-06
5.03623e-06
3.41636e-06
3.6102e-06
3.89064e-06
4.3667e-06
4.90235e-06
5.57775e-06
6.41426e-06
7.44083e-06
8.95854e-06
1.03084e-05
1.20112e-05
1.44972e-05
1.75481e-05
1.90139e-05
1.87296e-05
1.63643e-05
1.2864e-05
8.07764e-06
3.02646e-06
5.04436e-06
2.725e-06
2.92019e-06
3.4422e-06
4.09489e-06
4.79722e-06
5.48143e-06
6.24671e-06
7.07875e-06
8.08388e-06
9.05154e-06
1.03618e-05
1.22656e-05
1.47769e-05
1.7535e-05
1.8099e-05
1.68456e-05
1.35521e-05
8.94207e-06
3.62658e-06
6.09346e-06
2.23156e-06
2.53217e-06
3.23298e-06
4.09029e-06
5.00012e-06
5.8491e-06
6.63376e-06
7.46082e-06
8.28917e-06
9.0775e-06
9.92341e-06
1.13143e-05
1.34759e-05
1.62611e-05
1.80427e-05
1.72371e-05
1.4258e-05
9.58556e-06
3.83925e-06
1.09093e-05
2.12021e-06
2.66504e-06
3.59895e-06
4.61769e-06
5.63835e-06
6.60998e-06
7.39972e-06
8.17378e-06
8.91365e-06
9.59933e-06
1.02131e-05
1.09944e-05
1.23757e-05
1.47078e-05
1.73529e-05
1.72955e-05
1.51679e-05
1.02797e-05
3.92673e-06
1.23422e-06
0.000116557
0.00029418
0.000330906
0.00033481
0.000335356
0.000335357
0.000335342
0.000335343
0.000335345
0.000335345
0.000335343
0.000335342
0.000335357
0.000335356
0.00033481
0.000330906
0.00029418
0.000116557
1.23422e-06
1.36969e-06
6.81681e-05
0.000219587
0.000309505
0.000330909
0.000334527
0.000335273
0.000335315
0.000335296
0.000335287
0.000335287
0.000335296
0.000335315
0.000335273
0.000334527
0.000330909
0.000309505
0.000219588
6.81683e-05
1.36969e-06
1.51336e-06
5.28982e-05
0.000176465
0.000280583
0.00032215
0.000332504
0.000334604
0.0003351
0.000335168
0.000335172