/*--------------------------------*- C++ -*----------------------------------*\
| =========                 |                                                 |
| \\      /  F ield         | OpenFOAM: The Open Source CFD Toolbox           |
|  \\    /   O peration     | Version:  2.1.0                                 |
|   \\  /    A nd           | Web:      www.OpenFOAM.org                      |
|    \\/     M anipulation  |                                                 |
\*---------------------------------------------------------------------------*/
FoamFile
{
    version     2.0;
    format      ascii;
    class       volScalarField;
    location    "0.23";
    object      omega;
}
// * * * * * * * * * * * * * * * * * * * * * * * * * * * * * * * * * * * * * //

dimensions      [0 0 -1 0 0 0 0];

internalField   nonuniform List<scalar> 
6400
(
1571.58
1572.13
1571.88
1571.38
1570.59
1570
1569
1568.35
1567.27
1566.55
1565.43
1564.63
1563.49
1562.59
1561.44
1560.46
1559.29
1558.23
1557.06
1555.93
1554.75
1553.57
1552.37
1551.15
1549.93
1548.68
1547.43
1546.13
1544.85
1543.5
1542.18
1540.79
1539.41
1537.98
1536.54
1535.04
1533.53
1531.95
1530.33
1528.61
1526.83
1524.92
1522.9
1520.72
1518.4
1515.88
1513.16
1510.2
1507
1503.51
1499.64
1495.34
1490.84
1486.15
1481.19
1476.07
1470.65
1465.03
1459.11
1452.94
1446.54
1439.84
1432.85
1425.54
1417.9
1409.9
1401.46
1392.61
1383.29
1373.44
1363.06
1352.12
1340.63
1328.56
1315.95
1302.81
1289.17
1275.11
1260.66
1245.9
1230.81
1215.35
1199.4
1182.92
1165.36
1145.78
1124.29
1100.17
1071.93
1037.87
994.781
937.358
856.803
744.666
599.519
516.834
551.674
724.889
880.366
929.449
663.209
663.294
664.402
665.244
666.495
667.728
669.023
670.452
671.8
673.347
674.769
676.401
677.911
679.617
681.223
683.001
684.71
686.565
688.382
690.325
692.261
694.308
696.376
698.55
700.769
703.088
705.471
707.954
710.52
713.19
715.961
718.849
721.861
725.006
728.272
731.676
735.221
738.914
742.765
746.773
750.953
755.308
759.853
764.595
769.543
774.706
780.094
785.716
791.588
797.689
804.027
810.605
817.495
824.707
832.237
840.125
848.363
856.998
866.026
875.494
885.415
895.821
906.739
918.208
930.268
942.774
955.749
969.442
983.765
998.828
1014.64
1031.26
1048.74
1067.14
1086.53
1106.96
1128.53
1151.33
1175.49
1201.18
1228.11
1255.67
1284.66
1314.36
1344.72
1375.11
1405
1433.59
1460.03
1483.31
1501.44
1510.11
1512.19
1499.06
1463.4
1384.64
1272.43
1137.73
991.645
835.706
486.292
489.291
490.72
493.633
495.57
498.524
500.781
503.78
506.277
509.34
512.051
515.202
518.114
521.376
524.485
527.877
531.183
534.724
538.23
541.937
545.651
549.541
553.465
557.551
561.701
566.003
570.392
574.931
579.575
584.369
589.284
594.349
599.546
604.902
610.439
616.16
622.082
628.214
634.576
641.157
647.957
654.984
662.248
669.785
677.59
685.684
694.07
702.756
711.744
721.054
730.69
740.667
751.014
761.74
772.859
784.387
796.334
808.717
821.54
834.82
848.556
862.753
877.406
892.51
908.052
924.081
940.583
957.322
974.378
991.62
1009.05
1026.58
1044.2
1061.84
1079.5
1097.15
1114.78
1132.4
1150
1167.61
1185.24
1202.92
1220.68
1238.53
1256.39
1274.15
1291.65
1308.44
1323.95
1337.13
1344.39
1347
1340.95
1316.42
1270.42
1192.92
1085.6
944.861
783.768
618.349
444.549
449.386
451.521
455.765
458.462
462.674
465.773
469.987
473.42
477.684
481.412
485.771
489.775
494.268
498.538
503.197
507.732
512.586
517.388
522.456
527.526
532.825
538.166
543.712
549.331
555.143
561.054
567.152
573.371
579.774
586.317
593.047
599.935
607.013
614.249
621.671
629.26
637.031
644.968
653.102
661.434
669.977
678.721
687.636
696.733
705.996
715.425
725.011
734.746
744.626
754.639
764.781
775.047
785.43
795.921
806.512
817.187
827.937
838.746
849.597
860.476
871.356
882.222
893.034
903.766
914.444
925.007
935.442
945.713
955.784
965.633
975.204
984.44
993.336
1001.78
1009.78
1017.2
1024.02
1030.1
1035.38
1039.69
1042.88
1044.46
1045.02
1044.12
1040.65
1035.31
1026.98
1015.73
1000.61
981.142
956.284
924.788
885.005
834.871
772.12
698.287
618.079
544.439
491.66
440.618
446.523
449.084
454.191
457.399
462.445
466.106
471.12
475.143
480.17
484.499
489.58
494.177
499.345
504.185
509.463
514.528
519.933
525.208
530.752
536.225
541.916
547.581
553.423
559.269
565.264
571.282
577.429
583.611
589.907
596.243
602.674
609.148
615.7
622.292
628.948
635.634
642.374
649.133
655.929
662.732
669.548
676.357
683.169
689.964
696.742
703.489
710.203
716.873
723.499
730.065
736.564
742.976
749.286
755.476
761.545
767.471
773.222
778.78
784.092
789.158
793.908
798.343
802.396
806.056
809.267
812
814.212
815.865
816.757
817.119
817.137
815.931
814.36
811.647
808.332
803.884
798.632
792.223
784.862
776.323
766.751
756.025
744.415
731.701
718.222
703.808
688.65
672.613
655.715
637.727
618.54
597.624
574.415
548.037
519.163
488.419
460.588
441.125
431.422
438.736
444.414
446.851
451.722
454.726
459.501
462.876
467.554
471.195
475.8
479.641
484.198
488.195
492.724
496.842
501.357
505.568
510.077
514.359
518.865
523.203
527.708
532.091
536.595
541.007
545.505
549.924
554.401
558.804
563.269
567.684
572.127
576.51
580.893
585.203
589.485
593.673
597.808
601.832
605.77
609.568
613.254
616.773
620.147
623.325
626.323
629.092
631.643
633.927
635.948
637.661
639.066
640.12
640.739
641.007
641.067
640.713
639.943
638.85
637.249
635.329
632.882
630.087
626.796
623.127
619.008
614.498
609.584
604.286
598.622
592.609
586.269
579.615
572.708
565.499
558.1
550.451
542.692
534.77
526.888
519.009
511.286
503.705
496.375
489.26
482.299
475.48
468.819
462.27
455.747
449.181
442.423
435.374
427.895
419.92
412.14
405.449
402.417
401.758
402.187
417.325
421.713
423.572
427.294
429.509
433.139
435.561
439.069
441.615
445
447.616
450.882
453.532
456.682
459.333
462.367
464.992
467.906
470.482
473.263
475.769
478.405
480.806
483.286
485.553
487.851
489.915
491.976
493.803
495.647
497.281
498.875
500.234
501.506
502.523
503.413
504.028
504.42
504.583
504.612
504.26
503.73
502.855
501.773
500.344
498.689
496.686
494.449
491.865
489.046
485.895
482.523
478.849
474.991
470.901
466.647
462.15
457.553
452.783
447.956
443.047
438.128
433.21
428.347
423.545
418.856
414.292
409.906
405.701
401.706
397.928
394.375
391.038
387.944
385.099
382.532
380.228
378.248
376.507
375.118
374.006
373.217
372.731
372.511
372.446
372.6
372.951
373.367
373.88
374.365
374.873
375.33
375.843
376.491
377.751
380.065
382.869
388.091
391.635
392.634
376.037
378.874
380.028
382.303
383.51
385.647
386.822
388.769
389.856
391.585
392.546
394.038
394.843
396.082
396.701
397.642
398.097
398.693
398.967
399.169
399.225
399.185
398.853
398.492
397.813
397.097
396.042
394.952
393.521
392.011
390.124
388.161
385.834
383.433
380.689
377.881
374.769
371.607
368.185
364.732
361.053
357.379
353.527
349.717
345.783
341.932
338.017
334.229
330.439
326.82
323.271
319.907
316.692
313.7
310.889
308.329
305.977
303.906
302.062
300.517
299.216
298.221
297.489
297.124
296.976
296.97
297.449
298.005
298.953
300.026
301.425
302.978
304.807
306.818
309.072
311.527
314.202
317.088
320.182
323.484
326.942
330.603
334.369
338.313
342.319
346.448
350.597
354.809
359.004
363.218
367.41
371.629
375.9
380.313
384.954
390.307
396.365
403.433
408.188
409.89
315.366
315.834
315.946
316.011
315.947
315.799
315.401
315.034
314.303
313.675
312.614
311.7
310.318
309.106
307.41
305.896
303.905
302.089
299.826
297.716
295.215
292.834
290.112
287.504
284.601
281.818
278.819
275.936
272.891
269.975
266.965
264.092
261.189
258.434
255.716
253.15
250.668
248.353
246.171
244.168
242.337
240.7
239.264
238.034
237.027
236.233
235.682
235.408
235.304
235.337
235.806
236.331
237.228
238.209
239.501
240.911
242.585
244.398
246.443
248.64
251.045
253.612
256.372
259.3
262.409
265.697
269.166
272.805
276.631
280.632
284.827
289.21
293.793
298.58
303.577
308.793
314.231
319.905
325.819
331.98
338.387
345.061
351.98
359.166
366.591
374.267
382.16
390.269
398.55
406.985
415.537
424.193
432.935
441.797
450.818
460.208
470.414
481.882
492.754
498.134
237.048
234.82
233.873
231.946
230.804
228.823
227.51
225.491
224.05
222.014
220.486
218.458
216.886
214.895
213.318
211.396
209.855
208.033
206.569
204.881
203.532
202.012
200.815
199.496
198.488
197.402
196.616
195.79
195.257
194.693
194.404
194.173
194.089
194.078
194.291
194.571
195.048
195.604
196.352
197.178
198.19
199.281
200.549
201.898
203.416
205.016
206.776
208.621
210.615
212.699
214.932
217.251
219.716
222.264
224.956
227.734
230.656
233.669
236.826
240.083
243.485
246.997
250.658
254.441
258.379
262.452
266.686
271.071
275.627
280.35
285.259
290.355
295.653
301.161
306.891
312.856
319.067
325.541
332.282
339.321
346.663
354.339
362.358
370.759
379.554
388.788
398.49
408.705
419.477
430.86
442.917
455.725
469.374
483.974
499.637
516.459
534.359
552.755
567.646
574.302
255.601
253.96
253.23
251.707
250.728
249.101
247.894
246.148
244.739
242.873
241.292
239.326
237.605
235.571
233.745
231.677
229.791
227.725
225.825
223.801
221.938
219.998
218.221
216.407
214.766
213.118
211.658
210.217
208.979
207.784
206.808
205.891
205.203
204.591
204.218
203.986
203.902
203.899
204.195
204.548
205.157
205.835
206.732
207.716
208.893
210.168
211.615
213.165
214.872
216.682
218.639
220.698
222.897
225.199
227.641
230.183
232.871
235.659
238.59
241.624
244.806
248.097
251.54
255.101
258.819
262.666
266.676
270.829
275.151
279.633
284.293
289.131
294.155
299.375
304.798
310.438
316.301
322.406
328.756
335.377
342.273
349.472
356.982
364.835
373.04
381.634
390.629
400.061
409.976
420.418
431.435
443.09
455.461
468.656
482.794
498.046
514.518
531.881
546.595
553.344
331.019
332.335
332.821
333.684
334.091
334.721
335.006
335.345
335.471
335.523
335.354
335.13
334.591
334.093
333.199
332.399
331.158
330.039
328.46
327.015
325.109
323.343
321.125
319.052
316.549
314.192
311.45
308.839
305.892
303.084
299.992
297.048
293.884
290.878
287.754
284.801
281.795
278.971
276.167
273.547
271.005
268.676
266.459
264.466
262.621
261.009
259.568
258.363
257.342
256.554
255.957
255.615
255.459
255.426
255.7
256.096
256.778
257.571
258.626
259.798
261.212
262.756
264.522
266.432
268.542
270.808
273.256
275.865
278.638
281.572
284.658
287.897
291.293
294.851
298.55
302.415
306.411
310.575
314.866
319.324
323.909
328.656
333.532
338.545
343.679
348.953
354.363
359.916
365.607
371.437
377.43
383.622
390.031
396.759
403.967
411.99
421.331
432.051
443.419
449.317
383.853
387.135
388.487
391.158
392.637
395.187
396.71
399.094
400.623
402.851
404.367
406.425
407.877
409.752
411.096
412.77
413.969
415.422
416.442
417.653
418.461
419.408
419.971
420.613
420.927
421.161
421.233
421.215
420.874
420.49
419.781
419.008
417.908
416.725
415.213
413.613
411.7
409.641
407.277
404.789
402.02
399.151
396.048
392.884
389.529
386.133
382.603
379.067
375.439
371.848
368.203
364.635
361.049
357.574
354.122
350.8
347.54
344.433
341.451
338.655
336.026
333.589
331.35
329.325
327.525
325.966
324.636
323.569
322.726
322.138
321.806
321.666
321.646
321.96
322.342
323.011
323.723
324.672
325.664
326.841
328.059
329.413
330.812
332.399
334.081
335.937
337.92
340.055
342.361
344.829
347.485
350.312
353.282
356.482
360.061
364.241
369.274
375.97
380.496
382.078
418.479
423.069
425.016
428.903
431.237
435.028
437.598
441.269
443.997
447.581
450.443
453.951
456.9
460.338
463.339
466.709
469.732
473.031
476.048
479.27
482.255
485.391
488.319
491.353
494.202
497.113
499.859
502.623
505.227
507.818
510.244
512.627
514.836
516.974
518.891
520.701
522.277
523.811
525.09
526.258
527.151
527.881
528.28
528.459
528.491
528.138
527.549
526.662
525.485
524.039
522.278
520.266
517.937
515.371
512.496
509.396
506.007
502.412
498.557
494.531
490.279
485.904
481.377
476.72
471.974
467.157
462.309
457.45
452.615
447.825
443.103
438.479
433.984
429.63
425.444
421.458
417.653
414.037
410.529
407.219
404.005
400.963
397.972
395.02
392.12
389.248
386.382
383.514
380.645
377.774
374.939
372.172
369.699
367.204
365.477
364.702
364.636
368.346
371.189
372.022
432.993
438.581
440.979
445.767
448.737
453.44
456.793
461.419
465.056
469.633
473.493
478.048
482.085
486.638
490.818
495.381
499.678
504.261
508.653
513.259
517.728
522.358
526.886
531.536
536.111
540.777
545.389
550.067
554.7
559.378
564.015
568.676
573.295
577.922
582.497
587.062
591.562
596.073
600.505
604.911
609.221
613.469
617.598
621.637
625.532
629.293
632.89
636.32
639.555
642.597
645.415
648.013
650.361
652.462
654.285
655.834
657.076
658.016
658.561
658.801
658.841
658.302
657.596
656.462
655.087
653.272
651.158
648.599
645.709
642.374
638.691
634.573
630.086
625.165
619.846
614.094
607.943
601.389
594.456
587.137
579.416
571.319
562.779
553.833
544.452
534.636
524.351
513.592
502.308
490.464
477.92
464.803
451.103
437.233
422.756
409.169
396.982
389.605
386.22
384.599
431.053
436.603
439.01
443.793
446.809
451.539
454.986
459.688
463.473
468.186
472.257
477.027
481.355
486.217
490.784
495.766
500.555
505.667
510.664
515.917
521.113
526.517
531.904
537.464
543.035
548.752
554.503
560.379
566.299
572.331
578.414
584.598
590.839
597.17
603.558
610.027
616.552
623.149
629.795
636.502
643.249
650.047
656.873
663.739
670.622
677.531
684.445
691.363
698.266
705.147
712.005
718.836
725.63
732.385
739.09
745.745
752.336
758.858
765.289
771.627
777.842
783.916
789.852
795.631
801.231
806.609
811.751
816.607
821.164
825.366
829.199
832.601
835.551
837.984
839.861
840.927
841.372
841.413
840.05
838.066
834.638
830.181
824.072
816.49
806.971
795.523
781.857
765.862
747.362
726.226
702.321
675.321
644.885
611.456
574.609
536.059
496.682
460.584
433.9
416.953
434.455
438.882
440.841
444.725
447.192
451.035
453.865
457.707
460.84
464.727
468.127
472.092
475.732
479.807
483.674
487.882
491.975
496.349
500.672
505.233
509.794
514.563
519.37
524.363
529.421
534.649
539.964
545.441
551.024
556.768
562.634
568.665
574.837
581.181
587.684
594.356
601.192
608.206
615.393
622.763
630.312
638.048
645.965
654.066
662.343
670.822
679.515
688.425
697.567
706.956
716.536
726.312
736.274
746.418
756.733
767.216
777.849
788.631
799.546
810.593
821.763
833.054
844.464
855.988
867.616
879.336
891.134
902.988
914.876
926.754
938.67
950.593
962.524
974.417
986.265
998.01
1009.63
1021.03
1032.13
1042.84
1052.98
1062.43
1070.89
1078.12
1083.73
1086.52
1087.52
1085.74
1078.66
1067.43
1049.24
1024
989.002
943.612
885.139
813.504
729.083
636.38
552.814
487.119
476.512
479.148
480.418
483.024
484.758
487.409
489.427
492.116
494.348
497.091
499.51
502.326
504.921
507.829
510.595
513.613
516.55
519.695
522.806
526.093
529.382
532.825
536.298
539.91
543.575
547.372
551.234
555.225
559.299
563.499
567.797
572.221
576.752
581.408
586.174
591.103
596.175
601.418
606.827
612.423
618.211
624.207
630.425
636.883
643.603
650.577
657.805
665.304
673.073
681.117
689.484
698.188
707.241
716.655
726.435
736.612
747.185
758.181
769.611
781.5
793.867
806.74
820.149
834.112
848.649
863.779
879.515
895.873
912.868
930.52
948.825
967.574
986.896
1006.63
1026.8
1047.31
1068.11
1089.16
1110.4
1131.82
1153.39
1175.09
1196.88
1218.73
1240.55
1262.4
1284.06
1305.02
1324.53
1341.47
1351.19
1354.76
1347.69
1317.48
1266.98
1191.76
1090.08
962.108
803.235
629.303
652.488
652.393
653.283
653.971
655
656.047
657.122
658.348
659.478
660.809
662.01
663.416
664.7
666.17
667.542
669.074
670.539
672.136
673.694
675.362
677.015
678.76
680.512
682.345
684.206
686.143
688.124
690.187
692.31
694.515
696.796
699.165
701.625
704.187
706.863
709.634
712.521
715.519
718.643
721.894
725.285
728.82
732.51
736.36
740.38
744.573
748.95
753.521
758.294
763.285
768.509
773.976
779.703
785.705
792.006
798.594
805.502
812.739
820.323
828.269
836.583
845.282
854.456
864.111
874.276
884.991
896.271
908.159
920.677
933.858
947.601
962.186
977.549
993.81
1010.99
1029.17
1048.41
1068.81
1090.44
1113.4
1137.78
1163.68
1191.19
1220.37
1251.26
1282.9
1314.8
1345.33
1372.52
1393.87
1404.54
1408.03
1403.44
1388.57
1357.99
1303.04
1220.49
1114.47
994.284
846.256
1558.32
1558.78
1558.38
1557.87
1556.98
1556.36
1555.29
1554.6
1553.47
1552.71
1551.55
1550.71
1549.56
1548.63
1547.47
1546.45
1545.28
1544.19
1543
1541.83
1540.62
1539.39
1538.15
1536.88
1535.61
1534.31
1533.02
1531.68
1530.36
1528.99
1527.63
1526.22
1524.83
1523.39
1521.96
1520.49
1519.02
1517.51
1516.01
1514.47
1512.92
1511.35
1509.76
1508.13
1506.48
1504.77
1503.01
1501.19
1499.28
1497.29
1495.21
1493.03
1490.76
1488.39
1485.96
1483.43
1480.73
1477.86
1474.71
1471.25
1467.32
1462.89
1458.22
1453.27
1448.02
1442.58
1436.83
1430.77
1424.33
1417.48
1410.16
1402.25
1393.71
1384.57
1374.55
1363.63
1351.62
1338.58
1324.16
1308.44
1291.15
1272.22
1251.45
1228.65
1203.56
1175.71
1144.19
1107.68
1063.73
1008.73
937.224
847.2
748.078
645.621
565.75
519.495
544.453
714.405
881.595
935.404
854.441
321.644
175.615
119.189
94.8746
81.3987
73.6999
70.6748
69.5427
70.2869
76.0957
88.7495
109.924
145.376
198.405
267.808
350.539
452.595
561.915
594.452
684.494
327.032
218.336
153.959
120.928
102.347
91.5228
85.0538
82.5384
82.3722
91.7167
106.967
133.797
174.76
230.893
299.422
378.006
470.409
541.163
549.423
539.421
317.873
242.841
180.097
147.135
123.997
109.073
102.104
99.7806
101.672
113.061
133.111
164.613
209.476
265.289
327.601
395.077
470.094
507.076
501.69
442.897
305.165
256.568
197.345
169.92
143.541
130.549
124.133
122.036
123.96
142.671
166.642
203.453
249.525
300.722
355.907
416.189
458.873
467.995
456.785
388.535
300.718
266.375
213.806
190.636
165.328
154.377
149.273
148.052
161.16
184.696
211.745
249.734
289.816
332.786
377.249
415.059
432.359
419.34
416.468
360.155
299.616
272.817
229.296
210.849
194.287
188.966
187.891
198.26
215.562
238.304
263.699
295.858
326.796
359.589
387.898
402.096
393.599
362.874
381.929
350.463
309.603
291.624
264.663
255.154
251.164
250.32
256.426
266.744
281.682
298.712
318.189
339.714
357.449
372.9
379.903
374.753
339.624
298.339
354.943
378.099
363.066
357.771
347.842
343.605
339.212
337.853
339.235
344.237
350.558
357.223
364.177
367.945
369.204
368.485
358.567
327.71
275.324
232.67
338.158
487.65
474.439
467.133
449.455
441.208
428.768
422.68
414.422
410.072
402.821
396.977
388.257
377.673
365.335
348.185
313.175
267.607
210.177
173.026
331.176
558.588
538.196
529.117
507.357
496.935
478.735
468.573
451.873
440.561
423.836
409.813
390.556
370.225
341.756
302.908
256.228
206.864
157.304
132.369
331.205
540.569
521.955
513.897
494.212
484.872
469.152
460.503
446.684
437.122
423.397
411.234
395.069
377.251
352.405
316.053
268.016
215.323
158.431
128.617
329.325
443.106
434.728
431
417.593
411.631
404.204
400.74
398.256
396.752
395.848
393.194
389.877
382.313
372.506
359.627
329.094
281.432
217.253
176.645
328.85
350.059
331.943
325.156
316.855
313.792
312.433
312.801
319.81
326.62
338.134
348.588
360.544
369.789
374.223
375.527
369.369
342.554
288.201
241.441
332.875
332.629
292.478
274.571
247.575
237.723
233.495
232.971
240.974
253.56
269.85
289.79
311.795
336.371
359.253
378.697
387.512
387.072
354.081
310.889
346.681
343.787
285.193
259.34
217.807
200.276
184.808
179.603
178.5
189.961
208.614
231.942
259.697
292.183
325.061
361.182
394.299
410.854
407.243
376.537
376.928
372.43
287.199
253.793
203.83
181.779
158.543
148.555
144.057
143.103
157.674
181.097
209.924
248.601
288.912
332.541
378.406
422.075
443.219
431.119
416.101
427.836
292.71
244.96
188.43
162.02
137.682
125.886
120.369
118.799
122.454
141.221
166.088
203.752
250.08
301.662
357.319
418.733
466.902
480.117
461.796
529.509
307.023
232.779
173.028
141.136
119.13
105.469
99.3878
97.54
101.034
113.025
133.908
166.12
210.89
266.279
328.391
396.61
476.014
517.022
511.51
684.551
316.872
210.525
147.526
116.329
98.9451
88.3444
83.065
81.1079
82.1809
92.355
108.372
136.349
177.692
233.356
300.904
378.652
472.106
549.793
561.638
860.408
312.304
170.274
115.513
91.7855
79.2194
71.9474
69.0649
68.2054
70.3543
77.1354
90.443
112.567
148.727
201.341
269.807
351.232
452.935
567.549
606.95
646.056
32.1748
12.7364
11.3229
11.19
11.171
11.1705
11.1708
11.1706
11.1705
11.1705
11.1706
11.1708
11.1705
11.171
11.19
11.3229
12.7364
32.1747
646.056
672.734
55.0619
17.0383
12.0869
11.3039
11.1803
11.1547
11.1529
11.1534
11.1536
11.1536
11.1534
11.1529
11.1547
11.1803
11.3039
12.0869
17.0383
55.0617
672.734
698.449
71.091
21.1536
13.3031
11.5873
11.2261
11.1552
11.1382
11.1358
11.1355
11.1355
11.1358
11.1382
11.1552
11.2261
11.5873
13.3031
21.1536
71.0908
698.449
723.149
85.858
25.1384
14.6465
12.0432
11.3371
11.1684
11.1265
11.1183
11.1171
11.1171
11.1183
11.1265
11.1684
11.3371
12.0432
14.6465
25.1383
85.8579
723.149
746.747
101.87
29.2072
16.0661
12.5885
11.5234
11.2064
11.1273
11.105
11.1003
11.1003
11.105
11.1273
11.2064
11.5234
12.5885
16.0661
29.2072
101.87
746.747
769.297
118.423
33.365
17.54
13.1969
11.7623
11.2829
11.1366
11.0944
11.0843
11.0843
11.0944
11.1366
11.2829
11.7623
13.1969
17.54
33.365
118.424
769.297
790.723
134.962
37.5662
19.0506
13.85
12.043
11.3871
11.16
11.0918
11.0718
11.0718
11.0918
11.16
11.3871
12.043
13.85
19.0506
37.5662
134.962
790.723
810.993
151.259
41.7816
20.5855
14.5353
12.3571
11.5178
11.2031
11.0955
11.0625
11.0625
11.0955
11.2031
11.5178
12.3571
14.5353
20.5855
41.7817
151.259
810.993
829.961
167.085
45.9708
22.1309
15.2425
12.697
11.6708
11.2604
11.1065
11.0594
11.0594
11.1065
11.2604
11.6708
12.697
15.2425
22.1309
45.9709
167.085
829.961
847.646
182.397
50.1201
23.6795
15.9647
13.0568
11.8431
11.3324
11.1291
11.0619
11.0619
11.1291
11.3324
11.8431
13.0568
15.9647
23.6796
50.1202
182.397
847.646
863.985
197.089
54.2087
25.2242
16.6965
13.432
12.0315
11.4179
11.1609
11.0697
11.0697
11.1609
11.4179
12.0315
13.432
16.6966
25.2242
54.2089
197.09
863.985
879.016
211.157
58.2319
26.7617
17.4346
13.8192
12.2335
11.5156
11.2021
11.0862
11.0862
11.2021
11.5156
12.2335
13.8192
17.4346
26.7617
58.2321
211.157
879.016
892.668
224.496
62.1665
28.2848
18.1746
14.215
12.4467
11.6242
11.2528
11.1113
11.1113
11.2528
11.6242
12.4467
14.215
18.1747
28.2849
62.1667
224.496
892.668
905.026
237.12
66.0096
29.791
18.9142
14.617
12.6691
11.7427
11.3126
11.1446
11.1446
11.3126
11.7427
12.6691
14.617
18.9143
29.7911
66.0098
237.12
905.025
916.065
248.968
69.7451
31.2752
19.6506
15.023
12.899
11.8698
11.381
11.1861
11.1861
11.381
11.8698
12.899
15.023
19.6506
31.2753
69.7453
248.968
916.064
925.904
260.088
73.3772
32.7375
20.3828
15.4318
13.1351
12.0048
11.4575
11.2356
11.2356
11.4575
12.0048
13.1351
15.4318
20.3828
32.7376
73.3774
260.088
925.904
934.514
270.424
76.8908
34.1734
21.1087
15.8417
13.3761
12.1465
11.5417
11.293
11.293
11.5417
12.1466
13.3761
15.8417
21.1088
34.1734
76.8909
270.424
934.513
942.038
280.038
80.2895
35.5826
21.8276
16.2519
13.6211
12.2944
11.6331
11.3579
11.3579
11.6331
12.2944
13.6211
16.2519
21.8277
35.5826
80.2896
280.037
942.037
948.451
288.886
83.5607
36.9609
22.5375
16.661
13.8691
12.4475
11.7309
11.4299
11.4299
11.7309
12.4475
13.8691
16.661
22.5375
36.9609
83.5607
288.886
948.45
953.925
297.051
86.712
38.3096
23.2383
17.0685
14.1194
12.6053
11.8348
11.5085
11.5085
11.8348
12.6053
14.1194
17.0685
23.2383
38.3096
86.712
297.051
953.924
958.417
304.505
89.734
39.6249
23.9283
17.4734
14.3712
12.7671
11.9442
11.5934
11.5934
11.9442
12.7671
14.3712
17.4735
23.9283
39.625
89.7341
304.504
958.416
962.121
311.328
92.6354
40.9091
24.6079
17.8756
14.6241
12.9325
12.0587
11.684
11.684
12.0587
12.9325
14.6241
17.8757
24.608
40.9092
92.6354
311.327
962.12
964.967
317.505
95.4081
42.1582
25.2756
18.2742
14.8776
13.1009
12.1777
11.78
11.78
12.1777
13.1009
14.8776
18.2742
25.2756
42.1582
95.4082
317.505
964.966
967.18
323.106
98.0617
43.3749
25.9318
18.669
15.1313
13.2719
12.3009
11.8809
11.8809
12.3009
13.2719
15.1313
18.669
25.9318
43.375
98.0617
323.105
967.179
968.649
328.144
100.59
44.5556
26.575
19.0593
15.3846
13.445
12.4277
11.9862
11.9862
12.4277
13.445
15.3846
19.0593
26.575
44.5557
100.59
328.145
968.648
969.635
332.657
103.004
45.7041
27.2062
19.4452
15.6374
13.62
12.5579
12.0955
12.0955
12.5579
13.62
15.6374
19.4452
27.2063
45.7041
103.004
332.656
969.634
969.97
336.702
105.3
46.8163
27.824
19.826
15.8892
13.7964
12.691
12.2085
12.2085
12.691
13.7964
15.8892
19.826
27.824
46.8163
105.3
336.701
969.969
969.834
340.244
107.488
47.8972
28.4295
20.2021
16.14
13.974
12.8267
12.3248
12.3248
12.8267
13.974
16.14
20.2021
28.4295
47.8971
107.487
340.244
969.833
969.425
343.4
109.562
48.9419
29.0212
20.5725
16.3892
14.1525
12.9646
12.4441
12.4441
12.9646
14.1525
16.3892
20.5726
29.0212
48.9419
109.561
343.399
969.424
968.579
346.145
111.538
49.9563
29.6005
20.9378
16.6369
14.3316
13.1045
12.5659
12.5659
13.1045
14.3316
16.6369
20.9378
29.6005
49.9562
111.538
346.144
968.578
967.379
348.53
113.407
50.9358
30.1661
21.2973
16.8828
14.5111
13.2461
12.69
12.69
13.2461
14.511
16.8828
21.2973
30.166
50.9357
113.406
348.529
967.378
965.891
350.555
115.187
51.8867
30.7194
21.6514
17.1267
14.6907
13.389
12.8161
12.8161
13.389
14.6907
17.1267
21.6514
30.7193
51.8865
115.186
350.553
965.891
964.156
352.262
116.865
52.8034
31.2589
21.9996
17.3685
14.8702
13.5331
12.944
12.944
13.5331
14.8702
17.3684
21.9995
31.2588
52.8032
116.864
352.262
964.155
962.205
353.663
118.464
53.6937
31.7866
22.3422
17.608
15.0495
13.6782
13.0733
13.0733
13.6782
15.0495
17.608
22.3421
31.7865
53.6934
118.463
353.661
962.204
960.074
354.763
119.966
54.5515
32.3009
22.6788
17.8451
15.2284
13.8239
13.2039
13.2039
13.8239
15.2283
17.8451
22.6787
32.3007
54.5512
119.965
354.762
960.074
957.789
355.617
121.397
55.3843
32.8035
23.0098
18.0798
15.4067
13.9702
13.3355
13.3355
13.9702
15.4066
18.0798
23.0097
32.8033
55.384
121.396
355.616
957.789
955.382
356.172
122.738
56.187
33.2934
23.3348
18.3119
15.5842
14.1168
13.468
13.468
14.1168
15.5842
18.3118
23.3347
33.2932
56.1866
122.737
356.171
955.383
952.87
356.56
124.014
56.9663
33.772
23.6542
18.5414
15.761
14.2636
13.601
13.601
14.2635
15.7609
18.5413
23.6541
33.7718
56.966
124.013
356.559
952.87
950.287
356.612
125.206
57.7178
34.2384
23.9678
18.7681
15.9367
14.4103
13.7346
13.7346
14.4103
15.9367
18.7681
23.9677
34.2382
57.7174
125.205
356.612
950.288
947.635
356.52
126.338
58.4478
34.6941
24.2758
18.9922
16.1114
14.557
13.8684
13.8684
14.5569
16.1113
18.9921
24.2757
34.6939
58.4475
126.338
356.52
947.636
944.959
356.291
127.395
59.1524
35.1385
24.5781
19.2134
16.2848
14.7033
14.0024
14.0024
14.7033
16.2848
19.2134
24.578
35.1383
59.152
127.394
356.291
944.96
942.243
355.824
128.401
59.8372
35.5725
24.8749
19.4318
16.4571
14.8493
14.1364
14.1364
14.8493
16.457
19.4318
24.8748
35.5724
59.837
128.401
355.823
942.244
939.541
355.238
129.339
60.5004
35.9964
25.1663
19.6474
16.628
14.9948
14.2703
14.2703
14.9948
16.6279
19.6474
25.1662
35.9962
60.5
129.338
355.239
939.542
936.82
354.511
130.245
61.1463
36.4104
25.4524
19.8602
16.7974
15.1397
14.404
14.404
15.1397
16.7974
19.8602
25.4524
36.4104
61.1464
130.245
354.51
936.822
934.148
353.718
131.104
61.776
36.8152
25.7334
20.0701
16.9654
15.2839
14.5373
14.5373
15.2839
16.9654
20.0701
25.7333
36.8151
61.7755
131.103
353.72
934.149
931.466
352.875
131.977
62.3956
37.2112
26.0093
20.2772
17.1319
15.4273
14.6702
14.6702
15.4273
17.1319
20.2772
26.0093
37.2113
62.3959
131.979
352.876
931.467
928.863
352.019
132.876
63.015
37.6003
26.2805
20.4815
17.2968
15.5698
14.8025
14.8025
15.5698
17.2968
20.4815
26.2805
37.6001
63.0144
132.875
352.02
928.864
926.334
351.165
133.814
63.6345
37.982
26.547
20.6831
17.4602
15.7115
14.9343
14.9343
15.7115
17.4602
20.6831
26.547
37.9821
63.6348
133.816
351.165
926.335
923.876
350.42
134.845
64.2651
38.3588
26.8092
20.8819
17.6219
15.8522
15.0654
15.0654
15.8522
17.6219
20.8819
26.8092
38.3588
64.2649
134.844
350.422
923.877
921.486
349.755
135.964
64.907
38.7313
27.0673
21.078
17.7819
15.9918
15.1957
15.1957
15.9918
17.7819
21.078
27.0673
38.7314
64.9073
135.965
349.756
921.487
919.161
349.288
137.194
65.5658
39.1013
27.3218
21.2716
17.9403
16.1303
15.3252
15.3252
16.1303
17.9403
21.2716
27.3218
39.1012
65.5656
137.193
349.29
919.162
916.899
348.938
138.52
66.2405
39.4692
27.5729
21.4627
18.0971
16.2678
15.4539
15.4539
16.2678
18.0971
21.4627
27.573
39.4694
66.2409
138.521
348.939
916.9
914.701
348.843
139.939
66.9327
39.8366
27.8212
21.6514
18.2522
16.404
15.5816
15.5816
16.404
18.2522
21.6514
27.8213
39.8367
66.9332
139.94
348.846
914.701
912.564
348.907
141.447
67.6426
40.2038
28.0668
21.8378
18.4056
16.5391
15.7084
15.7084
16.5391
18.4057
21.8379
28.067
40.2042
67.6431
141.447
348.909
912.564
910.491
349.087
143.016
68.3676
40.5717
28.3102
22.0221
18.5574
16.673
15.8342
15.8342
16.673
18.5575
22.0222
28.3102
40.5717
68.3676
143.017
349.089
910.491
908.479
349.453
144.653
69.1096
40.9405
28.5514
22.2043
18.7076
16.8056
15.9589
15.9589
16.8057
18.7077
22.2044
28.5516
40.941
69.1107
144.655
349.459
908.478
906.53
349.968
146.335
69.8675
41.3117
28.7912
22.3846
18.8562
16.937
16.0826
16.0826
16.9371
18.8563
22.3847
28.7915
41.3122
69.8687
146.338
349.971
906.529
904.644
350.6
148.05
70.6381
41.6847
29.0296
22.5631
19.0034
17.0672
16.2052
16.2052
17.0673
19.0035
22.5634
29.0301
41.6857
70.6402
148.054
350.607
904.641
902.82
351.334
149.785
71.419
42.0595
29.2668
22.7399
19.149
17.1961
16.3266
16.3267
17.1962
19.1492
22.7402
29.2672
42.0602
71.42
149.786
351.341
902.818
901.059
352.156
151.532
72.209
42.436
29.5026
22.915
19.293
17.3237
16.447
16.447
17.3238
19.2933
22.9154
29.5034
42.4373
72.212
151.539
352.167
901.055
899.362
353.045
153.294
73.0088
42.8143
29.7375
23.0885
19.4356
17.45
16.5662
16.5662
17.4502
19.436
23.0891
29.7386
42.8165
73.0133
153.301
353.06
899.358
897.727
353.995
155.054
73.8182
43.1961
29.9721
23.2607
19.5769
17.5752
16.6842
16.6843
17.5754
19.5773
23.2615
29.9734
43.1986
73.8232
155.064
354.014
897.719
896.154
354.985
156.805
74.6328
43.5796
30.2059
23.4316
19.7167
17.699
16.8011
16.8012
17.6994
19.7174
23.4327
30.2077
43.5827
74.6385
156.815
355.009
896.145
894.643
355.995
158.523
75.4443
43.9629
30.4386
23.601
19.8552
17.8216
16.9169
16.917
17.8221
19.8561
23.6026
30.4415
43.9687
75.4572
158.548
356.034
894.628
893.194
357.04
160.239
76.2639
44.3488
30.6709
23.7691
19.9923
17.9429
17.0314
17.0316
17.9436
19.9934
23.771
30.6739
44.3541
76.274
160.257
357.083
893.176