/*--------------------------------*- C++ -*----------------------------------*\
| =========                 |                                                 |
| \\      /  F ield         | OpenFOAM: The Open Source CFD Toolbox           |
|  \\    /   O peration     | Version:  2.1.0                                 |
|   \\  /    A nd           | Web:      www.OpenFOAM.org                      |
|    \\/     M anipulation  |                                                 |
\*---------------------------------------------------------------------------*/
FoamFile
{
    version     2.0;
    format      ascii;
    class       volScalarField;
    location    "0.23";
    object      p;
}
// * * * * * * * * * * * * * * * * * * * * * * * * * * * * * * * * * * * * * //

dimensions      [1 -1 -2 0 0 0 0];

internalField   nonuniform List<scalar> 
6400
(
99998.4
99995.7
99993.9
99992.2
99990.8
99989.4
99988
99986.5
99985.1
99983.5
99982
99980.4
99978.7
99976.9
99975.1
99973.2
99971.3
99969.3
99967.2
99965.1
99962.8
99960.5
99958.2
99955.7
99953.2
99950.6
99947.9
99945.2
99942.3
99939.4
99936.4
99933.2
99930
99926.7
99923.3
99919.9
99916.3
99912.5
99908.7
99904.8
99900.8
99896.6
99892.3
99887.9
99883.3
99878.6
99873.8
99868.7
99863.6
99858.2
99852.7
99847
99841.1
99835.1
99828.8
99822.4
99815.7
99808.8
99801.7
99794.3
99786.7
99778.7
99770.5
99762
99753.2
99744
99734.5
99724.7
99714.4
99703.9
99692.9
99681.5
99669.8
99657.6
99645
99632
99618.5
99604.5
99590.1
99575.1
99559.5
99543.2
99526
99507.9
99488.7
99468
99445.5
99420.9
99393.6
99363.4
99330.3
99295.1
99260.1
99226.7
99195.7
99159.3
99102.9
98989
98621.9
97031.6
99996.8
99995.1
99993.4
99991.9
99990.4
99989
99987.6
99986.2
99984.7
99983.2
99981.6
99980
99978.3
99976.6
99974.7
99972.9
99970.9
99968.9
99966.8
99964.7
99962.4
99960.1
99957.8
99955.3
99952.8
99950.2
99947.5
99944.7
99941.9
99938.9
99935.9
99932.8
99929.6
99926.3
99922.9
99919.4
99915.8
99912.1
99908.2
99904.3
99900.3
99896.1
99891.8
99887.4
99882.8
99878.1
99873.3
99868.2
99863.1
99857.7
99852.3
99846.6
99840.7
99834.7
99828.5
99822
99815.4
99808.5
99801.4
99794
99786.4
99778.5
99770.3
99761.8
99753
99743.9
99734.4
99724.6
99714.5
99703.9
99693
99681.7
99670
99657.8
99645.3
99632.3
99618.8
99604.9
99590.4
99575.4
99559.8
99543.4
99526.3
99508.2
99488.8
99468.1
99445.6
99421
99393.9
99363.9
99331
99296.1
99261
99227.9
99198.6
99167.5
99117.6
99018.7
98721.6
98174.5
99995.3
99994.3
99993
99991.5
99990.2
99988.8
99987.4
99986
99984.5
99983
99981.5
99979.8
99978.1
99976.4
99974.6
99972.7
99970.8
99968.7
99966.7
99964.5
99962.3
99960
99957.6
99955.2
99952.6
99950
99947.3
99944.6
99941.7
99938.8
99935.8
99932.7
99929.5
99926.2
99922.8
99919.3
99915.7
99912
99908.2
99904.3
99900.2
99896.1
99891.8
99887.4
99882.9
99878.2
99873.4
99868.4
99863.3
99858
99852.5
99846.9
99841.1
99835.1
99828.9
99822.5
99815.9
99809.1
99802
99794.7
99787.1
99779.2
99771.1
99762.7
99753.9
99744.9
99735.5
99725.7
99715.7
99705.2
99694.4
99683.1
99671.5
99659.5
99647
99634.1
99620.8
99606.9
99592.5
99577.6
99562
99545.7
99528.6
99510.4
99491.1
99470.4
99447.9
99423.5
99396.6
99367.2
99335.3
99302.1
99269.6
99239.6
99213.8
99186.7
99152.3
99092
98938.4
99030.2
99993.5
99993.5
99992.6
99991.4
99990.1
99988.8
99987.5
99986.1
99984.6
99983.1
99981.6
99980
99978.3
99976.5
99974.7
99972.9
99970.9
99968.9
99966.9
99964.7
99962.5
99960.2
99957.9
99955.5
99952.9
99950.4
99947.7
99944.9
99942.1
99939.2
99936.2
99933.1
99929.9
99926.6
99923.2
99919.8
99916.2
99912.5
99908.7
99904.8
99900.8
99896.7
99892.5
99888.1
99883.6
99878.9
99874.2
99869.3
99864.2
99858.9
99853.5
99847.9
99842.2
99836.2
99830.1
99823.7
99817.2
99810.4
99803.4
99796.1
99788.6
99780.8
99772.7
99764.3
99755.6
99746.6
99737.3
99727.6
99717.5
99707.1
99696.3
99685.1
99673.5
99661.4
99648.9
99636
99622.6
99608.6
99594.1
99579
99563.3
99546.8
99529.4
99511.1
99491.6
99470.6
99448.1
99423.6
99397.1
99368.4
99338.2
99307.6
99279.3
99254.5
99236.3
99223.4
99218.9
99224.8
99252.9
99672.3
99991.5
99992.5
99992.2
99991.3
99990.2
99989
99987.7
99986.4
99985
99983.5
99982
99980.4
99978.7
99977
99975.2
99973.3
99971.4
99969.4
99967.4
99965.3
99963.1
99960.9
99958.5
99956.1
99953.6
99951
99948.4
99945.7
99942.8
99939.9
99937
99933.9
99930.7
99927.5
99924.1
99920.7
99917.1
99913.5
99909.7
99905.8
99901.8
99897.7
99893.5
99889.1
99884.7
99880
99875.3
99870.4
99865.3
99860.1
99854.7
99849.1
99843.3
99837.4
99831.3
99824.9
99818.4
99811.6
99804.6
99797.3
99789.8
99782
99773.9
99765.5
99756.8
99747.8
99738.4
99728.7
99718.6
99708.2
99697.3
99686.1
99674.4
99662.3
99649.7
99636.6
99623.1
99609
99594.4
99579.1
99563.1
99546.4
99528.7
99510.1
99490.3
99469.2
99446.5
99422.1
99396.1
99368.6
99340.4
99313.3
99290.6
99273.1
99264.9
99275.5
99313.5
99406.3
99604.9
100178
99989.5
99991.6
99991.9
99991.3
99990.5
99989.4
99988.2
99986.9
99985.5
99984.1
99982.6
99981
99979.3
99977.6
99975.8
99974
99972.1
99970.1
99968.1
99966
99963.8
99961.6
99959.2
99956.8
99954.4
99951.8
99949.2
99946.4
99943.6
99940.8
99937.8
99934.7
99931.6
99928.3
99925
99921.5
99918
99914.3
99910.5
99906.6
99902.6
99898.5
99894.3
99889.9
99885.4
99880.8
99876
99871.1
99866
99860.7
99855.3
99849.7
99843.9
99838
99831.8
99825.5
99818.9
99812.1
99805.1
99797.8
99790.3
99782.5
99774.4
99766
99757.3
99748.2
99738.9
99729.1
99719
99708.6
99697.7
99686.4
99674.7
99662.5
99649.8
99636.7
99623
99608.8
99593.9
99578.4
99562.2
99545.1
99527.2
99508.2
99488.1
99466.7
99443.9
99419.7
99394.3
99368
99342.2
99318.8
99302.1
99293.2
99299.4
99337.1
99424.3
99609.1
99943.1
100575
99987.8
99990.8
99991.5
99991.3
99990.7
99989.8
99988.6
99987.4
99986
99984.6
99983.1
99981.5
99979.9
99978.2
99976.4
99974.6
99972.7
99970.7
99968.6
99966.5
99964.4
99962.1
99959.8
99957.4
99954.9
99952.3
99949.7
99946.9
99944.1
99941.2
99938.2
99935.2
99932
99928.7
99925.4
99921.9
99918.3
99914.6
99910.9
99907
99902.9
99898.8
99894.5
99890.1
99885.6
99880.9
99876.1
99871.2
99866.1
99860.8
99855.4
99849.8
99844
99838
99831.9
99825.5
99818.9
99812.1
99805.1
99797.8
99790.3
99782.5
99774.4
99766
99757.3
99748.3
99738.9
99729.2
99719.1
99708.6
99697.7
99686.4
99674.7
99662.4
99649.7
99636.5
99622.7
99608.3
99593.2
99577.5
99561
99543.6
99525.3
99506
99485.5
99463.9
99441
99416.9
99392
99367
99343.4
99323.6
99312.3
99312.5
99333.7
99399
99535.3
99803.6
100234
100876
99986.5
99990
99991.2
99991.2
99990.8
99989.9
99988.9
99987.6
99986.3
99984.9
99983.4
99981.8
99980.1
99978.4
99976.6
99974.8
99972.9
99970.9
99968.9
99966.7
99964.5
99962.3
99959.9
99957.5
99955.1
99952.5
99949.8
99947.1
99944.2
99941.3
99938.3
99935.2
99932
99928.7
99925.4
99921.9
99918.3
99914.6
99910.8
99906.9
99902.8
99898.7
99894.4
99890
99885.4
99880.8
99875.9
99871
99865.9
99860.6
99855.2
99849.6
99843.8
99837.8
99831.6
99825.3
99818.7
99812
99804.9
99797.7
99790.2
99782.4
99774.4
99766
99757.3
99748.3
99739
99729.3
99719.2
99708.8
99697.9
99686.5
99674.8
99662.5
99649.7
99636.3
99622.4
99607.8
99592.6
99576.6
99559.7
99542
99523.4
99503.7
99482.9
99460.9
99437.8
99413.9
99389.4
99365.5
99343.7
99327
99320.1
99328.6
99364.4
99452.8
99631.2
99965.7
100458
101090
99985.7
99989.5
99990.8
99991.1
99990.7
99989.9
99988.9
99987.7
99986.3
99984.9
99983.4
99981.8
99980.1
99978.4
99976.6
99974.7
99972.8
99970.8
99968.8
99966.6
99964.4
99962.1
99959.8
99957.4
99954.9
99952.3
99949.6
99946.8
99944
99941
99938
99934.9
99931.7
99928.4
99925
99921.5
99917.9
99914.2
99910.4
99906.5
99902.4
99898.3
99894
99889.6
99885.1
99880.4
99875.6
99870.7
99865.6
99860.3
99854.9
99849.3
99843.6
99837.6
99831.5
99825.2
99818.6
99811.9
99804.9
99797.7
99790.2
99782.5
99774.5
99766.2
99757.5
99748.6
99739.3
99729.6
99719.5
99709.1
99698.2
99686.9
99675.1
99662.7
99649.8
99636.4
99622.3
99607.5
99592.1
99575.8
99558.6
99540.6
99521.6
99501.5
99480.3
99458
99434.7
99410.7
99386.6
99363.4
99343
99328.5
99324.7
99339.2
99385.9
99491.1
99699.6
100079
100606
101225
99985.5
99989.2
99990.6
99990.9
99990.6
99989.8
99988.8
99987.6
99986.2
99984.8
99983.2
99981.6
99979.9
99978.2
99976.4
99974.5
99972.5
99970.5
99968.4
99966.2
99964
99961.7
99959.3
99956.9
99954.4
99951.8
99949.1
99946.3
99943.5
99940.6
99937.6
99934.5
99931.3
99928
99924.6
99921.1
99917.6
99913.9
99910.1
99906.2
99902.2
99898
99893.8
99889.4
99884.9
99880.2
99875.4
99870.5
99865.4
99860.2
99854.8
99849.2
99843.5
99837.6
99831.5
99825.2
99818.7
99812
99805.1
99797.9
99790.4
99782.7
99774.8
99766.5
99757.9
99749
99739.7
99730.1
99720.1
99709.6
99698.7
99687.4
99675.5
99663.1
99650.2
99636.6
99622.4
99607.5
99591.8
99575.2
99557.8
99539.4
99520
99499.5
99477.8
99455.3
99431.7
99407.6
99383.6
99360.9
99341.3
99328
99325.9
99343.5
99395.8
99510
99733.3
100135
100678
101291
99985.5
99989.3
99990.7
99991
99990.6
99989.9
99988.8
99987.6
99986.3
99984.8
99983.3
99981.7
99980
99978.2
99976.4
99974.5
99972.6
99970.5
99968.5
99966.3
99964.1
99961.8
99959.4
99957
99954.4
99951.8
99949.2
99946.4
99943.6
99940.6
99937.6
99934.5
99931.3
99928
99924.7
99921.2
99917.6
99913.9
99910.1
99906.2
99902.2
99898
99893.8
99889.4
99884.9
99880.2
99875.5
99870.5
99865.5
99860.3
99854.9
99849.3
99843.6
99837.8
99831.7
99825.4
99818.9
99812.2
99805.3
99798.1
99790.7
99783.1
99775.1
99766.9
99758.3
99749.5
99740.2
99730.6
99720.6
99710.2
99699.3
99688
99676.1
99663.7
99650.6
99637
99622.6
99607.5
99591.6
99574.8
99557.1
99538.4
99518.6
99497.7
99475.7
99452.7
99428.7
99404.4
99380.2
99357.5
99338.1
99325.1
99323.3
99341
99393.4
99507.3
99729.4
100129
100670
101283
99985.9
99989.7
99991
99991.2
99990.7
99989.9
99988.9
99987.7
99986.3
99984.9
99983.4
99981.8
99980.1
99978.4
99976.6
99974.7
99972.8
99970.8
99968.7
99966.6
99964.3
99962.1
99959.7
99957.3
99954.8
99952.2
99949.5
99946.8
99943.9
99941
99938
99934.9
99931.7
99928.4
99925
99921.5
99917.9
99914.2
99910.4
99906.5
99902.5
99898.3
99894
99889.6
99885.1
99880.5
99875.7
99870.8
99865.7
99860.5
99855.1
99849.6
99843.9
99838
99831.9
99825.7
99819.2
99812.5
99805.6
99798.5
99791.1
99783.5
99775.6
99767.4
99758.9
99750
99740.8
99731.3
99721.3
99710.9
99700
99688.6
99676.7
99664.3
99651.2
99637.4
99622.9
99607.6
99591.5
99574.5
99556.4
99537.4
99517.3
99496
99473.6
99450.1
99425.7
99400.9
99376.4
99353.3
99333.4
99319.7
99316.6
99331.7
99378.9
99483.1
99687.8
100062
100585
101204
99986.9
99990.3
99991.3
99991.3
99990.8
99989.9
99988.8
99987.6
99986.2
99984.8
99983.3
99981.7
99980
99978.3
99976.5
99974.6
99972.7
99970.7
99968.7
99966.6
99964.4
99962.1
99959.8
99957.3
99954.8
99952.3
99949.6
99946.9
99944
99941.1
99938.1
99935
99931.9
99928.6
99925.2
99921.7
99918.1
99914.4
99910.6
99906.7
99902.7
99898.6
99894.3
99889.9
99885.4
99880.8
99876
99871.1
99866
99860.8
99855.4
99849.9
99844.2
99838.3
99832.3
99826
99819.6
99812.9
99806.1
99799
99791.6
99784
99776.1
99768
99759.5
99750.7
99741.5
99732
99722
99711.6
99700.8
99689.4
99677.5
99664.9
99651.8
99637.9
99623.3
99607.9
99591.5
99574.3
99556
99536.6
99516.1
99494.5
99471.6
99447.7
99422.9
99397.5
99372.5
99348.7
99327.7
99312.5
99306.7
99316.7
99354
99440.1
99612.7
99938.8
100425
101057
99988.3
99991.1
99991.7
99991.5
99990.7
99989.7
99988.6
99987.3
99985.9
99984.5
99982.9
99981.4
99979.7
99978
99976.2
99974.3
99972.4
99970.5
99968.4
99966.3
99964.1
99961.8
99959.5
99957.1
99954.6
99952
99949.4
99946.7
99943.8
99940.9
99937.9
99934.9
99931.7
99928.4
99925
99921.6
99918
99914.3
99910.6
99906.7
99902.7
99898.5
99894.3
99889.9
99885.4
99880.8
99876.1
99871.2
99866.1
99860.9
99855.6
99850.1
99844.4
99838.6
99832.6
99826.4
99819.9
99813.3
99806.5
99799.4
99792.1
99784.5
99776.7
99768.5
99760.1
99751.3
99742.2
99732.7
99722.8
99712.4
99701.5
99690.2
99678.2
99665.7
99652.5
99638.5
99623.8
99608.3
99591.8
99574.3
99555.8
99536.1
99515.3
99493.3
99470
99445.6
99420.2
99394.3
99368.4
99343.7
99321.6
99303.9
99294.4
99297.4
99321.6
99383.2
99512.4
99770.2
100192
100832
99990.2
99992
99992.1
99991.5
99990.5
99989.4
99988.2
99986.8
99985.4
99984
99982.4
99980.8
99979.1
99977.4
99975.6
99973.8
99971.9
99969.9
99967.8
99965.7
99963.5
99961.2
99958.9
99956.5
99954
99951.5
99948.8
99946.1
99943.3
99940.4
99937.4
99934.3
99931.1
99927.9
99924.5
99921.1
99917.5
99913.9
99910.1
99906.2
99902.2
99898.1
99893.9
99889.6
99885.1
99880.5
99875.8
99870.9
99865.9
99860.7
99855.4
99849.9
99844.3
99838.5
99832.5
99826.4
99820
99813.4
99806.6
99799.6
99792.3
99784.8
99777
99768.9
99760.5
99751.8
99742.7
99733.2
99723.3
99713
99702.2
99690.8
99678.9
99666.3
99653.1
99639.1
99624.3
99608.6
99592
99574.4
99555.6
99535.8
99514.7
99492.3
99468.7
99443.8
99417.9
99391.2
99364.4
99338.5
99314.7
99294.8
99281
99276.4
99285.7
99319.9
99399.6
99572.8
99895.1
100523
99992.1
99993
99992.5
99991.5
99990.4
99989.1
99987.8
99986.4
99984.9
99983.4
99981.9
99980.3
99978.6
99976.8
99975
99973.2
99971.2
99969.2
99967.2
99965
99962.8
99960.6
99958.2
99955.8
99953.3
99950.7
99948.1
99945.3
99942.5
99939.6
99936.6
99933.5
99930.3
99927.1
99923.7
99920.2
99916.7
99913
99909.2
99905.3
99901.4
99897.3
99893
99888.7
99884.2
99879.6
99874.9
99870.1
99865.1
99859.9
99854.7
99849.2
99843.6
99837.8
99831.9
99825.8
99819.4
99812.9
99806.1
99799.2
99791.9
99784.5
99776.7
99768.7
99760.3
99751.7
99742.6
99733.2
99723.4
99713.1
99702.3
99691
99679.1
99666.6
99653.3
99639.3
99624.5
99608.7
99592
99574.3
99555.4
99535.3
99514
99491.4
99467.4
99442.2
99415.7
99388.3
99360.5
99333.3
99307.7
99285.5
99267.9
99256.2
99251.2
99258.8
99289.4
99370.5
99554.8
100118
99994.1
99994
99992.9
99991.6
99990.3
99988.9
99987.6
99986.1
99984.7
99983.1
99981.6
99979.9
99978.2
99976.5
99974.6
99972.8
99970.8
99968.8
99966.7
99964.6
99962.4
99960.1
99957.7
99955.3
99952.8
99950.2
99947.5
99944.7
99941.9
99938.9
99935.9
99932.8
99929.6
99926.3
99922.9
99919.4
99915.8
99912.2
99908.4
99904.5
99900.4
99896.3
99892.1
99887.7
99883.2
99878.6
99873.9
99869
99864
99858.8
99853.5
99848.1
99842.5
99836.7
99830.8
99824.6
99818.3
99811.7
99805
99798
99790.8
99783.3
99775.6
99767.6
99759.3
99750.6
99741.6
99732.3
99722.5
99712.2
99701.5
99690.2
99678.4
99665.8
99652.6
99638.6
99623.8
99608
99591.3
99573.5
99554.6
99534.4
99512.9
99490.1
99466
99440.4
99413.5
99385.5
99356.8
99328.3
99301
99276.4
99256.4
99239.7
99222.6
99208.1
99197
99191.9
99204.1
99605.5
99996
99994.8
99993.4
99991.9
99990.4
99989
99987.6
99986.1
99984.6
99983.1
99981.5
99979.8
99978.1
99976.4
99974.6
99972.7
99970.7
99968.7
99966.6
99964.4
99962.2
99959.9
99957.5
99955.1
99952.5
99949.9
99947.2
99944.4
99941.6
99938.6
99935.6
99932.5
99929.3
99926
99922.6
99919.1
99915.5
99911.7
99907.9
99904
99900
99895.8
99891.6
99887.2
99882.7
99878
99873.3
99868.3
99863.3
99858.1
99852.8
99847.3
99841.6
99835.8
99829.8
99823.6
99817.2
99810.6
99803.8
99796.8
99789.6
99782.1
99774.3
99766.3
99757.9
99749.2
99740.2
99730.8
99720.9
99710.7
99699.9
99688.6
99676.7
99664.1
99650.9
99636.8
99622
99606.2
99589.4
99571.5
99552.5
99532.2
99510.6
99487.7
99463.4
99437.7
99410.5
99382.1
99352.7
99323.2
99294.7
99268.5
99246.2
99227.9
99202.9
99173.5
99133.1
99062.5
98892.7
98955.4
99997.4
99995.6
99993.8
99992.2
99990.7
99989.2
99987.8
99986.3
99984.8
99983.3
99981.7
99980
99978.3
99976.6
99974.8
99972.9
99970.9
99968.9
99966.8
99964.6
99962.4
99960.1
99957.7
99955.3
99952.7
99950.1
99947.4
99944.6
99941.8
99938.8
99935.8
99932.7
99929.5
99926.1
99922.7
99919.2
99915.6
99911.9
99908.1
99904.1
99900.1
99895.9
99891.7
99887.3
99882.8
99878.1
99873.3
99868.4
99863.3
99858.1
99852.8
99847.2
99841.5
99835.7
99829.6
99823.4
99817
99810.4
99803.6
99796.5
99789.2
99781.7
99773.9
99765.8
99757.4
99748.7
99739.6
99730.1
99720.3
99709.9
99699.1
99687.7
99675.7
99663.1
99649.7
99635.6
99620.6
99604.6
99587.7
99569.6
99550.4
99529.9
99508
99484.8
99460.1
99433.9
99406.3
99377.2
99347
99316.3
99286.3
99258.2
99232.2
99209.6
99189.5
99155.9
99099.8
98991
98677.9
98083.8
99998.8
99996.2
99994.3
99992.6
99991.1
99989.6
99988.2
99986.7
99985.2
99983.7
99982.1
99980.4
99978.7
99977
99975.2
99973.3
99971.3
99969.3
99967.2
99965.1
99962.8
99960.5
99958.2
99955.7
99953.2
99950.6
99947.9
99945.1
99942.3
99939.3
99936.3
99933.2
99930
99926.6
99923.2
99919.7
99916.1
99912.4
99908.6
99904.7
99900.6
99896.5
99892.2
99887.8
99883.3
99878.7
99873.9
99869
99863.9
99858.7
99853.4
99847.8
99842.2
99836.3
99830.3
99824
99817.6
99811
99804.2
99797.2
99789.9
99782.3
99774.5
99766.4
99758
99749.3
99740.2
99730.7
99720.9
99710.5
99699.7
99688.3
99676.3
99663.7
99650.3
99636.2
99621.1
99605.2
99588.2
99570.1
99550.8
99530.2
99508.3
99485
99460.3
99434
99406.1
99376.9
99346.6
99315.8
99285.9
99257.8
99231.8
99206.4
99177.2
99136.9
99077.7
98958.4
98578.2
96915.7
100584
101847
102385
102692
102901
103059
103182
103282
103363
103430
103485
103530
103566
103596
103619
103635
103647
103653
103654
103650
100537
101554
102183
102579
102843
103033
103176
103288
103377
103449
103507
103554
103591
103620
103641
103657
103666
103670
103669
103661
100822
101586
102126
102520
102803
103012
103169
103291
103387
103462
103523
103570
103608
103636
103656
103670
103678
103681
103679
103666
101096
101717
102175
102532
102807
103017
103179
103306
103405
103483
103544
103591
103627
103654
103673
103685
103691
103692
103688
103670
101330
101857
102258
102581
102838
103042
103202
103329
103429
103507
103567
103614
103648
103673
103689
103699
103703
103701
103696
103673
101527
101988
102347
102643
102884
103078
103234
103358
103456
103533
103592
103637
103669
103692
103705
103712
103713
103710
103702
103675
101687
102100
102430
102706
102933
103118
103269
103389
103485
103560
103618
103660
103690
103710
103721
103724
103723
103718
103706
103677
101808
102188
102498
102759
102976
103155
103301
103419
103513
103586
103642
103683
103710
103727
103734
103735
103732
103725
103709
103678
101889
102248
102546
102799
103010
103185
103329
103445
103538
103610
103664
103703
103728
103742
103746
103745
103739
103730
103711
103683
101930
102280
102574
102822
103031
103205
103347
103463
103554
103625
103679
103716
103740
103752
103755
103752
103745
103734
103712
103688
101923
102274
102567
102816
103026
103200
103342
103458
103551
103622
103676
103714
103738
103750
103753
103750
103743
103733
103712
103688
101870
102231
102530
102784
102997
103173
103318
103435
103529
103602
103658
103697
103723
103738
103743
103742
103737
103728
103711
103686
101781
102163
102475
102738
102958
103139
103287
103406
103502
103577
103635
103677
103705
103723
103731
103733
103730
103723
103708
103685
101652
102068
102401
102680
102910
103099
103251
103375
103473
103550
103609
103653
103685
103705
103717
103722
103721
103716
103705
103683
101486
101950
102313
102613
102857
103055
103215
103342
103443
103522
103583
103630
103664
103687
103702
103709
103711
103708
103700
103677
101282
101814
102219
102547
102809
103017
103181
103311
103414
103495
103558
103606
103642
103668
103686
103696
103700
103700
103695
103675
101043
101669
102133
102496
102776
102991
103157
103287
103389
103470
103534
103583
103621
103649
103669
103682
103688
103690
103687
103672
100763
101533
102080
102481
102771
102985
103146
103272
103371
103450
103512
103562
103601
103631
103653
103667
103676
103679
103678
103667
100471
101499
102138
102541
102812
103007
103154
103270
103362
103437
103497
103545
103584
103615
103638
103654
103664
103668
103668
103661
100515
101796
102343
102657
102871
103033
103160
103263
103347
103417
103474
103521
103559
103590
103614
103632
103644
103651
103653
103650
103489
103487
103487
103486
103485
103484
103484
103484
103483
103483
103483
103483
103484
103484
103484
103485
103486
103487
103487
103489
103486
103484
103484
103483
103483
103483
103483
103483
103482
103482
103482
103482
103482
103483
103483
103483
103483
103484
103484
103486
103486
103483
103483
103483
103483
103483
103483
103483
103483
103483
103483
103483
103483
103483
103483
103483
103483
103483
103483
103486
103486
103484
103484
103484
103484
103484
103484
103484
103484
103484
103484
103484
103484
103484
103484
103484
103484
103484
103484
103486
103485
103483
103483
103483
103483
103483
103483
103483
103483
103483
103483
103483
103483
103483
103483
103483
103483
103483
103483
103485
103485
103483
103483
103483
103483
103482
103482
103482
103482
103482
103482
103482
103482
103482
103482
103483
103483
103483
103483
103485
103484
103482
103482
103482
103482
103482
103482
103482
103482
103482
103482
103482
103482
103482
103482
103482
103482
103482
103482
103484
103483
103482
103482
103481
103481
103481
103481
103481
103481
103481
103481
103481
103481
103481
103481
103481
103481
103482
103482
103483
103483
103481
103481
103481
103481
103481
103481
103481
103481
103480
103480
103481
103481
103481
103481
103481
103481
103481
103481
103483
103482
103480
103480
103480
103480
103480
103480
103480
103480
103480
103480
103480
103480
103480
103480
103480
103480
103480
103480
103482
103481
103480
103480
103479
103479
103479
103479
103479
103479
103479
103479
103479
103479
103479
103479
103479
103479
103480
103480
103481
103481
103479
103479
103479
103479
103479
103478
103478
103478
103478
103478
103478
103478
103478
103479
103479
103479
103479
103479
103481
103480
103478
103478
103478
103478
103478
103478
103478
103478
103478
103478
103478
103478
103478
103478
103478
103478
103478
103478
103480
103479
103477
103477
103477
103477
103477
103477
103477
103477
103477
103477
103477
103477
103477
103477
103477
103477
103477
103477
103479
103478
103477
103477
103477
103476
103476
103476
103476
103476
103476
103476
103476
103476
103476
103476
103476
103477
103477
103477
103478
103477
103476
103476
103476
103476
103476
103476
103476
103475
103475
103475
103475
103476
103476
103476
103476
103476
103476
103476
103477
103477
103475
103475
103475
103475
103475
103475
103475
103475
103475
103475
103475
103475
103475
103475
103475
103475
103475
103475
103477
103476
103474
103474
103474
103474
103474
103474
103474
103474
103474
103474
103474
103474
103474
103474
103474
103474
103474
103474
103476
103475
103474
103473
103473
103473
103473
103473
103473
103473
103473
103473
103473
103473
103473
103473
103473
103473
103473
103474
103475
103474
103473
103473
103473
103473
103473
103472
103472
103472
103472
103472
103472
103472
103472
103473
103473
103473
103473
103473
103474
103473
103472
103472
103472
103472
103472
103472
103472
103472
103472
103472
103472
103472
103472
103472
103472
103472
103472
103472
103473
103473
103471
103471
103471
103471
103471
103471
103471
103471
103471
103471
103471
103471
103471
103471
103471
103471
103471
103471
103473
103472
103470
103470
103470
103470
103470
103470
103470
103470
103470
103470
103470
103470
103470
103470
103470
103470
103470
103470
103472
103471
103470
103469
103469
103469
103469
103469
103469
103469
103469
103469
103469
103469
103469
103469
103469
103469
103469
103470
103471
103470
103469
103469
103469
103469
103469
103468
103468
103468
103468
103468
103468
103468
103468
103469
103469
103469
103469
103469
103470
103469
103468
103468
103468
103468
103468
103468
103468
103468
103468
103468
103468
103468
103468
103468
103468
103468
103468
103468
103469
103468
103467
103467
103467
103467
103467
103467
103467
103467
103467
103467
103467
103467
103467
103467
103467
103467
103467
103467
103468
103467
103466
103466
103466
103466
103466
103466
103466
103466
103466
103466
103466
103466
103466
103466
103466
103466
103466
103466
103467
103467
103466
103465
103465
103465
103465
103465
103465
103465
103465
103465
103465
103465
103465
103465
103465
103465
103465
103466
103467
103466
103465
103465
103465
103465
103465
103464
103464
103464
103464
103464
103464
103464
103464
103465
103465
103465
103465
103465
103466
103465
103464
103464
103464
103464
103464
103464
103464
103464
103464
103464
103464
103464
103464
103464
103464
103464
103464
103464
103465
103464
103463
103463
103463
103463
103463
103463
103463
103463
103463
103463
103463
103463
103463
103463
103463
103463
103463
103463
103464
103463
103462
103462
103462
103462
103462
103462
103462
103462
103462
103462
103462
103462
103462
103462
103462
103462
103462
103462
103463
103462
103462
103461
103461
103461
103461
103461
103461
103461
103461
103461
103461
103461
103461
103461
103461
103461
103461
103462
103462
103462
103461
103461
103461
103461
103461
103461
103460
103460
103460
103460
103460
103460
103461
103461
103461
103461
103461
103461
103462
103461
103460
103460
103460
103460
103460
103460
103460
103460
103460
103460
103460
103460
103460
103460
103460
103460
103460
103460
103461
103460
103459
103459
103459
103459
103459
103459
103459
103459
103459
103459
103459
103459
103459
103459
103459
103459
103459
103459
103460
103459
103458
103458
103458
103458
103458
103458
103458
103458
103458
103458
103458
103458
103458
103458
103458
103458
103458
103458
103459
103458
103458
103458
103458
103457
103457
103457
103457
103457
103457
103457
103457
103457
103457
103457
103457
103458
103458
103458
103458
103457
103457
103457
103457
103457
103457
103457
103457
103457
103457
103457
103457
103457
103457
103457
103457
103457
103457
103457
103457
103457
103456
103456
103456
103456
103456
103456
103456
103456
103456
103456
103456
103456
103456
103456
103456
103456
103456
103456
103457
103456
103455
103455
103455
103455
103455
103455
103455
103455
103455
103455
103455
103455
103455
103455
103455
103455
103455
103455
103456
103455
103455
103455
103454
103454
103454
103454
103454
103454
103454
103454
103454
103454
103454
103454
103454
103454
103455
103455
103455
103454
103454
103454
103454
103454
103454
103454
103454
103454
103454
103454
103454
103454
103454
103454
103454
103454
103454
103454
103454
103453
103453
103453
103453
103453
103453
103453
103453
103453
103453
103453
103453
103453
103453
103453
103453
103453
103453
103453
103453
103453
103452
103452
103452
103452
103452
103452
103452
103452
103452
103452
103452
103452
103452
103452
103452
103452
103452
103452
103453
103452
103452
103452
103451
103451
103451
103451
103451
103451
103451
103451
103451
103451
103451
103451
103451
103451
103452
103452
103452
103451
103451
103451
103451
103451
103451
103451
103451
103451
103451
103451
103451
103451
103451
103451
103451
103451
103451
103451
103451
103450
103450
103450
103450
103450
103450
103450
103450
103450
103450
103450
103450
103450
103450
103450
103450
103450
103450
103450
103450
103450
103449
103449
103449
103449
103449
103449
103449
103449
103449
103449
103449
103449
103449
103449
103449
103449
103449
103449
103450
103449
103449
103449
103449
103449
103449
103449
103449
103448
103448
103448
103448
103449
103449
103449
103449
103449
103449
103449
103449
103448
103448
103448
103448
103448
103448
103448
103448
103448
103448
103448
103448
103448
103448
103448
103448
103448
103448
103448
103448
103448
103447
103447
103447
103447
103447
103447
103447
103447
103447
103447
103447
103447
103447
103447
103447
103447
103447
103447
103448
103447
103447
103447
103446
103446
103446
103446
103446
103446
103446
103446
103446
103446
103446
103446
103446
103446
103447
103447
103447
103446
103446
103446
103446
103446
103446
103446
103446
103446
103446
103446
103446
103446
103446
103446
103446
103446
103446
103446
103446
103445
103445
103445
103445
103445
103445
103445
103445
103445
103445
103445
103445
103445
103445
103445
103445
103445
103445
103445
103445
103445
103445
103444
103444
103444
103444
103444
103444
103444
103444
103444
103444
103444
103444
103444
103444
103444
103444
103445
103445
103444
103444
103444
103444
103444
103444
103444
103444
103444
103444
103444
103444
103444
103444
103444
103444
103444
103444
103444
103444
103443
103443
103443
103443
103443
103443
103443
103443
103443
103443
103443
103443
103443
103443
103443
103443
103443
103443
103443
103443
103443
103443
103442
103442
103442
103442
103442
103442
103442
103442
103442
103442
103442
103442
103442
103442
103442
103442
103443
103443
103442
103442
103442
103442
103442
103442
103442
103442
103442
103442
103442
103442
103442
103442
103442
103442
103442
103442
103442
103442
103441
103441
103441
103441
103441
103441
103441
103441
103441
103441
103441
103441
103441
103441
103441
103441
103441
103441
103441
103441
103441
103441
103440
103440
103440
103440
103440
103440
103440
103440
103440
103440
103440
103440
103440
103440
103440
103440
103441
103441
103440
103440
103440
103440
103440
103440
103440
103440
103440
103440
103440
103440
103440
103440
103440
103440
103440
103440
103440
103440
103439
103439
103439
103439
103439
103439
103439
103439
103439
103439
103439
103439
103439
103439
103439
103439
103439
103439
103439
103439
103439
103439
103438
103438
103438
103438
103438
103438
103438
103438
103438
103438
103438
103438
103438
103438
103438
103439
103439
103439
103438
103438
103438
103438
103438
103438
103438
103438
103438
103438
103438
103438
103438
103438
103438
103438
103438
103438
103438
103438
103437
103437
103437
103437
103437
103437
103437
103437
103437
103437
103437
103437
103437
103437
103437
103437
103437
103437
103437
103437
103437
103437
103436
103436
103436
103436
103436
103436
103436
103436
103436
103436
103436
103436
103437
103437
103437
103437
103437
103437
103436
103436
103436
103436
103436
103436
103436
103436
103436
103436
103436
103436
103436
103436
103436
103436
103436
103436
103436
103436
103435
103435
103435
103435
103435
103435
103435
103435
103435
103435
103435
103435
103435
103435
103435
103435
103435
103435
103436
103436
103435
103435
103434
103434
103434
103434
103434
103434
103434
103435
103435
103435
103435
103435
103435
103435
103435
103435
103435
103435
103434
103434
103434
103434
103434
103434
103434
103434
103434
103434
103434
103434
103434
103434
103434
103434
103434
103434
103434
103434
103433
103433
103433
103433
103433
103433
103433
103433
103433
103433
103433
103433
103433
103434
103434
103434
103434
103434
103434
103434
103432
103432
103432
103432
103432
103432
103432
103433
103433
103433
103433
103433
103433
103433
103433
103433
103433
103433
103433
103433
103432
103432
103432
103432
103432
103432
103432
103432
103432
103432
103432
103432
103432
103432
103433
103433
103433
103433
103433
103433
103431
103431
103431
103431
103431
103431
103431
103431
103431
103431