/*--------------------------------*- C++ -*----------------------------------*\
| =========                 |                                                 |
| \\      /  F ield         | OpenFOAM: The Open Source CFD Toolbox           |
|  \\    /   O peration     | Version:  2.1.0                                 |
|   \\  /    A nd           | Web:      www.OpenFOAM.org                      |
|    \\/     M anipulation  |                                                 |
\*---------------------------------------------------------------------------*/
FoamFile
{
    version     2.0;
    format      ascii;
    class       surfaceScalarField;
    location    "0.23";
    object      phi;
}
// * * * * * * * * * * * * * * * * * * * * * * * * * * * * * * * * * * * * * //

dimensions      [0 3 -1 0 0 0 0];

internalField   nonuniform List<scalar> 
12460
(
-2.45578e-05
-3.28154e-09
-2.45203e-05
-3.75054e-08
-2.44608e-05
-5.95193e-08
-2.43903e-05
-7.05754e-08
-2.43133e-05
-7.69897e-08
-2.42321e-05
-8.12136e-08
-2.41478e-05
-8.42366e-08
-2.40613e-05
-8.65947e-08
-2.39727e-05
-8.85961e-08
-2.38823e-05
-9.04055e-08
-2.37902e-05
-9.21268e-08
-2.36964e-05
-9.38047e-08
-2.36009e-05
-9.5478e-08
-2.35038e-05
-9.71521e-08
-2.3405e-05
-9.8848e-08
-2.33045e-05
-1.00557e-07
-2.32022e-05
-1.02294e-07
-2.30982e-05
-1.04047e-07
-2.29924e-05
-1.05837e-07
-2.28848e-05
-1.07638e-07
-2.27754e-05
-1.09447e-07
-2.26642e-05
-1.11319e-07
-2.2551e-05
-1.13303e-07
-2.24357e-05
-1.15345e-07
-2.23183e-05
-1.17449e-07
-2.21988e-05
-1.19619e-07
-2.20771e-05
-1.21872e-07
-2.1953e-05
-1.24202e-07
-2.18265e-05
-1.2662e-07
-2.16976e-05
-1.29123e-07
-2.15661e-05
-1.31721e-07
-2.14319e-05
-1.34411e-07
-2.12949e-05
-1.37201e-07
-2.11551e-05
-1.40094e-07
-2.10122e-05
-1.43107e-07
-2.08663e-05
-1.46239e-07
-2.07172e-05
-1.49508e-07
-2.05646e-05
-1.52925e-07
-2.04086e-05
-1.56501e-07
-2.02488e-05
-1.6025e-07
-2.00851e-05
-1.64184e-07
-1.99174e-05
-1.68302e-07
-1.97454e-05
-1.72605e-07
-1.95689e-05
-1.77097e-07
-1.93879e-05
-1.81773e-07
-1.92021e-05
-1.86618e-07
-1.90113e-05
-1.91658e-07
-1.88155e-05
-1.96725e-07
-1.86145e-05
-2.01899e-07
-1.84081e-05
-2.07506e-07
-1.81959e-05
-2.13414e-07
-1.79778e-05
-2.19296e-07
-1.77542e-05
-2.24914e-07
-1.75253e-05
-2.30294e-07
-1.72912e-05
-2.35617e-07
-1.70519e-05
-2.40975e-07
-1.68072e-05
-2.46419e-07
-1.65571e-05
-2.51965e-07
-1.63014e-05
-2.57609e-07
-1.60402e-05
-2.63333e-07
-1.57733e-05
-2.69143e-07
-1.55005e-05
-2.75071e-07
-1.52219e-05
-2.81097e-07
-1.49373e-05
-2.87229e-07
-1.46466e-05
-2.93495e-07
-1.43497e-05
-2.999e-07
-1.40463e-05
-3.06449e-07
-1.37364e-05
-3.13159e-07
-1.34198e-05
-3.2007e-07
-1.30961e-05
-3.27214e-07
-1.27653e-05
-3.34633e-07
-1.24268e-05
-3.42388e-07
-1.20804e-05
-3.5058e-07
-1.17254e-05
-3.5934e-07
-1.13611e-05
-3.68834e-07
-1.09866e-05
-3.79279e-07
-1.06007e-05
-3.90949e-07
-1.02017e-05
-4.04181e-07
-9.78787e-06
-4.19385e-07
-9.3566e-06
-4.37066e-07
-8.90486e-06
-4.57816e-07
-8.42897e-06
-4.82257e-07
-7.92462e-06
-5.1102e-07
-7.38684e-06
-5.4474e-07
-6.8101e-06
-5.83985e-07
-6.18853e-06
-6.29056e-07
-5.51664e-06
-6.79561e-07
-4.7905e-06
-7.33923e-07
-4.00992e-06
-7.88357e-07
-3.1828e-06
-8.34724e-07
-2.33328e-06
-8.56714e-07
-1.5185e-06
-8.21224e-07
-8.44372e-07
-6.79317e-07
-4.31525e-07
-4.1612e-07
-3.12785e-07
-1.19885e-07
-5.56371e-07
2.43677e-07
-1.44755e-06
8.85151e-07
-3.72735e-06
2.26123e-06
-9.23326e-06
5.48355e-06
1.52911e-05
-2.45431e-05
-2.96695e-05
-2.04494e-08
-2.96201e-05
-8.69494e-08
-2.95568e-05
-1.22822e-07
-2.94852e-05
-1.4219e-07
-2.94083e-05
-1.53875e-07
-2.93279e-05
-1.61641e-07
-2.9245e-05
-1.67211e-07
-2.91601e-05
-1.71564e-07
-2.90734e-05
-1.75262e-07
-2.89853e-05
-1.78606e-07
-2.88957e-05
-1.81795e-07
-2.88046e-05
-1.84908e-07
-2.87122e-05
-1.88023e-07
-2.86183e-05
-1.91147e-07
-2.85229e-05
-1.94322e-07
-2.8426e-05
-1.97528e-07
-2.83277e-05
-2.00793e-07
-2.82278e-05
-2.04086e-07
-2.81263e-05
-2.07439e-07
-2.80233e-05
-2.1081e-07
-2.79188e-05
-2.14139e-07
-2.78129e-05
-2.17532e-07
-2.77053e-05
-2.21108e-07
-2.75962e-05
-2.2475e-07
-2.74855e-05
-2.28468e-07
-2.73732e-05
-2.32286e-07
-2.72592e-05
-2.3623e-07
-2.71436e-05
-2.40295e-07
-2.70262e-05
-2.44492e-07
-2.69071e-05
-2.48819e-07
-2.67861e-05
-2.5329e-07
-2.66633e-05
-2.57905e-07
-2.65386e-05
-2.62677e-07
-2.64119e-05
-2.67613e-07
-2.62832e-05
-2.72735e-07
-2.61524e-05
-2.78032e-07
-2.60195e-05
-2.83535e-07
-2.58844e-05
-2.89256e-07
-2.5747e-05
-2.95205e-07
-2.56073e-05
-3.01406e-07
-2.54652e-05
-3.07883e-07
-2.53206e-05
-3.14651e-07
-2.51734e-05
-3.21723e-07
-2.50235e-05
-3.29117e-07
-2.48707e-05
-3.36835e-07
-2.47149e-05
-3.44877e-07
-2.4556e-05
-3.5328e-07
-2.43937e-05
-3.61877e-07
-2.42282e-05
-3.7049e-07
-2.406e-05
-3.79118e-07
-2.38893e-05
-3.87709e-07
-2.37163e-05
-3.96264e-07
-2.35407e-05
-4.04706e-07
-2.33625e-05
-4.12987e-07
-2.31818e-05
-4.21211e-07
-2.29986e-05
-4.29454e-07
-2.28128e-05
-4.37758e-07
-2.26246e-05
-4.46141e-07
-2.24341e-05
-4.54598e-07
-2.22412e-05
-4.6312e-07
-2.20459e-05
-4.71679e-07
-2.18486e-05
-4.80286e-07
-2.16491e-05
-4.88921e-07
-2.14476e-05
-4.97587e-07
-2.12442e-05
-5.06298e-07
-2.10391e-05
-5.15063e-07
-2.08323e-05
-5.23921e-07
-2.06239e-05
-5.32917e-07
-2.04139e-05
-5.42125e-07
-2.02023e-05
-5.51646e-07
-1.99888e-05
-5.61601e-07
-1.97734e-05
-5.72137e-07
-1.95557e-05
-5.83485e-07
-1.93351e-05
-5.95925e-07
-1.91111e-05
-6.098e-07
-1.88827e-05
-6.25537e-07
-1.86489e-05
-6.4365e-07
-1.84082e-05
-6.64746e-07
-1.8159e-05
-6.89528e-07
-1.78993e-05
-7.18823e-07
-1.76266e-05
-7.53578e-07
-1.73383e-05
-7.94757e-07
-1.70313e-05
-8.43315e-07
-1.67023e-05
-9.00152e-07
-1.63479e-05
-9.65948e-07
-1.59645e-05
-1.0409e-06
-1.55495e-05
-1.12411e-06
-1.51012e-05
-1.21271e-06
-1.46205e-05
-1.30038e-06
-1.41127e-05
-1.37468e-06
-1.35898e-05
-1.41259e-06
-1.30707e-05
-1.37393e-06
-1.25842e-05
-1.19976e-06
-1.22095e-05
-8.24663e-07
-1.2162e-05
-2.00628e-07
-1.26423e-05
6.92478e-07
-1.39586e-05
2.17094e-06
-1.66235e-05
4.89495e-06
-2.16647e-05
1.04984e-05
2.6209e-05
-3.26041e-05
-3.25697e-05
-4.45981e-08
-3.2527e-05
-1.2963e-07
-3.24734e-05
-1.76475e-07
-3.2413e-05
-2.02645e-07
-3.23483e-05
-2.18598e-07
-3.22808e-05
-2.29184e-07
-3.22114e-05
-2.36694e-07
-3.21405e-05
-2.4254e-07
-3.20685e-05
-2.47439e-07
-3.19953e-05
-2.51866e-07
-3.19212e-05
-2.56049e-07
-3.18461e-05
-2.60147e-07
-3.177e-05
-2.64235e-07
-3.1693e-05
-2.68362e-07
-3.16149e-05
-2.72564e-07
-3.15359e-05
-2.76844e-07
-3.14557e-05
-2.81228e-07
-3.13744e-05
-2.85704e-07
-3.12918e-05
-2.90298e-07
-3.1208e-05
-2.94996e-07
-3.11229e-05
-2.9969e-07
-3.10365e-05
-3.0434e-07
-3.09492e-05
-3.09001e-07
-3.08608e-05
-3.13658e-07
-3.07716e-05
-3.18359e-07
-3.06815e-05
-3.23162e-07
-3.05904e-05
-3.28103e-07
-3.04984e-05
-3.3317e-07
-3.04056e-05
-3.38372e-07
-3.03118e-05
-3.43706e-07
-3.02171e-05
-3.49179e-07
-3.01216e-05
-3.54793e-07
-3.00252e-05
-3.60554e-07
-2.99281e-05
-3.66464e-07
-2.98301e-05
-3.72557e-07
-2.97313e-05
-3.78803e-07
-2.96319e-05
-3.85228e-07
-2.95317e-05
-3.91851e-07
-2.94309e-05
-3.98668e-07
-2.93296e-05
-4.05697e-07
-2.92277e-05
-4.1295e-07
-2.91254e-05
-4.20445e-07
-2.90228e-05
-4.28185e-07
-2.89199e-05
-4.36184e-07
-2.88168e-05
-4.44439e-07
-2.87137e-05
-4.52942e-07
-2.86107e-05
-4.61646e-07
-2.85079e-05
-4.70488e-07
-2.84053e-05
-4.79368e-07
-2.83032e-05
-4.88067e-07
-2.82018e-05
-4.96488e-07
-2.81012e-05
-5.04808e-07
-2.80014e-05
-5.13126e-07
-2.79022e-05
-5.21359e-07
-2.78039e-05
-5.29495e-07
-2.77065e-05
-5.37538e-07
-2.76102e-05
-5.45494e-07
-2.75153e-05
-5.53361e-07
-2.7422e-05
-5.61105e-07
-2.73305e-05
-5.68705e-07
-2.72411e-05
-5.76111e-07
-2.71541e-05
-5.83282e-07
-2.707e-05
-5.90177e-07
-2.69891e-05
-5.96772e-07
-2.69117e-05
-6.03045e-07
-2.68384e-05
-6.08979e-07
-2.67696e-05
-6.14609e-07
-2.67058e-05
-6.19986e-07
-2.66473e-05
-6.25177e-07
-2.65946e-05
-6.30315e-07
-2.65481e-05
-6.35587e-07
-2.6508e-05
-6.41186e-07
-2.64746e-05
-6.47448e-07
-2.64478e-05
-6.54772e-07
-2.64276e-05
-6.63645e-07
-2.64136e-05
-6.74661e-07
-2.64055e-05
-6.88526e-07
-2.64024e-05
-7.06071e-07
-2.64034e-05
-7.28223e-07
-2.64072e-05
-7.5606e-07
-2.64123e-05
-7.90807e-07
-2.64167e-05
-8.33692e-07
-2.64185e-05
-8.85857e-07
-2.64154e-05
-9.48353e-07
-2.64051e-05
-1.02189e-06
-2.63856e-05
-1.10632e-06
-2.63557e-05
-1.20016e-06
-2.63149e-05
-1.29947e-06
-2.62648e-05
-1.39613e-06
-2.62095e-05
-1.47499e-06
-2.61564e-05
-1.5097e-06
-2.61148e-05
-1.45784e-06
-2.60976e-05
-1.25694e-06
-2.61383e-05
-8.20487e-07
-2.6303e-05
-6.79814e-08
-2.67762e-05
1.13703e-06
-2.77483e-05
3.1161e-06
-2.96151e-05
6.73587e-06
-3.30952e-05
1.39553e-05
3.07493e-05
-3.76619e-05
-3.52197e-05
-6.82719e-08
-3.51891e-05
-1.60281e-07
-3.51521e-05
-2.13557e-07
-3.51103e-05
-2.44535e-07
-3.50654e-05
-2.63602e-07
-3.50186e-05
-2.76107e-07
-3.49706e-05
-2.84809e-07
-3.49218e-05
-2.91439e-07
-3.48726e-05
-2.96859e-07
-3.4823e-05
-3.0167e-07
-3.47731e-05
-3.06135e-07
-3.47231e-05
-3.10471e-07
-3.46728e-05
-3.14752e-07
-3.46225e-05
-3.19052e-07
-3.4572e-05
-3.23408e-07
-3.45214e-05
-3.27829e-07
-3.44708e-05
-3.3234e-07
-3.44201e-05
-3.36936e-07
-3.43694e-05
-3.41601e-07
-3.43188e-05
-3.46321e-07
-3.42682e-05
-3.51094e-07
-3.42175e-05
-3.55887e-07
-3.41668e-05
-3.60614e-07
-3.41163e-05
-3.65285e-07
-3.40659e-05
-3.69934e-07
-3.40158e-05
-3.74648e-07
-3.39659e-05
-3.79475e-07
-3.39164e-05
-3.8439e-07
-3.38672e-05
-3.89391e-07
-3.38185e-05
-3.94473e-07
-3.37703e-05
-3.99635e-07
-3.37228e-05
-4.0487e-07
-3.3676e-05
-4.10171e-07
-3.363e-05
-4.15532e-07
-3.3585e-05
-4.20972e-07
-3.3541e-05
-4.26476e-07
-3.34983e-05
-4.32052e-07
-3.3457e-05
-4.37703e-07
-3.34172e-05
-4.43422e-07
-3.33791e-05
-4.49206e-07
-3.3343e-05
-4.55049e-07
-3.3309e-05
-4.60947e-07
-3.32774e-05
-4.66882e-07
-3.32484e-05
-4.72848e-07
-3.32225e-05
-4.78821e-07
-3.31998e-05
-4.84769e-07
-3.31808e-05
-4.90613e-07
-3.31657e-05
-4.96307e-07
-3.31548e-05
-5.02027e-07
-3.31477e-05
-5.0779e-07
-3.31444e-05
-5.13395e-07
-3.31451e-05
-5.1882e-07
-3.31499e-05
-5.24072e-07
-3.31592e-05
-5.29089e-07
-3.31731e-05
-5.33846e-07
-3.31918e-05
-5.38319e-07
-3.32157e-05
-5.42486e-07
-3.3245e-05
-5.46335e-07
-3.32801e-05
-5.4981e-07
-3.33212e-05
-5.52862e-07
-3.33688e-05
-5.55451e-07
-3.3423e-05
-5.5754e-07
-3.34842e-05
-5.59064e-07
-3.35528e-05
-5.60003e-07
-3.36289e-05
-5.60359e-07
-3.3713e-05
-5.6012e-07
-3.38051e-05
-5.59343e-07
-3.39055e-05
-5.58111e-07
-3.40143e-05
-5.56561e-07
-3.41314e-05
-5.54879e-07
-3.42569e-05
-5.53323e-07
-3.43904e-05
-5.52208e-07
-3.45317e-05
-5.51973e-07
-3.46803e-05
-5.53139e-07
-3.48355e-05
-5.56341e-07
-3.49965e-05
-5.62302e-07
-3.51624e-05
-5.71886e-07
-3.5332e-05
-5.86094e-07
-3.5504e-05
-6.05987e-07
-3.56769e-05
-6.32776e-07
-3.58492e-05
-6.67841e-07
-3.60192e-05
-7.1254e-07
-3.61852e-05
-7.67987e-07
-3.63455e-05
-8.35173e-07
-3.64989e-05
-9.1467e-07
-3.66441e-05
-1.00599e-06
-3.67807e-05
-1.10699e-06
-3.69093e-05
-1.21291e-06
-3.70313e-05
-1.31454e-06
-3.71492e-05
-1.39573e-06
-3.7266e-05
-1.42982e-06
-3.73831e-05
-1.37564e-06
-3.74985e-05
-1.17417e-06
-3.76175e-05
-7.31785e-07
-3.77331e-05
1.99976e-08
-3.80043e-05
1.38248e-06
-3.85192e-05
3.60619e-06
-3.94624e-05
7.65484e-06
-4.1022e-05
1.54909e-05
3.07567e-05
-4.10621e-05
-3.79419e-05
-8.47245e-08
-3.79288e-05
-1.73548e-07
-3.79152e-05
-2.27244e-07
-3.79003e-05
-2.59605e-07
-3.78844e-05
-2.797e-07
-3.78681e-05
-2.92597e-07
-3.78518e-05
-3.0134e-07
-3.78358e-05
-3.07696e-07
-3.78203e-05
-3.12693e-07
-3.78054e-05
-3.16922e-07
-3.77912e-05
-3.2073e-07
-3.77778e-05
-3.24308e-07
-3.77653e-05
-3.2777e-07
-3.77538e-05
-3.31166e-07
-3.77433e-05
-3.34543e-07
-3.77339e-05
-3.37897e-07
-3.77259e-05
-3.41252e-07
-3.77192e-05
-3.44586e-07
-3.77139e-05
-3.47876e-07
-3.77104e-05
-3.51084e-07
-3.77085e-05
-3.54291e-07
-3.77083e-05
-3.576e-07
-3.77096e-05
-3.60965e-07
-3.77125e-05
-3.64277e-07
-3.77171e-05
-3.67473e-07
-3.77234e-05
-3.70658e-07
-3.77316e-05
-3.73912e-07
-3.77417e-05
-3.77179e-07
-3.77539e-05
-3.80446e-07
-3.77683e-05
-3.83703e-07
-3.77849e-05
-3.8695e-07
-3.7804e-05
-3.90173e-07
-3.78257e-05
-3.93362e-07
-3.78501e-05
-3.9651e-07
-3.78773e-05
-3.99612e-07
-3.79076e-05
-4.02668e-07
-3.79411e-05
-4.05683e-07
-3.7978e-05
-4.08647e-07
-3.80184e-05
-4.11565e-07
-3.80625e-05
-4.14419e-07
-3.81106e-05
-4.17208e-07
-3.81627e-05
-4.19932e-07
-3.82191e-05
-4.22576e-07
-3.828e-05
-4.25136e-07
-3.83454e-05
-4.27602e-07
-3.84156e-05
-4.29945e-07
-3.84908e-05
-4.32134e-07
-3.85708e-05
-4.34174e-07
-3.8656e-05
-4.36156e-07
-3.87465e-05
-4.38072e-07
-3.88422e-05
-4.39818e-07
-3.89435e-05
-4.41341e-07
-3.90503e-05
-4.42623e-07
-3.91627e-05
-4.43634e-07
-3.92808e-05
-4.44357e-07
-3.94047e-05
-4.44788e-07
-3.95343e-05
-4.4492e-07
-3.96697e-05
-4.4475e-07
-3.98108e-05
-4.44243e-07
-3.99575e-05
-4.43371e-07
-4.01097e-05
-4.42104e-07
-4.02673e-05
-4.40413e-07
-4.04302e-05
-4.38251e-07
-4.05981e-05
-4.35602e-07
-4.07709e-05
-4.32477e-07
-4.09483e-05
-4.28869e-07
-4.11301e-05
-4.24836e-07
-4.1316e-05
-4.20471e-07
-4.15058e-05
-4.15934e-07
-4.1699e-05
-4.11425e-07
-4.18955e-05
-4.07185e-07
-4.20948e-05
-4.03557e-07
-4.22966e-05
-4.01005e-07
-4.25005e-05
-4.00087e-07
-4.2706e-05
-4.01489e-07
-4.29126e-05
-4.05955e-07
-4.31199e-05
-4.14407e-07
-4.33273e-05
-4.2795e-07
-4.35339e-05
-4.47692e-07
-4.37393e-05
-4.74874e-07
-4.39427e-05
-5.10962e-07
-4.41432e-05
-5.57414e-07
-4.43402e-05
-6.1524e-07
-4.45331e-05
-6.85298e-07
-4.47214e-05
-7.68073e-07
-4.4905e-05
-8.62798e-07
-4.5084e-05
-9.67006e-07
-4.5259e-05
-1.07562e-06
-4.54305e-05
-1.17938e-06
-4.55986e-05
-1.26255e-06
-4.57616e-05
-1.30019e-06
-4.59143e-05
-1.25493e-06
-4.6045e-05
-1.07377e-06
-4.61291e-05
-6.76348e-07
-4.61714e-05
3.53576e-08
-4.61938e-05
1.37919e-06
-4.62345e-05
3.62128e-06
-4.62908e-05
7.68511e-06
-4.60428e-05
1.52145e-05
2.78885e-05
-4.32133e-05
-4.08859e-05
-8.8278e-08
-4.08953e-05
-1.64291e-07
-4.09112e-05
-2.1162e-07
-4.09303e-05
-2.40784e-07
-4.09514e-05
-2.58838e-07
-4.09743e-05
-2.70051e-07
-4.09988e-05
-2.77268e-07
-4.10248e-05
-2.82099e-07
-4.10524e-05
-2.85573e-07
-4.10817e-05
-2.88227e-07
-4.11126e-05
-2.9043e-07
-4.11453e-05
-2.92341e-07
-4.11798e-05
-2.94092e-07
-4.12162e-05
-2.95723e-07
-4.12545e-05
-2.97276e-07
-4.12949e-05
-2.98755e-07
-4.13373e-05
-3.00172e-07
-4.13819e-05
-3.01512e-07
-4.14288e-05
-3.02767e-07
-4.14778e-05
-3.03922e-07
-4.15292e-05
-3.05046e-07
-4.15831e-05
-3.06163e-07
-4.16395e-05
-3.07278e-07
-4.16984e-05
-3.08341e-07
-4.17601e-05
-3.09155e-07
-4.18246e-05
-3.09881e-07
-4.1892e-05
-3.10675e-07
-4.19624e-05
-3.1143e-07
-4.20358e-05
-3.12148e-07
-4.21123e-05
-3.12824e-07
-4.2192e-05
-3.13472e-07
-4.22749e-05
-3.14084e-07
-4.23611e-05
-3.1466e-07
-4.24507e-05
-3.15193e-07
-4.25437e-05
-3.15689e-07
-4.26401e-05
-3.16152e-07
-4.274e-05
-3.16601e-07
-4.28433e-05
-3.17036e-07
-4.29502e-05
-3.17469e-07
-4.30606e-05
-3.17897e-07
-4.31746e-05
-3.18325e-07
-4.3292e-05
-3.1876e-07
-4.34129e-05
-3.19194e-07
-4.35372e-05
-3.19629e-07
-4.3665e-05
-3.20056e-07
-4.37961e-05
-3.20452e-07
-4.39305e-05
-3.20802e-07
-4.40682e-05
-3.21113e-07
-4.42091e-05
-3.21429e-07
-4.43532e-05
-3.21709e-07
-4.45004e-05
-3.21916e-07
-4.46507e-05
-3.21994e-07
-4.48039e-05
-3.21916e-07
-4.496e-05
-3.21664e-07
-4.51188e-05
-3.21211e-07
-4.52802e-05
-3.20546e-07
-4.54442e-05
-3.19645e-07
-4.56105e-05
-3.1849e-07
-4.57791e-05
-3.17039e-07
-4.595e-05
-3.15254e-07
-4.61229e-05
-3.13097e-07
-4.62978e-05
-3.10525e-07
-4.64745e-05
-3.0749e-07
-4.6653e-05
-3.03954e-07
-4.68331e-05
-2.99933e-07
-4.70148e-05
-2.95391e-07
-4.7198e-05
-2.90378e-07
-4.73826e-05
-2.84978e-07
-4.75685e-05
-2.79379e-07
-4.77557e-05
-2.7379e-07
-4.7944e-05
-2.68436e-07
-4.81333e-05
-2.63677e-07
-4.83235e-05
-2.60004e-07
-4.85145e-05
-2.58018e-07
-4.87061e-05
-2.58424e-07
-4.8898e-05
-2.62026e-07
-4.90902e-05
-2.69702e-07
-4.92823e-05
-2.82558e-07
-4.94743e-05
-3.01776e-07
-4.96659e-05
-3.28572e-07
-4.98569e-05
-3.6439e-07
-5.0047e-05
-4.10832e-07
-5.02361e-05
-4.68716e-07
-5.04245e-05
-5.38637e-07
-5.0612e-05
-6.21215e-07
-5.07989e-05
-7.15549e-07
-5.09855e-05
-8.19026e-07
-5.1172e-05
-9.26766e-07
-5.13577e-05
-1.03009e-06
-5.1541e-05
-1.11472e-06
-5.17167e-05
-1.15867e-06
-5.18749e-05
-1.12979e-06
-5.19966e-05
-9.83766e-07
-5.20448e-05
-6.5851e-07
-5.20053e-05
-3.3055e-08
-5.18235e-05
1.16924e-06
-5.14501e-05
3.21918e-06
-5.07133e-05
6.91767e-06
-4.89996e-05
1.34655e-05
2.32615e-05
-4.4417e-05
-4.39948e-05
-7.74377e-08
-4.4028e-05
-1.31397e-07
-4.4073e-05
-1.66969e-07
-4.41249e-05
-1.89321e-07
-4.41812e-05
-2.02887e-07
-4.4241e-05
-2.10841e-07
-4.43034e-05
-2.15437e-07
-4.43681e-05
-2.18006e-07
-4.4435e-05
-2.19407e-07
-4.4504e-05
-2.201e-07
-4.4575e-05
-2.20405e-07
-4.46479e-05
-2.20459e-07
-4.47228e-05
-2.2038e-07
-4.47997e-05
-2.20203e-07
-4.48786e-05
-2.19971e-07
-4.49594e-05
-2.19682e-07
-4.50421e-05
-2.19355e-07
-4.51268e-05
-2.18969e-07
-4.52135e-05
-2.1854e-07
-4.53021e-05
-2.18054e-07
-4.53926e-05
-2.17575e-07
-4.5485e-05
-2.17097e-07
-4.55794e-05
-2.1664e-07
-4.56756e-05
-2.16183e-07
-4.57738e-05
-2.15531e-07
-4.58741e-05
-2.14643e-07
-4.59767e-05
-2.13656e-07
-4.60816e-05
-2.12602e-07
-4.61889e-05
-2.11558e-07
-4.62986e-05
-2.10527e-07
-4.64106e-05
-2.09544e-07
-4.65248e-05
-2.08602e-07
-4.66413e-05
-2.07719e-07
-4.676e-05
-2.06873e-07
-4.68809e-05
-2.06094e-07
-4.70039e-05
-2.05399e-07
-4.71288e-05
-2.04818e-07
-4.72557e-05
-2.04349e-07
-4.73844e-05
-2.04011e-07
-4.75149e-05
-2.03804e-07
-4.7647e-05
-2.03737e-07
-4.77806e-05
-2.03811e-07
-4.79157e-05
-2.04023e-07
-4.80521e-05
-2.04365e-07
-4.81898e-05
-2.0483e-07
-4.83286e-05
-2.05387e-07
-4.84684e-05
-2.06036e-07
-4.86092e-05
-2.06747e-07
-4.87507e-05
-2.07579e-07
-4.88931e-05
-2.08425e-07
-4.9036e-05
-2.09284e-07
-4.91795e-05
-2.10104e-07
-4.93235e-05
-2.10814e-07
-4.94679e-05
-2.11404e-07
-4.96127e-05
-2.11806e-07
-4.97578e-05
-2.11998e-07
-4.99031e-05
-2.11919e-07
-5.00488e-05
-2.11524e-07
-5.01948e-05
-2.10747e-07
-5.03411e-05
-2.09525e-07
-5.0488e-05
-2.07802e-07
-5.06353e-05
-2.05515e-07
-5.07833e-05
-2.02609e-07
-5.09319e-05
-1.99026e-07
-5.10814e-05
-1.94767e-07
-5.12319e-05
-1.898e-07
-5.13834e-05
-1.8415e-07
-5.15362e-05
-1.77873e-07
-5.16904e-05
-1.712e-07
-5.1846e-05
-1.64368e-07
-5.20033e-05
-1.57517e-07
-5.21623e-05
-1.51065e-07
-5.23232e-05
-1.4552e-07
-5.24862e-05
-1.41492e-07
-5.26512e-05
-1.39673e-07
-5.28184e-05
-1.40945e-07
-5.29877e-05
-1.46274e-07
-5.31591e-05
-1.567e-07
-5.33328e-05
-1.73389e-07
-5.35087e-05
-1.9753e-07
-5.36872e-05
-2.30395e-07
-5.38681e-05
-2.73903e-07
-5.40515e-05
-3.28809e-07
-5.4238e-05
-3.95108e-07
-5.44277e-05
-4.73911e-07
-5.46207e-05
-5.64388e-07
-5.48172e-05
-6.63816e-07
-5.50165e-05
-7.6802e-07
-5.52171e-05
-8.69399e-07
-5.54152e-05
-9.5579e-07
-5.56032e-05
-1.00903e-06
-5.57669e-05
-1.00359e-06
-5.58831e-05
-9.04004e-07
-5.59072e-05
-6.69668e-07
-5.57983e-05
-1.76059e-07
-5.54443e-05
7.81795e-07
-5.47225e-05
2.46291e-06
-5.3321e-05
5.47794e-06
-5.05181e-05
1.06173e-05
1.76153e-05
-4.49232e-05
-4.69316e-05
-5.47859e-08
-4.69792e-05
-8.41787e-08
-4.70406e-05
-1.06025e-07
-4.71105e-05
-1.19878e-07
-4.7186e-05
-1.27913e-07
-4.72654e-05
-1.32153e-07
-4.73475e-05
-1.34057e-07
-4.74317e-05
-1.34577e-07
-4.75178e-05
-1.34279e-07
-4.76054e-05
-1.33516e-07
-4.76945e-05
-1.32493e-07
-4.77849e-05
-1.31326e-07
-4.78767e-05
-1.30087e-07
-4.79697e-05
-1.28805e-07
-4.8064e-05
-1.27513e-07
-4.81595e-05
-1.26201e-07
-4.82563e-05
-1.24896e-07
-4.83542e-05
-1.23566e-07
-4.84532e-05
-1.22248e-07
-4.85535e-05
-1.20916e-07
-4.86548e-05
-1.19627e-07
-4.87573e-05
-1.1836e-07
-4.88609e-05
-1.17121e-07
-4.89658e-05
-1.15792e-07
-4.90717e-05
-1.14491e-07
-4.91786e-05
-1.13199e-07
-4.92862e-05
-1.11898e-07
-4.93946e-05
-1.10574e-07
-4.95037e-05
-1.09352e-07
-4.96135e-05
-1.08211e-07
-4.97239e-05
-1.0722e-07
-4.98349e-05
-1.06341e-07
-4.99463e-05
-1.05618e-07
-5.00583e-05
-1.04991e-07
-5.01706e-05
-1.04501e-07
-5.02834e-05
-1.04182e-07
-5.03964e-05
-1.04062e-07
-5.05097e-05
-1.0413e-07
-5.06232e-05
-1.04399e-07
-5.07369e-05
-1.0487e-07
-5.08507e-05
-1.05546e-07
-5.09646e-05
-1.06428e-07
-5.10785e-05
-1.07503e-07
-5.11924e-05
-1.08762e-07
-5.13063e-05
-1.10192e-07
-5.14201e-05
-1.11762e-07
-5.15338e-05
-1.13465e-07
-5.16474e-05
-1.15267e-07
-5.17608e-05
-1.17192e-07
-5.18741e-05
-1.19149e-07
-5.19872e-05
-1.21102e-07
-5.21002e-05
-1.22998e-07
-5.22132e-05
-1.24766e-07
-5.2326e-05
-1.26355e-07
-5.24389e-05
-1.27693e-07
-5.25519e-05
-1.28735e-07
-5.2665e-05
-1.29399e-07
-5.27784e-05
-1.2961e-07
-5.28922e-05
-1.29287e-07
-5.30067e-05
-1.28347e-07
-5.31218e-05
-1.26718e-07
-5.32379e-05
-1.24321e-07
-5.33551e-05
-1.21097e-07
-5.34735e-05
-1.16987e-07
-5.35935e-05
-1.11948e-07
-5.37151e-05
-1.05973e-07
-5.38386e-05
-9.9073e-08
-5.39643e-05
-9.12391e-08
-5.40924e-05
-8.27632e-08
-5.42228e-05
-7.40144e-08
-5.4356e-05
-6.48925e-08
-5.44921e-05
-5.59264e-08
-5.46313e-05
-4.76447e-08
-5.47738e-05
-4.06427e-08
-5.49197e-05
-3.5637e-08
-5.50692e-05
-3.35036e-08
-5.52225e-05
-3.5249e-08
-5.53798e-05
-4.19038e-08
-5.55411e-05
-5.4564e-08
-5.57069e-05
-7.44922e-08
-5.58775e-05
-1.02525e-07
-5.60533e-05
-1.41002e-07
-5.62339e-05
-1.91234e-07
-5.64205e-05
-2.51575e-07
-5.66133e-05
-3.24403e-07
-5.68119e-05
-4.09269e-07
-5.70164e-05
-5.0292e-07
-5.72258e-05
-6.02525e-07
-5.74373e-05
-7.01944e-07
-5.76458e-05
-7.91562e-07
-5.78416e-05
-8.57682e-07
-5.80081e-05
-8.81829e-07
-5.81173e-05
-8.39573e-07
-5.8128e-05
-7.0361e-07
-5.79606e-05
-3.8798e-07
-5.74795e-05
2.56827e-07
-5.6491e-05
1.4298e-06
-5.45863e-05
3.52381e-06
-5.10349e-05
7.0079e-06
1.14305e-05
-4.49082e-05
-4.93006e-05
-2.22324e-08
-4.93536e-05
-3.16185e-08
-4.94195e-05
-4.05928e-08
-4.94938e-05
-4.61148e-08
-4.95733e-05
-4.90015e-08
-4.96559e-05
-5.01547e-08
-4.97405e-05
-5.02388e-08
-4.98262e-05
-4.97162e-08
-4.99125e-05
-4.88428e-08
-4.99993e-05
-4.7799e-08
-5.00862e-05
-4.6671e-08
-5.01733e-05
-4.55229e-08
-5.02604e-05
-4.43768e-08
-5.03475e-05
-4.32511e-08
-5.04346e-05
-4.21532e-08
-5.05216e-05
-4.10797e-08
-5.06085e-05
-4.00366e-08
-5.06953e-05
-3.90105e-08
-5.0782e-05
-3.80174e-08
-5.08685e-05
-3.70531e-08
-5.0955e-05
-3.61392e-08
-5.10412e-05
-3.52693e-08
-5.11274e-05
-3.44298e-08
-5.12134e-05
-3.35315e-08
-5.12991e-05
-3.27524e-08
-5.13845e-05
-3.21394e-08
-5.14695e-05
-3.16408e-08
-5.15539e-05
-3.11743e-08
-5.16378e-05
-3.08146e-08
-5.17213e-05
-3.05334e-08
-5.18043e-05
-3.03983e-08
-5.18868e-05
-3.03703e-08
-5.1969e-05
-3.04692e-08
-5.20508e-05
-3.06203e-08
-5.21324e-05
-3.08834e-08
-5.22137e-05
-3.12751e-08
-5.22948e-05
-3.18542e-08
-5.23757e-05
-3.25803e-08
-5.24566e-05
-3.34664e-08
-5.25374e-05
-3.45302e-08
-5.26182e-05
-3.57517e-08
-5.2699e-05
-3.71462e-08
-5.278e-05
-3.869e-08
-5.28611e-05
-4.03809e-08
-5.29424e-05
-4.21983e-08
-5.30239e-05
-4.41267e-08
-5.31058e-05
-4.61309e-08
-5.3188e-05
-4.82155e-08
-5.32707e-05
-5.03145e-08
-5.33538e-05
-5.2424e-08
-5.34376e-05
-5.44739e-08
-5.35219e-05
-5.63756e-08
-5.3607e-05
-5.80974e-08
-5.36928e-05
-5.95422e-08
-5.37796e-05
-6.06643e-08
-5.38673e-05
-6.13925e-08
-5.39561e-05
-6.16447e-08
-5.4046e-05
-6.13209e-08
-5.41373e-05
-6.03295e-08
-5.423e-05
-5.85838e-08
-5.43243e-05
-5.59992e-08
-5.44204e-05
-5.24954e-08
-5.45183e-05
-4.80056e-08
-5.46182e-05
-4.24731e-08
-5.47204e-05
-3.58373e-08
-5.48248e-05
-2.81025e-08
-5.49317e-05
-1.92756e-08
-5.50412e-05
-9.42482e-09
-5.51535e-05
1.41615e-09
-5.52687e-05
1.25177e-08
-5.53871e-05
2.42398e-08
-5.55086e-05
3.59396e-08
-5.56336e-05
4.71313e-08
-5.57622e-05
5.72415e-08
-5.58946e-05
6.55537e-08
-5.60309e-05
7.12445e-08
-5.61716e-05
7.33652e-08
-5.63169e-05
7.09202e-08
-5.64671e-05
6.28365e-08
-5.66227e-05
4.79739e-08
-5.67836e-05
2.49667e-08
-5.69512e-05
-6.91912e-09
-5.71245e-05
-5.17588e-08
-5.73058e-05
-1.04588e-07
-5.7495e-05
-1.69956e-07
-5.76909e-05
-2.48722e-07
-5.78944e-05
-3.35587e-07
-5.81038e-05
-4.30171e-07
-5.8316e-05
-5.27939e-07
-5.8525e-05
-6.22064e-07
-5.87202e-05
-7.03607e-07
-5.88837e-05
-7.6132e-07
-5.89863e-05
-7.82475e-07
-5.89869e-05
-7.51131e-07
-5.87968e-05
-6.29651e-07
-5.82523e-05
-3.42361e-07
-5.70987e-05
2.21175e-07
-5.48802e-05
1.24892e-06
-5.08789e-05
2.94518e-06
5.02429e-06
-4.45263e-05
-5.06633e-05
1.66761e-08
-5.07142e-05
1.89294e-08
-5.07765e-05
2.13163e-08
-5.08461e-05
2.30535e-08
-5.09197e-05
2.42297e-08
-5.09954e-05
2.50475e-08
-5.10718e-05
2.55906e-08
-5.11481e-05
2.59616e-08
-5.12238e-05
2.61933e-08
-5.12987e-05
2.6325e-08
-5.13726e-05
2.63796e-08
-5.14454e-05
2.63699e-08
-5.15171e-05
2.6321e-08
-5.15877e-05
2.62371e-08
-5.16571e-05
2.614e-08
-5.17255e-05
2.60285e-08
-5.17929e-05
2.59257e-08
-5.18593e-05
2.58233e-08
-5.19247e-05
2.57391e-08
-5.19892e-05
2.56514e-08
-5.20529e-05
2.55762e-08
-5.21157e-05
2.54917e-08
-5.21778e-05
2.54438e-08
-5.22392e-05
2.54244e-08
-5.23e-05
2.53771e-08
-5.23602e-05
2.52547e-08
-5.24199e-05
2.51085e-08
-5.24792e-05
2.49498e-08
-5.25383e-05
2.47756e-08
-5.2597e-05
2.45644e-08
-5.26556e-05
2.42889e-08
-5.2714e-05
2.39151e-08
-5.27724e-05
2.35339e-08
-5.28308e-05
2.31948e-08
-5.28894e-05
2.2803e-08
-5.29482e-05
2.2339e-08
-5.30073e-05
2.17549e-08
-5.30668e-05
2.10766e-08
-5.31266e-05
2.02985e-08
-5.3187e-05
1.94001e-08
-5.32478e-05
1.83973e-08
-5.33093e-05
1.7279e-08
-5.33715e-05
1.606e-08
-5.34343e-05
1.47465e-08
-5.34979e-05
1.33515e-08
-5.35624e-05
1.18889e-08
-5.36277e-05
1.03967e-08
-5.36939e-05
8.86721e-09
-5.37611e-05
7.38232e-09
-5.38293e-05
5.92653e-09
-5.38986e-05
4.58385e-09
-5.3969e-05
3.44627e-09
-5.40406e-05
2.5336e-09
-5.41134e-05
1.96381e-09
-5.41875e-05
1.77618e-09
-5.42629e-05
2.04035e-09
-5.43397e-05
2.84782e-09
-5.44181e-05
4.32442e-09
-5.4498e-05
6.56911e-09
-5.45796e-05
9.67273e-09
-5.4663e-05
1.37268e-08
-5.47482e-05
1.8812e-08
-5.48355e-05
2.50069e-08
-5.49249e-05
3.23687e-08
-5.50166e-05
4.09591e-08
-5.51105e-05
5.07775e-08
-5.5207e-05
6.18154e-08
-5.5306e-05
7.39562e-08
-5.54076e-05
8.71919e-08
-5.55124e-05
1.01213e-07
-5.56202e-05
1.15864e-07
-5.57313e-05
1.30713e-07
-5.58459e-05
1.45281e-07
-5.59642e-05
1.58994e-07
-5.60863e-05
1.71166e-07
-5.62127e-05
1.8099e-07
-5.63435e-05
1.87556e-07
-5.64791e-05
1.89882e-07
-5.66197e-05
1.86914e-07
-5.67658e-05
1.77459e-07
-5.69174e-05
1.60051e-07
-5.70744e-05
1.33622e-07
-5.72396e-05
9.71409e-08
-5.74106e-05
5.06764e-08
-5.75897e-05
-5.89941e-09
-5.77747e-05
-7.83392e-08
-5.79673e-05
-1.57145e-07
-5.8165e-05
-2.46293e-07
-5.83642e-05
-3.42292e-07
-5.85585e-05
-4.41119e-07
-5.87367e-05
-5.38635e-07
-5.88806e-05
-6.30815e-07
-5.89617e-05
-7.15418e-07
-5.89348e-05
-7.93133e-07
-5.87165e-05
-8.64998e-07
-5.81425e-05
-9.37124e-07
-5.69297e-05
-1.01716e-06
-5.45892e-05
-1.11834e-06
-5.04066e-05
-1.25947e-06
-1.38085e-06
-4.40082e-05
-5.04141e-05
5.45309e-08
-5.04656e-05
7.02224e-08
-5.05289e-05
8.44022e-08
-5.05997e-05
9.36222e-08
-5.06749e-05
9.91284e-08
-5.07523e-05
1.02177e-07
-5.08307e-05
1.03628e-07
-5.09092e-05
1.04113e-07
-5.09873e-05
1.03965e-07
-5.10648e-05
1.0343e-07
-5.11416e-05
1.02639e-07
-5.12174e-05
1.01687e-07
-5.12923e-05
1.00636e-07
-5.13662e-05
9.95235e-08
-5.14391e-05
9.83854e-08
-5.1511e-05
9.72338e-08
-5.15819e-05
9.60997e-08
-5.16519e-05
9.49786e-08
-5.1721e-05
9.38973e-08
-5.17892e-05
9.28353e-08
-5.18565e-05
9.18194e-08
-5.1923e-05
9.08217e-08
-5.19887e-05
8.98916e-08
-5.20536e-05
8.89894e-08
-5.21178e-05
8.8132e-08
-5.21813e-05
8.72574e-08
-5.22443e-05
8.64334e-08
-5.23067e-05
8.56094e-08
-5.23686e-05
8.48411e-08
-5.24301e-05
8.40544e-08
-5.24912e-05
8.32902e-08
-5.25519e-05
8.2389e-08
-5.26123e-05
8.15703e-08
-5.26725e-05
8.0901e-08
-5.27326e-05
8.02665e-08
-5.27927e-05
7.95773e-08
-5.28527e-05
7.88736e-08
-5.29129e-05
7.81209e-08
-5.29731e-05
7.7322e-08
-5.30336e-05
7.64898e-08
-5.30944e-05
7.56087e-08
-5.31555e-05
7.469e-08
-5.32171e-05
7.37281e-08
-5.32791e-05
7.27435e-08
-5.33417e-05
7.17334e-08
-5.34049e-05
7.07231e-08
-5.34688e-05
6.97362e-08
-5.35334e-05
6.87885e-08
-5.35988e-05
6.79286e-08
-5.36651e-05
6.71731e-08
-5.37323e-05
6.65942e-08
-5.38004e-05
6.62642e-08
-5.38696e-05
6.623e-08
-5.39398e-05
6.65912e-08
-5.40112e-05
6.74224e-08
-5.40838e-05
6.87946e-08
-5.41578e-05
7.08015e-08
-5.42331e-05
7.35573e-08
-5.43099e-05
7.71711e-08
-5.43883e-05
8.1741e-08
-5.44684e-05
8.73699e-08
-5.45502e-05
9.41467e-08
-5.46338e-05
1.02155e-07
-5.47194e-05
1.11458e-07
-5.48072e-05
1.22117e-07
-5.48971e-05
1.34143e-07
-5.49893e-05
1.47531e-07
-5.50841e-05
1.62219e-07
-5.51814e-05
1.78128e-07
-5.52815e-05
1.95056e-07
-5.53846e-05
2.12786e-07
-5.54907e-05
2.30937e-07
-5.56003e-05
2.4906e-07
-5.57133e-05
2.66594e-07
-5.58303e-05
2.82882e-07
-5.59513e-05
2.97148e-07
-5.60767e-05
3.08513e-07
-5.6207e-05
3.16022e-07
-5.63423e-05
3.18633e-07
-5.64831e-05
3.15152e-07
-5.66299e-05
3.04302e-07
-5.67831e-05
2.84864e-07
-5.69433e-05
2.56033e-07
-5.71101e-05
2.16814e-07
-5.72825e-05
1.66533e-07
-5.74636e-05
1.03869e-07
-5.7649e-05
3.0721e-08
-5.78378e-05
-5.33717e-08
-5.80272e-05
-1.47375e-07
-5.82101e-05
-2.5091e-07
-5.83754e-05
-3.64127e-07
-5.8505e-05
-4.89994e-07
-5.85711e-05
-6.35822e-07
-5.85278e-05
-8.20388e-07
-5.82917e-05
-1.0822e-06
-5.77113e-05
-1.49542e-06
-5.65087e-05
-2.19416e-06
-5.41945e-05
-3.40315e-06
-5.00741e-05
-5.34696e-06
-7.6528e-06
-4.37667e-05
-4.87188e-05
8.31362e-08
-4.87695e-05
1.20819e-07
-4.88329e-05
1.47753e-07
-4.89048e-05
1.65342e-07
-4.89819e-05
1.7618e-07
-4.90625e-05
1.82558e-07
-4.91452e-05
1.86176e-07
-4.92293e-05
1.88061e-07
-4.93144e-05
1.88888e-07
-4.94002e-05
1.8904e-07
-4.94866e-05
1.88772e-07
-4.95733e-05
1.88234e-07
-4.96605e-05
1.8752e-07
-4.97479e-05
1.86691e-07
-4.98356e-05
1.85786e-07
-4.99236e-05
1.8483e-07
-5.00117e-05
1.83848e-07
-5.00999e-05
1.82846e-07
-5.01883e-05
1.81838e-07
-5.02768e-05
1.80821e-07
-5.03652e-05
1.79805e-07
-5.04537e-05
1.78774e-07
-5.05421e-05
1.77749e-07
-5.06305e-05
1.76706e-07
-5.07186e-05
1.75669e-07
-5.08067e-05
1.74607e-07
-5.08946e-05
1.73562e-07
-5.09822e-05
1.7248e-07
-5.10696e-05
1.71406e-07
-5.11568e-05
1.70276e-07
-5.12435e-05
1.69133e-07
-5.133e-05
1.67841e-07
-5.1416e-05
1.66541e-07
-5.15015e-05
1.65217e-07
-5.15862e-05
1.63812e-07
-5.16701e-05
1.62288e-07
-5.17533e-05
1.60769e-07
-5.18358e-05
1.59205e-07
-5.19175e-05
1.57632e-07
-5.19986e-05
1.56068e-07
-5.2079e-05
1.54496e-07
-5.21589e-05