/*--------------------------------*- C++ -*----------------------------------*\
| =========                 |                                                 |
| \\      /  F ield         | OpenFOAM: The Open Source CFD Toolbox           |
|  \\    /   O peration     | Version:  2.1.0                                 |
|   \\  /    A nd           | Web:      www.OpenFOAM.org                      |
|    \\/     M anipulation  |                                                 |
\*---------------------------------------------------------------------------*/
FoamFile
{
    version     2.0;
    format      ascii;
    class       volScalarField;
    location    "0.23";
    object      rho;
}
// * * * * * * * * * * * * * * * * * * * * * * * * * * * * * * * * * * * * * //

dimensions      [1 -3 0 0 0 0 0];

internalField   nonuniform List<scalar> 
6400
(
999.999
999.999
999.999
999.998
999.998
999.998
999.998
999.997
999.997
999.996
999.995
999.995
999.994
999.993
999.992
999.991
999.989
999.988
999.986
999.984
999.981
999.978
999.975
999.972
999.968
999.963
999.958
999.953
999.946
999.939
999.931
999.922
999.912
999.901
999.888
999.874
999.859
999.842
999.823
999.802
999.779
999.753
999.725
999.694
999.661
999.624
999.584
999.54
999.492
999.441
999.385
999.324
999.259
999.188
999.112
999.03
998.941
998.846
998.743
998.633
998.514
998.388
998.252
998.106
997.951
997.785
997.609
997.42
997.22
997.006
996.779
996.538
996.282
996.009
995.72
995.411
995.083
994.732
994.358
993.958
993.531
993.075
992.589
992.073
991.528
990.959
990.373
989.786
989.221
988.724
988.378
988.349
988.961
990.714
993.608
992.771
980.815
964.826
956.77
954.076
999.997
999.996
999.996
999.995
999.994
999.993
999.992
999.991
999.99
999.988
999.986
999.984
999.982
999.979
999.976
999.972
999.968
999.963
999.958
999.952
999.945
999.938
999.929
999.92
999.909
999.897
999.884
999.869
999.852
999.833
999.812
999.789
999.763
999.734
999.703
999.667
999.629
999.586
999.539
999.487
999.429
999.367
999.298
999.223
999.141
999.052
998.955
998.85
998.736
998.612
998.478
998.333
998.177
998.007
997.825
997.628
997.417
997.189
996.945
996.682
996.4
996.099
995.776
995.43
995.061
994.666
994.245
993.795
993.316
992.806
992.263
991.685
991.071
990.419
989.727
988.994
988.217
987.396
986.53
985.618
984.66
983.657
982.61
981.522
980.396
979.238
978.053
976.847
975.623
974.381
973.11
971.775
970.303
968.562
966.384
963.704
960.557
957.151
954.542
952.949
999.994
999.993
999.992
999.99
999.989
999.987
999.985
999.983
999.98
999.977
999.973
999.969
999.965
999.959
999.954
999.947
999.939
999.931
999.921
999.91
999.898
999.884
999.868
999.851
999.832
999.81
999.786
999.759
999.729
999.695
999.658
999.616
999.571
999.52
999.464
999.402
999.334
999.26
999.177
999.087
998.988
998.88
998.761
998.632
998.491
998.338
998.171
997.989
997.793
997.58
997.35
997.101
996.832
996.542
996.23
995.894
995.533
995.146
994.732
994.288
993.813
993.306
992.765
992.189
991.576
990.924
990.232
989.498
988.72
987.898
987.029
986.112
985.147
984.133
983.07
981.959
980.8
979.597
978.352
977.07
975.756
974.416
973.058
971.69
970.321
968.959
967.614
966.293
965.003
963.749
962.532
961.35
960.196
959.06
957.929
956.796
955.59
954.298
953.059
951.969
999.989
999.988
999.985
999.983
999.98
999.977
999.974
999.97
999.965
999.96
999.954
999.947
999.939
999.93
999.92
999.909
999.896
999.882
999.865
999.847
999.826
999.803
999.777
999.748
999.716
999.679
999.639
999.594
999.543
999.488
999.426
999.357
999.282
999.198
999.106
999.004
998.892
998.769
998.635
998.487
998.325
998.149
997.956
997.746
997.518
997.27
997
996.708
996.392
996.05
995.682
995.285
994.858
994.4
993.91
993.385
992.825
992.227
991.592
990.917
990.201
989.444
988.644
987.803
986.918
985.99
985.02
984.009
982.958
981.869
980.744
979.586
978.399
977.187
975.955
974.708
973.452
972.193
970.936
969.69
968.459
967.25
966.068
964.919
963.807
962.736
961.709
960.727
959.791
958.901
958.056
957.253
956.488
955.756
955.051
954.366
953.653
952.904
952.126
951.323
999.982
999.98
999.976
999.972
999.968
999.963
999.957
999.951
999.943
999.935
999.925
999.914
999.902
999.888
999.872
999.854
999.833
999.81
999.784
999.755
999.722
999.685
999.644
999.598
999.546
999.489
999.425
999.353
999.274
999.187
999.09
998.982
998.864
998.733
998.589
998.431
998.258
998.068
997.86
997.634
997.387
997.118
996.826
996.509
996.166
995.796
995.397
994.967
994.506
994.012
993.484
992.92
992.32
991.683
991.008
990.295
989.543
988.754
987.926
987.061
986.16
985.225
984.256
983.257
982.23
981.177
980.101
979.007
977.896
976.774
975.645
974.511
973.377
972.248
971.126
970.016
968.922
967.845
966.791
965.76
964.756
963.781
962.836
961.922
961.04
960.19
959.373
958.588
957.836
957.115
956.426
955.768
955.141
954.543
953.976
953.437
952.896
952.35
951.794
951.238
999.973
999.968
999.963
999.957
999.951
999.943
999.934
999.924
999.913
999.9
999.886
999.869
999.85
999.829
999.805
999.778
999.747
999.713
999.674
999.63
999.582
999.527
999.467
999.399
999.324
999.24
999.147
999.044
998.93
998.805
998.666
998.514
998.347
998.164
997.963
997.744
997.506
997.246
996.965
996.66
996.33
995.975
995.593
995.183
994.743
994.274
993.773
993.242
992.678
992.081
991.453
990.791
990.097
989.371
988.614
987.827
987.01
986.165
985.295
984.4
983.482
982.545
981.589
980.618
979.635
978.641
977.64
976.634
975.626
974.618
973.612
972.612
971.619
970.636
969.664
968.705
967.761
966.832
965.921
965.029
964.155
963.301
962.467
961.653
960.859
960.085
959.331
958.598
957.886
957.195
956.527
955.884
955.269
954.684
954.135
953.629
953.147
952.695
952.289
951.985
999.96
999.954
999.947
999.939
999.93
999.919
999.907
999.893
999.877
999.86
999.839
999.817
999.791
999.762
999.73
999.693
999.653
999.607
999.556
999.499
999.436
999.366
999.288
999.202
999.107
999.003
998.887
998.76
998.622
998.47
998.304
998.123
997.926
997.712
997.481
997.231
996.962
996.673
996.362
996.029
995.673
995.294
994.891
994.463
994.011
993.533
993.03
992.501
991.946
991.367
990.762
990.133
989.48
988.803
988.104
987.384
986.643
985.882
985.104
984.308
983.498
982.673
981.836
980.988
980.13
979.265
978.394
977.518
976.639
975.758
974.877
973.997
973.12
972.247
971.378
970.516
969.66
968.812
967.971
967.14
966.316
965.501
964.695
963.896
963.105
962.321
961.545
960.776
960.016
959.266
958.529
957.811
957.116
956.455
955.836
955.278
954.787
954.368
954.073
954.02
999.949
999.942
999.933
999.923
999.911
999.899
999.884
999.868
999.849
999.828
999.805
999.779
999.749
999.717
999.68
999.64
999.595
999.545
999.49
999.429
999.362
999.288
999.207
999.118
999.021
998.916
998.801
998.676
998.54
998.394
998.236
998.066
997.883
997.687
997.478
997.254
997.015
996.762
996.493
996.207
995.906
995.588
995.253
994.901
994.531
994.144
993.74
993.318
992.878
992.42
991.945
991.452
990.941
990.414
989.869
989.308
988.731
988.137
987.528
986.904
986.265
985.613
984.947
984.269
983.58
982.879
982.169
981.45
980.723
979.989
979.249
978.505
977.756
977.005
976.252
975.497
974.741
973.985
973.227
972.467
971.706
970.941
970.171
969.394
968.609
967.814
967.007
966.187
965.354
964.508
963.652
962.792
961.936
961.097
960.291
959.55
958.938
958.456
958.194
958.344
999.945
999.937
999.929
999.919
999.907
999.895
999.88
999.864
999.847
999.827
999.805
999.781
999.754
999.725
999.692
999.656
999.617
999.574
999.527
999.475
999.42
999.359
999.293
999.222
999.146
999.063
998.974
998.879
998.776
998.667
998.55
998.426
998.293
998.153
998.003
997.845
997.678
997.501
997.315
997.119
996.913
996.696
996.469
996.231
995.982
995.723
995.451
995.169
994.874
994.569
994.251
993.922
993.58
993.227
992.862
992.485
992.097
991.697
991.286
990.863
990.43
989.985
989.531
989.067
988.593
988.11
987.619
987.12
986.614
986.101
985.581
985.055
984.522
983.983
983.438
982.888
982.331
981.769
981.202
980.628
980.049
979.464
978.871
978.265
977.643
977
976.332
975.635
974.905
974.137
973.33
972.481
971.592
970.667
969.714
968.751
967.857
967.189
966.809
966.975
999.954
999.948
999.941
999.933
999.925
999.915
999.905
999.893
999.88
999.866
999.851
999.834
999.815
999.795
999.772
999.748
999.722
999.693
999.662
999.628
999.592
999.553
999.511
999.465
999.416
999.364
999.308
999.249
999.185
999.117
999.045
998.969
998.887
998.801
998.71
998.614
998.512
998.405
998.292
998.174
998.049
997.919
997.783
997.64
997.491
997.336
997.174
997.006
996.831
996.65
996.462
996.268
996.067
995.859
995.646
995.426
995.2
994.968
994.73
994.487
994.238
993.984
993.726
993.463
993.196
992.925
992.65
992.372
992.092
991.809
991.526
991.242
990.958
990.675
990.393
990.112
989.833
989.556
989.279
989.004
988.728
988.45
988.17
987.892
987.616
987.343
987.063
986.774
986.474
986.159
985.827
985.475
985.1
984.699
984.266
983.797
983.278
982.746
982.402
982.46
999.971
999.968
999.964
999.959
999.954
999.949
999.943
999.936
999.929
999.921
999.912
999.903
999.892
999.881
999.869
999.855
999.84
999.825
999.807
999.789
999.769
999.747
999.724
999.7
999.673
999.644
999.614
999.582
999.547
999.51
999.471
999.43
999.386
999.34
999.291
999.239
999.185
999.128
999.068
999.006
998.94
998.872
998.8
998.726
998.649
998.569
998.485
998.399
998.31
998.219
998.124
998.027
997.927
997.824
997.72
997.612
997.503
997.392
997.279
997.165
997.05
996.934
996.817
996.7
996.583
996.468
996.353
996.24
996.13
996.023
995.92
995.821
995.728
995.64
995.559
995.485
995.419
995.361
995.312
995.272
995.241
995.219
995.205
995.201
995.203
995.213
995.239
995.281
995.339
995.413
995.504
995.615
995.749
995.908
996.097
996.318
996.573
996.861
997.177
997.502
999.985
999.983
999.981
999.979
999.976
999.973
999.97
999.967
999.964
999.96
999.956
999.951
999.946
999.941
999.935
999.928
999.921
999.914
999.906
999.897
999.888
999.878
999.867
999.856
999.843
999.83
999.816
999.802
999.786
999.769
999.751
999.733
999.713
999.692
999.67
999.647
999.623
999.598
999.571
999.544
999.515
999.486
999.455
999.424
999.391
999.358
999.323
999.288
999.252
999.216
999.178
999.141
999.102
999.064
999.025
998.986
998.947
998.908
998.87
998.832
998.795
998.759
998.724
998.69
998.658
998.629
998.601
998.576
998.554
998.536
998.521
998.51
998.504
998.503
998.507
998.516
998.53
998.55
998.576
998.607
998.644
998.685
998.731
998.781
998.834
998.889
998.946
999.004
999.064
999.128
999.196
999.266
999.339
999.413
999.488
999.562
999.633
999.7
999.759
999.807
999.992
999.991
999.99
999.989
999.988
999.987
999.985
999.984
999.982
999.981
999.979
999.976
999.974
999.972
999.969
999.966
999.963
999.96
999.956
999.953
999.949
999.944
999.94
999.935
999.93
999.925
999.919
999.913
999.907
999.9
999.894
999.887
999.879
999.872
999.864
999.855
999.847
999.838
999.829
999.82
999.811
999.801
999.791
999.781
999.771
999.761
999.75
999.74
999.729
999.719
999.709
999.699
999.688
999.679
999.669
999.66
999.651
999.643
999.635
999.628
999.621
999.615
999.61
999.606
999.603
999.601
999.601
999.602
999.604
999.607
999.613
999.619
999.628
999.638
999.65
999.664
999.679
999.695
999.713
999.732
999.752
999.772
999.792
999.812
999.832
999.852
999.87
999.886
999.902
999.915
999.927
999.939
999.949
999.959
999.968
999.975
999.982
999.987
999.991
999.993
999.996
999.996
999.995
999.995
999.994
999.994
999.993
999.992
999.992
999.991
999.99
999.989
999.988
999.987
999.986
999.985
999.983
999.982
999.981
999.979
999.977
999.976
999.974
999.972
999.97
999.968
999.966
999.964
999.961
999.959
999.957
999.954
999.952
999.949
999.947
999.944
999.941
999.939
999.936
999.934
999.931
999.928
999.926
999.923
999.921
999.918
999.916
999.914
999.911
999.909
999.907
999.906
999.904
999.902
999.901
999.9
999.899
999.899
999.898
999.898
999.898
999.899
999.899
999.9
999.902
999.904
999.906
999.908
999.911
999.914
999.918
999.921
999.925
999.93
999.935
999.939
999.945
999.95
999.955
999.96
999.965
999.97
999.974
999.978
999.982
999.986
999.988
999.991
999.993
999.995
999.996
999.997
999.998
999.998
999.999
999.999
999.999
1000
1000
1000
999.998
999.998
999.998
999.998
999.997
999.997
999.997
999.997
999.996
999.996
999.995
999.995
999.995
999.994
999.994
999.993
999.993
999.992
999.992
999.991
999.99
999.99
999.989
999.988
999.988
999.987
999.986
999.985
999.984
999.984
999.983
999.982
999.981
999.98
999.98
999.979
999.978
999.977
999.977
999.976
999.975
999.975
999.974
999.974
999.973
999.973
999.972
999.972
999.972
999.971
999.971
999.971
999.971
999.971
999.971
999.972
999.972
999.972
999.973
999.973
999.974
999.974
999.975
999.976
999.977
999.978
999.979
999.98
999.981
999.982
999.983
999.985
999.986
999.987
999.989
999.99
999.991
999.992
999.993
999.994
999.995
999.996
999.997
999.998
999.998
999.999
999.999
999.999
1000
1000
1000
1000
1000
1000
1000
1000
1000
1000
1000
1000
999.999
999.999
999.999
999.999
999.999
999.999
999.999
999.998
999.998
999.998
999.998
999.998
999.998
999.997
999.997
999.997
999.997
999.997
999.996
999.996
999.996
999.996
999.995
999.995
999.995
999.995
999.994
999.994
999.994
999.993
999.993
999.993
999.993
999.992
999.992
999.992
999.992
999.992
999.991
999.991
999.991
999.991
999.991
999.991
999.991
999.991
999.991
999.991
999.991
999.991
999.991
999.991
999.991
999.991
999.991
999.992
999.992
999.992
999.992
999.993
999.993
999.993
999.994
999.994
999.994
999.995
999.995
999.995
999.996
999.996
999.997
999.997
999.997
999.998
999.998
999.998
999.998
999.999
999.999
999.999
999.999
1000
1000
1000
1000
1000
1000
1000
1000
1000
1000
1000
1000
1000
1000
1000
1000
1000
1000
1000
1000
1000
1000
999.999
999.999
999.999
999.999
999.999
999.999
999.999
999.999
999.999
999.999
999.999
999.999
999.999
999.999
999.998
999.998
999.998
999.998
999.998
999.998
999.998
999.998
999.998
999.998
999.997
999.997
999.997
999.997
999.997
999.997
999.997
999.997
999.997
999.997
999.997
999.997
999.997
999.997
999.997
999.997
999.997
999.997
999.997
999.997
999.997
999.997
999.997
999.997
999.997
999.997
999.997
999.997
999.997
999.998
999.998
999.998
999.998
999.998
999.998
999.998
999.998
999.998
999.999
999.999
999.999
999.999
999.999
999.999
999.999
999.999
999.999
1000
1000
1000
1000
1000
1000
1000
1000
1000
1000
1000
1000
1000
1000
1000
1000
1000
1000
1000
1000
1000
1000
1000
1000
1000
1000
1000
1000
1000
1000
1000
1000
1000
1000
1000
1000
1000
1000
1000
1000
999.999
999.999
999.999
999.999
999.999
999.999
999.999
999.999
999.999
999.999
999.999
999.999
999.999
999.999
999.999
999.999
999.999
999.999
999.999
999.999
999.999
999.999
999.999
999.999
999.999
999.999
999.999
999.999
999.999
999.999
999.999
999.999
999.999
999.999
999.999
999.999
999.999
999.999
999.999
999.999
999.999
999.999
999.999
999.999
999.999
999.999
999.999
999.999
999.999
1000
1000
1000
1000
1000
1000
1000
1000
1000
1000
1000
1000
1000
1000
1000
1000
1000
1000
1000
1000
1000
1000
1000
1000
1000
1000
1000
1000
1000
1000
1000
1000
1000
1000
1000
1000
1000
1000
1000
1000
1000
1000
1000
1000
1000
1000
1000
1000
1000
1000
1000
1000
1000
1000
1000
1000
1000
1000
1000
1000
1000
1000
1000
1000
1000
1000
1000
1000
1000
1000
1000
1000
1000
1000
1000
1000
1000
1000
1000
1000
1000
1000
1000
1000
1000
1000
1000
1000
1000
1000
1000
1000
1000
1000
1000
1000
1000
1000
1000
1000
1000
1000
1000
1000
1000
1000
1000
1000
1000
1000
1000
1000
1000
1000
1000
1000
1000
1000
1000
1000
1000
1000
1000
1000
1000
1000
1000
1000
1000
1000
1000
1000
1000
1000
1000
1000
1000
1000
1000
1000
1000
1000
1000
1000
1000
1000
1000
1000
1000
1000
1000
1000
1000
1000
1000
1000
1000
1000
1000
1000
1000
1000
1000
1000
1000
1000
1000
1000
1000
1000
1000
1000
1000
1000
1000
1000
1000
1000
1000
1000
1000
1000
1000
1000
1000
1000
1000
1000
1000
1000
1000
1000
1000
1000
1000
1000
1000
1000
1000
1000
1000
1000
1000
1000
1000
1000
1000
1000
1000
1000
1000
1000
1000
1000
1000
1000
1000
1000
1000
1000
1000
1000
1000
1000
1000
1000
1000
1000
1000
1000
1000
1000
1000
1000
1000
1000
1000
953.226
949.219
948.457
948.436
948.614
948.852
949.122
949.425
949.776
950.202
950.747
951.474
952.477
953.886
955.879
958.681
962.579
967.97
975.403
985.856
951.818
949.17
948.748
948.865
949.129
949.445
949.796
950.191
950.652
951.212
951.924
952.859
954.118
955.834
958.175
961.346
965.617
971.335
978.973
989.516
950.788
949.317
949.212
949.464
949.825
950.236
950.693
951.211
951.817
952.553
953.476
954.662
956.216
958.262
960.953
964.478
969.077
975.046
982.769
993.046
950.384
949.783
949.946
950.333
950.808
951.34
951.937
952.616
953.412
954.368
955.543
957.016
958.884
961.256
964.272
968.1
972.945
979.04
986.653
996.012
950.726
950.712
951.101
951.637
952.256
952.948
953.727
954.613
955.642
956.855
958.306
960.072
962.233
964.888
968.161
972.199
977.164
983.197
990.408
998.093
951.966
952.348
952.952
953.669
954.477
955.377
956.383
957.515
958.8
960.264
961.969
963.976
966.354
969.198
972.617
976.732
981.635
987.359
993.787
999.259
954.5
955.188
956.023
956.963
958
959.136
960.376
961.728
963.198
964.84
966.703
968.841
971.315
974.215
977.624
981.612
986.202
991.326
996.544
999.77
959.275
960.214
961.266
962.407
963.623
964.903
966.242
967.661
969.184
970.87
972.743
974.844
977.231
979.962
983.096
986.669
990.663
994.846
998.464
999.941
968.058
969.067
970.143
971.262
972.402
973.567
974.771
976.047
977.43
978.91
980.511
982.258
984.205
986.384
988.878
991.696
994.748
997.584
999.482
999.98
983.155
983.799
984.481
985.172
985.863
986.576
987.331
988.101
988.896
989.716
990.575
991.499
992.511
993.656
994.995
996.527
998.068
999.273
999.881
999.989
997.779
997.836
997.912
998.004
998.126
998.265
998.402
998.541
998.681
998.824
998.973
999.129
999.292
999.471
999.632
999.764
999.861
999.934
999.989
999.998
999.834
999.833
999.835
999.838
999.845
999.856
999.869
999.884
999.898
999.912
999.927
999.941
999.955
999.968
999.979
999.987
999.993
999.997
1000
1000
999.994
999.994
999.993
999.993
999.993
999.993
999.993
999.993
999.994
999.995
999.996
999.997
999.998
999.999
999.999
999.999
1000
1000
1000
1000
1000
1000
1000
1000
1000
1000
1000
1000
1000
1000
1000
1000
1000
1000
1000
1000
1000
1000
1000
1000
1000
1000
1000
1000
1000
1000
1000
1000
1000
1000
1000
1000
1000
1000
1000
1000
1000
1000
1000
1000
1000
1000
1000
1000
1000
1000
1000
1000
1000
1000
1000
1000
1000
1000
1000
1000
1000
1000
1000
1000
1000
1000
1000
1000
1000
1000
1000
1000
1000
1000
1000
1000
1000
1000
1000
1000
1000
1000
1000
1000
1000
1000
1000
1000
1000
1000
1000
1000
1000
1000
1000
1000
1000
1000
1000
1000
1000
1000
1000
1000
1000
1000
1000
1000
1000
1000
1000
1000
1000
1000
1000
1000
1000
1000
1000
1000
1000
1000
1000
1000
1000
1000
1000
1000
1000
1000
1000
1000
1000
1000
1000
1000
1000
1000
1000
1000
1000
1000
1000
1000
944.555
944.555
944.555
944.555
944.555
944.555
944.555
944.555
944.555
944.555
944.555
944.555
944.555
944.555
944.555
944.555
944.555
944.555
944.555
944.555
944.555
944.555
944.555
944.555
944.555
944.555
944.555
944.555
944.555
944.555
944.555
944.555
944.555
944.555
944.555
944.555
944.555
944.555
944.555
944.555
944.555
944.555
944.555
944.555
944.555
944.555
944.555
944.555
944.555
944.555
944.555
944.555
944.555
944.555
944.555
944.555
944.555
944.555
944.555
944.555
944.555
944.555
944.555
944.555
944.555
944.555
944.555
944.555
944.555
944.555
944.555
944.555
944.555
944.555
944.555
944.555
944.555
944.555
944.555
944.555
944.555
944.555
944.555
944.555
944.555
944.555
944.555
944.555
944.555
944.555
944.555
944.555
944.555
944.555
944.555
944.555
944.555
944.555
944.555
944.555
944.555
944.555
944.555
944.555
944.555
944.555
944.555
944.555
944.555
944.555
944.555
944.555
944.555
944.555
944.555
944.555
944.555
944.555
944.555
944.555
944.555
944.555
944.555
944.555
944.555
944.555
944.555
944.555
944.555
944.555
944.555
944.555
944.555
944.555
944.555
944.555
944.555
944.555
944.555
944.555
944.555
944.555
944.555
944.555
944.555
944.555
944.555
944.555
944.555
944.555
944.555
944.555
944.555
944.555
944.555
944.555
944.555
944.555
944.555
944.555
944.555
944.555
944.555
944.555
944.555
944.555
944.555
944.555
944.555
944.555
944.555
944.555
944.555
944.555
944.555
944.555
944.555
944.555
944.555
944.555
944.555
944.555
944.555
944.555
944.555
944.555
944.555
944.555
944.555
944.555
944.555
944.555
944.555
944.555
944.555
944.555
944.555
944.555
944.555
944.555
944.555
944.555
944.555
944.555
944.555
944.555
944.555
944.555
944.555
944.555
944.555
944.555
944.555
944.555
944.555
944.555
944.555
944.555
944.555
944.555
944.555
944.555
944.555
944.555
944.555
944.555
944.555
944.555
944.555
944.555
944.555
944.555
944.555
944.555
944.555
944.555
944.555
944.555
944.555
944.555
944.555
944.555
944.555
944.555
944.555
944.555
944.555
944.555
944.555
944.555
944.555
944.555
944.555
944.555
944.555
944.555
944.555
944.555
944.555
944.555
944.555
944.555
944.555
944.555
944.555
944.555
944.555
944.555
944.555
944.555
944.555
944.555
944.555
944.555
944.555
944.555
944.555
944.555
944.555
944.555
944.555
944.555
944.555
944.555
944.555
944.555
944.555
944.555
944.555
944.555
944.555
944.555
944.555
944.555
944.555
944.555
944.555
944.555
944.555
944.555
944.555
944.555
944.555
944.555
944.555
944.555
944.555
944.555
944.555
944.555
944.555
944.555
944.555
944.555
944.555
944.555
944.555
944.555
944.555
944.555
944.555
944.555
944.555
944.555
944.555
944.555
944.555
944.555
944.555
944.555
944.555
944.555
944.555
944.555
944.555
944.555
944.555
944.555
944.555
944.555
944.555
944.555
944.555
944.555
944.555
944.555
944.555
944.555
944.555
944.555
944.555
944.555
944.555
944.555
944.555
944.555
944.555
944.555
944.555
944.555
944.555
944.555
944.555
944.555
944.555
944.555
944.555
944.555
944.555
944.555
944.555
944.555
944.555
944.555
944.555
944.555
944.555
944.555
944.555
944.555
944.555
944.555
944.555
944.555
944.555
944.555
944.555
944.555
944.555
944.555
944.555
944.555
944.555
944.555
944.555
944.555
944.555
944.555
944.555
944.555
944.555
944.555
944.555
944.555
944.555
944.555
944.555
944.555
944.555
944.555
944.555
944.555
944.555
944.555
944.555
944.555
944.555
944.555
944.555
944.555
944.555
944.555
944.555
944.555
944.555
944.555
944.555
944.555
944.555
944.555
944.555
944.555
944.555
944.555
944.555
944.555
944.555
944.555
944.555
944.555
944.555
944.555
944.555
944.555
944.555
944.555
944.555
944.555
944.555
944.555
944.555
944.555
944.555
944.555
944.555
944.555
944.555
944.555
944.555
944.555
944.555
944.555
944.555
944.555
944.555
944.555
944.555
944.555
944.555
944.555
944.555
944.555
944.555
944.555
944.555
944.555
944.555
944.555
944.555
944.555
944.555
944.555
944.555
944.555
944.555
944.555
944.555
944.555
944.555
944.555
944.555
944.555
944.555
944.555
944.555
944.555
944.555
944.555
944.555
944.555
944.555
944.555
944.555
944.555
944.555
944.555
944.555
944.555
944.555
944.555
944.555
944.555
944.555
944.555
944.555
944.555
944.555
944.555
944.555
944.555
944.555
944.555
944.555
944.555
944.555
944.555
944.555
944.555
944.555
944.555
944.555
944.555
944.555
944.555
944.555
944.555
944.555
944.555
944.555
944.555
944.555
944.555
944.555
944.555
944.555
944.555
944.555
944.555
944.555
944.555
944.555
944.555
944.555
944.555
944.555
944.555
944.555
944.555
944.555
944.555
944.555
944.555
944.555
944.555
944.555
944.555
944.555
944.555
944.555
944.555
944.555
944.555
944.555
944.555
944.555
944.555
944.555
944.555
944.555
944.555
944.555
944.555
944.555
944.555
944.555
944.555
944.555
944.555
944.555
944.555
944.555
944.555
944.555
944.555
944.555
944.555
944.555
944.555
944.555
944.555
944.555
944.555
944.555
944.555
944.555
944.555
944.555
944.555
944.555
944.555
944.555
944.555
944.555
944.555
944.555
944.555
944.555
944.555
944.555
944.555
944.555
944.555
944.555
944.555
944.555
944.555
944.555
944.555
944.555
944.555
944.555
944.555
944.555
944.555
944.555
944.555
944.555
944.555
944.555
944.555
944.555
944.555
944.555
944.555
944.555
944.555
944.555
944.555
944.555
944.555
944.555
944.555
944.555
944.555
944.555
944.555
944.555
944.555
944.555
944.555
944.555
944.555
944.555
944.555
944.555
944.555
944.555
944.555
944.555
944.555
944.555
944.555
944.555
944.555
944.555
944.555
944.555
944.555
944.555
944.555
944.555
944.555
944.555
944.555
944.555
944.555
944.555
944.555
944.555
944.555
944.555
944.555
944.555
944.555
944.555
944.555
944.555
944.555
944.555
944.555
944.555
944.555
944.555
944.555
944.555
944.555
944.555
944.555
944.555
944.555
944.555
944.555
944.555
944.555
944.555
944.555
944.555
944.555
944.555
944.555
944.555
944.555
944.555
944.555
944.555
944.555
944.555
944.555
944.555
944.555
944.555
944.555
944.555
944.555
944.555
944.555
944.555
944.555
944.555
944.555
944.555
944.555
944.555
944.555
944.555
944.555
944.555
944.555
944.555
944.555
944.555
944.555
944.555
944.555
944.555
944.555
944.555
944.555
944.555
944.555
944.555
944.555
944.555
944.555
944.555
944.555
944.555
944.555
944.555
944.555
944.555
944.555
944.555
944.555
944.555
944.555
944.555
944.555
944.555
944.555
944.555
944.555
944.555
944.555
944.555
944.555
944.555
944.555
944.555
944.555
944.555
944.555
944.555
944.555
944.555
944.555
944.555
944.555
944.555
944.555
944.555
944.555
944.555
944.555
944.555
944.555
944.555
944.555
944.555
944.555
944.555
944.555
944.555
944.555
944.555
944.555
944.555
944.555
944.555
944.555
944.555
944.555
944.555
944.555
944.555
944.555
944.555
944.555
944.555
944.555
944.555
944.555
944.555
944.555
944.555
944.555
944.555
944.555
944.555
944.555
944.555
944.555
944.555
944.555
944.555
944.555
944.555
944.555
944.555
944.555
944.555
944.555
944.555
944.555
944.555
944.555
944.555
944.555
944.555
944.555
944.555
944.555
944.555
944.555
944.555
944.555
944.555
944.555
944.555
944.555
944.555
944.555
944.555
944.555
944.555
944.555
944.555
944.555
944.555
944.555
944.555
944.555
944.555
944.555
944.555
944.555
944.555
944.555
944.555
944.555
944.555
944.555
944.555
944.555
944.555
944.555
944.555
944.555
944.555
944.555
944.555
944.555
944.555
944.555
944.555
944.555
944.555
944.555
944.555
944.555
944.555
944.555
944.555
944.555
944.555
944.555
944.555
944.555
944.555
944.555
944.555
944.555
944.555
944.555
944.555
944.555
944.555
944.555
944.555
944.555
944.555
944.555
944.555
944.555
944.555
944.555
944.555
944.555
944.555
944.555
944.555
944.555
944.555
944.555
944.555
944.555
944.555
944.555
944.555
944.555
944.555
944.555
944.555
944.555
944.555
944.555
944.555
944.555
944.555
944.555
944.555
944.555
944.555
944.555
944.555
944.555
944.555
944.555
944.555
944.555
944.555
944.555
944.555
944.555
944.555
944.555
944.555
944.555
944.555
944.555
944.555
944.555
944.555
944.555
944.555
944.555
944.555
944.555
944.555
944.555
944.555
944.555
944.555
944.555
944.555
944.555
944.555
944.555
944.555
944.555
944.555
944.555
944.555
944.555
944.555
944.555
944.555
944.555
944.555
944.555
944.555
944.555
944.555
944.555
944.555
944.555
944.555
944.555
944.555
944.555
944.555
944.555
944.555
944.555
944.555
944.555
944.555
944.555
944.555
944.555
944.555
944.555
944.555
944.555
944.555
944.555
944.555
944.555
944.555
944.555
944.555
944.555
944.555
944.555
944.555
944.555
944.555
944.555
944.555
944.555
944.555
944.555
944.555
944.555
944.555
944.555
944.555
944.555
944.555
944.555
944.555
944.555
944.555
944.555
944.555
944.555
944.555
944.555
944.555
944.555
944.555
944.555
944.555
944.555
944.555
944.555
944.555
944.555
944.555
944.555
944.555
944.555
944.555
944.555
944.555
944.555
944.555
944.555
944.555
944.555
944.555
944.555
944.555
944.555
944.555
944.555
944.555
944.555
944.555
944.555
944.555
944.555
944.555
944.555
944.555
944.555
944.555
944.555
944.555
944.555
944.555
944.555
944.555
944.555
944.555
944.555
944.555
944.555
944.555
944.555
944.555
944.555
944.555
944.555
944.555
944.555
944.555
944.555
944.555
944.555
944.555
944.555
944.555
944.555
944.555
944.555
944.555
944.555
944.555
944.555
944.555
944.555
944.555
944.555
944.555
944.555
944.555
944.555
944.555
944.555
944.555
944.555
944.555
944.555
944.555
944.555
944.555
944.555
944.555
944.555
944.555
944.555
944.555
944.555
944.555
944.555
944.555
944.555
944.555
944.555
944.555
944.555
944.555
944.555
944.555
944.555
944.555
944.555
944.555
944.555
944.555
944.555
944.555
944.555
944.555
944.555
944.555
944.555
944.555
944.555
944.555
944.555
944.555
944.555
944.555
944.555
944.555
944.555
944.555
944.555
944.555
944.555
944.555
944.555
944.555
944.555
944.555
944.555
944.555
944.555
944.555
944.555
944.555
944.555
944.555
944.555
944.555
944.555
944.555
944.555
944.556
944.555
944.555
944.555
944.555
944.555
944.555
944.555
944.555
944.555
944.555
944.555
944.555
944.555
944.555
944.555
944.555
944.555
944.555
944.556
944.557
944.555
944.555
944.555
944.555
944.555
944.555
944.555
944.555
944.555
944.555
944.555
944.555
944.555
944.555
944.555
944.555
944.555
944.555
944.556
944.558
944.555
944.555
944.555
944.555
944.555
944.555
944.555
944.555
944.555
944.555
944.555
944.555
944.555
944.555
944.555
944.555
944.555
944.555
944.558
944.56
944.556
944.555
944.555
944.555
944.555
944.555
944.555
944.555
944.555
944.555
944.555
944.555
944.555
944.555
944.555
944.555
944.555
944.556
944.56
944.563
944.556
944.555
944.555
944.555
944.555
944.555
944.555
944.555
944.555
944.555
944.555
944.555
944.555
944.555
944.555
944.555
944.555
944.556
944.563
944.567
944.557
944.555
944.555
944.555
944.555
944.555
944.555
944.555
944.555
944.555
944.555
944.555
944.555
944.555
944.555
944.555
944.555
944.557
944.567
944.574
944.559
944.556
944.555
944.555
944.555
944.555
944.555
944.555
944.555
944.555
944.555
944.555
944.555
944.555
944.555
944.555
944.556
944.559
944.574
944.585
944.561
944.556
944.555
944.555
944.555
944.555
944.555
944.555
944.555
944.555
944.555
944.555
944.555
944.555
944.555
944.555
944.556
944.561
944.585
944.6
944.564
944.557
944.556
944.555
944.555
944.555
944.555
944.555
944.555
944.555
944.555
944.555
944.555
944.555
944.555
944.556
944.557
944.564
944.6
944.621
944.569
944.559
944.556
944.556
944.556
944.556
944.556
944.556
944.556
944.556
944.556
944.556
944.556
944.556
944.556
944.556
944.559
944.569
944.621
944.651
944.575
944.561
944.557
944.556
944.556
944.556
944.556
944.556
944.556
944.556
944.556
944.556
944.556
944.556
944.556
944.557
944.561
944.575
944.651
944.692