/*--------------------------------*- C++ -*----------------------------------*\
| =========                 |                                                 |
| \\      /  F ield         | OpenFOAM: The Open Source CFD Toolbox           |
|  \\    /   O peration     | Version:  2.1.0                                 |
|   \\  /    A nd           | Web:      www.OpenFOAM.org                      |
|    \\/     M anipulation  |                                                 |
\*---------------------------------------------------------------------------*/
FoamFile
{
    version     2.0;
    format      ascii;
    class       volScalarField;
    location    "0.23";
    object      T;
}
// * * * * * * * * * * * * * * * * * * * * * * * * * * * * * * * * * * * * * //

dimensions      [0 0 0 1 0 0 0];

internalField   nonuniform List<scalar> 
6400
(
293.152
293.152
293.152
293.153
293.153
293.154
293.154
293.155
293.156
293.157
293.158
293.159
293.16
293.162
293.164
293.166
293.168
293.171
293.174
293.178
293.182
293.187
293.192
293.198
293.205
293.213
293.221
293.231
293.242
293.254
293.268
293.283
293.3
293.319
293.34
293.364
293.39
293.42
293.452
293.488
293.527
293.571
293.618
293.671
293.728
293.791
293.86
293.934
294.015
294.103
294.199
294.302
294.413
294.534
294.664
294.804
294.956
295.119
295.294
295.482
295.684
295.901
296.133
296.382
296.648
296.931
297.234
297.556
297.9
298.265
298.654
299.068
299.507
299.975
300.473
301.003
301.568
302.171
302.815
303.504
304.241
305.029
305.869
306.762
307.706
308.692
309.708
310.729
311.711
312.577
313.18
313.232
312.164
309.117
304.109
305.554
326.47
355.252
370.119
375.146
293.155
293.156
293.157
293.158
293.16
293.161
293.163
293.165
293.168
293.171
293.174
293.177
293.181
293.186
293.192
293.198
293.205
293.213
293.221
293.232
293.243
293.256
293.27
293.286
293.305
293.325
293.348
293.374
293.402
293.434
293.47
293.51
293.554
293.603
293.657
293.717
293.783
293.856
293.937
294.025
294.122
294.229
294.346
294.474
294.614
294.766
294.932
295.111
295.306
295.518
295.746
295.994
296.262
296.551
296.863
297.2
297.562
297.952
298.371
298.821
299.304
299.822
300.377
300.971
301.606
302.285
303.011
303.786
304.612
305.494
306.433
307.433
308.497
309.629
310.831
312.108
313.461
314.894
316.409
318.007
319.688
321.453
323.298
325.219
327.211
329.266
331.373
333.524
335.712
337.937
340.222
342.626
345.285
348.44
352.404
357.307
363.099
369.409
374.274
377.258
293.16
293.162
293.164
293.166
293.169
293.172
293.176
293.18
293.184
293.19
293.196
293.202
293.21
293.219
293.229
293.241
293.254
293.268
293.285
293.303
293.324
293.348
293.374
293.404
293.437
293.474
293.515
293.561
293.613
293.67
293.733
293.804
293.882
293.968
294.063
294.169
294.285
294.412
294.553
294.707
294.876
295.061
295.263
295.484
295.725
295.987
296.272
296.582
296.918
297.282
297.677
298.104
298.565
299.062
299.597
300.174
300.793
301.459
302.172
302.937
303.755
304.63
305.564
306.56
307.622
308.752
309.953
311.23
312.584
314.018
315.536
317.141
318.833
320.614
322.486
324.447
326.495
328.628
330.841
333.126
335.474
337.874
340.314
342.778
345.252
347.719
350.163
352.57
354.926
357.224
359.459
361.635
363.764
365.866
367.964
370.07
372.317
374.731
377.051
379.099
293.168
293.171
293.175
293.179
293.183
293.189
293.195
293.201
293.209
293.218
293.229
293.24
293.254
293.269
293.286
293.305
293.327
293.351
293.379
293.411
293.446
293.485
293.53
293.579
293.635
293.696
293.766
293.842
293.928
294.023
294.129
294.245
294.375
294.517
294.675
294.848
295.039
295.249
295.479
295.731
296.007
296.309
296.639
296.998
297.389
297.814
298.276
298.776
299.319
299.905
300.538
301.221
301.954
302.743
303.588
304.494
305.461
306.494
307.595
308.765
310.008
311.324
312.716
314.184
315.73
317.354
319.055
320.832
322.683
324.605
326.595
328.648
330.757
332.916
335.117
337.35
339.605
341.872
344.139
346.394
348.627
350.826
352.98
355.079
357.116
359.082
360.973
362.784
364.513
366.16
367.728
369.22
370.643
372.006
373.323
374.604
375.938
377.343
378.803
380.314
293.18
293.185
293.19
293.197
293.204
293.213
293.223
293.234
293.246
293.261
293.277
293.296
293.317
293.341
293.369
293.399
293.434
293.474
293.518
293.568
293.624
293.686
293.757
293.835
293.923
294.021
294.131
294.252
294.387
294.537
294.702
294.886
295.088
295.311
295.557
295.827
296.123
296.447
296.803
297.191
297.614
298.074
298.575
299.118
299.706
300.341
301.027
301.766
302.56
303.412
304.323
305.297
306.334
307.437
308.607
309.845
311.151
312.526
313.969
315.479
317.056
318.696
320.397
322.155
323.968
325.829
327.734
329.677
331.652
333.653
335.672
337.703
339.739
341.772
343.796
345.803
347.787
349.742
351.662
353.542
355.377
357.164
358.899
360.581
362.206
363.775
365.286
366.74
368.136
369.476
370.758
371.985
373.155
374.271
375.333
376.343
377.356
378.382
379.427
380.473
293.197
293.204
293.213
293.223
293.234
293.247
293.262
293.279
293.298
293.32
293.345
293.373
293.405
293.442
293.483
293.529
293.581
293.64
293.706
293.78
293.863
293.955
294.059
294.174
294.303
294.446
294.604
294.78
294.974
295.189
295.425
295.685
295.971
296.284
296.627
297.001
297.41
297.854
298.336
298.859
299.424
300.034
300.691
301.396
302.152
302.961
303.823
304.741
305.715
306.747
307.836
308.983
310.188
311.45
312.769
314.142
315.569
317.047
318.573
320.145
321.759
323.412
325.099
326.817
328.561
330.326
332.109
333.904
335.706
337.512
339.316
341.116
342.905
344.682
346.441
348.18
349.896
351.586
353.248
354.879
356.479
358.045
359.578
361.076
362.54
363.969
365.363
366.722
368.043
369.327
370.569
371.767
372.915
374.007
375.035
375.983
376.885
377.734
378.496
379.068
293.217
293.228
293.24
293.254
293.27
293.288
293.309
293.332
293.359
293.389
293.424
293.462
293.506
293.555
293.61
293.672
293.742
293.82
293.906
294.003
294.111
294.23
294.363
294.51
294.672
294.851
295.048
295.264
295.502
295.761
296.045
296.354
296.691
297.056
297.452
297.879
298.341
298.837
299.371
299.942
300.553
301.204
301.898
302.634
303.414
304.238
305.107
306.021
306.98
307.984
309.033
310.126
311.261
312.439
313.658
314.916
316.211
317.543
318.908
320.305
321.732
323.185
324.663
326.163
327.682
329.217
330.767
332.327
333.895
335.47
337.047
338.625
340.202
341.774
343.341
344.899
346.448
347.987
349.513
351.027
352.527
354.015
355.491
356.954
358.406
359.846
361.275
362.693
364.097
365.484
366.849
368.182
369.473
370.704
371.857
372.898
373.816
374.598
375.15
375.25
293.236
293.249
293.264
293.281
293.301
293.323
293.348
293.376
293.407
293.443
293.482
293.527
293.577
293.633
293.695
293.764
293.841
293.926
294.02
294.124
294.238
294.364
294.502
294.653
294.819
294.999
295.196
295.409
295.64
295.89
296.16
296.451
296.763
297.099
297.458
297.841
298.249
298.684
299.146
299.635
300.153
300.699
301.275
301.881
302.517
303.184
303.881
304.61
305.37
306.161
306.984
307.837
308.722
309.638
310.584
311.56
312.566
313.601
314.664
315.755
316.872
318.015
319.183
320.374
321.588
322.822
324.075
325.346
326.632
327.933
329.246
330.57
331.902
333.242
334.587
335.937
337.291
338.649
340.011
341.378
342.751
344.132
345.524
346.931
348.355
349.799
351.268
352.763
354.285
355.833
357.402
358.982
360.556
362.102
363.588
364.96
366.092
366.986
367.472
367.193
293.243
293.256
293.272
293.289
293.308
293.33
293.354
293.381
293.411
293.445
293.482
293.523
293.569
293.619
293.675
293.736
293.803
293.877
293.957
294.044
294.139
294.243
294.355
294.476
294.607
294.748
294.9
295.062
295.237
295.424
295.623
295.836
296.062
296.303
296.558
296.829
297.115
297.417
297.736
298.072
298.425
298.797
299.186
299.594
300.022
300.468
300.934
301.42
301.926
302.453
303
303.568
304.157
304.766
305.397
306.048
306.72
307.413
308.125
308.858
309.611
310.382
311.172
311.98
312.806
313.647
314.505
315.376
316.262
317.16
318.071
318.995
319.93
320.878
321.837
322.807
323.789
324.782
325.786
326.801
327.828
328.866
329.918
330.996
332.105
333.252
334.445
335.691
336.999
338.376
339.826
341.353
342.956
344.627
346.352
348.098
349.722
350.937
351.63
351.329
293.228
293.238
293.25
293.263
293.278
293.294
293.312
293.332
293.354
293.378
293.404
293.433
293.465
293.5
293.538
293.579
293.624
293.673
293.726
293.784
293.846
293.912
293.984
294.062
294.145
294.234
294.329
294.431
294.539
294.655
294.778
294.909
295.048
295.195
295.351
295.515
295.689
295.872
296.064
296.267
296.479
296.702
296.936
297.18
297.435
297.701
297.978
298.266
298.565
298.876
299.198
299.532
299.877
300.233
300.6
300.978
301.367
301.766
302.175
302.594
303.022
303.46
303.905
304.359
304.821
305.289
305.763
306.243
306.729
307.218
307.709
308.202
308.694
309.185
309.675
310.162
310.647
311.13
311.611
312.091
312.571
313.055
313.544
314.029
314.511
314.988
315.478
315.982
316.508
317.059
317.641
318.258
318.916
319.621
320.38
321.207
322.121
323.057
323.665
323.563
293.199
293.205
293.212
293.219
293.228
293.237
293.247
293.258
293.271
293.284
293.299
293.316
293.333
293.353
293.374
293.397
293.422
293.449
293.478
293.51
293.544
293.58
293.62
293.662
293.707
293.756
293.808
293.863
293.922
293.985
294.051
294.122
294.197
294.276
294.359
294.447
294.54
294.637
294.739
294.846
294.958
295.074
295.196
295.323
295.455
295.592
295.734
295.881
296.033
296.19
296.352
296.518
296.689
296.864
297.044
297.227
297.414
297.604
297.797
297.993
298.19
298.39
298.59
298.79
298.99
299.189
299.385
299.579
299.768
299.952
300.129
300.299
300.459
300.61
300.749
300.876
300.99
301.089
301.174
301.243
301.296
301.334
301.357
301.365
301.361
301.343
301.3
301.227
301.127
301
300.844
300.653
300.424
300.15
299.825
299.446
299.008
298.514
297.973
297.417
293.176
293.179
293.183
293.186
293.191
293.195
293.2
293.206
293.212
293.218
293.226
293.234
293.242
293.251
293.261
293.272
293.284
293.297
293.31
293.325
293.341
293.358
293.376
293.396
293.417
293.439
293.463
293.488
293.515
293.544
293.574
293.606
293.64
293.675
293.713
293.752
293.793
293.836
293.881
293.927
293.976
294.026
294.078
294.132
294.188
294.245
294.303
294.363
294.425
294.487
294.551
294.615
294.68
294.746
294.813
294.879
294.945
295.012
295.077
295.142
295.205
295.267
295.327
295.384
295.438
295.489
295.536
295.579
295.616
295.648
295.673
295.691
295.702
295.704
295.698
295.683
295.658
295.623
295.58
295.526
295.464
295.393
295.315
295.23
295.139
295.044
294.947
294.849
294.747
294.637
294.521
294.401
294.277
294.15
294.023
293.897
293.775
293.661
293.56
293.478
293.163
293.165
293.166
293.168
293.17
293.172
293.175
293.177
293.18
293.183
293.187
293.19
293.194
293.198
293.203
293.208
293.213
293.218
293.224
293.231
293.238
293.245
293.252
293.261
293.269
293.278
293.288
293.298
293.309
293.32
293.331
293.343
293.356
293.369
293.382
293.396
293.411
293.426
293.441
293.457
293.473
293.489
293.506
293.523
293.54
293.558
293.576
293.593
293.611
293.629
293.646
293.664
293.681
293.698
293.714
293.73
293.745
293.759
293.772
293.785
293.796
293.806
293.814
293.821
293.826
293.829
293.83
293.829
293.825
293.819
293.81
293.799
293.784
293.767
293.746
293.723
293.698
293.669
293.639
293.607
293.573
293.539
293.504
293.47
293.436
293.403
293.372
293.344
293.318
293.295
293.274
293.254
293.236
293.22
293.205
293.192
293.181
293.173
293.166
293.161
293.156
293.157
293.158
293.159
293.16
293.161
293.162
293.163
293.164
293.165
293.167
293.169
293.17
293.172
293.174
293.176
293.178
293.181
293.183
293.186
293.189
293.192
293.195
293.198
293.201
293.205
293.208
293.212
293.216
293.22
293.224
293.228
293.232
293.237
293.241
293.245
293.25
293.254
293.259
293.263
293.268
293.272
293.277
293.281
293.285
293.289
293.293
293.297
293.301
293.305
293.308
293.311
293.314
293.316
293.318
293.32
293.322
293.323
293.324
293.324
293.324
293.323
293.322
293.32
293.317
293.314
293.311
293.307
293.302
293.297
293.291
293.284
293.277
293.269
293.261
293.253
293.244
293.236
293.227
293.218
293.21
293.202
293.194
293.187
293.18
293.175
293.17
293.165
293.162
293.159
293.157
293.155
293.154
293.153
293.152
293.151
293.151
293.151
293.15
293.15
293.153
293.153
293.154
293.154
293.154
293.155
293.155
293.156
293.156
293.157
293.158
293.158
293.159
293.16
293.161
293.162
293.162
293.163
293.164
293.165
293.167
293.168
293.169
293.17
293.171
293.173
293.174
293.175
293.176
293.178
293.179
293.181
293.182
293.183
293.185
293.186
293.187
293.188
293.19
293.191
293.192
293.193
293.194
293.195
293.196
293.197
293.197
293.198
293.198
293.199
293.199
293.199
293.199
293.199
293.199
293.198
293.198
293.197
293.197
293.196
293.195
293.194
293.192
293.191
293.19
293.188
293.186
293.184
293.182
293.18
293.178
293.176
293.174
293.172
293.17
293.167
293.165
293.163
293.161
293.16
293.158
293.156
293.155
293.154
293.153
293.152
293.152
293.151
293.151
293.15
293.15
293.15
293.15
293.15
293.15
293.15
293.15
293.15
293.15
293.15
293.151
293.152
293.152
293.152
293.152
293.152
293.152
293.153
293.153
293.153
293.153
293.154
293.154
293.154
293.155
293.155
293.155
293.156
293.156
293.157
293.157
293.158
293.158
293.158
293.159
293.159
293.16
293.16
293.161
293.161
293.162
293.162
293.162
293.163
293.163
293.164
293.164
293.164
293.165
293.165
293.165
293.165
293.166
293.166
293.166
293.166
293.166
293.166
293.166
293.166
293.165
293.165
293.165
293.165
293.164
293.164
293.164
293.163
293.163
293.162
293.162
293.161
293.161
293.16
293.16
293.159
293.158
293.158
293.157
293.157
293.156
293.155
293.155
293.154
293.154
293.153
293.153
293.152
293.152
293.151
293.151
293.151
293.151
293.15
293.15
293.15
293.15
293.15
293.15
293.15
293.15
293.15
293.15
293.15
293.15
293.15
293.15
293.15
293.15
293.15
293.151
293.151
293.151
293.151
293.151
293.151
293.151
293.151
293.151
293.151
293.152
293.152
293.152
293.152
293.152
293.152
293.152
293.153
293.153
293.153
293.153
293.153
293.153
293.154
293.154
293.154
293.154
293.154
293.154
293.155
293.155
293.155
293.155
293.155
293.155
293.155
293.155
293.156
293.156
293.156
293.156
293.156
293.156
293.156
293.156
293.156
293.156
293.155
293.155
293.155
293.155
293.155
293.155
293.155
293.155
293.154
293.154
293.154
293.154
293.154
293.153
293.153
293.153
293.153
293.153
293.152
293.152
293.152
293.152
293.152
293.151
293.151
293.151
293.151
293.151
293.151
293.15
293.15
293.15
293.15
293.15
293.15
293.15
293.15
293.15
293.15
293.15
293.15
293.15
293.15
293.15
293.15
293.15
293.15
293.15
293.15
293.15
293.15
293.15
293.15
293.15
293.15
293.15
293.15
293.15
293.15
293.15
293.151
293.151
293.151
293.151
293.151
293.151
293.151
293.151
293.151
293.151
293.151
293.151
293.151
293.151
293.151
293.151
293.152
293.152
293.152
293.152
293.152
293.152
293.152
293.152
293.152
293.152
293.152
293.152
293.152
293.152
293.152
293.152
293.152
293.152
293.152
293.152
293.152
293.152
293.152
293.152
293.152
293.152
293.152
293.152
293.152
293.152
293.152
293.152
293.151
293.151
293.151
293.151
293.151
293.151
293.151
293.151
293.151
293.151
293.151
293.151
293.151
293.15
293.15
293.15
293.15
293.15
293.15
293.15
293.15
293.15
293.15
293.15
293.15
293.15
293.15
293.15
293.15
293.15
293.15
293.15
293.15
293.15
293.15
293.15
293.15
293.15
293.15
293.15
293.15
293.15
293.15
293.15
293.15
293.15
293.15
293.15
293.15
293.15
293.15
293.15
293.15
293.15
293.15
293.15
293.15
293.15
293.15
293.15
293.15
293.15
293.15
293.15
293.15
293.151
293.151
293.151
293.151
293.151
293.151
293.151
293.151
293.151
293.151
293.151
293.151
293.151
293.151
293.151
293.151
293.151
293.151
293.151
293.151
293.151
293.151
293.151
293.151
293.151
293.151
293.151
293.151
293.151
293.151
293.151
293.151
293.151
293.151
293.151
293.151
293.15
293.15
293.15
293.15
293.15
293.15
293.15
293.15
293.15
293.15
293.15
293.15
293.15
293.15
293.15
293.15
293.15
293.15
293.15
293.15
293.15
293.15
293.15
293.15
293.15
293.15
293.15
293.15
293.15
293.15
293.15
293.15
293.15
293.15
293.15
293.15
293.15
293.15
293.15
293.15
293.15
293.15
293.15
293.15
293.15
293.15
293.15
293.15
293.15
293.15
293.15
293.15
293.15
293.15
293.15
293.15
293.15
293.15
293.15
293.15
293.15
293.15
293.15
293.15
293.15
293.15
293.15
293.15
293.15
293.15
293.15
293.15
293.15
293.15
293.15
293.15
293.15
293.15
293.15
293.15
293.15
293.15
293.15
293.15
293.15
293.15
293.15
293.15
293.15
293.15
293.15
293.15
293.15
293.15
293.15
293.15
293.15
293.15
293.15
293.15
293.15
293.15
293.15
293.15
293.15
293.15
293.15
293.15
293.15
293.15
293.15
293.15
293.15
293.15
293.15
293.15
293.15
293.15
293.15
293.15
293.15
293.15
293.15
293.15
293.15
293.15
293.15
293.15
293.15
293.15
293.15
293.15
293.15
293.15
293.15
293.15
293.15
293.15
293.15
293.15
293.15
293.15
293.15
293.15
376.738
384.284
385.726
385.765
385.429
384.978
384.467
383.895
383.231
382.426
381.398
380.029
378.145
375.503
371.779
366.569
359.373
349.516
336.106
317.589
379.382
384.376
385.174
384.953
384.453
383.856
383.193
382.447
381.579
380.522
379.183
377.427
375.068
371.863
367.508
361.642
353.806
343.421
329.738
311.198
381.322
384.098
384.297
383.82
383.138
382.362
381.501
380.525
379.384
378.001
376.271
374.049
371.151
367.346
362.368
355.889
347.506
336.746
323.016
305.079
382.083
383.218
382.91
382.18
381.284
380.281
379.159
377.882
376.39
374.6
372.404
369.66
366.194
361.808
356.267
349.281
340.518
329.619
316.194
299.971
381.439
381.466
380.732
379.722
378.559
377.259
375.8
374.141
372.219
369.961
367.263
363.995
360.01
355.138
349.17
341.861
332.959
322.263
309.648
296.406
379.104
378.385
377.252
375.907
374.395
372.714
370.839
368.732
366.349
363.639
360.496
356.809
352.46
347.287
341.108
333.73
325.02
314.96
303.8
294.414
374.352
373.067
371.509
369.758
367.831
365.726
363.433
360.938
358.236
355.226
351.823
347.934
343.456
338.235
332.139
325.06
316.983
308.056
299.057
293.543
365.469
363.731
361.789
359.689
357.455
355.111
352.664
350.078
347.313
344.26
340.883
337.108
332.84
327.983
322.441
316.166
309.206
301.976
295.771
293.251
349.358
347.526
345.576
343.552
341.495
339.401
337.24
334.954
332.484
329.85
327.009
323.919
320.489
316.664
312.31
307.414
302.144
297.275
294.033
293.184
322.337
321.202
320.004
318.79
317.577
316.329
315.009
313.664
312.278
310.85
309.358
307.756
306.005
304.026
301.719
299.088
296.448
294.39
293.352
293.169
296.942
296.845
296.715
296.558
296.349
296.111
295.876
295.639
295.4
295.155
294.901
294.635
294.357
294.052
293.776
293.552
293.387
293.262
293.169
293.153
293.433
293.434
293.432
293.426
293.414
293.396
293.373
293.348
293.323
293.299
293.275
293.251
293.227
293.204
293.185
293.171
293.163
293.156
293.151
293.15
293.16
293.161
293.161
293.162
293.163
293.163
293.162
293.161
293.16
293.158
293.156
293.155
293.154
293.153
293.152
293.151
293.151
293.15
293.15
293.15
293.15
293.15
293.15
293.15
293.15
293.15
293.15
293.15
293.15
293.15
293.15
293.15
293.15
293.15
293.15
293.15
293.15
293.15
293.15
293.15
293.15
293.15
293.15
293.15
293.15
293.15
293.15
293.15
293.15
293.15
293.15
293.15
293.15
293.15
293.15
293.15
293.15
293.15
293.15
293.15
293.15
293.15
293.15
293.15
293.15
293.15
293.15
293.15
293.15
293.15
293.15
293.15
293.15
293.15
293.15
293.15
293.15
293.15
293.15
293.15
293.15
293.15
293.15
293.15
293.15
293.15
293.15
293.15
293.15
293.15
293.15
293.15
293.15
293.15
293.15
293.15
293.15
293.15
293.15
293.15
293.15
293.15
293.15
293.15
293.15
293.15
293.15
293.15
293.15
293.15
293.15
293.15
293.15
293.15
293.15
293.15
293.15
293.15
293.15
293.15
293.15
293.15
293.15
293.15
293.15
293.15
293.15
293.15
293.15
293.15
293.15
293.15
293.15
293.15
293.15
293.15
293.15
293.15
293.15
293.15
293.15
293.15
293.15
293.15
293.15
293.15
293.15
293.15
293.15
293.15
293.15
293.15
293.15
293.15
293.15
293.15
293.15
293.15
293.15
293.15
393.15
393.15
393.15
393.15
393.15
393.15
393.15
393.15
393.15
393.15
393.15
393.15
393.15
393.15
393.15
393.15
393.15
393.15
393.15
393.15
393.15
393.15
393.15
393.15
393.15
393.15
393.15
393.15
393.15
393.15
393.15
393.15
393.15
393.15
393.15
393.15
393.15
393.15
393.15
393.15
393.15
393.15
393.15
393.15
393.15
393.15
393.15
393.15
393.15
393.15
393.15
393.15
393.15
393.15
393.15
393.15
393.15
393.15
393.15
393.15
393.15
393.15
393.15
393.15
393.15
393.15
393.15
393.15
393.15
393.15
393.15
393.15
393.15
393.15
393.15
393.15
393.15
393.15
393.15
393.15
393.15
393.15
393.15
393.15
393.15
393.15
393.15
393.15
393.15
393.15
393.15
393.15
393.15
393.15
393.15
393.15
393.15
393.15
393.15
393.15
393.15
393.15
393.15
393.15
393.15
393.15
393.15
393.15
393.15
393.15
393.15
393.15
393.15
393.15
393.15
393.15
393.15
393.15
393.15
393.15
393.15
393.15
393.15
393.15
393.15
393.15
393.15
393.15
393.15
393.15
393.15
393.15
393.15
393.15
393.15
393.15
393.15
393.15
393.15
393.15
393.15
393.15
393.15
393.15
393.15
393.15
393.15
393.15
393.15
393.15
393.15
393.15
393.15
393.15
393.15
393.15
393.15
393.15
393.15
393.15
393.15
393.15
393.15
393.15
393.15
393.15
393.15
393.15
393.15
393.15
393.15
393.15
393.15
393.15
393.15
393.15
393.15
393.15
393.15
393.15
393.15
393.15
393.15
393.15
393.15
393.15
393.15
393.15
393.15
393.15
393.15
393.15
393.15
393.15
393.15
393.15
393.15
393.15
393.15
393.15
393.15
393.15
393.15
393.15
393.15
393.15
393.15
393.15
393.15
393.15
393.15
393.15
393.15
393.15
393.15
393.15
393.15
393.15
393.15
393.15
393.15
393.15
393.15
393.15
393.15
393.15
393.15
393.15
393.15
393.15
393.15
393.15
393.15
393.15
393.15
393.15
393.15
393.15
393.15
393.15
393.15
393.15
393.15
393.15
393.15
393.15
393.15
393.15
393.15
393.15
393.15
393.15
393.15
393.15
393.15
393.15
393.15
393.15
393.15
393.15
393.15
393.15
393.15
393.15
393.15
393.15
393.15
393.15
393.15
393.15
393.15
393.15
393.15
393.15
393.15
393.15
393.15
393.15
393.15
393.15
393.15
393.15
393.15
393.15
393.15
393.15
393.15
393.15
393.15
393.15
393.15
393.15
393.15
393.15
393.15
393.15
393.15
393.15
393.15
393.15
393.15
393.15
393.15
393.15
393.15
393.15
393.15
393.15
393.15
393.15
393.15
393.15
393.15
393.15
393.15
393.15
393.15
393.15
393.15
393.15
393.15
393.15
393.15
393.15
393.15
393.15
393.15
393.15
393.15
393.15
393.15
393.15
393.15
393.15
393.15
393.15
393.15
393.15
393.15
393.15
393.15
393.15
393.15
393.15
393.15
393.15
393.15
393.15
393.15
393.15
393.15
393.15
393.15
393.15
393.15
393.15
393.15
393.15
393.15
393.15
393.15
393.15
393.15
393.15
393.15
393.15
393.15
393.15
393.15
393.15
393.15
393.15
393.15
393.15
393.15
393.15
393.15
393.15
393.15
393.15
393.15
393.15
393.15
393.15
393.15
393.15
393.15
393.15
393.15
393.15
393.15
393.15
393.15
393.15
393.15
393.15
393.15
393.15
393.15
393.15
393.15
393.15
393.15
393.15
393.15
393.15
393.15
393.15
393.15
393.15
393.15
393.15
393.15
393.15
393.15
393.15
393.15
393.15
393.15
393.15
393.15
393.15
393.15
393.15
393.15
393.15
393.15
393.15
393.15
393.15
393.15
393.15
393.15
393.15
393.15
393.15
393.15
393.15
393.15
393.15
393.15
393.15
393.15
393.15
393.15
393.15
393.15
393.15
393.15
393.15
393.15
393.15
393.15
393.15
393.15
393.15
393.15
393.15
393.15
393.15
393.15
393.15
393.15
393.15
393.15
393.15
393.15
393.15
393.15
393.15
393.15
393.15
393.15
393.15
393.15
393.15
393.15
393.15
393.15
393.15
393.15
393.15
393.15
393.15
393.15
393.15
393.15
393.15
393.15
393.15
393.15
393.15
393.15
393.15
393.15
393.15
393.15
393.15
393.15
393.15
393.15
393.15
393.15
393.15
393.15
393.15
393.15
393.15
393.15
393.15
393.15
393.15
393.15
393.15
393.15
393.15
393.15
393.15
393.15
393.15
393.15
393.15
393.15
393.15
393.15
393.15
393.15
393.15
393.15
393.15
393.15
393.15
393.15
393.15
393.15
393.15
393.15
393.15
393.15
393.15
393.15
393.15
393.15
393.15
393.15
393.15
393.15
393.15
393.15
393.15
393.15
393.15
393.15
393.15
393.15
393.15
393.15
393.15
393.15
393.15
393.15
393.15
393.15
393.15
393.15
393.15
393.15
393.15
393.15
393.15
393.15
393.15
393.15
393.15
393.15
393.15
393.15
393.15
393.15
393.15
393.15
393.15
393.15
393.15
393.15
393.15
393.15
393.15
393.15
393.15
393.15
393.15
393.15
393.15
393.15
393.15
393.15
393.15
393.15
393.15
393.15
393.15
393.15
393.15
393.15
393.15
393.15
393.15
393.15
393.15
393.15
393.15
393.15
393.15
393.15
393.15
393.15
393.15
393.15
393.15
393.15
393.15
393.15
393.15
393.15
393.15
393.15
393.15
393.15
393.15
393.15
393.15
393.15
393.15
393.15
393.15
393.15
393.15
393.15
393.15
393.15
393.15
393.15
393.15
393.15
393.15
393.15
393.15
393.15
393.15
393.15
393.15
393.15
393.15
393.15
393.15
393.15
393.15
393.15
393.15
393.15
393.15
393.15
393.15
393.15
393.15
393.15
393.15
393.15
393.15
393.15
393.15
393.15
393.15
393.15
393.15
393.15
393.15
393.15
393.15
393.15
393.15
393.15
393.15
393.15
393.15
393.15
393.15
393.15
393.15
393.15
393.15
393.15
393.15
393.15
393.15
393.15
393.15
393.15
393.15
393.15
393.15
393.15
393.15
393.15
393.15
393.15
393.15
393.15
393.15
393.15
393.15
393.15
393.15
393.15
393.15
393.15
393.15
393.15
393.15
393.15
393.15
393.15
393.15
393.15
393.15
393.15
393.15
393.15
393.15
393.15
393.15
393.15
393.15
393.15
393.15
393.15
393.15
393.15
393.15
393.15
393.15
393.15
393.15
393.15
393.15
393.15
393.15
393.15
393.15
393.15
393.15
393.15
393.15
393.15
393.15
393.15
393.15
393.15
393.15
393.15
393.15
393.15
393.15
393.15
393.15
393.15
393.15
393.15
393.15
393.15
393.15
393.15
393.15
393.15
393.15
393.15
393.15
393.15
393.15
393.15
393.15
393.15
393.15
393.15
393.15
393.15
393.15
393.15
393.15
393.15
393.15
393.15
393.15
393.15
393.15
393.15
393.15
393.15
393.15
393.15
393.15
393.15
393.15
393.15
393.15
393.15
393.15
393.15
393.15
393.15
393.15
393.15
393.15
393.15
393.15
393.15
393.15
393.15
393.15
393.15
393.15
393.15
393.15
393.15
393.15
393.15
393.15
393.15
393.15
393.15
393.15
393.15
393.15
393.15
393.15
393.15
393.15
393.15
393.15
393.15
393.15
393.15
393.15
393.15
393.15
393.15
393.15
393.15
393.15
393.15
393.15
393.15
393.15
393.15
393.15
393.15
393.15
393.15
393.15
393.15
393.15
393.15
393.15
393.15
393.15
393.15
393.15
393.15
393.15
393.15
393.15
393.15
393.15
393.15
393.15
393.15
393.15
393.15
393.15
393.15
393.15
393.15
393.15
393.15
393.15
393.15
393.15
393.15
393.15
393.15
393.15
393.15
393.15
393.15
393.15
393.15
393.15
393.15
393.15
393.15
393.15
393.15
393.15
393.15
393.15
393.15
393.15
393.15
393.15
393.15
393.15
393.15
393.15
393.15
393.15
393.15
393.15
393.15
393.15
393.15
393.15
393.15
393.15
393.15
393.15
393.15
393.15
393.15
393.15
393.15
393.15
393.15
393.15
393.15
393.15
393.15
393.15
393.15
393.15
393.15
393.15
393.15
393.15
393.15
393.15
393.15
393.15
393.15
393.15
393.15
393.15
393.15
393.15
393.15
393.15
393.15
393.15
393.15
393.15
393.15
393.15
393.15
393.15
393.15
393.15
393.15
393.15
393.15
393.15
393.15
393.15
393.15
393.15
393.15
393.15
393.15
393.15
393.15
393.15
393.15
393.15
393.15
393.15
393.15
393.15
393.15
393.15
393.15
393.15
393.15
393.15
393.15
393.15
393.15
393.15
393.15
393.15
393.15
393.15
393.15
393.15
393.15
393.15
393.15
393.15
393.15
393.15
393.15
393.15
393.15
393.15
393.15
393.15
393.15
393.15
393.15
393.15
393.15
393.15
393.15
393.15
393.15
393.15
393.15
393.15
393.15
393.15
393.15
393.15
393.15
393.15
393.15
393.15
393.15
393.15
393.15
393.15
393.15
393.15
393.15
393.15
393.15
393.15
393.15
393.15
393.15
393.15
393.15
393.15
393.15
393.15
393.15
393.15
393.15
393.15
393.15
393.15
393.15
393.15
393.15
393.15
393.15
393.15
393.15
393.15
393.15
393.15
393.15
393.15
393.15
393.15
393.15
393.15
393.15
393.15
393.15
393.15
393.15
393.15
393.15
393.15
393.15
393.15
393.15
393.15
393.15
393.15
393.15
393.15
393.15
393.15
393.15
393.15
393.15
393.15
393.15
393.15
393.15
393.15
393.15
393.15
393.15
393.15
393.15
393.15
393.15
393.15
393.15
393.15
393.15
393.15
393.15
393.15
393.15
393.15
393.15
393.15
393.15
393.15
393.15
393.15
393.15
393.15
393.15
393.15
393.15
393.15
393.15
393.15
393.15
393.15
393.15
393.15
393.15
393.15
393.15
393.15
393.15
393.15
393.15
393.15
393.15
393.15
393.15
393.15
393.15
393.15
393.15
393.15
393.15
393.15
393.15
393.15
393.15
393.15
393.15
393.15
393.15
393.15
393.15
393.15
393.15
393.15
393.15
393.15
393.15
393.15
393.15
393.15
393.15
393.15
393.15
393.15
393.15
393.15
393.15
393.15
393.15
393.15
393.149
393.15
393.15
393.15
393.15
393.15
393.15
393.15
393.15
393.15
393.15
393.15
393.15
393.15
393.15
393.15
393.15
393.15
393.15
393.149
393.149
393.15
393.15
393.15
393.15
393.15
393.15
393.15
393.15
393.15
393.15
393.15
393.15
393.15
393.15
393.15
393.15
393.15
393.15
393.149
393.148
393.15
393.15
393.15
393.15
393.15
393.15
393.15
393.15
393.15
393.15
393.15
393.15
393.15
393.15
393.15
393.15
393.15
393.15
393.148
393.146
393.149
393.15
393.15
393.15
393.15
393.15
393.15
393.15
393.15
393.15
393.15
393.15
393.15
393.15
393.15
393.15
393.15
393.149
393.146
393.144
393.149
393.15
393.15
393.15
393.15
393.15
393.15
393.15
393.15
393.15
393.15
393.15
393.15
393.15
393.15
393.15
393.15
393.149
393.144
393.14
393.148
393.149
393.15
393.15
393.15
393.15
393.15
393.15
393.15
393.15
393.15
393.15
393.15
393.15
393.15
393.15
393.15
393.148
393.14
393.135
393.147
393.149
393.15
393.15
393.15
393.15
393.15
393.15
393.15
393.15
393.15
393.15
393.15
393.15
393.15
393.15
393.149
393.147
393.135
393.126
393.145
393.149
393.149
393.15
393.15
393.15
393.15
393.15
393.15
393.15
393.15
393.15
393.15
393.15
393.15
393.149
393.149
393.145
393.126
393.112
393.143
393.148
393.149
393.149
393.149
393.149
393.149
393.149
393.149
393.149
393.149
393.149
393.149
393.149
393.149
393.149
393.148
393.143
393.112
393.093
393.138
393.147
393.149
393.149
393.149
393.149
393.149
393.149
393.149
393.149
393.149
393.149
393.149
393.149
393.149
393.149
393.147
393.138
393.093
393.064
393.132
393.145
393.148
393.148
393.149
393.149
393.149
393.149
393.149
393.149
393.149
393.149
393.149
393.149
393.148
393.148
393.145
393.132
393.064
393.023
393.123
393.142
393.147
393.148
393.148
393.148
393.148
393.148
393.148
393.148
393.148
393.148
393.148
393.148
393.148
393.147
393.142
393.123
393.023
392.966
393.111
393.138
393.145
393.147
393.147
393.147
393.147
393.147
393.147
393.147
393.147
393.147
393.147
393.147
393.147
393.145
393.138
393.11
392.966
392.887
393.092
393.133
393.142
393.145
393.146
393.146
393.146
393.146
393.146
393.146
393.146
393.146
393.146
393.146
393.145
393.142
393.133
393.092
392.887
392.779
393.067
393.125
393.139
393.143
393.144
393.144
393.144
393.144
393.144
393.144
393.144
393.144
393.144
393.144
393.143
393.139
393.124
393.067