/*--------------------------------*- C++ -*----------------------------------*\
| =========                 |                                                 |
| \\      /  F ield         | OpenFOAM: The Open Source CFD Toolbox           |
|  \\    /   O peration     | Version:  2.1.0                                 |
|   \\  /    A nd           | Web:      www.OpenFOAM.org                      |
|    \\/     M anipulation  |                                                 |
\*---------------------------------------------------------------------------*/
FoamFile
{
    version     2.0;
    format      ascii;
    class       volVectorField;
    location    "0.23";
    object      U;
}
// * * * * * * * * * * * * * * * * * * * * * * * * * * * * * * * * * * * * * //

dimensions      [0 1 -1 0 0 0 0];

internalField   nonuniform List<vector> 
6400
(
(-1.22803 -4.14581e-05 0)
(-1.22687 -0.000474203 0)
(-1.22452 -0.00075255 0)
(-1.22127 -0.000892358 0)
(-1.21759 -0.000973472 0)
(-1.21363 -0.00102689 0)
(-1.2095 -0.00106513 0)
(-1.20523 -0.00109496 0)
(-1.20085 -0.00112028 0)
(-1.19637 -0.00114317 0)
(-1.19181 -0.00116495 0)
(-1.18716 -0.00118617 0)
(-1.18243 -0.00120735 0)
(-1.17762 -0.00122853 0)
(-1.17272 -0.00124998 0)
(-1.16774 -0.00127161 0)
(-1.16267 -0.00129359 0)
(-1.15751 -0.00131576 0)
(-1.15226 -0.0013384 0)
(-1.14693 -0.0013612 0)
(-1.14151 -0.00138408 0)
(-1.13599 -0.00140776 0)
(-1.13038 -0.00143287 0)
(-1.12467 -0.0014587 0)
(-1.11885 -0.00148531 0)
(-1.11293 -0.00151277 0)
(-1.1069 -0.00154127 0)
(-1.10075 -0.00157075 0)
(-1.09449 -0.00160134 0)
(-1.0881 -0.00163301 0)
(-1.08159 -0.00166587 0)
(-1.07495 -0.0016999 0)
(-1.06817 -0.0017352 0)
(-1.06125 -0.00177179 0)
(-1.05418 -0.0018099 0)
(-1.04696 -0.00184952 0)
(-1.03959 -0.00189088 0)
(-1.03204 -0.0019341 0)
(-1.02433 -0.00197932 0)
(-1.01643 -0.00202675 0)
(-1.00834 -0.0020765 0)
(-1.00006 -0.00212858 0)
(-0.991566 -0.00218301 0)
(-0.982855 -0.00223982 0)
(-0.973918 -0.00229895 0)
(-0.964746 -0.00236021 0)
(-0.95533 -0.00242394 0)
(-0.945665 -0.002488 0)
(-0.935747 -0.00255339 0)
(-0.925563 -0.00262423 0)
(-0.915094 -0.00269887 0)
(-0.904337 -0.00277316 0)
(-0.893297 -0.00284409 0)
(-0.881986 -0.00291201 0)
(-0.870411 -0.00297917 0)
(-0.858575 -0.00304678 0)
(-0.846474 -0.00311545 0)
(-0.834104 -0.00318539 0)
(-0.82146 -0.00325656 0)
(-0.808538 -0.00332872 0)
(-0.795334 -0.00340194 0)
(-0.781843 -0.00347663 0)
(-0.76806 -0.00355254 0)
(-0.75398 -0.00362976 0)
(-0.739598 -0.00370866 0)
(-0.724906 -0.00378928 0)
(-0.709898 -0.00387168 0)
(-0.694567 -0.00395608 0)
(-0.678903 -0.004043 0)
(-0.662896 -0.00413282 0)
(-0.646534 -0.00422606 0)
(-0.629802 -0.0043235 0)
(-0.61268 -0.00442641 0)
(-0.595145 -0.00453644 0)
(-0.577163 -0.00465567 0)
(-0.558693 -0.00478685 0)
(-0.539682 -0.00493343 0)
(-0.52006 -0.00509964 0)
(-0.49974 -0.00529066 0)
(-0.478611 -0.00551284 0)
(-0.456536 -0.00577366 0)
(-0.433346 -0.00608096 0)
(-0.408841 -0.00644269 0)
(-0.382789 -0.00686686 0)
(-0.354927 -0.00736065 0)
(-0.324972 -0.00792789 0)
(-0.292639 -0.00856364 0)
(-0.257692 -0.00924802 0)
(-0.22003 -0.00993326 0)
(-0.179845 -0.0105165 0)
(-0.137936 -0.0107916 0)
(-0.096331 -0.0103402 0)
(-0.0591007 -0.00854517 0)
(-0.031908 -0.00522437 0)
(-0.0185966 -0.00150077 0)
(-0.0216634 0.00304867 0)
(-0.0499767 0.0111348 0)
(-0.129808 0.02868 0)
(-0.327705 0.0699453 0)
(-0.939071 0.19618 0)
(-1.48456 -0.000298101 0)
(-1.48157 -0.00155886 0)
(-1.47941 -0.00228282 0)
(-1.47603 -0.00266343 0)
(-1.47234 -0.00288991 0)
(-1.4684 -0.00303992 0)
(-1.46432 -0.00314746 0)
(-1.46012 -0.00323143 0)
(-1.45584 -0.00330275 0)
(-1.45147 -0.00336723 0)
(-1.44702 -0.00342867 0)
(-1.44251 -0.0034886 0)
(-1.43792 -0.00354852 0)
(-1.43326 -0.00360855 0)
(-1.42853 -0.0036695 0)
(-1.42372 -0.003731 0)
(-1.41884 -0.00379359 0)
(-1.41389 -0.00385671 0)
(-1.40885 -0.00392105 0)
(-1.40374 -0.00398577 0)
(-1.39855 -0.00405003 0)
(-1.39329 -0.00411585 0)
(-1.38795 -0.00418538 0)
(-1.38254 -0.00425644 0)
(-1.37704 -0.00432921 0)
(-1.37147 -0.00440406 0)
(-1.36581 -0.00448153 0)
(-1.36007 -0.00456146 0)
(-1.35424 -0.00464414 0)
(-1.34833 -0.00472951 0)
(-1.34233 -0.00481786 0)
(-1.33623 -0.00490914 0)
(-1.33004 -0.00500365 0)
(-1.32376 -0.00510148 0)
(-1.31737 -0.00520313 0)
(-1.31089 -0.00530847 0)
(-1.30429 -0.00541807 0)
(-1.29759 -0.00553225 0)
(-1.29078 -0.00565124 0)
(-1.28385 -0.00577556 0)
(-1.27681 -0.00590561 0)
(-1.26964 -0.00604161 0)
(-1.26235 -0.00618371 0)
(-1.25492 -0.00633219 0)
(-1.24735 -0.00648703 0)
(-1.23964 -0.00664802 0)
(-1.23177 -0.00681597 0)
(-1.22373 -0.00698668 0)
(-1.21554 -0.00715889 0)
(-1.2072 -0.0073366 0)
(-1.19872 -0.00751756 0)
(-1.19013 -0.00769778 0)
(-1.18142 -0.00787336 0)
(-1.17257 -0.00804398 0)
(-1.1636 -0.00821316 0)
(-1.1545 -0.00838303 0)
(-1.14528 -0.00855473 0)
(-1.13593 -0.00872868 0)
(-1.12646 -0.00890479 0)
(-1.11687 -0.00908271 0)
(-1.10717 -0.00926215 0)
(-1.09736 -0.00944367 0)
(-1.08743 -0.00962677 0)
(-1.07741 -0.00981157 0)
(-1.06729 -0.00999861 0)
(-1.05708 -0.0101881 0)
(-1.04678 -0.0103805 0)
(-1.0364 -0.0105767 0)
(-1.02594 -0.0107781 0)
(-1.0154 -0.0109863 0)
(-1.00477 -0.0112035 0)
(-0.994047 -0.0114322 0)
(-0.983217 -0.0116766 0)
(-0.97226 -0.0119419 0)
(-0.961145 -0.0122344 0)
(-0.949835 -0.0125623 0)
(-0.93828 -0.0129353 0)
(-0.926418 -0.0133654 0)
(-0.914171 -0.0138666 0)
(-0.901447 -0.0144555 0)
(-0.888137 -0.0151514 0)
(-0.874114 -0.0159744 0)
(-0.859233 -0.0169443 0)
(-0.843333 -0.0180806 0)
(-0.826247 -0.0193989 0)
(-0.807802 -0.0209057 0)
(-0.787845 -0.0225853 0)
(-0.766261 -0.024382 0)
(-0.743034 -0.0261698 0)
(-0.718318 -0.0276913 0)
(-0.692537 -0.0284542 0)
(-0.666464 -0.0275413 0)
(-0.641312 -0.0235998 0)
(-0.619819 -0.0156086 0)
(-0.609662 -0.00403563 0)
(-0.620586 0.0118205 0)
(-0.66588 0.0385495 0)
(-0.766974 0.0900746 0)
(-0.966177 0.20078 0)
(-1.44788 0.519365 0)
(-1.63015 -0.000813975 0)
(-1.62634 -0.00270711 0)
(-1.62498 -0.00374057 0)
(-1.62215 -0.00430959 0)
(-1.61902 -0.00465491 0)
(-1.61573 -0.00488419 0)
(-1.6123 -0.00504759 0)
(-1.6088 -0.00517498 0)
(-1.60522 -0.00528235 0)
(-1.6016 -0.00537941 0)
(-1.59791 -0.00547146 0)
(-1.59418 -0.0055615 0)
(-1.5904 -0.00565145 0)
(-1.58658 -0.00574199 0)
(-1.58269 -0.00583412 0)
(-1.57877 -0.00592761 0)
(-1.57478 -0.00602314 0)
(-1.57075 -0.00612015 0)
(-1.56665 -0.00621941 0)
(-1.56249 -0.00632021 0)
(-1.55826 -0.00642041 0)
(-1.55398 -0.00652085 0)
(-1.54964 -0.00662368 0)
(-1.54525 -0.00672728 0)
(-1.54081 -0.00683238 0)
(-1.53633 -0.00694 0)
(-1.53179 -0.00705091 0)
(-1.52722 -0.00716491 0)
(-1.5226 -0.00728222 0)
(-1.51793 -0.00740282 0)
(-1.51322 -0.00752696 0)
(-1.50847 -0.00765464 0)
(-1.50367 -0.00778611 0)
(-1.49883 -0.0079215 0)
(-1.49395 -0.00806147 0)
(-1.48903 -0.00820557 0)
(-1.48407 -0.00835445 0)
(-1.47908 -0.00850853 0)
(-1.47406 -0.00866788 0)
(-1.46901 -0.00883302 0)
(-1.46393 -0.00900439 0)
(-1.45882 -0.00918243 0)
(-1.4537 -0.0093673 0)
(-1.44856 -0.00955942 0)
(-1.44341 -0.00975881 0)
(-1.43826 -0.00996532 0)
(-1.4331 -0.0101789 0)
(-1.42794 -0.0103966 0)
(-1.42282 -0.0106151 0)
(-1.41771 -0.0108316 0)
(-1.41261 -0.0110442 0)
(-1.40757 -0.0112551 0)
(-1.40256 -0.0114646 0)
(-1.39758 -0.011671 0)
(-1.39264 -0.0118756 0)
(-1.38775 -0.0120792 0)
(-1.38291 -0.0122824 0)
(-1.37813 -0.0124856 0)
(-1.37342 -0.0126882 0)
(-1.3688 -0.0128898 0)
(-1.36428 -0.0130894 0)
(-1.35987 -0.0132867 0)
(-1.35559 -0.0134809 0)
(-1.35147 -0.0136718 0)
(-1.34751 -0.0138592 0)
(-1.34374 -0.0140431 0)
(-1.34019 -0.0142243 0)
(-1.33688 -0.0144042 0)
(-1.33382 -0.0145844 0)
(-1.33104 -0.0147679 0)
(-1.32856 -0.0149585 0)
(-1.32639 -0.0151605 0)
(-1.32455 -0.0153811 0)
(-1.32305 -0.0156286 0)
(-1.32187 -0.0159135 0)
(-1.32102 -0.0162486 0)
(-1.32047 -0.0166491 0)
(-1.32019 -0.0171331 0)
(-1.32014 -0.0177209 0)
(-1.32026 -0.0184364 0)
(-1.32048 -0.0193067 0)
(-1.32072 -0.0203593 0)
(-1.32088 -0.0216204 0)
(-1.32085 -0.0231145 0)
(-1.32052 -0.0248587 0)
(-1.31977 -0.0268538 0)
(-1.31854 -0.0290697 0)
(-1.31677 -0.0314209 0)
(-1.31449 -0.0337265 0)
(-1.31184 -0.0356411 0)
(-1.3091 -0.0365467 0)
(-1.3067 -0.0354101 0)
(-1.30518 -0.0307135 0)
(-1.30575 -0.0205573 0)
(-1.31232 -0.00333571 0)
(-1.32803 0.0229203 0)
(-1.36486 0.0661528 0)
(-1.43815 0.145415 0)
(-1.57869 0.305433 0)
(-1.84519 0.709517 0)
(-1.76291 -0.00141081 0)
(-1.75888 -0.00362183 0)
(-1.75849 -0.00487243 0)
(-1.75654 -0.00558637 0)
(-1.75437 -0.00602382 0)
(-1.7521 -0.00631228 0)
(-1.74972 -0.00651475 0)
(-1.74731 -0.00667058 0)
(-1.74485 -0.00679943 0)
(-1.74239 -0.00691479 0)
(-1.73989 -0.00702277 0)
(-1.73741 -0.00712809 0)
(-1.73489 -0.00723259 0)
(-1.73239 -0.00733782 0)
(-1.72985 -0.00744467 0)
(-1.72734 -0.00755333 0)
(-1.7248 -0.00766441 0)
(-1.72227 -0.0077777 0)
(-1.71973 -0.00789331 0)
(-1.7172 -0.00801095 0)
(-1.71466 -0.00812924 0)
(-1.71214 -0.00824732 0)
(-1.7096 -0.00836473 0)
(-1.70708 -0.0084814 0)
(-1.70455 -0.00859835 0)
(-1.70204 -0.00871739 0)
(-1.69954 -0.00883958 0)
(-1.69705 -0.00896445 0)
(-1.69459 -0.00909207 0)
(-1.69214 -0.00922238 0)
(-1.68972 -0.00935543 0)
(-1.68732 -0.00949115 0)
(-1.68496 -0.00962954 0)
(-1.68264 -0.00977055 0)
(-1.68037 -0.00991484 0)
(-1.67815 -0.0100619 0)
(-1.67598 -0.010212 0)
(-1.67388 -0.0103656 0)
(-1.67185 -0.0105224 0)
(-1.6699 -0.0106827 0)
(-1.66805 -0.0108465 0)
(-1.66629 -0.0110141 0)
(-1.66465 -0.0111852 0)
(-1.66314 -0.0113598 0)
(-1.66177 -0.0115378 0)
(-1.66055 -0.0117186 0)
(-1.65951 -0.0119005 0)
(-1.65865 -0.0120822 0)
(-1.658 -0.0122648 0)
(-1.65755 -0.0124455 0)
(-1.65729 -0.0126209 0)
(-1.65723 -0.0127927 0)
(-1.65736 -0.0129622 0)
(-1.65772 -0.0131278 0)
(-1.65829 -0.0132889 0)
(-1.65911 -0.0134453 0)
(-1.66018 -0.0135968 0)
(-1.66151 -0.0137432 0)
(-1.66312 -0.0138834 0)
(-1.66502 -0.0140164 0)
(-1.66724 -0.0141413 0)
(-1.66978 -0.014257 0)
(-1.67267 -0.0143621 0)
(-1.67591 -0.0144563 0)
(-1.67953 -0.0145391 0)
(-1.68354 -0.0146102 0)
(-1.68794 -0.0146708 0)
(-1.69275 -0.0147225 0)
(-1.69798 -0.0147679 0)
(-1.70363 -0.014811 0)
(-1.7097 -0.0148573 0)
(-1.71618 -0.0149132 0)
(-1.72305 -0.0149882 0)
(-1.7303 -0.0150941 0)
(-1.73789 -0.0152447 0)
(-1.7458 -0.0154564 0)
(-1.75398 -0.015749 0)
(-1.76237 -0.0161453 0)
(-1.77091 -0.0166702 0)
(-1.77953 -0.0173522 0)
(-1.78817 -0.0182239 0)
(-1.79673 -0.0193175 0)
(-1.80513 -0.0206613 0)
(-1.81329 -0.0222806 0)
(-1.82113 -0.0241913 0)
(-1.82859 -0.0263855 0)
(-1.83564 -0.0288176 0)
(-1.84226 -0.0313786 0)
(-1.84851 -0.033852 0)
(-1.85448 -0.0358468 0)
(-1.86031 -0.0367011 0)
(-1.86609 -0.0353719 0)
(-1.8718 -0.0303433 0)
(-1.87759 -0.0193677 0)
(-1.88595 -0.000587649 0)
(-1.89462 0.0314778 0)
(-1.91542 0.0839466 0)
(-1.9543 0.179635 0)
(-2.02101 0.3673 0)
(-2.11918 0.766527 0)
(-1.89893 -0.00191199 0)
(-1.89535 -0.00417071 0)
(-1.89606 -0.00550704 0)
(-1.89535 -0.00629831 0)
(-1.8946 -0.00678767 0)
(-1.8938 -0.00710509 0)
(-1.89299 -0.00732315 0)
(-1.89219 -0.00748549 0)
(-1.8914 -0.00761576 0)
(-1.89064 -0.00772882 0)
(-1.88991 -0.00783233 0)
(-1.88923 -0.00793131 0)
(-1.88857 -0.00802821 0)
(-1.88798 -0.00812449 0)
(-1.88742 -0.00822124 0)
(-1.88693 -0.00831852 0)
(-1.88649 -0.00841695 0)
(-1.88613 -0.00851618 0)
(-1.88582 -0.0086157 0)
(-1.88561 -0.00871489 0)
(-1.88546 -0.00881472 0)
(-1.88542 -0.00891605 0)
(-1.88545 -0.00901727 0)
(-1.88555 -0.00911712 0)
(-1.88574 -0.00921524 0)
(-1.88601 -0.00931403 0)
(-1.88637 -0.00941512 0)
(-1.88683 -0.00951745 0)
(-1.88739 -0.00962085 0)
(-1.88805 -0.00972515 0)
(-1.88883 -0.0098303 0)
(-1.88972 -0.00993606 0)
(-1.89074 -0.0100422 0)
(-1.89189 -0.0101486 0)
(-1.89318 -0.0102554 0)
(-1.89462 -0.0103625 0)
(-1.89621 -0.0104698 0)
(-1.89797 -0.0105775 0)
(-1.8999 -0.0106855 0)
(-1.90202 -0.0107934 0)
(-1.90432 -0.0109013 0)
(-1.90683 -0.011009 0)
(-1.90954 -0.0111161 0)
(-1.91247 -0.0112226 0)
(-1.91563 -0.011328 0)
(-1.91902 -0.0114315 0)
(-1.92265 -0.0115318 0)
(-1.92653 -0.0116284 0)
(-1.93066 -0.0117245 0)
(-1.93505 -0.0118202 0)
(-1.93971 -0.0119119 0)
(-1.94463 -0.0119985 0)
(-1.94983 -0.01208 0)
(-1.95531 -0.0121551 0)
(-1.96107 -0.0122234 0)
(-1.96712 -0.0122844 0)
(-1.97346 -0.0123379 0)
(-1.98009 -0.0123837 0)
(-1.987 -0.0124205 0)
(-1.99419 -0.0124475 0)
(-2.00167 -0.0124638 0)
(-2.00941 -0.0124685 0)
(-2.01743 -0.0124602 0)
(-2.0257 -0.0124386 0)
(-2.03422 -0.0124037 0)
(-2.04297 -0.0123553 0)
(-2.05195 -0.0122948 0)
(-2.06115 -0.0122245 0)
(-2.07054 -0.012148 0)
(-2.08012 -0.0120701 0)
(-2.08986 -0.0119972 0)
(-2.09976 -0.0119374 0)
(-2.10979 -0.011902 0)
(-2.11993 -0.0119044 0)
(-2.13017 -0.0119613 0)
(-2.14048 -0.012091 0)
(-2.15083 -0.0123156 0)
(-2.16119 -0.0126616 0)
(-2.17155 -0.0131562 0)
(-2.18185 -0.0138298 0)
(-2.19207 -0.014718 0)
(-2.20217 -0.0158561 0)
(-2.21211 -0.0172704 0)
(-2.22186 -0.0189841 0)
(-2.23139 -0.0210103 0)
(-2.24068 -0.0233333 0)
(-2.24974 -0.0258954 0)
(-2.25858 -0.0285736 0)
(-2.26723 -0.0311373 0)
(-2.27568 -0.0331884 0)
(-2.28391 -0.0340825 0)
(-2.29172 -0.0328398 0)
(-2.29867 -0.0280619 0)
(-2.304 -0.0175785 0)
(-2.31014 0.000692744 0)
(-2.31028 0.0344783 0)
(-2.31318 0.0902208 0)
(-2.31743 0.191438 0)
(-2.31387 0.38306 0)
(-2.2948 0.731704 0)
(-2.04573 -0.00216236 0)
(-2.0432 -0.00422216 0)
(-2.04513 -0.00548465 0)
(-2.046 -0.00625352 0)
(-2.04703 -0.00673034 0)
(-2.04813 -0.00703165 0)
(-2.04932 -0.00723118 0)
(-2.05059 -0.00737102 0)
(-2.05193 -0.00747695 0)
(-2.05335 -0.007563 0)
(-2.05485 -0.00763817 0)
(-2.05645 -0.00770679 0)
(-2.05812 -0.00777199 0)
(-2.0599 -0.00783482 0)
(-2.06177 -0.00789646 0)
(-2.06374 -0.00795688 0)
(-2.0658 -0.00801653 0)
(-2.06798 -0.00807493 0)
(-2.07026 -0.00813174 0)
(-2.07267 -0.00818624 0)
(-2.07517 -0.00824033 0)
(-2.07781 -0.00829557 0)
(-2.08056 -0.00835147 0)
(-2.08345 -0.00840605 0)
(-2.08646 -0.00845604 0)
(-2.08962 -0.00850475 0)
(-2.09291 -0.00855519 0)
(-2.09636 -0.00860527 0)
(-2.09995 -0.00865489 0)
(-2.1037 -0.00870387 0)
(-2.1076 -0.00875234 0)
(-2.11167 -0.00880008 0)
(-2.11589 -0.00884694 0)
(-2.12029 -0.00889272 0)
(-2.12485 -0.00893749 0)
(-2.12959 -0.00898127 0)
(-2.13449 -0.00902435 0)
(-2.13958 -0.00906661 0)
(-2.14483 -0.00910828 0)
(-2.15026 -0.00914909 0)
(-2.15587 -0.00918911 0)
(-2.16165 -0.00922838 0)
(-2.16761 -0.00926666 0)
(-2.17374 -0.00930391 0)
(-2.18004 -0.00933989 0)
(-2.18651 -0.00937397 0)
(-2.19315 -0.00940556 0)
(-2.19996 -0.0094348 0)
(-2.20692 -0.00946341 0)
(-2.21404 -0.00949074 0)
(-2.22133 -0.00951505 0)
(-2.22876 -0.00953497 0)
(-2.23635 -0.00954995 0)
(-2.24408 -0.00955935 0)
(-2.25196 -0.00956267 0)
(-2.25996 -0.00955968 0)
(-2.2681 -0.00955001 0)
(-2.27635 -0.00953339 0)
(-2.28473 -0.00950885 0)
(-2.29322 -0.00947557 0)
(-2.30181 -0.00943269 0)
(-2.31051 -0.0093793 0)
(-2.3193 -0.00931423 0)
(-2.32818 -0.00923678 0)
(-2.33715 -0.00914732 0)
(-2.3462 -0.00904527 0)
(-2.35532 -0.00893201 0)
(-2.36452 -0.00880974 0)
(-2.37378 -0.0086828 0)
(-2.38311 -0.00855632 0)
(-2.39249 -0.00843613 0)
(-2.40194 -0.008331 0)
(-2.41143 -0.00825289 0)
(-2.42096 -0.00821628 0)
(-2.43052 -0.00823857 0)
(-2.44011 -0.00833909 0)
(-2.44972 -0.00854034 0)
(-2.45933 -0.00886994 0)
(-2.46894 -0.00935652 0)
(-2.47853 -0.0100308 0)
(-2.48809 -0.010929 0)
(-2.49762 -0.0120896 0)
(-2.50711 -0.0135352 0)
(-2.51654 -0.0152839 0)
(-2.52594 -0.0173497 0)
(-2.5353 -0.0197115 0)
(-2.54463 -0.0223058 0)
(-2.55395 -0.0250083 0)
(-2.56323 -0.0275947 0)
(-2.57242 -0.0296904 0)
(-2.58134 -0.030709 0)
(-2.5896 -0.029783 0)
(-2.59646 -0.025697 0)
(-2.60058 -0.0166739 0)
(-2.60383 2.34005e-05 0)
(-2.59674 0.0318131 0)
(-2.58396 0.0853996 0)
(-2.55738 0.182302 0)
(-2.49517 0.35804 0)
(-2.39846 0.638932 0)
(-2.20066 -0.00207103 0)
(-2.1994 -0.00369518 0)
(-2.20248 -0.0047311 0)
(-2.20494 -0.00537482 0)
(-2.20763 -0.00576989 0)
(-2.21056 -0.00600931 0)
(-2.21359 -0.00615684 0)
(-2.2168 -0.00624922 0)
(-2.22007 -0.00631003 0)
(-2.22348 -0.00635174 0)
(-2.22696 -0.00638296 0)
(-2.23058 -0.00640738 0)
(-2.23426 -0.00642816 0)
(-2.23807 -0.00644619 0)
(-2.24195 -0.00646256 0)
(-2.24595 -0.00647729 0)
(-2.25003 -0.00649079 0)
(-2.25423 -0.00650255 0)
(-2.2585 -0.00651275 0)
(-2.26289 -0.00652096 0)
(-2.26736 -0.00652888 0)
(-2.27194 -0.00653672 0)
(-2.2766 -0.00654481 0)
(-2.28137 -0.00655223 0)
(-2.28622 -0.00655412 0)
(-2.2912 -0.00655193 0)
(-2.29626 -0.00654936 0)
(-2.30146 -0.00654547 0)
(-2.30676 -0.00654124 0)
(-2.31219 -0.00653665 0)
(-2.31772 -0.0065323 0)
(-2.32338 -0.00652804 0)
(-2.32914 -0.00652407 0)
(-2.33503 -0.00652002 0)
(-2.34101 -0.00651635 0)
(-2.34711 -0.00651333 0)
(-2.35331 -0.00651158 0)
(-2.35961 -0.00651105 0)
(-2.36599 -0.00651215 0)
(-2.37247 -0.00651484 0)
(-2.37903 -0.0065193 0)
(-2.38568 -0.00652561 0)
(-2.39239 -0.00653364 0)
(-2.39919 -0.00654333 0)
(-2.40603 -0.00655447 0)
(-2.41295 -0.00656639 0)
(-2.41991 -0.0065789 0)
(-2.42693 -0.00659169 0)
(-2.43398 -0.00660609 0)
(-2.44108 -0.00662021 0)
(-2.44821 -0.00663359 0)
(-2.45538 -0.00664488 0)
(-2.46256 -0.00665286 0)
(-2.46978 -0.00665715 0)
(-2.477 -0.00665659 0)
(-2.48425 -0.00665075 0)
(-2.49151 -0.00663858 0)
(-2.49879 -0.00661927 0)
(-2.50608 -0.0065915 0)
(-2.51339 -0.00655397 0)
(-2.52072 -0.0065055 0)
(-2.52808 -0.0064448 0)
(-2.53546 -0.00637053 0)
(-2.54288 -0.00628153 0)
(-2.55033 -0.006178 0)
(-2.55783 -0.00605907 0)
(-2.56538 -0.00592571 0)
(-2.57299 -0.00577965 0)
(-2.58067 -0.00562612 0)
(-2.58841 -0.0054707 0)
(-2.59624 -0.00531797 0)
(-2.60414 -0.00517763 0)
(-2.61215 -0.00506221 0)
(-2.62024 -0.00498681 0)
(-2.62844 -0.00496891 0)
(-2.63674 -0.00502958 0)
(-2.64516 -0.00519194 0)
(-2.65369 -0.00548276 0)
(-2.66231 -0.00593141 0)
(-2.67106 -0.00656795 0)
(-2.67992 -0.00742633 0)
(-2.6889 -0.0085506 0)
(-2.69801 -0.00996042 0)
(-2.70726 -0.0116631 0)
(-2.71667 -0.0136804 0)
(-2.72623 -0.0159906 0)
(-2.73596 -0.018527 0)
(-2.74584 -0.0211765 0)
(-2.75582 -0.0237355 0)
(-2.76575 -0.0258736 0)
(-2.77535 -0.0270891 0)
(-2.78406 -0.0266615 0)
(-2.79093 -0.023594 0)
(-2.79421 -0.0166046 0)
(-2.7946 -0.00262444 0)
(-2.78214 0.0243629 0)
(-2.75567 0.0709777 0)
(-2.70319 0.15486 0)
(-2.59586 0.300925 0)
(-2.45024 0.511189 0)
(-2.34704 -0.00165187 0)
(-2.34676 -0.00269312 0)
(-2.35044 -0.00341039 0)
(-2.35381 -0.00386264 0)
(-2.35737 -0.00413243 0)
(-2.36132 -0.00428468 0)
(-2.36529 -0.00436578 0)
(-2.36951 -0.00440429 0)
(-2.37371 -0.00441796 0)
(-2.3781 -0.00441698 0)
(-2.38247 -0.00440791 0)
(-2.38701 -0.0043939 0)
(-2.39152 -0.00437734 0)
(-2.39618 -0.00435901 0)
(-2.40083 -0.00433987 0)
(-2.40561 -0.00431977 0)
(-2.41038 -0.00429929 0)
(-2.41528 -0.00427776 0)
(-2.42017 -0.00425584 0)
(-2.42518 -0.00423306 0)
(-2.43019 -0.00421089 0)
(-2.43531 -0.00418901 0)
(-2.44044 -0.00416775 0)
(-2.44567 -0.00414537 0)
(-2.4509 -0.00412092 0)
(-2.45627 -0.0040937 0)
(-2.4616 -0.00406512 0)
(-2.46703 -0.00403545 0)
(-2.47244 -0.00400715 0)
(-2.47794 -0.00398004 0)
(-2.48342 -0.00395538 0)
(-2.48897 -0.00393266 0)
(-2.49452 -0.00391262 0)
(-2.50012 -0.00389424 0)
(-2.50571 -0.00387839 0)
(-2.51135 -0.00386574 0)
(-2.51698 -0.00385699 0)
(-2.52266 -0.003852 0)
(-2.52831 -0.00385115 0)
(-2.534 -0.00385446 0)
(-2.53968 -0.00386207 0)
(-2.54538 -0.00387403 0)
(-2.55106 -0.00389011 0)
(-2.55677 -0.00391012 0)
(-2.56246 -0.0039338 0)
(-2.56816 -0.00396038 0)
(-2.57384 -0.00398976 0)
(-2.57953 -0.00402115 0)
(-2.58519 -0.00405559 0)
(-2.59086 -0.00409059 0)
(-2.59652 -0.00412572 0)
(-2.60218 -0.00415963 0)
(-2.60783 -0.00419057 0)
(-2.61347 -0.00421778 0)
(-2.61911 -0.00423948 0)
(-2.62476 -0.00425486 0)
(-2.63041 -0.00426213 0)
(-2.63608 -0.00425979 0)
(-2.64176 -0.004246 0)
(-2.64747 -0.00421893 0)
(-2.6532 -0.00417696 0)
(-2.65899 -0.00411836 0)
(-2.66482 -0.00404167 0)
(-2.67071 -0.00394545 0)
(-2.67667 -0.00382915 0)
(-2.68271 -0.00369229 0)
(-2.68884 -0.00353531 0)
(-2.69507 -0.00335881 0)
(-2.70142 -0.00316932 0)
(-2.70788 -0.00297442 0)
(-2.71447 -0.00277459 0)
(-2.7212 -0.00258166 0)
(-2.72809 -0.00240861 0)
(-2.73513 -0.00227048 0)
(-2.74234 -0.00218489 0)
(-2.74973 -0.00217382 0)
(-2.7573 -0.00226196 0)
(-2.76507 -0.00247518 0)
(-2.77303 -0.00284178 0)
(-2.78122 -0.00339241 0)
(-2.78963 -0.00415344 0)
(-2.79829 -0.00517816 0)
(-2.80719 -0.00649253 0)
(-2.81638 -0.0080758 0)
(-2.82586 -0.00997175 0)
(-2.83564 -0.0121645 0)
(-2.84571 -0.0145792 0)
(-2.85604 -0.0171286 0)
(-2.86654 -0.0196409 0)
(-2.877 -0.0218438 0)
(-2.88706 -0.0233393 0)
(-2.89605 -0.0235771 0)
(-2.90284 -0.0218087 0)
(-2.9056 -0.017185 0)
(-2.9029 -0.00707565 0)
(-2.88735 0.012958 0)
(-2.85003 0.0486383 0)
(-2.77775 0.11253 0)
(-2.63895 0.220441 0)
(-2.46432 0.363632 0)
(-2.46503 -0.000962098 0)
(-2.46553 -0.00144664 0)
(-2.46927 -0.00183173 0)
(-2.4729 -0.00207383 0)
(-2.47662 -0.00221029 0)
(-2.48079 -0.0022777 0)
(-2.48486 -0.00230253 0)
(-2.48922 -0.00230252 0)
(-2.49342 -0.00228787 0)
(-2.49785 -0.0022653 0)
(-2.50209 -0.00223842 0)
(-2.50654 -0.0022095 0)
(-2.5108 -0.00217969 0)
(-2.51524 -0.00214961 0)
(-2.51951 -0.00211974 0)
(-2.52394 -0.00208993 0)
(-2.52822 -0.00206058 0)
(-2.53263 -0.00203115 0)
(-2.5369 -0.00200226 0)
(-2.54129 -0.00197358 0)
(-2.54556 -0.00194603 0)
(-2.54993 -0.00191933 0)
(-2.55419 -0.00189334 0)
(-2.55854 -0.0018655 0)
(-2.56278 -0.00183948 0)
(-2.56711 -0.00181565 0)
(-2.57133 -0.00179312 0)
(-2.5756 -0.00177072 0)
(-2.57978 -0.00175091 0)
(-2.58399 -0.00173311 0)
(-2.58812 -0.00171899 0)
(-2.59229 -0.00170763 0)
(-2.59638 -0.00169979 0)
(-2.60051 -0.0016938 0)
(-2.60457 -0.00169092 0)
(-2.60866 -0.00169178 0)
(-2.6127 -0.00169748 0)
(-2.61677 -0.00170735 0)
(-2.6208 -0.00172174 0)
(-2.62485 -0.00174088 0)
(-2.62888 -0.00176453 0)
(-2.63293 -0.00179291 0)
(-2.63696 -0.00182558 0)
(-2.64103 -0.00186239 0)
(-2.64507 -0.0019029 0)
(-2.64916 -0.00194655 0)
(-2.65323 -0.00199279 0)
(-2.65735 -0.00204128 0)
(-2.66146 -0.00209148 0)
(-2.66561 -0.0021422 0)
(-2.66978 -0.00219214 0)
(-2.67398 -0.00223949 0)
(-2.67822 -0.002283 0)
(-2.68249 -0.0023208 0)
(-2.6868 -0.00235143 0)
(-2.69117 -0.00237343 0)
(-2.69558 -0.00238476 0)
(-2.70005 -0.00238323 0)
(-2.70458 -0.00236668 0)
(-2.70918 -0.00233299 0)
(-2.71385 -0.00228019 0)
(-2.71862 -0.00220631 0)
(-2.72346 -0.00210977 0)
(-2.72841 -0.00198913 0)
(-2.73346 -0.00184309 0)
(-2.73863 -0.0016716 0)
(-2.74391 -0.00147491 0)
(-2.74932 -0.00125374 0)
(-2.75488 -0.00101216 0)
(-2.76056 -0.000763894 0)
(-2.7664 -0.000503188 0)
(-2.77239 -0.000244692 0)
(-2.77856 -1.06852e-06 0)
(-2.7849 0.000213079 0)
(-2.79142 0.000379849 0)
(-2.79814 0.000478014 0)
(-2.80507 0.000483146 0)
(-2.81222 0.000369928 0)
(-2.81961 0.000111253 0)
(-2.82725 -0.000322906 0)
(-2.83517 -0.000960114 0)
(-2.84343 -0.00183868 0)
(-2.8519 -0.00302603 0)
(-2.86077 -0.00443936 0)
(-2.87003 -0.00616539 0)
(-2.87965 -0.00820961 0)
(-2.88963 -0.010465 0)
(-2.89994 -0.0128918 0)
(-2.91045 -0.0153568 0)
(-2.92095 -0.0176548 0)
(-2.931 -0.0195037 0)
(-2.93991 -0.0205323 0)
(-2.94647 -0.0202773 0)
(-2.94886 -0.0181987 0)
(-2.94418 -0.0127552 0)
(-2.92671 -0.00113347 0)
(-2.88431 0.0205562 0)
(-2.79907 0.0595863 0)
(-2.64178 0.124449 0)
(-2.45229 0.206036 0)
(-2.53281 -6.93423e-05 0)
(-2.53378 -0.000158516 0)
(-2.53721 -0.000240838 0)
(-2.54065 -0.000288137 0)
(-2.54408 -0.000309509 0)
(-2.54796 -0.000313699 0)
(-2.55161 -0.000307956 0)
(-2.55557 -0.000296788 0)
(-2.55923 -0.000282971 0)
(-2.56313 -0.000268278 0)
(-2.56672 -0.000253492 0)
(-2.57051 -0.000239265 0)
(-2.574 -0.000225547 0)
(-2.57768 -0.000212525 0)
(-2.58107 -0.000200011 0)
(-2.58462 -0.000187987 0)
(-2.58791 -0.000176229 0)
(-2.59135 -0.000164682 0)
(-2.59455 -0.000153316 0)
(-2.59789 -0.000142358 0)
(-2.60101 -0.000131867 0)
(-2.60425 -0.000122048 -1.43466e-42)
(-2.6073 -0.000112145 0)
(-2.61046 -0.000101157 0)
(-2.61345 -9.19999e-05 0)
(-2.61653 -8.58584e-05 0)
(-2.61948 -8.14411e-05 0)
(-2.6225 -7.75823e-05 0)
(-2.62542 -7.52504e-05 0)
(-2.6284 -7.43628e-05 0)
(-2.6313 -7.6103e-05 0)
(-2.63425 -8.04089e-05 0)
(-2.63715 -8.63924e-05 0)
(-2.64009 -9.24998e-05 0)
(-2.643 -0.000100667 0)
(-2.64595 -0.00011134 0)
(-2.64888 -0.000125856 0)
(-2.65186 -0.000143382 0)
(-2.65483 -0.000164155 0)
(-2.65784 -0.000188648 0)
(-2.66087 -0.000216416 0)
(-2.66393 -0.000247785 0)
(-2.66701 -0.000282275 0)
(-2.67015 -0.000319781 0)
(-2.6733 -0.000359883 0)
(-2.67651 -0.000402215 0)
(-2.67975 -0.000445859 0)
(-2.68304 -0.000490969 0)
(-2.68637 -0.000535698 0)
(-2.68976 -0.000580191 0)
(-2.6932 -0.000622519 0)
(-2.69669 -0.00066043 0)
(-2.70024 -0.000693276 0)
(-2.70385 -0.000718374 0)
(-2.70752 -0.000734659 0)
(-2.71126 -0.000740373 0)
(-2.71506 -0.000733348 0)
(-2.71895 -0.000710761 0)
(-2.7229 -0.000670232 0)
(-2.72694 -0.000609545 0)
(-2.73106 -0.000526499 0)
(-2.73528 -0.000419083 0)
(-2.73959 -0.000285485 0)
(-2.74401 -0.00012428 0)
(-2.74854 6.60556e-05 0)
(-2.75318 0.000285461 0)
(-2.75794 0.000533742 0)
(-2.76283 0.000808586 0)
(-2.76786 0.00110947 0)
(-2.77301 0.00142342 0)
(-2.77832 0.00175298 0)
(-2.7838 0.00208473 0)
(-2.78944 0.00240662 0)
(-2.79526 0.00270434 0)
(-2.80127 0.00296036 0)
(-2.80748 0.00315434 0)
(-2.81391 0.00326308 0)
(-2.82057 0.0032619 0)
(-2.82747 0.00312425 0)
(-2.83464 0.00282101 0)
(-2.84208 0.00231685 0)
(-2.84985 0.00158923 0)
(-2.85786 0.000574543 6.75372e-42)
(-2.86628 -0.000664566 0)
(-2.87513 -0.00218619 0)
(-2.88413 -0.00407284 0)
(-2.89357 -0.00613958 0)
(-2.90332 -0.00843157 -9.91126e-41)
(-2.91322 -0.0108488 0)
(-2.92303 -0.0132559 0)
(-2.93231 -0.0154902 0)
(-2.94031 -0.0173617 0)
(-2.94586 -0.0186849 0)
(-2.94709 -0.0192715 -1.13268e-40)
(-2.94071 -0.0186697 0)
(-2.92082 -0.016024 0)
(-2.87637 -0.0100631 -1.18291e-40)
(-2.78642 0.00140046 0)
(-2.62235 0.0207143 0)
(-2.42793 0.0451512 0)
(-2.52041 0.000889819 0)
(-2.52131 0.00111425 0)
(-2.5248 0.00132131 0)
(-2.5283 0.00145827 0)
(-2.5318 0.00154178 0)
(-2.53575 0.00159011 0)
(-2.53951 0.00161503 0)
(-2.54356 0.00162572 0)
(-2.54735 0.00162675 0)
(-2.55137 0.0016217 0)
(-2.5551 0.00161247 0)
(-2.55903 0.00160045 0)
(-2.56269 0.00158669 0)
(-2.56652 0.00157174 0)
(-2.57008 0.00155628 0)
(-2.5738 0.00154049 0)
(-2.57728 0.00152501 0)
(-2.5809 0.00150972 0)
(-2.58428 0.00149514 0)
(-2.5878 0.00148077 0)
(-2.5911 0.00146711 0)
(-2.59453 0.00145359 1.70868e-41)
(-2.59776 0.00144135 0)
(-2.6011 0.00142983 0)
(-2.60425 0.00141851 0)
(-2.60751 0.00140605 0)
(-2.61061 0.00139391 0)
(-2.6138 0.00138163 0)
(-2.61686 0.00136984 0)
(-2.61999 0.00135736 0)
(-2.62302 0.00134437 0)
(-2.62609 0.00132843 0)
(-2.6291 0.00131343 0)
(-2.63213 0.00130081 0)
(-2.63512 0.00128798 0)
(-2.63814 0.00127355 0)
(-2.64113 0.00125745 0)
(-2.64414 0.00123956 0)
(-2.64715 0.00121985 0)
(-2.65017 0.00119821 0)
(-2.6532 0.00117467 0)
(-2.65625 0.00114921 0)
(-2.65931 0.00112196 0)
(-2.66241 0.00109324 0)
(-2.66552 0.00106319 0)
(-2.66867 0.00103229 0)
(-2.67184 0.00100132 0)
(-2.67506 0.000970371 0)
(-2.6783 0.00094108 0)
(-2.6816 0.00091346 0)
(-2.68493 0.00088946 0)
(-2.68832 0.000871135 0)
(-2.69175 0.000859317 0)
(-2.69524 0.000856726 0)
(-2.69878 0.000864782 0)
(-2.70238 0.000885244 0)
(-2.70604 0.000920422 0)
(-2.70978 0.000973316 0)
(-2.71358 0.00104653 0)
(-2.71746 0.00114241 0)
(-2.72142 0.00126339 0)
(-2.72547 0.00141159 0)
(-2.72961 0.00158902 0)
(-2.73384 0.00179721 0)
(-2.73817 0.00203766 0)
(-2.74261 0.00231052 0)
(-2.74717 0.0026156 0)
(-2.75184 0.00295067 0)
(-2.75664 0.00331464 0)
(-2.76158 0.00370114 0)
(-2.76666 0.00410551 0)
(-2.77189 0.00451757 0)
(-2.77728 0.00492575 0)
(-2.78285 0.00531586 0)
(-2.7886 0.00567113 0)
(-2.79455 0.00597181 0)
(-2.80071 0.00619557 0)
(-2.8071 0.00631822 0)
(-2.81374 0.00631361 0)
(-2.82064 0.00615196 0)
(-2.82783 0.00579907 0)
(-2.83533 0.00522643 0)
(-2.84317 0.00441122 5.18536e-41)
(-2.85135 0.00334181 0)
(-2.85992 0.0020082 0)
(-2.86868 0.00032216 0)
(-2.87792 -0.00157399 0)
(-2.88725 -0.00373525 -4.39077e-41)
(-2.89665 -0.00610488 0)
(-2.90594 -0.00862807 0)
(-2.91462 -0.0112552 0)
(-2.92197 -0.0139729 0)
(-2.92682 -0.0168446 0)
(-2.92732 -0.0201134 -1.18216e-40)
(-2.92022 -0.0242734 0)
(-2.89959 -0.0303281 0)
(-2.85463 -0.040058 -4.70879e-40)
(-2.76601 -0.0564693 0)
(-2.60395 -0.0826744 0)
(-2.41201 -0.113323 0)
(-2.43614 0.00171978 0)
(-2.43628 0.00238654 0)
(-2.44 0.00290016 0)
(-2.44351 0.00323512 0)
(-2.44711 0.00343932 0)
(-2.45117 0.00355712 0)
(-2.45514 0.00362045 0)
(-2.45941 0.00365007 0)
(-2.46355 0.00365856 0)
(-2.46791 0.00365378 0)
(-2.47213 0.00364055 0)
(-2.47654 0.00362195 0)
(-2.48081 0.0035999 0)
(-2.48525 0.00357566 0)
(-2.48956 0.00355013 0)
(-2.49402 0.00352381 0)
(-2.49835 0.00349737 0)
(-2.50282 0.00347086 0)
(-2.50718 0.00344475 0)
(-2.51166 0.00341879 0)
(-2.51603 0.00339339 0)
(-2.5205 0.00336806 0)
(-2.52487 0.00334362 0)
(-2.52934 0.00331933 0)
(-2.53371 0.00329565 0)
(-2.53816 0.00327145 0)
(-2.54251 0.00324808 0)
(-2.54694 0.00322428 0)
(-2.55128 0.00320125 0)
(-2.55568 0.00317729 0)
(-2.55999 0.00315345 0)
(-2.56435 0.00312604 0)
(-2.56863 0.00309954 0)
(-2.57295 0.00307461 0)
(-2.57718 0.00304908 0)
(-2.58142 0.0030214 0)
(-2.58558 0.00299359 0)
(-2.58974 0.00296461 0)
(-2.59383 0.00293494 0)
(-2.59791 0.00290497 0)
(-2.60194 0.0028743 0)
(-2.60596 0.00284338 0)
(-2.60992 0.00281213 0)
(-2.61389 0.00278113 0)
(-2.61781 0.00275039 0)
(-2.62174 0.00272063 0)
(-2.62563 0.00269249 0)
(-2.62954 0.00266648 0)
(-2.63342 0.00264377 0)
(-2.63732 0.002625 0)
(-2.64121 0.00261186 0)
(-2.64512 0.00260591 0)
(-2.64903 0.00260898 0)
(-2.65297 0.00262309 0)
(-2.65693 0.00265038 0)
(-2.66093 0.0026927 0)
(-2.66495 0.00275249 0)
(-2.66903 0.00283236 0)
(-2.67314 0.00293518 0)
(-2.67731 0.00306333 0)
(-2.68154 0.0032195 0)
(-2.68583 0.00340605 0)
(-2.69019 0.00362493 0)
(-2.69463 0.00387795 0)
(-2.69915 0.00416637 0)
(-2.70376 0.0044908 0)
(-2.70846 0.00485111 0)
(-2.71327 0.00524611 0)
(-2.71819 0.00567369 0)
(-2.72323 0.0061293 0)
(-2.72839 0.00660748 0)
(-2.7337 0.0070991 0)
(-2.73915 0.00759335 0)
(-2.74478 0.00807649 0)
(-2.75057 0.00853254 0)
(-2.75657 0.0089425 0)
(-2.76277 0.00928476 0)
(-2.7692 0.00953582 0)
(-2.77589 0.0096698 0)
(-2.78285 0.00965744 0)
(-2.7901 0.00946742 0)
(-2.79769 0.00906984 0)
(-2.80561 0.00844193 0)
(-2.81391 0.00755934 0)
(-2.82257 0.00640036 0)
(-2.83161 0.00493071 0)
(-2.84105 0.00317593 0)