/*--------------------------------*- C++ -*----------------------------------*\
| =========                 |                                                 |
| \\      /  F ield         | OpenFOAM: The Open Source CFD Toolbox           |
|  \\    /   O peration     | Version:  2.1.0                                 |
|   \\  /    A nd           | Web:      www.OpenFOAM.org                      |
|    \\/     M anipulation  |                                                 |
\*---------------------------------------------------------------------------*/
FoamFile
{
    version     2.0;
    format      ascii;
    class       volScalarField;
    location    "0.24";
    object      C0;
}
// * * * * * * * * * * * * * * * * * * * * * * * * * * * * * * * * * * * * * //

dimensions      [0 0 0 0 0 0 0];

internalField   nonuniform List<scalar> 
6400
(
2.70669e-06
2.9123e-06
3.1859e-06
3.4946e-06
3.83202e-06
4.19819e-06
4.59468e-06
5.02346e-06
5.48668e-06
5.98661e-06
6.52561e-06
7.10616e-06
7.73084e-06
8.40233e-06
9.12345e-06
9.89712e-06
1.07264e-05
1.16144e-05
1.25644e-05
1.35799e-05
1.46643e-05
1.58213e-05
1.70548e-05
1.83685e-05
1.97665e-05
2.1253e-05
2.28322e-05
2.45086e-05
2.62868e-05
2.81713e-05
3.0167e-05
3.22789e-05
3.4512e-05
3.68715e-05
3.93629e-05
4.19914e-05
4.47629e-05
4.76831e-05
5.07577e-05
5.39931e-05
5.73952e-05
6.09704e-05
6.47253e-05
6.86665e-05
7.28008e-05
7.71351e-05
8.16765e-05
8.64323e-05
9.141e-05
9.66172e-05
0.000102062
0.000107752
0.000113696
0.000119901
0.000126378
0.000133134
0.000140179
0.000147521
0.00015517
0.000163136
0.000171428
0.000180056
0.00018903
0.00019836
0.000208057
0.00021813
0.000228591
0.000239449
0.000250715
0.0002624
0.000274514
0.000287068
0.000300071
0.000313534
0.000327468
0.000341882
0.000356786
0.000372191
0.000388108
0.000404546
0.000421516
0.00043903
0.0004571
0.000475739
0.00049496
0.000514779
0.000535215
0.000556291
0.000578037
0.000600495
0.000623728
0.000647833
0.000672956
0.000699294
0.00072705
0.000756444
0.00078761
0.000820236
0.000852933
0.000882339
2.81507e-06
3.03219e-06
3.3176e-06
3.63839e-06
3.9886e-06
4.36843e-06
4.77955e-06
5.22401e-06
5.70399e-06
6.22183e-06
6.77995e-06
7.38087e-06
8.02724e-06
8.72181e-06
9.46745e-06
1.02671e-05
1.1124e-05
1.20412e-05
1.30221e-05
1.40701e-05
1.51889e-05
1.63822e-05
1.76538e-05
1.90076e-05
2.04478e-05
2.19785e-05
2.36041e-05
2.53291e-05
2.7158e-05
2.90956e-05
3.11467e-05
3.33163e-05
3.56095e-05
3.80316e-05
4.05879e-05
4.3284e-05
4.61255e-05
4.91182e-05
5.2268e-05
5.5581e-05
5.90634e-05
6.27216e-05
6.6562e-05
7.05914e-05
7.48164e-05
7.9244e-05
8.38813e-05
8.87356e-05
9.38142e-05
9.91249e-05
0.000104675
0.000110474
0.000116528
0.000122846
0.000129437
0.00013631
0.000143473
0.000150936
0.000158706
0.000166795
0.000175212
0.000183965
0.000193065
0.000202523
0.000212347
0.000222549
0.000233138
0.000244125
0.00025552
0.000267333
0.000279576
0.000292257
0.000305388
0.000318979
0.00033304
0.000347581
0.000362613
0.000378148
0.000394195
0.000410767
0.000427876
0.000445534
0.000463756
0.000482557
0.000501955
0.000521967
0.000542617
0.000563928
0.000585933
0.00060867
0.000632188
0.000656551
0.000681847
0.000708194
0.000735731
0.000764558
0.000794521
0.000824866
0.000853773
0.000877934
3.00364e-06
3.23844e-06
3.5435e-06
3.88497e-06
4.2572e-06
4.6606e-06
5.09699e-06
5.56849e-06
6.07742e-06
6.6262e-06
7.21734e-06
7.85348e-06
8.53734e-06
9.2718e-06
1.00598e-05
1.09045e-05
1.18089e-05
1.27766e-05
1.38108e-05
1.49152e-05
1.60934e-05
1.73493e-05
1.86867e-05
2.01098e-05
2.16226e-05
2.32295e-05
2.49348e-05
2.67432e-05
2.86593e-05
3.06878e-05
3.28337e-05
3.5102e-05
3.74979e-05
4.00266e-05
4.26934e-05
4.55041e-05
4.84641e-05
5.15793e-05
5.48556e-05
5.82991e-05
6.19158e-05
6.57122e-05
6.96947e-05
7.38697e-05
7.82441e-05
8.28247e-05
8.76184e-05
9.26323e-05
9.78736e-05
0.00010335
0.000109069
0.000115037
0.000121264
0.000127757
0.000134524
0.000141574
0.000148914
0.000156555
0.000164503
0.000172769
0.000181361
0.000190289
0.000199562
0.000209189
0.000219179
0.000229543
0.00024029
0.00025143
0.000262972
0.000274927
0.000287303
0.000300112
0.000313362
0.000327065
0.00034123
0.000355867
0.000370989
0.000386605
0.000402728
0.000419371
0.000436548
0.000454274
0.000472565
0.000491441
0.000510922
0.00053103
0.000551792
0.000573234
0.000595387
0.000618279
0.00064194
0.000666393
0.000691649
0.000717694
0.000744451
0.000771691
0.000799017
0.000825514
0.00084951
0.000868419
3.2544e-06
3.51148e-06
3.84209e-06
4.21076e-06
4.61205e-06
5.04661e-06
5.51638e-06
6.02364e-06
6.57082e-06
7.16046e-06
7.7952e-06
8.47781e-06
9.21114e-06
9.99818e-06
1.0842e-05
1.17459e-05
1.27131e-05
1.37471e-05
1.48514e-05
1.60297e-05
1.72859e-05
1.86238e-05
2.00474e-05
2.15609e-05
2.31685e-05
2.48747e-05
2.66838e-05
2.86006e-05
3.06296e-05
3.27758e-05
3.50441e-05
3.74394e-05
3.99669e-05
4.2632e-05
4.54398e-05
4.8396e-05
5.15061e-05
5.47758e-05
5.82108e-05
6.18171e-05
6.56007e-05
6.95677e-05
7.37242e-05
7.80768e-05
8.26317e-05
8.73955e-05
9.23748e-05
9.75763e-05
0.000103007
0.000108673
0.000114583
0.000120742
0.000127159
0.000133841
0.000140794
0.000148028
0.000155548
0.000163364
0.000171483
0.000179912
0.00018866
0.000197736
0.000207146
0.000216899
0.000227004
0.000237468
0.000248301
0.000259509
0.000271102
0.000283088
0.000295476
0.000308273
0.000321488
0.000335131
0.00034921
0.000363734
0.000378715
0.000394162
0.000410087
0.000426504
0.000443426
0.000460872
0.000478858
0.000497406
0.000516539
0.000536282
0.000556663
0.000577711
0.00059945
0.000621901
0.000645071
0.000668944
0.000693457
0.000718479
0.00074375
0.000768833
0.000793304
0.000816287
0.000836399
0.000851512
3.54846e-06
3.83108e-06
4.1912e-06
4.59148e-06
5.0266e-06
5.49742e-06
6.00605e-06
6.5549e-06
7.14654e-06
7.78364e-06
8.46899e-06
9.20547e-06
9.99609e-06
1.0844e-05
1.17523e-05
1.27245e-05
1.37639e-05
1.48742e-05
1.6059e-05
1.73221e-05
1.86674e-05
2.00988e-05
2.16206e-05
2.32369e-05
2.4952e-05
2.67703e-05
2.86964e-05
3.07349e-05
3.28904e-05
3.51677e-05
3.75718e-05
4.01075e-05
4.278e-05
4.55943e-05
4.85557e-05
5.16693e-05
5.49406e-05
5.83751e-05
6.19781e-05
6.57552e-05
6.97121e-05
7.38544e-05
7.8188e-05
8.27185e-05
8.74519e-05
9.23939e-05
9.75506e-05
0.000102928
0.000108532
0.000114368
0.000120443
0.000126763
0.000133334
0.000140162
0.000147253
0.000154614
0.00016225
0.000170168
0.000178375
0.000186876
0.000195677
0.000204785
0.000214207
0.000223947
0.000234012
0.000244408
0.000255142
0.000266219
0.000277644
0.000289425
0.000301566
0.000314074
0.000326956
0.000340216
0.000353864
0.000367905
0.000382347
0.000397201
0.000412477
0.000428186
0.000444342
0.000460963
0.000478067
0.000495676
0.000513814
0.000532509
0.00055179
0.000571687
0.000592225
0.000613423
0.000635279
0.000657761
0.000680781
0.000704166
0.000727611
0.000750648
0.000772865
0.000793472
0.000811169
0.000823699
3.86323e-06
4.17295e-06
4.56429e-06
4.99801e-06
5.46895e-06
5.97816e-06
6.52789e-06
7.12069e-06
7.75924e-06
8.44634e-06
9.18491e-06
9.97795e-06
1.08286e-05
1.17401e-05
1.27157e-05
1.3759e-05
1.48734e-05
1.60626e-05
1.73305e-05
1.86807e-05
2.01173e-05
2.16444e-05
2.3266e-05
2.49864e-05
2.68098e-05
2.87407e-05
3.07835e-05
3.29427e-05
3.52229e-05
3.76288e-05
4.0165e-05
4.28363e-05
4.56474e-05
4.86033e-05
5.17087e-05
5.49685e-05
5.83876e-05
6.19711e-05
6.57237e-05
6.96506e-05
7.37565e-05
7.80465e-05
8.25256e-05
8.71985e-05
9.20703e-05
9.71458e-05
0.00010243
0.000107927
0.000113643
0.000119581
0.000125746
0.000132144
0.000138778
0.000145653
0.000152774
0.000160144
0.000167768
0.00017565
0.000183795
0.000192205
0.000200885
0.000209839
0.000219069
0.000228581
0.000238376
0.000248458
0.00025883
0.000269496
0.000280457
0.000291717
0.000303278
0.000315144
0.000327317
0.000339802
0.000352601
0.00036572
0.000379163
0.000392937
0.00040705
0.000421511
0.000436332
0.000451528
0.000467116
0.000483118
0.000499558
0.000516465
0.000533869
0.000551805
0.000570304
0.000589394
0.000609085
0.000629367
0.000650182
0.000671408
0.00069282
0.000713998
0.000734518
0.000753621
0.000769867
0.000780487
4.17061e-06
4.50671e-06
4.92812e-06
5.39399e-06
5.89933e-06
6.44535e-06
7.03441e-06
7.66916e-06
8.35238e-06
9.08698e-06
9.87596e-06
1.07224e-05
1.16295e-05
1.26007e-05
1.36392e-05
1.47486e-05
1.59325e-05
1.71946e-05
1.85387e-05
1.99685e-05
2.14881e-05
2.31014e-05
2.48125e-05
2.66255e-05
2.85446e-05
3.05741e-05
3.27182e-05
3.49812e-05
3.73675e-05
3.98813e-05
4.25271e-05
4.53092e-05
4.8232e-05
5.12998e-05
5.45169e-05
5.78875e-05
6.14161e-05
6.51067e-05
6.89635e-05
7.29907e-05
7.71921e-05
8.15718e-05
8.61336e-05
9.08813e-05
9.58185e-05
0.000100949
0.000106275
0.000111802
0.000117531
0.000123467
0.000129611
0.000135966
0.000142536
0.000149323
0.000156328
0.000163554
0.000171003
0.000178676
0.000186574
0.0001947
0.000203055
0.000211638
0.000220451
0.000229494
0.000238767
0.00024827
0.000258003
0.000267966
0.000278158
0.000288578
0.000299225
0.0003101
0.000321202
0.000332529
0.000344084
0.000355865
0.000367876
0.000380117
0.000392594
0.000405311
0.000418276
0.0004315
0.000444998
0.000458786
0.000472887
0.000487329
0.000502143
0.000517366
0.000533038
0.000549201
0.000565892
0.000583137
0.000600944
0.000619285
0.000638084
0.000657093
0.000675748
0.000693338
0.000708225
0.000717097
4.43741e-06
4.79627e-06
5.2433e-06
5.73644e-06
6.27085e-06
6.84788e-06
7.46996e-06
8.13981e-06
8.86026e-06
9.63426e-06
1.04649e-05
1.13552e-05
1.23085e-05
1.33281e-05
1.44174e-05
1.55799e-05
1.68191e-05
1.81388e-05
1.95426e-05
2.10343e-05
2.26177e-05
2.42968e-05
2.60753e-05
2.79572e-05
2.99466e-05
3.20473e-05
3.42634e-05
3.65988e-05
3.90574e-05
4.16432e-05
4.43601e-05
4.72119e-05
5.02024e-05
5.33352e-05
5.6614e-05
6.00424e-05
6.36237e-05
6.73613e-05
7.12584e-05
7.5318e-05
7.95431e-05
8.39363e-05
8.85003e-05
9.32376e-05
9.81502e-05
0.00010324
0.00010851
0.00011396
0.000119592
0.000125408
0.000131408
0.000137594
0.000143965
0.000150521
0.000157263
0.000164191
0.000171303
0.000178598
0.000186076
0.000193735
0.000201572
0.000209586
0.000217775
0.000226135
0.000234663
0.000243357
0.000252211
0.000261223
0.000270388
0.000279702
0.000289159
0.000298757
0.000308491
0.000318356
0.000328349
0.000338467
0.000348705
0.000359064
0.00036954
0.000380135
0.00039085
0.000401689
0.000412662
0.000423778
0.000435054
0.000446512
0.00045818
0.00047009
0.000482285
0.00049481
0.000507718
0.000521066
0.000534911
0.000549315
0.000564344
0.000580003
0.000595631
0.000610583
0.000623209
0.000630031
4.62942e-06
5.00449e-06
5.46943e-06
5.98149e-06
6.53597e-06
7.13428e-06
7.77888e-06
8.4725e-06
9.21798e-06
1.00183e-05
1.08764e-05
1.17955e-05
1.27787e-05
1.38295e-05
1.4951e-05
1.61467e-05
1.74201e-05
1.87748e-05
2.02143e-05
2.17423e-05
2.33623e-05
2.50781e-05
2.68933e-05
2.88116e-05
3.08367e-05
3.29722e-05
3.52216e-05
3.75886e-05
4.00766e-05
4.2689e-05
4.54292e-05
4.83005e-05
5.13058e-05
5.44483e-05
5.77308e-05
6.11559e-05
6.47262e-05
6.84441e-05
7.23118e-05
7.63312e-05
8.0504e-05
8.48317e-05
8.93157e-05
9.39569e-05
9.87559e-05
0.000103713
0.000108829
0.000114104
0.000119537
0.000125127
0.000130873
0.000136774
0.000142829
0.000149034
0.000155388
0.000161888
0.00016853
0.000175312
0.000182228
0.000189275
0.000196448
0.000203741
0.00021115
0.000218667
0.000226288
0.000234005
0.000241811
0.000249698
0.000257659
0.000265686
0.00027377
0.000281904
0.00029008
0.000298289
0.000306524
0.000314778
0.000323043
0.000331314
0.000339584
0.000347847
0.000356097
0.000364332
0.000372553
0.00038076
0.000388958
0.000397158
0.000405375
0.000413631
0.000421953
0.000430375
0.000438936
0.000447686
0.000456683
0.000466005
0.000475768
0.000486118
0.000496801
0.000507026
0.000515585
0.000519602
4.71766e-06
5.09989e-06
5.57244e-06
6.09238e-06
6.65508e-06
7.26194e-06
7.91541e-06
8.61819e-06
9.37308e-06
1.0183e-05
1.10509e-05
1.19798e-05
1.29729e-05
1.40333e-05
1.51644e-05
1.63693e-05
1.76515e-05
1.90144e-05
2.04612e-05
2.19956e-05
2.36207e-05
2.53402e-05
2.71574e-05
2.90756e-05
3.10982e-05
3.32284e-05
3.54694e-05
3.78244e-05
4.02963e-05
4.28881e-05
4.56025e-05
4.8442e-05
5.14093e-05
5.45064e-05
5.77356e-05
6.10986e-05
6.45972e-05
6.82327e-05
7.20064e-05
7.59189e-05
7.9971e-05
8.4163e-05
8.84947e-05
9.29659e-05
9.75757e-05
0.000102323
0.000107207
0.000112225
0.000117376
0.000122656
0.000128064
0.000133594
0.000139244
0.00014501
0.000150886
0.000156867
0.000162949
0.000169124
0.000175387
0.000181729
0.000188145
0.000194626
0.000201162
0.000207746
0.000214369
0.00022102
0.00022769
0.000234368
0.000241044
0.000247706
0.000254344
0.000260945
0.000267498
0.000273991
0.000280412
0.000286749
0.000292991
0.000299128
0.000305148
0.000311043
0.000316808
0.000322433
0.000327909
0.000333224
0.000338365
0.000343331
0.000348121
0.000352732
0.00035717
0.000361439
0.000365543
0.000369489
0.000373282
0.000376931
0.000380455
0.000383884
0.000387263
0.000390433
0.000392667
0.000392657
4.68579e-06
5.06467e-06
5.53319e-06
6.04862e-06
6.60629e-06
7.20756e-06
7.85482e-06
8.5507e-06
9.29793e-06
1.00993e-05
1.09577e-05
1.18762e-05
1.28576e-05
1.39051e-05
1.50219e-05
1.62109e-05
1.74755e-05
1.88188e-05
2.0244e-05
2.17543e-05
2.3353e-05
2.50431e-05
2.68277e-05
2.871e-05
3.06929e-05
3.27792e-05
3.49719e-05
3.72735e-05
3.96867e-05
4.22137e-05
4.48568e-05
4.7618e-05
5.04991e-05
5.35018e-05
5.66273e-05
5.98768e-05
6.32511e-05
6.67507e-05
7.03758e-05
7.41263e-05
7.80017e-05
8.20012e-05
8.61235e-05
9.03671e-05
9.47299e-05
9.92096e-05
0.000103803
0.000108508
0.000113319
0.000118233
0.000123245
0.00012835
0.000133542
0.000138814
0.000144161
0.000149575
0.000155049
0.000160573
0.00016614
0.00017174
0.000177363
0.000183
0.00018864
0.000194271
0.000199882
0.00020546
0.000210994
0.00021647
0.000221874
0.000227194
0.000232415
0.000237522
0.000242501
0.000247337
0.000252015
0.000256521
0.00026084
0.000264957
0.000268858
0.00027253
0.000275959
0.000279133
0.000282037
0.000284662
0.000287
0.00028903
0.000290726
0.000292052
0.000292996
0.000293532
0.000293627
0.000293243
0.000292331
0.000290827
0.000288653
0.000285724
0.000281965
0.000277345
0.000272047
0.000266833
4.53814e-06
4.90367e-06
5.357e-06
5.85603e-06
6.396e-06
6.97816e-06
7.60479e-06
8.27842e-06
9.00168e-06
9.77728e-06
1.0608e-05
1.14966e-05
1.2446e-05
1.34592e-05
1.4539e-05
1.56885e-05
1.69106e-05
1.82084e-05
1.95849e-05
2.1043e-05
2.25857e-05
2.42159e-05
2.59364e-05
2.775e-05
2.96593e-05
3.16669e-05
3.37753e-05
3.59866e-05
3.83031e-05
4.07267e-05
4.3259e-05
4.59016e-05
4.86558e-05
5.15225e-05
5.45025e-05
5.75962e-05
6.08037e-05
6.41247e-05
6.75588e-05
7.11048e-05
7.47615e-05
7.85269e-05
8.2399e-05
8.63751e-05
9.04519e-05
9.4626e-05
9.88934e-05
0.000103249
0.000107689
0.000112206
0.000116796
0.00012145
0.000126162
0.000130925
0.000135729
0.000140566
0.000145427
0.000150302
0.000155179
0.000160049
0.0001649
0.000169719
0.000174494
0.000179212
0.00018386
0.000188424
0.000192888
0.000197238
0.00020146
0.000205536
0.000209452
0.000213191
0.000216736
0.000220071
0.000223179
0.000226044
0.000228648
0.000230975
0.000233009
0.000234733
0.000236131
0.000237187
0.000237884
0.000238206
0.000238136
0.000237653
0.000236736
0.000235369
0.000233501
0.000231071
0.000228023
0.000224303
0.000219851
0.000214587
0.000208429
0.000201316
0.000193276
0.000184555
0.000175904
0.000168969
4.29709e-06
4.64137e-06
5.07045e-06
5.5434e-06
6.05529e-06
6.60722e-06
7.20136e-06
7.8401e-06
8.52595e-06
9.26145e-06
1.00492e-05
1.0892e-05
1.17924e-05
1.27533e-05
1.37774e-05
1.48675e-05
1.60264e-05
1.7257e-05
1.85619e-05
1.99441e-05
2.14062e-05
2.29508e-05
2.45806e-05
2.6298e-05
2.81055e-05
3.00053e-05
3.19995e-05
3.409e-05
3.62787e-05
3.85671e-05
4.09565e-05
4.34481e-05
4.60427e-05
4.87408e-05
5.15426e-05
5.44481e-05
5.74568e-05
6.05679e-05
6.37802e-05
6.7092e-05
7.05014e-05
7.40058e-05
7.76022e-05
8.12872e-05
8.50567e-05
8.89064e-05
9.28313e-05
9.68258e-05
0.000100884
0.000104999
0.000109163
0.00011337
0.00011761
0.000121874
0.000126154
0.000130438
0.000134717
0.000138979
0.000143212
0.000147404
0.000151542
0.000155612
0.000159602
0.000163495
0.000167279
0.000170937
0.000174453
0.000177812
0.000180997
0.000183991
0.000186778
0.000189339
0.000191658
0.000193717
0.000195499
0.000196986
0.000198161
0.000199007
0.000199506
0.000199641
0.000199397
0.000198755
0.0001977
0.000196214
0.00019428
0.000191878
0.000188987
0.000185586
0.000181645
0.000177138
0.000172012
0.000166174
0.000159596
0.000152245
0.000144094
0.000135169
0.000125621
0.000115854
0.000106745
9.99624e-05
3.99422e-06
4.3121e-06
4.71086e-06
5.15117e-06
5.62796e-06
6.14213e-06
6.6957e-06
7.29093e-06
7.93014e-06
8.61575e-06
9.35021e-06
1.0136e-05
1.09757e-05
1.18719e-05
1.28271e-05
1.3844e-05
1.49252e-05
1.60733e-05
1.72909e-05
1.85805e-05
1.99446e-05
2.13857e-05
2.29061e-05
2.45081e-05
2.61938e-05
2.79653e-05
2.98245e-05
3.17729e-05
3.38122e-05
3.59436e-05
3.81682e-05
4.04867e-05
4.28997e-05
4.54075e-05
4.80098e-05
5.07064e-05
5.34963e-05
5.63784e-05
5.93511e-05
6.24124e-05
6.55596e-05
6.87899e-05
7.20998e-05
7.54853e-05
7.89419e-05
8.24646e-05
8.60478e-05
8.96854e-05
9.33707e-05
9.70962e-05
0.000100854
0.000104636
0.000108433
0.000112234
0.000116031
0.000119811
0.000123563
0.000127276
0.000130936
0.000134531
0.000138047
0.000141469
0.000144784
0.000147975
0.000151027
0.000153925
0.000156652
0.000159191
0.000161525
0.000163637
0.000165511
0.000167127
0.00016847
0.000169521
0.000170263
0.000170679
0.000170753
0.000170467
0.000169806
0.000168753
0.000167295
0.000165415
0.0001631
0.000160335
0.000157108
0.000153404
0.00014921
0.000144514
0.000139302
0.000133564
0.000127289
0.000120474
0.000113046
0.000105047
9.65194e-05
8.75644e-05
7.83996e-05
6.94381e-05
6.14209e-05
5.56299e-05
3.66373e-06
3.95303e-06
4.31867e-06
4.7233e-06
5.16172e-06
5.63465e-06
6.14391e-06
6.6916e-06
7.2799e-06
7.91102e-06
8.58726e-06
9.31093e-06
1.00844e-05
1.091e-05
1.17902e-05
1.27274e-05
1.3724e-05
1.47824e-05
1.5905e-05
1.70941e-05
1.8352e-05
1.96811e-05
2.10833e-05
2.25609e-05
2.41156e-05
2.57495e-05
2.7464e-05
2.92608e-05
3.1141e-05
3.31059e-05
3.51562e-05
3.72926e-05
3.95153e-05
4.18245e-05
4.42198e-05
4.67006e-05
4.92658e-05
5.19141e-05
5.46437e-05
5.74522e-05
6.03371e-05
6.3295e-05
6.63223e-05
6.94147e-05
7.25675e-05
7.57755e-05
7.90327e-05
8.23329e-05
8.5669e-05
8.90333e-05
9.24176e-05
9.58131e-05
9.92103e-05
0.000102599
0.000105969
0.000109309
0.000112607
0.00011585
0.000119026
0.00012212
0.00012512
0.000128011
0.000130777
0.000133404
0.000135875
0.000138174
0.000140285
0.000142192
0.000143877
0.000145324
0.000146515
0.000147433
0.000148063
0.000148385
0.000148385
0.000148047
0.000147354
0.000146292
0.000144846
0.000143003
0.000140752
0.000138079
0.000134975
0.000131432
0.000127441
0.000122998
0.000118099
0.000112745
0.00010694
0.000100697
9.40357e-05
8.69884e-05
7.95976e-05
7.18673e-05
6.39053e-05
5.58507e-05
4.7929e-05
4.04877e-05
3.40505e-05
2.94464e-05
3.3367e-06
3.59785e-06
3.93065e-06
4.2999e-06
4.7003e-06
5.13237e-06
5.59776e-06
6.0984e-06
6.63629e-06
7.2135e-06
7.83212e-06
8.4943e-06
9.20221e-06
9.95805e-06
1.0764e-05
1.16224e-05
1.25354e-05
1.35051e-05
1.45339e-05
1.56239e-05
1.67771e-05
1.79956e-05
1.92815e-05
2.06366e-05
2.20626e-05
2.35612e-05
2.5134e-05
2.67822e-05
2.8507e-05
3.03093e-05
3.21898e-05
3.41492e-05
3.61874e-05
3.83045e-05
4.05001e-05
4.27733e-05
4.51232e-05
4.75483e-05
5.00466e-05
5.26158e-05
5.52532e-05
5.79556e-05
6.07191e-05
6.35396e-05
6.64123e-05
6.93319e-05
7.22926e-05
7.5288e-05
7.83111e-05
8.13542e-05
8.44092e-05
8.74672e-05
9.05189e-05
9.35543e-05
9.65627e-05
9.9533e-05
0.000102453
0.000105312
0.000108095
0.000110789
0.000113382
0.000115858
0.000118202
0.0001204
0.000122437
0.000124295
0.00012596
0.000127415
0.000128644
0.00012963
0.000130358
0.000130811
0.000130972
0.000130827
0.000130361
0.000129558
0.000128405
0.000126888
0.000124996
0.000122718
0.000120043
0.000116965
0.000113476
0.000109573
0.000105255
0.000100523
9.5383e-05
8.98474e-05
8.39351e-05
7.76752e-05
7.11106e-05
6.43018e-05
5.73299e-05
5.02565e-05
4.31757e-05
3.62377e-05
2.96485e-05
2.36783e-05
1.86708e-05
1.50995e-05
3.03836e-06
3.27378e-06
3.57649e-06
3.9134e-06
4.27912e-06
4.67394e-06
5.09937e-06
5.55716e-06
6.04917e-06
6.5773e-06
7.14351e-06
7.74976e-06
8.39808e-06
9.09049e-06
9.82905e-06
1.06158e-05
1.14528e-05
1.23422e-05
1.32859e-05
1.42859e-05
1.53442e-05
1.64627e-05
1.76432e-05
1.88875e-05
2.01971e-05
2.15736e-05
2.30184e-05
2.45326e-05
2.61174e-05
2.77735e-05
2.95016e-05
3.1302e-05
3.3175e-05
3.51204e-05
3.71377e-05
3.92262e-05
4.13848e-05
4.36119e-05
4.59057e-05
4.8264e-05
5.0684e-05
5.31625e-05
5.56959e-05
5.82801e-05
6.09104e-05
6.35816e-05
6.62881e-05
6.90237e-05
7.17815e-05
7.45542e-05
7.73337e-05
8.01117e-05
8.28788e-05
8.56254e-05
8.83413e-05
9.10156e-05
9.36369e-05
9.61934e-05
9.86725e-05
0.000101062
0.000103347
0.000105515
0.000107552
0.000109443
0.000111173
0.000112727
0.00011409
0.000115247
0.000116182
0.000116881
0.000117327
0.000117506
0.000117402
0.000117003
0.000116294
0.000115261
0.000113893
0.000112179
0.000110107
0.00010767
0.000104861
0.000101673
9.81035e-05
9.41525e-05
8.98224e-05
8.51195e-05
8.00553e-05
7.46477e-05
6.8923e-05
6.29189e-05
5.66876e-05
5.02994e-05
4.38444e-05
3.74356e-05
3.11479e-05
2.51205e-05
1.95355e-05
1.46122e-05
1.05936e-05
7.74718e-06
2.78851e-06
3.00199e-06
3.2793e-06
3.58906e-06
3.92573e-06
4.28942e-06
4.68146e-06
5.10348e-06
5.55721e-06
6.04442e-06
6.56694e-06
7.12661e-06
7.72531e-06
8.36494e-06
9.04741e-06
9.77466e-06
1.05486e-05
1.13712e-05
1.22442e-05
1.31697e-05
1.41494e-05
1.5185e-05
1.62784e-05
1.7431e-05
1.86445e-05
1.99202e-05
2.12595e-05
2.26634e-05
2.4133e-05
2.5669e-05
2.7272e-05
2.89423e-05
3.06801e-05
3.24852e-05
3.43572e-05
3.62953e-05
3.82983e-05
4.0365e-05
4.24934e-05
4.46814e-05
4.69263e-05
4.92251e-05
5.15743e-05
5.39698e-05
5.64072e-05
5.88816e-05
6.13874e-05
6.39187e-05
6.64689e-05
6.90309e-05
7.15971e-05
7.41592e-05
7.67084e-05
7.92355e-05
8.17306e-05
8.41834e-05
8.65828e-05
8.89177e-05
9.11762e-05
9.33459e-05
9.54142e-05
9.73679e-05
9.91937e-05
0.000100878
0.000102406
0.000103765
0.00010494
0.000105916
0.00010668
0.000107218
0.000107514
0.000107557
0.000107331
0.000106825
0.000106026
0.000104922
0.000103503
0.00010176
9.96832e-05
9.72664e-05
9.4504e-05
9.13925e-05
8.79307e-05
8.412e-05
7.99649e-05
7.54736e-05
7.06593e-05
6.5541e-05
6.01456e-05
5.45105e-05
4.86865e-05
4.27407e-05
3.67583e-05
3.08458e-05
2.51038e-05
1.96371e-05
1.46084e-05
1.02166e-05
6.68129e-06
4.20627e-06
2.60343e-06
2.79986e-06
3.05803e-06
3.34758e-06
3.66274e-06
4.0034e-06
4.37077e-06
4.76638e-06
5.19187e-06
5.64892e-06
6.13926e-06
6.66464e-06
7.22684e-06
7.82768e-06
8.46897e-06
9.15255e-06
9.88026e-06
1.06539e-05
1.14753e-05
1.23463e-05
1.32685e-05
1.42438e-05
1.52736e-05
1.63596e-05
1.75032e-05
1.87058e-05
1.99686e-05
2.12927e-05
2.2679e-05
2.41283e-05
2.56411e-05
2.72178e-05
2.88585e-05
3.05631e-05
3.2331e-05
3.41616e-05
3.60539e-05
3.80064e-05
4.00174e-05
4.20848e-05
4.4206e-05
4.63782e-05
4.85979e-05
5.08613e-05
5.3164e-05
5.55014e-05
5.7868e-05
6.02582e-05
6.26655e-05
6.50832e-05
6.75038e-05
6.99195e-05
7.23218e-05
7.47016e-05
7.70497e-05
7.9356e-05
8.16101e-05
8.38011e-05
8.59176e-05
8.7948e-05
8.98799e-05
9.17011e-05
9.33985e-05
9.49593e-05
9.63703e-05
9.7618e-05
9.86893e-05
9.95705e-05
0.000100248
0.00010071
0.000100942
0.000100932
0.000100668
0.000100138
9.93306e-05
9.82365e-05
9.68461e-05
9.51511e-05
9.31444e-05
9.08204e-05
8.81752e-05
8.52066e-05
8.19145e-05
7.83015e-05
7.4373e-05
7.01376e-05
6.56083e-05
6.08029e-05
5.57456e-05
5.04687e-05
4.50157e-05
3.94435e-05
3.38251e-05
2.82457e-05
2.28142e-05
1.76167e-05
1.27913e-05
8.52537e-06
5.05518e-06
2.61717e-06
2.4986e-06
2.68418e-06
2.93109e-06
3.20907e-06
3.512e-06
3.83961e-06
4.19302e-06
4.57371e-06
4.98326e-06
5.42331e-06
5.89553e-06
6.40162e-06
6.94334e-06
7.52242e-06
8.14065e-06
8.79982e-06
9.5017e-06
1.02481e-05
1.10407e-05
1.18814e-05
1.27718e-05
1.37135e-05
1.47082e-05
1.57574e-05
1.68625e-05
1.80249e-05
1.92457e-05
2.05261e-05
2.18669e-05
2.32689e-05
2.47326e-05
2.62585e-05
2.78465e-05
2.94967e-05
3.12085e-05
3.29813e-05
3.48141e-05
3.67055e-05
3.86539e-05
4.06571e-05
4.27128e-05
4.48181e-05
4.69696e-05
4.91637e-05
5.13961e-05
5.36622e-05
5.59568e-05
5.82742e-05
6.06083e-05
6.29524e-05
6.52993e-05
6.76412e-05
6.997e-05
7.22768e-05
7.45525e-05
7.67874e-05
7.89713e-05
8.10935e-05
8.3143e-05
8.51084e-05
8.69777e-05
8.8739e-05
9.03798e-05
9.18874e-05
9.32492e-05
9.44522e-05
9.54836e-05
9.63304e-05
9.69799e-05
9.74195e-05
9.76367e-05
9.76196e-05
9.73566e-05
9.68369e-05
9.605e-05
9.49866e-05
9.36379e-05
9.19967e-05
9.00564e-05
8.78122e-05
8.52609e-05
8.24008e-05
7.92324e-05
7.57586e-05
7.19849e-05
6.79201e-05
6.35762e-05
5.89697e-05
5.41219e-05
4.90599e-05
4.38191e-05
3.84475e-05
3.30122e-05
2.75994e-05
2.23099e-05
1.7229e-05
1.247e-05
8.18917e-06
4.61023e-06
2.01183e-06
0.000901011
0.000900462
0.000896897
0.000892234
0.000886984
0.000881328
0.000875342
0.000869054
0.000862458
0.000855525
0.000848196
0.000840393
0.000832018
0.000822963
0.00081313
0.000802477
0.000791088
0.000779333
0.000768186
0.00075994
0.00089141
0.000890374
0.000885725
0.000879674
0.000872954
0.000865834
0.000858416
0.000850727
0.00084275
0.000834436
0.000825706
0.000816451
0.000806546
0.000795858
0.000784275
0.000771759
0.000758443
0.000744822
0.000732138
0.000723111
0.000877875
0.000875497
0.000869514
0.000861975
0.000853694
0.000845007
0.000836051
0.000826861
0.000817412
0.000807638
0.000797435
0.000786668
0.000775184
0.000762828
0.000749482
0.000735121
0.000719934
0.000704548
0.000690449
0.000680713
0.000857445
0.000853345
0.000845812
0.000836731
0.000826895
0.000816664
0.000806197
0.00079554
0.000784664
0.000773488
0.000761885
0.000749697
0.000736747
0.000722865
0.000707928
0.000691933
0.000675138
0.000658308
0.000643158
0.00063306
0.000826371
0.000820507
0.000811434
0.000800916
0.000789698
0.000778135
0.000766389
0.000754509
0.000742464
0.00073016
0.000717454
0.000704166
0.000690102
0.000675082
0.000658984
0.000641837
0.000623974
0.000606308
0.000590757
0.000580811
0.000780202
0.000772869
0.000762601
0.00075105
0.000738908
0.000726506
0.000713998
0.000701428
0.00068876
0.000675895
0.000662672
0.0006489
0.000634377
0.000618916
0.000602402
0.000584901
0.000566831
0.00054924
0.000534198
0.000524985
0.000714427
0.000706294
0.000695586
0.000683803
0.000671568
0.000659179
0.000646772
0.000634382
0.00062197
0.000609426
0.000596586
0.00058326
0.000569248
0.000554363
0.000538501
0.000521767
0.000504656
0.000488317
0.00047484
0.000466904
0.000625917
0.000618008
0.000608014
0.000597189
0.000586062
0.000574884
0.000563762
0.000552718
0.000541708
0.000530614
0.000519296
0.000507585
0.000495295
0.000482248
0.000468363
0.000453768
0.000439002
0.000425241
0.000414322
0.000408084
0.000515182
0.000508703
0.000500786
0.00049232
0.000483687
0.000475069
0.000466537
0.000458089
0.000449667
0.000441195
0.000432575
0.000423681
0.000414365
0.000404486
0.000393977
0.000382968
0.000371975
0.000362012
0.00035438
0.000350098
0.000388738
0.000384706
0.000380052
0.000375151
0.000370174
0.000365207
0.000360262
0.000355346
0.000350428
0.000345484
0.000340455
0.000335292
0.00032991
0.00032425
0.000318269
0.000312073
0.000306005
0.000300644
0.000296643
0.000294449
0.000263081
0.000261728
0.000260673
0.00025965
0.000258581
0.000257438
0.000256229
0.000254961
0.000253641
0.000252277
0.000250873
0.000249449
0.000248034
0.000246675
0.000245441
0.00024439
0.000243537
0.000242893
0.000242499
0.000242425
0.000166179
0.000166571
0.000167708
0.000169055
0.000170418
0.000171712
0.000172912
0.000174016
0.00017506
0.000176082
0.000177126
0.000178258
0.000179566
0.000181156
0.000183129
0.000185535
0.000188282
0.000191061
0.000193426
0.000195032
9.79501e-05
9.91697e-05
0.000101276
0.000103675
0.000106144
0.000108589
0.00011097
0.000113282
0.000115548
0.000117821
0.000120173
0.000122689
0.000125478
0.000128662
0.000132354
0.000136603
0.00014131
0.000146101
0.000150259
0.000152974
5.40491e-05
5.54083e-05
5.76188e-05
6.01384e-05
6.27666e-05
6.54159e-05
6.80486e-05
7.06584e-05
7.32641e-05
7.59118e-05
7.86748e-05
8.16402e-05
8.49137e-05
8.8612e-05
9.28442e-05
9.7666e-05
0.000103002
0.000108524
0.000113478
0.00011673
2.80662e-05
2.91831e-05
3.10318e-05
3.31701e-05
3.5435e-05
3.77542e-05
4.00956e-05
4.2454e-05
4.48457e-05
4.73089e-05
4.99046e-05
5.27101e-05
5.58167e-05
5.93257e-05
6.33331e-05
6.78958e-05
7.29695e-05
7.8296e-05
8.32183e-05
8.64969e-05
1.38259e-05
1.4575e-05
1.59132e-05
1.75029e-05
1.92188e-05
2.10043e-05
2.28347e-05
2.47062e-05
2.66324e-05
2.86439e-05
3.07879e-05
3.31263e-05
3.57332e-05
3.86902e-05
4.20772e-05
4.59476e-05
5.02801e-05
5.48877e-05
5.92513e-05
6.22609e-05
6.55236e-06
6.96143e-06
7.82872e-06
8.90225e-06
1.00869e-05
1.13406e-05
1.26458e-05
1.40009e-05
1.54169e-05
1.69171e-05
1.85364e-05
2.03214e-05
2.23285e-05
2.4621e-05
2.72618e-05
3.02971e-05
3.3721e-05
3.74048e-05
4.09613e-05
4.35047e-05
3.06292e-06
3.22173e-06
3.73482e-06
4.40769e-06
5.16794e-06
5.98617e-06
6.85192e-06
7.76563e-06
8.73613e-06
9.78013e-06
1.09224e-05
1.21962e-05
1.36423e-05
1.53077e-05
1.72401e-05
1.94772e-05
2.20216e-05
2.47888e-05
2.75038e-05
2.95064e-05
1.46405e-06
1.4735e-06
1.75668e-06
2.15299e-06
2.61095e-06
3.1129e-06
3.65385e-06
4.23532e-06
4.86385e-06
5.55091e-06
6.31328e-06
7.17348e-06
8.15983e-06
9.30551e-06
1.06455e-05
1.22092e-05
1.40037e-05
1.59776e-05
1.79453e-05
1.9436e-05
7.20804e-07
6.83071e-07
8.33428e-07
1.05374e-06
1.31434e-06
1.60638e-06
1.92795e-06
2.28066e-06
2.66901e-06
3.10047e-06
3.58587e-06
4.13981e-06
4.7809e-06
5.53144e-06
6.41583e-06
7.45603e-06
8.66152e-06
1.00065e-05
1.13781e-05
1.24611e-05
0.001
0.001
0.001
0.001
0.001
0.001
0.001
0.001
0.001
0.001
0.001
0.001
0.001
0.001
0.001
0.001
0.001
0.001
0.001
0.001
0.001
0.001
0.001
0.001
0.001
0.001
0.001
0.001
0.001
0.001
0.001
0.001
0.001
0.001
0.001
0.001
0.001
0.001
0.001
0.001
0.001
0.001
0.001
0.001
0.001
0.001
0.001
0.001
0.001
0.001
0.001
0.001
0.001
0.001
0.001
0.001
0.001
0.001
0.001
0.001
0.001
0.001
0.001
0.001
0.001
0.001
0.001
0.001
0.001
0.001
0.001
0.001
0.001
0.001
0.001
0.001
0.001
0.001
0.001
0.001
0.001
0.001
0.001
0.001
0.001
0.001
0.001
0.001
0.001
0.001
0.001
0.001
0.001
0.001
0.001
0.001
0.001
0.001
0.001
0.001
0.001
0.001
0.001
0.001
0.001