/*--------------------------------*- C++ -*----------------------------------*\
| =========                 |                                                 |
| \\      /  F ield         | OpenFOAM: The Open Source CFD Toolbox           |
|  \\    /   O peration     | Version:  2.1.0                                 |
|   \\  /    A nd           | Web:      www.OpenFOAM.org                      |
|    \\/     M anipulation  |                                                 |
\*---------------------------------------------------------------------------*/
FoamFile
{
    version     2.0;
    format      ascii;
    class       volScalarField;
    location    "0.24";
    object      k;
}
// * * * * * * * * * * * * * * * * * * * * * * * * * * * * * * * * * * * * * //

dimensions      [0 2 -2 0 0 0 0];

internalField   nonuniform List<scalar> 
6400
(
0.0298706
0.0298931
0.0298846
0.0298651
0.029835
0.0298123
0.0297736
0.0297489
0.0297068
0.0296796
0.0296362
0.0296058
0.0295619
0.029528
0.0294839
0.0294467
0.0294024
0.0293624
0.029318
0.0292757
0.0292313
0.0291875
0.0291429
0.0290979
0.0290529
0.0290068
0.0289613
0.0289142
0.0288679
0.0288197
0.0287724
0.0287232
0.0286748
0.0286245
0.0285747
0.0285228
0.0284709
0.0284166
0.0283615
0.0283031
0.0282423
0.0281773
0.0281083
0.0280338
0.0279536
0.0278664
0.0277719
0.0276687
0.0275565
0.0274312
0.0272895
0.0271381
0.026985
0.0268199
0.0266518
0.0264741
0.02629
0.0260975
0.0258963
0.0256863
0.0254667
0.0252396
0.0250024
0.0247554
0.024498
0.0242288
0.0239467
0.0236511
0.0233419
0.0230194
0.0226791
0.0223247
0.0219532
0.0215662
0.0211635
0.0207456
0.0203135
0.0198686
0.0194126
0.0189478
0.0184759
0.0179979
0.0175129
0.0170181
0.0164778
0.0158941
0.0152715
0.0145896
0.0138054
0.0128806
0.0117346
0.0102576
0.00831747
0.00593101
0.0033773
0.00216956
0.00262644
0.00539915
0.00855199
0.00968321
0.0479717
0.0482365
0.0483589
0.0485827
0.0487221
0.0489445
0.0490993
0.0493165
0.0494857
0.049698
0.0498793
0.0500881
0.050279
0.0504857
0.0506839
0.0508899
0.0510939
0.0513006
0.0515097
0.0517191
0.0519346
0.0521498
0.0523729
0.0525959
0.0528279
0.0530602
0.0533019
0.0535445
0.0537966
0.0540504
0.0543137
0.0545796
0.054855
0.0551345
0.0554236
0.0557176
0.0560215
0.0563313
0.0566509
0.0569769
0.0573103
0.0576479
0.0579898
0.0583333
0.0586772
0.0590182
0.0593549
0.0596858
0.0600148
0.0603372
0.0606386
0.0609368
0.0612401
0.061535
0.0618316
0.0621208
0.0624063
0.0626831
0.0629511
0.0632057
0.0634432
0.0636677
0.0638754
0.0640686
0.0642439
0.0643936
0.0645172
0.0646068
0.0646497
0.0646631
0.0646239
0.0645252
0.0643596
0.0641225
0.0638027
0.0633928
0.0628835
0.0622678
0.0615388
0.0606925
0.0597286
0.0586478
0.0574426
0.0561316
0.0547088
0.053102
0.0512571
0.0491798
0.0467446
0.0439191
0.0405848
0.0366776
0.0322006
0.0274854
0.0226807
0.0181646
0.014618
0.0120656
0.0104977
0.00898276
0.053671
0.0540668
0.0542491
0.0545792
0.0548085
0.0551262
0.0553835
0.0556933
0.0559699
0.0562758
0.0565665
0.0568715
0.0571727
0.0574785
0.0577875
0.058095
0.0584094
0.0587188
0.059037
0.0593489
0.0596712
0.0599895
0.0603191
0.060645
0.0609816
0.0613153
0.0616605
0.0620041
0.0623583
0.0627122
0.0630761
0.0634406
0.0638143
0.064189
0.0645717
0.0649556
0.0653467
0.0657393
0.0661371
0.0665357
0.0669391
0.0673421
0.067746
0.0681457
0.0685393
0.0689203
0.0692833
0.0696183
0.0699377
0.0702574
0.0705577
0.0708573
0.071139
0.07141
0.0716641
0.0719014
0.0721201
0.072319
0.072499
0.0726584
0.0727989
0.0729055
0.0729729
0.0730038
0.0730102
0.0729492
0.0728479
0.0726864
0.0724633
0.072171
0.0718003
0.0713463
0.0707966
0.070145
0.0693816
0.0684972
0.0674838
0.0663334
0.0650387
0.0635936
0.0619938
0.0602363
0.0583205
0.0562468
0.054014
0.0516439
0.0491269
0.0464582
0.0436275
0.0406101
0.0373801
0.0338918
0.0301259
0.0260629
0.0218067
0.0175697
0.0140202
0.0110962
0.00898759
0.00690812
0.0581156
0.0585553
0.0587578
0.0591385
0.0594093
0.0597731
0.0600799
0.0604326
0.0607607
0.0611078
0.0614495
0.0617947
0.0621451
0.0624903
0.0628461
0.0631916
0.0635494
0.0638939
0.0642487
0.0645873
0.0649309
0.0652647
0.0656104
0.0659481
0.0662964
0.0666373
0.0669854
0.0673261
0.0676725
0.0680114
0.068354
0.068689
0.0690263
0.0693558
0.0696851
0.070005
0.0703235
0.0706332
0.0709356
0.0712274
0.0715115
0.0717812
0.0720402
0.0722833
0.0725105
0.0727197
0.0729102
0.0730818
0.0732348
0.0733661
0.0734719
0.0735558
0.0736019
0.0736201
0.0736136
0.07356
0.0734647
0.0733233
0.0731305
0.0728797
0.0725671
0.0721864
0.0717341
0.0712049
0.0705912
0.0698838
0.0690812
0.0681739
0.0671588
0.0660295
0.064786
0.063426
0.0619526
0.0603673
0.058679
0.0568911
0.0550171
0.0530625
0.0510391
0.0489516
0.0468078
0.0446108
0.042367
0.0400787
0.0377525
0.0353894
0.0330022
0.0305969
0.0281769
0.0257476
0.0233165
0.0208883
0.018469
0.0160679
0.0137078
0.0114707
0.00939331
0.00764663
0.00646477
0.00591313
0.0597314
0.0601283
0.0603076
0.0606589
0.0608979
0.0612303
0.0614987
0.0618131
0.0620957
0.0623952
0.0626829
0.0629702
0.063257
0.063533
0.0638143
0.0640791
0.0643509
0.0646053
0.0648642
0.0651059
0.0653508
0.0655803
0.0658109
0.0660252
0.0662385
0.0664342
0.0666276
0.0668025
0.0669727
0.067123
0.0672654
0.0673863
0.0674967
0.0675836
0.0676551
0.0676985
0.0677219
0.0677289
0.0677009
0.0676486
0.0675673
0.0674516
0.0673068
0.0671244
0.0669073
0.0666519
0.0663582
0.0660247
0.0656511
0.0652352
0.0647773
0.0642746
0.0637281
0.0631351
0.0624961
0.0618135
0.0610845
0.0603077
0.0594826
0.0586047
0.057675
0.0566864
0.0556402
0.0545297
0.0533554
0.0521125
0.0508026
0.0494243
0.0479809
0.0464747
0.0449124
0.0432988
0.0416437
0.0399521
0.0382401
0.0365112
0.0347773
0.0330434
0.0313173
0.029606
0.0279169
0.0262569
0.0246318
0.0230479
0.02151
0.0200245
0.0185867
0.0171954
0.0158525
0.0145552
0.0133044
0.0120971
0.0109346
0.00982012
0.00876346
0.0077903
0.00691673
0.00631745
0.00605799
0.0060642
0.0570024
0.0571881
0.0572745
0.0574536
0.057575
0.0577366
0.0578658
0.0580033
0.0581262
0.0582379
0.0583461
0.0584314
0.058519
0.0585763
0.0586372
0.0586672
0.0586885
0.0586946
0.0586878
0.0586542
0.0586101
0.0585391
0.0584549
0.0583422
0.0582146
0.0580556
0.0578797
0.0576703
0.0574418
0.0571831
0.0569048
0.0565935
0.0562613
0.0558943
0.0555041
0.0550781
0.0546291
0.0541448
0.0536339
0.0530902
0.0525211
0.051918
0.0512914
0.0506317
0.0499481
0.0492346
0.0484977
0.0477341
0.0469488
0.0461391
0.0453104
0.04446
0.0435942
0.0427101
0.0418136
0.0409013
0.0399784
0.0390397
0.0380897
0.0371223
0.0361441
0.0351469
0.0341367
0.0331075
0.0320653
0.0310076
0.0299408
0.0288656
0.0277885
0.0267116
0.0256425
0.024583
0.0235407
0.0225174
0.0215158
0.0205384
0.0195898
0.0186699
0.0177842
0.01693
0.0161124
0.0153251
0.0145685
0.0138429
0.013146
0.0124788
0.0118368
0.0112183
0.0106196
0.0100373
0.00946959
0.00891204
0.00836353
0.00782521
0.00730613
0.00683007
0.0064849
0.00633638
0.00631512
0.00654373
0.0486746
0.0484944
0.0484208
0.0482902
0.0482093
0.0480661
0.0479614
0.0477937
0.0476577
0.04746
0.0472888
0.047058
0.0468494
0.0465835
0.0463358
0.0460338
0.0457458
0.0454086
0.0450791
0.0447055
0.0443353
0.0439256
0.0435159
0.0430706
0.0426238
0.0421423
0.0416531
0.0411312
0.0406008
0.0400399
0.0394704
0.0388724
0.0382663
0.037634
0.0369946
0.0363319
0.0356642
0.0349767
0.0342861
0.0335804
0.0328759
0.0321605
0.0314495
0.0307311
0.0300194
0.0293051
0.0286008
0.0278989
0.0272099
0.0265272
0.0258611
0.025205
0.0245686
0.0239449
0.0233422
0.0227498
0.0221776
0.0216156
0.0210715
0.0205358
0.0200128
0.0194958
0.0189901
0.0184898
0.018001
0.0175184
0.0170483
0.0165864
0.0161366
0.015694
0.0152635
0.0148401
0.0144282
0.0140228
0.0136273
0.013237
0.0128542
0.0124749
0.0121046
0.0117423
0.0113849
0.0110352
0.010694
0.010357
0.0100311
0.00970797
0.00939352
0.009081
0.00877567
0.0084743
0.0081845
0.00790523
0.00764469
0.00741044
0.0072128
0.0070991
0.0070499
0.00710151
0.00743452
0.0076184
0.03593
0.035454
0.0352537
0.0348716
0.0346384
0.0342527
0.0339821
0.033583
0.0332746
0.0328571
0.0325123
0.032074
0.0316945
0.0312339
0.0308215
0.0303382
0.0298946
0.0293889
0.0289163
0.0283894
0.0278897
0.0273426
0.0268179
0.0262516
0.025704
0.0251254
0.0245749
0.0239982
0.0234507
0.0228772
0.0223336
0.02177
0.0212378
0.0206908
0.0201768
0.0196526
0.0191631
0.0186677
0.0182081
0.0177463
0.0173194
0.0168927
0.0165009
0.0161108
0.0157545
0.0154016
0.0150822
0.0147683
0.0144863
0.0142115
0.013966
0.013729
0.0135185
0.0133166
0.0131394
0.0129682
0.01282
0.0126751
0.0125503
0.0124272
0.0123203
0.0122156
0.0121242
0.0120364
0.011961
0.0118897
0.0118304
0.0117736
0.0117291
0.0116871
0.0116557
0.0116265
0.0116072
0.0115892
0.0115782
0.0115713
0.0115683
0.0115673
0.0115688
0.0115693
0.0115692
0.0115666
0.0115536
0.0115288
0.0114963
0.0114474
0.0113781
0.0112919
0.01118
0.0110442
0.010891
0.0107168
0.0105368
0.0103624
0.0102239
0.0101622
0.0101538
0.0103769
0.0106826
0.0108256
0.0223028
0.021694
0.021441
0.0209572
0.0206831
0.0202097
0.0199162
0.0194502
0.0191409
0.0186815
0.0183607
0.0179085
0.0175804
0.0171372
0.0168059
0.0163735
0.016043
0.0156235
0.0152967
0.014892
0.0145725
0.0141853
0.0138766
0.0135097
0.0132153
0.0128731
0.0126011
0.0122882
0.0120406
0.0117581
0.0115366
0.0112857
0.0110913
0.0108728
0.0107064
0.0105209
0.0103829
0.01023
0.0101205
0.0099988
0.0099171
0.0098252
0.00977043
0.00970848
0.00967809
0.00964883
0.00963728
0.00963357
0.00964187
0.00966855
0.00969961
0.00974854
0.00980482
0.0098725
0.00995286
0.0100384
0.0101402
0.0102446
0.0103649
0.0104897
0.0106276
0.0107739
0.0109311
0.0110995
0.0112789
0.0114701
0.0116741
0.0118888
0.0121181
0.012357
0.0126117
0.012876
0.0131568
0.0134482
0.0137564
0.0140769
0.0144143
0.0147656
0.0151331
0.0155145
0.0159106
0.0163186
0.0167372
0.0171648
0.0175985
0.0180355
0.01847
0.018898
0.0193117
0.0197054
0.0200735
0.0204101
0.0207146
0.0209891
0.0212444
0.0215217
0.0219191
0.0225182
0.0232163
0.0238283
0.0134394
0.0129021
0.0126872
0.0122792
0.012074
0.0116876
0.0114926
0.0111291
0.0109461
0.0106072
0.0104377
0.0101253
0.00996944
0.00968499
0.0095434
0.00928781
0.00916088
0.00893463
0.0088226
0.00862602
0.00852906
0.00836236
0.00828058
0.00814377
0.00807713
0.00797004
0.00791838
0.00783963
0.00780228
0.00775124
0.00772785
0.00770405
0.00769476
0.00769136
0.00769657
0.00771557
0.00773907
0.00777452
0.00781748
0.00786745
0.00792927
0.00799374
0.00807328
0.00815272
0.00824869
0.00834384
0.0084549
0.00856667
0.00869291
0.00882206
0.00896376
0.00911031
0.00926876
0.0094325
0.00960893
0.00979029
0.00998574
0.010186
0.0104011
0.0106223
0.0108582
0.0111025
0.0113614
0.0116311
0.0119157
0.0122127
0.012526
0.0128527
0.0131972
0.013556
0.0139346
0.0143291
0.0147453
0.0151799
0.0156384
0.0161185
0.016625
0.0171568
0.0177178
0.0183077
0.0189302
0.0195862
0.0202808
0.0210153
0.0217959
0.0226265
0.0235137
0.0244631
0.0254828
0.0265809
0.0277687
0.0290569
0.0304605
0.0319941
0.0336757
0.0355171
0.0375002
0.0395565
0.0410128
0.0416037
0.0152002
0.014635
0.0144069
0.0139726
0.0137481
0.0133333
0.0131137
0.0127199
0.0125069
0.0121354
0.0119314
0.011584
0.0113914
0.0110692
0.0108903
0.0105942
0.010431
0.0101617
0.0100158
0.00977403
0.00964649
0.0094326
0.00932432
0.00914025
0.00904912
0.00889601
0.00882087
0.00869894
0.00863961
0.00854836
0.00850454
0.00844286
0.00841382
0.00838006
0.00836531
0.00835835
0.00835716
0.00836843
0.00838996
0.00841524
0.00845635
0.00849665
0.00855426
0.00861065
0.00868267
0.00875534
0.00884099
0.00892966
0.00902962
0.00913395
0.00924951
0.00936948
0.00950169
0.00963794
0.00978764
0.00994131
0.010109
0.0102813
0.0104676
0.0106596
0.0108654
0.0110784
0.0113055
0.011541
0.0117911
0.0120508
0.0123258
0.0126115
0.0129133
0.0132269
0.0135575
0.0139015
0.0142634
0.0146409
0.0150375
0.0154524
0.0158884
0.0163452
0.0168261
0.0173307
0.017863
0.0184227
0.0190149
0.0196401
0.0203044
0.0210086
0.0217586
0.0225573
0.0234151
0.024336
0.0253303
0.0264049
0.0275737
0.0288493
0.0302554
0.0318251
0.0335886
0.0355284
0.0371583
0.0378891
0.0261648
0.025567
0.0253172
0.0248428
0.0245696
0.0241043
0.0238066
0.0233457
0.023025
0.0225633
0.0222196
0.0217573
0.0213967
0.0209348
0.020563
0.0201038
0.0197263
0.0192729
0.018895
0.0184511
0.0180778
0.0176471
0.0172834
0.0168701
0.0165207
0.0161288
0.0157981
0.0154305
0.015121
0.0147805
0.0144948
0.0141835
0.0139237
0.0136435
0.0134108
0.0131611
0.0129564
0.0127394
0.0125611
0.0123727
0.0122198
0.0120567
0.0119273
0.011788
0.0116805
0.0115641
0.011476
0.0113805
0.0113105
0.0112356
0.0111841
0.0111293
0.0110966
0.0110632
0.011047
0.0110388
0.0110368
0.0110483
0.0110658
0.0110955
0.0111306
0.0111762
0.0112286
0.0112892
0.0113585
0.0114342
0.0115192
0.0116096
0.0117094
0.011814
0.0119274
0.0120454
0.0121701
0.0122982
0.0124307
0.012566
0.012704
0.0128431
0.0129843
0.0131243
0.0132661
0.0134046
0.0135444
0.0136806
0.0138176
0.0139524
0.0140888
0.0142249
0.0143604
0.0144958
0.0146363
0.0147842
0.0149443
0.0151259
0.0153459
0.015633
0.0160528
0.0166524
0.0174442
0.0184468
0.0399432
0.0395545
0.0393913
0.039083
0.0388923
0.0385785
0.0383536
0.0380234
0.0377629
0.0374114
0.0371155
0.0367399
0.036409
0.0360081
0.0356431
0.0352163
0.0348187
0.0343663
0.0339378
0.0334609
0.0330039
0.0325043
0.0320217
0.0315022
0.0309977
0.0304617
0.0299399
0.0293925
0.0288593
0.0283053
0.0277656
0.0272095
0.0266686
0.0261159
0.0255794
0.0250328
0.0245097
0.0239815
0.0234725
0.0229604
0.0224684
0.0219725
0.0214985
0.0210203
0.0205652
0.0201059
0.0196684
0.0192271
0.0188076
0.018386
0.0179852
0.0175848
0.0172051
0.0168282
0.016472
0.0161204
0.0157885
0.0154621
0.0151533
0.0148513
0.0145646
0.0142846
0.0140186
0.0137577
0.0135094
0.0132642
0.0130301
0.0127978
0.012575
0.0123527
0.0121374
0.0119203
0.0117098
0.0115026
0.0113
0.0111009
0.0109052
0.0107122
0.0105229
0.0103351
0.0101527
0.00997065
0.00979525
0.00962118
0.009455
0.00929231
0.00913912
0.00899096
0.00885561
0.00872694
0.00860964
0.00849893
0.00840689
0.00834316
0.00831674
0.00831736
0.008484
0.00874134
0.00915851
0.00933637
0.0519528
0.0518814
0.051854
0.0518129
0.0517866
0.0517304
0.0516864
0.0516032
0.0515329
0.0514213
0.0513233
0.0511805
0.0510504
0.0508743
0.0507085
0.0504969
0.0502931
0.0500443
0.0498005
0.0495135
0.0492287
0.0489036
0.0485769
0.0482133
0.0478459
0.0474438
0.0470374
0.0465985
0.0461547
0.0456809
0.0452017
0.0446954
0.0441835
0.0436469
0.0431045
0.04254
0.0419672
0.0413723
0.0407691
0.040145
0.0395113
0.0388579
0.0381946
0.0375128
0.036821
0.0361118
0.0353918
0.0346548
0.0339085
0.0331485
0.0323821
0.0316057
0.030826
0.0300409
0.0292563
0.0284708
0.0276895
0.026911
0.0261401
0.0253747
0.0246193
0.0238719
0.0231366
0.0224092
0.0216969
0.0209942
0.020306
0.0196302
0.0189709
0.0183264
0.0177006
0.0170922
0.016502
0.0159248
0.0153653
0.0148178
0.0142865
0.0137653
0.0132578
0.0127577
0.0122696
0.0117867
0.0113134
0.0108442
0.010386
0.00994859
0.00952278
0.00911784
0.00872602
0.00835918
0.0080101
0.00768548
0.00738539
0.00710513
0.00686269
0.00669501
0.00662184
0.00661838
0.00694569
0.00713637
0.0589281
0.0591783
0.0592918
0.0595223
0.0596776
0.0598911
0.0600605
0.0602526
0.0604221
0.0605923
0.0607533
0.0609012
0.0610473
0.0611719
0.0612983
0.061398
0.0615002
0.0615729
0.0616472
0.0616905
0.0617277
0.0617435
0.0617485
0.0617296
0.0616982
0.0616387
0.0615701
0.0614705
0.0613604
0.0612189
0.0610641
0.060878
0.0606761
0.0604428
0.0601913
0.0599085
0.0596046
0.0592711
0.0589167
0.0585318
0.058122
0.0576803
0.0572114
0.0567083
0.0561748
0.0556062
0.055004
0.0543637
0.0536881
0.0529736
0.0522224
0.0514334
0.0506076
0.049746
0.0488495
0.0479198
0.0469579
0.0459657
0.044945
0.0438967
0.0428222
0.0417227
0.0406006
0.0394547
0.038289
0.0371051
0.0359089
0.0347001
0.0334846
0.0322621
0.031039
0.0298159
0.0285987
0.0273886
0.0261906
0.0250057
0.0238401
0.0226938
0.0215715
0.0204693
0.0193876
0.0183308
0.0172983
0.0162954
0.0153203
0.0143772
0.0134656
0.0125873
0.0117398
0.0109224
0.0101339
0.00937827
0.00865678
0.00798556
0.00735191
0.00679822
0.00636907
0.0061758
0.0061354
0.00631991
0.0605997
0.0610184
0.0612066
0.0615724
0.061821
0.0621682
0.0624478
0.0627785
0.0630742
0.0633919
0.0636948
0.064002
0.0643061
0.0646042
0.0649053
0.0651943
0.0654893
0.0657687
0.0660547
0.0663233
0.0665977
0.0668549
0.0671148
0.0673584
0.0676031
0.0678319
0.068063
0.0682769
0.0684912
0.0686885
0.0688838
0.0690622
0.069236
0.0693926
0.0695418
0.0696743
0.0697974
0.0699021
0.0699946
0.0700666
0.0701221
0.0701531
0.0701649
0.0701537
0.0701131
0.070042
0.0699399
0.0698004
0.0696239
0.0694049
0.0691414
0.0688311
0.0684702
0.0680582
0.0675917
0.0670708
0.0664915
0.065854
0.0651571
0.0643984
0.0635769
0.0626913
0.0617437
0.0607321
0.0596577
0.0585184
0.0573152
0.0560475
0.0547172
0.053325
0.0518729
0.0503628
0.048796
0.0471773
0.045508
0.0437922
0.0420308
0.0402285
0.0383886
0.03652
0.0346271
0.0327107
0.0307797
0.0288364
0.0268879
0.0249393
0.0230035
0.0210931
0.0192166
0.0173818
0.0155884
0.0138729
0.0122388
0.010733
0.00933719
0.00811958
0.00706653
0.00633467
0.00600446
0.00597398
0.058316
0.0587575
0.0589595
0.0593349
0.0596007
0.0599587
0.0602583
0.0606049
0.0609246
0.0612654
0.0615979
0.0619366
0.0622777
0.0626163
0.0629632
0.063303
0.0636534
0.0639945
0.0643468
0.0646886
0.0650407
0.0653814
0.0657297
0.0660654
0.066404
0.0667258
0.0670603
0.0673844
0.0677175
0.0680431
0.0683758
0.068703
0.0690365
0.0693667
0.0697039
0.0700359
0.0703717
0.0707031
0.0710365
0.0713662
0.0716962
0.072022
0.0723461
0.0726643
0.0729777
0.0732826
0.0735798
0.073865
0.0741378
0.0743952
0.0746352
0.0748551
0.0750521
0.0752248
0.0753713
0.0754915
0.0755741
0.0756148
0.0756282
0.0755962
0.0755101
0.0753685
0.0751721
0.074905
0.0745675
0.0741455
0.0736427
0.0730477
0.072358
0.071564
0.0706586
0.0696434
0.0685051
0.0672515
0.0658708
0.0643723
0.0627483
0.0610062
0.059145
0.0571675
0.0550783
0.0528746
0.0505619
0.0481368
0.045602
0.0429521
0.0401863
0.0373044
0.0343114
0.0312241
0.0280632
0.0248468
0.0216191
0.0184504
0.0154302
0.012625
0.0101647
0.00809384
0.00661183
0.00590213
0.0534364
0.0538177
0.053993
0.0543083
0.0545268
0.0548297
0.0550741
0.055369
0.0556315
0.0559225
0.0561983
0.0564885
0.0567745
0.0570658
0.0573597
0.0576533
0.0579531
0.0582495
0.0585538
0.0588528
0.0591601
0.0594613
0.0597706
0.0600739
0.0603849
0.060692
0.0610096
0.0613245
0.0616499
0.0619738
0.0623076
0.0626412
0.0629839
0.063327
0.0636774
0.064031
0.0643931
0.0647591
0.0651336
0.0655131
0.0659012
0.0662946
0.066696
0.0671028
0.0675169
0.067936
0.0683605
0.06879
0.0692229
0.0696565
0.0700868
0.0705108
0.0709213
0.0713114
0.0716698
0.0720344
0.0723759
0.0727115
0.0730254
0.0733232
0.0735986
0.0738526
0.0740871
0.074297
0.0744868
0.0746581
0.0747807
0.0748495
0.0748757
0.0748732
0.0747659
0.0746201
0.07437
0.0740513
0.0736145
0.0730716
0.0723947
0.071571
0.070583
0.0694085
0.0680317
0.0664326
0.0645952
0.0625084
0.0601613
0.0575529
0.0546851
0.0515639
0.0481875
0.0445547
0.0406475
0.0364352
0.031947
0.0272095
0.0225065
0.0181539
0.0144255
0.0115677
0.00941469
0.00723372
0.0473622
0.0476128
0.0477282
0.0479354
0.0480647
0.04827
0.0484133
0.0486139
0.0487706
0.048967
0.0491354
0.0493291
0.0495069
0.0496993
0.0498845
0.0500767
0.0502674
0.0504601
0.0506548
0.0508486
0.0510463
0.0512417
0.0514423
0.0516406
0.0518451
0.0520488
0.0522595
0.0524701
0.0526884
0.052907
0.0531334
0.0533608
0.053596
0.0538332
0.0540784
0.0543276
0.054585
0.0548476
0.0551188
0.0553965
0.0556836
0.0559782
0.0562828
0.0565962
0.0569202
0.0572537
0.057598
0.057949
0.0583072
0.0586706
0.0590378
0.0594076
0.0597785
0.0601505
0.0605257
0.0609128
0.0612996
0.0616952
0.062085
0.0624739
0.0628469
0.0631987
0.0635459
0.0638826
0.0642043
0.0645
0.0647839
0.0650463
0.0652893
0.0655028
0.0656748
0.0658044
0.0658656
0.0658861
0.065836
0.0656762
0.0654288
0.0650506
0.0645425
0.063875
0.063034
0.0619999
0.0607511
0.0592735
0.0575459
0.0555588
0.05328
0.0506925
0.0477498
0.0444231
0.0406793
0.0364329
0.0318268
0.0269373
0.0220684
0.0177654
0.0145201
0.0121305
0.0106942
0.0091696
0.0293442
0.0293635
0.0293493
0.0293297
0.029296
0.0292723
0.0292312
0.0292051
0.0291612
0.0291324
0.0290879
0.0290559
0.0290112
0.0289758
0.028931
0.0288923
0.028847
0.0288051
0.028759
0.0287144
0.0286674
0.0286204
0.0285725
0.0285237
0.0284749
0.0284249
0.0283754
0.0283243
0.0282738
0.0282215
0.0281701
0.0281168
0.0280643
0.0280103
0.0279571
0.0279025
0.0278487
0.0277939
0.0277398
0.0276848
0.0276304
0.0275753
0.0275205
0.027465
0.0274093
0.0273523
0.0272943
0.0272342
0.027172
0.0271072
0.0270395
0.026969
0.0268955
0.0268192
0.0267406
0.0266587
0.0265706
0.0264765
0.0263713
0.0262552
0.0261217
0.0259703
0.0258105
0.025639
0.0254575
0.025264
0.0250614
0.0248471
0.0246193
0.0243754
0.0241143
0.023833
0.0235296
0.0232077
0.0228561
0.0224707
0.0220577
0.0216045
0.0211149
0.0205835
0.0200073
0.019386
0.0187148
0.0179929
0.017215
0.0163748
0.0154536
0.0144292
0.0132544
0.0118685
0.0101878
0.00819434
0.00613289
0.00423049
0.00285785
0.00218881
0.00251395
0.00520626
0.00856267
0.00979256
0.00926389
0.00454056
0.00397421
0.00389838
0.00387821
0.00388229
0.00381859
0.00371882
0.00367001
0.00365321
0.00365089
0.00371485
0.00388765
0.00428164
0.00501527
0.00625824
0.00679287
0.00684593
0.00580906
0.00327919
0.00755457
0.004596
0.00427797
0.00417511
0.00413398
0.00404833
0.0039237
0.00384742
0.00382059
0.00381649
0.00384811
0.00394546
0.00420869
0.00471514
0.00574643
0.00665417
0.00687951
0.00671537
0.00526173
0.0026256
0.00608683
0.00473764
0.00456767
0.00450001
0.00437082
0.00424056
0.00412378
0.0040741
0.00405509
0.00405113
0.00409021
0.00425108
0.00463199
0.00541038
0.00646748
0.0068769
0.0069277
0.00644537
0.00460175
0.00195883
0.00574337
0.00508902
0.00500447
0.00480056
0.00461545
0.00446544
0.00436839
0.0043262
0.00431035
0.00433702
0.00445237
0.00476345
0.00543107
0.00648064
0.00697397
0.00710925
0.00686679
0.00601283
0.00374537
0.00136778
0.00589541
0.00548071
0.00534253
0.0050261
0.00488725
0.00476534
0.00472222
0.00471735
0.00478212
0.00493313
0.00521062
0.00584378
0.0067803
0.00723883
0.00739547
0.00722222
0.0066611
0.00533488
0.0028464
0.000889909
0.00628409
0.00591331
0.00576766
0.00552337
0.00545364
0.00542485
0.00549599
0.00564683
0.005946
0.0062963
0.00689405
0.00762144
0.00795739
0.00804234
0.00771414
0.00712379
0.00620027
0.00444682
0.00198166
0.000527526
0.00716788
0.00697838
0.00692065
0.00689074
0.00709347
0.00736316
0.0078149
0.00843042
0.00913611
0.00940234
0.00953968
0.00950174
0.00907808
0.00843849
0.00768388
0.00681802
0.00539466
0.00351199
0.00126696
0.000277294
0.0106297
0.0109424
0.0114391
0.0120292
0.0129968
0.0137408
0.0141163
0.0142109
0.0131081
0.0125687
0.0115046
0.0107421
0.00962734
0.00864021
0.00745652
0.00613859
0.00438163
0.00253477
0.000821474
0.000137644
0.0239272
0.0241702
0.0242747
0.0238611
0.0230851
0.0215768
0.0198697
0.0180678
0.016318
0.0148911
0.0130778
0.0118229
0.00998064
0.00850886
0.00676616
0.00497639
0.00325413
0.00172261
0.000598734
8.44069e-05
0.0382884
0.0365364
0.0345408
0.0317844
0.0292719
0.0260942
0.0238172
0.021068
0.0189642
0.016543
0.0144158
0.0121751
0.00983426
0.00748536
0.00533659
0.003534
0.0023013
0.00118013
0.000473784
9.09633e-05
0.0355623
0.0340123
0.0325364
0.0300662
0.0279881
0.0249372
0.0229975
0.0203544
0.0185702
0.0162113
0.014464
0.0121707
0.0101992
0.00795997
0.00571586
0.00379284
0.00236528
0.00114541
0.00041049
7.73865e-05
0.0188081
0.0196819
0.0201438
0.0203579
0.0204106
0.0195339
0.0183802
0.0168332
0.0155988
0.0141285
0.0130125
0.0115121
0.0102401
0.00866562
0.00714701
0.00535291
0.00345723
0.00170601
0.000509149
6.92664e-05
0.00914507
0.00926051
0.00965889
0.0100851
0.0108658
0.0118252
0.012527
0.0128264
0.0126214
0.011773
0.0113646
0.0104444
0.00969934
0.00870669
0.00764451
0.00639214
0.00463069
0.00263945
0.00077199
9.51842e-05
0.00676343
0.00654507
0.0064696
0.00641479
0.00653682
0.00676082
0.00712962
0.00768615
0.00846173
0.00887422
0.00918213
0.00928582
0.00898719
0.00849056
0.00778957
0.00695357
0.00558526
0.00366494
0.00124663
0.000199326
0.00607555
0.00573109
0.00559518
0.00536494
0.00529454
0.00526599
0.00531876
0.0054557
0.0057517
0.00612434
0.00671081
0.0075232
0.00790406
0.00801313
0.00780342
0.00721699
0.00631261
0.00461983
0.00207504
0.000469604
0.00576553
0.00536596
0.00523612
0.00494455
0.00482023
0.00471243
0.0046771
0.00467485
0.00474601
0.00492535
0.00523126
0.005848
0.0068065
0.00726685
0.0074147
0.00730777
0.00673179
0.00542945
0.00296208
0.00087478
0.00565972
0.00499966
0.00492228
0.00473425
0.00456602
0.00444219
0.00436494
0.00433223
0.00432125
0.00437187
0.00453853
0.00487008
0.00555047
0.00658765
0.00705063
0.00715748
0.00693202
0.00605784
0.00385568
0.00141175
0.00615241
0.00471565
0.00451524
0.00444111
0.00431885
0.00419935
0.00411403
0.0040821
0.00407425
0.00409128
0.00418548
0.00438867
0.0048047
0.00560266
0.00660811
0.00696615
0.00699136
0.0064788
0.0046529
0.00205621
0.00774475
0.00462739
0.00425846
0.00414458
0.00410158
0.00402488
0.00391074
0.00385432
0.00383667
0.00384254
0.00390562
0.00405195
0.0043497
0.00494045
0.00596488
0.00676869
0.00695652
0.00676205
0.00526875
0.0027489
0.00942913
0.0046068
0.00397778
0.003873
0.00384707
0.00385077
0.00380979
0.00372778
0.00369349
0.00368485
0.0037164
0.00382808
0.00401424
0.00446046
0.00528018
0.00642577
0.00687683
0.00689761
0.0058318
0.00341069
0.00397114
0.00375019
0.00374679
0.0037468
0.00374652
0.00374628
0.00374612
0.00374604
0.003746
0.00374598
0.00374598
0.003746
0.00374604
0.00374612
0.00374628
0.00374652
0.0037468
0.00374679
0.00375019
0.00397114
0.00441485
0.00375346
0.00374141
0.00374096
0.00374056
0.00374012
0.00373987
0.00373975
0.00373969
0.00373966
0.00373966
0.00373969
0.00373975
0.00373987
0.00374012
0.00374056
0.00374096
0.00374141
0.00375346
0.00441485
0.00485953
0.00376059
0.00373287
0.00373264
0.00373284
0.00373273
0.00373256
0.00373242
0.00373235
0.00373231
0.00373231
0.00373235
0.00373242
0.00373256
0.00373273
0.00373284
0.00373264
0.00373287
0.00376059
0.00485953
0.00530184
0.00377206
0.0037243
0.00372395
0.00372491
0.00372524
0.00372525
0.00372519
0.00372514
0.00372512
0.00372512
0.00372514
0.00372519
0.00372525
0.00372524
0.00372491
0.00372395
0.0037243
0.00377206
0.00530184
0.00573905
0.00378544
0.00371551
0.00371483
0.00371665
0.00371758
0.00371789
0.00371795
0.00371795
0.00371795
0.00371795
0.00371795
0.00371795
0.00371789
0.00371758
0.00371665
0.00371483
0.00371551
0.00378544
0.00573905
0.00617051
0.00379768
0.00370578
0.0037051
0.003708
0.00370969
0.00371043
0.0037107
0.00371078
0.0037108
0.0037108
0.00371078
0.0037107
0.00371043
0.00370969
0.003708
0.0037051
0.00370578
0.00379768
0.00617051
0.00659203
0.00380846
0.00369497
0.00369474
0.00369893
0.00370155
0.00370284
0.0037034
0.00370361
0.00370368
0.00370368
0.00370361
0.0037034
0.00370284
0.00370155
0.00369893
0.00369474
0.00369497
0.00380846
0.00659203
0.00700094
0.00381669
0.00368271
0.00368361
0.00368941
0.00369311
0.00369508
0.00369602
0.00369642
0.00369656
0.00369656
0.00369642
0.00369602
0.00369508
0.00369311
0.00368941
0.00368361
0.0036827
0.00381669
0.00700095
0.00739322
0.00382335
0.00366916
0.00367174
0.00367942
0.00368438
0.00368714
0.00368854
0.00368919
0.00368943
0.00368943
0.00368919
0.00368854
0.00368714
0.00368437
0.00367942
0.00367174
0.00366916
0.00382335
0.00739322
0.00776758
0.00382737
0.00365406
0.00365903
0.00366893
0.00367532
0.00367898
0.00368095
0.0036819
0.00368228
0.00368228
0.0036819
0.00368095
0.00367898
0.00367532
0.00366893
0.00365903
0.00365406
0.00382737
0.00776758
0.00812032
0.0038302
0.00363764
0.00364552
0.00365794
0.00366593
0.00367061
0.00367321
0.00367453
0.00367507
0.00367507
0.00367453
0.00367321
0.00367061
0.00366592
0.00365794
0.00364552
0.00363764
0.0038302
0.00812032
0.00845044
0.00383067
0.00361988
0.00363121
0.00364645
0.0036562
0.003662
0.00366531
0.00366705
0.00366778
0.00366778
0.00366705
0.00366531
0.003662
0.0036562
0.00364645
0.00363121
0.00361988
0.00383067
0.00845043
0.00875521
0.00383017
0.0036009
0.00361613
0.00363446
0.00364613
0.00365316
0.00365725
0.00365946
0.00366041
0.00366041
0.00365946
0.00365725
0.00365316
0.00364613
0.00363446
0.00361613
0.0036009
0.00383017
0.00875521
0.00903538
0.00382885
0.00358085
0.00360032
0.00362199
0.00363573
0.00364408
0.00364901
0.00365173
0.00365292
0.00365292
0.00365173
0.00364901
0.00364408
0.00363573
0.00362199
0.00360032
0.00358085
0.00382886
0.00903538
0.00928896
0.0038265
0.00355983
0.0035838
0.00360905
0.003625
0.00363475
0.00364059
0.00364385
0.00364531
0.00364531
0.00364385
0.00364059
0.00363475
0.003625
0.00360905
0.0035838
0.00355983
0.0038265
0.00928895
0.00951744
0.0038234
0.00353793
0.00356664
0.00359565
0.00361394
0.00362518
0.00363197
0.00363582
0.00363755
0.00363755
0.00363582
0.00363197
0.00362518
0.00361394
0.00359565
0.00356664
0.00353793
0.0038234
0.00951742
0.00971931
0.00382008
0.0035153
0.00354885
0.00358181
0.00360255
0.00361535
0.00362315
0.00362762
0.00362964
0.00362964
0.00362762
0.00362315
0.00361535
0.00360255
0.00358181
0.00354885
0.0035153
0.00382009
0.00971929
0.0098973
0.0038166
0.00349214
0.00353054
0.00356757
0.00359087
0.00360529
0.00361414
0.00361924
0.00362157
0.00362157
0.00361924
0.00361414
0.00360529
0.00359087
0.00356757
0.00353054
0.00349214
0.0038166
0.00989729
0.0100502
0.00381349
0.00346851
0.00351171
0.00355293
0.00357888
0.00359499
0.00360492
0.00361068
0.00361332
0.00361332
0.00361068
0.00360492
0.00359499
0.00357888
0.00355293
0.00351171
0.00346851
0.00381349
0.0100502
0.0101815
0.00381058
0.00344462
0.00349247
0.00353795
0.0035666
0.00358445
0.0035955
0.00360193
0.0036049
0.0036049
0.00360193
0.0035955
0.00358445
0.0035666
0.00353795
0.00349248
0.00344463
0.00381058
0.0101815
0.0102898
0.00380852
0.00342047
0.0034728
0.0035226
0.00355404
0.00357367
0.00358587
0.003593
0.0035963
0.0035963
0.003593
0.00358587
0.00357367
0.00355404
0.0035226
0.0034728
0.00342047
0.00380852
0.0102898
0.0103795
0.00380712
0.00339641
0.00345286
0.00350697
0.00354123
0.00356267
0.00357603
0.00358387
0.00358751
0.00358751
0.00358387
0.00357603
0.00356267
0.00354123
0.00350697
0.00345286
0.00339641
0.00380713
0.0103794
0.0104486
0.00380735
0.00337229
0.00343259
0.00349103
0.00352816
0.00355145
0.003566
0.00357455