/*--------------------------------*- C++ -*----------------------------------*\
| =========                 |                                                 |
| \\      /  F ield         | OpenFOAM: The Open Source CFD Toolbox           |
|  \\    /   O peration     | Version:  2.1.0                                 |
|   \\  /    A nd           | Web:      www.OpenFOAM.org                      |
|    \\/     M anipulation  |                                                 |
\*---------------------------------------------------------------------------*/
FoamFile
{
    version     2.0;
    format      ascii;
    class       volScalarField;
    location    "0.24";
    object      nut;
}
// * * * * * * * * * * * * * * * * * * * * * * * * * * * * * * * * * * * * * //

dimensions      [0 2 -1 0 0 0 0];

internalField   nonuniform List<scalar> 
6400
(
6.82256e-06
6.83783e-06
6.84766e-06
6.86025e-06
6.87224e-06
6.88728e-06
6.8995e-06
6.91573e-06
6.92848e-06
6.94527e-06
6.95879e-06
6.97587e-06
6.99031e-06
7.00761e-06
7.02304e-06
7.04064e-06
7.05713e-06
7.07518e-06
7.09278e-06
7.11149e-06
7.13028e-06
7.14982e-06
7.16982e-06
7.19036e-06
7.21161e-06
7.23327e-06
7.25582e-06
7.27872e-06
7.30262e-06
7.32687e-06
7.3522e-06
7.37794e-06
7.4048e-06
7.43216e-06
7.46066e-06
7.48971e-06
7.51988e-06
7.5506e-06
7.58233e-06
7.61451e-06
7.64742e-06
7.68065e-06
7.71432e-06
7.74812e-06
7.7821e-06
7.81596e-06
7.8497e-06
7.88298e-06
7.9157e-06
7.94673e-06
7.97504e-06
8.0025e-06
8.03155e-06
8.059e-06
8.08766e-06
8.11543e-06
8.14337e-06
8.1708e-06
8.1977e-06
8.22404e-06
8.24951e-06
8.27476e-06
8.29902e-06
8.32232e-06
8.34443e-06
8.36491e-06
8.38329e-06
8.39939e-06
8.41314e-06
8.4247e-06
8.43244e-06
8.4378e-06
8.4398e-06
8.43925e-06
8.43629e-06
8.43161e-06
8.42617e-06
8.42125e-06
8.41869e-06
8.42081e-06
8.43018e-06
8.4496e-06
8.48165e-06
8.5287e-06
8.57679e-06
8.63076e-06
8.69765e-06
8.77077e-06
8.8259e-06
8.83185e-06
8.70744e-06
8.30239e-06
7.35928e-06
5.66309e-06
3.35317e-06
2.11067e-06
2.28769e-06
3.68928e-06
3.79496e-06
4.10955e-06
7.23083e-05
7.26953e-05
7.27575e-05
7.29992e-05
7.30699e-05
7.32655e-05
7.33535e-05
7.35185e-05
7.36208e-05
7.37643e-05
7.38751e-05
7.40027e-05
7.41167e-05
7.42318e-05
7.43446e-05
7.44492e-05
7.45577e-05
7.46533e-05
7.47559e-05
7.48443e-05
7.49413e-05
7.5025e-05
7.51167e-05
7.51958e-05
7.52819e-05
7.53565e-05
7.54364e-05
7.55058e-05
7.55785e-05
7.5641e-05
7.57047e-05
7.57581e-05
7.58099e-05
7.5853e-05
7.58948e-05
7.59276e-05
7.59577e-05
7.59791e-05
7.59961e-05
7.60042e-05
7.60034e-05
7.5989e-05
7.59603e-05
7.59132e-05
7.58457e-05
7.5753e-05
7.56333e-05
7.5484e-05
7.53115e-05
7.51123e-05
7.47603e-05
7.42385e-05
7.36907e-05
7.31048e-05
7.24952e-05
7.18525e-05
7.11818e-05
7.04781e-05
6.97425e-05
6.89709e-05
6.81606e-05
6.73173e-05
6.64387e-05
6.55285e-05
6.45847e-05
6.36009e-05
6.25787e-05
6.15124e-05
6.03925e-05
5.92382e-05
5.80305e-05
5.6767e-05
5.54447e-05
5.40643e-05
5.26208e-05
5.11135e-05
4.95406e-05
4.79027e-05
4.62013e-05
4.44404e-05
4.26267e-05
4.07676e-05
3.88643e-05
3.69354e-05
3.49819e-05
3.29642e-05
3.08599e-05
2.86876e-05
2.6394e-05
2.39921e-05
2.14592e-05
1.88187e-05
1.61328e-05
1.35819e-05
1.11781e-05
9.02047e-06
7.32991e-06
6.14393e-06
5.55419e-06
6.75703e-06
0.000110336
0.000110462
0.000110509
0.00011052
0.000110548
0.000110524
0.000110536
0.000110487
0.000110483
0.000110412
0.00011039
0.000110299
0.000110254
0.000110142
0.00011007
0.000109936
0.000109834
0.000109675
0.000109541
0.000109355
0.000109188
0.000108981
0.000108789
0.00010856
0.000108341
0.000108089
0.000107843
0.000107569
0.000107297
0.000107
0.000106701
0.00010638
0.000106056
0.000105707
0.000105345
0.000104957
0.000104553
0.000104121
0.000103667
0.000103186
0.000102685
0.000102157
0.000101603
0.000101012
0.000100384
9.97095e-05
9.89828e-05
9.79951e-05
9.67178e-05
9.54169e-05
9.40751e-05
9.27217e-05
9.13329e-05
8.99222e-05
8.84842e-05
8.70228e-05
8.55389e-05
8.40345e-05
8.25136e-05
8.09773e-05
7.94303e-05
7.7859e-05
7.62615e-05
7.46446e-05
7.30237e-05
7.13588e-05
6.96809e-05
6.79745e-05
6.6242e-05
6.44804e-05
6.26856e-05
6.08583e-05
5.89924e-05
5.70883e-05
5.51435e-05
5.31573e-05
5.11298e-05
4.90622e-05
4.69562e-05
4.48155e-05
4.26449e-05
4.0451e-05
3.82422e-05
3.60284e-05
3.38194e-05
3.16394e-05
2.94943e-05
2.73936e-05
2.53455e-05
2.33507e-05
2.13916e-05
1.94813e-05
1.75985e-05
1.5658e-05
1.36813e-05
1.17111e-05
9.93599e-06
8.42187e-06
7.93706e-06
1.11221e-05
0.000130706
0.000130268
0.000130096
0.000129712
0.000129533
0.000129132
0.000128924
0.000128509
0.000128261
0.000127833
0.000127542
0.000127096
0.00012676
0.000126292
0.00012591
0.000125415
0.000124983
0.000124453
0.000123965
0.000123389
0.00012261
0.000121634
0.000120656
0.000119642
0.000118627
0.000117578
0.000116524
0.000115439
0.000114346
0.000113223
0.00011209
0.000110927
0.000109754
0.000108553
0.000107338
0.000106096
0.00010484
0.000103561
0.000102261
0.00010094
9.96008e-05
9.82375e-05
9.68576e-05
9.54562e-05
9.40373e-05
9.26013e-05
9.11499e-05
8.96881e-05
8.82205e-05
8.67421e-05
8.5255e-05
8.37655e-05
8.22572e-05
8.07437e-05
7.92311e-05
7.76987e-05
7.61563e-05
7.46032e-05
7.30381e-05
7.14583e-05
6.98642e-05
6.82543e-05
6.66291e-05
6.49878e-05
6.33273e-05
6.16442e-05
5.9941e-05
5.8214e-05
5.64651e-05
5.46934e-05
5.29037e-05
5.10986e-05
4.92844e-05
4.74665e-05
4.56544e-05
4.38536e-05
4.20746e-05
4.03221e-05
3.86025e-05
3.69172e-05
3.52674e-05
3.36506e-05
3.20579e-05
3.04971e-05
2.89642e-05
2.74301e-05
2.59156e-05
2.43949e-05
2.28746e-05
2.13378e-05
1.97898e-05
1.82196e-05
1.66242e-05
1.4986e-05
1.33014e-05
1.16759e-05
1.0262e-05
9.57297e-06
1.18198e-05
1.1991e-05
0.000130393
0.000130263
0.000129924
0.000129588
0.000128773
0.000128045
0.000127094
0.000126203
0.000125204
0.000124225
0.000123197
0.00012216
0.000121104
0.00012002
0.000118932
0.000117807
0.000116683
0.000115522
0.00011436
0.000113162
0.000111968
0.000110745
0.000109517
0.000108261
0.000107002
0.000105715
0.000104426
0.000103111
0.000101794
0.000100454
9.91111e-05
9.77474e-05
9.63821e-05
9.49985e-05
9.36118e-05
9.22067e-05
9.07979e-05
8.93925e-05
8.79696e-05
8.65458e-05
8.51187e-05
8.36844e-05
8.2253e-05
8.08175e-05
7.93859e-05
7.79573e-05
7.65342e-05
7.51176e-05
7.37083e-05
7.2302e-05
7.09002e-05
6.9501e-05
6.81079e-05
6.67193e-05
6.53375e-05
6.39669e-05
6.26053e-05
6.1253e-05
5.99097e-05
5.85726e-05
5.72424e-05
5.5914e-05
5.45885e-05
5.32606e-05
5.19304e-05
5.05943e-05
4.92528e-05
4.79047e-05
4.65515e-05
4.51887e-05
4.3827e-05
4.24746e-05
4.11097e-05
3.97583e-05
3.84059e-05
3.70655e-05
3.57266e-05
3.4396e-05
3.30633e-05
3.17339e-05
3.04e-05
2.90659e-05
2.77295e-05
2.63944e-05
2.50577e-05
2.37305e-05
2.24079e-05
2.10984e-05
1.98065e-05
1.85412e-05
1.73085e-05
1.61168e-05
1.49741e-05
1.38847e-05
1.28718e-05
1.21133e-05
1.19539e-05
1.36819e-05
1.37075e-05
1.4025e-05
0.000116796
0.000116039
0.000115553
0.000114869
0.000113927
0.000112941
0.000111855
0.000110743
0.000109603
0.000108432
0.000107265
0.000106059
0.000104874
0.000103646
0.000102443
0.000101203
9.99712e-05
9.87347e-05
9.75041e-05
9.62534e-05
9.50176e-05
9.37659e-05
9.25224e-05
9.12629e-05
9.00105e-05
8.87361e-05
8.74694e-05
8.61812e-05
8.48983e-05
8.3604e-05
8.23184e-05
8.10227e-05
7.97382e-05
7.84459e-05
7.71663e-05
7.58824e-05
7.46151e-05
7.3348e-05
7.20966e-05
7.08518e-05
6.96259e-05
6.84076e-05
6.72107e-05
6.60234e-05
6.48575e-05
6.37056e-05
6.25737e-05
6.1456e-05
6.03567e-05
5.92714e-05
5.82038e-05
5.71487e-05
5.61106e-05
5.50808e-05
5.40702e-05
5.3077e-05
5.20896e-05
5.11148e-05
5.01407e-05
4.91699e-05
4.81952e-05
4.72145e-05
4.62238e-05
4.52202e-05
4.42018e-05
4.31666e-05
4.21156e-05
4.10485e-05
3.99686e-05
3.88761e-05
3.7778e-05
3.66756e-05
3.55729e-05
3.44749e-05
3.33799e-05
3.22947e-05
3.12196e-05
3.01586e-05
2.91132e-05
2.80883e-05
2.70863e-05
2.61079e-05
2.51505e-05
2.42203e-05
2.33129e-05
2.24291e-05
2.15662e-05
2.07311e-05
1.99263e-05
1.91597e-05
1.84405e-05
1.77834e-05
1.72086e-05
1.67663e-05
1.65804e-05
1.65699e-05
1.59978e-05
1.57545e-05
1.57302e-05
1.31479e-05
0.000100362
9.91187e-05
9.85644e-05
9.7644e-05
9.67652e-05
9.56825e-05
9.4681e-05
9.3537e-05
9.24826e-05
9.13175e-05
9.02379e-05
8.90667e-05
8.79734e-05
8.68023e-05
8.57015e-05
8.45344e-05
8.34313e-05
8.22746e-05
8.11717e-05
8.00272e-05
7.89292e-05
7.78003e-05
7.67125e-05
7.56056e-05
7.45351e-05
7.34427e-05
7.23853e-05
7.13161e-05
7.0277e-05
6.92337e-05
6.82194e-05
6.72028e-05
6.62137e-05
6.52238e-05
6.42595e-05
6.32962e-05
6.23562e-05
6.14132e-05
6.05027e-05
5.9592e-05
5.87009e-05
5.78182e-05
5.69502e-05
5.60904e-05
5.52438e-05
5.44079e-05
5.35846e-05
5.27713e-05
5.19706e-05
5.11805e-05
5.04047e-05
4.9641e-05
4.8894e-05
4.816e-05
4.74466e-05
4.67356e-05
4.60411e-05
4.53515e-05
4.4673e-05
4.39987e-05
4.33276e-05
4.26577e-05
4.19907e-05
4.13254e-05
4.06635e-05
4.00041e-05
3.93517e-05
3.87107e-05
3.80812e-05
3.74644e-05
3.68639e-05
3.62736e-05
3.5702e-05
3.51413e-05
3.45984e-05
3.40653e-05
3.3546e-05
3.28978e-05
3.20471e-05
3.1186e-05
3.03096e-05
2.94278e-05
2.85439e-05
2.76554e-05
2.67873e-05
2.59108e-05
2.50536e-05
2.41976e-05
2.33631e-05
2.25412e-05
2.17554e-05
2.1e-05
2.02945e-05
1.96462e-05
1.90693e-05
1.86653e-05
1.84063e-05
1.82962e-05
1.89804e-05
1.48325e-05
8.6406e-05
8.48283e-05
8.43267e-05
8.334e-05
8.2639e-05
8.16102e-05
8.08278e-05
7.98035e-05
7.89882e-05
7.79877e-05
7.71611e-05
7.61877e-05
7.53579e-05
7.4409e-05
7.35785e-05
7.26478e-05
7.18201e-05
7.09001e-05
7.00764e-05
6.91592e-05
6.83358e-05
6.74336e-05
6.65952e-05
6.5697e-05
6.46802e-05
6.33341e-05
6.21107e-05
6.08184e-05
5.96472e-05
5.84156e-05
5.73053e-05
5.61452e-05
5.51059e-05
5.40264e-05
5.30666e-05
5.20738e-05
5.11991e-05
5.02988e-05
4.95132e-05
4.87099e-05
4.80136e-05
4.73008e-05
4.66925e-05
4.60669e-05
4.55413e-05
4.49982e-05
4.45479e-05
4.4084e-05
4.37039e-05
4.33143e-05
4.29952e-05
4.2671e-05
4.24063e-05
4.21313e-05
4.19116e-05
4.16738e-05
4.14845e-05
4.12691e-05
4.10913e-05
4.08845e-05
4.06998e-05
4.04895e-05
4.02898e-05
4.00637e-05
3.9843e-05
3.96138e-05
3.93807e-05
3.91267e-05
3.88747e-05
3.86065e-05
3.83334e-05
3.80478e-05
3.77552e-05
3.7451e-05
3.71347e-05
3.68181e-05
3.64843e-05
3.61466e-05
3.57927e-05
3.54278e-05
3.50451e-05
3.46509e-05
3.4217e-05
3.37508e-05
3.32612e-05
3.27326e-05
3.2154e-05
3.15422e-05
3.08737e-05
3.01579e-05
2.94127e-05
2.86285e-05
2.78432e-05
2.70824e-05
2.64146e-05
2.59116e-05
2.55095e-05
2.56177e-05
2.60501e-05
2.02015e-05
7.10244e-05
6.89799e-05
6.81494e-05
6.65959e-05
6.57347e-05
6.42606e-05
6.34042e-05
6.19916e-05
6.1145e-05
5.9795e-05
5.89648e-05
5.76794e-05
5.68725e-05
5.5654e-05
5.48769e-05
5.37279e-05
5.29864e-05
5.19096e-05
5.12057e-05
5.02027e-05
4.95404e-05
4.86146e-05
4.80013e-05
4.71545e-05
4.65963e-05
4.58361e-05
4.53484e-05
4.46788e-05
4.42602e-05
4.36804e-05
4.33298e-05
4.28369e-05
4.25506e-05
4.21401e-05
4.19155e-05
4.15854e-05
4.14194e-05
4.11629e-05
4.10517e-05
4.08592e-05
4.07963e-05
4.06584e-05
4.06388e-05
4.05556e-05
4.05685e-05
4.0551e-05
4.0564e-05
4.05761e-05
4.06172e-05
4.0684e-05
4.07382e-05
4.08263e-05
4.09092e-05
4.10087e-05
4.11237e-05
4.12321e-05
4.13697e-05
4.14918e-05
4.16398e-05
4.17817e-05
4.19359e-05
4.20993e-05
4.2264e-05
4.24466e-05
4.26298e-05
4.28291e-05
4.30338e-05
4.3249e-05
4.3475e-05
4.37033e-05
4.39448e-05
4.41854e-05
4.44386e-05
4.46914e-05
4.49547e-05
4.52204e-05
4.54936e-05
4.577e-05
4.60492e-05
4.63282e-05
4.66035e-05
4.68701e-05
4.71212e-05
4.73553e-05
4.75639e-05
4.77433e-05
4.78794e-05
4.79687e-05
4.79966e-05
4.7957e-05
4.78443e-05
4.76509e-05
4.73822e-05
4.70453e-05
4.66629e-05
4.63062e-05
4.61315e-05
4.62699e-05
4.6645e-05
3.88436e-05
5.67991e-05
5.50384e-05
5.43387e-05
5.30234e-05
5.23895e-05
5.11447e-05
5.05759e-05
4.94088e-05
4.89042e-05
4.78189e-05
4.73773e-05
4.63801e-05
4.59942e-05
4.50903e-05
4.47565e-05
4.39482e-05
4.36625e-05
4.29508e-05
4.2709e-05
4.20941e-05
4.18916e-05
4.13731e-05
4.12051e-05
4.07809e-05
4.06416e-05
4.03077e-05
4.0191e-05
3.99451e-05
3.9851e-05
3.96874e-05
3.96152e-05
3.95219e-05
3.94822e-05
3.94455e-05
3.94142e-05
3.94396e-05
3.94462e-05
3.95019e-05
3.95531e-05
3.96293e-05
3.97233e-05
3.98194e-05
3.99506e-05
4.00691e-05
4.0231e-05
4.03752e-05
4.05602e-05
4.07338e-05
4.09408e-05
4.11437e-05
4.13716e-05
4.16014e-05
4.18524e-05
4.21062e-05
4.23833e-05
4.26595e-05
4.29628e-05
4.32623e-05
4.35892e-05
4.3915e-05
4.42641e-05
4.46189e-05
4.49922e-05
4.53766e-05
4.57774e-05
4.61908e-05
4.66213e-05
4.70627e-05
4.75226e-05
4.7991e-05
4.84791e-05
4.89758e-05
4.94925e-05
5.00194e-05
5.05664e-05
5.11265e-05
5.17069e-05
5.23027e-05
5.29195e-05
5.35516e-05
5.42038e-05
5.48734e-05
5.5567e-05
5.62823e-05
5.70268e-05
5.7802e-05
5.86142e-05
5.9466e-05
6.03641e-05
6.13126e-05
6.23203e-05
6.33912e-05
6.45346e-05
6.57543e-05
6.70571e-05
6.84378e-05
6.98577e-05
7.1247e-05
7.1958e-05
6.51624e-05
5.94686e-05
5.761e-05
5.68679e-05
5.54723e-05
5.47862e-05
5.34654e-05
5.28313e-05
5.15926e-05
5.10098e-05
4.98591e-05
4.93291e-05
4.82695e-05
4.77959e-05
4.68266e-05
4.64125e-05
4.55332e-05
4.518e-05
4.43902e-05
4.40979e-05
4.33966e-05
4.31637e-05
4.25491e-05
4.23732e-05
4.18515e-05
4.17174e-05
4.12917e-05
4.11893e-05
4.08589e-05
4.07824e-05
4.05439e-05
4.04892e-05
4.03365e-05
4.02985e-05
4.02231e-05
4.01973e-05
4.01858e-05
4.01853e-05
4.02082e-05
4.02549e-05
4.0294e-05
4.03785e-05
4.04381e-05
4.05456e-05
4.06322e-05
4.07569e-05
4.0871e-05
4.1009e-05
4.11481e-05
4.13016e-05
4.14609e-05
4.16343e-05
4.18112e-05
4.20067e-05
4.2201e-05
4.24198e-05
4.26332e-05
4.28729e-05
4.31064e-05
4.33663e-05
4.36216e-05
4.39015e-05
4.41799e-05
4.44807e-05
4.47827e-05
4.5105e-05
4.54305e-05
4.57746e-05
4.61229e-05
4.64886e-05
4.68587e-05
4.72446e-05
4.7636e-05
4.80417e-05
4.84561e-05
4.88834e-05
4.93218e-05
4.97738e-05
5.02381e-05
5.07183e-05
5.12111e-05
5.17226e-05
5.2248e-05
5.27963e-05
5.33632e-05
5.39588e-05
5.45788e-05
5.52312e-05
5.59146e-05
5.66435e-05
5.74164e-05
5.82448e-05
5.91291e-05
6.00815e-05
6.11065e-05
6.22259e-05
6.34714e-05
6.48694e-05
6.64061e-05
6.76262e-05
6.17552e-05
7.9246e-05
7.71196e-05
7.62502e-05
7.46191e-05
7.37039e-05
7.21617e-05
7.12047e-05
6.97432e-05
6.87525e-05
6.73587e-05
6.6349e-05
6.50076e-05
6.40176e-05
6.27211e-05
6.17572e-05
6.05129e-05
5.95826e-05
5.83971e-05
5.75084e-05
5.6388e-05
5.55487e-05
5.44994e-05
5.3717e-05
5.27445e-05
5.20255e-05
5.11357e-05
5.0484e-05
4.96799e-05
4.90979e-05
4.83795e-05
4.7868e-05
4.72366e-05
4.67954e-05
4.62506e-05
4.58772e-05
4.54137e-05
4.51056e-05
4.47236e-05
4.44736e-05
4.41573e-05
4.39598e-05
4.36966e-05
4.35426e-05
4.33232e-05
4.32026e-05
4.30227e-05
4.29253e-05
4.27762e-05
4.26949e-05
4.25697e-05
4.25026e-05
4.23959e-05
4.23384e-05
4.22437e-05
4.21929e-05
4.21386e-05
4.20711e-05
4.20194e-05
4.1966e-05
4.19183e-05
4.18694e-05
4.18215e-05
4.17747e-05
4.17247e-05
4.16794e-05
4.16288e-05
4.15825e-05
4.15302e-05
4.1482e-05
4.14272e-05
4.1375e-05
4.13192e-05
4.126e-05
4.11906e-05
4.11124e-05
4.10235e-05
4.09223e-05
4.08067e-05
4.06792e-05
4.05319e-05
4.03747e-05
4.01938e-05
4.00058e-05
3.97973e-05
3.95829e-05
3.93538e-05
3.91224e-05
3.88833e-05
3.86385e-05
3.8388e-05
3.81456e-05
3.79126e-05
3.76997e-05
3.7518e-05
3.73942e-05
3.73622e-05
3.75311e-05
3.79829e-05
3.87782e-05
3.30105e-05
9.16035e-05
9.01597e-05
8.96387e-05
8.8689e-05
8.79499e-05
8.69297e-05
8.60977e-05
8.50656e-05
8.41969e-05
8.31798e-05
8.23012e-05
8.13051e-05
8.04269e-05
7.94524e-05
7.85779e-05
7.7624e-05
7.67549e-05
7.58199e-05
7.49573e-05
7.40398e-05
7.31844e-05
7.22831e-05
7.14352e-05
7.0549e-05
6.9711e-05
6.88315e-05
6.80087e-05
6.71556e-05
6.63369e-05
6.55017e-05
6.46949e-05
6.38768e-05
6.30828e-05
6.22829e-05
6.15035e-05
6.05067e-05
5.94905e-05
5.84667e-05
5.7521e-05
5.65712e-05
5.56965e-05
5.48125e-05
5.40047e-05
5.31825e-05
5.24339e-05
5.16698e-05
5.09709e-05
5.02574e-05
4.96032e-05
4.89351e-05
4.83193e-05
4.76921e-05
4.71124e-05
4.65229e-05
4.59777e-05
4.54232e-05
4.49061e-05
4.43801e-05
4.38812e-05
4.33705e-05
4.28771e-05
4.23705e-05
4.18767e-05
4.13635e-05
4.0856e-05
4.03222e-05
3.97887e-05
3.92251e-05
3.86575e-05
3.80587e-05
3.74475e-05
3.68015e-05
3.6158e-05
3.54976e-05
3.48277e-05
3.41536e-05
3.34722e-05
3.27892e-05
3.21067e-05
3.14222e-05
3.07488e-05
3.00732e-05
2.94119e-05
2.87474e-05
2.81044e-05
2.74643e-05
2.68523e-05
2.62485e-05
2.56817e-05
2.51271e-05
2.46047e-05
2.40939e-05
2.36366e-05
2.32487e-05
2.29494e-05
2.26913e-05
2.28317e-05
2.31031e-05
2.39106e-05
1.85681e-05
0.000106909
0.000105794
0.00010529
0.000104467
0.000103606
0.000102585
0.000101587
0.000100481
9.94218e-05
9.82831e-05
9.71993e-05
9.60449e-05
9.49451e-05
9.37814e-05
9.26692e-05
9.14999e-05
9.03781e-05
8.92067e-05
8.80791e-05
8.69093e-05
8.57806e-05
8.4618e-05
8.34921e-05
8.23415e-05
8.12245e-05
8.00885e-05
7.89865e-05
7.78719e-05
7.67899e-05
7.57008e-05
7.46435e-05
7.35843e-05
7.25557e-05
7.1529e-05
7.05326e-05
6.9537e-05
6.85659e-05
6.76013e-05
6.66601e-05
6.57229e-05
6.48027e-05
6.38851e-05
6.29783e-05
6.20714e-05
6.1181e-05
6.02751e-05
5.93807e-05
5.84714e-05
5.75691e-05
5.66538e-05
5.57424e-05
5.482e-05
5.38987e-05
5.29688e-05
5.20383e-05
5.11025e-05
5.01655e-05
4.9225e-05
4.82833e-05
4.73389e-05
4.63945e-05
4.54496e-05
4.45057e-05
4.35577e-05
4.2613e-05
4.16698e-05
4.07307e-05
3.97986e-05
3.88759e-05
3.79648e-05
3.70703e-05
3.61968e-05
3.5345e-05
3.45146e-05
3.37104e-05
3.2931e-05
3.21804e-05
3.14474e-05
3.07424e-05
3.00546e-05
2.9392e-05
2.87465e-05
2.81175e-05
2.74363e-05
2.64742e-05
2.55472e-05
2.46353e-05
2.37622e-05
2.29104e-05
2.21097e-05
2.13418e-05
2.06229e-05
1.99419e-05
1.93077e-05
1.87265e-05
1.83019e-05
1.8101e-05
1.7899e-05
1.86394e-05
1.43802e-05
0.00012378
0.000123119
0.000122697
0.000122114
0.000121215
0.0001203
0.00011925
0.000118195
0.000117087
0.000115964
0.000114826
0.00011366
0.0001125
0.000111304
0.000110122
0.000108902
0.000107701
0.000106461
0.000105243
0.000103988
0.000102746
0.000101489
0.000100241
9.898e-05
9.77274e-05
9.64624e-05
9.52125e-05
9.3943e-05
9.26877e-05
9.14162e-05
9.01578e-05
8.88876e-05
8.763e-05
8.63645e-05
8.51124e-05
8.38531e-05
8.26041e-05
8.13537e-05
8.01155e-05
7.88769e-05
7.76477e-05
7.64195e-05
7.52005e-05
7.39821e-05
7.27702e-05
7.15583e-05
7.03512e-05
6.91429e-05
6.7939e-05
6.67343e-05
6.55331e-05
6.43328e-05
6.31354e-05
6.19402e-05
6.07479e-05
5.95594e-05
5.83748e-05
5.7194e-05
5.60168e-05
5.48393e-05
5.3666e-05
5.25008e-05
5.13247e-05
5.01613e-05
4.89893e-05
4.78232e-05
4.66526e-05
4.54821e-05
4.4308e-05
4.31303e-05
4.19493e-05
4.07632e-05
3.95746e-05
3.83814e-05
3.71862e-05
3.59872e-05
3.47903e-05
3.35977e-05
3.24083e-05
3.12255e-05
3.00428e-05
2.88705e-05
2.77026e-05
2.655e-05
2.54058e-05
2.42796e-05
2.31719e-05
2.20869e-05
2.1026e-05
1.9989e-05
1.89735e-05
1.80075e-05
1.71311e-05
1.63462e-05
1.58409e-05
1.59992e-05
1.60215e-05
1.58198e-05
1.58476e-05
1.31973e-05
0.000136629
0.000136606
0.000136325
0.00013608
0.000135321
0.000134668
0.000133772
0.000132949
0.000132005
0.000131093
0.000130122
0.000129151
0.000128155
0.000127138
0.000126112
0.000125055
0.000123998
0.000122904
0.000121813
0.000120683
0.000119557
0.000118394
0.000117231
0.000116037
0.000114838
0.000113619
0.0001124
0.000111151
0.000109905
0.000108634
0.000107365
0.000106075
0.000104785
0.000103477
0.000102167
0.000100843
9.95182e-05
9.81806e-05
9.68416e-05
9.54913e-05
9.41378e-05
9.27727e-05
9.14057e-05
9.00336e-05
8.865e-05
8.72553e-05
8.58527e-05
8.44368e-05
8.30115e-05
8.1573e-05
8.01228e-05
7.86612e-05
7.71879e-05
7.57045e-05
7.42121e-05
7.27092e-05
7.11932e-05
6.96666e-05
6.81306e-05
6.65859e-05
6.50345e-05
6.34772e-05
6.1918e-05
6.03586e-05
5.88008e-05
5.72453e-05
5.56939e-05
5.4148e-05
5.26096e-05
5.10801e-05
4.95615e-05
4.80546e-05
4.656e-05
4.50793e-05
4.36118e-05
4.21504e-05
4.07043e-05
3.92796e-05
3.7839e-05
3.64208e-05
3.49884e-05
3.35597e-05
3.2112e-05
3.06531e-05
2.91658e-05
2.76553e-05
2.61153e-05
2.45551e-05
2.29726e-05
2.13766e-05
1.97656e-05
1.81478e-05
1.65555e-05
1.50099e-05
1.35801e-05
1.25008e-05
1.2073e-05
1.35842e-05
1.38212e-05
1.43064e-05
0.000134322
0.000133969
0.00013383
0.000133501
0.000133357
0.00013301
0.000132839
0.000132478
0.000132269
0.000131893
0.000131643
0.000131252
0.000130963
0.000130554
0.000130225
0.000129795
0.000129425
0.000128969
0.000128557
0.00012807
0.000127612
0.000127089
0.000126581
0.000126012
0.000125445
0.000124508
0.000123532
0.000122517
0.000121501
0.000120454
0.000119404
0.000118328
0.000117247
0.000116145
0.00011504
0.00011391
0.000112771
0.000111611
0.000110439
0.000109248
0.000108045
0.000106822
0.000105586
0.000104331
0.000103058
0.000101762
0.000100448
9.91099e-05
9.77497e-05
9.63646e-05
9.49546e-05
9.35183e-05
9.20549e-05
9.05638e-05
8.90521e-05
8.75158e-05
8.59479e-05
8.43481e-05
8.27381e-05
8.11021e-05
7.94354e-05
7.77417e-05
7.60246e-05
7.42716e-05
7.24874e-05
7.06641e-05
6.88114e-05
6.69248e-05
6.50085e-05
6.30606e-05
6.10825e-05
5.90822e-05
5.70563e-05
5.50184e-05
5.29665e-05
5.09153e-05
4.88662e-05
4.68312e-05
4.48151e-05
4.28263e-05
4.08707e-05
3.89506e-05
3.70696e-05
3.52254e-05
3.34117e-05
3.16152e-05
2.98545e-05
2.80957e-05
2.6321e-05
2.45366e-05
2.27096e-05
2.08319e-05
1.88748e-05
1.68671e-05
1.48262e-05
1.28546e-05
1.11302e-05
1.01161e-05
1.19521e-05
1.21058e-05
0.000112179
0.000112355
0.000112421
0.000112465
0.000112512
0.000112519
0.000112553
0.000112535
0.000112556
0.000112519
0.000112524
0.000112469
0.000112456
0.000112384
0.000112349
0.000112259
0.000112199
0.000112089
0.000112002
0.000111869
0.000111753
0.000111594
0.000111446
0.00011126
0.00011108
0.000110868
0.000110665
0.000110434
0.000110208
0.000109958
0.000109709
0.00010944
0.000109169
0.000108879
0.000108585
0.000108271
0.00010795
0.000107609
0.000107257
0.000106887
0.000106502
0.000106097
0.000105674
0.000105227
0.000104757
0.000104263
0.000103747
0.000103208
0.000102644
0.000102054
0.000101422
0.00010075
0.000100025
9.92408e-05
9.80023e-05
9.66902e-05
9.5318e-05
9.39135e-05
9.246e-05
9.0968e-05
8.94324e-05
8.78595e-05
8.6252e-05
8.4605e-05
8.29274e-05
8.12242e-05
7.94659e-05
7.76526e-05
7.58017e-05
7.39316e-05
7.19725e-05
6.99961e-05
6.79465e-05
6.58643e-05
6.37133e-05
6.15135e-05
5.92507e-05
5.69257e-05
5.45365e-05
5.20794e-05
4.95571e-05
4.69713e-05
4.43282e-05
4.16394e-05
3.89181e-05
3.61868e-05
3.34711e-05
3.07996e-05
2.81963e-05
2.56817e-05
2.32375e-05
2.08698e-05
1.8576e-05
1.6294e-05
1.41342e-05
1.21245e-05
1.03268e-05
8.92023e-06
8.38299e-06
1.14737e-05
7.25918e-05
7.29857e-05
7.30609e-05
7.33003e-05
7.3381e-05
7.35761e-05
7.36723e-05
7.3839e-05
7.39489e-05
7.40962e-05
7.42151e-05
7.43488e-05
7.44718e-05
7.45953e-05
7.47185e-05
7.48336e-05
7.49537e-05
7.50613e-05
7.51758e-05
7.52761e-05
7.53834e-05
7.54764e-05
7.55758e-05
7.56621e-05
7.57542e-05
7.58356e-05
7.59222e-05
7.59988e-05
7.60793e-05
7.61504e-05
7.62238e-05
7.62882e-05
7.63528e-05
7.64085e-05
7.64624e-05
7.65105e-05
7.6557e-05
7.65976e-05
7.66359e-05
7.66686e-05
7.66984e-05
7.67224e-05
7.67427e-05
7.67573e-05
7.67676e-05
7.67719e-05
7.67708e-05
7.67584e-05
7.67344e-05
7.6695e-05
7.66373e-05
7.65596e-05
7.64585e-05
7.63337e-05
7.6186e-05
7.60288e-05
7.58437e-05
7.56425e-05
7.54066e-05
7.51416e-05
7.48308e-05
7.43058e-05
7.36353e-05
7.29126e-05
7.21359e-05
7.12953e-05
7.04081e-05
6.94646e-05
6.84681e-05
6.74092e-05
6.62763e-05
6.50724e-05
6.3774e-05
6.24128e-05
6.09636e-05
5.93967e-05
5.77398e-05
5.59634e-05
5.40792e-05
5.20743e-05
4.99515e-05
4.77109e-05
4.53533e-05
4.28871e-05
4.03175e-05
3.76601e-05
3.49181e-05
3.21093e-05
2.92389e-05
2.63307e-05
2.34084e-05
2.04504e-05
1.75316e-05
1.46373e-05
1.19027e-05
9.55722e-06
7.79642e-06
6.53469e-06
5.87036e-06
6.71271e-06
6.80159e-06
6.81673e-06
6.82573e-06
6.83871e-06
6.85029e-06
6.86557e-06
6.87767e-06
6.89409e-06
6.90693e-06
6.92392e-06
6.93769e-06
6.955e-06
6.96978e-06
6.98735e-06
7.00317e-06
7.02104e-06
7.03788e-06
7.05614e-06
7.07399e-06
7.09278e-06
7.11166e-06
7.13118e-06
7.15115e-06
7.17158e-06
7.19274e-06
7.21426e-06
7.23666e-06
7.2594e-06
7.28312e-06
7.30718e-06
7.33229e-06
7.35781e-06
7.38447e-06
7.41163e-06
7.44001e-06
7.46907e-06
7.49939e-06
7.53057e-06
7.56311e-06
7.59668e-06
7.63174e-06
7.66801e-06
7.70587e-06
7.74508e-06
7.78591e-06
7.82815e-06
7.872e-06
7.91728e-06
7.96415e-06
8.01262e-06
8.0628e-06
8.11486e-06
8.16902e-06
8.22555e-06
8.28473e-06
8.34656e-06
8.41034e-06
8.47646e-06
8.54354e-06
8.61198e-06
8.68006e-06
8.74776e-06
8.81872e-06
8.89215e-06
8.96913e-06
9.04946e-06
9.13481e-06
9.22489e-06
9.31988e-06
9.41953e-06
9.52434e-06
9.63405e-06
9.74884e-06
9.87134e-06
9.99793e-06
1.01278e-05
1.0265e-05
1.04048e-05
1.055e-05
1.0699e-05
1.08514e-05
1.10076e-05
1.11655e-05
1.13248e-05
1.14818e-05
1.16299e-05
1.17501e-05
1.18121e-05
1.17481e-05
1.14444e-05
1.06788e-05
9.33843e-06
7.45449e-06
5.30857e-06
3.55554e-06
2.55249e-06
2.5091e-06
3.90521e-06
4.01246e-06
4.32246e-06
1.07965e-05
2.02834e-06
2.56944e-06
3.52054e-06
4.56428e-06
5.61843e-06
6.51476e-06
7.25489e-06
7.99621e-06
8.71699e-06
9.36371e-06
1.00439e-05
1.08739e-05
1.22179e-05
1.42985e-05
1.71229e-05
1.72286e-05
1.52535e-05
1.03271e-05
3.87915e-06
5.75745e-06
2.1561e-06
2.47291e-06
3.17828e-06
4.03387e-06
4.88106e-06
5.65262e-06
6.4416e-06
7.26874e-06
8.11109e-06
8.98637e-06
9.85458e-06
1.11333e-05
1.30046e-05
1.59048e-05
1.78221e-05
1.71514e-05
1.43778e-05
9.67104e-06
3.78731e-06
4.87877e-06
2.67816e-06
2.886e-06
3.39228e-06
4.0216e-06
4.70062e-06
5.40081e-06
6.18909e-06
7.05086e-06
8.07826e-06
8.99558e-06
1.0182e-05
1.19027e-05
1.45273e-05
1.72972e-05
1.79328e-05
1.68235e-05
1.37435e-05
9.02509e-06
3.55853e-06
5.02917e-06
3.43069e-06
3.62746e-06
3.88281e-06
4.35615e-06
4.8753e-06
5.55891e-06
6.40739e-06
7.45841e-06
8.90157e-06
1.02844e-05
1.18618e-05
1.44102e-05
1.73877e-05
1.87952e-05
1.8598e-05
1.65748e-05
1.31049e-05
7.96691e-06
2.97868e-06
5.68458e-06
4.48073e-06
4.62006e-06
4.61314e-06
5.14779e-06
5.56437e-06
6.37478e-06
7.49521e-06
9.05674e-06
1.18271e-05
1.36555e-05
1.576e-05
1.85381e-05
2.0031e-05
2.02761e-05
1.90506e-05
1.60776e-05
1.23075e-05
6.77798e-06
2.13966e-06
6.88651e-06
5.95204e-06
6.01561e-06
5.92507e-06
6.60677e-06
7.4473e-06
8.85394e-06
1.0882e-05
1.48879e-05
1.81629e-05
1.99288e-05
2.15482e-05
2.27689e-05
2.27465e-05
2.14713e-05
1.8391e-05
1.5416e-05
1.12665e-05
5.46022e-06
1.38893e-06
8.96428e-06
8.49592e-06
8.6763e-06
9.1318e-06
1.06866e-05
1.30065e-05
1.62157e-05
2.0919e-05
2.74845e-05
2.85353e-05
2.84934e-05
2.80465e-05
2.66711e-05
2.35954e-05
2.06136e-05
1.79554e-05
1.43247e-05
1.03403e-05
4.26077e-06
7.86171e-07
1.43001e-05
1.56113e-05
1.67737e-05
1.89873e-05
2.247e-05
2.66703e-05
3.21316e-05
3.8988e-05
3.77098e-05
3.56273e-05
3.20859e-05
2.945e-05
2.61572e-05
2.34005e-05
2.02373e-05
1.6716e-05
1.2793e-05
9.26799e-06
3.56511e-06
4.08876e-07
3.16749e-05
3.45762e-05
3.57799e-05
3.81398e-05
4.25944e-05
4.70379e-05
4.68486e-05
4.35188e-05
3.9737e-05
3.6958e-05
3.29332e-05
3.04621e-05
2.64263e-05
2.3256e-05
1.84228e-05
1.40404e-05
1.11459e-05
8.33879e-06
3.53596e-06
2.55543e-07
5.20411e-05
5.4907e-05
5.52609e-05
5.68818e-05
5.89266e-05
5.45415e-05
5.08735e-05
4.66759e-05
4.31073e-05
3.91097e-05
3.52491e-05
3.12537e-05
2.66238e-05
2.00421e-05
1.44331e-05
1.06699e-05
9.41846e-06
7.6665e-06
3.65681e-06
2.74745e-07
4.95864e-05
5.23731e-05
5.28998e-05
5.46905e-05
5.77796e-05
5.32666e-05
5.00766e-05
4.57277e-05
4.26624e-05
3.848e-05
3.53817e-05
3.10033e-05
2.7237e-05
2.11443e-05
1.53314e-05
1.11995e-05
9.34936e-06
7.39877e-06
3.25357e-06
2.34896e-07
2.6991e-05
2.99425e-05
3.1389e-05
3.39235e-05
3.83701e-05
4.31563e-05
4.57268e-05
4.22754e-05
3.93766e-05
3.58249e-05
3.32706e-05
2.97195e-05
2.69743e-05
2.34261e-05
1.93433e-05
1.48362e-05
1.13401e-05
7.99407e-06
2.92334e-06
2.10872e-07
1.27521e-05
1.35218e-05
1.43968e-05
1.63981e-05
1.94867e-05
2.35514e-05
2.86942e-05
3.59174e-05
3.82826e-05
3.46497e-05
3.25634e-05
2.90791e-05
2.63817e-05
2.34256e-05
2.05019e-05
1.72492e-05
1.31308e-05
9.24885e-06
3.2245e-06
2.87047e-07
8.55693e-06
7.99632e-06
8.11254e-06
8.43752e-06
9.7643e-06
1.18171e-05
1.46918e-05
1.9206e-05
2.57023e-05
2.70481e-05
2.76741e-05
2.7633e-05
2.67648e-05
2.3761e-05
2.07154e-05
1.8077e-05
1.45229e-05
1.04119e-05
4.03566e-06
5.79701e-07
6.7151e-06
5.77073e-06
5.83e-06
5.76316e-06
6.41102e-06
7.20959e-06
8.51653e-06
1.03971e-05
1.42738e-05
1.76281e-05
1.94867e-05
2.14815e-05
2.2735e-05
2.28744e-05
2.17377e-05
1.84424e-05
1.5469e-05
1.13972e-05
5.54022e-06
1.25656e-06
5.61937e-06
4.42002e-06
4.55513e-06
4.59153e-06
5.12796e-06
5.58323e-06
6.39534e-06
7.49465e-06
9.01551e-06
1.18368e-05
1.36793e-05
1.59242e-05
1.87903e-05
2.0279e-05
2.04837e-05
1.93069e-05
1.60585e-05
1.23087e-05
6.89218e-06
2.11056e-06
5.04431e-06
3.43049e-06
3.62809e-06
3.91656e-06
4.40579e-06
4.97041e-06
5.68372e-06
6.54705e-06
7.59764e-06
9.13884e-06
1.05683e-05
1.22388e-05
1.4822e-05
1.78158e-05
1.91453e-05
1.88347e-05
1.67192e-05
1.30504e-05
8.04058e-06
3.04922e-06
5.0492e-06
2.73283e-06
2.93012e-06
3.4546e-06
4.09819e-06
4.79639e-06
5.54379e-06
6.36569e-06
7.24581e-06
8.33371e-06
9.37932e-06
1.06734e-05
1.2482e-05
1.51224e-05
1.77696e-05
1.82493e-05
1.70326e-05
1.37095e-05
9.00071e-06
3.66408e-06
6.10478e-06
2.2359e-06
2.54381e-06
3.259e-06
4.12889e-06
4.99956e-06
5.79601e-06
6.62769e-06
7.48032e-06
8.34906e-06
9.30032e-06
1.02983e-05
1.16759e-05
1.37427e-05
1.65867e-05
1.8198e-05
1.73743e-05
1.4472e-05
9.58467e-06
3.88903e-06
1.09399e-05
2.12251e-06
2.65459e-06
3.60703e-06
4.66287e-06
5.73103e-06
6.6741e-06
7.45449e-06
8.23158e-06
8.97102e-06
9.69767e-06
1.04976e-05
1.13561e-05
1.28262e-05
1.50939e-05
1.76135e-05
1.74604e-05
1.53614e-05
1.0307e-05
3.9647e-06
1.2342e-06
0.000116557
0.000294183
0.000330906
0.00033481
0.000335356
0.000335357
0.000335342
0.000335343
0.000335345
0.000335345
0.000335343
0.000335342
0.000335357
0.000335356
0.00033481
0.000330906
0.000294183
0.000116557
1.2342e-06
1.36971e-06
6.81683e-05
0.000219588
0.000309506
0.000330909
0.000334527
0.000335273
0.000335315
0.000335296
0.000335287
0.000335287
0.000335296
0.000335315
0.000335273
0.000334527
0.000330909
0.000309506
0.000219588
6.81684e-05
1.36971e-06
1.51342e-06
5.28939e-05
0.000176454
0.000280576
0.000322146
0.000332504
0.000334604
0.0003351
0.000335168
0.000335172
0.000335172
0.000335168
0.0003351