/*--------------------------------*- C++ -*----------------------------------*\
| =========                 |                                                 |
| \\      /  F ield         | OpenFOAM: The Open Source CFD Toolbox           |
|  \\    /   O peration     | Version:  2.1.0                                 |
|   \\  /    A nd           | Web:      www.OpenFOAM.org                      |
|    \\/     M anipulation  |                                                 |
\*---------------------------------------------------------------------------*/
FoamFile
{
    version     2.0;
    format      ascii;
    class       volScalarField;
    location    "0.24";
    object      omega;
}
// * * * * * * * * * * * * * * * * * * * * * * * * * * * * * * * * * * * * * //

dimensions      [0 0 -1 0 0 0 0];

internalField   nonuniform List<scalar> 
6400
(
1572.15
1572.72
1572.5
1572.01
1571.25
1570.68
1569.7
1569.07
1568.01
1567.32
1566.22
1565.45
1564.34
1563.48
1562.36
1561.41
1560.29
1559.27
1558.14
1557.06
1555.93
1554.81
1553.67
1552.52
1551.37
1550.19
1549.03
1547.82
1546.63
1545.39
1544.18
1542.91
1541.66
1540.37
1539.08
1537.74
1536.4
1535
1533.57
1532.05
1530.48
1528.79
1526.99
1525.05
1522.96
1520.69
1518.22
1515.52
1512.58
1509.28
1505.55
1501.55
1497.5
1493.12
1488.64
1483.9
1478.96
1473.78
1468.35
1462.67
1456.7
1450.49
1443.99
1437.19
1430.06
1422.57
1414.68
1406.36
1397.61
1388.43
1378.67
1368.43
1357.62
1346.26
1334.34
1321.86
1308.84
1295.28
1281.25
1266.79
1251.93
1236.7
1221.05
1204.87
1186.97
1167.31
1145.96
1122.12
1094.06
1060.03
1016.27
956.946
872.895
756.783
608.441
523.854
557.383
728.434
883.549
932.929
663.433
663.543
664.659
665.523
666.787
668.042
669.352
670.804
672.17
673.741
675.184
676.842
678.375
680.109
681.743
683.553
685.293
687.184
689.038
691.023
693.003
695.099
697.221
699.453
701.735
704.123
706.58
709.145
711.798
714.565
717.442
720.446
723.587
726.859
730.269
733.825
737.535
741.405
745.445
749.655
754.05
758.634
763.422
768.421
773.64
779.087
784.772
790.708
796.888
803.293
809.941
816.869
824.15
831.709
839.634
847.885
856.512
865.515
874.919
884.744
895.008
905.746
916.974
928.734
941.051
953.749
966.928
980.751
995.165
1010.26
1026.03
1042.56
1059.87
1078.03
1097.09
1117.15
1138.27
1160.57
1184.17
1209.25
1235.78
1262.99
1291.52
1320.96
1351.2
1381.72
1411.99
1441.19
1468.34
1492.22
1509.6
1517.44
1518.78
1503.91
1468.45
1390.28
1277.86
1141.95
995.53
838.981
486.434
489.46
490.901
493.839
495.791
498.77
501.046
504.073
506.594
509.687
512.426
515.611
518.557
521.857
525.006
528.443
531.796
535.389
538.951
542.719
546.5
550.459
554.461
558.63
562.87
567.269
571.762
576.412
581.176
586.097
591.148
596.356
601.702
607.237
612.955
618.877
625.01
631.372
637.979
644.816
651.889
659.204
666.771
674.629
682.77
691.212
699.953
708.998
718.355
728.038
738.044
748.406
759.132
770.224
781.704
793.567
805.832
818.499
831.576
845.067
858.97
873.286
888.005
903.122
918.627
934.579
950.921
967.483
984.321
1001.33
1018.51
1035.79
1053.16
1070.56
1087.99
1105.4
1122.8
1140.19
1157.57
1174.97
1192.41
1209.93
1227.57
1245.37
1263.26
1281.13
1298.81
1315.81
1331.54
1344.85
1352.12
1354.71
1348.39
1323.56
1277.06
1198.69
1090.78
949.285
787.631
621.116
444.629
449.499
451.648
455.923
458.64
462.885
466.011
470.26
473.726
478.03
481.799
486.205
490.258
494.806
499.135
503.861
508.466
513.397
518.283
523.443
528.61
534.016
539.47
545.139
550.89
556.845
562.908
569.169
575.561
582.15
588.89
595.831
602.942
610.249
617.729
625.405
633.258
641.303
649.523
657.956
666.594
675.457
684.529
693.776
703.211
712.812
722.579
732.496
742.559
752.757
763.074
773.511
784.05
794.684
805.399
816.182
827.013
837.881
848.764
859.648
870.511
881.334
892.09
902.755
913.298
923.764
934.084
944.265
954.269
964.076
973.672
983.01
992.038
1000.75
1009.06
1016.94
1024.28
1031.05
1037.12
1042.4
1046.74
1050.01
1051.64
1052.24
1051.5
1048.06
1042.8
1034.42
1023.1
1007.75
988.057
962.836
930.985
890.682
839.933
776.388
702.101
621.19
546.943
493.13
440.577
446.521
449.1
454.243
457.478
462.564
466.26
471.319
475.387
480.467
484.85
489.994
494.656
499.898
504.816
510.18
515.337
520.843
526.225
531.886
537.482
543.307
549.111
555.104
561.108
567.271
573.463
579.794
586.168
592.663
599.203
605.846
612.534
619.306
626.118
632.995
639.906
646.867
653.845
660.855
667.868
674.886
681.889
688.888
695.854
702.793
709.683
716.532
723.323
730.059
736.716
743.29
749.754
756.1
762.302
768.397
774.309
780.061
785.581
790.884
795.908
800.655
805.07
809.144
812.826
816.091
818.886
821.171
822.891
823.81
824.173
824.179
822.873
821.123
818.214
814.605
809.882
804.313
797.631
790.009
781.271
771.548
760.807
749.134
736.432
722.909
708.451
693.181
677.003
659.915
641.693
622.147
600.861
577.24
550.418
521.032
490.182
461.737
441.946
431.616
438.447
444.165
446.622
451.533
454.566
459.385
462.8
467.528
471.218
475.881
479.783
484.408
488.476
493.083
497.283
501.887
506.193
510.803
515.191
519.81
524.265
528.896
533.405
538.044
542.591
547.229
551.787
556.404
560.944
565.563
570.108
574.689
579.189
583.686
588.088
592.45
596.697
600.872
604.91
608.833
612.593
616.211
619.629
622.877
625.888
628.696
631.241
633.553
635.58
637.34
638.786
639.933
640.738
641.138
641.29
641.302
640.803
640.153
639.012
637.639
635.793
633.645
631.034
628.059
624.619
620.762
616.436
611.664
606.438
600.771
594.711
588.298
581.53
574.517
567.226
559.782
552.156
544.46
536.69
528.953
521.253
513.697
506.252
499.022
491.938
484.978
478.086
471.303
464.559
457.817
450.961
443.918
436.546
428.694
420.421
412.196
405.361
402.193
401.464
401.785
416.638
421.064
422.94
426.7
428.941
432.611
435.068
438.622
441.211
444.647
447.315
450.639
453.348
456.563
459.28
462.386
465.084
468.075
470.729
473.593
476.18
478.902
481.383
483.949
486.292
488.664
490.794
492.916
494.791
496.701
498.355
499.972
501.315
502.561
503.515
504.33
504.819
505.055
505.123
504.919
504.339
503.589
502.424
501.089
499.341
497.406
495.097
492.594
489.759
486.733
483.419
479.938
476.221
472.374
468.377
464.224
459.931
455.563
451.072
446.559
441.951
437.353
432.699
428.082
423.453
418.892
414.371
410.02
405.792
401.793
398.006
394.449
391.167
388.162
385.471
383.077
381.002
379.202
377.714
376.523
375.62
374.991
374.651
374.502
374.471
374.668
374.936
375.285
375.621
375.947
376.205
376.439
376.688
377.195
378.241
380.337
383.016
388.14
391.695
392.707
374.928
377.794
378.962
381.263
382.489
384.653
385.852
387.829
388.944
390.705
391.698
393.224
394.062
395.336
395.99
396.973
397.452
398.095
398.393
398.634
398.709
398.714
398.398
398.073
397.402
396.712
395.662
394.587
393.157
391.628
389.73
387.744
385.4
382.976
380.216
377.4
374.286
371.135
367.742
364.326
360.719
357.135
353.394
349.725
345.939
342.272
338.561
335.003
331.464
328.102
324.826
321.741
318.786
316.073
313.503
311.183
309.032
307.133
305.424
303.96
302.711
301.697
300.926
300.432
300.203
300.14
300.41
300.91
301.715
302.723
304.061
305.578
307.432
309.448
311.79
314.283
317.075
320.01
323.217
326.559
330.123
333.804
337.656
341.587
345.637
349.726
353.864
357.995
362.121
366.213
370.283
374.341
378.434
382.626
387.055
392.189
398.041
405.067
410.081
411.985
314.017
314.498
314.618
314.692
314.644
314.497
314.115
313.756
313.042
312.426
311.384
310.484
309.12
307.923
306.247
304.748
302.775
300.976
298.73
296.638
294.155
291.791
289.087
286.498
283.612
280.852
277.873
275.034
272.04
269.184
266.25
263.458
260.66
258.016
255.429
252.996
250.677
248.524
246.53
244.714
243.088
241.652
240.421
239.387
238.562
237.943
237.582
237.42
237.384
237.65
238.096
238.781
239.673
240.742
242.022
243.46
245.113
246.905
248.918
251.059
253.425
255.917
258.639
261.493
264.578
267.811
271.276
274.892
278.738
282.747
286.99
291.409
296.068
300.913
306.005
311.296
316.842
322.604
328.629
334.882
341.404
348.166
355.195
362.469
369.997
377.76
385.76
393.965
402.356
410.896
419.559
428.325
437.181
446.146
455.275
464.77
475.144
486.671
497.724
503.181
236.613
234.419
233.484
231.58
230.467
228.52
227.235
225.245
223.828
221.819
220.311
218.311
216.754
214.791
213.229
211.336
209.811
208.02
206.575
204.922
203.598
202.121
200.96
199.696
198.74
197.73
197.019
196.26
195.786
195.307
195.073
194.931
194.892
194.987
195.274
195.63
196.193
196.814
197.645
198.526
199.613
200.75
202.082
203.467
205.033
206.658
208.453
210.309
212.329
214.421
216.664
218.99
221.463
224.017
226.715
229.498
232.428
235.448
238.617
241.883
245.304
248.83
252.519
256.323
260.296
264.398
268.676
273.097
277.704
282.47
287.434
292.575
297.93
303.481
309.264
315.267
321.524
328.028
334.808
341.87
349.241
356.934
364.978
373.391
382.204
391.448
401.16
411.379
422.151
433.531
445.58
458.374
472.002
486.571
502.194
518.969
536.808
555.203
569.954
576.532
255.6
254.036
253.339
251.884
250.941
249.383
248.219
246.544
245.186
243.395
241.874
239.987
238.335
236.387
234.642
232.669
230.875
228.918
227.126
225.226
223.486
221.687
220.052
218.397
216.915
215.443
214.154
212.902
211.846
210.842
210.045
209.311
208.788
208.339
208.106
207.992
207.966
208.127
208.421
208.846
209.427
210.115
210.979
211.917
213.035
214.219
215.586
217.013
218.627
220.302
222.161
224.09
226.194
228.382
230.733
233.182
235.79
238.51
241.375
244.364
247.494
250.757
254.166
257.712
261.415
265.259
269.272
273.433
277.774
282.273
286.965
291.828
296.897
302.148
307.62
313.297
319.212
325.355
331.757
338.417
345.362
352.6
360.156
368.046
376.294
384.922
393.955
403.424
413.377
423.851
434.894
446.564
458.939
472.116
486.218
501.408
517.787
535.017
549.467
556.065
330.172
331.524
332.028
332.928
333.356
334.032
334.341
334.738
334.897
334.972
334.89
334.689
334.232
333.775
332.966
332.223
331.075
330.032
328.561
327.216
325.44
323.804
321.75
319.846
317.55
315.411
312.933
310.598
307.977
305.51
302.807
300.265
297.545
294.991
292.319
289.806
287.246
284.847
282.439
280.196
277.977
275.919
273.922
272.094
270.366
268.791
267.349
266.048
264.916
263.934
263.138
262.51
262.093
261.889
261.821
261.965
262.337
262.933
263.686
264.694
265.841
267.236
268.79
270.563
272.521
274.671
277.02
279.546
282.277
285.176
288.275
291.521
294.961
298.568
302.359
306.311
310.442
314.729
319.188
323.801
328.575
333.499
338.562
343.756
349.08
354.537
360.12
365.835
371.662
377.613
383.694
389.955
396.403
403.165
410.383
418.417
427.721
438.42
449.844
455.804
382.959
386.266
387.631
390.326
391.823
394.398
395.943
398.354
399.905
402.16
403.703
405.784
407.264
409.159
410.531
412.222
413.446
414.913
415.952
417.173
417.995
418.946
419.518
420.162
420.476
420.712
420.785
420.774
420.438
420.077
419.395
418.672
417.638
416.549
415.164
413.719
411.994
410.173
408.068
405.868
403.407
400.866
398.085
395.249
392.212
389.123
385.874
382.573
379.161
375.722
372.216
368.715
365.192
361.718
358.26
354.894
351.588
348.402
345.326
342.427
339.683
337.135
334.76
332.606
330.659
328.954
327.483
326.265
325.293
324.569
324.118
323.909
323.85
324.038
324.454
325.03
325.797
326.699
327.749
328.912
330.181
331.545
333.037
334.68
336.424
338.342
340.347
342.532
344.821
347.312
349.918
352.742
355.672
358.866
362.394
366.544
371.588
378.362
383.031
384.727
417.74
422.353
424.31
428.219
430.567
434.38
436.968
440.662
443.409
447.017
449.9
453.431
456.403
459.863
462.886
466.277
469.318
472.633
475.664
478.894
481.885
485.018
487.939
490.955
493.779
496.652
499.351
502.051
504.58
507.08
509.401
511.664
513.739
515.725
517.51
519.184
520.63
521.982
523.13
524.151
524.933
525.565
525.899
526.052
526.075
525.728
525.237
524.403
523.383
522.044
520.482
518.623
516.515
514.132
511.484
508.586
505.425
502.038
498.407
494.579
490.544
486.358
482.004
477.509
472.87
468.158
463.355
458.536
453.685
448.86
444.072
439.395
434.823
430.415
426.169
422.125
418.277
414.558
411.032
407.641
404.405
401.294
398.238
395.249
392.306
389.421
386.55
383.712
380.876
378.078
375.325
372.668
370.346
367.995
366.47
365.81
365.827
369.762
372.635
373.506
432.368
437.975
440.382
445.187
448.168
452.889
456.257
460.901
464.555
469.153
473.032
477.609
481.666
486.242
490.444
495.03
499.35
503.956
508.37
512.998
517.486
522.133
526.677
531.338
535.922
540.591
545.202
549.872
554.493
559.15
563.759
568.383
572.957
577.526
582.038
586.527
590.946
595.346
599.683
603.98
608.189
612.338
616.379
620.34
624.177
627.905
631.499
634.948
638.243
641.367
644.314
647.064
649.605
651.922
653.995
655.814
657.352
658.6
659.526
660.047
660.271
660.299
659.691
659.043
657.836
656.404
654.469
652.186
649.426
646.243
642.591
638.473
633.887
628.822
623.284
617.26
610.789
603.93
596.616
588.961
580.841
572.38
563.468
554.219
544.539
534.47
523.998
513.113
501.782
489.896
477.413
464.407
450.854
437.165
422.905
409.52
397.533
390.384
387.151
385.65
430.575
436.137
438.549
443.343
446.367
451.107
454.564
459.278
463.073
467.8
471.882
476.667
481.009
485.886
490.469
495.467
500.272
505.401
510.415
515.686
520.9
526.323
531.727
537.306
542.894
548.629
554.395
560.286
566.219
572.262
578.355
584.546
590.791
597.124
603.512
609.979
616.5
623.092
629.735
636.438
643.184
649.982
656.814
663.688
670.589
677.524
684.478
691.445
698.411
705.366
712.323
719.265
726.19
733.092
739.963
746.803
753.594
760.332
766.994
773.571
780.048
786.399
792.595
798.684
804.568
810.274
815.721
820.908
825.773
830.288
834.402
838.067
841.223
843.809
845.754
846.762
847.151
847.033
845.271
842.918
838.931
833.876
827.086
818.802
808.573
796.467
782.176
765.714
746.819
725.463
701.377
674.374
644.04
610.772
574.318
535.911
496.858
460.89
434.438
417.573
434.15
438.591
440.555
444.452
446.927
450.782
453.618
457.471
460.611
464.508
467.916
471.89
475.538
479.621
483.496
487.714
491.816
496.199
500.532
505.104
509.675
514.454
519.272
524.277
529.347
534.589
539.918
545.411
551.009
556.77
562.654
568.704
574.896
581.262
587.788
594.488
601.353
608.399
615.621
623.029
630.62
638.4
646.364
654.517
662.848
671.396
680.161
689.156
698.39
707.884
717.551
727.439
737.511
747.781
758.226
768.851
779.633
790.573
801.655
812.876
824.227
835.701
847.301
859.014
870.829
882.737
894.72
906.759
918.827
930.888
942.958
955.043
967.115
979.151
991.115
1002.97
1014.67
1026.13
1037.23
1047.91
1057.95
1067.22
1075.42
1082.31
1087.26
1089.62
1090.33
1087.47
1080.05
1067.97
1049.38
1023.6
988.405
942.687
884.74
813.129
728.952
636.431
553.194
487.544
476.347
478.998
480.274
482.891
484.631
487.292
489.318
492.016
494.255
497.007
499.434
502.258
504.86
507.776
510.548
513.575
516.519
519.672
522.79
526.086
529.383
532.836
536.318
539.94
543.616
547.425
551.301
555.306
559.396
563.615
567.933
572.381
576.939
581.625
586.427
591.393
596.509
601.8
607.265
612.922
618.777
624.849
631.148
637.696
644.512
651.582
658.914
666.519
674.397
682.548
691.041
699.863
709.038
718.57
728.467
738.756
749.436
760.536
772.063
784.045
796.498
809.45
822.93
836.954
851.545
866.718
882.49
898.876
915.891
933.553
951.912
970.687
990.059
1009.85
1030.08
1050.65
1071.52
1092.62
1113.92
1135.36
1156.92
1178.58
1200.31
1222.06
1243.69
1265.38
1286.84
1307.59
1326.92
1343.63
1353.14
1356.6
1349.51
1319.63
1269.14
1194.06
1092.1
963.5
803.747
630
652.445
652.359
653.266
653.959
655.002
656.056
657.144
658.377
659.518
660.857
662.068
663.482
664.774
666.253
667.633
669.174
670.646
672.252
673.818
675.494
677.156
678.911
680.672
682.515
684.387
686.337
688.33
690.407
692.546
694.77
697.071
699.464
701.951
704.544
707.254
710.067
712.998
716.048
719.229
722.545
726.007
729.62
733.396
737.34
741.462
745.764
750.259
754.953
759.858
764.986
770.353
775.965
781.842
787.994
794.446
801.181
808.235
815.616
823.336
831.415
839.854
848.672
857.954
867.699
877.949
888.718
900.053
911.975
924.514
937.7
951.412
965.946
981.235
997.398
1014.45
1032.47
1051.56
1071.76
1093.19
1115.94
1140.12
1165.84
1193.18
1222.23
1253.03
1284.79
1316.94
1348.01
1376.12
1399.01
1411.27
1415.56
1411.93
1395.69
1363.67
1308.08
1224.97
1117.63
996.054
847.745
1558.81
1559.31
1558.94
1558.44
1557.59
1556.98
1555.93
1555.27
1554.15
1553.42
1552.28
1551.46
1550.32
1549.41
1548.26
1547.27
1546.11
1545.03
1543.85
1542.7
1541.5
1540.29
1539.05
1537.79
1536.54
1535.24
1533.96
1532.64
1531.33
1529.98
1528.64
1527.26
1525.9
1524.49
1523.1
1521.68
1520.28
1518.85
1517.43
1515.99
1514.56
1513.12
1511.68
1510.22
1508.75
1507.25
1505.72
1504.13
1502.49
1500.77
1498.98
1497.11
1495.16
1493.13
1491.04
1488.86
1486.5
1483.99
1481.17
1478.05
1474.47
1470.38
1466.07
1461.42
1456.48
1451.2
1445.66
1439.76
1433.48
1426.71
1419.44
1411.56
1403.01
1393.88
1383.85
1372.76
1360.78
1347.51
1333.02
1317.12
1299.66
1280.57
1259.61
1236.68
1211.48
1183.65
1152.37
1116.56
1074
1021.53
954.021
867.189
767.186
661.634
573.6
525.321
549.325
717.855
884.049
937.6
858.044
321.787
175.689
119.27
95.064
81.9519
74.6144
71.3549
70.1695
71.0739
77.0137
91.1227
111.885
147.719
199.479
267.535
348.42
448.81
562.506
602.017
686.892
327.74
219.05
154.407
121.421
103.071
91.4547
85.5003
83.2401
83.5482
93.9923
108.769
135.985
176.455
232.145
299.141
375.868
467.065
544.071
557.293
541.15
318.131
242.573
179.655
147.103
124.133
109.698
103.169
101.043
103.353
114.122
135.279
166.408
211.655
266.132
326.42
392.496
468.976
509.884
507.642
443.386
304.932
256.22
197.498
170.329
144.154
131.303
124.926
122.815
124.642
145.062
168.93
206.349
251.675
301.088
354.985
414.291
458.823
470.115
459.189
388.162
300.315
266.045
213.709
190.616
165.575
154.88
150.076
149.101
164.281
187.59
215.054
252.58
291.079
332.487
375.522
414.309
433.466
419.948
415.912
359.696
299.403
272.683
229.441
211.123
195.276
190.537
189.953
202.479
219.724
242.164
267.36
297.967
327.401
359.277
387.353
402.197
394.694
362.927
379.809
350.677
310.207
292.564
267.236
258.943
255.902
255.478
262.353
272.141
286.231
302.283
320.522
340.372
357.633
372.757
379.719
375.781
339.642
297.354
352.715
381.797
368.448
363.982
354.289
349.936
345.015
343.349
343.298
347.604
352.782
358.557
364.757
368.057
369.232
368.454
358.721
327.75
273.497
230.42
336.641
492.822
478.437
470.837
452.617
444.024
430.654
424.126
415.172
410.65
402.919
397.1
388.117
377.679
365.324
348.241
312.819
265.512
206.578
169.327
330.304
559.936
539.094
529.745
507.442
496.752
478.429
468.166
451.368
439.931
422.99
408.97
389.557
369.378
340.471
301.26
253.659
203.727
153.933
129.562
331.083
542.286
523.043
514.598
494.128
484.394
468.158
459.246
445.122
435.283
421.292
408.8
392.562
374.462
349.505
312.885
264.242
211.32
154.811
126.166
329.45
449.934
440.64
436.282
421.587
415.089
406.161
401.957
398.179
396.145
394.378
391.113
387.357
379.626
369.913
357.064
326.678
278.2
213.409
174.167
328.476
353.473
336.801
330.95
323.8
320.855
318.896
318.642
324.156
329.69
339.774
349.001
359.171
367.654
371.674
372.869
366.781
340.364
285.382
239.414
331.598
334.121
293.981
276.123
250.082
241.209
238.05
237.865
246.691
258.6
273.758
292.926
313.027
335.784
357.331
376.029
384.664
384.582
351.997
308.903
343.842
345.007
286.474
260.637
219.033
201.39
186.132
181.43
180.71
194.029
212.345
235.232
262.636
293.236
324.594
358.98
391.326
408.082
405.347
374.541
373.722
373.19
288.194
254.922
205.154
183.161
159.894
149.925
145.52
144.676
160.863
183.859
212.621
250.576
289.264
331.238
375.453
419.206
441.108
429.774
414.477
428.237
293.063
245.352
189.163
162.984
138.966
127.297
121.809
120.239
123.862
143.792
168.408
205.743
251.311
300.893
355.144
414.613
464.188
479.528
462.986
530.224
307.457
233.145
173.165
141.473
119.702
106.437
100.592
98.9003
102.987
114.55
136.303
167.772
212.374
266.342
326.554
393.953
472.578
516.948
515.22
685.358
317.254
210.902
147.919
116.68
99.5128
88.9289
83.694
81.788
83.2188
94.3322
110.275
138.296
179.083
233.824
299.509
375.604
467.25
549.706
566.032
861.898
312.388
170.294
115.546
91.9168
79.4705
72.7203
69.9252
69.0796
71.1701
77.7714
92.5713
114.219
150.491
202.257
269.003
349.358
449.022
565.811
610.65
646.052
32.1747
12.7363
11.3229
11.19
11.171
11.1705
11.1708
11.1706
11.1705
11.1705
11.1706
11.1708
11.1705
11.171
11.19
11.3229
12.7362
32.1746
646.051
672.738
55.0617
17.0383
12.0869
11.3039
11.1803
11.1547
11.1529
11.1534
11.1536
11.1536
11.1534
11.1529
11.1547
11.1803
11.3039
12.0869
17.0383
55.0616
672.738
698.461
71.0968
21.1549
13.3035
11.5874
11.2261
11.1552
11.1382
11.1358
11.1355
11.1355
11.1358
11.1382
11.1552
11.2261
11.5874
13.3035
21.1549
71.0967
698.461
723.139
85.852
25.1373
14.6462
12.0431
11.3371
11.1684
11.1265
11.1183
11.1171
11.1171
11.1183
11.1265
11.1684
11.3371
12.0431
14.6462
25.1373
85.852
723.139
746.732
101.859
29.2051
16.0654
12.5883
11.5233
11.2064
11.1273
11.105
11.1003
11.1003
11.105
11.1273
11.2064
11.5233
12.5883
16.0654
29.205
101.859
746.732
769.306
118.429
33.3661
17.5403
13.197
11.7624
11.2829
11.1366
11.0944
11.0843
11.0843
11.0944
11.1366
11.2829
11.7624
13.197
17.5403
33.3661
118.429
769.306
790.738
134.975
37.5691
19.0515
13.8503
12.0432
11.3872
11.1601
11.0918
11.0718
11.0718
11.0918
11.1601
11.3872
12.0432
13.8503
19.0515
37.5691
134.975
790.738
810.987
151.256
41.7813
20.5855
14.5353
12.3571
11.5178
11.2031
11.0955
11.0625
11.0625
11.0955
11.2031
11.5178
12.3571
14.5354
20.5856
41.7814
151.256
810.987
829.948
167.074
45.9682
22.1301
15.2422
12.6968
11.6708
11.2604
11.1065
11.0594
11.0594
11.1065
11.2604
11.6708
12.6968
15.2422
22.1301
45.9683
167.074
829.948
847.649
182.396
50.1194
23.6792
15.9645
13.0567
11.843
11.3324
11.129
11.0619
11.0619
11.129
11.3324
11.843
13.0567
15.9646
23.6792
50.1196
182.397
847.649
863.995
197.099
54.2108
25.2247
16.6968
13.4321
12.0315
11.4179
11.1609
11.0697
11.0697
11.1609
11.4179
12.0315
13.4321
16.6968
25.2248
54.2109
197.099
863.995
879.017
211.159
58.2332
26.7622
17.4348
13.8193
12.2335
11.5156
11.2021
11.0862
11.0862
11.2021
11.5156
12.2336
13.8193
17.4348
26.7623
58.2334
211.16
879.017
892.661
224.491
62.1654
28.2846
18.1746
14.215
12.4467
11.6242
11.2528
11.1113
11.1113
11.2528
11.6242
12.4467
14.215
18.1746
28.2847
62.1656
224.491
892.661
905.023
237.116
66.0081
29.7905
18.914
14.6169
12.6691
11.7427
11.3126
11.1446
11.1446
11.3126
11.7427
12.6691
14.6169
18.914
29.7906
66.0083
237.116
905.023
916.068
248.969
69.7452
31.2751
19.6505
15.023
12.899
11.8698
11.381
11.1861
11.1861
11.381
11.8698
12.899
15.023
19.6505
31.2752
69.7454
248.969
916.067
925.906
260.091
73.3783
32.7379
20.383
15.4318
13.1351
12.0048
11.4576
11.2357
11.2357
11.4576
12.0048
13.1351
15.4319
20.383
32.738
73.3785
260.091
925.906
934.513
270.425
76.8913
34.1736
21.1089
15.8418
13.3762
12.1466
11.5418
11.2931
11.2931
11.5418
12.1466
13.3762
15.8418
21.1089
34.1737
76.8914
270.425
934.512
942.037
280.036
80.2892
35.5825
21.8276
16.2519
13.6211
12.2944
11.6331
11.3579
11.3579
11.6331
12.2944
13.6212
16.2519
21.8277
35.5826
80.2892
280.036
942.036
948.451
288.885
83.5601
36.9607
22.5374
16.6609
13.8691
12.4475
11.7309
11.4299
11.4299
11.7309
12.4475
13.8691
16.661
22.5374
36.9607
83.5602
288.885
948.45
953.925
297.052
86.7119
38.3095
23.2382
17.0685
14.1193
12.6053
11.8348
11.5085
11.5085
11.8348
12.6053
14.1193
17.0685
23.2382
38.3095
86.712
297.051
953.925
958.417
304.505
89.7342
39.625
23.9283
17.4735
14.3712
12.7671
11.9442
11.5934
11.5934
11.9442
12.7671
14.3712
17.4735
23.9283
39.6251
89.7343
304.505
958.416
962.121
311.328
92.6355
40.9092
24.608
17.8757
14.6242
12.9325
12.0587
11.684
11.684
12.0587
12.9325
14.6242
17.8757
24.608
40.9092
92.6356
311.327
962.12
964.967
317.505
95.4079
42.1581
25.2755
18.2742
14.8776
13.1009
12.1777
11.78
11.78
12.1777
13.1009
14.8776
18.2742
25.2756
42.1582
95.4079
317.504
964.966
967.18
323.104
98.0614
43.3749
25.9317
18.669
15.1313
13.2719
12.3009
11.8809
11.8809
12.3009
13.2719
15.1313
18.669
25.9318
43.3749
98.0615
323.104
967.18
968.649
328.145
100.59
44.5556
26.575
19.0593
15.3846
13.445
12.4277
11.9862
11.9862
12.4277
13.445
15.3846
19.0593
26.575
44.5556
100.59
328.145
968.648
969.636
332.657
103.005
45.7041
27.2062
19.4452
15.6374
13.62
12.5579
12.0955
12.0955
12.5579
13.62
15.6374
19.4452
27.2063
45.7041
103.005
332.657
969.635
969.97
336.702
105.3
46.8164
27.824
19.8261
15.8892
13.7964
12.691
12.2085
12.2085
12.691
13.7964
15.8892
19.8261
27.8241
46.8164
105.3
336.702
969.969
969.834
340.246
107.488
47.8972
28.4296
20.2021
16.14
13.9741
12.8267
12.3248
12.3248
12.8267
13.9741
16.14
20.2021
28.4296
47.8973
107.488
340.245
969.833
969.425
343.4
109.561
48.9418
29.0212
20.5725
16.3892
14.1525
12.9646
12.4441
12.4441
12.9646
14.1525
16.3892
20.5725
29.0212
48.9418
109.561
343.4
969.424
968.579
346.144
111.538
49.9564
29.6006
20.9378
16.6369
14.3316
13.1045
12.5659
12.5659
13.1045
14.3316
16.6369
20.9378
29.6006
49.9564
111.538
346.142
968.578
967.379
348.529
113.407
50.9358
30.1661
21.2973
16.8828
14.5111
13.2461
12.69
12.69
13.2461
14.5111
16.8828
21.2973
30.1661
50.9358
113.406
348.528
967.378
965.891
350.556
115.187
51.8866
30.7193
21.6514
17.1267
14.6907
13.389
12.8161
12.8161
13.389
14.6907
17.1267
21.6514
30.7193
51.8865
115.186
350.555
965.89
964.155
352.263
116.865
52.8036
31.2589
21.9996
17.3685
14.8702
13.5331
12.944
12.944
13.5331
14.8702
17.3684
21.9996
31.2589
52.8034
116.865
352.261
964.155
962.205
353.661
118.463
53.6935
31.7865
22.3422
17.608
15.0495
13.6782
13.0733
13.0733
13.6782
15.0495
17.608
22.3421
31.7865
53.6934
118.463
353.66
962.204
960.074
354.763
119.966
54.5516
32.3009
22.6788
17.8451
15.2284
13.8239
13.2039
13.2039
13.8239
15.2284
17.8451
22.6787
32.3008
54.5513
119.966
354.762
960.074
957.789
355.617
121.397
55.3843
32.8035
23.0098
18.0798
15.4067
13.9702
13.3355
13.3355
13.9702
15.4066
18.0798
23.0097
32.8034
55.384
121.396
355.616
957.789
955.382
356.174
122.738
56.1872
33.2934
23.3348
18.3119
15.5842
14.1168
13.468
13.468
14.1168
15.5842
18.3119
23.3348
33.2933
56.1868
122.738
356.174
955.382
952.87
356.559
124.013
56.9662
33.7719
23.6542
18.5414
15.761
14.2636
13.601
13.601
14.2635
15.7609
18.5413
23.6541
33.7718
56.966
124.013
356.558
952.87
950.287
356.612
125.207
57.7182
34.2386
23.9678
18.7682
15.9367
14.4103
13.7346
13.7346
14.4103
15.9367
18.7681
23.9677
34.2384
57.7177
125.206
356.611
950.287
947.635
356.52
126.338
58.4477
34.6941
24.2758
18.9922
16.1114
14.557
13.8684
13.8684
14.5569
16.1113
18.9921
24.2757
34.694
58.4476
126.337
356.519
947.635
944.959
356.291
127.396
59.1529
35.1387
24.5781
19.2134
16.2849
14.7033
14.0024
14.0024
14.7033
16.2848
19.2134
24.578
35.1384
59.1522
127.395
356.291
944.959
942.243
355.824
128.401
59.8373
35.5726
24.8749
19.4319
16.4571
14.8493
14.1364
14.1364
14.8493
16.4571
19.4318
24.8748
35.5725
59.8372
128.401
355.823
942.244
939.541
355.241
129.341
60.501
35.9966
25.1664
19.6475
16.628
14.9948
14.2703
14.2703
14.9948
16.628
19.6474
25.1663
35.9963
60.5003
129.339
355.242
939.541
936.82
354.509
130.244
61.1462
36.4104
25.4525
19.8602
16.7975
15.1397
14.404
14.404
15.1397
16.7974
19.8602
25.4524
36.4103
61.1461
130.244
354.509
936.821
934.147
353.718
131.105
61.7764
36.8154
25.7335
20.0702
16.9655
15.2839
14.5373
14.5373
15.2839
16.9654
20.0701
25.7334
36.8152
61.7759
131.104
353.719
934.148
931.465
352.874
131.98
62.3967
37.2117
26.0095
20.2773
17.132
15.4273
14.6702
14.6702
15.4273
17.1319
20.2772
26.0094
37.2116
62.3966
131.98
352.874
931.466
928.862
352.022
132.874
63.0148
37.6004
26.2806
20.4816
17.2969
15.5699
14.8026
14.8026
15.5699
17.2969
20.4816
26.2806
37.6003
63.0145
132.874
352.022
928.863
926.333
351.165
133.817
63.6354
37.9823
26.5471
20.6831
17.4602
15.7115
14.9343
14.9343
15.7115
17.4602
20.6831
26.5471
37.9823
63.6353
133.817
351.167
926.334
923.875
350.421
134.845
64.2655
38.3591
26.8093
20.882
17.6219
15.8522
15.0654
15.0654
15.8522
17.6219
20.8819
26.8093
38.359
64.2655
134.845
350.422
923.876
921.484
349.752
135.969
64.9088
38.7319
27.0675
21.0781
17.782
15.9918
15.1957
15.1957
15.9918
17.782
21.0781
27.0675
38.7319
64.9087
135.968
349.754
921.485
919.159
349.29
137.194
65.5666
39.1018
27.3221
21.2718
17.9404
16.1304
15.3253
15.3253
16.1304
17.9404
21.2718
27.3221
39.1018
65.5668
137.195
349.292
919.16
916.897
348.94
138.522
66.2419
39.4699
27.5733
21.4629
18.0972
16.2678
15.4539
15.4539
16.2678
18.0972
21.4629
27.5734
39.4701
66.2424
138.523
348.942
916.897
914.698
348.848
139.941
66.9341
39.8374
27.8216
21.6516
18.2523
16.4041
15.5817
15.5817
16.4041
18.2523
21.6517
27.8217
39.8375
66.9343
139.941
348.85
914.698
912.561
348.912
141.45
67.6441
40.2046
28.0673
21.8381
18.4057
16.5392
15.7085
15.7085
16.5392
18.4058
21.8382
28.0674
40.2049
67.6447
141.451
348.915
912.561
910.486
349.093
143.026
68.3713
40.573
28.3107
22.0224
18.5576
16.6731
15.8342
15.8343
16.6731
18.5576
22.0225
28.3108
40.5732
68.3717
143.027
349.096
910.486
908.473
349.463
144.663
69.1146
40.9426
28.5523
22.2047
18.7078
16.8058
15.959
15.959
16.8058
18.7079
22.2049
28.5526
40.9432
69.1162
144.667
349.468
908.472
906.522
349.98
146.343
69.8727
41.3141
28.7923
22.3852
18.8566
16.9372
16.0827
16.0827
16.9373
18.8567
22.3854
28.7927
41.3148
69.8739
146.345
349.985
906.521
904.633
350.617
148.056
70.6424
41.6872
29.0309
22.5638
19.0037
17.0674
16.2053
16.2054
17.0675
19.0039
22.5641
29.0314
41.6881
70.6443
148.06
350.624
904.631
902.808
351.359
149.8
71.4262
42.0627
29.2683
22.7407
19.1494
17.1964
16.3268
16.3269
17.1965
19.1496
22.741
29.2687
42.0634
71.4275
149.803
351.368
902.805
901.043
352.185
151.555
72.2189
42.4401
29.5045
22.916
19.2936
17.324
16.4472
16.4473
17.3242
19.2939
22.9166
29.5058
42.4427
72.2249
151.566
352.2
901.038
899.341
353.089
153.327
73.0253
42.8213
29.7406
23.09
19.4364
17.4505
16.5665
16.5666
17.4507
19.4368
23.0906
29.7414
42.8227
73.0277
153.332
353.104
899.335
897.699
354.047
155.086
73.8365
43.2044
29.9759
23.2627
19.5779
17.5758
16.6847
16.6848
17.5761
19.5785
23.2638
29.9779
43.2084
73.8442
155.1
354.067
897.69
896.12
355.04
156.834
74.6495
43.5879
30.2101
23.4338
19.7179
17.6997
16.8016
16.8018
17.7001
19.7186
23.4349
30.2119
43.5913
74.6573
156.852
355.075
896.107
894.599
356.088
158.58
75.4739
43.9758
30.4445
23.6039
19.8567
17.8225
16.9175
16.9177
17.8231
19.8578
23.6059
30.4482
43.9829
75.4871
158.599
356.121
894.583
893.14
357.133
160.296
76.2955
44.363
30.6775
23.7724
19.994
17.9439
17.0321
17.0323
17.9446
19.9952
23.7743