/*--------------------------------*- C++ -*----------------------------------*\
| =========                 |                                                 |
| \\      /  F ield         | OpenFOAM: The Open Source CFD Toolbox           |
|  \\    /   O peration     | Version:  2.1.0                                 |
|   \\  /    A nd           | Web:      www.OpenFOAM.org                      |
|    \\/     M anipulation  |                                                 |
\*---------------------------------------------------------------------------*/
FoamFile
{
    version     2.0;
    format      ascii;
    class       volScalarField;
    location    "0.24";
    object      p;
}
// * * * * * * * * * * * * * * * * * * * * * * * * * * * * * * * * * * * * * //

dimensions      [1 -1 -2 0 0 0 0];

internalField   nonuniform List<scalar> 
6400
(
99998.4
99995.7
99993.8
99992.2
99990.7
99989.3
99987.9
99986.5
99985
99983.5
99981.9
99980.3
99978.6
99976.8
99975
99973.1
99971.2
99969.2
99967.1
99964.9
99962.7
99960.4
99958
99955.5
99953
99950.4
99947.7
99945
99942.1
99939.2
99936.2
99933.1
99930
99926.7
99923.4
99919.9
99916.4
99912.7
99909
99905.1
99901.2
99897.1
99892.9
99888.6
99884.2
99879.6
99874.8
99869.9
99864.9
99859.6
99854.2
99848.6
99842.8
99836.8
99830.5
99824.1
99817.5
99810.6
99803.4
99796
99788.3
99780.3
99772
99763.4
99754.5
99745.3
99735.7
99725.8
99715.5
99704.8
99693.8
99682.3
99670.5
99658.2
99645.5
99632.4
99618.8
99604.6
99590
99574.7
99558.8
99542.1
99524.7
99506.2
99486.6
99465.5
99442.6
99417.6
99390
99359.4
99325.9
99290.3
99255
99221.4
99190.4
99154.1
99097.2
98982.8
98614.2
97018
99996.8
99995.1
99993.4
99991.8
99990.4
99989
99987.6
99986.1
99984.6
99983.1
99981.5
99979.9
99978.2
99976.5
99974.6
99972.7
99970.8
99968.8
99966.7
99964.5
99962.3
99960
99957.6
99955.1
99952.6
99950
99947.3
99944.5
99941.7
99938.8
99935.8
99932.7
99929.5
99926.2
99922.9
99919.4
99915.9
99912.3
99908.5
99904.7
99900.7
99896.6
99892.4
99888.1
99883.7
99879.1
99874.4
99869.4
99864.4
99859.2
99853.7
99848.1
99842.4
99836.4
99830.2
99823.8
99817.1
99810.2
99803.1
99795.7
99788
99780.1
99771.8
99763.2
99754.4
99745.2
99735.6
99725.7
99715.5
99704.8
99693.8
99682.4
99670.6
99658.4
99645.7
99632.6
99619
99604.8
99590.2
99574.9
99559
99542.3
99524.8
99506.3
99486.6
99465.5
99442.6
99417.6
99390.1
99359.8
99326.6
99291.3
99256
99222.7
99193.5
99162.6
99112.3
99012.7
98714.2
98165.1
99995.3
99994.3
99992.9
99991.5
99990.1
99988.8
99987.4
99985.9
99984.5
99983
99981.4
99979.8
99978.1
99976.3
99974.5
99972.6
99970.6
99968.6
99966.5
99964.4
99962.1
99959.8
99957.4
99955
99952.4
99949.8
99947.2
99944.4
99941.6
99938.6
99935.6
99932.6
99929.4
99926.1
99922.8
99919.3
99915.8
99912.2
99908.4
99904.6
99900.7
99896.6
99892.4
99888.2
99883.7
99879.2
99874.5
99869.6
99864.6
99859.4
99854
99848.5
99842.7
99836.8
99830.6
99824.2
99817.6
99810.8
99803.7
99796.3
99788.7
99780.8
99772.6
99764
99755.2
99746.1
99736.6
99726.8
99716.6
99706
99695.1
99683.8
99672
99659.9
99647.3
99634.3
99620.8
99606.7
99592.2
99577
99561.1
99544.5
99527
99508.5
99488.9
99467.8
99445
99420.2
99393
99363.3
99331.1
99297.7
99264.9
99234.7
99209
99181.9
99147.1
99086.2
98931.8
99023.4
99993.5
99993.5
99992.5
99991.3
99990.1
99988.8
99987.4
99986
99984.6
99983.1
99981.5
99979.9
99978.2
99976.4
99974.6
99972.8
99970.8
99968.8
99966.7
99964.6
99962.4
99960.1
99957.7
99955.3
99952.7
99950.2
99947.5
99944.7
99941.9
99939
99936
99933
99929.8
99926.6
99923.2
99919.8
99916.3
99912.7
99909
99905.2
99901.3
99897.2
99893.1
99888.8
99884.5
99879.9
99875.3
99870.5
99865.5
99860.4
99855
99849.5
99843.8
99837.9
99831.8
99825.4
99818.8
99812
99805
99797.7
99790.1
99782.2
99774.1
99765.6
99756.8
99747.7
99738.3
99728.5
99718.4
99707.9
99697
99685.7
99674
99661.8
99649.2
99636.2
99622.6
99608.5
99593.8
99578.5
99562.5
99545.7
99528
99509.3
99489.4
99468.1
99445.2
99420.5
99393.6
99364.7
99334.1
99303.4
99274.8
99249.9
99231
99218.6
99213.9
99219.5
99247.3
99667.4
99991.5
99992.5
99992.2
99991.3
99990.2
99989
99987.7
99986.3
99984.9
99983.4
99981.9
99980.3
99978.6
99976.9
99975.1
99973.2
99971.3
99969.3
99967.3
99965.1
99963
99960.7
99958.3
99955.9
99953.4
99950.8
99948.2
99945.5
99942.7
99939.8
99936.8
99933.8
99930.6
99927.4
99924.1
99920.7
99917.2
99913.6
99909.9
99906.1
99902.2
99898.2
99894.1
99889.9
99885.5
99881
99876.3
99871.5
99866.6
99861.4
99856.1
99850.6
99844.9
99839
99832.9
99826.6
99820
99813.2
99806.2
99798.9
99791.3
99783.4
99775.3
99766.8
99758.1
99748.9
99739.5
99729.7
99719.5
99709
99698.1
99686.7
99674.9
99662.7
99650
99636.8
99623.1
99608.9
99594
99578.5
99562.3
99545.2
99527.3
99508.3
99488.2
99466.8
99443.8
99419.1
99392.8
99365
99336.6
99309.3
99286.3
99268.9
99261.3
99271.4
99309.1
99401.8
99600.5
100175
99989.5
99991.6
99991.8
99991.3
99990.4
99989.4
99988.2
99986.9
99985.5
99984
99982.5
99980.9
99979.2
99977.5
99975.7
99973.9
99972
99970
99967.9
99965.8
99963.6
99961.4
99959.1
99956.7
99954.2
99951.6
99949
99946.2
99943.5
99940.6
99937.6
99934.6
99931.4
99928.2
99924.9
99921.5
99918
99914.4
99910.7
99906.9
99903
99899
99894.9
99890.6
99886.2
99881.7
99877
99872.2
99867.2
99862
99856.7
99851.2
99845.5
99839.6
99833.4
99827.1
99820.5
99813.7
99806.7
99799.4
99791.8
99783.9
99775.8
99767.3
99758.5
99749.4
99740
99730.2
99720
99709.4
99698.4
99687
99675.2
99662.9
99650.1
99636.8
99623
99608.6
99593.5
99577.8
99561.3
99544
99525.8
99506.5
99486.1
99464.5
99441.4
99416.9
99391.2
99364.7
99338.6
99315.1
99298.2
99289.5
99296.7
99333.6
99420.4
99605.4
99939.9
100573
99987.7
99990.7
99991.5
99991.3
99990.7
99989.7
99988.6
99987.3
99986
99984.5
99983
99981.4
99979.8
99978.1
99976.3
99974.4
99972.5
99970.5
99968.5
99966.4
99964.2
99961.9
99959.6
99957.2
99954.7
99952.1
99949.4
99946.7
99943.9
99941
99938.1
99935
99931.8
99928.6
99925.3
99921.9
99918.4
99914.7
99911
99907.2
99903.3
99899.2
99895
99890.7
99886.3
99881.8
99877.1
99872.3
99867.3
99862.1
99856.7
99851.2
99845.5
99839.6
99833.5
99827.1
99820.6
99813.7
99806.7
99799.4
99791.8
99784
99775.8
99767.4
99758.6
99749.5
99740.1
99730.3
99720.1
99709.5
99698.5
99687.1
99675.2
99662.9
99650
99636.6
99622.6
99608.1
99592.8
99576.9
99560.1
99542.5
99524
99504.4
99483.7
99461.8
99438.7
99414.4
99389.2
99364
99340.1
99320.2
99308.9
99309.2
99330.9
99395.8
99532.1
99800.8
100232
100875
99986.4
99990
99991.1
99991.2
99990.7
99989.9
99988.8
99987.6
99986.2
99984.8
99983.3
99981.7
99980
99978.3
99976.5
99974.7
99972.8
99970.8
99968.7
99966.6
99964.4
99962.1
99959.8
99957.3
99954.8
99952.3
99949.6
99946.8
99944
99941.1
99938.1
99935
99931.9
99928.6
99925.3
99921.8
99918.3
99914.7
99910.9
99907.1
99903.1
99899
99894.8
99890.5
99886.1
99881.6
99876.9
99872
99867
99861.8
99856.5
99851
99845.2
99839.3
99833.2
99826.9
99820.4
99813.6
99806.6
99799.3
99791.7
99783.9
99775.8
99767.4
99758.7
99749.6
99740.2
99730.4
99720.2
99709.6
99698.6
99687.2
99675.3
99662.8
99649.9
99636.4
99622.3
99607.6
99592.1
99575.9
99558.9
99541
99522.2
99502.2
99481.2
99459.1
99435.8
99411.6
99387
99362.8
99340.8
99323.9
99317
99325.5
99361.3
99449.9
99628.5
99963.7
100457
101090
99985.6
99989.4
99990.8
99991
99990.6
99989.9
99988.8
99987.6
99986.3
99984.8
99983.3
99981.7
99980
99978.3
99976.5
99974.6
99972.7
99970.7
99968.6
99966.5
99964.3
99962
99959.6
99957.2
99954.7
99952.1
99949.4
99946.6
99943.8
99940.9
99937.8
99934.7
99931.6
99928.3
99924.9
99921.5
99917.9
99914.3
99910.6
99906.7
99902.8
99898.7
99894.5
99890.2
99885.8
99881.2
99876.6
99871.7
99866.7
99861.6
99856.2
99850.7
99845.1
99839.2
99833.1
99826.8
99820.3
99813.6
99806.6
99799.3
99791.8
99784
99775.9
99767.6
99758.9
99749.8
99740.4
99730.6
99720.5
99709.9
99698.9
99687.4
99675.4
99662.9
99649.9
99636.3
99622
99607.1
99591.5
99575
99557.8
99539.6
99520.4
99500.1
99478.8
99456.4
99432.9
99408.8
99384.5
99361.1
99340.5
99325.8
99322
99336.4
99383
99488.5
99697.3
100078
100606
101226
99985.4
99989.2
99990.6
99990.9
99990.5
99989.8
99988.7
99987.5
99986.2
99984.7
99983.2
99981.5
99979.9
99978.1
99976.3
99974.4
99972.4
99970.4
99968.3
99966.1
99963.9
99961.6
99959.2
99956.7
99954.2
99951.6
99949
99946.2
99943.4
99940.4
99937.5
99934.4
99931.2
99928
99924.6
99921.2
99917.7
99914
99910.3
99906.5
99902.6
99898.5
99894.3
99890
99885.6
99881.1
99876.4
99871.6
99866.6
99861.5
99856.2
99850.7
99845
99839.2
99833.1
99826.9
99820.4
99813.7
99806.7
99799.5
99792
99784.2
99776.2
99767.9
99759.2
99750.2
99740.8
99731
99720.9
99710.3
99699.3
99687.8
99675.8
99663.2
99650.1
99636.4
99622
99606.9
99591.1
99574.4
99556.8
99538.4
99518.8
99498.2
99476.6
99453.8
99430.2
99406
99381.8
99358.9
99339.1
99325.7
99323.5
99341
99393.2
99507.7
99731.5
100134
100678
101292
99985.5
99989.2
99990.6
99990.9
99990.6
99989.8
99988.8
99987.6
99986.2
99984.8
99983.2
99981.6
99979.9
99978.1
99976.3
99974.4
99972.5
99970.4
99968.3
99966.2
99963.9
99961.6
99959.3
99956.8
99954.3
99951.7
99949
99946.2
99943.4
99940.5
99937.5
99934.4
99931.2
99928
99924.7
99921.2
99917.7
99914.1
99910.4
99906.5
99902.6
99898.6
99894.4
99890.2
99885.7
99881.2
99876.5
99871.7
99866.7
99861.6
99856.3
99850.8
99845.2
99839.3
99833.3
99827.1
99820.6
99813.9
99807
99799.8
99792.4
99784.7
99776.7
99768.3
99759.7
99750.7
99741.3
99731.6
99721.4
99710.9
99699.8
99688.3
99676.2
99663.6
99650.4
99636.6
99622.1
99606.8
99590.8
99573.9
99556.1
99537.3
99517.5
99496.5
99474.5
99451.4
99427.4
99403
99378.8
99355.9
99336.3
99323.1
99321.2
99338.9
99391.2
99505.4
99728.1
100129
100672
101286
99985.9
99989.6
99990.9
99991.1
99990.7
99989.9
99988.9
99987.6
99986.3
99984.8
99983.3
99981.7
99980
99978.3
99976.5
99974.6
99972.6
99970.6
99968.6
99966.4
99964.2
99961.9
99959.5
99957.1
99954.6
99952
99949.3
99946.6
99943.7
99940.8
99937.8
99934.7
99931.6
99928.3
99925
99921.6
99918
99914.4
99910.7
99906.8
99902.9
99898.9
99894.7
99890.4
99886
99881.4
99876.8
99871.9
99867
99861.9
99856.6
99851.1
99845.5
99839.7
99833.6
99827.4
99821
99814.3
99807.4
99800.3
99792.9
99785.2
99777.2
99768.9
99760.3
99751.3
99742
99732.2
99722.1
99711.5
99700.5
99688.9
99676.8
99664.1
99650.9
99636.9
99622.3
99606.9
99590.6
99573.5
99555.4
99536.3
99516.2
99494.9
99472.5
99449
99424.7
99399.9
99375.3
99352.1
99332
99318
99314.8
99329.8
99377
99481.4
99686.9
100062
100587
101207
99986.8
99990.3
99991.3
99991.3
99990.8
99989.9
99988.8
99987.5
99986.2
99984.7
99983.2
99981.6
99979.9
99978.2
99976.4
99974.5
99972.6
99970.6
99968.6
99966.4
99964.2
99961.9
99959.6
99957.2
99954.7
99952.1
99949.4
99946.7
99943.9
99941
99938
99934.9
99931.8
99928.5
99925.2
99921.8
99918.2
99914.6
99910.9
99907.1
99903.2
99899.1
99895
99890.7
99886.3
99881.8
99877.1
99872.3
99867.3
99862.2
99856.9
99851.5
99845.9
99840.1
99834.1
99827.9
99821.4
99814.8
99807.9
99800.8
99793.4
99785.8
99777.8
99769.5
99760.9
99752
99742.6
99732.9
99722.8
99712.2
99701.1
99689.6
99677.4
99664.7
99651.3
99637.3
99622.5
99607
99590.5
99573.2
99554.9
99535.5
99515.1
99493.5
99470.7
99446.8
99422.1
99396.8
99371.7
99347.8
99326.6
99311
99305.1
99314.9
99352.3
99438.6
99611.9
99939.3
100427
101060
99988.3
99991.1
99991.7
99991.4
99990.7
99989.7
99988.5
99987.3
99985.9
99984.4
99982.9
99981.3
99979.6
99977.9
99976.1
99974.2
99972.3
99970.3
99968.3
99966.1
99963.9
99961.7
99959.3
99956.9
99954.4
99951.9
99949.2
99946.5
99943.7
99940.8
99937.8
99934.8
99931.6
99928.4
99925.1
99921.6
99918.1
99914.5
99910.8
99907
99903.1
99899.1
99895
99890.7
99886.3
99881.8
99877.2
99872.4
99867.5
99862.4
99857.1
99851.7
99846.1
99840.3
99834.4
99828.2
99821.8
99815.2
99808.3
99801.3
99793.9
99786.3
99778.3
99770.1
99761.5
99752.6
99743.3
99733.6
99723.5
99712.9
99701.8
99690.2
99678.1
99665.3
99651.9
99637.8
99622.9
99607.2
99590.6
99573.1
99554.6
99535
99514.2
99492.3
99469.2
99444.9
99419.7
99393.8
99367.9
99343.2
99320.8
99302.6
99293
99295.8
99319.9
99381.8
99511.5
99770.4
100193
100835
99990.1
99992
99992.1
99991.5
99990.5
99989.4
99988.1
99986.8
99985.4
99983.9
99982.4
99980.7
99979.1
99977.3
99975.5
99973.7
99971.7
99969.7
99967.7
99965.6
99963.4
99961.1
99958.7
99956.3
99953.8
99951.3
99948.6
99945.9
99943.1
99940.2
99937.3
99934.2
99931.1
99927.9
99924.6
99921.2
99917.7
99914.1
99910.4
99906.6
99902.7
99898.7
99894.6
99890.4
99886
99881.5
99876.9
99872.1
99867.2
99862.1
99856.9
99851.5
99846
99840.2
99834.3
99828.2
99821.8
99815.3
99808.5
99801.4
99794.1
99786.5
99778.6
99770.4
99761.9
99753
99743.7
99734.1
99724
99713.4
99702.4
99690.8
99678.6
99665.8
99652.4
99638.2
99623.2
99607.5
99590.8
99573.1
99554.4
99534.6
99513.6
99491.4
99468
99443.3
99417.5
99391
99364.2
99338.3
99314.4
99294.4
99280
99274.8
99284
99318.4
99398.4
99572.6
99896
100525
99992.1
99993
99992.5
99991.5
99990.3
99989.1
99987.7
99986.4
99984.9
99983.4
99981.8
99980.2
99978.5
99976.8
99974.9
99973.1
99971.1
99969.1
99967
99964.9
99962.7
99960.4
99958.1
99955.6
99953.1
99950.6
99947.9
99945.2
99942.4
99939.5
99936.5
99933.4
99930.3
99927.1
99923.8
99920.3
99916.8
99913.2
99909.6
99905.8
99901.9
99897.9
99893.8
99889.5
99885.2
99880.7
99876.1
99871.3
99866.4
99861.4
99856.2
99850.8
99845.3
99839.5
99833.7
99827.6
99821.2
99814.7
99807.9
99800.9
99793.7
99786.1
99778.3
99770.1
99761.7
99752.8
99743.6
99734
99723.9
99713.4
99702.4
99690.9
99678.7
99665.9
99652.5
99638.3
99623.3
99607.4
99590.7
99572.9
99554.1
99534.1
99513
99490.6
99466.9
99441.8
99415.6
99388.4
99360.7
99333.4
99307.7
99285.1
99267
99254.6
99249.4
99257.1
99288
99369.6
99554.8
100120
99994.1
99993.9
99992.9
99991.6
99990.3
99988.9
99987.5
99986.1
99984.6
99983.1
99981.5
99979.8
99978.1
99976.4
99974.6
99972.7
99970.7
99968.7
99966.6
99964.4
99962.2
99959.9
99957.5
99955.1
99952.6
99950
99947.3
99944.6
99941.7
99938.8
99935.8
99932.7
99929.6
99926.3
99923
99919.6
99916
99912.4
99908.7
99904.9
99901
99897
99892.8
99888.6
99884.2
99879.7
99875
99870.3
99865.3
99860.3
99855.1
99849.7
99844.1
99838.4
99832.5
99826.4
99820.1
99813.5
99806.8
99799.8
99792.5
99785
99777.1
99769
99760.5
99751.7
99742.5
99732.9
99722.9
99712.4
99701.5
99689.9
99677.8
99665.1
99651.7
99637.5
99622.5
99606.6
99589.9
99572.1
99553.2
99533.2
99511.9
99489.4
99465.5
99440.2
99413.6
99385.8
99357.3
99328.7
99301.2
99276.2
99255.4
99237.8
99220.7
99206.2
99195.2
99190.4
99203.1
99606
99995.9
99994.8
99993.3
99991.8
99990.4
99989
99987.5
99986.1
99984.6
99983
99981.4
99979.8
99978.1
99976.3
99974.5
99972.6
99970.6
99968.6
99966.5
99964.3
99962.1
99959.8
99957.4
99954.9
99952.4
99949.8
99947.1
99944.3
99941.5
99938.5
99935.5
99932.4
99929.2
99926
99922.6
99919.2
99915.6
99912
99908.3
99904.4
99900.5
99896.5
99892.3
99888
99883.6
99879.1
99874.4
99869.6
99864.6
99859.5
99854.3
99848.9
99843.3
99837.5
99831.5
99825.4
99819
99812.4
99805.6
99798.6
99791.3
99783.7
99775.9
99767.7
99759.2
99750.3
99741.1
99731.4
99721.4
99710.9
99699.8
99688.3
99676.1
99663.3
99649.8
99635.6
99620.5
99604.6
99587.8
99569.9
99551
99530.9
99509.6
99486.9
99462.9
99437.5
99410.6
99382.5
99353.3
99323.8
99295
99268.4
99245.3
99225.7
99200.9
99171.5
99131.1
99060.5
98890.8
98954.4
99997.4
99995.6
99993.8
99992.2
99990.7
99989.2
99987.8
99986.3
99984.8
99983.2
99981.6
99980
99978.3
99976.5
99974.7
99972.8
99970.8
99968.8
99966.7
99964.5
99962.3
99960
99957.6
99955.1
99952.6
99950
99947.3
99944.5
99941.6
99938.7
99935.7
99932.6
99929.4
99926.2
99922.8
99919.3
99915.8
99912.2
99908.4
99904.6
99900.6
99896.6
99892.4
99888.1
99883.7
99879.1
99874.5
99869.6
99864.7
99859.6
99854.3
99848.8
99843.2
99837.4
99831.4
99825.2
99818.8
99812.2
99805.4
99798.3
99791
99783.3
99775.4
99767.2
99758.7
99749.8
99740.5
99730.8
99720.7
99710.1
99699
99687.4
99675.2
99662.3
99648.7
99634.3
99619.2
99603.1
99586.1
99568
99548.9
99528.5
99506.9
99483.9
99459.5
99433.7
99406.3
99377.6
99347.6
99317
99286.7
99258.2
99232
99209.1
99187.6
99153.9
99097.6
98988.7
98675.3
98081.2
99998.8
99996.2
99994.2
99992.6
99991
99989.6
99988.1
99986.7
99985.2
99983.6
99982
99980.4
99978.7
99976.9
99975.1
99973.2
99971.2
99969.2
99967.1
99964.9
99962.7
99960.4
99958
99955.6
99953
99950.4
99947.7
99945
99942.1
99939.2
99936.2
99933.1
99929.9
99926.7
99923.3
99919.9
99916.3
99912.7
99908.9
99905.1
99901.2
99897.1
99892.9
99888.7
99884.2
99879.7
99875
99870.2
99865.2
99860.1
99854.9
99849.4
99843.8
99838
99832
99825.8
99819.5
99812.9
99806
99798.9
99791.6
99784
99776
99767.8
99759.3
99750.4
99741.1
99731.4
99721.3
99710.8
99699.7
99688
99675.8
99662.9
99649.3
99634.9
99619.7
99603.6
99586.6
99568.5
99549.2
99528.8
99507.1
99484.1
99459.6
99433.7
99406.2
99377.2
99347.1
99316.4
99286.2
99257.8
99231.4
99206.8
99175
99135.2
99075.8
98956.2
98575.3
96911
100581
101848
102388
102696
102906
103064
103188
103288
103369
103436
103491
103536
103573
103602
103625
103642
103653
103659
103660
103657
100534
101555
102185
102582
102848
103038
103182
103294
103384
103456
103514
103560
103597
103626
103648
103663
103672
103676
103675
103667
100820
101586
102128
102523
102808
103017
103175
103297
103393
103469
103529
103577
103614
103642
103663
103677
103685
103687
103685
103673
101095
101718
102177
102536
102811
103022
103185
103312
103411
103489
103550
103598
103634
103661
103679
103691
103697
103698
103695
103677
101330
101859
102261
102585
102843
103047
103208
103335
103435
103513
103574
103620
103655
103679
103696
103705
103709
103708
103702
103680
101528
101990
102350
102647
102889
103084
103240
103364
103463
103539
103599
103643
103676
103698
103711
103718
103720
103717
103708
103682
101689
102102
102433
102710
102938
103124
103274
103395
103491
103566
103623
103666
103696
103716
103726
103730
103729
103725
103713
103684
101810
102190
102502
102763
102981
103160
103306
103424
103518
103592
103648
103688
103716
103732
103740
103741
103738
103731
103716
103685
101891
102251
102550
102803
103015
103190
103334
103450
103543
103615
103669
103708
103733
103747
103752
103751
103745
103736
103718
103689
101934
102284
102578
102827
103036
103210
103353
103468
103560
103631
103684
103722
103745
103757
103760
103758
103751
103741
103719
103695
101928
102279
102573
102822
103031
103205
103348
103464
103557
103628
103682
103719
103743
103756
103759
103756
103749
103738
103719
103695
101875
102236
102536
102790
103003
103179
103324
103441
103535
103608
103663
103703
103729
103744
103749
103748
103743
103734
103718
103693
101786
102169
102481
102745
102965
103146
103293
103413
103509
103584
103641
103682
103711
103728
103737
103739
103736
103729
103715
103692
101657
102074
102407
102686
102917
103105
103259
103382
103480
103557
103616
103660
103691
103711
103723
103728
103727
103722
103711
103690
101490
101955
102319
102619
102864
103063
103222
103349
103450
103529
103590
103636
103670
103693
103708
103715
103717
103715
103707
103685
101286
101819
102225
102553
102816
103024
103188
103318
103421
103502
103564
103613
103649
103675
103692
103702
103706
103706
103701
103682
101046
101674
102138
102502
102782
102998
103164
103294
103397
103477
103541
103590
103628
103656
103676
103688
103695
103696
103693
103679
100766
101537
102086
102487
102778
102992
103154
103279
103378
103457
103519
103569
103608
103638
103659
103674
103683
103686
103684
103674
100473
101503
102143
102547
102819
103014
103161
103277
103369
103444
103504
103552
103591
103621
103644
103660
103670
103675
103674
103668
100517
101800
102349
102663
102878
103040
103167
103270
103354
103424
103481
103528
103566
103597
103621
103639
103651
103658
103659
103656
103496
103494
103493
103492
103492
103491
103490
103490
103490
103490
103490
103490
103490
103490
103491
103492
103492
103493
103494
103496
103493
103491
103490
103490
103490
103489
103489
103489
103489
103489
103489
103489
103489
103489
103489
103490
103490
103490
103491
103493
103492
103490
103490
103490
103490
103490
103490
103490
103490
103490
103490
103490
103490
103490
103490
103490
103490
103490
103490
103492
103492
103491
103490
103490
103490
103490
103490
103490
103490
103490
103490
103490
103490
103490
103490
103490
103490
103490
103491
103492
103492
103490
103490
103490
103490
103490
103490
103490
103490
103490
103490
103490
103490
103490
103490
103490
103490
103490
103490
103492
103491
103489
103489
103489
103489
103489
103489
103489
103489
103489
103489
103489
103489
103489
103489
103489
103489
103489
103489
103491
103491
103489
103489
103489
103488
103488
103488
103488
103488
103488
103488
103488
103488
103488
103488
103488
103489
103489
103489
103491
103490
103488
103488
103488
103488
103488
103488
103488
103488
103488
103488
103488
103488
103488
103488
103488
103488
103488
103488
103490
103489
103488
103487
103487
103487
103487
103487
103487
103487
103487
103487
103487
103487
103487
103487
103487
103487
103487
103488
103489
103489
103487
103487
103487
103487
103487
103486
103486
103486
103486
103486
103486
103486
103486
103487
103487
103487
103487
103487
103489
103488
103486
103486
103486
103486
103486
103486
103486
103486
103486
103486
103486
103486
103486
103486
103486
103486
103486
103486
103488
103487
103486
103485
103485
103485
103485
103485
103485
103485
103485
103485
103485
103485
103485
103485
103485
103485
103485
103486
103487
103486
103485
103485
103485
103484
103484
103484
103484
103484
103484
103484
103484
103484
103484
103484
103484
103485
103485
103485
103486
103486
103484
103484
103484
103484
103484
103484
103484
103484
103484
103484
103484
103484
103484
103484
103484
103484
103484
103484
103486
103485
103483
103483
103483
103483
103483
103483
103483
103483
103483
103483
103483
103483
103483
103483
103483
103483
103483
103483
103485
103484
103483
103482
103482
103482
103482
103482
103482
103482
103482
103482
103482
103482
103482
103482
103482
103482
103482
103483
103484
103483
103482
103482
103482
103481
103481
103481
103481
103481
103481
103481
103481
103481
103481
103481
103481
103482
103482
103482
103483
103482
103481
103481
103481
103481
103481
103481
103481
103481
103481
103481
103481
103481
103481
103481
103481
103481
103481
103481
103482
103482
103480
103480
103480
103480
103480
103480
103480
103480
103480
103480
103480
103480
103480
103480
103480
103480
103480
103480
103482
103481
103479
103479
103479
103479
103479
103479
103479
103479
103479
103479
103479
103479
103479
103479
103479
103479
103479
103479
103481
103480
103479
103478
103478
103478
103478
103478
103478
103478
103478
103478
103478
103478
103478
103478
103478
103478
103478
103479
103480
103479
103478
103478
103478
103478
103477
103477
103477
103477
103477
103477
103477
103477
103477
103478
103478
103478
103478
103478
103479
103478
103477
103477
103477
103477
103477
103477
103477
103477
103477
103477
103477
103477
103477
103477
103477
103477
103477
103477
103478
103477
103476
103476
103476
103476
103476
103476
103476
103476
103476
103476
103476
103476
103476
103476
103476
103476
103476
103476
103477
103477
103475
103475
103475
103475
103475
103475
103475
103475
103475
103475
103475
103475
103475
103475
103475
103475
103475
103475
103477
103476
103475
103474
103474
103474
103474
103474
103474
103474
103474
103474
103474
103474
103474
103474
103474
103474
103474
103475
103476
103475
103474
103474
103474
103474
103473
103473
103473
103473
103473
103473
103473
103473
103473
103473
103474
103474
103474
103474
103475
103474
103473
103473
103473
103473
103473
103473
103473
103473
103473
103473
103473
103473
103473
103473
103473
103473
103473
103473
103474
103473
103472
103472
103472
103472
103472
103472
103472
103472
103472
103472
103472
103472
103472
103472
103472
103472
103472
103472
103473
103472
103471
103471
103471
103471
103471
103471
103471
103471
103471
103471
103471
103471
103471
103471
103471
103471
103471
103471
103472
103471
103471
103470
103470
103470
103470
103470
103470
103470
103470
103470
103470
103470
103470
103470
103470
103470
103470
103471
103471
103471
103470
103470
103470
103470
103469
103469
103469
103469
103469
103469
103469
103469
103469
103469
103470
103470
103470
103470
103471
103470
103469
103469
103469
103469
103469
103469
103469
103469
103469
103469
103469
103469
103469
103469
103469
103469
103469
103469
103470
103469
103468
103468
103468
103468
103468
103468
103468
103468
103468
103468
103468
103468
103468
103468
103468
103468
103468
103468
103469
103468
103467
103467
103467
103467
103467
103467
103467
103467
103467
103467
103467
103467
103467
103467
103467
103467
103467
103467
103468
103467
103467
103466
103466
103466
103466
103466
103466
103466
103466
103466
103466
103466
103466
103466
103466
103466
103466
103467
103467
103466
103466
103466
103466
103466
103466
103466
103465
103465
103465
103465
103465
103465
103466
103466
103466
103466
103466
103466
103466
103466
103465
103465
103465
103465
103465
103465
103465
103465
103465
103465
103465
103465
103465
103465
103465
103465
103465
103465
103466
103465
103464
103464
103464
103464
103464
103464
103464
103464
103464
103464
103464
103464
103464
103464
103464
103464
103464
103464
103465
103464
103464
103463
103463
103463
103463
103463
103463
103463
103463
103463
103463
103463
103463
103463
103463
103463
103463
103464
103464
103463
103463
103463
103463
103463
103462
103462
103462
103462
103462
103462
103462
103462
103462
103462
103463
103463
103463
103463
103463
103462
103462
103462
103462
103462
103462
103462
103462
103462
103462
103462
103462
103462
103462
103462
103462
103462
103462
103462
103462
103462
103461
103461
103461
103461
103461
103461
103461
103461
103461
103461
103461
103461
103461
103461
103461
103461
103461
103461
103462
103461
103460
103460
103460
103460
103460
103460
103460
103460
103460
103460
103460
103460
103460
103460
103460
103460
103460
103460
103461
103460
103460
103460
103460
103460
103459
103459
103459
103459
103459
103459
103459
103459
103459
103459
103460
103460
103460
103460
103460
103459
103459
103459
103459
103459
103459
103459
103459
103459
103459
103459
103459
103459
103459
103459
103459
103459
103459
103459
103459
103459
103458
103458
103458
103458
103458
103458
103458
103458
103458
103458
103458
103458
103458
103458
103458
103458
103458
103458
103459
103458
103458
103457
103457
103457
103457
103457
103457
103457
103457
103457
103457
103457
103457
103457
103457
103457
103457
103458
103458
103457
103457
103457
103457
103457
103457
103457
103457
103456
103456
103456
103456
103457
103457
103457
103457
103457
103457
103457
103457
103456
103456
103456
103456
103456
103456
103456
103456
103456
103456
103456
103456
103456
103456
103456
103456
103456
103456
103456
103456
103456
103455
103455
103455
103455
103455
103455
103455
103455
103455
103455
103455
103455
103455
103455
103455
103455
103455
103455
103456
103455
103455
103455
103454
103454
103454
103454
103454
103454
103454
103454
103454
103454
103454
103454
103454
103454
103455
103455
103455
103454
103454
103454
103454
103454
103454
103454
103454
103454
103454
103454
103454
103454
103454
103454
103454
103454
103454
103454
103454
103453
103453
103453
103453
103453
103453
103453
103453
103453
103453
103453
103453
103453
103453
103453
103453
103453
103453
103453
103453
103453
103453
103452
103452
103452
103452
103452
103452
103452
103452
103452
103452
103452
103452
103452
103452
103452
103452
103453
103453
103452
103452
103452
103452
103452
103452
103452
103452
103452
103452
103452
103452
103452
103452
103452
103452
103452
103452
103452
103452
103451
103451
103451
103451
103451
103451
103451
103451
103451
103451
103451
103451
103451
103451
103451
103451
103451
103451
103451
103451
103451
103450
103450
103450
103450
103450
103450
103450
103450
103450
103450
103450
103450
103450
103450
103450
103450
103450
103450
103451
103450
103450
103450
103450
103450
103450
103450
103450
103450
103450
103450
103450
103450
103450
103450
103450
103450
103450
103450
103450
103449
103449
103449
103449
103449
103449
103449
103449
103449
103449
103449
103449
103449
103449
103449
103449
103449
103449
103449
103449
103448
103448
103448
103448
103448
103448
103448
103448
103448
103448
103448
103448
103448
103448
103448
103448
103448
103448
103448
103449
103448
103448
103448
103448
103448
103448
103448
103448
103448
103448
103448
103448
103448
103448
103448
103448
103448
103448
103448
103448
103447
103447
103447
103447
103447
103447
103447
103447
103447
103447
103447
103447
103447
103447
103447
103447
103447
103447
103447
103447
103446
103446
103446
103446
103446
103446
103446
103446
103446
103446
103446
103446
103446
103446
103446
103446
103446
103446
103446
103447
103446
103446
103446
103446
103446
103446
103446
103446
103446
103446
103446
103446
103446
103446
103446
103446
103446
103446
103446
103446
103445
103445
103445
103445
103445
103445
103445
103445
103445
103445
103445
103445
103445
103445
103445
103445
103445
103445
103445
103445
103444
103444
103444
103444
103444
103444
103444
103444
103444
103444
103444
103444
103444
103444
103444
103444
103444
103444
103445
103445
103444
103444
103444
103444
103444
103444
103444
103444
103444
103444
103444
103444
103444
103444
103444
103444
103444
103444
103444
103444
103443
103443
103443
103443
103443
103443
103443
103443
103443
103443
103443
103443
103443
103443
103443
103443
103443
103443
103443
103443
103442
103442
103442
103442
103442
103442
103442
103442
103442
103442
103442
103442
103442
103442
103442
103443
103443
103443
103443
103443
103442
103442
103442
103442
103442
103442
103442
103442
103442
103442
103442
103442
103442
103442
103442
103442
103442
103442
103442
103442
103441
103441
103441
103441
103441
103441
103441
103441
103441
103441
103441
103441
103441
103441
103441
103441
103441
103441
103441
103441
103440
103440
103440
103440
103440
103440
103440
103440
103440
103440
103440
103441
103441
103441
103441
103441
103441
103441
103441
103441
103440
103440
103440
103440
103440
103440
103440
103440
103440
103440
103440
103440
103440
103440
103440
103440
103440
103440
103440
103440
103439
103439
103439
103439
103439
103439
103439
103439
103439
103439
103439
103439
103439
103440
103440
103440
103440
103440
103440
103440
103438
103438
103438
103438
103438
103438
103438
103438
103438
103439
103439
103439
103439
103439
103439
103439
103439
103439
103439
103439
103437
103437
103437
103437
103437
103437
103438
103438
103438
103438
103438
103438
103438
103438