/*--------------------------------*- C++ -*----------------------------------*\
| =========                 |                                                 |
| \\      /  F ield         | OpenFOAM: The Open Source CFD Toolbox           |
|  \\    /   O peration     | Version:  2.1.0                                 |
|   \\  /    A nd           | Web:      www.OpenFOAM.org                      |
|    \\/     M anipulation  |                                                 |
\*---------------------------------------------------------------------------*/
FoamFile
{
    version     2.0;
    format      ascii;
    class       surfaceScalarField;
    location    "0.24";
    object      phi;
}
// * * * * * * * * * * * * * * * * * * * * * * * * * * * * * * * * * * * * * //

dimensions      [0 3 -1 0 0 0 0];

internalField   nonuniform List<scalar> 
12460
(
-2.45734e-05
-3.26704e-09
-2.45358e-05
-3.75812e-08
-2.44762e-05
-5.96507e-08
-2.44055e-05
-7.07379e-08
-2.43284e-05
-7.717e-08
-2.4247e-05
-8.14055e-08
-2.41626e-05
-8.44352e-08
-2.40759e-05
-8.67976e-08
-2.39872e-05
-8.88012e-08
-2.38966e-05
-9.06114e-08
-2.38044e-05
-9.2332e-08
-2.37104e-05
-9.4008e-08
-2.36149e-05
-9.56778e-08
-2.35176e-05
-9.73469e-08
-2.34187e-05
-9.90344e-08
-2.33181e-05
-1.00733e-07
-2.32158e-05
-1.02456e-07
-2.31118e-05
-1.04194e-07
-2.30061e-05
-1.05965e-07
-2.28986e-05
-1.07727e-07
-2.27893e-05
-1.09509e-07
-2.26782e-05
-1.1137e-07
-2.25652e-05
-1.13323e-07
-2.24502e-05
-1.15325e-07
-2.23332e-05
-1.17384e-07
-2.22141e-05
-1.19505e-07
-2.20928e-05
-1.21702e-07
-2.19693e-05
-1.23971e-07
-2.18435e-05
-1.26322e-07
-2.17154e-05
-1.28754e-07
-2.15847e-05
-1.31276e-07
-2.14515e-05
-1.33891e-07
-2.13157e-05
-1.36605e-07
-2.11771e-05
-1.39426e-07
-2.10356e-05
-1.42367e-07
-2.08912e-05
-1.45433e-07
-2.07436e-05
-1.48644e-07
-2.05928e-05
-1.52003e-07
-2.04385e-05
-1.55522e-07
-2.02806e-05
-1.59219e-07
-2.0119e-05
-1.63106e-07
-1.99533e-05
-1.67189e-07
-1.97835e-05
-1.71488e-07
-1.96093e-05
-1.7602e-07
-1.94304e-05
-1.80785e-07
-1.92466e-05
-1.85769e-07
-1.90579e-05
-1.90885e-07
-1.88642e-05
-1.9604e-07
-1.86651e-05
-2.01534e-07
-1.84602e-05
-2.07463e-07
-1.82494e-05
-2.13458e-07
-1.8033e-05
-2.19227e-07
-1.78113e-05
-2.2469e-07
-1.75845e-05
-2.30013e-07
-1.73525e-05
-2.3533e-07
-1.71153e-05
-2.40688e-07
-1.68729e-05
-2.46115e-07
-1.66251e-05
-2.51617e-07
-1.6372e-05
-2.57193e-07
-1.61133e-05
-2.62841e-07
-1.58492e-05
-2.68548e-07
-1.55794e-05
-2.74313e-07
-1.5304e-05
-2.80158e-07
-1.50228e-05
-2.86121e-07
-1.47358e-05
-2.9219e-07
-1.44427e-05
-2.98402e-07
-1.41434e-05
-3.04815e-07
-1.38377e-05
-3.1144e-07
-1.35252e-05
-3.18338e-07
-1.32057e-05
-3.25581e-07
-1.28787e-05
-3.33262e-07
-1.25437e-05
-3.41465e-07
-1.22001e-05
-3.50301e-07
-1.1847e-05
-3.59922e-07
-1.14836e-05
-3.705e-07
-1.11086e-05
-3.82236e-07
-1.07208e-05
-3.95357e-07
-1.03183e-05
-4.10139e-07
-9.89935e-06
-4.2693e-07
-9.46141e-06
-4.46108e-07
-9.00171e-06
-4.68093e-07
-8.51695e-06
-4.93373e-07
-8.0032e-06
-5.22548e-07
-7.45589e-06
-5.56298e-07
-6.86972e-06
-5.9528e-07
-6.23906e-06
-6.39836e-07
-5.55861e-06
-6.89632e-07
-4.82441e-06
-7.43261e-07
-4.03612e-06
-7.97117e-07
-3.20136e-06
-8.43154e-07
-2.34426e-06
-8.64826e-07
-1.52286e-06
-8.28116e-07
-8.44944e-07
-6.83173e-07
-4.30417e-07
-4.17767e-07
-3.10871e-07
-1.20741e-07
-5.53573e-07
2.4213e-07
-1.44657e-06
8.855e-07
-3.73349e-06
2.26965e-06
-9.26368e-06
5.51376e-06
1.53701e-05
-2.46452e-05
-2.96875e-05
-2.04344e-08
-2.9638e-05
-8.70886e-08
-2.95747e-05
-1.23054e-07
-2.95031e-05
-1.42482e-07
-2.94262e-05
-1.54205e-07
-2.93458e-05
-1.61996e-07
-2.92628e-05
-1.67584e-07
-2.91778e-05
-1.7195e-07
-2.90912e-05
-1.75658e-07
-2.9003e-05
-1.7901e-07
-2.89134e-05
-1.82203e-07
-2.88224e-05
-1.85319e-07
-2.87299e-05
-1.88434e-07
-2.86361e-05
-1.91556e-07
-2.85408e-05
-1.94723e-07
-2.8444e-05
-1.97916e-07
-2.83458e-05
-2.01163e-07
-2.82461e-05
-2.04429e-07
-2.8145e-05
-2.07759e-07
-2.80423e-05
-2.11048e-07
-2.79382e-05
-2.14314e-07
-2.78327e-05
-2.17686e-07
-2.77258e-05
-2.21191e-07
-2.76173e-05
-2.24748e-07
-2.75074e-05
-2.28372e-07
-2.7396e-05
-2.32087e-07
-2.72831e-05
-2.35914e-07
-2.71687e-05
-2.39847e-07
-2.70527e-05
-2.43899e-07
-2.6935e-05
-2.48071e-07
-2.68158e-05
-2.52379e-07
-2.66949e-05
-2.56829e-07
-2.65722e-05
-2.61438e-07
-2.64478e-05
-2.66214e-07
-2.63216e-05
-2.7117e-07
-2.61935e-05
-2.76315e-07
-2.60634e-05
-2.81677e-07
-2.59314e-05
-2.87254e-07
-2.57974e-05
-2.93063e-07
-2.56612e-05
-2.99133e-07
-2.55229e-05
-3.05491e-07
-2.53822e-05
-3.1217e-07
-2.52391e-05
-3.19225e-07
-2.50933e-05
-3.26709e-07
-2.49448e-05
-3.34634e-07
-2.47932e-05
-3.42981e-07
-2.46384e-05
-3.5165e-07
-2.44803e-05
-3.60402e-07
-2.43194e-05
-3.69175e-07
-2.41561e-05
-3.77957e-07
-2.39904e-05
-3.86697e-07
-2.38223e-05
-3.95364e-07
-2.36516e-05
-4.03842e-07
-2.34783e-05
-4.12187e-07
-2.33026e-05
-4.20498e-07
-2.31244e-05
-4.2881e-07
-2.29438e-05
-4.37144e-07
-2.27609e-05
-4.45503e-07
-2.25757e-05
-4.53879e-07
-2.23883e-05
-4.62278e-07
-2.21988e-05
-4.70703e-07
-2.20073e-05
-4.79146e-07
-2.18137e-05
-4.87604e-07
-2.16182e-05
-4.96114e-07
-2.14208e-05
-5.047e-07
-2.12216e-05
-5.13428e-07
-2.10205e-05
-5.22381e-07
-2.08174e-05
-5.31636e-07
-2.06123e-05
-5.41322e-07
-2.04048e-05
-5.51584e-07
-2.01948e-05
-5.62605e-07
-1.99817e-05
-5.74574e-07
-1.9765e-05
-5.87732e-07
-1.95441e-05
-6.0237e-07
-1.9318e-05
-6.18819e-07
-1.90858e-05
-6.37459e-07
-1.88462e-05
-6.58712e-07
-1.85978e-05
-6.83071e-07
-1.83389e-05
-7.11137e-07
-1.80674e-05
-7.43545e-07
-1.77812e-05
-7.80948e-07
-1.74778e-05
-8.24075e-07
-1.71545e-05
-8.73773e-07
-1.68083e-05
-9.30897e-07
-1.64365e-05
-9.96152e-07
-1.6036e-05
-1.06985e-06
-1.56044e-05
-1.15122e-06
-1.51405e-05
-1.23752e-06
-1.46456e-05
-1.32264e-06
-1.41257e-05
-1.39419e-06
-1.3593e-05
-1.42882e-06
-1.30674e-05
-1.38532e-06
-1.25785e-05
-1.20352e-06
-1.22088e-05
-8.17942e-07
-1.21748e-05
-1.83429e-07
-1.266e-05
7.0159e-07
-1.39887e-05
2.18968e-06
-1.66718e-05
4.92878e-06
-2.17382e-05
1.05625e-05
2.6341e-05
-3.27214e-05
-3.25889e-05
-4.45848e-08
-3.25463e-05
-1.29805e-07
-3.24928e-05
-1.76773e-07
-3.24325e-05
-2.0303e-07
-3.23679e-05
-2.1904e-07
-3.23005e-05
-2.29669e-07
-3.22312e-05
-2.37211e-07
-3.21605e-05
-2.43083e-07
-3.20885e-05
-2.48004e-07
-3.20155e-05
-2.5245e-07
-3.19416e-05
-2.56648e-07
-3.18667e-05
-2.6076e-07
-3.17909e-05
-2.6486e-07
-3.17142e-05
-2.68996e-07
-3.16365e-05
-2.73201e-07
-3.15578e-05
-2.77479e-07
-3.1478e-05
-2.81858e-07
-3.13972e-05
-2.86322e-07
-3.13152e-05
-2.90909e-07
-3.1232e-05
-2.95545e-07
-3.11476e-05
-3.00144e-07
-3.10621e-05
-3.04699e-07
-3.09758e-05
-3.09237e-07
-3.08887e-05
-3.13763e-07
-3.08008e-05
-3.18324e-07
-3.07121e-05
-3.22975e-07
-3.06228e-05
-3.27739e-07
-3.05327e-05
-3.32608e-07
-3.0442e-05
-3.3759e-07
-3.03505e-05
-3.42686e-07
-3.02585e-05
-3.47907e-07
-3.01658e-05
-3.53261e-07
-3.00726e-05
-3.58761e-07
-2.99788e-05
-3.64416e-07
-2.98845e-05
-3.70235e-07
-2.97898e-05
-3.76217e-07
-2.96946e-05
-3.82396e-07
-2.95991e-05
-3.88759e-07
-2.95033e-05
-3.95314e-07
-2.94073e-05
-4.02087e-07
-2.93111e-05
-4.09094e-07
-2.92149e-05
-4.16376e-07
-2.91186e-05
-4.24002e-07
-2.90224e-05
-4.32044e-07
-2.89263e-05
-4.40513e-07
-2.88303e-05
-4.49314e-07
-2.87347e-05
-4.5834e-07
-2.86394e-05
-4.67495e-07
-2.85445e-05
-4.76599e-07
-2.84502e-05
-4.85468e-07
-2.83568e-05
-4.94194e-07
-2.82641e-05
-5.02939e-07
-2.81721e-05
-5.11631e-07
-2.80807e-05
-5.20194e-07
-2.79901e-05
-5.28645e-07
-2.79003e-05
-5.36971e-07
-2.78117e-05
-5.45165e-07
-2.77244e-05
-5.53212e-07
-2.76385e-05
-5.61088e-07
-2.75544e-05
-5.68784e-07
-2.74722e-05
-5.76297e-07
-2.73922e-05
-5.83617e-07
-2.73146e-05
-5.90717e-07
-2.72398e-05
-5.97586e-07
-2.71679e-05
-6.04252e-07
-2.70994e-05
-6.1078e-07
-2.70344e-05
-6.17241e-07
-2.69733e-05
-6.2373e-07
-2.69163e-05
-6.30393e-07
-2.68637e-05
-6.37384e-07
-2.68157e-05
-6.44904e-07
-2.67724e-05
-6.5317e-07
-2.6734e-05
-6.62484e-07
-2.67005e-05
-6.73203e-07
-2.66718e-05
-6.85751e-07
-2.66477e-05
-7.00633e-07
-2.66278e-05
-7.18416e-07
-2.66116e-05
-7.39774e-07
-2.65982e-05
-7.65547e-07
-2.65865e-05
-7.96632e-07
-2.65752e-05
-8.33915e-07
-2.65626e-05
-8.78338e-07
-2.65471e-05
-9.30914e-07
-2.65267e-05
-9.92579e-07
-2.64999e-05
-1.06392e-06
-2.64651e-05
-1.14492e-06
-2.64216e-05
-1.23425e-06
-2.63696e-05
-1.32812e-06
-2.63113e-05
-1.41858e-06
-2.62512e-05
-1.49065e-06
-2.61968e-05
-1.51798e-06
-2.61573e-05
-1.45759e-06
-2.61447e-05
-1.24614e-06
-2.61932e-05
-7.95854e-07
-2.63677e-05
-3.10398e-08
-2.68471e-05
1.16198e-06
-2.78264e-05
3.15149e-06
-2.97056e-05
6.79145e-06
-3.32035e-05
1.40464e-05
3.09081e-05
-3.77851e-05
-3.52399e-05
-6.82546e-08
-3.52096e-05
-1.60473e-07
-3.51728e-05
-2.139e-07
-3.51312e-05
-2.44988e-07
-3.50866e-05
-2.64134e-07
-3.50401e-05
-2.76702e-07
-3.49924e-05
-2.85453e-07
-3.4944e-05
-2.92125e-07
-3.48951e-05
-2.9758e-07
-3.4846e-05
-3.02423e-07
-3.47966e-05
-3.06915e-07
-3.4747e-05
-3.11276e-07
-3.46974e-05
-3.15577e-07
-3.46478e-05
-3.19897e-07
-3.4598e-05
-3.24261e-07
-3.45484e-05
-3.28682e-07
-3.44987e-05
-3.33189e-07
-3.44491e-05
-3.37773e-07
-3.43996e-05
-3.42396e-07
-3.43504e-05
-3.47061e-07
-3.43012e-05
-3.51764e-07
-3.42522e-05
-3.56425e-07
-3.42034e-05
-3.60998e-07
-3.4155e-05
-3.65499e-07
-3.41069e-05
-3.69965e-07
-3.40593e-05
-3.74482e-07
-3.40123e-05
-3.79079e-07
-3.39659e-05
-3.83733e-07
-3.39201e-05
-3.88445e-07
-3.38751e-05
-3.93211e-07
-3.3831e-05
-3.98034e-07
-3.37879e-05
-4.02915e-07
-3.37459e-05
-4.07857e-07
-3.37051e-05
-4.12863e-07
-3.36657e-05
-4.17936e-07
-3.36278e-05
-4.23067e-07
-3.35915e-05
-4.28268e-07
-3.35571e-05
-4.33537e-07
-3.35247e-05
-4.38869e-07
-3.34945e-05
-4.44259e-07
-3.34667e-05
-4.4971e-07
-3.34416e-05
-4.55248e-07
-3.34193e-05
-4.60938e-07
-3.34002e-05
-4.66866e-07
-3.33844e-05
-4.73028e-07
-3.33723e-05
-4.7927e-07
-3.33641e-05
-4.85471e-07
-3.33601e-05
-4.91716e-07
-3.33599e-05
-4.98131e-07
-3.33634e-05
-5.04559e-07
-3.33706e-05
-5.10875e-07
-3.33816e-05
-5.17097e-07
-3.33966e-05
-5.23149e-07
-3.34157e-05
-5.28965e-07
-3.34391e-05
-5.34523e-07
-3.34669e-05
-5.39784e-07
-3.34993e-05
-5.44724e-07
-3.35366e-05
-5.49316e-07
-3.35789e-05
-5.53521e-07
-3.36265e-05
-5.57311e-07
-3.36795e-05
-5.60668e-07
-3.37383e-05
-5.63591e-07
-3.3803e-05
-5.66055e-07
-3.38737e-05
-5.68017e-07
-3.39509e-05
-5.69476e-07
-3.40345e-05
-5.70504e-07
-3.4125e-05
-5.7119e-07
-3.42223e-05
-5.71632e-07
-3.43267e-05
-5.71994e-07
-3.44383e-05
-5.7247e-07
-3.45569e-05
-5.73315e-07
-3.46827e-05
-5.74836e-07
-3.48153e-05
-5.77427e-07
-3.49544e-05
-5.81564e-07
-3.50996e-05
-5.87835e-07
-3.52502e-05
-5.96935e-07
-3.54052e-05
-6.09612e-07
-3.55636e-05
-6.26705e-07
-3.57242e-05
-6.49271e-07
-3.58856e-05
-6.78407e-07
-3.60461e-05
-7.15128e-07
-3.62043e-05
-7.60447e-07
-3.63586e-05
-8.15393e-07
-3.65074e-05
-8.80833e-07
-3.66494e-05
-9.57154e-07
-3.6784e-05
-1.04389e-06
-3.6911e-05
-1.13908e-06
-3.7031e-05
-1.23805e-06
-3.7146e-05
-1.33181e-06
-3.72588e-05
-1.40437e-06
-3.73723e-05
-1.4291e-06
-3.74879e-05
-1.36477e-06
-3.76046e-05
-1.15038e-06
-3.7724e-05
-6.95319e-07
-3.78542e-05
8.23658e-08
-3.81138e-05
1.40629e-06
-3.86318e-05
3.65489e-06
-3.95824e-05
7.72823e-06
-4.11516e-05
1.56023e-05
3.09299e-05
-4.11915e-05
-3.79632e-05
-8.46842e-08
-3.79504e-05
-1.73737e-07
-3.79373e-05
-2.27604e-07
-3.79228e-05
-2.60093e-07
-3.79074e-05
-2.80288e-07
-3.78917e-05
-2.93264e-07
-3.7876e-05
-3.02071e-07
-3.78607e-05
-3.08483e-07
-3.7846e-05
-3.13527e-07
-3.78319e-05
-3.17798e-07
-3.78186e-05
-3.21641e-07
-3.78063e-05
-3.25247e-07
-3.7795e-05
-3.28731e-07
-3.77847e-05
-3.32143e-07
-3.77757e-05
-3.35526e-07
-3.7768e-05
-3.38872e-07
-3.77618e-05
-3.42202e-07
-3.77571e-05
-3.45494e-07
-3.77541e-05
-3.48703e-07
-3.77531e-05
-3.51819e-07
-3.77539e-05
-3.5497e-07
-3.77567e-05
-3.58183e-07
-3.77612e-05
-3.61396e-07
-3.77676e-05
-3.64509e-07
-3.7776e-05
-3.67489e-07
-3.77865e-05
-3.70448e-07
-3.77992e-05
-3.73434e-07
-3.78142e-05
-3.76394e-07
-3.78317e-05
-3.79321e-07
-3.78518e-05
-3.82207e-07
-3.78746e-05
-3.85058e-07
-3.79004e-05
-3.87874e-07
-3.79291e-05
-3.90652e-07
-3.79611e-05
-3.93386e-07
-3.79964e-05
-3.9608e-07
-3.80353e-05
-3.98729e-07
-3.80778e-05
-4.01322e-07
-3.81243e-05
-4.03865e-07
-3.81747e-05
-4.06365e-07
-3.82294e-05
-4.08795e-07
-3.82884e-05
-4.11172e-07
-3.8352e-05
-4.13527e-07
-3.84203e-05
-4.15948e-07
-3.84933e-05
-4.18578e-07
-3.8571e-05
-4.21437e-07
-3.86537e-05
-4.24351e-07
-3.87412e-05
-4.27243e-07
-3.88335e-05
-4.30176e-07
-3.89309e-05
-4.33209e-07
-3.90332e-05
-4.36248e-07
-3.91404e-05
-4.39205e-07
-3.92526e-05
-4.42038e-07
-3.93697e-05
-4.44684e-07
-3.94917e-05
-4.47088e-07
-3.96186e-05
-4.4921e-07
-3.97503e-05
-4.51024e-07
-3.98868e-05
-4.52509e-07
-4.0028e-05
-4.53631e-07
-4.01738e-05
-4.54354e-07
-4.03241e-05
-4.54641e-07
-4.04788e-05
-4.54486e-07
-4.06378e-05
-4.53903e-07
-4.08009e-05
-4.52838e-07
-4.09681e-05
-4.51207e-07
-4.11392e-05
-4.49024e-07
-4.13141e-05
-4.46361e-07
-4.14927e-05
-4.4332e-07
-4.16748e-05
-4.40029e-07
-4.18603e-05
-4.3669e-07
-4.20488e-05
-4.33565e-07
-4.224e-05
-4.30952e-07
-4.24336e-05
-4.29222e-07
-4.26292e-05
-4.28848e-07
-4.28261e-05
-4.30372e-07
-4.3024e-05
-4.34443e-07
-4.32221e-05
-4.41833e-07
-4.342e-05
-4.53337e-07
-4.36169e-05
-4.69751e-07
-4.38124e-05
-4.92192e-07
-4.40058e-05
-5.21828e-07
-4.41965e-05
-5.59637e-07
-4.43839e-05
-6.06575e-07
-4.45677e-05
-6.63577e-07
-4.47475e-05
-7.3144e-07
-4.49232e-05
-8.10376e-07
-4.50948e-05
-8.99662e-07
-4.52628e-05
-9.9705e-07
-4.54279e-05
-1.09763e-06
-4.55907e-05
-1.19228e-06
-4.57515e-05
-1.26551e-06
-4.59089e-05
-1.29246e-06
-4.60573e-05
-1.23579e-06
-4.6184e-05
-1.04183e-06
-4.62664e-05
-6.29704e-07
-4.63042e-05
1.04627e-07
-4.63323e-05
1.41973e-06
-4.63755e-05
3.68371e-06
-4.64349e-05
7.77309e-06
-4.61889e-05
1.53405e-05
2.80701e-05
-4.33516e-05
-4.09073e-05
-8.82047e-08
-4.09174e-05
-1.6446e-07
-4.09339e-05
-2.1197e-07
-4.09538e-05
-2.41272e-07
-4.09758e-05
-2.59436e-07
-4.09996e-05
-2.70737e-07
-4.10252e-05
-2.78028e-07
-4.10524e-05
-2.82923e-07
-4.10813e-05
-2.86451e-07
-4.1112e-05
-2.89151e-07
-4.11445e-05
-2.91392e-07
-4.1179e-05
-2.93334e-07
-4.12154e-05
-2.95109e-07
-4.1254e-05
-2.96753e-07
-4.12947e-05
-2.98309e-07
-4.13376e-05
-2.99783e-07
-4.13829e-05
-3.01179e-07
-4.14306e-05
-3.02475e-07
-4.14808e-05
-3.03663e-07
-4.15335e-05
-3.04747e-07
-4.15889e-05
-3.05806e-07
-4.16471e-05
-3.0683e-07
-4.17082e-05
-3.07824e-07
-4.17722e-05
-3.08695e-07
-4.18393e-05
-3.09302e-07
-4.19096e-05
-3.09835e-07
-4.19833e-05
-3.10387e-07
-4.20603e-05
-3.10868e-07
-4.21408e-05
-3.11283e-07
-4.22248e-05
-3.11635e-07
-4.23125e-05
-3.11945e-07
-4.24038e-05
-3.12221e-07
-4.24989e-05
-3.1247e-07
-4.25977e-05
-3.12689e-07
-4.27003e-05
-3.1289e-07
-4.28068e-05
-3.13078e-07
-4.2917e-05
-3.13248e-07
-4.30311e-05
-3.13398e-07
-4.31491e-05
-3.1355e-07
-4.32708e-05
-3.13694e-07
-4.33963e-05
-3.13835e-07
-4.35256e-05
-3.14016e-07
-4.36585e-05
-3.14337e-07
-4.3795e-05
-3.15007e-07
-4.39349e-05
-3.16078e-07
-4.4078e-05
-3.17293e-07
-4.42242e-05
-3.18568e-07
-4.43736e-05
-3.19942e-07
-4.45258e-05
-3.21451e-07
-4.4681e-05
-3.23029e-07
-4.48388e-05
-3.24617e-07
-4.49991e-05
-3.2616e-07
-4.51618e-05
-3.27591e-07
-4.53267e-05
-3.28862e-07
-4.54936e-05
-3.29907e-07
-4.56623e-05
-3.30678e-07
-4.58327e-05
-3.3113e-07
-4.60048e-05
-3.31212e-07
-4.61783e-05
-3.30875e-07
-4.63533e-05
-3.30054e-07
-4.65295e-05
-3.2874e-07
-4.6707e-05
-3.26972e-07
-4.68856e-05
-3.24686e-07
-4.70653e-05
-3.21729e-07
-4.7246e-05
-3.18154e-07
-4.74276e-05
-3.14053e-07
-4.76101e-05
-3.09551e-07
-4.77933e-05
-3.04815e-07
-4.7977e-05
-3.00081e-07
-4.81612e-05
-2.95662e-07
-4.83454e-05
-2.9187e-07
-4.85297e-05
-2.89078e-07
-4.87138e-05
-2.87784e-07
-4.88974e-05
-2.88541e-07
-4.90804e-05
-2.92008e-07
-4.92625e-05
-2.98945e-07
-4.94437e-05
-3.10161e-07
-4.96238e-05
-3.26395e-07
-4.98029e-05
-3.48543e-07
-4.99812e-05
-3.77763e-07
-5.01585e-05
-4.15177e-07
-5.03351e-05
-4.61676e-07
-5.05109e-05
-5.18096e-07
-5.06863e-05
-5.85231e-07
-5.08614e-05
-6.6325e-07
-5.10366e-05
-7.51277e-07
-5.12123e-05
-8.47064e-07
-5.13886e-05
-9.45891e-07
-5.15651e-05
-1.03919e-06
-5.17401e-05
-1.1129e-06
-5.19085e-05
-1.14534e-06
-5.20602e-05
-1.10422e-06
-5.21748e-05
-9.46347e-07
-5.22181e-05
-6.04304e-07
-5.21627e-05
3.25588e-08
-5.19917e-05
1.23256e-06
-5.16194e-05
3.29487e-06
-5.08809e-05
7.01676e-06
-4.91628e-05
1.36013e-05
2.34475e-05
-4.45679e-05
-4.40135e-05
-7.73311e-08
-4.40476e-05
-1.31567e-07
-4.40936e-05
-1.67324e-07
-4.41465e-05
-1.89813e-07
-4.42042e-05
-2.03491e-07
-4.42653e-05
-2.11537e-07
-4.43292e-05
-2.1621e-07
-4.43956e-05
-2.18846e-07
-4.44644e-05
-2.20303e-07
-4.45354e-05
-2.21047e-07
-4.46086e-05
-2.21394e-07
-4.4684e-05
-2.21485e-07
-4.47616e-05
-2.21437e-07
-4.48414e-05
-2.21283e-07
-4.49235e-05
-2.21063e-07
-4.50077e-05
-2.20785e-07
-4.50943e-05
-2.20465e-07
-4.5183e-05
-2.20071e-07
-4.5274e-05
-2.19619e-07
-4.53673e-05
-2.19113e-07
-4.54628e-05
-2.18617e-07
-4.55606e-05
-2.18105e-07
-4.56606e-05
-2.17609e-07
-4.57629e-05
-2.17062e-07
-4.58675e-05
-2.16288e-07
-4.59745e-05
-2.15284e-07
-4.60842e-05
-2.14172e-07
-4.61966e-05
-2.12991e-07
-4.63117e-05
-2.11813e-07
-4.64294e-05
-2.10642e-07
-4.65497e-05
-2.09528e-07
-4.66726e-05
-2.08481e-07
-4.67979e-05
-2.07532e-07
-4.69255e-05
-2.06666e-07
-4.70554e-05
-2.05919e-07
-4.71875e-05
-2.0528e-07
-4.73217e-05
-2.0476e-07
-4.74577e-05
-2.04362e-07
-4.75955e-05
-2.04092e-07
-4.7735e-05
-2.03946e-07
-4.7876e-05
-2.03919e-07
-4.80184e-05
-2.04036e-07
-4.81621e-05
-2.04394e-07
-4.83069e-05
-2.05259e-07
-4.84525e-05
-2.06771e-07
-4.85987e-05
-2.08477e-07
-4.87456e-05
-2.10275e-07
-4.88931e-05
-2.1218e-07
-4.9041e-05
-2.14234e-07
-4.91893e-05
-2.16366e-07
-4.93379e-05
-2.18512e-07
-4.94867e-05
-2.20613e-07
-4.96356e-05
-2.22573e-07
-4.97847e-05
-2.24332e-07
-4.99339e-05
-2.25787e-07
-5.00833e-05
-2.26876e-07
-5.02327e-05
-2.27527e-07
-5.03824e-05
-2.27668e-07
-5.05323e-05
-2.27241e-07
-5.06826e-05
-2.26154e-07
-5.08334e-05
-2.2439e-07
-5.09846e-05
-2.22056e-07
-5.11364e-05
-2.19125e-07
-5.12887e-05
-2.15302e-07
-5.14418e-05
-2.10696e-07
-5.15957e-05
-2.05453e-07
-5.17504e-05
-1.99713e-07
-5.19059e-05
-1.93649e-07
-5.20624e-05
-1.87498e-07
-5.22197e-05
-1.81608e-07
-5.23778e-05
-1.76298e-07
-5.2537e-05
-1.71906e-07
-5.26971e-05
-1.68932e-07
-5.28583e-05
-1.67925e-07
-5.30206e-05
-1.69536e-07
-5.31842e-05
-1.74458e-07
-5.33491e-05
-1.83483e-07
-5.35155e-05
-1.97557e-07
-5.36832e-05
-2.17528e-07
-5.38525e-05
-2.4439e-07
-5.40234e-05
-2.79338e-07
-5.41962e-05
-3.23104e-07
-5.43713e-05
-3.76383e-07
-5.4549e-05
-4.4004e-07
-5.47296e-05
-5.14294e-07
-5.49135e-05
-5.98195e-07
-5.51007e-05
-6.89733e-07
-5.52909e-05
-7.84734e-07
-5.54825e-05
-8.75692e-07
-5.56719e-05
-9.50713e-07
-5.58515e-05
-9.91962e-07
-5.60067e-05
-9.74162e-07
-5.61148e-05
-8.62333e-07
-5.61281e-05
-6.1385e-07
-5.60069e-05
-1.10093e-07
-5.565e-05
8.54666e-07
-5.49239e-05
2.54676e-06
-5.3515e-05
5.58286e-06
-5.07008e-05
1.0756e-05
1.77999e-05
-4.50898e-05
-4.69417e-05
-5.4668e-08
-4.69904e-05
-8.43599e-08
-4.7053e-05
-1.06385e-07
-4.71243e-05
-1.20367e-07
-4.72014e-05
-1.28509e-07
-4.72824e-05
-1.32837e-07
-4.73663e-05
-1.34817e-07
-4.74526e-05
-1.35404e-07
-4.75409e-05
-1.35163e-07
-4.76309e-05
-1.34453e-07
-4.77227e-05
-1.33477e-07
-4.7816e-05
-1.32353e-07
-4.79108e-05
-1.31154e-07
-4.80072e-05
-1.29908e-07
-4.81051e-05
-1.28651e-07
-4.82045e-05
-1.27375e-07
-4.83054e-05
-1.26107e-07
-4.84078e-05
-1.24809e-07
-4.85116e-05
-1.23523e-07
-4.86168e-05
-1.22232e-07
-4.87234e-05
-1.20992e-07
-4.88314e-05
-1.19773e-07
-4.89409e-05
-1.18568e-07
-4.90518e-05
-1.17281e-07
-4.91641e-05
-1.16047e-07
-4.92774e-05
-1.14813e-07
-4.93917e-05
-1.13584e-07
-4.95069e-05
-1.12358e-07
-4.96229e-05
-1.1126e-07
-4.97397e-05
-1.10267e-07
-4.98571e-05
-1.09461e-07
-4.99751e-05
-1.08825e-07
-5.00935e-05
-1.08424e-07
-5.02123e-05
-1.08206e-07
-5.03313e-05
-1.08223e-07
-5.04504e-05
-1.08442e-07
-5.05696e-05
-1.08867e-07
-5.06887e-05
-1.09513e-07
-5.08077e-05
-1.10346e-07
-5.09265e-05
-1.11363e-07
-5.10451e-05
-1.12536e-07
-5.11634e-05
-1.13873e-07
-5.12814e-05
-1.15422e-07
-5.1399e-05
-1.1753e-07
-5.1516e-05
-1.20502e-07
-5.16325e-05
-1.23585e-07
-5.17485e-05
-1.26621e-07
-5.18641e-05
-1.29657e-07
-5.19794e-05
-1.32729e-07
-5.20945e-05
-1.35779e-07
-5.22095e-05
-1.38733e-07
-5.23243e-05
-1.41512e-07
-5.24391e-05
-1.44015e-07
-5.25541e-05
-1.46154e-07
-5.26693e-05
-1.47825e-07
-5.27849e-05
-1.4895e-07
-5.2901e-05
-1.49447e-07
-5.30178e-05
-1.49242e-07
-5.31354e-05
-1.48269e-07
-5.3254e-05
-1.46433e-07
-5.33738e-05
-1.43676e-07
-5.34948e-05
-1.40216e-07
-5.3617e-05
-1.36182e-07
-5.37408e-05
-1.30937e-07
-5.38661e-05
-1.24709e-07
-5.39932e-05
-1.17696e-07
-5.41222e-05
-1.10059e-07
-5.42531e-05
-1.01959e-07
-5.43861e-05
-9.35873e-08
-5.45213e-05
-8.53691e-08
-5.46589e-05
-7.76229e-08
-5.47988e-05
-7.06087e-08
-5.49414e-05
-6.48558e-08
-5.50868e-05
-6.09152e-08
-5.5235e-05
-5.94199e-08
-5.53863e-05
-6.10529e-08
-5.55409e-05
-6.66022e-08
-5.56989e-05
-7.70838e-08
-5.58604e-05
-9.32972e-08
-5.60259e-05
-1.16123e-07
-5.61952e-05
-1.46976e-07
-5.63689e-05
-1.86351e-07
-5.65475e-05
-2.34635e-07
-5.67313e-05
-2.92954e-07
-5.69205e-05
-3.61755e-07
-5.71155e-05
-4.39925e-07
-5.73158e-05
-5.25947e-07
-5.75206e-05
-6.16517e-07
-5.77273e-05
-7.05549e-07
-5.79307e-05
-7.83776e-07
-5.81212e-05
-8.3789e-07
-5.82816e-05
-8.49927e-07
-5.83843e-05
-7.95512e-07
-5.83849e-05
-6.48617e-07
-5.82077e-05
-3.21828e-07
-5.77196e-05
3.32961e-07
-5.67228e-05
1.51544e-06
-5.48066e-05
3.62719e-06
-5.12377e-05
7.139e-06
1.16013e-05
-4.50895e-05
-4.9295e-05
-2.21218e-08
-4.93491e-05
-3.18268e-08
-4.94163e-05
-4.09414e-08
-4.9492e-05
-4.65638e-08
-4.9573e-05
-4.95308e-08
-4.96574e-05
-5.07489e-08
-4.97439e-05
-5.08877e-08
-4.98316e-05
-5.04115e-08
-4.99203e-05
-4.95793e-08
-5.00095e-05
-4.85709e-08
-5.00991e-05
-4.74749e-08
-5.0189e-05
-4.63561e-08
-5.02791e-05
-4.52382e-08
-5.03695e-05
-4.41391e-08
-5.04601e-05
-4.30694e-08
-5.05508e-05
-4.20269e-08
-5.06416e-05
-4.10185e-08
-5.07326e-05
-4.00289e-08
-5.08237e-05
-3.90794e-08
-5.09149e-05
-3.81707e-08
-5.10061e-05
-3.73258e-08
-5.10974e-05
-3.65314e-08
-5.11888e-05
-3.57686e-08
-5.12802e-05
-3.49782e-08
-5.13715e-05
-3.43669e-08
-5.14626e-05
-3.39302e-08
-5.15533e-05
-3.36347e-08
-5.16436e-05
-3.34098e-08
-5.17335e-05
-3.3343e-08
-5.18229e-05
-3.34033e-08
-5.19118e-05
-3.36672e-08
-5.20003e-05
-3.41067e-08
-5.20884e-05
-3.47959e-08
-5.21759e-05
-3.56809e-08
-5.2263e-05
-3.67865e-08
-5.23496e-05
-3.80723e-08
-5.24359e-05
-3.95336e-08
-5.25218e-05
-4.1194e-08
-5.26073e-05
-4.30029e-08
-5.26925e-05
-4.4949e-08
-5.27775e-05
-4.69918e-08
-5.28624e-05
-4.91281e-08
-5.29471e-05
-5.13425e-08
-5.30319e-05
-5.40244e-08
-5.31163e-05
-5.79103e-08
-5.32007e-05
-6.16896e-08
-5.32851e-05
-6.51708e-08
-5.33698e-05
-6.85257e-08
-5.34549e-05
-7.17664e-08
-5.35404e-05
-7.48642e-08
-5.36264e-05
-7.7751e-08
-5.37132e-05
-8.03264e-08
-5.38007e-05
-8.2503e-08
-5.38891e-05
-8.41667e-08
-5.39785e-05
-8.52319e-08
-5.4069e-05
-8.5604e-08
-5.41607e-05
-8.51987e-08
-5.42538e-05
-8.39568e-08
-5.43483e-05
-8.1798e-08
-5.44444e-05
-7.86447e-08
-5.45423e-05
-7.4337e-08
-5.46421e-05
-6.91543e-08
-5.47434e-05
-6.37766e-08
-5.48467e-05
-5.66575e-08
-5.49522e-05
-4.83925e-08
-5.50599e-05
-3.92319e-08
-5.517e-05
-2.93307e-08
-5.52825e-05
-1.88554e-08
-5.53976e-05
-8.01819e-09
-5.55154e-05
2.90205e-09
-5.56362e-05
1.34963e-08
-5.576e-05
2.34401e-08
-5.58871e-05
3.22754e-08
-5.60176e-05
3.94767e-08
-5.61516e-05
4.44444e-08
-5.62896e-05
4.64971e-08
-5.64315e-05
4.48552e-08
-5.65778e-05
3.86236e-08
-5.67288e-05
2.69231e-08
-5.68847e-05
9.01852e-09
-5.70461e-05
-1.64249e-08
-5.72134e-05
-5.00936e-08
-5.73875e-05
-9.2013e-08
-5.75688e-05
-1.43525e-07
-5.77572e-05
-2.05786e-07
-5.79532e-05
-2.77038e-07
-5.81564e-05
-3.56591e-07
-5.83655e-05
-4.42395e-07
-5.85773e-05
-5.29871e-07
-5.8786e-05
-6.12667e-07
-5.89809e-05
-6.82345e-07
-5.91439e-05
-7.28347e-07
-5.92451e-05
-7.38218e-07
-5.9243e-05
-6.97404e-07
-5.90485e-05
-5.66312e-07
-5.84992e-05
-2.68763e-07
-5.73407e-05
3.04133e-07
-5.51127e-05
1.34357e-06
-5.10933e-05
3.05725e-06
5.16168e-06
-4.4711e-05
-5.06363e-05
1.67007e-08
-5.06882e-05
1.88206e-08
-5.07517e-05
2.11593e-08
-5.08226e-05
2.28733e-08
-5.08977e-05
2.40382e-08
-5.09751e-05
2.48524e-08
-5.10532e-05
2.53976e-08
-5.11315e-05
2.57793e-08
-5.12093e-05
2.60173e-08
-5.12865e-05
2.61634e-08
-5.13628e-05
2.62337e-08
-5.14381e-05
2.62398e-08
-5.15126e-05
2.62068e-08
-5.15861e-05
2.61382e-08
-5.16587e-05
2.60542e-08
-5.17303e-05
2.59519e-08
-5.18011e-05
2.58542e-08
-5.18711e-05
2.57509e-08
-5.19403e-05
2.5657e-08
-5.20088e-05
2.55445e-08
-5.20766e-05
2.543e-08
-5.21437e-05
2.52939e-08
-5.22103e-05
2.5176e-08
-5.22763e-05
2.5049e-08
-5.23418e-05
2.48453e-08
-5.24069e-05
2.45327e-08
-5.24716e-05
2.41549e-08
-5.2536e-05
2.37117e-08
-5.26002e-05
2.31876e-08
-5.26642e-05
2.25548e-08
-5.2728e-05
2.1792e-08
-5.27918e-05
2.0886e-08
-5.28555e-05
1.98085e-08
-5.29193e-05
1.85247e-08
-5.29831e-05
1.70865e-08
-5.3047e-05
1.55455e-08
-5.31111e-05
1.38759e-08
-5.31754e-05
1.20652e-08
-5.324e-05
1.01402e-08
-5.33049e-05
8.14011e-09
-5.33702e-05
6.09597e-09
-5.3436e-05
4.0392e-09
-5.35023e-05
1.98546e-09
-5.35694e-05
-2.03099e-10
-5.36366e-05
-4.39081e-09
-5.37042e-05
-8.07787e-09
-5.37725e-05
-1.11623e-08
-5.38417e-05
-1.40393e-08
-5.39117e-05
-1.67263e-08
-5.39826e-05
-1.91959e-08
-5.40545e-05
-2.13767e-08
-5.41275e-05
-2.31635e-08
-5.42016e-05
-2.44713e-08
-5.42769e-05
-2.51675e-08
-5.43534e-05
-2.51863e-08
-5.44313e-05
-2.44108e-08
-5.45105e-05
-2.27624e-08
-5.45913e-05
-2.01864e-08
-5.46736e-05
-1.65925e-08
-5.47575e-05
-1.1908e-08
-5.48431e-05
-6.01721e-09
-5.49309e-05
1.40021e-09
-5.50198e-05
7.79015e-09
-5.51109e-05
1.70639e-08
-5.52042e-05
2.75162e-08
-5.52998e-05
3.89204e-08
-5.53977e-05
5.11803e-08
-5.54981e-05
6.4132e-08
-5.5601e-05
7.75419e-08
-5.57068e-05
9.12831e-08
-5.58156e-05
1.05017e-07
-5.59276e-05
1.18278e-07
-5.60429e-05
1.30634e-07
-5.61619e-05
1.41572e-07
-5.62846e-05
1.5051e-07
-5.64114e-05
1.56772e-07
-5.65425e-05
1.59597e-07
-5.66783e-05
1.58153e-07
-5.68189e-05
1.51479e-07
-5.69645e-05
1.38749e-07
-5.71159e-05
1.19262e-07
-5.72737e-05
9.23198e-08
-5.74375e-05
5.70161e-08
-5.76082e-05
1.30513e-08
-5.77858e-05
-4.17232e-08
-5.79711e-05
-1.048e-07
-5.81635e-05
-1.7694e-07
-5.83608e-05
-2.57541e-07
-5.85598e-05
-3.43173e-07
-5.87542e-05
-4.30605e-07
-5.89328e-05
-5.16232e-07
-5.90773e-05
-5.96965e-07
-5.91583e-05
-6.71221e-07
-5.91318e-05
-7.39754e-07
-5.89127e-05
-8.04022e-07
-5.83368e-05
-8.68071e-07
-5.71218e-05
-9.39571e-07
-5.47759e-05
-1.03248e-06
-5.05792e-05
-1.16499e-06
-1.27948e-06
-4.41474e-05
-5.03785e-05
5.44695e-08
-5.04307e-05
7.02613e-08
-5.04948e-05
8.44932e-08
-5.05666e-05
9.37641e-08
-5.06428e-05
9.93224e-08
-5.07214e-05
1.02421e-07
-5.0801e-05
1.03924e-07
-5.08809e-05
1.04462e-07
-5.09605e-05
1.04362e-07
-5.10396e-05
1.03877e-07
-5.11179e-05
1.03136e-07
-5.11955e-05
1.02229e-07
-5.12723e-05
1.01222e-07
-5.13481e-05
1.00149e-07
-5.1423e-05
9.90456e-08
-5.14971e-05
9.79221e-08
-5.15703e-05
9.68098e-08
-5.16426e-05
9.57009e-08
-5.17141e-05
9.46208e-08
-5.17848e-05
9.35424e-08
-5.18547e-05
9.24944e-08
-5.19238e-05
9.14448e-08
-5.19922e-05
9.04458e-08
-5.206e-05
8.94281e-08
-5.21271e-05
8.84169e-08
-5.21936e-05
8.73432e-08
-5.22596e-05
8.62791e-08
-5.23251e-05
8.51569e-08
-5.23902e-05
8.40269e-08
-5.24549e-05
8.28014e-08
-5.25193e-05
8.15274e-08
-5.25834e-05
8.01334e-08
-5.26473e-05
7.86592e-08
-5.2711e-05
7.69647e-08
-5.27745e-05
7.51923e-08
-5.2838e-05
7.34148e-08
-5.29016e-05
7.15638e-08
-5.29652e-05
6.96367e-08
-5.30289e-05
6.76351e-08
-5.30928e-05
6.56172e-08
-5.31569e-05
6.36074e-08
-5.32213e-05
6.16252e-08
-5.32859e-05
5.96446e-08
-5.33505e-05
5.73167e-08
-5.34162e-05
5.39847e-08
-5.34827e-05
5.09036e-08
-5.35497e-05
4.82596e-08
-5.36174e-05
4.58922e-08
-5.36858e-05
4.37956e-08
-5.3755e-05
4.2006e-08
-5.3825e-05
4.059e-08
-5.3896e-05
3.96415e-08
-5.3968e-05
3.92497e-08
-5.4041e-05
3.95421e-08
-5.41152e-05
4.0601e-08
-5.41905e-05
4.25367e-08
-5.42671e-05
4.54287e-08
-5.43451e-05
4.93401e-08
-5.44244e-05
5.43591e-08
-5.45052e-05
6.05482e-08
-5.45876e-05
6.80129e-08
-5.46711e-05
7.66336e-08
-5.47573e-05
8.57631e-08
-5.48451e-05
9.68567e-08
-5.49349e-05
1.09322e-07
-5.50266e-05
1.2294e-07
-5.51206e-05
1.37588e-07
-5.52168e-05
1.53105e-07
-5.53156e-05
1.69301e-07
-5.5417e-05
1.85992e-07
-5.55211e-05
2.02865e-07
-5.56283e-05
2.19513e-07
-5.57387e-05
2.35494e-07
-5.58525e-05
2.50314e-07
-5.59699e-05
2.6341e-07
-5.60913e-05
2.74125e-07
-5.62168e-05
2.81729e-07
-5.63469e-05
2.85415e-07
-5.64819e-05
2.84321e-07
-5.66222e-05
2.77653e-07
-5.67682e-05
2.64673e-07
-5.69204e-05
2.44647e-07
-5.70787e-05
2.16348e-07
-5.72432e-05
1.79367e-07
-5.74151e-05
1.33194e-07
-5.7593e-05
7.76164e-08
-5.77757e-05
1.21248e-08
-5.79622e-05
-6.2945e-08
-5.81489e-05
-1.46378e-07
-5.83291e-05
-2.38213e-07
-5.84917e-05
-3.39079e-07
-5.86184e-05
-4.53286e-07
-5.86808e-05
-5.8901e-07
-5.86331e-05
-7.64459e-07
-5.83922e-05
-1.0185e-06
-5.78056e-05
-1.42436e-06
-5.65947e-05
-2.11595e-06
-5.42706e-05
-3.31753e-06
-5.01363e-05
-5.2563e-06
-7.5663e-06
-4.38043e-05
-4.86914e-05
8.30323e-08
-4.87425e-05
1.20975e-07
-4.88064e-05
1.48032e-07
-4.88788e-05
1.65718e-07
-4.89566e-05
1.76641e-07
-4.90378e-05
1.83093e-07
-4.91212e-05
1.8678e-07
-4.9206e-05
1.88726e-07
-4.92919e-05
1.89615e-07
-4.93785e-05
1.89817e-07
-4.94657e-05
1.89595e-07
-4.95533e-05
1.89093e-07
-4.96413e-05
1.88406e-07
-4.97296e-05
1.87591e-07
-4.98182e-05
1.86688e-07
-4.9907e-05
1.85718e-07
-4.9996e-05
1.84705e-07
-5.0085e-05
1.83651e-07
-5.01742e-05
1.82569e-07
-5.02634e-05
1.81447e-07
-5.03525e-05
1.80297e-07
-5.04416e-05
1.79099e-07
-5.05305e-05
1.77875e-07
-5.06192e-05
1.76575e-07
-5.07077e-05
1.75233e-07
-5.07959e-05
1.73809e-07
-5.08838e-05
1.72355e-07
-5.09713e-05
1.70803e-07
-5.10585e-05
1.69197e-07
-5.11452e-05
1.67461e-07
-5.12315e-05
1.6565e-07
-5.13173e-05
1.63696e-07
-5.14026e-05
1.61649e-07
-5.14875e-05
1.59395e-07
-5.15718e-05
1.57046e-07
-5.16556e-05
1.54613e-07
-5.17387e-05
1.52072e-07
-5.18213e-05
1.49463e-07
-5.19033e-05
1.4683e-07