/*--------------------------------*- C++ -*----------------------------------*\
| =========                 |                                                 |
| \\      /  F ield         | OpenFOAM: The Open Source CFD Toolbox           |
|  \\    /   O peration     | Version:  2.1.0                                 |
|   \\  /    A nd           | Web:      www.OpenFOAM.org                      |
|    \\/     M anipulation  |                                                 |
\*---------------------------------------------------------------------------*/
FoamFile
{
    version     2.0;
    format      ascii;
    class       volScalarField;
    location    "0.24";
    object      rho;
}
// * * * * * * * * * * * * * * * * * * * * * * * * * * * * * * * * * * * * * //

dimensions      [1 -3 0 0 0 0 0];

internalField   nonuniform List<scalar> 
6400
(
999.994
999.993
999.991
999.99
999.989
999.987
999.985
999.983
999.981
999.978
999.975
999.971
999.967
999.963
999.958
999.952
999.946
999.938
999.93
999.922
999.912
999.901
999.888
999.875
999.86
999.843
999.824
999.804
999.781
999.756
999.729
999.699
999.666
999.629
999.59
999.546
999.499
999.448
999.392
999.331
999.265
999.194
999.118
999.035
998.946
998.851
998.749
998.639
998.523
998.399
998.267
998.126
997.977
997.819
997.651
997.473
997.284
997.084
996.873
996.651
996.416
996.169
995.909
995.635
995.348
995.047
994.731
994.401
994.055
993.693
993.315
992.92
992.508
992.076
991.626
991.155
990.662
990.147
989.609
989.045
988.456
987.841
987.201
986.538
985.856
985.162
984.471
983.801
983.189
982.693
982.425
982.606
983.668
986.286
990.416
989.052
973.885
957.836
951.618
949.859
999.981
999.979
999.975
999.972
999.968
999.963
999.958
999.952
999.946
999.938
999.93
999.921
999.91
999.898
999.885
999.871
999.855
999.837
999.817
999.795
999.77
999.743
999.713
999.68
999.644
999.604
999.56
999.511
999.458
999.4
999.337
999.267
999.192
999.11
999.02
998.923
998.818
998.704
998.581
998.448
998.304
998.15
997.984
997.807
997.616
997.413
997.196
996.965
996.719
996.458
996.18
995.884
995.571
995.239
994.888
994.517
994.125
993.712
993.276
992.818
992.335
991.828
991.296
990.737
990.152
989.539
988.898
988.227
987.527
986.796
986.034
985.24
984.414
983.555
982.664
981.74
980.785
979.798
978.782
977.737
976.666
975.573
974.46
973.331
972.191
971.046
969.901
968.761
967.63
966.506
965.377
964.211
962.94
961.448
959.592
957.35
954.695
951.939
950.101
949.083
999.965
999.96
999.954
999.948
999.941
999.932
999.923
999.913
999.901
999.888
999.873
999.857
999.839
999.818
999.795
999.77
999.742
999.711
999.676
999.638
999.596
999.55
999.499
999.443
999.382
999.314
999.24
999.159
999.071
998.974
998.869
998.755
998.631
998.496
998.35
998.192
998.022
997.838
997.639
997.426
997.196
996.95
996.686
996.403
996.101
995.778
995.435
995.069
994.68
994.267
993.829
993.365
992.874
992.356
991.81
991.234
990.629
989.994
989.327
988.629
987.898
987.135
986.339
985.508
984.645
983.747
982.814
981.848
980.848
979.815
978.749
977.65
976.522
975.365
974.181
972.974
971.747
970.503
969.249
967.99
966.731
965.48
964.244
963.03
961.844
960.693
959.582
958.516
957.499
956.533
955.615
954.744
953.914
953.114
952.336
951.572
950.753
949.875
949.069
948.38
999.942
999.934
999.924
999.914
999.902
999.888
999.873
999.856
999.837
999.816
999.793
999.766
999.737
999.704
999.668
999.628
999.583
999.533
999.479
999.418
999.351
999.278
999.198
999.109
999.012
998.906
998.79
998.663
998.525
998.374
998.211
998.033
997.841
997.633
997.408
997.165
996.903
996.621
996.318
995.993
995.644
995.272
994.873
994.448
993.994
993.512
992.999
992.455
991.879
991.271
990.629
989.953
989.243
988.498
987.719
986.904
986.055
985.17
984.252
983.3
982.315
981.298
980.251
979.176
978.073
976.946
975.797
974.629
973.445
972.249
971.044
969.835
968.626
967.423
966.231
965.055
963.901
962.773
961.677
960.617
959.598
958.623
957.695
956.815
955.985
955.206
954.476
953.795
953.161
952.572
952.024
951.514
951.037
950.588
950.161
949.749
949.316
948.856
948.376
947.871
999.909
999.896
999.882
999.865
999.847
999.826
999.803
999.777
999.749
999.716
999.68
999.64
999.595
999.546
999.49
999.429
999.361
999.287
999.204
999.113
999.012
998.902
998.781
998.648
998.502
998.344
998.17
997.982
997.776
997.553
997.311
997.05
996.767
996.461
996.132
995.778
995.398
994.991
994.555
994.09
993.594
993.066
992.505
991.911
991.282
990.618
989.919
989.185
988.415
987.609
986.769
985.895
984.987
984.047
983.076
982.076
981.049
979.998
978.924
977.83
976.72
975.596
974.463
973.322
972.179
971.037
969.899
968.77
967.652
966.551
965.469
964.411
963.378
962.375
961.404
960.467
959.566
958.702
957.875
957.087
956.338
955.626
954.952
954.314
953.711
953.142
952.605
952.1
951.624
951.177
950.757
950.362
949.992
949.645
949.319
949.012
948.701
948.383
948.052
947.705
999.864
999.846
999.824
999.801
999.774
999.744
999.71
999.672
999.63
999.584
999.531
999.473
999.409
999.338
999.259
999.171
999.075
998.968
998.851
998.722
998.581
998.427
998.258
998.073
997.872
997.653
997.415
997.157
996.878
996.576
996.251
995.901
995.525
995.122
994.691
994.231
993.741
993.219
992.667
992.082
991.465
990.815
990.132
989.416
988.668
987.889
987.078
986.238
985.369
984.473
983.551
982.606
981.639
980.654
979.652
978.635
977.608
976.571
975.529
974.484
973.438
972.395
971.358
970.328
969.308
968.302
967.311
966.337
965.383
964.451
963.541
962.656
961.796
960.963
960.156
959.377
958.625
957.9
957.203
956.532
955.887
955.268
954.674
954.105
953.558
953.035
952.533
952.053
951.594
951.157
950.741
950.347
949.978
949.633
949.316
949.03
948.758
948.502
948.269
948.089
999.811
999.786
999.757
999.725
999.689
999.649
999.604
999.554
999.498
999.436
999.368
999.292
999.209
999.116
999.015
998.903
998.78
998.646
998.499
998.339
998.164
997.974
997.768
997.544
997.302
997.042
996.761
996.458
996.134
995.788
995.417
995.022
994.602
994.156
993.685
993.186
992.661
992.11
991.531
990.926
990.294
989.637
988.955
988.248
987.518
986.765
985.991
985.198
984.386
983.557
982.713
981.855
980.985
980.106
979.217
978.323
977.423
976.521
975.617
974.713
973.812
972.914
972.021
971.134
970.256
969.387
968.529
967.682
966.848
966.028
965.221
964.43
963.654
962.894
962.149
961.421
960.708
960.011
959.33
958.664
958.013
957.377
956.755
956.146
955.55
954.967
954.396
953.838
953.294
952.764
952.252
951.76
951.295
950.862
950.469
950.13
949.837
949.595
949.436
949.439
999.766
999.736
999.702
999.664
999.622
999.575
999.523
999.466
999.403
999.333
999.256
999.172
999.08
998.979
998.869
998.749
998.619
998.477
998.324
998.158
997.98
997.787
997.58
997.358
997.121
996.867
996.597
996.309
996.005
995.682
995.341
994.982
994.604
994.207
993.792
993.357
992.905
992.433
991.943
991.436
990.91
990.368
989.809
989.233
988.643
988.037
987.417
986.784
986.137
985.479
984.81
984.13
983.441
982.743
982.037
981.325
980.607
979.883
979.156
978.426
977.695
976.962
976.228
975.496
974.765
974.037
973.312
972.591
971.874
971.162
970.456
969.755
969.059
968.37
967.686
967.008
966.335
965.667
965.003
964.341
963.68
963.019
962.355
961.688
961.016
960.338
959.651
958.957
958.255
957.546
956.835
956.127
955.432
954.762
954.135
953.576
953.134
952.8
952.642
952.808
999.753
999.723
999.69
999.653
999.612
999.567
999.518
999.464
999.406
999.341
999.272
999.196
999.114
999.025
998.929
998.825
998.714
998.595
998.468
998.331
998.186
998.031
997.867
997.692
997.508
997.313
997.108
996.891
996.664
996.426
996.176
995.915
995.642
995.358
995.062
994.754
994.435
994.104
993.762
993.407
993.042
992.665
992.277
991.878
991.469
991.049
990.618
990.178
989.728
989.269
988.801
988.325
987.841
987.349
986.851
986.346
985.836
985.321
984.801
984.278
983.752
983.223
982.693
982.161
981.629
981.097
980.565
980.034
979.505
978.977
978.45
977.924
977.399
976.873
976.347
975.82
975.292
974.763
974.231
973.697
973.161
972.617
972.062
971.493
970.907
970.298
969.663
968.997
968.297
967.558
966.779
965.959
965.1
964.208
963.293
962.376
961.551
960.936
960.586
960.736
999.795
999.772
999.746
999.719
999.688
999.655
999.619
999.58
999.538
999.492
999.443
999.39
999.333
999.272
999.207
999.137
999.063
998.984
998.9
998.81
998.716
998.615
998.51
998.398
998.28
998.156
998.026
997.89
997.746
997.597
997.44
997.277
997.106
996.929
996.744
996.553
996.354
996.149
995.936
995.716
995.489
995.256
995.016
994.769
994.516
994.257
993.992
993.72
993.443
993.161
992.873
992.581
992.284
991.983
991.678
991.37
991.059
990.746
990.432
990.116
989.8
989.483
989.168
988.853
988.538
988.226
987.915
987.606
987.299
986.995
986.694
986.398
986.107
985.821
985.54
985.264
984.992
984.723
984.458
984.194
983.931
983.668
983.409
983.152
982.899
982.643
982.378
982.102
981.81
981.499
981.166
980.807
980.418
979.994
979.53
979.016
978.437
977.855
977.465
977.492
999.87
999.857
999.842
999.825
999.808
999.788
999.767
999.745
999.721
999.695
999.667
999.636
999.604
999.57
999.533
999.493
999.452
999.407
999.36
999.31
999.256
999.2
999.141
999.079
999.013
998.944
998.871
998.795
998.716
998.633
998.546
998.456
998.362
998.265
998.164
998.06
997.952
997.84
997.725
997.606
997.484
997.359
997.23
997.098
996.964
996.826
996.685
996.542
996.397
996.249
996.1
995.949
995.797
995.643
995.489
995.335
995.18
995.026
994.872
994.72
994.568
994.418
994.271
994.126
993.986
993.849
993.718
993.593
993.474
993.362
993.258
993.163
993.077
993.001
992.936
992.882
992.838
992.807
992.787
992.78
992.784
992.8
992.827
992.865
992.912
992.975
993.057
993.162
993.285
993.428
993.592
993.782
994.001
994.251
994.538
994.864
995.232
995.638
996.073
996.51
999.929
999.922
999.914
999.906
999.896
999.887
999.876
999.865
999.853
999.84
999.826
999.811
999.795
999.778
999.76
999.741
999.721
999.699
999.676
999.652
999.627
999.6
999.572
999.542
999.511
999.478
999.444
999.408
999.371
999.332
999.291
999.249
999.206
999.161
999.114
999.066
999.017
998.966
998.914
998.861
998.807
998.752
998.695
998.638
998.58
998.521
998.462
998.403
998.343
998.282
998.222
998.162
998.103
998.044
997.985
997.928
997.871
997.817
997.764
997.713
997.664
997.618
997.575
997.536
997.501
997.47
997.444
997.423
997.408
997.399
997.397
997.402
997.414
997.433
997.461
997.496
997.539
997.59
997.649
997.716
997.789
997.869
997.954
998.045
998.139
998.237
998.336
998.435
998.539
998.648
998.761
998.876
998.993
999.11
999.226
999.34
999.449
999.549
999.637
999.707
999.963
999.959
999.956
999.951
999.947
999.942
999.937
999.932
999.926
999.92
999.913
999.906
999.899
999.891
999.882
999.874
999.864
999.855
999.845
999.834
999.823
999.811
999.799
999.786
999.773
999.759
999.745
999.73
999.715
999.7
999.684
999.667
999.65
999.633
999.616
999.598
999.58
999.562
999.543
999.524
999.506
999.487
999.468
999.449
999.43
999.412
999.394
999.375
999.358
999.34
999.324
999.307
999.292
999.277
999.263
999.25
999.239
999.228
999.219
999.211
999.205
999.2
999.198
999.198
999.2
999.204
999.21
999.22
999.232
999.246
999.264
999.284
999.307
999.333
999.361
999.391
999.424
999.458
999.494
999.53
999.568
999.605
999.643
999.679
999.714
999.748
999.78
999.809
999.836
999.859
999.88
999.9
999.918
999.934
999.948
999.96
999.97
999.979
999.985
999.989
999.982
999.98
999.978
999.976
999.974
999.972
999.969
999.967
999.964
999.961
999.958
999.955
999.952
999.948
999.944
999.94
999.936
999.932
999.928
999.923
999.919
999.914
999.909
999.904
999.899
999.893
999.888
999.882
999.877
999.871
999.865
999.859
999.854
999.848
999.842
999.837
999.831
999.825
999.82
999.814
999.809
999.804
999.799
999.794
999.79
999.786
999.782
999.778
999.775
999.772
999.769
999.767
999.765
999.764
999.763
999.763
999.763
999.763
999.765
999.767
999.769
999.773
999.777
999.781
999.787
999.793
999.799
999.807
999.815
999.824
999.833
999.843
999.853
999.863
999.874
999.885
999.896
999.906
999.917
999.927
999.937
999.946
999.954
999.962
999.969
999.975
999.98
999.984
999.988
999.991
999.993
999.995
999.996
999.997
999.998
999.999
999.999
999.999
1000
1000
999.991
999.99
999.989
999.988
999.987
999.986
999.985
999.984
999.983
999.982
999.98
999.979
999.977
999.976
999.974
999.973
999.971
999.969
999.967
999.966
999.964
999.962
999.96
999.958
999.956
999.954
999.952
999.95
999.948
999.946
999.944
999.943
999.941
999.939
999.937
999.936
999.934
999.933
999.931
999.93
999.929
999.928
999.927
999.926
999.925
999.925
999.924
999.924
999.924
999.924
999.924
999.925
999.925
999.926
999.927
999.928
999.93
999.931
999.933
999.935
999.937
999.939
999.941
999.944
999.947
999.949
999.952
999.955
999.958
999.962
999.965
999.968
999.971
999.974
999.977
999.98
999.983
999.985
999.987
999.99
999.991
999.993
999.995
999.996
999.997
999.998
999.998
999.999
999.999
999.999
1000
1000
1000
1000
1000
1000
1000
1000
1000
1000
999.996
999.995
999.995
999.994
999.994
999.993
999.993
999.992
999.992
999.991
999.991
999.99
999.989
999.989
999.988
999.987
999.987
999.986
999.985
999.985
999.984
999.983
999.982
999.982
999.981
999.98
999.979
999.979
999.978
999.978
999.977
999.976
999.976
999.975
999.975
999.974
999.974
999.974
999.973
999.973
999.973
999.973
999.973
999.973
999.973
999.973
999.973
999.974
999.974
999.974
999.975
999.975
999.976
999.976
999.977
999.978
999.979
999.979
999.98
999.981
999.982
999.983
999.984
999.985
999.986
999.987
999.988
999.989
999.99
999.991
999.992
999.993
999.994
999.995
999.996
999.996
999.997
999.998
999.998
999.998
999.999
999.999
999.999
1000
1000
1000
1000
1000
1000
1000
1000
1000
1000
1000
1000
1000
1000
1000
1000
1000
999.998
999.998
999.997
999.997
999.997
999.997
999.997
999.996
999.996
999.996
999.996
999.995
999.995
999.995
999.994
999.994
999.994
999.994
999.993
999.993
999.993
999.992
999.992
999.992
999.992
999.991
999.991
999.991
999.991
999.99
999.99
999.99
999.99
999.99
999.99
999.99
999.989
999.989
999.989
999.989
999.989
999.99
999.99
999.99
999.99
999.99
999.99
999.99
999.991
999.991
999.991
999.991
999.992
999.992
999.992
999.993
999.993
999.993
999.994
999.994
999.995
999.995
999.995
999.996
999.996
999.996
999.997
999.997
999.997
999.998
999.998
999.998
999.999
999.999
999.999
999.999
999.999
1000
1000
1000
1000
1000
1000
1000
1000
1000
1000
1000
1000
1000
1000
1000
1000
1000
1000
1000
1000
1000
1000
1000
999.999
999.999
999.999
999.999
999.999
999.999
999.998
999.998
999.998
999.998
999.998
999.998
999.998
999.998
999.998
999.997
999.997
999.997
999.997
999.997
999.997
999.997
999.997
999.996
999.996
999.996
999.996
999.996
999.996
999.996
999.996
999.996
999.996
999.996
999.996
999.996
999.996
999.996
999.996
999.996
999.996
999.996
999.996
999.996
999.996
999.996
999.996
999.996
999.996
999.997
999.997
999.997
999.997
999.997
999.997
999.997
999.998
999.998
999.998
999.998
999.998
999.998
999.998
999.999
999.999
999.999
999.999
999.999
999.999
999.999
999.999
1000
1000
1000
1000
1000
1000
1000
1000
1000
1000
1000
1000
1000
1000
1000
1000
1000
1000
1000
1000
1000
1000
1000
1000
1000
1000
1000
1000
1000
1000
1000
1000
999.999
999.999
999.999
999.999
999.999
999.999
999.999
999.999
999.999
999.999
999.999
999.999
999.999
999.999
999.999
999.999
999.999
999.999
999.999
999.999
999.999
999.999
999.998
999.998
999.998
999.998
999.998
999.998
999.998
999.998
999.998
999.998
999.998
999.998
999.998
999.998
999.998
999.998
999.998
999.998
999.998
999.998
999.999
999.999
999.999
999.999
999.999
999.999
999.999
999.999
999.999
999.999
999.999
999.999
999.999
999.999
999.999
999.999
999.999
999.999
1000
1000
1000
1000
1000
1000
1000
1000
1000
1000
1000
1000
1000
1000
1000
1000
1000
1000
1000
1000
1000
1000
1000
1000
1000
1000
1000
1000
1000
1000
1000
1000
1000
1000
1000
1000
1000
1000
1000
1000
1000
1000
1000
1000
1000
1000
1000
1000
1000
1000
1000
1000
1000
1000
1000
1000
1000
1000
1000
1000
1000
1000
1000
1000
1000
1000
1000
1000
1000
1000
1000
1000
1000
1000
1000
1000
1000
1000
1000
1000
1000
1000
1000
1000
1000
1000
1000
1000
1000
1000
1000
1000
1000
1000
1000
1000
1000
1000
1000
1000
1000
1000
1000
1000
1000
1000
1000
1000
1000
1000
1000
1000
1000
1000
1000
1000
1000
1000
1000
1000
1000
1000
1000
1000
1000
1000
1000
1000
1000
1000
1000
1000
1000
1000
1000
1000
1000
949.334
946.659
946.141
946.093
946.169
946.289
946.436
946.613
946.832
947.115
947.493
948.017
948.76
949.827
951.368
953.586
956.76
961.322
967.973
978.172
948.362
946.573
946.262
946.294
946.423
946.593
946.795
947.039
947.342
947.73
948.245
948.942
949.907
951.251
953.127
955.733
959.356
964.426
971.658
982.77
947.611
946.591
946.477
946.594
946.788
947.026
947.308
947.649
948.07
948.604
949.3
950.222
951.458
953.126
955.371
958.395
962.487
968.073
975.876
987.758
947.245
946.796
946.856
947.067
947.347
947.682
948.078
948.556
949.142
949.874
950.803
952
953.554
955.575
958.21
961.661
966.21
972.267
980.531
992.511
947.35
947.296
947.518
947.848
948.25
948.726
949.287
949.956
950.764
951.747
952.957
954.466
956.356
958.734
961.75
965.595
970.537
976.93
985.375
996.24
948.07
948.307
948.706
949.201
949.785
950.464
951.254
952.176
953.254
954.518
956.024
957.839
960.041
962.737
966.072
970.227
975.421
981.914
990.053
998.506
949.805
950.308
950.937
951.669
952.505
953.45
954.514
955.707
957.036
958.55
960.304
962.361
964.793
967.711
971.245
975.538
980.74
987
994.152
999.533
953.599
954.387
955.288
956.289
957.383
958.56
959.819
961.173
962.651
964.318
966.201
968.363
970.863
973.808
977.286
981.42
986.307
991.846
997.235
999.877
961.757
962.722
963.766
964.87
966.013
967.179
968.401
969.709
971.152
972.733
974.478
976.426
978.633
981.18
984.183
987.739
991.814
995.918
999.005
999.959
978.215
978.918
979.667
980.433
981.203
981.979
982.817
983.7
984.631
985.604
986.655
987.785
989.068
990.541
992.334
994.467
996.743
998.668
999.755
999.975
996.848
996.904
996.984
997.083
997.219
997.413
997.605
997.802
997.999
998.207
998.421
998.65
998.894
999.16
999.402
999.598
999.746
999.877
999.977
999.996
999.742
999.739
999.738
999.74
999.747
999.763
999.783
999.807
999.831
999.854
999.877
999.901
999.924
999.946
999.965
999.978
999.986
999.993
999.999
999.999
999.99
999.989
999.988
999.988
999.987
999.987
999.987
999.988
999.99
999.991
999.993
999.995
999.996
999.997
999.998
999.999
999.999
1000
1000
1000
1000
1000
1000
1000
1000
1000
1000
1000
1000
1000
1000
1000
1000
1000
1000
1000
1000
1000
1000
1000
1000
1000
1000
1000
1000
1000
1000
1000
1000
1000
1000
1000
1000
1000
1000
1000
1000
1000
1000
1000
1000
1000
1000
1000
1000
1000
1000
1000
1000
1000
1000
1000
1000
1000
1000
1000
1000
1000
1000
1000
1000
1000
1000
1000
1000
1000
1000
1000
1000
1000
1000
1000
1000
1000
1000
1000
1000
1000
1000
1000
1000
1000
1000
1000
1000
1000
1000
1000
1000
1000
1000
1000
1000
1000
1000
1000
1000
1000
1000
1000
1000
1000
1000
1000
1000
1000
1000
1000
1000
1000
1000
1000
1000
1000
1000
1000
1000
1000
1000
1000
1000
1000
1000
1000
1000
1000
1000
1000
1000
1000
1000
1000
1000
1000
1000
1000
1000
1000
1000
1000
944.555
944.555
944.555
944.555
944.555
944.555
944.555
944.555
944.555
944.555
944.555
944.555
944.555
944.555
944.555
944.555
944.555
944.555
944.555
944.555
944.555
944.555
944.555
944.555
944.555
944.555
944.555
944.555
944.555
944.555
944.555
944.555
944.555
944.555
944.555
944.555
944.555
944.555
944.555
944.555
944.555
944.555
944.555
944.555
944.555
944.555
944.555
944.555
944.555
944.555
944.555
944.555
944.555
944.555
944.555
944.555
944.555
944.555
944.555
944.555
944.555
944.555
944.555
944.555
944.555
944.555
944.555
944.555
944.555
944.555
944.555
944.555
944.555
944.555
944.555
944.555
944.555
944.555
944.555
944.555
944.555
944.555
944.555
944.555
944.555
944.555
944.555
944.555
944.555
944.555
944.555
944.555
944.555
944.555
944.555
944.555
944.555
944.555
944.555
944.555
944.555
944.555
944.555
944.555
944.555
944.555
944.555
944.555
944.555
944.555
944.555
944.555
944.555
944.555
944.555
944.555
944.555
944.555
944.555
944.555
944.555
944.555
944.555
944.555
944.555
944.555
944.555
944.555
944.555
944.555
944.555
944.555
944.555
944.555
944.555
944.555
944.555
944.555
944.555
944.555
944.555
944.555
944.555
944.555
944.555
944.555
944.555
944.555
944.555
944.555
944.555
944.555
944.555
944.555
944.555
944.555
944.555
944.555
944.555
944.555
944.555
944.555
944.555
944.555
944.555
944.555
944.555
944.555
944.555
944.555
944.555
944.555
944.555
944.555
944.555
944.555
944.555
944.555
944.555
944.555
944.555
944.555
944.555
944.555
944.555
944.555
944.555
944.555
944.555
944.555
944.555
944.555
944.555
944.555
944.555
944.555
944.555
944.555
944.555
944.555
944.555
944.555
944.555
944.555
944.555
944.555
944.555
944.555
944.555
944.555
944.555
944.555
944.555
944.555
944.555
944.555
944.555
944.555
944.555
944.555
944.555
944.555
944.555
944.555
944.555
944.555
944.555
944.555
944.555
944.555
944.555
944.555
944.555
944.555
944.555
944.555
944.555
944.555
944.555
944.555
944.555
944.555
944.555
944.555
944.555
944.555
944.555
944.555
944.555
944.555
944.555
944.555
944.555
944.555
944.555
944.555
944.555
944.555
944.555
944.555
944.555
944.555
944.555
944.555
944.555
944.555
944.555
944.555
944.555
944.555
944.555
944.555
944.555
944.555
944.555
944.555
944.555
944.555
944.555
944.555
944.555
944.555
944.555
944.555
944.555
944.555
944.555
944.555
944.555
944.555
944.555
944.555
944.555
944.555
944.555
944.555
944.555
944.555
944.555
944.555
944.555
944.555
944.555
944.555
944.555
944.555
944.555
944.555
944.555
944.555
944.555
944.555
944.555
944.555
944.555
944.555
944.555
944.555
944.555
944.555
944.555
944.555
944.555
944.555
944.555
944.555
944.555
944.555
944.555
944.555
944.555
944.555
944.555
944.555
944.555
944.555
944.555
944.555
944.555
944.555
944.555
944.555
944.555
944.555
944.555
944.555
944.555
944.555
944.555
944.555
944.555
944.555
944.555
944.555
944.555
944.555
944.555
944.555
944.555
944.555
944.555
944.555
944.555
944.555
944.555
944.555
944.555
944.555
944.555
944.555
944.555
944.555
944.555
944.555
944.555
944.555
944.555
944.555
944.555
944.555
944.555
944.555
944.555
944.555
944.555
944.555
944.555
944.555
944.555
944.555
944.555
944.555
944.555
944.555
944.555
944.555
944.555
944.555
944.555
944.555
944.555
944.555
944.555
944.555
944.555
944.555
944.555
944.555
944.555
944.555
944.555
944.555
944.555
944.555
944.555
944.555
944.555
944.555
944.555
944.555
944.555
944.555
944.555
944.555
944.555
944.555
944.555
944.555
944.555
944.555
944.555
944.555
944.555
944.555
944.555
944.555
944.555
944.555
944.555
944.555
944.555
944.555
944.555
944.555
944.555
944.555
944.555
944.555
944.555
944.555
944.555
944.555
944.555
944.555
944.555
944.555
944.555
944.555
944.555
944.555
944.555
944.555
944.555
944.555
944.555
944.555
944.555
944.555
944.555
944.555
944.555
944.555
944.555
944.555
944.555
944.555
944.555
944.555
944.555
944.555
944.555
944.555
944.555
944.555
944.555
944.555
944.555
944.555
944.555
944.555
944.555
944.555
944.555
944.555
944.555
944.555
944.555
944.555
944.555
944.555
944.555
944.555
944.555
944.555
944.555
944.555
944.555
944.555
944.555
944.555
944.555
944.555
944.555
944.555
944.555
944.555
944.555
944.555
944.555
944.555
944.555
944.555
944.555
944.555
944.555
944.555
944.555
944.555
944.555
944.555
944.555
944.555
944.555
944.555
944.555
944.555
944.555
944.555
944.555
944.555
944.555
944.555
944.555
944.555
944.555
944.555
944.555
944.555
944.555
944.555
944.555
944.555
944.555
944.555
944.555
944.555
944.555
944.555
944.555
944.555
944.555
944.555
944.555
944.555
944.555
944.555
944.555
944.555
944.555
944.555
944.555
944.555
944.555
944.555
944.555
944.555
944.555
944.555
944.555
944.555
944.555
944.555
944.555
944.555
944.555
944.555
944.555
944.555
944.555
944.555
944.555
944.555
944.555
944.555
944.555
944.555
944.555
944.555
944.555
944.555
944.555
944.555
944.555
944.555
944.555
944.555
944.555
944.555
944.555
944.555
944.555
944.555
944.555
944.555
944.555
944.555
944.555
944.555
944.555
944.555
944.555
944.555
944.555
944.555
944.555
944.555
944.555
944.555
944.555
944.555
944.555
944.555
944.555
944.555
944.555
944.555
944.555
944.555
944.555
944.555
944.555
944.555
944.555
944.555
944.555
944.555
944.555
944.555
944.555
944.555
944.555
944.555
944.555
944.555
944.555
944.555
944.555
944.555
944.555
944.555
944.555
944.555
944.555
944.555
944.555
944.555
944.555
944.555
944.555
944.555
944.555
944.555
944.555
944.555
944.555
944.555
944.555
944.555
944.555
944.555
944.555
944.555
944.555
944.555
944.555
944.555
944.555
944.555
944.555
944.555
944.555
944.555
944.555
944.555
944.555
944.555
944.555
944.555
944.555
944.555
944.555
944.555
944.555
944.555
944.555
944.555
944.555
944.555
944.555
944.555
944.555
944.555
944.555
944.555
944.555
944.555
944.555
944.555
944.555
944.555
944.555
944.555
944.555
944.555
944.555
944.555
944.555
944.555
944.555
944.555
944.555
944.555
944.555
944.555
944.555
944.555
944.555
944.555
944.555
944.555
944.555
944.555
944.555
944.555
944.555
944.555
944.555
944.555
944.555
944.555
944.555
944.555
944.555
944.555
944.555
944.555
944.555
944.555
944.555
944.555
944.555
944.555
944.555
944.555
944.555
944.555
944.555
944.555
944.555
944.555
944.555
944.555
944.555
944.555
944.555
944.555
944.555
944.555
944.555
944.555
944.555
944.555
944.555
944.555
944.555
944.555
944.555
944.555
944.555
944.555
944.555
944.555
944.555
944.555
944.555
944.555
944.555
944.555
944.555
944.555
944.555
944.555
944.555
944.555
944.555
944.555
944.555
944.555
944.555
944.555
944.555
944.555
944.555
944.555
944.555
944.555
944.555
944.555
944.555
944.555
944.555
944.555
944.555
944.555
944.555
944.555
944.555
944.555
944.555
944.555
944.555
944.555
944.555
944.555
944.555
944.555
944.555
944.555
944.555
944.555
944.555
944.555
944.555
944.555
944.555
944.555
944.555
944.555
944.555
944.555
944.555
944.555
944.555
944.555
944.555
944.555
944.555
944.555
944.555
944.555
944.555
944.555
944.555
944.555
944.555
944.555
944.555
944.555
944.555
944.555
944.555
944.555
944.555
944.555
944.555
944.555
944.555
944.555
944.555
944.555
944.555
944.555
944.555
944.555
944.555
944.555
944.555
944.555
944.555
944.555
944.555
944.555
944.555
944.555
944.555
944.555
944.555
944.555
944.555
944.555
944.555
944.555
944.555
944.555
944.555
944.555
944.555
944.555
944.555
944.555
944.555
944.555
944.555
944.555
944.555
944.555
944.555
944.555
944.555
944.555
944.555
944.555
944.555
944.555
944.555
944.555
944.555
944.555
944.555
944.555
944.555
944.555
944.555
944.555
944.555
944.555
944.555
944.555
944.555
944.555
944.555
944.555
944.555
944.555
944.555
944.555
944.555
944.555
944.555
944.555
944.555
944.555
944.555
944.555
944.555
944.555
944.555
944.555
944.555
944.555
944.555
944.555
944.555
944.555
944.555
944.555
944.555
944.555
944.555
944.555
944.555
944.555
944.555
944.555
944.555
944.555
944.555
944.555
944.555
944.555
944.555
944.555
944.555
944.555
944.555
944.555
944.555
944.555
944.555
944.555
944.555
944.555
944.555
944.555
944.555
944.555
944.555
944.555
944.555
944.555
944.555
944.555
944.555
944.555
944.555
944.555
944.555
944.555
944.555
944.555
944.555
944.555
944.555
944.555
944.555
944.555
944.555
944.555
944.555
944.555
944.555
944.555
944.555
944.555
944.555
944.555
944.555
944.555
944.555
944.555
944.555
944.555
944.555
944.555
944.555
944.555
944.555
944.555
944.555
944.555
944.555
944.555
944.555
944.555
944.555
944.555
944.555
944.555
944.555
944.555
944.555
944.555
944.555
944.555
944.555
944.555
944.555
944.555
944.555
944.555
944.555
944.555
944.555
944.555
944.555
944.555
944.555
944.555
944.555
944.555
944.555
944.555
944.555
944.555
944.555
944.555
944.555
944.555
944.555
944.555
944.555
944.555
944.555
944.555
944.555
944.555
944.555
944.555
944.555
944.555
944.555
944.555
944.555
944.555
944.555
944.555
944.555
944.555
944.555
944.555
944.555
944.555
944.555
944.555
944.555
944.555
944.555
944.555
944.555
944.555
944.555
944.555
944.555
944.555
944.555
944.555
944.555
944.555
944.555
944.555
944.555
944.555
944.555
944.555
944.555
944.555
944.555
944.555
944.555
944.555
944.555
944.555
944.555
944.555
944.555
944.555
944.555
944.555
944.555
944.555
944.555
944.555
944.555
944.555
944.555
944.555
944.555
944.555
944.555
944.555
944.555
944.555
944.555
944.555
944.555
944.555
944.555
944.555
944.555
944.555
944.555
944.555
944.555
944.555
944.555
944.555
944.555
944.555
944.555
944.555
944.555
944.555
944.555
944.555
944.555
944.555
944.555
944.555
944.555
944.555
944.555
944.555
944.555
944.555
944.555
944.555
944.555
944.555
944.555
944.555
944.555
944.555
944.555
944.555
944.555
944.555
944.555
944.555
944.555
944.555
944.555
944.555
944.555
944.555
944.555
944.555
944.555
944.555
944.555
944.555
944.555
944.555
944.555
944.555
944.555
944.555
944.555
944.555
944.555
944.555
944.555
944.555
944.555
944.555
944.555
944.555
944.555
944.555
944.555
944.555
944.555
944.555
944.555
944.555
944.555
944.555
944.555
944.555
944.555
944.555
944.555
944.555
944.555
944.555
944.555
944.555
944.555
944.555
944.555
944.555
944.555
944.555
944.555
944.555
944.555
944.555
944.555
944.555
944.555
944.555
944.555
944.555
944.555
944.555
944.555
944.555
944.555
944.555
944.555
944.555
944.555
944.555
944.555
944.555
944.555
944.555
944.555
944.555
944.555
944.555
944.556
944.555
944.555
944.555
944.555
944.555
944.555
944.555
944.555
944.555
944.555
944.555
944.555
944.555
944.555
944.555
944.555
944.555
944.555
944.556
944.556
944.555
944.555
944.555
944.555
944.555
944.555
944.555
944.555
944.555
944.555
944.555
944.555
944.555
944.555
944.555
944.555
944.555
944.555
944.556
944.558
944.555
944.555
944.555
944.555
944.555
944.555
944.555
944.555
944.555
944.555
944.555
944.555
944.555
944.555
944.555
944.555
944.555
944.555
944.558
944.559
944.556
944.555
944.555
944.555
944.555
944.555
944.555
944.555
944.555
944.555
944.555
944.555
944.555
944.555
944.555
944.555
944.555
944.556
944.559
944.562
944.556
944.555
944.555
944.555
944.555
944.555
944.555
944.555
944.555
944.555
944.555
944.555
944.555
944.555
944.555
944.555
944.555
944.556
944.562
944.566
944.557
944.555
944.555
944.555
944.555
944.555
944.555
944.555
944.555
944.555
944.555
944.555
944.555
944.555
944.555
944.555
944.555
944.557
944.566
944.572
944.558
944.556
944.555
944.555