/*--------------------------------*- C++ -*----------------------------------*\
| =========                 |                                                 |
| \\      /  F ield         | OpenFOAM: The Open Source CFD Toolbox           |
|  \\    /   O peration     | Version:  2.1.0                                 |
|   \\  /    A nd           | Web:      www.OpenFOAM.org                      |
|    \\/     M anipulation  |                                                 |
\*---------------------------------------------------------------------------*/
FoamFile
{
    version     2.0;
    format      ascii;
    class       volScalarField;
    location    "0.24";
    object      T;
}
// * * * * * * * * * * * * * * * * * * * * * * * * * * * * * * * * * * * * * //

dimensions      [0 0 0 1 0 0 0];

internalField   nonuniform List<scalar> 
6400
(
293.161
293.163
293.164
293.167
293.169
293.172
293.175
293.179
293.183
293.188
293.193
293.199
293.206
293.214
293.222
293.232
293.243
293.255
293.268
293.284
293.3
293.319
293.34
293.363
293.389
293.418
293.449
293.484
293.523
293.565
293.612
293.664
293.72
293.782
293.849
293.923
294.004
294.092
294.187
294.29
294.403
294.524
294.655
294.796
294.947
295.11
295.284
295.471
295.67
295.882
296.108
296.348
296.603
296.874
297.161
297.467
297.79
298.132
298.493
298.875
299.278
299.702
300.148
300.618
301.111
301.629
302.173
302.742
303.338
303.961
304.614
305.296
306.01
306.756
307.536
308.352
309.206
310.101
311.037
312.018
313.044
314.117
315.235
316.395
317.59
318.807
320.021
321.199
322.277
323.151
323.623
323.305
321.433
316.837
309.634
312.006
338.829
368.137
379.759
383.075
293.182
293.187
293.192
293.198
293.205
293.213
293.222
293.232
293.243
293.255
293.27
293.285
293.303
293.323
293.345
293.37
293.397
293.428
293.462
293.5
293.541
293.588
293.639
293.695
293.757
293.825
293.901
293.983
294.074
294.173
294.281
294.399
294.528
294.668
294.821
294.987
295.166
295.361
295.571
295.799
296.044
296.307
296.591
296.895
297.22
297.568
297.94
298.336
298.757
299.206
299.683
300.19
300.728
301.298
301.902
302.541
303.217
303.929
304.681
305.474
306.308
307.186
308.108
309.076
310.093
311.158
312.274
313.443
314.666
315.943
317.278
318.67
320.121
321.631
323.202
324.833
326.523
328.272
330.078
331.937
333.847
335.802
337.797
339.824
341.876
343.942
346.013
348.079
350.135
352.182
354.243
356.377
358.709
361.456
364.883
369.041
373.989
379.155
382.617
384.543
293.209
293.218
293.228
293.239
293.251
293.265
293.281
293.299
293.319
293.341
293.366
293.394
293.425
293.46
293.499
293.542
293.59
293.643
293.701
293.766
293.838
293.917
294.004
294.099
294.204
294.319
294.446
294.584
294.734
294.899
295.078
295.273
295.486
295.716
295.965
296.235
296.527
296.842
297.181
297.547
297.94
298.362
298.815
299.3
299.818
300.372
300.963
301.592
302.261
302.972
303.728
304.528
305.376
306.272
307.217
308.214
309.264
310.367
311.527
312.743
314.017
315.351
316.744
318.199
319.715
321.294
322.936
324.642
326.411
328.242
330.136
332.091
334.105
336.174
338.296
340.466
342.677
344.922
347.194
349.48
351.771
354.054
356.316
358.544
360.725
362.848
364.9
366.874
368.762
370.56
372.27
373.896
375.45
376.948
378.41
379.846
381.389
383.045
384.567
385.872
293.249
293.263
293.279
293.297
293.318
293.34
293.366
293.395
293.427
293.463
293.503
293.548
293.598
293.654
293.716
293.785
293.861
293.946
294.039
294.142
294.256
294.381
294.518
294.669
294.835
295.016
295.214
295.431
295.667
295.924
296.203
296.507
296.836
297.192
297.577
297.994
298.442
298.926
299.445
300.004
300.602
301.243
301.929
302.661
303.442
304.275
305.16
306.1
307.097
308.151
309.265
310.438
311.673
312.97
314.33
315.754
317.241
318.792
320.405
322.081
323.818
325.614
327.468
329.377
331.338
333.347
335.4
337.492
339.618
341.771
343.945
346.132
348.323
350.51
352.682
354.831
356.945
359.016
361.032
362.986
364.87
366.675
368.398
370.034
371.579
373.034
374.398
375.672
376.86
377.967
378.996
379.955
380.852
381.698
382.505
383.282
384.101
384.971
385.881
386.838
293.305
293.327
293.352
293.379
293.411
293.446
293.485
293.529
293.578
293.634
293.695
293.764
293.84
293.925
294.019
294.123
294.239
294.366
294.507
294.663
294.834
295.023
295.23
295.457
295.705
295.976
296.273
296.595
296.947
297.328
297.742
298.191
298.676
299.2
299.764
300.372
301.025
301.726
302.476
303.278
304.133
305.045
306.014
307.042
308.132
309.283
310.497
311.775
313.116
314.522
315.99
317.521
319.114
320.765
322.475
324.239
326.054
327.918
329.824
331.77
333.751
335.759
337.79
339.838
341.896
343.957
346.015
348.063
350.093
352.099
354.074
356.011
357.903
359.746
361.535
363.263
364.929
366.53
368.063
369.527
370.922
372.249
373.508
374.701
375.83
376.897
377.904
378.853
379.748
380.589
381.381
382.125
382.823
383.479
384.095
384.677
385.264
385.866
386.494
387.152
293.381
293.413
293.449
293.49
293.536
293.587
293.644
293.708
293.78
293.86
293.949
294.047
294.157
294.279
294.414
294.563
294.728
294.91
295.109
295.329
295.57
295.834
296.123
296.439
296.783
297.158
297.565
298.007
298.485
299.002
299.56
300.161
300.807
301.5
302.242
303.035
303.88
304.779
305.734
306.746
307.815
308.942
310.128
311.372
312.674
314.034
315.45
316.92
318.443
320.017
321.638
323.304
325.011
326.755
328.532
330.337
332.167
334.016
335.879
337.752
339.63
341.506
343.378
345.239
347.086
348.912
350.715
352.489
354.231
355.937
357.604
359.23
360.812
362.348
363.837
365.279
366.672
368.016
369.313
370.561
371.762
372.917
374.026
375.092
376.115
377.097
378.039
378.941
379.804
380.627
381.411
382.153
382.851
383.501
384.1
384.643
385.157
385.642
386.082
386.423
293.472
293.515
293.564
293.619
293.68
293.749
293.825
293.91
294.005
294.111
294.227
294.356
294.499
294.657
294.83
295.021
295.23
295.46
295.711
295.985
296.284
296.609
296.962
297.344
297.758
298.205
298.686
299.205
299.761
300.356
300.993
301.672
302.395
303.163
303.977
304.837
305.744
306.698
307.7
308.749
309.845
310.988
312.175
313.407
314.682
315.997
317.352
318.743
320.17
321.628
323.116
324.63
326.168
327.726
329.303
330.893
332.496
334.106
335.722
337.341
338.959
340.574
342.182
343.782
345.37
346.944
348.501
350.04
351.558
353.054
354.527
355.975
357.398
358.793
360.162
361.504
362.818
364.106
365.366
366.599
367.807
368.989
370.146
371.28
372.391
373.48
374.547
375.591
376.611
377.605
378.567
379.491
380.367
381.183
381.924
382.564
383.117
383.574
383.874
383.869
293.549
293.601
293.658
293.723
293.795
293.875
293.963
294.061
294.168
294.287
294.418
294.561
294.719
294.891
295.079
295.283
295.506
295.748
296.01
296.293
296.599
296.928
297.282
297.662
298.069
298.504
298.967
299.46
299.984
300.538
301.124
301.742
302.392
303.076
303.792
304.541
305.323
306.138
306.986
307.865
308.776
309.717
310.689
311.69
312.719
313.775
314.857
315.965
317.096
318.25
319.425
320.62
321.833
323.063
324.308
325.567
326.839
328.121
329.411
330.709
332.013
333.32
334.629
335.939
337.248
338.554
339.857
341.155
342.447
343.732
345.009
346.278
347.538
348.79
350.033
351.267
352.494
353.713
354.927
356.139
357.351
358.565
359.785
361.012
362.251
363.504
364.772
366.058
367.36
368.675
369.998
371.316
372.612
373.863
375.037
376.083
376.911
377.538
377.834
377.523
293.57
293.621
293.678
293.741
293.811
293.887
293.971
294.063
294.163
294.273
294.392
294.521
294.661
294.813
294.977
295.153
295.343
295.547
295.765
295.998
296.246
296.511
296.792
297.09
297.406
297.74
298.091
298.462
298.852
299.261
299.689
300.138
300.606
301.095
301.604
302.133
302.683
303.253
303.844
304.455
305.086
305.737
306.408
307.099
307.808
308.536
309.283
310.047
310.829
311.628
312.442
313.273
314.117
314.976
315.847
316.73
317.624
318.528
319.44
320.36
321.286
322.217
323.152
324.09
325.03
325.972
326.913
327.854
328.794
329.731
330.667
331.604
332.541
333.479
334.418
335.36
336.305
337.254
338.207
339.166
340.131
341.109
342.109
343.135
344.195
345.295
346.445
347.652
348.923
350.266
351.685
353.181
354.751
356.384
358.063
359.748
361.265
362.401
363.045
362.77
293.499
293.538
293.582
293.63
293.682
293.738
293.799
293.866
293.938
294.016
294.1
294.19
294.287
294.391
294.502
294.621
294.748
294.883
295.026
295.179
295.341
295.512
295.693
295.884
296.085
296.297
296.519
296.753
296.998
297.254
297.522
297.802
298.094
298.398
298.714
299.043
299.383
299.736
300.102
300.479
300.869
301.27
301.683
302.108
302.543
302.99
303.447
303.915
304.393
304.881
305.378
305.883
306.397
306.918
307.446
307.979
308.518
309.061
309.607
310.155
310.705
311.255
311.805
312.354
312.901
313.447
313.989
314.529
315.064
315.596
316.122
316.64
317.149
317.651
318.144
318.629
319.106
319.577
320.044
320.507
320.971
321.433
321.89
322.342
322.788
323.24
323.707
324.196
324.711
325.261
325.85
326.486
327.175
327.926
328.749
329.663
330.692
331.727
332.424
332.375
293.371
293.394
293.42
293.448
293.478
293.511
293.546
293.585
293.626
293.67
293.718
293.77
293.825
293.883
293.946
294.013
294.085
294.161
294.242
294.327
294.418
294.513
294.615
294.721
294.833
294.951
295.075
295.205
295.34
295.482
295.63
295.784
295.944
296.111
296.283
296.462
296.647
296.838
297.035
297.238
297.446
297.661
297.881
298.107
298.339
298.575
298.816
299.061
299.311
299.564
299.82
300.079
300.341
300.604
300.869
301.135
301.4
301.666
301.93
302.193
302.454
302.712
302.966
303.215
303.457
303.693
303.919
304.136
304.341
304.534
304.713
304.877
305.025
305.156
305.269
305.363
305.438
305.492
305.526
305.539
305.532
305.505
305.458
305.392
305.31
305.202
305.06
304.88
304.667
304.42
304.136
303.808
303.432
303
302.506
301.944
301.312
300.614
299.867
299.115
293.271
293.283
293.297
293.311
293.326
293.343
293.361
293.38
293.401
293.423
293.447
293.472
293.499
293.528
293.559
293.591
293.626
293.663
293.702
293.743
293.786
293.832
293.88
293.931
293.984
294.04
294.098
294.159
294.223
294.289
294.358
294.43
294.504
294.581
294.66
294.742
294.826
294.913
295.001
295.092
295.185
295.28
295.376
295.473
295.572
295.673
295.774
295.876
295.978
296.081
296.184
296.286
296.388
296.489
296.589
296.688
296.784
296.878
296.968
297.056
297.139
297.217
297.29
297.357
297.418
297.471
297.515
297.551
297.577
297.592
297.596
297.588
297.567
297.534
297.487
297.426
297.352
297.265
297.164
297.05
296.925
296.788
296.642
296.488
296.326
296.159
295.99
295.82
295.643
295.457
295.264
295.067
294.868
294.668
294.469
294.275
294.089
293.918
293.769
293.649
293.213
293.219
293.226
293.233
293.24
293.249
293.257
293.267
293.276
293.287
293.298
293.31
293.323
293.336
293.35
293.365
293.381
293.398
293.415
293.433
293.452
293.472
293.493
293.515
293.537
293.561
293.585
293.61
293.635
293.662
293.689
293.717
293.746
293.775
293.805
293.835
293.866
293.897
293.929
293.96
293.993
294.025
294.057
294.089
294.121
294.152
294.184
294.215
294.245
294.274
294.303
294.331
294.357
294.382
294.406
294.428
294.448
294.466
294.482
294.495
294.506
294.513
294.517
294.518
294.515
294.508
294.496
294.48
294.46
294.435
294.405
294.37
294.331
294.288
294.24
294.188
294.132
294.074
294.013
293.95
293.887
293.822
293.759
293.697
293.637
293.579
293.525
293.475
293.43
293.39
293.354
293.32
293.29
293.262
293.238
293.218
293.2
293.187
293.176
293.169
293.181
293.184
293.188
293.191
293.195
293.198
293.203
293.207
293.211
293.216
293.221
293.227
293.233
293.239
293.245
293.251
293.258
293.265
293.273
293.281
293.289
293.297
293.305
293.314
293.323
293.332
293.341
293.351
293.36
293.37
293.38
293.389
293.399
293.409
293.419
293.428
293.438
293.448
293.457
293.466
293.475
293.484
293.492
293.5
293.508
293.515
293.522
293.528
293.534
293.539
293.543
293.547
293.55
293.553
293.554
293.555
293.554
293.553
293.551
293.547
293.543
293.537
293.531
293.523
293.514
293.503
293.492
293.479
293.465
293.451
293.435
293.418
293.401
293.383
293.365
293.346
293.328
293.31
293.292
293.275
293.258
293.243
293.228
293.215
293.204
293.193
293.184
293.177
293.171
293.166
293.162
293.159
293.157
293.155
293.153
293.152
293.152
293.151
293.151
293.15
293.165
293.167
293.168
293.17
293.172
293.173
293.175
293.177
293.179
293.181
293.184
293.186
293.189
293.191
293.194
293.197
293.2
293.202
293.205
293.209
293.212
293.215
293.218
293.222
293.225
293.228
293.232
293.235
293.238
293.241
293.245
293.248
293.251
293.254
293.257
293.26
293.262
293.265
293.267
293.269
293.271
293.273
293.275
293.276
293.277
293.278
293.279
293.28
293.28
293.28
293.279
293.278
293.277
293.276
293.274
293.272
293.27
293.267
293.265
293.261
293.258
293.254
293.25
293.246
293.241
293.236
293.231
293.226
293.221
293.216
293.21
293.205
293.199
293.194
293.189
293.184
293.18
293.175
293.171
293.168
293.165
293.162
293.159
293.157
293.155
293.154
293.153
293.152
293.151
293.151
293.151
293.15
293.15
293.15
293.15
293.15
293.15
293.15
293.15
293.15
293.158
293.158
293.159
293.16
293.16
293.161
293.162
293.163
293.164
293.165
293.166
293.167
293.168
293.169
293.17
293.171
293.173
293.174
293.175
293.176
293.178
293.179
293.18
293.181
293.183
293.184
293.185
293.186
293.187
293.188
293.189
293.19
293.191
293.192
293.193
293.194
293.194
293.195
293.195
293.196
293.196
293.196
293.196
293.196
293.196
293.196
293.196
293.195
293.195
293.194
293.193
293.192
293.191
293.19
293.189
293.188
293.187
293.185
293.184
293.182
293.18
293.179
293.177
293.175
293.174
293.172
293.17
293.168
293.167
293.165
293.163
293.162
293.16
293.159
293.157
293.156
293.155
293.154
293.153
293.153
293.152
293.152
293.151
293.151
293.151
293.15
293.15
293.15
293.15
293.15
293.15
293.15
293.15
293.15
293.15
293.15
293.15
293.15
293.15
293.15
293.154
293.154
293.154
293.155
293.155
293.155
293.156
293.156
293.157
293.157
293.157
293.158
293.158
293.159
293.159
293.16
293.16
293.161
293.161
293.162
293.162
293.163
293.163
293.164
293.164
293.165
293.165
293.166
293.166
293.166
293.167
293.167
293.167
293.168
293.168
293.168
293.168
293.168
293.168
293.168
293.168
293.168
293.168
293.168
293.167
293.167
293.167
293.166
293.166
293.166
293.165
293.165
293.164
293.164
293.163
293.162
293.162
293.161
293.161
293.16
293.159
293.159
293.158
293.157
293.157
293.156
293.155
293.155
293.154
293.154
293.153
293.153
293.152
293.152
293.152
293.151
293.151
293.151
293.151
293.15
293.15
293.15
293.15
293.15
293.15
293.15
293.15
293.15
293.15
293.15
293.15
293.15
293.15
293.15
293.15
293.15
293.15
293.15
293.15
293.15
293.152
293.152
293.152
293.152
293.152
293.152
293.153
293.153
293.153
293.153
293.153
293.154
293.154
293.154
293.154
293.154
293.155
293.155
293.155
293.155
293.156
293.156
293.156
293.156
293.156
293.156
293.157
293.157
293.157
293.157
293.157
293.157
293.157
293.157
293.157
293.157
293.157
293.157
293.157
293.157
293.157
293.157
293.157
293.157
293.157
293.157
293.156
293.156
293.156
293.156
293.156
293.155
293.155
293.155
293.155
293.154
293.154
293.154
293.154
293.153
293.153
293.153
293.153
293.152
293.152
293.152
293.152
293.151
293.151
293.151
293.151
293.151
293.151
293.151
293.15
293.15
293.15
293.15
293.15
293.15
293.15
293.15
293.15
293.15
293.15
293.15
293.15
293.15
293.15
293.15
293.15
293.15
293.15
293.15
293.15
293.15
293.15
293.15
293.15
293.15
293.151
293.151
293.151
293.151
293.151
293.151
293.151
293.151
293.151
293.151
293.151
293.151
293.152
293.152
293.152
293.152
293.152
293.152
293.152
293.152
293.152
293.152
293.152
293.152
293.153
293.153
293.153
293.153
293.153
293.153
293.153
293.153
293.153
293.153
293.153
293.153
293.153
293.153
293.153
293.153
293.153
293.153
293.153
293.153
293.153
293.152
293.152
293.152
293.152
293.152
293.152
293.152
293.152
293.152
293.152
293.152
293.151
293.151
293.151
293.151
293.151
293.151
293.151
293.151
293.151
293.151
293.151
293.15
293.15
293.15
293.15
293.15
293.15
293.15
293.15
293.15
293.15
293.15
293.15
293.15
293.15
293.15
293.15
293.15
293.15
293.15
293.15
293.15
293.15
293.15
293.15
293.15
293.15
293.15
293.15
293.15
293.15
293.15
293.15
293.15
293.15
293.15
293.15
293.15
293.15
293.15
293.15
293.15
293.15
293.15
293.15
293.15
293.15
293.15
293.15
293.15
293.15
293.151
293.151
293.151
293.151
293.151
293.151
293.151
293.151
293.151
293.151
293.151
293.151
293.151
293.151
293.151
293.151
293.151
293.151
293.151
293.151
293.151
293.151
293.151
293.151
293.151
293.151
293.151
293.151
293.151
293.151
293.151
293.151
293.151
293.151
293.151
293.15
293.15
293.15
293.15
293.15
293.15
293.15
293.15
293.15
293.15
293.15
293.15
293.15
293.15
293.15
293.15
293.15
293.15
293.15
293.15
293.15
293.15
293.15
293.15
293.15
293.15
293.15
293.15
293.15
293.15
293.15
293.15
293.15
293.15
293.15
293.15
293.15
293.15
293.15
293.15
293.15
293.15
293.15
293.15
293.15
293.15
293.15
293.15
384.067
389.14
390.124
390.217
390.07
389.842
389.563
389.226
388.81
388.273
387.554
386.56
385.153
383.136
380.229
376.065
370.138
361.688
349.511
331.163
385.907
389.303
389.895
389.834
389.588
389.265
388.879
388.416
387.841
387.104
386.129
384.808
382.985
380.451
376.925
372.051
365.319
355.984
342.838
323.015
387.331
389.268
389.485
389.262
388.893
388.441
387.905
387.259
386.461
385.447
384.132
382.391
380.06
376.927
372.727
367.101
359.542
349.33
335.259
314.262
388.026
388.879
388.765
388.363
387.831
387.196
386.444
385.539
384.43
383.047
381.293
379.04
376.124
372.346
367.444
361.063
352.723
341.74
326.973
306.004
387.826
387.928
387.507
386.881
386.118
385.218
384.156
382.891
381.368
379.517
377.244
374.418
370.891
366.471
360.9
353.845
344.863
333.377
318.433
299.579
386.459
386.011
385.255
384.318
383.214
381.933
380.444
378.71
376.686
374.321
371.508
368.131
364.053
359.083
352.975
345.424
336.075
324.527
310.265
295.699
383.177
382.227
381.042
379.663
378.092
376.319
374.327
372.099
369.624
366.813
363.566
359.775
355.312
349.988
343.584
335.865
326.603
315.587
303.17
293.946
376.041
374.565
372.881
371.014
368.98
366.794
364.463
361.963
359.241
356.183
352.739
348.804
344.273
338.967
332.742
325.4
316.8
307.155
297.873
293.359
360.887
359.111
357.195
355.172
353.083
350.958
348.735
346.362
343.751
340.9
337.764
334.277
330.343
325.824
320.527
314.296
307.21
300.132
294.847
293.22
331.087
329.836
328.507
327.148
325.784
324.413
322.933
321.378
319.739
318.032
316.191
314.215
311.978
309.417
306.309
302.628
298.717
295.422
293.567
293.193
298.537
298.44
298.303
298.134
297.901
297.569
297.24
296.903
296.566
296.21
295.845
295.453
295.036
294.583
294.17
293.835
293.583
293.36
293.189
293.157
293.589
293.595
293.596
293.593
293.581
293.554
293.52
293.478
293.439
293.398
293.359
293.319
293.28
293.241
293.21
293.188
293.174
293.162
293.152
293.151
293.167
293.168
293.17
293.171
293.172
293.173
293.172
293.17
293.168
293.165
293.162
293.159
293.157
293.155
293.153
293.152
293.151
293.151
293.15
293.15
293.15
293.15
293.15
293.151
293.151
293.151
293.151
293.151
293.151
293.151
293.151
293.15
293.15
293.15
293.15
293.15
293.15
293.15
293.15
293.15
293.15
293.15
293.15
293.15
293.15
293.15
293.15
293.15
293.15
293.15
293.15
293.15
293.15
293.15
293.15
293.15
293.15
293.15
293.15
293.15
293.15
293.15
293.15
293.15
293.15
293.15
293.15
293.15
293.15
293.15
293.15
293.15
293.15
293.15
293.15
293.15
293.15
293.15
293.15
293.15
293.15
293.15
293.15
293.15
293.15
293.15
293.15
293.15
293.15
293.15
293.15
293.15
293.15
293.15
293.15
293.15
293.15
293.15
293.15
293.15
293.15
293.15
293.15
293.15
293.15
293.15
293.15
293.15
293.15
293.15
293.15
293.15
293.15
293.15
293.15
293.15
293.15
293.15
293.15
293.15
293.15
293.15
293.15
293.15
293.15
293.15
293.15
293.15
293.15
293.15
293.15
293.15
293.15
293.15
293.15
293.15
293.15
293.15
293.15
293.15
293.15
293.15
293.15
293.15
293.15
293.15
293.15
293.15
293.15
293.15
293.15
293.15
293.15
293.15
293.15
293.15
293.15
293.15
293.15
293.15
393.15
393.15
393.15
393.15
393.15
393.15
393.15
393.15
393.15
393.15
393.15
393.15
393.15
393.15
393.15
393.15
393.15
393.15
393.15
393.15
393.15
393.15
393.15
393.15
393.15
393.15
393.15
393.15
393.15
393.15
393.15
393.15
393.15
393.15
393.15
393.15
393.15
393.15
393.15
393.15
393.15
393.15
393.15
393.15
393.15
393.15
393.15
393.15
393.15
393.15
393.15
393.15
393.15
393.15
393.15
393.15
393.15
393.15
393.15
393.15
393.15
393.15
393.15
393.15
393.15
393.15
393.15
393.15
393.15
393.15
393.15
393.15
393.15
393.15
393.15
393.15
393.15
393.15
393.15
393.15
393.15
393.15
393.15
393.15
393.15
393.15
393.15
393.15
393.15
393.15
393.15
393.15
393.15
393.15
393.15
393.15
393.15
393.15
393.15
393.15
393.15
393.15
393.15
393.15
393.15
393.15
393.15
393.15
393.15
393.15
393.15
393.15
393.15
393.15
393.15
393.15
393.15
393.15
393.15
393.15
393.15
393.15
393.15
393.15
393.15
393.15
393.15
393.15
393.15
393.15
393.15
393.15
393.15
393.15
393.15
393.15
393.15
393.15
393.15
393.15
393.15
393.15
393.15
393.15
393.15
393.15
393.15
393.15
393.15
393.15
393.15
393.15
393.15
393.15
393.15
393.15
393.15
393.15
393.15
393.15
393.15
393.15
393.15
393.15
393.15
393.15
393.15
393.15
393.15
393.15
393.15
393.15
393.15
393.15
393.15
393.15
393.15
393.15
393.15
393.15
393.15
393.15
393.15
393.15
393.15
393.15
393.15
393.15
393.15
393.15
393.15
393.15
393.15
393.15
393.15
393.15
393.15
393.15
393.15
393.15
393.15
393.15
393.15
393.15
393.15
393.15
393.15
393.15
393.15
393.15
393.15
393.15
393.15
393.15
393.15
393.15
393.15
393.15
393.15
393.15
393.15
393.15
393.15
393.15
393.15
393.15
393.15
393.15
393.15
393.15
393.15
393.15
393.15
393.15
393.15
393.15
393.15
393.15
393.15
393.15
393.15
393.15
393.15
393.15
393.15
393.15
393.15
393.15
393.15
393.15
393.15
393.15
393.15
393.15
393.15
393.15
393.15
393.15
393.15
393.15
393.15
393.15
393.15
393.15
393.15
393.15
393.15
393.15
393.15
393.15
393.15
393.15
393.15
393.15
393.15
393.15
393.15
393.15
393.15
393.15
393.15
393.15
393.15
393.15
393.15
393.15
393.15
393.15
393.15
393.15
393.15
393.15
393.15
393.15
393.15
393.15
393.15
393.15
393.15
393.15
393.15
393.15
393.15
393.15
393.15
393.15
393.15
393.15
393.15
393.15
393.15
393.15
393.15
393.15
393.15
393.15
393.15
393.15
393.15
393.15
393.15
393.15
393.15
393.15
393.15
393.15
393.15
393.15
393.15
393.15
393.15
393.15
393.15
393.15
393.15
393.15
393.15
393.15
393.15
393.15
393.15
393.15
393.15
393.15
393.15
393.15
393.15
393.15
393.15
393.15
393.15
393.15
393.15
393.15
393.15
393.15
393.15
393.15
393.15
393.15
393.15
393.15
393.15
393.15
393.15
393.15
393.15
393.15
393.15
393.15
393.15
393.15
393.15
393.15
393.15
393.15
393.15
393.15
393.15
393.15
393.15
393.15
393.15
393.15
393.15
393.15
393.15
393.15
393.15
393.15
393.15
393.15
393.15
393.15
393.15
393.15
393.15
393.15
393.15
393.15
393.15
393.15
393.15
393.15
393.15
393.15
393.15
393.15
393.15
393.15
393.15
393.15
393.15
393.15
393.15
393.15
393.15
393.15
393.15
393.15
393.15
393.15
393.15
393.15
393.15
393.15
393.15
393.15
393.15
393.15
393.15
393.15
393.15
393.15
393.15
393.15
393.15
393.15
393.15
393.15
393.15
393.15
393.15
393.15
393.15
393.15
393.15
393.15
393.15
393.15
393.15
393.15
393.15
393.15
393.15
393.15
393.15
393.15
393.15
393.15
393.15
393.15
393.15
393.15
393.15
393.15
393.15
393.15
393.15
393.15
393.15
393.15
393.15
393.15
393.15
393.15
393.15
393.15
393.15
393.15
393.15
393.15
393.15
393.15
393.15
393.15
393.15
393.15
393.15
393.15
393.15
393.15
393.15
393.15
393.15
393.15
393.15
393.15
393.15
393.15
393.15
393.15
393.15
393.15
393.15
393.15
393.15
393.15
393.15
393.15
393.15
393.15
393.15
393.15
393.15
393.15
393.15
393.15
393.15
393.15
393.15
393.15
393.15
393.15
393.15
393.15
393.15
393.15
393.15
393.15
393.15
393.15
393.15
393.15
393.15
393.15
393.15
393.15
393.15
393.15
393.15
393.15
393.15
393.15
393.15
393.15
393.15
393.15
393.15
393.15
393.15
393.15
393.15
393.15
393.15
393.15
393.15
393.15
393.15
393.15
393.15
393.15
393.15
393.15
393.15
393.15
393.15
393.15
393.15
393.15
393.15
393.15
393.15
393.15
393.15
393.15
393.15
393.15
393.15
393.15
393.15
393.15
393.15
393.15
393.15
393.15
393.15
393.15
393.15
393.15
393.15
393.15
393.15
393.15
393.15
393.15
393.15
393.15
393.15
393.15
393.15
393.15
393.15
393.15
393.15
393.15
393.15
393.15
393.15
393.15
393.15
393.15
393.15
393.15
393.15
393.15
393.15
393.15
393.15
393.15
393.15
393.15
393.15
393.15
393.15
393.15
393.15
393.15
393.15
393.15
393.15
393.15
393.15
393.15
393.15
393.15
393.15
393.15
393.15
393.15
393.15
393.15
393.15
393.15
393.15
393.15
393.15
393.15
393.15
393.15
393.15
393.15
393.15
393.15
393.15
393.15
393.15
393.15
393.15
393.15
393.15
393.15
393.15
393.15
393.15
393.15
393.15
393.15
393.15
393.15
393.15
393.15
393.15
393.15
393.15
393.15
393.15
393.15
393.15
393.15
393.15
393.15
393.15
393.15
393.15
393.15
393.15
393.15
393.15
393.15
393.15
393.15
393.15
393.15
393.15
393.15
393.15
393.15
393.15
393.15
393.15
393.15
393.15
393.15
393.15
393.15
393.15
393.15
393.15
393.15
393.15
393.15
393.15
393.15
393.15
393.15
393.15
393.15
393.15
393.15
393.15
393.15
393.15
393.15
393.15
393.15
393.15
393.15
393.15
393.15
393.15
393.15
393.15
393.15
393.15
393.15
393.15
393.15
393.15
393.15
393.15
393.15
393.15
393.15
393.15
393.15
393.15
393.15
393.15
393.15
393.15
393.15
393.15
393.15
393.15
393.15
393.15
393.15
393.15
393.15
393.15
393.15
393.15
393.15
393.15
393.15
393.15
393.15
393.15
393.15
393.15
393.15
393.15
393.15
393.15
393.15
393.15
393.15
393.15
393.15
393.15
393.15
393.15
393.15
393.15
393.15
393.15
393.15
393.15
393.15
393.15
393.15
393.15
393.15
393.15
393.15
393.15
393.15
393.15
393.15
393.15
393.15
393.15
393.15
393.15
393.15
393.15
393.15
393.15
393.15
393.15
393.15
393.15
393.15
393.15
393.15
393.15
393.15
393.15
393.15
393.15
393.15
393.15
393.15
393.15
393.15
393.15
393.15
393.15
393.15
393.15
393.15
393.15
393.15
393.15
393.15
393.15
393.15
393.15
393.15
393.15
393.15
393.15
393.15
393.15
393.15
393.15
393.15
393.15
393.15
393.15
393.15
393.15
393.15
393.15
393.15
393.15
393.15
393.15
393.15
393.15
393.15
393.15
393.15
393.15
393.15
393.15
393.15
393.15
393.15
393.15
393.15
393.15
393.15
393.15
393.15
393.15
393.15
393.15
393.15
393.15
393.15
393.15
393.15
393.15
393.15
393.15
393.15
393.15
393.15
393.15
393.15
393.15
393.15
393.15
393.15
393.15
393.15
393.15
393.15
393.15
393.15
393.15
393.15
393.15
393.15
393.15
393.15
393.15
393.15
393.15
393.15
393.15
393.15
393.15
393.15
393.15
393.15
393.15
393.15
393.15
393.15
393.15
393.15
393.15
393.15
393.15
393.15
393.15
393.15
393.15
393.15
393.15
393.15
393.15
393.15
393.15
393.15
393.15
393.15
393.15
393.15
393.15
393.15
393.15
393.15
393.15
393.15
393.15
393.15
393.15
393.15
393.15
393.15
393.15
393.15
393.15
393.15
393.15
393.15
393.15
393.15
393.15
393.15
393.15
393.15
393.15
393.15
393.15
393.15
393.15
393.15
393.15
393.15
393.15
393.15
393.15
393.15
393.15
393.15
393.15
393.15
393.15
393.15
393.15
393.15
393.15
393.15
393.15
393.15
393.15
393.15
393.15
393.15
393.15
393.15
393.15
393.15
393.15
393.15
393.15
393.15
393.15
393.15
393.15
393.15
393.15
393.15
393.15
393.15
393.15
393.15
393.15
393.15
393.15
393.15
393.15
393.15
393.15
393.15
393.15
393.15
393.15
393.15
393.15
393.15
393.15
393.15
393.15
393.15
393.15
393.15
393.15
393.15
393.15
393.15
393.15
393.15
393.15
393.15
393.15
393.15
393.15
393.15
393.15
393.15
393.15
393.15
393.15
393.15
393.15
393.15
393.15
393.15
393.15
393.15
393.15
393.15
393.15
393.15
393.15
393.15
393.15
393.15
393.15
393.15
393.15
393.15
393.15
393.15
393.15
393.15
393.15
393.15
393.15
393.15
393.15
393.15
393.15
393.15
393.15
393.15
393.15
393.15
393.15
393.15
393.15
393.15
393.15
393.15
393.15
393.15
393.15
393.15
393.15
393.15
393.15
393.15
393.15
393.15
393.15
393.15
393.15
393.15
393.15
393.15
393.15
393.15
393.15
393.15
393.15
393.15
393.15
393.15
393.15
393.15
393.15
393.15
393.15
393.15
393.15
393.15
393.15
393.15
393.15
393.15
393.15
393.15
393.15
393.15
393.15
393.15
393.15
393.15
393.15
393.15
393.15
393.15
393.15
393.15
393.15
393.15
393.15
393.15
393.15
393.15
393.15
393.15
393.15
393.15
393.15
393.15
393.15
393.15
393.15
393.15
393.15
393.15
393.15
393.15
393.15
393.15
393.15
393.15
393.15
393.15
393.15
393.15
393.15
393.15
393.15
393.15
393.15
393.15
393.15
393.15
393.15
393.15
393.15
393.15
393.15
393.15
393.15
393.15
393.15
393.15
393.15
393.15
393.15
393.15
393.15
393.15
393.15
393.15
393.15
393.15
393.15
393.15
393.15
393.15
393.15
393.15
393.15
393.15
393.15
393.15
393.15
393.15
393.15
393.15
393.15
393.15
393.15
393.15
393.15
393.15
393.15
393.15
393.15
393.15
393.15
393.15
393.15
393.15
393.15
393.15
393.15
393.15
393.15
393.15
393.15
393.15
393.15
393.15
393.15
393.15
393.15
393.15
393.15
393.15
393.149
393.15
393.15
393.15
393.15
393.15
393.15
393.15
393.15
393.15
393.15
393.15
393.15
393.15
393.15
393.15
393.15
393.15
393.15
393.149
393.149
393.15
393.15
393.15
393.15
393.15
393.15
393.15
393.15
393.15
393.15
393.15
393.15
393.15
393.15
393.15
393.15
393.15
393.15
393.149
393.148
393.15
393.15
393.15
393.15
393.15
393.15
393.15
393.15
393.15
393.15
393.15
393.15
393.15
393.15
393.15
393.15
393.15
393.15
393.148
393.147
393.149
393.15
393.15
393.15
393.15
393.15
393.15
393.15
393.15
393.15
393.15
393.15
393.15
393.15
393.15
393.15
393.15
393.149
393.147
393.144
393.149
393.15
393.15
393.15
393.15
393.15
393.15
393.15
393.15
393.15
393.15
393.15
393.15
393.15
393.15
393.15
393.15
393.149
393.144
393.141
393.148
393.15
393.15
393.15
393.15
393.15
393.15
393.15
393.15
393.15
393.15
393.15
393.15
393.15
393.15
393.15
393.15
393.148
393.141
393.136
393.147
393.149
393.15
393.15
393.15
393.15
393.15
393.15
393.15
393.15
393.15
393.15
393.15
393.15
393.15
393.15
393.149
393.147
393.136
393.128
393.146
393.149
393.15
393.15
393.15
393.15
393.15
393.15
393.15
393.15
393.15
393.15
393.15
393.15
393.15
393.15
393.149
393.146
393.128
393.116
393.143
393.148
393.149
393.15
393.15
393.15
393.15
393.15
393.15
393.15
393.15
393.15
393.15
393.15
393.15
393.149
393.148
393.143
393.116
393.099
393.14
393.147
393.149
393.149
393.149
393.149
393.149
393.149
393.149
393.149
393.149
393.149
393.149
393.149
393.149
393.149
393.147
393.14
393.099
393.073
393.134
393.146
393.148
393.149
393.149
393.149
393.149
393.149
393.149
393.149
393.149
393.149
393.149
393.149
393.149
393.148
393.146
393.134
393.073
393.038
393.126
393.143
393.147
393.148
393.149
393.149
393.149
393.149
393.149
393.149
393.149
393.149
393.149
393.149
393.148
393.147
393.143
393.126
393.038