/*--------------------------------*- C++ -*----------------------------------*\
| =========                 |                                                 |
| \\      /  F ield         | OpenFOAM: The Open Source CFD Toolbox           |
|  \\    /   O peration     | Version:  2.1.0                                 |
|   \\  /    A nd           | Web:      www.OpenFOAM.org                      |
|    \\/     M anipulation  |                                                 |
\*---------------------------------------------------------------------------*/
FoamFile
{
    version     2.0;
    format      ascii;
    class       volVectorField;
    location    "0.24";
    object      U;
}
// * * * * * * * * * * * * * * * * * * * * * * * * * * * * * * * * * * * * * //

dimensions      [0 1 -1 0 0 0 0];

internalField   nonuniform List<vector> 
6400
(
(-1.22881 -4.12748e-05 0)
(-1.22765 -0.000475159 0)
(-1.22529 -0.00075421 0)
(-1.22203 -0.000894409 0)
(-1.21834 -0.000975749 0)
(-1.21438 -0.00102931 0)
(-1.21024 -0.00106763 0)
(-1.20596 -0.00109752 0)
(-1.20158 -0.00112286 0)
(-1.19709 -0.00114576 0)
(-1.19252 -0.00116753 0)
(-1.18787 -0.00118873 0)
(-1.18313 -0.00120986 0)
(-1.17831 -0.00123097 0)
(-1.17341 -0.00125232 0)
(-1.16842 -0.0012738 0)
(-1.16335 -0.0012956 0)
(-1.15819 -0.00131758 0)
(-1.15295 -0.00133999 0)
(-1.14761 -0.00136227 0)
(-1.14219 -0.00138481 0)
(-1.13669 -0.00140835 0)
(-1.13108 -0.00143305 0)
(-1.12538 -0.00145837 0)
(-1.11958 -0.0014844 0)
(-1.11368 -0.00151122 0)
(-1.10767 -0.00153901 0)
(-1.10155 -0.0015677 0)
(-1.09532 -0.00159743 0)
(-1.08897 -0.00162817 0)
(-1.0825 -0.00166006 0)
(-1.0759 -0.00169311 0)
(-1.06918 -0.00172743 0)
(-1.06232 -0.00176308 0)
(-1.05532 -0.00180026 0)
(-1.04817 -0.00183902 0)
(-1.04087 -0.0018796 0)
(-1.03341 -0.00192204 0)
(-1.02578 -0.00196651 0)
(-1.01798 -0.00201324 0)
(-1.00999 -0.00206235 0)
(-1.0018 -0.00211394 0)
(-0.993418 -0.00216824 0)
(-0.984816 -0.0022255 0)
(-0.975988 -0.00228569 0)
(-0.966922 -0.00234863 0)
(-0.95761 -0.00241324 0)
(-0.948048 -0.0024783 0)
(-0.938227 -0.00254763 0)
(-0.928125 -0.00262245 0)
(-0.917734 -0.00269807 0)
(-0.907057 -0.0027708 0)
(-0.896106 -0.00283964 0)
(-0.884893 -0.0029067 0)
(-0.873422 -0.00297365 0)
(-0.861693 -0.00304112 0)
(-0.849702 -0.00310942 0)
(-0.837447 -0.00317865 0)
(-0.824924 -0.00324878 0)
(-0.812129 -0.00331981 0)
(-0.799059 -0.00339156 0)
(-0.785712 -0.003464 0)
(-0.772084 -0.00353743 0)
(-0.758169 -0.00361232 0)
(-0.743964 -0.00368851 0)
(-0.72946 -0.00376647 0)
(-0.714651 -0.00384693 0)
(-0.699524 -0.00393005 0)
(-0.68407 -0.00401655 0)
(-0.668271 -0.00410738 0)
(-0.652109 -0.00420368 0)
(-0.635559 -0.00430652 0)
(-0.618593 -0.0044173 0)
(-0.601176 -0.00453793 0)
(-0.583264 -0.00467056 0)
(-0.564804 -0.00481773 0)
(-0.545734 -0.00498231 0)
(-0.525977 -0.00516777 0)
(-0.505442 -0.00537848 0)
(-0.484019 -0.00561923 0)
(-0.461579 -0.00589529 0)
(-0.437968 -0.00621284 0)
(-0.413007 -0.00657943 0)
(-0.386481 -0.00700368 0)
(-0.358146 -0.00749386 0)
(-0.327728 -0.00805433 0)
(-0.294954 -0.00868089 0)
(-0.259593 -0.00935583 0)
(-0.221537 -0.0100336 0)
(-0.180968 -0.0106126 0)
(-0.138678 -0.0108835 0)
(-0.0967174 -0.0104168 0)
(-0.059225 -0.00858407 0)
(-0.0318923 -0.00523749 0)
(-0.0185123 -0.00150862 0)
(-0.0215252 0.00302511 0)
(-0.049902 0.0111449 0)
(-0.13003 0.0288144 0)
(-0.328675 0.0703625 0)
(-0.943166 0.197248 0)
(-1.48546 -0.000297733 0)
(-1.48246 -0.00156154 0)
(-1.4803 -0.00228736 0)
(-1.47693 -0.0026691 0)
(-1.47323 -0.00289628 0)
(-1.46929 -0.00304676 0)
(-1.46521 -0.0031546 0)
(-1.46101 -0.00323878 0)
(-1.45672 -0.00331025 0)
(-1.45235 -0.00337483 0)
(-1.44791 -0.00343632 0)
(-1.44339 -0.00349627 0)
(-1.4388 -0.00355614 0)
(-1.43415 -0.00361608 0)
(-1.42942 -0.00367682 0)
(-1.42462 -0.00373801 0)
(-1.41974 -0.00380019 0)
(-1.4148 -0.00386279 0)
(-1.40977 -0.00392661 0)
(-1.40468 -0.00398978 0)
(-1.39951 -0.0040529 0)
(-1.39427 -0.00411833 0)
(-1.38896 -0.00418656 0)
(-1.38358 -0.00425603 0)
(-1.37812 -0.00432706 0)
(-1.37258 -0.00439999 0)
(-1.36698 -0.00447527 0)
(-1.36129 -0.00455277 0)
(-1.35553 -0.00463278 0)
(-1.34969 -0.00471529 0)
(-1.34377 -0.00480062 0)
(-1.33776 -0.00488887 0)
(-1.33167 -0.00498037 0)
(-1.3255 -0.00507527 0)
(-1.31923 -0.00517391 0)
(-1.31287 -0.00527648 0)
(-1.30642 -0.00538355 0)
(-1.29987 -0.00549515 0)
(-1.29322 -0.00561164 0)
(-1.28646 -0.00573362 0)
(-1.2796 -0.00586157 0)
(-1.27262 -0.00599595 0)
(-1.26553 -0.00613773 0)
(-1.2583 -0.0062878 0)
(-1.25095 -0.00644627 0)
(-1.24344 -0.00661277 0)
(-1.23578 -0.00678494 0)
(-1.22796 -0.00695859 0)
(-1.21999 -0.00713668 0)
(-1.21188 -0.00732024 0)
(-1.20365 -0.00750412 0)
(-1.19531 -0.00768431 0)
(-1.18684 -0.00785835 0)
(-1.17824 -0.008029 0)
(-1.16951 -0.00819913 0)
(-1.16067 -0.0083698 0)
(-1.1517 -0.0085416 0)
(-1.14261 -0.00871464 0)
(-1.13341 -0.00888882 0)
(-1.12409 -0.0090642 0)
(-1.11467 -0.00924066 0)
(-1.10515 -0.00941806 0)
(-1.09552 -0.00959668 0)
(-1.08579 -0.00977741 0)
(-1.07597 -0.00996046 0)
(-1.06605 -0.0101471 0)
(-1.05604 -0.0103391 0)
(-1.04594 -0.0105375 0)
(-1.03574 -0.0107448 0)
(-1.02542 -0.0109637 0)
(-1.01498 -0.0111977 0)
(-1.0044 -0.0114501 0)
(-0.993659 -0.0117254 0)
(-0.982718 -0.0120292 0)
(-0.971544 -0.0123678 0)
(-0.960087 -0.0127485 0)
(-0.948293 -0.0131794 0)
(-0.936093 -0.0136702 0)
(-0.92341 -0.0142329 0)
(-0.910149 -0.0148802 0)
(-0.896208 -0.0156255 0)
(-0.881469 -0.0164843 0)
(-0.865802 -0.0174747 0)
(-0.849068 -0.0186161 0)
(-0.831119 -0.0199257 0)
(-0.811811 -0.021412 0)
(-0.791009 -0.0230612 0)
(-0.768619 -0.0248217 0)
(-0.74465 -0.0265723 0)
(-0.719274 -0.0280571 0)
(-0.692946 -0.0287767 0)
(-0.666468 -0.0277891 0)
(-0.641095 -0.0237133 0)
(-0.619672 -0.0155581 0)
(-0.609991 -0.00383305 0)
(-0.621361 0.0119267 0)
(-0.66712 0.0388024 0)
(-0.769005 0.0906115 0)
(-0.969287 0.201976 0)
(-1.45335 0.522017 0)
(-1.63111 -0.000813619 0)
(-1.62731 -0.00271103 0)
(-1.62595 -0.00374719 0)
(-1.62312 -0.00431802 0)
(-1.62 -0.00466453 0)
(-1.61671 -0.00489467 0)
(-1.61329 -0.00505868 0)
(-1.60979 -0.00518657 0)
(-1.60622 -0.00529432 0)
(-1.6026 -0.0053917 0)
(-1.59892 -0.005484 0)
(-1.59521 -0.00557425 0)
(-1.59143 -0.00566433 0)
(-1.58763 -0.00575497 0)
(-1.58376 -0.00584701 0)
(-1.57986 -0.0059403 0)
(-1.57589 -0.00603552 0)
(-1.57188 -0.00613206 0)
(-1.5678 -0.00623094 0)
(-1.56368 -0.00632991 0)
(-1.55948 -0.00642811 0)
(-1.55524 -0.00652708 0)
(-1.55094 -0.00662747 0)
(-1.54661 -0.00672834 0)
(-1.54223 -0.00683049 0)
(-1.53782 -0.00693489 0)
(-1.53337 -0.00704209 0)
(-1.52888 -0.00715194 0)
(-1.52436 -0.00726468 0)
(-1.51981 -0.00738033 0)
(-1.51522 -0.00749923 0)
(-1.5106 -0.00762155 0)
(-1.50595 -0.00774768 0)
(-1.50128 -0.00787784 0)
(-1.49658 -0.00801227 0)
(-1.49185 -0.00815111 0)
(-1.4871 -0.00829508 0)
(-1.48234 -0.00844406 0)
(-1.47755 -0.00859832 0)
(-1.47276 -0.00875856 0)
(-1.46795 -0.00892531 0)
(-1.46314 -0.00909949 0)
(-1.45833 -0.00928265 0)
(-1.45352 -0.00947637 0)
(-1.44871 -0.00968091 0)
(-1.44391 -0.00989488 0)
(-1.43911 -0.0101157 0)
(-1.43433 -0.0103393 0)
(-1.42959 -0.0105626 0)
(-1.42486 -0.0107831 0)
(-1.42016 -0.0110013 0)
(-1.41551 -0.0112189 0)
(-1.41089 -0.0114334 0)
(-1.40631 -0.0116447 0)
(-1.40176 -0.0118543 0)
(-1.39725 -0.0120623 0)
(-1.39279 -0.0122689 0)
(-1.38839 -0.012474 0)
(-1.38406 -0.0126773 0)
(-1.37981 -0.0128786 0)
(-1.37565 -0.013078 0)
(-1.3716 -0.0132752 0)
(-1.36766 -0.0134699 0)
(-1.36385 -0.0136624 0)
(-1.36018 -0.0138534 0)
(-1.35667 -0.0140445 0)
(-1.35333 -0.0142376 0)
(-1.35018 -0.0144349 0)
(-1.34723 -0.0146398 0)
(-1.34449 -0.0148561 0)
(-1.34198 -0.0150886 0)
(-1.3397 -0.0153424 0)
(-1.33765 -0.0156242 0)
(-1.33586 -0.0159422 0)
(-1.3343 -0.0163058 0)
(-1.33298 -0.0167261 0)
(-1.33189 -0.0172155 0)
(-1.33099 -0.0177885 0)
(-1.33025 -0.0184633 0)
(-1.32962 -0.0192588 0)
(-1.32905 -0.0201945 0)
(-1.32845 -0.0212912 0)
(-1.32775 -0.0225721 0)
(-1.32686 -0.0240596 0)
(-1.32568 -0.0257698 0)
(-1.32414 -0.0277062 0)
(-1.32218 -0.0298422 0)
(-1.31979 -0.0320959 0)
(-1.31703 -0.034291 0)
(-1.31405 -0.0360846 0)
(-1.31116 -0.0368548 0)
(-1.30877 -0.0355486 0)
(-1.30743 -0.0306226 0)
(-1.30831 -0.0201611 0)
(-1.31537 -0.00265505 0)
(-1.3314 0.023348 0)
(-1.36862 0.0668275 0)
(-1.44241 0.146525 0)
(-1.58374 0.307362 0)
(-1.85154 0.71311 0)
(-1.76392 -0.00141042 0)
(-1.7599 -0.0036264 0)
(-1.75952 -0.00488043 0)
(-1.75758 -0.00559681 0)
(-1.75543 -0.00603597 0)
(-1.75317 -0.00632574 0)
(-1.7508 -0.00652922 0)
(-1.74841 -0.00668589 0)
(-1.74597 -0.00681544 0)
(-1.74353 -0.00693143 0)
(-1.74105 -0.00703994 0)
(-1.73859 -0.00714573 0)
(-1.7361 -0.0072506 0)
(-1.73363 -0.00735619 0)
(-1.73114 -0.00746317 0)
(-1.72866 -0.00757179 0)
(-1.72617 -0.00768274 0)
(-1.72369 -0.00779572 0)
(-1.72121 -0.00791072 0)
(-1.71874 -0.00802688 0)
(-1.71628 -0.00814312 0)
(-1.71383 -0.00825835 0)
(-1.71139 -0.00837229 0)
(-1.70896 -0.00848518 0)
(-1.70654 -0.00859807 0)
(-1.70415 -0.00871273 0)
(-1.70178 -0.00882981 0)
(-1.69945 -0.00894893 0)
(-1.69714 -0.00907017 0)
(-1.69487 -0.00919352 0)
(-1.69265 -0.00931914 0)
(-1.69047 -0.00944717 0)
(-1.68834 -0.00957778 0)
(-1.68627 -0.00971115 0)
(-1.68426 -0.00984738 0)
(-1.68233 -0.00998639 0)
(-1.68047 -0.0101287 0)
(-1.67871 -0.0102742 0)
(-1.67704 -0.0104229 0)
(-1.67547 -0.0105751 0)
(-1.67402 -0.0107309 0)
(-1.6727 -0.0108913 0)
(-1.67151 -0.0110578 0)
(-1.67048 -0.0112326 0)
(-1.66961 -0.0114156 0)
(-1.66891 -0.0116037 0)
(-1.6684 -0.0117941 0)
(-1.66809 -0.0119867 0)
(-1.66799 -0.0121808 0)
(-1.66807 -0.012372 0)
(-1.66834 -0.0125601 0)
(-1.66879 -0.0127473 0)
(-1.66944 -0.0129317 0)
(-1.6703 -0.0131115 0)
(-1.67136 -0.0132867 0)
(-1.67264 -0.0134567 0)
(-1.67414 -0.013621 0)
(-1.67588 -0.0137792 0)
(-1.67787 -0.0139304 0)
(-1.68012 -0.0140742 0)
(-1.68264 -0.0142103 0)
(-1.68544 -0.0143386 0)
(-1.68852 -0.0144584 0)
(-1.69191 -0.014569 0)
(-1.69561 -0.0146709 0)
(-1.69963 -0.0147656 0)
(-1.70398 -0.0148552 0)
(-1.70868 -0.0149421 0)
(-1.71372 -0.01503 0)
(-1.71912 -0.0151235 0)
(-1.72488 -0.0152281 0)
(-1.731 -0.0153504 0)
(-1.73746 -0.0154991 0)
(-1.74425 -0.0156845 0)
(-1.75136 -0.0159193 0)
(-1.75876 -0.0162185 0)
(-1.7664 -0.0165985 0)
(-1.77424 -0.0170782 0)
(-1.78222 -0.0176812 0)
(-1.79027 -0.0184326 0)
(-1.79832 -0.0193561 0)
(-1.80629 -0.020476 0)
(-1.8141 -0.0218178 0)
(-1.82168 -0.0234039 0)
(-1.82895 -0.0252466 0)
(-1.83586 -0.0273395 0)
(-1.84239 -0.0296415 0)
(-1.84856 -0.0320468 0)
(-1.85442 -0.0343432 0)
(-1.86009 -0.0361443 0)
(-1.8657 -0.036789 0)
(-1.87136 -0.0352262 0)
(-1.87707 -0.0299051 0)
(-1.88297 -0.0186004 0)
(-1.89161 0.000655759 0)
(-1.90039 0.0320828 0)
(-1.921 0.0849903 0)
(-1.96015 0.181232 0)
(-2.02732 0.369805 0)
(-2.1261 0.770619 0)
(-1.89999 -0.00191127 0)
(-1.89642 -0.00417546 0)
(-1.89716 -0.00551581 0)
(-1.89646 -0.00631007 0)
(-1.89574 -0.00680165 0)
(-1.89496 -0.00712084 0)
(-1.89419 -0.00734031 0)
(-1.89341 -0.00750387 0)
(-1.89266 -0.00763517 0)
(-1.89195 -0.00774915 0)
(-1.89126 -0.00785342 0)
(-1.89062 -0.00795307 0)
(-1.89003 -0.00805047 0)
(-1.88949 -0.0081472 0)
(-1.889 -0.00824413 0)
(-1.88859 -0.00834131 0)
(-1.88824 -0.00843936 0)
(-1.88797 -0.00853791 0)
(-1.88777 -0.00863589 0)
(-1.88767 -0.00873324 0)
(-1.88767 -0.00883147 0)
(-1.88776 -0.00892996 0)
(-1.88794 -0.00902734 0)
(-1.88822 -0.00912257 0)
(-1.88858 -0.00921571 0)
(-1.88906 -0.00930923 0)
(-1.88963 -0.00940408 0)
(-1.89033 -0.00949932 0)
(-1.89114 -0.00959486 0)
(-1.89208 -0.00969056 0)
(-1.89315 -0.00978655 0)
(-1.89437 -0.00988282 0)
(-1.89573 -0.00997937 0)
(-1.89725 -0.0100762 0)
(-1.89893 -0.0101733 0)
(-1.90078 -0.0102706 0)
(-1.90282 -0.0103681 0)
(-1.90504 -0.0104658 0)
(-1.90746 -0.0105637 0)
(-1.91009 -0.0106615 0)
(-1.91293 -0.0107594 0)
(-1.916 -0.0108581 0)
(-1.91929 -0.0109595 0)
(-1.92283 -0.0110665 0)
(-1.9266 -0.0111793 0)
(-1.93061 -0.0112938 0)
(-1.93486 -0.0114075 0)
(-1.93936 -0.0115222 0)
(-1.9441 -0.0116403 0)
(-1.94909 -0.0117586 0)
(-1.95433 -0.0118745 0)
(-1.95981 -0.0119877 0)
(-1.96554 -0.0120965 0)
(-1.97152 -0.0121992 0)
(-1.97775 -0.0122952 0)
(-1.98421 -0.0123837 0)
(-1.99092 -0.0124639 0)
(-1.99786 -0.0125353 0)
(-2.00504 -0.0125969 0)
(-2.01244 -0.0126478 0)
(-2.02007 -0.0126877 0)
(-2.02791 -0.0127167 0)
(-2.03596 -0.012734 0)
(-2.04422 -0.0127379 0)
(-2.05268 -0.0127285 0)
(-2.06133 -0.0127076 0)
(-2.07017 -0.0126777 0)
(-2.0792 -0.0126415 0)
(-2.08839 -0.0126036 0)
(-2.09774 -0.0125698 0)
(-2.10723 -0.0125469 0)
(-2.11686 -0.0125434 0)
(-2.12659 -0.0125701 0)
(-2.1364 -0.0126398 0)
(-2.14627 -0.0127681 0)
(-2.15618 -0.012973 0)
(-2.16608 -0.0132741 0)
(-2.17595 -0.0136917 0)
(-2.18576 -0.0142529 0)
(-2.19548 -0.014986 0)
(-2.20509 -0.015916 0)
(-2.21454 -0.0170674 0)
(-2.22382 -0.0184647 0)
(-2.23291 -0.0201287 0)
(-2.2418 -0.0220668 0)
(-2.25048 -0.024264 0)
(-2.25896 -0.0266677 0)
(-2.26728 -0.0291583 0)
(-2.27545 -0.0315094 0)
(-2.28351 -0.0333281 0)
(-2.29141 -0.0339718 0)
(-2.29897 -0.03246 0)
(-2.30571 -0.0273619 0)
(-2.31105 -0.0165378 0)
(-2.31671 0.00233682 0)
(-2.31716 0.0352801 0)
(-2.32016 0.0916007 0)
(-2.32459 0.193437 0)
(-2.32116 0.385994 0)
(-2.30226 0.736081 0)
(-2.04679 -0.00216094 0)
(-2.04428 -0.00422664 0)
(-2.04624 -0.00549353 0)
(-2.04715 -0.00626573 0)
(-2.04822 -0.00674515 0)
(-2.04937 -0.00704857 0)
(-2.05061 -0.00724983 0)
(-2.05193 -0.00739116 0)
(-2.05334 -0.00749835 0)
(-2.05483 -0.00758551 0)
(-2.05641 -0.00766159 0)
(-2.05809 -0.00773097 0)
(-2.05985 -0.00779674 0)
(-2.06174 -0.00785995 0)
(-2.06371 -0.00792171 0)
(-2.06581 -0.00798196 0)
(-2.06801 -0.00804105 0)
(-2.07033 -0.00809841 0)
(-2.07278 -0.00815337 0)
(-2.07536 -0.00820585 0)
(-2.07806 -0.00825843 0)
(-2.0809 -0.00831133 0)
(-2.08388 -0.00836384 0)
(-2.087 -0.00841356 0)
(-2.09028 -0.0084583 0)
(-2.09372 -0.00850183 0)
(-2.09731 -0.00854592 0)
(-2.10108 -0.0085888 0)
(-2.10502 -0.00863044 0)
(-2.10913 -0.00867077 0)
(-2.11342 -0.00871016 0)
(-2.1179 -0.00874867 0)
(-2.12256 -0.00878639 0)
(-2.12741 -0.00882317 0)
(-2.13244 -0.00885925 0)
(-2.13767 -0.0088946 0)
(-2.14308 -0.00892902 0)
(-2.14869 -0.00896258 0)
(-2.15449 -0.00899564 0)
(-2.16048 -0.00902773 0)
(-2.16667 -0.00905912 0)
(-2.17304 -0.00909075 0)
(-2.17959 -0.00912497 0)
(-2.18633 -0.00916618 0)
(-2.19323 -0.00921527 0)
(-2.20031 -0.00926684 0)
(-2.20754 -0.0093189 0)
(-2.21493 -0.00937272 0)
(-2.22247 -0.00942949 0)
(-2.23016 -0.00948718 0)
(-2.23798 -0.00954396 0)
(-2.24594 -0.00959863 0)
(-2.25401 -0.00964957 0)
(-2.26221 -0.00969547 0)
(-2.2705 -0.00973499 0)
(-2.27889 -0.00976723 0)
(-2.28737 -0.00979133 0)
(-2.29593 -0.00980624 0)
(-2.30458 -0.00981091 0)
(-2.31329 -0.00980404 0)
(-2.32207 -0.00978545 0)
(-2.33091 -0.0097558 0)
(-2.33982 -0.00971363 0)
(-2.34878 -0.00965595 0)
(-2.35779 -0.00958363 0)
(-2.36685 -0.00949868 0)
(-2.37595 -0.00940398 0)
(-2.38509 -0.00930322 0)
(-2.39427 -0.00920187 0)
(-2.40347 -0.00910712 0)
(-2.41268 -0.00902661 0)
(-2.42189 -0.00896964 0)
(-2.4311 -0.00894835 0)
(-2.4403 -0.00897643 0)
(-2.44946 -0.00907025 0)
(-2.45859 -0.0092489 0)
(-2.46768 -0.00953248 0)
(-2.47671 -0.00994015 0)
(-2.4857 -0.010497 0)
(-2.49463 -0.0112321 0)
(-2.50352 -0.0121718 0)
(-2.51237 -0.0133389 0)
(-2.52118 -0.0147558 0)
(-2.52996 -0.0164421 0)
(-2.53872 -0.0184027 0)
(-2.54748 -0.0206174 0)
(-2.55625 -0.0230301 0)
(-2.56503 -0.0255205 0)
(-2.57383 -0.0278675 0)
(-2.58258 -0.0297021 0)
(-2.59111 -0.0304431 0)
(-2.59902 -0.0292215 0)
(-2.60554 -0.0248281 0)
(-2.60949 -0.0154121 0)
(-2.61201 0.00170806 0)
(-2.60491 0.0331096 0)
(-2.59239 0.0871185 0)
(-2.56581 0.184624 0)
(-2.50345 0.361283 0)
(-2.40658 0.643487 0)
(-2.20158 -0.00206878 0)
(-2.20035 -0.00369943 0)
(-2.20349 -0.00473993 0)
(-2.206 -0.00538711 0)
(-2.20874 -0.00578494 0)
(-2.21174 -0.00602663 0)
(-2.21484 -0.00617606 0)
(-2.21813 -0.00627007 0)
(-2.22149 -0.00633227 0)
(-2.225 -0.00637521 0)
(-2.22859 -0.00640744 0)
(-2.23232 -0.00643273 0)
(-2.23613 -0.00645422 0)
(-2.24008 -0.0064727 0)
(-2.24411 -0.0064893 0)
(-2.24828 -0.00650412 0)
(-2.25254 -0.00651746 0)
(-2.25693 -0.00652861 0)
(-2.26142 -0.00653771 0)
(-2.26603 -0.0065448 0)
(-2.27074 -0.00655174 0)
(-2.27558 -0.00655803 0)
(-2.28052 -0.00656416 0)
(-2.28558 -0.0065681 0)
(-2.29074 -0.00656592 0)
(-2.29605 -0.00655994 0)
(-2.30146 -0.00655283 0)
(-2.30702 -0.00654398 0)
(-2.3127 -0.00653434 0)
(-2.31852 -0.006524 0)
(-2.32447 -0.00651388 0)
(-2.33055 -0.00650416 0)
(-2.33675 -0.00649534 0)
(-2.34308 -0.00648719 0)
(-2.34951 -0.00648032 0)
(-2.35607 -0.00647463 0)
(-2.36272 -0.00647022 0)
(-2.36947 -0.0064671 0)
(-2.37632 -0.00646561 0)
(-2.38325 -0.00646557 0)
(-2.39026 -0.00646699 0)
(-2.39735 -0.00647072 0)
(-2.4045 -0.00647922 0)
(-2.41172 -0.00649842 0)
(-2.41897 -0.00653073 0)
(-2.42627 -0.00656727 0)
(-2.4336 -0.00660572 0)
(-2.44096 -0.00664673 0)
(-2.44834 -0.00669131 0)
(-2.45575 -0.00673771 0)
(-2.46317 -0.0067844 0)
(-2.47061 -0.00682997 0)
(-2.47805 -0.00687238 0)
(-2.48551 -0.00691025 0)
(-2.49296 -0.0069415 0)
(-2.50043 -0.00696473 0)
(-2.5079 -0.00697849 0)
(-2.51538 -0.00698123 0)
(-2.52287 -0.00697164 0)
(-2.53037 -0.00694771 0)
(-2.5379 -0.00690915 0)
(-2.54545 -0.00685777 0)
(-2.55303 -0.00679245 0)
(-2.56063 -0.00670757 0)
(-2.56827 -0.00660515 0)
(-2.57594 -0.00648818 0)
(-2.58366 -0.00635999 0)
(-2.59142 -0.00622479 0)
(-2.59922 -0.00608853 0)
(-2.60706 -0.00595946 0)
(-2.61495 -0.0058455 0)
(-2.62288 -0.00575548 0)
(-2.63087 -0.00570193 0)
(-2.6389 -0.0056986 0)
(-2.64699 -0.00576187 0)
(-2.65514 -0.00590992 0)
(-2.66334 -0.00616275 0)
(-2.67162 -0.00654147 0)
(-2.67999 -0.00706791 0)
(-2.68842 -0.00776894 0)
(-2.69692 -0.00867353 0)
(-2.70551 -0.00980194 0)
(-2.71421 -0.0111733 0)
(-2.72304 -0.0128084 0)
(-2.73199 -0.014712 0)
(-2.7411 -0.0168614 0)
(-2.75037 -0.0192031 0)
(-2.7598 -0.0216262 0)
(-2.76932 -0.0239295 0)
(-2.77881 -0.0257888 0)
(-2.78798 -0.0267102 0)
(-2.79626 -0.0259747 0)
(-2.80272 -0.0226054 0)
(-2.80557 -0.015229 0)
(-2.80547 -0.000978887 0)
(-2.79236 0.0260662 0)
(-2.76585 0.072972 0)
(-2.71306 0.157409 0)
(-2.60528 0.304355 0)
(-2.45922 0.515821 0)
(-2.34752 -0.00164908 0)
(-2.34729 -0.00269754 0)
(-2.35103 -0.00341935 0)
(-2.35446 -0.00387495 0)
(-2.3581 -0.00414747 0)
(-2.36212 -0.00430199 0)
(-2.36618 -0.004385 0)
(-2.3705 -0.00442518 0)
(-2.37481 -0.00444028 0)
(-2.37932 -0.00444062 0)
(-2.38382 -0.00443266 0)
(-2.38849 -0.00441967 0)
(-2.39315 -0.00440401 0)
(-2.39797 -0.00438642 0)
(-2.40279 -0.00436789 0)
(-2.40776 -0.00434839 0)
(-2.41273 -0.00432847 0)
(-2.41784 -0.00430726 0)
(-2.42296 -0.00428547 0)
(-2.42822 -0.00426295 0)
(-2.43348 -0.00424119 0)
(-2.43887 -0.00421951 0)
(-2.44429 -0.00419819 0)
(-2.44981 -0.00417523 0)
(-2.45536 -0.00415012 0)
(-2.46104 -0.0041222 0)
(-2.46671 -0.00409298 0)
(-2.47247 -0.00406295 0)
(-2.47823 -0.00403452 0)
(-2.48407 -0.00400753 0)
(-2.4899 -0.00398357 0)
(-2.49581 -0.00396259 0)
(-2.5017 -0.00394574 0)
(-2.50765 -0.00393224 0)
(-2.51357 -0.00392313 0)
(-2.51954 -0.00391791 0)
(-2.52549 -0.00391674 0)
(-2.53146 -0.00391986 0)
(-2.5374 -0.00392691 0)
(-2.54336 -0.00393782 0)
(-2.54928 -0.00395214 0)
(-2.55521 -0.00397032 0)
(-2.56111 -0.00399415 0)
(-2.56701 -0.00403131 0)
(-2.57286 -0.00408734 0)
(-2.57871 -0.0041472 0)
(-2.58451 -0.00420759 0)
(-2.59031 -0.00426933 0)
(-2.59608 -0.00433337 0)
(-2.60185 -0.0043981 0)
(-2.60759 -0.00446181 0)
(-2.61334 -0.00452276 0)
(-2.61908 -0.0045785 0)
(-2.62483 -0.00462714 0)
(-2.63058 -0.00466616 0)
(-2.63636 -0.00469376 0)
(-2.64214 -0.00470802 0)
(-2.64797 -0.00470713 0)
(-2.65383 -0.00468954 0)
(-2.65974 -0.0046529 0)
(-2.66569 -0.00459627 0)
(-2.67172 -0.00452374 0)
(-2.6778 -0.00443655 0)
(-2.68395 -0.00432308 0)
(-2.69017 -0.00418751 0)
(-2.69649 -0.00403414 0)
(-2.70289 -0.00386677 0)
(-2.70939 -0.00368954 0)
(-2.71598 -0.0035078 0)
(-2.72269 -0.00333124 0)
(-2.72951 -0.00316783 0)
(-2.73645 -0.00302502 0)
(-2.74352 -0.00291569 0)
(-2.75072 -0.0028536 0)
(-2.75806 -0.00285479 0)
(-2.76555 -0.0029365 0)
(-2.77319 -0.00311847 0)
(-2.781 -0.00342524 0)
(-2.789 -0.00387742 0)
(-2.79717 -0.00449847 0)
(-2.80554 -0.00532108 0)
(-2.81412 -0.00636062 0)
(-2.82293 -0.00763063 0)
(-2.83199 -0.00915605 0)
(-2.84131 -0.0109453 0)
(-2.85091 -0.0129726 0)
(-2.86078 -0.015194 0)
(-2.8709 -0.017516 0)
(-2.88116 -0.0197686 0)
(-2.89139 -0.0216875 0)
(-2.90118 -0.022883 0)
(-2.90988 -0.0228147 0)
(-2.91636 -0.0207404 0)
(-2.91871 -0.0158018 0)
(-2.91576 -0.00542325 0)
(-2.89932 0.0148259 0)
(-2.86183 0.0507688 0)
(-2.78903 0.115156 0)
(-2.64948 0.223855 0)
(-2.47425 0.368136 0)
(-2.46473 -0.000959251 0)
(-2.46527 -0.00145152 0)
(-2.46907 -0.0018406 0)
(-2.47277 -0.00208557 0)
(-2.47657 -0.00222437 0)
(-2.48082 -0.0022937 0)
(-2.48498 -0.00232015 0)
(-2.48944 -0.00232156 0)
(-2.49375 -0.00230814 0)
(-2.49829 -0.00228668 0)
(-2.50267 -0.00226077 0)
(-2.50725 -0.00223276 0)
(-2.51166 -0.0022038 0)
(-2.51626 -0.00217451 0)
(-2.5207 -0.00214541 0)
(-2.52531 -0.00211645 0)
(-2.52977 -0.00208799 0)
(-2.53439 -0.00205941 0)
(-2.53887 -0.00203146 0)
(-2.54349 -0.00200396 0)
(-2.54799 -0.00197789 0)
(-2.55261 -0.00195272 0)
(-2.55713 -0.00192809 0)
(-2.56174 -0.00190212 0)
(-2.56626 -0.00187902 0)
(-2.57087 -0.0018581 0)
(-2.57538 -0.001839 0)
(-2.57994 -0.00182082 0)
(-2.58441 -0.0018062 0)
(-2.58892 -0.0017945 0)
(-2.59335 -0.00178767 0)
(-2.59781 -0.00178516 0)
(-2.6022 -0.00178871 0)
(-2.60661 -0.00179699 0)
(-2.61096 -0.00181095 0)
(-2.61532 -0.0018297 0)
(-2.61963 -0.00185321 0)
(-2.62395 -0.00188197 0)
(-2.62821 -0.00191492 0)
(-2.6325 -0.00195189 0)
(-2.63674 -0.001992 0)
(-2.641 -0.00203534 0)
(-2.64523 -0.0020823 0)
(-2.64948 -0.00214207 0)
(-2.6537 -0.00222769 0)
(-2.65792 -0.00231338 0)
(-2.66214 -0.00239472 0)
(-2.66637 -0.0024745 0)
(-2.67061 -0.00255328 0)
(-2.67488 -0.00263001 0)
(-2.67917 -0.0027029 0)
(-2.68349 -0.00276969 0)
(-2.68784 -0.00282805 0)
(-2.69224 -0.00287544 0)
(-2.69668 -0.00290951 0)
(-2.70119 -0.00292808 0)
(-2.70574 -0.00292908 0)
(-2.71036 -0.00291085 0)
(-2.71505 -0.00287156 0)
(-2.71982 -0.00280906 0)
(-2.72467 -0.0027206 0)
(-2.72961 -0.00261242 0)
(-2.73464 -0.00249465 0)
(-2.73975 -0.00233997 0)
(-2.74498 -0.00215867 0)
(-2.75031 -0.00195635 0)
(-2.75575 -0.00173697 0)
(-2.76132 -0.00150461 0)
(-2.76701 -0.00126432 0)
(-2.77284 -0.00102488 0)
(-2.7788 -0.000795385 0)
(-2.78491 -0.000583145 0)
(-2.79118 -0.000400492 0)
(-2.79762 -0.000260881 0)
(-2.80424 -0.000179708 0)
(-2.81104 -0.000174027 0)
(-2.81803 -0.000263431 0)
(-2.82524 -0.000471797 0)
(-2.83267 -0.000820119 0)
(-2.84037 -0.00132859 0)
(-2.8483 -0.00203157 0)
(-2.8565 -0.0029438 0)
(-2.86504 -0.00407045 0)
(-2.87392 -0.00544239 0)
(-2.88316 -0.00707989 0)
(-2.89276 -0.00894708 0)
(-2.90273 -0.0110165 0)
(-2.91302 -0.0132215 0)
(-2.92352 -0.0154291 0)
(-2.934 -0.0174443 0)
(-2.94404 -0.0189958 0)
(-2.95293 -0.0197277 0)
(-2.95945 -0.0191804 0)
(-2.96174 -0.0168468 0)
(-2.957 -0.0111424 0)
(-2.93922 0.000737596 0)
(-2.89641 0.0226708 0)
(-2.81091 0.0620826 0)
(-2.65281 0.127534 0)
(-2.46283 0.209973 0)
(-2.53146 -6.76427e-05 0)
(-2.53245 -0.000162461 0)
(-2.53594 -0.000247134 0)
(-2.53944 -0.000295972 0)
(-2.54294 -0.000318484 0)
(-2.54689 -0.000323526 0)
(-2.55064 -0.000318435 0)
(-2.55469 -0.000307707 0)
(-2.55846 -0.000294321 0)
(-2.56246 -0.000279887 0)
(-2.56617 -0.000265297 0)
(-2.57008 -0.000251232 0)
(-2.57371 -0.000237662 0)
(-2.57752 -0.000224776 0)
(-2.58107 -0.000212443 0)
(-2.58478 -0.000200683 0)
(-2.58824 -0.000189288 0)
(-2.59185 -0.0001782 0)
(-2.59524 -0.000167491 0)
(-2.59877 -0.00015753 0)
(-2.60209 -0.000148383 0)
(-2.60555 -0.000140144 -1.64738e-42)
(-2.60882 -0.000132064 0)
(-2.6122 -0.000123759 0)
(-2.61542 -0.000118642 0)
(-2.61874 -0.000117069 0)
(-2.62194 -0.000118073 0)
(-2.62521 -0.000120779 0)
(-2.62839 -0.000126466 0)
(-2.63162 -0.000135103 0)
(-2.63479 -0.000147906 0)
(-2.638 -0.00016469 0)
(-2.64117 -0.00018674 0)
(-2.64437 -0.00021381 0)
(-2.64756 -0.000245568 0)
(-2.65075 -0.000280857 0)
(-2.65395 -0.000319945 0)
(-2.65716 -0.000363278 0)
(-2.66038 -0.000409898 0)
(-2.66363 -0.000459164 0)
(-2.66687 -0.000510188 0)
(-2.67016 -0.000562533 0)
(-2.67345 -0.000615812 0)
(-2.6768 -0.000676606 0)
(-2.68014 -0.000777434 0)
(-2.68352 -0.000870662 0)
(-2.68691 -0.000952626 0)
(-2.69036 -0.00103041 0)
(-2.69383 -0.00110439 0)
(-2.69736 -0.00117387 0)
(-2.70093 -0.00123709 0)
(-2.70455 -0.00129149 0)
(-2.70823 -0.00133492 0)
(-2.71196 -0.0013643 0)
(-2.71575 -0.00137773 0)
(-2.71962 -0.00137257 0)
(-2.72354 -0.00134679 0)
(-2.72755 -0.00129896 0)
(-2.73162 -0.00122696 0)
(-2.73578 -0.00112891 0)
(-2.74002 -0.00100136 0)
(-2.74436 -0.00084379 0)
(-2.74877 -0.000696656 0)
(-2.75327 -0.000491705 0)
(-2.75788 -0.000257721 0)
(-2.76261 -6.6116e-07 0)
(-2.76744 0.00027634 0)
(-2.7724 0.000569157 0)
(-2.77749 0.000872215 0)
(-2.78272 0.00118046 0)
(-2.78807 0.00148453 0)
(-2.79359 0.00177459 0)
(-2.79927 0.00203951 0)
(-2.80513 0.00226632 0)
(-2.81117 0.00244028 0)
(-2.81741 0.00254445 0)
(-2.82385 0.00255959 0)
(-2.83052 0.00246416 0)
(-2.83743 0.00223518 0)
(-2.84461 0.00185316 0)
(-2.85204 0.0012927 0)
(-2.85975 0.000536522 0)
(-2.86779 -0.000427032 -5.01974e-42)
(-2.87622 -0.00161835 0)
(-2.8849 -0.00307863 0)
(-2.89394 -0.00475447 0)
(-2.90338 -0.00664679 0)
(-2.91311 -0.00872277 -1.02536e-40)
(-2.923 -0.0108824 0)
(-2.93281 -0.0130065 0)
(-2.9421 -0.0149451 0)
(-2.95013 -0.0165289 0)
(-2.95569 -0.017584 0)
(-2.95692 -0.0179403 -1.05444e-40)
(-2.95052 -0.0171276 0)
(-2.9307 -0.0142592 0)
(-2.88593 -0.0080811 -9.49928e-41)
(-2.79587 0.00362128 0)
(-2.6311 0.0232458 0)
(-2.43634 0.0480761 0)
(-2.51863 0.000889369 0)
(-2.51954 0.00111339 0)
(-2.52308 0.00132051 0)
(-2.52662 0.00145781 0)
(-2.53017 0.00154184 0)
(-2.53418 0.00159075 0)
(-2.53799 0.00161634 0)
(-2.54211 0.00162784 0)
(-2.54597 0.00162955 0)
(-2.55006 0.00162531 0)
(-2.55388 0.00161691 0)
(-2.5579 0.00160565 0)
(-2.56164 0.00159263 0)
(-2.56556 0.00157836 0)
(-2.56923 0.00156351 0)
(-2.57305 0.00154819 0)
(-2.57664 0.00153305 0)
(-2.58037 0.0015179 0)
(-2.58387 0.00150322 0)
(-2.58752 0.00148834 0)
(-2.59095 0.0014738 0)
(-2.5945 0.00145898 1.71502e-41)
(-2.59787 0.00144501 0)
(-2.60134 0.0014307 0)
(-2.60465 0.00141551 0)
(-2.60804 0.00139819 0)
(-2.61131 0.00138017 0)
(-2.61464 0.0013606 0)
(-2.61786 0.00133993 0)
(-2.62114 0.00131671 0)
(-2.62434 0.00129126 0)
(-2.62758 0.00126252 0)
(-2.63076 0.00123063 0)
(-2.63396 0.00119342 0)
(-2.63714 0.00115331 0)
(-2.64032 0.00111184 0)
(-2.64349 0.00106785 0)
(-2.64667 0.00102115 0)
(-2.64985 0.000972093 0)
(-2.65305 0.000921896 0)
(-2.65624 0.000871254 0)
(-2.65946 0.000820799 0)
(-2.66267 0.000770407 0)
(-2.66592 0.00071399 0)
(-2.66917 0.000620059 0)
(-2.67248 0.000535518 0)
(-2.67581 0.000463972 0)
(-2.67918 0.000398477 0)
(-2.68258 0.000338744 0)
(-2.68602 0.000285564 0)
(-2.6895 0.000240666 0)
(-2.69303 0.000206535 0)
(-2.6966 0.000185345 0)
(-2.70023 0.000180346 0)
(-2.70391 0.000193388 0)
(-2.70765 0.00022731 0)
(-2.71144 0.000284081 0)
(-2.71531 0.000365177 0)
(-2.71924 0.000472821 0)
(-2.72325 0.000608705 0)
(-2.72733 0.000775586 0)
(-2.73148 0.000975963 0)
(-2.73572 0.00116988 0)
(-2.74007 0.00142431 0)
(-2.74451 0.00171058 0)
(-2.74905 0.00202313 0)
(-2.75369 0.0023592 0)
(-2.75845 0.00271476 0)
(-2.76332 0.00308449 0)
(-2.76832 0.00346451 0)
(-2.77346 0.00384669 0)
(-2.77875 0.00422014 0)
(-2.78419 0.00457393 0)
(-2.78979 0.0048955 0)
(-2.79557 0.00517053 0)
(-2.80154 0.00538242 0)
(-2.80771 0.00551255 0)
(-2.8141 0.00554046 0)
(-2.82073 0.00544342 0)
(-2.82761 0.00520124 0)
(-2.83477 0.00479601 0)
(-2.84222 0.00420988 0)
(-2.84999 0.00341623 4.01576e-41)
(-2.85812 0.00240625 0)
(-2.8665 0.00114676 0)
(-2.87523 -0.000333518 0)
(-2.88434 -0.00205033 0)
(-2.8935 -0.00399159 -4.69209e-41)
(-2.9028 -0.00609923 0)
(-2.91196 -0.00833351 0)
(-2.92051 -0.0106575 0)
(-2.92772 -0.0130863 0)
(-2.9324 -0.0157024 0)
(-2.93271 -0.0187425 -1.10159e-40)
(-2.92537 -0.0227108 0)
(-2.90447 -0.0285736 0)
(-2.85914 -0.03811 -4.4798e-40)
(-2.77004 -0.0543273 0)
(-2.60719 -0.0803643 0)
(-2.41478 -0.110991 0)
(-2.43477 0.00171771 0)
(-2.43491 0.00238895 0)
(-2.43866 0.00290477 0)
(-2.4422 0.00324158 0)
(-2.44583 0.00344748 0)
(-2.44991 0.00356684 0)
(-2.45392 0.00363168 0)
(-2.45823 0.00366273 0)
(-2.46241 0.00367258 0)
(-2.4668 0.00366906 0)
(-2.47107 0.00365701 0)
(-2.47551 0.00363943 0)
(-2.47983 0.00361826 0)
(-2.48431 0.00359469 0)
(-2.48867 0.00356962 0)
(-2.49316 0.00354348 0)
(-2.49755 0.00351691 0)
(-2.50206 0.00348991 0)
(-2.50646 0.00346288 0)
(-2.51097 0.00343541 0)
(-2.51537 0.00340793 0)
(-2.51988 0.00337986 0)
(-2.52428 0.00335209 0)
(-2.52877 0.00332312 0)
(-2.53315 0.00329372 0)
(-2.53761 0.00326252 0)
(-2.54198 0.00323104 0)
(-2.5464 0.00319763 0)
(-2.55073 0.00316343 0)
(-2.55511 0.00312642 0)
(-2.55941 0.00308786 0)
(-2.56373 0.00304603 0)
(-2.56799 0.00300202 0)
(-2.57226 0.00295268 0)
(-2.57647 0.00290116 0)
(-2.58069 0.00284854 0)
(-2.58485 0.00279363 0)
(-2.58901 0.00273693 0)
(-2.59311 0.00267899 0)
(-2.59721 0.0026214 0)
(-2.60126 0.00256486 0)
(-2.60532 0.00250975 0)
(-2.60933 0.00245515 0)
(-2.61335 0.00239271 0)
(-2.61734 0.00231163 0)
(-2.62137 0.00223611 0)
(-2.62538 0.00217099 0)
(-2.62942 0.00211362 0)
(-2.63346 0.00206409 0)
(-2.63752 0.0020234 0)
(-2.64158 0.00199317 0)
(-2.64569 0.00197561 0)
(-2.6498 0.00197296 0)
(-2.65396 0.00198823 0)
(-2.65814 0.0020241 0)
(-2.66237 0.00208281 0)
(-2.66663 0.00216645 0)
(-2.67094 0.00227674 0)
(-2.6753 0.00241578 0)
(-2.67971 0.00258523 0)
(-2.68418 0.00278726 0)
(-2.68871 0.00301872 0)
(-2.6933 0.00327019 0)
(-2.69798 0.00356739 0)
(-2.70273 0.00390008 0)
(-2.70757 0.00426353 0)
(-2.71249 0.00465467 0)
(-2.7175 0.00506969 0)
(-2.72262 0.00550398 0)
(-2.72784 0.00595274 0)
(-2.73319 0.00640844 0)
(-2.73866 0.00686132 0)
(-2.74427 0.00730061 0)
(-2.75003 0.0077142 0)
(-2.75596 0.00808826 0)
(-2.76206 0.0084068 0)
(-2.76836 0.00865186 0)
(-2.77487 0.00880379 0)
(-2.7816 0.00884184 0)
(-2.7886 0.0087465 0)
(-2.79586 0.00849925 0)
(-2.80343 0.00808028 0)
(-2.81131 0.00746135 0)
(-2.81953 0.00662991 0)
(-2.82811 0.00557305 0)
(-2.83703 0.00426906 0)