/*--------------------------------*- C++ -*----------------------------------*\
| =========                 |                                                 |
| \\      /  F ield         | OpenFOAM: The Open Source CFD Toolbox           |
|  \\    /   O peration     | Version:  2.1.0                                 |
|   \\  /    A nd           | Web:      www.OpenFOAM.org                      |
|    \\/     M anipulation  |                                                 |
\*---------------------------------------------------------------------------*/
FoamFile
{
    version     2.0;
    format      ascii;
    class       volScalarField;
    location    "0.01";
    object      C1;
}
// * * * * * * * * * * * * * * * * * * * * * * * * * * * * * * * * * * * * * //

dimensions      [0 0 0 0 0 0 0];

internalField   nonuniform List<scalar> 
6400
(
6.01942e-173
4.18017e-172
2.90435e-171
2.01282e-170
1.39164e-169
9.59979e-169
6.60636e-168
4.53603e-167
3.10723e-166
2.12409e-165
1.44884e-164
9.86142e-164
6.6963e-163
4.53605e-162
3.06474e-161
2.06556e-160
1.38864e-159
9.31271e-159
6.22954e-158
4.1564e-157
2.76603e-156
1.83591e-155
1.2152e-154
8.02501e-154
5.28631e-153
3.47295e-152
2.27545e-151
1.48673e-150
9.68645e-150
6.29248e-149
4.07603e-148
2.63262e-147
1.69578e-146
1.08917e-145
6.97488e-145
4.45313e-144
2.83524e-143
1.80015e-142
1.13958e-141
7.19271e-141
4.52648e-140
2.84028e-139
1.77677e-138
1.10824e-137
6.89252e-137
4.27364e-136
2.64193e-135
1.62838e-134
1.00082e-133
6.13306e-133
3.74727e-132
2.28299e-131
1.3871e-130
8.40457e-130
5.07763e-129
3.05985e-128
1.83926e-127
1.10262e-126
6.59222e-126
3.93167e-125
2.33914e-124
1.38805e-123
8.21631e-123
4.85163e-122
2.85721e-121
1.67813e-120
9.82828e-120
5.73947e-119
3.34096e-118
1.93837e-117
1.12045e-116
6.44926e-116
3.69417e-115
2.10449e-114
1.19175e-113
6.70394e-113
3.74264e-112
2.07171e-111
1.1355e-110
6.14638e-110
3.27815e-109
1.71779e-108
8.82266e-108
4.42733e-107
2.1617e-106
1.02183e-105
4.64583e-105
2.01459e-104
8.24032e-104
3.13293e-103
1.08534e-102
3.33183e-102
8.69618e-102
1.80632e-101
2.65772e-101
2.19108e-101
6.24589e-102
7.00398e-103
7.11769e-103
5.09955e-103
6.32494e-172
4.41225e-171
3.07941e-170
2.14382e-169
1.48901e-168
1.03195e-167
7.13566e-167
4.92288e-166
3.38788e-165
2.32687e-164
1.59472e-163
1.09083e-162
7.44444e-162
5.06869e-161
3.44239e-160
2.33221e-159
1.57602e-158
1.06264e-157
7.14698e-157
4.79447e-156
3.2082e-155
2.14106e-154
1.42458e-153
9.45815e-153
6.26428e-152
4.13796e-151
2.72608e-150
1.791e-149
1.17337e-148
7.66481e-148
4.99241e-147
3.2419e-146
2.09967e-145
1.35605e-144
8.73193e-144
5.60452e-143
3.5874e-142
2.29007e-141
1.45753e-140
9.24816e-140
5.85033e-139
3.68997e-138
2.31979e-137
1.45404e-136
9.08816e-136
5.66234e-135
3.51675e-134
2.17723e-133
1.34391e-132
8.26944e-132
5.07247e-131
3.10154e-130
1.89096e-129
1.14946e-128
6.9637e-128
4.20743e-127
2.53564e-126
1.52376e-125
9.1291e-125
5.45544e-124
3.25183e-123
1.93296e-122
1.146e-121
6.77962e-121
4.00061e-120
2.35497e-119
1.38283e-118
8.10102e-118
4.7336e-117
2.75949e-116
1.60458e-115
9.30362e-115
5.3768e-114
3.09595e-113
1.77564e-112
1.01402e-111
5.76272e-111
3.25711e-110
1.82999e-109
1.01957e-108
5.6165e-108
3.0494e-107
1.62757e-106
8.50919e-106
4.33684e-105
2.14205e-104
1.01759e-103
4.60476e-103
1.96031e-102
7.72505e-102
2.75838e-101
8.66722e-101
2.29711e-100
4.80897e-100
7.11844e-100
6.05292e-100
2.017e-100
3.59692e-101
3.84965e-101
2.92472e-101
6.08262e-171
4.26387e-170
2.99057e-169
2.09233e-168
1.46051e-167
1.01727e-166
7.07112e-166
4.90418e-165
3.39254e-164
2.34196e-163
1.61328e-162
1.10942e-161
7.61235e-161
5.21146e-160
3.55937e-159
2.4252e-158
1.64818e-157
1.11785e-156
7.56375e-156
5.10504e-155
3.43723e-154
2.30833e-153
1.54528e-152
1.03211e-151
6.87765e-151
4.57122e-150
3.0302e-149
2.00323e-148
1.32074e-147
8.68231e-147
5.69071e-146
3.71807e-145
2.42308e-144
1.57486e-143
1.02054e-142
6.5906e-142
4.24481e-141
2.72693e-140
1.74661e-139
1.1152e-138
7.09807e-138
4.5043e-137
2.84852e-136
1.79583e-135
1.12935e-134
7.07919e-134
4.42286e-133
2.75398e-132
1.70946e-131
1.05765e-130
6.52232e-130
4.00815e-129
2.45548e-128
1.49944e-127
9.12054e-127
5.53164e-126
3.3462e-125
2.01789e-124
1.21271e-123
7.26792e-123
4.34336e-122
2.58753e-121
1.53661e-120
9.10544e-120
5.38051e-119
3.17081e-118
1.86377e-117
1.09292e-116
6.39269e-116
3.73139e-115
2.17342e-114
1.26316e-113
7.32353e-113
4.23497e-112
2.44202e-111
1.40395e-110
8.04712e-110
4.59703e-109
2.61606e-108
1.48112e-107
8.31098e-107
4.60798e-106
2.51732e-105
1.34982e-104
7.06762e-104
3.58989e-103
1.75426e-102
8.16136e-102
3.56726e-101
1.44044e-100
5.25775e-100
1.6853e-99
4.55422e-99
9.7613e-99
1.50367e-98
1.40019e-98
5.9649e-99
1.89907e-99
2.17618e-99
1.81548e-99
5.47413e-170
3.85576e-169
2.71776e-168
1.91103e-167
1.34076e-166
9.38473e-166
6.55762e-165
4.57209e-164
3.17978e-163
2.20678e-162
1.52809e-161
1.0563e-160
7.28557e-160
5.01453e-159
3.44358e-158
2.35929e-157
1.61217e-156
1.09955e-155
7.48465e-155
5.08312e-154
3.4441e-153
2.3281e-152
1.56899e-151
1.05464e-150
7.07286e-150
4.73082e-149
3.15605e-148
2.09991e-147
1.39358e-146
9.22283e-146
6.08547e-145
4.00269e-144
2.62557e-143
1.71779e-142
1.1207e-141
7.28488e-141
4.72366e-140
3.05512e-139
1.97043e-138
1.26692e-137
8.11903e-137
5.18618e-136
3.30057e-135
2.09347e-134
1.32513e-133
8.36376e-133
5.26151e-132
3.29863e-131
2.06109e-130
1.28355e-129
7.96735e-129
4.92769e-128
3.03756e-127
1.86591e-126
1.14128e-125
6.95864e-125
4.2301e-124
2.56314e-123
1.54738e-122
9.31332e-122
5.58805e-121
3.34148e-120
1.99008e-119
1.1824e-118
7.00254e-118
4.13359e-117
2.4326e-116
1.42755e-115
8.35243e-115
4.8749e-114
2.83848e-113
1.64902e-112
9.55909e-112
5.52894e-111
3.18989e-110
1.83571e-109
1.05402e-108
6.03841e-108
3.45064e-107
1.96507e-106
1.11097e-105
6.21753e-105
3.43537e-104
1.867e-103
9.92883e-103
5.13192e-102
2.55603e-101
1.21364e-100
5.42038e-100
2.23934e-99
8.37929e-99
2.76351e-98
7.7399e-98
1.74486e-97
2.91478e-97
3.15036e-97
1.83989e-97
9.99089e-98
1.24664e-97
1.16311e-97
4.38444e-169
3.10268e-168
2.19722e-167
1.55336e-166
1.0961e-165
7.71582e-165
5.42091e-164
3.80094e-163
2.65873e-162
1.85606e-161
1.29258e-160
8.98657e-160
6.23444e-159
4.31553e-158
2.98094e-157
2.05424e-156
1.41204e-155
9.68793e-155
6.63418e-154
4.53388e-153
3.09169e-152
2.10428e-151
1.42834e-150
9.66785e-150
6.52804e-149
4.39612e-148
2.95275e-147
1.97824e-146
1.32205e-145
8.81261e-145
5.85692e-144
3.88033e-143
2.5629e-142
1.68909e-141
1.11026e-140
7.27285e-140
4.75179e-139
3.09576e-138
2.01185e-137
1.30376e-136
8.42086e-136
5.42099e-135
3.47565e-134
2.22029e-133
1.41556e-132
9.00384e-132
5.70907e-131
3.60778e-130
2.27184e-129
1.42581e-128
8.91729e-128
5.55921e-127
3.4534e-126
2.13781e-125
1.31795e-124
8.09573e-124
4.9537e-123
3.02069e-122
1.83501e-121
1.1109e-120
6.70511e-120
4.03269e-119
2.41499e-118
1.44178e-117
8.57697e-117
5.0825e-116
3.00061e-115
1.76552e-114
1.03511e-113
6.04993e-113
3.52548e-112
2.04846e-111
1.18731e-110
6.86628e-110
3.96109e-109
2.27932e-108
1.30841e-107
7.49388e-107
4.28275e-106
2.44072e-105
1.38234e-104
7.76002e-104
4.3075e-103
2.35614e-102
1.26403e-101
6.60775e-101
3.33796e-100
1.61255e-99
7.35437e-99
3.11658e-98
1.20347e-97
4.13224e-97
1.22163e-96
2.97386e-96
5.58264e-96
7.32195e-96
6.07021e-96
5.15654e-96
7.10502e-96
7.47343e-96
3.11477e-168
2.21456e-167
1.5761e-166
1.12063e-165
7.95401e-165
5.63112e-164
3.98039e-163
2.80779e-162
1.97649e-161
1.38835e-160
9.72973e-160
6.80463e-159
4.75123e-158
3.30873e-157
2.3006e-156
1.59572e-155
1.10408e-154
7.62232e-154
5.25173e-153
3.61085e-152
2.47771e-151
1.69777e-150
1.16034e-149
7.90958e-149
5.37861e-148
3.64749e-147
2.46771e-146
1.66522e-145
1.121e-144
7.52722e-144
5.04148e-143
3.36733e-142
2.24211e-141
1.48908e-140
9.86624e-140
6.51809e-139
4.29322e-138
2.81928e-137
1.84687e-136
1.20652e-135
7.85943e-135
5.10642e-134
3.30434e-133
2.13037e-132
1.36935e-131
8.78107e-131
5.61568e-130
3.5801e-129
2.27405e-128
1.43945e-127
9.07586e-127
5.70694e-126
3.57785e-125
2.23536e-124
1.39126e-123
8.62582e-123
5.32632e-122
3.27598e-121
2.00658e-120
1.22426e-119
7.44526e-119
4.51359e-118
2.72476e-117
1.63808e-116
9.81471e-116
5.85562e-115
3.47884e-114
2.05815e-113
1.21279e-112
7.11901e-112
4.16322e-111
2.42549e-110
1.40871e-109
8.15819e-109
4.71092e-108
2.71302e-107
1.55789e-106
8.91728e-106
5.09082e-105
2.89718e-104
1.64008e-103
9.21301e-103
5.12172e-102
2.81e-101
1.51538e-100
7.98574e-100
4.0814e-99
2.00383e-98
9.33997e-98
4.07421e-97
1.6348e-96
5.90901e-96
1.8737e-95
5.03238e-95
1.09052e-94
1.78537e-94
2.1082e-94
2.57368e-94
3.96396e-94
4.72507e-94
2.02256e-167
1.44599e-166
1.03496e-165
7.39447e-165
5.27541e-164
3.75761e-163
2.6716e-162
1.8956e-161
1.3424e-160
9.48905e-160
6.69326e-159
4.70858e-158
3.30707e-157
2.31943e-156
1.62296e-155
1.13288e-154
7.88891e-154
5.48286e-153
3.80169e-152
2.62948e-151
1.81529e-150
1.25151e-149
8.61211e-149
5.91157e-148
4.04874e-147
2.76544e-146
1.88427e-145
1.28075e-144
8.68504e-144
5.87572e-143
3.96598e-142
2.67045e-141
1.79308e-140
1.20013e-139
8.01288e-139
5.33937e-138
3.54688e-137
2.34861e-136
1.55158e-135
1.02202e-134
6.7169e-134
4.4026e-133
2.87663e-132
1.87306e-131
1.21509e-130
7.86006e-130
5.07152e-129
3.26092e-128
2.09042e-127
1.33545e-126
8.4991e-126
5.3922e-125
3.41088e-124
2.15146e-123
1.35266e-122
8.47526e-122
5.28842e-121
3.2864e-120
2.03347e-119
1.25245e-118
7.69038e-118
4.70778e-117
2.86971e-116
1.74149e-115
1.05299e-114
6.34395e-114
3.80483e-113
2.27164e-112
1.34996e-111
7.98555e-111
4.70179e-110
2.75632e-109
1.60935e-108
9.35902e-108
5.42324e-107
3.132e-106
1.80141e-105
1.03213e-104
5.8934e-104
3.35179e-103
1.8958e-102
1.06462e-101
5.92149e-101
3.25403e-100
1.76105e-99
9.34018e-99
4.82385e-98
2.40613e-97
1.14742e-96
5.16781e-96
2.16681e-95
8.31605e-95
2.86247e-94
8.61231e-94
2.19121e-93
4.53122e-93
7.47353e-93
1.22461e-92
2.13431e-92
2.90275e-92
1.20434e-166
8.65374e-166
6.22621e-165
4.47178e-164
3.20577e-163
2.29624e-162
1.64164e-161
1.17133e-160
8.34282e-160
5.93204e-159
4.21052e-158
2.98053e-157
2.10531e-156
1.48517e-155
1.04587e-154
7.34789e-154
5.14881e-153
3.60154e-152
2.51373e-151
1.74988e-150
1.2158e-149
8.43361e-149
5.84033e-148
4.03387e-147
2.78196e-146
1.91494e-145
1.31457e-144
8.99911e-144
6.14634e-143
4.18878e-142
2.84939e-141
1.93347e-140
1.30833e-139
8.82564e-139
5.93653e-138
3.98832e-137
2.67276e-136
1.78556e-135
1.19015e-134
7.91124e-134
5.24425e-133
3.46611e-132
2.28505e-131
1.50207e-130
9.83899e-130
6.42235e-129
4.18016e-128
2.71276e-127
1.75542e-126
1.13222e-125
7.27686e-125
4.6592e-124
2.974e-123
1.89442e-122
1.20299e-121
7.61419e-121
4.80542e-120
3.02109e-119
1.8915e-118
1.17854e-117
7.31661e-117
4.53027e-116
2.79346e-115
1.71506e-114
1.04843e-113
6.38673e-113
3.87598e-112
2.34103e-111
1.40776e-110
8.42228e-110
5.01286e-109
2.96888e-108
1.74987e-107
1.0269e-106
5.99603e-106
3.48391e-105
2.01536e-104
1.16108e-103
6.65623e-103
3.79607e-102
2.15142e-101
1.21041e-100
6.74848e-100
3.71893e-99
2.02104e-98
1.07905e-97
5.63219e-97
2.85514e-96
1.39435e-95
6.49701e-95
2.85638e-94
1.17001e-93
4.40132e-93
1.49481e-92
4.49174e-92
1.16851e-91
2.60395e-91
5.46422e-91
1.09371e-90
1.7166e-90
6.52612e-166
4.70728e-165
3.40585e-164
2.45959e-163
1.77271e-162
1.27614e-161
9.17241e-161
6.58165e-160
4.71425e-159
3.36974e-158
2.40457e-157
1.71217e-156
1.21692e-155
8.63124e-155
6.11321e-154
4.32232e-153
3.04749e-152
2.14478e-151
1.50673e-150
1.05577e-149
7.38087e-149
5.15292e-148
3.5908e-147
2.49572e-146
1.73279e-145
1.201e-144
8.30215e-144
5.72491e-143
3.93724e-142
2.7027e-141
1.85088e-140
1.26449e-139
8.62345e-139
5.86312e-138
3.97415e-137
2.68916e-136
1.81649e-135
1.22402e-134
8.22802e-134
5.51646e-133
3.68796e-132
2.45792e-131
1.63447e-130
1.08362e-129
7.16211e-129
4.71914e-128
3.10031e-127
2.03165e-126
1.32763e-125
8.64884e-125
5.61713e-124
3.63359e-123
2.3428e-122
1.50707e-121
9.67021e-121
6.18431e-120
3.94352e-119
2.50806e-118
1.58926e-117
1.00257e-116
6.29761e-116
3.94377e-115
2.46314e-114
1.5319e-113
9.48649e-113
5.84795e-112
3.59464e-111
2.20056e-110
1.34112e-109
8.13547e-109
4.91187e-108
2.95103e-107
1.76372e-106
1.04871e-105
6.20411e-105
3.65086e-104
2.13799e-103
1.24548e-102
7.21218e-102
4.15097e-101
2.37288e-100
1.34589e-99
7.56378e-99
4.20285e-98
2.3046e-97
1.2436e-96
6.58004e-96
3.39748e-95
1.7018e-94
8.21251e-94
3.78869e-93
1.65695e-92
6.80895e-92
2.60397e-91
9.17163e-91
2.94323e-90
8.51609e-90
2.23443e-89
5.24665e-89
9.6885e-89
3.1873e-165
2.31102e-164
1.68033e-163
1.21977e-162
8.83823e-162
6.39366e-161
4.61776e-160
3.32958e-159
2.39695e-158
1.72223e-157
1.23522e-156
8.84528e-156
6.32316e-155
4.50974e-154
3.20947e-153
2.28084e-152
1.61845e-151
1.1459e-150
8.0986e-150
5.7126e-149
4.01929e-148
2.82325e-147
1.98043e-146
1.38546e-145
9.67509e-145
6.74689e-144
4.6946e-143
3.25897e-142
2.25738e-141
1.56023e-140
1.07584e-139
7.40349e-139
5.08367e-138
3.48173e-137
2.37824e-136
1.62065e-135
1.10243e-134
7.48291e-134
5.06679e-133
3.42393e-132
2.30742e-131
1.5506e-130
1.03965e-129
6.94781e-129
4.63264e-128
3.07929e-127
2.04052e-126
1.34924e-125
8.89922e-125
5.85517e-124
3.84231e-123
2.51252e-122
1.63772e-121
1.06426e-120
6.89983e-120
4.45942e-119
2.87291e-118
1.84505e-117
1.18188e-116
7.545e-116
4.79846e-115
3.04153e-114
1.92221e-113
1.21134e-112
7.60584e-112
4.75445e-111
2.96244e-110
1.83919e-109
1.13638e-108
6.99721e-108
4.29256e-107
2.62202e-106
1.59377e-105
9.63561e-105
5.79843e-104
3.47366e-103
2.07075e-102
1.22751e-101
7.23448e-101
4.2379e-100
2.46499e-99
1.42264e-98
8.13868e-98
4.60816e-97
2.57766e-96
1.421e-95
7.69715e-95
4.08157e-94
2.10963e-93
1.05771e-92
5.11789e-92
2.37799e-91
1.05619e-90
4.4668e-90
1.79323e-89
6.81654e-89
2.44552e-88
8.04967e-88
2.29769e-87
5.16474e-87
1.38753e-164
1.01157e-163
7.38979e-163
5.39243e-162
3.92893e-161
2.8565e-160
2.07257e-159
1.50086e-158
1.08499e-157
7.83456e-157
5.65229e-156
4.07032e-155
2.92424e-154
2.09675e-153
1.50036e-152
1.07174e-151
7.64728e-151
5.44595e-150
3.86998e-149
2.74476e-148
1.9424e-147
1.37159e-146
9.67457e-146
6.81149e-145
4.78428e-144
3.35386e-143
2.34655e-142
1.6389e-141
1.14302e-140
7.95404e-140
5.52051e-139
3.82238e-138
2.64154e-137
1.82181e-136
1.25348e-135
8.60086e-135
5.88915e-134
4.02444e-133
2.74313e-132
1.86645e-131
1.26734e-130
8.58158e-130
5.79753e-129
3.90566e-128
2.62345e-127
1.75799e-126
1.17488e-125
7.83006e-125
5.2066e-124
3.45568e-123
2.2878e-122
1.51036e-121
9.94434e-121
6.52768e-120
4.27273e-119
2.78995e-118
1.81652e-117
1.17894e-116
7.63082e-116
4.9232e-115
3.1661e-114
2.03039e-113
1.2982e-112
8.28085e-112
5.26668e-111
3.33621e-110
2.10573e-109
1.32512e-108
8.30974e-108
5.19151e-107
3.23284e-106
2.00611e-105
1.23954e-104
7.62789e-104
4.67603e-103
2.85477e-102
1.73536e-101
1.04999e-100
6.32537e-100
3.79186e-99
2.26013e-98
1.33869e-97
7.87185e-97
4.58978e-96
2.64923e-95
1.51062e-94
8.48708e-94
4.68291e-93
2.52794e-92
1.32942e-91
6.78088e-91
3.34063e-90
1.5841e-89
7.21356e-89
3.15253e-88
1.32439e-87
5.37158e-87
2.12181e-86
7.46453e-86
2.06936e-85
5.3167e-164
3.8955e-163
2.85895e-162
2.09548e-161
1.53398e-160
1.12061e-159
8.16966e-159
5.94709e-158
4.32107e-157
3.13534e-156
2.27227e-155
1.64416e-154
1.18713e-153
8.55381e-153
6.1534e-152
4.41851e-151
3.16721e-150
2.26597e-149
1.61844e-148
1.15415e-147
8.21496e-147
5.83144e-146
4.13393e-145
2.92668e-144
2.06714e-143
1.4572e-142
1.02497e-141
7.19938e-141
5.04817e-140
3.532e-139
2.46641e-138
1.71821e-137
1.19443e-136
8.28696e-136
5.73669e-135
3.96091e-134
2.72821e-133
1.87669e-132
1.28825e-131
8.82086e-131
6.02759e-130
4.10895e-129
2.79395e-128
1.89561e-127
1.28254e-126
8.66019e-126
5.83316e-125
3.91768e-124
2.6247e-123
1.75454e-122
1.17041e-121
7.79166e-121
5.17538e-120
3.42722e-119
2.26278e-118
1.49087e-117
9.80296e-117
6.42395e-116
4.19868e-115
2.73623e-114
1.77764e-113
1.1517e-112
7.44179e-112
4.7939e-111
3.08011e-110
1.97408e-109
1.26079e-108
8.02656e-108
5.09638e-107
3.22545e-106
2.03438e-105
1.27893e-104
8.0119e-104
5.0046e-103
3.11552e-102
1.93201e-101
1.19398e-100
7.35245e-100
4.50892e-99
2.75387e-98
1.67424e-97
1.01246e-96
6.08599e-96
3.63237e-95
2.14933e-94
1.25857e-93
7.27627e-93
4.14155e-92
2.31301e-91
1.26276e-90
6.71243e-90
3.46114e-89
1.72564e-88
8.30122e-88
3.85082e-87
1.72543e-86
7.50365e-86
3.19521e-85
1.22949e-84
3.76904e-84
1.75806e-163
1.29407e-162
9.54156e-162
7.02254e-161
5.16053e-160
3.78584e-159
2.77446e-158
2.03094e-157
1.48371e-156
1.0815e-155
7.86714e-155
5.71444e-154
4.14541e-153
3.00198e-152
2.16989e-151
1.56568e-150
1.12757e-149
8.09966e-149
5.80785e-148
4.16122e-147
2.97702e-146
2.12405e-145
1.51228e-144
1.07523e-143
7.62996e-143
5.40521e-142
3.8228e-141
2.69824e-140
1.90098e-139
1.33649e-138
9.37905e-138
6.57042e-137
4.59279e-136
3.20335e-135
2.22925e-134
1.54805e-133
1.07236e-132
7.41845e-132
5.12369e-131
3.52826e-130
2.42418e-129
1.66188e-128
1.13673e-127
7.76424e-127
5.29127e-126
3.59545e-125
2.43835e-124
1.65012e-123
1.11361e-122
7.49954e-122
5.04019e-121
3.37845e-120
2.2596e-119
1.50837e-118
1.00479e-117
6.67257e-117
4.42142e-116
2.92215e-115
1.92629e-114
1.26633e-113
8.29815e-113
5.42196e-112
3.53426e-111
2.29745e-110
1.48908e-109
9.62948e-109
6.20965e-108
3.99279e-107
2.56102e-106
1.63858e-105
1.04506e-104
6.6412e-104
4.20938e-103
2.66104e-102
1.67748e-101
1.05382e-100
6.60022e-100
4.12246e-99
2.56593e-98
1.59148e-97
9.83242e-97
6.04788e-96
3.70094e-95
2.25086e-94
1.35878e-93
8.12865e-93
4.8093e-92
2.80711e-91
1.61168e-90
9.07183e-90
4.98845e-89
2.67025e-88
1.38693e-87
6.97257e-87
3.38863e-86
1.59305e-85
7.27107e-85
3.24571e-84
1.32708e-83
4.41318e-83
4.86726e-163
3.59973e-162
2.66602e-161
1.97064e-160
1.45414e-159
1.0715e-158
7.8864e-158
5.79703e-157
4.25404e-156
3.11498e-155
2.27559e-154
1.65957e-153
1.2088e-152
8.79361e-152
6.38556e-151
4.62719e-150
3.34691e-149
2.41587e-148
1.74015e-147
1.25127e-146
8.98805e-146
6.44351e-145
4.60733e-144
3.28892e-143
2.34344e-142
1.66717e-141
1.18451e-140
8.39602e-140
5.93973e-139
4.19431e-138
2.95648e-137
2.08108e-136
1.4616e-135
1.0241e-134
7.1644e-134
5.00192e-133
3.48329e-132
2.41978e-131
1.6786e-130
1.16278e-129
8.03295e-129
5.53592e-128
3.80904e-127
2.61609e-126
1.79299e-125
1.22571e-124
8.36079e-124
5.69554e-123
3.87126e-122
2.62419e-121
1.77501e-120
1.1975e-119
8.05523e-119
5.41027e-118
3.62778e-117
2.42438e-116
1.61584e-115
1.07513e-114
7.13595e-114
4.72302e-113
3.11786e-112
2.05245e-111
1.34735e-110
8.8242e-110
5.76434e-109
3.75566e-108
2.44078e-107
1.58207e-106
1.02324e-105
6.60014e-105
4.24406e-104
2.72202e-103
1.74197e-102
1.11157e-101
7.07552e-101
4.49161e-100
2.84247e-99
1.79432e-98
1.12971e-97
7.08829e-97
4.43383e-96
2.7637e-95
1.71484e-94
1.05833e-93
6.49001e-93
3.94915e-92
2.38055e-91
1.4187e-90
8.33898e-90
4.82117e-89
2.73336e-88
1.51481e-87
8.17986e-87
4.29133e-86
2.18238e-85
1.07494e-84
5.13671e-84
2.39311e-83
1.03557e-82
3.73895e-82
1.07975e-162
8.01744e-162
5.96004e-161
4.42232e-160
3.27619e-159
2.42478e-158
1.79191e-157
1.32177e-156
9.73407e-156
7.15428e-155
5.24798e-154
3.84344e-153
2.81054e-152
2.05276e-151
1.49682e-150
1.08922e-149
7.91253e-149
5.73697e-148
4.15083e-147
2.99648e-146
2.15951e-145
1.55413e-144
1.11631e-143
8.00281e-143
5.72701e-142
4.091e-141
2.9181e-140
2.07809e-139
1.47663e-138
1.04739e-137
7.41611e-137
5.242e-136
3.69757e-135
2.60202e-134
1.82831e-133
1.28213e-132
8.9729e-132
6.263e-131
4.36265e-130
3.03591e-129
2.10738e-128
1.45934e-127
1.00893e-126
6.96237e-126
4.79466e-125
3.29541e-124
2.25971e-123
1.54676e-122
1.057e-121
7.2038e-121
4.89589e-120
3.31943e-119
2.24462e-118
1.51428e-117
1.01956e-116
6.84779e-116
4.58814e-115
3.06741e-114
2.04634e-113
1.36199e-112
9.04116e-112
5.98491e-111
3.95053e-110
2.60149e-109
1.70949e-108
1.12045e-107
7.32375e-107
4.77521e-106
3.10683e-105
2.01579e-104
1.30391e-103
8.42325e-103
5.4277e-102
3.48596e-101
2.23328e-100
1.42786e-99
9.10481e-99
5.78949e-98
3.67354e-97
2.32443e-96
1.46651e-95
9.22414e-95
5.77954e-94
3.60474e-93
2.23638e-92
1.37878e-91
8.43778e-91
5.11881e-90
3.07355e-89
1.82325e-88
1.06625e-87
6.13183e-87
3.45762e-86
1.90557e-85
1.02304e-84
5.33502e-84
2.69929e-83
1.3271e-82
6.13881e-82
2.43324e-81
1.78182e-162
1.3277e-161
9.90476e-161
7.37675e-160
5.48488e-159
4.07322e-158
3.02022e-157
2.23515e-156
1.65164e-155
1.21848e-154
8.97432e-154
6.59922e-153
4.84514e-152
3.55235e-151
2.59981e-150
1.89893e-149
1.38479e-148
1.00813e-147
7.32543e-147
5.31244e-146
3.84526e-145
2.77819e-144
2.00404e-143
1.44301e-142
1.03708e-141
7.43993e-141
5.32729e-140
3.80817e-139
2.71743e-138
1.93603e-137
1.37667e-136
9.77022e-136
6.92011e-135
4.89047e-134
3.44965e-133
2.42861e-132
1.70629e-131
1.19642e-130
8.37144e-130
5.84648e-129
4.07481e-128
2.83378e-127
1.96666e-126
1.36265e-125
9.42549e-125
6.50763e-124
4.48361e-123
3.08135e-122
2.11259e-121
1.44498e-120
9.85721e-120
6.70767e-119
4.55437e-118
3.08443e-117
2.08377e-116
1.4046e-115
9.44737e-115
6.33965e-114
4.24437e-113
2.83531e-112
1.88914e-111
1.25536e-110
8.32003e-110
5.50014e-109
3.62746e-108
2.38627e-107
1.56574e-106
1.02496e-105
6.6927e-105
4.35912e-104
2.83278e-103
1.83664e-102
1.18775e-101
7.66068e-101
4.92748e-100
3.16205e-99
2.02426e-98
1.29242e-97
8.23629e-97
5.23704e-96
3.31972e-95
2.09817e-94
1.32181e-93
8.29659e-93
5.18622e-92
3.2275e-91
1.99893e-90
1.23171e-89
7.54857e-89
4.59918e-88
2.78394e-87
1.67222e-86
9.94794e-86
5.8436e-85
3.3753e-84
1.90706e-83
1.04851e-82
5.59053e-82
2.83295e-81
1.25988e-80
1.97697e-162
1.47762e-161
1.10572e-160
8.26135e-160
6.16286e-159
4.59027e-158
3.41333e-157
2.5339e-156
1.87814e-155
1.39012e-154
1.02737e-153
7.58039e-153
5.58474e-152
4.10832e-151
3.01672e-150
2.2109e-149
1.61763e-148
1.1816e-147
8.61725e-147
6.27362e-146
4.55889e-145
3.30656e-144
2.3938e-143
1.73001e-142
1.24811e-141
8.98764e-141
6.45981e-140
4.63448e-139
3.31917e-138
2.37295e-137
1.69322e-136
1.20591e-135
8.57136e-135
6.08061e-134
4.30496e-133
3.0417e-132
2.14471e-131
1.50917e-130
1.05976e-129
7.42513e-129
5.19196e-128
3.6237e-127
2.52373e-126
1.75435e-125
1.21738e-124
8.4316e-124
5.82707e-123
4.0171e-122
2.76237e-121
1.89487e-120
1.29665e-119
8.85289e-119
6.03109e-118
4.09886e-117
2.77849e-116
1.87898e-115
1.26769e-114
8.53256e-114
5.72856e-113
3.83644e-112
2.56305e-111
1.70813e-110
1.13554e-109
7.52876e-109
4.97808e-108
3.28277e-107
2.15937e-106
1.41698e-105
9.27373e-105
6.05336e-104
3.94269e-103
2.56087e-102
1.65846e-101
1.07135e-100
6.90213e-100
4.43428e-99
2.84101e-98
1.81527e-97
1.15704e-96
7.35589e-96
4.66191e-95
2.94502e-94
1.85499e-93
1.16508e-92
7.29822e-92
4.56176e-91
2.84736e-90
1.77674e-89
1.10992e-88
6.95267e-88
4.37446e-87
2.76806e-86
1.76235e-85
1.1276e-84
7.22334e-84
4.60001e-83
2.88178e-82
1.75538e-81
1.02229e-80
5.30597e-80
1.61074e-162
1.20622e-161
9.04369e-161
6.76994e-160
5.06024e-159
3.77605e-158
2.81293e-157
2.09205e-156
1.55335e-155
1.15161e-154
8.52511e-154
6.30119e-153
4.64992e-152
3.4255e-151
2.51892e-150
1.84901e-149
1.35492e-148
9.91141e-148
7.23837e-147
5.27717e-146
3.84018e-145
2.78943e-144
2.0223e-143
1.46343e-142
1.05718e-141
7.62235e-141
5.48516e-140
3.93998e-139
2.82491e-138
2.02141e-137
1.44363e-136
1.02897e-135
7.31978e-135
5.19711e-134
3.68229e-133
2.60354e-132
1.83704e-131
1.2935e-130
9.0882e-130
6.37105e-129
4.45696e-128
3.11185e-127
2.1681e-126
1.50721e-125
1.04559e-124
7.2384e-124
4.99987e-123
3.44543e-122
2.36854e-121
1.62417e-120
1.111e-119
7.58225e-119
5.16245e-118
3.50593e-117
2.37465e-116
1.60443e-115
1.08128e-114
7.26852e-114
4.87311e-113
3.25864e-112
2.17352e-111
1.44606e-110
9.59585e-110
6.34971e-109
4.1894e-108
2.75626e-107
1.80839e-106
1.1832e-105
7.71901e-105
5.02093e-104
3.25676e-103
2.10577e-102
1.35711e-101
8.7189e-101
5.58284e-100
3.56243e-99
2.26528e-98
1.43537e-97
9.06154e-97
5.70028e-96
3.57354e-95
2.23285e-94
1.39121e-93
8.65045e-93
5.37344e-92
3.33956e-91
2.08093e-90
1.30361e-89
8.23932e-89
5.27698e-88
3.44246e-87
2.30056e-86
1.5842e-85
1.12953e-84
8.35385e-84
6.37974e-83
4.95727e-82
3.81868e-81
2.81794e-80
1.84225e-79
1.13634e-162
8.50582e-162
6.3739e-161
4.76833e-160
3.56145e-159
2.65539e-158
1.97624e-157
1.46821e-156
1.08891e-155
8.06268e-155
5.96054e-154
4.39948e-153
3.24177e-152
2.38405e-151
1.74995e-150
1.28227e-149
9.37831e-149
6.84665e-148
4.9895e-147
3.62939e-146
2.63493e-145
1.90925e-144
1.3807e-143
9.96559e-143
7.17901e-142
5.16113e-141
3.70296e-140
2.65148e-139
1.89473e-138
1.35108e-137
9.61419e-137
6.82677e-136
4.83726e-135
3.42041e-134
2.41313e-133
1.69865e-132
1.19304e-131
8.36024e-131
5.84468e-130
4.07623e-129
2.83644e-128
1.96941e-127
1.36427e-126
9.42699e-126
6.49785e-125
4.46809e-124
3.065e-123
2.09727e-122
1.43123e-121
9.74045e-121
6.61112e-120
4.47529e-119
3.02127e-118
2.03381e-117
1.36507e-116
9.13598e-116
6.09666e-115
4.05641e-114
2.69078e-113
1.77961e-112
1.1735e-111
7.71519e-111
5.05673e-110
3.30334e-109
2.15053e-108
1.39529e-107
9.02259e-107
5.81461e-106
3.73383e-105
2.38906e-104
1.52301e-103
9.67053e-103
6.11594e-102
3.8519e-101
2.41548e-100
1.50789e-99
9.36925e-99
5.79404e-98
3.56529e-97
2.18323e-96
1.3308e-95
8.0794e-95
4.88901e-94
2.95227e-93
1.78201e-92
1.07761e-91
6.54845e-91
4.0149e-90
2.49667e-89
1.58561e-88
1.03783e-87
7.0851e-87
5.12493e-86
4.00846e-85
3.4735e-84
3.41099e-83
3.81096e-82
4.64454e-81
5.46766e-80
5.2977e-79
5.19061e-163
3.88084e-162
2.90471e-161
2.17022e-160
1.61866e-159
1.20505e-158
8.95392e-158
6.64073e-157
4.91621e-156
3.63322e-155
2.68055e-154
1.97431e-153
1.45154e-152
1.06497e-151
7.79802e-151
5.69933e-150
4.15718e-149
3.02638e-148
2.19891e-147
1.59452e-146
1.15386e-145
8.33246e-145
6.00465e-144
4.3183e-143
3.09901e-142
2.21914e-141
1.58566e-140
1.13057e-139
8.04309e-139
5.70873e-138
4.04277e-137
2.85634e-136
2.01341e-135
1.41597e-134
9.93369e-134
6.95176e-133
4.85296e-132
3.3793e-131
2.34701e-130
1.62576e-129
1.12332e-128
7.74226e-128
5.3224e-127
3.64864e-126
2.49416e-125
1.70026e-124
1.15591e-123
7.83625e-123
5.29631e-122
3.56863e-121
2.39717e-120
1.60532e-119
1.07167e-118
7.13055e-118
4.72845e-117
3.12509e-116
2.05834e-115
1.35098e-114
8.83554e-114
5.75798e-113
3.73897e-112
2.41907e-111
1.55921e-110
1.00092e-109
6.39838e-109
4.07296e-108
2.58171e-107
1.62936e-106
1.02359e-105
6.40051e-105
3.98277e-104
2.46542e-103
1.5181e-102
9.29521e-102
5.65819e-101
3.42315e-100
2.05784e-99
1.22903e-98
7.29029e-98
4.2942e-97
2.51252e-96
1.46123e-95
8.4542e-95
4.87229e-94
2.80199e-93
1.61169e-92
9.30031e-92
5.40521e-91
3.18009e-90
1.90669e-89
1.17544e-88
7.54224e-88
5.12673e-87
3.79618e-86
3.22215e-85
3.49477e-84
6.02559e-83
1.85897e-81
6.19136e-80
1.22748e-78
1.55828e-103
1.17616e-103
8.21838e-104
5.35489e-104
3.29697e-104
1.94368e-104
1.12044e-104
6.47684e-105
3.83709e-105
2.36017e-105
1.51339e-105
1.00867e-105
6.92789e-106
4.83765e-106
3.38315e-106
2.35302e-106
1.64882e-106
1.19689e-106
8.94221e-107
6.58714e-107
1.22479e-101
8.72896e-102
5.84131e-102
3.69816e-102
2.22776e-102
1.28933e-102
7.31137e-103
4.16482e-103
2.4355e-103
1.48112e-103
9.40445e-104
6.21629e-104
4.24055e-104
2.94475e-104
2.04968e-104
1.4194e-104
9.90787e-105
7.17413e-105
5.34814e-105
3.89971e-105
9.45481e-100
6.51264e-100
4.18947e-100
2.57183e-100
1.51195e-100
8.57206e-101
4.77341e-101
2.67556e-101
1.54258e-101
9.266e-102
5.8216e-102
3.81403e-102
2.58301e-102
1.78324e-102
1.23508e-102
8.51374e-103
5.91835e-103
4.27384e-103
3.17881e-103
2.29327e-103
7.12669e-98
4.78586e-98
2.98422e-98
1.78178e-98
1.02257e-98
5.67494e-99
3.09981e-99
1.70775e-99
9.69742e-100
5.7487e-100
3.57123e-100
2.31771e-100
1.55765e-100
1.06877e-100
7.36397e-101
5.05166e-101
3.4962e-101
2.51745e-101
1.86806e-101
1.33263e-101
5.22811e-96
3.44455e-96
2.09411e-96
1.22102e-96
6.85511e-97
3.72642e-97
1.99635e-97
1.08046e-97
6.0392e-98
3.53111e-98
2.16789e-98
1.39314e-98
9.28844e-99
6.33287e-99
4.34013e-99
2.96235e-99
2.04066e-99
1.46491e-99
1.08448e-99
7.64569e-100
3.72407e-94
2.42009e-94
1.44121e-94
8.23631e-95
4.53482e-95
2.41796e-95
1.27116e-95
6.75891e-96
3.71796e-96
2.14357e-96
1.30023e-96
8.27162e-97
5.47018e-97
3.70563e-97
2.52586e-97
1.71514e-97
1.17575e-97
8.41351e-98
6.21415e-98
4.32707e-98
2.57282e-92
1.65645e-92
9.69952e-93
5.45029e-93
2.95009e-93
1.54537e-93
7.9795e-94
4.17005e-94
2.25784e-94
1.28363e-94
7.69222e-95
4.84407e-95
3.17741e-95
2.13871e-95
1.44998e-95
9.79471e-96
6.68076e-96
4.76514e-96
3.51168e-96
2.41355e-96
1.72353e-90
1.10324e-90
6.37099e-91
3.52934e-91
1.88212e-91
9.7016e-92
4.92527e-92
2.53142e-92
1.34965e-92
7.5682e-93
4.48133e-93
2.79388e-93
1.81795e-93
1.21604e-93
8.20144e-94
5.51165e-94
3.74025e-94
2.65906e-94
1.95555e-94
1.32565e-94
1.11982e-88
7.14497e-89
4.07793e-89
2.23187e-89
1.17487e-89
5.96802e-90
2.98216e-90
1.50861e-90
7.92514e-91
4.38536e-91
2.56672e-91
1.58473e-91
1.02321e-91
6.80383e-92
4.56607e-92
3.05325e-92
2.0614e-92
1.46077e-92
1.07232e-92
7.16385e-93
7.0591e-87
4.49709e-87
2.54026e-87
1.37585e-87
7.16094e-88
3.58973e-88
1.76749e-88
8.80858e-89
4.56294e-89
2.49316e-89
1.44319e-89
8.82839e-90
5.65868e-90
3.74202e-90
2.49981e-90
1.66365e-90
1.11756e-90
7.89431e-91
5.78597e-91
3.80614e-91
3.37383e-85
2.14537e-85
1.20146e-85
6.45291e-86
3.32768e-86
1.64936e-86
8.01563e-87
3.94137e-87
2.01602e-87
1.08909e-87
6.24229e-88
3.78734e-88
2.412e-88
1.58743e-88
1.05615e-88
6.9958e-89
4.67286e-89
3.28644e-89
2.40291e-89
1.56206e-89
6.90595e-84
4.4402e-84
2.52808e-84
1.38872e-84
7.34378e-85
3.73102e-85
1.8558e-85
9.32403e-86
4.86823e-86
2.68355e-86
1.56769e-86
9.68098e-87
6.26674e-87
4.18591e-87
2.81947e-87
1.88321e-87
1.26268e-87
8.89471e-88
6.51052e-88
4.2037e-88
9.08959e-83
5.93627e-83
3.46063e-83
1.96271e-83
1.07622e-83
5.67172e-84
2.92305e-84
1.51934e-84
8.19526e-85
4.66278e-85
2.80684e-85
1.78218e-85
1.18349e-85
8.0895e-86
5.55557e-86
3.76349e-86
2.54393e-86
1.80017e-86
1.32184e-86
8.49434e-87
8.75492e-82
5.84217e-82
3.50868e-82
2.06891e-82
1.18523e-82
6.52872e-83
3.51241e-83
1.90247e-83
1.0675e-83
6.30797e-84
3.93573e-84
2.5833e-84
1.76854e-84
1.24251e-84
8.73407e-85
6.01998e-85
4.11218e-85
2.92819e-85
2.15988e-85
1.38359e-85
6.57862e-81
4.52145e-81
2.81764e-81
1.73986e-81
1.04892e-81
6.08029e-82
3.43581e-82
1.94996e-82
1.14386e-82
7.04922e-83
4.57528e-83
3.11442e-83
2.20431e-83
1.5958e-83
1.1507e-83
8.08455e-84
5.58853e-84
4.00853e-84
2.97281e-84
1.90139e-84
4.0079e-80
2.86544e-80
1.86857e-80
1.21818e-80