/*--------------------------------*- C++ -*----------------------------------*\
| =========                 |                                                 |
| \\      /  F ield         | OpenFOAM: The Open Source CFD Toolbox           |
|  \\    /   O peration     | Version:  2.1.0                                 |
|   \\  /    A nd           | Web:      www.OpenFOAM.org                      |
|    \\/     M anipulation  |                                                 |
\*---------------------------------------------------------------------------*/
FoamFile
{
    version     2.0;
    format      ascii;
    class       volScalarField;
    location    "0.01";
    object      k;
}
// * * * * * * * * * * * * * * * * * * * * * * * * * * * * * * * * * * * * * //

dimensions      [0 2 -2 0 0 0 0];

internalField   nonuniform List<scalar> 
6400
(
0.00598304
0.00598477
0.00598555
0.00598604
0.00598646
0.00598654
0.0059861
0.00598457
0.00598367
0.00598271
0.00598304
0.00598364
0.00598471
0.00598539
0.00598584
0.00598639
0.00598681
0.00598674
0.00598601
0.00598536
0.00598459
0.00598302
0.0059827
0.00598263
0.00598287
0.00598392
0.00598437
0.00598476
0.00598553
0.00598573
0.0059855
0.00598517
0.00598502
0.00598486
0.00598454
0.00598455
0.00598479
0.00598439
0.00598346
0.00598319
0.00598339
0.0059835
0.00598338
0.00598361
0.00598409
0.0059843
0.00598429
0.00598463
0.00598471
0.0059847
0.00598434
0.00598413
0.00598419
0.00598434
0.00598495
0.00598521
0.00598536
0.00598535
0.00598533
0.00598532
0.005985
0.00598513
0.00598587
0.00598594
0.00598582
0.00598566
0.00598559
0.00598529
0.00598579
0.00598684
0.00598758
0.00598952
0.00599203
0.00599515
0.00600014
0.00600704
0.00601646
0.00602684
0.00602905
0.00602164
0.00599321
0.00593658
0.00584678
0.00571237
0.00552568
0.00527476
0.00495968
0.00458792
0.00418263
0.00376989
0.00337872
0.00303781
0.00276937
0.00259109
0.00247571
0.00235918
0.00213623
0.00196032
0.00222814
0.00252668
0.00113506
0.00113296
0.00113218
0.0011316
0.00113162
0.00113151
0.00113041
0.0011302
0.00113082
0.00113047
0.00113088
0.00113093
0.00113106
0.00113169
0.00113125
0.00113139
0.00113203
0.001131
0.0011305
0.00113079
0.0011304
0.00112999
0.0011304
0.00113062
0.00113034
0.00113098
0.00113082
0.0011312
0.00113161
0.00113135
0.00113074
0.00113088
0.00113081
0.00113099
0.00113062
0.00113069
0.00113109
0.00113071
0.00113077
0.00113057
0.00113095
0.00113096
0.0011308
0.00113133
0.00113124
0.00113111
0.00113066
0.00113085
0.0011309
0.00113111
0.00113038
0.00113042
0.00113072
0.0011306
0.00113091
0.00113111
0.00113102
0.00113035
0.00113073
0.00113065
0.00113091
0.00113087
0.00113145
0.00113092
0.00113048
0.0011307
0.00113074
0.0011307
0.00113079
0.00113204
0.0011329
0.00113409
0.00113441
0.00113469
0.00113633
0.00113803
0.00113786
0.00113744
0.00113788
0.00114119
0.00114419
0.00115184
0.00115705
0.00116101
0.00117434
0.00120025
0.00124752
0.00132078
0.00142361
0.00155822
0.00173339
0.00197956
0.00235021
0.00289438
0.00337511
0.00355485
0.00359584
0.00330014
0.00256863
0.00231522
0.00103205
0.00103198
0.00103201
0.00103198
0.00103203
0.00103247
0.00103293
0.00103286
0.00103285
0.00103233
0.00103241
0.00103239
0.00103251
0.00103277
0.0010327
0.00103262
0.00103268
0.00103279
0.001033
0.00103259
0.00103289
0.00103254
0.00103245
0.00103182
0.0010316
0.00103212
0.001032
0.00103222
0.00103211
0.00103258
0.00103253
0.00103219
0.00103199
0.00103214
0.0010325
0.0010328
0.00103297
0.0010329
0.0010331
0.00103293
0.00103235
0.00103246
0.00103227
0.00103246
0.00103265
0.00103276
0.0010326
0.0010321
0.00103179
0.00103189
0.00103213
0.00103233
0.00103227
0.00103148
0.00103217
0.00103172
0.00103222
0.00103243
0.00103228
0.00103226
0.00103223
0.0010319
0.00103223
0.0010323
0.00103239
0.00103219
0.00103214
0.00103207
0.00103211
0.00103211
0.00103201
0.00103209
0.00103202
0.00103164
0.00103122
0.0010304
0.00102944
0.00102932
0.00102893
0.00102875
0.00102963
0.00103229
0.00103685
0.00104478
0.00105791
0.00107899
0.00112167
0.00119281
0.00129681
0.0014446
0.00166248
0.00200365
0.00253293
0.00317235
0.00344672
0.00352579
0.00345194
0.00294032
0.00228766
0.00201761
0.00101821
0.00101829
0.0010182
0.0010181
0.0010179
0.00101824
0.00101807
0.001018
0.00101816
0.00101824
0.00101832
0.00101821
0.00101806
0.0010184
0.00101821
0.00101796
0.00101817
0.00101801
0.00101804
0.00101802
0.00101791
0.00101769
0.00101812
0.00101828
0.00101817
0.00101839
0.00101828
0.00101839
0.00101829
0.00101823
0.00101832
0.00101837
0.00101831
0.00101823
0.00101795
0.00101821
0.0010182
0.00101804
0.00101828
0.00101828
0.0010182
0.0010184
0.00101828
0.0010183
0.00101807
0.00101805
0.00101825
0.00101835
0.00101836
0.00101827
0.00101803
0.00101821
0.00101821
0.00101779
0.00101827
0.00101813
0.00101827
0.00101809
0.00101804
0.00101818
0.0010183
0.00101816
0.00101844
0.0010182
0.0010182
0.00101837
0.0010184
0.00101826
0.00101816
0.00101834
0.00101819
0.00101824
0.00101786
0.00101721
0.00101714
0.00101698
0.00101639
0.0010159
0.00101522
0.00101502
0.00101497
0.0010153
0.00101635
0.00101952
0.00102768
0.00104611
0.00108306
0.00114441
0.00123214
0.00135531
0.00153786
0.00183295
0.00227995
0.00252375
0.00257823
0.00258027
0.00242073
0.00215526
0.00202833
0.0019978
0.00101055
0.00101048
0.00101064
0.00101046
0.00101031
0.00101045
0.00101045
0.00101031
0.00101031
0.00101037
0.00101046
0.00101039
0.00101042
0.00101046
0.00101038
0.00101025
0.00101046
0.00101035
0.00101033
0.00101038
0.00101033
0.00101052
0.0010106
0.00101056
0.00101054
0.00101048
0.00101048
0.00101046
0.00101049
0.00101066
0.00101052
0.00101058
0.00101039
0.00101026
0.00101018
0.00101031
0.00101032
0.00101029
0.00101034
0.00101038
0.00101042
0.0010105
0.00101053
0.00101051
0.00101061
0.00101051
0.00101063
0.00101053
0.00101063
0.00101069
0.00101057
0.00101064
0.00101054
0.00101043
0.00101051
0.00101064
0.00101074
0.00101071
0.00101059
0.00101049
0.00101054
0.00101046
0.00101056
0.0010104
0.00101044
0.00101021
0.00101044
0.0010104
0.00101046
0.00101053
0.00101049
0.00101059
0.00101025
0.00100998
0.00101006
0.0010099
0.00100963
0.00100936
0.00100936
0.00100932
0.00100946
0.00100987
0.00101107
0.00101384
0.00102025
0.00103444
0.0010625
0.00110976
0.00117794
0.00127357
0.00141185
0.00162389
0.00192643
0.00208977
0.00213163
0.00212982
0.00204833
0.00201172
0.00202398
0.00209507
0.00100764
0.00100752
0.00100764
0.00100755
0.00100747
0.0010076
0.00100761
0.00100743
0.00100734
0.00100734
0.00100739
0.00100734
0.00100743
0.00100753
0.00100743
0.00100734
0.00100746
0.00100744
0.00100745
0.0010075
0.00100736
0.00100751
0.00100763
0.00100749
0.00100745
0.00100727
0.0010074
0.00100749
0.00100749
0.00100738
0.00100722
0.00100716
0.00100723
0.00100717
0.00100721
0.00100714
0.00100711
0.00100716
0.00100716
0.00100724
0.00100723
0.00100728
0.00100756
0.00100757
0.00100752
0.00100749
0.00100753
0.00100758
0.00100762
0.00100758
0.00100755
0.00100748
0.00100755
0.00100759
0.00100753
0.00100751
0.00100753
0.0010076
0.00100765
0.00100756
0.00100741
0.00100744
0.0010074
0.00100739
0.00100745
0.00100742
0.00100747
0.00100752
0.0010076
0.00100756
0.00100752
0.0010075
0.00100747
0.00100731
0.00100736
0.0010073
0.00100751
0.00100747
0.00100748
0.00100749
0.00100764
0.00100818
0.0010094
0.00101174
0.00101707
0.00102841
0.00105081
0.00108907
0.0011456
0.00122598
0.00134053
0.0015066
0.00172392
0.00190915
0.00201189
0.00206836
0.0021001
0.00213129
0.00225354
0.00234223
0.00100704
0.0010069
0.00100709
0.00100711
0.00100707
0.00100703
0.00100689
0.0010068
0.00100693
0.00100686
0.00100692
0.00100688
0.00100692
0.00100688
0.00100688
0.00100692
0.00100687
0.00100685
0.00100678
0.00100677
0.00100671
0.00100684
0.00100666
0.00100675
0.00100658
0.00100663
0.00100668
0.00100666
0.00100678
0.00100661
0.00100656
0.00100664
0.00100664
0.00100663
0.0010066
0.0010065
0.00100661
0.0010065
0.00100648
0.0010066
0.00100649
0.00100644
0.0010067
0.00100691
0.00100688
0.00100689
0.00100684
0.00100689
0.00100685
0.00100682
0.00100679
0.0010067
0.00100665
0.00100675
0.00100676
0.00100673
0.00100686
0.00100726
0.00100714
0.00100693
0.00100674
0.00100683
0.00100687
0.00100685
0.00100679
0.00100674
0.00100696
0.00100694
0.00100706
0.00100706
0.00100712
0.00100716
0.00100697
0.001007
0.00100693
0.00100683
0.00100692
0.00100698
0.00100706
0.00100715
0.00100728
0.0010078
0.00100872
0.00101083
0.00101537
0.00102473
0.00104341
0.00107604
0.00112465
0.00119247
0.00128527
0.00141626
0.00159199
0.00176372
0.00191008
0.00206457
0.00221878
0.00236029
0.0025061
0.00256896
0.00100686
0.00100666
0.00100671
0.00100684
0.00100676
0.00100672
0.00100668
0.00100662
0.00100673
0.00100667
0.00100662
0.00100668
0.00100678
0.00100675
0.00100666
0.00100681
0.00100677
0.00100657
0.00100642
0.0010064
0.00100647
0.00100655
0.00100638
0.00100633
0.00100623
0.00100621
0.00100613
0.00100649
0.00100652
0.00100643
0.00100639
0.00100643
0.00100661
0.00100661
0.00100661
0.00100653
0.00100649
0.00100642
0.00100637
0.00100627
0.00100625
0.00100623
0.00100632
0.00100629
0.0010064
0.00100645
0.00100641
0.00100641
0.00100644
0.00100626
0.0010064
0.00100619
0.0010062
0.00100617
0.00100635
0.00100649
0.00100665
0.00100681
0.0010068
0.00100669
0.0010067
0.00100666
0.00100672
0.00100688
0.00100675
0.00100673
0.00100679
0.00100681
0.00100698
0.00100697
0.00100699
0.00100711
0.00100702
0.00100687
0.00100682
0.00100694
0.00100688
0.00100686
0.00100686
0.00100688
0.00100682
0.00100724
0.0010085
0.00101059
0.00101441
0.00102237
0.00103852
0.00106733
0.0011108
0.00116975
0.00124656
0.00134928
0.00148785
0.00163528
0.00177253
0.0019539
0.00219477
0.00243181
0.00258689
0.0026496
0.00100692
0.00100657
0.0010067
0.0010067
0.00100651
0.0010066
0.00100648
0.0010066
0.00100661
0.00100661
0.00100663
0.00100659
0.00100676
0.00100686
0.00100673
0.00100663
0.00100654
0.00100637
0.00100631
0.00100638
0.00100654
0.00100644
0.00100637
0.00100638
0.00100614
0.00100603
0.00100606
0.00100628
0.00100643
0.00100641
0.00100635
0.00100669
0.00100664
0.00100652
0.00100661
0.00100629
0.00100613
0.0010061
0.00100606
0.00100604
0.00100607
0.00100613
0.00100629
0.00100639
0.00100645
0.00100626
0.00100619
0.00100629
0.00100622
0.00100623
0.00100614
0.00100625
0.00100638
0.00100626
0.00100627
0.00100631
0.00100659
0.00100665
0.00100684
0.00100699
0.00100697
0.00100689
0.00100684
0.0010068
0.00100689
0.00100687
0.00100694
0.00100693
0.00100697
0.00100693
0.00100685
0.00100681
0.00100695
0.00100694
0.00100693
0.00100695
0.00100698
0.00100686
0.0010069
0.00100681
0.0010069
0.00100748
0.00100826
0.00101031
0.00101383
0.00102103
0.00103536
0.00106156
0.00110129
0.00115417
0.00122057
0.00130589
0.00141967
0.00154391
0.00165084
0.0018001
0.00203565
0.00230781
0.00248946
0.00256012
0.00100679
0.00100646
0.00100651
0.00100651
0.00100646
0.00100645
0.00100665
0.0010066
0.00100659
0.00100662
0.00100664
0.00100643
0.00100655
0.00100666
0.00100676
0.00100673
0.00100635
0.00100629
0.0010063
0.00100653
0.0010065
0.00100644
0.00100639
0.0010065
0.00100635
0.00100621
0.00100629
0.00100635
0.00100639
0.0010065
0.0010065
0.00100652
0.00100637
0.00100644
0.00100631
0.00100623
0.00100625
0.00100627
0.00100627
0.00100601
0.00100599
0.00100593
0.00100608
0.00100611
0.00100611
0.00100605
0.00100614
0.00100619
0.0010062
0.00100611
0.00100617
0.00100628
0.00100631
0.00100628
0.00100627
0.00100634
0.00100652
0.00100668
0.00100673
0.00100676
0.00100701
0.0010071
0.00100697
0.00100707
0.00100711
0.00100716
0.00100709
0.00100705
0.00100721
0.00100702
0.00100679
0.00100671
0.00100665
0.00100692
0.00100709
0.00100695
0.00100691
0.0010069
0.00100682
0.00100685
0.00100699
0.0010074
0.00100834
0.00101027
0.00101353
0.00102042
0.00103404
0.00105889
0.00109704
0.0011475
0.00121008
0.00128991
0.00139515
0.00150559
0.00159335
0.00172249
0.00194044
0.00219669
0.00238209
0.0024575
0.00100681
0.0010065
0.00100636
0.00100632
0.0010065
0.00100655
0.00100654
0.0010065
0.00100656
0.00100645
0.00100648
0.00100641
0.00100641
0.00100646
0.00100648
0.00100647
0.00100645
0.00100645
0.00100651
0.00100647
0.00100652
0.00100638
0.00100635
0.00100643
0.00100639
0.00100641
0.00100637
0.00100639
0.00100631
0.00100635
0.00100638
0.00100648
0.00100631
0.00100615
0.00100613
0.0010062
0.00100615
0.00100627
0.00100623
0.00100592
0.00100585
0.00100585
0.00100589
0.00100588
0.00100594
0.0010062
0.00100629
0.00100635
0.00100632
0.00100607
0.00100608
0.00100615
0.00100612
0.00100637
0.00100652
0.00100653
0.00100658
0.00100662
0.00100682
0.00100694
0.00100699
0.00100699
0.00100705
0.0010069
0.00100685
0.001007
0.00100702
0.00100706
0.00100693
0.00100682
0.00100679
0.00100686
0.00100699
0.00100717
0.00100705
0.00100693
0.00100702
0.00100709
0.00100697
0.00100672
0.00100693
0.00100747
0.00100842
0.00101025
0.0010137
0.00102064
0.00103457
0.00105983
0.0010985
0.00114993
0.00121403
0.00129623
0.00140441
0.00151593
0.00160414
0.00173534
0.00195566
0.00221372
0.00239646
0.00247057
0.00100671
0.00100674
0.00100648
0.0010064
0.00100638
0.00100642
0.00100636
0.00100639
0.00100638
0.00100632
0.00100628
0.00100634
0.00100632
0.00100627
0.00100641
0.00100646
0.00100653
0.00100643
0.00100654
0.00100663
0.00100673
0.00100666
0.00100626
0.00100621
0.00100633
0.00100631
0.00100637
0.00100636
0.00100631
0.00100633
0.00100649
0.00100643
0.00100626
0.00100595
0.00100599
0.00100625
0.00100625
0.0010062
0.00100641
0.00100624
0.00100611
0.00100605
0.00100609
0.00100614
0.00100632
0.00100626
0.0010065
0.0010066
0.00100622
0.00100625
0.00100624
0.00100619
0.0010062
0.0010064
0.00100643
0.00100642
0.00100641
0.00100665
0.00100668
0.00100675
0.00100698
0.00100708
0.00100727
0.00100724
0.00100709
0.00100685
0.001007
0.00100702
0.00100709
0.0010071
0.00100715
0.00100703
0.00100697
0.00100706
0.00100695
0.00100694
0.00100698
0.00100696
0.00100694
0.00100696
0.00100718
0.00100758
0.00100844
0.00101053
0.00101407
0.00102164
0.0010365
0.00106348
0.00110445
0.00115919
0.00122883
0.00132004
0.00144178
0.00157068
0.00168218
0.00183995
0.00208291
0.00235509
0.00252412
0.00258955
0.0010068
0.00100673
0.00100666
0.00100652
0.00100665
0.00100681
0.00100655
0.00100637
0.0010065
0.00100644
0.00100642
0.00100646
0.00100651
0.00100651
0.00100647
0.00100642
0.00100651
0.00100668
0.0010068
0.00100682
0.00100655
0.00100648
0.00100641
0.00100642
0.00100641
0.00100635
0.00100643
0.00100648
0.00100645
0.00100638
0.00100628
0.00100633
0.00100636
0.00100617
0.00100621
0.00100626
0.00100621
0.00100622
0.00100617
0.00100632
0.00100623
0.00100624
0.00100643
0.00100643
0.00100645
0.00100653
0.0010066
0.00100669
0.00100659
0.00100645
0.00100638
0.00100647
0.00100656
0.00100656
0.00100648
0.0010065
0.00100659
0.00100656
0.00100681
0.00100674
0.00100695
0.00100705
0.00100702
0.00100684
0.00100685
0.00100685
0.00100687
0.0010071
0.0010071
0.00100712
0.00100707
0.00100712
0.00100702
0.00100693
0.00100697
0.00100712
0.00100707
0.00100691
0.00100708
0.00100707
0.0010071
0.00100762
0.00100861
0.00101069
0.00101483
0.00102342
0.00104041
0.00107052
0.00111556
0.00117749
0.00125973
0.00137252
0.00152372
0.00167562
0.00181531
0.00199783
0.002227
0.00244126
0.00258486
0.00264257
0.00100716
0.00100709
0.0010069
0.0010069
0.00100691
0.00100696
0.00100668
0.0010066
0.00100665
0.0010068
0.00100688
0.00100687
0.00100681
0.00100673
0.00100671
0.00100682
0.00100679
0.00100677
0.00100707
0.00100684
0.0010068
0.00100677
0.00100676
0.00100685
0.00100686
0.00100674
0.00100663
0.00100679
0.00100682
0.0010067
0.0010067
0.00100662
0.00100651
0.00100659
0.00100648
0.0010065
0.00100652
0.0010066
0.00100657
0.00100631
0.00100627
0.00100651
0.00100662
0.00100662
0.00100669
0.00100665
0.00100673
0.00100669
0.00100662
0.00100644
0.00100644
0.00100665
0.00100676
0.00100665
0.00100652
0.00100679
0.00100686
0.00100695
0.00100693
0.00100705
0.00100697
0.00100689
0.00100695
0.0010068
0.00100677
0.00100681
0.0010071
0.00100719
0.00100723
0.0010073
0.00100745
0.00100733
0.00100724
0.00100708
0.00100711
0.00100706
0.00100717
0.00100708
0.00100701
0.0010072
0.00100746
0.00100779
0.00100901
0.00101139
0.00101599
0.00102613
0.00104594
0.00108013
0.00113093
0.00120244
0.00130214
0.00144445
0.00163102
0.00180135
0.00193901
0.00207697
0.0022056
0.00232589
0.00246423
0.00252313
0.00100749
0.00100736
0.00100733
0.00100742
0.00100755
0.00100755
0.00100751
0.00100752
0.0010074
0.0010075
0.00100761
0.00100767
0.00100755
0.00100744
0.00100742
0.00100731
0.0010074
0.00100754
0.00100756
0.00100765
0.0010075
0.0010074
0.0010073
0.00100741
0.0010074
0.00100737
0.00100743
0.00100744
0.00100747
0.00100747
0.0010075
0.00100757
0.0010075
0.00100734
0.00100731
0.00100728
0.00100726
0.00100729
0.00100718
0.00100711
0.0010071
0.00100725
0.00100747
0.00100744
0.00100755
0.0010076
0.00100756
0.0010073
0.00100721
0.00100717
0.00100722
0.00100727
0.00100733
0.00100734
0.00100727
0.00100736
0.00100735
0.00100724
0.00100735
0.00100742
0.00100746
0.00100754
0.00100753
0.00100737
0.00100733
0.00100746
0.00100748
0.00100747
0.00100757
0.00100776
0.00100796
0.00100781
0.00100769
0.0010076
0.00100747
0.00100747
0.00100737
0.00100741
0.00100746
0.00100754
0.00100776
0.00100815
0.00100949
0.00101228
0.00101797
0.00103016
0.00105401
0.00109432
0.00115372
0.00123846
0.00136072
0.00153838
0.0017644
0.00194182
0.00202324
0.00205569
0.00206202
0.00207625
0.00219045
0.00227641
0.00101015
0.00101009
0.00101015
0.00101006
0.0010104
0.00101039
0.00101035
0.00101057
0.00101057
0.00101056
0.00101074
0.00101074
0.00101062
0.00101065
0.00101061
0.00101046
0.00101051
0.00101051
0.00101056
0.00101068
0.00101057
0.00101029
0.00101036
0.00101036
0.00101048
0.00101044
0.00101038
0.00101046
0.00101046
0.00101059
0.00101069
0.00101078
0.00101065
0.00101068
0.0010107
0.00101051
0.00101054
0.00101048
0.00101051
0.00101028
0.00101032
0.00101048
0.00101041
0.00101041
0.00101054
0.00101037
0.00101051
0.00101049
0.00101046
0.00101055
0.00101045
0.00101058
0.00101048
0.00101059
0.00101044
0.0010105
0.0010105
0.00101031
0.00101054
0.00101035
0.00101051
0.00101039
0.00101057
0.00101033
0.00101035
0.00101035
0.00101033
0.00101035
0.00101036
0.00101046
0.00101068
0.00101055
0.00101034
0.00101019
0.00100993
0.00100982
0.00100951
0.00100943
0.00100921
0.00100913
0.00100931
0.00100958
0.00101105
0.00101411
0.00102123
0.00103648
0.0010664
0.00111624
0.00118778
0.00128861
0.00143671
0.00166547
0.00197979
0.00211491
0.00214888
0.00213676
0.0020416
0.00200108
0.00199642
0.00206214
0.00101784
0.00101793
0.0010177
0.00101769
0.0010179
0.00101815
0.0010179
0.00101815
0.00101818
0.00101812
0.00101815
0.00101816
0.00101823
0.00101799
0.00101804
0.0010182
0.00101817
0.00101823
0.00101841
0.00101851
0.00101853
0.00101841
0.00101831
0.00101812
0.00101838
0.00101818
0.0010184
0.00101839
0.0010183
0.00101821
0.00101826
0.00101827
0.00101818
0.00101841
0.00101846
0.00101841
0.00101845
0.00101808
0.00101824
0.00101787
0.00101823
0.00101841
0.00101839
0.00101828
0.001018
0.00101818
0.0010183
0.00101852
0.00101838
0.00101838
0.0010183
0.00101844
0.00101842
0.00101845
0.00101835
0.00101832
0.00101823
0.001018
0.00101812
0.00101825
0.00101836
0.00101826
0.00101847
0.00101828
0.00101805
0.00101798
0.00101821
0.00101809
0.00101783
0.00101757
0.00101794
0.00101753
0.00101734
0.00101732
0.00101683
0.00101631
0.00101532
0.00101537
0.00101466
0.00101418
0.00101442
0.00101478
0.00101612
0.00101961
0.00102848
0.00104841
0.00108753
0.00115174
0.0012432
0.00137206
0.00156547
0.00188018
0.00234489
0.00256883
0.00262489
0.00263286
0.00248576
0.00219236
0.00203628
0.00198271
0.0010323
0.00103245
0.00103245
0.00103249
0.00103246
0.00103238
0.00103208
0.00103256
0.00103242
0.00103219
0.00103213
0.0010321
0.00103227
0.00103251
0.0010327
0.00103268
0.00103239
0.00103239
0.0010324
0.00103235
0.00103246
0.00103232
0.00103291
0.00103216
0.0010328
0.00103248
0.0010325
0.00103216
0.00103225
0.00103231
0.00103219
0.00103179
0.00103145
0.00103155
0.00103147
0.00103148
0.00103192
0.00103221
0.00103239
0.00103243
0.00103226
0.00103193
0.00103196
0.0010324
0.00103205
0.00103297
0.00103242
0.0010323
0.00103185
0.0010319
0.00103154
0.00103181
0.001032
0.00103222
0.00103206
0.00103207
0.00103219
0.001032
0.00103225
0.00103207
0.00103207
0.00103192
0.00103215
0.00103217
0.00103241
0.00103217
0.00103231
0.001032
0.00103189
0.00103166
0.00103154
0.00103132
0.00103084
0.00103054
0.00102964
0.0010284
0.0010265
0.00102643
0.00102637
0.00102662
0.00102788
0.00103113
0.00103589
0.00104509
0.00105791
0.00108093
0.00112572
0.00119937
0.00130654
0.00145901
0.0016847
0.00203893
0.00258523
0.00325624
0.00357049
0.00366845
0.00362694
0.0030996
0.0023626
0.00204138
0.00113488
0.00113209
0.00113109
0.00113086
0.00113148
0.001132
0.00113142
0.00113077
0.00113041
0.00113041
0.00113038
0.00113071
0.00113121
0.00113128
0.00113
0.00113128
0.00113083
0.00113047
0.00113056
0.00113051
0.00113054
0.00113055
0.00113049
0.00113082
0.00113094
0.00113046
0.00113087
0.00113129
0.00113155
0.00113081
0.00113069
0.00113055
0.00113006
0.00113064
0.00113061
0.00113059
0.00113083
0.00113099
0.00113095
0.00113039
0.00113035
0.00113053
0.00113077
0.00113129
0.00113063
0.00113039
0.00113059
0.00113163
0.00113085
0.00113075
0.00113053
0.00113093
0.00113139
0.00113152
0.00113128
0.00113163
0.00113152
0.00113103
0.00113062
0.0011305
0.00113068
0.00113056
0.00113155
0.00113178
0.00113144
0.00113101
0.001131
0.00113127
0.00113054
0.00113068
0.00113202
0.00113157
0.00113346
0.00113352
0.00113399
0.00113457
0.00113405
0.00113478
0.00113471
0.00113595
0.00114186
0.00114923
0.00115488
0.00116059
0.00117428
0.00120227
0.00125006
0.00132497
0.00142941
0.0015661
0.00174507
0.00199807
0.00238136
0.0029466
0.003446
0.00362679
0.00366434
0.00336372
0.00264927
0.00240862
0.00598409
0.00598465
0.00598561
0.0059863
0.00598657
0.00598663
0.0059864
0.00598543
0.00598399
0.00598345
0.00598344
0.00598465
0.0059855
0.00598576
0.00598586
0.00598628
0.00598636
0.00598601
0.00598569
0.00598512
0.00598451
0.00598355
0.0059832
0.00598338
0.00598336
0.00598311
0.00598343
0.00598521
0.00598562
0.00598561
0.00598553
0.00598513
0.00598491
0.00598506
0.00598514
0.00598514
0.00598497
0.00598463
0.00598434
0.0059833
0.00598296
0.00598316
0.00598324
0.00598373
0.00598373
0.00598329
0.00598361
0.00598441
0.00598443
0.00598421
0.00598418
0.00598452
0.00598491
0.00598543
0.00598622
0.00598665
0.00598673
0.0059865
0.0059853
0.00598478
0.00598476
0.00598538
0.00598625
0.00598658
0.00598692
0.0059869
0.00598688
0.0059871
0.00598661
0.00598673
0.00598763
0.00598885
0.00599121
0.00599373
0.00599849
0.00600589
0.00601587
0.00602628
0.00602749
0.00601681
0.00598509
0.00592163
0.00582273
0.0056807
0.0054879
0.00523362
0.00491199
0.00453745
0.00412992
0.00371684
0.00332883
0.00299098
0.002732
0.00255877
0.00244801
0.00233321
0.00210497
0.00191438
0.00223648
0.00258274
0.00239398
0.0013775
0.00126054
0.00121098
0.00118928
0.00118497
0.00116382
0.00115578
0.00114609
0.00113927
0.00113286
0.00112887
0.00112463
0.00112315
0.00112377
0.0011296
0.00115073
0.00119645
0.00126976
0.00167649
0.00204753
0.00145136
0.00132773
0.00128084
0.00126605
0.00122547
0.00120661
0.0011957
0.00118078
0.00117696
0.0011669
0.00116226
0.00115621
0.00115382
0.00115335
0.00115858
0.00117853
0.00121753
0.00127258
0.00159604
0.00195638
0.00152137
0.00142271
0.00137666
0.0013079
0.00127821
0.00126535
0.00124193
0.00123336
0.00121698
0.00120901
0.00119712
0.00118972
0.00118619
0.00118514
0.00118971
0.0012079
0.00123902
0.00127434
0.00150761
0.00199263
0.00161135
0.00153097
0.00144091
0.00139479
0.00137296
0.00133042
0.0013131
0.00129002
0.00127477
0.00125215
0.00123517
0.00122459
0.00121976
0.00121802
0.00122034
0.0012362
0.00126101
0.00127009
0.00141083
0.00206492
0.00173663
0.00166189
0.00156236
0.00152056
0.0014578
0.00142224
0.0013963
0.00136225
0.00134696
0.00129865
0.00127567
0.00126105
0.00125458
0.00125227
0.0012538
0.00126946
0.00127449
0.00125858
0.00130528
0.00211116
0.00190079
0.00182513
0.00169501
0.00164348
0.00156521
0.001532
0.00147984
0.00145346
0.00140869
0.00135754
0.0013162
0.0012972
0.0012881
0.00128506
0.00128692
0.00129503
0.00128763
0.00123062
0.0011917
0.00217017
0.00205639
0.00191907
0.00181286
0.00175906
0.00166882
0.00163119
0.00156474
0.00153336
0.00146548
0.0014184
0.0013549
0.00132977
0.00131737
0.00131291
0.00131234
0.00131423
0.00129252
0.00119316
0.00107241
0.00221359
0.00212296
0.00198128
0.00190997
0.00181922
0.00174835
0.00170385
0.00162894
0.00159305
0.00151433
0.00146756
0.00138648
0.00135602
0.00134016
0.00133301
0.00132993
0.00132637
0.00129047
0.00115139
0.000951029
0.00220624
0.00213129
0.0020108
0.00194913
0.00185498
0.00179243
0.00174616
0.00166974
0.00163227
0.00154827
0.00149656
0.00140819
0.00137425
0.00135509
0.00134548
0.0013403
0.00133193
0.00128379
0.00110569
0.000831378
0.00219158
0.00212686
0.00201699
0.00195896
0.00187926
0.00180428
0.00176432
0.00168899
0.00165196
0.00156637
0.00150691
0.00141889
0.00138319
0.00136206
0.00135113
0.00134474
0.00133341
0.001277
0.00107409
0.000751564
0.00219434
0.00212835
0.00201669
0.00195808
0.00187522
0.00180312
0.00176202
0.0016862
0.00164893
0.00156339
0.00150593
0.0014173
0.00138184
0.0013612
0.00135068
0.00134481
0.0013351
0.00128383
0.00109835
0.000812734
0.00220878
0.00213196
0.00200741
0.00194316
0.0018465
0.00178813
0.00173812
0.00166223
0.00162486
0.0015421
0.00149256
0.00140433
0.00137089
0.00135263
0.00134388
0.00133966
0.00133413
0.00129439
0.00114598
0.000933059
0.00220255
0.00210952
0.00196519
0.00189371
0.00180402
0.00173132
0.00168871
0.00161546
0.00158061
0.00150445
0.00145857
0.00138018
0.00135061
0.00133559
0.00132933
0.00132745
0.001327
0.00129997
0.00119203
0.00105859
0.00213154
0.00201924
0.00188704
0.00178218
0.00173009
0.0016423
0.00160619
0.00154386
0.00151443
0.00145167
0.00140459
0.00134602
0.00132222
0.00131049
0.00130644
0.00130684
0.00131235
0.00130044
0.00123475
0.00118434
0.00205516
0.00185198
0.00178068
0.00165731
0.00160875
0.0015339
0.00150179
0.00145529
0.00143047
0.00139342
0.00134252
0.00130602
0.0012882
0.00127956
0.00127655
0.00127744
0.00129041
0.00129191
0.00127209
0.00130624
0.00200759
0.00169225
0.00162028
0.00152663
0.00148748
0.00143093
0.00139246
0.00137353
0.00134179
0.00132837
0.00128615
0.00126554
0.00125162
0.00124556
0.00124334
0.00124463
0.0012602
0.00128156
0.00128935
0.00142117
0.00196602
0.00158192
0.00150308
0.00141457
0.0013704
0.00135015
0.00131022
0.00129229
0.00127328
0.00125744
0.00124205
0.00122495
0.00121569
0.00121135
0.0012099
0.00121362
0.00123109
0.00126109
0.00129795
0.00152746
0.00194113
0.00149482
0.00140038
0.00135644
0.00129114
0.00126239
0.00125096
0.00122815
0.00121947
0.0012055
0.00119787
0.00118827
0.0011811
0.00117788
0.00117699
0.00118202
0.00120206
0.00124038
0.00130048
0.00162495
0.00208793
0.00142448
0.00130719
0.00126453
0.00125213
0.00121165
0.00119246
0.00118444
0.00116993
0.00116602
0.00115665
0.00115303
0.00114745
0.00114535
0.00114504
0.00115048
0.00117143
0.00121521
0.00129652
0.00171411
0.00247488
0.00135972
0.0012404
0.00119345
0.0011753
0.00117392
0.00115328
0.00114436
0.00113699
0.00112876
0.00112431
0.00111964
0.00111572
0.00111423
0.00111477
0.00112128
0.00114495
0.00119682
0.00128987
0.00179525
0.00398202
0.00375376
0.00374841
0.00374904
0.00374958
0.00374964
0.00374971
0.00374987
0.00374985
0.00374982
0.00374981
0.00374978
0.00374972
0.00375001
0.00375013
0.00374964
0.00374895
0.00374845
0.00375376
0.00398204
0.00458041
0.00375568
0.00374042
0.00374275
0.00374579
0.00374662
0.00374683
0.00374686
0.0037465
0.00374642
0.00374643
0.00374622
0.00374605
0.0037472
0.0037474
0.00374601
0.00374365
0.00374022
0.00375572
0.00458035
0.00480319
0.00372068
0.00369595
0.00369886
0.00370165
0.00370366
0.00370223
0.00370103
0.00370041
0.00370049
0.0037005
0.00370075
0.00370075
0.00370126
0.00370091
0.0037008
0.0037002
0.00369601
0.00372065
0.0048033
0.00474551
0.00351248
0.0034765
0.00347761
0.00347592
0.0034751
0.00347224
0.00346956
0.00346698
0.00346638
0.00346598
0.00346686
0.00346601
0.00346701
0.00346912
0.00347111
0.00347711
0.00347707
0.00351249
0.0047458
0.00419752
0.00271968
0.00268967
0.00269134
0.00268698
0.00268494
0.00268259
0.00267846
0.00267773
0.00267747
0.0026743
0.00267517
0.00267409
0.00267484
0.0026805
0.002684
0.00269005
0.00269029
0.00272023
0.00419809
0.00317041
0.00182267
0.00181275
0.00181764
0.00181711
0.00181633
0.00181903
0.00182145
0.00182256
0.00182533
0.00182584
0.00182509
0.00182233
0.00182391
0.00182081
0.00182099
0.0018164
0.00181109
0.00182302
0.00317066
0.00261176
0.00134323
0.00133219
0.00133349
0.00133306
0.00133341
0.00133559
0.00133785
0.00133847
0.0013369
0.00134134
0.00134049
0.00134088
0.00133937
0.00133488
0.00133378
0.00133369
0.00133114
0.00134331
0.00261157
0.00237757
0.00113834
0.00112383
0.00112355
0.00112164
0.00112159
0.00112153
0.00112233
0.00112344
0.00112327
0.00112416
0.00112283
0.00112445
0.00112314
0.00112215
0.00112158
0.00112303
0.00112288
0.00113801
0.00237725
0.00229263
0.00106438
0.00104589
0.00104502
0.00104354
0.00104284
0.00104279
0.00104309
0.0010433
0.00104313
0.00104329
0.00104303
0.00104326
0.00104313
0.00104309
0.0010433
0.00104493
0.00104468
0.00106396
0.00229236
0.00226287
0.00104081
0.00101948
0.00101909
0.00101763
0.00101696
0.00101685
0.00101685
0.00101666
0.00101659
0.00101663
0.00101677
0.00101659
0.00101671
0.001017
0.00101774
0.00101907
0.00101934
0.00104071
0.00226295
0.00225144
0.00103387
0.00101135
0.00101111
0.0010099
0.00100909
0.00100877
0.00100878
0.00100863
0.00100871
0.00100879
0.00100881
0.00100876
0.00100902
0.00100916
0.00101005
0.00101163
0.00101237
0.00103412
0.00225173
0.0022463
0.00103242
0.00100903
0.0010097
0.00100818
0.00100715
0.0010067
0.00100666
0.00100648
0.0010065
0.00100658
0.00100672
0.00100671
0.00100672
0.00100712
0.00100799
0.00100959
0.00101003
0.00103254
0.00224653
0.00224365
0.00103169
0.001009
0.00100923
0.00100758
0.00100645
0.00100618
0.00100604
0.001006
0.00100595
0.00100584
0.00100605
0.00100628
0.00100622
0.00100648
0.0010076
0.00100949
0.00100974
0.00103182
0.00224385
0.00224235
0.00103152
0.00100973
0.00100975
0.00100749
0.00100643
0.001006
0.00100583
0.00100585
0.00100579
0.0010058
0.00100597
0.001006
0.00100607
0.00100636
0.00100741
0.00100929