/*--------------------------------*- C++ -*----------------------------------*\
| =========                 |                                                 |
| \\      /  F ield         | OpenFOAM: The Open Source CFD Toolbox           |
|  \\    /   O peration     | Version:  2.1.0                                 |
|   \\  /    A nd           | Web:      www.OpenFOAM.org                      |
|    \\/     M anipulation  |                                                 |
\*---------------------------------------------------------------------------*/
FoamFile
{
    version     2.0;
    format      ascii;
    class       volScalarField;
    location    "0.01";
    object      nut;
}
// * * * * * * * * * * * * * * * * * * * * * * * * * * * * * * * * * * * * * //

dimensions      [0 2 -1 0 0 0 0];

internalField   nonuniform List<scalar> 
6400
(
9.76671e-07
9.76109e-07
9.7568e-07
9.75331e-07
9.75422e-07
9.75248e-07
9.75103e-07
9.75036e-07
9.74959e-07
9.74988e-07
9.75038e-07
9.75157e-07
9.75249e-07
9.7525e-07
9.75213e-07
9.7525e-07
9.75488e-07
9.75309e-07
9.75327e-07
9.75058e-07
9.75051e-07
9.74823e-07
9.75034e-07
9.74808e-07
9.75389e-07
9.75081e-07
9.75289e-07
9.75342e-07
9.75373e-07
9.75277e-07
9.75286e-07
9.75268e-07
9.75296e-07
9.75068e-07
9.75124e-07
9.75206e-07
9.75237e-07
9.75277e-07
9.74946e-07
9.75037e-07
9.74912e-07
9.75063e-07
9.75104e-07
9.74996e-07
9.755e-07
9.74979e-07
9.75235e-07
9.75218e-07
9.75221e-07
9.75013e-07
9.75184e-07
9.74896e-07
9.74963e-07
9.75021e-07
9.75251e-07
9.75328e-07
9.75161e-07
9.75452e-07
9.75223e-07
9.75442e-07
9.7526e-07
9.75427e-07
9.75491e-07
9.75508e-07
9.75339e-07
9.75388e-07
9.75374e-07
9.75237e-07
9.75571e-07
9.75461e-07
9.75592e-07
9.75588e-07
9.75641e-07
9.75453e-07
9.76576e-07
9.76664e-07
9.78243e-07
9.79483e-07
9.7992e-07
9.79722e-07
9.76899e-07
9.71122e-07
9.61903e-07
9.47788e-07
9.28049e-07
9.01015e-07
8.6684e-07
8.26678e-07
7.84305e-07
7.44256e-07
7.12377e-07
6.96175e-07
7.04892e-07
7.52045e-07
8.45351e-07
9.79703e-07
1.08754e-06
1.08037e-06
9.71963e-07
1.12273e-06
9.33571e-06
9.33742e-06
9.33809e-06
9.34024e-06
9.33893e-06
9.3449e-06
9.35856e-06
9.36308e-06
9.3526e-06
9.353e-06
9.34154e-06
9.34004e-06
9.33881e-06
9.33376e-06
9.33969e-06
9.34186e-06
9.34018e-06
9.35642e-06
9.36109e-06
9.3547e-06
9.36196e-06
9.36792e-06
9.35752e-06
9.34653e-06
9.34964e-06
9.34159e-06
9.34406e-06
9.3413e-06
9.34003e-06
9.34272e-06
9.34727e-06
9.34043e-06
9.34211e-06
9.34209e-06
9.35113e-06
9.35382e-06
9.34801e-06
9.3522e-06
9.35025e-06
9.35072e-06
9.3426e-06
9.343e-06
9.34939e-06
9.34952e-06
9.35781e-06
9.35726e-06
9.36108e-06
9.35039e-06
9.34859e-06
9.34659e-06
9.35685e-06
9.35713e-06
9.34945e-06
9.34953e-06
9.34594e-06
9.34462e-06
9.34796e-06
9.36219e-06
9.35349e-06
9.35414e-06
9.35024e-06
9.34931e-06
9.34432e-06
9.35284e-06
9.35239e-06
9.34654e-06
9.34391e-06
9.34409e-06
9.34496e-06
9.33558e-06
9.3366e-06
9.33111e-06
9.3298e-06
9.32316e-06
9.30879e-06
9.2961e-06
9.29868e-06
9.31843e-06
9.34397e-06
9.39439e-06
9.5494e-06
9.31187e-06
8.04084e-06
6.6789e-06
5.51234e-06
4.55413e-06
3.81776e-06
3.26835e-06
2.8646e-06
2.56805e-06
2.35869e-06
2.26733e-06
2.38366e-06
2.6937e-06
2.86648e-06
2.76377e-06
2.61752e-06
2.33843e-06
1.66648e-06
2.07201e-06
2.65786e-05
3.07127e-05
2.78845e-05
2.6264e-05
3.55306e-05
2.82586e-05
2.8373e-05
3.41797e-05
2.55388e-05
3.74635e-05
2.73839e-05
2.78431e-05
3.40895e-05
2.75415e-05
2.92092e-05
3.15113e-05
2.88662e-05
3.51913e-05
2.79527e-05
4.00271e-05
2.41854e-05
5.15193e-05
2.63865e-05
2.70525e-05
4.08142e-05
2.52769e-05
3.38928e-05
2.71155e-05
3.63023e-05
2.59501e-05
3.52572e-05
2.71523e-05
2.88665e-05
3.29099e-05
2.67152e-05
3.40625e-05
2.76723e-05
3.34165e-05
2.92603e-05
2.48983e-05
4.53796e-05
2.47679e-05
2.98333e-05
3.08855e-05
2.93806e-05
3.29106e-05
3.12695e-05
2.91721e-05
3.27972e-05
3.06875e-05
3.05233e-05
3.09889e-05
2.24986e-05
9.21441e-05
2.00216e-05
4.55722e-05
2.6883e-05
2.97067e-05
3.47667e-05
2.97154e-05
2.80724e-05
3.90009e-05
2.82073e-05
3.03245e-05
3.07209e-05
3.23983e-05
2.8451e-05
3.23032e-05
2.87636e-05
3.11703e-05
3.18566e-05
3.14321e-05
2.90004e-05
4.45351e-05
2.9964e-05
3.303e-05
4.56198e-05
3.44246e-05
3.50639e-05
3.65446e-05
2.76939e-05
2.14352e-05
1.64807e-05
1.18644e-05
8.69728e-06
6.46546e-06
4.98047e-06
3.99908e-06
3.34716e-06
2.92534e-06
2.7174e-06
2.90055e-06
3.51646e-06
4.17562e-06
4.24883e-06
4.12728e-06
3.98347e-06
3.81382e-06
3.44559e-06
4.22408e-06
1.68652e-05
2.6612e-05
1.81699e-05
1.39447e-05
0.000150369
1.40321e-05
1.99433e-05
2.35167e-05
1.80436e-05
3.00707e-05
1.93413e-05
1.90221e-05
2.64258e-05
1.89221e-05
1.68207e-05
4.52025e-05
1.58283e-05
2.92478e-05
2.11735e-05
2.58318e-05
1.75849e-05
4.72136e-05
1.70435e-05
2.20807e-05
1.94731e-05
2.20976e-05
2.21634e-05
2.04894e-05
2.80289e-05
1.69578e-05
2.82584e-05
1.90662e-05
1.8053e-05
1.91993e-05
5.48468e-05
1.66845e-05
2.1138e-05
2.31693e-05
2.09197e-05
1.57438e-05
5.48529e-05
1.64367e-05
1.93965e-05
2.91735e-05
1.67824e-05
2.78945e-05
2.04861e-05
2.58791e-05
2.24507e-05
2.35586e-05
1.94455e-05
2.23743e-05
1.37912e-05
7.96781e-05
1.19387e-05
3.61565e-05
1.75375e-05
1.97928e-05
2.51665e-05
2.14997e-05
1.89271e-05
3.21213e-05
1.88143e-05
2.19511e-05
2.14497e-05
2.41583e-05
1.92541e-05
2.53611e-05
1.85739e-05
2.05179e-05
3.28035e-05
2.02912e-05
1.64959e-05
0.000166367
1.61468e-05
2.77215e-05
3.2826e-05
2.45479e-05
3.11525e-05
2.60927e-05
2.31254e-05
2.5157e-05
1.75358e-05
1.3877e-05
1.0671e-05
8.09669e-06
6.26025e-06
4.98429e-06
4.10267e-06
3.51239e-06
3.28341e-06
3.88438e-06
5.24758e-06
5.82123e-06
5.59775e-06
5.46062e-06
5.08224e-06
4.58322e-06
4.57511e-06
4.6236e-06
2.12061e-05
8.24231e-05
2.05732e-05
1.33182e-05
1.35219e-05
1.29593e-05
2.6699e-05
4.2274e-05
4.41662e-05
4.09436e-05
4.11909e-05
3.60412e-05
6.04471e-05
1.85164e-05
4.59767e-05
0.00027399
2.57792e-05
3.68677e-05
8.65179e-05
2.65649e-05
5.93858e-05
3.23939e-05
3.52415e-05
4.91029e-05
2.43612e-05
8.20437e-05
2.82988e-05
8.9897e-05
4.36084e-05
3.05103e-05
5.28206e-05
3.43206e-05
3.34025e-05
1.82254e-05
1.94539e-05
1.60358e-05
3.82628e-05
4.27603e-05
3.83068e-05
2.7704e-05
2.69301e-05
3.87034e-05
2.17356e-05
0.000147468
2.62003e-05
5.4779e-05
2.93717e-05
0.000242095
3.07513e-05
4.35874e-05
3.43628e-05
4.56133e-05
2.04056e-05
4.97543e-05
2.61147e-05
3.29181e-05
3.03645e-05
3.7472e-05
4.34643e-05
5.14978e-05
2.92479e-05
6.47061e-05
3.12776e-05
4.85693e-05
2.98336e-05
0.00019905
2.50478e-05
7.2298e-05
2.9421e-05
2.4889e-05
0.000101433
2.35843e-05
2.30281e-05
0.000159874
2.18977e-05
4.14921e-05
3.3742e-05
0.000127098
4.06906e-05
3.30065e-05
2.95412e-05
6.81761e-05
2.08126e-05
1.88414e-05
1.45655e-05
1.10116e-05
8.45631e-06
6.64174e-06
5.37083e-06
4.50358e-06
4.11171e-06
4.90122e-06
6.86559e-06
5.96012e-06
5.62062e-06
5.44954e-06
5.1823e-06
5.0755e-06
5.10712e-06
5.30162e-06
3.364e-05
0.000133246
2.3295e-05
1.18372e-05
9.66576e-05
1.26505e-05
2.86998e-05
0.000122024
0.000679827
0.000260538
8.80501e-05
5.92366e-05
3.55887e-05
2.1067e-05
9.26171e-06
1.64488e-05
3.72989e-05
3.0233e-05
0.000146048
5.67228e-05
5.04739e-05
2.49769e-05
3.51724e-05
0.00026264
6.61934e-05
0.00037519
0.000129205
5.84292e-05
3.79522e-05
0.000111881
6.49584e-05
7.42313e-05
5.68934e-05
1.75102e-05
0.000108085
1.92728e-05
2.86156e-05
3.03044e-05
3.14606e-05
2.81944e-05
1.02639e-05
7.93636e-06
2.1822e-05
9.85625e-05
0.000167065
0.000275662
5.18253e-05
0.000128354
3.5288e-05
7.7045e-05
8.87509e-05
0.000139739
3.7303e-05
1.64157e-05
2.83887e-05
4.85231e-05
0.000128291
8.87185e-05
0.000101455
7.74606e-05
0.000107443
8.1205e-05
0.00011359
0.000292473
4.86043e-05
2.52246e-05
3.73675e-05
7.73619e-05
5.24669e-05
2.83935e-05
0.000261222
2.84343e-05
2.21319e-05
2.52055e-05
3.93564e-05
7.8757e-05
3.37457e-05
3.03675e-05
5.35778e-05
4.16035e-05
8.59365e-05
8.94807e-05
2.51366e-05
2.84451e-05
1.96509e-05
1.44206e-05
1.09315e-05
8.52791e-06
6.88061e-06
5.76884e-06
5.24774e-06
6.27428e-06
7.7679e-06
6.78088e-06
6.24612e-06
6.08348e-06
6.00299e-06
5.94565e-06
6.21505e-06
6.4454e-06
4.38933e-05
6.76093e-05
3.88845e-05
1.78721e-05
1.01615e-05
1.85665e-05
4.39069e-05
0.000114126
5.49297e-05
3.04697e-05
4.11009e-05
2.89059e-05
2.02304e-05
1.37229e-05
1.71463e-05
1.21806e-05
3.2397e-05
7.61724e-05
0.000100732
0.000149404
0.000265904
4.7001e-05
2.60863e-05
4.69858e-05
0.000657558
0.000123449
7.47755e-05
0.00027133
6.17682e-05
4.00239e-05
5.62658e-05
5.95968e-05
7.01157e-05
3.54559e-05
1.77256e-05
2.03315e-05
1.98378e-05
1.60255e-05
2.87887e-05
1.53489e-05
9.7419e-06
1.10798e-05
1.14735e-05
3.27509e-05
0.000103075
0.000102902
0.00017178
4.04052e-05
8.21306e-05
2.71805e-05
7.96048e-05
9.04842e-05
6.17184e-05
2.82193e-05
4.11615e-05
9.6716e-05
0.000238534
5.07829e-05
0.000120007
9.6345e-05
0.000253138
0.000126658
0.000188331
0.000257283
2.93111e-05
7.46251e-05
5.12796e-05
6.29598e-05
3.70118e-05
4.39592e-05
3.80751e-05
5.23733e-05
4.51363e-05
1.97485e-05
2.67414e-05
6.31157e-05
3.53225e-05
4.02283e-05
2.93551e-05
4.28657e-05
3.18942e-05
3.10553e-05
3.27408e-05
3.73042e-05
2.24807e-05
1.63911e-05
1.2335e-05
9.62689e-06
7.81865e-06
6.62021e-06
6.03084e-06
7.15214e-06
8.91519e-06
7.70155e-06
7.10055e-06
6.99949e-06
7.11506e-06
7.22974e-06
7.51816e-06
7.66767e-06
4.3733e-05
0.000113613
9.90872e-05
5.11791e-05
2.24509e-05
6.66302e-05
5.47391e-05
5.36853e-05
3.30978e-05
0.000160173
0.000114319
0.000103151
2.20128e-05
1.30074e-05
1.4134e-05
1.93021e-05
5.08157e-05
7.5752e-05
0.000165313
0.00014372
8.53709e-05
3.5126e-05
2.18236e-05
2.77019e-05
0.000302074
0.000144337
0.000161029
5.87809e-05
3.21217e-05
0.000151837
0.000197267
0.000148543
0.000106344
5.5309e-05
3.01312e-05
2.72006e-05
1.94273e-05
3.46905e-05
1.7298e-05
3.05524e-05
1.7461e-05
1.32449e-05
1.18797e-05
2.8184e-05
0.000102409
7.6267e-05
7.43097e-05
4.13678e-05
3.71017e-05
0.000328578
2.98744e-05
8.80608e-05
0.00015348
0.000159277
0.000109301
8.99803e-05
6.94912e-05
0.000106434
0.000210358
0.000281803
0.000221328
0.000163381
0.000209867
0.000120717
3.29452e-05
3.47218e-05
5.64273e-05
8.97319e-05
3.99394e-05
7.28134e-05
4.121e-05
3.41827e-05
4.28064e-05
0.00010969
0.000196237
3.89635e-05
2.83876e-05
4.13313e-05
2.22013e-05
4.47264e-05
4.02012e-05
2.31982e-05
5.07871e-05
3.86139e-05
2.31e-05
1.68673e-05
1.25938e-05
9.80861e-06
7.98179e-06
6.78826e-06
6.17177e-06
7.13034e-06
1.02598e-05
8.71761e-06
7.90999e-06
7.78316e-06
8.06913e-06
8.33377e-06
8.557e-06
8.66214e-06
4.67822e-05
0.000114239
9.77245e-05
9.67561e-05
0.000259888
8.3043e-05
0.000109771
6.40408e-05
2.73869e-05
2.03621e-05
4.15074e-05
6.34194e-05
4.27041e-05
2.45058e-05
1.30778e-05
2.26454e-05
0.000100696
8.46158e-05
9.9949e-05
7.02401e-05
3.15625e-05
2.02242e-05
1.78172e-05
1.81298e-05
5.25952e-05
0.000401102
0.000162989
2.81739e-05
1.22296e-05
2.00655e-05
0.000118397
4.09272e-05
4.07294e-05
0.000119566
5.70752e-05
7.39266e-05
2.45879e-05
1.30079e-05
1.54739e-05
1.39459e-05
1.28967e-05
9.99618e-06
1.94123e-05
0.000236483
7.73567e-05
0.00011171
0.000178631
8.74426e-05
5.25157e-05
4.34561e-05
5.61237e-05
3.29144e-05
5.27451e-05
0.000104197
0.000241558
9.50238e-05
6.21253e-05
0.000215961
8.3215e-05
8.03846e-05
8.1173e-05
5.90911e-05
0.000101225
6.77089e-05
5.58406e-05
3.94894e-05
0.000103982
0.000131715
6.27983e-05
4.79761e-05
5.53205e-05
0.000159103
6.85297e-05
4.00683e-05
4.28091e-05
6.34121e-05
1.99661e-05
7.23583e-05
1.75845e-05
2.84196e-05
4.86194e-05
2.80246e-05
5.60321e-05
3.64008e-05
2.29541e-05
1.67438e-05
1.24525e-05
9.66633e-06
7.84613e-06
6.66231e-06
6.04871e-06
6.91615e-06
1.00542e-05
9.6704e-06
8.59529e-06
8.26881e-06
8.51852e-06
8.87243e-06
9.07142e-06
9.14295e-06
5.09041e-05
0.000216342
9.77108e-05
4.17851e-05
6.93314e-05
9.86815e-05
0.000108161
0.000532112
0.000101251
4.61372e-05
3.86759e-05
0.000303424
9.74607e-05
8.638e-05
3.55109e-05
4.88353e-05
0.00021343
0.000193237
6.46734e-05
3.91847e-05
4.30154e-05
2.45176e-05
6.06342e-05
1.34026e-05
3.44386e-05
6.01802e-05
6.23299e-05
1.75196e-05
2.00976e-05
1.66104e-05
5.78592e-05
4.87622e-05
0.000204412
4.27709e-05
0.000198129
0.000160496
7.5142e-05
4.62251e-05
5.60555e-05
2.74682e-05
3.03493e-05
0.000182619
6.84608e-05
7.38306e-05
0.000106225
0.000245743
0.00022253
0.000130698
3.83199e-05
0.000150362
2.3581e-05
1.45207e-05
3.21247e-05
5.56667e-05
4.5612e-05
8.62794e-05
3.64736e-05
8.0506e-05
3.3648e-05
2.59662e-05
3.37149e-05
1.40713e-05
4.09216e-05
4.63373e-05
0.000101422
5.13834e-05
0.000169681
0.000154473
5.41998e-05
2.93482e-05
9.84653e-05
0.00010999
0.000346216
0.000688795
9.06213e-05
0.000106427
3.24527e-05
1.49233e-05
2.9769e-05
3.1295e-05
3.30776e-05
4.81945e-05
4.54629e-05
3.45627e-05
2.27964e-05
1.65238e-05
1.22939e-05
9.5311e-06
7.72624e-06
6.5547e-06
6.01605e-06
7.13531e-06
1.06129e-05
1.01993e-05
8.96375e-06
8.52505e-06
8.7183e-06
9.02312e-06
9.17032e-06
9.22204e-06
5.5197e-05
8.16972e-05
0.000116571
5.44086e-05
4.11355e-05
0.000159885
9.71215e-05
0.000254418
9.09643e-05
0.000118248
5.95284e-05
0.000116207
0.000107786
7.76383e-05
9.6886e-05
0.000144022
7.71521e-05
0.00016781
0.000151222
6.65211e-05
2.97573e-05
1.95766e-05
1.27621e-05
1.17717e-05
2.75728e-05
1.47994e-05
3.11491e-05
1.63582e-05
1.80313e-05
1.57997e-05
4.57137e-05
4.18306e-05
3.87727e-05
9.34566e-05
0.000167139
0.000161953
0.000163143
7.12332e-05
3.50584e-05
8.55681e-05
2.99619e-05
8.62883e-05
3.18246e-05
0.000117457
0.000352861
0.000215848
0.00012782
0.000100687
2.55529e-05
2.09643e-05
2.82177e-05
6.70058e-05
2.32959e-05
3.89919e-05
4.35498e-05
2.73391e-05
8.46128e-05
2.67019e-05
3.1524e-05
2.47174e-05
1.45959e-05
2.785e-05
2.04806e-05
3.35762e-05
3.49875e-05
0.000136353
0.000124297
0.000119945
0.000143754
0.000128874
7.57049e-05
8.80654e-05
0.000139227
5.24989e-05
3.3983e-05
0.000457369
0.00012928
4.70537e-05
3.3408e-05
9.13821e-05
7.52404e-05
7.06605e-05
4.56424e-05
3.23614e-05
2.27062e-05
1.64081e-05
1.22418e-05
9.51486e-06
7.7255e-06
6.5621e-06
6.04491e-06
7.23621e-06
1.08195e-05
1.01447e-05
8.92249e-06
8.50048e-06
8.70383e-06
9.01361e-06
9.16674e-06
9.22145e-06
0.000143175
9.62235e-05
6.56066e-05
7.32856e-05
5.33749e-05
4.45687e-05
0.000124758
0.000256656
0.000160253
0.000243351
0.000133825
5.45595e-05
0.000118347
0.000680783
6.7479e-05
3.18389e-05
4.1573e-05
7.63835e-05
0.000605046
0.000111116
4.65094e-05
4.54984e-05
1.21253e-05
2.17508e-05
3.17883e-05
4.84333e-05
1.64536e-05
3.29308e-05
1.25921e-05
1.80418e-05
6.11336e-05
3.91888e-05
4.27741e-05
0.000248106
0.000135253
4.72899e-05
2.35862e-05
5.80839e-05
5.56992e-05
6.36547e-05
7.35618e-05
2.36377e-05
3.51658e-05
6.08643e-05
6.81021e-05
0.000708852
7.64299e-05
4.35746e-05
0.000319506
1.64427e-05
7.71245e-06
9.37262e-06
1.72086e-05
6.63494e-05
6.54866e-05
4.78194e-05
4.41064e-05
2.717e-05
3.8897e-05
1.48901e-05
2.62492e-05
2.56069e-05
3.93951e-05
2.8102e-05
4.32985e-05
5.80019e-05
4.444e-05
5.36618e-05
3.92258e-05
3.38186e-05
4.97495e-05
5.70011e-05
0.000171545
5.81868e-05
0.000110945
4.45997e-05
4.0291e-05
1.97896e-05
8.52564e-05
5.78432e-05
4.36978e-05
5.05064e-05
6.03111e-05
3.08226e-05
2.20461e-05
1.63201e-05
1.22549e-05
9.58713e-06
7.82042e-06
6.66174e-06
6.09156e-06
7.11599e-06
1.0506e-05
9.53647e-06
8.48975e-06
8.20122e-06
8.48218e-06
8.85152e-06
9.0439e-06
9.11814e-06
0.000187265
9.14533e-05
0.000193282
0.000640334
8.26706e-05
5.00247e-05
6.18218e-05
9.34307e-05
0.000167978
0.000209559
0.000155551
4.93661e-05
4.08982e-05
3.88834e-05
4.70635e-05
7.47293e-05
7.50245e-05
5.26856e-05
0.000308597
4.23026e-05
0.000145257
3.586e-05
3.35667e-05
4.40775e-05
3.19618e-05
1.10456e-05
1.05288e-05
3.03751e-05
2.96318e-05
0.000134845
0.000172441
0.00014278
5.25493e-05
9.63136e-05
5.88983e-05
2.45351e-05
2.42823e-05
2.99619e-05
1.37939e-05
1.19937e-05
3.82337e-05
4.34806e-05
6.14326e-05
7.89387e-05
0.00013376
0.000110444
0.000117183
4.06609e-05
2.42046e-05
1.60873e-05
1.32446e-05
9.6495e-06
1.49814e-05
2.27805e-05
2.1552e-05
3.19619e-05
3.96917e-05
0.000133375
2.90725e-05
3.49952e-05
0.000294273
7.614e-05
0.000130048
8.74523e-05
2.89813e-05
2.82707e-05
0.000105888
4.05139e-05
3.70798e-05
4.50731e-05
4.53483e-05
0.000114973
0.000133841
7.39058e-05
5.17652e-05
3.46657e-05
3.88141e-05
4.25152e-05
2.47879e-05
5.85242e-05
0.000159497
2.50233e-05
5.70212e-05
3.25039e-05
2.12856e-05
1.61292e-05
1.22269e-05
9.63051e-06
7.89206e-06
6.745e-06
6.21268e-06
7.45092e-06
1.00096e-05
8.52437e-06
7.76093e-06
7.66864e-06
7.93859e-06
8.1724e-06
8.40986e-06
8.52442e-06
0.000135636
8.4786e-05
0.00011332
0.000107151
0.000236898
0.000102399
9.31937e-05
0.000180013
4.5981e-05
4.5812e-05
6.78965e-05
5.60309e-05
6.01732e-05
9.10591e-05
6.37312e-05
3.58483e-05
3.01174e-05
0.000161636
6.24391e-05
0.000230374
2.36882e-05
4.12697e-05
7.21605e-05
4.6986e-05
6.34911e-05
1.386e-05
6.08312e-05
2.17371e-05
2.74912e-05
2.5415e-05
3.09479e-05
3.78356e-05
0.000129363
4.98016e-05
3.36058e-05
2.65546e-05
1.53226e-05
8.47896e-06
1.1021e-05
1.13621e-05
1.58082e-05
2.67775e-05
0.000140085
4.74658e-05
6.96094e-05
0.000227564
0.000103365
8.70844e-05
3.90431e-05
1.4366e-05
1.25721e-05
3.4765e-05
3.95972e-05
5.1458e-05
7.54698e-05
2.496e-05
7.9462e-05
2.0783e-05
6.53688e-05
2.64286e-05
3.73894e-05
0.000244652
4.10805e-05
3.04132e-05
3.98202e-05
0.000155092
5.34439e-05
7.51995e-05
2.70511e-05
1.38319e-05
1.98563e-05
5.15475e-05
7.64338e-05
0.000705722
4.73499e-05
7.57538e-05
3.43359e-05
3.16379e-05
8.46517e-05
2.77615e-05
4.91729e-05
2.71719e-05
3.41192e-05
3.42814e-05
2.05514e-05
1.54651e-05
1.18175e-05
9.31891e-06
7.61885e-06
6.48143e-06
6.00482e-06
7.40259e-06
8.7e-06
7.52196e-06
6.93134e-06
6.83021e-06
6.93043e-06
7.04072e-06
7.3385e-06
7.49439e-06
9.78166e-05
0.000128383
0.000156791
0.000309729
8.32504e-05
4.52455e-05
2.77946e-05
4.90525e-05
7.07927e-05
4.62163e-05
4.65957e-05
4.26978e-05
7.68958e-05
3.01585e-05
3.47161e-05
5.74983e-05
9.04177e-05
6.4965e-05
0.00010005
5.65702e-05
4.7876e-05
3.72042e-05
2.5753e-05
1.50137e-05
2.78471e-05
2.22743e-05
1.50191e-05
2.97839e-05
9.51045e-05
0.000106747
3.66516e-05
3.96937e-05
6.23547e-05
0.000260383
3.73649e-05
2.72529e-05
1.06694e-05
1.80079e-05
2.93748e-05
1.70188e-05
1.21076e-05
4.06346e-05
3.65154e-05
7.45453e-05
4.68891e-05
0.000182101
0.000248118
0.000647392
5.11377e-05
3.62508e-05
1.30741e-05
2.0112e-05
2.96658e-05
3.0312e-05
5.50574e-05
6.57524e-05
3.12475e-05
3.25082e-05
3.6291e-05
0.000112997
3.33483e-05
2.91713e-05
3.69309e-05
9.00059e-05
7.65093e-05
4.12895e-05
7.26131e-05
4.3541e-05
1.99686e-05
8.05891e-05
1.90571e-05
2.88604e-05
8.6608e-05
0.000107687
0.000106023
6.76495e-05
2.24439e-05
4.37473e-05
4.89745e-05
3.83014e-05
0.000218885
7.98171e-05
2.30996e-05
2.68283e-05
1.82326e-05
1.35795e-05
1.03888e-05
8.15644e-06
6.61255e-06
5.56979e-06
5.17065e-06
6.41777e-06
7.58876e-06
6.6054e-06
6.13139e-06
5.94923e-06
5.82887e-06
5.77001e-06
6.04026e-06
6.27732e-06
4.01226e-05
7.51377e-05
2.9805e-05
0.000149859
3.66369e-05
3.30696e-05
3.79779e-05
3.18223e-05
2.72703e-05
6.09555e-05
3.167e-05
2.6988e-05
7.52742e-05
2.91122e-05
3.15713e-05
7.8676e-05
2.96479e-05
3.65103e-05
7.51063e-05
2.77795e-05
2.93098e-05
3.11946e-05
2.33851e-05
5.23995e-05
1.65494e-05
2.41323e-05
0.000128525
1.84707e-05
0.000209934
2.36247e-05
7.03103e-05
3.3435e-05
2.52643e-05
0.000203557
3.17338e-05
2.19001e-05
2.09713e-05
1.8122e-05
9.19665e-06
1.42511e-05
1.96284e-05
2.00379e-05
0.000106451
6.62402e-05
1.51835e-05
7.8451e-05
4.54437e-05
5.62693e-05
4.0668e-05
4.07142e-05
5.40553e-05
2.41112e-05
8.36318e-05
3.79888e-05
4.18191e-05
2.9449e-05
2.24069e-05
0.000301127
2.86322e-05
7.99588e-05
2.05469e-05
7.85367e-05
2.33472e-05
6.86064e-05
4.21524e-05
2.4543e-05
4.67359e-05
5.22265e-05
2.29816e-05
2.55252e-05
1.57496e-05
3.19196e-05
4.27209e-05
4.13961e-05
4.0188e-05
4.42905e-05
3.38535e-05
4.09506e-05
2.48473e-05
7.56065e-05
2.45663e-05
6.63407e-05
1.96879e-05
1.85227e-05
1.40416e-05
1.05615e-05
8.09862e-06
6.3703e-06
5.16819e-06
4.35625e-06
4.06158e-06
5.01074e-06
6.75047e-06
5.87233e-06
5.57277e-06
5.40276e-06
5.12054e-06
5.01473e-06
5.03308e-06
5.26283e-06
2.21282e-05
2.32843e-05
1.81937e-05
2.85616e-05
1.8384e-05
1.90447e-05
4.86405e-05
1.64742e-05
1.77666e-05
3.3404e-05
1.77881e-05
1.91593e-05
2.49437e-05
3.52704e-05
1.36442e-05
3.08722e-05
2.10807e-05
1.85036e-05
2.78272e-05
1.85386e-05
1.70437e-05
2.90549e-05
1.16248e-05
4.68582e-05
1.17219e-05
1.98811e-05
2.21673e-05
1.76489e-05
2.80089e-05
1.64303e-05
3.48231e-05
1.94151e-05
1.75452e-05
2.67126e-05
1.94115e-05
2.16374e-05
1.4359e-05
0.000185408
1.20713e-05
7.47714e-05
1.83373e-05
1.78037e-05
2.18058e-05
1.93446e-05
1.86015e-05
2.10476e-05
1.9833e-05
2.50403e-05
2.38317e-05
2.08012e-05
1.85342e-05
1.94405e-05
2.81683e-05
2.13157e-05
1.99231e-05
2.06381e-05
1.58899e-05
6.62031e-05
1.55228e-05
2.71873e-05
1.7224e-05
2.8987e-05
1.76406e-05
2.61831e-05
1.87502e-05
2.25805e-05
1.96077e-05
2.92601e-05
1.57118e-05
7.4593e-05
1.75157e-05
2.25202e-05
2.69181e-05
2.39408e-05
2.50943e-05
2.29452e-05
7.5746e-05
2.32644e-05
2.43225e-05
6.1394e-05
2.11013e-05
2.79441e-05
1.81697e-05
1.40966e-05
1.0566e-05
7.91369e-06
6.08496e-06
4.84295e-06
3.99682e-06
3.43863e-06
3.26861e-06
3.95332e-06
5.36174e-06
5.81743e-06
5.60735e-06
5.47841e-06
5.12655e-06
4.5822e-06
4.57122e-06
4.6111e-06
2.95318e-05
2.83364e-05
2.84217e-05
3.1069e-05
2.7492e-05
2.72315e-05
4.61946e-05
2.44014e-05
2.74041e-05
3.82247e-05
2.71476e-05
2.93462e-05
3.11454e-05
3.55006e-05
2.68753e-05
2.97082e-05
2.96244e-05
2.96383e-05
3.26336e-05
2.95461e-05
2.66458e-05
3.99957e-05
1.87397e-05
9.38391e-05
2.06738e-05
2.91733e-05
2.97195e-05
3.08943e-05
2.95494e-05
2.75866e-05
3.78344e-05
2.69987e-05
3.10894e-05
2.98862e-05
2.91354e-05
3.08908e-05
2.97809e-05
2.91803e-05
2.98601e-05
2.86746e-05
2.93443e-05
3.14334e-05
2.76001e-05
1.97971e-05
9.09206e-05
2.07852e-05
2.90304e-05
3.18984e-05
3.26881e-05
2.57032e-05
3.42661e-05
2.73033e-05
3.16114e-05
2.86408e-05
3.13265e-05
3.00258e-05
2.63911e-05
4.08592e-05
2.60783e-05
3.08555e-05
2.94742e-05
3.03699e-05
2.87588e-05
3.2109e-05
2.50179e-05
4.13715e-05
2.53736e-05
3.41003e-05
2.84951e-05
3.47604e-05
3.31843e-05
2.76856e-05
5.66952e-05
3.01938e-05
3.84047e-05
3.40575e-05
7.64775e-05
3.36154e-05
4.81705e-05
5.04099e-05
3.08626e-05
2.34293e-05
1.70118e-05
1.1901e-05
8.58082e-06
6.34142e-06
4.88011e-06
3.92527e-06
3.29552e-06
2.89193e-06
2.70577e-06
2.91857e-06
3.55459e-06
4.23063e-06
4.35531e-06
4.27066e-06
4.14272e-06
3.99954e-06
3.55941e-06
4.24732e-06
9.3422e-06
9.33887e-06
9.34027e-06
9.34256e-06
9.34031e-06
9.33637e-06
9.34629e-06
9.35154e-06
9.35419e-06
9.35285e-06
9.34945e-06
9.34432e-06
9.342e-06
9.34161e-06
9.35619e-06
9.3383e-06
9.34342e-06
9.35234e-06
9.35174e-06
9.3541e-06
9.35437e-06
9.35307e-06
9.35035e-06
9.34032e-06
9.34083e-06
9.34724e-06
9.34031e-06
9.33544e-06
9.33421e-06
9.34374e-06
9.3431e-06
9.34055e-06
9.34785e-06
9.33994e-06
9.34052e-06
9.34213e-06
9.34117e-06
9.34107e-06
9.34237e-06
9.34883e-06
9.34883e-06
9.34394e-06
9.34303e-06
9.34563e-06
9.36084e-06
9.36624e-06
9.36031e-06
9.34705e-06
9.34843e-06
9.34726e-06
9.34485e-06
9.34016e-06
9.33926e-06
9.33757e-06
9.33885e-06
9.3369e-06
9.34027e-06
9.34592e-06
9.34994e-06
9.3509e-06
9.34451e-06
9.34278e-06
9.33494e-06
9.3363e-06
9.34199e-06
9.34413e-06
9.34482e-06
9.34211e-06
9.35175e-06
9.35263e-06
9.34327e-06
9.35764e-06
9.34071e-06
9.3418e-06
9.33816e-06
9.32893e-06
9.33258e-06
9.33182e-06
9.37745e-06
9.46368e-06
9.58943e-06
9.41573e-06
8.03487e-06
6.64954e-06
5.46792e-06
4.51647e-06
3.78502e-06
3.2443e-06
2.8475e-06
2.55718e-06
2.35503e-06
2.27258e-06
2.39731e-06
2.71634e-06
2.9101e-06
2.82109e-06
2.68474e-06
2.4088e-06
1.72411e-06
2.01284e-06
9.75743e-07
9.75432e-07
9.75668e-07
9.75406e-07
9.75677e-07
9.75311e-07
9.75255e-07
9.74967e-07
9.74799e-07
9.74834e-07
9.75061e-07
9.75255e-07
9.75511e-07
9.74716e-07
9.76114e-07
9.74906e-07
9.7531e-07
9.75457e-07
9.75278e-07
9.75252e-07
9.75129e-07
9.74823e-07
9.74966e-07
9.74902e-07
9.75018e-07
9.74935e-07
9.74942e-07
9.75534e-07
9.7534e-07
9.75415e-07
9.75471e-07
9.75225e-07
9.75579e-07
9.75312e-07
9.75304e-07
9.75306e-07
9.75227e-07
9.75054e-07
9.74957e-07
9.74776e-07
9.74903e-07
9.75245e-07
9.75057e-07
9.74746e-07
9.75814e-07
9.74754e-07
9.75472e-07
9.75304e-07
9.75289e-07
9.74921e-07
9.75353e-07
9.75069e-07
9.75264e-07
9.75185e-07
9.75288e-07
9.75302e-07
9.7525e-07
9.75231e-07
9.74941e-07
9.75098e-07
9.75188e-07
9.75367e-07
9.75507e-07
9.7546e-07
9.75197e-07
9.75535e-07
9.75323e-07
9.75447e-07
9.75245e-07
9.75474e-07
9.75361e-07
9.75316e-07
9.75832e-07
9.7571e-07
9.76374e-07
9.77195e-07
9.78543e-07
9.80069e-07
9.80366e-07
9.79503e-07
9.76651e-07
9.69951e-07
9.59612e-07
9.44761e-07
9.24627e-07
8.97764e-07
8.63297e-07
8.23597e-07
7.81925e-07
7.43167e-07
7.13743e-07
7.00877e-07
7.16293e-07
7.72627e-07
8.81368e-07
1.03977e-06
1.16787e-06
1.14027e-06
1.00929e-06
1.16133e-06
2.94654e-06
6.43566e-07
8.2747e-07
1.10921e-06
1.41817e-06
1.73356e-06
1.99908e-06
2.26254e-06
2.50055e-06
2.72342e-06
2.91995e-06
3.10335e-06
3.26728e-06
3.41894e-06
3.55764e-06
3.69469e-06
3.86328e-06
4.08635e-06
4.3508e-06
9.62137e-07
1.94081e-06
9.46316e-07
8.68963e-07
1.03629e-06
1.29543e-06
1.51934e-06
1.77243e-06
2.03416e-06
2.26283e-06
2.51886e-06
2.69162e-06
2.87428e-06
3.04989e-06
3.21786e-06
3.37126e-06
3.52121e-06
3.69408e-06
3.89445e-06
4.10099e-06
9.91697e-07
2.62429e-06
1.34512e-06
1.26978e-06
1.35852e-06
1.41514e-06
1.60812e-06
1.86069e-06
2.05349e-06
2.32445e-06
2.54499e-06
2.63079e-06
2.72349e-06
2.86736e-06
3.02172e-06
3.1654e-06
3.30379e-06
3.45739e-06
3.61779e-06
3.75865e-06
1.03359e-06
3.35168e-06
1.92716e-06
1.93675e-06
1.85359e-06
1.87286e-06
2.09505e-06
2.17009e-06
2.434e-06
2.64869e-06
2.93207e-06
2.7595e-06
2.70821e-06
2.77637e-06
2.90383e-06
3.03859e-06
3.16496e-06
3.30332e-06
3.43687e-06
3.50447e-06
1.08739e-06
4.04188e-06
2.81828e-06
2.84281e-06
2.56165e-06
2.79805e-06
2.77364e-06
2.88581e-06
3.1683e-06
3.33242e-06
3.54294e-06
3.04157e-06
2.83083e-06
2.76826e-06
2.83553e-06
2.94977e-06
3.06765e-06
3.19861e-06
3.27471e-06
3.2793e-06
1.15659e-06
4.94876e-06
4.0206e-06
4.01004e-06
3.60587e-06
3.90506e-06
3.7735e-06
4.07707e-06
4.13015e-06
4.51933e-06
4.14485e-06
3.50003e-06
3.0552e-06
2.85405e-06
2.82845e-06
2.89806e-06
3.00348e-06
3.11008e-06
3.15261e-06
3.06007e-06
1.24779e-06
6.15437e-06
5.47793e-06
5.38349e-06
4.86516e-06
5.20411e-06
5.01197e-06
5.49539e-06
5.42309e-06
5.93674e-06
4.74487e-06
4.01219e-06
3.32659e-06
3.00375e-06
2.87718e-06
2.88216e-06
2.95797e-06
3.04267e-06
3.05013e-06
2.8635e-06
1.37061e-06
7.52752e-06
7.00113e-06
6.82549e-06
6.2197e-06
6.59037e-06
6.34741e-06
6.88211e-06
6.82625e-06
6.80842e-06
5.27742e-06
4.4293e-06
3.58699e-06
3.16586e-06
2.95381e-06
2.89177e-06
2.93292e-06
2.99546e-06
2.96921e-06
2.69622e-06
1.53132e-06
8.50331e-06
8.51961e-06
8.27483e-06
7.59888e-06
7.9681e-06
7.66255e-06
8.2294e-06
8.11679e-06
7.26099e-06
5.62282e-06
4.70048e-06
3.78146e-06
3.29582e-06
3.02344e-06
2.91048e-06
2.92269e-06
2.96482e-06
2.90842e-06
2.54954e-06
1.68801e-06
8.67264e-06
9.22143e-06
9.12577e-06
9.0436e-06
9.39603e-06
8.95459e-06
9.51612e-06
9.00362e-06
7.4942e-06
5.77943e-06
4.81386e-06
3.88261e-06
3.36363e-06
3.06139e-06
2.92271e-06
2.91938e-06
2.94928e-06
2.87222e-06
2.45857e-06
1.727e-06
8.67037e-06
9.21295e-06
9.11438e-06
9.04537e-06
9.3909e-06
8.94362e-06
9.5005e-06
8.97123e-06
7.45932e-06
5.75769e-06
4.80075e-06
3.86558e-06
3.35168e-06
3.05361e-06
2.9188e-06
2.91842e-06
2.95312e-06
2.88916e-06
2.51528e-06
1.69723e-06
8.47662e-06
8.57547e-06
8.30609e-06
7.59325e-06
7.94995e-06
7.62412e-06
8.1725e-06
8.03918e-06
7.18716e-06
5.56687e-06
4.65373e-06
3.74072e-06
3.26551e-06
3.0031e-06
2.89939e-06
2.91784e-06
2.96865e-06
2.93353e-06
2.64331e-06
1.55106e-06
7.52305e-06
6.98858e-06
6.79764e-06
6.16333e-06
6.51381e-06
6.24734e-06
6.76246e-06
6.69533e-06
6.67164e-06
5.16823e-06
4.34066e-06
3.52353e-06
3.11969e-06
2.92353e-06
2.87515e-06
2.92478e-06
2.99673e-06
2.99207e-06
2.79176e-06
1.38653e-06
6.08785e-06
5.38322e-06
5.27442e-06
4.746e-06
5.05999e-06
4.8549e-06
5.31403e-06
5.24083e-06
5.72776e-06
4.58626e-06
3.88288e-06
3.24741e-06
2.94917e-06
2.84392e-06
2.86386e-06
2.94753e-06
3.04225e-06
3.07335e-06
2.96679e-06
1.25934e-06
4.87715e-06
3.91614e-06
3.89294e-06
3.47527e-06
3.75307e-06
3.60855e-06
3.8823e-06
3.95903e-06
4.28978e-06
3.98764e-06
3.35992e-06
2.97663e-06
2.80426e-06
2.80046e-06
2.88124e-06
2.9876e-06
3.10664e-06
3.17155e-06
3.17068e-06
1.16548e-06
3.98423e-06
2.73359e-06
2.74228e-06
2.45404e-06
2.67083e-06
2.65833e-06
2.73129e-06
3.0275e-06
3.17376e-06
3.36688e-06
2.93671e-06
2.76539e-06
2.73387e-06
2.81663e-06
2.93618e-06
3.05447e-06
3.18597e-06
3.30475e-06
3.37053e-06
1.0947e-06
3.29244e-06
1.87877e-06
1.88222e-06
1.78042e-06
1.80144e-06
2.00812e-06
2.09603e-06
2.32927e-06
2.55871e-06
2.79943e-06
2.69207e-06
2.66806e-06
2.75707e-06
2.89158e-06
3.02796e-06
3.15847e-06
3.3023e-06
3.45117e-06
3.59414e-06
1.03965e-06
2.60559e-06
1.30217e-06
1.24059e-06
1.31317e-06
1.3862e-06
1.56883e-06
1.82165e-06
2.01181e-06
2.26953e-06
2.48976e-06
2.58909e-06
2.70397e-06
2.85412e-06
3.00981e-06
3.15376e-06
3.29388e-06
3.45397e-06
3.6366e-06
3.84832e-06
9.95966e-07
1.98915e-06
9.04267e-07
8.50281e-07
1.02133e-06
1.27932e-06
1.50513e-06
1.75222e-06
2.01661e-06
2.24408e-06
2.49443e-06
2.67439e-06
2.86413e-06
3.04171e-06
3.2105e-06
3.36472e-06
3.51629e-06
3.69414e-06
3.91164e-06
4.19973e-06
9.61409e-07
3.05368e-06
6.31803e-07
8.16261e-07
1.0972e-06
1.4063e-06
1.72187e-06
1.98521e-06
2.2431e-06
2.48289e-06
2.69851e-06
2.89865e-06
3.07863e-06
3.24125e-06
3.39098e-06
3.52792e-06
3.66632e-06
3.84337e-06
4.08747e-06
4.41377e-06
9.37516e-07
1.23762e-06
0.000118324
0.000294958
0.000330782
0.000334879
0.000335335
0.000335393
0.000335402
0.0003354
0.000335398
0.000335401
0.000335407
0.000335414
0.0003188
0.000290046
0.000334884
0.000330802
0.000295274
0.000118342
1.23759e-06
1.42184e-06
6.7194e-05
0.000211289
0.00022662
0.000184486
0.000286487
0.000215208
0.000149141
0.00017227
0.000195467
0.000195893
0.000214248
0.000183563
0.000127872
0.000168377
0.00033027
0.00021431
0.000210681
6.72828e-05
1.42169e-06
1.50314e-06
5.30906e-05
0.000181856
0.000264773
0.000326532
0.000331624
0.000297905
0.000195366
0.000257743
0.000208521
0.000161375