/*--------------------------------*- C++ -*----------------------------------*\
| =========                 |                                                 |
| \\      /  F ield         | OpenFOAM: The Open Source CFD Toolbox           |
|  \\    /   O peration     | Version:  2.1.0                                 |
|   \\  /    A nd           | Web:      www.OpenFOAM.org                      |
|    \\/     M anipulation  |                                                 |
\*---------------------------------------------------------------------------*/
FoamFile
{
    version     2.0;
    format      ascii;
    class       volScalarField;
    location    "0.01";
    object      omega;
}
// * * * * * * * * * * * * * * * * * * * * * * * * * * * * * * * * * * * * * //

dimensions      [0 0 -1 0 0 0 0];

internalField   nonuniform List<scalar> 
6400
(
755.336
755.419
755.458
755.481
755.504
755.509
755.491
755.417
755.37
755.314
755.326
755.356
755.411
755.447
755.47
755.499
755.523
755.521
755.485
755.451
755.416
755.335
755.314
755.308
755.318
755.372
755.396
755.415
755.455
755.468
755.459
755.44
755.432
755.424
755.408
755.407
755.42
755.402
755.353
755.336
755.345
755.354
755.347
755.356
755.381
755.394
755.393
755.41
755.415
755.414
755.397
755.384
755.386
755.395
755.427
755.439
755.448
755.45
755.448
755.448
755.431
755.435
755.475
755.479
755.474
755.466
755.462
755.445
755.468
755.522
755.557
755.652
755.777
755.931
756.18
756.526
756.996
757.57
757.749
757.468
756.169
753.446
749.022
742.287
732.764
719.661
702.718
682.003
658.479
633.434
608.566
585.869
567.121
554.224
545.659
537.311
521.125
507.854
527.65
549.473
121.583
121.335
121.243
121.153
121.172
121.083
120.789
120.708
120.91
120.867
121.06
121.084
121.114
121.247
121.123
121.11
121.2
120.879
120.766
120.879
120.744
120.624
120.801
120.967
120.897
121.07
121.021
121.096
121.157
121.094
120.97
121.073
121.044
121.064
120.908
120.88
120.997
120.903
120.934
120.907
121.053
121.049
120.949
121.005
120.888
120.881
120.783
120.942
120.97
121.018
120.807
120.808
120.939
120.926
121.005
121.044
120.991
120.735
120.889
120.871
120.949
120.957
121.085
120.917
120.876
120.975
121.014
121.007
121.006
121.261
121.339
121.538
121.59
121.707
122.07
122.42
122.367
122.064
121.777
121.476
119.818
117.89
114.917
110.001
106.743
105.96
107.876
119.222
148.606
205.449
296.349
412.651
550.633
697.663
808.732
862.69
884.344
851.854
645.281
529.999
11.2392
11.1852
11.1447
11.1376
11.1089
11.1857
11.2379
11.2787
11.0976
11.0827
11.0076
11.0464
11.1092
11.0831
11.1195
11.1717
11.1949
11.3238
11.3287
11.2167
11.2815
11.2932
11.1672
11.0472
11.1427
11.1071
11.1703
11.1624
11.1656
11.1531
11.1556
11.0223
11.0615
11.0756
11.1889
11.2506
11.1606
11.1876
11.1035
11.0913
11.0117
11.0286
11.1864
11.2317
11.3786
11.3418
11.3823
11.2124
11.1863
11.1613
11.2643
11.2859
11.1948
11.1942
11.2106
11.1945
11.2499
11.4262
11.2876
11.2914
11.2095
11.2178
11.2147
11.297
11.2319
11.1036
11.0635
11.0751
11.1739
11.1684
11.3049
11.363
11.455
11.4874
11.6761
11.9441
12.4524
12.9018
13.0493
12.8903
12.7374
11.9501
11.0611
10.9439
12.0605
16.7587
28.0529
49.8428
87.0179
144.418
224.119
323.438
436.318
540.534
598.111
628.885
641.458
630.973
534.603
477.643
3.24189
3.26146
3.27563
3.27759
3.25727
3.30958
3.32901
3.29827
3.26098
3.23786
3.26701
3.26955
3.28023
3.3113
3.31313
3.3117
3.31002
3.31186
3.32235
3.30589
3.32264
3.29823
3.27674
3.26613
3.24239
3.26094
3.25497
3.27585
3.2899
3.319
3.28397
3.30079
3.28508
3.29118
3.27953
3.3225
3.32683
3.3
3.30654
3.29796
3.27305
3.29746
3.29157
3.32426
3.33813
3.32909
3.32143
3.30964
3.27526
3.27587
3.28456
3.28627
3.30458
3.24051
3.29252
3.26767
3.31214
3.32738
3.33263
3.31357
3.3065
3.28072
3.3091
3.29829
3.30645
3.27571
3.268
3.25187
3.25355
3.26409
3.24641
3.26153
3.25646
3.21078
3.1477
3.04749
2.99721
2.98618
2.93525
2.89767
2.88901
2.88302
3.01195
3.63822
5.36478
9.44614
17.9918
34.3906
63.3612
109.944
176.888
263.923
363.831
433.543
460.584
472.524
476.312
470.251
443.341
432.087
1.77776
1.79696
1.82101
1.83637
1.8296
1.84347
1.84287
1.80601
1.7874
1.76463
1.7755
1.78493
1.79403
1.835
1.81656
1.80831
1.81789
1.87072
1.89958
1.91318
1.91371
1.89824
1.86508
1.82558
1.7914
1.78521
1.79847
1.80342
1.81791
1.82919
1.79738
1.79301
1.79051
1.80831
1.80434
1.83192
1.8283
1.81118
1.8099
1.78494
1.77699
1.7843
1.8137
1.86914
1.89847
1.90358
1.90231
1.89109
1.86155
1.85694
1.86829
1.85729
1.8544
1.81669
1.80278
1.79586
1.84665
1.87314
1.8699
1.84744
1.82364
1.81703
1.83896
1.83396
1.83813
1.80541
1.78514
1.76981
1.7761
1.78033
1.76576
1.79479
1.80372
1.79086
1.75731
1.67165
1.63988
1.63223
1.61815
1.61555
1.64519
1.70012
1.88227
2.41631
3.64173
6.49676
12.4913
24.18
45.3612
80.435
132.277
200.798
280.591
350.626
379.251
390.826
395.254
396.36
396.306
395.176
1.40069
1.43522
1.4562
1.49138
1.47442
1.52029
1.49854
1.48724
1.48176
1.44693
1.41637
1.42441
1.43447
1.46811
1.50012
1.44052
1.44748
1.49396
1.53174
1.53698
1.53763
1.54605
1.5193
1.44916
1.44781
1.45581
1.469
1.4532
1.44253
1.45718
1.48212
1.443
1.43126
1.45516
1.48376
1.49658
1.45932
1.45568
1.46242
1.45133
1.49417
1.54966
1.51951
1.52864
1.53919
1.5456
1.55039
1.49012
1.48381
1.48806
1.52459
1.53252
1.48677
1.47415
1.46016
1.47493
1.48406
1.50568
1.4977
1.49696
1.46648
1.44734
1.45917
1.48275
1.49871
1.51112
1.48857
1.45196
1.42625
1.41878
1.41552
1.43594
1.45566
1.45263
1.40729
1.41248
1.40311
1.4119
1.38642
1.34113
1.33254
1.37526
1.5135
1.92877
2.86581
5.0465
9.63235
18.661
35.2108
62.9365
104.357
159.15
221.929
281.55
322.103
339.996
349.842
358.462
362.594
363.396
1.45474
1.48745
1.47191
1.48441
1.50763
1.48897
1.51306
1.49481
1.48501
1.46652
1.45629
1.4458
1.48049
1.49341
1.52265
1.52285
1.43118
1.43318
1.49746
1.52031
1.52943
1.53592
1.52001
1.47642
1.44627
1.46788
1.43897
1.42313
1.43062
1.45049
1.50599
1.52149
1.50229
1.51206
1.52606
1.53295
1.52486
1.49731
1.4826
1.49541
1.54199
1.56659
1.59088
1.56277
1.55546
1.57546
1.53981
1.52048
1.49185
1.50071
1.50406
1.4922
1.48194
1.48402
1.51691
1.50641
1.55964
1.56494
1.57233
1.56117
1.51128
1.50182
1.482
1.51527
1.54693
1.54716
1.57373
1.52699
1.4822
1.45655
1.45063
1.47253
1.49376
1.50513
1.47404
1.39859
1.37325
1.37783
1.38342
1.33782
1.32305
1.31623
1.39698
1.71883
2.51152
4.30112
8.03233
15.3175
28.5508
50.5444
83.4183
127.272
178.57
229.009
269.004
294.96
311.842
326.47
333.339
335.037
1.48402
1.4556
1.48858
1.47168
1.48328
1.50852
1.51542
1.53314
1.54466
1.49036
1.4557
1.44386
1.44904
1.48778
1.50828
1.51073
1.45235
1.46717
1.51613
1.53517
1.5392
1.54127
1.50372
1.4663
1.48369
1.49084
1.46204
1.45375
1.45365
1.48461
1.51763
1.51379
1.53957
1.531
1.52854
1.53458
1.52821
1.51732
1.49923
1.49002
1.51579
1.57191
1.59099
1.50597
1.47724
1.47626
1.45296
1.42825
1.43096
1.43637
1.47223
1.50482
1.50964
1.5168
1.56553
1.58607
1.55871
1.58111
1.57184
1.50716
1.51648
1.48935
1.50345
1.51088
1.56148
1.57094
1.55385
1.54107
1.47579
1.45809
1.44858
1.45396
1.4648
1.43388
1.4088
1.37663
1.37574
1.39193
1.38193
1.32961
1.27339
1.28171
1.35476
1.6386
2.34287
3.91051
7.13201
13.287
24.2624
42.1571
68.5382
103.492
145.018
187.583
224.088
251.042
271.996
291.802
302.313
305.883
1.50305
1.55256
1.52629
1.49839
1.45614
1.45698
1.48005
1.51319
1.52928
1.53486
1.49542
1.4622
1.45758
1.4781
1.5361
1.51074
1.50928
1.48903
1.45806
1.4664
1.45685
1.47988
1.48224
1.48328
1.43352
1.42879
1.47311
1.43316
1.4877
1.53312
1.58025
1.59322
1.53795
1.53344
1.55837
1.54649
1.49974
1.49672
1.48727
1.53454
1.5568
1.59047
1.56937
1.48627
1.46241
1.43794
1.4167
1.4119
1.41239
1.43833
1.46496
1.47554
1.49083
1.52632
1.52769
1.56016
1.54704
1.53901
1.54166
1.5556
1.52651
1.53088
1.49938
1.49895
1.55004
1.57426
1.57454
1.52313
1.46601
1.46012
1.4631
1.47579
1.48213
1.43424
1.39795
1.3868
1.40308
1.40496
1.40049
1.30438
1.25963
1.26452
1.32652
1.59875
2.2647
3.73266
6.6768
12.2367
21.9476
37.4444
59.7843
88.9148
123.471
159.653
192.063
217.697
238.967
260.11
274.429
280.01
1.44915
1.47466
1.46915
1.48112
1.48178
1.46562
1.49442
1.52697
1.53516
1.51161
1.50585
1.4662
1.43345
1.46524
1.52427
1.53317
1.51313
1.57926
1.60557
1.50313
1.49491
1.53006
1.49399
1.48715
1.46525
1.46242
1.43758
1.45061
1.52516
1.59119
1.55921
1.45069
1.43779
1.46446
1.46095
1.47374
1.48957
1.49994
1.49766
1.51315
1.52459
1.51496
1.4783
1.47035
1.41214
1.39847
1.41187
1.42012
1.43465
1.44167
1.46807
1.4691
1.47095
1.47644
1.50248
1.49184
1.51943
1.52052
1.54875
1.53504
1.50845
1.54632
1.53371
1.57454
1.59307
1.5481
1.51481
1.45039
1.44707
1.44468
1.43871
1.4736
1.47036
1.46186
1.45051
1.45327
1.42963
1.38278
1.31326
1.2638
1.24901
1.25096
1.32549
1.59413
2.2404
3.66804
6.50638
11.8436
21.0449
35.5538
56.1624
82.8407
114.4
147.617
177.755
202.05
222.571
243.451
259.761
266.481
1.43018
1.49108
1.52696
1.55436
1.53965
1.53803
1.50651
1.50928
1.53829
1.54378
1.46815
1.4349
1.44506
1.47961
1.49214
1.49502
1.51906
1.52289
1.52119
1.48883
1.47021
1.49778
1.5712
1.52478
1.4455
1.4733
1.47726
1.51923
1.53135
1.51179
1.49035
1.48963
1.4468
1.43668
1.45337
1.47568
1.50073
1.49633
1.48908
1.47437
1.46091
1.45893
1.47993
1.44218
1.4249
1.42971
1.4403
1.441
1.46482
1.45871
1.43592
1.49153
1.53383
1.49677
1.50201
1.52888
1.54687
1.50309
1.50401
1.51251
1.53996
1.52007
1.53988
1.53892
1.52592
1.55098
1.52672
1.48207
1.45401
1.45131
1.46554
1.4706
1.4753
1.46811
1.45841
1.45238
1.45849
1.40404
1.27369
1.23481
1.23201
1.25039
1.35619
1.62387
2.26921
3.69463
6.57654
11.9741
21.2687
35.9515
56.8207
83.8619
115.851
149.432
179.786
204.146
224.69
245.597
261.43
267.916
1.49998
1.54666
1.54318
1.53839
1.51883
1.51394
1.52122
1.54047
1.5324
1.50383
1.50323
1.48975
1.47059
1.4781
1.51377
1.51809
1.53556
1.53707
1.52778
1.52339
1.52875
1.49749
1.52422
1.47108
1.46161
1.45181
1.47689
1.49985
1.55
1.58073
1.5586
1.49474
1.44912
1.41562
1.40035
1.39621
1.43241
1.4621
1.49017
1.46662
1.46771
1.44971
1.45646
1.43189
1.45135
1.41957
1.42462
1.45766
1.46562
1.50204
1.59649
1.56379
1.52482
1.54776
1.54129
1.55273
1.52741
1.56235
1.53465
1.54385
1.50172
1.50383
1.51674
1.5609
1.57693
1.49888
1.49519
1.49948
1.48417
1.48421
1.48084
1.47539
1.46689
1.46455
1.41738
1.39508
1.375
1.34586
1.30075
1.27116
1.2722
1.32108
1.41446
1.68172
2.34144
3.84121
6.86716
12.5838
22.5237
38.4412
61.3976
91.4729
127.26
164.703
198.142
224.351
245.563
266.067
279.097
284
1.57862
1.62072
1.62947
1.57187
1.5251
1.49931
1.50778
1.51589
1.53373
1.52893
1.47129
1.45492
1.4621
1.51986
1.53216
1.51593
1.46857
1.47488
1.47534
1.46271
1.44572
1.46888
1.44288
1.44234
1.45419
1.5259
1.55731
1.53317
1.57364
1.57771
1.54909
1.50564
1.4442
1.42678
1.4275
1.42397
1.41933
1.45229
1.47999
1.5208
1.4763
1.43404
1.42635
1.47378
1.49019
1.51557
1.52411
1.56552
1.62393
1.57443
1.54158
1.62622
1.62901
1.61204
1.62118
1.56503
1.59209
1.52608
1.51522
1.48885
1.47587
1.47456
1.47242
1.45609
1.45705
1.46794
1.49013
1.50421
1.51359
1.47739
1.46284
1.46715
1.45464
1.43262
1.42815
1.42762
1.38292
1.33161
1.28519
1.26976
1.30034
1.34825
1.4735
1.76469
2.46853
4.12652
7.51137
13.9729
25.4301
44.1912
71.8358
108.596
152.226
196.568
233.903
260.52
280.529
298.72
307.361
310
1.54859
1.57134
1.55776
1.5358
1.48951
1.49058
1.52535
1.54682
1.59079
1.52805
1.47075
1.44725
1.4396
1.45248
1.45991
1.45859
1.46555
1.45613
1.44977
1.45897
1.44363
1.39536
1.39279
1.38479
1.39446
1.43597
1.41445
1.41811
1.46009
1.4803
1.48584
1.45534
1.43151
1.4247
1.40048
1.40298
1.44876
1.51453
1.52547
1.47594
1.44268
1.41921
1.41688
1.4932
1.53736
1.5539
1.55182
1.54721
1.54087
1.558
1.50914
1.46147
1.50815
1.52135
1.51666
1.53662
1.51659
1.51682
1.51943
1.4928
1.43828
1.42812
1.42929
1.41916
1.43365
1.45412
1.45821
1.48473
1.50812
1.5205
1.51464
1.48323
1.49658
1.42703
1.3626
1.33543
1.33346
1.29662
1.28101
1.30579
1.31411
1.38464
1.55822
1.87362
2.6756
4.59087
8.55952
16.2788
30.2007
53.3543
87.8917
133.879
187.474
239.479
279.746
304.087
318.249
330.348
335.794
336.67
1.47654
1.47784
1.46699
1.46581
1.47517
1.48153
1.4987
1.50006
1.4836
1.46657
1.47088
1.46795
1.46869
1.47262
1.4572
1.44446
1.43867
1.44238
1.44088
1.43351
1.41681
1.36986
1.3586
1.3748
1.37997
1.42832
1.45198
1.42038
1.41889
1.45951
1.47441
1.47284
1.47284
1.45539
1.44946
1.42523
1.4343
1.40448
1.41482
1.45121
1.45337
1.41499
1.4411
1.53365
1.5658
1.54982
1.56025
1.55594
1.5441
1.49971
1.50615
1.4658
1.46856
1.49418
1.50508
1.47985
1.48412
1.50062
1.48847
1.47215
1.46758
1.43379
1.40882
1.40514
1.41429
1.41694
1.44214
1.4609
1.47458
1.46338
1.47409
1.49246
1.44075
1.45704
1.36224
1.32012
1.3133
1.30204
1.34446
1.38926
1.36423
1.4571
1.64346
2.06246
3.05787
5.40668
10.319
19.9404
37.4338
66.5633
109.948
167.13
232.501
293.974
329.981
345.54
353.759
359.834
362.641
362.64
1.73405
1.7395
1.75646
1.78457
1.79838
1.81068
1.81816
1.83837
1.85558
1.85361
1.82579
1.81669
1.8195
1.82956
1.82565
1.81307
1.81645
1.83418
1.83885
1.84697
1.82712
1.77933
1.75756
1.75144
1.76919
1.77098
1.77396
1.78577
1.80555
1.83379
1.82867
1.83155
1.81748
1.82053
1.82317
1.81481
1.81415
1.79675
1.84005
1.78676
1.77382
1.78721
1.80818
1.8534
1.95723
1.94998
1.9239
1.89204
1.85825
1.81765
1.79361
1.80108
1.80181
1.80672
1.79538
1.81508
1.83373
1.82209
1.82691
1.80558
1.81428
1.78895
1.79853
1.7734
1.78228
1.78977
1.7918
1.78978
1.80423
1.81694
1.85804
1.86032
1.81116
1.76565
1.65322
1.61076
1.5998
1.59874
1.62982
1.64988
1.66672
1.68674
1.93718
2.50912
3.82969
6.91788
13.3675
25.7965
48.1157
84.7877
138.77
210.075
293.281
360.149
385.604
395.495
398.708
399.04
396.66
391.832
3.15444
3.18537
3.19477
3.21992
3.25135
3.26833
3.2559
3.30484
3.30503
3.29297
3.27913
3.27384
3.29205
3.3032
3.33036
3.31394
3.30446
3.305
3.32534
3.34555
3.35481
3.31884
3.31326
3.2658
3.31781
3.28463
3.29114
3.27579
3.27984
3.28121
3.27044
3.28459
3.25606
3.27687
3.27569
3.25867
3.29391
3.28368
3.31886
3.27002
3.27397
3.27287
3.27739
3.30566
3.40169
3.40973
3.37907
3.33785
3.3014
3.30586
3.28805
3.30931
3.30282
3.30941
3.28671
3.29965
3.31469
3.28498
3.30272
3.26165
3.27338
3.25229
3.28137
3.26382
3.27445
3.26391
3.25988
3.22211
3.22902
3.21036
3.23375
3.23297
3.18885
3.16565
3.05606
3.00815
2.99969
3.0213
3.05498
3.04369
2.96253
2.89789
3.0118
3.64537
5.51802
9.92194
19.105
36.4214
66.695
114.966
183.76
272.949
374.365
441.575
468.117
480.589
484.88
478.452
445.456
429.986
11.1276
10.9995
11.0333
11.092
11.1323
11.1053
11.1548
11.1383
11.1381
11.0725
11.0902
11.1355
11.1523
11.1177
11.2856
11.0718
11.1456
11.2441
11.2449
11.2755
11.2679
11.1508
11.0862
10.9993
11.0307
11.1238
11.0873
11.0739
11.0728
11.1399
11.0876
11.0165
11.1355
11.0688
11.081
11.0965
11.066
11.0479
11.0262
11.0517
11.0524
11.0267
11.069
11.164
11.3511
11.4058
11.3798
11.2037
11.1743
11.0999
11.1261
11.122
11.1624
11.1413
11.1406
11.1258
11.1621
11.13
11.1108
11.0931
11.0414
11.0725
11.0453
11.0627
11.1136
11.0986
11.1298
11.1042
11.2085
11.2829
11.2452
11.6198
11.5486
11.8764
12.2775
12.5721
13.4222
13.7852
14.0094
13.8761
13.2981
12.3566
11.1135
10.9433
12.1293
17.205
29.2142
51.901
90.2049
148.915
229.683
329.977
443.684
548.503
609.943
644.246
658.935
651.158
550.314
480.627
121.478
121.223
121.099
121.043
121.14
121.246
121.055
120.918
120.846
120.863
120.904
121.005
121.088
121.101
120.775
121.144
121.03
120.876
120.893
120.857
120.856
120.875
120.903
121.068
121.075
120.94
121.074
121.182
121.226
121.023
121.019
121.037
120.889
121.054
121.044
121.02
121.059
121.077
121.056
120.913
120.908
120.991
121.028
121.05
120.783
120.688
120.786
121.068
120.967
120.972
120.979
121.082
121.144
121.179
121.137
121.199
121.145
121.019
120.923
120.898
120.999
121.009
121.217
121.224
121.114
121.04
121.03
121.094
120.891
120.895
121.159
120.925
121.347
121.339
121.436
121.618
121.516
121.603
121.004
120.032
119.074
116.874
113.843
109.172
106.056
105.362
107.521
119.546
149.92
207.921
299.376
415.034
552.087
698.666
813.042
868.739
891.307
859.506
657.586
537.174
755.386
755.41
755.458
755.496
755.511
755.514
755.504
755.457
755.383
755.353
755.349
755.408
755.454
755.468
755.475
755.495
755.501
755.485
755.468
755.439
755.408
755.357
755.337
755.347
755.346
755.332
755.344
755.437
755.462
755.464
755.459
755.44
755.428
755.433
755.437
755.438
755.429
755.412
755.398
755.348
755.328
755.336
755.337
755.364
755.368
755.344
755.356
755.4
755.402
755.389
755.388
755.403
755.423
755.448
755.488
755.513
755.519
755.509
755.451
755.421
755.419
755.448
755.493
755.509
755.528
755.53
755.526
755.54
755.515
755.517
755.56
755.619
755.738
755.861
756.096
756.466
756.963
757.551
757.68
757.246
755.783
752.721
747.819
740.666
730.787
717.467
700.103
679.136
655.367
630.159
605.351
582.711
564.507
551.934
543.667
535.423
518.799
504.292
528.25
553.434
529.582
290.616
158.402
105.653
80.8644
69.371
57.5603
51.3643
46.3776
42.4035
39.762
37.6499
35.6888
34.2694
33.749
34.0163
39.6276
68.9296
198.374
484.495
489.282
309.617
190.478
133.95
107.329
84.2316
71.4516
63.6939
55.5075
51.7739
48.0654
45.8039
43.2308
41.3064
40.604
40.866
47.6282
80.4289
213.594
477.923
460.834
290.382
208.831
163.311
122.689
101.283
88.2617
75.0058
68.5536
61.7927
58.6221
55.4172
52.5823
50.265
49.3951
49.7276
57.8511
94.4921
230.498
470.599
403.291
273.822
225.823
173.429
140.328
122.132
101.138
90.7073
80.7725
74.3826
70.1651
66.0583
62.9126
60.6437
59.9017
60.4242
70.2479
111.026
248.496
462.453
351.271
266.123
232.979
183.145
160.485
135.205
117.301
106.129
94.2416
88.8516
81.7316
77.5707
73.7057
71.7797
71.3539
72.4692
84.1901
128.938
265.994
453.406
315.812
260.045
235.419
193.047
174.101
147.114
134.24
118.297
109.472
100.468
94.0012
88.2704
84.4088
82.6589
82.4194
84.5838
98.2741
146.286
281.055
443.47
292.116
253.38
234.539
198.695
182.571
157.916
146.388
129.563
121.528
110.36
104.901
97.5168
93.8999
92.2952
92.14
95.3833
110.998
161.312
292.543
432.795
273.538
244.401
230.093
200.08
186.61
164.404
153.817
137.284
129.463
118.123
112.682
104.774
101.267
99.8151
99.7188
103.868
121.081
172.772
299.95
421.659
259.457
235.503
224.422
199.009
187.202
167.097
157.422
141.667
134.12
122.78
117.376
109.558
106.156
104.796
104.751
109.548
127.818
180.054
303.159
410.389
252.701
230.643
221.021
197.819
186.941
167.783
158.602
143.676
136.429
124.804
119.302
111.878
108.477
107.158
107.141
112.248
130.978
183.287
303.793
402.69
253.085
231.017
221.264
197.873
186.925
167.702
158.487
143.42
136.101
124.556
119.113
111.555
108.169
106.842
106.821
111.888
130.601
183.164
305.232
408.603
260.573
236.511
225.03
199.065
187.088
166.731
156.916
141.003
133.433
122.137
116.709
108.783
105.367
103.982
103.923
108.595
126.728
179.284
305.115
419.983
274.191
244.78
230.022
199.404
185.664
163.171
152.5
135.951
128.117
116.775
111.336
103.458
99.9099
98.4106
98.2931
102.237
119.152
170.938
300.83
431.536
291.282
251.842
232.518
196.389
180.043
155.335
143.824
127.19
119.176
108.167
102.683
95.5996
91.9041
90.2429
90.0623
93.0448
108.241
158.396
292.29
442.809
314.022
257.187
232.194
189.447
170.487
143.522
130.587
115.429
106.171
98.0345
91.1847
85.973
82.0029
80.2008
79.9153
81.7842
94.9963
142.56
279.732
453.475
348.7
262.298
228.73
178.808
156.226
131.728
113.222
103.003
91.1506
85.7127
79.0785
74.9904
71.2328
69.1876
68.6741
69.5533
80.7904
124.835
263.81
463.313
398.379
270.101
222.167
169.004
136.496
118.282
98.2419
87.3149
78.3129
71.3445
67.8098
63.6559
60.6414
58.2618
57.4286
57.8438
67.2122
107.188
246.059
472.234
457.096
284.526
205.56
158.65
120.068
98.073
85.8121
72.6953
66.1685
59.7236
56.4451
53.4714
50.6292
48.3052
47.4255
47.6938
55.4528
91.3576
228.377
480.272
492.058
299.435
186.027
130.502
104.11
82.2811
68.7767
61.8615
53.7474
50.085
46.3666
44.119
41.5863
39.7158
39.019
39.2351
45.7024
77.8658
211.812
487.511
535.445
283.319
154.527
102.666
78.3405
67.0122
56.1656
49.3206
45.1522
40.7973
38.4023
36.2048
34.3206
32.9091
32.3784
32.5945
37.9208
66.5909
196.596
494.004
646.986
31.7245
12.7083
11.3339
11.1968
11.1818
11.1801
11.1802
11.1802
11.1802
11.1801
11.1798
11.1794
11.18
11.1823
11.1968
11.3329
12.6948
31.7196
646.987
682.343
55.8932
17.7029
12.3192
11.3518
11.2042
11.186
11.1859
11.1853
11.1854
11.1855
11.1848
11.1836
11.1866
11.2026
11.3423
12.298
17.753
55.8199
682.34
694.339
70.0816
20.3235
12.6172
11.3363
11.1682
11.1477
11.1469
11.1494
11.1528
11.1546
11.154
11.1497
11.1486
11.1663
11.3338
12.6052
20.3484
69.9569
694.346
690.424
77.7781
20.4204
12.2148
10.9192
10.7826
10.788
10.8074
10.8213
10.8264
10.8225
10.8158
10.8
10.7817
10.7739
10.9179
12.1988
20.4331
77.7568
690.441
655.759
81.7094
18.7008
9.98271
8.8673
8.94711
9.13676
9.25754
9.34805
9.40334
9.3909
9.34291
9.24929
9.11973
8.93733
8.861
9.94499
18.6287
81.9255
655.791
591.205
79.7461
14.8502
6.24526
5.1885
5.27721
5.58694
5.83673
5.97732
6.05785
6.04468
5.97816
5.83105
5.59381
5.28407
5.18745
6.19459
14.6805
80.097
591.219
553.943
75.728
12.8894
4.22667
2.99584
2.918
3.02668
3.15531
3.25553
3.32115
3.32284
3.26523
3.16976
3.05474
2.92277
2.99655
4.26035
12.7483
75.9741
553.927
537.804
73.8038
12.336
3.60665
2.04096
1.80343
1.80262
1.85154
1.87506
1.87507
1.90863
1.88858
1.86267
1.82466
1.82388
2.06122
3.64962
12.4228
73.6461
537.781
531.888
73.0244
12.4004
3.50527
1.7343
1.38192
1.34229
1.3504
1.37699
1.38518
1.36749
1.36719
1.35861
1.34783
1.38558
1.72645
3.56475
12.4856
72.9528
531.869
529.805
72.6227
12.6182
3.53071
1.6157
1.24676
1.21608
1.20407
1.22122
1.22415
1.227
1.22621
1.22641
1.21053
1.27567
1.66745
3.58926
12.5514
72.607
529.812
528.998
72.1214
12.7083
3.54951
1.59522
1.23812
1.19988
1.18878
1.19763
1.20968
1.19731
1.2108
1.21859
1.19005
1.24541
1.64828
3.58605
12.6163
72.1902
529.02
528.632
71.7213
12.8703
3.42737
1.53092
1.23219
1.20143
1.20318
1.2017
1.2056
1.21263
1.21164
1.23369
1.20254
1.23873
1.60825
3.51132
12.614
71.7404
528.649
528.443
71.2123
12.735
3.38807
1.53972
1.2414
1.21854
1.20838
1.21235
1.21452
1.2164
1.21358
1.24334
1.21889
1.23218
1.58824
3.47495
12.4648
71.4707
528.458
528.351
71.0559
12.5051
3.37475
1.56013
1.24944
1.21598
1.20471
1.20857
1.214
1.22292
1.22953
1.23889
1.22528
1.23731
1.53245
3.33069
12.522
71.0515
528.345
528.294
70.9143
12.6151
3.23552
1.55348
1.27056
1.20878
1.22067
1.20982
1.20936
1.23318
1.25695
1.25648
1.23655
1.24693
1.508
3.29088
12.5546
70.7079
528.287
528.258
70.6308
12.6266
3.28654
1.53805
1.25443
1.22197
1.21669
1.21459
1.20628
1.25462
1.24644
1.27659
1.26135
1.26836
1.52637
3.30802
12.4965
70.6624
528.27
528.251
70.6821
12.5042
3.31547
1.54222
1.25552
1.22323
1.21275
1.20659
1.21998
1.24412
1.25522
1.28644
1.24945
1.27506
1.53379
3.26438
12.4613
70.7945
528.26
528.238
70.8197
12.4123
3.38316
1.56595
1.26446
1.22311
1.21405
1.21207
1.23447
1.25812
1.25685
1.2628
1.25522
1.26797
1.54562
3.26238
12.428
70.8627
528.237
528.22
70.8091
12.5262
3.29464
1.53485
1.25498
1.22547
1.19901
1.21217
1.22745
1.25304
1.25629
1.24115
1.23454
1.25433
1.53067
3.27455
12.4599
70.8098
528.206
528.178
70.6461
12.4143
3.36777
1.55828
1.25072
1.20249
1.19561
1.20145
1.22113
1.22288
1.24066
1.22018
1.19495
1.23246
1.54883
3.34503
12.3502
70.7393
528.188
528.164
70.6152
12.3991
3.30876
1.55131
1.24291
1.20285
1.2025
1.24294
1.22148
1.22063
1.21787
1.19309
1.19322
1.23141
1.54301
3.28563
12.3982
70.7179
528.179
528.169
70.659
12.3941
3.29487
1.53623
1.23129
1.20704
1.19664
1.26083
1.25404
1.21436
1.21974
1.19339
1.20888
1.24859
1.53277
3.27383
12.4723
70.6461
528.174
528.182
70.6368
12.4723
3.3194
1.54372
1.23074
1.19629
1.20959
1.22202
1.24715
1.24097
1.21839
1.22966
1.21272
1.26208
1.54924
3.31363
12.516
70.5688
528.179
528.189
70.6473
12.5194
3.26832
1.5741
1.26125
1.19111
1.19264
1.22283
1.22572
1.24761
1.23259
1.22694
1.21802
1.25248
1.53293
3.29303
12.6748
70.5769
528.184
528.189
70.6744
12.5012
3.26512
1.5529
1.24773
1.21211
1.22162
1.20449
1.23862
1.2416
1.22332
1.23354
1.20985
1.24401
1.54657
3.38949
12.5874
70.5269
528.179
528.187
70.6291
12.421
3.3376
1.5553
1.25151
1.21579
1.24353
1.22001
1.23075
1.22773
1.22896
1.21942
1.22072
1.2318
1.53396
3.31452
12.5745
70.5695
528.176
528.185
70.6495
12.4764
3.2843
1.52362
1.25196
1.2169
1.23994
1.24542
1.21276
1.23971
1.22572
1.21678
1.20446
1.22256
1.50007
3.25828
12.5508
70.7173
528.174
528.178
70.6218
12.4913
3.28754
1.52096
1.25339
1.23406
1.23214
1.23748
1.22351
1.24321
1.21102
1.20447
1.19052
1.22212
1.53672
3.36761
12.3897
70.6693
528.162
528.176
70.656
12.4471
3.26527
1.55026
1.26821
1.23822
1.24763
1.23868
1.23158
1.22094
1.22096
1.19004
1.18588
1.22566
1.51013
3.28895
12.4872
70.7213
528.158
528.166
70.7581
12.4816
3.24116
1.54266
1.27302
1.24535
1.24755
1.24402
1.21838
1.2112
1.20196
1.18119
1.18048
1.22011
1.51443
3.31249
12.5928
70.6784
528.146
528.142
70.7785
12.4721
3.2664
1.5136
1.25284
1.23865
1.2245
1.24785
1.21881
1.20795
1.18836
1.17787
1.18284
1.21301
1.53287
3.34111
12.5114
70.6799
528.13
528.13
70.6803
12.4636
3.30213
1.51929
1.24841
1.22362
1.21574
1.22842
1.20959
1.20424
1.19356
1.18744
1.18306
1.21758
1.52989
3.34731
12.5017
70.6216
528.102
528.111
70.5912
12.5582
3.26418
1.51265
1.24336
1.22013
1.21564
1.22544
1.20132
1.20268
1.19901
1.18569
1.20635
1.25488
1.55702
3.36924
12.4754
70.5458
528.097
528.105
70.5661
12.5667
3.31629
1.51844
1.2331
1.21721
1.21207
1.21757
1.20778
1.19291
1.19302
1.19342
1.21612
1.26018
1.55749
3.32815
12.5094
70.5727
528.109
528.106
70.5716
12.6417
3.29621
1.50412
1.23761
1.19644
1.19837
1.2203
1.19437
1.19787
1.18539
1.20876
1.23658
1.27941
1.58818
3.31645
12.4969
70.5628
528.122
528.103
70.5403
12.6608
3.28895
1.50847
1.22699
1.20548
1.20143
1.20684
1.19762
1.19939
1.20155
1.22318
1.22774
1.29734
1.5705
3.28517
12.575
70.541
528.125
528.095
70.595
12.4876
3.32542
1.53978
1.22744
1.22707
1.20842
1.21549
1.21146
1.23279
1.2033
1.23063
1.23184
1.27885
1.55951
3.34721
12.5616
70.5605
528.125
528.1
70.6547
12.4752
3.33265
1.5352
1.24817
1.22631
1.21966
1.23212
1.21119
1.23711
1.19238
1.22666
1.22329
1.24176
1.53226
3.33798
12.544
70.692
528.12
528.095
70.6719
12.6213
3.28854
1.52322
1.25507
1.22883
1.2214
1.22437
1.20888
1.2023
1.19717
1.19108
1.19813
1.22879
1.50459
3.25567
12.6062
70.7729
528.098
528.08
70.6377
12.6254
3.32876
1.53777
1.24498
1.22602
1.21488
1.19594
1.21231
1.19973
1.20842
1.19049
1.18774
1.21092
1.51342
3.31693
12.5774
70.6572
528.079
528.064
70.5741
12.6684
3.28592
1.52854
1.24581
1.20655
1.19952
1.18196
1.19435
1.2028
1.22102
1.19915
1.17845
1.20163
1.48863
3.25974
12.6301
70.6006
528.061
528.055
70.5693
12.5447
3.34565
1.55138
1.26677
1.21253
1.18725
1.18093
1.18844
1.20906
1.2244
1.2024
1.19179
1.21583
1.50953
3.27718
12.5564
70.537
528.051
528.053
70.5725
12.5176
3.31231
1.53493
1.26295
1.22763
1.20332
1.18855
1.19836
1.20141
1.2384
1.2248
1.21218
1.2298
1.49005
3.2502
12.504
70.5421
528.049
528.055
70.5359
12.5519
3.30063
1.53762
1.27467
1.21837
1.23805
1.18612
1.2049
1.2171
1.23592
1.22335
1.21888
1.24733
1.50102
3.2653
12.5525
70.4946
528.067
528.066
70.4848
12.5925
3.32776
1.56699
1.27902
1.21596
1.22968
1.1884
1.19732
1.21676
1.21877
1.2241
1.20355
1.24826
1.51659
3.23205
12.595
70.5989
528.11
528.101
70.5438
12.653
3.30493
1.56142
1.2559
1.20965
1.21051
1.19052
1.18274
1.19798
1.19647
1.22121
1.18919
1.22339
1.50958
3.27942
12.5953
70.6661
528.124
528.119
70.5349
12.5254
3.40927
1.58383
1.25282
1.20882
1.20309
1.18243
1.17278
1.1856
1.20056
1.20144
1.20288
1.21869
1.49693
3.26557
12.6709
70.6379
528.123
528.124
70.6382
12.5323
3.32314
1.55545
1.24851
1.21147
1.20012
1.20956
1.17549
1.18378
1.19379
1.19777
1.21157
1.21447
1.50304
3.27803
12.6551
70.6316
528.12
528.122
70.6582
12.5201
3.31878
1.56807
1.27169
1.24239
1.21184
1.2107
1.20551
1.18551
1.1876
1.18105
1.21106
1.23167
1.54103
3.2881
12.609
70.6124
528.103
528.108
70.6539
12.5352
3.32889
1.57176
1.26665
1.23662
1.2162
1.23298
1.19055
1.21228
1.19135
1.18287
1.21392
1.23019
1.54629
3.32772
12.5564
70.6117
528.094
528.077
70.5712
12.6313
3.3168
1.54092
1.25067
1.22004
1.22173
1.20742
1.206
1.20936
1.20169
1.17891
1.1929
1.2368
1.51751
3.29063
12.6356
70.6336
528.09
528.064
70.5196
12.6741
3.27496
1.51901
1.24325
1.20626
1.21607
1.18203
1.19785
1.19994
1.19173
1.188
1.18387
1.22714
1.54335
3.33394
12.5834
70.6309
528.084
528.072
70.5774
12.5285
3.34856
1.53873
1.25118
1.2141
1.21107
1.17482
1.1821
1.17738
1.19926
1.20096
1.18766
1.22525
1.53318
3.29565
12.7005
70.5854
528.069
528.078
70.6865
12.3462
3.32549
1.55429
1.26559
1.19828
1.2342
1.20186
1.18362
1.19459
1.18382
1.21466
1.20635
1.21625
1.53098
3.35573
12.6641
70.4798
528.041
528.074
70.6361
12.3595
3.33098
1.53761
1.24348
1.20571
1.22278
1.21412
1.20991
1.20291
1.20746
1.20785
1.19725
1.23989
1.5588
3.39981
12.634
70.4554
528.043
528.065
70.562
12.5483
3.22142
1.50228
1.22947
1.19767
1.22151
1.2151
1.21427
1.19472
1.19438
1.20447
1.21573
1.27014
1.58808
3.41036
12.4769
70.5275
528.063
528.072
70.5278
12.5989
3.22473
1.50227
1.24002
1.21215
1.20793
1.21931
1.19897
1.18406
1.18702
1.20098
1.22555
1.27323
1.58061
3.36091
12.528
70.5071
528.087
528.099
70.5003
12.5567
3.35342
1.53369
1.26797
1.23335
1.21102
1.20243
1.19569
1.18333
1.19089
1.20987
1.23576
1.25621
1.55781
3.33738
12.6635
70.4406
528.101
528.133
70.6195
12.5804
3.34168
1.54751
1.26778
1.23319
1.2243
1.21158
1.21192
1.22887
1.20062
1.22256
1.23459
1.25405
1.56507
3.36723
12.5697
70.4678
528.121
528.144
70.6465
12.5914
3.38153
1.57649
1.26325
1.2183
1.22383
1.19969
1.21873
1.22776
1.23335
1.21372
1.23122
1.2553
1.55562
3.31686
12.5444
70.5638
528.134
528.143
70.6269
12.5559
3.43842
1.58328
1.24496
1.20371
1.20079
1.20408
1.20269
1.22759
1.231
1.22459
1.2246
1.2616
1.56241
3.3366
12.5476
70.528
528.142
528.141
70.5551
12.6113
3.39149
1.56562
1.24319
1.20856
1.21694
1.20703
1.21615
1.20196
1.21462
1.22279
1.21969
1.25525
1.52562
3.26727
12.5797
70.5853
528.144
528.135
70.5299
12.5878
3.38154
1.5413
1.24808
1.2325
1.24972
1.2498
1.21342
1.19292
1.20282
1.2042
1.21771
1.2416
1.51071
3.27768
12.5142
70.6518
528.142
528.129
70.5385
12.6367
3.34741
1.52565
1.2493
1.24262
1.25167
1.25731
1.20128
1.22055
1.207
1.19602
1.21165
1.24641
1.53688
3.32646
12.3948
70.6522
528.136
528.124
70.5761
12.6343
3.29032
1.51985
1.25041
1.23568
1.24575
1.2401
1.23887
1.20533
1.23822
1.21205
1.22417
1.25222