/*--------------------------------*- C++ -*----------------------------------*\
| =========                 |                                                 |
| \\      /  F ield         | OpenFOAM: The Open Source CFD Toolbox           |
|  \\    /   O peration     | Version:  2.1.0                                 |
|   \\  /    A nd           | Web:      www.OpenFOAM.org                      |
|    \\/     M anipulation  |                                                 |
\*---------------------------------------------------------------------------*/
FoamFile
{
    version     2.0;
    format      ascii;
    class       volScalarField;
    location    "0.01";
    object      p;
}
// * * * * * * * * * * * * * * * * * * * * * * * * * * * * * * * * * * * * * //

dimensions      [1 -1 -2 0 0 0 0];

internalField   nonuniform List<scalar> 
6400
(
99985.9
99985.4
99986.3
99991.1
99997.6
100002
100004
100006
100008
100010
100011
100012
100014
100017
100023
100028
100031
100033
100034
100036
100039
100043
100046
100050
100054
100057
100060
100064
100067
100070
100072
100074
100076
100079
100084
100087
100090
100094
100097
100103
100111
100119
100125
100129
100131
100133
100135
100137
100141
100144
100147
100150
100154
100159
100162
100165
100167
100169
100172
100174
100177
100179
100181
100183
100187
100190
100193
100195
100196
100198
100201
100203
100205
100208
100209
100211
100213
100215
100218
100220
100221
100222
100222
100222
100221
100220
100217
100212
100202
100184
100155
100106
100029
99914.9
99752.3
99542.1
99310.9
99065.5
98641.1
97072.4
99985
99985
99985.3
99990.6
99998.3
100002
100004
100006
100007
100010
100011
100012
100013
100017
100023
100028
100031
100033
100034
100036
100039
100043
100046
100051
100054
100056
100060
100064
100067
100070
100072
100073
100075
100079
100084
100087
100090
100094
100097
100103
100111
100120
100126
100129
100132
100133
100134
100137
100141
100144
100148
100149
100154
100160
100162
100165
100167
100169
100172
100174
100177
100179
100181
100183
100187
100190
100193
100195
100196
100198
100201
100203
100205
100208
100209
100211
100214
100216
100219
100221
100223
100224
100224
100224
100223
100221
100218
100212
100202
100183
100152
100101
100024
99909.5
99750.7
99548.9
99325.9
99102.1
98740.2
98194
99983.3
99984.5
99983
99989.5
99999.9
100003
100005
100005
100007
100010
100011
100012
100013
100015
100023
100029
100031
100033
100034
100034
100038
100044
100046
100051
100055
100056
100059
100064
100068
100070
100073
100073
100074
100079
100085
100087
100090
100094
100096
100101
100111
100121
100127
100130
100132
100132
100134
100137
100141
100145
100148
100148
100154
100160
100163
100165
100166
100169
100172
100174
100177
100179
100180
100183
100187
100191
100193
100195
100195
100198
100202
100202
100205
100209
100209
100210
100214
100217
100219
100222
100224
100225
100226
100225
100225
100223
100220
100213
100201
100181
100148
100096
100019
99907.7
99758.7
99576.2
99380.1
99192.5
98970.3
99047.5
99981.2
99984.4
99978.8
99987.4
100003
100004
100005
100005
100007
100011
100011
100012
100011
100012
100024
100031
100032
100033
100034
100033
100037
100045
100047
100051
100055
100056
100059
100065
100068
100071
100074
100073
100072
100078
100086
100086
100089
100094
100094
100099
100112
100122
100129
100131
100132
100132
100133
100137
100141
100145
100149
100146
100154
100162
100162
100166
100165
100169
100173
100173
100176
100180
100180
100182
100187
100191
100194
100196
100194
100198
100203
100201
100205
100210
100208
100209
100214
100217
100220
100222
100224
100227
100227
100227
100226
100224
100220
100213
100200
100178
100144
100091
100015
99910.6
99777.6
99624.5
99471.5
99353.7
99308
99694.5
99975.8
99985.3
99971.9
99984
100009
100007
100006
100004
100006
100012
100011
100013
100009
100007
100026
100035
100032
100033
100034
100031
100035
100045
100049
100052
100054
100055
100058
100066
100069
100071
100076
100073
100068
100077
100090
100086
100087
100095
100093
100096
100110
100124
100133
100133
100132
100131
100132
100136
100140
100145
100150
100145
100154
100164
100162
100166
100164
100169
100174
100173
100176
100181
100179
100180
100187
100193
100195
100197
100192
100197
100205
100199
100205
100212
100207
100208
100213
100219
100221
100221
100225
100229
100228
100227
100226
100224
100220
100212
100198
100175
100139
100087
100014
99918.2
99805.3
99687.6
99588.1
99560.7
99678.8
100201
99969.5
99985.6
99967.2
99983.4
100013
100007
100006
100003
100006
100012
100011
100016
100004
100001
100031
100039
100033
100034
100032
100030
100033
100042
100052
100053
100054
100054
100057
100067
100070
100071
100075
100074
100065
100077
100094
100083
100085
100095
100096
100089
100104
100131
100139
100136
100132
100130
100131
100135
100138
100145
100151
100148
100155
100164
100163
100164
100163
100168
100175
100173
100176
100181
100179
100178
100187
100194
100195
100199
100190
100196
100206
100200
100206
100212
100208
100205
100212
100223
100221
100219
100226
100231
100228
100228
100226
100224
100219
100210
100195
100171
100135
100083
100014
99928.7
99836.8
99755.1
99712.3
99778
100023
100591
99973.4
99984.6
99972.7
99984.3
100008
100008
100007
100002
100005
100011
100012
100018
99996.3
100003
100036
100040
100037
100033
100030
100030
100029
100037
100055
100056
100053
100052
100057
100066
100072
100073
100073
100075
100069
100077
100093
100079
100081
100094
100100
100085
100098
100139
100142
100137
100134
100131
100131
100131
100135
100146
100151
100153
100158
100161
100163
100162
100163
100169
100175
100174
100176
100180
100180
100176
100188
100196
100195
100201
100191
100195
100204
100203
100207
100210
100210
100202
100210
100226
100221
100218
100229
100232
100228
100228
100226
100223
100218
100208
100192
100167
100131
100080
100015
99939.6
99866.9
99817.6
99827.9
99975.4
100308
100877
99977.4
99983.9
99979.2
99988.6
100002
100006
100008
100001
100006
100010
100012
100019
99997
100006
100035
100039
100037
100032
100029
100030
100025
100033
100059
100059
100053
100054
100056
100065
100074
100074
100072
100076
100074
100080
100089
100075
100078
100092
100103
100087
100096
100140
100142
100139
100134
100131
100131
100126
100132
100146
100152
100157
100160
100161
100162
100159
100162
100170
100176
100174
100175
100180
100179
100178
100188
100195
100196
100200
100193
100195
100203
100206
100206
100211
100212
100200
100208
100229
100221
100219
100231
100232
100229
100228
100226
100223
100217
100206
100190
100164
100127
100077
100016
99948.6
99891.1
99867.8
99921.9
100133
100520
101077
99976.9
99983.5
99983.2
99992.3
99999.2
100004
100007
100003
100007
100008
100011
100017
100005
100010
100030
100037
100033
100031
100027
100030
100020
100029
100063
100060
100053
100056
100053
100064
100079
100076
100072
100074
100078
100081
100084
100075
100075
100091
100105
100094
100101
100134
100142
100139
100133
100132
100131
100124
100129
100142
100153
100161
100161
100161
100163
100157
100159
100171
100178
100173
100174
100180
100179
100181
100191
100194
100195
100199
100195
100196
100203
100207
100206
100211
100211
100199
100209
100229
100220
100221
100232
100231
100229
100228
100226
100223
100216
100205
100188
100161
100124
100075
100016
99954.1
99906.7
99901.2
99986.1
100240
100658
101203
99968.9
99982.4
99984.9
99995.4
99998.8
100003
100006
100005
100008
100006
100009
100014
100011
100015
100026
100032
100032
100032
100026
100031
100017
100026
100066
100060
100052
100058
100049
100063
100084
100077
100071
100076
100081
100080
100080
100076
100077
100091
100103
100097
100106
100130
100140
100137
100134
100134
100130
100124
100128
100135
100151
100166
100164
100162
100163
100158
100157
100171
100178
100168
100172
100183
100181
100183
100192
100193
100195
100199
100195
100199
100203
100207
100208
100210
100210
100203
100210
100224
100221
100223
100231
100231
100229
100228
100226
100222
100216
100204
100187
100160
100122
100073
100014
99955.2
99912.4
99915.3
100016
100291
100723
101264
99971.4
99982.6
99986.1
99998
100000
100003
100006
100005
100006
100005
100011
100015
100014
100017
100024
100029
100031
100032
100027
100031
100019
100024
100062
100057
100050
100061
100052
100063
100084
100078
100073
100077
100080
100079
100078
100075
100081
100092
100100
100099
100110
100129
100138
100137
100134
100134
100130
100125
100129
100128
100149
100168
100167
100164
100162
100158
100157
100171
100179
100162
100170
100188
100182
100187
100191
100191
100195
100196
100197
100202
100204
100206
100205
100209
100211
100208
100210
100219
100223
100225
100230
100230
100229
100228
100226
100222
100216
100204
100187
100160
100121
100072
100013
99952.7
99909
99910.1
100008
100282
100714
101254
99982.5
99985.9
99989
99998.5
100001
100004
100005
100005
100006
100006
100011
100013
100015
100019
100022
100028
100031
100032
100027
100030
100026
100025
100055
100052
100046
100065
100059
100064
100080
100076
100074
100079
100080
100080
100075
100073
100084
100092
100098
100104
100113
100128
100137
100135
100133
100134
100129
100129
100126
100124
100149
100166
100170
100164
100160
100162
100159
100166
100178
100164
100169
100186
100187
100190
100189
100190
100194
100195
100197
100205
100205
100206
100204
100207
100214
100209
100209
100220
100222
100224
100230
100230
100229
100228
100226
100223
100216
100205
100188
100161
100123
100072
100011
99946.3
99896.1
99885.5
99965.3
100216
100631
101176
99992.8
99991.2
99992.8
99998.6
100001
100005
100005
100005
100007
100009
100009
100012
100017
100021
100022
100026
100031
100031
100026
100029
100031
100028
100049
100050
100042
100062
100068
100065
100076
100075
100075
100080
100080
100081
100070
100070
100087
100090
100096
100112
100117
100126
100134
100134
100136
100134
100131
100133
100119
100126
100151
100161
100170
100163
100164
100163
100159
100163
100177
100168
100170
100184
100188
100194
100187
100188
100192
100192
100198
100208
100207
100205
100204
100207
100214
100208
100211
100222
100220
100223
100230
100230
100229
100228
100227
100223
100217
100207
100190
100163
100125
100073
100008
99935.6
99873
99841.9
99888.1
100093
100477
101035
100009
99996.6
99995.5
99999.9
100001
100005
100006
100005
100007
100011
100008
100011
100018
100020
100023
100026
100028
100032
100030
100028
100031
100030
100045
100052
100041
100059
100071
100067
100073
100073
100077
100078
100080
100083
100069
100066
100091
100087
100091
100121
100121
100125
100132
100132
100134
100133
100132
100134
100120
100129
100149
100158
100167
100164
100167
100160
100158
100165
100175
100167
100171
100185
100186
100194
100188
100187
100190
100188
100199
100212
100207
100204
100206
100207
100212
100210
100213
100220
100220
100223
100229
100231
100228
100228
100227
100224
100219
100209
100192
100166
100127
100074
100004
99921.6
99841.5
99781.8
99781.8
99921.1
100248
100820
100016
99999.6
99997.6
100001
99999
100004
100008
100004
100006
100012
100007
100011
100020
100019
100023
100026
100026
100031
100033
100029
100031
100028
100042
100055
100046
100058
100067
100069
100072
100072
100079
100076
100079
100083
100073
100064
100089
100089
100089
100124
100124
100123
100129
100130
100134
100133
100133
100134
100127
100133
100144
100154
100166
100166
100165
100157
100160
100168
100173
100168
100173
100184
100186
100191
100189
100188
100191
100186
100199
100215
100204
100205
100209
100208
100208
100211
100217
100217
100220
100223
100227
100231
100228
100228
100227
100225
100220
100211
100195
100170
100131
100075
100000
99906.3
99804.6
99710.4
99655.6
99711.1
99948.3
100516
100009
100000
99999.2
100002
99998.4
100004
100010
100003
100007
100012
100008
100011
100020
100020
100022
100026
100025
100030
100033
100029
100033
100027
100040
100057
100050
100059
100065
100069
100070
100072
100079
100076
100079
100081
100076
100069
100084
100092
100095
100119
100124
100124
100124
100129
100135
100133
100133
100135
100132
100136
100144
100152
100163
100165
100164
100157
100161
100170
100171
100171
100174
100182
100186
100189
100188
100189
100191
100189
100198
100211
100206
100205
100209
100208
100206
100211
100218
100215
100220
100224
100226
100229
100228
100228
100227
100225
100221
100212
100198
100173
100135
100078
99997.8
99892.2
99767.3
99635.5
99522.9
99484.3
99591.7
100111
100001
99999.8
100000
100001
99999.5
100004
100008
100004
100007
100011
100009
100012
100018
100020
100023
100025
100026
100029
100032
100030
100034
100031
100040
100054
100052
100058
100064
100068
100069
100073
100077
100076
100078
100079
100077
100075
100084
100092
100099
100114
100121
100124
100121
100128
100137
100132
100133
100135
100134
100138
100145
100151
100159
100163
100163
100159
100163
100169
100171
100172
100175
100181
100185
100187
100188
100190
100191
100192
100198
100207
100205
100206
100208
100208
100207
100212
100217
100216
100220
100223
100225
100227
100227
100227
100227
100225
100221
100214
100200
100177
100140
100082
99997.9
99882.1
99735.3
99567.1
99400.9
99271.9
99213.3
99588.5
99998.5
99999.5
100000
100001
100001
100004
100007
100005
100008
100010
100010
100013
100016
100020
100023
100024
100026
100029
100031
100031
100033
100034
100041
100051
100053
100058
100063
100067
100069
100073
100076
100076
100078
100079
100078
100079
100085
100093
100101
100112
100119
100123
100121
100129
100135
100132
100133
100135
100135
100139
100145
100151
100158
100161
100162
100161
100164
100168
100171
100173
100176
100180
100185
100186
100188
100190
100191
100194
100199
100205
100205
100206
100208
100208
100209
100212
100216
100217
100220
100222
100224
100226
100226
100226
100226
100224
100221
100215
100202
100181
100144
100087
100001
99878
99714
99515.9
99307.6
99109.5
98873.2
98925.6
99997
99999.1
100000
100001
100002
100004
100006
100006
100008
100010
100011
100014
100016
100020
100023
100024
100026
100029
100030
100032
100034
100036
100042
100050
100054
100058
100063
100067
100069
100073
100075
100076
100078
100078
100079
100081
100086
100093
100101
100111
100118
100122
100123
100129
100134
100132
100133
100135
100136
100140
100146
100151
100157
100160
100162
100162
100164
100168
100171
100173
100176
100180
100184
100186
100188
100190
100192
100194
100199
100204
100205
100206
100208
100208
100210
100212
100215
100217
100219
100221
100223
100224
100224
100224
100224
100223
100220
100214
100203
100183
100149
100093
100006
99879.9
99705.5
99488.1
99254.3
99021.1
98644.1
98049.4
99996.3
99998.8
100000
100001
100002
100004
100006
100006
100008
100010
100011
100014
100016
100020
100023
100024
100026
100029
100030
100032
100034
100037
100042
100049
100053
100058
100063
100067
100070
100072
100075
100076
100078
100078
100079
100081
100086
100093
100101
100110
100117
100122
100123
100128
100133
100133
100133
100135
100137
100140
100146
100151
100156
100160
100161
100162
100165
100168
100171
100173
100176
100180
100184
100186
100188
100190
100192
100195
100199
100203
100205
100206
100208
100208
100210
100212
100214
100216
100218
100220
100222
100223
100223
100223
100222
100221
100219
100214
100204
100185
100152
100098
100013
99886.4
99708.2
99483.6
99243.6
98989.7
98544.7
96894.1
100592
101824
102341
102634
102833
102982
103100
103195
103273
103338
103392
103438
103475
103506
103532
103552
103567
103577
103584
103586
100547
101536
102140
102519
102771
102952
103089
103197
103283
103354
103412
103460
103500
103533
103559
103580
103595
103606
103613
103614
100820
101559
102078
102455
102726
102925
103076
103194
103288
103364
103426
103476
103518
103552
103579
103601
103617
103628
103635
103636
101081
101676
102114
102456
102718
102920
103076
103199
103297
103377
103441
103494
103537
103572
103600
103622
103639
103650
103657
103658
101302
101801
102181
102488
102734
102930
103086
103210
103311
103392
103458
103512
103556
103592
103621
103643
103659
103671
103677
103679
101484
101914
102253
102533
102763
102950
103102
103226
103326
103408
103475
103530
103574
103610
103639
103662
103679
103690
103696
103698
101628
102009
102318
102578
102795
102974
103122
103243
103343
103424
103491
103546
103591
103627
103656
103678
103695
103707
103713
103714
101734
102082
102372
102617
102825
102998
103141
103260
103358
103439
103505
103560
103605
103641
103670
103692
103709
103720
103726
103727
101806
102135
102412
102649
102849
103018
103158
103275
103372
103451
103517
103571
103615
103651
103680
103702
103719
103730
103736
103737
101845
102164
102436
102668
102865
103030
103168
103284
103379
103458
103523
103577
103621
103656
103685
103707
103723
103735
103741
103741
101837
102156
102428
102661
102858
103024
103163
103278
103374
103453
103519
103573
103617
103653
103681
103704
103720
103731
103737
103738
101784
102114
102392
102630
102832
103001
103143
103261
103359
103439
103506
103561
103606
103642
103671
103694
103710
103722
103728
103729
101701
102052
102343
102591
102800
102975
103120
103241
103340
103422
103490
103545
103591
103627
103657
103680
103697
103708
103715
103716
101583
101969
102280
102543
102763
102945
103095
103218
103320
103403
103471
103527
103573
103610
103639
103662
103680
103691
103698
103699
101428
101864
102206
102490
102724
102915
103070
103196
103298
103382
103451
103507
103553
103590
103619
103642
103660
103672
103678
103679
101235
101740
102125
102438
102689
102888
103048
103175
103278
103362
103430
103486
103531
103568
103597
103620
103638
103649
103656
103658
101003
101606
102050
102398
102666
102873
103033
103160
103261
103343
103410
103464
103509
103545
103574
103597
103614
103626
103633
103634
100730
101479
102007
102392
102670
102874
103029
103151
103248
103327
103391
103443
103487
103522
103550
103572
103589
103601
103608
103610
100445
101450
102066
102454
102713
102899
103040
103152
103241
103315
103375
103425
103466
103500
103528
103549
103565
103577
103584
103585
100482
101738
102266
102567
102773
102927
103048
103147
103228
103296
103352
103399
103439
103471
103497
103518
103534
103545
103552
103554
103469
103466
103466
103466
103466
103466
103466
103467
103467
103467
103468
103468
103467
103467
103467
103467
103466
103466
103466
103469
103465
103463
103463
103464
103464
103464
103464
103464
103464
103464
103464
103464
103464
103464
103464
103464
103463
103463
103463
103465
103462
103460
103460
103460
103460
103460
103460
103460
103461
103461
103461
103461
103461
103461
103461
103460
103460
103460
103460
103462
103460
103458
103458
103457
103456
103456
103456
103456
103456
103456
103456
103457
103457
103458
103458
103458
103458
103459
103460
103461
103459
103458
103458
103458
103458
103458
103458
103457
103457
103456
103456
103456
103457
103458
103459
103460
103460
103460
103460
103460
103458
103458
103458
103459
103459
103459
103459
103459
103459
103458
103459
103459
103460
103460
103460
103461
103461
103460
103459
103459
103457
103456
103456
103456
103456
103455
103455
103456
103456
103457
103457
103457
103456
103456
103457
103457
103458
103458
103457
103457
103456
103455
103455
103455
103455
103455
103454
103454
103455
103456
103455
103454
103454
103453
103454
103455
103455
103455
103455
103455
103455
103455
103456
103456
103456
103457
103458
103458
103457
103456
103456
103455
103454
103454
103453
103453
103453
103453
103453
103453
103454
103454
103454
103455
103455
103456
103457
103457
103457
103456
103456
103455
103454
103453
103452
103451
103450
103451
103452
103452
103453
103453
103453
103453
103453
103452
103452
103451
103452
103454
103454
103453
103453
103453
103452
103452
103452
103452
103452
103452
103452
103452
103452
103452
103452
103451
103451
103449
103449
103450
103452
103451
103451
103451
103452
103451
103451
103451
103451
103451
103450
103450
103451
103451
103451
103451
103450
103449
103449
103448
103449
103450
103450
103450
103450
103450
103450
103450
103450
103450
103448
103448
103447
103447
103446
103446
103446
103446
103447
103447
103447
103449
103450
103450
103449
103449
103449
103449
103449
103449
103446
103446
103446
103445
103445
103445
103446
103446
103447
103448
103449
103450
103450
103450
103450
103449
103448
103448
103448
103448
103446
103446
103446
103446
103446
103446
103446
103446
103446
103446
103448
103449
103448
103447
103446
103446
103446
103446
103446
103446
103445
103445
103445
103445
103446
103446
103446
103445
103444
103443
103442
103442
103441
103442
103443
103444
103444
103444
103444
103444
103444
103444
103445
103445
103446
103446
103446
103446
103446
103445
103443
103441
103440
103441
103442
103442
103442
103442
103443
103443
103442
103442
103442
103442
103443
103444
103445
103445
103447
103447
103446
103446
103445
103443
103442
103442
103442
103442
103442
103442
103440
103440
103440
103440
103440
103441
103442
103443
103445
103445
103445
103443
103442
103442
103442
103441
103441
103441
103440
103440
103438
103438
103439
103439
103439
103439
103440
103441
103442
103442
103441
103439
103439
103439
103439
103439
103439
103439
103439
103439
103435
103435
103435
103435
103436
103436
103436
103435
103432
103432
103433
103435
103436
103437
103437
103438
103438
103437
103437
103437
103432
103432
103432
103431
103431
103430
103428
103426
103425
103425
103429
103432
103434
103435
103436
103436
103436
103435
103435
103435
103430
103429
103429
103428
103427
103425
103423
103423
103425
103426
103427
103428
103430
103431
103432
103431
103431
103431
103431
103432
103428
103427
103427
103426
103425
103425
103425
103426
103426
103426
103425
103425
103426
103429
103428
103428
103428
103428
103429
103429
103427
103427
103426
103426
103426
103427
103427
103426
103426
103425
103426
103426
103426
103427
103428
103428
103427
103427
103426
103426
103426
103426
103426
103427
103427
103426
103427
103426
103425
103426
103426
103424
103424
103421
103420
103421
103422
103423
103424
103424
103426
103426
103426
103426
103427
103426
103426
103426
103426
103425
103424
103423
103421
103419
103417
103419
103421
103421
103422
103422
103424
103425
103426
103427
103428
103428
103427
103427
103425
103424
103424
103423
103423
103423
103423
103422
103421
103421
103421
103421
103421
103422
103423
103425
103426
103427
103427
103427
103427
103424
103423
103422
103423
103423
103423
103422
103420
103420
103419
103419
103416
103416
103415
103414
103413
103414
103418
103420
103420
103419
103419
103418
103418
103417
103416
103417
103417
103418
103418
103418
103413
103412
103411
103409
103407
103407
103407
103408
103409
103412
103414
103414
103414
103413
103413
103415
103415
103416
103416
103416
103411
103411
103411
103411
103411
103410
103409
103409
103411
103413
103413
103413
103414
103415
103415
103415
103415
103415
103414
103414
103409
103410
103410
103410
103410
103410
103412
103414
103416
103415
103415
103416
103415
103415
103414
103413
103413
103412
103412
103412
103408
103408
103408
103408
103408
103408
103409
103409
103410
103413
103416
103416
103414
103413
103413
103412
103410
103410
103409
103409
103406
103406
103406
103406
103406
103405
103405
103404
103404
103405
103407
103406
103407
103407
103406
103406
103406
103406
103406
103406
103404
103404
103404
103404
103404
103403
103402
103402
103401
103397
103398
103399
103400
103401
103401
103401
103403
103404
103404
103404
103403
103403
103403
103403
103402
103402
103403
103402
103401
103400
103398
103398
103398
103399
103400
103401
103402
103402
103401
103401
103401
103401
103401
103401
103401
103401
103401
103402
103401
103401
103400
103398
103398
103398
103399
103398
103397
103398
103399
103399
103399
103399
103399
103399
103399
103399
103399
103400
103399
103397
103398
103398
103397
103396
103396
103396
103396
103397
103397
103397
103398
103398
103398
103398
103397
103397
103396
103394
103394
103394
103395
103395
103395
103395
103395
103395
103396
103396
103396
103396
103397
103397
103396
103396
103395
103395
103394
103393
103391
103393
103394
103394
103395
103395
103395
103395
103395
103395
103395
103395
103396
103396
103396
103396
103396
103396
103395
103396
103395
103395
103394
103394
103394
103394
103395
103394
103394
103394
103394
103394
103395
103395
103395
103395
103396
103397
103396
103395
103395
103394
103393
103393
103393
103393
103393
103393
103393
103393
103393
103393
103393
103393
103394
103394
103395
103396
103396
103394
103394
103393
103392
103392
103392
103392
103392
103393
103393
103393
103392
103392
103390
103390
103390
103391
103393
103394
103392
103391
103391
103390
103391
103391
103391
103392
103392
103392
103391
103391
103391
103391
103387
103387
103386
103385
103383
103382
103382
103384
103386
103387
103388
103388
103389
103389
103389
103389
103389
103389
103389
103389
103384
103384
103383
103382
103380
103378
103379
103381
103383
103385
103386
103387
103387
103387
103387
103387
103387
103387
103387
103387
103383
103383
103382
103382
103382
103383
103383
103384
103384
103385
103386
103386
103387
103387
103386
103386
103386
103386
103386
103386
103383
103383
103383
103383
103383
103384
103384
103385
103385
103385
103385
103384
103384
103384
103385
103385
103386
103385
103385
103385
103382
103383
103383
103384
103384
103384
103384
103384
103382
103383
103383
103383
103383
103384
103384
103383
103383
103383
103383
103383
103381
103381
103381
103382
103382
103382
103381
103381
103381
103380
103380
103381
103382
103383
103383
103383
103382
103382
103381
103381
103379
103379
103379
103379
103379
103379
103378
103379
103378
103378
103378
103378
103378
103377
103379
103381
103381
103380
103379
103379
103378
103378
103378
103378
103377
103378
103378
103377
103376
103376
103376
103376
103375
103373
103372
103372
103373
103375
103375
103376
103377
103377
103376
103376
103376
103375
103375
103375
103376
103376
103375
103374
103374
103373
103372
103371
103373
103374
103374
103374
103376
103376
103376
103376
103375
103375
103373
103374
103375
103375
103375
103375
103375
103376
103376
103376
103375
103374
103374
103374
103375
103375
103375
103376
103377
103376
103376
103375
103374
103374
103375
103376
103376
103375
103375
103374
103373
103373
103373
103373
103373
103373
103373
103373
103373
103374
103375
103375
103375
103374
103374
103373
103372
103371
103371
103371
103371
103371
103371
103371
103371
103371
103372
103372
103372
103373
103374
103375
103375
103375
103374
103373
103371
103370
103369
103369
103369
103369
103369
103369
103369
103369
103370
103371
103372
103370
103369
103368
103368
103370
103372
103370
103369
103369
103369
103368
103368
103368
103368
103368
103366
103366
103366
103365
103364
103362
103362
103361
103362
103362
103361
103360
103363
103364
103365
103365
103365
103366
103366
103366
103364
103363
103362
103361
103360
103361
103362
103363
103362
103360
103359
103360
103362
103362
103362
103363
103364
103365
103365
103365
103363
103362
103362
103362
103362
103363
103362
103363
103363
103363
103364
103364
103364
103364
103365
103365
103365
103364
103364
103364
103362
103362
103362
103362
103362
103362
103362
103362
103363
103364
103363
103363
103363
103364
103365
103365
103365
103364
103363
103363
103361
103361
103362
103362
103363
103362
103362
103361
103360
103361
103361
103361
103361
103361
103362
103362
103361
103361
103361
103361
103360
103360
103360
103361
103361
103362
103362
103360
103360
103360
103360
103359
103358
103357
103355
103355
103356
103357
103358
103358
103358
103358
103359
103359
103361
103363
103363
103362
103361
103361
103359
103358
103358
103357
103355
103355
103356
103356
103357
103357
103355
103356
103356
103357
103359
103361
103362
103361
103360
103359
103358
103358
103358
103358
103358
103357
103357
103356
103356
103355
103352
103352
103352
103351
103351
103352
103355
103358
103359
103359
103359
103360
103360
103359
103359
103357
103355
103354
103354
103353
103348
103348
103348
103347
103346
103345
103346
103349
103353
103355
103356
103357
103358
103358
103355
103353
103352
103351
103351
103350
103345
103345
103345
103345
103345
103343
103340
103339
103342
103344
103345
103346
103346
103344
103344
103345
103346
103346
103347
103347
103343
103343
103343
103342
103342
103341
103342
103342
103341
103341
103341
103338
103336
103335
103338
103341
103342
103343
103343
103343
103340
103340
103340
103340
103341
103343
103345
103346
103347
103343
103340
103338
103337
103338
103339
103340
103340
103341
103341
103341
103338
103338
103338
103338
103339
103339
103340
103339
103336
103335
103335
103336
103338
103338
103338
103339
103339
103339
103339
103339
103335
103335
103335
103335
103335
103334
103332
103330
103328
103331
103334
103336
103336
103336
103336
103336
103336
103336
103336
103336
103333
103333
103332
103332
103332
103330
103328
103327
103329
103332
103334
103334
103334
103334
103334
103334
103334
103334
103334
103334
103331
103331
103331
103330
103330
103328
103329
103329
103329
103328
103328
103329
103331
103331
103332
103332
103333
103333
103333
103333
103330
103330
103330
103330
103330
103330
103330
103331
103331
103329
103328
103329
103331
103332
103332
103332
103332
103331
103332
103332
103329
103329
103329
103329
103330
103330
103330
103330
103330
103331
103332
103332
103332
103333
103333
103332
103331
103331
103330
103330
103328
103328
103328
103328
103328
103328
103328
103327
103327
103327
103328
103329
103329
103328
103328
103328
103328
103328
103329
103329
103326
103326
103326
103326
103326
103325
103325
103325
103326
103325
103325
103325
103324
103324
103324
103325
103326
103327
103327
103328
103325
103325
103326
103326
103325
103325
103325
103326
103326
103326
103325
103324
103324
103325
103326
103326
103327
103327
103327
103328
103324
103324
103324
103324
103324
103325
103326
103326
103327
103326
103326
103326
103327
103327
103328
103328
103328
103328
103328
103328
103322
103322
103323
103324
103324
103325
103325
103325
103326
103326
103327
103327
103327
103328
103328
103329
103329
103328
103328
103328
103319
103320
103321
103322
103323
103323
103323
103324
103325
103326
103326
103326
103326
103326
103326
103326
103326
103326
103327
103327
103315
103315
103315
103314
103316
103317
103318
103319
103320
103322
103323
103324
103325
103325
103325
103325
103325
103326
103327
103327
103311
103311
103311
103310
103310
103312
103314
103315
103316
103317
103320
103323
103324
103325
103327
103328
103328
103328
103328
103328
103308