/*--------------------------------*- C++ -*----------------------------------*\
| =========                 |                                                 |
| \\      /  F ield         | OpenFOAM: The Open Source CFD Toolbox           |
|  \\    /   O peration     | Version:  2.1.0                                 |
|   \\  /    A nd           | Web:      www.OpenFOAM.org                      |
|    \\/     M anipulation  |                                                 |
\*---------------------------------------------------------------------------*/
FoamFile
{
    version     2.0;
    format      ascii;
    class       surfaceScalarField;
    location    "0.01";
    object      phi;
}
// * * * * * * * * * * * * * * * * * * * * * * * * * * * * * * * * * * * * * //

dimensions      [0 3 -1 0 0 0 0];

internalField   nonuniform List<scalar> 
12460
(
-3.75275e-05
4.47451e-08
-3.75539e-05
2.64236e-08
-3.75725e-05
1.85773e-08
-3.75815e-05
9.04711e-09
-3.7584e-05
2.49804e-09
-3.75905e-05
6.45628e-09
-3.75893e-05
-1.17281e-09
-3.75825e-05
-6.81763e-09
-3.75779e-05
-4.64043e-09
-3.75725e-05
-5.36904e-09
-3.75743e-05
1.79916e-09
-3.75744e-05
1.3871e-10
-3.75766e-05
2.20082e-09
-3.7585e-05
8.33241e-09
-3.75854e-05
4.42739e-10
-3.75828e-05
-2.62462e-09
-3.7585e-05
2.17136e-09
-3.75856e-05
6.02637e-10
-3.75845e-05
-1.06172e-09
-3.75868e-05
2.26602e-09
-3.75857e-05
-1.07146e-09
-3.75767e-05
-8.95817e-09
-3.75731e-05
-3.65624e-09
-3.75719e-05
-1.17232e-09
-3.75707e-05
-1.19866e-09
-3.75719e-05
1.20854e-09
-3.75727e-05
7.38434e-10
-3.75748e-05
2.14512e-09
-3.75799e-05
5.12752e-09
-3.7581e-05
1.0958e-09
-3.75778e-05
-3.21123e-09
-3.75774e-05
-4.60387e-10
-3.75802e-05
2.86001e-09
-3.75832e-05
3.02719e-09
-3.7579e-05
-4.2482e-09
-3.75763e-05
-2.73528e-09
-3.75766e-05
3.43885e-10
-3.7577e-05
3.95704e-10
-3.75779e-05
9.44651e-10
-3.75776e-05
-3.18563e-10
-3.75786e-05
9.35639e-10
-3.75757e-05
-2.83253e-09
-3.75737e-05
-2.06634e-09
-3.75746e-05
9.06497e-10
-3.7577e-05
2.48314e-09
-3.75781e-05
1.08918e-09
-3.7577e-05
-1.10182e-09
-3.75776e-05
5.4737e-10
-3.75804e-05
2.86493e-09
-3.75842e-05
3.78167e-09
-3.75826e-05
-1.59338e-09
-3.75842e-05
1.60383e-09
-3.75853e-05
1.09815e-09
-3.75807e-05
-4.64043e-09
-3.75774e-05
-3.26739e-09
-3.75802e-05
2.77587e-09
-3.75813e-05
1.05841e-09
-3.75784e-05
-2.84946e-09
-3.7577e-05
-1.37229e-09
-3.75773e-05
2.1132e-10
-3.75751e-05
-2.15538e-09
-3.75725e-05
-2.57955e-09
-3.75757e-05
3.21256e-09
-3.75782e-05
2.43806e-09
-3.75779e-05
-2.34685e-10
-3.75764e-05
-1.50768e-09
-3.75774e-05
9.58264e-10
-3.75755e-05
-1.84845e-09
-3.75749e-05
-6.36598e-10
-3.75782e-05
3.33e-09
-3.75845e-05
6.22074e-09
-3.75975e-05
1.3049e-08
-3.76134e-05
1.58656e-08
-3.76225e-05
9.14619e-09
-3.76307e-05
8.17326e-09
-3.76418e-05
1.1083e-08
-3.76473e-05
5.54195e-09
-3.76407e-05
-6.61135e-09
-3.76073e-05
-3.34097e-08
-3.75338e-05
-7.35315e-08
-3.7395e-05
-1.38714e-07
-3.71727e-05
-2.22337e-07
-3.68424e-05
-3.30265e-07
-3.63728e-05
-4.69636e-07
-3.57292e-05
-6.43557e-07
-3.4872e-05
-8.57203e-07
-3.37576e-05
-1.11449e-06
-3.23398e-05
-1.41771e-06
-3.0573e-05
-1.76686e-06
-2.84144e-05
-2.15862e-06
-2.58287e-05
-2.58567e-06
-2.27938e-05
-3.03489e-06
-1.93125e-05
-3.48129e-06
-1.54395e-05
-3.87301e-06
-1.13475e-05
-4.09198e-06
-7.51583e-06
-3.83169e-06
-5.06744e-06
-2.44839e-06
-5.37122e-06
3.03781e-07
-9.65855e-06
4.28733e-06
1.41981e-05
-2.38567e-05
-3.84736e-05
9.00134e-08
-3.84981e-05
5.08323e-08
-3.85169e-05
3.74022e-08
-3.85252e-05
1.73227e-08
-3.85246e-05
1.97914e-09
-3.85298e-05
1.16488e-08
-3.85292e-05
-1.78132e-09
-3.8523e-05
-1.30293e-08
-3.85184e-05
-9.21344e-09
-3.85129e-05
-1.08619e-08
-3.85156e-05
4.44047e-09
-3.85155e-05
9.47693e-11
-3.85172e-05
3.87144e-09
-3.85271e-05
1.82508e-08
-3.85276e-05
9.20797e-10
-3.85237e-05
-6.49097e-09
-3.8524e-05
2.38652e-09
-3.85249e-05
1.49943e-09
-3.85245e-05
-1.41008e-09
-3.85262e-05
3.99486e-09
-3.85253e-05
-1.97904e-09
-3.85168e-05
-1.74695e-08
-3.85141e-05
-6.3294e-09
-3.85129e-05
-2.37977e-09
-3.85121e-05
-1.98362e-09
-3.85136e-05
2.66178e-09
-3.85142e-05
1.35376e-09
-3.85159e-05
3.83478e-09
-3.85212e-05
1.04218e-08
-3.85232e-05
3.07492e-09
-3.85197e-05
-6.7245e-09
-3.85184e-05
-1.72701e-09
-3.8522e-05
6.41962e-09
-3.85246e-05
5.67661e-09
-3.85193e-05
-9.60235e-09
-3.85165e-05
-5.47315e-09
-3.85166e-05
4.03556e-10
-3.85169e-05
6.92887e-10
-3.85189e-05
2.95251e-09
-3.85193e-05
1.273e-10
-3.85203e-05
1.92139e-09
-3.85165e-05
-6.6107e-09
-3.85124e-05
-6.20518e-09
-3.85129e-05
1.38737e-09
-3.85155e-05
5.12099e-09
-3.8517e-05
2.53762e-09
-3.85164e-05
-1.64062e-09
-3.85173e-05
1.43075e-09
-3.85204e-05
5.93505e-09
-3.85236e-05
7.048e-09
-3.85216e-05
-3.63498e-09
-3.85248e-05
4.8111e-09
-3.8526e-05
2.24676e-09
-3.85203e-05
-1.03149e-08
-3.85171e-05
-6.40862e-09
-3.85185e-05
4.17134e-09
-3.85197e-05
2.18244e-09
-3.85171e-05
-5.41798e-09
-3.85153e-05
-3.12335e-09
-3.85169e-05
1.78969e-09
-3.85154e-05
-3.67078e-09
-3.85117e-05
-6.26089e-09
-3.8515e-05
6.53079e-09
-3.85185e-05
5.84949e-09
-3.85193e-05
6.26729e-10
-3.85188e-05
-2.06119e-09
-3.852e-05
2.16964e-09
-3.85183e-05
-3.47438e-09
-3.85185e-05
-4.82213e-10
-3.85225e-05
7.31485e-09
-3.8529e-05
1.26932e-08
-3.8545e-05
2.90907e-08
-3.85663e-05
3.71559e-08
-3.85806e-05
2.34279e-08
-3.85966e-05
2.41703e-08
-3.86191e-05
3.35925e-08
-3.86407e-05
2.71737e-08
-3.86535e-05
6.1584e-09
-3.86528e-05
-3.41095e-08
-3.86264e-05
-9.9936e-08
-3.85574e-05
-2.07731e-07
-3.84331e-05
-3.46598e-07
-3.82348e-05
-5.28564e-07
-3.79375e-05
-7.66953e-07
-3.75122e-05
-1.06886e-06
-3.69264e-05
-1.44297e-06
-3.61454e-05
-1.89553e-06
-3.51342e-05
-2.42888e-06
-3.38611e-05
-3.03998e-06
-3.23015e-05
-3.71818e-06
-3.04436e-05
-4.44356e-06
-2.82951e-05
-5.1834e-06
-2.58967e-05
-5.87971e-06
-2.33467e-05
-6.42299e-06
-2.08464e-05
-6.59235e-06
-1.87671e-05
-5.91097e-06
-1.76322e-05
-3.58328e-06
-1.83266e-05
9.98215e-07
-2.20696e-05
8.03027e-06
2.40009e-05
-3.18723e-05
-3.85755e-05
1.354e-07
-3.85949e-05
7.02106e-08
-3.86146e-05
5.71785e-08
-3.86229e-05
2.55843e-08
-3.86164e-05
-4.46976e-09
-3.86173e-05
1.24776e-08
-3.86191e-05
6.60857e-11
-3.86184e-05
-1.3777e-08
-3.8613e-05
-1.46337e-08
-3.86065e-05
-1.72626e-08
-3.8609e-05
6.84648e-09
-3.86088e-05
-2.26294e-11
-3.86117e-05
6.68598e-09
-3.86196e-05
2.62173e-08
-3.86204e-05
1.72023e-09
-3.86167e-05
-1.01697e-08
-3.86122e-05
-2.20366e-09
-3.86137e-05
3.04262e-09
-3.86142e-05
-9.51359e-10
-3.86121e-05
1.94181e-09
-3.86132e-05
-8.44539e-10
-3.86106e-05
-2.01424e-08
-3.86057e-05
-1.11624e-08
-3.86041e-05
-3.96097e-09
-3.8605e-05
-1.12064e-09
-3.86067e-05
4.35103e-09
-3.86076e-05
2.27061e-09
-3.86069e-05
3.09479e-09
-3.86139e-05
1.74716e-08
-3.86191e-05
8.23655e-09
-3.86135e-05
-1.22721e-08
-3.86113e-05
-3.98223e-09
-3.86158e-05
1.0919e-08
-3.86191e-05
8.95055e-09
-3.86127e-05
-1.5952e-08
-3.86086e-05
-9.59991e-09
-3.86088e-05
6.22882e-10
-3.86087e-05
6.02973e-10
-3.86136e-05
7.86281e-09
-3.86169e-05
3.36564e-09
-3.86171e-05
2.1546e-09
-3.86123e-05
-1.13738e-08
-3.86038e-05
-1.47165e-08
-3.86024e-05
-2.30275e-11
-3.86072e-05
9.8816e-09
-3.86093e-05
4.63463e-09
-3.86087e-05
-2.2309e-09
-3.86105e-05
3.26376e-09
-3.8612e-05
7.41331e-09
-3.86143e-05
9.36014e-09
-3.86122e-05
-5.71469e-09
-3.86178e-05
1.04401e-08
-3.86182e-05
2.64764e-09
-3.86111e-05
-1.74342e-08
-3.86077e-05
-9.87866e-09
-3.86058e-05
2.27094e-09
-3.86077e-05
4.11228e-09
-3.86048e-05
-8.31304e-09
-3.86032e-05
-4.74102e-09
-3.86076e-05
6.23128e-09
-3.86076e-05
-3.65684e-09
-3.86023e-05
-1.16067e-08
-3.86028e-05
7.00437e-09
-3.86083e-05
1.13508e-08
-3.86116e-05
4.00788e-09
-3.86119e-05
-1.83457e-09
-3.86126e-05
2.93923e-09
-3.86114e-05
-4.6869e-09
-3.86136e-05
1.67896e-09
-3.86169e-05
1.06534e-08
-3.86206e-05
1.63541e-08
-3.86363e-05
4.47875e-08
-3.86529e-05
5.37725e-08
-3.86689e-05
3.94316e-08
-3.86893e-05
4.45818e-08
-3.87051e-05
4.94193e-08
-3.8721e-05
4.29829e-08
-3.87404e-05
2.56337e-08
-3.87537e-05
-2.08437e-08
-3.87543e-05
-9.93213e-08
-3.87388e-05
-2.23196e-07
-3.86988e-05
-3.86679e-07
-3.86254e-05
-6.01942e-07
-3.85055e-05
-8.86883e-07
-3.83204e-05
-1.25386e-06
-3.80492e-05
-1.71426e-06
-3.76682e-05
-2.27654e-06
-3.71543e-05
-2.94278e-06
-3.64886e-05
-3.70564e-06
-3.56616e-05
-4.54512e-06
-3.46793e-05
-5.4259e-06
-3.35692e-05
-6.29349e-06
-3.23916e-05
-7.0573e-06
-3.12524e-05
-7.56227e-06
-3.03164e-05
-7.52831e-06
-2.97977e-05
-6.42963e-06
-2.98709e-05
-3.51014e-06
-3.06818e-05
1.80915e-06
-3.31245e-05
1.0473e-05
2.76906e-05
-3.68142e-05
-3.89194e-05
1.92677e-07
-3.89301e-05
8.09598e-08
-3.89531e-05
8.01897e-08
-3.89605e-05
3.29844e-08
-3.89461e-05
-1.88874e-08
-3.89459e-05
1.23146e-08
-3.89492e-05
3.29839e-09
-3.89483e-05
-1.46957e-08
-3.89487e-05
-1.4143e-08
-3.89472e-05
-1.8789e-08
-3.89508e-05
1.03871e-08
-3.89484e-05
-2.37883e-09
-3.89472e-05
5.4885e-09
-3.89563e-05
3.52725e-08
-3.89549e-05
3.3044e-10
-3.89434e-05
-2.16129e-08
-3.89352e-05
-1.04267e-08
-3.89275e-05
-4.69915e-09
-3.89262e-05
-2.23909e-09
-3.89223e-05
-1.96424e-09
-3.89232e-05
6.63878e-11
-3.89316e-05
-1.17138e-08
-3.89282e-05
-1.45982e-08
-3.89306e-05
-1.55801e-09
-3.89356e-05
3.95575e-09
-3.89366e-05
5.31556e-09
-3.89372e-05
2.90477e-09
-3.89343e-05
1.0388e-10
-3.89394e-05
2.25665e-08
-3.89488e-05
1.7653e-08
-3.89525e-05
-8.55643e-09
-3.89496e-05
-6.88786e-09
-3.89559e-05
1.72748e-08
-3.89551e-05
8.13861e-09
-3.89422e-05
-2.89033e-08
-3.89406e-05
-1.11731e-08
-3.89378e-05
-2.18958e-09
-3.89367e-05
-4.92827e-10
-3.89419e-05
1.3041e-08
-3.89544e-05
1.58639e-08
-3.89635e-05
1.13212e-08
-3.89551e-05
-1.97727e-08
-3.89348e-05
-3.50434e-08
-3.89271e-05
-7.71198e-09
-3.89268e-05
9.53622e-09
-3.89279e-05
5.74063e-09
-3.89311e-05
9.67493e-10
-3.89348e-05
7.02108e-09
-3.89357e-05
8.28162e-09
-3.89312e-05
4.81451e-09
-3.89312e-05
-5.71516e-09
-3.89366e-05
1.5897e-08
-3.8939e-05
5.00777e-09
-3.89351e-05
-2.12821e-08
-3.89349e-05
-1.00957e-08
-3.89308e-05
-1.85092e-09
-3.8926e-05
-6.43764e-10
-3.89239e-05
-1.04293e-08
-3.89226e-05
-6.02108e-09
-3.89295e-05
1.30565e-08
-3.89334e-05
3.14501e-10
-3.8926e-05
-1.90473e-08
-3.89253e-05
6.30027e-09
-3.89314e-05
1.74642e-08
-3.8938e-05
1.06474e-08
-3.89409e-05
1.01236e-09
-3.89407e-05
2.70877e-09
-3.89387e-05
-6.59683e-09
-3.89438e-05
6.74603e-09
-3.89454e-05
1.22649e-08
-3.89407e-05
1.16537e-08
-3.89437e-05
4.77437e-08
-3.89467e-05
5.68433e-08
-3.89571e-05
4.97667e-08
-3.89698e-05
5.73095e-08
-3.89685e-05
4.80623e-08
-3.8962e-05
3.64987e-08
-3.89621e-05
2.57822e-08
-3.89707e-05
-1.22983e-08
-3.89784e-05
-9.15639e-08
-3.89821e-05
-2.19508e-07
-3.89854e-05
-3.834e-07
-3.89897e-05
-5.97625e-07
-3.89924e-05
-8.84183e-07
-3.89859e-05
-1.26041e-06
-3.89606e-05
-1.73953e-06
-3.89059e-05
-2.33125e-06
-3.88115e-05
-3.0372e-06
-3.86705e-05
-3.84663e-06
-3.84838e-05
-4.7318e-06
-3.82647e-05
-5.64503e-06
-3.80422e-05
-6.51598e-06
-3.78658e-05
-7.23362e-06
-3.78049e-05
-7.62319e-06
-3.79376e-05
-7.39568e-06
-3.83108e-05
-6.05637e-06
-3.88435e-05
-2.97745e-06
-3.94716e-05
2.43726e-06
-4.04902e-05
1.14915e-05
2.71963e-05
-3.99959e-05
-3.92027e-05
2.2867e-07
-3.92058e-05
8.3992e-08
-3.91932e-05
6.75855e-08
-3.91838e-05
2.35821e-08
-3.91933e-05
-9.36275e-09
-3.92014e-05
2.04355e-08
-3.91955e-05
-2.62492e-09
-3.91926e-05
-1.76374e-08
-3.9203e-05
-3.66946e-09
-3.92138e-05
-8.0349e-09
-3.9202e-05
-1.34878e-09
-3.91917e-05
-1.26939e-08
-3.92101e-05
2.39049e-08
-3.92132e-05
3.83454e-08
-3.91984e-05
-1.44649e-08
-3.91885e-05
-3.15349e-08
-3.918e-05
-1.89114e-08
-3.91711e-05
-1.36448e-08
-3.91656e-05
-7.68407e-09
-3.91523e-05
-1.52848e-08
-3.91494e-05
-2.88382e-09
-3.91735e-05
1.24384e-08
-3.91781e-05
-9.96584e-09
-3.91821e-05
2.39944e-09
-3.91911e-05
1.29454e-08
-3.91952e-05
9.47177e-09
-3.91903e-05
-2.06891e-09
-3.91903e-05
1.23996e-10
-3.91912e-05
2.34693e-08
-3.92046e-05
3.10469e-08
-3.92213e-05
8.2011e-09
-3.92145e-05
-1.37245e-08
-3.92021e-05
4.82327e-09
-3.91867e-05
-7.17796e-09
-3.91909e-05
-2.47737e-08
-3.91986e-05
-3.40428e-09
-3.91895e-05
-1.13374e-08
-3.91878e-05
-2.21287e-09
-3.9186e-05
1.12484e-08
-3.92079e-05
3.78345e-08
-3.92263e-05
2.96574e-08
-3.92077e-05
-3.84028e-08
-3.91861e-05
-5.65862e-08
-3.91742e-05
-1.96309e-08
-3.91659e-05
1.19483e-09
-3.91634e-05
3.25343e-09
-3.91676e-05
5.24966e-09
-3.91785e-05
1.79074e-08
-3.91799e-05
9.67822e-09
-3.91636e-05
-1.14926e-08
-3.91738e-05
4.49169e-09
-3.91762e-05
1.82628e-08
-3.91731e-05
1.92712e-09
-3.91878e-05
-6.55273e-09
-3.91956e-05
-2.36825e-09
-3.91875e-05
-9.88161e-09
-3.91817e-05
-6.43483e-09
-3.9182e-05
-1.01425e-08
-3.918e-05
-8.02654e-09
-3.91719e-05
4.92507e-09
-3.91711e-05
-4.82542e-10
-3.91779e-05
-1.22604e-08
-3.91703e-05
-1.26999e-09
-3.91789e-05
2.60836e-08
-3.91919e-05
2.36431e-08
-3.91976e-05
6.72365e-09
-3.91935e-05
-1.42004e-09
-3.91928e-05
-7.30701e-09
-3.91989e-05
1.28255e-08
-3.91972e-05
1.06219e-08
-3.91966e-05
1.09679e-08
-3.91854e-05
3.65398e-08
-3.91706e-05
4.21065e-08
-3.91692e-05
4.83712e-08
-3.91721e-05
6.01635e-08
-3.91713e-05
4.72952e-08
-3.91625e-05
2.76949e-08
-3.91536e-05
1.68838e-08
-3.91572e-05
-8.68727e-09
-3.9165e-05
-8.37508e-08
-3.91798e-05
-2.04698e-07
-3.92113e-05
-3.51954e-07
-3.92625e-05
-5.46388e-07
-3.934e-05
-8.06673e-07
-3.9448e-05
-1.15241e-06
-3.95899e-05
-1.59762e-06
-3.97683e-05
-2.15287e-06
-3.99856e-05
-2.81993e-06
-4.02452e-05
-3.58705e-06
-4.05538e-05
-4.4232e-06
-4.09235e-05
-5.27528e-06
-4.13727e-05
-6.06681e-06
-4.19239e-05
-6.68243e-06
-4.25958e-05
-6.95129e-06
-4.33833e-05
-6.60817e-06
-4.4203e-05
-5.2367e-06
-4.48464e-05
-2.33406e-06
-4.51466e-05
2.73747e-06
-4.48495e-05
1.11945e-05
2.42239e-05
-4.18772e-05
-3.92885e-05
2.29521e-07
-3.92697e-05
6.5207e-08
-3.9214e-05
1.19302e-08
-3.92066e-05
1.61025e-08
-3.92428e-05
2.69158e-08
-3.92253e-05
2.92129e-09
-3.92148e-05
-1.31384e-08
-3.92273e-05
-5.14438e-09
-3.92393e-05
8.26798e-09
-3.92505e-05
3.2429e-09
-3.9218e-05
-3.38513e-08
-3.92224e-05
-8.3492e-09
-3.92573e-05
5.87908e-08
-3.9227e-05
8.12961e-09
-3.92231e-05
-1.84041e-08
-3.92364e-05
-1.82762e-08
-3.9231e-05
-2.42902e-08
-3.92313e-05
-1.33527e-08
-3.92135e-05
-2.54384e-08
-3.919e-05
-3.87675e-08
-3.91948e-05
1.90655e-09
-3.92182e-05
3.58147e-08
-3.92181e-05
-1.00604e-08
-3.92253e-05
9.60749e-09
-3.92406e-05
2.8196e-08
-3.9235e-05
3.91788e-09
-3.92239e-05
-1.323e-08
-3.92365e-05
1.28093e-08
-3.92403e-05
2.71986e-08
-3.924e-05
3.08033e-08
-3.92429e-05
1.10823e-08
-3.92437e-05
-1.28854e-08
-3.92124e-05
-2.65535e-08
-3.92052e-05
-1.43574e-08
-3.9235e-05
5.04969e-09
-3.92347e-05
-3.67351e-09
-3.92325e-05
-1.36079e-08
-3.92368e-05
2.13964e-09
-3.92306e-05
5.03545e-09
-3.92309e-05
3.81548e-08
-3.92158e-05
1.44917e-08
-3.92119e-05
-4.22267e-08
-3.92333e-05
-3.51993e-08
-3.92216e-05
-3.13772e-08
-3.92044e-05
-1.59761e-08
-3.91945e-05
-6.61531e-09
-3.92012e-05
1.18711e-08
-3.92284e-05
4.50991e-08
-3.92342e-05
1.54863e-08
-3.92239e-05
-2.17113e-08
-3.92229e-05
3.43196e-09
-3.92069e-05
2.25959e-09
-3.9202e-05
-2.96294e-09
-3.92216e-05
1.30585e-08
-3.92314e-05
7.38296e-09
-3.92409e-05
-3.28333e-10
-3.92445e-05
-2.79596e-09
-3.92434e-05
-1.1254e-08
-3.92335e-05
-1.79261e-08
-3.92086e-05
-1.9966e-08
-3.9212e-05
2.86845e-09
-3.92281e-05
3.8314e-09
-3.92204e-05
-8.93465e-09
-3.92183e-05
2.39772e-08
-3.92342e-05
3.94967e-08
-3.92399e-05
1.24252e-08
-3.9237e-05
-4.3297e-09
-3.92458e-05
1.50898e-09
-3.92408e-05
7.83279e-09
-3.92396e-05
9.48296e-09
-3.92501e-05
2.14073e-08
-3.92321e-05
1.85046e-08
-3.92149e-05
2.49155e-08
-3.92092e-05
4.27286e-08
-3.91957e-05
4.6643e-08
-3.91965e-05
4.8052e-08
-3.92187e-05
4.99387e-08
-3.92207e-05
1.88549e-08
-3.92111e-05
-1.82665e-08
-3.92226e-05
-7.22833e-08
-3.92618e-05
-1.65416e-07
-3.93191e-05
-2.94693e-07
-3.94054e-05
-4.60059e-07
-3.95337e-05
-6.78392e-07
-3.97169e-05
-9.69168e-07
-3.99685e-05
-1.34609e-06
-4.03023e-05
-1.8191e-06
-4.07315e-05
-2.39072e-06
-4.12683e-05
-3.05023e-06
-4.19231e-05
-3.76837e-06
-4.27041e-05
-4.49435e-06
-4.36156e-05
-5.15529e-06
-4.46514e-05
-5.64665e-06
-4.57845e-05
-5.81815e-06
-4.69444e-05
-5.44826e-06
-4.79634e-05
-4.2177e-06
-4.85742e-05
-1.72327e-06
-4.84953e-05
2.6586e-06
-4.71525e-05
9.85165e-06
1.98991e-05
-4.28276e-05
-3.92843e-05
1.57945e-07
-3.92608e-05
4.17133e-08
-3.92501e-05
1.2336e-09
-3.92198e-05
-1.41599e-08
-3.92202e-05
2.72889e-08
-3.92125e-05
-4.74121e-09
-3.92108e-05
-1.48365e-08
-3.92226e-05
6.58506e-09
-3.92186e-05
4.34509e-09
-3.92248e-05
9.38052e-09
-3.92245e-05
-3.40836e-08
-3.92329e-05
-2.73886e-11
-3.92046e-05
3.05398e-08
-3.92122e-05
1.5731e-08
-3.92319e-05
1.31925e-09
-3.92206e-05
-2.96297e-08
-3.92417e-05
-3.1714e-09
-3.92451e-05
-9.98972e-09
-3.92184e-05
-5.20991e-08
-3.92092e-05
-4.80005e-08
-3.92178e-05
1.05554e-08
-3.92125e-05
3.05102e-08
-3.91977e-05
-2.483e-08
-3.92193e-05
3.11546e-08
-3.92368e-05
4.57228e-08
-3.92189e-05
-1.401e-08
-3.92255e-05
-6.61053e-09
-3.92324e-05
1.96496e-08
-3.92293e-05
2.41162e-08
-3.9221e-05
2.25105e-08
-3.92049e-05
-5.03269e-09
-3.92226e-05
4.80271e-09
-3.92174e-05
-3.17131e-08
-3.91867e-05
-4.50362e-08
-3.92061e-05
2.44313e-08
-3.922e-05
1.02507e-08
-3.9214e-05
-1.95807e-08
-3.92182e-05
6.31215e-09
-3.92206e-05
7.39912e-09
-3.91846e-05
2.1757e-09
-3.91557e-05
-1.43748e-08
-3.91876e-05
-1.03505e-08
-3.9213e-05
-9.84636e-09
-3.92155e-05
-2.88541e-08
-3.92068e-05
-2.4667e-08
-3.92119e-05
-1.46557e-09
-3.92332e-05
3.31088e-08
-3.92327e-05
4.46307e-08
-3.92404e-05
2.31678e-08
-3.9254e-05
-8.15203e-09
-3.92347e-05
-1.5856e-08
-3.92044e-05
-2.80236e-08
-3.9214e-05
6.66268e-09
-3.92082e-05
7.24508e-09
-3.92071e-05
6.32062e-09
-3.92311e-05
2.36541e-08
-3.92425e-05
8.59524e-09
-3.92398e-05
-1.39461e-08
-3.92088e-05
-4.89677e-08
-3.92012e-05
-2.75444e-08
-3.92075e-05
9.15116e-09
-3.92176e-05
1.39253e-08
-3.92336e-05
7.09759e-09
-3.92067e-05
-2.9207e-09
-3.91928e-05
2.55663e-08
-3.92058e-05
2.5442e-08
-3.92111e-05
9.65156e-10
-3.92267e-05
1.71535e-08
-3.92301e-05
1.12172e-08
-3.92382e-05
1.75911e-08
-3.92387e-05
2.18931e-08
-3.92287e-05
8.51361e-09
-3.92231e-05
1.93092e-08
-3.92e-05
1.96057e-08
-3.91818e-05
2.8425e-08
-3.92034e-05
6.96793e-08
-3.92203e-05
6.68239e-08
-3.92148e-05
1.33863e-08
-3.92238e-05
-9.29671e-09
-3.92415e-05
-5.45561e-08
-3.9284e-05
-1.22886e-07
-3.93586e-05
-2.20153e-07
-3.94676e-05
-3.51029e-07
-3.96278e-05
-5.18227e-07
-3.98568e-05
-7.40145e-07
-4.0175e-05
-1.02792e-06
-4.06034e-05
-1.39065e-06
-4.11632e-05
-1.83095e-06
-4.1873e-05
-2.3404e-06
-4.27459e-05
-2.89552e-06
-4.37858e-05
-3.45448e-06
-4.49846e-05
-3.95647e-06
-4.63124e-05
-4.31886e-06
-4.77078e-05
-4.42273e-06
-4.90556e-05
-4.10049e-06
-5.01419e-05
-3.13132e-06
-5.0663e-05
-1.20221e-06
-5.023e-05
2.22557e-06
-4.8144e-05
7.76572e-06
1.49162e-05
-4.31612e-05
-3.92758e-05
-1.3498e-09
-3.9267e-05
3.29126e-08
-3.92544e-05
-1.13338e-08
-3.92368e-05
-3.17725e-08
-3.92117e-05
2.16116e-09
-3.92051e-05
-1.12553e-08
-3.92182e-05
-1.76882e-09
-3.9212e-05
3.64312e-10
-3.91929e-05
-1.47001e-08
-3.91983e-05
1.47305e-08
-3.92327e-05
3.57201e-10
-3.92424e-05
9.62178e-09
-3.91986e-05
-1.32547e-08
-3.91935e-05
1.05956e-08
-3.92097e-05
1.75813e-08
-3.92167e-05
-2.26941e-08
-3.92235e-05
3.67262e-09
-3.92109e-05
-2.25964e-08
-3.92019e-05
-6.10739e-08
-3.92139e-05
-3.60026e-08
-3.92236e-05
2.02383e-08
-3.92076e-05
1.44718e-08
-3.91994e-05
-3.29769e-08
-3.91992e-05
3.09793e-08
-3.9186e-05
3.24957e-08
-3.91994e-05
-6.145e-10
-3.92251e-05
1.91073e-08
-3.9224e-05
1.85669e-08
-3.92169e-05
1.70075e-08
-3.91898e-05
-4.66104e-09
-3.91918e-05
-3.02978e-09
-3.92159e-05
2.89624e-08
-3.92131e-05
-3.45382e-08
-3.92105e-05
-4.76432e-08
-3.91956e-05
9.50876e-09
-3.91856e-05
2.89145e-10
-3.91978e-05
-7.34926e-09
-3.91889e-05
-2.59989e-09
-3.91986e-05
1.70801e-08
-3.91829e-05
-1.35309e-08
-3.917e-05
-2.726e-08
-3.91906e-05
1.02095e-08
-3.91952e-05
-5.19244e-09
-3.92328e-05
8.72497e-09
-3.92508e-05
-6.68767e-09
-3.92457e-05
-6.5401e-09
-3.92532e-05
4.06366e-08
-3.92415e-05
3.28644e-08
-3.92486e-05
3.02535e-08
-3.92673e-05
1.05748e-08
-3.92404e-05
-4.27732e-08
-3.92202e-05
-4.81999e-08
-3.92156e-05
2.08923e-09
-3.92074e-05
-9.3377e-10
-3.91896e-05
-1.15497e-08
-3.91822e-05
1.6324e-08
-3.91998e-05
2.61738e-08
-3.91987e-05
-1.50911e-08
-3.92049e-05
-4.27807e-08
-3.92017e-05
-3.06784e-08
-3.91926e-05
7.35589e-11
-3.92097e-05
3.10224e-08
-3.92169e-05
1.42434e-08
-3.92108e-05
-9.01521e-09
-3.91719e-05
-1.331e-08
-3.91744e-05
2.79717e-08
-3.91916e-05
1.81216e-08
-3.91901e-05
1.56118e-08
-3.92155e-05
3.66052e-08
-3.92353e-05
3.73968e-08
-3.92394e-05
2.60354e-08
-3.92263e-05
-4.61116e-09
-3.92075e-05
5.38431e-10
-3.92198e-05
3.19089e-08
-3.92295e-05
3.8088e-08
-3.92157e-05
5.58643e-08
-3.91834e-05
3.46198e-08
-3.91935e-05
2.33904e-08
-3.92245e-05
2.17011e-08
-3.92439e-05
-3.50625e-08
-3.92903e-05
-7.6564e-08
-3.93755e-05
-1.34928e-07
-3.94961e-05
-2.30459e-07
-3.9672e-05
-3.42296e-07
-3.99236e-05
-4.88529e-07
-4.02771e-05
-6.7443e-07
-4.07577e-05
-9.10083e-07
-4.13908e-05
-1.19784e-06
-4.21984e-05
-1.53281e-06
-4.31947e-05
-1.8992e-06
-4.43803e-05
-2.26883e-06
-4.57368e-05
-2.59997e-06
-4.72177e-05
-2.83801e-06
-4.87375e-05
-2.90291e-06
-5.01545e-05
-2.68348e-06
-5.12365e-05
-2.04933e-06
-5.16535e-05
-7.85244e-07
-5.09342e-05
1.50631e-06
-4.83599e-05
5.19143e-06
9.67756e-06
-4.31213e-05
-3.92563e-05
-8.49488e-08
-3.92363e-05
1.2939e-08
-3.92283e-05
-1.94002e-08
-3.9227e-05
-3.30697e-08
-3.92002e-05
-2.45645e-08
-3.91952e-05
-1.62573e-08
-3.92032e-05
6.22557e-09
-3.92019e-05
-9.95308e-10
-3.92056e-05
-1.09941e-08
-3.92078e-05
1.69445e-08
-3.92187e-05
1.12433e-08
-3.92165e-05
7.40283e-09
-3.92192e-05
-1.054e-08
-3.91936e-05
-1.50014e-08
-3.91917e-05
1.56601e-08
-3.9227e-05
1.26351e-08
-3.91929e-05
-3.0419e-08
-3.91739e-05
-4.15892e-08
-3.92076e-05
-2.74111e-08
-3.92203e-05
-2.32434e-08
-3.92049e-05
4.842e-09
-3.91976e-05
7.18538e-09
-3.92129e-05
-1.77642e-08
-3.91828e-05
8.87567e-10
-3.91698e-05
1.95012e-08
-3.91887e-05
1.83458e-08
-3.92012e-05
3.15942e-08
-3.92203e-05
3.76691e-08
-3.92039e-05
5.47206e-10
-3.91987e-05
-9.84621e-09
-3.92125e-05
1.07802e-08
-3.91915e-05
8.01127e-09
-3.92074e-05
-1.87163e-08
-3.92295e-05
-2.55391e-08
-3.91888e-05
-3.11353e-08
-3.91718e-05
-1.67122e-08
-3.91707e-05
-8.42025e-09
-3.91726e-05
-7.5239e-10
-3.9189e-05
3.34702e-08
-3.91977e-05
-4.83709e-09
-3.91996e-05
-2.53165e-08
-3.91959e-05
6.45683e-09
-3.92185e-05
1.74094e-08
-3.92379e-05
2.81424e-08
-3.92493e-05
4.72141e-09
-3.92552e-05
-6.17469e-10
-3.92484e-05
3.38579e-08
-3.92409e-05
2.53367e-08
-3.92452e-05
3.45448e-08
-3.92478e-05
1.31998e-08
-3.92472e-05
-4.34362e-08
-3.92464e-05
-4.90078e-08
-3.92095e-05
-3.47267e-08
-3.92019e-05
-8.59651e-09
-3.92153e-05
1.85524e-09
-3.91975e-05
-1.44281e-09
-3.91716e-05
2.64168e-10
-3.91887e-05
1.96987e-09
-3.92204e-05
-1.10135e-08
-3.92244e-05
-2.66577e-08
-3.92104e-05
-1.39371e-08
-3.9184e-05
4.54694e-09
-3.91991e-05
2.942e-08
-3.92112e-05
3.06632e-09
-3.91949e-05
-2.96132e-08
-3.91822e-05
1.52063e-08
-3.91757e-05
1.16243e-08
-3.91817e-05
2.16165e-08
-3.92019e-05
5.68946e-08
-3.92073e-05
4.27424e-08
-3.92097e-05
2.8413e-08
-3.92151e-05
8.21571e-10
-3.92169e-05
2.28976e-09
-3.92197e-05
3.47997e-08
-3.92202e-05
3.85161e-08
-3.91891e-05
2.47766e-08
-3.9175e-05
2.05496e-08
-3.9197e-05
4.53405e-08
-3.92093e-05
3.399e-08
-3.92374e-05
-6.93068e-09
-3.92921e-05
-2.18406e-08
-3.93727e-05
-5.4337e-08
-3.94989e-05
-1.04226e-07
-3.96834e-05
-1.57816e-07
-3.99489e-05
-2.23005e-07
-4.03212e-05
-3.02206e-07
-4.08285e-05
-4.02754e-07
-4.14992e-05
-5.27089e-07
-4.23573e-05
-6.74725e-07
-4.3417e-05
-8.39532e-07
-4.46759e-05
-1.00995e-06
-4.61074e-05
-1.16849e-06
-4.7654e-05
-1.29137e-06
-4.92146e-05
-1.34231e-06
-5.06322e-05
-1.26589e-06
-5.16771e-05
-1.0044e-06
-5.20038e-05
-4.58553e-07
-5.10834e-05
5.85935e-07
-4.82094e-05
2.31738e-06
4.37013e-06
-4.29019e-05
-3.92502e-05
-9.25229e-08
-3.92182e-05
-1.89795e-08
-3.92092e-05
-2.84743e-08
-3.92096e-05
-3.26432e-08
-3.91972e-05
-3.69728e-08
-3.92082e-05
-5.2111e-09
-3.92099e-05
7.88611e-09
-3.91982e-05
-1.26579e-08
-3.92123e-05
3.10997e-09
-3.92123e-05
1.69351e-08
-3.91959e-05
-5.19473e-09
-3.91913e-05
2.79899e-09
-3.92154e-05
1.35398e-08
-3.92246e-05
-5.72098e-09
-3.92e-05
-8.97826e-09
-3.91883e-05
9.67478e-10
-3.91696e-05
-4.91197e-08
-3.91577e-05
-5.34889e-08
-3.91874e-05
2.21251e-09
-3.92148e-05
4.1685e-09
-3.91739e-05
-3.60793e-08
-3.91688e-05
2.1685e-09
-3.92092e-05
2.25575e-08
-3.91871e-05
-2.11304e-08
-3.91776e-05
9.97506e-09
-3.91822e-05
2.29729e-08
-3.91889e-05
3.82087e-08
-3.91961e-05
4.49132e-08
-3.91968e-05
1.27956e-09
-3.91995e-05
-7.18614e-09
-3.91965e-05
7.78467e-09
-3.91963e-05
7.816e-09
-3.9212e-05
-2.99674e-09
-3.92101e-05
-2.74966e-08
-3.91961e-05
-4.51015e-08
-3.91894e-05
-2.34498e-08
-3.91971e-05
-7.21115e-10
-3.91998e-05
1.95944e-09
-3.91899e-05
2.35795e-08
-3.92033e-05
8.61564e-09
-3.91984e-05
-3.02176e-08
-3.92047e-05
1.27424e-08
-3.92395e-05
5.22268e-08
-3.92262e-05
1.4785e-08
-3.92485e-05
2.70453e-08
-3.92681e-05
1.89618e-08
-3.92483e-05
1.4107e-08
-3.9236e-05
1.30202e-08
-3.92248e-05
2.33137e-08
-3.92135e-05
1.86813e-09
-3.92271e-05
-2.98035e-08
-3.92393e-05
-3.67783e-08
-3.92241e-05
-4.99026e-08
-3.92147e-05
-1.80799e-08
-3.9233e-05
2.01912e-08
-3.92326e-05
-1.79601e-09
-3.92065e-05
-2.58686e-08
-3.92104e-05
5.88886e-09
-3.92101e-05
-1.13226e-08
-3.92254e-05
-1.13897e-08
-3.92252e-05
-1.40781e-08
-3.92017e-05
-1.90025e-08
-3.91936e-05
2.12829e-08
-3.91898e-05
-7.39205e-10
-3.92098e-05
-9.59807e-09
-3.91855e-05
-9.06669e-09
-3.9191e-05
1.71614e-08
-3.92306e-05
6.11889e-08
-3.92031e-05
2.94355e-08
-3.91808e-05
2.04437e-08
-3.91799e-05
2.74245e-08
-3.91941e-05
1.50662e-08
-3.92292e-05
3.7417e-08
-3.92233e-05
2.88781e-08
-3.91944e-05
9.61762e-09
-3.91785e-05
8.85154e-09
-3.91869e-05
2.89608e-08
-3.91969e-05
5.53702e-08
-3.92027e-05
3.97588e-08
-3.92333e-05
2.36549e-08
-3.92843e-05
2.9228e-08
-3.93637e-05
2.50511e-08
-3.94916e-05
2.36169e-08
-3.96789e-05
2.95124e-08
-3.99507e-05
4.87847e-08
-4.03314e-05
7.85276e-08
-4.08509e-05
1.1675e-07
-4.15385e-05
1.60453e-07
-4.24193e-05
2.06056e-07
-4.35073e-05
2.48493e-07
-4.47979e-05
2.80673e-07
-4.62599e-05
2.93501e-07
-4.7829e-05
2.77768e-07
-4.93964e-05
2.25096e-07
-5.07928e-05
1.30463e-07
-5.17994e-05
2.21352e-09
-5.20747e-05
-1.8322e-07
-5.10604e-05
-4.28391e-07
-4.80364e-05
-7.06596e-07
-9.67871e-07
-4.26984e-05
-3.92315e-05
-7.62878e-08
-3.91973e-05
-5.31723e-08
-3.9169e-05
-5.67098e-08
-3.91778e-05
-2.38669e-08
-3.92026e-05
-1.22113e-08
-3.92227e-05
1.49151e-08
-3.92358e-05
2.10015e-08
-3.92245e-05
-2.39693e-08
-3.91962e-05
-2.52372e-08
-3.91595e-05
-1.96975e-08
-3.91724e-05
7.68512e-09
-3.91997e-05
3.01111e-08
-3.92089e-05
2.27441e-08
-3.92162e-05
1.53955e-09
-3.9198e-05
-2.72091e-08
-3.91637e-05
-3.32544e-08
-3.9163e-05
-4.98694e-08
-3.9187e-05
-2.94635e-08
-3.92048e-05
1.99521e-08
-3.92163e-05
1.56816e-08
-3.91872e-05
-6.51412e-08
-3.91726e-05
-1.24251e-08
-3.91824e-05
3.23585e-08
-3.91977e-05
-5.81109e-09
-3.92031e-05
1.53963e-08
-3.92004e-05
2.02256e-08
-3.91863e-05
2.40615e-08
-3.91608e-05
1.94295e-08
-3.91669e-05
7.42721e-09
-3.91949e-05
2.07738e-08
-3.92083e-05
2.12299e-08
-3.9193e-05
-7.49995e-09
-3.91788e-05
-1.72093e-08
-3.91877e-05
-1.85946e-08
-3.92118e-05
-2.09828e-08
-3.92008e-05
-3.44255e-08
-3.92122e-05
1.06842e-08
-3.92239e-05
1.35928e-08
-3.91972e-05
-3.14776e-09
-3.91849e-05
-3.6419e-09
-3.91943e-05
-2.07821e-08
-3.92054e-05
2.38357e-08
-3.9228e-05
7.47956e-08
-3.92442e-05
3.09813e-08
-3.9241e-05
2.38289e-08
-3.9247e-05
2.49435e-08
-3.92553e-05
2.24142e-08
-3.9236e-05
-6.27272e-09
-3.92098e-05
-2.85294e-09
-3.91962e-05
-1.17614e-08
-3.91949e-05
-3.10534e-08
-3.9195e-05
-3.66732e-08
-3.92115e-05
-3.34356e-08
-3.92349e-05
5.29656e-09
-3.9219e-05
4.36118e-09
-3.92037e-05
-1.71624e-08
-3.92082e-05
-2.13574e-08
-3.92203e-05
1.80443e-08
-3.92239e-05
-7.799e-09
-3.92053e-05
-2.99631e-08
-3.9199e-05
-2.03813e-08
-3.92132e-05
-4.7732e-09
-3.91734e-05
-1.85616e-08
-3.91711e-05
-2.98053e-09
-3.92066e-05
2.58449e-08
-3.92003e-05
-1.53513e-08
-3.91983e-05
1.51286e-08
-3.92055e-05
6.83861e-08
-3.92083e-05
3.22591e-08
-3.91859e-05
-1.98075e-09
-3.9178e-05
1.95248e-08
-3.92e-05
3.70832e-08
-3.92076e-05
4.49967e-08
-3.91936e-05
1.49096e-08
-3.9177e-05
-6.98155e-09
-3.91866e-05
1.84665e-08
-3.91947e-05
3.70677e-08
-3.91774e-05
3.80529e-08
-3.91868e-05
4.9149e-08
-3.92213e-05
5.81513e-08
-3.92693e-05
7.73037e-08
-3.93523e-05
1.07981e-07
-3.94791e-05
1.50483e-07
-3.96677e-05
2.18106e-07
-3.99403e-05
3.21374e-07
-4.03216e-05
4.59802e-07
-4.08408e-05
6.3599e-07
-4.15274e-05
8.46987e-07
-4.24064e-05
1.08509e-06
-4.34925e-05
1.33461e-06
-4.4782e-05
1.57011e-06
-4.62446e-05
1.75615e-06
-4.78172e-05
1.8504e-06
-4.9391e-05
1.79883e-06
-5.07968e-05
1.53624e-06
-5.18057e-05
1.01117e-06
-5.20832e-05
9.42542e-08
-5.10766e-05
-1.43502e-06
-4.80681e-05
-3.71511e-06
-6.301e-06
-4.27349e-05
-3.92095e-05
-8.19356e-08
-3.91862e-05
-7.65185e-08
-3.91704e-05
-7.24575e-08
-3.9169e-05
-2.52882e-08
-3.91989e-05
1.77156e-08
-3.92174e-05
3.33218e-08
-3.92091e-05
1.27396e-08
-3.92041e-05
-2.89646e-08
-3.91818e-05
-4.75575e-08
-3.9162e-05
-3.94282e-08
-3.9175e-05
2.06381e-08
-3.91977e-05
5.28382e-08
-3.92115e-05
3.65576e-08
-3.91967e-05
-1.33401e-08
-3.91851e-05
-3.87747e-08
-3.91875e-05
-3.08133e-08
-3.91845e-05
-5.29266e-08
-3.91955e-05
-1.84396e-08
-3.91974e-05
2.18795e-08
-3.92014e-05
1.96183e-08
-3.92187e-05
-4.78504e-08
-3.9193e-05
-3.80756e-08
-3.91843e-05
2.36366e-08
-3.91975e-05
7.36775e-09
-3.92044e-05
2.23676e-08
-3.92235e-05
3.93049e-08
-3.91954e-05
-4.04927e-09
-3.91827e-05
6.74113e-09
-3.91894e-05
1.41463e-08
-3.91895e-05
2.08144e-08
-3.92052e-05
3.6944e-08
-3.91983e-05
-1.44377e-08
-3.91816e-05
-3.38512e-08
-3.92045e-05
4.30266e-09
-3.92298e-05
4.265e-09
-3.92293e-05
-3.48563e-08
-3.92089e-05
-9.76573e-09
-3.92105e-05
1.52509e-08
-3.92232e-05
9.55731e-09
-3.92029e-05
-2.39361e-08
-3.9208e-05
-1.57712e-08
-3.92286e-05
4.45057e-08
-3.92348e-05
8.10076e-08
-3.92493e-05
4.54579e-08
-3.923e-05
4.47492e-09
-3.92337e-05
2.87072e-08
-3.92506e-05
3.9274e-08
-3.92404e-05
-1.65005e-08
-3.92259e-05
-1.72809e-08
-3.91909e-05
-4.67684e-08
-3.91627e-05
-5.92702e-08
-3.91729e-05
-2.64642e-08
-3.92165e-05
1.01264e-08