/*--------------------------------*- C++ -*----------------------------------*\
| =========                 |                                                 |
| \\      /  F ield         | OpenFOAM: The Open Source CFD Toolbox           |
|  \\    /   O peration     | Version:  2.1.0                                 |
|   \\  /    A nd           | Web:      www.OpenFOAM.org                      |
|    \\/     M anipulation  |                                                 |
\*---------------------------------------------------------------------------*/
FoamFile
{
    version     2.0;
    format      ascii;
    class       volVectorField;
    location    "0.01";
    object      U;
}
// * * * * * * * * * * * * * * * * * * * * * * * * * * * * * * * * * * * * * //

dimensions      [0 1 -1 0 0 0 0];

internalField   nonuniform List<vector> 
6400
(
(-1.87531 0.000560407 0)
(-1.877 0.000330966 0)
(-1.87815 0.000232693 0)
(-1.87885 0.000113314 0)
(-1.87914 3.12927e-05 0)
(-1.87935 8.08667e-05 0)
(-1.8795 -1.46898e-05 0)
(-1.87929 -8.54006e-05 0)
(-1.87901 -5.81229e-05 0)
(-1.87876 -6.72513e-05 0)
(-1.87867 2.25349e-05 0)
(-1.87872 1.73748e-06 0)
(-1.87878 2.75654e-05 0)
(-1.87903 0.00010437 0)
(-1.87926 5.54586e-06 0)
(-1.87921 -3.28728e-05 0)
(-1.87919 2.72003e-05 0)
(-1.87926 7.54822e-06 0)
(-1.87925 -1.33001e-05 0)
(-1.87928 2.83823e-05 0)
(-1.87931 -1.34225e-05 0)
(-1.87905 -0.000112208 0)
(-1.87875 -4.57995e-05 0)
(-1.87863 -1.46823e-05 0)
(-1.87857 -1.50217e-05 0)
(-1.87857 1.51363e-05 0)
(-1.87862 9.24902e-06 0)
(-1.87869 2.68701e-05 0)
(-1.87886 6.42285e-05 0)
(-1.87902 1.37254e-05 0)
(-1.87897 -4.02218e-05 0)
(-1.87888 -5.76647e-06 0)
(-1.87894 3.58261e-05 0)
(-1.87908 3.79154e-05 0)
(-1.87905 -5.32129e-05 0)
(-1.87888 -3.42609e-05 0)
(-1.87883 4.30725e-06 0)
(-1.87884 4.95694e-06 0)
(-1.87887 1.18315e-05 0)
(-1.87889 -3.99053e-06 0)
(-1.87891 1.17186e-05 0)
(-1.87886 -3.54803e-05 0)
(-1.87874 -2.58816e-05 0)
(-1.87871 1.13532e-05 0)
(-1.87879 3.11182e-05 0)
(-1.87888 1.3641e-05 0)
(-1.87888 -1.38018e-05 0)
(-1.87887 6.8562e-06 0)
(-1.87895 3.58857e-05 0)
(-1.87911 4.73653e-05 0)
(-1.87917 -1.99633e-05 0)
(-1.87917 2.00877e-05 0)
(-1.87924 1.37552e-05 0)
(-1.87915 -5.8125e-05 0)
(-1.87896 -4.09273e-05 0)
(-1.87894 3.47705e-05 0)
(-1.87904 1.32561e-05 0)
(-1.87899 -3.56996e-05 0)
(-1.87889 -1.71874e-05 0)
(-1.87886 2.64724e-06 0)
(-1.87881 -2.69966e-05 0)
(-1.87869 -3.23112e-05 0)
(-1.87871 4.02391e-05 0)
(-1.87885 3.05414e-05 0)
(-1.8789 -2.93949e-06 0)
(-1.87886 -1.8885e-05 0)
(-1.87884 1.2003e-05 0)
(-1.87882 -2.31516e-05 0)
(-1.87876 -7.97544e-06 0)
(-1.87883 4.17072e-05 0)
(-1.87907 7.79229e-05 0)
(-1.87955 0.000163455 0)
(-1.88027 0.000198752 0)
(-1.88089 0.000114555 0)
(-1.88133 0.000102447 0)
(-1.88181 0.000138818 0)
(-1.88222 6.94465e-05 0)
(-1.8822 -8.28297e-05 0)
(-1.88117 -0.000418534 0)
(-1.87849 -0.000921437 0)
(-1.87315 -0.00173807 0)
(-1.86408 -0.00278568 0)
(-1.85027 -0.00413829 0)
(-1.83025 -0.00588542 0)
(-1.80239 -0.00806708 0)
(-1.76484 -0.0107494 0)
(-1.71552 -0.0139833 0)
(-1.6522 -0.0178 0)
(-1.57258 -0.0222024 0)
(-1.47446 -0.0271527 0)
(-1.35591 -0.0325632 0)
(-1.21548 -0.0382742 0)
(-1.0527 -0.0439751 0)
(-0.869 -0.0490125 0)
(-0.670056 -0.0518829 0)
(-0.472105 -0.0486654 0)
(-0.31512 -0.0311155 0)
(-0.262016 0.0038586 0)
(-0.379164 0.0546645 0)
(-0.926504 0.182019 0)
(-1.92267 0.00168472 0)
(-1.92421 0.000965952 0)
(-1.92528 0.000699944 0)
(-1.92627 0.000329691 0)
(-1.92597 5.59416e-05 0)
(-1.92648 0.000226355 0)
(-1.92657 -3.69281e-05 0)
(-1.92612 -0.000248204 0)
(-1.92616 -0.000173218 0)
(-1.92571 -0.000202958 0)
(-1.92581 7.80301e-05 0)
(-1.92565 2.91665e-06 0)
(-1.92596 7.5931e-05 0)
(-1.92607 0.000332402 0)
(-1.92622 1.70509e-05 0)
(-1.92656 -0.000113994 0)
(-1.92592 5.69641e-05 0)
(-1.92646 2.62898e-05 0)
(-1.92597 -3.08982e-05 0)
(-1.92657 7.8284e-05 0)
(-1.92601 -3.81419e-05 0)
(-1.92621 -0.000330499 0)
(-1.92555 -0.000124847 0)
(-1.92648 -4.44127e-05 0)
(-1.92442 -3.98176e-05 0)
(-1.92629 4.83945e-05 0)
(-1.92571 2.61584e-05 0)
(-1.9257 7.47661e-05 0)
(-1.92586 0.000194452 0)
(-1.92615 5.21614e-05 0)
(-1.92607 -0.000124242 0)
(-1.92607 -2.73611e-05 0)
(-1.92578 0.000116051 0)
(-1.92636 0.000108828 0)
(-1.92598 -0.0001732 0)
(-1.92591 -0.000102641 0)
(-1.92598 9.34152e-06 0)
(-1.92554 1.36117e-05 0)
(-1.9262 4.87427e-05 0)
(-1.92566 -2.37977e-06 0)
(-1.92624 3.57241e-05 0)
(-1.92577 -0.000118097 0)
(-1.92569 -0.000103451 0)
(-1.9263 2.86762e-05 0)
(-1.92453 9.51149e-05 0)
(-1.92658 4.5355e-05 0)
(-1.9256 -3.42848e-05 0)
(-1.92591 2.47398e-05 0)
(-1.92587 0.000110042 0)
(-1.92646 0.000135408 0)
(-1.92552 -6.53939e-05 0)
(-1.92654 8.02352e-05 0)
(-1.9262 4.18255e-05 0)
(-1.92617 -0.000187028 0)
(-1.92592 -0.000120993 0)
(-1.92578 8.68466e-05 0)
(-1.92637 4.05243e-05 0)
(-1.9253 -0.000103379 0)
(-1.92632 -5.62223e-05 0)
(-1.92546 2.50434e-05 0)
(-1.92601 -7.28386e-05 0)
(-1.9256 -0.000110589 0)
(-1.92581 0.000121831 0)
(-1.9256 0.000103645 0)
(-1.92612 4.91879e-06 0)
(-1.9259 -4.4611e-05 0)
(-1.92591 3.9115e-05 0)
(-1.92628 -6.65527e-05 0)
(-1.92539 -1.39779e-05 0)
(-1.92643 0.000133111 0)
(-1.92617 0.000236514 0)
(-1.92693 0.000526982 0)
(-1.92752 0.00066313 0)
(-1.92959 0.000407427 0)
(-1.928 0.000404814 0)
(-1.93153 0.000558872 0)
(-1.93084 0.000409603 0)
(-1.93247 -5.3268e-06 0)
(-1.93301 -0.000843775 0)
(-1.93154 -0.00216898 0)
(-1.92956 -0.00433111 0)
(-1.92479 -0.00711086 0)
(-1.91662 -0.0107341 0)
(-1.90429 -0.0154549 0)
(-1.88619 -0.0214022 0)
(-1.86088 -0.0287502 0)
(-1.82667 -0.0376273 0)
(-1.78184 -0.0480932 0)
(-1.72471 -0.0601123 0)
(-1.65388 -0.0735119 0)
(-1.56846 -0.0879533 0)
(-1.46833 -0.102865 0)
(-1.35468 -0.117205 0)
(-1.23099 -0.128944 0)
(-1.10471 -0.13382 0)
(-0.990097 -0.122013 0)
(-0.910459 -0.0755281 0)
(-0.904579 0.0164061 0)
(-1.01824 0.154622 0)
(-1.43474 0.477862 0)
(-1.92802 0.00281714 0)
(-1.92891 0.00151336 0)
(-1.93006 0.00118198 0)
(-1.93166 0.000536187 0)
(-1.92993 -3.12777e-05 0)
(-1.93131 0.000301428 0)
(-1.93141 -2.1409e-05 0)
(-1.92994 -0.000334969 0)
(-1.93144 -0.000297957 0)
(-1.93019 -0.000351878 0)
(-1.93061 0.000141054 0)
(-1.93051 8.99888e-07 0)
(-1.93017 0.000131996 0)
(-1.93116 0.000555587 0)
(-1.93053 3.30027e-05 0)
(-1.93159 -0.000208275 0)
(-1.93015 2.22669e-06 0)
(-1.93107 5.68076e-05 0)
(-1.93027 -2.94937e-05 0)
(-1.93102 7.41841e-05 0)
(-1.93049 -3.52552e-05 0)
(-1.93041 -0.000470816 0)
(-1.93018 -0.000218588 0)
(-1.93298 -7.92449e-05 0)
(-1.92558 -3.87448e-05 0)
(-1.93275 8.76351e-05 0)
(-1.93035 4.53245e-05 0)
(-1.93038 8.65607e-05 0)
(-1.93006 0.000348861 0)
(-1.93117 0.000141385 0)
(-1.93064 -0.000237649 0)
(-1.93107 -7.13535e-05 0)
(-1.93007 0.000216677 0)
(-1.93122 0.000182938 0)
(-1.93073 -0.000319338 0)
(-1.93039 -0.000188486 0)
(-1.93098 1.28265e-05 0)
(-1.92953 1.61915e-05 0)
(-1.93137 0.000135195 0)
(-1.93013 4.36741e-05 0)
(-1.93139 5.10457e-05 0)
(-1.93028 -0.000224792 0)
(-1.93056 -0.000261567 0)
(-1.93156 1.70293e-05 0)
(-1.92756 0.000187353 0)
(-1.93209 8.96928e-05 0)
(-1.92994 -4.83882e-05 0)
(-1.93069 5.86775e-05 0)
(-1.93038 0.000166857 0)
(-1.93145 0.000205065 0)
(-1.92929 -0.000116787 0)
(-1.93156 0.000190625 0)
(-1.93089 6.11655e-05 0)
(-1.93066 -0.000348578 0)
(-1.93037 -0.000203517 0)
(-1.93026 8.05584e-05 0)
(-1.93108 7.86654e-05 0)
(-1.92924 -0.000171514 0)
(-1.93097 -9.83103e-05 0)
(-1.92966 0.000100238 0)
(-1.93124 -9.15539e-05 0)
(-1.92927 -0.000223508 0)
(-1.9308 0.000169096 0)
(-1.9299 0.000214927 0)
(-1.93065 5.79629e-05 0)
(-1.93057 -4.86889e-05 0)
(-1.93052 6.38389e-05 0)
(-1.93128 -0.00010202 0)
(-1.92945 1.49722e-05 0)
(-1.93165 0.000224609 0)
(-1.93066 0.000363025 0)
(-1.93162 0.0009232 0)
(-1.93178 0.00113614 0)
(-1.93502 0.000786771 0)
(-1.93061 0.000858396 0)
(-1.93766 0.00103748 0)
(-1.93376 0.000876966 0)
(-1.93689 0.000397354 0)
(-1.93867 -0.000686354 0)
(-1.93605 -0.00248882 0)
(-1.93732 -0.00538377 0)
(-1.93649 -0.00916383 0)
(-1.93299 -0.0141297 0)
(-1.92843 -0.0206703 0)
(-1.92074 -0.0290305 0)
(-1.90931 -0.0394598 0)
(-1.89296 -0.0521418 0)
(-1.87054 -0.0671317 0)
(-1.84101 -0.0842999 0)
(-1.80367 -0.103263 0)
(-1.75843 -0.123329 0)
(-1.7061 -0.143406 0)
(-1.64882 -0.161632 0)
(-1.59077 -0.174686 0)
(-1.53867 -0.176313 0)
(-1.50181 -0.154006 0)
(-1.49251 -0.0884509 0)
(-1.52377 0.0351495 0)
(-1.60495 0.231017 0)
(-1.8211 0.643811 0)
(-1.94584 0.00410264 0)
(-1.94413 0.00189316 0)
(-1.94761 0.00171827 0)
(-1.95001 0.000732769 0)
(-1.94385 -0.00029584 0)
(-1.94911 0.000310022 0)
(-1.9488 4.20706e-05 0)
(-1.94472 -0.000355878 0)
(-1.95122 -0.000359835 0)
(-1.943 -0.000450962 0)
(-1.94936 0.000215593 0)
(-1.94864 -3.00389e-05 0)
(-1.94501 0.000152225 0)
(-1.94926 0.0007688 0)
(-1.94776 2.56295e-05 0)
(-1.94685 -0.000399529 0)
(-1.94822 -0.000158219 0)
(-1.94464 -2.11477e-05 0)
(-1.94889 -4.00446e-05 0)
(-1.94256 -4.50168e-07 0)
(-1.95221 -9.7229e-06 0)
(-1.93854 -0.000398112 0)
(-1.94994 -0.000322292 0)
(-1.94999 -6.89923e-05 0)
(-1.94018 3.5436e-05 0)
(-1.95142 0.000121007 0)
(-1.94451 6.47601e-05 0)
(-1.94945 3.99751e-05 0)
(-1.9435 0.000501653 0)
(-1.95052 0.000324229 0)
(-1.94412 -0.000260593 0)
(-1.94986 -0.000136103 0)
(-1.94807 0.00035271 0)
(-1.94554 0.000213902 0)
(-1.94974 -0.000565759 0)
(-1.94487 -0.000259975 0)
(-1.94922 -1.9695e-05 0)
(-1.94477 1.34782e-06 0)
(-1.9481 0.000261629 0)
(-1.95134 0.000240792 0)
(-1.94021 0.000169468 0)
(-1.95145 -0.000390045 0)
(-1.94724 -0.000622839 0)
(-1.94714 -9.71215e-05 0)
(-1.94636 0.000242835 0)
(-1.94585 0.000129868 0)
(-1.94603 -1.57224e-05 0)
(-1.94795 0.000129091 0)
(-1.94544 0.000196504 0)
(-1.94716 0.000177271 0)
(-1.94648 -0.000142932 0)
(-1.94725 0.000329576 0)
(-1.95437 9.58882e-05 0)
(-1.93086 -0.000485657 0)
(-1.9581 -0.000250049 0)
(-1.93995 5.01616e-06 0)
(-1.95004 4.33237e-05 0)
(-1.94676 -0.000234455 0)
(-1.94486 -0.000134641 0)
(-1.947 0.000241414 0)
(-1.94864 -4.17504e-05 0)
(-1.94213 -0.000383728 0)
(-1.94871 0.000166341 0)
(-1.94664 0.00036046 0)
(-1.94682 0.00018338 0)
(-1.94565 -1.02138e-05 0)
(-1.94837 7.06362e-05 0)
(-1.94605 -0.000141213 0)
(-1.9478 0.000105433 0)
(-1.94711 0.000286842 0)
(-1.9466 0.000351053 0)
(-1.94764 0.00115832 0)
(-1.94936 0.00138376 0)
(-1.94375 0.0011195 0)
(-1.94934 0.00127468 0)
(-1.95073 0.0012195 0)
(-1.94448 0.000994052 0)
(-1.94988 0.000643098 0)
(-1.94974 -0.000414453 0)
(-1.94662 -0.00238558 0)
(-1.94921 -0.00553366 0)
(-1.9499 -0.00963601 0)
(-1.94898 -0.0149965 0)
(-1.94991 -0.0221379 0)
(-1.94962 -0.0314252 0)
(-1.94884 -0.0431641 0)
(-1.94681 -0.0575809 0)
(-1.94305 -0.0747207 0)
(-1.93712 -0.094356 0)
(-1.92889 -0.115889 0)
(-1.91874 -0.138279 0)
(-1.90763 -0.159967 0)
(-1.89739 -0.178428 0)
(-1.89126 -0.189544 0)
(-1.89263 -0.186226 0)
(-1.90447 -0.155756 0)
(-1.93079 -0.0808937 0)
(-1.96942 0.0530473 0)
(-2.00679 0.273966 0)
(-2.07598 0.684024 0)
(-1.96417 0.00526848 0)
(-1.95139 0.00206177 0)
(-1.96396 0.00184749 0)
(-1.97584 0.000708059 0)
(-1.9256 -0.000351547 0)
(-1.97634 0.000410303 0)
(-1.96258 8.39883e-06 0)
(-1.95653 -0.000403919 0)
(-1.96636 -0.000222517 0)
(-1.95143 -0.000334239 0)
(-1.96322 0.000112749 0)
(-1.96352 -0.000188496 0)
(-1.95444 0.000367583 0)
(-1.96441 0.000920418 0)
(-1.96744 -0.000179697 0)
(-1.94545 -0.000667069 0)
(-1.97019 -0.000368716 0)
(-1.9527 -0.000230004 0)
(-1.96005 -0.000124602 0)
(-1.95535 -0.00021585 0)
(-1.96606 -3.53845e-05 0)
(-1.94351 9.64176e-06 0)
(-1.96648 -0.000307058 0)
(-1.9609 1.0613e-05 0)
(-1.95808 0.000211283 0)
(-1.96117 0.000185061 0)
(-1.95876 1.02726e-05 0)
(-1.96141 2.85388e-06 0)
(-1.95271 0.000575089 0)
(-1.96801 0.000609353 0)
(-1.95275 -3.58522e-06 0)
(-1.96438 -0.000258049 0)
(-1.96508 0.000276158 0)
(-1.96362 1.08908e-05 0)
(-1.94198 -0.000672066 0)
(-1.9685 -0.000182027 0)
(-1.96098 -0.00016974 0)
(-1.9569 -3.39171e-05 0)
(-1.96131 0.000303726 0)
(-1.96978 0.000671346 0)
(-1.94257 0.000509981 0)
(-1.96797 -0.000732675 0)
(-1.96309 -0.00114753 0)
(-1.95362 -0.000342827 0)
(-1.96527 0.00013411 0)
(-1.95459 0.000112301 0)
(-1.96072 7.79421e-05 0)
(-1.95518 0.000313304 0)
(-1.95853 0.000224629 0)
(-1.95807 -8.42055e-05 0)
(-1.96183 -1.50545e-05 0)
(-1.95933 0.000427231 0)
(-1.97476 8.64346e-05 0)
(-1.92302 -0.000343424 0)
(-1.9831 -0.000155292 0)
(-1.9469 -0.000145949 0)
(-1.96664 -8.84279e-05 0)
(-1.96083 -0.000257255 0)
(-1.95628 -0.000175684 0)
(-1.95895 0.000224655 0)
(-1.9641 -2.1103e-06 0)
(-1.94902 -0.000390624 0)
(-1.96458 6.27933e-05 0)
(-1.95864 0.000545014 0)
(-1.95988 0.000429249 0)
(-1.95663 9.73794e-05 0)
(-1.96325 1.60083e-05 0)
(-1.95619 -0.000173994 0)
(-1.96365 0.000244996 0)
(-1.96253 0.000286132 0)
(-1.95033 0.000283162 0)
(-1.96319 0.00105439 0)
(-1.96992 0.00123881 0)
(-1.9387 0.00122351 0)
(-1.96939 0.00146918 0)
(-1.96 0.00119181 0)
(-1.95266 0.000801396 0)
(-1.96157 0.000534477 0)
(-1.95722 -0.000262314 0)
(-1.95761 -0.00219207 0)
(-1.96081 -0.00530591 0)
(-1.95678 -0.00920227 0)
(-1.96267 -0.0143009 0)
(-1.96576 -0.0211347 0)
(-1.96991 -0.0301562 0)
(-1.97625 -0.0417057 0)
(-1.98422 -0.0560354 0)
(-1.99408 -0.0731864 0)
(-2.00596 -0.0928754 0)
(-2.02013 -0.114366 0)
(-2.03709 -0.136399 0)
(-2.05744 -0.157136 0)
(-2.08195 -0.173752 0)
(-2.11241 -0.181942 0)
(-2.14831 -0.174789 0)
(-2.18752 -0.140934 0)
(-2.22928 -0.0662717 0)
(-2.26052 0.0646086 0)
(-2.25441 0.283035 0)
(-2.22807 0.641607 0)
(-1.97228 0.00572307 0)
(-1.95002 0.0018588 0)
(-1.97199 0.000992112 0)
(-1.98734 0.000493684 0)
(-1.89739 0.000214884 0)
(-1.98995 0.000290744 0)
(-1.96721 -0.000197122 0)
(-1.95918 -0.000284815 0)
(-1.96496 5.75569e-05 0)
(-1.9583 -5.99286e-05 0)
(-1.96198 -0.000440573 0)
(-1.965 -0.000263467 0)
(-1.95583 0.00103185 0)
(-1.98155 0.000580919 0)
(-1.9493 -0.000413285 0)
(-1.94792 -0.000616818 0)
(-1.97219 -0.000538484 0)
(-1.96016 -0.000335061 0)
(-1.95587 -0.000410377 0)
(-1.96578 -0.000672508 0)
(-1.95873 -1.21105e-05 0)
(-1.95769 0.000602109 0)
(-1.96277 -0.000250767 0)
(-1.96154 0.000150276 0)
(-1.96597 0.000513758 0)
(-1.95894 0.000166789 0)
(-1.96656 -0.000190938 0)
(-1.95523 0.000161197 0)
(-1.95739 0.000630022 0)
(-1.97076 0.000771467 0)
(-1.95524 0.000240239 0)
(-1.96603 -0.000332197 0)
(-1.96693 -0.000273335 0)
(-1.97529 -0.000268005 0)
(-1.91764 -0.000241203 0)
(-1.9818 -8.8041e-05 0)
(-1.96345 -0.00031048 0)
(-1.95965 -5.32117e-07 0)
(-1.96204 0.000203099 0)
(-1.96973 0.000954495 0)
(-1.96273 0.000552977 0)
(-1.9435 -0.00101718 0)
(-1.9744 -0.00114656 0)
(-1.95166 -0.000636017 0)
(-1.97048 -0.000185398 0)
(-1.95679 -4.226e-05 0)
(-1.96746 0.000213385 0)
(-1.94618 0.000783022 0)
(-1.96551 0.000313582 0)
(-1.9612 -0.000416221 0)
(-1.96494 9.8966e-05 0)
(-1.95755 0.00025589 0)
(-1.97082 -1.29194e-05 0)
(-1.94183 7.87828e-05 0)
(-1.97523 6.25361e-05 0)
(-1.95504 -0.000128195 0)
(-1.96812 -0.000115424 0)
(-1.96175 -0.000267496 0)
(-1.95945 -0.000324179 0)
(-1.9579 -0.000188523 0)
(-1.96857 2.98105e-05 0)
(-1.95183 -0.000105337 0)
(-1.96802 -0.000127625 0)
(-1.95928 0.000625526 0)
(-1.96753 0.000791377 0)
(-1.94747 0.000240652 0)
(-1.97325 -7.21321e-05 0)
(-1.95482 -7.19369e-05 0)
(-1.96885 0.000257859 0)
(-1.97048 0.000250343 0)
(-1.94083 0.000401499 0)
(-1.97078 0.000685007 0)
(-1.97041 0.000835652 0)
(-1.93997 0.00113063 0)
(-1.97364 0.00133371 0)
(-1.95976 0.00119013 0)
(-1.96267 0.000970271 0)
(-1.95306 0.000447114 0)
(-1.9635 -0.000337549 0)
(-1.96287 -0.00195041 0)
(-1.96684 -0.00463216 0)
(-1.95422 -0.00806664 0)
(-1.97226 -0.0125719 0)
(-1.97455 -0.018559 0)
(-1.98156 -0.0265137 0)
(-1.99255 -0.0367883 0)
(-2.00712 -0.0496375 0)
(-2.02617 -0.0651136 0)
(-2.05028 -0.0829348 0)
(-2.08004 -0.102346 0)
(-2.11595 -0.122048 0)
(-2.15809 -0.140173 0)
(-2.20613 -0.153981 0)
(-2.26032 -0.159464 0)
(-2.317 -0.150545 0)
(-2.37048 -0.118046 0)
(-2.41698 -0.0506532 0)
(-2.4352 0.067374 0)
(-2.39281 0.262724 0)
(-2.30836 0.551124 0)
(-1.97208 0.00484312 0)
(-1.9536 0.00133712 0)
(-1.96741 0.0001645 0)
(-1.97448 2.52328e-05 0)
(-1.93152 0.000679381 0)
(-1.97553 -2.26167e-05 0)
(-1.96197 -0.000350083 0)
(-1.96148 1.80024e-05 0)
(-1.96687 0.000157642 0)
(-1.95028 0.000158576 0)
(-1.96822 -0.000850259 0)
(-1.95465 -0.000104174 0)
(-1.9679 0.00111914 0)
(-1.99296 0.000297701 0)
(-1.90373 -0.000208331 0)
(-1.97973 -0.000594754 0)
(-1.95599 -0.000342108 0)
(-1.96991 -0.000292319 0)
(-1.96094 -0.000968983 0)
(-1.96631 -0.00108613 0)
(-1.95573 0.000155701 0)
(-1.9682 0.000831264 0)
(-1.9487 -0.000437375 0)
(-1.96148 0.000509843 0)
(-1.96729 0.000924136 0)
(-1.96237 -0.000125481 0)
(-1.9628 -0.000247961 0)
(-1.95334 0.000405015 0)
(-1.96527 0.000642886 0)
(-1.96244 0.000667131 0)
(-1.96121 7.6248e-05 0)
(-1.96258 -0.000100768 0)
(-1.95642 -0.00072587 0)
(-1.9711 -0.000741766 0)
(-1.9389 0.000366361 0)
(-1.96886 8.1618e-05 0)
(-1.97621 -0.000415607 0)
(-1.93658 0.0001066 0)
(-1.98031 0.000156823 0)
(-1.94781 0.000499469 0)
(-1.99952 2.92752e-07 0)
(-1.88886 -0.000642228 0)
(-1.9913 -0.00056083 0)
(-1.95977 -0.000753814 0)
(-1.96554 -0.000507662 0)
(-1.95548 -0.000100868 0)
(-1.97054 0.00056235 0)
(-1.95071 0.00112192 0)
(-1.97208 0.000484656 0)
(-1.94987 -0.000372678 0)
(-1.96871 -0.000156463 0)
(-1.95801 -0.000322391 0)
(-1.96215 4.62796e-05 0)
(-1.96097 0.000255313 0)
(-1.96308 0.000171333 0)
(-1.95865 0.000291078 0)
(-1.96763 7.25562e-05 0)
(-1.95726 -0.000315227 0)
(-1.96177 -0.000836142 0)
(-1.95442 -0.000593692 0)
(-1.96805 0.000150266 0)
(-1.95658 0.000221911 0)
(-1.9665 -2.30027e-05 0)
(-1.96117 0.000262468 0)
(-1.96944 0.000810073 0)
(-1.93177 0.000469005 0)
(-1.97898 -4.17749e-05 0)
(-1.94893 0.000232669 0)
(-1.96819 0.000237809 0)
(-1.97216 0.000338299 0)
(-1.9482 0.0005413 0)
(-1.97004 0.000337942 0)
(-1.95223 0.000550336 0)
(-1.96362 0.000783391 0)
(-1.96198 0.000939448 0)
(-1.96141 0.00147087 0)
(-1.97015 0.00145843 0)
(-1.94036 0.000401198 0)
(-1.96538 -0.000343805 0)
(-1.97026 -0.00158566 0)
(-1.96085 -0.00360432 0)
(-1.95713 -0.00642533 0)
(-1.97687 -0.0101364 0)
(-1.97793 -0.0149545 0)
(-1.9875 -0.0213625 0)
(-2.00127 -0.0296708 0)
(-2.01986 -0.0401161 0)
(-2.04454 -0.0527621 0)
(-2.07625 -0.0673689 0)
(-2.11579 -0.0832765 0)
(-2.16364 -0.0993267 0)
(-2.21946 -0.113848 0)
(-2.28186 -0.124505 0)
(-2.34998 -0.127938 0)
(-2.41796 -0.119284 0)
(-2.47786 -0.091799 0)
(-2.52332 -0.0365401 0)
(-2.52812 0.0609988 0)
(-2.45893 0.220061 0)
(-2.34189 0.435231 0)
(-1.9723 0.00195785 0)
(-1.9562 0.000933886 0)
(-1.96522 -0.000126248 0)
(-1.96364 -0.000574192 0)
(-1.9588 0.000373203 0)
(-1.96361 -0.00020001 0)
(-1.95706 -0.000207179 0)
(-1.96363 8.68371e-05 0)
(-1.97318 -0.000129783 0)
(-1.93734 0.000298808 0)
(-1.97672 -0.000419942 0)
(-1.94439 0.000119272 0)
(-1.97077 0.000215074 0)
(-1.98409 0.00032915 0)
(-1.91368 0.000232251 0)
(-1.98337 -0.00065802 0)
(-1.95438 5.66273e-06 0)
(-1.96726 -0.000407913 0)
(-1.96094 -0.00141834 0)
(-1.96444 -0.00105098 0)
(-1.95785 0.000386103 0)
(-1.96971 0.000561794 0)
(-1.93917 -0.000724585 0)
(-1.96396 0.000775657 0)
(-1.96539 0.000977834 0)
(-1.96226 -0.000183311 0)
(-1.96147 0.000155605 0)
(-1.9571 0.000478827 0)
(-1.96531 0.000516467 0)
(-1.95517 0.000222957 0)
(-1.96594 -0.000100822 0)
(-1.95578 0.000420494 0)
(-1.96011 -0.000829364 0)
(-1.96339 -0.00115899 0)
(-1.95321 0.000426716 0)
(-1.96572 0.000132207 0)
(-1.98512 -0.000336453 0)
(-1.92111 4.55784e-05 0)
(-1.9824 0.000306942 0)
(-1.93136 -0.000141933 0)
(-2.01077 -0.000520157 0)
(-1.88722 -3.9393e-06 0)
(-1.9954 -0.000187897 0)
(-1.95728 -0.000250643 0)
(-1.96558 -0.000391465 0)
(-1.96226 -9.98927e-05 0)
(-1.96716 0.000921808 0)
(-1.96155 0.000969488 0)
(-1.97232 0.000666112 0)
(-1.93804 3.09497e-05 0)
(-1.97016 -0.000735771 0)
(-1.96246 -0.00095526 0)
(-1.96121 0.000109362 0)
(-1.964 7.90271e-05 0)
(-1.96017 -6.54945e-05 0)
(-1.96052 0.000500135 0)
(-1.96552 0.000435014 0)
(-1.94972 -0.000362512 0)
(-1.96397 -0.00114763 0)
(-1.95374 -0.000727959 0)
(-1.96705 0.000115307 0)
(-1.95645 0.000561162 0)
(-1.96764 0.000266877 0)
(-1.95908 -0.000149637 0)
(-1.96308 0.000152415 0)
(-1.94214 0.000669978 0)
(-1.97219 0.000238502 0)
(-1.94867 0.000409265 0)
(-1.9651 0.000597176 0)
(-1.96938 0.000687428 0)
(-1.95715 0.000599783 0)
(-1.95924 4.87365e-05 0)
(-1.95759 0.000249343 0)
(-1.97101 0.000645825 0)
(-1.9507 0.000827999 0)
(-1.96803 0.00156973 0)
(-1.97165 0.00127025 0)
(-1.93701 0.000461524 0)
(-1.96473 0.000155055 0)
(-1.9754 -0.00111849 0)
(-1.94745 -0.00248135 0)
(-1.96677 -0.00443797 0)
(-1.9776 -0.00726926 0)
(-1.97914 -0.0107551 0)
(-1.99041 -0.0153578 0)
(-2.00548 -0.0212789 0)
(-2.02628 -0.028759 0)
(-2.0541 -0.0378599 0)
(-2.09009 -0.0484151 0)
(-2.13517 -0.0599329 0)
(-2.18977 -0.0715386 0)
(-2.25326 -0.0819497 0)
(-2.32335 -0.0894489 0)
(-2.39839 -0.091555 0)
(-2.4714 -0.0847815 0)
(-2.53302 -0.0647394 0)
(-2.57435 -0.0248333 0)
(-2.56794 0.0466266 0)
(-2.48074 0.161962 0)
(-2.34725 0.307701 0)
(-1.96956 -0.00107943 0)
(-1.95454 0.000573163 0)
(-1.96327 -0.00038441 0)
(-1.96347 -0.000812504 0)
(-1.95947 -0.000280698 0)
(-1.96597 -0.000343947 0)
(-1.95072 5.5835e-05 0)
(-1.96382 -7.91137e-06 0)
(-1.9639 -0.000321417 0)
(-1.95311 0.000396424 0)
(-1.96984 0.00014505 0)
(-1.95064 0.000213273 0)
(-1.96454 -0.000297354 0)
(-1.96703 -5.47989e-05 0)
(-1.94738 0.000418288 0)
(-1.96489 -0.000126623 0)
(-1.96072 -0.000333854 0)
(-1.96242 -0.000802438 0)
(-1.95742 -0.00110513 0)
(-1.97093 -0.000741406 0)
(-1.95025 0.000312861 0)
(-1.97951 0.000270583 0)
(-1.92051 -0.000632653 0)
(-1.97512 0.00039883 0)
(-1.96517 0.000650473 0)
(-1.95868 0.000221581 0)
(-1.9635 0.000634824 0)
(-1.96377 0.000704637 0)
(-1.94577 0.000217776 0)
(-1.96604 -0.000181484 0)
(-1.96444 9.68075e-05 0)
(-1.96212 0.000463476 0)
(-1.95329 -0.000666079 0)
(-1.96155 -0.000914662 0)
(-1.96018 -0.000268397 0)
(-1.96433 -0.000205303 0)
(-1.97014 -0.000197097 0)
(-1.95478 -4.21925e-05 0)
(-1.94489 0.000624434 0)
(-1.95107 -0.000229126 0)
(-1.98223 -0.00065471 0)
(-1.93485 0.000210142 0)
(-1.97378 0.000151771 0)
(-1.95317 0.000458757 0)
(-1.97055 -2.494e-05 0)
(-1.96424 -8.96821e-05 0)
(-1.96271 0.000930474 0)
(-1.9652 0.000728073 0)
(-1.96908 0.000810597 0)
(-1.94978 0.000297817 0)
(-1.95653 -0.00107486 0)
(-1.96135 -0.00121854 0)
(-1.96652 -0.000408954 0)
(-1.9647 -0.000119244 0)
(-1.95816 -0.00012104 0)
(-1.96471 0.000186059 0)
(-1.96248 0.000330018 0)
(-1.95071 -0.000163691 0)
(-1.9624 -0.000672886 0)
(-1.95468 -0.00071726 0)
(-1.96668 -0.000173786 0)
(-1.96044 0.000446052 0)
(-1.96832 0.000546763 0)
(-1.95709 -7.39533e-05 0)
(-1.95529 -0.000534858 0)
(-1.9486 0.000538966 0)
(-1.96881 0.000371897 0)
(-1.95392 0.00046665 0)
(-1.96302 0.00116924 0)
(-1.96575 0.00100425 0)
(-1.96122 0.000681171 0)
(-1.95161 -4.73573e-05 0)
(-1.96448 3.53362e-05 0)
(-1.96097 0.000833799 0)
(-1.96006 0.00095925 0)
(-1.9677 0.00100927 0)
(-1.97072 0.000688165 0)
(-1.92553 0.000850437 0)
(-1.97176 0.00069513 0)
(-1.97552 -0.000525449 0)
(-1.94531 -0.00122869 0)
(-1.97014 -0.00236844 0)
(-1.97576 -0.00418411 0)
(-1.97934 -0.0062514 0)
(-1.99137 -0.00889498 0)
(-2.0072 -0.0122097 0)
(-2.02914 -0.0164138 0)
(-2.05857 -0.0215674 0)
(-2.09678 -0.0276035 0)
(-2.14472 -0.0342476 0)
(-2.20275 -0.0410029 0)
(-2.27001 -0.0471283 0)
(-2.34369 -0.0516412 0)
(-2.42127 -0.0530852 0)
(-2.49553 -0.0493812 0)
(-2.55641 -0.0381758 0)
(-2.59246 -0.0155457 0)
(-2.57819 0.0261597 0)
(-2.48011 0.0939759 0)
(-2.33905 0.176038 0)
(-1.96762 -0.00222112 0)
(-1.95373 -7.5721e-05 0)
(-1.96524 -0.000598664 0)
(-1.95783 -0.000822723 0)
(-1.95891 -0.000771393 0)
(-1.96805 -0.000268356 0)
(-1.95178 0.000176152 0)
(-1.96628 -0.000170363 0)
(-1.95189 -9.81762e-05 0)
(-1.96793 0.000424416 0)
(-1.96171 7.55092e-05 0)
(-1.95327 0.000127739 0)
(-1.96173 3.74071e-05 0)
(-1.96207 -0.000259275 0)
(-1.96134 8.50122e-05 0)
(-1.95712 0.000170123 0)
(-1.95982 -0.000994424 0)
(-1.95997 -0.00118883 0)
(-1.96038 -0.000315396 0)
(-1.97235 -0.000237977 0)
(-1.93957 -0.000386646 0)
(-1.99181 0.000116677 1.37154e-42)
(-1.90437 6.1107e-05 0)
(-1.97821 -0.000255216 0)
(-1.96749 0.000368758 0)
(-1.9621 0.000520092 0)
(-1.96251 0.000874635 0)
(-1.97513 0.0010331 0)
(-1.91387 2.27329e-05 0)
(-1.98326 -0.000212944 0)
(-1.96181 0.000232011 0)
(-1.96845 0.000197945 0)
(-1.94412 -0.000270619 0)
(-1.96533 -0.000662682 0)
(-1.96415 -0.00095453 0)
(-1.9612 -0.000501811 0)
(-1.96075 -0.00011427 0)
(-1.96602 1.49457e-05 0)
(-1.94209 0.00071511 0)
(-1.96682 4.55991e-05 0)
(-1.96401 -0.000695447 0)
(-1.94974 0.000242 0)
(-1.96615 0.000873029 0)
(-1.9579 0.000538476 0)
(-1.9669 0.000397355 0)
(-1.96325 0.000229308 0)
(-1.96417 0.000600539 0)
(-1.96698 0.000480073 0)
(-1.9674 0.00072368 0)
(-1.94839 0.000188056 0)
(-1.96189 -0.000911538 0)
(-1.9452 -0.00107142 0)
(-1.97324 -0.00106044 0)
(-1.96488 -0.000335299 0)
(-1.96286 0.000276426 0)
(-1.9665 -4.0613e-05 0)
(-1.96667 -0.00032099 0)
(-1.9464 9.83507e-05 0)
(-1.95684 -0.000279009 0)
(-1.96114 -0.00047464 0)
(-1.97412 -0.000350691 0)
(-1.94637 -0.000186365 0)
(-1.97305 0.000634736 0)
(-1.95839 2.90998e-05 0)
(-1.954 -0.000490183 0)
(-1.95515 7.79798e-05 0)
(-1.96748 0.000359477 0)
(-1.95128 0.00103399 0)
(-1.97069 0.00107973 0)
(-1.95618 0.000789333 0)
(-1.96185 0.000698312 0)
(-1.95575 0.000198494 0)
(-1.96428 0.000496159 0)
(-1.95621 0.000795117 0)
(-1.96457 0.000602734 0)
(-1.96177 0.000420039 0)
(-1.9622 0.000618956 0)
(-1.94553 0.00125874 0)
(-1.96712 0.000924609 0)
(-1.96307 0.000210341 0)
(-1.95824 9.00205e-05 0)
(-1.96564 -0.000367099 0)
(-1.97373 -0.00100729 -1.18407e-41)
(-1.9794 -0.00160426 0)
(-1.99125 -0.00217848 0)
(-2.00748 -0.0027972 0)
(-2.02993 -0.00357709 0)
(-2.06009 -0.00458627 -5.39114e-41)
(-2.09929 -0.00586366 0)
(-2.14852 -0.00739603 0)
(-2.20808 -0.00912754 0)
(-2.27691 -0.0109526 0)
(-2.35196 -0.0126886 0)
(-2.43027 -0.0139853 -8.21982e-41)
(-2.50433 -0.0142115 0)
(-2.56414 -0.0125394 0)
(-2.59594 -0.00802302 -9.43102e-41)
(-2.57721 0.00197065 0)
(-2.47484 0.0202018 0)
(-2.3305 0.0427885 0)
(-1.96345 -0.00210996 0)
(-1.95642 -0.000900837 0)
(-1.9685 -0.00106342 0)
(-1.94913 -0.000702179 0)
(-1.9544 -0.00061142 0)
(-1.9702 0.000121363 0)
(-1.95639 0.000360868 0)
(-1.96467 -0.000457446 0)
(-1.95815 -0.000275657 0)
(-1.96479 -3.40993e-05 0)
(-1.95732 3.11201e-05 0)
(-1.95266 0.000410483 0)
(-1.96325 0.00045362 0)
(-1.95983 -5.21528e-05 0)
(-1.96478 -0.000452728 0)
(-1.95162 -0.000402829 0)
(-1.96173 -0.00123974 0)
(-1.95957 -0.00103665 0)
(-1.96144 0.000277169 0)
(-1.96497 0.00024803 0)
(-1.95446 -0.00126739 0)
(-1.98503 -0.000127411 -1.49771e-42)
(-1.91717 0.000680306 0)
(-1.96206 -0.000334739 0)
(-1.97964 0.000318016 0)
(-1.94919 0.000542157 0)
(-1.96765 0.000778092 0)
(-1.97259 0.000801799 0)
(-1.91464 0.000107473 0)
(-1.98234 0.000170824 0)
(-1.9621 0.000363019 0)
(-1.96451 3.70787e-06 0)
(-1.95083 -0.000252191 0)
(-1.9647 -0.000577158 0)
(-1.95939 -0.000825612 0)
(-1.96179 -0.000723491 0)
(-1.96284 0.000124766 0)
(-1.95801 0.000194251 0)
(-1.95601 0.000258573 0)
(-1.96696 6.29034e-05 0)
(-1.9657 -0.000637634 0)
(-1.93867 0.000453945 0)
(-1.96717 0.00159023 0)
(-1.96136 0.000573318 0)
(-1.966 0.000636614 0)
(-1.96296 0.000549527 0)
(-1.96352 0.000456607 0)
(-1.96936 8.43006e-05 0)
(-1.95936 0.000255104 0)
(-1.95026 -0.000122881 0)
(-1.98226 -0.000766796 0)
(-1.91907 -0.000912895 0)
(-1.98041 -0.00104241 0)
(-1.95689 -0.000156985 0)
(-1.97192 0.000306574 0)
(-1.95773 -0.000239401 0)
(-1.97199 -0.000590006 0)
(-1.94736 0.000296292 0)
(-1.94677 -0.000237024 0)
(-1.97535 -0.000517729 0)
(-1.98211 -0.000428673 0)
(-1.91658 -0.000291636 0)
(-1.98108 3.29987e-05 0)
(-1.95681 -4.65794e-05 0)
(-1.96094 0.00020143 0)
(-1.95646 -0.000306015 0)
(-1.96683 0.000404741 0)
(-1.95136 0.00162325 0)
(-1.97387 0.000771441 0)
(-1.94526 0.000229352 0)
(-1.96726 0.000586964 0)
(-1.95683 0.000650979 0)
(-1.9637 0.00103036 0)
(-1.96065 0.000547315 0)
(-1.95437 3.1882e-05 0)
(-1.96216 0.000341564 0)
(-1.95571 0.00082433 0)
(-1.96737 0.00117696 0)
(-1.95434 0.00111255 0)
(-1.9563 0.0010213 0)
(-1.96346 0.00133539 0)
(-1.96564 0.00166166 0)
(-1.97146 0.00217521 2.55694e-41)
(-1.97921 0.00309584 0)
(-1.99077 0.00462788 0)
(-2.00697 0.00673112 0)
(-2.02943 0.00941322 0)
(-2.05956 0.0126 1.48112e-40)
(-2.09869 0.0161507 0)
(-2.14782 0.019806 0)
(-2.20729 0.0231586 0)
(-2.2761 0.0256507 0)
(-2.35121 0.0266359 0)
(-2.4298 0.0253311 1.48883e-40)
(-2.50423 0.0208589 0)
(-2.56431 0.0126793 0)
(-2.59744 -0.00111249 -1.30773e-41)
(-2.57736 -0.0233075 0)
(-2.47601 -0.0554175 0)
(-2.33208 -0.091325 0)
(-1.95807 -0.00197246 0)
(-1.96064 -0.0016215 0)
(-1.96527 -0.00161654 0)
(-1.95239 -0.000615208 0)
(-1.9567 6.7858e-05 0)
(-1.96511 0.000603855 0)
(-1.95658 0.000421833 0)
(-1.96396 -0.000662189 0)
(-1.95886 -0.000911704 0)
(-1.9631 -0.000739059 0)
(-1.95591 0.000353828 0)
(-1.95658 0.00103639 0)
(-1.9641 0.000742195 0)
(-1.95365 -0.000147595 0)
(-1.96363 -0.000826402 0)
(-1.96023 -0.000801867 0)
(-1.95371 -0.00128691 0)
(-1.96435 -0.000599658 0)
(-1.95998 0.000523254 0)
(-1.96366 0.000441753 0)
(-1.95476 -0.00141828 0)
(-1.97491 -0.000631596 0)
(-1.95037 0.000703919 0)
(-1.94873 1.87616e-05 0)
(-1.98865 0.000469649 0)
(-1.92103 0.000733972 0)
(-1.97391 0.000247278 0)
(-1.96781 0.000326888 0)
(-1.94746 0.000269834 0)
(-1.9626 0.000520393 0)
(-1.96691 0.000729085 0)
(-1.95555 -0.000275141 0)
(-1.95991 -0.000639792 0)
(-1.96232 -0.000178656 0)
(-1.96114 -0.000209169 0)
(-1.96461 -0.000866452 0)
(-1.95847 9.81411e-06 0)
(-1.9588 0.00036096 0)
(-1.95863 8.01827e-05 0)
(-1.96879 -0.000347077 0)
(-1.95846 -0.000457253 0)
(-1.95795 0.000854863 0)
(-1.95506 0.00194429 0)
(-1.96263 0.00095402 0)
(-1.96552 0.000353225 0)
(-1.96095 0.000670848 0)
(-1.96575 0.000771907 0)
(-1.97222 -0.000284832 0)
(-1.947 -0.000250008 0)
(-1.9728 -0.000732166 0)
(-1.95999 -0.00114227 0)
(-1.93586 -0.000785609 0)
(-1.97279 -0.000286415 0)
(-1.95075 0.000341743 0)
(-1.97707 -0.000687903 0)
(-1.94324 -0.000446878 0)
(-1.96759 5.10929e-06 0)
(-1.96169 0.000371467 0)
(-1.95571 -0.00020914 0)
(-1.95739 -0.000805391 0)
(-1.98437 -0.000484696 0)
(-1.92419 -5.65012e-05 0)
(-1.98402 -0.000419839 0)
(-1.94652 -0.000234753 0)
(-1.97165 0.000527251 0)
(-1.95338 -0.000147538 0)
(-1.96496 0.000505354 0)
(-1.95017 0.00158374 0)