/*--------------------------------*- C++ -*----------------------------------*\
| =========                 |                                                 |
| \\      /  F ield         | OpenFOAM: The Open Source CFD Toolbox           |
|  \\    /   O peration     | Version:  2.1.0                                 |
|   \\  /    A nd           | Web:      www.OpenFOAM.org                      |
|    \\/     M anipulation  |                                                 |
\*---------------------------------------------------------------------------*/
FoamFile
{
    version     2.0;
    format      ascii;
    class       volScalarField;
    location    "0.2";
    object      C1;
}
// * * * * * * * * * * * * * * * * * * * * * * * * * * * * * * * * * * * * * //

dimensions      [0 0 0 0 0 0 0];

internalField   nonuniform List<scalar> 
6400
(
1.492e-11
1.78323e-11
2.13269e-11
2.54163e-11
3.02007e-11
3.57922e-11
4.23154e-11
4.99102e-11
5.87327e-11
6.89578e-11
8.078e-11
9.44155e-11
1.10104e-10
1.28108e-10
1.4872e-10
1.72256e-10
1.99062e-10
2.29515e-10
2.64022e-10
3.03021e-10
3.46982e-10
3.96406e-10
4.51824e-10
5.13795e-10
5.82904e-10
6.59759e-10
7.44987e-10
8.39231e-10
9.43143e-10
1.05738e-09
1.18258e-09
1.31938e-09
1.4684e-09
1.63019e-09
1.8053e-09
1.99416e-09
2.19717e-09
2.41461e-09
2.64665e-09
2.89333e-09
3.15453e-09
3.42997e-09
3.71917e-09
4.02145e-09
4.33588e-09
4.66133e-09
4.99638e-09
5.33937e-09
5.68838e-09
6.04132e-09
6.39584e-09
6.74923e-09
7.09856e-09
7.44084e-09
7.77297e-09
8.09177e-09
8.3939e-09
8.67592e-09
8.93439e-09
9.1659e-09
9.36718e-09
9.53511e-09
9.66678e-09
9.75958e-09
9.8112e-09
9.81972e-09
9.78364e-09
9.70193e-09
9.57412e-09
9.40026e-09
9.18096e-09
8.91738e-09
8.61121e-09
8.26467e-09
7.8805e-09
7.46196e-09
7.01289e-09
6.5376e-09
6.04083e-09
5.52771e-09
5.00371e-09
4.47459e-09
3.94644e-09
3.42563e-09
2.91891e-09
2.43341e-09
1.97648e-09
1.55558e-09
1.178e-09
8.50374e-10
5.77982e-10
3.63845e-10
2.07964e-10
1.06441e-10
4.98508e-11
2.32858e-11
9.89675e-12
3.34331e-12
8.01248e-13
1.27697e-13
3.73731e-11
4.46798e-11
5.33691e-11
6.35038e-11
7.53295e-11
8.91172e-11
1.05167e-10
1.23816e-10
1.45437e-10
1.70447e-10
1.99311e-10
2.32541e-10
2.70706e-10
3.1443e-10
3.64397e-10
4.21356e-10
4.8612e-10
5.59571e-10
6.4266e-10
7.36407e-10
8.41904e-10
9.60317e-10
1.09288e-09
1.24089e-09
1.40569e-09
1.58869e-09
1.79133e-09
2.0151e-09
2.26147e-09
2.53195e-09
2.828e-09
3.15109e-09
3.50257e-09
3.88375e-09
4.2958e-09
4.73976e-09
5.21645e-09
5.72652e-09
6.27031e-09
6.84791e-09
7.45902e-09
8.10298e-09
8.77867e-09
9.48451e-09
1.02184e-08
1.09776e-08
1.17589e-08
1.25584e-08
1.33716e-08
1.41933e-08
1.5018e-08
1.58395e-08
1.66514e-08
1.74466e-08
1.82176e-08
1.8957e-08
1.96568e-08
2.03089e-08
2.09052e-08
2.14377e-08
2.18986e-08
2.22806e-08
2.25768e-08
2.27813e-08
2.28887e-08
2.28944e-08
2.27952e-08
2.25888e-08
2.22743e-08
2.18522e-08
2.1324e-08
2.0693e-08
1.99632e-08
1.91404e-08
1.82309e-08
1.72425e-08
1.61842e-08
1.5066e-08
1.38987e-08
1.26941e-08
1.14648e-08
1.02242e-08
8.98648e-09
7.76682e-09
6.5815e-09
5.44785e-09
4.38417e-09
3.40934e-09
2.54201e-09
1.79911e-09
1.19359e-09
7.31315e-10
4.07805e-10
2.05844e-10
9.67052e-11
4.67127e-11
2.09131e-11
8.07126e-12
2.63392e-12
7.71086e-13
1.0348e-10
1.23616e-10
1.47493e-10
1.75307e-10
2.0772e-10
2.45463e-10
2.89346e-10
3.40272e-10
3.99249e-10
4.67396e-10
5.45958e-10
6.36312e-10
7.39978e-10
8.58626e-10
9.94087e-10
1.14836e-09
1.32361e-09
1.52219e-09
1.74664e-09
1.99966e-09
2.28414e-09
2.60317e-09
2.96001e-09
3.35808e-09
3.80097e-09
4.29241e-09
4.83621e-09
5.43626e-09
6.09652e-09
6.82092e-09
7.61336e-09
8.47766e-09
9.41747e-09
1.04362e-08
1.1537e-08
1.27225e-08
1.39951e-08
1.53564e-08
1.68074e-08
1.83484e-08
1.99788e-08
2.16969e-08
2.34999e-08
2.53838e-08
2.73434e-08
2.93718e-08
3.14608e-08
3.36006e-08
3.57797e-08
3.79849e-08
4.02017e-08
4.24144e-08
4.46062e-08
4.67587e-08
4.88524e-08
5.08669e-08
5.27813e-08
5.45739e-08
5.6223e-08
5.77069e-08
5.90047e-08
6.00964e-08
6.09634e-08
6.15891e-08
6.19583e-08
6.20584e-08
6.18797e-08
6.14155e-08
6.06625e-08
5.96207e-08
5.8294e-08
5.66893e-08
5.48171e-08
5.26911e-08
5.03272e-08
4.7744e-08
4.49633e-08
4.20094e-08
3.8909e-08
3.56911e-08
3.23869e-08
2.90304e-08
2.56586e-08
2.23116e-08
1.90333e-08
1.58716e-08
1.28788e-08
1.01101e-08
7.62251e-09
5.46946e-09
3.69429e-09
2.32042e-09
1.34103e-09
7.12666e-10
3.59949e-10
1.90919e-10
9.50016e-11
4.32164e-11
1.82697e-11
7.91168e-12
2.68769e-10
3.20634e-10
3.82124e-10
4.53756e-10
5.3719e-10
6.3428e-10
7.47084e-10
8.77899e-10
1.02928e-09
1.20409e-09
1.40546e-09
1.63691e-09
1.90228e-09
2.20582e-09
2.55217e-09
2.94639e-09
3.39399e-09
3.90093e-09
4.47363e-09
5.11898e-09
5.84434e-09
6.65751e-09
7.56675e-09
8.58074e-09
9.70861e-09
1.09598e-08
1.23441e-08
1.38713e-08
1.55517e-08
1.73952e-08
1.94119e-08
2.16116e-08
2.40038e-08
2.65975e-08
2.94009e-08
3.24213e-08
3.56649e-08
3.91367e-08
4.28398e-08
4.67757e-08
5.09437e-08
5.53407e-08
5.99609e-08
6.47958e-08
6.98334e-08
7.50586e-08
8.04527e-08
8.59931e-08
9.16539e-08
9.74053e-08
1.03213e-07
1.09039e-07
1.14842e-07
1.20577e-07
1.26197e-07
1.31653e-07
1.36891e-07
1.41858e-07
1.46499e-07
1.5076e-07
1.54585e-07
1.57924e-07
1.60726e-07
1.62946e-07
1.64542e-07
1.65477e-07
1.65721e-07
1.6525e-07
1.6405e-07
1.62111e-07
1.59436e-07
1.56034e-07
1.51921e-07
1.47122e-07
1.41667e-07
1.35589e-07
1.2893e-07
1.21737e-07
1.1406e-07
1.05956e-07
9.74878e-08
8.87256e-08
7.9748e-08
7.06452e-08
6.15222e-08
5.25016e-08
4.37267e-08
3.53632e-08
2.75961e-08
2.06204e-08
1.46211e-08
9.74337e-09
6.05493e-09
3.5122e-09
1.95922e-09
1.14132e-09
6.32977e-10
3.31923e-10
1.69639e-10
9.36092e-11
6.43368e-10
7.66279e-10
9.12125e-10
1.08217e-09
1.28026e-09
1.51074e-09
1.77845e-09
2.08879e-09
2.44779e-09
2.86215e-09
3.33933e-09
3.88756e-09
4.51592e-09
5.23442e-09
6.05401e-09
6.98663e-09
8.04531e-09
9.24413e-09
1.05983e-08
1.21242e-08
1.38392e-08
1.5762e-08
1.79123e-08
2.03108e-08
2.29792e-08
2.59403e-08
2.92175e-08
3.28348e-08
3.68168e-08
4.11881e-08
4.59737e-08
5.11979e-08
5.68848e-08
6.30572e-08
6.97369e-08
7.69436e-08
8.4695e-08
9.3006e-08
1.01888e-07
1.11349e-07
1.21392e-07
1.32016e-07
1.43213e-07
1.5497e-07
1.67267e-07
1.80076e-07
1.93361e-07
2.07081e-07
2.21181e-07
2.35604e-07
2.50277e-07
2.65123e-07
2.80054e-07
2.94974e-07
3.09781e-07
3.24365e-07
3.38609e-07
3.52393e-07
3.6559e-07
3.78072e-07
3.89708e-07
4.00371e-07
4.09934e-07
4.18277e-07
4.25285e-07
4.30849e-07
4.34871e-07
4.37265e-07
4.37959e-07
4.36898e-07
4.34039e-07
4.29361e-07
4.22853e-07
4.1452e-07
4.04381e-07
3.92464e-07
3.78807e-07
3.63457e-07
3.46465e-07
3.27891e-07
3.07809e-07
2.86306e-07
2.63492e-07
2.39513e-07
2.14566e-07
1.88915e-07
1.62912e-07
1.37014e-07
1.118e-07
8.79521e-08
6.6228e-08
4.73732e-08
3.19973e-08
2.04203e-08
1.25731e-08
7.9671e-09
4.89146e-09
2.89854e-09
1.7135e-09
1.10781e-09
1.41041e-09
1.67714e-09
1.99402e-09
2.36397e-09
2.79523e-09
3.29713e-09
3.88016e-09
4.55606e-09
5.33791e-09
6.24031e-09
7.27945e-09
8.4733e-09
9.84167e-09
1.14064e-08
1.31914e-08
1.52228e-08
1.75292e-08
2.01415e-08
2.30932e-08
2.64202e-08
3.01613e-08
3.43576e-08
3.90531e-08
4.42941e-08
5.01294e-08
5.66103e-08
6.37903e-08
7.17244e-08
8.04693e-08
9.0083e-08
1.00624e-07
1.12151e-07
1.24723e-07
1.38398e-07
1.5323e-07
1.69274e-07
1.8658e-07
2.05192e-07
2.2515e-07
2.46488e-07
2.69232e-07
2.93398e-07
3.18993e-07
3.46012e-07
3.74438e-07
4.0424e-07
4.35371e-07
4.67769e-07
5.01356e-07
5.36034e-07
5.71687e-07
6.08179e-07
6.45354e-07
6.8304e-07
7.21042e-07
7.59148e-07
7.9713e-07
8.34745e-07
8.71733e-07
9.07821e-07
9.42723e-07
9.76148e-07
1.0078e-06
1.03737e-06
1.06457e-06
1.0891e-06
1.11067e-06
1.12899e-06
1.1438e-06
1.15487e-06
1.16196e-06
1.16489e-06
1.16349e-06
1.1576e-06
1.14709e-06
1.13186e-06
1.11178e-06
1.08678e-06
1.05674e-06
1.02154e-06
9.81061e-07
9.35186e-07
8.83798e-07
8.26834e-07
7.64366e-07
6.96661e-07
6.24254e-07
5.48062e-07
4.69478e-07
3.9045e-07
3.13485e-07
2.41538e-07
1.77708e-07
1.24763e-07
8.45073e-08
5.78213e-08
3.90058e-08
2.57117e-08
1.70602e-08
1.22832e-08
2.80233e-09
3.32791e-09
3.95315e-09
4.68414e-09
5.53704e-09
6.53027e-09
7.68456e-09
9.02318e-09
1.05722e-08
1.23605e-08
1.44207e-08
1.67884e-08
1.95034e-08
2.26095e-08
2.61548e-08
3.01921e-08
3.47789e-08
3.99779e-08
4.58572e-08
5.24902e-08
5.99561e-08
6.83397e-08
7.77319e-08
8.82288e-08
9.99329e-08
1.12952e-07
1.274e-07
1.43396e-07
1.61063e-07
1.80529e-07
2.01924e-07
2.25383e-07
2.51042e-07
2.79038e-07
3.09507e-07
3.42586e-07
3.78405e-07
4.17092e-07
4.5877e-07
5.0355e-07
5.51536e-07
6.02817e-07
6.5747e-07
7.15553e-07
7.77106e-07
8.42144e-07
9.10662e-07
9.82625e-07
1.05797e-06
1.1366e-06
1.21839e-06
1.30317e-06
1.39074e-06
1.48085e-06
1.57322e-06
1.66753e-06
1.76341e-06
1.86045e-06
1.95821e-06
2.05619e-06
2.15386e-06
2.25066e-06
2.34598e-06
2.43919e-06
2.52966e-06
2.61669e-06
2.69955e-06
2.77754e-06
2.84992e-06
2.91597e-06
2.97493e-06
3.02606e-06
3.06861e-06
3.10183e-06
3.12498e-06
3.13736e-06
3.13828e-06
3.12705e-06
3.10293e-06
3.06508e-06
3.01257e-06
2.9443e-06
2.8589e-06
2.75463e-06
2.62993e-06
2.48358e-06
2.31482e-06
2.12382e-06
1.91209e-06
1.6829e-06
1.4418e-06
1.19682e-06
9.5839e-07
7.38656e-07
5.49655e-07
4.0486e-07
2.9817e-07
2.16153e-07
1.57721e-07
1.226e-07
4.96849e-09
5.89672e-09
7.00214e-09
8.29639e-09
9.80822e-09
1.15704e-08
1.36202e-08
1.59991e-08
1.8754e-08
2.19374e-08
2.56077e-08
2.98299e-08
3.46762e-08
4.02266e-08
4.65692e-08
5.38008e-08
6.20279e-08
7.13666e-08
8.19435e-08
9.38962e-08
1.07374e-07
1.22537e-07
1.39559e-07
1.58624e-07
1.79932e-07
2.03692e-07
2.30128e-07
2.59478e-07
2.91989e-07
3.27921e-07
3.67548e-07
4.11151e-07
4.59023e-07
5.11462e-07
5.68778e-07
6.31281e-07
6.99288e-07
7.73114e-07
8.53075e-07
9.3948e-07
1.03263e-06
1.13283e-06
1.24034e-06
1.35544e-06
1.47835e-06
1.6093e-06
1.74846e-06
1.89599e-06
2.05198e-06
2.2165e-06
2.38957e-06
2.57113e-06
2.76111e-06
2.95932e-06
3.16554e-06
3.37947e-06
3.60074e-06
3.82888e-06
4.06336e-06
4.30354e-06
4.54873e-06
4.7981e-06
5.05077e-06
5.30573e-06
5.56192e-06
5.81812e-06
6.07304e-06
6.32538e-06
6.57373e-06
6.81665e-06
7.05265e-06
7.28017e-06
7.49701e-06
7.70006e-06
7.88694e-06
8.05519e-06
8.20225e-06
8.3255e-06
8.42234e-06
8.4902e-06
8.52667e-06
8.52964e-06
8.49741e-06
8.4222e-06
8.2954e-06
8.10933e-06
7.85498e-06
7.52474e-06
7.11306e-06
6.61757e-06
6.0408e-06
5.39197e-06
4.68869e-06
3.95818e-06
3.23721e-06
2.5797e-06
2.06213e-06
1.63224e-06
1.29326e-06
1.06594e-06
7.72097e-09
9.16807e-09
1.08934e-08
1.29171e-08
1.5285e-08
1.80495e-08
2.12701e-08
2.50138e-08
2.93562e-08
3.43823e-08
4.0187e-08
4.68766e-08
5.45695e-08
6.33972e-08
7.35056e-08
8.50558e-08
9.82254e-08
1.1321e-07
1.30223e-07
1.49499e-07
1.71293e-07
1.95882e-07
2.23566e-07
2.54671e-07
2.89547e-07
3.28568e-07
3.72137e-07
4.20684e-07
4.74666e-07
5.34569e-07
6.00903e-07
6.74211e-07
7.55058e-07
8.44038e-07
9.41769e-07
1.04889e-06
1.16607e-06
1.29398e-06
1.43333e-06
1.58482e-06
1.74918e-06
1.92712e-06
2.11939e-06
2.32669e-06
2.54975e-06
2.78926e-06
3.04589e-06
3.32031e-06
3.61311e-06
3.92487e-06
4.2561e-06
4.60728e-06
4.9788e-06
5.37099e-06
5.78409e-06
6.21827e-06
6.67359e-06
7.15003e-06
7.64746e-06
8.16566e-06
8.70429e-06
9.26294e-06
9.84108e-06
1.04381e-05
1.10526e-05
1.16831e-05
1.2328e-05
1.29857e-05
1.36541e-05
1.43308e-05
1.50131e-05
1.5698e-05
1.63828e-05
1.70651e-05
1.77409e-05
1.84059e-05
1.90554e-05
1.96839e-05
2.02853e-05
2.08522e-05
2.13767e-05
2.18491e-05
2.22589e-05
2.26003e-05
2.28679e-05
2.30548e-05
2.31244e-05
2.30427e-05
2.27791e-05
2.23039e-05
2.15913e-05
2.06216e-05
1.93839e-05
1.78793e-05
1.61274e-05
1.418e-05
1.21802e-05
1.05017e-05
8.98956e-06
7.7973e-06
1.0307e-08
1.22626e-08
1.45994e-08
1.73477e-08
2.05722e-08
2.43473e-08
2.87575e-08
3.38986e-08
3.98791e-08
4.68218e-08
5.48644e-08
6.41621e-08
7.48885e-08
8.72378e-08
1.01426e-07
1.17695e-07
1.36311e-07
1.5757e-07
1.81798e-07
2.09354e-07
2.40633e-07
2.76067e-07
3.16128e-07
3.61331e-07
4.12235e-07
4.69446e-07
5.3362e-07
6.05464e-07
6.85735e-07
7.7525e-07
8.74878e-07
9.85548e-07
1.10825e-06
1.24402e-06
1.39396e-06
1.55925e-06
1.7411e-06
1.94078e-06
2.15962e-06
2.39902e-06
2.6604e-06
2.94524e-06
3.25505e-06
3.59139e-06
3.95584e-06
4.35001e-06
4.77553e-06
5.23402e-06
5.72712e-06
6.25646e-06
6.82363e-06
7.43022e-06
8.07776e-06
8.76774e-06
9.5016e-06
1.02807e-05
1.11062e-05
1.19794e-05
1.29012e-05
1.38726e-05
1.48943e-05
1.59668e-05
1.70904e-05
1.82653e-05
1.94921e-05
2.0771e-05
2.21018e-05
2.34841e-05
2.49175e-05
2.64012e-05
2.79342e-05
2.95153e-05
3.11431e-05
3.28157e-05
3.45306e-05
3.62846e-05
3.8074e-05
3.98942e-05
4.17393e-05
4.3602e-05
4.54735e-05
4.73427e-05
4.91961e-05
5.10172e-05
5.27861e-05
5.44789e-05
5.60982e-05
5.76415e-05
5.90415e-05
6.02222e-05
6.11238e-05
6.16875e-05
6.18526e-05
6.15519e-05
6.07069e-05
5.92218e-05
5.69594e-05
5.37422e-05
4.99678e-05
4.58532e-05
1.15689e-08
1.38132e-08
1.65064e-08
1.96878e-08
2.34372e-08
2.78468e-08
3.3022e-08
3.90833e-08
4.6168e-08
5.44322e-08
6.40528e-08
7.523e-08
8.81897e-08
1.03186e-07
1.20506e-07
1.40468e-07
1.6343e-07
1.89793e-07
2.19999e-07
2.54543e-07
2.93969e-07
3.3888e-07
3.8994e-07
4.4788e-07
5.13498e-07
5.87671e-07
6.71352e-07
7.65579e-07
8.7148e-07
9.90273e-07
1.12328e-06
1.2719e-06
1.43768e-06
1.62224e-06
1.82732e-06
2.05477e-06
2.30657e-06
2.5848e-06
2.89165e-06
3.22946e-06
3.60064e-06
4.00774e-06
4.45342e-06
4.94042e-06
5.47162e-06
6.04994e-06
6.67844e-06
7.36023e-06
8.09847e-06
8.89643e-06
9.75737e-06
1.06846e-05
1.16815e-05
1.27514e-05
1.38977e-05
1.51237e-05
1.64328e-05
1.78281e-05
1.9313e-05
2.08907e-05
2.25642e-05
2.43367e-05
2.62112e-05
2.81906e-05
3.0278e-05
3.24762e-05
3.47879e-05
3.72158e-05
3.97626e-05
4.24309e-05
4.52234e-05
4.81427e-05
5.11913e-05
5.43717e-05
5.76861e-05
6.11363e-05
6.47239e-05
6.84502e-05
7.23154e-05
7.6319e-05
8.0459e-05
8.47316e-05
8.91309e-05
9.36482e-05
9.82716e-05
0.000102986
0.000107772
0.000112605
0.000117517
0.000122546
0.000127587
0.000132588
0.000137507
0.000142296
0.00014688
0.000151122
0.000154753
0.000157233
0.000157485
0.000153514
1.08793e-08
1.30518e-08
1.5674e-08
1.87892e-08
2.24818e-08
2.68501e-08
3.20077e-08
3.80853e-08
4.52329e-08
5.36227e-08
6.34513e-08
7.49434e-08
8.83543e-08
1.03974e-07
1.22132e-07
1.432e-07
1.67596e-07
1.95793e-07
2.2832e-07
2.6577e-07
3.08805e-07
3.58164e-07
4.14666e-07
4.79224e-07
5.52844e-07
6.36637e-07
7.31829e-07
8.39763e-07
9.61911e-07
1.09988e-06
1.25543e-06
1.43046e-06
1.62704e-06
1.84741e-06
2.09397e-06
2.36933e-06
2.67626e-06
3.01775e-06
3.39697e-06
3.8173e-06
4.28234e-06
4.79587e-06
5.3619e-06
5.98464e-06
6.6685e-06
7.41809e-06
8.23823e-06
9.13389e-06
1.01103e-05
1.11727e-05
1.23266e-05
1.35777e-05
1.49317e-05
1.63945e-05
1.79721e-05
1.96705e-05
2.14958e-05
2.34541e-05
2.55517e-05
2.77948e-05
3.01896e-05
3.27422e-05
3.5459e-05
3.83461e-05
4.14098e-05
4.46561e-05
4.80912e-05
5.17211e-05
5.55521e-05
5.95902e-05
6.38417e-05
6.83126e-05
7.30092e-05
7.79377e-05
8.3104e-05
8.85139e-05
9.41729e-05
0.000100086
0.000106258
0.000112691
0.000119388
0.000126348
0.000133568
0.000141045
0.000148767
0.000156722
0.000164891
0.000173252
0.00018178
0.000190439
0.000199318
0.000208365
0.000217471
0.00022656
0.000235518
0.000244131
0.000251985
0.00025826
0.000261313
0.000258053
8.6769e-09
1.04649e-08
1.26361e-08
1.52301e-08
1.8323e-08
2.20041e-08
2.63771e-08
3.15628e-08
3.77008e-08
4.49525e-08
5.35042e-08
6.35702e-08
7.53967e-08
8.9266e-08
1.05501e-07
1.24469e-07
1.46589e-07
1.72339e-07
2.02256e-07
2.36952e-07
2.77114e-07
3.23518e-07
3.77033e-07
4.38634e-07
5.09412e-07
5.90581e-07
6.83493e-07
7.89648e-07
9.10709e-07
1.04851e-06
1.20507e-06
1.3826e-06
1.58356e-06
1.81058e-06
2.06659e-06
2.35472e-06
2.67842e-06
3.04137e-06
3.44758e-06
3.90134e-06
4.40727e-06
4.9703e-06
5.5957e-06
6.28905e-06
7.05631e-06
7.90373e-06
8.83794e-06
9.86588e-06
1.09948e-05
1.22324e-05
1.35864e-05
1.50651e-05
1.6677e-05
1.84308e-05
2.03353e-05
2.23998e-05
2.46336e-05
2.70461e-05
2.96468e-05
3.24455e-05
3.54519e-05
3.86757e-05
4.21266e-05
4.58143e-05
4.97485e-05
5.39385e-05
5.83937e-05
6.31234e-05
6.81365e-05
7.34418e-05
7.90478e-05
8.4963e-05
9.11953e-05
9.77522e-05
0.000104641
0.000111868
0.000119439
0.000127358
0.00013563
0.000144255
0.000153235
0.000162566
0.000172243
0.000182257
0.000192594
0.000203238
0.000214164
0.000225346
0.000236748
0.00024833
0.000260051
0.000271948
0.000283988
0.000296041
0.000307986
0.000319606
0.000330485
0.000339809
0.000345917
0.000345466
5.95136e-09
7.21661e-09
8.76121e-09
1.06159e-08
1.28389e-08
1.54994e-08
1.86782e-08
2.24697e-08
2.69844e-08
3.23508e-08
3.87184e-08
4.62608e-08
5.51789e-08
6.57051e-08
7.81071e-08
9.26935e-08
1.09819e-07
1.29889e-07
1.53368e-07
1.80787e-07
2.1275e-07
2.49943e-07
2.93145e-07
3.43238e-07
4.01216e-07
4.68202e-07
5.45457e-07
6.34394e-07
7.36597e-07
8.53835e-07
9.88077e-07
1.14151e-06
1.31657e-06
1.51595e-06
1.7426e-06
1.99979e-06
2.2911e-06
2.62046e-06
2.99216e-06
3.41085e-06
3.88163e-06
4.40997e-06
5.00182e-06
5.66358e-06
6.40212e-06
7.2248e-06
8.13949e-06
9.15456e-06
1.02789e-05
1.15219e-05
1.28934e-05
1.4404e-05
1.60644e-05
1.7886e-05
1.98807e-05
2.20607e-05
2.44385e-05
2.70272e-05
2.984e-05
3.28903e-05
3.61918e-05
3.97584e-05
4.36038e-05
4.77418e-05
5.21863e-05
5.69506e-05
6.20481e-05
6.74917e-05
7.32939e-05
7.94666e-05
8.60212e-05
9.29684e-05
0.000100318
0.000108078
0.000116257
0.000124862
0.000133896
0.000143364
0.000153266
0.000163602
0.000174368
0.000185556
0.000197157
0.000209155
0.000221532
0.000234263
0.000247319
0.000260664
0.000274258
0.000288053
0.000301993
0.000316022
0.000330178
0.000344383
0.000358533
0.000372453
0.000385815
0.000397969
0.000407558
0.000411617
3.57131e-09
4.35295e-09
5.31125e-09
6.46653e-09
7.85742e-09
9.52979e-09
1.15377e-08
1.39448e-08
1.68259e-08
2.02685e-08
2.43753e-08
2.92664e-08
3.50817e-08
4.19843e-08
5.01635e-08
5.98394e-08
7.12663e-08
8.47386e-08
1.00595e-07
1.19228e-07
1.41084e-07
1.66679e-07
1.96603e-07
2.31527e-07
2.72221e-07
3.19555e-07
3.74523e-07
4.38246e-07
5.11995e-07
5.97204e-07
6.95488e-07
8.0866e-07
9.38757e-07
1.08805e-06
1.25909e-06
1.4547e-06
1.67803e-06
1.93256e-06
2.22215e-06
2.55107e-06
2.924e-06
3.34609e-06
3.82299e-06
4.36085e-06
4.96639e-06
5.64693e-06
6.41036e-06
7.26524e-06
8.22079e-06
9.28691e-06
1.04742e-05
1.1794e-05
1.32584e-05
1.48801e-05
1.66726e-05
1.86503e-05
2.0828e-05
2.32213e-05
2.58464e-05
2.87203e-05
3.18602e-05
3.5284e-05
3.90096e-05
4.30557e-05
4.74407e-05
5.21833e-05
5.73023e-05
6.28159e-05
6.87422e-05
7.5099e-05
8.1903e-05
8.91704e-05
9.69164e-05
0.000105155
0.000113898
0.000123157
0.00013294
0.000143255
0.000154104
0.00016549
0.00017741
0.000189857
0.000202822
0.000216288
0.000230234
0.000244633
0.000259451
0.000274645
0.000290167
0.000305959
0.000321956
0.000338084
0.000354262
0.000370533
0.000386851
0.000403099
0.000419055
0.000434272
0.000447772
0.000457283
1.90694e-09
2.3354e-09
2.86253e-09
3.50008e-09
4.27051e-09
5.20058e-09
6.32196e-09
7.67211e-09
9.29526e-09
1.12436e-08
1.35786e-08
1.63725e-08
1.97102e-08
2.36911e-08
2.84314e-08
3.40671e-08
4.07565e-08
4.86837e-08
5.80629e-08
6.91421e-08
8.22085e-08
9.75938e-08
1.15681e-07
1.3691e-07
1.61787e-07
1.90892e-07
2.2489e-07
2.6454e-07
3.10707e-07
3.64378e-07
4.26673e-07
4.98863e-07
5.82387e-07
6.7887e-07
7.90144e-07
9.18271e-07
1.06557e-06
1.23464e-06
1.42838e-06
1.65004e-06
1.90325e-06
2.19201e-06
2.52079e-06
2.89454e-06
3.31872e-06
3.79933e-06
4.34301e-06
4.95702e-06
5.64929e-06
6.4285e-06
7.30411e-06
8.28636e-06
9.38636e-06
1.06161e-05
1.19885e-05
1.35174e-05
1.52177e-05
1.7105e-05
1.91963e-05
2.15092e-05
2.40624e-05
2.68755e-05
2.9969e-05
3.33643e-05
3.70835e-05
4.11493e-05
4.55852e-05
5.0415e-05
5.56628e-05
6.1353e-05
6.751e-05
7.41581e-05
8.13212e-05
8.90227e-05
9.72856e-05
0.000106132
0.000115582
0.000125655
0.00013637
0.000147741
0.000159782
0.000172503
0.000185911
0.00020001
0.000214797
0.000230263
0.000246391
0.000263154
0.000280515
0.000298419
0.000316798
0.000335562
0.000354597
0.000373768
0.000393189
0.000412788
0.000432415
0.000451725
0.000469931
0.000485319
9.16827e-10
1.12765e-09
1.38783e-09
1.70344e-09
2.08614e-09
2.54983e-09
3.11104e-09
3.78939e-09
4.60815e-09
5.59494e-09
6.78242e-09
8.20923e-09
9.92093e-09
1.19712e-08
1.44233e-08
1.73513e-08
2.08421e-08
2.49976e-08
2.99365e-08
3.57976e-08
4.27421e-08
5.09576e-08
6.06618e-08
7.21067e-08
8.55837e-08
1.0143e-07
1.20032e-07
1.41837e-07
1.67359e-07
1.97186e-07
2.3199e-07
2.72543e-07
3.19721e-07
3.74525e-07
4.38092e-07
5.11711e-07
5.96846e-07
6.9515e-07
8.08491e-07
9.38973e-07
1.08897e-06
1.26113e-06
1.45845e-06
1.68425e-06
1.94228e-06
2.23667e-06
2.57207e-06
2.95359e-06
3.38692e-06
3.87836e-06
4.43484e-06
5.06399e-06
5.77421e-06
6.57468e-06
7.47546e-06
8.48748e-06
9.62264e-06
1.08939e-05
1.23152e-05
1.39016e-05
1.56694e-05
1.76359e-05
1.98197e-05
2.22407e-05
2.49199e-05
2.78797e-05
3.11437e-05
3.47366e-05
3.86843e-05
4.3014e-05
4.77535e-05
5.29321e-05
5.85795e-05
6.47265e-05
7.14047e-05
7.86461e-05
8.64834e-05
9.49501e-05
0.000104081
0.000113911
0.000124477
0.000135818
0.000147974
0.000160989
0.00017491
0.000189786
0.000205672
0.000222627
0.000240712
0.000259989
0.000280509
0.000302295
0.000325297
0.000349355
0.00037418
0.000399832
0.000426104
0.000452384
0.000477485
0.000499446
3.99912e-10
4.93704e-10
6.09854e-10
7.51177e-10
9.23132e-10
1.13223e-09
1.38622e-09
1.69437e-09
2.06769e-09
2.51934e-09
3.06493e-09
3.72301e-09
4.51558e-09
5.46868e-09
6.61307e-09
7.98506e-09
9.62744e-09
1.15905e-08
1.39333e-08
1.6725e-08
2.00468e-08
2.39931e-08
2.86746e-08
3.42197e-08
4.07781e-08
4.85235e-08
5.76575e-08
6.84135e-08
8.10612e-08
9.59118e-08
1.13324e-07
1.3371e-07
1.57544e-07
1.85368e-07
2.17804e-07
2.55563e-07
2.99456e-07
3.50406e-07
4.09465e-07
4.77826e-07
5.56843e-07
6.48048e-07
7.53174e-07
8.74175e-07
1.01325e-06
1.17288e-06
1.35583e-06
1.56522e-06
1.80453e-06
2.07764e-06
2.38887e-06
2.74301e-06
3.14541e-06
3.60195e-06
4.11915e-06
4.70421e-06
5.36506e-06
6.11045e-06
6.94995e-06
7.894e-06
8.95401e-06
1.01424e-05
1.14726e-05
1.29592e-05
1.4618e-05
1.6466e-05
1.85217e-05
2.08045e-05
2.33356e-05
2.61372e-05
2.92331e-05
3.26483e-05
3.64093e-05
4.05441e-05
4.50821e-05
5.00542e-05
5.54926e-05
6.14316e-05
6.79079e-05
7.49607e-05
8.26323e-05
9.09695e-05
0.000100025
0.000109858
0.000120539
0.000132157
0.00014482
0.000158678
0.000173935
0.000190892
0.000209976
0.000231768
0.000256954
0.000286137
0.000319168
0.00035541
0.000394676
0.0004349
0.000472614
0.000503595
1.61426e-10
1.99886e-10
2.47754e-10
3.06212e-10
3.77609e-10
4.64755e-10
5.71014e-10
7.00414e-10
8.57783e-10
1.04889e-09
1.28064e-09
1.56124e-09
1.90051e-09
2.31007e-09
2.80378e-09
3.39802e-09
4.1122e-09
4.96925e-09
5.99624e-09
7.22503e-09
8.69312e-09
1.04446e-08
1.2531e-08
1.50129e-08
1.79611e-08
2.14582e-08
2.56006e-08
3.05004e-08
3.6288e-08
4.31144e-08
5.11551e-08
6.06128e-08
7.17216e-08
8.47517e-08
1.00014e-07
1.17867e-07
1.3872e-07
1.63046e-07
1.91382e-07
2.24345e-07
2.62639e-07
3.07064e-07
3.58531e-07
4.18075e-07
4.86869e-07
5.6624e-07
6.57689e-07
7.62904e-07
8.8379e-07
1.02248e-06
1.18138e-06
1.36317e-06
1.57084e-06
1.80774e-06
2.0776e-06
2.38459e-06
2.73333e-06
3.12895e-06
3.57712e-06
4.08405e-06
4.65659e-06
5.30225e-06
6.02925e-06
6.84666e-06
7.76439e-06
8.79325e-06
9.94495e-06
1.12322e-05
1.26687e-05
1.42692e-05
1.60495e-05
1.80265e-05
2.02184e-05
2.26443e-05
2.53246e-05
2.8281e-05
3.15362e-05
3.51145e-05
3.90418e-05
4.33456e-05
4.80556e-05
5.32038e-05
5.88248e-05
6.49565e-05
7.16408e-05
7.89248e-05
8.68634e-05
9.55263e-05
0.000105019
0.000115538
0.000127495
0.000141768
0.000159987
0.000184642
0.000220055
0.000266686
0.000325392
0.000392147
0.000455014
0.000501338
7.05679e-11
8.75353e-11
1.0885e-10
1.35008e-10
1.67096e-10
2.0643e-10
2.5459e-10
3.13481e-10
3.85393e-10
4.7308e-10
5.79844e-10
7.09646e-10
8.67221e-10
1.05823e-09
1.28942e-09
1.56884e-09
1.90604e-09
2.31238e-09
2.80131e-09
3.38879e-09
4.09364e-09
4.93811e-09
5.94842e-09
7.15541e-09
8.59536e-09
1.03108e-08
1.23517e-08
1.47762e-08
1.76525e-08
2.10601e-08
2.50913e-08
2.98538e-08
3.54724e-08
4.20918e-08
4.98797e-08
5.90295e-08
6.97647e-08
8.23428e-08
9.70597e-08
1.14256e-07
1.3432e-07
1.577e-07
1.84905e-07
2.16517e-07
2.53199e-07
2.95704e-07
3.44887e-07
4.01715e-07
4.67284e-07
5.42829e-07
6.29743e-07
7.29594e-07
8.44144e-07
9.75367e-07
1.12549e-06
1.29698e-06
1.49261e-06
1.71544e-06
1.96885e-06
2.2566e-06
2.58283e-06
2.95208e-06
3.36941e-06
3.84037e-06
4.37112e-06
4.96834e-06
5.63931e-06
6.39194e-06
7.23477e-06
8.17705e-06
9.22872e-06
1.04005e-05
1.17036e-05
1.31505e-05
1.47539e-05
1.65275e-05
1.84859e-05
2.06446e-05
2.30199e-05
2.56294e-05
2.84916e-05
3.16263e-05
3.50548e-05
3.87994e-05
4.28835e-05
4.73311e-05
5.21654e-05
5.74076e-05
6.30787e-05
6.92158e-05
7.59507e-05
8.38581e-05
9.43488e-05
0.00010958
0.000133549
0.000170467
0.000230492
0.000322919
0.000425013
0.000495287
1.78253e-14
2.74918e-14
4.58322e-14
7.03803e-14
1.0075e-13
1.36333e-13
1.76332e-13
2.20093e-13
2.67623e-13
3.20276e-13
3.81708e-13
4.59454e-13
5.67966e-13
7.3508e-13
1.01648e-12
1.52932e-12
2.5313e-12
4.59821e-12
8.91196e-12
1.66347e-11
3.02063e-13
4.23557e-13
6.22613e-13
8.79763e-13
1.18586e-12
1.52985e-12
1.90006e-12
2.28698e-12
2.68724e-12
3.10826e-12
3.5741e-12
4.13447e-12
4.88141e-12
5.98381e-12
7.76267e-12
1.08599e-11
1.66181e-11
2.78881e-11
5.01262e-11
8.71378e-11
4.87806e-12
6.28865e-12
8.31363e-12
1.07947e-11
1.36292e-11
1.66866e-11
1.98359e-11
2.29733e-11
2.60516e-11
2.91076e-11
3.22941e-11
3.59245e-11
4.05507e-11
4.71226e-11
5.73311e-11
7.43471e-11
1.04422e-10
1.60077e-10
2.63289e-10
4.20625e-10
7.13063e-11
8.56983e-11
1.04698e-10
1.26527e-10
1.50243e-10
1.7467e-10
1.98641e-10
2.21248e-10
2.42053e-10
2.61244e-10
2.79783e-10
2.99575e-10
3.23754e-10
3.57284e-10
4.08294e-10
4.90735e-10
6.2989e-10
8.71892e-10
1.28764e-09
1.85341e-09
9.34304e-10
1.05907e-09
1.21479e-09
1.38349e-09
1.55675e-09
1.72544e-09
1.88101e-09
2.01706e-09
2.13061e-09
2.22296e-09
2.30023e-09
2.3735e-09
2.45965e-09
2.58283e-09
2.77848e-09
3.09951e-09
3.62796e-09
4.4891e-09
5.83053e-09
7.43689e-09
1.086e-08
1.17233e-08
1.27671e-08
1.38356e-08
1.48635e-08
1.57886e-08
1.6558e-08
1.71359e-08
1.75075e-08
1.76846e-08
1.77069e-08
1.76348e-08
1.75545e-08
1.7577e-08
1.78396e-08
1.85017e-08
1.97294e-08
2.16548e-08
2.42549e-08
2.71251e-08
1.10424e-07
1.1446e-07
1.19398e-07
1.24097e-07
1.28126e-07
1.31131e-07
1.32838e-07
1.33094e-07
1.31863e-07
1.29248e-07
1.25486e-07
1.20882e-07
1.15836e-07
1.10823e-07
1.06307e-07
1.02593e-07
9.95481e-08
9.62895e-08
9.1814e-08
8.9782e-08
9.64172e-07
9.66557e-07
9.72823e-07
9.76132e-07
9.74182e-07
9.65355e-07
9.48563e-07
9.23358e-07
8.89975e-07
8.49057e-07
8.01523e-07
7.48741e-07
6.92398e-07
6.34218e-07
5.75624e-07
5.16819e-07
4.552e-07
3.85936e-07
3.12976e-07
2.69181e-07
7.05168e-06
6.87926e-06
6.72074e-06
6.54588e-06
6.34636e-06
6.11702e-06
5.85539e-06
5.5598e-06
5.23143e-06
4.87238e-06
4.48572e-06
4.07566e-06
3.64738e-06
3.20592e-06
2.75586e-06
2.29993e-06
1.83279e-06
1.36207e-06
9.51631e-07
7.29425e-07
4.17168e-05
3.98222e-05
3.79522e-05
3.60557e-05
3.41194e-05
3.21271e-05
3.00719e-05
2.79466e-05
2.57539e-05
2.34926e-05
2.11641e-05
1.87696e-05
1.63123e-05
1.38042e-05
1.12604e-05
8.73381e-06
6.3012e-06
4.15265e-06
2.56336e-06
1.77937e-06
0.000143185
0.000135578
0.000127759
0.000119954
0.000112214
0.000104579
9.7052e-05
8.96142e-05
8.22262e-05
7.48338e-05
6.73626e-05
5.97326e-05
5.18448e-05
4.36354e-05
3.50703e-05
2.62872e-05
1.78878e-05
1.08402e-05
6.11405e-06
3.87285e-06
0.000244395
0.000232722
0.000220395
0.00020789
0.000195397
0.000183016
0.00017077
0.000158631
0.000146529
0.000134349
0.000121959
0.000109199
9.58824e-05
8.18569e-05
6.70487e-05
5.16068e-05
3.6228e-05
2.25233e-05
1.26666e-05
7.66863e-06
0.000332915
0.000319539
0.000304825
0.00028951
0.000273928
0.000258279
0.000242657
0.000227068
0.000211412
0.000195531
0.000179233
0.000162291
0.000144448
0.00012546
0.000105171
8.3656e-05
6.14958e-05
4.0322e-05
2.34467e-05
1.41572e-05
0.000404083
0.000391463
0.000376545
0.000360341
0.000343399
0.000326078
0.000308562
0.000290889
0.000272977
0.00025467
0.000235713
0.000215818
0.000194674
0.000171956
0.000147403
0.000120938
9.29255e-05
6.46949e-05
3.98333e-05
2.46094e-05
0.000457349
0.00044784
0.00043479
0.000419436
0.000402646
0.000385026
0.000366909
0.000348404
0.000329459
0.000309902
0.000289458
0.000267801
0.000244563
0.000219354
0.000191824
0.000161744
0.000129212
9.51702e-05
6.27841e-05
4.07808e-05
0.000493894
0.000489597
0.000480313
0.000467354
0.00045201
0.000435234
0.000417572
0.000399244
0.000380245
0.000360411
0.000339466
0.000317052
0.000292757
0.000266143
0.000236786
0.000204343
0.000168692
0.000130365
9.19093e-05
6.28047e-05
0.000515846
0.000518399
0.000514509
0.00050526
0.000492442
0.000477448
0.000461092
0.000443735
0.000425442
0.000406078
0.000385377
0.000362973
0.000338432
0.000311277
0.000281029
0.000247272
0.000209756
0.000168709
0.000126098
9.08373e-05
0.000526059
0.000536417
0.000539126
0.000534615
0.000525187
0.000512716
0.000498317
0.000482527
0.000465502
0.000447157
0.000427246
0.000405409
0.000381206
0.000354141
0.000323702
0.000289424
0.000251008
0.000208561
0.00016362
0.000124081
0.000528011
0.00054627
0.000556185
0.000557082
0.00055166
0.000542238
0.000530245
0.000516418
0.000501036
0.00048408
0.000465337
0.00044446
0.000421005
0.000394469
0.000364321
0.000330076
0.000291424
0.000248491
0.000202668
0.000161032
0.000525726
0.00055105
0.000568016
0.000574511
0.00057337
0.000567255
0.000557894
0.000546238
0.000532704
0.000517354
0.000500015
0.000480354
0.000457926
0.00043222
0.000402691
0.000368844
0.000330381
0.000287514
0.000241767
0.000199858
2.19596e-164
1.74523e-164
1.2125e-164
7.74771e-165
4.76031e-165
2.97047e-165
2.01935e-165
1.5965e-165
1.50872e-165
1.69639e-165
2.25661e-165
3.50684e-165
6.1189e-165
1.13244e-164
2.11488e-164
3.84911e-164
6.66031e-164
1.07165e-163
1.56021e-163
1.9679e-163
9.91551e-163
7.77487e-163
5.3423e-163
3.38235e-163
2.06282e-163
1.28073e-163
8.69061e-164
6.88006e-164
6.52023e-164
7.35163e-164
9.8071e-164
1.52962e-163
2.68179e-163
4.99169e-163
9.38214e-163
1.71986e-162
3.00024e-162
4.87287e-162
7.1732e-162
9.17045e-162
4.31435e-161
3.33418e-161
2.26388e-161
1.41953e-161
8.59175e-162
5.30724e-162
3.59542e-162