/*--------------------------------*- C++ -*----------------------------------*\
| =========                 |                                                 |
| \\      /  F ield         | OpenFOAM: The Open Source CFD Toolbox           |
|  \\    /   O peration     | Version:  2.1.0                                 |
|   \\  /    A nd           | Web:      www.OpenFOAM.org                      |
|    \\/     M anipulation  |                                                 |
\*---------------------------------------------------------------------------*/
FoamFile
{
    version     2.0;
    format      ascii;
    class       volScalarField;
    location    "0.2";
    object      C2;
}
// * * * * * * * * * * * * * * * * * * * * * * * * * * * * * * * * * * * * * //

dimensions      [0 0 0 0 0 0 0];

internalField   nonuniform List<scalar> 
6400
(
1.26682e-07
1.42638e-07
1.64662e-07
1.90748e-07
2.20814e-07
2.5525e-07
2.94599e-07
3.39484e-07
3.90601e-07
4.48721e-07
5.14697e-07
5.89468e-07
6.74069e-07
7.69637e-07
8.77417e-07
9.98771e-07
1.13518e-06
1.28828e-06
1.45981e-06
1.65167e-06
1.86594e-06
2.10483e-06
2.37073e-06
2.6662e-06
2.99399e-06
3.35702e-06
3.7584e-06
4.20144e-06
4.68962e-06
5.22663e-06
5.81633e-06
6.46276e-06
7.17015e-06
7.94286e-06
8.78543e-06
9.70252e-06
1.06989e-05
1.17794e-05
1.29489e-05
1.42124e-05
1.55748e-05
1.7041e-05
1.86156e-05
2.03033e-05
2.21084e-05
2.40351e-05
2.60869e-05
2.82672e-05
3.05787e-05
3.30236e-05
3.56033e-05
3.83185e-05
4.11688e-05
4.41531e-05
4.72688e-05
5.05123e-05
5.38787e-05
5.73612e-05
6.09516e-05
6.464e-05
6.84145e-05
7.22611e-05
7.61639e-05
8.01047e-05
8.40629e-05
8.80155e-05
9.19371e-05
9.58e-05
9.95736e-05
0.000103225
0.000106719
0.000110018
0.000113083
0.00011587
0.000118337
0.000120438
0.000122126
0.000123353
0.000124073
0.000124236
0.000123797
0.000122709
0.000120929
0.000118419
0.000115144
0.000111078
0.000106204
0.000100515
9.40232e-05
8.67571e-05
7.87703e-05
7.01462e-05
6.1009e-05
5.1545e-05
4.20248e-05
3.27639e-05
2.3977e-05
1.59388e-05
9.08255e-06
3.98732e-06
1.35797e-07
1.5317e-07
1.7687e-07
2.04845e-07
2.37052e-07
2.73922e-07
3.16035e-07
3.64054e-07
4.1872e-07
4.80852e-07
5.51357e-07
6.31231e-07
7.21574e-07
8.23592e-07
9.38605e-07
1.06806e-06
1.21353e-06
1.37672e-06
1.55951e-06
1.7639e-06
1.99208e-06
2.2464e-06
2.52937e-06
2.84372e-06
3.19235e-06
3.57833e-06
4.00497e-06
4.47574e-06
4.99434e-06
5.56465e-06
6.19076e-06
6.87692e-06
7.62759e-06
8.4474e-06
9.34111e-06
1.03136e-05
1.137e-05
1.25154e-05
1.3755e-05
1.50939e-05
1.65374e-05
1.80905e-05
1.97585e-05
2.15459e-05
2.34576e-05
2.54978e-05
2.76705e-05
2.99792e-05
3.24267e-05
3.50154e-05
3.77469e-05
4.0622e-05
4.36403e-05
4.68007e-05
5.01005e-05
5.35361e-05
5.71022e-05
6.07919e-05
6.45966e-05
6.8506e-05
7.25074e-05
7.65865e-05
8.07263e-05
8.49079e-05
8.91095e-05
9.33071e-05
9.7474e-05
0.000101581
0.000105595
0.000109483
0.000113206
0.000116726
0.000119999
0.000122981
0.000125626
0.000127885
0.000129709
0.000131047
0.000131847
0.000132058
0.000131628
0.000130509
0.000128651
0.000126012
0.000122551
0.000118236
0.000113044
0.000106966
0.000100007
9.2198e-05
8.35993e-05
7.43123e-05
6.44939e-05
5.43709e-05
4.42471e-05
3.44897e-05
2.53254e-05
1.70887e-05
1.02522e-05
5.33175e-06
1.52073e-07
1.71804e-07
1.98428e-07
2.29744e-07
2.65752e-07
3.06947e-07
3.53975e-07
4.07573e-07
4.68561e-07
5.37846e-07
6.1643e-07
7.05418e-07
8.06023e-07
9.19578e-07
1.04754e-06
1.19151e-06
1.35321e-06
1.53454e-06
1.73756e-06
1.96447e-06
2.21769e-06
2.4998e-06
2.81357e-06
3.16199e-06
3.54826e-06
3.97575e-06
4.44811e-06
4.96914e-06
5.54292e-06
6.1737e-06
6.86597e-06
7.62442e-06
8.45394e-06
9.35962e-06
1.03467e-05
1.14206e-05
1.25869e-05
1.38511e-05
1.52191e-05
1.66965e-05
1.82892e-05
2.00027e-05
2.18427e-05
2.38146e-05
2.59236e-05
2.81744e-05
3.05715e-05
3.3119e-05
3.58201e-05
3.86777e-05
4.16935e-05
4.48686e-05
4.82031e-05
5.16957e-05
5.5344e-05
5.91442e-05
6.30907e-05
6.71765e-05
7.13925e-05
7.57277e-05
8.01689e-05
8.47006e-05
8.93048e-05
9.39612e-05
9.86464e-05
0.000103335
0.000107997
0.000112601
0.000117114
0.000121496
0.000125708
0.000129705
0.000133443
0.000136871
0.00013994
0.000142594
0.00014478
0.000146441
0.000147518
0.000147953
0.000147687
0.000146663
0.000144822
0.000142111
0.000138479
0.000133881
0.000128281
0.000121657
0.000114007
0.000105355
9.57647e-05
8.53559e-05
7.43199e-05
6.29371e-05
5.15875e-05
4.0733e-05
3.06109e-05
2.16141e-05
1.4224e-05
8.92327e-06
1.74397e-07
1.97285e-07
2.27884e-07
2.63763e-07
3.04973e-07
3.5209e-07
4.05853e-07
4.67099e-07
5.36756e-07
6.15853e-07
7.05526e-07
8.07024e-07
9.21721e-07
1.05112e-06
1.19688e-06
1.36079e-06
1.54483e-06
1.75111e-06
1.98197e-06
2.2399e-06
2.52761e-06
2.84802e-06
3.20425e-06
3.59968e-06
4.03789e-06
4.52271e-06
5.05822e-06
5.64872e-06
6.29879e-06
7.01323e-06
7.7971e-06
8.65568e-06
9.59448e-06
1.06192e-05
1.17359e-05
1.29505e-05
1.42694e-05
1.5699e-05
1.72457e-05
1.8916e-05
2.07166e-05
2.26538e-05
2.47341e-05
2.69637e-05
2.93485e-05
3.18943e-05
3.46062e-05
3.74889e-05
4.05465e-05
4.37826e-05
4.71994e-05
5.07987e-05
5.45808e-05
5.8545e-05
6.26892e-05
6.70096e-05
7.15009e-05
7.61559e-05
8.09652e-05
8.59174e-05
9.09987e-05
9.61928e-05
0.000101481
0.000106841
0.000112248
0.000117675
0.00012309
0.00012846
0.000133746
0.000138908
0.000143903
0.000148681
0.000153194
0.000157386
0.000161203
0.000164583
0.000167466
0.000169788
0.000171483
0.000172483
0.00017272
0.000172124
0.000170625
0.000168153
0.00016464
0.000160023
0.000154243
0.000147255
0.000139035
0.000129587
0.00011896
0.000107268
9.4713e-05
8.16041e-05
6.83823e-05
5.55925e-05
4.35393e-05
3.27024e-05
2.36703e-05
1.7107e-05
2.01516e-07
2.28216e-07
2.63623e-07
3.05033e-07
3.52553e-07
4.0686e-07
4.68799e-07
5.3933e-07
6.19515e-07
7.10529e-07
8.13669e-07
9.30361e-07
1.06217e-06
1.21082e-06
1.37819e-06
1.56634e-06
1.77749e-06
2.01408e-06
2.27874e-06
2.57434e-06
2.90395e-06
3.27088e-06
3.67869e-06
4.13122e-06
4.63254e-06
5.187e-06
5.79923e-06
6.47415e-06
7.21694e-06
8.03307e-06
8.92829e-06
9.90861e-06
1.09803e-05
1.21499e-05
1.34242e-05
1.48102e-05
1.6315e-05
1.79459e-05
1.97104e-05
2.16159e-05
2.36701e-05
2.58804e-05
2.82543e-05
3.0799e-05
3.35216e-05
3.64287e-05
3.95266e-05
4.28211e-05
4.63173e-05
5.00196e-05
5.39316e-05
5.80555e-05
6.23929e-05
6.69438e-05
7.17068e-05
7.66787e-05
8.18549e-05
8.72286e-05
9.27908e-05
9.85304e-05
0.000104433
0.000110484
0.000116662
0.000122946
0.00012931
0.000135725
0.00014216
0.000148579
0.000154942
0.000161207
0.000167326
0.000173249
0.000178923
0.000184289
0.000189287
0.000193851
0.000197914
0.000201403
0.000204246
0.000206365
0.000207679
0.000208105
0.000207557
0.000205945
0.000203178
0.000199164
0.000193814
0.000187044
0.000178789
0.000169007
0.000157701
0.000144938
0.000130879
0.000115805
0.000100152
8.4531e-05
6.94092e-05
5.53993e-05
4.3375e-05
3.45149e-05
2.31682e-07
2.62635e-07
3.03377e-07
3.50924e-07
4.0545e-07
4.67737e-07
5.38754e-07
6.19591e-07
7.11459e-07
8.15693e-07
9.33769e-07
1.06731e-06
1.21809e-06
1.38807e-06
1.57938e-06
1.79435e-06
2.03551e-06
2.30563e-06
2.60769e-06
2.94491e-06
3.3208e-06
3.73911e-06
4.20387e-06
4.7194e-06
5.29032e-06
5.92157e-06
6.61839e-06
7.38633e-06
8.23126e-06
9.15939e-06
1.01772e-05
1.12916e-05
1.25096e-05
1.38387e-05
1.52866e-05
1.68612e-05
1.85707e-05
2.04235e-05
2.2428e-05
2.4593e-05
2.69271e-05
2.94391e-05
3.21375e-05
3.5031e-05
3.81278e-05
4.1436e-05
4.49633e-05
4.87167e-05
5.27028e-05
5.69274e-05
6.13955e-05
6.6111e-05
7.10767e-05
7.62941e-05
8.17634e-05
8.74829e-05
9.34493e-05
9.96574e-05
0.0001061
0.000112766
0.000119645
0.00012672
0.000133975
0.000141388
0.000148934
0.000156586
0.000164312
0.000172078
0.000179844
0.000187568
0.000195203
0.000202697
0.000209994
0.000217036
0.000223758
0.00023009
0.000235961
0.000241292
0.000246002
0.000250003
0.000253204
0.000255507
0.00025681
0.000256999
0.000255958
0.000253561
0.000249677
0.000244175
0.000236928
0.000227824
0.000216781
0.000203772
0.000188848
0.000172179
0.000154089
0.000135179
0.000116178
9.78531e-05
8.15427e-05
6.93052e-05
2.62372e-07
2.97677e-07
3.43833e-07
3.97601e-07
4.59224e-07
5.29593e-07
6.09798e-07
7.01062e-07
8.0474e-07
9.22331e-07
1.05549e-06
1.20602e-06
1.37593e-06
1.56739e-06
1.78279e-06
2.02474e-06
2.29607e-06
2.59986e-06
2.93944e-06
3.31842e-06
3.74068e-06
4.21043e-06
4.73217e-06
5.3107e-06
5.95119e-06
6.65913e-06
7.44038e-06
8.30113e-06
9.24795e-06
1.02878e-05
1.14278e-05
1.26758e-05
1.40397e-05
1.55279e-05
1.71489e-05
1.89117e-05
2.08256e-05
2.29001e-05
2.51448e-05
2.75696e-05
3.01846e-05
3.29997e-05
3.60251e-05
3.92707e-05
4.27465e-05
4.64622e-05
5.0427e-05
5.46499e-05
5.91394e-05
6.39032e-05
6.89483e-05
7.4281e-05
7.99061e-05
8.58277e-05
9.20484e-05
9.85691e-05
0.000105389
0.000112506
0.000119916
0.000127611
0.000135582
0.000143819
0.000152305
0.000161024
0.000169955
0.000179073
0.00018835
0.000197756
0.000207253
0.000216803
0.000226362
0.00023588
0.000245305
0.000254577
0.000263632
0.000272401
0.000280809
0.000288774
0.000296209
0.000303019
0.000309103
0.000314353
0.000318652
0.000321868
0.000323859
0.000324467
0.000323522
0.000320839
0.000316225
0.000309484
0.000300429
0.000288901
0.000274785
0.00025805
0.000238775
0.000217341
0.000194779
0.000171956
0.000150722
0.00013425
2.9022e-07
3.29495e-07
3.80548e-07
4.39928e-07
5.07949e-07
5.85598e-07
6.74071e-07
7.74708e-07
8.88994e-07
1.01857e-06
1.16524e-06
1.33099e-06
1.51801e-06
1.72867e-06
1.9656e-06
2.23162e-06
2.52984e-06
2.86361e-06
3.23659e-06
3.6527e-06
4.1162e-06
4.63167e-06
5.20401e-06
5.8385e-06
6.54076e-06
7.31681e-06
8.17302e-06
9.11621e-06
1.01535e-05
1.12926e-05
1.25414e-05
1.39084e-05
1.54023e-05
1.70324e-05
1.88082e-05
2.07396e-05
2.28371e-05
2.51111e-05
2.75726e-05
3.02328e-05
3.3103e-05
3.61948e-05
3.95198e-05
4.30897e-05
4.69163e-05
5.10111e-05
5.53856e-05
6.0051e-05
6.5018e-05
7.0297e-05
7.58978e-05
8.18293e-05
8.80999e-05
9.47168e-05
0.000101686
0.000109013
0.0001167
0.00012475
0.000133162
0.000141935
0.000151065
0.000160545
0.000170366
0.000180518
0.000190984
0.000201748
0.000212789
0.00022408
0.000235593
0.000247296
0.000259152
0.000271119
0.000283151
0.000295193
0.000307187
0.000319066
0.000330759
0.000342185
0.000353256
0.000363874
0.000373933
0.000383317
0.000391908
0.000399561
0.000406117
0.000411404
0.00041522
0.000417341
0.000417521
0.000415494
0.00041098
0.000403693
0.000393347
0.000379671
0.000362407
0.000341421
0.000317785
0.000292407
0.000267323
0.000246584
3.11404e-07
3.53719e-07
4.08488e-07
4.72118e-07
5.44979e-07
6.2813e-07
7.22847e-07
8.30558e-07
9.52843e-07
1.09145e-06
1.2483e-06
1.4255e-06
1.62539e-06
1.85048e-06
2.10357e-06
2.38768e-06
2.7061e-06
3.0624e-06
3.46046e-06
3.90448e-06
4.39899e-06
4.94884e-06
5.55929e-06
6.23596e-06
6.98484e-06
7.81236e-06
8.72537e-06
9.73112e-06
1.08373e-05
1.20522e-05
1.33842e-05
1.48426e-05
1.64368e-05
1.81769e-05
2.00732e-05
2.21366e-05
2.43785e-05
2.68105e-05
2.94448e-05
3.22938e-05
3.53703e-05
3.86874e-05
4.22585e-05
4.60971e-05
5.02168e-05
5.46316e-05
5.93551e-05
6.44011e-05
6.97833e-05
7.5515e-05
8.16093e-05
8.80789e-05
9.49358e-05
0.000102191
0.000109857
0.000117941
0.000126454
0.000135402
0.000144791
0.000154627
0.000164912
0.000175648
0.000186833
0.000198465
0.000210538
0.000223043
0.000235969
0.000249301
0.000263021
0.000277106
0.000291531
0.000306264
0.000321269
0.000336507
0.00035193
0.000367484
0.000383109
0.000398735
0.000414283
0.000429662
0.000444771
0.000459492
0.000473685
0.000487208
0.000499912
0.000511642
0.000522184
0.000531306
0.000538741
0.000544192
0.000547334
0.000547817
0.000545263
0.000539253
0.000529304
0.000514849
0.000495551
0.000472968
0.000448259
0.000425124
3.22412e-07
3.66322e-07
4.23029e-07
4.88874e-07
5.64257e-07
6.50277e-07
7.48252e-07
8.59657e-07
9.86125e-07
1.12946e-06
1.29164e-06
1.47487e-06
1.68153e-06
1.91424e-06
2.17589e-06
2.4696e-06
2.79878e-06
3.16713e-06
3.57868e-06
4.03776e-06
4.54909e-06
5.11772e-06
5.74911e-06
6.4491e-06
7.22397e-06
8.08043e-06
9.02562e-06
1.00672e-05
1.12132e-05
1.24723e-05
1.38536e-05
1.53666e-05
1.70215e-05
1.88289e-05
2.08001e-05
2.29466e-05
2.52808e-05
2.78153e-05
3.05633e-05
3.35386e-05
3.67553e-05
4.02281e-05
4.39719e-05
4.80022e-05
5.23347e-05
5.69854e-05
6.19708e-05
6.73073e-05
7.30115e-05
7.91001e-05
8.559e-05
9.24977e-05
9.98397e-05
0.000107632
0.000115892
0.000124633
0.000133871
0.00014362
0.000153893
0.000164703
0.000176062
0.000187979
0.000200463
0.000213521
0.000227158
0.000241378
0.000256182
0.000271567
0.000287532
0.000304067
0.000321162
0.000338803
0.000356971
0.000375645
0.000394795
0.000414386
0.000434377
0.000454717
0.000475348
0.000496198
0.000517185
0.00053821
0.000559156
0.000579892
0.000600259
0.000620066
0.000639144
0.000657328
0.000674377
0.00069001
0.000703915
0.000715761
0.000725191
0.000731816
0.000735189
0.000734772
0.000729856
0.000719388
0.000703757
0.000683702
3.21048e-07
3.64778e-07
4.21276e-07
4.8689e-07
5.62021e-07
6.47768e-07
7.45448e-07
8.56538e-07
9.82672e-07
1.12566e-06
1.28749e-06
1.47036e-06
1.67667e-06
1.90906e-06
2.17042e-06
2.4639e-06
2.79293e-06
3.16126e-06
3.57293e-06
4.03236e-06
4.54428e-06
5.11385e-06
5.74659e-06
6.44847e-06
7.22586e-06
8.08562e-06
9.03509e-06
1.00821e-05
1.12349e-05
1.25024e-05
1.38941e-05
1.54199e-05
1.70903e-05
1.89165e-05
2.09101e-05
2.30836e-05
2.54499e-05
2.80224e-05
3.08154e-05
3.38436e-05
3.71224e-05
4.06679e-05
4.44964e-05
4.86253e-05
5.30722e-05
5.78553e-05
6.29933e-05
6.85055e-05
7.44115e-05
8.07314e-05
8.74856e-05
9.46949e-05
0.00010238
0.000110563
0.000119264
0.000128505
0.000138307
0.000148693
0.000159682
0.000171296
0.000183555
0.00019648
0.000210089
0.000224402
0.000239436
0.000255209
0.000271735
0.00028903
0.000307105
0.000325972
0.000345638
0.000366111
0.000387394
0.000409487
0.000432386
0.000456081
0.000480559
0.000505799
0.00053177
0.000558435
0.000585742
0.000613627
0.00064201
0.000670791
0.000699847
0.000729033
0.00075818
0.000787079
0.000815563
0.000843506
0.000870634
0.000896677
0.000921348
0.000944357
0.000965383
0.000984005
0.000999536
0.00101071
0.00101513
0.00100766
3.0762e-07
3.49439e-07
4.03627e-07
4.66617e-07
5.38775e-07
6.21161e-07
7.15053e-07
8.21881e-07
9.43233e-07
1.08086e-06
1.23671e-06
1.41292e-06
1.61182e-06
1.836e-06
2.08827e-06
2.37172e-06
2.68972e-06
3.04594e-06
3.44437e-06
3.88933e-06
4.38552e-06
4.93802e-06
5.55231e-06
6.2343e-06
6.99035e-06
7.82729e-06
8.75244e-06
9.77364e-06
1.08993e-05
1.21383e-05
1.35001e-05
1.4995e-05
1.66336e-05
1.84274e-05
2.03882e-05
2.25289e-05
2.48629e-05
2.74043e-05
3.01679e-05
3.31692e-05
3.64246e-05
3.99511e-05
4.37666e-05
4.78895e-05
5.23392e-05
5.71359e-05
6.23003e-05
6.7854e-05
7.38195e-05
8.02198e-05
8.70787e-05
9.44207e-05
0.000102271
0.000110656
0.000119601
0.000129135
0.000139284
0.000150077
0.000161543
0.000173711
0.00018661
0.000200272
0.000214727
0.000230004
0.000246136
0.000263152
0.000281085
0.000299966
0.000319824
0.00034069
0.000362595
0.000385568
0.000409636
0.000434826
0.000461164
0.000488672
0.000517369
0.000547271
0.000578386
0.000610718
0.000644262
0.000679
0.000714902
0.000751923
0.000789994
0.000829026
0.000868905
0.000909485
0.000950602
0.000992047
0.00103375
0.00107555
0.00111718
0.00115835
0.00119878
0.00123796
0.00127492
0.00130752
0.00133105
0.00133589
2.84682e-07
3.23243e-07
3.73448e-07
4.31891e-07
4.98884e-07
5.75413e-07
6.62677e-07
7.62021e-07
8.74941e-07
1.00309e-06
1.1483e-06
1.31258e-06
1.49817e-06
1.70749e-06
1.94323e-06
2.20832e-06
2.50596e-06
2.83967e-06
3.21324e-06
3.63084e-06
4.09696e-06
4.61648e-06
5.1947e-06
5.83733e-06
6.55052e-06
7.3409e-06
8.21562e-06
9.18233e-06
1.02492e-05
1.14251e-05
1.27194e-05
1.4142e-05
1.57037e-05
1.74157e-05
1.92903e-05
2.134e-05
2.35786e-05
2.60203e-05
2.86802e-05
3.15743e-05
3.47195e-05
3.81334e-05
4.18346e-05
4.58428e-05
5.01783e-05
5.48626e-05
5.99181e-05
6.53682e-05
7.12375e-05
7.75515e-05
8.43366e-05
9.16206e-05
9.94323e-05
0.000107801
0.000116759
0.000126337
0.00013657
0.00014749
0.000159135
0.000171541
0.000184746
0.000198789
0.000213712
0.000229555
0.000246363
0.00026418
0.000283052
0.000303026
0.000324151
0.000346476
0.000370053
0.000394934
0.000421173
0.000448824
0.000477944
0.000508588
0.000540812
0.000574672
0.000610222
0.000647514
0.000686595
0.000727506
0.000770281
0.000814939
0.000861488
0.000909911
0.000960169
0.00101219
0.00106587
0.00112106
0.00117757
0.0012353
0.00129408
0.00135352
0.00141317
0.0014723
0.00152949
0.00158189
0.00162344
0.00164193
2.5583e-07
2.90305e-07
3.35467e-07
3.88132e-07
4.48548e-07
5.17604e-07
5.96392e-07
6.86143e-07
7.88225e-07
9.04156e-07
1.03561e-06
1.18445e-06
1.35272e-06
1.54266e-06
1.75675e-06
1.9977e-06
2.26849e-06
2.57236e-06
2.91286e-06
3.29386e-06
3.71957e-06
4.19455e-06
4.72377e-06
5.3126e-06
5.96684e-06
6.69277e-06
7.49715e-06
8.38726e-06
9.37093e-06
1.04566e-05
1.16532e-05
1.29704e-05
1.44186e-05
1.60087e-05
1.77525e-05
1.96626e-05
2.17522e-05
2.40354e-05
2.65274e-05
2.92439e-05
3.2202e-05
3.54193e-05
3.89147e-05
4.27082e-05
4.68207e-05
5.12743e-05
5.60924e-05
6.12993e-05
6.6921e-05
7.29843e-05
7.95178e-05
8.65513e-05
9.41159e-05
0.000102244
0.000110971
0.000120332
0.000130365
0.000141108
0.000152604
0.000164894
0.000178025
0.000192042
0.000206995
0.000222936
0.000239917
0.000257995
0.000277229
0.00029768
0.000319411
0.000342491
0.000366989
0.000392979
0.000420538
0.000449747
0.000480689
0.000513453
0.00054813
0.000584816
0.00062361
0.000664612
0.000707926
0.000753656
0.000801903
0.000852765
0.000906331
0.00096268
0.00102187
0.00108392
0.00114882
0.00121651
0.00128685
0.00135959
0.00143458
0.00151137
0.00158929
0.00166727
0.00174346
0.00181448
0.00187375
0.00190813
2.24798e-07
2.54897e-07
2.94603e-07
3.41003e-07
3.94274e-07
4.552e-07
5.24752e-07
6.04032e-07
6.94264e-07
7.96806e-07
9.13164e-07
1.045e-06
1.19417e-06
1.36267e-06
1.55276e-06
1.76688e-06
2.00772e-06
2.27823e-06
2.58164e-06
2.92145e-06
3.30152e-06
3.72602e-06
4.19949e-06
4.72686e-06
5.31349e-06
5.96516e-06
6.68812e-06
7.48914e-06
8.37549e-06
9.35502e-06
1.04362e-05
1.1628e-05
1.29402e-05
1.43832e-05
1.59681e-05
1.7707e-05
1.96124e-05
2.1698e-05
2.39782e-05
2.64684e-05
2.91851e-05
3.21456e-05
3.53685e-05
3.88733e-05
4.26808e-05
4.68132e-05
5.12936e-05
5.61469e-05
6.13991e-05
6.70778e-05
7.32121e-05
7.98328e-05
8.69723e-05
9.46648e-05
0.000102946
0.000111855
0.000121431
0.000131717
0.000142757
0.000154597
0.000167289
0.000180882
0.000195433
0.000210999
0.000227641
0.000245424
0.000264415
0.000284686
0.000306312
0.000329375
0.000353959
0.000380153
0.000408054
0.000437762
0.000469385
0.000503038
0.000538842
0.000576925
0.000617426
0.00066049
0.000706269
0.000754925
0.000806626
0.000861548
0.000919867
0.00098176
0.0010474
0.00111693
0.0011905
0.00126816
0.00134992
0.00143564
0.00152501
0.00161768
0.00171287
0.0018092
0.00190442
0.00199464
0.00207301
0.00212633
1.94751e-07
2.20631e-07
2.55033e-07
2.9533e-07
3.41638e-07
3.94632e-07
4.55167e-07
5.24211e-07
6.02843e-07
6.92264e-07
7.93804e-07
9.08937e-07
1.03929e-06
1.18667e-06
1.35305e-06
1.54062e-06
1.75177e-06
1.98913e-06
2.2556e-06
2.55431e-06
2.88872e-06
3.26258e-06
3.67999e-06
4.14539e-06
4.66363e-06
5.23995e-06
5.88004e-06
6.59004e-06
7.3766e-06
8.2469e-06
9.20868e-06
1.02703e-05
1.14406e-05
1.27294e-05
1.4147e-05
1.57043e-05
1.74134e-05
1.9287e-05
2.13385e-05
2.35827e-05
2.60349e-05
2.87117e-05
3.16308e-05
3.4811e-05
3.82722e-05
4.20358e-05
4.61244e-05
5.0562e-05
5.53742e-05
6.0588e-05
6.62323e-05
7.23376e-05
7.89362e-05
8.60624e-05
9.37526e-05
0.000102045
0.000110981
0.000120603
0.000130958
0.000142093
0.00015406
0.000166914
0.000180711
0.000195514
0.000211386
0.000228396
0.000246618
0.000266129
0.00028701
0.000309351
0.000333245
0.000358791
0.000386096
0.000415275
0.00044645
0.000479752
0.000515324
0.000553318
0.000593897
0.000637238
0.000683533
0.000732986
0.00078582
0.000842273
0.0009026
0.000967072
0.00103597
0.0011096
0.00118825
0.0012722
0.00136171
0.00145693
0.00155784
0.00166415
0.00177535
0.00189008
0.00200582
0.00211815
0.0022194
0.00229589
1.68e-07
1.90131e-07
2.19793e-07
2.54635e-07
2.94716e-07
3.40619e-07
3.93086e-07
4.52968e-07
5.21212e-07
5.98872e-07
6.87119e-07
7.87253e-07
9.00709e-07
1.02908e-06
1.17411e-06
1.33774e-06
1.52209e-06
1.7295e-06
1.96253e-06
2.22399e-06
2.51696e-06
2.84478e-06
3.21112e-06
3.61997e-06
4.07567e-06
4.58294e-06
5.1469e-06
5.77311e-06
6.46759e-06
7.23683e-06
8.08787e-06
9.0283e-06
1.00663e-05
1.12107e-05
1.24709e-05
1.38572e-05
1.53804e-05
1.70524e-05
1.88856e-05
2.08937e-05
2.3091e-05
2.54929e-05
2.81161e-05
3.0978e-05
3.40976e-05
3.74949e-05
4.11913e-05
4.52097e-05
4.95745e-05
5.43114e-05
5.94482e-05
6.50141e-05
7.10403e-05
7.756e-05
8.46086e-05
9.22234e-05
0.000100444
0.000109314
0.000118877
0.000129181
0.000140277
0.000152219
0.000165065
0.000178876
0.000193715
0.000209654
0.000226765
0.000245127
0.000264825
0.000285947
0.000308591
0.000332858
0.000358861
0.000386716
0.000416554
0.000448512
0.000482739
0.000519398
0.000558666
0.000600734
0.000645814
0.000694135
0.00074595
0.000801536
0.000861202
0.000925286
0.000994162
0.00106825
0.001148
0.00123394
0.00132663
0.00142666
0.00153462
0.00165089
0.00177551
0.00190779
0.00204572
0.00218454
0.00231503
0.00242095
1.46127e-07
1.6517e-07
1.90936e-07
2.21299e-07
2.56274e-07
2.96359e-07
3.42209e-07
3.94574e-07
4.54291e-07
5.22296e-07
5.99627e-07
6.87436e-07
7.87001e-07
8.99734e-07
1.0272e-06
1.17111e-06
1.33338e-06
1.51609e-06
1.72153e-06
1.95222e-06
2.21092e-06
2.50064e-06
2.82467e-06
3.18662e-06
3.5904e-06
4.04027e-06
4.54088e-06
5.09726e-06
5.71487e-06
6.39963e-06
7.15795e-06
7.99674e-06
8.92349e-06
9.94626e-06
1.10737e-05
1.23153e-05
1.3681e-05
1.51816e-05
1.68289e-05
1.86352e-05
2.06139e-05
2.27795e-05
2.51472e-05
2.77336e-05
3.05561e-05
3.36335e-05
3.69861e-05
4.06351e-05
4.46035e-05
4.89157e-05
5.35978e-05
5.86773e-05
6.4184e-05
7.01493e-05
7.66066e-05
8.35917e-05
9.11427e-05
9.93e-05
0.000108107
0.000117609
0.000127854
0.000138896
0.000150789
0.000163591
0.000177366
0.00019218
0.000208106
0.000225218
0.000243599
0.000263335
0.000284521
0.000307256
0.000331647
0.000357812
0.000385876
0.000415973
0.000448252
0.000482873
0.00052001
0.000559856
0.000602623
0.000648544
0.000697879
0.000750919
0.000807988
0.000869456
0.000935744
0.00100734
0.00108482
0.00116885
0.0012603
0.00136017
0.00146975
0.0015904
0.00172348
0.00186957
0.0020285
0.00219664
0.00236359
0.00250788
1.3026e-07
1.47007e-07
1.69915e-07
1.97011e-07
2.28266e-07
2.64116e-07
3.05149e-07
3.52042e-07
4.05554e-07
4.66531e-07
5.35915e-07
6.14751e-07
7.042e-07
8.05547e-07
9.20213e-07
1.04977e-06
1.19594e-06
1.36064e-06
1.54596e-06
1.75421e-06
1.9879e-06
2.2498e-06
2.54294e-06
2.87062e-06
3.23644e-06
3.64433e-06
4.09857e-06
4.6038e-06
5.16508e-06
5.78787e-06
6.47811e-06
7.24221e-06
8.08711e-06
9.02032e-06
1.00499e-05
1.11846e-05
1.24338e-05
1.38076e-05
1.53169e-05
1.69734e-05
1.87895e-05
2.07788e-05
2.29557e-05
2.53357e-05
2.79352e-05
3.07721e-05
3.38652e-05
3.72347e-05
4.09024e-05
4.48912e-05
4.92258e-05
5.39325e-05
5.90393e-05
6.45759e-05
7.05743e-05
7.70685e-05
8.40944e-05
9.16907e-05
9.98984e-05
0.000108761
0.000118325
0.000128639
0.000139756
0.000151733
0.000164629
0.000178507
0.000193436
0.000209488
0.00022674
0.000245275
0.000265181
0.000286554
0.000309495
0.000334114
0.00036053
0.00038887
0.000419274
0.000451893
0.000486893
0.000524455
0.000564781
0.000608094
0.000654642
0.000704706
0.000758603
0.000816698
0.000879416
0.000947262
0.00102085
0.00110094
0.00118853
0.00128494
0.00139189
0.00151157
0.00164657
0.00179934
0.00197237
0.00216574
0.00237125
0.00256333
1.21414e-07
1.36786e-07
1.58063e-07
1.83316e-07
2.1248e-07
2.45952e-07
2.84281e-07
3.28104e-07
3.78136e-07
4.35173e-07
5.00103e-07
5.73913e-07
6.57698e-07
7.52671e-07
8.60175e-07
9.81693e-07
1.11886e-06
1.27349e-06
1.44756e-06
1.64326e-06
1.86297e-06
2.10933e-06
2.3852e-06
2.69372e-06
3.03833e-06
3.42276e-06
3.85108e-06
4.32772e-06
4.85749e-06
5.44562e-06
6.09777e-06
6.82006e-06
7.61914e-06
8.50217e-06
9.4769e-06
1.05517e-05
1.17355e-05
1.30381e-05
1.44698e-05
1.6042e-05
1.77666e-05
1.96566e-05
2.17258e-05
2.39892e-05
2.64626e-05
2.91631e-05
3.2109e-05
3.53198e-05
3.88163e-05
4.26208e-05
4.6757e-05
5.12503e-05
5.61278e-05
6.14183e-05
6.71526e-05
7.33634e-05
8.00857e-05
8.73565e-05
9.52155e-05
0.000103705
0.000112869
0.000122755
0.000133415
0.000144902
0.000157274
0.000170593
0.000184923
0.000200335
0.000216902
0.000234705
0.000253827
0.00027436
0.000296402
0.000320056
0.000345436
0.000372665
0.000401873
0.000433206
0.000466822
0.000502893
0.000541611
0.000583189
0.000627864
0.000675906
0.00072762
0.000783359
0.000843541
0.00090867
0.000979376
0.00105648
0.00114109
0.0012347
0.00133918
0.00145682
0.00159042
0.0017433
0.00191987
0.00212442
0.00235548
0.00259194
1.3909e-06
1.28196e-06
1.52778e-06
1.88692e-06
2.29389e-06
2.72486e-06
3.16971e-06
3.62529e-06
4.09403e-06
4.58399e-06
5.10917e-06
5.69007e-06
6.35413e-06
7.13589e-06
8.07575e-06
9.21549e-06
1.05853e-05
1.21731e-05
1.38519e-05
1.52175e-05
2.9302e-06
2.89021e-06
3.37023e-06
4.03346e-06
4.76557e-06
5.52162e-06
6.28267e-06
7.04324e-06
7.80802e-06
8.59125e-06
9.41693e-06
1.03192e-05
1.13426e-05
1.25418e-05
1.39782e-05
1.5712e-05
1.77793e-05
2.0143e-05
2.25824e-05
2.44753e-05
6.36996e-06
6.57545e-06
7.45961e-06
8.59724e-06
9.82296e-06
1.10631e-05
1.22847e-05
1.3478e-05
1.4651e-05
1.58275e-05
1.70464e-05
1.8362e-05
1.98432e-05
2.15721e-05
2.36387e-05
2.61259e-05
2.9077e-05
3.24218e-05
3.58198e-05
3.83766e-05
1.41346e-05
1.47318e-05
1.62173e-05
1.80178e-05
1.99091e-05
2.1785e-05
2.35949e-05
2.53235e-05
2.69834e-05
2.86115e-05
3.0268e-05
3.20345e-05
3.40131e-05
3.6322e-05
3.90874e-05
4.24211e-05
4.63724e-05
5.08226e-05
5.5276e-05
5.85153e-05
3.0819e-05
3.18715e-05
3.40822e-05
3.66582e-05
3.92969e-05
4.18558e-05
4.42667e-05
4.65094e-05
4.86034e-05
5.0603e-05
5.2595e-05
5.46957e-05
5.70482e-05
5.98154e-05
6.31683e-05
6.72525e-05
7.21179e-05
7.75756e-05
8.2944e-05
8.67064e-05
6.44057e-05
6.57356e-05
6.85259e-05
7.17124e-05
7.48963e-05
7.78958e-05
8.06264e-05
8.30664e-05
8.52442e-05
8.72338e-05
8.9153e-05
9.11549e-05
9.3428e-05
9.61871e-05
9.96545e-05
0.000104011
0.000109299
0.000115243
0.000120975
0.000124857
0.000127289
0.000128217
0.000130868
0.000133912
0.000136857
0.000139484
0.000141698
0.000143478
0.000144862
0.000145942
0.000146862
0.000147806
0.000149
0.00015071
0.000153211
0.000156718
0.000161266
0.000166508
0.000171487
0.000174806
0.00023617
0.000235247
0.000236123
0.000237327
0.00023832
0.000238874
0.000238892
0.000238355
0.000237311
0.000235857
0.000234131
0.000232322
0.000230675
0.000229481
0.000229059
0.000229668
0.000231371
0.000233841
0.000236339
0.000238148
0.000409575
0.000404489
0.000400831
0.000397308
0.000393479
0.00038917
0.000384313
0.000378884
0.000372913
0.000366461
0.000359625
0.000352548
0.000345433
0.000338543
0.000332209
0.000326768
0.000322415
0.00031914
0.000316927
0.000316077
0.000662249
0.000650133
0.000638205
0.000626007
0.000613469
0.000600562
0.000587268
0.000573558
0.000559421
0.000544836
0.000529797
0.000514314
0.000498446
0.000482329
0.000466232
0.000450615
0.00043608
0.0004235
0.000414096
0.000409238
0.000983125
0.000962063
0.000938709
0.000914375
0.000889651
0.000864835
0.00084004
0.000815258
0.000790406
0.000765339
0.000739866
0.000713776
0.000686848
0.000658955
0.000630135
0.000600862
0.000572471
0.000547197
0.00052812
0.000517718
0.00130992
0.00128119
0.00124747
0.00121182
0.00117562
0.00113955
0.00110384
0.00106851
0.00103343
0.000998311
0.000962814
0.00092652
0.000888984
0.000849853
0.000809022
0.000766967
0.000725337
0.000687441
0.000657997
0.000641229
0.00161925
0.0015855
0.00154383
0.0014991
0.00145349
0.00140802
0.00136315
0.00131896
0.00127526
0.00123168
0.00118772
0.00114281
0.00109634
0.0010478
0.000996933
0.000944183
0.000891236
0.000841825
0.000802105
0.000778852
0.0018948
0.00185954
0.00181315
0.00176236
0.0017102
0.00165808
0.00160664
0.00155601
0.00150601
0.00145624
0.0014061
0.00135488
0.00130188
0.00124645
0.00118822
0.00112752
0.00106593
0.00100723
0.000958398
0.000928948
0.00212853
0.0020955
0.00204779
0.00199415
0.0019385
0.00188269
0.00182751
0.00177318
0.00171953
0.00166612
0.0016123
0.00155733
0.00150039
0.00144078
0.00137802
0.0013123
0.00124501
0.0011798
0.00112396
0.00108941
0.00231924
0.00229177
0.00224579
0.00219225
0.00213601
0.00207931
0.00202312
0.0019677
0.00191289
0.00185827
0.00180318
0.00174684
0.00168843
0.00162716
0.00156249
0.00149448
0.00142431
0.00135537
0.00129488
0.00125605
0.00247047
0.00245102
0.00240904
0.00235799
0.00230364
0.00224854
0.00219373
0.00213949
0.00208569
0.00203192
0.00197757
0.00192189
0.00186405
0.00180325
0.0017389
0.00167093
0.00160032
0.00153014
0.00146735
0.00142554
0.00258873
0.00257828
0.00254152
0.00249473
0.00244435
0.00239294
0.00234148
0.00229025
0.00223915
0.00218783
0.00213576
0.00208225
0.00202655
0.00196785
0.00190554
0.00183943
0.00177032
0.00170096
0.00163788
0.00159451
0.00268239
0.00267944
0.00264801
0.00260689
0.00256221
0.00251615
0.00246954
0.00242265
0.00237544
0.00232768
0.00227893
0.00222864
0.00217611
0.00212064
0.00206158
0.00199867
0.00193251
0.00186549
0.00180359
0.00175982
0.00276129
0.00275992
0.00273371
0.00269957
0.0026619
0.0026223
0.00258145
0.00253969
0.00249709
0.00245354
0.00240874
0.00236226
0.00231354
0.00226196
0.00220691
0.00214808
0.00208588
0.0020223
0.00196252
0.00191866
5.23575e-66
5.21844e-66
5.19457e-66
5.17453e-66
5.16726e-66
5.18022e-66
5.21929e-66
5.28854e-66
5.39029e-66
5.52507e-66
5.69155e-66
5.88653e-66
6.10492e-66
6.33972e-66
6.58197e-66
6.82076e-66
7.04323e-66
7.23481e-66
7.37956e-66
7.46071e-66
3.36712e-65
3.3515e-65
3.33231e-65
3.31612e-65
3.30873e-65
3.31501e-65
3.33873e-65
3.38252e-65
3.44786e-65
3.53507e-65
3.64333e-65
3.77057e-65
3.91356e-65
4.06779e-65
4.22755e-65
4.38584e-65
4.53433e-65
4.66354e-65
4.76307e-65
4.82215e-65
1.66855e-64
1.65784e-64
1.64561e-64
1.63532e-64
1.62986e-64
1.63159e-64
1.64239e-64
1.66355e-64
1.69584e-64
1.73941e-64
1.79388e-64
1.85823e-64
1.93086e-64
2.00956e-64
2.09148e-64
2.17313e-64
2.25041e-64
2.31861e-64
2.37252e-64
2.40646e-64
8.01599e-64
7.94897e-64
7.87604e-64
7.81492e-64
7.77929e-64
7.78051e-64
7.82741e-64
7.92633e-64
8.08094e-64
8.29215e-64
8.55811e-64
8.87405e-64
9.23233e-64
9.62235e-64