/*--------------------------------*- C++ -*----------------------------------*\
| =========                 |                                                 |
| \\      /  F ield         | OpenFOAM: The Open Source CFD Toolbox           |
|  \\    /   O peration     | Version:  2.1.0                                 |
|   \\  /    A nd           | Web:      www.OpenFOAM.org                      |
|    \\/     M anipulation  |                                                 |
\*---------------------------------------------------------------------------*/
FoamFile
{
    version     2.0;
    format      ascii;
    class       volScalarField;
    location    "0.2";
    object      k;
}
// * * * * * * * * * * * * * * * * * * * * * * * * * * * * * * * * * * * * * //

dimensions      [0 2 -2 0 0 0 0];

internalField   nonuniform List<scalar> 
6400
(
0.0297988
0.0298191
0.0298081
0.0297874
0.029756
0.0297312
0.0296919
0.0296644
0.0296219
0.0295913
0.0295475
0.0295134
0.0294688
0.0294312
0.0293856
0.0293448
0.0292983
0.0292544
0.0292071
0.0291607
0.0291126
0.0290643
0.0290154
0.0289653
0.0289153
0.0288637
0.0288122
0.0287589
0.0287057
0.0286507
0.0285956
0.0285386
0.0284813
0.0284222
0.0283624
0.0283007
0.0282379
0.0281727
0.0281056
0.0280352
0.0279616
0.0278838
0.0278014
0.0277137
0.0276199
0.0275192
0.027411
0.0272943
0.0271684
0.0270325
0.0268847
0.0267219
0.0265438
0.0263598
0.0261653
0.0259629
0.025751
0.0255297
0.0252996
0.0250608
0.0248125
0.0245546
0.0242863
0.0240073
0.0237182
0.0234164
0.0230981
0.0227687
0.0224197
0.0220578
0.0216758
0.0212787
0.0208621
0.0204301
0.0199804
0.0195169
0.0190399
0.0185535
0.018059
0.0175593
0.0170526
0.0165315
0.0159784
0.0154179
0.0148373
0.01423
0.0135834
0.0128741
0.0120786
0.0111567
0.0100608
0.0087115
0.00702117
0.00497022
0.00274185
0.00171375
0.0021462
0.00442392
0.0071887
0.00827898
0.0480669
0.0483066
0.0484184
0.0486223
0.0487504
0.0489539
0.049097
0.0492961
0.0494532
0.049648
0.0498166
0.0500083
0.0501857
0.0503756
0.0505595
0.0507485
0.050937
0.0511262
0.0513184
0.0515092
0.0517054
0.0519003
0.0521021
0.0523025
0.0525108
0.0527182
0.0529334
0.0531482
0.0533706
0.0535933
0.053823
0.0540539
0.0542914
0.0545311
0.0547774
0.0550266
0.0552824
0.055542
0.055808
0.0560778
0.0563511
0.0566264
0.0569031
0.0571793
0.0574542
0.0577251
0.0579908
0.0582483
0.0584964
0.0587349
0.0589673
0.0591794
0.0593728
0.0595619
0.0597422
0.0599117
0.0600692
0.0602098
0.0603331
0.060444
0.0605375
0.0606154
0.0606739
0.0607079
0.0607223
0.0607237
0.0606783
0.0606099
0.0604927
0.0603375
0.0601257
0.059861
0.059529
0.0591295
0.0586512
0.0580928
0.0574461
0.056711
0.055883
0.054965
0.0539581
0.0528581
0.0516516
0.0502956
0.0487789
0.047059
0.045116
0.0428945
0.0403655
0.0374788
0.0342237
0.0305968
0.0266603
0.0226278
0.0185775
0.014742
0.011812
0.0098785
0.00874013
0.00764091
0.0538366
0.0542004
0.0543691
0.0546739
0.0548877
0.0551815
0.055422
0.0557089
0.0559677
0.0562511
0.0565229
0.0568054
0.0570865
0.0573695
0.0576571
0.0579411
0.0582326
0.0585176
0.0588111
0.0590968
0.0593913
0.0596792
0.0599782
0.0602703
0.0605724
0.0608686
0.0611746
0.0614763
0.0617861
0.0620929
0.0624064
0.0627178
0.0630343
0.0633489
0.0636665
0.0639826
0.0642999
0.0646149
0.0649292
0.0652407
0.0655514
0.0658576
0.0661597
0.0664537
0.0667391
0.0670113
0.0672676
0.0675028
0.0677082
0.0678746
0.0680401
0.0681769
0.0683052
0.068409
0.0684976
0.0685628
0.0686091
0.0686317
0.0686397
0.0686153
0.068555
0.0684623
0.0683316
0.0681623
0.0679512
0.0676949
0.0673896
0.0670358
0.066622
0.0661502
0.0656065
0.0649909
0.0642892
0.0634989
0.0626068
0.0616093
0.0604956
0.0592627
0.0579035
0.0564173
0.0548009
0.0530561
0.0511835
0.0492016
0.047107
0.0449096
0.0426016
0.040181
0.0376253
0.0349148
0.0320143
0.0288995
0.0255363
0.0219384
0.0181816
0.0145003
0.0114704
0.00910691
0.00743302
0.00581007
0.0583448
0.058749
0.0589362
0.0592882
0.0595409
0.0598771
0.0601637
0.0604895
0.0607957
0.0611158
0.0614338
0.0617515
0.0620764
0.0623932
0.0627215
0.0630374
0.0633654
0.0636789
0.0640025
0.0643094
0.0646217
0.0649132
0.0652209
0.0655139
0.0658183
0.0661106
0.0664084
0.066695
0.0669843
0.0672627
0.067541
0.0678081
0.0680724
0.0683261
0.0685727
0.0688075
0.0690332
0.0692449
0.0694447
0.0696284
0.0697968
0.0699465
0.0700777
0.0701874
0.0702748
0.0703365
0.0703668
0.0703775
0.0703638
0.0703097
0.0702345
0.0701179
0.0699721
0.0697825
0.0695554
0.0692798
0.0689577
0.0685797
0.0681458
0.0676529
0.0670968
0.066475
0.0657829
0.0650185
0.0641777
0.0632596
0.0622617
0.0611839
0.0600246
0.0587859
0.0574668
0.0560713
0.0545998
0.0530569
0.051444
0.0497663
0.0480253
0.0462254
0.0443687
0.0424593
0.0404995
0.0384922
0.0364381
0.0343425
0.0322092
0.0300504
0.0278666
0.0256642
0.0234522
0.0212655
0.0191168
0.0170026
0.0149034
0.0128668
0.0109274
0.009131
0.00745171
0.0060881
0.00522714
0.00485936
0.0600387
0.060398
0.0605613
0.0608821
0.0611022
0.0614048
0.0616522
0.0619371
0.0621965
0.0624665
0.0627288
0.0629855
0.0632446
0.063489
0.0637396
0.0639727
0.0642103
0.0644287
0.0646512
0.0648531
0.0650579
0.0652418
0.0654284
0.0655924
0.0657558
0.0658961
0.0660329
0.0661462
0.0662524
0.0663343
0.0664054
0.0664505
0.0664731
0.0664803
0.0664635
0.0664146
0.0663422
0.0662364
0.0661016
0.065931
0.0657266
0.0654832
0.0652017
0.064878
0.0645123
0.0641016
0.063646
0.063144
0.0625938
0.0619947
0.0613475
0.0606493
0.059902
0.0591026
0.0582535
0.0573525
0.0564039
0.0554067
0.0543627
0.0532722
0.0521362
0.0509566
0.0497338
0.0484708
0.0471679
0.0458287
0.0444535
0.0430462
0.0416071
0.0401399
0.0386454
0.037128
0.0355886
0.0340321
0.0324546
0.0308696
0.0292746
0.0276818
0.0260923
0.0245179
0.0229573
0.021421
0.0199153
0.018463
0.0170674
0.0157302
0.0144375
0.013213
0.0120682
0.0110162
0.0100105
0.00903325
0.00808361
0.00723681
0.00647194
0.00575854
0.00508452
0.0047233
0.00458534
0.00469311
0.0574105
0.0575595
0.0576303
0.0577794
0.0578828
0.0580148
0.0581239
0.0582321
0.0583329
0.0584152
0.0584993
0.0585542
0.0586138
0.0586427
0.0586643
0.0586702
0.0586661
0.0586308
0.0585911
0.0585179
0.0584386
0.0583243
0.0582016
0.0580425
0.0578721
0.0576639
0.0574404
0.0571786
0.056898
0.056578
0.0562399
0.0558635
0.0554647
0.0550282
0.0545645
0.054063
0.0535325
0.0529641
0.0523652
0.0517291
0.051062
0.0503587
0.0496245
0.0488555
0.0480566
0.047225
0.0463648
0.0454743
0.0445571
0.0436123
0.042643
0.0416491
0.0406333
0.0395962
0.0385404
0.0374667
0.036376
0.0352701
0.0341526
0.0330242
0.0318872
0.0307433
0.0295941
0.0284417
0.0272877
0.0261345
0.0249842
0.0238387
0.0227005
0.0215718
0.020456
0.0193562
0.0182757
0.0172181
0.0162179
0.0152468
0.0143332
0.013457
0.0126318
0.0118454
0.0111066
0.0104142
0.00977089
0.00917547
0.00861473
0.00809571
0.00760845
0.00717186
0.00676324
0.00639293
0.00602748
0.00569906
0.00537854
0.00510575
0.00483799
0.00464039
0.0045233
0.00448681
0.00464081
0.00479588
0.0491755
0.0489591
0.0488704
0.0487107
0.0486128
0.0484411
0.0483181
0.0481223
0.0479667
0.0477411
0.047549
0.0472904
0.0470595
0.046766
0.0464945
0.0461661
0.0458522
0.0454866
0.0451312
0.0447281
0.0443312
0.0438907
0.0434531
0.0429757
0.0424993
0.0419844
0.0414634
0.0409063
0.0403413
0.0397427
0.039135
0.0384961
0.0378472
0.0371697
0.0364818
0.0357682
0.0350446
0.0342981
0.0335426
0.0327674
0.0319852
0.0311879
0.0303852
0.029571
0.0287532
0.0279273
0.0271
0.026268
0.025437
0.0246046
0.0237757
0.0229485
0.0221272
0.0213107
0.0205025
0.019702
0.0189167
0.0181488
0.0173984
0.0166658
0.0159539
0.0152605
0.0145905
0.0139392
0.0133127
0.0127044
0.0121228
0.0115605
0.0110254
0.0105118
0.0100257
0.00956308
0.0091275
0.00871658
0.00833357
0.00797496
0.00764166
0.00733122
0.00704318
0.00677639
0.00652837
0.00630126
0.00608808
0.00589341
0.00570735
0.0055392
0.00537804
0.00523531
0.00509791
0.00497821
0.00486351
0.00476939
0.0046834
0.00463053
0.00460616
0.00460278
0.00466459
0.00481396
0.0050495
0.00515842
0.0363614
0.0358523
0.0356383
0.0352294
0.0349813
0.0345693
0.0342827
0.0338578
0.0335325
0.0330898
0.0327272
0.0322639
0.031866
0.0313808
0.0309492
0.0304415
0.0299777
0.0294476
0.0289531
0.0284014
0.0278789
0.0273061
0.0267573
0.0261641
0.0255906
0.0249826
0.0244035
0.0237952
0.0232157
0.0226122
0.0220337
0.0214348
0.0208626
0.0202744
0.019714
0.0191416
0.0185981
0.018046
0.0175236
0.0169959
0.016497
0.0159947
0.015521
0.0150464
0.0146
0.0141548
0.0137373
0.0133228
0.0129354
0.0125525
0.0121957
0.0118449
0.0115184
0.0112003
0.0109049
0.0106191
0.010355
0.010102
0.00986874
0.00964611
0.0094416
0.00924708
0.00906927
0.00890058
0.00874867
0.00860567
0.00847794
0.00835784
0.00825122
0.00815209
0.00806422
0.00798358
0.00791171
0.00784623
0.00778708
0.00773346
0.00768367
0.00763842
0.00759505
0.00755542
0.00751563
0.00747824
0.00743783
0.0073963
0.00734712
0.00729315
0.00722762
0.00715417
0.00706651
0.00696977
0.00685999
0.00674548
0.00662733
0.00652092
0.00645217
0.00642574
0.0064745
0.00666164
0.00687256
0.00697438
0.0223945
0.0217502
0.0214826
0.0209704
0.0206813
0.0201804
0.019871
0.0193779
0.0190523
0.0185665
0.0182292
0.0177517
0.017407
0.0169394
0.0165917
0.0161361
0.0157894
0.0153478
0.0150058
0.01458
0.0142454
0.0138377
0.0135139
0.0131268
0.012817
0.0124546
0.0121666
0.0118327
0.0115675
0.0112627
0.0110209
0.0107453
0.0105279
0.0102821
0.0100893
0.00987297
0.00970481
0.00951737
0.00937355
0.00921396
0.00909384
0.00896101
0.0088639
0.00875677
0.00868198
0.00859951
0.00854633
0.00848737
0.00845503
0.00842096
0.0084051
0.00839745
0.00839589
0.00840846
0.00842861
0.00845983
0.00849941
0.00854898
0.0086077
0.00867551
0.00875296
0.00883883
0.0089348
0.0090387
0.00915287
0.00927442
0.00940664
0.00954614
0.00969675
0.0098549
0.0100245
0.0102022
0.0103919
0.0105907
0.0108018
0.0110227
0.0112561
0.0114998
0.0117554
0.0120212
0.012298
0.0125839
0.0128783
0.0131798
0.0134867
0.0137958
0.0141
0.0143942
0.014672
0.014926
0.0151497
0.0153364
0.0154833
0.0155903
0.0156656
0.0157375
0.0158774
0.0162523
0.0167196
0.0171438
0.0129758
0.0124138
0.0121894
0.0117633
0.0115503
0.0111473
0.010946
0.0105686
0.0103802
0.0100303
0.00985585
0.00953466
0.00937481
0.00908323
0.00893835
0.00867673
0.008547
0.00831532
0.00820069
0.0079986
0.0078989
0.0077259
0.00764087
0.00749623
0.00742546
0.00730835
0.00725139
0.00716046
0.00711662
0.00705062
0.0070193
0.00697701
0.00695755
0.00693824
0.00693072
0.00692809
0.00693441
0.00694857
0.00697062
0.00699873
0.00703584
0.00707747
0.00712891
0.00718381
0.0072491
0.00731714
0.00739592
0.00747706
0.00756915
0.00766349
0.00776875
0.00787672
0.00799508
0.00811724
0.0082491
0.00838567
0.00853169
0.00868345
0.00884464
0.00901242
0.00918993
0.00937486
0.00957001
0.00977351
0.009988
0.0102118
0.0104476
0.010694
0.0109535
0.0112251
0.0115113
0.0118115
0.0121279
0.0124604
0.0128112
0.0131805
0.0135708
0.0139825
0.0144183
0.014879
0.0153673
0.0158847
0.0164338
0.0170166
0.0176358
0.018294
0.0189986
0.0197532
0.0205671
0.0214478
0.0224049
0.0234492
0.0245931
0.0258518
0.0272409
0.0287738
0.0304398
0.0321298
0.0334143
0.0339489
0.0144829
0.0138956
0.0136593
0.0132095
0.0129792
0.0125499
0.0123261
0.0119187
0.0117028
0.0113185
0.0111128
0.010753
0.0105594
0.0102251
0.0100453
0.00973702
0.00957254
0.00929063
0.00914235
0.00888695
0.00875547
0.00852652
0.00841206
0.00821084
0.00811096
0.00793827
0.0078528
0.00770824
0.00763697
0.00751998
0.00746262
0.00737245
0.00732861
0.00726413
0.00723319
0.00719313
0.00717453
0.00715889
0.00715323
0.00715211
0.00716446
0.00717995
0.00720812
0.00723859
0.00728179
0.00732684
0.00738445
0.0074438
0.00751546
0.00758893
0.00767436
0.00776187
0.00786093
0.00796258
0.00807535
0.00819133
0.00831805
0.00844836
0.00858899
0.00873406
0.00888914
0.00904989
0.00922021
0.0093973
0.0095838
0.00977812
0.00998193
0.0101945
0.0104169
0.010649
0.0108915
0.0111447
0.011409
0.011685
0.011973
0.0122738
0.0125879
0.0129163
0.0132594
0.0136186
0.0139944
0.0143886
0.0148024
0.0152383
0.0156981
0.0161853
0.0167031
0.0172559
0.0178459
0.0184784
0.019166
0.0199146
0.0207381
0.0216498
0.0226727
0.0238362
0.0251775
0.0267004
0.028134
0.0288103
0.0256516
0.025019
0.0247551
0.0242534
0.0239656
0.0234733
0.0231602
0.0226723
0.0223352
0.0218463
0.0214858
0.0209953
0.020617
0.0201258
0.0197346
0.0192449
0.0188456
0.0183597
0.0179566
0.0174773
0.0170747
0.0166049
0.0162067
0.0157494
0.0153597
0.0149179
0.0145391
0.0141148
0.0137503
0.0133469
0.0130001
0.0126205
0.0122977
0.0119486
0.0116528
0.0113346
0.0110659
0.0107788
0.0105374
0.0102811
0.010067
0.00984106
0.00965397
0.00945745
0.00929644
0.00912828
0.00899246
0.00885162
0.00873996
0.00862523
0.00853657
0.00844655
0.00837964
0.00831299
0.00826669
0.00822163
0.00819453
0.00817225
0.00816233
0.00815873
0.00816177
0.00817731
0.00819602
0.00822531
0.00825776
0.00829915
0.00834343
0.00839403
0.00844623
0.00850307
0.00856033
0.00862061
0.00867984
0.00874037
0.00879821
0.0088556
0.00890891
0.0089606
0.00900723
0.00905126
0.00908928
0.00912429
0.00915383
0.00918195
0.00920685
0.00923246
0.0092579
0.00928809
0.00932413
0.00937094
0.00942249
0.00949131
0.00957839
0.00969272
0.00984546
0.0100612
0.0103765
0.0108255
0.0113927
0.0117526
0.0396683
0.0392426
0.039064
0.0387261
0.0385187
0.0381759
0.0379331
0.0375743
0.0372945
0.0369146
0.0365978
0.0361936
0.0358399
0.0354096
0.0350196
0.0345618
0.034136
0.0336499
0.0331892
0.0326744
0.0321792
0.0316357
0.031107
0.030535
0.0299739
0.0293743
0.0287835
0.0281583
0.0275395
0.0268898
0.0262449
0.0255721
0.0249149
0.0242404
0.0235836
0.0229129
0.0222613
0.0215958
0.0209514
0.0202973
0.0196663
0.0190292
0.0184169
0.0178022
0.0172125
0.0166215
0.0160559
0.0154923
0.0149542
0.0144213
0.0139137
0.0134139
0.0129392
0.0124747
0.0120351
0.0116076
0.011205
0.0108152
0.0104517
0.0101012
0.00977472
0.00945942
0.00916604
0.00888261
0.00861837
0.00836326
0.00812381
0.0078972
0.00768484
0.00748508
0.00729642
0.00711989
0.00695161
0.00679502
0.00664463
0.00650464
0.00636855
0.00624237
0.00611962
0.00600791
0.00589912
0.00580121
0.00570579
0.00562225
0.0055433
0.0054775
0.00541751
0.0053699
0.00532914
0.00530297
0.00529092
0.00528661
0.00528828
0.00531494
0.00536269
0.0054546
0.00561935
0.00588644
0.00617453
0.00629625
0.0518248
0.0517106
0.0516651
0.0515894
0.0515427
0.0514529
0.0513868
0.0512709
0.0511766
0.0510325
0.050909
0.0507338
0.0505765
0.0503676
0.050173
0.0499278
0.0496932
0.0494096
0.0491327
0.0488098
0.0484883
0.0481241
0.0477571
0.0473502
0.0469377
0.0464872
0.046029
0.0455349
0.0450315
0.0444942
0.0439468
0.043368
0.0427737
0.0421467
0.0415027
0.0408279
0.0401351
0.0394136
0.0386734
0.0379063
0.0371209
0.0363104
0.0354826
0.0346317
0.0337659
0.0328819
0.0319853
0.0310733
0.0301513
0.0292172
0.0282758
0.0273259
0.0263715
0.0254123
0.0244522
0.0234916
0.0225341
0.0215803
0.020655
0.0197458
0.0188715
0.0180111
0.0171853
0.016377
0.0156061
0.0148576
0.0141471
0.0134605
0.0128102
0.0121884
0.0116018
0.0110459
0.0105222
0.010031
0.00957057
0.00914762
0.00874784
0.00837866
0.00802615
0.0077059
0.00740401
0.00713214
0.00687037
0.00662675
0.00639098
0.00617659
0.00597787
0.00579541
0.00561684
0.00543712
0.00526875
0.0051202
0.00500512
0.00488134
0.00478928
0.00474544
0.00473419
0.0048378
0.00507843
0.00523399
0.0589092
0.0591163
0.0592116
0.0594077
0.0595423
0.0597226
0.0598695
0.0600293
0.0601747
0.0603133
0.0604487
0.0605651
0.0606843
0.0607774
0.0608754
0.0609431
0.0610154
0.0610552
0.0610912
0.0611056
0.0611101
0.0610906
0.0610571
0.0609969
0.0609242
0.060821
0.0607044
0.0605545
0.0603887
0.0601876
0.0599673
0.0597103
0.0594298
0.0591118
0.0587666
0.0583827
0.0579686
0.0575196
0.0570374
0.0565169
0.0559623
0.0553671
0.054737
0.0540652
0.0533581
0.0526093
0.0518253
0.0510006
0.050141
0.049243
0.0483115
0.0473443
0.0463457
0.0453148
0.044255
0.0431668
0.0420531
0.0409151
0.0397504
0.0385632
0.0373535
0.0361282
0.0348893
0.0336397
0.032382
0.0311194
0.0298548
0.0285909
0.0273309
0.0260789
0.0248393
0.0236164
0.0224119
0.0212278
0.0200657
0.0189842
0.017943
0.016965
0.0160083
0.0150972
0.0142246
0.01341
0.012646
0.0119104
0.0111881
0.0104649
0.00978281
0.00916384
0.00862995
0.00805906
0.00742157
0.00677073
0.00632091
0.00590942
0.00539979
0.00498151
0.0047671
0.0046751
0.00471143
0.0048738
0.0606393
0.0610165
0.061187
0.0615199
0.0617484
0.0620644
0.0623225
0.0626233
0.0628963
0.0631851
0.0634644
0.0637434
0.0640231
0.0642933
0.0645693
0.0648305
0.0650993
0.0653506
0.0656093
0.0658504
0.0660955
0.0663235
0.0665529
0.0667657
0.0669783
0.0671747
0.0673698
0.0675473
0.067721
0.067876
0.0680242
0.0681527
0.0682705
0.068367
0.0684502
0.0685111
0.0685502
0.0685674
0.068571
0.0685379
0.0684841
0.0683936
0.0682775
0.0681208
0.0679333
0.0677016
0.0674331
0.0671171
0.0667584
0.0663489
0.0658914
0.0653803
0.0648171
0.0641992
0.0635255
0.0627946
0.0620078
0.0611625
0.0602606
0.0593011
0.0582856
0.0572166
0.0560953
0.0549242
0.053704
0.052438
0.0511274
0.0497766
0.0483871
0.0469638
0.0455084
0.0440251
0.0425152
0.0409821
0.0394285
0.0378519
0.036256
0.0346376
0.0330102
0.0313743
0.02974
0.0280867
0.0264003
0.0247017
0.0230686
0.0214925
0.0198345
0.0179866
0.0162088
0.0148112
0.0135298
0.011789
0.00992576
0.00880005
0.00774829
0.00648464
0.00552616
0.00497313
0.0047337
0.00473825
0.0583848
0.0587876
0.058973
0.0593182
0.0595655
0.0598952
0.0601749
0.0604948
0.0607941
0.0611093
0.0614209
0.061735
0.0620548
0.0623696
0.0626949
0.0630114
0.06334
0.063658
0.0639879
0.0643064
0.0646349
0.0649515
0.0652746
0.0655841
0.0658944
0.0661942
0.0665017
0.0668011
0.0671054
0.0674031
0.0677041
0.0679998
0.0682982
0.0685924
0.068884
0.0691698
0.0694518
0.0697276
0.0699979
0.0702587
0.0705133
0.0707561
0.0709911
0.0712114
0.0714214
0.0716139
0.0717926
0.071951
0.0720913
0.0722084
0.0723034
0.0723714
0.0724053
0.0724177
0.072407
0.0723502
0.0722652
0.0721345
0.0719629
0.0717408
0.0714664
0.0711334
0.0707352
0.0702703
0.0697352
0.0691268
0.0684388
0.0676675
0.0668123
0.0658669
0.064834
0.063709
0.0624963
0.0611931
0.0598054
0.058332
0.0567798
0.0551476
0.0534371
0.0516474
0.0497802
0.0478342
0.045799
0.0436606
0.0414167
0.0390802
0.0366457
0.0340611
0.0312959
0.0284288
0.0255611
0.0225865
0.0194677
0.0164907
0.0136611
0.0110321
0.00876404
0.00688927
0.00553438
0.00488949
0.0535187
0.0538657
0.0540264
0.0543147
0.0545173
0.054795
0.0550228
0.0552939
0.0555395
0.0558081
0.0560667
0.0563355
0.0566042
0.0568751
0.0571514
0.0574254
0.0577075
0.0579849
0.0582712
0.0585516
0.0588408
0.0591237
0.0594147
0.0597
0.0599932
0.0602839
0.0605832
0.0608811
0.0611869
0.0614923
0.0618044
0.0621165
0.0624336
0.0627505
0.0630734
0.0633971
0.0637258
0.064056
0.06439
0.0647256
0.0650644
0.0654041
0.065746
0.0660875
0.0664299
0.0667721
0.0671153
0.0674564
0.0677957
0.0681292
0.0684547
0.0687679
0.0690637
0.0693363
0.0695727
0.0698081
0.0700209
0.0702224
0.0704016
0.0705651
0.0707073
0.0708358
0.0709495
0.071042
0.0710936
0.0711158
0.0711185
0.0710579
0.0709693
0.0708177
0.070624
0.0703611
0.0700368
0.0696272
0.0691332
0.0685325
0.0678185
0.0669694
0.0659732
0.0648089
0.0634629
0.0619175
0.0601614
0.0581805
0.0559662
0.053515
0.0508267
0.0479006
0.0447253
0.0412863
0.0375755
0.0335654
0.0292518
0.0246848
0.0201892
0.0160576
0.0125956
0.0100501
0.00820348
0.00627156
0.0474525
0.0476754
0.0477794
0.0479639
0.0480823
0.048266
0.0483983
0.0485785
0.0487239
0.0489013
0.0490579
0.0492339
0.0493996
0.0495755
0.0497481
0.0499249
0.0501028
0.050281
0.0504627
0.0506428
0.0508277
0.0510102
0.0511984
0.0513845
0.0515773
0.0517695
0.0519685
0.0521679
0.0523739
0.0525809
0.052794
0.0530089
0.0532295
0.0534528
0.0536821
0.0539149
0.0541535
0.0543964
0.0546452
0.054899
0.0551589
0.0554244
0.0556967
0.0559755
0.0562619
0.0565535
0.0568502
0.0571505
0.057454
0.0577587
0.0580638
0.0583678
0.0586698
0.0589695
0.0592686
0.059576
0.05988
0.0601893
0.0604901
0.060786
0.0610608
0.0613093
0.0615457
0.0617672
0.0619819
0.062184
0.0623731
0.0625395
0.0626915
0.062811
0.0629005
0.0629418
0.062954
0.0628984
0.0627732
0.0625634
0.0622585
0.0618386
0.0612919
0.0605972
0.0597408
0.0587022
0.0574677
0.0560186
0.054343
0.0524121
0.0501953
0.0476406
0.0446813
0.0412421
0.0372523
0.0327462
0.028049
0.0233014
0.0190054
0.0151892
0.012398
0.0104719
0.00936939
0.00813297
0.0292956
0.0293112
0.0292919
0.0292703
0.0292335
0.0292062
0.0291632
0.0291325
0.0290872
0.0290534
0.0290075
0.0289704
0.0289244
0.0288841
0.0288376
0.0287945
0.0287472
0.0287015
0.0286533
0.0286052
0.028556
0.0285061
0.028456
0.0284048
0.0283539
0.0283018
0.0282499
0.0281969
0.028144
0.0280899
0.0280359
0.0279808
0.0279256
0.0278695
0.0278131
0.0277561
0.0276985
0.0276403
0.0275815
0.027522
0.0274618
0.0274007
0.0273387
0.0272754
0.0272105
0.0271435
0.027074
0.0270015
0.0269257
0.0268462
0.0267628
0.0266753
0.0265837
0.0264879
0.0263885
0.0262845
0.026173
0.0260544
0.0259234
0.0257804
0.0256188
0.0254392
0.0252519
0.0250541
0.0248505
0.0246358
0.024413
0.0241785
0.0239337
0.0236736
0.0234
0.0231088
0.022802
0.0224691
0.0221147
0.0217312
0.0213195
0.0208737
0.0203939
0.0198749
0.0193167
0.0187147
0.0180681
0.0173721
0.0166228
0.0158061
0.014904
0.0138766
0.0126629
0.0111897
0.0093535
0.00727683
0.0053021
0.00355514
0.00241689
0.00181992
0.00211556
0.00446831
0.00754727
0.00874469
0.0080875
0.00390909
0.00357601
0.0034977
0.00341019
0.0032256
0.00294795
0.00280876
0.00269266
0.0024482
0.00229699
0.0022358
0.00222394
0.00233597
0.00263813
0.00340263
0.00486559
0.00543624
0.00518327
0.0030396
0.0064744
0.00395522
0.00370804
0.00359103
0.00336566
0.00307515
0.00283393
0.00271368
0.0024796
0.00228255
0.00220768
0.00219025
0.0022262
0.0023883
0.00282153
0.00384828
0.00507928
0.00534265
0.00484396
0.00248732
0.00521305
0.00399652
0.00380696
0.00354941
0.00323123
0.0028758
0.00271067
0.00250611
0.0023148
0.00223441
0.00220575
0.00220196
0.00228207
0.00256118
0.00322884
0.0045833
0.00518705
0.00523945
0.0044489
0.00194861
0.0047655
0.00396909
0.00376349
0.00330573
0.00292312
0.00273376
0.00257444
0.00240558
0.00231035
0.00226371
0.00225168
0.00229938
0.00249849
0.00300897
0.00412312
0.00500394
0.00521051
0.00506516
0.00393285
0.00145867
0.0045
0.00381593
0.00356869
0.00310459
0.00291621
0.0027094
0.00257812
0.00245906
0.00242169
0.00242898
0.00248631
0.00266854
0.00311554
0.00406553
0.00490938
0.00518894
0.00519963
0.00481261
0.003262
0.0010334
0.00432964
0.00378332
0.0035532
0.00316286
0.00301769
0.00287276
0.00282338
0.0028151
0.00292983
0.00307452
0.00327576
0.003736
0.00457436
0.0051209
0.00533964
0.00536737
0.00512149
0.00438629
0.00245506
0.000675072
0.00441352
0.00405959
0.0038924
0.00375742
0.00374532
0.00382929
0.00403325
0.0043215
0.00464122
0.00476969
0.00517185
0.00551148
0.00572135
0.00579283
0.00571754
0.00544496
0.00490084
0.00373548
0.00162633
0.000395519
0.00648821
0.00647687
0.00675574
0.00694036
0.00727938
0.00751456
0.00760008
0.0076134
0.00743897
0.00735734
0.00729608
0.00712954
0.00695241
0.00656525
0.00611636
0.00533008
0.00441623
0.0027722
0.00101014
0.000211276
0.0169631
0.0169369
0.0169019
0.0161166
0.0154238
0.014264
0.0134586
0.0124623
0.0117192
0.0108629
0.0101179
0.00923411
0.00835555
0.00725322
0.00608929
0.0048663
0.00343544
0.0018462
0.000674382
0.000120513
0.0309338
0.0292054
0.02739
0.0247937
0.0231392
0.0208458
0.0194242
0.0173985
0.0161077
0.0142249
0.0128929
0.0109787
0.00940586
0.00725096
0.00544107
0.00364973
0.00228929
0.00115598
0.000443734
9.14732e-05
0.0273568
0.0258705
0.0246653
0.0223562
0.0212049
0.0191689
0.0181566
0.0163901
0.0154439
0.0138287
0.0127656
0.0111256
0.00976256
0.007916
0.00615248
0.00433114
0.00253963
0.00120317
0.000389034
7.24881e-05
0.0117151
0.0120882
0.0123578
0.0124594
0.0123576
0.0119553
0.0114849
0.011093
0.0106457
0.0103049
0.00982111
0.00936837
0.00866553
0.00790159
0.00670957
0.00563075
0.00405953
0.00205311
0.000613987
8.64156e-05
0.00571922
0.00562095
0.00562501
0.00570852
0.00599082
0.00632793
0.00667526
0.00680527
0.00696827
0.00702161
0.00718191
0.00723219
0.00722357
0.00700444
0.00670864
0.00596767
0.00504689
0.00324332
0.00104461
0.000162976
0.00467023
0.00428004
0.00410095
0.00384213
0.00376771
0.00373599
0.00385586
0.00405919
0.00435826
0.0046343
0.00509421
0.00572255
0.00603532
0.00617989
0.006196
0.0060407
0.00549503
0.00429491
0.00175092
0.000349368
0.00454822
0.00407256
0.00388063
0.00350228
0.00334612
0.00313765
0.00305623
0.00302656
0.00308676
0.00319292
0.00339713
0.00384426
0.00478019
0.00551231
0.00580394
0.00584788
0.00567579
0.00495814
0.00279537
0.000665313
0.00453275
0.00402191
0.0038503
0.00347534
0.00329952
0.00304974
0.00290333
0.00277053
0.0027242
0.00271556
0.00276229
0.00293892
0.00339074
0.00434991
0.0053602
0.0057017
0.00571699
0.00534545
0.00366216
0.00107024
0.00465912
0.00396643
0.00383349
0.00354862
0.00332051
0.00313254
0.00292291
0.00273356
0.00264202
0.00259163
0.00257817
0.00262277
0.002829
0.00334798
0.00448467
0.00546078
0.00569686
0.00556712
0.00436617
0.00155459
0.00521703
0.00386036
0.00367094
0.00356701
0.00334669
0.00316499
0.00303489
0.00283089
0.0026435
0.00256546
0.00253727
0.00253575
0.00262267
0.00291482
0.00361515
0.00503043
0.00566365
0.00570936
0.00486823
0.00211387
0.0068049
0.00383421
0.00353087
0.00340906
0.00334766
0.0031684
0.00305766
0.0029388
0.00276763
0.00259697
0.00253291
0.00252131
0.00255803
0.00273114
0.00319805
0.00427538
0.00555224
0.00581841
0.00528352
0.00272499
0.00853113
0.00383613
0.00339055
0.00328148
0.00322575
0.0031591
0.00305698
0.0029664
0.00285214
0.00270519
0.00257928
0.00254376
0.00254575
0.00266074
0.00298965
0.00385765
0.00532823
0.00590304
0.00561473
0.00333618
0.00397113
0.00375019
0.00374679
0.0037468
0.00374652
0.00374628
0.00374612
0.00374604
0.003746
0.00374598
0.00374598
0.003746
0.00374604
0.00374612
0.00374628
0.00374652
0.0037468
0.00374679
0.00375019
0.00397113
0.00441476
0.00375346
0.00374141
0.00374096
0.00374056
0.00374012
0.00373987
0.00373975
0.00373969
0.00373966
0.00373966
0.00373969
0.00373975
0.00373987
0.00374012
0.00374056
0.00374096
0.00374141
0.00375346
0.00441476
0.00485971
0.0037606
0.00373287
0.00373264
0.00373284
0.00373273
0.00373256
0.00373242
0.00373235
0.00373231
0.00373231
0.00373235
0.00373242
0.00373256
0.00373273
0.00373284
0.00373264
0.00373287
0.0037606
0.00485971
0.005302
0.00377205
0.00372429
0.00372395
0.00372491
0.00372524
0.00372525
0.00372519
0.00372514
0.00372512
0.00372512
0.00372514
0.00372519
0.00372525
0.00372524
0.00372491
0.00372395
0.00372429
0.00377205
0.005302
0.00573874
0.00378543
0.00371551
0.00371483
0.00371665
0.00371758
0.00371789
0.00371795
0.00371795
0.00371795
0.00371795
0.00371795
0.00371795
0.00371789
0.00371758
0.00371665
0.00371483
0.00371551
0.00378543
0.00573874
0.00617029
0.0037977
0.00370579
0.00370511
0.00370801
0.00370969
0.00371043
0.0037107
0.00371078
0.0037108
0.0037108
0.00371078
0.0037107
0.00371043
0.00370969
0.003708
0.00370511
0.00370579
0.0037977
0.00617029
0.00659235
0.00380846
0.00369497
0.00369474
0.00369893
0.00370155
0.00370284
0.0037034
0.00370361
0.00370368
0.00370368
0.00370361
0.0037034
0.00370284
0.00370155
0.00369893
0.00369474
0.00369497
0.00380846
0.00659235
0.0070012
0.00381664
0.00368268
0.0036836
0.0036894
0.00369311
0.00369508
0.00369602
0.00369642
0.00369656
0.00369656
0.00369642
0.00369602
0.00369508
0.00369311
0.0036894
0.0036836
0.00368268
0.00381664
0.0070012
0.00739301
0.00382337
0.00366917
0.00367175
0.00367942
0.00368438
0.00368714
0.00368854
0.00368919
0.00368943
0.00368943
0.00368919
0.00368854
0.00368714
0.00368438
0.00367942
0.00367175
0.00366917
0.00382337
0.00739301
0.00776738
0.00382742
0.00365408
0.00365904
0.00366894
0.00367532
0.00367899
0.00368095
0.0036819
0.00368228
0.00368228
0.0036819
0.00368095
0.00367899
0.00367532
0.00366894
0.00365904
0.00365408
0.00382742
0.00776738
0.00812044
0.0038302
0.00363766
0.00364553
0.00365794
0.00366593
0.00367061
0.00367321
0.00367453
0.00367507
0.00367507
0.00367453
0.00367321
0.00367061
0.00366593
0.00365794
0.00364553
0.00363766
0.0038302
0.00812043
0.00845062
0.00383065
0.00361984
0.0036312
0.00364644
0.00365619
0.003662
0.00366531
0.00366705
0.00366778
0.00366778
0.00366705
0.00366531
0.003662
0.00365619
0.00364644
0.0036312
0.00361985
0.00383065
0.00845062
0.00875516
0.00383015
0.0036009
0.00361613
0.00363446
0.00364613
0.00365316
0.00365725
0.00365946
0.00366041
0.00366041
0.00365946
0.00365725
0.00365316
0.00364613
0.00363446
0.00361613
0.0036009
0.00383016
0.00875515
0.00903526
0.00382882
0.00358083
0.00360031
0.00362199
0.00363573
0.00364408
0.00364901
0.00365173
0.00365292
0.00365292
0.00365173
0.00364901
0.00364408
0.00363573
0.00362199
0.00360031
0.00358083
0.00382883
0.00903525
0.00928895
0.00382657
0.00355988
0.00358383
0.00360906
0.003625
0.00363475
0.00364059
0.00364385
0.00364531
0.00364531
0.00364385
0.00364059
0.00363475
0.003625
0.00360906
0.00358383
0.00355988
0.00382657
0.00928894
0.00951752
0.00382339
0.00353792
0.00356663
0.00359565
0.00361394
0.00362518
0.00363197
0.00363582
0.00363755
0.00363755
0.00363582
0.00363197
0.00362518
0.00361394
0.00359565
0.00356663
0.00353792
0.0038234
0.00951751
0.0097193
0.00382006
0.0035153
0.00354885
0.00358181
0.00360255
0.00361535
0.00362315
0.00362761
0.00362964
0.00362964
0.00362761
0.00362315
0.00361535
0.00360255
0.00358181
0.00354885
0.00351531
0.00382006
0.00971928
0.00989727
0.00381656
0.0034921
0.00353052
0.00356756
0.00359086
0.00360529
0.00361414
0.00361924
0.00362157
0.00362157
0.00361924
0.00361414
0.00360529
0.00359086
0.00356756
0.00353051
0.00349209
0.00381655
0.00989725
0.0100502
0.00381354
0.00346855
0.00351172
0.00355294
0.00357888
0.00359499
0.00360492
0.00361068
0.00361332
0.00361332
0.00361068
0.00360492
0.00359499
0.00357888
0.00355294
0.00351173
0.00346855
0.00381355
0.0100502
0.0101815
0.00381061
0.00344463
0.00349248
0.00353795
0.00356661
0.00358445
0.0035955
0.00360193
0.0036049
0.0036049
0.00360193
0.0035955
0.00358445
0.00356661
0.00353795
0.00349248
0.00344462
0.00381061
0.0101815
0.0102898
0.00380851
0.00342049
0.00347281
0.00352261
0.00355405
0.00357367
0.00358587
0.003593
0.0035963
0.0035963
0.003593
0.00358587
0.00357367
0.00355405
0.00352261
0.00347281
0.00342049
0.0038085
0.0102898
0.0103795
0.00380711
0.00339636
0.00345284
0.00350696
0.00354122
0.00356267
0.00357603