/*--------------------------------*- C++ -*----------------------------------*\
| =========                 |                                                 |
| \\      /  F ield         | OpenFOAM: The Open Source CFD Toolbox           |
|  \\    /   O peration     | Version:  2.1.0                                 |
|   \\  /    A nd           | Web:      www.OpenFOAM.org                      |
|    \\/     M anipulation  |                                                 |
\*---------------------------------------------------------------------------*/
FoamFile
{
    version     2.0;
    format      ascii;
    class       volScalarField;
    location    "0.2";
    object      nut;
}
// * * * * * * * * * * * * * * * * * * * * * * * * * * * * * * * * * * * * * //

dimensions      [0 2 -1 0 0 0 0];

internalField   nonuniform List<scalar> 
6400
(
6.82844e-06
6.84306e-06
6.85205e-06
6.86404e-06
6.8754e-06
6.8896e-06
6.90133e-06
6.91656e-06
6.92888e-06
6.94457e-06
6.95769e-06
6.97361e-06
6.98758e-06
7.00375e-06
7.01857e-06
7.03507e-06
7.0508e-06
7.06773e-06
7.08445e-06
7.10198e-06
7.11975e-06
7.13807e-06
7.15692e-06
7.17616e-06
7.19611e-06
7.21641e-06
7.23749e-06
7.25893e-06
7.28121e-06
7.30388e-06
7.32742e-06
7.35142e-06
7.37632e-06
7.40176e-06
7.42812e-06
7.45508e-06
7.48292e-06
7.51137e-06
7.5406e-06
7.57033e-06
7.60061e-06
7.63128e-06
7.66227e-06
7.69346e-06
7.72472e-06
7.75591e-06
7.78688e-06
7.81749e-06
7.84756e-06
7.87684e-06
7.90482e-06
7.93056e-06
7.95388e-06
7.97758e-06
8.00028e-06
8.02272e-06
8.04437e-06
8.06532e-06
8.08574e-06
8.10568e-06
8.12485e-06
8.14326e-06
8.1606e-06
8.17673e-06
8.19185e-06
8.20504e-06
8.21487e-06
8.22319e-06
8.22684e-06
8.22806e-06
8.22408e-06
8.21661e-06
8.20377e-06
8.187e-06
8.16538e-06
8.14046e-06
8.1124e-06
8.08323e-06
8.05407e-06
8.02704e-06
8.00253e-06
7.97868e-06
7.94857e-06
7.9266e-06
7.9095e-06
7.89739e-06
7.88695e-06
7.86733e-06
7.82374e-06
7.72232e-06
7.50679e-06
7.06225e-06
6.20235e-06
4.73241e-06
2.71862e-06
1.66906e-06
1.87972e-06
3.06319e-06
3.2623e-06
3.6219e-06
7.24224e-05
7.27857e-05
7.28405e-05
7.30639e-05
7.31275e-05
7.3306e-05
7.33864e-05
7.35354e-05
7.36291e-05
7.37578e-05
7.3859e-05
7.39725e-05
7.4076e-05
7.41775e-05
7.42787e-05
7.43699e-05
7.44659e-05
7.45477e-05
7.46367e-05
7.47104e-05
7.47917e-05
7.48594e-05
7.49341e-05
7.49956e-05
7.5063e-05
7.51183e-05
7.51779e-05
7.52261e-05
7.52764e-05
7.53159e-05
7.53549e-05
7.53834e-05
7.54089e-05
7.54233e-05
7.54353e-05
7.54372e-05
7.54347e-05
7.54229e-05
7.54053e-05
7.53776e-05
7.53392e-05
7.52871e-05
7.52206e-05
7.51357e-05
7.50319e-05
7.49045e-05
7.47526e-05
7.45713e-05
7.43596e-05
7.41165e-05
7.385e-05
7.35408e-05
7.30017e-05
7.2381e-05
7.17236e-05
7.10299e-05
7.03001e-05
6.95295e-05
6.87192e-05
6.78754e-05
6.69936e-05
6.60765e-05
6.51209e-05
6.41221e-05
6.30866e-05
6.20221e-05
6.08955e-05
5.97329e-05
5.85111e-05
5.72436e-05
5.59161e-05
5.45363e-05
5.30953e-05
5.15985e-05
5.00417e-05
4.84305e-05
4.67643e-05
4.50501e-05
4.32907e-05
4.14948e-05
3.9669e-05
3.78155e-05
3.59304e-05
3.39905e-05
3.19972e-05
2.99335e-05
2.78004e-05
2.55807e-05
2.32796e-05
2.08966e-05
1.84631e-05
1.60213e-05
1.36508e-05
1.14673e-05
9.45086e-06
7.611e-06
6.17276e-06
5.2123e-06
4.76644e-06
5.9809e-06
0.000110563
0.000110658
0.000110692
0.00011068
0.000110692
0.000110646
0.000110642
0.000110572
0.000110551
0.000110461
0.00011042
0.00011031
0.000110246
0.000110115
0.000110024
0.00010987
0.000109748
0.000109569
0.000109414
0.000109208
0.000109019
0.000108786
0.000108569
0.000108314
0.000108067
0.000107785
0.000107509
0.000107204
0.000106898
0.000106565
0.000106229
0.000105869
0.000105501
0.000105111
0.000104703
0.000104271
0.000103818
0.000103336
0.000102829
0.000102292
0.000101735
0.000101149
0.000100537
9.98879e-05
9.92043e-05
9.84777e-05
9.7707e-05
9.68851e-05
9.60028e-05
9.4663e-05
9.32699e-05
9.18249e-05
9.03639e-05
8.88643e-05
8.73407e-05
8.57845e-05
8.42048e-05
8.2598e-05
8.09779e-05
7.93252e-05
7.76392e-05
7.59275e-05
7.41872e-05
7.2421e-05
7.06296e-05
6.88134e-05
6.6973e-05
6.51132e-05
6.32273e-05
6.1322e-05
5.93896e-05
5.74356e-05
5.54533e-05
5.34468e-05
5.1412e-05
4.93536e-05
4.72699e-05
4.51665e-05
4.30456e-05
4.09144e-05
3.87786e-05
3.66472e-05
3.4529e-05
3.24439e-05
3.03972e-05
2.84029e-05
2.64638e-05
2.4587e-05
2.27677e-05
2.1e-05
1.92611e-05
1.75764e-05
1.58769e-05
1.41406e-05
1.23324e-05
1.05236e-05
8.84104e-06
7.42374e-06
6.95257e-06
9.86501e-06
0.000131032
0.000130558
0.00013037
0.000129957
0.000129759
0.000129331
0.000129101
0.000128661
0.00012839
0.000127936
0.000127622
0.000127151
0.000126791
0.000126299
0.000125892
0.000125374
0.000124917
0.000124365
0.000123854
0.000123259
0.000122682
0.000121688
0.0001207
0.000119667
0.000118639
0.000117573
0.000116503
0.0001154
0.000114289
0.000113147
0.000111994
0.000110812
0.000109614
0.000108391
0.000107148
0.000105879
0.000104589
0.000103274
0.000101937
0.000100573
9.91873e-05
9.77753e-05
9.634e-05
9.48798e-05
9.33959e-05
9.18867e-05
9.0348e-05
8.87983e-05
8.72325e-05
8.56405e-05
8.40421e-05
8.24181e-05
8.0787e-05
7.91336e-05
7.7467e-05
7.57774e-05
7.40707e-05
7.2341e-05
7.05927e-05
6.88269e-05
6.70442e-05
6.52464e-05
6.34339e-05
6.16093e-05
5.97737e-05
5.79313e-05
5.60847e-05
5.42382e-05
5.23952e-05
5.05612e-05
4.87396e-05
4.69369e-05
4.51566e-05
4.34031e-05
4.16803e-05
3.99923e-05
3.83405e-05
3.67278e-05
3.51539e-05
3.36191e-05
3.21203e-05
3.06497e-05
2.92042e-05
2.77935e-05
2.63818e-05
2.49857e-05
2.35809e-05
2.21725e-05
2.07451e-05
1.93129e-05
1.78678e-05
1.64106e-05
1.49242e-05
1.34166e-05
1.18797e-05
1.04107e-05
9.124e-06
8.52406e-06
1.00351e-05
1.01718e-05
0.000130833
0.000130643
0.000130289
0.00012991
0.000129084
0.000128323
0.000127362
0.000126443
0.000125433
0.000124431
0.000123392
0.000122334
0.000121266
0.000120165
0.000119065
0.000117928
0.000116792
0.000115617
0.000114445
0.000113234
0.000112023
0.000110785
0.000109548
0.000108273
0.000107001
0.000105693
0.000104386
0.000103049
0.00010171
0.000100343
9.89731e-05
9.75781e-05
9.61671e-05
9.47521e-05
9.33238e-05
9.1873e-05
9.04156e-05
8.894e-05
8.7456e-05
8.59571e-05
8.44493e-05
8.29292e-05
8.14012e-05
7.98636e-05
7.832e-05
7.67702e-05
7.52175e-05
7.36633e-05
7.21075e-05
7.05538e-05
6.90004e-05
6.74454e-05
6.58915e-05
6.4338e-05
6.27896e-05
6.12454e-05
5.97104e-05
5.81854e-05
5.66729e-05
5.51741e-05
5.36915e-05
5.22272e-05
5.07822e-05
4.93586e-05
4.79568e-05
4.65789e-05
4.52243e-05
4.38936e-05
4.25854e-05
4.12952e-05
4.00259e-05
3.87848e-05
3.75458e-05
3.63264e-05
3.5103e-05
3.38935e-05
3.26751e-05
3.14605e-05
3.02332e-05
2.90027e-05
2.77571e-05
2.65054e-05
2.52399e-05
2.39752e-05
2.27072e-05
2.14448e-05
2.01842e-05
1.89452e-05
1.77391e-05
1.65832e-05
1.54655e-05
1.43834e-05
1.33432e-05
1.2383e-05
1.15126e-05
1.08716e-05
1.07503e-05
1.0638e-05
1.07172e-05
1.11738e-05
0.000117114
0.0001163
0.000115798
0.000115072
0.000114117
0.000113097
0.000111999
0.00011086
0.000109709
0.000108513
0.000107336
0.000106109
0.000104909
0.000103668
0.000102435
0.000101194
9.99604e-05
9.86965e-05
9.74548e-05
9.61845e-05
9.49359e-05
9.3664e-05
9.24098e-05
9.11291e-05
8.98628e-05
8.85652e-05
8.72788e-05
8.59639e-05
8.46547e-05
8.33201e-05
8.19965e-05
8.06539e-05
7.93201e-05
7.79724e-05
7.66304e-05
7.52793e-05
7.39349e-05
7.25852e-05
7.12437e-05
6.99014e-05
6.85687e-05
6.72393e-05
6.59213e-05
6.46102e-05
6.33124e-05
6.20246e-05
6.07515e-05
5.94905e-05
5.82444e-05
5.70116e-05
5.57942e-05
5.4591e-05
5.34028e-05
5.22286e-05
5.10664e-05
4.9919e-05
4.87904e-05
4.76704e-05
4.65689e-05
4.54743e-05
4.43928e-05
4.33158e-05
4.22469e-05
4.11786e-05
4.01136e-05
3.90468e-05
3.79801e-05
3.69094e-05
3.58355e-05
3.47561e-05
3.36737e-05
3.25862e-05
3.14961e-05
3.00656e-05
2.87203e-05
2.74057e-05
2.61725e-05
2.49793e-05
2.38523e-05
2.27642e-05
2.17331e-05
2.07545e-05
1.98338e-05
1.89679e-05
1.81324e-05
1.7344e-05
1.65874e-05
1.5903e-05
1.52473e-05
1.46481e-05
1.4036e-05
1.34901e-05
1.29439e-05
1.24974e-05
1.20551e-05
1.17639e-05
1.16343e-05
1.16151e-05
1.20297e-05
1.17832e-05
0.000100373
9.90795e-05
9.85115e-05
9.75536e-05
9.66627e-05
9.555e-05
9.45386e-05
9.33694e-05
9.2306e-05
9.11189e-05
9.00302e-05
8.88392e-05
8.77367e-05
8.65475e-05
8.54369e-05
8.42553e-05
8.31392e-05
8.19666e-05
8.08515e-05
7.969e-05
7.85791e-05
7.74306e-05
7.63272e-05
7.51972e-05
7.41075e-05
7.2988e-05
7.19045e-05
7.08022e-05
6.97288e-05
6.86407e-05
6.75818e-05
6.65125e-05
6.54675e-05
6.44143e-05
6.3381e-05
6.23418e-05
6.13185e-05
6.0286e-05
5.92711e-05
5.82567e-05
5.72435e-05
5.62352e-05
5.5228e-05
5.42234e-05
5.32187e-05
5.22148e-05
5.12094e-05
5.02035e-05
4.91943e-05
4.81839e-05
4.71695e-05
4.61543e-05
4.51343e-05
4.41141e-05
4.30931e-05
4.19737e-05
4.06783e-05
3.9412e-05
3.8175e-05
3.69637e-05
3.57836e-05
3.4627e-05
3.35033e-05
3.24003e-05
3.1331e-05
3.02777e-05
2.92585e-05
2.82553e-05
2.72859e-05
2.63366e-05
2.54214e-05
2.45322e-05
2.36785e-05
2.28565e-05
2.20719e-05
2.13217e-05
2.06064e-05
1.99262e-05
1.92792e-05
1.86672e-05
1.80826e-05
1.75358e-05
1.7008e-05
1.65161e-05
1.60345e-05
1.55918e-05
1.5159e-05
1.47702e-05
1.43911e-05
1.40576e-05
1.37354e-05
1.34697e-05
1.32202e-05
1.3052e-05
1.29452e-05
1.28524e-05
1.2928e-05
1.31609e-05
1.36999e-05
1.2898e-05
8.57847e-05
8.41808e-05
8.36685e-05
8.26567e-05
8.19478e-05
8.08996e-05
8.0112e-05
7.90716e-05
7.82514e-05
7.72365e-05
7.64041e-05
7.54168e-05
7.45797e-05
7.36164e-05
7.27766e-05
7.18295e-05
7.09897e-05
7.0051e-05
6.92106e-05
6.82711e-05
6.74274e-05
6.64965e-05
6.56311e-05
6.46986e-05
6.36714e-05
6.22739e-05
6.09965e-05
5.96446e-05
5.84088e-05
5.71082e-05
5.59181e-05
5.46731e-05
5.35358e-05
5.23522e-05
5.12734e-05
5.01554e-05
4.91381e-05
4.80869e-05
4.71318e-05
4.61485e-05
4.52557e-05
4.4334e-05
4.34983e-05
4.26362e-05
4.18548e-05
4.10493e-05
4.03188e-05
3.9566e-05
3.88822e-05
3.81776e-05
3.75355e-05
3.68755e-05
3.62697e-05
3.56499e-05
3.50783e-05
3.44966e-05
3.39568e-05
3.34104e-05
3.28977e-05
3.23785e-05
3.18876e-05
3.13906e-05
3.0918e-05
3.04398e-05
2.99865e-05
2.95281e-05
2.91011e-05
2.86796e-05
2.82618e-05
2.78612e-05
2.74627e-05
2.70818e-05
2.67002e-05
2.63345e-05
2.59651e-05
2.56104e-05
2.52487e-05
2.49004e-05
2.45437e-05
2.41996e-05
2.38452e-05
2.35008e-05
2.31417e-05
2.27839e-05
2.24026e-05
2.20149e-05
2.1597e-05
2.11664e-05
2.07024e-05
2.02237e-05
1.97162e-05
1.92055e-05
1.86893e-05
1.82082e-05
1.78253e-05
1.75295e-05
1.74026e-05
1.76082e-05
1.79876e-05
1.73328e-05
6.99467e-05
6.7832e-05
6.69726e-05
6.53612e-05
6.44715e-05
6.29408e-05
6.20559e-05
6.05895e-05
5.97145e-05
5.83135e-05
5.74552e-05
5.61212e-05
5.52862e-05
5.40211e-05
5.32156e-05
5.20211e-05
5.12503e-05
5.01291e-05
4.93968e-05
4.83489e-05
4.7656e-05
4.66833e-05
4.60355e-05
4.51379e-05
4.45396e-05
4.37218e-05
4.31868e-05
4.24535e-05
4.19801e-05
4.13282e-05
4.09141e-05
4.03399e-05
3.99806e-05
3.94786e-05
3.91686e-05
3.8733e-05
3.84691e-05
3.80948e-05
3.78719e-05
3.75513e-05
3.73639e-05
3.70896e-05
3.69322e-05
3.66978e-05
3.65658e-05
3.63659e-05
3.62554e-05
3.60829e-05
3.59831e-05
3.58515e-05
3.57686e-05
3.56677e-05
3.5575e-05
3.5497e-05
3.54325e-05
3.53727e-05
3.5329e-05
3.5288e-05
3.5266e-05
3.52451e-05
3.52444e-05
3.52439e-05
3.52645e-05
3.52841e-05
3.5324e-05
3.53616e-05
3.54202e-05
3.54761e-05
3.55522e-05
3.56268e-05
3.57202e-05
3.58134e-05
3.59246e-05
3.60383e-05
3.61679e-05
3.63008e-05
3.64458e-05
3.65938e-05
3.67492e-05
3.69055e-05
3.70642e-05
3.72194e-05
3.73696e-05
3.75106e-05
3.7638e-05
3.77449e-05
3.78153e-05
3.78413e-05
3.78119e-05
3.7716e-05
3.75459e-05
3.72913e-05
3.69533e-05
3.65347e-05
3.60562e-05
3.55688e-05
3.52019e-05
3.52394e-05
3.549e-05
3.47425e-05
5.42984e-05
5.24728e-05
5.17488e-05
5.03888e-05
4.97397e-05
4.84538e-05
4.78717e-05
4.66679e-05
4.61493e-05
4.50338e-05
4.45753e-05
4.35525e-05
4.31503e-05
4.2223e-05
4.18733e-05
4.10424e-05
4.0741e-05
4.00063e-05
3.97485e-05
3.91084e-05
3.88893e-05
3.83415e-05
3.81562e-05
3.76972e-05
3.75405e-05
3.71661e-05
3.70331e-05
3.67372e-05
3.66226e-05
3.6399e-05
3.62975e-05
3.613e-05
3.60496e-05
3.59548e-05
3.58871e-05
3.58236e-05
3.57778e-05
3.57519e-05
3.57381e-05
3.57356e-05
3.57512e-05
3.57708e-05
3.58127e-05
3.58533e-05
3.59191e-05
3.598e-05
3.60679e-05
3.61486e-05
3.62571e-05
3.63577e-05
3.64848e-05
3.66048e-05
3.6749e-05
3.689e-05
3.70518e-05
3.72126e-05
3.73923e-05
3.75733e-05
3.7772e-05
3.79732e-05
3.81915e-05
3.84133e-05
3.86519e-05
3.88949e-05
3.91552e-05
3.94204e-05
3.97034e-05
3.99926e-05
4.03e-05
4.06153e-05
4.09489e-05
4.12919e-05
4.16542e-05
4.20276e-05
4.24209e-05
4.28273e-05
4.3256e-05
4.36998e-05
4.41665e-05
4.46511e-05
4.51596e-05
4.56885e-05
4.62422e-05
4.6818e-05
4.74192e-05
4.80435e-05
4.87025e-05
4.93951e-05
5.01334e-05
5.09208e-05
5.17651e-05
5.26725e-05
5.36501e-05
5.47056e-05
5.58448e-05
5.70674e-05
5.8344e-05
5.95431e-05
6.0274e-05
6.05142e-05
5.65718e-05
5.46678e-05
5.39088e-05
5.24806e-05
5.17844e-05
5.043e-05
4.9791e-05
4.85179e-05
4.79332e-05
4.67467e-05
4.62191e-05
4.512e-05
4.46513e-05
4.36394e-05
4.323e-05
4.2305e-05
4.19541e-05
4.11147e-05
4.08203e-05
4.00642e-05
3.98232e-05
3.91478e-05
3.89556e-05
3.83646e-05
3.82046e-05
3.77e-05
3.75664e-05
3.7145e-05
3.70324e-05
3.66902e-05
3.65937e-05
3.63264e-05
3.62416e-05
3.60433e-05
3.59658e-05
3.58223e-05
3.57534e-05
3.56818e-05
3.56214e-05
3.55584e-05
3.55307e-05
3.54974e-05
3.54949e-05
3.5484e-05
3.55043e-05
3.55146e-05
3.55558e-05
3.55866e-05
3.56475e-05
3.56984e-05
3.57779e-05
3.58486e-05
3.59461e-05
3.60367e-05
3.61516e-05
3.62604e-05
3.63931e-05
3.65196e-05
3.66681e-05
3.68121e-05
3.69757e-05
3.71381e-05
3.73167e-05
3.74963e-05
3.76897e-05
3.78858e-05
3.80936e-05
3.83049e-05
3.85265e-05
3.87527e-05
3.89892e-05
3.92307e-05
3.94808e-05
3.9736e-05
3.99991e-05
4.02675e-05
4.05438e-05
4.0826e-05
4.11163e-05
4.14135e-05
4.17195e-05
4.20341e-05
4.23599e-05
4.26982e-05
4.30525e-05
4.34253e-05
4.38217e-05
4.42457e-05
4.46984e-05
4.5184e-05
4.5718e-05
4.63047e-05
4.69582e-05
4.76888e-05
4.85193e-05
4.94764e-05
5.05964e-05
5.1881e-05
5.31056e-05
5.367e-05
7.68122e-05
7.46362e-05
7.37476e-05
7.20798e-05
7.1145e-05
6.95677e-05
6.85896e-05
6.70957e-05
6.60836e-05
6.46343e-05
6.36262e-05
6.22218e-05
6.12235e-05
5.98653e-05
5.88837e-05
5.75755e-05
5.66174e-05
5.5363e-05
5.44349e-05
5.32371e-05
5.23448e-05
5.12066e-05
5.03555e-05
4.92799e-05
4.84743e-05
4.74645e-05
4.67033e-05
4.57598e-05
4.50469e-05
4.41711e-05
4.35099e-05
4.27038e-05
4.21038e-05
4.13767e-05
4.08389e-05
4.01867e-05
3.97065e-05
3.91246e-05
3.8696e-05
3.81784e-05
3.7797e-05
3.73369e-05
3.69983e-05
3.65884e-05
3.62858e-05
3.59191e-05
3.56462e-05
3.53164e-05
3.50676e-05
3.47692e-05
3.45397e-05
3.42679e-05
3.40458e-05
3.37955e-05
3.36092e-05
3.33686e-05
3.3191e-05
3.2984e-05
3.28149e-05
3.26296e-05
3.24583e-05
3.23013e-05
3.21444e-05
3.19991e-05
3.18542e-05
3.17184e-05
3.15832e-05
3.14505e-05
3.1315e-05
3.11778e-05
3.10343e-05
3.08859e-05
3.07281e-05
3.0562e-05
3.03831e-05
3.01928e-05
2.99874e-05
2.97696e-05
2.9536e-05
2.92898e-05
2.90273e-05
2.87537e-05
2.84699e-05
2.81823e-05
2.78917e-05
2.76042e-05
2.73214e-05
2.70523e-05
2.68014e-05
2.65771e-05
2.63667e-05
2.61955e-05
2.6065e-05
2.5988e-05
2.59821e-05
2.60868e-05
2.63616e-05
2.68584e-05
2.7609e-05
2.69483e-05
8.98984e-05
8.84273e-05
8.79067e-05
8.69434e-05
8.62102e-05
8.51842e-05
8.43613e-05
8.33268e-05
8.24677e-05
8.14483e-05
8.05786e-05
7.95802e-05
7.87075e-05
7.77294e-05
7.68559e-05
7.58952e-05
7.50212e-05
7.4074e-05
7.31986e-05
7.22605e-05
7.13811e-05
7.0448e-05
6.95616e-05
6.8626e-05
6.77335e-05
6.67841e-05
6.5887e-05
6.49335e-05
6.40121e-05
6.30461e-05
6.20992e-05
6.08168e-05
5.94261e-05
5.80043e-05
5.66589e-05
5.52862e-05
5.39906e-05
5.26703e-05
5.14288e-05
5.01668e-05
4.89839e-05
4.77821e-05
4.66578e-05
4.55184e-05
4.44514e-05
4.33686e-05
4.23529e-05
4.13251e-05
4.03593e-05
3.93849e-05
3.84672e-05
3.75438e-05
3.66716e-05
3.57966e-05
3.49682e-05
3.41399e-05
3.33533e-05
3.25651e-05
3.18183e-05
3.10724e-05
3.03616e-05
2.96482e-05
2.8964e-05
2.82756e-05
2.76102e-05
2.69411e-05
2.62883e-05
2.56475e-05
2.50244e-05
2.44164e-05
2.38207e-05
2.32508e-05
2.26932e-05
2.2151e-05
2.16257e-05
2.11168e-05
2.06221e-05
2.01479e-05
1.96889e-05
1.92576e-05
1.8841e-05
1.84543e-05
1.80764e-05
1.77322e-05
1.74031e-05
1.71106e-05
1.68352e-05
1.65931e-05
1.63695e-05
1.61843e-05
1.60348e-05
1.58996e-05
1.57757e-05
1.57176e-05
1.57018e-05
1.57854e-05
1.60324e-05
1.65171e-05
1.71613e-05
1.60039e-05
0.000105478
0.000104313
0.000103795
0.000102938
0.000102073
0.00010103
0.000100032
9.89089e-05
9.78497e-05
9.6697e-05
9.56126e-05
9.44459e-05
9.33439e-05
9.21687e-05
9.10522e-05
8.98712e-05
8.87426e-05
8.75578e-05
8.64201e-05
8.52354e-05
8.40904e-05
8.29078e-05
8.17593e-05
8.05811e-05
7.9433e-05
7.82608e-05
7.71174e-05
7.59554e-05
7.48201e-05
7.36713e-05
7.25507e-05
7.1417e-05
7.0302e-05
6.91812e-05
6.80775e-05
6.69686e-05
6.58746e-05
6.47823e-05
6.37015e-05
6.26222e-05
6.15513e-05
6.04807e-05
5.94149e-05
5.83439e-05
5.72868e-05
5.6224e-05
5.51635e-05
5.40998e-05
5.30359e-05
5.19669e-05
5.08949e-05
4.98161e-05
4.87315e-05
4.76383e-05
4.65376e-05
4.54282e-05
4.4311e-05
4.29022e-05
4.14154e-05
3.99545e-05
3.85583e-05
3.71803e-05
3.58634e-05
3.45657e-05
3.33295e-05
3.21184e-05
3.09656e-05
2.98381e-05
2.87627e-05
2.77204e-05
2.67247e-05
2.57667e-05
2.48486e-05
2.3974e-05
2.3138e-05
2.23556e-05
2.1598e-05
2.08897e-05
2.0198e-05
1.95652e-05
1.89564e-05
1.84042e-05
1.78631e-05
1.73576e-05
1.6866e-05
1.64253e-05
1.60174e-05
1.56443e-05
1.52746e-05
1.49048e-05
1.45667e-05
1.42767e-05
1.40558e-05
1.38136e-05
1.36371e-05
1.3552e-05
1.35293e-05
1.3705e-05
1.42894e-05
1.28249e-05
0.000122515
0.00012179
0.000121344
0.000120712
0.000119802
0.000118856
0.000117798
0.000116719
0.000115605
0.000114461
0.000113317
0.000112135
0.000110968
0.000109758
0.00010857
0.000107338
0.00010613
0.00010488
0.000103642
0.000102387
0.000101138
9.98721e-05
9.86103e-05
9.73319e-05
9.60645e-05
9.47789e-05
9.35021e-05
9.22029e-05
9.0911e-05
8.95981e-05
8.82933e-05
8.69667e-05
8.56416e-05
8.42979e-05
8.29521e-05
8.15885e-05
8.02231e-05
7.88506e-05
7.74764e-05
7.60958e-05
7.47166e-05
7.33328e-05
7.19535e-05
7.05719e-05
6.91985e-05
6.78261e-05
6.64643e-05
6.51075e-05
6.37635e-05
6.24281e-05
6.11076e-05
5.9799e-05
5.85065e-05
5.72277e-05
5.59647e-05
5.47169e-05
5.34867e-05
5.22686e-05
5.10586e-05
4.98589e-05
4.86747e-05
4.75022e-05
4.6342e-05
4.5194e-05
4.40542e-05
4.29219e-05
4.17942e-05
4.06698e-05
3.95467e-05
3.84247e-05
3.7303e-05
3.61823e-05
3.5061e-05
3.39383e-05
3.24676e-05
3.1054e-05
2.96977e-05
2.84317e-05
2.71844e-05
2.59976e-05
2.48586e-05
2.38065e-05
2.28232e-05
2.18664e-05
2.09042e-05
1.99243e-05
1.90151e-05
1.82143e-05
1.75413e-05
1.67573e-05
1.58359e-05
1.48926e-05
1.43461e-05
1.38222e-05
1.3079e-05
1.24946e-05
1.23256e-05
1.23293e-05
1.25414e-05
1.20565e-05
0.000135607
0.000135499
0.000135194
0.000134894
0.000134123
0.000133433
0.000132526
0.000131674
0.00013072
0.000129784
0.000128802
0.000127811
0.000126803
0.000125768
0.000124731
0.000123658
0.000122589
0.000121481
0.000120377
0.000119237
0.000118096
0.000116921
0.000115744
0.000114535
0.000113325
0.000112089
0.000110849
0.000109579
0.000108306
0.000107006
0.0001057
0.000104368
0.000103027
0.000101661
0.000100285
9.88888e-05
9.74748e-05
9.60454e-05
9.46147e-05
9.31533e-05
9.16864e-05
9.01952e-05
8.86979e-05
8.71779e-05
8.56512e-05
8.41043e-05
8.25501e-05
8.0979e-05
7.94007e-05
7.78094e-05
7.62123e-05
7.46068e-05
7.29987e-05
7.13874e-05
6.97761e-05
6.81627e-05
6.65503e-05
6.49351e-05
6.33215e-05
6.17101e-05
6.01039e-05
5.85071e-05
5.69236e-05
5.53568e-05
5.38086e-05
5.22824e-05
5.07793e-05
4.93029e-05
4.78538e-05
4.64342e-05
4.50439e-05
4.36832e-05
4.23505e-05
4.10453e-05
3.97573e-05
3.84886e-05
3.72467e-05
3.59991e-05
3.47687e-05
3.35359e-05
3.23105e-05
3.10633e-05
2.97865e-05
2.84797e-05
2.71832e-05
2.58838e-05
2.45144e-05
2.30177e-05
2.15075e-05
2.0111e-05
1.87258e-05
1.71152e-05
1.54363e-05
1.4004e-05
1.26762e-05
1.1541e-05
1.10356e-05
1.10726e-05
1.11817e-05
1.16168e-05
0.000133804
0.000133408
0.000133251
0.000132892
0.000132727
0.000132353
0.000132157
0.000131769
0.000131536
0.000131133
0.000130859
0.000130442
0.000130127
0.000129693
0.000129339
0.000128885
0.000128491
0.000128011
0.000127574
0.000127063
0.00012658
0.000126032
0.000125496
0.0001249
0.00012416
0.000123173
0.000122179
0.000121151
0.000120116
0.000119053
0.000117982
0.000116886
0.000115781
0.000114654
0.00011351
0.000112343
0.000111157
0.000109948
0.00010872
0.000107465
0.000106191
0.000104889
0.000103567
0.000102217
0.000100845
9.94439e-05
9.80199e-05
9.6566e-05
9.50879e-05
9.35806e-05
9.20487e-05
9.04884e-05
8.88946e-05
8.72846e-05
8.56647e-05
8.40052e-05
8.23331e-05
8.06319e-05
7.8913e-05
7.71709e-05
7.54086e-05
7.36244e-05
7.18152e-05
6.99829e-05
6.81287e-05
6.62547e-05
6.43603e-05
6.24481e-05
6.05227e-05
5.85843e-05
5.66408e-05
5.46934e-05
5.27511e-05
5.08171e-05
4.88979e-05
4.69979e-05
4.51252e-05
4.32823e-05
4.14747e-05
3.97041e-05
3.79745e-05
3.62856e-05
3.46318e-05
3.30044e-05
3.13989e-05
2.98033e-05
2.82359e-05
2.66633e-05
2.50267e-05
2.33795e-05
2.16833e-05
1.99078e-05
1.80156e-05
1.60731e-05
1.40504e-05
1.21005e-05
1.03803e-05
9.317e-06
1.03175e-05
1.0292e-05
0.000111924
0.000112062
0.000112113
0.000112127
0.000112157
0.000112136
0.000112153
0.000112109
0.000112112
0.000112049
0.000112035
0.000111957
0.000111924
0.000111829
0.000111774
0.000111662
0.000111582
0.000111451
0.000111343
0.00011119
0.000111053
0.000110875
0.000110707
0.000110502
0.000110303
0.000110076
0.000109854
0.000109608
0.000109362
0.000109094
0.000108824
0.000108533
0.000108236
0.000107919
0.000107597
0.000107252
0.000106895
0.000106516
0.000106121
0.000105703
0.000105266
0.000104804
0.000104318
0.000103801
0.000103256
0.000102683
0.000102085
0.000101458
0.000100803
0.000100115
9.93864e-05
9.86125e-05
9.77861e-05
9.6902e-05
9.55797e-05
9.4168e-05
9.27034e-05
9.1205e-05
8.96631e-05
8.80894e-05
8.64798e-05
8.48481e-05
8.31919e-05
8.15043e-05
7.97659e-05
7.79945e-05
7.62042e-05
7.43521e-05
7.24804e-05
7.0558e-05
6.86112e-05
6.66191e-05
6.45953e-05
6.25244e-05
6.04141e-05
5.82538e-05
5.60475e-05
5.3787e-05
5.14745e-05
4.91056e-05
4.6684e-05
4.42117e-05
4.16969e-05
3.91478e-05
3.65789e-05
3.40098e-05
3.14655e-05
2.89707e-05
2.65435e-05
2.41965e-05
2.19058e-05
1.96799e-05
1.75027e-05
1.53219e-05
1.325e-05
1.13048e-05
9.55157e-06
8.17224e-06
7.59796e-06
1.01646e-05
7.25632e-05
7.29225e-05
7.29987e-05
7.32083e-05
7.3287e-05
7.34564e-05
7.35478e-05
7.36921e-05
7.37946e-05
7.39222e-05
7.40316e-05
7.41478e-05
7.42599e-05
7.43676e-05
7.44787e-05
7.45794e-05
7.46868e-05
7.47809e-05
7.48827e-05
7.49702e-05
7.5065e-05
7.51461e-05
7.52335e-05
7.53089e-05
7.53899e-05
7.54613e-05
7.55366e-05
7.56033e-05
7.56722e-05
7.5733e-05
7.57939e-05
7.58469e-05
7.5898e-05
7.5941e-05
7.59804e-05
7.60138e-05
7.60432e-05
7.60659e-05
7.60838e-05
7.60945e-05
7.60994e-05
7.60967e-05
7.60878e-05
7.6071e-05
7.60482e-05
7.60152e-05
7.59712e-05
7.59137e-05
7.58413e-05
7.57507e-05
7.56397e-05
7.55061e-05
7.53478e-05
7.51638e-05
7.4955e-05
7.47344e-05
7.44851e-05
7.42178e-05
7.39155e-05
7.35817e-05
7.31983e-05
7.25774e-05
7.18275e-05
7.10246e-05
7.01809e-05
6.92912e-05
6.83559e-05
6.73642e-05
6.63261e-05
6.52224e-05
6.40577e-05
6.28152e-05
6.15167e-05
6.01274e-05
5.86504e-05
5.70783e-05
5.54098e-05
5.36363e-05
5.17588e-05
4.97717e-05
4.76784e-05
4.54779e-05
4.31768e-05
4.07794e-05
3.82965e-05
3.57291e-05
3.30815e-05
3.03501e-05
2.75318e-05
2.46292e-05
2.16478e-05
1.86251e-05
1.57171e-05
1.2935e-05
1.05167e-05
8.41915e-06
6.8614e-06
5.78042e-06
5.22056e-06
5.96589e-06
6.804e-06
6.81818e-06
6.82579e-06
6.83798e-06
6.84851e-06
6.86261e-06
6.87391e-06
6.88891e-06
6.90106e-06
6.91652e-06
6.92964e-06
6.94536e-06
6.95949e-06
6.9755e-06
6.99058e-06
7.00699e-06
7.02297e-06
7.03989e-06
7.05681e-06
7.07437e-06
7.09227e-06
7.11064e-06
7.12961e-06
7.14898e-06
7.16911e-06
7.18965e-06
7.21099e-06
7.2328e-06
7.25544e-06
7.27861e-06
7.30265e-06
7.32732e-06
7.35289e-06
7.37921e-06
7.40649e-06
7.43465e-06
7.46382e-06
7.494e-06
7.52526e-06
7.55764e-06
7.59119e-06
7.62597e-06
7.662e-06
7.69931e-06
7.73788e-06
7.77763e-06
7.81863e-06
7.8608e-06
7.90422e-06
7.94886e-06
7.99483e-06
8.04223e-06
8.09122e-06
8.14202e-06
8.19484e-06
8.24964e-06
8.30566e-06
8.36328e-06
8.42101e-06
8.47925e-06
8.53612e-06
8.59193e-06
8.65049e-06
8.71116e-06
8.77601e-06
8.84363e-06
8.91572e-06
8.99159e-06
9.07258e-06
9.15763e-06
9.24838e-06
9.34428e-06
9.44736e-06
9.55452e-06
9.66912e-06
9.78941e-06
9.91742e-06
1.00521e-05
1.01953e-05
1.03464e-05
1.05071e-05
1.06771e-05
1.08577e-05
1.10475e-05
1.12449e-05
1.14391e-05
1.1611e-05
1.1713e-05
1.1654e-05
1.12465e-05
1.01795e-05
8.74849e-06
6.79425e-06
4.67882e-06
3.13416e-06
2.19814e-06
2.16878e-06
3.41566e-06
3.58256e-06
3.90512e-06
9.93626e-06
1.7844e-06
2.34476e-06
3.19886e-06
4.07256e-06
4.75746e-06
5.1595e-06
5.66818e-06
6.12303e-06
6.14544e-06
6.23541e-06
6.42383e-06
6.64486e-06
7.26063e-06
8.69726e-06
1.09981e-05
1.32289e-05
1.19462e-05
9.25471e-06
3.71761e-06
5.10904e-06
1.90664e-06
2.1788e-06
2.77415e-06
3.33942e-06
3.78375e-06
4.18911e-06
4.69213e-06
4.90657e-06
5.08791e-06
5.42064e-06
5.83126e-06
6.42363e-06
7.69784e-06
9.85852e-06
1.24823e-05
1.34054e-05
1.13718e-05
8.9712e-06
3.71842e-06
4.44943e-06
2.3632e-06
2.50477e-06
2.74697e-06
3.04994e-06
3.2795e-06
3.66539e-06
3.96057e-06
4.25212e-06
4.77898e-06
5.25341e-06
5.87097e-06
6.94664e-06
8.92943e-06
1.16348e-05
1.41298e-05
1.31123e-05
1.11579e-05
8.72699e-06
3.67012e-06
4.64114e-06
2.9261e-06
2.99148e-06
2.87589e-06
2.99007e-06
3.18323e-06
3.51749e-06
3.89136e-06
4.4857e-06
5.33055e-06
5.9682e-06
7.13194e-06
8.9787e-06
1.18422e-05
1.41092e-05
1.41477e-05
1.26124e-05
1.10047e-05
8.29525e-06
3.12298e-06
5.11133e-06
3.66476e-06
3.66059e-06
3.33542e-06
3.61843e-06
3.65732e-06
4.07192e-06
4.6843e-06
5.66838e-06
7.20704e-06
8.77798e-06
1.05525e-05
1.31779e-05
1.46528e-05
1.50595e-05
1.39156e-05
1.25187e-05
1.10312e-05
7.58981e-06
2.40638e-06
5.91922e-06
4.79589e-06
4.75352e-06
4.32592e-06
4.70981e-06
5.05865e-06
5.91458e-06
7.26001e-06
9.96228e-06
1.2762e-05
1.46791e-05
1.53671e-05
1.62592e-05
1.60475e-05
1.50287e-05
1.38351e-05
1.26738e-05
1.09168e-05
6.52613e-06
1.70924e-06
7.47528e-06
6.75323e-06
6.7528e-06
6.76062e-06
7.74214e-06
9.35113e-06
1.17942e-05
1.57562e-05
1.9126e-05
1.82467e-05
1.82545e-05
1.7972e-05
1.71738e-05
1.63197e-05
1.53366e-05
1.42915e-05
1.28818e-05
1.06099e-05
5.17209e-06
1.08126e-06
1.17513e-05
1.2452e-05
1.32935e-05
1.53161e-05
1.8378e-05
2.24171e-05
2.37374e-05
2.32983e-05
2.23669e-05
2.14601e-05
2.07975e-05
1.97568e-05
1.89492e-05
1.77716e-05
1.65442e-05
1.46969e-05
1.29478e-05
9.54099e-06
4.045e-06
6.12e-07
2.83326e-05
3.12083e-05
3.27189e-05
3.51949e-05
3.57415e-05
3.38339e-05
3.22979e-05
3.03914e-05
2.887e-05
2.71213e-05
2.55946e-05
2.37571e-05
2.20298e-05
1.97308e-05
1.72367e-05
1.39492e-05
1.15393e-05
8.19211e-06
3.58069e-06
3.60152e-07
4.97183e-05
5.2658e-05
5.25834e-05
4.94883e-05
4.70826e-05
4.39347e-05
4.17574e-05
3.86755e-05
3.66106e-05
3.34741e-05
3.12533e-05
2.77991e-05
2.50086e-05
2.03249e-05
1.47948e-05
1.07994e-05
8.92545e-06
6.82235e-06
3.10276e-06
2.76237e-07
4.59579e-05
4.89682e-05
4.89403e-05
4.59045e-05
4.4276e-05
4.11853e-05
3.9649e-05
3.67261e-05
3.52181e-05
3.23819e-05
3.0597e-05
2.75704e-05
2.51522e-05
2.16018e-05
1.63288e-05
1.21753e-05
9.46753e-06
6.86641e-06
2.76088e-06
2.20423e-07
2.1758e-05
2.45069e-05
2.61062e-05
2.93281e-05
3.12604e-05
3.03973e-05
2.92543e-05
2.8203e-05
2.69501e-05
2.60012e-05
2.47503e-05
2.36174e-05
2.21233e-05
2.06135e-05
1.79557e-05
1.54682e-05
1.25998e-05
8.54793e-06
3.15435e-06
2.61433e-07
1.0371e-05
1.04288e-05
1.07792e-05
1.1979e-05
1.43256e-05
1.78375e-05
2.2757e-05
2.27225e-05
2.22731e-05
2.13144e-05
2.08109e-05
1.99822e-05
1.91856e-05
1.82515e-05
1.73596e-05
1.55147e-05
1.38141e-05
1.04173e-05
3.97671e-06
4.79858e-07
7.35235e-06
6.55215e-06
6.49244e-06
6.28865e-06
7.00776e-06
8.08842e-06
9.97016e-06
1.31635e-05
1.85904e-05
1.88007e-05
1.86492e-05
1.89212e-05
1.80022e-05
1.69556e-05
1.59364e-05
1.50859e-05
1.36509e-05
1.14408e-05
5.25426e-06
9.68386e-07
5.92239e-06
4.81838e-06
4.79046e-06
4.41799e-06
4.79498e-06
5.0491e-06
5.7755e-06
6.92039e-06
8.92407e-06
1.14984e-05
1.38032e-05
1.60433e-05
1.70182e-05
1.70018e-05
1.58348e-05
1.4413e-05
1.33573e-05
1.16383e-05
7.03296e-06
1.68862e-06
5.05666e-06
3.71117e-06
3.75117e-06
3.54913e-06
3.87363e-06
3.94263e-06
4.37019e-06
4.96769e-06
5.91801e-06
7.05129e-06
8.44584e-06
1.03499e-05
1.31311e-05
1.55549e-05
1.60526e-05
1.47647e-05
1.31382e-05
1.1653e-05
8.08374e-06
2.4725e-06
4.57167e-06
2.90739e-06
3.00843e-06
3.06278e-06
3.3347e-06
3.60552e-06
3.92739e-06
4.31767e-06
4.94218e-06
5.80727e-06
6.30457e-06
7.35068e-06
9.1932e-06
1.20527e-05
1.51202e-05
1.5013e-05
1.32862e-05
1.15696e-05
8.79102e-06
3.27163e-06
4.53835e-06
2.31726e-06
2.44904e-06
2.81045e-06
3.21422e-06
3.65983e-06
4.14181e-06
4.48551e-06
4.81521e-06
5.36145e-06
5.86617e-06
6.43068e-06
7.45534e-06
9.34866e-06
1.20923e-05
1.48324e-05
1.38684e-05
1.16652e-05
9.03919e-06
3.85773e-06
5.4829e-06
1.88139e-06
2.1229e-06
2.69422e-06
3.38958e-06
3.96394e-06
4.57389e-06
5.11519e-06
5.48337e-06
5.76228e-06
6.14978e-06
6.5819e-06
7.13997e-06
8.29437e-06
1.03999e-05
1.31161e-05
1.43178e-05
1.19715e-05
9.33875e-06
3.92684e-06
1.02707e-05
1.77846e-06
2.27095e-06
3.06673e-06
3.92808e-06
4.73275e-06
5.40533e-06
6.00905e-06
6.46836e-06
6.73575e-06
6.91906e-06
7.1957e-06
7.45615e-06
8.00267e-06
9.31771e-06
1.17243e-05
1.39725e-05
1.26192e-05
9.6643e-06
3.9258e-06
1.2342e-06
0.000116556
0.00029418
0.000330906
0.00033481
0.000335356
0.000335357
0.000335342
0.000335343
0.000335345
0.000335345
0.000335343
0.000335342
0.000335357
0.000335356
0.00033481
0.000330906
0.00029418
0.000116556
1.2342e-06
1.36969e-06
6.81713e-05
0.000219596
0.00030951
0.000330909
0.000334527
0.000335273
0.000335315
0.000335296
0.000335287
0.000335287
0.000335296
0.000335315
0.000335273
0.000334527
0.000330909
0.00030951
0.000219596
6.81714e-05
1.36969e-06
1.51348e-06
5.28912e-05
0.000176447
0.000280571
0.000322145
0.000332504
0.000334604
0.0003351
0.000335168
0.000335172
0.000335172
0.000335168
0.0003351