/*--------------------------------*- C++ -*----------------------------------*\
| =========                 |                                                 |
| \\      /  F ield         | OpenFOAM: The Open Source CFD Toolbox           |
|  \\    /   O peration     | Version:  2.1.0                                 |
|   \\  /    A nd           | Web:      www.OpenFOAM.org                      |
|    \\/     M anipulation  |                                                 |
\*---------------------------------------------------------------------------*/
FoamFile
{
    version     2.0;
    format      ascii;
    class       volScalarField;
    location    "0.2";
    object      omega;
}
// * * * * * * * * * * * * * * * * * * * * * * * * * * * * * * * * * * * * * //

dimensions      [0 0 -1 0 0 0 0];

internalField   nonuniform List<scalar> 
6400
(
1570.34
1570.85
1570.57
1570.05
1569.26
1568.63
1567.64
1566.94
1565.86
1565.09
1563.98
1563.12
1561.98
1561.03
1559.87
1558.83
1557.65
1556.53
1555.32
1554.14
1552.91
1551.68
1550.43
1549.15
1547.86
1546.54
1545.22
1543.85
1542.49
1541.07
1539.65
1538.18
1536.7
1535.18
1533.63
1532.04
1530.41
1528.72
1526.98
1525.15
1523.23
1521.21
1519.06
1516.76
1514.31
1511.67
1508.83
1505.76
1502.44
1498.85
1494.93
1490.61
1485.86
1480.94
1475.72
1470.27
1464.55
1458.54
1452.27
1445.74
1438.91
1431.78
1424.33
1416.54
1408.42
1399.9
1390.85
1381.43
1371.37
1360.87
1349.69
1337.97
1325.56
1312.57
1298.91
1284.68
1269.87
1254.59
1238.86
1222.75
1206.2
1188.95
1170.35
1151.19
1131.01
1109.51
1086.15
1059.93
1029.73
993.588
948.839
890.662
811.923
704.671
565.535
488.155
522.096
673.133
819.706
870.729
663.702
663.682
664.718
665.476
666.649
667.801
669.021
670.372
671.652
673.122
674.482
676.039
677.49
679.123
680.672
682.38
684.031
685.819
687.577
689.451
691.325
693.304
695.305
697.408
699.556
701.801
704.108
706.513
708.995
711.58
714.26
717.053
719.961
723.001
726.151
729.436
732.85
736.407
740.108
743.959
747.965
752.139
756.483
761.014
765.73
770.649
775.77
781.108
786.668
792.467
798.473
804.714
811.177
817.959
825.023
832.413
840.126
848.196
856.639
865.483
874.752
884.478
894.695
905.447
916.69
928.374
940.479
953.285
966.676
980.797
995.63
1011.27
1027.75
1045.15
1063.53
1082.99
1103.61
1125.51
1148.83
1173.76
1199.95
1226.84
1255.08
1284.06
1313.53
1342.83
1371.27
1398.04
1422.35
1443.33
1459.27
1466.84
1468.57
1455.4
1419.41
1338.19
1221.03
1081.65
935.457
786.651
486.931
489.799
491.173
493.982
495.86
498.719
500.915
503.824
506.26
509.24
511.889
514.961
517.811
520.997
524.043
527.361
530.603
534.069
537.508
541.139
544.781
548.594
552.44
556.443
560.509
564.72
569.016
573.454
577.993
582.675
587.472
592.412
597.476
602.684
608.065
613.616
619.354
625.288
631.431
637.787
644.334
651.093
658.061
665.283
672.744
680.472
688.462
696.73
705.273
714.097
723.223
732.648
742.394
752.484
762.923
773.731
784.917
796.497
808.481
820.881
833.704
846.958
860.642
874.753
889.315
904.347
919.865
935.628
951.731
968.039
984.564
1001.22
1017.99
1034.83
1051.7
1068.59
1085.5
1102.44
1119.42
1136.46
1153.59
1170.83
1188.22
1205.71
1223.18
1240.52
1257.37
1273.33
1287.63
1298.84
1304.25
1305.76
1295.55
1269.72
1220.95
1142.7
1033.57
894.146
739.888
588.958
445.27
449.985
452.069
456.214
458.856
462.976
466.019
470.147
473.522
477.705
481.374
485.654
489.596
494.01
498.216
502.795
507.261
512.032
516.759
521.741
526.728
531.935
537.183
542.627
548.141
553.837
559.626
565.59
571.666
577.915
584.292
590.841
597.533
604.401
611.41
618.588
625.913
633.401
641.035
648.835
656.815
664.979
673.321
681.802
690.442
699.215
708.128
717.165
726.323
735.588
744.962
754.427
763.984
773.623
783.342
793.13
802.981
812.88
822.821
832.789
842.773
852.758
862.726
872.653
882.552
892.415
902.217
911.938
921.563
931.059
940.414
949.574
958.492
967.145
975.429
983.317
990.674
997.432
1003.43
1008.56
1012.65
1015.27
1016.44
1016.68
1014.31
1010.06
1003.01
993.339
980.204
963.456
942.247
916.128
883.801
843.95
794.484
733.65
663.437
588.768
520.884
477.728
441.68
447.482
450.001
455.025
458.186
463.152
466.766
471.705
475.679
480.633
484.91
489.92
494.461
499.555
504.334
509.535
514.531
519.854
525.051
530.506
535.89
541.479
547.042
552.768
558.494
564.356
570.233
576.224
582.24
588.352
594.495
600.715
606.964
613.275
619.607
625.986
632.379
638.802
645.23
651.672
658.104
664.528
670.925
677.309
683.655
689.97
696.234
702.452
708.608
714.704
720.733
726.687
732.556
738.325
743.981
749.514
754.925
760.185
765.282
770.176
774.854
779.272
783.412
787.23
790.702
793.782
796.436
798.618
800.289
801.258
801.673
801.729
800.661
799.077
796.35
792.893
788.247
782.678
775.868
768.002
758.917
748.788
737.428
724.99
711.393
696.84
681.357
665.086
648.07
630.426
612.03
592.591
571.759
549.212
524.22
497.252
468.878
444.002
427.85
420.01
440.571
446.179
448.588
453.402
456.376
461.095
464.438
469.061
472.669
477.219
481.024
485.525
489.48
493.951
498.02
502.472
506.625
511.063
515.278
519.702
523.961
528.372
532.661
537.058
541.361
545.739
550.034
554.376
558.64
562.922
567.164
571.412
575.602
579.775
583.87
587.925
591.883
595.777
599.56
603.25
606.801
610.242
613.52
616.665
619.623
622.422
625.011
627.415
629.584
631.536
633.228
634.67
635.825
636.694
637.179
637.389
637.428
637.02
636.351
635.239
633.799
631.891
629.599
626.822
623.614
619.909
615.738
611.06
605.894
600.215
594.054
587.384
580.253
572.685
564.686
556.339
547.644
538.724
529.583
520.354
511.044
501.782
492.637
483.738
475.1
466.773
458.688
450.974
443.569
436.433
429.429
422.463
415.528
408.545
401.322
394.46
388.789
386.29
385.778
385.581
420.335
424.678
426.52
430.21
432.409
436.007
438.416
441.895
444.428
447.785
450.389
453.627
456.261
459.382
462.012
465.016
467.616
470.493
473.039
475.778
478.247
480.836
483.191
485.617
487.831
490.065
492.068
494.058
495.815
497.528
499.075
500.56
501.836
503.014
503.952
504.762
505.309
505.629
505.751
505.757
505.341
504.828
503.933
502.894
501.493
499.918
497.994
495.877
493.424
490.768
487.789
484.604
481.117
477.429
473.495
469.388
465.031
460.49
455.754
450.868
445.843
440.711
435.494
430.219
424.905
419.597
414.335
409.145
404.072
399.131
394.378
389.818
385.476
381.362
377.565
374.029
370.84
367.919
365.325
363.01
361.031
359.338
357.955
356.828
355.943
355.263
354.775
354.451
354.24
354.131
354.087
354.084
354.261
354.776
355.82
358.127
360.813
365.778
368.579
369.131
380.234
383.05
384.198
386.464
387.673
389.805
390.986
392.933
394.029
395.761
396.731
398.227
399.039
400.282
400.905
401.847
402.302
402.895
403.167
403.359
403.411
403.352
403.006
402.623
401.917
401.172
400.08
398.95
397.469
395.953
394.035
392.054
389.695
387.269
384.489
381.646
378.486
375.28
371.8
368.286
364.529
360.778
356.82
352.902
348.824
344.823
340.716
336.723
332.681
328.791
324.911
321.212
317.576
314.176
310.873
307.829
304.945
302.361
299.983
297.917
296.09
294.581
293.333
292.4
291.754
291.44
291.327
291.421
291.957
292.596
293.642
294.794
296.316
297.945
299.905
301.965
304.319
306.759
309.451
312.213
315.184
318.212
321.404
324.629
327.958
331.282
334.659
337.997
341.338
344.633
347.938
351.226
354.606
358.132
361.968
366.567
372.043
378.326
382.072
383.191
320.165
320.647
320.766
320.838
320.782
320.624
320.212
319.823
319.056
318.392
317.276
316.309
314.853
313.571
311.783
310.183
308.083
306.167
303.78
301.557
298.921
296.416
293.553
290.816
287.767
284.86
281.719
278.722
275.547
272.517
269.366
266.37
263.326
260.448
257.585
254.898
252.275
249.834
247.507
245.37
243.386
241.604
240.005
238.618
237.434
236.472
235.726
235.219
234.972
234.884
234.986
235.435
236.006
236.878
237.878
239.163
240.579
242.263
244.08
246.148
248.35
250.791
253.366
256.169
259.112
262.273
265.572
269.087
272.747
276.615
280.641
284.871
289.27
293.873
298.656
303.648
308.845
314.256
319.882
325.731
331.803
338.1
344.619
351.363
358.327
365.502
372.864
380.382
388.027
395.747
403.497
411.26
418.996
426.725
434.476
442.451
451.04
461.197
471.108
476.328
238.972
236.577
235.55
233.451
232.214
230.059
228.653
226.463
224.927
222.728
221.106
218.923
217.259
215.125
213.462
211.409
209.789
207.85
206.314
204.524
203.112
201.502
200.252
198.854
197.799
196.64
195.808
194.91
194.323
193.704
193.382
193.109
192.999
192.971
193.126
193.395
193.819
194.355
195.048
195.847
196.8
197.856
199.061
200.367
201.817
203.367
205.056
206.842
208.763
210.78
212.931
215.182
217.559
220.039
222.637
225.345
228.167
231.107
234.159
237.336
240.627
244.053
247.595
251.28
255.088
259.049
263.141
267.399
271.798
276.377
281.115
286.048
291.157
296.481
302.002
307.76
313.733
319.968
326.453
333.228
340.289
347.673
355.385
363.462
371.914
380.781
390.095
399.901
410.248
421.2
432.819
445.19
458.398
472.562
487.796
504.207
521.73
539.606
554.372
561.007
256.008
254.183
253.378
251.704
250.639
248.858
247.557
245.655
244.148
242.125
240.437
238.321
236.486
234.308
232.369
230.163
228.167
225.969
223.966
221.817
219.859
217.803
215.94
214.021
212.303
210.564
209.038
207.518
206.224
204.959
203.932
202.95
202.215
201.539
201.113
200.8
200.667
200.632
200.813
201.137
201.641
202.267
203.075
203.996
205.096
206.305
207.687
209.174
210.827
212.585
214.5
216.518
218.687
220.958
223.375
225.903
228.561
231.338
234.236
237.261
240.405
243.682
247.08
250.619
254.282
258.095
262.037
266.141
270.382
274.793
279.347
284.081
288.976
294.066
299.331
304.807
310.476
316.374
322.485
328.844
335.44
342.309
349.444
356.884
364.627
372.716
381.16
390.002
399.253
408.96
419.222
430.077
441.628
453.981
467.292
481.769
497.613
514.647
529.775
536.804
333.951
335.212
335.673
336.479
336.856
337.416
337.663
337.91
337.984
337.999
337.688
337.427
336.749
336.185
335.146
334.255
332.858
331.624
329.874
328.292
326.197
324.272
321.846
319.591
316.862
314.295
311.308
308.455
305.245
302.163
298.784
295.535
292.081
288.776
285.335
282.048
278.693
275.499
272.312
269.291
266.345
263.575
260.93
258.482
256.201
254.134
252.27
250.638
249.232
248.071
247.153
246.486
246.128
245.979
245.965
246.388
246.89
247.764
248.738
250.041
251.454
253.157
254.975
257.049
259.236
261.651
264.173
266.897
269.719
272.728
275.835
279.111
282.473
285.988
289.576
293.302
297.089
300.998
304.958
309.024
313.129
317.326
321.527
325.805
330.093
334.458
338.852
343.338
347.897
352.594
357.363
362.326
367.48
372.969
378.932
385.68
393.622
403.059
412.644
417.85
386.959
390.197
391.529
394.163
395.618
398.129
399.625
401.969
403.466
405.655
407.134
409.157
410.566
412.407
413.704
415.342
416.491
417.905
418.871
420.039
420.789
421.687
422.188
422.761
423.032
423.188
423.225
423.07
422.69
422.175
421.393
420.477
419.259
417.906
416.238
414.441
412.318
410.018
407.387
404.597
401.484
398.251
394.723
391.098
387.221
383.262
379.099
374.89
370.528
366.162
361.702
357.287
352.841
348.488
344.173
340.001
335.948
332.11
328.481
325.086
321.943
319.055
316.463
314.144
312.144
310.428
309.028
307.913
307.094
306.559
306.306
306.221
306.33
306.759
307.257
308.031
308.821
309.828
310.815
311.977
313.1
314.355
315.649
317.064
318.524
320.123
321.797
323.622
325.553
327.662
329.966
332.499
335.216
338.151
341.532
345.547
350.499
356.384
359.794
360.597
421.224
425.75
427.67
431.505
433.809
437.55
440.089
443.713
446.407
449.945
452.77
456.231
459.141
462.532
465.489
468.811
471.786
475.035
478.002
481.172
484.104
487.186
490.06
493.039
495.834
498.689
501.383
504.09
506.648
509.187
511.577
513.92
516.081
518.157
520.035
521.803
523.369
524.888
526.173
527.354
528.274
529.044
529.516
529.744
529.81
529.579
529.042
528.245
527.13
525.735
524.01
521.989
519.63
516.964
513.956
510.637
506.977
503.011
498.727
494.209
489.426
484.425
479.187
473.792
468.236
462.59
456.864
451.117
445.375
439.69
434.121
428.69
423.452
418.413
413.63
409.187
405.031
401.09
397.373
393.859
390.581
387.529
384.613
381.777
378.926
376.041
373.21
370.449
367.724
364.789
361.699
358.64
356.089
353.373
351.194
350.165
349.922
352.995
355.399
355.908
435.524
441.025
443.388
448.108
451.039
455.677
458.99
463.552
467.147
471.662
475.476
479.97
483.959
488.451
492.579
497.08
501.319
505.837
510.167
514.705
519.108
523.665
528.123
532.697
537.198
541.787
546.322
550.92
555.475
560.073
564.632
569.218
573.764
578.32
582.832
587.335
591.787
596.25
600.646
605.021
609.312
613.552
617.69
621.747
625.683
629.5
633.174
636.701
640.057
643.238
646.22
648.996
651.545
653.857
655.908
657.687
659.171
660.348
661.111
661.473
661.579
661.299
660.636
659.612
658.155
656.282
653.947
651.16
647.89
644.142
639.9
635.167
629.946
624.228
618.022
611.329
604.188
596.695
588.88
580.715
572.219
563.291
554.084
544.69
535.207
525.234
514.477
503.111
491.98
480.927
468.653
454.638
440.603
427.532
412.861
398.692
386.763
379.187
375.67
373.23
433.298
438.754
441.121
445.832
448.809
453.472
456.878
461.517
465.262
469.917
473.946
478.659
482.945
487.75
492.273
497.198
501.946
507.002
511.954
517.153
522.301
527.649
532.985
538.489
544.005
549.665
555.358
561.175
567.035
573.006
579.028
585.151
591.328
597.595
603.917
610.319
616.775
623.303
629.876
636.509
643.181
649.899
656.647
663.427
670.227
677.045
683.867
690.686
697.487
704.257
711.004
717.715
724.384
731.004
737.568
744.074
750.509
756.869
763.131
769.294
775.328
781.227
786.979
792.548
797.907
803.025
807.869
812.406
816.602
820.422
823.833
826.782
829.24
831.152
832.318
832.817
832.901
831.781
829.979
827.036
823.143
817.901
811.322
803.132
793.447
782.079
768.795
753.012
734.625
713.89
690.691
664.148
633.41
599.88
563.186
524.437
484.847
449.139
423.345
407.88
436.345
440.659
442.57
446.365
448.782
452.542
455.328
459.097
462.187
466.01
469.369
473.277
476.878
480.902
484.733
488.897
492.953
497.285
501.575
506.097
510.627
515.359
520.135
525.093
530.119
535.314
540.597
546.042
551.594
557.307
563.143
569.144
575.285
581.599
588.068
594.706
601.505
608.48
615.624
622.948
630.444
638.123
645.975
654.004
662.199
670.594
679.187
687.989
697.007
706.258
715.671
725.273
735.032
744.96
755.032
765.252
775.599
786.07
796.65
807.334
818.113
828.985
839.943
850.981
862.09
873.259
884.47
895.705
906.939
918.131
929.384
940.603
951.843
963.038
974.209
985.297
996.283
1007.06
1017.61
1027.76
1037.43
1046.41
1054.54
1061.54
1066.97
1069.7
1070.73
1069.29
1062.91
1052.23
1034.08
1008.89
974.621
929.129
869.687
797.005
712.029
619.274
536.409
475.078
478.169
480.678
481.894
484.404
486.079
488.647
490.604
493.218
495.394
498.069
500.438
503.191
505.74
508.591
511.314
514.28
517.177
520.274
523.347
526.591
529.844
533.247
536.686
540.261
543.895
547.655
551.488
555.446
559.491
563.661
567.931
572.327
576.83
581.458
586.199
591.106
596.155
601.375
606.76
612.333
618.093
624.063
630.248
636.673
643.352
650.273
657.442
664.87
672.558
680.507
688.774
697.355
706.273
715.53
725.137
735.118
745.475
756.234
767.403
779.011
791.073
803.619
816.678
830.268
844.411
859.12
874.417
890.311
906.826
923.977
941.744
959.913
978.627
997.733
1017.25
1037.08
1057.21
1077.57
1098.16
1118.94
1139.91
1161.06
1182.38
1203.82
1225.53
1247.31
1269.08
1290.27
1310.12
1327.45
1337.26
1340.79
1332.41
1300.02
1246.52
1168.36
1063.66
933.977
777.194
609.632
653.948
653.781
654.524
655.171
656.082
657.07
658.052
659.209
660.263
661.524
662.661
663.997
665.226
666.627
667.951
669.42
670.838
672.377
673.891
675.505
677.116
678.813
680.526
682.316
684.141
686.041
687.991
690.022
692.115
694.294
696.547
698.893
701.33
703.873
706.526
709.278
712.142
715.122
718.225
721.458
724.827
728.342
732.006
735.832
739.819
743.977
748.313
752.836
757.555
762.484
767.637
773.021
778.653
784.546
790.723
797.169
803.919
810.982
818.369
826.102
834.183
842.635
851.549
860.921
870.807
881.207
892.182
903.745
915.951
928.815
942.217
956.476
971.518
987.455
1004.34
1022.23
1041.21
1061.36
1082.78
1105.54
1129.77
1155.54
1182.98
1212.17
1242.71
1273.97
1305.16
1334.63
1360.31
1377.28
1384.4
1385.27
1374.68
1356.76
1324.81
1270.29
1186.8
1078.26
957.157
811.769
1557.58
1557.98
1557.49
1556.94
1556
1555.3
1554.2
1553.42
1552.27
1551.4
1550.23
1549.28
1548.1
1547.07
1545.88
1544.77
1543.55
1542.38
1541.14
1539.9
1538.63
1537.35
1536.05
1534.73
1533.41
1532.06
1530.72
1529.35
1527.97
1526.57
1525.16
1523.73
1522.29
1520.83
1519.36
1517.87
1516.37
1514.84
1513.3
1511.74
1510.16
1508.56
1506.92
1505.26
1503.55
1501.78
1499.94
1498.02
1496.02
1493.91
1491.69
1489.36
1486.92
1484.36
1481.7
1478.92
1475.92
1472.73
1469.2
1465.34
1460.96
1456.07
1450.96
1445.54
1439.95
1434.02
1427.85
1421.32
1414.47
1407.16
1399.43
1391.15
1382.38
1372.79
1362.51
1351.31
1339.17
1325.9
1311.47
1295.68
1278.48
1259.67
1239.15
1216.67
1192
1164.51
1133.37
1096.84
1052.04
994.952
918.854
824.363
723.145
619.975
542.288
496.712
519.764
675.763
836.971
891.82
813.938
317.726
175.087
117.744
92.4576
75.3163
64.6287
60.5564
57.7827
56.9821
59.9031
69.8334
87.9154
121.369
178.272
258.819
352.889
455.059
559.177
586.128
656.822
321.797
216.078
152.374
116.742
93.1603
81.2452
71.6818
67.4073
66.2707
71.2169
85.1135
108.431
150.128
212.369
292.959
378.9
469.818
539.945
547.495
525.724
313.052
239.197
173.305
136.773
110.585
94.0748
85.2352
81.8901
81.6244
89.5783
107.149
136.493
184.194
250.134
324.052
395.588
469.574
509.787
506.977
435.61
297.345
247.425
183.467
154.079
125.764
111.772
103.358
100.196
99.7413
113.351
137.832
174.789
229.945
292.23
353.694
413.126
460.272
474.109
467.077
377.16
285.432
249.358
194.396
170.331
143.225
131.147
124.426
122.396
130.356
154.708
184.349
227.402
277.458
325.998
372.885
415.348
436.272
429.787
429.444
340.339
278.729
251.723
205.938
186.593
167.426
160.586
158.742
167.236
186.227
212.728
243.117
281.34
319.108
355.297
387.954
404.101
401.791
376.189
394.955
325.587
284.03
264.624
235.64
224.75
219.787
219.759
229.034
242.666
261.4
283.318
306.671
333.145
354.96
372.804
380.993
380.446
352.077
314.443
365.793
349.358
333.022
326.91
321.273
319.619
319.492
320.173
326.779
332.588
342.838
350.816
360.866
366.898
369.423
369.698
362.666
337.566
290.556
249.727
345.223
468.017
458.192
453.522
438.285
431.539
421.588
416.703
410.059
405.931
400.532
395.313
388.689
379.285
367.609
353.274
322.388
279.796
225.364
188.338
334.617
547.615
528.982
520.888
501.001
491.46
474.473
465.167
449.859
439.975
424.953
412.53
394.928
376.105
350.24
314.424
268.537
219.316
169.44
143.013
331.14
526.894
510.671
503.988
487.016
478.926
465.43
457.933
446.279
438.521
427.05
417.216
403.534
388.139
366.45
333.627
287.004
234.214
175.226
140.91
328.86
410.204
406.337
405.304
399.716
395.31
393.299
392.588
393.328
395.015
396.322
396.807
396.673
391.692
383.321
373.674
348.311
302.075
240.188
194.648
330.546
324.174
301.006
291.316
280.974
279.333
282.404
288.625
299.494
312.857
329.43
345.104
361.932
376.51
383.774
386.45
384.645
360.615
311.339
262.681
339.633
315.594
273.874
254.165
222.383
209.458
200.564
198.832
206.77
222.751
246.495
273.159
302.442
335.255
364.475
388.796
400.421
402.54
375.403
333.238
360.774
331.03
271.428
245.433
201.322
182.495
162.316
154.418
151.369
155.103
174.303
204.249
237.77
280.886
324.219
366.531
405.737
424.92
426.021
397.467
393.997
363.794
277.149
242.988
191.496
168.654
142.608
130.931
124.089
121.81
125.22
148.205
179.758
224.844
279.648
333.915
386.171
435.142
458.719
453.029
432.855
419.304
285.481
237.596
179.412
152.323
125.127
111.147
103.942
101.325
101.236
112.184
135.496
173.229
229.202
296.602
363.737
428.78
481.186
496.662
475.172
516.367
300.615
227.754
167.106
134.977
112.19
95.4942
86.7647
83.3655
83.0563
91.2231
107.404
136.723
184.278
251.742
330.591
408.386
489.437
530.832
519.762
663.231
310.005
206.62
144.066
111.932
92.5641
82.4008
74.1249
70.3265
69.2036
73.2417
86.4278
109.581
150.46
213.333
296.494
387.785
486.023
559.341
564.466
830.629
306.565
168.263
113.126
88.9041
74.9784
65.748
62.2009
60.289
59.849
63.494
71.7687
90.0133
122.72
178.696
260.676
358.751
467.781
577.942
605.881
646.051
32.1751
12.7364
11.3229
11.19
11.171
11.1705
11.1708
11.1706
11.1705
11.1705
11.1706
11.1708
11.1705
11.171
11.19
11.3229
12.7364
32.1751
646.051
672.733
55.0593
17.0377
12.0867
11.3039
11.1803
11.1547
11.1529
11.1534
11.1536
11.1536
11.1534
11.1529
11.1547
11.1803
11.3039
12.0867
17.0377
55.0591
672.733
698.471
71.1007
21.1557
13.3037
11.5875
11.2261
11.1552
11.1382
11.1358
11.1355
11.1355
11.1358
11.1382
11.1552
11.2261
11.5875
13.3037
21.1557
71.1005
698.472
723.147
85.8573
25.1384
14.6466
12.0432
11.3372
11.1684
11.1265
11.1183
11.1171
11.1171
11.1183
11.1265
11.1684
11.3372
12.0432
14.6465
25.1384
85.8572
723.147
746.715
101.848
29.2029
16.0649
12.5881
11.5233
11.2064
11.1273
11.105
11.1003
11.1003
11.105
11.1273
11.2064
11.5233
12.5881
16.0649
29.2029
101.848
746.715
769.296
118.42
33.3641
17.5397
13.1968
11.7623
11.2829
11.1365
11.0944
11.0843
11.0843
11.0944
11.1365
11.2829
11.7623
13.1968
17.5397
33.3641
118.421
769.296
790.754
134.986
37.5713
19.0521
13.8505
12.0433
11.3872
11.1601
11.0918
11.0718
11.0718
11.0918
11.1601
11.3872
12.0433
13.8505
19.0521
37.5713
134.986
790.754
810.998
151.267
41.7841
20.5864
14.5357
12.3573
11.5179
11.2031
11.0956
11.0625
11.0625
11.0956
11.2031
11.5179
12.3573
14.5357
20.5864
41.7842
151.268
810.999
829.938
167.066
45.967
22.1299
15.2421
12.6968
11.6708
11.2604
11.1065
11.0594
11.0594
11.1065
11.2604
11.6708
12.6968
15.2421
22.1299
45.9671
167.066
829.938
847.64
182.387
50.1169
23.6783
15.9642
13.0565
11.8429
11.3324
11.129
11.0619
11.0619
11.129
11.3324
11.8429
13.0565
15.9642
23.6784
50.117
182.387
847.64
864
197.1
54.2107
25.2246
16.6967
13.4321
12.0315
11.4179
11.1609
11.0697
11.0697
11.1609
11.4179
12.0315
13.4321
16.6967
25.2246
54.2108
197.101
864
879.025
211.168
58.2353
26.7628
17.435
13.8194
12.2336
11.5156
11.2021
11.0862
11.0862
11.2021
11.5156
12.2336
13.8194
17.4351
26.7629
58.2355
211.169
879.025
892.659
224.49
62.166
28.285
18.1748
14.2151
12.4468
11.6243
11.2528
11.1113
11.1113
11.2528
11.6243
12.4468
14.2151
18.1748
28.2851
62.1663
224.49
892.658
905.018
237.112
66.0068
29.79
18.9138
14.6168
12.669
11.7426
11.3125
11.1446
11.1446
11.3125
11.7426
12.669
14.6168
18.9139
29.7901
66.007
237.112
905.017
916.068
248.964
69.7438
31.2747
19.6503
15.0229
12.8989
11.8698
11.3809
11.1861
11.1861
11.3809
11.8698
12.8989
15.0229
19.6503
31.2748
69.744
248.965
916.067
925.91
260.095
73.3788
32.7378
20.3829
15.4318
13.1351
12.0048
11.4575
11.2356
11.2356
11.4575
12.0048
13.1351
15.4318
20.3829
32.7379
73.3789
260.095
925.909
934.513
270.426
76.8921
34.174
21.1091
15.8419
13.3762
12.1466
11.5418
11.2931
11.2931
11.5418
12.1466
13.3762
15.8419
21.1091
34.1741
76.8921
270.425
934.512
942.035
280.037
80.2893
35.5826
21.8277
16.2519
13.6212
12.2944
11.6331
11.3579
11.3579
11.6331
12.2944
13.6212
16.2519
21.8277
35.5825
80.2892
280.037
942.034
948.451
288.882
83.5597
36.9606
22.5374
16.6609
13.8691
12.4475
11.7309
11.4299
11.4299
11.7309
12.4475
13.8691
16.6609
22.5374
36.9606
83.5594
288.881
948.45
953.927
297.053
86.7118
38.3093
23.2381
17.0684
14.1193
12.6053
11.8348
11.5085
11.5085
11.8348
12.6053
14.1193
17.0684
23.238
38.3091
86.7114
297.052
953.926
958.417
304.505
89.7347
39.6253
23.9284
17.4735
14.3712
12.7671
11.9442
11.5934
11.5934
11.9442
12.7671
14.3712
17.4735
23.9283
39.6252
89.7344
304.504
958.416
962.12
311.331
92.636
40.9092
24.608
17.8757
14.6242
12.9325
12.0587
11.684
11.684
12.0587
12.9325
14.6242
17.8757
24.6079
40.9091
92.6356
311.33
962.12
964.967
317.503
95.4082
42.1585
25.2757
18.2743
14.8777
13.1009
12.1777
11.78
11.78
12.1777
13.1009
14.8776
18.2742
25.2756
42.1583
95.4078
317.502
964.967
967.181
323.107
98.0613
43.3746
25.9316
18.6689
15.1313
13.2719
12.3009
11.8809
11.8809
12.3009
13.2719
15.1312
18.6689
25.9316
43.3745
98.0609
323.106
967.18
968.649
328.142
100.59
44.5556
26.5749
19.0593
15.3846
13.445
12.4277
11.9861
11.9861
12.4277
13.445
15.3845
19.0592
26.5749
44.5555
100.59
328.142
968.649
969.635
332.657
103.004
45.704
27.2062
19.4452
15.6374
13.62
12.5579
12.0955
12.0955
12.5579
13.62
15.6374
19.4452
27.2062
45.7039
103.004
332.657
969.635
969.97
336.703
105.3
46.8164
27.824
19.8261
15.8892
13.7964
12.691
12.2085
12.2085
12.691
13.7964
15.8892
19.8261
27.824
46.8163
105.3
336.702
969.971
969.834
340.245
107.487
47.897
28.4295
20.2021
16.14
13.9741
12.8267
12.3248
12.3248
12.8267
13.9741
16.14
20.202
28.4295
47.897
107.487
340.246
969.834
969.425
343.4
109.561
48.9416
29.0211
20.5725
16.3892
14.1525
12.9646
12.4441
12.444
12.9646
14.1525
16.3892
20.5725
29.0211
48.9416
109.561
343.399
969.425
968.58
346.142
111.537
49.9557
29.6003
20.9377
16.6369
14.3316
13.1045
12.5659
12.5659
13.1045
14.3316
16.6369
20.9377
29.6003
49.9558
111.537
346.142
968.58
967.38
348.527
113.406
50.9357
30.166
21.2973
16.8828
14.511
13.246
12.69
12.69
13.246
14.511
16.8827
21.2973
30.166
50.9357
113.406
348.526
967.38
965.892
350.555
115.186
51.8862
30.7192
21.6514
17.1267
14.6907
13.389
12.8161
12.8161
13.389
14.6907
17.1267
21.6514
30.7192
51.8862
115.186
350.557
965.893
964.157
352.265
116.864
52.8029
31.2587
21.9995
17.3684
14.8702
13.5331
12.944
12.944
13.5331
14.8702
17.3684
21.9995
31.2587
52.8029
116.864
352.264
964.157
962.206
353.658
118.462
53.693
31.7863
22.342
17.6079
15.0495
13.6782
13.0733
13.0733
13.6782
15.0495
17.6079
22.342
31.7863
53.6929
118.462
353.659
962.206
960.076
354.76
119.964
54.5507
32.3005
22.6786
17.845
15.2283
13.8239
13.2039
13.2039
13.8239
15.2283
17.845
22.6786
32.3005
54.5507
119.964
354.76
960.076
957.791
355.618
121.395
55.3832
32.803
23.0095
18.0797
15.4066
13.9701
13.3355
13.3355
13.9701
15.4066
18.0797
23.0095
32.8029
55.383
121.394
355.617
957.792
955.385
356.173
122.736
56.1863
33.2931
23.3347
18.3118
15.5842
14.1168
13.4679
13.4679
14.1168
15.5842
18.3118
23.3346
33.293
56.1862
122.736
356.174
955.386
952.873
356.56
124.012
56.9655
33.7716
23.654
18.5413
15.7609
14.2635
13.601
13.601
14.2635
15.7609
18.5413
23.654
33.7715
56.9654
124.011
356.56
952.874
950.291
356.612
125.202
57.716
34.2376
23.9674
18.768
15.9366
14.4103
13.7345
13.7345
14.4103
15.9366
18.7679
23.9674
34.2376
57.7159
125.202
356.612
950.291
947.64
356.52
126.335
58.4461
34.6932
24.2753
18.9919
16.1112
14.5569
13.8683
13.8683
14.5569
16.1112
18.9919
24.2753
34.6932
58.4459
126.335
356.52
947.64
944.964
356.29
127.39
59.1503
35.1376
24.5776
19.2132
16.2847
14.7032
14.0023
14.0023
14.7032
16.2847
19.2131
24.5776
35.1375
59.1503
127.39
356.29
944.965
942.25
355.825
128.398
59.8354
35.5717
24.8745
19.4316
16.4569
14.8492
14.1363
14.1363
14.8492
16.4569
19.4316
24.8744
35.5717
59.8353
128.398
355.826
942.25
939.548
355.239
129.333
60.4975
35.9951
25.1657
19.6471
16.6278
14.9947
14.2702
14.2702
14.9947
16.6278
19.6471
25.1657
35.995
60.4973
129.333
355.236
939.549
936.829
354.516
130.238
61.1423
36.4086
25.4515
19.8597
16.7972
15.1395
14.4039
14.4038
15.1395
16.7972
19.8597
25.4515
36.4085
61.1423
130.238
354.517
936.829
934.157
353.712
131.094
61.7708
36.813
25.7323
20.0695
16.9651
15.2837
14.5371
14.5371
15.2836
16.9651
20.0695
25.7322
36.8129
61.7706
131.093
353.713
934.158
931.479
352.875
131.971
62.3913
37.2091
26.0081
20.2766
17.1315
15.427
14.67
14.67
15.427
17.1315
20.2765
26.008
37.2089
62.391
131.97
352.874
931.48
928.877
351.999
132.855
63.0063
37.5968
26.2789
20.4807
17.2964
15.5695
14.8023
14.8023
15.5695
17.2964
20.4807
26.2788
37.5966
63.0062
132.855
352
928.878
926.351
351.172
133.798
63.625
37.9777
26.5449
20.682
17.4596
15.7111
14.934
14.934
15.7111
17.4595
20.6819
26.5448
37.9775
63.6246
133.796
351.171
926.352
923.898
350.386
134.816
64.2522
38.3532
26.8065
20.8805
17.6211
15.8517
15.065
15.065
15.8517
17.6211
20.8804
26.8063
38.3528
64.2512
134.814
350.385
923.899
921.514
349.745
135.935
64.8915
38.7242
27.0639
21.0763
17.781
15.9912
15.1953
15.1953
15.9912
17.7809
21.0761
27.0636
38.7237
64.8903
135.933
349.745
921.516
919.198
349.223
137.147
65.5438
39.0916
27.3173
21.2693
17.9391
16.1296
15.3247
15.3247
16.1296
17.939
21.2692
27.317
39.0911
65.543
137.146
349.22
919.2
916.947
348.889
138.465
66.2132
39.457
27.5672
21.4598
18.0955
16.2668
15.4532
15.4532
16.2668
18.0954
21.4596
27.5669
39.4565
66.2122
138.463
348.886
916.949
914.761
348.734
139.865
66.897
39.8208
27.8138
21.6476
18.2501
16.4028
15.5807
15.5807
16.4027
18.2499
21.6473
27.8133
39.8198
66.8947
139.859
348.73
914.764
912.642
348.778
141.34
67.593
40.1825
28.0568
21.8328
18.4028
16.5374
15.7071
15.7071
16.5373
18.4026
21.8324
28.0562
40.1812
67.59
141.334
348.774
912.647
910.593
348.923
142.885
68.3032
40.5432
28.2969
22.0154
18.5538
16.6708
15.8326
15.8325
16.6707
18.5536
22.0151
28.2963
40.5422
68.3013
142.882
348.917
910.598
908.611
349.228
144.494
69.0308
40.9053
28.5348
22.1959
18.7031
16.803
15.957
15.9569
16.8028
18.7029
22.1955
28.5341
40.904
69.0281
144.489
349.219
908.618
906.699
349.666
146.133
69.7673
41.267
28.7703
22.3741
18.8506
16.9337
16.0802
16.0801
16.9336
18.8503
22.3736
28.7694
41.2652
69.7633
146.125
349.661
906.707
904.859
350.219
147.786
70.5072
41.6268
29.0026
22.5496
18.9961
17.0629
16.2021
16.202
17.0627
18.9958
22.549
29.0015
41.6245
70.5019
147.774
350.205
904.868
903.093
350.843
149.448
71.2493
41.984
29.2314
22.7221
19.1394
17.1904
16.3225
16.3224
17.1902
19.1391
22.7216
29.2304
41.9819
71.245
149.44
350.836
903.103
901.4
351.554
151.125
71.9977
42.3405
29.4575
22.8921
19.2805
17.3162
16.4414
16.4414
17.316
19.2802
22.8915
29.4564
42.338
71.9923
151.114
351.535
901.414
899.784
352.301
152.795
72.7473
42.6955
29.6811
23.0597
19.4198
17.4404
16.559
16.5589
17.4402
19.4194
23.059
29.6797
42.6926
72.7405
152.78
352.29
899.798
898.241
353.095
154.437
73.4906
43.0471
29.9015
23.2248
19.5571
17.5632
16.6753
16.6753
17.563
19.5567
23.224
29.8999
43.0437
73.4828
154.421
353.073
898.26
896.78
353.893
156.054
74.225
43.3934
30.118
23.387
19.6924
17.6844
16.7903
16.7903
17.6842
19.6921
23.3863
30.1166
43.3906
74.2192
156.044
353.882
896.798
895.392
354.715
157.651
74.9521
43.7344
30.3301
23.5459
19.8252
17.8036
16.9036
16.9036
17.8034
19.8249
23.5454
30.3291
43.732
74.9461
157.635
354.693
895.413
894.081
355.537
159.222
75.6718
44.0701
30.5375
23.7009
19.9548
17.9202
17.0146
17.0146
17.9202
19.9547
23.7005
30.5366
44.0675
75.6641