/*--------------------------------*- C++ -*----------------------------------*\
| =========                 |                                                 |
| \\      /  F ield         | OpenFOAM: The Open Source CFD Toolbox           |
|  \\    /   O peration     | Version:  2.1.0                                 |
|   \\  /    A nd           | Web:      www.OpenFOAM.org                      |
|    \\/     M anipulation  |                                                 |
\*---------------------------------------------------------------------------*/
FoamFile
{
    version     2.0;
    format      ascii;
    class       volScalarField;
    location    "0.2";
    object      p;
}
// * * * * * * * * * * * * * * * * * * * * * * * * * * * * * * * * * * * * * //

dimensions      [1 -1 -2 0 0 0 0];

internalField   nonuniform List<scalar> 
6400
(
99998.3
99995.7
99993.9
99992.3
99990.9
99989.5
99988.1
99986.7
99985.2
99983.7
99982.2
99980.6
99978.9
99977.2
99975.4
99973.5
99971.6
99969.6
99967.6
99965.4
99963.2
99960.9
99958.6
99956.2
99953.7
99951.1
99948.5
99945.7
99942.9
99940
99937
99933.9
99930.8
99927.5
99924.2
99920.7
99917.1
99913.5
99909.7
99905.8
99901.8
99897.7
99893.4
99889
99884.5
99879.8
99874.9
99869.9
99864.8
99859.4
99853.9
99848.2
99842.3
99836.2
99829.9
99823.4
99816.7
99809.7
99802.5
99795.1
99787.4
99779.4
99771.2
99762.6
99753.7
99744.5
99735
99725.1
99714.9
99704.3
99693.3
99681.9
99670.1
99657.9
99645.2
99632.2
99618.7
99604.8
99590.5
99575.6
99560.3
99544.4
99527.9
99510.5
99492.2
99472.7
99451.6
99428.7
99403.3
99375.2
99344.2
99311.1
99277.9
99246.3
99216.7
99182.2
99128.8
99019.4
98663
97111.3
99996.7
99995.1
99993.5
99991.9
99990.5
99989.1
99987.7
99986.3
99984.9
99983.4
99981.8
99980.2
99978.5
99976.8
99975
99973.1
99971.2
99969.2
99967.2
99965
99962.8
99960.5
99958.2
99955.8
99953.3
99950.7
99948
99945.3
99942.5
99939.6
99936.6
99933.5
99930.3
99927.1
99923.7
99920.2
99916.7
99913
99909.2
99905.3
99901.3
99897.2
99892.9
99888.5
99884
99879.3
99874.5
99869.5
99864.3
99858.9
99853.4
99847.7
99841.9
99835.8
99829.5
99823
99816.3
99809.4
99802.2
99794.8
99787.1
99779.2
99770.9
99762.4
99753.6
99744.4
99734.9
99725.1
99714.9
99704.3
99693.4
99682.1
99670.3
99658.1
99645.6
99632.6
99619.2
99605.3
99591
99576.2
99560.8
99545
99528.4
99511.1
99492.8
99473.3
99452.2
99429.3
99404.1
99376.2
99345.4
99312.6
99279.3
99247.7
99219.7
99190
99142.6
99048
98760.2
98228.6
99995.3
99994.3
99993
99991.6
99990.3
99988.9
99987.6
99986.2
99984.7
99983.2
99981.7
99980
99978.4
99976.6
99974.9
99973
99971.1
99969.1
99967
99964.9
99962.7
99960.4
99958
99955.6
99953.1
99950.5
99947.9
99945.1
99942.3
99939.4
99936.4
99933.4
99930.2
99927
99923.6
99920.1
99916.6
99912.9
99909.2
99905.3
99901.3
99897.2
99892.9
99888.5
99884
99879.4
99874.5
99869.6
99864.5
99859.2
99853.7
99848
99842.2
99836.2
99829.9
99823.5
99816.8
99809.9
99802.8
99795.4
99787.8
99779.9
99771.7
99763.3
99754.5
99745.4
99736
99726.3
99716.1
99705.7
99694.8
99683.6
99672
99659.9
99647.5
99634.6
99621.3
99607.6
99593.4
99578.7
99563.4
99547.6
99531.1
99513.8
99495.5
99475.9
99454.9
99432.1
99407
99379.6
99349.7
99318.4
99287.5
99258.8
99234.1
99208.7
99176.5
99119.6
98972.4
99067.1
99993.5
99993.5
99992.6
99991.4
99990.2
99988.9
99987.6
99986.2
99984.8
99983.3
99981.8
99980.2
99978.5
99976.8
99975
99973.2
99971.2
99969.3
99967.2
99965.1
99962.9
99960.6
99958.3
99955.9
99953.4
99950.9
99948.2
99945.5
99942.7
99939.8
99936.8
99933.8
99930.6
99927.4
99924.1
99920.6
99917.1
99913.5
99909.7
99905.9
99901.9
99897.8
99893.6
99889.2
99884.7
99880.1
99875.4
99870.4
99865.4
99860.1
99854.7
99849.1
99843.3
99837.3
99831.1
99824.7
99818.1
99811.3
99804.2
99796.9
99789.3
99781.5
99773.4
99765
99756.2
99747.2
99737.9
99728.2
99718.1
99707.7
99696.9
99685.7
99674.1
99662.1
99649.6
99636.7
99623.4
99609.6
99595.2
99580.4
99565
99548.9
99532.2
99514.5
99495.9
99476.2
99454.9
99432
99407.2
99380.4
99352.1
99323.3
99296.5
99273.1
99256.3
99244.5
99241.6
99249.6
99280.6
99696.8
99991.5
99992.6
99992.3
99991.4
99990.3
99989.1
99987.9
99986.5
99985.1
99983.7
99982.2
99980.6
99978.9
99977.2
99975.5
99973.6
99971.7
99969.8
99967.7
99965.6
99963.5
99961.3
99958.9
99956.6
99954.1
99951.5
99948.9
99946.2
99943.4
99940.6
99937.6
99934.6
99931.5
99928.3
99924.9
99921.5
99918
99914.4
99910.7
99906.8
99902.9
99898.8
99894.6
99890.3
99885.8
99881.2
99876.5
99871.6
99866.5
99861.3
99855.9
99850.3
99844.5
99838.5
99832.4
99826
99819.4
99812.5
99805.5
99798.2
99790.6
99782.8
99774.7
99766.3
99757.5
99748.5
99739.1
99729.4
99719.3
99708.9
99698
99686.8
99675.1
99663
99650.5
99637.5
99624.1
99610.1
99595.6
99580.6
99565
99548.7
99531.6
99513.7
99494.8
99474.7
99453.3
99430.4
99406
99380.1
99353.6
99328.1
99306.7
99290.6
99283.8
99295.2
99334.1
99427
99625.2
100192
99989.6
99991.7
99991.9
99991.4
99990.6
99989.5
99988.3
99987.1
99985.7
99984.3
99982.8
99981.2
99979.6
99977.9
99976.1
99974.3
99972.4
99970.4
99968.4
99966.3
99964.2
99962
99959.7
99957.3
99954.8
99952.3
99949.7
99947
99944.2
99941.4
99938.4
99935.4
99932.3
99929.1
99925.8
99922.4
99918.9
99915.3
99911.5
99907.7
99903.7
99899.6
99895.4
99891.1
99886.6
99882
99877.2
99872.3
99867.2
99862
99856.5
99850.9
99845.1
99839.1
99832.9
99826.5
99819.9
99813.1
99806
99798.7
99791.1
99783.3
99775.1
99766.7
99758
99749
99739.6
99729.9
99719.8
99709.3
99698.5
99687.2
99675.5
99663.4
99650.8
99637.7
99624.2
99610.1
99595.4
99580.2
99564.3
99547.7
99530.3
99512
99492.7
99472.3
99450.7
99427.8
99403.7
99378.9
99354.5
99332.6
99317
99309.2
99315.6
99354.5
99441.8
99624.6
99955.2
100580
99987.9
99990.9
99991.6
99991.5
99990.8
99989.9
99988.8
99987.6
99986.2
99984.8
99983.3
99981.7
99980.1
99978.4
99976.7
99974.8
99973
99971
99969
99966.9
99964.7
99962.5
99960.2
99957.8
99955.3
99952.8
99950.2
99947.5
99944.7
99941.9
99938.9
99935.9
99932.7
99929.5
99926.2
99922.8
99919.3
99915.6
99911.9
99908
99904
99899.9
99895.7
99891.4
99886.9
99882.2
99877.4
99872.5
99867.4
99862.1
99856.7
99851.1
99845.3
99839.3
99833.1
99826.7
99820.1
99813.2
99806.2
99798.8
99791.3
99783.4
99775.3
99766.9
99758.2
99749.1
99739.8
99730.1
99720
99709.5
99698.7
99687.4
99675.7
99663.6
99650.9
99637.7
99624.1
99609.8
99595
99579.5
99563.3
99546.4
99528.6
99509.9
99490.2
99469.4
99447.4
99424.5
99400.8
99377.1
99354.7
99336.1
99325.7
99326.9
99349
99414
99549.3
99813.5
100238
100872
99986.6
99990.2
99991.3
99991.4
99990.9
99990.1
99989
99987.8
99986.5
99985.1
99983.6
99982
99980.4
99978.7
99976.9
99975.1
99973.2
99971.2
99969.2
99967.1
99964.9
99962.7
99960.4
99958
99955.5
99953
99950.3
99947.6
99944.8
99942
99939
99935.9
99932.8
99929.6
99926.2
99922.8
99919.2
99915.6
99911.8
99907.9
99903.9
99899.8
99895.6
99891.2
99886.7
99882.1
99877.3
99872.3
99867.2
99861.9
99856.5
99850.9
99845.1
99839.1
99832.9
99826.5
99819.9
99813.1
99806.1
99798.8
99791.2
99783.4
99775.3
99766.9
99758.2
99749.2
99739.9
99730.2
99720.2
99709.7
99698.9
99687.7
99675.9
99663.7
99651
99637.8
99624
99609.6
99594.6
99578.9
99562.4
99545.1
99527
99507.8
99487.6
99466.4
99444.2
99421.1
99397.7
99374.8
99354
99338.2
99332
99341.2
99377.5
99465.2
99641.5
99970.3
100454
101078
99985.9
99989.6
99991
99991.2
99990.8
99990.1
99989
99987.8
99986.5
99985.1
99983.6
99982
99980.4
99978.6
99976.9
99975
99973.1
99971.1
99969.1
99967
99964.8
99962.5
99960.2
99957.8
99955.3
99952.8
99950.1
99947.4
99944.6
99941.7
99938.7
99935.6
99932.4
99929.2
99925.8
99922.4
99918.8
99915.2
99911.4
99907.5
99903.5
99899.4
99895.1
99890.8
99886.3
99881.6
99876.8
99871.9
99866.8
99861.6
99856.1
99850.5
99844.8
99838.8
99832.6
99826.3
99819.7
99812.9
99805.9
99798.7
99791.2
99783.4
99775.4
99767
99758.3
99749.4
99740.1
99730.5
99720.4
99710
99699.2
99687.9
99676.3
99664.1
99651.4
99638.1
99624.3
99609.7
99594.5
99578.6
99561.8
99544.2
99525.6
99506
99485.3
99463.6
99441
99417.8
99394.4
99372.1
99352.4
99338.6
99335.3
99350.1
99396.9
99500.9
99706.4
100079
100597
101208
99985.7
99989.4
99990.8
99991.1
99990.7
99990
99988.9
99987.7
99986.4
99984.9
99983.4
99981.8
99980.1
99978.4
99976.6
99974.7
99972.8
99970.8
99968.7
99966.5
99964.3
99962
99959.7
99957.3
99954.8
99952.2
99949.5
99946.8
99944
99941.1
99938.1
99935.1
99931.9
99928.7
99925.3
99921.9
99918.3
99914.7
99910.9
99907.1
99903.1
99899
99894.8
99890.4
99886
99881.3
99876.6
99871.7
99866.6
99861.4
99856
99850.4
99844.6
99838.7
99832.6
99826.2
99819.7
99812.9
99805.9
99798.7
99791.2
99783.5
99775.4
99767.2
99758.6
99749.7
99740.5
99730.9
99720.9
99710.5
99699.7
99688.5
99676.8
99664.7
99651.9
99638.6
99624.6
99609.9
99594.5
99578.4
99561.3
99543.3
99524.3
99504.2
99483.1
99460.9
99437.8
99414.3
99390.8
99368.7
99349.6
99336.8
99335
99352.6
99404.6
99517.2
99736.5
100130
100662
101266
99985.8
99989.5
99990.8
99991.1
99990.8
99990
99989
99987.8
99986.4
99985
99983.4
99981.8
99980.2
99978.4
99976.6
99974.7
99972.8
99970.8
99968.7
99966.6
99964.4
99962.1
99959.7
99957.3
99954.8
99952.2
99949.6
99946.8
99944
99941.1
99938.2
99935.1
99931.9
99928.7
99925.4
99921.9
99918.4
99914.7
99911
99907.1
99903.1
99899
99894.8
99890.5
99886
99881.4
99876.6
99871.7
99866.6
99861.4
99856
99850.4
99844.7
99838.8
99832.7
99826.3
99819.8
99813.1
99806.1
99798.9
99791.5
99783.8
99775.8
99767.5
99759
99750.1
99740.9
99731.4
99721.5
99711.1
99700.4
99689.2
99677.5
99665.3
99652.5
99639.1
99625
99610.2
99594.7
99578.2
99560.8
99542.5
99523.1
99502.5
99480.9
99458.2
99434.6
99410.6
99386.8
99364.4
99345.3
99332.5
99330.8
99348.4
99400.1
99512
99729.9
100121
100651
101255
99986.2
99989.9
99991.1
99991.3
99990.9
99990.1
99989
99987.8
99986.5
99985.1
99983.5
99982
99980.3
99978.6
99976.8
99974.9
99973
99971
99969
99966.8
99964.7
99962.4
99960.1
99957.6
99955.2
99952.6
99950
99947.2
99944.4
99941.5
99938.6
99935.5
99932.4
99929.1
99925.8
99922.3
99918.8
99915.1
99911.3
99907.5
99903.5
99899.3
99895.1
99890.8
99886.3
99881.6
99876.9
99871.9
99866.9
99861.6
99856.2
99850.7
99844.9
99839
99832.9
99826.6
99820.1
99813.4
99806.4
99799.3
99791.8
99784.1
99776.2
99768
99759.5
99750.6
99741.5
99732
99722.1
99711.8
99701.1
99689.9
99678.2
99666
99653.2
99639.7
99625.5
99610.6
99594.8
99578.2
99560.5
99541.8
99522
99501
99478.8
99455.5
99431.3
99406.7
99382.3
99359.4
99339.7
99326
99322.8
99337.7
99384
99486.1
99686.7
100052
100565
101175
99987.1
99990.5
99991.5
99991.5
99990.9
99990.1
99989
99987.7
99986.4
99985
99983.4
99981.9
99980.2
99978.5
99976.7
99974.9
99973
99971
99969
99966.9
99964.7
99962.4
99960.1
99957.7
99955.2
99952.7
99950.1
99947.4
99944.6
99941.7
99938.7
99935.7
99932.5
99929.3
99926
99922.5
99919
99915.3
99911.6
99907.7
99903.8
99899.7
99895.4
99891.1
99886.6
99882
99877.2
99872.3
99867.2
99862
99856.6
99851.1
99845.3
99839.4
99833.3
99827
99820.5
99813.8
99806.9
99799.7
99792.3
99784.7
99776.7
99768.5
99760
99751.3
99742.1
99732.6
99722.8
99712.5
99701.8
99690.7
99679
99666.8
99653.9
99640.4
99626.2
99611.1
99595.2
99578.3
99560.4
99541.3
99521.1
99499.6
99476.9
99453.1
99428.2
99402.9
99377.8
99354
99333.1
99317.7
99311.8
99321.3
99357.8
99441.9
99610.7
99929.3
100406
101029
99988.5
99991.3
99991.9
99991.6
99990.9
99989.9
99988.7
99987.5
99986.1
99984.7
99983.1
99981.6
99979.9
99978.2
99976.4
99974.6
99972.7
99970.7
99968.7
99966.6
99964.4
99962.2
99959.8
99957.5
99955
99952.5
99949.8
99947.1
99944.3
99941.5
99938.5
99935.5
99932.3
99929.1
99925.8
99922.4
99918.9
99915.2
99911.5
99907.6
99903.7
99899.6
99895.4
99891.1
99886.6
99882
99877.3
99872.4
99867.3
99862.1
99856.7
99851.2
99845.5
99839.6
99833.5
99827.3
99820.8
99814.1
99807.2
99800.1
99792.7
99785.1
99777.2
99769.1
99760.6
99751.9
99742.8
99733.4
99723.5
99713.3
99702.7
99691.5
99679.9
99667.7
99654.8
99641.3
99627
99611.8
99595.8
99578.7
99560.5
99541.2
99520.6
99498.8
99475.6
99451.1
99425.5
99399.4
99373.3
99348.4
99326.1
99308.2
99298.6
99301.2
99324.4
99384.4
99510.3
99761.9
100175
100806
99990.3
99992.2
99992.3
99991.6
99990.7
99989.6
99988.3
99987
99985.6
99984.1
99982.6
99981
99979.4
99977.6
99975.9
99974
99972.1
99970.1
99968.1
99966
99963.8
99961.6
99959.3
99956.9
99954.4
99951.9
99949.3
99946.6
99943.8
99940.9
99938
99934.9
99931.8
99928.6
99925.3
99921.9
99918.4
99914.8
99911
99907.2
99903.3
99899.2
99895
99890.7
99886.2
99881.7
99876.9
99872.1
99867
99861.9
99856.5
99851
99845.3
99839.5
99833.4
99827.2
99820.8
99814.1
99807.2
99800.1
99792.8
99785.3
99777.4
99769.3
99761
99752.3
99743.2
99733.9
99724.1
99713.9
99703.3
99692.2
99680.6
99668.5
99655.6
99642
99627.7
99612.5
99596.4
99579.2
99560.8
99541.3
99520.4
99498.2
99474.5
99449.5
99423.2
99396.2
99368.9
99342.7
99318.6
99298.7
99284.6
99279.4
99288
99320.9
99398.2
99566.8
99882.3
100501
99992.3
99993.1
99992.6
99991.6
99990.5
99989.2
99987.9
99986.6
99985.1
99983.6
99982.1
99980.5
99978.8
99977.1
99975.3
99973.4
99971.5
99969.5
99967.5
99965.3
99963.2
99960.9
99958.6
99956.2
99953.7
99951.2
99948.5
99945.8
99943
99940.2
99937.2
99934.1
99931
99927.8
99924.5
99921
99917.5
99913.9
99910.2
99906.3
99902.4
99898.3
99894.1
99889.8
99885.4
99880.8
99876.1
99871.2
99866.2
99861.1
99855.8
99850.3
99844.6
99838.8
99832.8
99826.6
99820.2
99813.6
99806.8
99799.7
99792.5
99785
99777.2
99769.1
99760.8
99752.2
99743.2
99733.9
99724.2
99714.1
99703.6
99692.5
99680.9
99668.8
99655.9
99642.4
99628.1
99612.8
99596.6
99579.4
99560.9
99541.2
99520.1
99497.6
99473.5
99448
99421.1
99393.2
99364.8
99337
99311.1
99288.7
99270.9
99258.8
99253.2
99260
99289.2
99367.4
99547.2
100102
99994.2
99994.1
99993
99991.8
99990.4
99989.1
99987.7
99986.3
99984.8
99983.3
99981.7
99980.1
99978.4
99976.7
99974.9
99973
99971.1
99969.1
99967
99964.9
99962.7
99960.4
99958.1
99955.6
99953.2
99950.6
99947.9
99945.2
99942.4
99939.5
99936.5
99933.4
99930.3
99927
99923.7
99920.2
99916.7
99913.1
99909.3
99905.5
99901.5
99897.4
99893.2
99888.8
99884.4
99879.8
99875
99870.2
99865.1
99860
99854.6
99849.1
99843.5
99837.7
99831.6
99825.4
99819
99812.4
99805.6
99798.6
99791.3
99783.8
99776.1
99768.1
99759.8
99751.2
99742.2
99733
99723.4
99713.3
99702.8
99691.9
99680.4
99668.3
99655.5
99642
99627.7
99612.5
99596.2
99578.9
99560.4
99540.6
99519.3
99496.6
99472.3
99446.3
99418.9
99390.2
99360.8
99331.6
99304
99279.2
99258.8
99241.9
99224.4
99209.7
99197.9
99191.6
99201.9
99596.5
99996
99994.9
99993.5
99992
99990.5
99989.1
99987.7
99986.3
99984.8
99983.3
99981.7
99980
99978.3
99976.6
99974.8
99972.9
99971
99969
99966.9
99964.7
99962.5
99960.2
99957.9
99955.5
99952.9
99950.3
99947.7
99944.9
99942.1
99939.2
99936.2
99933.1
99930
99926.7
99923.3
99919.9
99916.3
99912.6
99908.9
99905
99901
99896.9
99892.7
99888.3
99883.8
99879.2
99874.4
99869.5
99864.5
99859.2
99853.9
99848.3
99842.6
99836.7
99830.7
99824.4
99818
99811.3
99804.5
99797.4
99790.1
99782.6
99774.8
99766.8
99758.4
99749.8
99740.8
99731.5
99721.9
99711.8
99701.3
99690.3
99678.8
99666.6
99653.8
99640.3
99626
99610.7
99594.5
99577.1
99558.6
99538.6
99517.3
99494.4
99469.9
99443.8
99416
99386.8
99356.6
99326.3
99297.4
99271.1
99248.7
99230.1
99204.8
99175.6
99135.1
99064.5
98895.6
98954.8
99997.4
99995.7
99993.9
99992.3
99990.8
99989.4
99987.9
99986.5
99985
99983.5
99981.9
99980.2
99978.5
99976.8
99975
99973.1
99971.2
99969.2
99967.1
99964.9
99962.7
99960.4
99958.1
99955.6
99953.1
99950.5
99947.9
99945.1
99942.3
99939.4
99936.4
99933.3
99930.1
99926.9
99923.5
99920
99916.5
99912.8
99909
99905.1
99901.1
99897
99892.8
99888.4
99883.9
99879.3
99874.5
99869.6
99864.5
99859.3
99853.9
99848.3
99842.6
99836.6
99830.5
99824.2
99817.8
99811.1
99804.2
99797.1
99789.8
99782.2
99774.4
99766.3
99757.9
99749.2
99740.3
99730.9
99721.2
99711.1
99700.5
99689.5
99677.8
99665.6
99652.8
99639.1
99624.7
99609.3
99592.9
99575.3
99556.6
99536.4
99514.8
99491.6
99466.8
99440.2
99412
99382.1
99351
99319.5
99289
99260.8
99234.8
99212.4
99192.2
99158.5
99102.6
98994.3
98684.3
98093.5
99998.8
99996.3
99994.4
99992.7
99991.2
99989.7
99988.3
99986.9
99985.4
99983.8
99982.3
99980.6
99978.9
99977.2
99975.4
99973.5
99971.6
99969.6
99967.5
99965.4
99963.1
99960.9
99958.5
99956.1
99953.6
99951
99948.3
99945.6
99942.8
99939.9
99936.9
99933.8
99930.6
99927.4
99924
99920.5
99917
99913.3
99909.5
99905.7
99901.7
99897.6
99893.3
99888.9
99884.5
99879.8
99875
99870.1
99865.1
99859.8
99854.5
99848.9
99843.2
99837.3
99831.2
99824.9
99818.4
99811.7
99804.9
99797.8
99790.4
99782.8
99775
99766.9
99758.5
99749.8
99740.8
99731.5
99721.8
99711.7
99701.1
99690
99678.4
99666.2
99653.3
99639.7
99625.2
99609.8
99593.4
99575.8
99557
99536.8
99515.2
99492
99467
99440.4
99412
99381.9
99350.7
99319.2
99288.9
99260.8
99235.5
99209.7
99179.4
99137.8
99079.6
98961.8
98586.1
96939.2
100601
101838
102365
102666
102870
103024
103144
103241
103320
103386
103440
103485
103522
103552
103575
103592
103604
103610
103611
103607
100553
101551
102167
102554
102813
102998
103138
103247
103335
103405
103463
103509
103547
103576
103598
103614
103624
103628
103627
103617
100831
101581
102111
102496
102773
102977
103130
103250
103344
103419
103479
103527
103564
103593
103614
103629
103637
103639
103637
103623
101097
101708
102157
102507
102776
102981
103140
103264
103362
103439
103500
103548
103585
103613
103632
103644
103650
103651
103647
103627
101325
101843
102236
102553
102805
103004
103162
103286
103385
103463
103524
103571
103607
103633
103650
103659
103663
103662
103656
103630
101516
101968
102321
102611
102847
103038
103192
103315
103412
103490
103550
103596
103629
103652
103667
103674
103675
103672
103662
103633
101669
102074
102399
102670
102893
103076
103225
103345
103441
103517
103576
103620
103651
103672
103683
103687
103686
103680
103667
103634
101785
102157
102463
102719
102934
103110
103255
103373
103468
103543
103600
103643
103672
103689
103697
103698
103695
103687
103670
103636
101860
102213
102507
102756
102965
103138
103281
103398
103492
103565
103621
103662
103689
103704
103709
103708
103703
103692
103672
103640
101896
102240
102530
102775
102982
103154
103296
103412
103505
103578
103634
103674
103700
103714
103718
103715
103708
103696
103673
103646
101885
102230
102520
102766
102974
103147
103290
103406
103500
103574
103630
103670
103697
103711
103716
103713
103706
103695
103673
103645
101832
102187
102483
102734
102945
103120
103265
103384
103479
103554
103612
103654
103682
103699
103705
103704
103699
103689
103671
103644
101743
102120
102428
102689
102906
103086
103234
103355
103452
103529
103589
103633
103663
103682
103692
103694
103691
103683
103668
103643
101616
102026
102355
102630
102859
103046
103199
103323
103422
103501
103562
103609
103642
103664
103677
103682
103681
103676
103664
103641
101452
101910
102269
102565
102807
103004
103163
103290
103392
103472
103535
103583
103619
103644
103660
103668
103670
103667
103659
103630
101253
101778
102177
102501
102760
102966
103130
103260
103363
103444
103509
103558
103596
103624
103642
103653
103658
103657
103652
103628
101017
101636
102093
102452
102728
102941
103106
103236
103338
103419
103484
103535
103574
103603
103624
103638
103645
103646
103643
103624
100742
101502
102043
102439
102725
102936
103096
103221
103320
103399
103462
103513
103553
103583
103606
103622
103631
103634
103633
103620
100454
101469
102100
102498
102766
102958
103104
103219
103311
103385
103446
103495
103535
103566
103590
103607
103618
103623
103622
103613
100497
101762
102303
102612
102824
102984
103110
103212
103296
103365
103422
103470
103509
103541
103566
103584
103597
103604
103606
103602
103445
103443
103442
103441
103441
103440
103440
103439
103439
103439
103439
103439
103439
103440
103440
103441
103441
103442
103443
103445
103442
103440
103439
103439
103439
103438
103438
103438
103438
103438
103438
103438
103438
103438
103438
103439
103439
103439
103440
103442
103441
103439
103439
103439
103439
103439
103439
103439
103439
103439
103439
103439
103439
103439
103439
103439
103439
103439
103439
103441
103441
103440
103439
103439
103439
103439
103439
103439
103439
103439
103439
103439
103439
103439
103439
103439
103439
103439
103440
103441
103441
103439
103439
103439
103439
103439
103439
103439
103439
103439
103439
103439
103439
103439
103439
103439
103439
103439
103439
103441
103440
103439
103438
103438
103438
103438
103438
103438
103438
103438
103438
103438
103438
103438
103438
103438
103438
103438
103439
103440
103440
103438
103438
103438
103438
103437
103437
103437
103437
103437
103437
103437
103437
103437
103437
103438
103438
103438
103438
103440
103439
103437
103437
103437
103437
103437
103437
103437
103437
103437
103437
103437
103437
103437
103437
103437
103437
103437
103437
103439
103438
103437
103436
103436
103436
103436
103436
103436
103436
103436
103436
103436
103436
103436
103436
103436
103436
103436
103437
103438
103438
103436
103436
103436
103436
103436
103435
103435
103435
103435
103435
103435
103435
103435
103436
103436
103436
103436
103436
103438
103437
103435
103435
103435
103435
103435
103435
103435
103435
103435
103435
103435
103435
103435
103435
103435
103435
103435
103435
103437
103436
103435
103434
103434
103434
103434
103434
103434
103434
103434
103434
103434
103434
103434
103434
103434
103434
103434
103435
103436
103435
103434
103434
103434
103433
103433
103433
103433
103433
103433
103433
103433
103433
103433
103433
103433
103434
103434
103434
103435
103435
103433
103433
103433
103433
103433
103433
103433
103433
103433
103433
103433
103433
103433
103433
103433
103433
103433
103433
103435
103434
103432
103432
103432
103432
103432
103432
103432
103432
103432
103432
103432
103432
103432
103432
103432
103432
103432
103432
103434
103433
103432
103431
103431
103431
103431
103431
103431
103431
103431
103431
103431
103431
103431
103431
103431
103431
103431
103432
103433
103432
103431
103431
103431
103431
103430
103430
103430
103430
103430
103430
103430
103430
103430
103430
103431
103431
103431
103431
103432
103431
103430
103430
103430
103430
103430
103430
103430
103430
103430
103430
103430
103430
103430
103430
103430
103430
103430
103430
103431
103431
103429
103429
103429
103429
103429
103429
103429
103429
103429
103429
103429
103429
103429
103429
103429
103429
103429
103429
103431
103430
103428
103428
103428
103428
103428
103428
103428
103428
103428
103428
103428
103428
103428
103428
103428
103428
103428
103428
103430
103429
103428
103428
103427
103427
103427
103427
103427
103427
103427
103427
103427
103427
103427
103427
103427
103427
103428
103428
103429
103428
103427
103427
103427
103427
103427
103426
103426
103426
103426
103426
103426
103426
103426
103427
103427
103427
103427
103427
103428
103427
103426
103426
103426
103426
103426
103426
103426
103426
103426
103426
103426
103426
103426
103426
103426
103426
103426
103426
103427
103426
103425
103425
103425
103425
103425
103425
103425
103425
103425
103425
103425
103425
103425
103425
103425
103425
103425
103425
103426
103426
103424
103424
103424
103424
103424
103424
103424
103424
103424
103424
103424
103424
103424
103424
103424
103424
103424
103424
103426
103425
103424
103423
103423
103423
103423
103423
103423
103423
103423
103423
103423
103423
103423
103423
103423
103423
103423
103424
103425
103424
103423
103423
103423
103423
103423
103422
103422
103422
103422
103422
103422
103422
103422
103423
103423
103423
103423
103423
103424
103423
103422
103422
103422
103422
103422
103422
103422
103422
103422
103422
103422
103422
103422
103422
103422
103422
103422
103422
103423
103422
103421
103421
103421
103421
103421
103421
103421
103421
103421
103421
103421
103421
103421
103421
103421
103421
103421
103421
103422
103421
103420
103420
103420
103420
103420
103420
103420
103420
103420
103420
103420
103420
103420
103420
103420
103420
103420
103420
103421
103421
103420
103419
103419
103419
103419
103419
103419
103419
103419
103419
103419
103419
103419
103419
103419
103419
103419
103420
103421
103420
103419
103419
103419
103419
103419
103418
103418
103418
103418
103418
103418
103418
103418
103419
103419
103419
103419
103419
103420
103419
103418
103418
103418
103418
103418
103418
103418
103418
103418
103418
103418
103418
103418
103418
103418
103418
103418
103418
103419
103418
103417
103417
103417
103417
103417
103417
103417
103417
103417
103417
103417
103417
103417
103417
103417
103417
103417
103417
103418
103417
103416
103416
103416
103416
103416
103416
103416
103416
103416
103416
103416
103416
103416
103416
103416
103416
103416
103416
103417
103416
103416
103415
103415
103415
103415
103415
103415
103415
103415
103415
103415
103415
103415
103415
103415
103415
103415
103416
103416
103415
103415
103415
103415
103415
103415
103415
103415
103414
103414
103414
103414
103415
103415
103415
103415
103415
103415
103415
103415
103415
103414
103414
103414
103414
103414
103414
103414
103414
103414
103414
103414
103414
103414
103414
103414
103414
103414
103414
103415
103414
103413
103413
103413
103413
103413
103413
103413
103413
103413
103413
103413
103413
103413
103413
103413
103413
103413
103413
103414
103413
103413
103412
103412
103412
103412
103412
103412
103412
103412
103412
103412
103412
103412
103412
103412
103412
103412
103413
103413
103412
103412
103412
103412
103412
103412
103411
103411
103411
103411
103411
103411
103411
103411
103412
103412
103412
103412
103412
103412
103411
103411
103411
103411
103411
103411
103411
103411
103411
103411
103411
103411
103411
103411
103411
103411
103411
103411
103411
103411
103411
103410
103410
103410
103410
103410
103410
103410
103410
103410
103410
103410
103410
103410
103410
103410
103410
103410
103410
103411
103410
103409
103409
103409
103409
103409
103409
103409
103409
103409
103409
103409
103409
103409
103409
103409
103409
103409
103409
103410
103409
103409
103409
103409
103409
103409
103408
103408
103408
103408
103408
103408
103408
103408
103409
103409
103409
103409
103409
103409
103408
103408
103408
103408
103408
103408
103408
103408
103408
103408
103408
103408
103408
103408
103408
103408
103408
103408
103408
103408
103408
103407
103407
103407
103407
103407
103407
103407
103407
103407
103407
103407
103407
103407
103407
103407
103407
103407
103407
103408
103407
103407
103406
103406
103406
103406
103406
103406
103406
103406
103406
103406
103406
103406
103406
103406
103406
103406
103407
103407
103406
103406
103406
103406
103406
103406
103406
103406
103406
103406
103406
103406
103406
103406
103406
103406
103406
103406
103406
103406
103405
103405
103405
103405
103405
103405
103405
103405
103405
103405
103405
103405
103405
103405
103405
103405
103405
103405
103405
103405
103405
103404
103404
103404
103404
103404
103404
103404
103404
103404
103404
103404
103404
103404
103404
103404
103404
103404
103404
103405
103404
103404
103404
103404
103403
103403
103403
103403
103403
103403
103403
103403
103403
103403
103403
103403
103404
103404
103404
103404
103403
103403
103403
103403
103403
103403
103403
103403
103403
103403
103403
103403
103403
103403
103403
103403
103403
103403
103403
103403
103402
103402
103402
103402
103402
103402
103402
103402
103402
103402
103402
103402
103402
103402
103402
103402
103402
103402
103402
103402
103402
103402
103401
103401
103401
103401
103401
103401
103401
103401
103401
103401
103401
103401
103401
103401
103401
103401
103402
103402
103401
103401
103401
103401
103401
103401
103401
103401
103401
103401
103401
103401
103401
103401
103401
103401
103401
103401
103401
103401
103400
103400
103400
103400
103400
103400
103400
103400
103400
103400
103400
103400
103400
103400
103400
103400
103400
103400
103400
103400
103400
103399
103399
103399
103399
103399
103399
103399
103399
103399
103399
103399
103399
103399
103399
103399
103399
103399
103399
103400
103399
103399
103399
103399
103399
103399
103399
103399
103399
103399
103399
103399
103399
103399
103399
103399
103399
103399
103399
103399
103398
103398
103398
103398
103398
103398
103398
103398
103398
103398
103398
103398
103398
103398
103398
103398
103398
103398
103398
103398
103398
103397
103397
103397
103397
103397
103397
103397
103397
103397
103397
103397
103397
103397
103397
103397
103397
103397
103397
103398
103397
103397
103397
103397
103397
103397
103397
103397
103397
103397
103397
103397
103397
103397
103397
103397
103397
103397
103397
103397
103396
103396
103396
103396
103396
103396
103396
103396
103396
103396
103396
103396
103396
103396
103396
103396
103396
103396
103396
103396
103396
103395
103395
103395
103395
103395
103395
103395
103395
103395
103395
103395
103395
103395
103395
103395
103395
103395
103396
103396
103395
103395
103395
103395
103395
103395
103395
103395
103395
103395
103395
103395
103395
103395
103395
103395
103395
103395
103395
103395
103394
103394
103394
103394
103394
103394
103394
103394
103394
103394
103394
103394
103394
103394
103394
103394
103394
103394
103394
103394
103394
103394
103393
103393
103393
103393
103393
103393
103393
103393
103393
103393
103393
103393
103393
103393
103394
103394
103394
103394
103393
103393
103393
103393
103393
103393
103393
103393
103393
103393
103393
103393
103393
103393
103393
103393
103393
103393
103393
103393
103392
103392
103392
103392
103392
103392
103392
103392
103392
103392
103392
103392
103392
103392
103392
103392
103392
103392
103392
103392
103392
103392
103392
103392
103392
103392
103392
103392
103392
103392
103392
103392
103392
103392
103392
103392
103392
103392
103392
103392
103391
103391
103391
103391
103391
103391
103391
103391
103391
103391
103391
103391
103391
103391
103391
103391
103391
103391
103391
103391
103390
103390
103390
103390
103390
103390
103390
103390
103390
103390
103390
103390
103390
103391
103391
103391
103391
103391
103391
103391
103390
103390
103390
103390
103390
103390
103390
103390
103390
103390
103390
103390
103390
103390
103390
103390
103390
103390
103390
103390
103389
103389
103389
103389
103389
103389
103389
103389
103389
103389
103389
103389
103389
103389
103389
103390
103390
103390
103390
103390
103388
103388
103388
103388
103388
103388
103388
103389
103389
103389
103389
103389
103389
103389
103389
103389
103389
103389
103389
103389
103388
103388
103388
103388
103388
103388
103388
103388
103388
103388
103388
103388
103388
103388
103389
103389
103389
103389
103389
103389
103387
103387
103387
103387
103387
103387
103387
103387
103387
103388
103388
103388