/*--------------------------------*- C++ -*----------------------------------*\
| =========                 |                                                 |
| \\      /  F ield         | OpenFOAM: The Open Source CFD Toolbox           |
|  \\    /   O peration     | Version:  2.1.0                                 |
|   \\  /    A nd           | Web:      www.OpenFOAM.org                      |
|    \\/     M anipulation  |                                                 |
\*---------------------------------------------------------------------------*/
FoamFile
{
    version     2.0;
    format      ascii;
    class       surfaceScalarField;
    location    "0.2";
    object      phi;
}
// * * * * * * * * * * * * * * * * * * * * * * * * * * * * * * * * * * * * * //

dimensions      [0 3 -1 0 0 0 0];

internalField   nonuniform List<scalar> 
12460
(
-2.44859e-05
-2.87663e-09
-2.44496e-05
-3.63147e-08
-2.43917e-05
-5.79252e-08
-2.43228e-05
-6.88516e-08
-2.42476e-05
-7.52353e-08
-2.41681e-05
-7.94754e-08
-2.40856e-05
-8.25396e-08
-2.40006e-05
-8.49527e-08
-2.39136e-05
-8.7014e-08
-2.38247e-05
-8.88823e-08
-2.37341e-05
-9.06637e-08
-2.36417e-05
-9.23998e-08
-2.35475e-05
-9.41304e-08
-2.34517e-05
-9.58579e-08
-2.33541e-05
-9.76069e-08
-2.32547e-05
-9.93654e-08
-2.31536e-05
-1.0115e-07
-2.30506e-05
-1.02946e-07
-2.29458e-05
-1.04776e-07
-2.28392e-05
-1.06631e-07
-2.27307e-05
-1.08473e-07
-2.26204e-05
-1.10355e-07
-2.2508e-05
-1.12362e-07
-2.23936e-05
-1.14427e-07
-2.2277e-05
-1.16554e-07
-2.21583e-05
-1.18744e-07
-2.20373e-05
-1.21017e-07
-2.19139e-05
-1.23363e-07
-2.17881e-05
-1.25794e-07
-2.16598e-05
-1.28307e-07
-2.15289e-05
-1.3091e-07
-2.13953e-05
-1.33601e-07
-2.12589e-05
-1.36395e-07
-2.11196e-05
-1.39288e-07
-2.09773e-05
-1.42295e-07
-2.08319e-05
-1.45425e-07
-2.06832e-05
-1.48691e-07
-2.05311e-05
-1.52102e-07
-2.03754e-05
-1.55671e-07
-2.0216e-05
-1.59413e-07
-2.00527e-05
-1.63339e-07
-1.98853e-05
-1.67449e-07
-1.97135e-05
-1.71746e-07
-1.95373e-05
-1.76236e-07
-1.93564e-05
-1.80916e-07
-1.91706e-05
-1.85779e-07
-1.89798e-05
-1.90819e-07
-1.87838e-05
-1.96061e-07
-1.85825e-05
-2.01283e-07
-1.83758e-05
-2.06684e-07
-1.81633e-05
-2.12578e-07
-1.79446e-05
-2.18687e-07
-1.77199e-05
-2.24715e-07
-1.74895e-05
-2.30468e-07
-1.72535e-05
-2.36045e-07
-1.70119e-05
-2.41598e-07
-1.67647e-05
-2.47218e-07
-1.65119e-05
-2.52931e-07
-1.62532e-05
-2.58725e-07
-1.59887e-05
-2.64596e-07
-1.57182e-05
-2.70568e-07
-1.54416e-05
-2.76648e-07
-1.51588e-05
-2.8284e-07
-1.48698e-05
-2.89167e-07
-1.45742e-05
-2.95651e-07
-1.42721e-05
-3.02309e-07
-1.39631e-05
-3.09137e-07
-1.36471e-05
-3.16112e-07
-1.33241e-05
-3.23234e-07
-1.29937e-05
-3.30511e-07
-1.2656e-05
-3.37958e-07
-1.23107e-05
-3.45606e-07
-1.19574e-05
-3.53511e-07
-1.15959e-05
-3.61796e-07
-1.12257e-05
-3.70551e-07
-1.08462e-05
-3.79883e-07
-1.04566e-05
-3.89999e-07
-1.00559e-05
-4.01199e-07
-9.64255e-06
-4.13886e-07
-9.21455e-06
-4.28589e-07
-8.76925e-06
-4.45969e-07
-8.30318e-06
-4.66814e-07
-7.81208e-06
-4.91941e-07
-7.29094e-06
-5.22078e-07
-6.73408e-06
-5.57925e-07
-6.1353e-06
-5.99963e-07
-5.48853e-06
-6.48101e-07
-4.78887e-06
-7.01145e-07
-4.03476e-06
-7.5574e-07
-3.23211e-06
-8.04405e-07
-2.402e-06
-8.31971e-07
-1.59653e-06
-8.0732e-07
-9.16009e-07
-6.822e-07
-4.8379e-07
-4.3342e-07
-3.51998e-07
-1.32252e-07
-5.90627e-07
2.39062e-07
-1.46823e-06
8.76424e-07
-3.70047e-06
2.22183e-06
-9.06457e-06
5.34013e-06
1.4854e-05
-2.39544e-05
-2.95985e-05
-1.967e-08
-2.95499e-05
-8.49289e-08
-2.94876e-05
-1.20204e-07
-2.94171e-05
-1.39317e-07
-2.93414e-05
-1.50928e-07
-2.92622e-05
-1.58706e-07
-2.91804e-05
-1.64337e-07
-2.90966e-05
-1.68775e-07
-2.9011e-05
-1.72569e-07
-2.89239e-05
-1.76012e-07
-2.88353e-05
-1.79299e-07
-2.87451e-05
-1.82508e-07
-2.86536e-05
-1.85717e-07
-2.85605e-05
-1.88928e-07
-2.84659e-05
-1.92189e-07
-2.83698e-05
-1.95476e-07
-2.82721e-05
-1.98816e-07
-2.81729e-05
-2.02184e-07
-2.80721e-05
-2.05595e-07
-2.79696e-05
-2.09067e-07
-2.78656e-05
-2.12465e-07
-2.77601e-05
-2.15867e-07
-2.7653e-05
-2.19488e-07
-2.75443e-05
-2.23167e-07
-2.74339e-05
-2.26922e-07
-2.73219e-05
-2.30771e-07
-2.72082e-05
-2.34744e-07
-2.70927e-05
-2.38831e-07
-2.69754e-05
-2.43045e-07
-2.68564e-05
-2.47385e-07
-2.67354e-05
-2.51861e-07
-2.66126e-05
-2.56473e-07
-2.64877e-05
-2.61248e-07
-2.63608e-05
-2.66185e-07
-2.62318e-05
-2.71296e-07
-2.61007e-05
-2.76596e-07
-2.59673e-05
-2.82098e-07
-2.58316e-05
-2.87818e-07
-2.56935e-05
-2.93766e-07
-2.5553e-05
-2.99963e-07
-2.54099e-05
-3.06438e-07
-2.52641e-05
-3.13202e-07
-2.51157e-05
-3.2027e-07
-2.49643e-05
-3.27657e-07
-2.48099e-05
-3.35371e-07
-2.46523e-05
-3.43408e-07
-2.44914e-05
-3.51783e-07
-2.4327e-05
-3.60527e-07
-2.41589e-05
-3.694e-07
-2.39874e-05
-3.78285e-07
-2.38128e-05
-3.87206e-07
-2.36356e-05
-3.96079e-07
-2.34555e-05
-4.04939e-07
-2.32724e-05
-4.13674e-07
-2.30863e-05
-4.22268e-07
-2.28973e-05
-4.30822e-07
-2.27053e-05
-4.39428e-07
-2.25103e-05
-4.48116e-07
-2.23124e-05
-4.56875e-07
-2.21116e-05
-4.65681e-07
-2.1908e-05
-4.74526e-07
-2.17017e-05
-4.83395e-07
-2.14927e-05
-4.92289e-07
-2.12811e-05
-5.01245e-07
-2.1067e-05
-5.1028e-07
-2.08506e-05
-5.19396e-07
-2.06318e-05
-5.28605e-07
-2.04109e-05
-5.37893e-07
-2.01877e-05
-5.47277e-07
-1.99625e-05
-5.56786e-07
-1.97352e-05
-5.6648e-07
-1.95057e-05
-5.76439e-07
-1.92739e-05
-5.86797e-07
-1.90396e-05
-5.97823e-07
-1.88023e-05
-6.09729e-07
-1.85617e-05
-6.22721e-07
-1.8317e-05
-6.37173e-07
-1.80674e-05
-6.536e-07
-1.78118e-05
-6.72662e-07
-1.75488e-05
-6.95188e-07
-1.72766e-05
-7.22189e-07
-1.69932e-05
-7.54855e-07
-1.66959e-05
-7.94478e-07
-1.63816e-05
-8.4223e-07
-1.6047e-05
-8.99185e-07
-1.56885e-05
-9.66e-07
-1.53028e-05
-1.04234e-06
-1.48874e-05
-1.12606e-06
-1.44422e-05
-1.2117e-06
-1.39708e-05
-1.28781e-06
-1.34834e-05
-1.33269e-06
-1.29979e-05
-1.30778e-06
-1.25421e-05
-1.15474e-06
-1.21898e-05
-8.04666e-07
-1.21379e-05
-2.06084e-07
-1.25924e-05
6.6878e-07
-1.38436e-05
2.09964e-06
-1.63977e-05
4.74308e-06
-2.12668e-05
1.01712e-05
2.54363e-05
-3.18974e-05
-3.25016e-05
-4.35601e-08
-3.24594e-05
-1.27186e-07
-3.24063e-05
-1.73297e-07
-3.23465e-05
-1.99128e-07
-3.22824e-05
-2.14964e-07
-3.22156e-05
-2.25549e-07
-3.21468e-05
-2.33125e-07
-3.20765e-05
-2.39069e-07
-3.2005e-05
-2.44083e-07
-3.19324e-05
-2.48629e-07
-3.18588e-05
-2.52933e-07
-3.17841e-05
-2.57146e-07
-3.17085e-05
-2.61347e-07
-3.16318e-05
-2.65573e-07
-3.15542e-05
-2.69873e-07
-3.14754e-05
-2.74244e-07
-3.13955e-05
-2.78702e-07
-3.13144e-05
-2.8325e-07
-3.12321e-05
-2.87895e-07
-3.11485e-05
-2.92676e-07
-3.10635e-05
-2.97466e-07
-3.09772e-05
-3.02187e-07
-3.08898e-05
-3.06919e-07
-3.08013e-05
-3.11618e-07
-3.07119e-05
-3.16355e-07
-3.06215e-05
-3.21189e-07
-3.05301e-05
-3.26154e-07
-3.04377e-05
-3.31239e-07
-3.03443e-05
-3.3645e-07
-3.02499e-05
-3.41786e-07
-3.01545e-05
-3.47257e-07
-3.00582e-05
-3.52853e-07
-2.99608e-05
-3.58605e-07
-2.98625e-05
-3.64518e-07
-2.97632e-05
-3.70589e-07
-2.9663e-05
-3.76837e-07
-2.95619e-05
-3.83271e-07
-2.94598e-05
-3.89902e-07
-2.93569e-05
-3.96739e-07
-2.92531e-05
-4.0379e-07
-2.91485e-05
-4.11078e-07
-2.90432e-05
-4.18615e-07
-2.89371e-05
-4.26409e-07
-2.88304e-05
-4.34472e-07
-2.8723e-05
-4.42806e-07
-2.86152e-05
-4.514e-07
-2.85068e-05
-4.60253e-07
-2.83982e-05
-4.69305e-07
-2.82893e-05
-4.78482e-07
-2.81801e-05
-4.87689e-07
-2.80709e-05
-4.96672e-07
-2.79618e-05
-5.05384e-07
-2.7853e-05
-5.1405e-07
-2.77444e-05
-5.22703e-07
-2.76358e-05
-5.31237e-07
-2.75275e-05
-5.39632e-07
-2.74195e-05
-5.47937e-07
-2.73121e-05
-5.56152e-07
-2.72054e-05
-5.64229e-07
-2.70998e-05
-5.72121e-07
-2.69955e-05
-5.79776e-07
-2.68928e-05
-5.87138e-07
-2.67921e-05
-5.94172e-07
-2.66938e-05
-6.00898e-07
-2.65983e-05
-6.07312e-07
-2.65061e-05
-6.1336e-07
-2.64177e-05
-6.19024e-07
-2.63336e-05
-6.24274e-07
-2.62544e-05
-6.29102e-07
-2.61806e-05
-6.33521e-07
-2.61128e-05
-6.37601e-07
-2.60516e-05
-6.4144e-07
-2.59976e-05
-6.45199e-07
-2.5951e-05
-6.49298e-07
-2.59122e-05
-6.54089e-07
-2.58814e-05
-6.59844e-07
-2.58586e-05
-6.67101e-07
-2.58437e-05
-6.76585e-07
-2.58363e-05
-6.89223e-07
-2.58357e-05
-7.06145e-07
-2.58408e-05
-7.287e-07
-2.58503e-05
-7.58446e-07
-2.58624e-05
-7.97046e-07
-2.58749e-05
-8.46106e-07
-2.58852e-05
-9.07034e-07
-2.58909e-05
-9.80563e-07
-2.58893e-05
-1.06611e-06
-2.5879e-05
-1.16073e-06
-2.58599e-05
-1.2574e-06
-2.58343e-05
-1.34224e-06
-2.58076e-05
-1.39034e-06
-2.57876e-05
-1.36072e-06
-2.57852e-05
-1.19177e-06
-2.58294e-05
-7.96141e-07
-2.59825e-05
-8.89963e-08
-2.64189e-05
1.06847e-06
-2.73367e-05
2.97908e-06
-2.91161e-05
6.48143e-06
-3.24637e-05
1.34741e-05
2.97939e-05
-3.68819e-05
-3.51546e-05
-6.71445e-08
-3.5124e-05
-1.57764e-07
-3.50871e-05
-2.1026e-07
-3.50454e-05
-2.40847e-07
-3.50006e-05
-2.5976e-07
-3.49539e-05
-2.72244e-07
-3.4906e-05
-2.81004e-07
-3.48573e-05
-2.87731e-07
-3.48081e-05
-2.9327e-07
-3.47586e-05
-2.98208e-07
-3.47087e-05
-3.02803e-07
-3.46586e-05
-3.07261e-07
-3.46083e-05
-3.11665e-07
-3.45578e-05
-3.1607e-07
-3.45071e-05
-3.20527e-07
-3.44563e-05
-3.25048e-07
-3.44054e-05
-3.2963e-07
-3.43543e-05
-3.34298e-07
-3.43032e-05
-3.39042e-07
-3.42521e-05
-3.4382e-07
-3.42009e-05
-3.4865e-07
-3.41495e-05
-3.53525e-07
-3.40981e-05
-3.58325e-07
-3.40467e-05
-3.63032e-07
-3.39954e-05
-3.67708e-07
-3.39441e-05
-3.72446e-07
-3.3893e-05
-3.77289e-07
-3.38421e-05
-3.82212e-07
-3.37913e-05
-3.87212e-07
-3.37408e-05
-3.92283e-07
-3.36907e-05
-3.97427e-07
-3.3641e-05
-4.02628e-07
-3.35917e-05
-4.07901e-07
-3.3543e-05
-4.13247e-07
-3.3495e-05
-4.18673e-07
-3.34477e-05
-4.24179e-07
-3.34013e-05
-4.29765e-07
-3.33558e-05
-4.35436e-07
-3.33114e-05
-4.41198e-07
-3.32683e-05
-4.47038e-07
-3.32265e-05
-4.52965e-07
-3.31863e-05
-4.5897e-07
-3.31478e-05
-4.65043e-07
-3.31113e-05
-4.71179e-07
-3.3077e-05
-4.77361e-07
-3.30451e-05
-4.83562e-07
-3.30159e-05
-4.89756e-07
-3.29897e-05
-4.95836e-07
-3.29668e-05
-5.01779e-07
-3.29472e-05
-5.07806e-07
-3.29306e-05
-5.13838e-07
-3.29169e-05
-5.19646e-07
-3.29064e-05
-5.25261e-07
-3.28993e-05
-5.30662e-07
-3.28958e-05
-5.35753e-07
-3.2896e-05
-5.40473e-07
-3.29004e-05
-5.44856e-07
-3.29091e-05
-5.4889e-07
-3.29225e-05
-5.52461e-07
-3.2941e-05
-5.55505e-07
-3.29649e-05
-5.5797e-07
-3.29947e-05
-5.5978e-07
-3.30308e-05
-5.60876e-07
-3.30736e-05
-5.61282e-07
-3.31235e-05
-5.61023e-07
-3.31808e-05
-5.60057e-07
-3.32461e-05
-5.58362e-07
-3.33197e-05
-5.55922e-07
-3.34019e-05
-5.52768e-07
-3.34931e-05
-5.48957e-07
-3.35936e-05
-5.44603e-07
-3.37034e-05
-5.39972e-07
-3.38227e-05
-5.3522e-07
-3.39514e-05
-5.3104e-07
-3.40891e-05
-5.28057e-07
-3.42352e-05
-5.26605e-07
-3.43891e-05
-5.27433e-07
-3.455e-05
-5.31474e-07
-3.47165e-05
-5.3988e-07
-3.48875e-05
-5.53981e-07
-3.50614e-05
-5.75334e-07
-3.52363e-05
-6.05691e-07
-3.54105e-05
-6.46822e-07
-3.55821e-05
-7.00291e-07
-3.57492e-05
-7.67421e-07
-3.59104e-05
-8.48681e-07
-3.60645e-05
-9.4299e-07
-3.62114e-05
-1.04663e-06
-3.63516e-05
-1.15159e-06
-3.64868e-05
-1.24295e-06
-3.66191e-05
-1.29544e-06
-3.67494e-05
-1.26898e-06
-3.68751e-05
-1.1056e-06
-3.69988e-05
-7.12422e-07
-3.71116e-05
-1.65233e-08
-3.73665e-05
1.28241e-06
-3.78475e-05
3.41722e-06
-3.87379e-05
7.32602e-06
-4.02219e-05
1.49074e-05
2.97147e-05
-4.02123e-05
-3.78806e-05
-8.36723e-08
-3.78671e-05
-1.71256e-07
-3.78532e-05
-2.24208e-07
-3.78379e-05
-2.56167e-07
-3.78216e-05
-2.76086e-07
-3.78049e-05
-2.88939e-07
-3.77881e-05
-2.97724e-07
-3.77717e-05
-3.04167e-07
-3.77557e-05
-3.09278e-07
-3.77403e-05
-3.13632e-07
-3.77255e-05
-3.17569e-07
-3.77115e-05
-3.21269e-07
-3.76983e-05
-3.24854e-07
-3.7686e-05
-3.28357e-07
-3.76747e-05
-3.31835e-07
-3.76645e-05
-3.35289e-07
-3.76554e-05
-3.38727e-07
-3.76476e-05
-3.42141e-07
-3.76411e-05
-3.4552e-07
-3.76361e-05
-3.48795e-07
-3.76328e-05
-3.5201e-07
-3.7631e-05
-3.55332e-07
-3.76306e-05
-3.58739e-07
-3.76315e-05
-3.62065e-07
-3.7634e-05
-3.65273e-07
-3.7638e-05
-3.68475e-07
-3.76436e-05
-3.71736e-07
-3.76508e-05
-3.75003e-07
-3.76598e-05
-3.78262e-07
-3.76706e-05
-3.81498e-07
-3.76834e-05
-3.84707e-07
-3.76982e-05
-3.87879e-07
-3.77152e-05
-3.91019e-07
-3.77344e-05
-3.94116e-07
-3.7756e-05
-3.97188e-07
-3.778e-05
-4.00227e-07
-3.78067e-05
-4.03228e-07
-3.78361e-05
-4.06192e-07
-3.78684e-05
-4.09128e-07
-3.79036e-05
-4.12014e-07
-3.7942e-05
-4.1486e-07
-3.79836e-05
-4.17662e-07
-3.80286e-05
-4.20409e-07
-3.8077e-05
-4.23099e-07
-3.81291e-05
-4.25725e-07
-3.8185e-05
-4.28268e-07
-3.82447e-05
-4.30711e-07
-3.83082e-05
-4.32994e-07
-3.83757e-05
-4.35126e-07
-3.84473e-05
-4.37216e-07
-3.8523e-05
-4.39202e-07
-3.8603e-05
-4.40942e-07
-3.86873e-05
-4.42414e-07
-3.8776e-05
-4.43597e-07
-3.88693e-05
-4.44407e-07
-3.89672e-05
-4.44741e-07
-3.90698e-05
-4.44707e-07
-3.91772e-05
-4.44342e-07
-3.92893e-05
-4.4351e-07
-3.94062e-05
-4.42169e-07
-3.9528e-05
-4.40277e-07
-3.96545e-05
-4.37771e-07
-3.9786e-05
-4.34576e-07
-3.99222e-05
-4.30749e-07
-4.00633e-05
-4.26379e-07
-4.02091e-05
-4.2143e-07
-4.03595e-05
-4.15874e-07
-4.05145e-05
-4.09691e-07
-4.06741e-05
-4.02925e-07
-4.08381e-05
-3.95642e-07
-4.10065e-05
-3.8793e-07
-4.11792e-05
-3.80047e-07
-4.13562e-05
-3.72229e-07
-4.15375e-05
-3.64939e-07
-4.17233e-05
-3.58747e-07
-4.19133e-05
-3.54347e-07
-4.21072e-05
-3.52658e-07
-4.23045e-05
-3.54732e-07
-4.25045e-05
-3.61815e-07
-4.27065e-05
-3.75311e-07
-4.29099e-05
-3.96818e-07
-4.31136e-05
-4.28192e-07
-4.33169e-05
-4.71264e-07
-4.35188e-05
-5.27516e-07
-4.37187e-05
-5.98219e-07
-4.39157e-05
-6.83712e-07
-4.41094e-05
-7.82651e-07
-4.42998e-05
-8.91097e-07
-4.44866e-05
-1.00092e-06
-4.46694e-05
-1.09751e-06
-4.48465e-05
-1.15702e-06
-4.50123e-05
-1.14285e-06
-4.51556e-05
-1.00293e-06
-4.52521e-05
-6.57299e-07
-4.52987e-05
-1.19371e-08
-4.53249e-05
1.26541e-06
-4.53564e-05
3.40329e-06
-4.53912e-05
7.31173e-06
-4.51163e-05
1.45767e-05
2.68275e-05
-4.23005e-05
-4.0832e-05
-8.74262e-08
-4.08408e-05
-1.6241e-07
-4.08559e-05
-2.09085e-07
-4.08742e-05
-2.37875e-07
-4.08946e-05
-2.55747e-07
-4.09166e-05
-2.66899e-07
-4.09402e-05
-2.74138e-07
-4.09653e-05
-2.79038e-07
-4.0992e-05
-2.82608e-07
-4.10203e-05
-2.85371e-07
-4.10502e-05
-2.87686e-07
-4.10817e-05
-2.89709e-07
-4.1115e-05
-2.91566e-07
-4.11501e-05
-2.93294e-07
-4.1187e-05
-2.94939e-07
-4.12258e-05
-2.96492e-07
-4.12665e-05
-2.97979e-07
-4.13093e-05
-2.99385e-07
-4.13541e-05
-3.00696e-07
-4.14011e-05
-3.01883e-07
-4.14501e-05
-3.03004e-07
-4.15013e-05
-3.04113e-07
-4.15549e-05
-3.0524e-07
-4.16107e-05
-3.06275e-07
-4.16689e-05
-3.07056e-07
-4.17297e-05
-3.07772e-07
-4.17929e-05
-3.08536e-07
-4.18587e-05
-3.09252e-07
-4.19271e-05
-3.09923e-07
-4.19982e-05
-3.10534e-07
-4.20719e-05
-3.11086e-07
-4.21483e-05
-3.1158e-07
-4.22274e-05
-3.1203e-07
-4.23093e-05
-3.12427e-07
-4.23938e-05
-3.12793e-07
-4.24811e-05
-3.13137e-07
-4.25712e-05
-3.13463e-07
-4.26639e-05
-3.13774e-07
-4.27592e-05
-3.14089e-07
-4.28572e-05
-3.14401e-07
-4.29578e-05
-3.14724e-07
-4.3061e-05
-3.15062e-07
-4.31666e-05
-3.15415e-07
-4.32746e-05
-3.15787e-07
-4.33849e-05
-3.16178e-07
-4.34975e-05
-3.16572e-07
-4.36124e-05
-3.16954e-07
-4.37293e-05
-3.17292e-07
-4.38482e-05
-3.17602e-07
-4.3969e-05
-3.17918e-07
-4.40918e-05
-3.18195e-07
-4.42165e-05
-3.1834e-07
-4.43428e-05
-3.18327e-07
-4.44709e-05
-3.18123e-07
-4.46005e-05
-3.17663e-07
-4.47318e-05
-3.16769e-07
-4.48648e-05
-3.1538e-07
-4.49997e-05
-3.13538e-07
-4.51365e-05
-3.11234e-07
-4.52753e-05
-3.08458e-07
-4.5416e-05
-3.05167e-07
-4.55587e-05
-3.01287e-07
-4.57034e-05
-2.96676e-07
-4.58503e-05
-2.91369e-07
-4.59994e-05
-2.85562e-07
-4.61507e-05
-2.79168e-07
-4.63043e-05
-2.72124e-07
-4.64603e-05
-2.64381e-07
-4.66188e-05
-2.55984e-07
-4.678e-05
-2.47004e-07
-4.6944e-05
-2.37513e-07
-4.7111e-05
-2.27594e-07
-4.72811e-05
-2.1777e-07
-4.74539e-05
-2.08843e-07
-4.76293e-05
-2.01109e-07
-4.78074e-05
-1.95221e-07
-4.7988e-05
-1.92149e-07
-4.81711e-05
-1.9301e-07
-4.83563e-05
-1.99107e-07
-4.85434e-05
-2.11907e-07
-4.87322e-05
-2.32967e-07
-4.89223e-05
-2.64209e-07
-4.91135e-05
-3.07535e-07
-4.93054e-05
-3.64223e-07
-4.94981e-05
-4.35515e-07
-4.96913e-05
-5.21791e-07
-4.98848e-05
-6.21639e-07
-5.00784e-05
-7.31278e-07
-5.02713e-05
-8.43045e-07
-5.04615e-05
-9.43614e-07
-5.06442e-05
-1.01189e-06
-5.08093e-05
-1.01652e-06
-5.09391e-05
-9.13047e-07
-5.09945e-05
-6.42981e-07
-5.09692e-05
-7.92591e-08
-5.0785e-05
1.03766e-06
-5.04112e-05
2.98341e-06
-4.9674e-05
6.52443e-06
-4.79745e-05
1.282e-05
2.22452e-05
-4.34583e-05
-4.39578e-05
-7.68599e-08
-4.39903e-05
-1.29922e-07
-4.40345e-05
-1.64937e-07
-4.40854e-05
-1.86947e-07
-4.41408e-05
-2.00328e-07
-4.41995e-05
-2.08199e-07
-4.42609e-05
-2.12785e-07
-4.43245e-05
-2.1539e-07
-4.43903e-05
-2.16852e-07
-4.4458e-05
-2.17623e-07
-4.45277e-05
-2.1801e-07
-4.45993e-05
-2.1815e-07
-4.46727e-05
-2.18152e-07
-4.4748e-05
-2.18052e-07
-4.4825e-05
-2.17896e-07
-4.49038e-05
-2.17664e-07
-4.49844e-05
-2.17388e-07
-4.50668e-05
-2.17055e-07
-4.51508e-05
-2.16665e-07
-4.52365e-05
-2.16198e-07
-4.53239e-05
-2.15715e-07
-4.54128e-05
-2.15221e-07
-4.55033e-05
-2.14755e-07
-4.55954e-05
-2.14247e-07
-4.5689e-05
-2.13509e-07
-4.57843e-05
-2.12527e-07
-4.58815e-05
-2.11433e-07
-4.59806e-05
-2.10261e-07
-4.60815e-05
-2.09086e-07
-4.61842e-05
-2.07901e-07
-4.62888e-05
-2.06718e-07
-4.6395e-05
-2.05526e-07
-4.65028e-05
-2.04362e-07
-4.66123e-05
-2.03219e-07
-4.67232e-05
-2.02134e-07
-4.68355e-05
-2.01111e-07
-4.69492e-05
-2.00176e-07
-4.7064e-05
-1.99328e-07
-4.718e-05
-1.9858e-07
-4.7297e-05
-1.97934e-07
-4.74149e-05
-1.97403e-07
-4.75337e-05
-1.96987e-07
-4.76532e-05
-1.96684e-07
-4.77734e-05
-1.9649e-07
-4.78942e-05
-1.96404e-07
-4.80155e-05
-1.96401e-07
-4.81373e-05
-1.96465e-07
-4.82596e-05
-1.96564e-07
-4.83821e-05
-1.96712e-07
-4.8505e-05
-1.96892e-07
-4.86282e-05
-1.97074e-07
-4.87517e-05
-1.97159e-07
-4.88756e-05
-1.97122e-07
-4.89997e-05
-1.96877e-07
-4.91242e-05
-1.96345e-07
-4.92491e-05
-1.95508e-07
-4.93741e-05
-1.94302e-07
-4.94993e-05
-1.92625e-07
-4.96249e-05
-1.90432e-07
-4.97508e-05
-1.87712e-07
-4.98773e-05
-1.84417e-07
-5.00043e-05
-1.80483e-07
-5.01321e-05
-1.75692e-07
-5.02609e-05
-1.69966e-07
-5.03907e-05
-1.63788e-07
-5.05215e-05
-1.56973e-07
-5.06536e-05
-1.49403e-07
-5.0787e-05
-1.41035e-07
-5.09219e-05
-1.3191e-07
-5.10584e-05
-1.22098e-07
-5.11967e-05
-1.11693e-07
-5.13369e-05
-1.00648e-07
-5.14793e-05
-8.94918e-08
-5.16236e-05
-7.96154e-08
-5.17698e-05
-7.09737e-08
-5.19179e-05
-6.40821e-08
-5.20682e-05
-5.98459e-08
-5.22208e-05
-5.93785e-08
-5.2376e-05
-6.39844e-08
-5.25338e-05
-7.52008e-08
-5.26946e-05
-9.44242e-08
-5.28586e-05
-1.23586e-07
-5.30257e-05
-1.64871e-07
-5.31965e-05
-2.19141e-07
-5.33712e-05
-2.87703e-07
-5.35498e-05
-3.71278e-07
-5.37322e-05
-4.68481e-07
-5.3918e-05
-5.76066e-07
-5.41055e-05
-6.87384e-07
-5.42912e-05
-7.91117e-07
-5.44677e-05
-8.69818e-07
-5.46215e-05
-8.98546e-07
-5.47298e-05
-8.41991e-07
-5.47511e-05
-6.60302e-07
-5.46397e-05
-2.30709e-07
-5.4287e-05
6.43316e-07
-5.35706e-05
2.2231e-06
-5.21867e-05
5.09263e-06
-4.94325e-05
1.0012e-05
1.67075e-05
-4.39503e-05
-4.69288e-05
-5.4435e-08
-4.69757e-05
-8.30363e-08
-4.70362e-05
-1.04391e-07
-4.71052e-05
-1.1793e-07
-4.71798e-05
-1.25772e-07
-4.72581e-05
-1.29898e-07
-4.73391e-05
-1.31749e-07
-4.74223e-05
-1.32253e-07
-4.75072e-05
-1.31962e-07
-4.75936e-05
-1.3122e-07
-4.76814e-05
-1.30228e-07
-4.77704e-05
-1.29094e-07
-4.78607e-05
-1.27889e-07
-4.79521e-05
-1.26637e-07
-4.80447e-05
-1.25374e-07
-4.81383e-05
-1.24079e-07
-4.82329e-05
-1.22786e-07
-4.83285e-05
-1.21465e-07
-4.8425e-05
-1.20144e-07
-4.85225e-05
-1.18792e-07
-4.86208e-05
-1.17462e-07
-4.87199e-05
-1.16141e-07
-4.88199e-05
-1.14825e-07
-4.89208e-05
-1.13404e-07
-4.90223e-05
-1.11996e-07
-4.91244e-05
-1.10559e-07
-4.92268e-05
-1.09088e-07
-4.93296e-05
-1.07583e-07
-4.94326e-05
-1.06164e-07
-4.95359e-05
-1.04802e-07
-4.96392e-05
-1.03527e-07
-4.97426e-05
-1.02289e-07
-4.98461e-05
-1.01151e-07
-4.99494e-05
-1.0009e-07
-5.00527e-05
-9.91542e-08
-5.01558e-05
-9.83335e-08
-5.02586e-05
-9.76618e-08
-5.03612e-05
-9.71286e-08
-5.04635e-05
-9.67307e-08
-5.05655e-05
-9.64706e-08
-5.06672e-05
-9.63526e-08
-5.07684e-05
-9.63729e-08
-5.08693e-05
-9.65207e-08
-5.09699e-05
-9.6784e-08
-5.107e-05
-9.71544e-08
-5.11699e-05
-9.76043e-08
-5.12694e-05
-9.81111e-08
-5.13686e-05
-9.86452e-08
-5.14675e-05
-9.92016e-08
-5.15662e-05
-9.97522e-08
-5.16648e-05
-1.00263e-07
-5.17632e-05
-1.00646e-07
-5.18616e-05
-1.00858e-07
-5.19599e-05
-1.00811e-07
-5.20584e-05
-1.00431e-07
-5.21569e-05
-9.97591e-08
-5.22555e-05
-9.87597e-08
-5.23542e-05
-9.7277e-08
-5.24531e-05
-9.52071e-08
-5.25522e-05
-9.25076e-08
-5.26518e-05
-8.91245e-08
-5.2752e-05
-8.50065e-08
-5.28527e-05
-7.99576e-08
-5.29547e-05
-7.34297e-08
-5.30578e-05
-6.66331e-08
-5.3162e-05
-5.91212e-08
-5.32676e-05
-5.06647e-08
-5.33748e-05
-4.12461e-08
-5.34838e-05
-3.09121e-08
-5.35946e-05
-1.9749e-08
-5.37074e-05
-8.03669e-09
-5.38225e-05
4.66911e-09
-5.39406e-05
1.8174e-08
-5.40611e-05
2.97244e-08
-5.41844e-05
4.03807e-08
-5.43107e-05
4.95148e-08
-5.44403e-05
5.62229e-08
-5.45734e-05
5.94169e-08
-5.47105e-05
5.78301e-08
-5.48519e-05
5.00114e-08
-5.49977e-05
3.43488e-08
-5.51486e-05
9.28684e-09
-5.5305e-05
-2.75003e-08
-5.54673e-05
-7.6811e-08
-5.56358e-05
-1.40311e-07
-5.581e-05
-2.19194e-07
-5.59899e-05
-3.11875e-07
-5.61745e-05
-4.16045e-07
-5.63612e-05
-5.26496e-07
-5.65451e-05
-6.34335e-07
-5.67171e-05
-7.26298e-07
-5.68614e-05
-7.84293e-07
-5.69509e-05
-7.84192e-07
-5.69479e-05
-6.9669e-07
-5.67706e-05
-4.43377e-07
-5.62871e-05
1.22947e-07
-5.53084e-05
1.20584e-06
-5.34341e-05
3.17699e-06
-4.99566e-05
6.48958e-06
1.06944e-05
-4.39845e-05
-4.93508e-05
-2.19978e-08
-4.94034e-05
-3.04965e-08
-4.94687e-05
-3.90442e-08
-4.95424e-05
-4.4283e-08
-4.96212e-05
-4.69759e-08
-4.97031e-05
-4.7995e-08
-4.97868e-05
-4.79902e-08
-4.98717e-05
-4.74106e-08
-4.99571e-05
-4.64989e-08
-5.00429e-05
-4.5435e-08
-5.01289e-05
-4.4298e-08
-5.02148e-05
-4.31489e-08
-5.03007e-05
-4.20067e-08
-5.03865e-05
-4.0889e-08
-5.0472e-05
-3.98005e-08
-5.05574e-05
-3.87346e-08
-5.06425e-05
-3.76993e-08
-5.07273e-05
-3.66804e-08
-5.08118e-05
-3.56894e-08
-5.08959e-05
-3.47174e-08
-5.09796e-05
-3.37847e-08
-5.10629e-05
-3.28847e-08
-5.11458e-05
-3.19975e-08
-5.12282e-05
-3.10475e-08
-5.131e-05
-3.02192e-08
-5.13911e-05
-2.95283e-08
-5.14713e-05
-2.89278e-08
-5.15506e-05
-2.8349e-08
-5.1629e-05
-2.78659e-08
-5.17065e-05
-2.74487e-08
-5.1783e-05
-2.71083e-08
-5.18587e-05
-2.67654e-08
-5.19335e-05
-2.64822e-08
-5.20076e-05
-2.62487e-08
-5.20808e-05
-2.6113e-08
-5.21533e-05
-2.60476e-08
-5.22252e-05
-2.60935e-08
-5.22963e-05
-2.62276e-08
-5.2367e-05
-2.64387e-08
-5.24371e-05
-2.6734e-08
-5.25067e-05
-2.71077e-08
-5.2576e-05
-2.7557e-08
-5.26449e-05
-2.80657e-08
-5.27137e-05
-2.86213e-08
-5.27822e-05
-2.92093e-08
-5.28507e-05
-2.98048e-08
-5.29192e-05
-3.0379e-08
-5.29878e-05
-3.09196e-08
-5.30565e-05
-3.13915e-08
-5.31255e-05
-3.17719e-08
-5.31948e-05
-3.20099e-08
-5.32646e-05
-3.20573e-08
-5.3335e-05
-3.18507e-08
-5.34059e-05
-3.13106e-08
-5.34776e-05
-3.03868e-08
-5.355e-05
-2.90682e-08
-5.36233e-05
-2.72853e-08
-5.36978e-05
-2.49066e-08
-5.37734e-05
-2.18472e-08
-5.38502e-05
-1.80518e-08
-5.39285e-05
-1.34887e-08
-5.40083e-05
-8.06354e-09
-5.40892e-05
-2.09271e-09
-5.41727e-05
6.78732e-09
-5.42581e-05
1.517e-08
-5.43453e-05
2.4329e-08
-5.44348e-05
3.46436e-08
-5.45265e-05
4.60851e-08
-5.46208e-05
5.861e-08
-5.47177e-05
7.20683e-08
-5.48176e-05
8.63549e-08
-5.49205e-05
1.0173e-07
-5.50262e-05
1.17664e-07
-5.51359e-05
1.32749e-07
-5.52497e-05
1.47039e-07
-5.53677e-05
1.59959e-07
-5.54902e-05
1.70648e-07
-5.56174e-05
1.78043e-07
-5.57495e-05
1.80888e-07
-5.5887e-05
1.77769e-07
-5.60297e-05
1.66861e-07
-5.61778e-05
1.46572e-07
-5.63323e-05
1.15468e-07
-5.64932e-05
7.19414e-08
-5.66608e-05
1.46711e-08
-5.68359e-05
-5.7478e-08
-5.70179e-05
-1.43847e-07
-5.72051e-05
-2.43718e-07
-5.73941e-05
-3.53105e-07
-5.75793e-05
-4.65795e-07
-5.77502e-05
-5.72978e-07
-5.78899e-05
-6.6359e-07
-5.79695e-05
-7.24932e-07
-5.79492e-05
-7.39062e-07
-5.77434e-05
-6.7332e-07
-5.71926e-05
-4.54707e-07
-5.60423e-05
2.74691e-08
-5.38576e-05
9.63868e-07
-4.99405e-05
2.54367e-06
4.49258e-06
-4.3761e-05
-5.07786e-05
1.70713e-08
-5.0829e-05
1.98987e-08
-5.08906e-05
2.25425e-08
-5.09593e-05
2.44218e-08
-5.10319e-05
2.56853e-08
-5.11065e-05
2.65522e-08
-5.11816e-05
2.71157e-08
-5.12565e-05
2.74791e-08
-5.13307e-05
2.76936e-08
-5.14039e-05
2.77867e-08
-5.1476e-05
2.77902e-08
-5.15469e-05
2.77201e-08
-5.16165e-05
2.76036e-08
-5.16848e-05
2.74457e-08
-5.17519e-05
2.72719e-08
-5.18177e-05
2.70818e-08
-5.18824e-05
2.69001e-08
-5.19458e-05
2.67196e-08
-5.2008e-05
2.65618e-08
-5.20692e-05
2.64059e-08
-5.21293e-05
2.62709e-08
-5.21883e-05
2.61386e-08
-5.22464e-05
2.60525e-08
-5.23035e-05
2.60036e-08
-5.23596e-05
2.59324e-08
-5.2415e-05
2.58051e-08
-5.24697e-05
2.56704e-08
-5.25236e-05
2.55369e-08
-5.25769e-05
2.5391e-08
-5.26296e-05
2.51952e-08
-5.26818e-05
2.49994e-08
-5.27335e-05
2.48776e-08
-5.27849e-05
2.4821e-08
-5.28361e-05
2.47612e-08
-5.2887e-05
2.46662e-08
-5.29377e-05
2.45488e-08
-5.29883e-05
2.43938e-08
-5.30389e-05
2.4218e-08
-5.30896e-05
2.40282e-08
-5.31404e-05
2.38218e-08
-5.31913e-05
2.36031e-08
-5.32425e-05
2.33781e-08
-5.3294e-05
2.31592e-08
-5.33459e-05
2.29628e-08
-5.33983e-05
2.28009e-08
-5.34511e-05
2.2699e-08
-5.35046e-05
2.26849e-08
-5.35588e-05
2.27699e-08
-5.36137e-05
2.29953e-08
-5.36694e-05
2.33864e-08
-5.3726e-05
2.39929e-08
-5.37836e-05
2.48541e-08
-5.38422e-05
2.60433e-08
-5.39019e-05
2.76196e-08
-5.39628e-05
2.96359e-08
-5.40249e-05
3.2128e-08
-5.40884e-05
3.51814e-08
-5.41533e-05
3.89382e-08
-5.42198e-05
4.34628e-08
-5.4288e-05
4.88066e-08
-5.43579e-05
5.50273e-08
-5.44295e-05
6.20759e-08
-5.45035e-05
7.03243e-08
-5.45788e-05
8.03666e-08
-5.46564e-05
9.09334e-08
-5.47365e-05
1.0244e-07
-5.48192e-05
1.15158e-07
-5.49044e-05
1.2913e-07
-5.49926e-05
1.44332e-07
-5.50837e-05
1.60673e-07
-5.51782e-05
1.78106e-07
-5.52759e-05
1.96619e-07
-5.5377e-05
2.15701e-07
-5.5482e-05
2.34554e-07
-5.55911e-05
2.52885e-07
-5.57048e-05
2.70094e-07
-5.58232e-05
2.85336e-07
-5.59465e-05
2.97585e-07
-5.60753e-05
3.0563e-07
-5.62097e-05
3.08044e-07
-5.63504e-05
3.03167e-07
-5.64976e-05
2.89365e-07
-5.66519e-05
2.65102e-07
-5.68129e-05
2.28152e-07
-5.69806e-05
1.77383e-07
-5.71553e-05
1.12101e-07
-5.73356e-05
3.14354e-08
-5.75211e-05
-6.33832e-08
-5.77083e-05
-1.71001e-07
-5.78903e-05
-2.88909e-07
-5.80564e-05
-4.11958e-07
-5.81887e-05
-5.36417e-07
-5.82592e-05
-6.59712e-07
-5.82216e-05
-7.81931e-07
-5.7997e-05
-9.03671e-07
-5.74228e-05
-1.03531e-06
-5.62202e-05
-1.18291e-06
-5.39109e-05
-1.35399e-06
-4.98049e-05
-1.56931e-06
-1.7601e-06
-4.35543e-05
-5.05508e-05
5.5031e-08
-5.06016e-05
7.07034e-08
-5.0664e-05
8.48976e-08
-5.07337e-05
9.40968e-08
-5.08075e-05
9.95712e-08
-5.08836e-05
1.02579e-07
-5.09604e-05
1.0398e-07
-5.10374e-05
1.04397e-07
-5.11138e-05
1.04173e-07
-5.11896e-05
1.03545e-07
-5.12645e-05
1.02646e-07
-5.13383e-05
1.01578e-07
-5.14111e-05
1.00399e-07
-5.14828e-05
9.91521e-08
-5.15534e-05
9.78731e-08
-5.16229e-05
9.65765e-08
-5.16913e-05
9.52952e-08
-5.17586e-05
9.40276e-08
-5.18249e-05
9.28019e-08
-5.18901e-05
9.15967e-08
-5.19543e-05
9.04424e-08
-5.20175e-05
8.93123e-08
-5.20797e-05
8.82649e-08
-5.21409e-05
8.72467e-08
-5.22013e-05
8.62847e-08
-5.22608e-05
8.53148e-08
-5.23196e-05
8.4405e-08
-5.23776e-05
8.35069e-08
-5.24349e-05
8.26695e-08
-5.24915e-05
8.1754e-08
-5.25474e-05
8.08851e-08
-5.26028e-05
8.01712e-08
-5.26576e-05
7.96474e-08
-5.27121e-05
7.91441e-08
-5.27661e-05
7.86762e-08
-5.28199e-05
7.82191e-08
-5.28734e-05
7.78263e-08
-5.29267e-05
7.74788e-08
-5.298e-05
7.71699e-08
-5.30332e-05
7.69166e-08
-5.30864e-05
7.67254e-08
-5.31397e-05
7.66021e-08
-5.31933e-05
7.65547e-08
-5.32471e-05
7.6602e-08
-5.33012e-05
7.67542e-08
-5.33557e-05
7.70371e-08
-5.34107e-05
7.74764e-08
-5.34662e-05
7.80916e-08
-5.35224e-05
7.89152e-08
-5.35792e-05
7.99817e-08
-5.36369e-05
8.13306e-08
-5.36953e-05
8.30091e-08
-5.37547e-05
8.50844e-08
-5.38151e-05
8.76139e-08
-5.38765e-05
9.0654e-08
-5.3939e-05
9.42317e-08
-5.40027e-05
9.8462e-08
-5.40678e-05
1.03517e-07
-5.41343e-05
1.09452e-07
-5.42024e-05
1.1629e-07
-5.4272e-05
1.24072e-07
-5.43435e-05
1.32871e-07
-5.44168e-05
1.42999e-07
-5.44918e-05
1.54581e-07
-5.45688e-05
1.67141e-07
-5.4648e-05
1.80853e-07
-5.47296e-05
1.9589e-07
-5.48137e-05
2.12317e-07
-5.49004e-05
2.3013e-07
-5.499e-05
2.49291e-07
-5.50827e-05
2.69748e-07
-5.51785e-05
2.91368e-07
-5.52775e-05
3.13723e-07
-5.53804e-05
3.36287e-07
-5.54873e-05
3.58681e-07
-5.55986e-05
3.80277e-07
-5.57146e-05
4.00233e-07
-5.58358e-05
4.17563e-07
-5.59623e-05
4.31105e-07
-5.60949e-05
4.39478e-07
-5.62339e-05
4.411e-07
-5.63798e-05
4.34338e-07
-5.65331e-05
4.17434e-07
-5.66942e-05
3.88401e-07
-5.68634e-05
3.45784e-07
-5.70396e-05
2.87581e-07
-5.72216e-05
2.1284e-07
-5.74068e-05
1.21437e-07
-5.75915e-05
1.35195e-08
-5.77707e-05
-1.09585e-07
-5.79338e-05
-2.4844e-07
-5.80629e-05
-4.06446e-07
-5.81304e-05
-5.90941e-07
-5.80912e-05
-8.19442e-07
-5.78622e-05
-1.13039e-06
-5.72959e-05
-1.59861e-06
-5.61193e-05
-2.35578e-06
-5.38477e-05
-3.62102e-06
-4.9797e-05
-5.61441e-06
-7.94865e-06
-4.3602e-05
-4.88261e-05
8.35472e-08
-4.88761e-05
1.20697e-07
-4.89386e-05
1.47415e-07
-4.90093e-05
1.64868e-07
-4.90854e-05
1.75619e-07
-4.91647e-05
1.81935e-07
-4.92463e-05
1.85502e-07
-4.93292e-05
1.87337e-07
-4.94131e-05
1.88099e-07
-4.94978e-05
1.88181e-07
-4.9583e-05
1.87828e-07
-4.96686e-05
1.87191e-07
-4.97545e-05
1.86367e-07
-4.98408e-05
1.85414e-07
-4.99273e-05
1.84378e-07
-5.0014e-05
1.83282e-07
-5.01009e-05
1.82154e-07
-5.01879e-05
1.81005e-07
-5.02749e-05
1.7985e-07
-5.0362e-05
1.78681e-07
-5.04491e-05
1.77512e-07
-5.05361e-05
1.76332e-07
-5.0623e-05
1.75174e-07
-5.07098e-05
1.73997e-07
-5.07963e-05
1.72847e-07
-5.08827e-05
1.71675e-07
-5.09688e-05
1.70529e-07
-5.10547e-05
1.69358e-07
-5.11403e-05
1.68209e-07
-5.12255e-05
1.6696e-07
-5.13103e-05
1.65693e-07
-5.13946e-05
1.64425e-07
-5.14781e-05
1.63165e-07
-5.15608e-05
1.6182e-07
-5.16426e-05
1.60488e-07
-5.17236e-05
1.59172e-07
-5.18038e-05
1.57949e-07
-5.18831e-05
1.56784e-07
-5.19617e-05
1.55693e-07
-5.20395e-05
1.54698e-07
-5.21166e-05
1.53814e-07
-5.21931e-05