/*--------------------------------*- C++ -*----------------------------------*\
| =========                 |                                                 |
| \\      /  F ield         | OpenFOAM: The Open Source CFD Toolbox           |
|  \\    /   O peration     | Version:  2.1.0                                 |
|   \\  /    A nd           | Web:      www.OpenFOAM.org                      |
|    \\/     M anipulation  |                                                 |
\*---------------------------------------------------------------------------*/
FoamFile
{
    version     2.0;
    format      ascii;
    class       volScalarField;
    location    "0.2";
    object      rho;
}
// * * * * * * * * * * * * * * * * * * * * * * * * * * * * * * * * * * * * * //

dimensions      [1 -3 0 0 0 0 0];

internalField   nonuniform List<scalar> 
6400
(
1000
1000
1000
1000
1000
1000
1000
1000
1000
1000
1000
1000
1000
1000
1000
1000
1000
1000
1000
1000
1000
1000
1000
1000
1000
1000
1000
1000
1000
1000
1000
1000
1000
1000
1000
999.999
999.999
999.999
999.999
999.999
999.999
999.998
999.998
999.998
999.997
999.997
999.996
999.996
999.995
999.994
999.993
999.992
999.991
999.989
999.988
999.986
999.983
999.981
999.978
999.975
999.971
999.967
999.962
999.957
999.95
999.943
999.935
999.926
999.916
999.905
999.892
999.877
999.86
999.842
999.82
999.796
999.769
999.739
999.704
999.664
999.618
999.566
999.507
999.439
999.361
999.273
999.174
999.063
998.942
998.816
998.695
998.604
998.595
998.758
999.14
999.055
996.511
989.971
983.111
979.133
1000
1000
1000
1000
1000
1000
1000
1000
1000
1000
1000
1000
1000
1000
1000
1000
1000
1000
1000
1000
1000
1000
1000
1000
1000
1000
1000
999.999
999.999
999.999
999.999
999.999
999.999
999.998
999.998
999.998
999.997
999.997
999.996
999.996
999.995
999.994
999.993
999.992
999.991
999.989
999.987
999.985
999.982
999.979
999.976
999.972
999.968
999.963
999.957
999.95
999.943
999.934
999.924
999.913
999.899
999.885
999.868
999.848
999.826
999.801
999.773
999.74
999.703
999.661
999.613
999.559
999.497
999.426
999.346
999.255
999.151
999.033
998.899
998.746
998.572
998.373
998.148
997.893
997.604
997.278
996.911
996.499
996.038
995.522
994.94
994.267
993.456
992.413
990.986
989.017
986.542
983.549
980.451
977.935
1000
1000
1000
1000
1000
1000
1000
1000
1000
1000
1000
1000
1000
1000
1000
1000
1000
1000
1000
1000
1000
1000
1000
999.999
999.999
999.999
999.999
999.999
999.999
999.998
999.998
999.998
999.997
999.997
999.996
999.995
999.994
999.993
999.992
999.991
999.989
999.987
999.985
999.982
999.979
999.976
999.972
999.967
999.961
999.955
999.948
999.939
999.93
999.919
999.906
999.891
999.874
999.855
999.833
999.807
999.778
999.745
999.707
999.664
999.615
999.559
999.495
999.422
999.34
999.245
999.138
999.016
998.877
998.719
998.54
998.337
998.106
997.845
997.55
997.216
996.841
996.42
995.949
995.425
994.845
994.206
993.506
992.744
991.919
991.031
990.077
989.054
987.955
986.768
985.476
984.069
982.508
980.768
978.931
977.177
1000
1000
1000
1000
1000
1000
1000
1000
1000
1000
1000
1000
1000
1000
1000
1000
1000
1000
1000
999.999
999.999
999.999
999.999
999.999
999.999
999.998
999.998
999.998
999.997
999.997
999.996
999.995
999.994
999.993
999.992
999.99
999.989
999.987
999.984
999.981
999.978
999.974
999.97
999.965
999.958
999.951
999.943
999.934
999.923
999.91
999.896
999.879
999.859
999.837
999.811
999.782
999.748
999.71
999.666
999.616
999.558
999.493
999.419
999.335
999.239
999.131
999.008
998.87
998.714
998.538
998.341
998.12
997.872
997.597
997.291
996.952
996.577
996.166
995.716
995.226
994.695
994.121
993.505
992.847
992.147
991.407
990.627
989.809
988.955
988.065
987.143
986.187
985.2
984.18
983.128
982.044
980.89
979.662
978.382
977.124
1000
1000
1000
1000
1000
1000
1000
1000
1000
1000
1000
1000
1000
1000
1000
1000
999.999
999.999
999.999
999.999
999.999
999.999
999.998
999.998
999.997
999.997
999.996
999.996
999.995
999.994
999.992
999.991
999.989
999.987
999.985
999.982
999.979
999.975
999.97
999.965
999.959
999.952
999.944
999.934
999.923
999.91
999.895
999.878
999.858
999.835
999.809
999.779
999.745
999.706
999.661
999.61
999.552
999.487
999.413
999.329
999.235
999.129
999.011
998.878
998.73
998.566
998.383
998.182
997.959
997.715
997.447
997.154
996.836
996.491
996.117
995.715
995.283
994.822
994.33
993.807
993.254
992.671
992.057
991.414
990.742
990.042
989.313
988.557
987.774
986.966
986.132
985.275
984.397
983.5
982.589
981.673
980.731
979.772
978.83
977.995
1000
1000
1000
1000
1000
1000
1000
1000
1000
1000
1000
1000
1000
999.999
999.999
999.999
999.999
999.999
999.999
999.998
999.998
999.997
999.997
999.996
999.996
999.995
999.994
999.992
999.991
999.989
999.987
999.985
999.982
999.978
999.974
999.97
999.965
999.958
999.951
999.943
999.933
999.922
999.909
999.894
999.876
999.857
999.834
999.808
999.779
999.745
999.707
999.664
999.616
999.561
999.5
999.431
999.354
999.269
999.173
999.067
998.95
998.82
998.678
998.521
998.35
998.162
997.958
997.737
997.497
997.238
996.959
996.66
996.34
995.998
995.634
995.248
994.839
994.408
993.953
993.475
992.974
992.449
991.9
991.328
990.731
990.11
989.463
988.792
988.094
987.372
986.624
985.853
985.062
984.254
983.437
982.624
981.819
981.042
980.353
979.894
1000
1000
1000
1000
1000
1000
1000
1000
1000
1000
1000
999.999
999.999
999.999
999.999
999.999
999.998
999.998
999.998
999.997
999.997
999.996
999.995
999.994
999.993
999.992
999.99
999.989
999.987
999.984
999.981
999.978
999.974
999.97
999.964
999.958
999.951
999.943
999.934
999.923
999.911
999.897
999.882
999.864
999.843
999.82
999.794
999.765
999.732
999.695
999.654
999.608
999.557
999.5
999.437
999.367
999.291
999.206
999.113
999.012
998.901
998.78
998.648
998.505
998.35
998.183
998.003
997.809
997.601
997.378
997.141
996.887
996.617
996.331
996.028
995.706
995.367
995.01
994.633
994.237
993.821
993.385
992.928
992.448
991.946
991.421
990.87
990.294
989.692
989.062
988.405
987.723
987.017
986.292
985.557
984.826
984.129
983.493
983.001
982.832
1000
1000
1000
1000
1000
1000
1000
1000
1000
999.999
999.999
999.999
999.999
999.999
999.999
999.998
999.998
999.998
999.997
999.997
999.996
999.995
999.994
999.993
999.992
999.991
999.989
999.987
999.985
999.982
999.979
999.976
999.972
999.967
999.962
999.956
999.949
999.941
999.933
999.923
999.912
999.9
999.886
999.87
999.852
999.833
999.811
999.787
999.761
999.731
999.699
999.663
999.623
999.58
999.532
999.48
999.423
999.361
999.293
999.22
999.14
999.053
998.96
998.858
998.749
998.632
998.505
998.37
998.224
998.068
997.902
997.724
997.534
997.332
997.118
996.889
996.647
996.39
996.117
995.829
995.525
995.204
994.865
994.508
994.131
993.732
993.31
992.862
992.388
991.885
991.352
990.79
990.199
989.581
988.944
988.297
987.697
987.171
986.812
986.807
1000
1000
1000
1000
1000
1000
1000
1000
1000
999.999
999.999
999.999
999.999
999.999
999.999
999.998
999.998
999.998
999.997
999.997
999.996
999.995
999.995
999.994
999.993
999.992
999.99
999.989
999.987
999.985
999.983
999.98
999.977
999.974
999.97
999.966
999.961
999.955
999.949
999.943
999.935
999.927
999.918
999.908
999.896
999.884
999.87
999.855
999.838
999.819
999.799
999.777
999.752
999.726
999.697
999.665
999.631
999.594
999.553
999.509
999.462
999.41
999.355
999.296
999.231
999.163
999.089
999.009
998.924
998.834
998.737
998.633
998.523
998.406
998.281
998.149
998.009
997.861
997.704
997.538
997.362
997.175
996.977
996.767
996.546
996.311
996.063
995.796
995.511
995.204
994.873
994.516
994.131
993.717
993.272
992.799
992.314
991.912
991.647
991.671
1000
1000
1000
1000
1000
1000
1000
1000
1000
1000
999.999
999.999
999.999
999.999
999.999
999.999
999.999
999.998
999.998
999.998
999.997
999.997
999.996
999.996
999.995
999.994
999.994
999.993
999.992
999.99
999.989
999.988
999.986
999.984
999.982
999.979
999.976
999.973
999.97
999.966
999.962
999.957
999.952
999.947
999.94
999.933
999.926
999.917
999.908
999.898
999.887
999.875
999.862
999.848
999.832
999.816
999.797
999.778
999.756
999.733
999.709
999.682
999.653
999.623
999.59
999.555
999.517
999.478
999.436
999.391
999.344
999.294
999.242
999.188
999.13
999.071
999.009
998.944
998.877
998.808
998.736
998.661
998.584
998.504
998.42
998.332
998.241
998.148
998.051
997.95
997.844
997.732
997.613
997.488
997.354
997.211
997.055
996.884
996.768
996.782
1000
1000
1000
1000
1000
1000
1000
1000
1000
1000
1000
1000
1000
1000
999.999
999.999
999.999
999.999
999.999
999.999
999.999
999.998
999.998
999.998
999.998
999.997
999.997
999.996
999.996
999.995
999.994
999.994
999.993
999.992
999.991
999.99
999.988
999.987
999.985
999.983
999.981
999.979
999.977
999.974
999.971
999.967
999.964
999.96
999.956
999.951
999.946
999.94
999.934
999.928
999.921
999.913
999.905
999.896
999.886
999.876
999.866
999.854
999.842
999.829
999.815
999.801
999.786
999.771
999.754
999.738
999.72
999.703
999.684
999.666
999.648
999.629
999.611
999.593
999.576
999.559
999.543
999.528
999.515
999.502
999.49
999.48
999.471
999.462
999.456
999.452
999.452
999.455
999.461
999.472
999.488
999.51
999.538
999.573
999.616
999.664
1000
1000
1000
1000
1000
1000
1000
1000
1000
1000
1000
1000
1000
1000
1000
1000
1000
1000
1000
999.999
999.999
999.999
999.999
999.999
999.999
999.999
999.999
999.998
999.998
999.998
999.998
999.997
999.997
999.997
999.996
999.996
999.995
999.995
999.994
999.993
999.992
999.991
999.99
999.989
999.988
999.987
999.986
999.984
999.983
999.981
999.979
999.977
999.975
999.972
999.97
999.967
999.964
999.961
999.958
999.955
999.951
999.948
999.944
999.94
999.936
999.932
999.928
999.924
999.92
999.916
999.912
999.908
999.905
999.901
999.898
999.896
999.894
999.893
999.892
999.892
999.892
999.893
999.895
999.898
999.901
999.905
999.909
999.913
999.918
999.922
999.927
999.932
999.938
999.944
999.951
999.957
999.964
999.97
999.976
999.981
1000
1000
1000
1000
1000
1000
1000
1000
1000
1000
1000
1000
1000
1000
1000
1000
1000
1000
1000
1000
1000
1000
1000
1000
1000
1000
999.999
999.999
999.999
999.999
999.999
999.999
999.999
999.999
999.999
999.998
999.998
999.998
999.998
999.998
999.997
999.997
999.997
999.997
999.996
999.996
999.995
999.995
999.995
999.994
999.994
999.993
999.992
999.992
999.991
999.991
999.99
999.989
999.989
999.988
999.987
999.986
999.986
999.985
999.984
999.984
999.983
999.983
999.982
999.982
999.981
999.981
999.981
999.981
999.981
999.981
999.982
999.982
999.983
999.984
999.985
999.986
999.987
999.988
999.989
999.991
999.992
999.993
999.994
999.995
999.996
999.996
999.997
999.997
999.998
999.998
999.999
999.999
999.999
1000
1000
1000
1000
1000
1000
1000
1000
1000
1000
1000
1000
1000
1000
1000
1000
1000
1000
1000
1000
1000
1000
1000
1000
1000
1000
1000
1000
1000
1000
1000
1000
1000
1000
1000
1000
999.999
999.999
999.999
999.999
999.999
999.999
999.999
999.999
999.999
999.999
999.999
999.999
999.999
999.998
999.998
999.998
999.998
999.998
999.998
999.998
999.998
999.998
999.997
999.997
999.997
999.997
999.997
999.997
999.997
999.997
999.997
999.997
999.997
999.997
999.997
999.997
999.997
999.997
999.997
999.997
999.997
999.998
999.998
999.998
999.998
999.998
999.999
999.999
999.999
999.999
999.999
999.999
1000
1000
1000
1000
1000
1000
1000
1000
1000
1000
1000
1000
1000
1000
1000
1000
1000
1000
1000
1000
1000
1000
1000
1000
1000
1000
1000
1000
1000
1000
1000
1000
1000
1000
1000
1000
1000
1000
1000
1000
1000
1000
1000
1000
1000
1000
1000
1000
1000
1000
1000
1000
1000
1000
1000
1000
1000
1000
1000
1000
1000
1000
1000
1000
1000
999.999
999.999
999.999
999.999
999.999
999.999
999.999
999.999
999.999
999.999
999.999
999.999
999.999
999.999
999.999
999.999
999.999
999.999
999.999
1000
1000
1000
1000
1000
1000
1000
1000
1000
1000
1000
1000
1000
1000
1000
1000
1000
1000
1000
1000
1000
1000
1000
1000
1000
1000
1000
1000
1000
1000
1000
1000
1000
1000
1000
1000
1000
1000
1000
1000
1000
1000
1000
1000
1000
1000
1000
1000
1000
1000
1000
1000
1000
1000
1000
1000
1000
1000
1000
1000
1000
1000
1000
1000
1000
1000
1000
1000
1000
1000
1000
1000
1000
1000
1000
1000
1000
1000
1000
1000
1000
1000
1000
1000
1000
1000
1000
1000
1000
1000
1000
1000
1000
1000
1000
1000
1000
1000
1000
1000
1000
1000
1000
1000
1000
1000
1000
1000
1000
1000
1000
1000
1000
1000
1000
1000
1000
1000
1000
1000
1000
1000
1000
1000
1000
1000
1000
1000
1000
1000
1000
1000
1000
1000
1000
1000
1000
1000
1000
1000
1000
1000
1000
1000
1000
1000
1000
1000
1000
1000
1000
1000
1000
1000
1000
1000
1000
1000
1000
1000
1000
1000
1000
1000
1000
1000
1000
1000
1000
1000
1000
1000
1000
1000
1000
1000
1000
1000
1000
1000
1000
1000
1000
1000
1000
1000
1000
1000
1000
1000
1000
1000
1000
1000
1000
1000
1000
1000
1000
1000
1000
1000
1000
1000
1000
1000
1000
1000
1000
1000
1000
1000
1000
1000
1000
1000
1000
1000
1000
1000
1000
1000
1000
1000
1000
1000
1000
1000
1000
1000
1000
1000
1000
1000
1000
1000
1000
1000
1000
1000
1000
1000
1000
1000
1000
1000
1000
1000
1000
1000
1000
1000
1000
1000
1000
1000
1000
1000
1000
1000
1000
1000
1000
1000
1000
1000
1000
1000
1000
1000
1000
1000
1000
1000
1000
1000
1000
1000
1000
1000
1000
1000
1000
1000
1000
1000
1000
1000
1000
1000
1000
1000
1000
1000
1000
1000
1000
1000
1000
1000
1000
1000
1000
1000
1000
1000
1000
1000
1000
1000
1000
1000
1000
1000
1000
1000
1000
1000
1000
1000
1000
1000
1000
1000
1000
1000
1000
1000
1000
1000
1000
1000
1000
1000
1000
1000
1000
1000
1000
1000
1000
1000
1000
1000
1000
1000
1000
1000
1000
1000
1000
1000
1000
1000
1000
1000
1000
1000
1000
1000
1000
1000
1000
1000
1000
1000
1000
1000
1000
1000
1000
1000
1000
1000
1000
1000
1000
1000
1000
1000
1000
1000
1000
1000
1000
1000
1000
1000
1000
1000
1000
1000
1000
1000
1000
1000
1000
1000
1000
1000
1000
1000
1000
1000
1000
1000
1000
1000
1000
1000
1000
1000
1000
1000
1000
1000
1000
1000
1000
1000
1000
1000
1000
1000
1000
1000
1000
1000
1000
1000
1000
1000
1000
1000
1000
1000
1000
1000
1000
1000
1000
1000
1000
1000
1000
1000
1000
1000
1000
1000
1000
1000
1000
1000
1000
1000
1000
1000
1000
1000
1000
1000
1000
1000
1000
1000
1000
1000
1000
1000
1000
1000
1000
1000
1000
1000
1000
1000
1000
1000
1000
1000
1000
1000
1000
1000
1000
1000
1000
1000
1000
1000
1000
1000
1000
1000
1000
1000
1000
1000
1000
1000
1000
1000
1000
1000
1000
1000
1000
1000
1000
1000
1000
1000
1000
1000
1000
1000
1000
1000
1000
1000
1000
1000
1000
1000
1000
1000
1000
977.502
972.36
971.782
972.388
973.199
973.959
974.613
975.163
975.635
976.071
976.527
977.075
977.813
978.874
980.425
982.65
985.686
989.538
993.955
998.297
976.098
972.992
973.016
973.829
974.725
975.53
976.218
976.805
977.326
977.829
978.373
979.032
979.904
981.107
982.781
985.05
987.98
991.52
995.366
998.893
975.499
974.098
974.584
975.518
976.45
977.275
977.986
978.609
979.185
979.764
980.404
981.179
982.176
983.493
985.231
987.462
990.207
993.369
996.617
999.348
975.984
975.758
976.529
977.5
978.424
979.244
979.969
980.628
981.263
981.921
982.656
983.533
984.623
985.998
987.722
989.833
992.32
995.048
997.688
999.662
977.542
977.981
978.872
979.818
980.701
981.501
982.232
982.925
983.614
984.339
985.146
986.084
987.206
988.561
990.19
992.107
994.267
996.515
998.557
999.85
980.039
980.76
981.647
982.528
983.353
984.123
984.851
985.56
986.275
987.024
987.847
988.778
989.856
991.112
992.569
994.217
995.992
997.74
999.208
999.945
983.355
984.115
984.925
985.714
986.464
987.177
987.862
988.534
989.213
989.922
990.69
991.539
992.492
993.569
994.776
996.09
997.443
998.698
999.637
999.984
987.446
988.107
988.777
989.426
990.045
990.637
991.21
991.776
992.35
992.949
993.58
994.261
995.005
995.823
996.713
997.651
998.578
999.375
999.871
999.997
992.171
992.624
993.075
993.51
993.929
994.334
994.734
995.128
995.523
995.923
996.338
996.774
997.24
997.742
998.281
998.842
999.372
999.775
999.966
999.999
997.006
997.191
997.379
997.563
997.744
997.919
998.087
998.249
998.405
998.559
998.715
998.876
999.047
999.232
999.433
999.645
999.832
999.952
999.994
1000
999.715
999.731
999.75
999.771
999.791
999.81
999.828
999.847
999.864
999.881
999.898
999.916
999.933
999.952
999.969
999.983
999.992
999.997
1000
1000
999.985
999.985
999.986
999.987
999.988
999.989
999.99
999.991
999.992
999.994
999.995
999.996
999.997
999.998
999.999
999.999
1000
1000
1000
1000
1000
1000
1000
1000
1000
1000
1000
1000
1000
1000
1000
1000
1000
1000
1000
1000
1000
1000
1000
1000
1000
1000
1000
1000
1000
1000
1000
1000
1000
1000
1000
1000
1000
1000
1000
1000
1000
1000
1000
1000
1000
1000
1000
1000
1000
1000
1000
1000
1000
1000
1000
1000
1000
1000
1000
1000
1000
1000
1000
1000
1000
1000
1000
1000
1000
1000
1000
1000
1000
1000
1000
1000
1000
1000
1000
1000
1000
1000
1000
1000
1000
1000
1000
1000
1000
1000
1000
1000
1000
1000
1000
1000
1000
1000
1000
1000
1000
1000
1000
1000
1000
1000
1000
1000
1000
1000
1000
1000
1000
1000
1000
1000
1000
1000
1000
1000
1000
1000
1000
1000
1000
1000
1000
1000
1000
1000
1000
1000
1000
1000
1000
1000
1000
1000
1000
1000
1000
1000
1000
1000
1000
1000
1000
1000
1000
1000
1000
1000
1000
1000
1000
1000
1000
1000
1000
1000
1000
1000
1000
1000
944.555
944.555
944.555
944.555
944.555
944.555
944.555
944.555
944.555
944.555
944.555
944.555
944.555
944.555
944.555
944.555
944.555
944.555
944.555
944.555
944.555
944.555
944.555
944.555
944.555
944.555
944.555
944.555
944.555
944.555
944.555
944.555
944.555
944.555
944.555
944.555
944.555
944.555
944.555
944.555
944.555
944.555
944.555
944.555
944.555
944.555
944.555
944.555
944.555
944.555
944.555
944.555
944.555
944.555
944.555
944.555
944.555
944.555
944.555
944.555
944.555
944.555
944.555
944.555
944.555
944.555
944.555
944.555
944.555
944.555
944.555
944.555
944.555
944.555
944.555
944.555
944.555
944.555
944.555
944.555
944.555
944.555
944.555
944.555
944.555
944.555
944.555
944.555
944.555
944.555
944.555
944.555
944.555
944.555
944.555
944.555
944.555
944.555
944.555
944.555
944.555
944.555
944.555
944.555
944.555
944.555
944.555
944.555
944.555
944.555
944.555
944.555
944.555
944.555
944.555
944.555
944.555
944.555
944.555
944.555
944.555
944.555
944.555
944.555
944.555
944.555
944.555
944.555
944.555
944.555
944.555
944.555
944.555
944.555
944.555
944.555
944.555
944.555
944.555
944.555
944.555
944.555
944.555
944.555
944.555
944.555
944.555
944.555
944.555
944.555
944.555
944.555
944.555
944.555
944.555
944.555
944.555
944.555
944.555
944.555
944.555
944.555
944.555
944.555
944.555
944.555
944.555
944.555
944.555
944.555
944.555
944.555
944.555
944.555
944.555
944.555
944.555
944.555
944.555
944.555
944.555
944.555
944.555
944.555
944.555
944.555
944.555
944.555
944.555
944.555
944.555
944.555
944.555
944.555
944.555
944.555
944.555
944.555
944.555
944.555
944.555
944.555
944.555
944.555
944.555
944.555
944.555
944.555
944.555
944.555
944.555
944.555
944.555
944.555
944.555
944.555
944.555
944.555
944.555
944.555
944.555
944.555
944.555
944.555
944.555
944.555
944.555
944.555
944.555
944.555
944.555
944.555
944.555
944.555
944.555
944.555
944.555
944.555
944.555
944.555
944.555
944.555
944.555
944.555
944.555
944.555
944.555
944.555
944.555
944.555
944.555
944.555
944.555
944.555
944.555
944.555
944.555
944.555
944.555
944.555
944.555
944.555
944.555
944.555
944.555
944.555
944.555
944.555
944.555
944.555
944.555
944.555
944.555
944.555
944.555
944.555
944.555
944.555
944.555
944.555
944.555
944.555
944.555
944.555
944.555
944.555
944.555
944.555
944.555
944.555
944.555
944.555
944.555
944.555
944.555
944.555
944.555
944.555
944.555
944.555
944.555
944.555
944.555
944.555
944.555
944.555
944.555
944.555
944.555
944.555
944.555
944.555
944.555
944.555
944.555
944.555
944.555
944.555
944.555
944.555
944.555
944.555
944.555
944.555
944.555
944.555
944.555
944.555
944.555
944.555
944.555
944.555
944.555
944.555
944.555
944.555
944.555
944.555
944.555
944.555
944.555
944.555
944.555
944.555
944.555
944.555
944.555
944.555
944.555
944.555
944.555
944.555
944.555
944.555
944.555
944.555
944.555
944.555
944.555
944.555
944.555
944.555
944.555
944.555
944.555
944.555
944.555
944.555
944.555
944.555
944.555
944.555
944.555
944.555
944.555
944.555
944.555
944.555
944.555
944.555
944.555
944.555
944.555
944.555
944.555
944.555
944.555
944.555
944.555
944.555
944.555
944.555
944.555
944.555
944.555
944.555
944.555
944.555
944.555
944.555
944.555
944.555
944.555
944.555
944.555
944.555
944.555
944.555
944.555
944.555
944.555
944.555
944.555
944.555
944.555
944.555
944.555
944.555
944.555
944.555
944.555
944.555
944.555
944.555
944.555
944.555
944.555
944.555
944.555
944.555
944.555
944.555
944.555
944.555
944.555
944.555
944.555
944.555
944.555
944.555
944.555
944.555
944.555
944.555
944.555
944.555
944.555
944.555
944.555
944.555
944.555
944.555
944.555
944.555
944.555
944.555
944.555
944.555
944.555
944.555
944.555
944.555
944.555
944.555
944.555
944.555
944.555
944.555
944.555
944.555
944.555
944.555
944.555
944.555
944.555
944.555
944.555
944.555
944.555
944.555
944.555
944.555
944.555
944.555
944.555
944.555
944.555
944.555
944.555
944.555
944.555
944.555
944.555
944.555
944.555
944.555
944.555
944.555
944.555
944.555
944.555
944.555
944.555
944.555
944.555
944.555
944.555
944.555
944.555
944.555
944.555
944.555
944.555
944.555
944.555
944.555
944.555
944.555
944.555
944.555
944.555
944.555
944.555
944.555
944.555
944.555
944.555
944.555
944.555
944.555
944.555
944.555
944.555
944.555
944.555
944.555
944.555
944.555
944.555
944.555
944.555
944.555
944.555
944.555
944.555
944.555
944.555
944.555
944.555
944.555
944.555
944.555
944.555
944.555
944.555
944.555
944.555
944.555
944.555
944.555
944.555
944.555
944.555
944.555
944.555
944.555
944.555
944.555
944.555
944.555
944.555
944.555
944.555
944.555
944.555
944.555
944.555
944.555
944.555
944.555
944.555
944.555
944.555
944.555
944.555
944.555
944.555
944.555
944.555
944.555
944.555
944.555
944.555
944.555
944.555
944.555
944.555
944.555
944.555
944.555
944.555
944.555
944.555
944.555
944.555
944.555
944.555
944.555
944.555
944.555
944.555
944.555
944.555
944.555
944.555
944.555
944.555
944.555
944.555
944.555
944.555
944.555
944.555
944.555
944.555
944.555
944.555
944.555
944.555
944.555
944.555
944.555
944.555
944.555
944.555
944.555
944.555
944.555
944.555
944.555
944.555
944.555
944.555
944.555
944.555
944.555
944.555
944.555
944.555
944.555
944.555
944.555
944.555
944.555
944.555
944.555
944.555
944.555
944.555
944.555
944.555
944.555
944.555
944.555
944.555
944.555
944.555
944.555
944.555
944.555
944.555
944.555
944.555
944.555
944.555
944.555
944.555
944.555
944.555
944.555
944.555
944.555
944.555
944.555
944.555
944.555
944.555
944.555
944.555
944.555
944.555
944.555
944.555
944.555
944.555
944.555
944.555
944.555
944.555
944.555
944.555
944.555
944.555
944.555
944.555
944.555
944.555
944.555
944.555
944.555
944.555
944.555
944.555
944.555
944.555
944.555
944.555
944.555
944.555
944.555
944.555
944.555
944.555
944.555
944.555
944.555
944.555
944.555
944.555
944.555
944.555
944.555
944.555
944.555
944.555
944.555
944.555
944.555
944.555
944.555
944.555
944.555
944.555
944.555
944.555
944.555
944.555
944.555
944.555
944.555
944.555
944.555
944.555
944.555
944.555
944.555
944.555
944.555
944.555
944.555
944.555
944.555
944.555
944.555
944.555
944.555
944.555
944.555
944.555
944.555
944.555
944.555
944.555
944.555
944.555
944.555
944.555
944.555
944.555
944.555
944.555
944.555
944.555
944.555
944.555
944.555
944.555
944.555
944.555
944.555
944.555
944.555
944.555
944.555
944.555
944.555
944.555
944.555
944.555
944.555
944.555
944.555
944.555
944.555
944.555
944.555
944.555
944.555
944.555
944.555
944.555
944.555
944.555
944.555
944.555
944.555
944.555
944.555
944.555
944.555
944.555
944.555
944.555
944.555
944.555
944.555
944.555
944.555
944.555
944.555
944.555
944.555
944.555
944.555
944.555
944.555
944.555
944.555
944.555
944.555
944.555
944.555
944.555
944.555
944.555
944.555
944.555
944.555
944.555
944.555
944.555
944.555
944.555
944.555
944.555
944.555
944.555
944.555
944.555
944.555
944.555
944.555
944.555
944.555
944.555
944.555
944.555
944.555
944.555
944.555
944.555
944.555
944.555
944.555
944.555
944.555
944.555
944.555
944.555
944.555
944.555
944.555
944.555
944.555
944.555
944.555
944.555
944.555
944.555
944.555
944.555
944.555
944.555
944.555
944.555
944.555
944.555
944.555
944.555
944.555
944.555
944.555
944.555
944.555
944.555
944.555
944.555
944.555
944.555
944.555
944.555
944.555
944.555
944.555
944.555
944.555
944.555
944.555
944.555
944.555
944.555
944.555
944.555
944.555
944.555
944.555
944.555
944.555
944.555
944.555
944.555
944.555
944.555
944.555
944.555
944.555
944.555
944.555
944.555
944.555
944.555
944.555
944.555
944.555
944.555
944.555
944.555
944.555
944.555
944.555
944.555
944.555
944.555
944.555
944.555
944.555
944.555
944.555
944.555
944.555
944.555
944.555
944.555
944.555
944.555
944.555
944.555
944.555
944.555
944.555
944.555
944.555
944.555
944.555
944.555
944.555
944.555
944.555
944.555
944.555
944.555
944.555
944.555
944.555
944.555
944.555
944.555
944.555
944.555
944.555
944.555
944.555
944.555
944.555
944.555
944.555
944.555
944.555
944.555
944.555
944.555
944.555
944.555
944.555
944.555
944.555
944.555
944.555
944.555
944.555
944.555
944.555
944.555
944.555
944.555
944.555
944.555
944.555
944.555
944.555
944.555
944.555
944.555
944.555
944.555
944.555
944.555
944.555
944.555
944.555
944.555
944.555
944.555
944.555
944.555
944.555
944.555
944.555
944.555
944.555
944.556
944.555
944.555
944.555
944.555
944.555
944.555
944.555
944.555
944.555
944.555
944.555
944.555
944.555
944.555
944.555
944.555
944.555
944.555
944.556
944.557
944.555
944.555
944.555
944.555
944.555
944.555
944.555
944.555
944.555
944.555
944.555
944.555
944.555
944.555
944.555
944.555
944.555
944.555
944.557
944.558
944.555
944.555
944.555
944.555
944.555
944.555
944.555
944.555
944.555
944.555
944.555
944.555
944.555
944.555
944.555
944.555
944.555
944.555
944.558
944.561
944.556
944.555
944.555
944.555
944.555
944.555
944.555
944.555
944.555
944.555
944.555
944.555
944.555
944.555
944.555
944.555
944.555
944.556
944.561
944.565
944.557
944.555
944.555
944.555
944.555
944.555
944.555
944.555
944.555
944.555
944.555
944.555
944.555
944.555
944.555
944.555
944.555
944.557
944.565
944.572
944.558
944.556
944.555
944.555
944.555
944.555
944.555
944.555
944.555
944.555
944.555
944.555
944.555
944.555
944.555
944.555
944.556
944.558
944.572
944.582
944.56
944.557
944.556
944.556
944.556
944.556
944.556
944.556
944.556
944.556
944.556
944.556
944.556
944.556
944.556
944.556
944.557
944.56
944.582
944.597
944.564
944.558
944.557
944.556
944.556
944.556
944.556
944.556
944.556
944.556
944.556
944.556
944.556
944.556
944.556
944.557
944.558
944.564
944.597
944.619
944.569
944.559
944.558
944.557
944.557
944.557
944.557
944.557
944.557
944.557
944.557
944.557
944.557
944.557
944.557
944.558
944.559
944.569
944.619
944.652
944.576
944.562
944.559
944.559
944.558
944.559
944.559
944.559
944.559
944.559
944.559
944.559
944.559
944.558
944.558
944.559
944.562
944.576
944.652
944.698
944.587
944.566
944.561
944.56
944.56
944.56
944.56
944.561
944.561
944.561
944.561
944.56
944.56
944.56
944.56
944.561
944.566
944.587
944.698
944.763
944.602
944.571
944.565
944.563
944.563
944.563
944.563
944.563
944.563
944.563
944.563
944.563
944.563
944.563
944.563
944.565
944.571
944.602
944.762
944.851
944.623
944.579
944.569
944.567
944.567
944.567
944.567
944.567
944.567
944.567
944.567
944.567
944.567
944.567
944.567
944.569
944.579
944.623
944.851
944.971
944.653
944.591
944.576
944.573
944.572
944.572
944.572
944.573
944.573
944.573
944.573
944.572
944.572
944.572
944.573
944.576
944.591
944.653
944.971
945.13
944.694
944.606
944.586
944.581
944.58
944.58
944.58
944.58
944.58
944.58
944.58
944.58
944.58
944.58
944.581
944.586
944.606
944.694
945.13
945.338
944.749
944.628
944.599
944.592
944.59
944.59
944.591
944.591
944.591
944.591
944.591
944.591
944.59
944.59
944.592
944.599
944.628
944.749
945.338
945.605
944.821
944.657
944.617
944.607
944.605
944.604
944.605
944.605
944.606
944.606
944.605
944.605
944.605
944.605
944.607
944.617
944.657
944.821
945.605
945.943
944.916
944.696
944.641
944.627
944.624
944.624
944.625
944.625
944.625
944.625
944.625
944.625
944.624
944.624
944.627
944.641
944.696
944.916
945.944
946.365
945.038
944.747
944.673
944.655
944.651
944.65
944.651
944.652
944.652
944.652
944.652
944.651
944.65
944.651
944.655
944.674
944.748
945.039
946.367
946.883
945.192
944.815
944.717
944.692
944.686
944.685
944.686
944.687
944.688
944.688
944.687
944.686
944.686
944.686
944.692
944.717
944.816
945.194
946.887
947.511
945.386
944.901
944.774
944.741
944.733
944.732
944.733
944.734
944.735
944.735
944.734
944.733
944.732
944.733
944.742
944.775
944.903
945.39
947.518
948.261
945.625
945.012
944.848
944.805
944.794
944.793
944.794
944.795
944.796
944.796
944.795
944.794
944.793
944.795
944.806
944.849
945.015
945.632
948.273
949.144
945.918
945.151
944.943
944.888
944.874
944.872
944.873
944.875
944.876
944.876
944.875
944.874
944.873
944.875
944.89
944.945
945.156
945.929
949.162
950.17
946.27
945.324
945.064
944.995
944.977
944.974
944.975
944.977
944.978
944.979
944.978
944.976
944.975
944.979
944.997
945.068
945.334
946.29
950.197
951.343
946.692
945.539
945.217
945.131
945.108
945.104
945.106
945.108
945.109
945.11
945.108
945.106
945.106
945.11
945.134
945.223
945.553
946.722
951.385
952.667
947.191
945.803
945.408
945.302
945.274
945.268
945.27
945.273
945.275
945.275
945.274
945.271
945.271
945.277
945.307
945.417
945.823
947.235
952.731
954.141
947.775
946.122
945.645
945.516
945.481
945.474
945.476
945.479
945.482
945.482
945.48
945.478
945.477
945.485
945.523
945.658
946.151
947.838
954.236
955.763
948.451
946.506
945.936
945.78
945.738
945.729
945.731
945.735
945.738
945.739
945.737
945.734
945.734
945.744
945.79
945.954
946.547
948.54
955.898
957.522
949.226
946.963
946.289
946.103
946.053
946.043
946.045
946.05
946.053
946.054
946.052
946.049
946.049
946.062
946.118
946.316
947.021
949.35
957.711
959.405
950.106
947.502
946.714
946.495
946.436
946.424
946.426
946.432
946.436
946.437
946.436
946.433
946.433
946.45
946.517
946.753
947.585
950.277
959.662
961.392
951.093
948.131
947.22
946.966
946.896
946.882