/*--------------------------------*- C++ -*----------------------------------*\
| =========                 |                                                 |
| \\      /  F ield         | OpenFOAM: The Open Source CFD Toolbox           |
|  \\    /   O peration     | Version:  2.1.0                                 |
|   \\  /    A nd           | Web:      www.OpenFOAM.org                      |
|    \\/     M anipulation  |                                                 |
\*---------------------------------------------------------------------------*/
FoamFile
{
    version     2.0;
    format      ascii;
    class       volScalarField;
    location    "0.2";
    object      T;
}
// * * * * * * * * * * * * * * * * * * * * * * * * * * * * * * * * * * * * * //

dimensions      [0 0 0 1 0 0 0];

internalField   nonuniform List<scalar> 
6400
(
293.15
293.15
293.15
293.15
293.15
293.15
293.15
293.15
293.15
293.15
293.15
293.15
293.15
293.15
293.15
293.15
293.15
293.15
293.15
293.15
293.15
293.15
293.15
293.15
293.15
293.15
293.15
293.15
293.15
293.15
293.15
293.15
293.151
293.151
293.151
293.151
293.151
293.151
293.152
293.152
293.152
293.153
293.153
293.154
293.155
293.155
293.156
293.157
293.159
293.16
293.162
293.164
293.166
293.168
293.171
293.174
293.178
293.182
293.187
293.193
293.199
293.206
293.215
293.224
293.235
293.247
293.26
293.276
293.293
293.313
293.335
293.36
293.388
293.42
293.456
293.497
293.543
293.596
293.655
293.723
293.8
293.889
293.99
294.106
294.238
294.389
294.558
294.748
294.954
295.169
295.376
295.532
295.547
295.268
294.616
294.762
299.115
310.406
322.413
329.452
293.15
293.15
293.15
293.15
293.15
293.15
293.15
293.15
293.15
293.15
293.15
293.15
293.15
293.15
293.15
293.15
293.15
293.15
293.15
293.15
293.15
293.15
293.15
293.15
293.151
293.151
293.151
293.151
293.151
293.151
293.152
293.152
293.152
293.153
293.153
293.154
293.154
293.155
293.156
293.157
293.158
293.16
293.162
293.164
293.166
293.169
293.172
293.176
293.18
293.185
293.191
293.197
293.205
293.213
293.223
293.235
293.248
293.263
293.28
293.299
293.321
293.347
293.376
293.409
293.446
293.489
293.538
293.593
293.656
293.728
293.809
293.902
294.008
294.128
294.264
294.42
294.597
294.798
295.028
295.289
295.587
295.925
296.31
296.747
297.242
297.8
298.429
299.135
299.926
300.812
301.814
302.972
304.371
306.173
308.645
312.066
316.388
321.642
327.113
331.583
293.15
293.15
293.15
293.15
293.15
293.15
293.15
293.15
293.15
293.15
293.15
293.15
293.15
293.15
293.15
293.15
293.15
293.15
293.15
293.15
293.151
293.151
293.151
293.151
293.151
293.151
293.152
293.152
293.152
293.153
293.153
293.154
293.155
293.156
293.157
293.158
293.16
293.161
293.163
293.166
293.169
293.172
293.176
293.18
293.185
293.191
293.198
293.206
293.216
293.226
293.239
293.253
293.27
293.289
293.311
293.336
293.364
293.397
293.435
293.478
293.528
293.584
293.648
293.722
293.806
293.901
294.01
294.134
294.276
294.437
294.62
294.828
295.065
295.334
295.64
295.988
296.382
296.829
297.335
297.906
298.549
299.271
300.079
300.979
301.978
303.078
304.285
305.601
307.027
308.567
310.223
312.002
313.918
315.993
318.255
320.727
323.477
326.553
329.812
332.934
293.15
293.15
293.15
293.15
293.15
293.15
293.15
293.15
293.15
293.15
293.15
293.15
293.15
293.15
293.15
293.15
293.151
293.151
293.151
293.151
293.151
293.151
293.152
293.152
293.152
293.153
293.153
293.154
293.155
293.156
293.157
293.158
293.16
293.162
293.164
293.166
293.169
293.173
293.177
293.182
293.187
293.194
293.202
293.21
293.221
293.233
293.247
293.263
293.281
293.303
293.328
293.357
293.39
293.428
293.471
293.521
293.579
293.644
293.719
293.805
293.903
294.014
294.14
294.284
294.447
294.632
294.841
295.077
295.344
295.644
295.981
296.359
296.782
297.254
297.778
298.359
299
299.706
300.479
301.321
302.236
303.224
304.286
305.423
306.633
307.915
309.268
310.689
312.175
313.725
315.337
317.008
318.739
320.53
322.383
324.295
326.336
328.513
330.787
333.03
293.15
293.15
293.15
293.15
293.15
293.15
293.15
293.15
293.15
293.15
293.15
293.15
293.15
293.151
293.151
293.151
293.151
293.151
293.151
293.152
293.152
293.153
293.153
293.154
293.154
293.155
293.156
293.158
293.159
293.161
293.163
293.165
293.168
293.172
293.176
293.181
293.186
293.193
293.2
293.209
293.22
293.232
293.246
293.262
293.281
293.303
293.329
293.358
293.392
293.43
293.475
293.526
293.585
293.651
293.728
293.814
293.913
294.024
294.151
294.293
294.454
294.634
294.837
295.063
295.316
295.597
295.908
296.253
296.634
297.052
297.511
298.012
298.557
299.149
299.79
300.481
301.223
302.017
302.864
303.765
304.72
305.727
306.789
307.902
309.068
310.284
311.551
312.868
314.233
315.646
317.104
318.607
320.15
321.728
323.333
324.951
326.618
328.317
329.991
331.476
293.15
293.15
293.15
293.15
293.15
293.15
293.15
293.15
293.15
293.15
293.151
293.151
293.151
293.151
293.151
293.151
293.152
293.152
293.152
293.153
293.154
293.154
293.155
293.156
293.158
293.159
293.161
293.163
293.166
293.169
293.172
293.176
293.181
293.187
293.193
293.201
293.21
293.221
293.233
293.248
293.264
293.284
293.306
293.331
293.361
293.394
293.433
293.477
293.527
293.584
293.649
293.722
293.804
293.897
294.002
294.119
294.25
294.397
294.56
294.74
294.941
295.162
295.405
295.673
295.966
296.286
296.635
297.014
297.425
297.868
298.346
298.859
299.408
299.995
300.62
301.284
301.987
302.73
303.514
304.338
305.204
306.111
307.06
308.052
309.087
310.166
311.29
312.459
313.675
314.936
316.243
317.594
318.982
320.401
321.839
323.272
324.693
326.066
327.288
328.1
293.15
293.15
293.15
293.15
293.15
293.15
293.15
293.15
293.151
293.151
293.151
293.151
293.151
293.151
293.152
293.152
293.153
293.153
293.154
293.155
293.156
293.157
293.158
293.16
293.161
293.164
293.166
293.169
293.173
293.177
293.182
293.188
293.194
293.202
293.211
293.221
293.233
293.247
293.263
293.281
293.301
293.325
293.352
293.382
293.417
293.456
293.501
293.55
293.607
293.669
293.74
293.818
293.905
294.002
294.109
294.228
294.359
294.503
294.662
294.835
295.025
295.232
295.457
295.701
295.965
296.251
296.559
296.891
297.247
297.628
298.035
298.47
298.932
299.423
299.944
300.496
301.079
301.694
302.342
303.024
303.741
304.494
305.284
306.112
306.981
307.891
308.845
309.845
310.892
311.988
313.132
314.323
315.557
316.824
318.113
319.395
320.62
321.739
322.608
322.905
293.15
293.15
293.15
293.15
293.15
293.15
293.15
293.151
293.151
293.151
293.151
293.151
293.152
293.152
293.152
293.153
293.153
293.154
293.155
293.156
293.157
293.158
293.16
293.162
293.164
293.166
293.169
293.172
293.176
293.181
293.186
293.192
293.198
293.206
293.215
293.225
293.237
293.25
293.265
293.281
293.3
293.321
293.345
293.372
293.401
293.434
293.471
293.512
293.558
293.608
293.664
293.725
293.792
293.866
293.948
294.036
294.133
294.239
294.355
294.48
294.616
294.764
294.924
295.097
295.283
295.484
295.7
295.932
296.181
296.447
296.732
297.036
297.361
297.706
298.074
298.466
298.882
299.323
299.79
300.285
300.808
301.36
301.942
302.557
303.207
303.895
304.624
305.397
306.217
307.087
308.009
308.985
310.011
311.085
312.195
313.321
314.368
315.287
315.915
315.924
293.15
293.15
293.15
293.15
293.15
293.15
293.151
293.151
293.151
293.151
293.151
293.151
293.152
293.152
293.152
293.153
293.153
293.154
293.155
293.156
293.157
293.158
293.159
293.161
293.162
293.164
293.167
293.169
293.172
293.176
293.18
293.184
293.189
293.195
293.201
293.209
293.217
293.226
293.236
293.247
293.26
293.274
293.29
293.307
293.327
293.348
293.372
293.398
293.426
293.458
293.492
293.53
293.572
293.617
293.666
293.72
293.779
293.843
293.912
293.986
294.067
294.155
294.249
294.351
294.46
294.578
294.704
294.839
294.984
295.139
295.305
295.482
295.67
295.87
296.083
296.309
296.548
296.801
297.07
297.354
297.656
297.975
298.315
298.675
299.055
299.457
299.884
300.341
300.832
301.359
301.928
302.543
303.206
303.921
304.688
305.506
306.345
307.04
307.499
307.457
293.15
293.15
293.15
293.15
293.15
293.15
293.15
293.151
293.151
293.151
293.151
293.151
293.151
293.151
293.152
293.152
293.152
293.153
293.153
293.154
293.155
293.155
293.156
293.157
293.158
293.159
293.161
293.162
293.164
293.166
293.169
293.171
293.174
293.178
293.181
293.185
293.19
293.195
293.201
293.208
293.215
293.223
293.231
293.241
293.252
293.264
293.277
293.291
293.306
293.323
293.342
293.363
293.385
293.409
293.436
293.464
293.495
293.529
293.565
293.604
293.646
293.692
293.741
293.793
293.849
293.909
293.972
294.04
294.112
294.188
294.268
294.353
294.442
294.535
294.633
294.734
294.841
294.951
295.065
295.184
295.306
295.434
295.566
295.703
295.846
295.996
296.152
296.311
296.477
296.65
296.832
297.023
297.226
297.44
297.669
297.914
298.181
298.475
298.674
298.65
293.15
293.15
293.15
293.15
293.15
293.15
293.15
293.15
293.15
293.15
293.151
293.151
293.151
293.151
293.151
293.151
293.151
293.152
293.152
293.152
293.152
293.153
293.153
293.154
293.154
293.155
293.156
293.156
293.157
293.158
293.159
293.161
293.162
293.164
293.166
293.168
293.17
293.173
293.175
293.179
293.182
293.186
293.19
293.195
293.2
293.205
293.212
293.218
293.226
293.234
293.242
293.252
293.262
293.273
293.285
293.298
293.312
293.327
293.343
293.361
293.379
293.399
293.419
293.441
293.464
293.489
293.514
293.541
293.569
293.597
293.627
293.657
293.688
293.719
293.75
293.782
293.813
293.843
293.873
293.901
293.928
293.954
293.977
293.999
294.018
294.036
294.052
294.066
294.078
294.083
294.084
294.08
294.069
294.05
294.023
293.986
293.937
293.877
293.804
293.723
293.15
293.15
293.15
293.15
293.15
293.15
293.15
293.15
293.15
293.15
293.15
293.15
293.15
293.15
293.15
293.15
293.151
293.151
293.151
293.151
293.151
293.151
293.151
293.152
293.152
293.152
293.152
293.153
293.153
293.154
293.154
293.155
293.155
293.156
293.157
293.157
293.158
293.159
293.16
293.162
293.163
293.165
293.166
293.168
293.17
293.172
293.174
293.177
293.18
293.183
293.186
293.189
293.193
293.197
293.201
293.206
293.211
293.216
293.221
293.227
293.233
293.239
293.245
293.252
293.259
293.266
293.272
293.28
293.286
293.293
293.3
293.306
293.312
293.318
293.323
293.327
293.331
293.333
293.334
293.335
293.334
293.332
293.329
293.324
293.319
293.312
293.305
293.298
293.29
293.283
293.275
293.265
293.256
293.245
293.234
293.223
293.211
293.201
293.191
293.182
293.15
293.15
293.15
293.15
293.15
293.15
293.15
293.15
293.15
293.15
293.15
293.15
293.15
293.15
293.15
293.15
293.15
293.15
293.15
293.15
293.15
293.15
293.151
293.151
293.151
293.151
293.151
293.151
293.151
293.151
293.152
293.152
293.152
293.152
293.152
293.153
293.153
293.153
293.154
293.154
293.154
293.155
293.155
293.156
293.157
293.157
293.158
293.159
293.159
293.16
293.161
293.162
293.163
293.164
293.165
293.166
293.167
293.168
293.169
293.171
293.172
293.173
293.174
293.175
293.177
293.178
293.179
293.18
293.181
293.181
293.182
293.182
293.183
293.183
293.182
293.182
293.181
293.18
293.179
293.178
293.176
293.174
293.172
293.17
293.168
293.166
293.164
293.162
293.16
293.159
293.157
293.156
293.155
293.154
293.154
293.153
293.152
293.152
293.151
293.151
293.15
293.15
293.15
293.15
293.15
293.15
293.15
293.15
293.15
293.15
293.15
293.15
293.15
293.15
293.15
293.15
293.15
293.15
293.15
293.15
293.15
293.15
293.15
293.15
293.15
293.15
293.15
293.15
293.15
293.15
293.151
293.151
293.151
293.151
293.151
293.151
293.151
293.151
293.151
293.151
293.151
293.152
293.152
293.152
293.152
293.152
293.152
293.152
293.153
293.153
293.153
293.153
293.153
293.154
293.154
293.154
293.154
293.154
293.154
293.155
293.155
293.155
293.155
293.155
293.155
293.155
293.155
293.155
293.155
293.155
293.155
293.155
293.155
293.155
293.155
293.154
293.154
293.154
293.153
293.153
293.153
293.152
293.152
293.152
293.151
293.151
293.151
293.151
293.15
293.15
293.15
293.15
293.15
293.15
293.15
293.15
293.15
293.15
293.15
293.15
293.15
293.15
293.15
293.15
293.15
293.15
293.15
293.15
293.15
293.15
293.15
293.15
293.15
293.15
293.15
293.15
293.15
293.15
293.15
293.15
293.15
293.15
293.15
293.15
293.15
293.15
293.15
293.15
293.15
293.15
293.15
293.15
293.15
293.15
293.15
293.15
293.15
293.15
293.15
293.15
293.15
293.15
293.151
293.151
293.151
293.151
293.151
293.151
293.151
293.151
293.151
293.151
293.151
293.151
293.151
293.151
293.151
293.151
293.151
293.151
293.151
293.151
293.151
293.151
293.151
293.151
293.151
293.151
293.151
293.151
293.151
293.151
293.151
293.151
293.151
293.151
293.151
293.15
293.15
293.15
293.15
293.15
293.15
293.15
293.15
293.15
293.15
293.15
293.15
293.15
293.15
293.15
293.15
293.15
293.15
293.15
293.15
293.15
293.15
293.15
293.15
293.15
293.15
293.15
293.15
293.15
293.15
293.15
293.15
293.15
293.15
293.15
293.15
293.15
293.15
293.15
293.15
293.15
293.15
293.15
293.15
293.15
293.15
293.15
293.15
293.15
293.15
293.15
293.15
293.15
293.15
293.15
293.15
293.15
293.15
293.15
293.15
293.15
293.15
293.15
293.15
293.15
293.15
293.15
293.15
293.15
293.15
293.15
293.15
293.15
293.15
293.15
293.15
293.15
293.15
293.15
293.15
293.15
293.15
293.15
293.15
293.15
293.15
293.15
293.15
293.15
293.15
293.15
293.15
293.15
293.15
293.15
293.15
293.15
293.15
293.15
293.15
293.15
293.15
293.15
293.15
293.15
293.15
293.15
293.15
293.15
293.15
293.15
293.15
293.15
293.15
293.15
293.15
293.15
293.15
293.15
293.15
293.15
293.15
293.15
293.15
293.15
293.15
293.15
293.15
293.15
293.15
293.15
293.15
293.15
293.15
293.15
293.15
293.15
293.15
293.15
293.15
293.15
293.15
293.15
293.15
293.15
293.15
293.15
293.15
293.15
293.15
293.15
293.15
293.15
293.15
293.15
293.15
293.15
293.15
293.15
293.15
293.15
293.15
293.15
293.15
293.15
293.15
293.15
293.15
293.15
293.15
293.15
293.15
293.15
293.15
293.15
293.15
293.15
293.15
293.15
293.15
293.15
293.15
293.15
293.15
293.15
293.15
293.15
293.15
293.15
293.15
293.15
293.15
293.15
293.15
293.15
293.15
293.15
293.15
293.15
293.15
293.15
293.15
293.15
293.15
293.15
293.15
293.15
293.15
293.15
293.15
293.15
293.15
293.15
293.15
293.15
293.15
293.15
293.15
293.15
293.15
293.15
293.15
293.15
293.15
293.15
293.15
293.15
293.15
293.15
293.15
293.15
293.15
293.15
293.15
293.15
293.15
293.15
293.15
293.15
293.15
293.15
293.15
293.15
293.15
293.15
293.15
293.15
293.15
293.15
293.15
293.15
293.15
293.15
293.15
293.15
293.15
293.15
293.15
293.15
293.15
293.15
293.15
293.15
293.15
293.15
293.15
293.15
293.15
293.15
293.15
293.15
293.15
293.15
293.15
293.15
293.15
293.15
293.15
293.15
293.15
293.15
293.15
293.15
293.15
293.15
293.15
293.15
293.15
293.15
293.15
293.15
293.15
293.15
293.15
293.15
293.15
293.15
293.15
293.15
293.15
293.15
293.15
293.15
293.15
293.15
293.15
293.15
293.15
293.15
293.15
293.15
293.15
293.15
293.15
293.15
293.15
293.15
293.15
293.15
293.15
293.15
293.15
293.15
293.15
293.15
293.15
293.15
293.15
293.15
293.15
293.15
293.15
293.15
293.15
293.15
293.15
293.15
293.15
293.15
293.15
293.15
293.15
293.15
293.15
293.15
293.15
293.15
293.15
293.15
293.15
293.15
293.15
293.15
293.15
293.15
293.15
293.15
293.15
293.15
293.15
293.15
293.15
293.15
293.15
293.15
293.15
293.15
293.15
293.15
293.15
293.15
293.15
293.15
293.15
293.15
293.15
293.15
293.15
293.15
293.15
293.15
293.15
293.15
293.15
293.15
293.15
293.15
293.15
293.15
293.15
293.15
293.15
293.15
293.15
293.15
293.15
293.15
293.15
293.15
293.15
293.15
293.15
293.15
293.15
293.15
293.15
293.15
293.15
293.15
293.15
293.15
293.15
293.15
293.15
293.15
293.15
293.15
293.15
293.15
293.15
293.15
293.15
293.15
293.15
293.15
293.15
293.15
293.15
293.15
293.15
293.15
293.15
293.15
293.15
293.15
293.15
293.15
293.15
293.15
293.15
293.15
293.15
293.15
293.15
293.15
293.15
293.15
293.15
293.15
293.15
293.15
293.15
293.15
293.15
293.15
293.15
293.15
293.15
293.15
293.15
293.15
293.15
293.15
293.15
293.15
293.15
293.15
293.15
293.15
293.15
293.15
293.15
293.15
293.15
293.15
293.15
293.15
293.15
293.15
293.15
293.15
293.15
293.15
293.15
293.15
293.15
293.15
293.15
293.15
293.15
293.15
293.15
293.15
293.15
293.15
293.15
293.15
293.15
293.15
293.15
293.15
293.15
293.15
293.15
293.15
293.15
293.15
293.15
293.15
293.15
293.15
293.15
293.15
293.15
293.15
293.15
293.15
293.15
293.15
293.15
293.15
293.15
293.15
332.355
341.569
342.611
341.519
340.059
338.694
337.52
336.535
335.69
334.91
334.095
333.117
331.8
329.913
327.16
323.226
317.887
311.16
303.51
296.055
334.862
340.432
340.389
338.927
337.319
335.876
334.646
333.598
332.669
331.773
330.804
329.631
328.084
325.951
322.996
319.003
313.874
307.72
301.081
295.038
335.934
338.444
337.572
335.899
334.232
332.759
331.492
330.383
329.359
328.332
327.196
325.825
324.063
321.74
318.685
314.778
309.998
304.521
298.932
294.261
335.065
335.469
334.091
332.357
330.713
329.255
327.968
326.8
325.676
324.514
323.216
321.67
319.752
317.34
314.326
310.647
306.334
301.628
297.097
293.726
332.284
331.501
329.916
328.235
326.67
325.255
323.963
322.741
321.527
320.251
318.835
317.19
315.225
312.861
310.026
306.703
302.972
299.107
295.611
293.405
327.843
326.567
324.996
323.441
321.986
320.632
319.353
318.108
316.855
315.544
314.107
312.482
310.607
308.426
305.904
303.058
300.005
297.008
294.501
293.243
321.984
320.645
319.222
317.838
316.524
315.276
314.08
312.907
311.726
310.492
309.158
307.686
306.037
304.177
302.096
299.836
297.517
295.37
293.768
293.177
314.806
313.653
312.485
311.354
310.278
309.25
308.256
307.275
306.281
305.247
304.156
302.983
301.701
300.296
298.768
297.16
295.575
294.216
293.369
293.156
306.592
305.809
305.029
304.278
303.556
302.857
302.169
301.491
300.811
300.123
299.412
298.664
297.865
297.005
296.083
295.124
294.22
293.533
293.207
293.152
298.265
297.949
297.627
297.312
297.002
296.702
296.414
296.139
295.872
295.608
295.342
295.067
294.775
294.459
294.116
293.755
293.436
293.231
293.159
293.151
293.635
293.609
293.576
293.54
293.506
293.473
293.442
293.411
293.382
293.352
293.323
293.293
293.264
293.232
293.202
293.179
293.163
293.155
293.151
293.15
293.176
293.176
293.174
293.173
293.171
293.169
293.167
293.165
293.163
293.161
293.159
293.157
293.156
293.154
293.152
293.151
293.151
293.15
293.15
293.15
293.151
293.151
293.151
293.151
293.151
293.151
293.151
293.151
293.15
293.15
293.15
293.15
293.15
293.15
293.15
293.15
293.15
293.15
293.15
293.15
293.15
293.15
293.15
293.15
293.15
293.15
293.15
293.15
293.15
293.15
293.15
293.15
293.15
293.15
293.15
293.15
293.15
293.15
293.15
293.15
293.15
293.15
293.15
293.15
293.15
293.15
293.15
293.15
293.15
293.15
293.15
293.15
293.15
293.15
293.15
293.15
293.15
293.15
293.15
293.15
293.15
293.15
293.15
293.15
293.15
293.15
293.15
293.15
293.15
293.15
293.15
293.15
293.15
293.15
293.15
293.15
293.15
293.15
293.15
293.15
293.15
293.15
293.15
293.15
293.15
293.15
293.15
293.15
293.15
293.15
293.15
293.15
293.15
293.15
293.15
293.15
293.15
293.15
293.15
293.15
293.15
293.15
293.15
293.15
293.15
293.15
293.15
293.15
293.15
293.15
293.15
293.15
293.15
293.15
293.15
293.15
293.15
293.15
293.15
293.15
293.15
293.15
293.15
293.15
293.15
293.15
293.15
293.15
293.15
293.15
293.15
293.15
293.15
293.15
293.15
293.15
293.15
293.15
293.15
293.15
293.15
293.15
293.15
293.15
293.15
293.15
293.15
293.15
293.15
293.15
293.15
293.15
293.15
293.15
293.15
293.15
293.15
293.15
293.15
293.15
393.15
393.15
393.15
393.15
393.15
393.15
393.15
393.15
393.15
393.15
393.15
393.15
393.15
393.15
393.15
393.15
393.15
393.15
393.15
393.15
393.15
393.15
393.15
393.15
393.15
393.15
393.15
393.15
393.15
393.15
393.15
393.15
393.15
393.15
393.15
393.15
393.15
393.15
393.15
393.15
393.15
393.15
393.15
393.15
393.15
393.15
393.15
393.15
393.15
393.15
393.15
393.15
393.15
393.15
393.15
393.15
393.15
393.15
393.15
393.15
393.15
393.15
393.15
393.15
393.15
393.15
393.15
393.15
393.15
393.15
393.15
393.15
393.15
393.15
393.15
393.15
393.15
393.15
393.15
393.15
393.15
393.15
393.15
393.15
393.15
393.15
393.15
393.15
393.15
393.15
393.15
393.15
393.15
393.15
393.15
393.15
393.15
393.15
393.15
393.15
393.15
393.15
393.15
393.15
393.15
393.15
393.15
393.15
393.15
393.15
393.15
393.15
393.15
393.15
393.15
393.15
393.15
393.15
393.15
393.15
393.15
393.15
393.15
393.15
393.15
393.15
393.15
393.15
393.15
393.15
393.15
393.15
393.15
393.15
393.15
393.15
393.15
393.15
393.15
393.15
393.15
393.15
393.15
393.15
393.15
393.15
393.15
393.15
393.15
393.15
393.15
393.15
393.15
393.15
393.15
393.15
393.15
393.15
393.15
393.15
393.15
393.15
393.15
393.15
393.15
393.15
393.15
393.15
393.15
393.15
393.15
393.15
393.15
393.15
393.15
393.15
393.15
393.15
393.15
393.15
393.15
393.15
393.15
393.15
393.15
393.15
393.15
393.15
393.15
393.15
393.15
393.15
393.15
393.15
393.15
393.15
393.15
393.15
393.15
393.15
393.15
393.15
393.15
393.15
393.15
393.15
393.15
393.15
393.15
393.15
393.15
393.15
393.15
393.15
393.15
393.15
393.15
393.15
393.15
393.15
393.15
393.15
393.15
393.15
393.15
393.15
393.15
393.15
393.15
393.15
393.15
393.15
393.15
393.15
393.15
393.15
393.15
393.15
393.15
393.15
393.15
393.15
393.15
393.15
393.15
393.15
393.15
393.15
393.15
393.15
393.15
393.15
393.15
393.15
393.15
393.15
393.15
393.15
393.15
393.15
393.15
393.15
393.15
393.15
393.15
393.15
393.15
393.15
393.15
393.15
393.15
393.15
393.15
393.15
393.15
393.15
393.15
393.15
393.15
393.15
393.15
393.15
393.15
393.15
393.15
393.15
393.15
393.15
393.15
393.15
393.15
393.15
393.15
393.15
393.15
393.15
393.15
393.15
393.15
393.15
393.15
393.15
393.15
393.15
393.15
393.15
393.15
393.15
393.15
393.15
393.15
393.15
393.15
393.15
393.15
393.15
393.15
393.15
393.15
393.15
393.15
393.15
393.15
393.15
393.15
393.15
393.15
393.15
393.15
393.15
393.15
393.15
393.15
393.15
393.15
393.15
393.15
393.15
393.15
393.15
393.15
393.15
393.15
393.15
393.15
393.15
393.15
393.15
393.15
393.15
393.15
393.15
393.15
393.15
393.15
393.15
393.15
393.15
393.15
393.15
393.15
393.15
393.15
393.15
393.15
393.15
393.15
393.15
393.15
393.15
393.15
393.15
393.15
393.15
393.15
393.15
393.15
393.15
393.15
393.15
393.15
393.15
393.15
393.15
393.15
393.15
393.15
393.15
393.15
393.15
393.15
393.15
393.15
393.15
393.15
393.15
393.15
393.15
393.15
393.15
393.15
393.15
393.15
393.15
393.15
393.15
393.15
393.15
393.15
393.15
393.15
393.15
393.15
393.15
393.15
393.15
393.15
393.15
393.15
393.15
393.15
393.15
393.15
393.15
393.15
393.15
393.15
393.15
393.15
393.15
393.15
393.15
393.15
393.15
393.15
393.15
393.15
393.15
393.15
393.15
393.15
393.15
393.15
393.15
393.15
393.15
393.15
393.15
393.15
393.15
393.15
393.15
393.15
393.15
393.15
393.15
393.15
393.15
393.15
393.15
393.15
393.15
393.15
393.15
393.15
393.15
393.15
393.15
393.15
393.15
393.15
393.15
393.15
393.15
393.15
393.15
393.15
393.15
393.15
393.15
393.15
393.15
393.15
393.15
393.15
393.15
393.15
393.15
393.15
393.15
393.15
393.15
393.15
393.15
393.15
393.15
393.15
393.15
393.15
393.15
393.15
393.15
393.15
393.15
393.15
393.15
393.15
393.15
393.15
393.15
393.15
393.15
393.15
393.15
393.15
393.15
393.15
393.15
393.15
393.15
393.15
393.15
393.15
393.15
393.15
393.15
393.15
393.15
393.15
393.15
393.15
393.15
393.15
393.15
393.15
393.15
393.15
393.15
393.15
393.15
393.15
393.15
393.15
393.15
393.15
393.15
393.15
393.15
393.15
393.15
393.15
393.15
393.15
393.15
393.15
393.15
393.15
393.15
393.15
393.15
393.15
393.15
393.15
393.15
393.15
393.15
393.15
393.15
393.15
393.15
393.15
393.15
393.15
393.15
393.15
393.15
393.15
393.15
393.15
393.15
393.15
393.15
393.15
393.15
393.15
393.15
393.15
393.15
393.15
393.15
393.15
393.15
393.15
393.15
393.15
393.15
393.15
393.15
393.15
393.15
393.15
393.15
393.15
393.15
393.15
393.15
393.15
393.15
393.15
393.15
393.15
393.15
393.15
393.15
393.15
393.15
393.15
393.15
393.15
393.15
393.15
393.15
393.15
393.15
393.15
393.15
393.15
393.15
393.15
393.15
393.15
393.15
393.15
393.15
393.15
393.15
393.15
393.15
393.15
393.15
393.15
393.15
393.15
393.15
393.15
393.15
393.15
393.15
393.15
393.15
393.15
393.15
393.15
393.15
393.15
393.15
393.15
393.15
393.15
393.15
393.15
393.15
393.15
393.15
393.15
393.15
393.15
393.15
393.15
393.15
393.15
393.15
393.15
393.15
393.15
393.15
393.15
393.15
393.15
393.15
393.15
393.15
393.15
393.15
393.15
393.15
393.15
393.15
393.15
393.15
393.15
393.15
393.15
393.15
393.15
393.15
393.15
393.15
393.15
393.15
393.15
393.15
393.15
393.15
393.15
393.15
393.15
393.15
393.15
393.15
393.15
393.15
393.15
393.15
393.15
393.15
393.15
393.15
393.15
393.15
393.15
393.15
393.15
393.15
393.15
393.15
393.15
393.15
393.15
393.15
393.15
393.15
393.15
393.15
393.15
393.15
393.15
393.15
393.15
393.15
393.15
393.15
393.15
393.15
393.15
393.15
393.15
393.15
393.15
393.15
393.15
393.15
393.15
393.15
393.15
393.15
393.15
393.15
393.15
393.15
393.15
393.15
393.15
393.15
393.15
393.15
393.15
393.15
393.15
393.15
393.15
393.15
393.15
393.15
393.15
393.15
393.15
393.15
393.15
393.15
393.15
393.15
393.15
393.15
393.15
393.15
393.15
393.15
393.15
393.15
393.15
393.15
393.15
393.15
393.15
393.15
393.15
393.15
393.15
393.15
393.15
393.15
393.15
393.15
393.15
393.15
393.15
393.15
393.15
393.15
393.15
393.15
393.15
393.15
393.15
393.15
393.15
393.15
393.15
393.15
393.15
393.15
393.15
393.15
393.15
393.15
393.15
393.15
393.15
393.15
393.15
393.15
393.15
393.15
393.15
393.15
393.15
393.15
393.15
393.15
393.15
393.15
393.15
393.15
393.15
393.15
393.15
393.15
393.15
393.15
393.15
393.15
393.15
393.15
393.15
393.15
393.15
393.15
393.15
393.15
393.15
393.15
393.15
393.15
393.15
393.15
393.15
393.15
393.15
393.15
393.15
393.15
393.15
393.15
393.15
393.15
393.15
393.15
393.15
393.15
393.15
393.15
393.15
393.15
393.15
393.15
393.15
393.15
393.15
393.15
393.15
393.15
393.15
393.15
393.15
393.15
393.15
393.15
393.15
393.15
393.15
393.15
393.15
393.15
393.15
393.15
393.15
393.15
393.15
393.15
393.15
393.15
393.15
393.15
393.15
393.15
393.15
393.15
393.15
393.15
393.15
393.15
393.15
393.15
393.15
393.15
393.15
393.15
393.15
393.15
393.15
393.15
393.15
393.15
393.15
393.15
393.15
393.15
393.15
393.15
393.15
393.15
393.15
393.15
393.15
393.15
393.15
393.15
393.15
393.15
393.15
393.15
393.15
393.15
393.15
393.15
393.15
393.15
393.15
393.15
393.15
393.15
393.15
393.15
393.15
393.15
393.15
393.15
393.15
393.15
393.15
393.15
393.15
393.15
393.15
393.15
393.15
393.15
393.15
393.15
393.15
393.15
393.15
393.15
393.15
393.15
393.15
393.15
393.15
393.15
393.15
393.15
393.15
393.15
393.15
393.15
393.15
393.15
393.15
393.15
393.149
393.15
393.15
393.15
393.15
393.15
393.15
393.15
393.15
393.15
393.15
393.15
393.15
393.15
393.15
393.15
393.15
393.15
393.15
393.149
393.149
393.15
393.15
393.15
393.15
393.15
393.15
393.15
393.15
393.15
393.15
393.15
393.15
393.15
393.15
393.15
393.15
393.15
393.15
393.149
393.148
393.15
393.15
393.15
393.15
393.15
393.15
393.15
393.15
393.15
393.15
393.15
393.15
393.15
393.15
393.15
393.15
393.15
393.15
393.148
393.146
393.149
393.15
393.15
393.15
393.15
393.15
393.15
393.15
393.15
393.15
393.15
393.15
393.15
393.15
393.15
393.15
393.15
393.149
393.146
393.143
393.149
393.149
393.15
393.15
393.15
393.15
393.15
393.15
393.15
393.15
393.15
393.15
393.15
393.15
393.15
393.15
393.149
393.149
393.143
393.138
393.148
393.149
393.149
393.149
393.149
393.149
393.149
393.149
393.149
393.149
393.149
393.149
393.149
393.149
393.149
393.149
393.149
393.148
393.138
393.13
393.146
393.149
393.149
393.149
393.149
393.149
393.149
393.149
393.149
393.149
393.149
393.149
393.149
393.149
393.149
393.149
393.149
393.146
393.13
393.117
393.143
393.148
393.149
393.149
393.149
393.149
393.149
393.148
393.148
393.148
393.148
393.149
393.149
393.149
393.149
393.149
393.148
393.143
393.117
393.098
393.139
393.146
393.148
393.148
393.148
393.148
393.148
393.148
393.148
393.148
393.148
393.148
393.148
393.148
393.148
393.148
393.146
393.139
393.098
393.069
393.133
393.144
393.146
393.147
393.147
393.147
393.147
393.147
393.146
393.146
393.147
393.147
393.147
393.147
393.147
393.146
393.144
393.133
393.069
393.026
393.123
393.141
393.144
393.145
393.145
393.145
393.145
393.145
393.145
393.145
393.145
393.145
393.145
393.145
393.145
393.144
393.141
393.124
393.026
392.964
393.109
393.136
393.141
393.143
393.143
393.143
393.142
393.142
393.142
393.142
393.142
393.142
393.143
393.143
393.143
393.141
393.136
393.11
392.965
392.876
393.089
393.128
393.137
393.139
393.139
393.139
393.139
393.139
393.139
393.139
393.139
393.139
393.139
393.139
393.139
393.137
393.128
393.089
392.876
392.753
393.06
393.118
393.131
393.134
393.134
393.134
393.134
393.133
393.133
393.133
393.133
393.134
393.134
393.134
393.134
393.131
393.118
393.06
392.753
392.583
393.019
393.103
393.122
393.126
393.127
393.127
393.126
393.126
393.126
393.126
393.126
393.126
393.127
393.127
393.126
393.122
393.103
393.019
392.584
392.355
392.962
393.081
393.109
393.115
393.117
393.116
393.116
393.116
393.115
393.115
393.116
393.116
393.116
393.117
393.115
393.109
393.081
392.962
392.355
392.051
392.884
393.051
393.091
393.1
393.102
393.102
393.101
393.101
393.101
393.101
393.101
393.101
393.102
393.102
393.1
393.091
393.051
392.884
392.052
391.655
392.779
393.01
393.066
393.079
393.082
393.082
393.081
393.081
393.08
393.08
393.081
393.081
393.082
393.082
393.079
393.066
393.01
392.779
391.655
391.146
392.641
392.954
393.032
393.051
393.055
393.055
393.054
393.053
393.052
393.052
393.053
393.054
393.055
393.055
393.05
393.032
392.954
392.64
391.145
390.502
392.46
392.88
392.985
393.011
393.017
393.018
393.016
393.015
393.015
393.015
393.015
393.016
393.017
393.017
393.011
392.985
392.879
392.459
390.499
389.699
392.228
392.782
392.923
392.958
392.967
392.967
392.966
392.965
392.964
392.964
392.965
392.966
392.967
392.966
392.958
392.922
392.78
392.226
389.694
388.713
391.933
392.653
392.84
392.887
392.899
392.9
392.899
392.897
392.896
392.896
392.897
392.899
392.9
392.898
392.887
392.839
392.651
391.929
388.705
387.52
391.563
392.488
392.732
392.794
392.809
392.811
392.81
392.808
392.806
392.806
392.807
392.809
392.811
392.809
392.793
392.73
392.484
391.556
387.506
386.097
391.107
392.277
392.591
392.672
392.692
392.695
392.693
392.691
392.689
392.689
392.69
392.693
392.694
392.691
392.67
392.587
392.271
391.094
386.076
384.425
390.55
392.012
392.409
392.513
392.539
392.544
392.542
392.538
392.537
392.536
392.538
392.541
392.542
392.538
392.51
392.404
392.001
390.528
384.391
382.488
389.878
391.681
392.178
392.309
392.343
392.349
392.347
392.343
392.34
392.34
392.342
392.345
392.347
392.34
392.305