/*--------------------------------*- C++ -*----------------------------------*\
| =========                 |                                                 |
| \\      /  F ield         | OpenFOAM: The Open Source CFD Toolbox           |
|  \\    /   O peration     | Version:  2.1.0                                 |
|   \\  /    A nd           | Web:      www.OpenFOAM.org                      |
|    \\/     M anipulation  |                                                 |
\*---------------------------------------------------------------------------*/
FoamFile
{
    version     2.0;
    format      ascii;
    class       volVectorField;
    location    "0.2";
    object      U;
}
// * * * * * * * * * * * * * * * * * * * * * * * * * * * * * * * * * * * * * //

dimensions      [0 1 -1 0 0 0 0];

internalField   nonuniform List<vector> 
6400
(
(-1.22443 -3.6343e-05 0)
(-1.2233 -0.000459153 0)
(-1.22102 -0.000732402 0)
(-1.21785 -0.00087057 0)
(-1.21426 -0.000951298 0)
(-1.21039 -0.00100492 0)
(-1.20634 -0.00104368 0)
(-1.20215 -0.0010742 0)
(-1.19786 -0.00110028 0)
(-1.19346 -0.00112391 0)
(-1.18897 -0.00114645 0)
(-1.18439 -0.00116841 0)
(-1.17973 -0.00119031 0)
(-1.17498 -0.00121216 0)
(-1.17014 -0.00123429 0)
(-1.16522 -0.00125654 0)
(-1.16021 -0.00127912 0)
(-1.1551 -0.00130185 0)
(-1.14991 -0.001325 0)
(-1.14462 -0.00134846 0)
(-1.13925 -0.00137177 0)
(-1.13378 -0.00139558 0)
(-1.12821 -0.00142098 0)
(-1.12254 -0.0014471 0)
(-1.11676 -0.00147401 0)
(-1.11088 -0.00150173 0)
(-1.10489 -0.00153048 0)
(-1.09878 -0.00156017 0)
(-1.09255 -0.00159093 0)
(-1.0862 -0.00162273 0)
(-1.07972 -0.00165567 0)
(-1.0731 -0.00168972 0)
(-1.06635 -0.00172507 0)
(-1.05946 -0.00176168 0)
(-1.05242 -0.00179974 0)
(-1.04523 -0.00183935 0)
(-1.03788 -0.00188068 0)
(-1.03036 -0.00192386 0)
(-1.02266 -0.00196902 0)
(-1.01479 -0.00201638 0)
(-1.00672 -0.00206607 0)
(-0.998447 -0.0021181 0)
(-0.989968 -0.00217249 0)
(-0.981268 -0.00222931 0)
(-0.97234 -0.00228856 0)
(-0.963173 -0.00235011 0)
(-0.953759 -0.00241392 0)
(-0.944087 -0.00248027 0)
(-0.934154 -0.00254637 0)
(-0.923956 -0.00261471 0)
(-0.913475 -0.00268931 0)
(-0.902693 -0.00276661 0)
(-0.891611 -0.00284288 0)
(-0.880233 -0.00291566 0)
(-0.868572 -0.00298622 0)
(-0.856633 -0.00305646 0)
(-0.844415 -0.00312757 0)
(-0.831913 -0.00319985 0)
(-0.819125 -0.00327317 0)
(-0.806045 -0.00334745 0)
(-0.792669 -0.00342302 0)
(-0.778993 -0.00349996 0)
(-0.76501 -0.00357833 0)
(-0.750715 -0.0036584 0)
(-0.7361 -0.00374047 0)
(-0.721157 -0.00382476 0)
(-0.705878 -0.00391119 0)
(-0.690254 -0.0039995 0)
(-0.674279 -0.00408968 0)
(-0.657945 -0.00418182 0)
(-0.641244 -0.00427613 0)
(-0.624167 -0.00437298 0)
(-0.606702 -0.00447311 0)
(-0.588834 -0.00457805 0)
(-0.570542 -0.00468894 0)
(-0.551799 -0.00480714 0)
(-0.532572 -0.00493528 0)
(-0.512815 -0.00507715 0)
(-0.492463 -0.00523784 0)
(-0.471429 -0.00542407 0)
(-0.449596 -0.00564421 0)
(-0.426812 -0.00590824 0)
(-0.402882 -0.00622653 0)
(-0.377576 -0.00660831 0)
(-0.350627 -0.00706248 0)
(-0.321737 -0.00759517 0)
(-0.2906 -0.00820527 0)
(-0.256942 -0.00887773 0)
(-0.220601 -0.00957007 0)
(-0.181688 -0.0101875 0)
(-0.140874 -0.0105375 0)
(-0.0999886 -0.0102251 0)
(-0.0628374 -0.00863825 0)
(-0.0350096 -0.00548434 0)
(-0.0209008 -0.00167144 0)
(-0.023563 0.00301959 0)
(-0.0514577 0.0110819 0)
(-0.129526 0.0281923 0)
(-0.322442 0.0680729 0)
(-0.915667 0.190454 0)
(-1.481 -0.000283283 0)
(-1.47804 -0.0015187 0)
(-1.47592 -0.00223015 0)
(-1.4726 -0.00260595 0)
(-1.46896 -0.00283112 0)
(-1.46508 -0.00298149 0)
(-1.46106 -0.00309031 0)
(-1.45692 -0.00317602 0)
(-1.45269 -0.0032493 0)
(-1.44837 -0.00331574 0)
(-1.44398 -0.00337917 0)
(-1.43951 -0.00344103 0)
(-1.43497 -0.00350284 0)
(-1.43035 -0.00356462 0)
(-1.42566 -0.00362732 0)
(-1.42089 -0.00369045 0)
(-1.41605 -0.00375457 0)
(-1.41113 -0.00381918 0)
(-1.40612 -0.00388475 0)
(-1.40104 -0.0039514 0)
(-1.39588 -0.00401694 0)
(-1.39064 -0.00408303 0)
(-1.38533 -0.0041534 0)
(-1.37993 -0.00422521 0)
(-1.37445 -0.00429874 0)
(-1.36889 -0.00437426 0)
(-1.36325 -0.00445233 0)
(-1.35752 -0.00453275 0)
(-1.3517 -0.00461583 0)
(-1.34579 -0.00470148 0)
(-1.33979 -0.00478998 0)
(-1.3337 -0.00488127 0)
(-1.3275 -0.00497587 0)
(-1.32121 -0.00507375 0)
(-1.31481 -0.00517522 0)
(-1.30831 -0.00528058 0)
(-1.3017 -0.00539018 0)
(-1.29497 -0.00550429 0)
(-1.28812 -0.00562324 0)
(-1.28116 -0.00574745 0)
(-1.27407 -0.00587744 0)
(-1.26685 -0.00601334 0)
(-1.25949 -0.00615538 0)
(-1.252 -0.00630381 0)
(-1.24435 -0.00645873 0)
(-1.23655 -0.00661997 0)
(-1.22859 -0.00678765 0)
(-1.22045 -0.0069625 0)
(-1.21214 -0.00713871 0)
(-1.20365 -0.00731725 0)
(-1.195 -0.00750233 0)
(-1.1862 -0.00768945 0)
(-1.17727 -0.00787551 0)
(-1.16819 -0.00805661 0)
(-1.15896 -0.00823379 0)
(-1.14959 -0.00841016 0)
(-1.14006 -0.00858806 0)
(-1.13039 -0.00876816 0)
(-1.12057 -0.00895017 0)
(-1.1106 -0.00913375 0)
(-1.10049 -0.00931908 0)
(-1.09024 -0.00950608 0)
(-1.07986 -0.00969482 0)
(-1.06934 -0.00988602 0)
(-1.0587 -0.0100802 0)
(-1.04794 -0.0102776 0)
(-1.03706 -0.0104783 0)
(-1.02606 -0.0106818 0)
(-1.01496 -0.0108884 0)
(-1.00375 -0.0110986 0)
(-0.992439 -0.0113132 0)
(-0.981018 -0.0115337 0)
(-0.969486 -0.0117626 0)
(-0.957834 -0.0120046 0)
(-0.946044 -0.0122636 0)
(-0.934097 -0.0125435 0)
(-0.921963 -0.0128516 0)
(-0.909605 -0.0131981 0)
(-0.896975 -0.0135963 0)
(-0.884009 -0.0140633 0)
(-0.870629 -0.01462 0)
(-0.856738 -0.0152911 0)
(-0.842218 -0.0161032 0)
(-0.826928 -0.0170801 0)
(-0.810706 -0.018244 0)
(-0.793377 -0.0196093 0)
(-0.774769 -0.0211707 0)
(-0.75474 -0.0228868 0)
(-0.733222 -0.0246469 0)
(-0.710301 -0.0262143 0)
(-0.686323 -0.0271274 0)
(-0.661985 -0.0265145 0)
(-0.638444 -0.0230417 0)
(-0.618273 -0.0155462 0)
(-0.60854 -0.00424647 0)
(-0.61872 0.0114396 0)
(-0.661686 0.0374828 0)
(-0.75817 0.0876261 0)
(-0.950024 0.194841 0)
(-1.41641 0.50424 0)
(-1.62674 -0.00079127 0)
(-1.62295 -0.00265135 0)
(-1.62161 -0.00366819 0)
(-1.61881 -0.00422977 0)
(-1.61571 -0.00457271 0)
(-1.61245 -0.00480214 0)
(-1.60905 -0.00496713 0)
(-1.60559 -0.0050968 0)
(-1.60203 -0.00520682 0)
(-1.59844 -0.00530658 0)
(-1.59477 -0.00540137 0)
(-1.59107 -0.00549405 0)
(-1.58731 -0.00558658 0)
(-1.58351 -0.00567947 0)
(-1.57964 -0.00577389 0)
(-1.57574 -0.00586953 0)
(-1.57177 -0.00596693 0)
(-1.56775 -0.00606578 0)
(-1.56366 -0.00616642 0)
(-1.55952 -0.00626951 0)
(-1.55529 -0.00637178 0)
(-1.55102 -0.00647325 0)
(-1.54667 -0.00657753 0)
(-1.54228 -0.00668213 0)
(-1.53783 -0.00678816 0)
(-1.53334 -0.00689657 0)
(-1.52879 -0.00700816 0)
(-1.52419 -0.00712267 0)
(-1.51955 -0.00724036 0)
(-1.51485 -0.00736116 0)
(-1.51011 -0.00748536 0)
(-1.50532 -0.00761282 0)
(-1.50047 -0.00774426 0)
(-1.49558 -0.00787973 0)
(-1.49064 -0.00801937 0)
(-1.48565 -0.00816355 0)
(-1.48062 -0.00831261 0)
(-1.47554 -0.00846682 0)
(-1.47042 -0.00862649 0)
(-1.46525 -0.00879193 0)
(-1.46004 -0.00896381 0)
(-1.45479 -0.00914241 0)
(-1.4495 -0.00932801 0)
(-1.44418 -0.00952098 0)
(-1.43883 -0.00972142 0)
(-1.43345 -0.00992916 0)
(-1.42805 -0.0101443 0)
(-1.42262 -0.0103666 0)
(-1.41717 -0.0105922 0)
(-1.41173 -0.0108184 0)
(-1.40627 -0.0110424 0)
(-1.40081 -0.0112623 0)
(-1.39537 -0.0114816 0)
(-1.38993 -0.0116991 0)
(-1.3845 -0.0119135 0)
(-1.37908 -0.0121256 0)
(-1.37367 -0.0123372 0)
(-1.36829 -0.0125488 0)
(-1.36294 -0.0127596 0)
(-1.35763 -0.0129686 0)
(-1.35238 -0.0131752 0)
(-1.3472 -0.0133784 0)
(-1.34212 -0.0135778 0)
(-1.33715 -0.0137741 0)
(-1.3323 -0.0139675 0)
(-1.32761 -0.0141572 0)
(-1.32309 -0.0143434 0)
(-1.31878 -0.0145252 0)
(-1.3147 -0.0147029 0)
(-1.31087 -0.0148771 0)
(-1.30733 -0.0150491 0)
(-1.30411 -0.0152215 0)
(-1.30123 -0.0153976 0)
(-1.29871 -0.0155863 0)
(-1.29658 -0.0157946 0)
(-1.29484 -0.0160283 0)
(-1.2935 -0.016299 0)
(-1.29255 -0.0166221 0)
(-1.292 -0.0170175 0)
(-1.29179 -0.0175096 0)
(-1.29191 -0.0181281 0)
(-1.29227 -0.0189073 0)
(-1.29281 -0.019884 0)
(-1.29342 -0.0210931 0)
(-1.29399 -0.0225656 0)
(-1.29439 -0.0243188 0)
(-1.29449 -0.0263411 0)
(-1.29418 -0.028569 0)
(-1.29344 -0.0308461 0)
(-1.29231 -0.0328557 0)
(-1.29098 -0.0340154 0)
(-1.28977 -0.0333316 0)
(-1.28916 -0.0293063 0)
(-1.29018 -0.0199861 0)
(-1.29645 -0.00366549 0)
(-1.31102 0.0217535 0)
(-1.34552 0.0635322 0)
(-1.41511 0.14033 0)
(-1.5499 0.295356 0)
(-1.807 0.688083 0)
(-1.75965 -0.00138376 0)
(-1.75563 -0.00355988 0)
(-1.75524 -0.00479158 0)
(-1.7533 -0.00549638 0)
(-1.75113 -0.00593046 0)
(-1.74886 -0.00621864 0)
(-1.74648 -0.00642266 0)
(-1.74409 -0.00658091 0)
(-1.74163 -0.00671271 0)
(-1.73917 -0.00683114 0)
(-1.73667 -0.00694225 0)
(-1.73419 -0.00705053 0)
(-1.73166 -0.00715798 0)
(-1.72915 -0.00726578 0)
(-1.72662 -0.00737511 0)
(-1.72409 -0.00748617 0)
(-1.72154 -0.00759906 0)
(-1.71899 -0.00771415 0)
(-1.71643 -0.00783142 0)
(-1.71388 -0.0079508 0)
(-1.7113 -0.00807099 0)
(-1.70876 -0.00819099 0)
(-1.70619 -0.00831021 0)
(-1.70362 -0.00842786 0)
(-1.70105 -0.00854562 0)
(-1.69849 -0.00866536 0)
(-1.69593 -0.00878806 0)
(-1.69338 -0.00891327 0)
(-1.69083 -0.00904103 0)
(-1.6883 -0.00917125 0)
(-1.68579 -0.00930407 0)
(-1.68329 -0.00943918 0)
(-1.68081 -0.00957715 0)
(-1.67837 -0.00971803 0)
(-1.67595 -0.00986193 0)
(-1.67357 -0.010009 0)
(-1.67122 -0.0101595 0)
(-1.66893 -0.0103134 0)
(-1.66668 -0.0104711 0)
(-1.66449 -0.0106324 0)
(-1.66237 -0.0107978 0)
(-1.66032 -0.0109673 0)
(-1.65835 -0.0111409 0)
(-1.65648 -0.0113186 0)
(-1.65471 -0.0115002 0)
(-1.65305 -0.0116854 0)
(-1.65153 -0.0118736 0)
(-1.65014 -0.0120629 0)
(-1.64891 -0.012252 0)
(-1.64785 -0.0124425 0)
(-1.64694 -0.0126303 0)
(-1.64619 -0.0128118 0)
(-1.64558 -0.0129903 0)
(-1.64514 -0.013166 0)
(-1.64488 -0.0133362 0)
(-1.64479 -0.0135 0)
(-1.64491 -0.0136585 0)
(-1.64524 -0.0138114 0)
(-1.64579 -0.0139567 0)
(-1.64659 -0.0140931 0)
(-1.64765 -0.0142193 0)
(-1.64899 -0.0143335 0)
(-1.65064 -0.0144345 0)
(-1.65261 -0.0145231 0)
(-1.65493 -0.0145993 0)
(-1.65761 -0.0146619 0)
(-1.66067 -0.0147106 0)
(-1.66414 -0.0147447 0)
(-1.66804 -0.0147645 0)
(-1.67237 -0.0147709 0)
(-1.67717 -0.0147661 0)
(-1.68242 -0.0147548 0)
(-1.68815 -0.0147408 0)
(-1.69435 -0.0147382 0)
(-1.70101 -0.0147592 0)
(-1.7081 -0.0148113 0)
(-1.7156 -0.0149108 0)
(-1.72347 -0.0150782 0)
(-1.73166 -0.0153397 0)
(-1.74009 -0.015726 0)
(-1.74871 -0.0162733 0)
(-1.75743 -0.0170231 0)
(-1.76616 -0.0180181 0)
(-1.7748 -0.0192981 0)
(-1.78327 -0.0208969 0)
(-1.79148 -0.0228297 0)
(-1.79936 -0.0250753 0)
(-1.80687 -0.0275507 0)
(-1.81404 -0.0300677 0)
(-1.8209 -0.0322669 0)
(-1.82755 -0.0335213 0)
(-1.83405 -0.0328195 0)
(-1.84035 -0.0286694 0)
(-1.8465 -0.0188213 0)
(-1.85475 -0.00130791 0)
(-1.86309 0.0293694 0)
(-1.8825 0.079876 0)
(-1.91915 0.172363 0)
(-1.98256 0.354059 0)
(-2.07562 0.741738 0)
(-1.89587 -0.00188476 0)
(-1.89227 -0.00411064 0)
(-1.89297 -0.00542792 0)
(-1.89224 -0.00620929 0)
(-1.89147 -0.00669451 0)
(-1.89065 -0.00701113 0)
(-1.88982 -0.00723043 0)
(-1.88899 -0.00739507 0)
(-1.88818 -0.00752827 0)
(-1.8874 -0.00764446 0)
(-1.88664 -0.0077512 0)
(-1.88593 -0.00785324 0)
(-1.88524 -0.0079532 0)
(-1.88461 -0.00805214 0)
(-1.88402 -0.00815142 0)
(-1.88348 -0.00825121 0)
(-1.88299 -0.00835156 0)
(-1.88258 -0.00845267 0)
(-1.88221 -0.00855433 0)
(-1.88193 -0.00865508 0)
(-1.88171 -0.00875574 0)
(-1.8816 -0.00885827 0)
(-1.88154 -0.00896092 0)
(-1.88155 -0.00906141 0)
(-1.88164 -0.00916002 0)
(-1.8818 -0.00925934 0)
(-1.88204 -0.00936071 0)
(-1.88236 -0.00946315 0)
(-1.88276 -0.00956646 0)
(-1.88326 -0.00967036 0)
(-1.88385 -0.00977483 0)
(-1.88454 -0.00987955 0)
(-1.88534 -0.00998474 0)
(-1.88624 -0.0100903 0)
(-1.88726 -0.0101966 0)
(-1.8884 -0.0103034 0)
(-1.88967 -0.0104107 0)
(-1.89107 -0.0105186 0)
(-1.89261 -0.0106273 0)
(-1.8943 -0.0107363 0)
(-1.89614 -0.0108459 0)
(-1.89814 -0.0109559 0)
(-1.90031 -0.011066 0)
(-1.90264 -0.0111762 0)
(-1.90516 -0.0112861 0)
(-1.90786 -0.0113952 0)
(-1.91074 -0.0115028 0)
(-1.91382 -0.0116071 0)
(-1.9171 -0.0117077 0)
(-1.92058 -0.0118087 0)
(-1.92426 -0.0119085 0)
(-1.92815 -0.0120023 0)
(-1.93226 -0.0120903 0)
(-1.93659 -0.012172 0)
(-1.94113 -0.0122451 0)
(-1.94591 -0.0123076 0)
(-1.95093 -0.0123612 0)
(-1.95618 -0.0124062 0)
(-1.96166 -0.0124396 0)
(-1.96739 -0.0124601 0)
(-1.97335 -0.0124663 0)
(-1.97956 -0.0124567 0)
(-1.98601 -0.0124296 0)
(-1.9927 -0.0123859 0)
(-1.99964 -0.0123272 0)
(-2.00681 -0.0122524 0)
(-2.01421 -0.0121609 0)
(-2.02184 -0.0120523 0)
(-2.02971 -0.0119276 0)
(-2.0378 -0.0117882 0)
(-2.04611 -0.0116367 0)
(-2.05463 -0.0114797 0)
(-2.06337 -0.011322 0)
(-2.07234 -0.0111782 0)
(-2.08151 -0.011063 0)
(-2.09091 -0.0109893 0)
(-2.10051 -0.0109781 0)
(-2.11029 -0.0110541 0)
(-2.12022 -0.0112472 0)
(-2.13027 -0.0115915 0)
(-2.14041 -0.0121266 0)
(-2.15058 -0.0128974 0)
(-2.16076 -0.0139489 0)
(-2.17089 -0.0153191 0)
(-2.18094 -0.0170405 0)
(-2.19085 -0.019123 0)
(-2.20062 -0.0215363 0)
(-2.21021 -0.0241847 0)
(-2.21963 -0.0268667 0)
(-2.22883 -0.0292137 0)
(-2.23778 -0.0306122 0)
(-2.24627 -0.0301052 0)
(-2.25387 -0.0263195 0)
(-2.25975 -0.0170983 0)
(-2.26619 -0.000354929 0)
(-2.26671 0.0318069 0)
(-2.26926 0.0851393 0)
(-2.27288 0.182688 0)
(-2.26811 0.367858 0)
(-2.24667 0.705534 0)
(-2.04304 -0.00213856 0)
(-2.04049 -0.00417001 0)
(-2.04238 -0.00541502 0)
(-2.04322 -0.0061742 0)
(-2.04421 -0.00664653 0)
(-2.04527 -0.00694656 0)
(-2.04641 -0.00714687 0)
(-2.04764 -0.00728866 0)
(-2.04893 -0.00739722 0)
(-2.05031 -0.00748618 0)
(-2.05176 -0.00756438 0)
(-2.0533 -0.00763593 0)
(-2.05492 -0.00770397 0)
(-2.05663 -0.00776937 0)
(-2.05843 -0.00783343 0)
(-2.06032 -0.007896 0)
(-2.06231 -0.00795756 0)
(-2.0644 -0.00801779 0)
(-2.06659 -0.0080764 0)
(-2.06888 -0.00813213 0)
(-2.07128 -0.00818629 0)
(-2.07379 -0.00824158 0)
(-2.0764 -0.00829815 0)
(-2.07914 -0.00835253 0)
(-2.08199 -0.00840224 0)
(-2.08497 -0.00845101 0)
(-2.08806 -0.00850113 0)
(-2.09129 -0.0085507 0)
(-2.09465 -0.0085996 0)
(-2.09814 -0.00864746 0)
(-2.10175 -0.00869422 0)
(-2.10551 -0.00873978 0)
(-2.10939 -0.00878438 0)
(-2.11342 -0.00882776 0)
(-2.11758 -0.00887044 0)
(-2.12188 -0.00891241 0)
(-2.12631 -0.00895368 0)
(-2.13088 -0.00899428 0)
(-2.13558 -0.00903458 0)
(-2.14041 -0.00907419 0)
(-2.14538 -0.00911343 0)
(-2.15047 -0.0091523 0)
(-2.15569 -0.00919068 0)
(-2.16103 -0.00922856 0)
(-2.16649 -0.00926587 0)
(-2.17206 -0.00930219 0)
(-2.17775 -0.00933709 0)
(-2.18354 -0.00936946 0)
(-2.18944 -0.00939958 0)
(-2.19543 -0.00942926 0)
(-2.20152 -0.00945715 0)
(-2.20771 -0.00948033 0)
(-2.21398 -0.0094982 0)
(-2.22034 -0.00951008 0)
(-2.22678 -0.00951411 0)
(-2.2333 -0.00950678 0)
(-2.23991 -0.00948869 0)
(-2.24661 -0.00946078 0)
(-2.2534 -0.00942129 0)
(-2.26029 -0.00936956 0)
(-2.26728 -0.00930455 0)
(-2.27436 -0.0092245 0)
(-2.28155 -0.00912675 0)
(-2.28884 -0.00901241 0)
(-2.29624 -0.00888508 0)
(-2.30374 -0.00874322 0)
(-2.31137 -0.00858565 0)
(-2.31911 -0.00841154 0)
(-2.32697 -0.008222 0)
(-2.33496 -0.00801872 0)
(-2.34309 -0.00780369 0)
(-2.35136 -0.00758119 0)
(-2.35977 -0.00736071 0)
(-2.36837 -0.00715812 0)
(-2.37708 -0.00698415 0)
(-2.38592 -0.00685561 0)
(-2.39489 -0.00679609 0)
(-2.40398 -0.0068327 0)
(-2.41318 -0.00699729 0)
(-2.42249 -0.00732573 0)
(-2.43189 -0.00785743 0)
(-2.44137 -0.00863958 0)
(-2.4509 -0.00971883 0)
(-2.46048 -0.0111296 0)
(-2.4701 -0.0129034 0)
(-2.47974 -0.015049 0)
(-2.48941 -0.0175321 0)
(-2.49907 -0.0202562 0)
(-2.50871 -0.0230239 0)
(-2.51825 -0.0254866 0)
(-2.52752 -0.027083 0)
(-2.53613 -0.0269646 0)
(-2.54337 -0.0239265 0)
(-2.54781 -0.016241 0)
(-2.55135 -0.00114434 0)
(-2.54495 0.0287475 0)
(-2.53185 0.0797316 0)
(-2.50535 0.172725 0)
(-2.44371 0.341997 0)
(-2.34645 0.612921 0)
(-2.19882 -0.00205317 0)
(-2.19754 -0.00365325 0)
(-2.20058 -0.00467403 0)
(-2.20299 -0.0053088 0)
(-2.20563 -0.00569927 0)
(-2.20852 -0.00593691 0)
(-2.21149 -0.00608459 0)
(-2.21465 -0.00617825 0)
(-2.21786 -0.00624104 0)
(-2.22122 -0.00628506 0)
(-2.22464 -0.00631872 0)
(-2.22819 -0.00634561 0)
(-2.23179 -0.00636871 0)
(-2.23553 -0.00638891 0)
(-2.23932 -0.00640739 0)
(-2.24323 -0.00642373 0)
(-2.2472 -0.00643873 0)
(-2.25129 -0.00645196 0)
(-2.25544 -0.00646333 0)
(-2.25969 -0.00647217 0)
(-2.26401 -0.00647997 0)
(-2.26842 -0.00648748 0)
(-2.2729 -0.00649559 0)
(-2.27747 -0.00650199 0)
(-2.2821 -0.00650236 0)
(-2.28684 -0.00649883 0)
(-2.29164 -0.00649451 0)
(-2.29656 -0.0064886 0)
(-2.30155 -0.0064821 0)
(-2.30665 -0.00647472 0)
(-2.31182 -0.00646662 0)
(-2.3171 -0.00645768 0)
(-2.32245 -0.00644856 0)
(-2.32788 -0.00643901 0)
(-2.33339 -0.00642982 0)
(-2.33897 -0.00642112 0)
(-2.34462 -0.00641332 0)
(-2.35033 -0.00640641 0)
(-2.3561 -0.00640081 0)
(-2.36193 -0.00639645 0)
(-2.3678 -0.00639368 0)
(-2.37372 -0.00639253 0)
(-2.37967 -0.00639301 0)
(-2.38567 -0.00639507 0)
(-2.39169 -0.00639874 0)
(-2.39775 -0.0064035 0)
(-2.40382 -0.00640896 0)
(-2.40992 -0.00641431 0)
(-2.41604 -0.00641994 0)
(-2.42218 -0.00642604 0)
(-2.42833 -0.00643171 0)
(-2.4345 -0.00643453 0)
(-2.44068 -0.00643385 0)
(-2.44688 -0.0064282 0)
(-2.45309 -0.00641579 0)
(-2.45932 -0.00639417 0)
(-2.46557 -0.00636184 0)
(-2.47183 -0.00631795 0)
(-2.4781 -0.00626185 0)
(-2.48439 -0.00619327 0)
(-2.4907 -0.00611108 0)
(-2.49704 -0.00601353 0)
(-2.50341 -0.00589613 0)
(-2.50982 -0.00575835 0)
(-2.51628 -0.00560868 0)
(-2.5228 -0.00544371 0)
(-2.52937 -0.00526116 0)
(-2.53601 -0.00505988 0)
(-2.54272 -0.00484098 0)
(-2.5495 -0.0046062 0)
(-2.55637 -0.00435758 0)
(-2.56333 -0.00409561 0)
(-2.57039 -0.00383342 0)
(-2.57757 -0.00359841 0)
(-2.58483 -0.00339371 0)
(-2.59219 -0.00323393 0)
(-2.59965 -0.00314252 0)
(-2.60723 -0.00314731 0)
(-2.61492 -0.00328094 0)
(-2.62275 -0.00358092 0)
(-2.63072 -0.00408415 0)
(-2.63884 -0.00483879 0)
(-2.64712 -0.00589596 0)
(-2.65557 -0.0072824 0)
(-2.66421 -0.00902994 0)
(-2.67303 -0.0111523 0)
(-2.68206 -0.0136147 0)
(-2.69125 -0.0163292 0)
(-2.70056 -0.019117 0)
(-2.70985 -0.0216702 0)
(-2.71885 -0.0235075 0)
(-2.72702 -0.0239256 0)
(-2.73346 -0.0219284 0)
(-2.73645 -0.0162883 0)
(-2.73627 -0.00388367 0)
(-2.72436 0.0209827 0)
(-2.69784 0.0650181 0)
(-2.64592 0.145092 0)
(-2.54081 0.28522 0)
(-2.39598 0.486979 0)
(-2.3469 -0.00164027 0)
(-2.34661 -0.00266043 0)
(-2.35025 -0.00336458 0)
(-2.35357 -0.00380865 0)
(-2.35709 -0.00407368 0)
(-2.36098 -0.00422349 0)
(-2.3649 -0.0043038 0)
(-2.36907 -0.00434253 0)
(-2.37321 -0.00435707 0)
(-2.37755 -0.00435731 0)
(-2.38185 -0.00434965 0)
(-2.38632 -0.00433712 0)
(-2.39076 -0.00432199 0)
(-2.39534 -0.004305 0)
(-2.3999 -0.00428716 0)
(-2.40459 -0.00426797 0)
(-2.40926 -0.00424827 0)
(-2.41405 -0.00422749 0)
(-2.41882 -0.00420604 0)
(-2.4237 -0.00418321 0)
(-2.42857 -0.00416047 0)
(-2.43353 -0.0041377 0)
(-2.43848 -0.00411535 0)
(-2.44352 -0.00409117 0)
(-2.44855 -0.0040643 0)
(-2.45368 -0.00403409 0)
(-2.45877 -0.00400204 0)
(-2.46392 -0.0039686 0)
(-2.46905 -0.0039362 0)
(-2.47423 -0.00390439 0)
(-2.47937 -0.00387369 0)
(-2.48456 -0.00384334 0)
(-2.48971 -0.00381459 0)
(-2.4949 -0.00378706 0)
(-2.50005 -0.00376182 0)
(-2.50522 -0.00373879 0)
(-2.51035 -0.00371873 0)
(-2.51551 -0.00370148 0)
(-2.52062 -0.00368717 0)
(-2.52574 -0.00367585 0)
(-2.53081 -0.00366776 0)
(-2.5359 -0.00366281 0)
(-2.54094 -0.00366089 0)
(-2.54599 -0.00366175 0)
(-2.55099 -0.0036653 0)
(-2.556 -0.00367089 0)
(-2.56098 -0.00367803 0)
(-2.56595 -0.00368594 0)
(-2.5709 -0.00369473 0)
(-2.57585 -0.00370385 0)
(-2.58077 -0.0037125 0)
(-2.5857 -0.00371834 0)
(-2.59062 -0.00372051 0)
(-2.59554 -0.00371685 0)
(-2.60045 -0.00370545 0)
(-2.60538 -0.00368657 0)
(-2.61031 -0.00365897 0)
(-2.61524 -0.00361946 0)
(-2.62018 -0.00356616 0)
(-2.62513 -0.00349841 0)
(-2.6301 -0.00341493 0)
(-2.63509 -0.00331429 0)
(-2.64011 -0.00319129 0)
(-2.64519 -0.00303814 0)
(-2.65031 -0.00287599 0)
(-2.65549 -0.00269693 0)
(-2.66074 -0.00249662 0)
(-2.66606 -0.0022743 0)
(-2.67146 -0.00203108 0)
(-2.67696 -0.00176891 0)
(-2.68255 -0.00149245 0)
(-2.68826 -0.00119555 0)
(-2.69407 -0.000887227 0)
(-2.70004 -0.000619325 0)
(-2.70613 -0.000378002 0)
(-2.71237 -0.000177549 0)
(-2.71877 -4.05745e-05 0)
(-2.72534 5.41191e-06 0)
(-2.7321 -7.17192e-05 0)
(-2.73906 -0.000309316 0)
(-2.74624 -0.000744994 0)
(-2.7537 -0.00142233 0)
(-2.76137 -0.00239764 0)
(-2.76932 -0.00369167 0)
(-2.77759 -0.00534156 0)
(-2.78615 -0.00737139 0)
(-2.795 -0.00974412 0)
(-2.8041 -0.0123904 0)
(-2.81336 -0.0151621 0)
(-2.82259 -0.0178069 0)
(-2.83144 -0.0199413 0)
(-2.83927 -0.0210276 0)
(-2.84501 -0.0203236 0)
(-2.84694 -0.0169653 0)
(-2.8432 -0.00844056 0)
(-2.82786 0.00955189 0)
(-2.79057 0.0428194 0)
(-2.7193 0.103321 0)
(-2.58379 0.206279 0)
(-2.41114 0.342859 0)
(-2.46753 -0.000954776 0)
(-2.46804 -0.00141834 0)
(-2.47174 -0.00179194 0)
(-2.47535 -0.00202659 0)
(-2.47903 -0.00215821 0)
(-2.48317 -0.00222252 0)
(-2.48719 -0.00224558 0)
(-2.49152 -0.00224465 0)
(-2.49567 -0.00222961 0)
(-2.50005 -0.00220706 0)
(-2.50425 -0.00218045 0)
(-2.50864 -0.00215193 0)
(-2.51285 -0.00212259 0)
(-2.51722 -0.002093 0)
(-2.52143 -0.00206361 0)
(-2.52578 -0.00203411 0)
(-2.52996 -0.00200501 0)
(-2.53428 -0.00197578 0)
(-2.53845 -0.00194689 0)
(-2.54273 -0.00191785 0)
(-2.54686 -0.00188958 0)
(-2.55109 -0.00186183 0)
(-2.55519 -0.00183428 0)
(-2.55937 -0.00180466 0)
(-2.56343 -0.00177669 0)
(-2.56755 -0.00175008 0)
(-2.57154 -0.00172417 0)
(-2.57557 -0.00169811 0)
(-2.57948 -0.00167431 0)
(-2.58341 -0.00165206 0)
(-2.58723 -0.00163186 0)
(-2.59106 -0.00161208 0)
(-2.5948 -0.00159431 0)
(-2.59854 -0.00157811 0)
(-2.6022 -0.00156471 0)
(-2.60587 -0.00155362 0)
(-2.60945 -0.00154579 0)
(-2.61305 -0.00154078 0)
(-2.61658 -0.00153843 0)
(-2.62011 -0.00153886 0)
(-2.62359 -0.00154204 0)
(-2.62708 -0.00154789 0)
(-2.63052 -0.00155608 0)
(-2.63397 -0.0015663 0)
(-2.63739 -0.00157826 0)
(-2.64083 -0.0015913 0)
(-2.64424 -0.00160479 0)
(-2.64768 -0.0016182 0)
(-2.6511 -0.00163103 0)
(-2.65455 -0.00164264 0)
(-2.65801 -0.00165196 0)
(-2.66149 -0.00165731 0)
(-2.66499 -0.00165735 0)
(-2.66852 -0.00164998 0)
(-2.67209 -0.00163366 0)
(-2.67569 -0.00160875 0)
(-2.67933 -0.00157394 0)
(-2.68303 -0.00152564 0)
(-2.68678 -0.00146149 0)
(-2.69059 -0.00138028 0)
(-2.69447 -0.00128094 0)
(-2.69842 -0.00116163 0)
(-2.70244 -0.00102389 0)
(-2.70655 -0.000831279 0)
(-2.71077 -0.000641537 0)
(-2.71509 -0.000433156 0)
(-2.7195 -0.000198531 0)
(-2.72403 6.21978e-05 0)
(-2.72868 0.000347904 0)
(-2.73347 0.000655634 0)
(-2.73839 0.00098058 0)
(-2.74347 0.00133153 0)
(-2.74867 0.00169944 0)
(-2.75406 0.00203233 0)
(-2.75964 0.00234413 0)
(-2.76544 0.0026198 0)
(-2.77145 0.00283731 0)
(-2.77769 0.00296979 0)
(-2.78417 0.00298573 0)
(-2.7909 0.00284935 0)
(-2.7979 0.00251772 0)
(-2.80521 0.00195153 0)
(-2.81277 0.00110376 0)
(-2.82064 -5.56342e-05 0)
(-2.82894 -0.00156394 0)
(-2.83746 -0.00345007 0)
(-2.84636 -0.00568595 0)
(-2.85557 -0.00823397 0)
(-2.86496 -0.0109795 0)
(-2.87428 -0.013734 0)
(-2.88314 -0.016222 0)
(-2.89084 -0.0180799 0)
(-2.89623 -0.0188483 0)
(-2.89753 -0.017938 0)
(-2.89172 -0.0139643 0)
(-2.87362 -0.00418057 0)
(-2.83146 0.015361 0)
(-2.74704 0.0517011 0)
(-2.59333 0.112939 0)
(-2.40674 0.190135 0)
(-2.53855 -6.1475e-05 0)
(-2.53956 -0.000132388 0)
(-2.54293 -0.00020617 0)
(-2.54633 -0.000248157 0)
(-2.54971 -0.000266016 0)
(-2.55354 -0.00026792 0)
(-2.55713 -0.000260813 0)
(-2.56103 -0.000249029 0)
(-2.56461 -0.000234949 0)
(-2.56844 -0.000220491 0)
(-2.57194 -0.000206233 0)
(-2.57564 -0.000192751 0)
(-2.57903 -0.000179929 0)
(-2.5826 -0.000167937 0)
(-2.58587 -0.000156502 0)
(-2.5893 -0.00014556 0)
(-2.59245 -0.00013489 0)
(-2.59576 -0.000124414 0)
(-2.5988 -0.000113999 0)
(-2.60198 -0.000103801 0)
(-2.60492 -9.38301e-05 0)
(-2.60798 -8.42382e-05 -9.90215e-43)
(-2.61083 -7.4224e-05 0)
(-2.61378 -6.29642e-05 0)
(-2.61655 -5.34994e-05 0)
(-2.6194 -4.64534e-05 0)
(-2.62209 -4.06262e-05 0)
(-2.62486 -3.50605e-05 0)
(-2.62749 -3.08418e-05 0)
(-2.63018 -2.8074e-05 0)
(-2.63277 -2.62633e-05 0)
(-2.6354 -2.34976e-05 0)
(-2.63795 -2.06632e-05 0)
(-2.64054 -1.849e-05 0)
(-2.64307 -1.79793e-05 0)
(-2.64562 -1.86274e-05 0)
(-2.64815 -2.11354e-05 0)
(-2.65069 -2.50044e-05 0)
(-2.65321 -3.00119e-05 0)
(-2.65576 -3.62786e-05 0)
(-2.65829 -4.36785e-05 0)
(-2.66085 -5.21018e-05 0)
(-2.66341 -6.1189e-05 0)
(-2.666 -7.05833e-05 0)
(-2.6686 -7.99505e-05 0)
(-2.67124 -8.86581e-05 0)
(-2.67389 -9.6005e-05 0)
(-2.67659 -0.000101691 0)
(-2.67931 -0.000104764 0)
(-2.68208 -0.000104623 0)
(-2.68488 -0.00010001 0)
(-2.68774 -8.98311e-05 0)
(-2.69065 -7.23794e-05 0)
(-2.69361 -4.59222e-05 0)
(-2.69662 -9.17214e-06 0)
(-2.6997 3.84566e-05 0)
(-2.70283 9.89004e-05 0)
(-2.70605 0.000175578 0)
(-2.70933 0.000270357 0)
(-2.7127 0.000384565 0)
(-2.71615 0.000519322 0)
(-2.71969 0.000675193 0)
(-2.72334 0.000852874 0)
(-2.72707 0.0010893 0)
(-2.73089 0.00132606 0)
(-2.73483 0.00158426 0)
(-2.7389 0.00187202 0)
(-2.7431 0.00218952 0)
(-2.74743 0.00253589 0)
(-2.75191 0.00290815 0)
(-2.75655 0.00330438 0)
(-2.76136 0.00372768 0)
(-2.76633 0.00416507 0)
(-2.77148 0.00458896 0)
(-2.77683 0.0049964 0)
(-2.7824 0.00537269 0)
(-2.7882 0.00569654 0)
(-2.79424 0.00594183 0)
(-2.80055 0.00607778 0)
(-2.80712 0.00606892 0)
(-2.814 0.00587173 0)
(-2.82119 0.00544596 0)
(-2.82873 0.00475457 5.58897e-41)
(-2.83661 0.00374971 0)
(-2.84491 0.00240069 0)
(-2.85343 0.000684581 0)
(-2.86238 -0.00140111 0)
(-2.87149 -0.00383172 -4.50416e-41)
(-2.88074 -0.00654029 0)
(-2.88995 -0.00941829 0)
(-2.89862 -0.0122915 0)
(-2.90603 -0.0149754 0)
(-2.91103 -0.0172796 0)
(-2.91173 -0.0189823 -1.11568e-40)
(-2.90494 -0.0196852 0)
(-2.8846 -0.0186134 0)
(-2.84084 -0.0144718 -1.70115e-40)
(-2.75173 -0.00495429 0)
(-2.59083 0.0120761 0)
(-2.39968 0.0341241 0)
(-2.52722 0.000901002 0)
(-2.52816 0.00113237 0)
(-2.53158 0.00134283 0)
(-2.53503 0.0014813 0)
(-2.53846 0.0015655 0)
(-2.54236 0.00161394 0)
(-2.54603 0.00163847 0)
(-2.55002 0.00164822 0)
(-2.55372 0.00164809 0)
(-2.55765 0.0016414 0)
(-2.56129 0.00163019 0)
(-2.56513 0.00161595 0)
(-2.56868 0.00159975 0)
(-2.57241 0.00158218 0)
(-2.57585 0.00156401 0)
(-2.57947 0.00154542 0)
(-2.58281 0.00152712 0)
(-2.5863 0.00150902 0)
(-2.58954 0.00149171 0)
(-2.59292 0.00147469 0)
(-2.59607 0.00145856 0)
(-2.59934 0.00144278 1.69598e-41)
(-2.60239 0.0014286 0)
(-2.60556 0.00141526 0)
(-2.60852 0.00140233 0)
(-2.61159 0.00138862 0)
(-2.61448 0.00137555 0)
(-2.61746 0.00136265 0)
(-2.62029 0.00135035 0)
(-2.62318 0.00133646 0)
(-2.62596 0.00132314 0)
(-2.62877 0.00131268 0)
(-2.6315 0.00130541 0)
(-2.63426 0.00129836 0)
(-2.63695 0.00129131 0)
(-2.63966 0.00128411 0)
(-2.64233 0.00127725 0)
(-2.64501 0.00127069 0)
(-2.64766 0.00126444 0)
(-2.65033 0.00125868 0)
(-2.65299 0.00125354 0)
(-2.65566 0.00124918 0)
(-2.65832 0.00124583 0)
(-2.66101 0.00124395 0)
(-2.6637 0.00124381 0)
(-2.66643 0.00124606 0)
(-2.66916 0.00125135 0)
(-2.67193 0.00126009 0)
(-2.67471 0.00127318 0)
(-2.67755 0.00129137 0)
(-2.6804 0.00131578 0)
(-2.68331 0.00134749 0)
(-2.68625 0.00138826 0)
(-2.68925 0.00143954 0)
(-2.69229 0.0015027 0)
(-2.69539 0.00157851 0)
(-2.69855 0.00166949 0)
(-2.70177 0.00177955 0)
(-2.70506 0.00191021 0)
(-2.70842 0.00206238 0)
(-2.71186 0.00223729 0)
(-2.71539 0.00243523 0)
(-2.71901 0.00266477 0)
(-2.72272 0.00293489 0)
(-2.72652 0.00322377 0)
(-2.73043 0.00353876 0)
(-2.73445 0.00388544 0)
(-2.73859 0.00426514 0)
(-2.74286 0.00467749 0)
(-2.74727 0.0051209 0)
(-2.75182 0.00559413 0)
(-2.75653 0.00609536 0)
(-2.76141 0.00661284 0)
(-2.76645 0.00713005 0)
(-2.7717 0.0076386 0)
(-2.77715 0.00812314 0)
(-2.78284 0.00856258 0)
(-2.78876 0.00893181 0)
(-2.79495 0.00920118 0)
(-2.80143 0.00933565 0)
(-2.80822 0.0092947 0)
(-2.81534 0.00903754 0)
(-2.82282 0.00852308 1.00188e-40)
(-2.83068 0.00769871 0)
(-2.83893 0.00653213 0)
(-2.84757 0.00498982 0)
(-2.85661 0.00304887 0)
(-2.86576 0.000722928 8.49798e-42)
(-2.87513 -0.00196903 0)
(-2.88409 -0.00497845 0)
(-2.8926 -0.008248 0)
(-2.89987 -0.0117737 0)
(-2.90475 -0.0156149 0)
(-2.90539 -0.019991 -1.17497e-40)
(-2.89857 -0.0253896 0)
(-2.87848 -0.0328755 0)
(-2.83452 -0.0441746 -5.1927e-40)
(-2.74768 -0.0621577 0)
(-2.58892 -0.0899031 0)
(-2.40023 -0.121764 0)
(-2.44148 0.00173118 0)
(-2.44165 0.00239105 0)
(-2.4453 0.00290217 0)
(-2.44877 0.00323517 0)
(-2.45231 0.00343788 0)
(-2.45631 0.00355441 0)
(-2.46023 0.00361646 0)
(-2.46444 0.00364462 0)
(-2.46851 0.00365135 0)
(-2.47282 0.00364455 0)
(-2.47698 0.0036289 0)
(-2.48133 0.00360762 0)
(-2.48554 0.00358259 0)
(-2.48992 0.00355512 0)
(-2.49417 0.00352619 0)
(-2.49857 0.00349631 0)
(-2.50284 0.00346621 0)
(-2.50725 0.00343603 0)
(-2.51154 0.00340629 0)
(-2.51596 0.00337663 0)
(-2.52025 0.0033476 0)
(-2.52466 0.00331875 0)
(-2.52895 0.00329118 0)
(-2.53335 0.00326377 0)
(-2.53763 0.00323737 0)
(-2.542 0.00321061 0)
(-2.54627 0.00318491 0)
(-2.55061 0.00315907 0)
(-2.55486 0.00313423 0)
(-2.55916 0.00310719 0)
(-2.56337 0.00308048 0)
(-2.56764 0.00305569 0)
(-2.57181 0.00303337 0)
(-2.57599 0.00301024 0)
(-2.58008 0.00298772 0)
(-2.58417 0.00296553 0)
(-2.58818 0.0029453 0)
(-2.59218 0.00292638 0)
(-2.59611 0.00290886 0)
(-2.60004 0.00289324 0)
(-2.6039 0.00287978 0)
(-2.60775 0.00286861 0)
(-2.61155 0.00286006 0)
(-2.61534 0.0028546 0)
(-2.61909 0.00285254 0)
(-2.62284 0.00285449 0)
(-2.62654 0.0028612 0)
(-2.63026 0.00287316 0)
(-2.63394 0.00289121 0)
(-2.63763 0.00291622 0)
(-2.6413 0.00294925 0)
(-2.64499 0.00299135 0)
(-2.64866 0.00304413 0)
(-2.65236 0.00310935 0)
(-2.65605 0.00318845 0)
(-2.65977 0.00328144 0)
(-2.66349 0.0033917 0)
(-2.66725 0.00352442 0)
(-2.67103 0.00368104 0)
(-2.67485 0.00386102 0)
(-2.6787 0.00406588 0)
(-2.68261 0.00429816 0)
(-2.68656 0.00456438 0)
(-2.69057 0.00486643 0)
(-2.69464 0.00519621 0)
(-2.69877 0.00555715 0)
(-2.70298 0.00595301 0)
(-2.70728 0.00638554 0)
(-2.71167 0.00685491 0)
(-2.71616 0.00736056 0)
(-2.72077 0.00790113 0)
(-2.7255 0.00847283 0)
(-2.73036 0.00906568 0)
(-2.73536 0.00966855 0)
(-2.74054 0.0102724 0)
(-2.7459 0.0108614 0)
(-2.75146 0.011414 0)
(-2.75725 0.0119064 0)
(-2.7633 0.0123104 0)
(-2.76961 0.0125922 0)
(-2.77623 0.0127132 0)
(-2.78319 0.0126321 0)
(-2.79051 0.0123043 0)
(-2.79822 0.0116805 0)
(-2.80635 0.0107192 0)
(-2.81488 0.00936757 0)
(-2.8238 0.00759234 0)
(-2.83299 0.00535426 0)