/*--------------------------------*- C++ -*----------------------------------*\
| =========                 |                                                 |
| \\      /  F ield         | OpenFOAM: The Open Source CFD Toolbox           |
|  \\    /   O peration     | Version:  2.1.0                                 |
|   \\  /    A nd           | Web:      www.OpenFOAM.org                      |
|    \\/     M anipulation  |                                                 |
\*---------------------------------------------------------------------------*/
FoamFile
{
    version     2.0;
    format      ascii;
    class       volScalarField;
    location    "0.34";
    object      k;
}
// * * * * * * * * * * * * * * * * * * * * * * * * * * * * * * * * * * * * * //

dimensions      [0 2 -2 0 0 0 0];

internalField   nonuniform List<scalar> 
6400
(
0.0326201
0.0326881
0.0327029
0.0327089
0.032708
0.0327053
0.0326912
0.0326846
0.0326646
0.0326542
0.0326304
0.0326155
0.032589
0.0325691
0.0325402
0.0325153
0.0324841
0.0324545
0.0324208
0.0323871
0.032351
0.0323136
0.0322751
0.0322347
0.0321939
0.0321505
0.0321071
0.0320609
0.0320148
0.0319657
0.0319165
0.0318645
0.0318121
0.0317568
0.0317008
0.0316419
0.0315817
0.0315184
0.0314531
0.031384
0.0313121
0.0312356
0.0311551
0.0310691
0.0309779
0.0308799
0.030775
0.0306622
0.0305409
0.0304103
0.0302697
0.0301181
0.0299534
0.029773
0.029576
0.0293715
0.0291551
0.0289321
0.0286963
0.0284539
0.0282004
0.0279389
0.0276671
0.0273857
0.0270935
0.0267896
0.0264752
0.0261476
0.025803
0.0254456
0.0250684
0.0246764
0.0242628
0.0238327
0.0233807
0.0229113
0.0224219
0.0219165
0.0213952
0.0208616
0.0203168
0.0197609
0.019187
0.0185698
0.0179103
0.017221
0.0164786
0.0156638
0.0147401
0.0136591
0.0123462
0.0106943
0.00861341
0.00614026
0.00349874
0.00235999
0.0027501
0.00552739
0.00876248
0.00991636
0.0526097
0.0529428
0.0530958
0.0533713
0.0535442
0.053814
0.0540043
0.0542658
0.0544718
0.0547262
0.054945
0.0551941
0.0554226
0.0556683
0.0559036
0.0561471
0.0563871
0.0566293
0.0568724
0.0571144
0.0573602
0.0576033
0.0578521
0.0580991
0.0583528
0.0586049
0.0588646
0.059123
0.0593889
0.0596544
0.059927
0.0602001
0.0604799
0.0607611
0.0610487
0.0613385
0.0616346
0.061934
0.0622399
0.0625475
0.0628599
0.0631739
0.0634907
0.0638078
0.0641251
0.0644403
0.0647521
0.0650584
0.0653573
0.0656468
0.0659256
0.0661953
0.0664564
0.0666971
0.0669164
0.0671279
0.0673289
0.0675187
0.067692
0.0678471
0.0679877
0.0681119
0.0682195
0.0683085
0.0683785
0.0684226
0.0684426
0.0684466
0.0684035
0.0683283
0.0682017
0.0680273
0.067789
0.0674858
0.0671029
0.0666371
0.0660751
0.0654128
0.0646399
0.0637536
0.0627481
0.0616256
0.0603901
0.0590307
0.0574954
0.0557452
0.0537423
0.0514337
0.0487501
0.0456248
0.0419969
0.0378341
0.0331925
0.0283398
0.023369
0.0186285
0.0149741
0.0124026
0.010782
0.00922057
0.0585791
0.0590511
0.059267
0.0596564
0.0599237
0.0602972
0.0605956
0.0609586
0.0612785
0.0616358
0.0619714
0.0623264
0.0626735
0.0630284
0.0633838
0.0637395
0.0641002
0.0644566
0.0648197
0.065176
0.0655404
0.0658972
0.0662621
0.0666208
0.0669899
0.0673529
0.0677258
0.0680936
0.0684698
0.0688421
0.0692213
0.0695975
0.0699791
0.0703585
0.0707418
0.071123
0.0715065
0.0718871
0.0722674
0.0726457
0.0730224
0.0733955
0.0737648
0.0741283
0.0744842
0.0748306
0.075164
0.0754816
0.0757777
0.0760476
0.0762824
0.0764811
0.0766735
0.0768361
0.0769856
0.0771081
0.0772128
0.0772907
0.077349
0.0773776
0.0773873
0.0773602
0.0772914
0.077185
0.0770358
0.0768404
0.0765981
0.0763028
0.0759533
0.0755421
0.0750653
0.0745139
0.0738813
0.073157
0.0723316
0.0713941
0.0703329
0.0691381
0.0677979
0.0663046
0.0646489
0.0628265
0.0608311
0.0586601
0.0563249
0.0538348
0.0511841
0.0483741
0.0453855
0.042203
0.038788
0.0351055
0.0311346
0.0268679
0.0224241
0.0180744
0.0144209
0.0114587
0.00927671
0.00710687
0.0628874
0.0633928
0.0636245
0.064061
0.0643683
0.0647865
0.0651338
0.0655396
0.0659112
0.0663103
0.0666974
0.0670941
0.0674916
0.0678883
0.068293
0.068691
0.0691003
0.0694999
0.0699119
0.0703114
0.0707196
0.0711125
0.0715092
0.0718855
0.0722761
0.0726517
0.0730363
0.0734083
0.0737851
0.0741505
0.0745171
0.0748727
0.0752261
0.0755681
0.0759051
0.0762293
0.0765458
0.076849
0.0771397
0.0774153
0.0776755
0.0779181
0.0781414
0.0783443
0.0785233
0.0786788
0.0788058
0.0789055
0.0789694
0.0789994
0.0790079
0.0789755
0.0789077
0.0787969
0.0786479
0.0784483
0.0782038
0.0778999
0.0775419
0.0771144
0.0766258
0.0760621
0.0754275
0.0747112
0.0739148
0.0730296
0.072057
0.0709906
0.0698322
0.0685773
0.0672291
0.0657846
0.0642492
0.0626216
0.0609074
0.0591074
0.057227
0.0552688
0.0532371
0.0511351
0.048966
0.046733
0.0444384
0.0420854
0.0396767
0.0372149
0.0347041
0.0321684
0.0296004
0.0270198
0.0244263
0.0218364
0.0192543
0.0167008
0.0142066
0.0118523
0.00968741
0.00785347
0.00658495
0.00598991
0.0638986
0.0643542
0.064559
0.0649612
0.0652331
0.0656162
0.0659224
0.0662874
0.066611
0.0669612
0.0672924
0.0676303
0.0679624
0.0682892
0.0686173
0.0689325
0.0692523
0.0695546
0.0698619
0.0701505
0.0704415
0.0707131
0.0709863
0.0712393
0.0714947
0.0717285
0.0719613
0.0721718
0.0723768
0.072559
0.0727311
0.0728791
0.0730123
0.0731196
0.0732077
0.0732658
0.0732943
0.0733033
0.07328
0.0732187
0.0731242
0.0729913
0.0728179
0.0726036
0.0723427
0.0720376
0.0716813
0.071277
0.0708181
0.0703078
0.0697413
0.0691185
0.0684386
0.0676992
0.0669022
0.066047
0.065134
0.0641602
0.0631297
0.0620373
0.06089
0.059682
0.0584213
0.0571032
0.0557357
0.0543152
0.0528494
0.0513363
0.0497833
0.0481891
0.0465613
0.044899
0.0432103
0.0414954
0.0397677
0.0380231
0.0362735
0.0345167
0.032764
0.0310147
0.0292798
0.0275609
0.0258688
0.0242061
0.0225826
0.0210011
0.0194704
0.017975
0.0165342
0.0151347
0.0137911
0.0124923
0.0112527
0.010067
0.00895562
0.00793252
0.00702617
0.00639688
0.0061246
0.00612195
0.0599905
0.0602185
0.060323
0.0605431
0.0606901
0.0608951
0.0610551
0.0612376
0.0613952
0.061553
0.061699
0.0618311
0.061959
0.0620639
0.062168
0.0622435
0.062319
0.0623625
0.0623974
0.0624109
0.0624139
0.0623844
0.0623454
0.0622706
0.0621854
0.0620659
0.0619359
0.0617715
0.0615914
0.0613763
0.0611408
0.0608693
0.0605731
0.0602399
0.0598786
0.059479
0.0590488
0.0585799
0.0580771
0.0575348
0.0569578
0.0563413
0.0556886
0.0549974
0.0542693
0.0535044
0.0527028
0.0518664
0.0509944
0.0500898
0.0491521
0.0481837
0.0471855
0.0461593
0.0451074
0.0440302
0.0429313
0.0418107
0.0406759
0.0395252
0.0383655
0.0371947
0.0360203
0.0348401
0.0336617
0.0324832
0.0313114
0.0301453
0.0289914
0.0278487
0.0267237
0.0256155
0.0245297
0.0234655
0.022423
0.0214057
0.020415
0.0194531
0.018523
0.0176248
0.0167578
0.0159203
0.0151149
0.0143385
0.013593
0.0128746
0.0121844
0.0115178
0.0108758
0.010252
0.00964781
0.00905685
0.00848224
0.00792193
0.00738921
0.00689556
0.00653495
0.00637817
0.00635215
0.00656948
0.0501721
0.0500326
0.0499774
0.0498894
0.0498349
0.0497385
0.0496666
0.0495487
0.0494508
0.0493054
0.049177
0.049001
0.0488394
0.0486309
0.0484342
0.0481919
0.0479591
0.0476826
0.0474134
0.0471039
0.046795
0.0464465
0.046096
0.0457068
0.0453136
0.0448838
0.0444474
0.0439767
0.0434969
0.0429851
0.0424624
0.0419099
0.0413456
0.0407539
0.0401499
0.039521
0.0388804
0.0382174
0.0375438
0.0368504
0.0361498
0.0354334
0.0347115
0.0339777
0.0332407
0.0324955
0.0317499
0.0309999
0.0302523
0.0295041
0.0287613
0.0280215
0.0272902
0.0265651
0.0258507
0.0251426
0.0244483
0.0237636
0.0230929
0.0224329
0.0217886
0.0211567
0.0205417
0.0199402
0.0193556
0.0187858
0.0182337
0.0176938
0.0171705
0.016659
0.0161626
0.015677
0.0152046
0.0147414
0.0142892
0.0138445
0.0134082
0.0129769
0.0125504
0.0121291
0.0117246
0.011329
0.0109482
0.0105749
0.0102145
0.00986025
0.00951721
0.00917987
0.00885349
0.00853433
0.00822934
0.00793757
0.00766887
0.00742642
0.00723
0.00710277
0.00705014
0.00709531
0.00743492
0.00762637
0.0367642
0.0363266
0.036144
0.0358044
0.0355971
0.0352586
0.0350211
0.0346732
0.0344043
0.0340416
0.0337419
0.0333617
0.0330323
0.0326328
0.0322749
0.0318552
0.0314697
0.0310293
0.0306171
0.0301555
0.029722
0.0292489
0.028801
0.0283201
0.027863
0.0273748
0.0269061
0.026411
0.0259356
0.0254386
0.0249616
0.0244672
0.0239933
0.0235062
0.0230399
0.0225641
0.0221097
0.0216491
0.0212104
0.0207684
0.0203476
0.0199251
0.0195243
0.0191238
0.018745
0.0183684
0.0180133
0.0176619
0.0173314
0.0170059
0.0166997
0.0164003
0.0161198
0.015847
0.0155919
0.015345
0.0151149
0.0148927
0.0146858
0.0144867
0.0143016
0.0141241
0.0139592
0.0138019
0.0136561
0.0135165
0.0133865
0.0132647
0.0131519
0.013046
0.0129481
0.0128558
0.0127701
0.0126888
0.0126128
0.0125395
0.0124701
0.0124019
0.0123356
0.0122686
0.0122007
0.0121277
0.0120502
0.0119636
0.0118682
0.0117593
0.011637
0.0114973
0.0113413
0.011167
0.0109787
0.0107796
0.01058
0.0103909
0.0102544
0.0101945
0.0101863
0.0104258
0.0107852
0.0109611
0.0238699
0.0232997
0.0230652
0.0226237
0.0223756
0.0219495
0.0216875
0.0212726
0.0209991
0.0205936
0.0203118
0.0199155
0.0196285
0.0192416
0.0189525
0.018576
0.0182874
0.0179226
0.0176374
0.0172858
0.0170088
0.0166753
0.0164102
0.0160959
0.0158447
0.0155506
0.0153149
0.0150424
0.0148239
0.0145739
0.0143737
0.0141472
0.0139661
0.0137637
0.013602
0.013424
0.013282
0.0131283
0.0130065
0.0128765
0.0127751
0.0126682
0.0125874
0.0125032
0.012443
0.0123812
0.0123415
0.0123022
0.0122827
0.0122705
0.0122669
0.0122733
0.0122938
0.0123211
0.012362
0.01241
0.012471
0.0125401
0.0126222
0.012713
0.0128166
0.0129295
0.0130549
0.0131902
0.0133379
0.013496
0.0136667
0.0138478
0.0140414
0.014246
0.0144635
0.0146927
0.0149351
0.0151898
0.015458
0.015739
0.0160336
0.0163413
0.0166625
0.0169962
0.0173423
0.0176995
0.0180667
0.0184416
0.0188221
0.0192044
0.0195846
0.0199574
0.0203175
0.020659
0.0209771
0.0212685
0.0215334
0.0217766
0.022012
0.0222858
0.0227296
0.0233258
0.0241466
0.0250332
0.0175101
0.0169583
0.0167355
0.0163122
0.016092
0.0156901
0.0154744
0.0150955
0.0148865
0.0145319
0.0143321
0.0140026
0.013814
0.0135104
0.0133349
0.0130575
0.0128966
0.0126457
0.0125005
0.012276
0.0121475
0.011949
0.0118377
0.0116645
0.0115704
0.0114218
0.011345
0.0112213
0.0111599
0.011062
0.0110141
0.0109421
0.0109075
0.0108607
0.010839
0.0108179
0.0108098
0.0108071
0.0108162
0.0108327
0.0108612
0.0108947
0.0109416
0.0109926
0.0110574
0.0111263
0.0112088
0.0112958
0.0113962
0.0115017
0.01162
0.0117446
0.0118814
0.0120253
0.0121814
0.0123452
0.0125213
0.0127061
0.0129032
0.0131099
0.0133293
0.0135593
0.0138028
0.0140582
0.0143277
0.0146106
0.0149086
0.0152214
0.0155506
0.0158964
0.0162602
0.0166427
0.0170452
0.0174689
0.0179151
0.0183854
0.0188813
0.0194049
0.0199579
0.0205428
0.021162
0.0218185
0.0225152
0.0232561
0.024045
0.0248868
0.025787
0.0267525
0.0277904
0.0289102
0.030122
0.0314384
0.032874
0.0344463
0.0361734
0.0380671
0.0401164
0.0423095
0.0438339
0.044456
0.0215036
0.0209177
0.020676
0.0202128
0.0199593
0.0195116
0.0192492
0.018818
0.0185507
0.0181372
0.0178688
0.0174745
0.0172083
0.0168346
0.0165748
0.016223
0.0159732
0.0156444
0.0154075
0.0151028
0.0148812
0.0146011
0.0143966
0.0141417
0.0139557
0.0137261
0.0135596
0.0133555
0.0132089
0.0130303
0.012904
0.0127507
0.0126445
0.0125164
0.0124303
0.0123271
0.0122607
0.012182
0.0121358
0.0120817
0.012055
0.0120294
0.0120189
0.0120155
0.0120234
0.012044
0.0120737
0.0121148
0.0121659
0.0122276
0.0123
0.0123827
0.0124764
0.0125803
0.0126957
0.0128213
0.0129584
0.013106
0.0132654
0.0134357
0.0136179
0.0138115
0.0140178
0.0142363
0.014468
0.0147129
0.0149718
0.015245
0.015533
0.0158367
0.0161562
0.0164928
0.0168468
0.0172198
0.0176121
0.0180257
0.0184608
0.01892
0.0194037
0.0199148
0.0204542
0.021025
0.0216289
0.0222694
0.0229487
0.0236712
0.0244396
0.0252588
0.0261325
0.0270667
0.0280685
0.0291507
0.0303226
0.0316021
0.0330106
0.0345764
0.0363366
0.0382653
0.039825
0.0405118
0.032663
0.0321171
0.0318851
0.0314401
0.0311719
0.0307282
0.0304247
0.0299767
0.0296416
0.0291881
0.0288267
0.0283686
0.0279831
0.0275158
0.0271088
0.0266341
0.0262118
0.025733
0.025301
0.0248218
0.0243854
0.0239095
0.0234737
0.023005
0.0225741
0.0221163
0.0216946
0.0212513
0.0208425
0.0204169
0.0200244
0.0196193
0.0192461
0.018864
0.0185125
0.018155
0.0178266
0.0174948
0.0171909
0.0168863
0.0166084
0.016332
0.0160805
0.0158337
0.0156101
0.0153932
0.0151978
0.0150104
0.014843
0.0146846
0.0145448
0.0144148
0.0143022
0.0141999
0.0141144
0.0140394
0.0139795
0.01393
0.0138946
0.013872
0.0138617
0.0138587
0.0138693
0.0138924
0.0139256
0.0139707
0.0140252
0.014091
0.0141654
0.0142497
0.0143409
0.0144407
0.014546
0.0146584
0.0147749
0.0148967
0.0150206
0.0151479
0.0152754
0.0154039
0.0155303
0.0156555
0.0157762
0.0158934
0.0160038
0.0161087
0.0162052
0.0162952
0.0163765
0.0164523
0.0165201
0.0165795
0.016638
0.0167129
0.0168233
0.017012
0.0173344
0.0178682
0.0186037
0.0196514
0.0457419
0.0454302
0.0452977
0.0450439
0.0448786
0.0446117
0.0444073
0.044116
0.0438691
0.0435486
0.0432595
0.0429067
0.0425767
0.0421902
0.0418203
0.0413995
0.0409905
0.0405354
0.0400887
0.0396
0.0391172
0.0385964
0.0380797
0.0375289
0.0369809
0.0364026
0.0358264
0.0352243
0.0346238
0.0340018
0.0333815
0.0327442
0.0321094
0.0314618
0.0308179
0.0301659
0.0295195
0.0288657
0.0282166
0.0275648
0.0269208
0.0262784
0.0256467
0.0250203
0.0244073
0.0238025
0.0232136
0.0226354
0.0220748
0.0215263
0.0209954
0.0204778
0.0199783
0.0194925
0.0190243
0.0185695
0.0181329
0.0177091
0.0173019
0.0169096
0.0165337
0.0161716
0.0158253
0.0154908
0.0151697
0.0148592
0.0145603
0.0142696
0.0139871
0.0137138
0.0134499
0.0131933
0.0129442
0.0127013
0.0124638
0.0122313
0.0120024
0.0117776
0.0115551
0.0113359
0.0111182
0.0109037
0.0106905
0.0104811
0.0102738
0.0100718
0.00987166
0.00967735
0.00948709
0.00930665
0.00913523
0.00898126
0.00884272
0.0087325
0.00867777
0.0086605
0.00877416
0.0090338
0.0094392
0.00961864
0.0570791
0.057113
0.05713
0.0571705
0.0571925
0.0572082
0.0572141
0.0572057
0.0571793
0.0571319
0.0570712
0.0569811
0.0568834
0.0567544
0.0566198
0.0564494
0.056273
0.0560584
0.0558363
0.0555746
0.0553031
0.0549914
0.0546676
0.0543042
0.0539257
0.0535081
0.0530719
0.0525992
0.0521047
0.0515755
0.0510223
0.0504358
0.0498244
0.049181
0.0485125
0.0478138
0.0470904
0.0463391
0.0455639
0.0447627
0.0439395
0.0430925
0.0422261
0.0413387
0.0404352
0.0395144
0.0385808
0.0376341
0.0366787
0.0357154
0.0347492
0.0337802
0.032813
0.0318482
0.0308902
0.0299398
0.0290012
0.0280753
0.027166
0.0262732
0.0254003
0.0245422
0.0237044
0.0228854
0.0220892
0.0213145
0.0205639
0.0198376
0.0191371
0.0184593
0.0178044
0.0171713
0.0165598
0.0159684
0.0153963
0.014842
0.0143044
0.0137816
0.0132728
0.0127757
0.0122896
0.0118119
0.0113417
0.010877
0.0104167
0.00997994
0.00955217
0.00915252
0.00876242
0.008401
0.00805128
0.00773325
0.0074304
0.00717082
0.00692492
0.00676712
0.00669637
0.00669476
0.00702607
0.00721517
0.063279
0.0636233
0.0637769
0.0640806
0.0642822
0.0645646
0.0647841
0.0650417
0.0652616
0.0654952
0.0657067
0.0659167
0.0661144
0.0663003
0.066479
0.0666388
0.0667934
0.0669243
0.06705
0.0671486
0.0672405
0.067303
0.0673516
0.0673736
0.067381
0.0673643
0.0673182
0.0672487
0.0671503
0.0670239
0.0668676
0.0666795
0.0664589
0.0662029
0.065911
0.0655805
0.0652104
0.0648023
0.064356
0.0638686
0.0633407
0.0627675
0.0621506
0.0614881
0.0607794
0.0600247
0.0592227
0.0583751
0.0574805
0.0565417
0.0555575
0.0545312
0.0534624
0.0523549
0.0512088
0.0500281
0.0488137
0.0475698
0.046298
0.0450024
0.0436856
0.0423564
0.0410133
0.0396644
0.0383094
0.0369553
0.0356028
0.0342578
0.0329215
0.031599
0.0302918
0.0290046
0.0277388
0.0264983
0.0252847
0.0241007
0.0229474
0.0218201
0.0207234
0.0196559
0.0186203
0.0176166
0.0166458
0.0157087
0.0148052
0.0139349
0.0130934
0.0122802
0.0114932
0.0107337
0.00999944
0.00929237
0.00861176
0.00796619
0.00736497
0.00681506
0.00639967
0.00621056
0.00617155
0.00635773
0.0643983
0.0648971
0.0651205
0.0655493
0.06584
0.0662474
0.066573
0.0669623
0.0673065
0.0676824
0.0680357
0.0684014
0.0687577
0.0691148
0.0694696
0.0698181
0.0701678
0.0705069
0.0708484
0.0711764
0.0715065
0.0718212
0.0721364
0.0724359
0.0727332
0.0730136
0.0732879
0.0735461
0.073795
0.0740281
0.0742508
0.0744567
0.0746486
0.0748217
0.0749771
0.0751111
0.0752233
0.0753119
0.0753738
0.0754037
0.0754136
0.0753938
0.07533
0.075237
0.0750984
0.0749227
0.0746977
0.0744288
0.074106
0.0737328
0.0733008
0.0728124
0.0722611
0.0716492
0.0709717
0.0702281
0.0694177
0.0685399
0.0675932
0.0665787
0.065495
0.0643464
0.0631324
0.061856
0.0605167
0.0591195
0.0576637
0.0561556
0.0545944
0.0529874
0.051334
0.049642
0.0479107
0.046148
0.0443527
0.0425332
0.0406879
0.0388333
0.0369624
0.0350879
0.0332043
0.0313237
0.0294417
0.0275709
0.0257087
0.0238683
0.0220499
0.0202664
0.0185221
0.0168107
0.0151539
0.0135525
0.0120306
0.0105952
0.00928913
0.00808737
0.00708486
0.006353
0.00602961
0.00600199
0.0616884
0.0622016
0.0624357
0.0628664
0.0631693
0.0635803
0.0639203
0.064319
0.0646817
0.0650744
0.065452
0.0658428
0.0662304
0.0666214
0.067016
0.0674085
0.0678079
0.0682023
0.0686049
0.0690008
0.069405
0.0698017
0.0702057
0.0706017
0.0710029
0.0713952
0.0717894
0.0721724
0.0725517
0.0729144
0.073278
0.0736362
0.0739932
0.074345
0.0746947
0.0750402
0.075384
0.0757202
0.0760495
0.0763701
0.0766829
0.0769834
0.0772722
0.0775485
0.0778088
0.0780539
0.078279
0.0784855
0.0786679
0.0788274
0.0789589
0.0790625
0.0791283
0.0791586
0.0791664
0.0791263
0.0790461
0.0789222
0.0787472
0.0785208
0.0782331
0.0778844
0.0774631
0.0769683
0.0763884
0.0757258
0.0749703
0.0741251
0.0731761
0.0721298
0.0709724
0.0697123
0.0683389
0.0668623
0.0652746
0.0635876
0.0617961
0.0599113
0.0579293
0.0558599
0.0536995
0.0514552
0.0491219
0.0467037
0.0441937
0.0415941
0.0389004
0.0361134
0.0332377
0.0302959
0.0272915
0.0242444
0.0211837
0.0181548
0.0152712
0.0125288
0.010137
0.00809076
0.00662693
0.00592524
0.056391
0.0568329
0.0570355
0.0573992
0.0576498
0.058
0.0582793
0.0586207
0.0589203
0.0592573
0.059572
0.0599081
0.0602345
0.060572
0.0609078
0.0612482
0.0615916
0.0619356
0.0622851
0.0626329
0.0629873
0.0633385
0.0636962
0.06405
0.0644094
0.0647645
0.0651241
0.0654793
0.0658383
0.0661945
0.0665573
0.0669198
0.0672882
0.0676572
0.0680305
0.0684042
0.0687796
0.0691564
0.0695359
0.069917
0.0702999
0.0706836
0.0710685
0.0714533
0.0718377
0.0722211
0.0726022
0.0729813
0.0733576
0.0737293
0.0740928
0.0744461
0.0747837
0.0751023
0.0753928
0.0756411
0.0758602
0.0760669
0.0762429
0.0763982
0.0765202
0.0766174
0.0766828
0.0767209
0.0767366
0.0767343
0.0766595
0.0765575
0.0763866
0.0761714
0.0758841
0.075539
0.0751063
0.074598
0.073984
0.0732687
0.0724229
0.0714445
0.0703053
0.0689994
0.0675016
0.0658062
0.0638934
0.0617604
0.0593937
0.0567976
0.0539631
0.0508976
0.0475996
0.044078
0.0402936
0.0362293
0.031875
0.0272558
0.0225378
0.0182321
0.0144593
0.0116293
0.00943841
0.00727547
0.0497708
0.0500682
0.0502044
0.0504508
0.0506036
0.0508479
0.0510168
0.0512555
0.0514401
0.051674
0.0518723
0.0521035
0.0523131
0.0525434
0.0527623
0.052993
0.0532191
0.0534511
0.0536827
0.0539164
0.054152
0.0543873
0.0546255
0.0548621
0.0551021
0.0553399
0.0555813
0.055821
0.056065
0.056309
0.0565584
0.0568086
0.0570645
0.0573218
0.0575842
0.0578487
0.0581181
0.0583908
0.0586688
0.0589504
0.0592375
0.0595288
0.0598259
0.0601279
0.0604362
0.0607505
0.0610717
0.0613974
0.0617257
0.062056
0.0623859
0.0627147
0.0630396
0.0633596
0.0636726
0.0639804
0.064289
0.0645996
0.0649057
0.0652098
0.0654997
0.0657735
0.0660118
0.0662129
0.0664063
0.0665696
0.066719
0.066846
0.0669452
0.0670119
0.0670412
0.0670471
0.0669827
0.0668678
0.0666721
0.0663992
0.0660214
0.065536
0.0649169
0.0641576
0.0632344
0.0621395
0.0608526
0.0593674
0.0576692
0.0557606
0.0535956
0.0511705
0.0483581
0.0450788
0.0412967
0.0369308
0.0322151
0.0273304
0.0224709
0.0180487
0.0146164
0.0122364
0.0107439
0.00922559
0.0307312
0.0307698
0.0307734
0.0307691
0.0307483
0.0307384
0.0307113
0.0306981
0.0306681
0.030653
0.0306217
0.0306037
0.0305719
0.0305505
0.0305182
0.0304932
0.03046
0.0304312
0.0303967
0.0303642
0.0303277
0.0302915
0.0302527
0.0302131
0.0301718
0.0301291
0.0300854
0.03004
0.0299942
0.0299467
0.0298989
0.0298493
0.0297993
0.0297474
0.0296951
0.0296408
0.029586
0.0295296
0.0294724
0.0294136
0.0293539
0.0292925
0.0292301
0.0291658
0.0291
0.029032
0.0289616
0.0288875
0.0288098
0.0287276
0.0286405
0.0285481
0.0284501
0.0283465
0.0282371
0.028123
0.0280038
0.0278774
0.0277416
0.0275944
0.0274308
0.0272483
0.0270398
0.0268088
0.0265738
0.0263192
0.0260609
0.0257853
0.0254998
0.0251985
0.0248837
0.0245527
0.0241974
0.0238245
0.0234233
0.0229988
0.0225422
0.0220571
0.0215365
0.0209833
0.0203927
0.0197671
0.0191036
0.0184043
0.0176669
0.0168877
0.0160426
0.0150935
0.0139839
0.0126914
0.0111295
0.00920805
0.0070243
0.00492598
0.00301882
0.00232195
0.00260677
0.0052774
0.00862302
0.00984759
0.00947159
0.00467534
0.00403031
0.00390131
0.00387298
0.00389679
0.00381723
0.00378007
0.00376534
0.00376242
0.00378471
0.00385553
0.00413126
0.00471198
0.00546899
0.00654864
0.00691906
0.00690197
0.00576999
0.00340924
0.0077755
0.00468051
0.00428944
0.00418983
0.00416569
0.00404547
0.00396647
0.00393183
0.00391996
0.00392218
0.00397441
0.00416087
0.00455452
0.00513572
0.00621275
0.00686548
0.00700274
0.00676094
0.00519889
0.00279017
0.0062128
0.00478458
0.00460461
0.00454067
0.00436873
0.00426783
0.00419965
0.00417233
0.00416411
0.00417604
0.00430265
0.00456435
0.00504602
0.00598336
0.00679273
0.00704816
0.00703904
0.00648226
0.00457304
0.00216012
0.00579498
0.00511598
0.00503429
0.00479466
0.00463742
0.00452163
0.00446388
0.00443943
0.00443692
0.00453739
0.00476267
0.00519193
0.0060539
0.00686238
0.00719078
0.00725166
0.00697971
0.00603327
0.00379212
0.0015544
0.00591802
0.00548206
0.00534392
0.00505445
0.00493977
0.0048667
0.00484853
0.00488173
0.00499992
0.00528115
0.00567898
0.00650109
0.00717847
0.00748546
0.00757261
0.00739719
0.0067858
0.00541402
0.00295235
0.0010249
0.00628541
0.00593582
0.00580216
0.00561745
0.0055852
0.00559312
0.0057194
0.00594966
0.00636781
0.00688831
0.00750882
0.00799099
0.00819796
0.00824168
0.00796054
0.00733029
0.0063782
0.0046038
0.00190857
0.000564842
0.00721824
0.00709197
0.00707612
0.00710352
0.00737774
0.00769864
0.00824497
0.00894031
0.0096113
0.00981264
0.00987832
0.00974348
0.00941731
0.00884183
0.00802876
0.00708713
0.00566308
0.00350378
0.00115888
0.000249093
0.010864
0.0113005
0.0118033
0.012457
0.0134104
0.0143965
0.0148763
0.0150272
0.0140072
0.0134069
0.0123255
0.0115356
0.0103183
0.00918928
0.00785668
0.00646272
0.0044785
0.00226541
0.000649525
9.15153e-05
0.0252818
0.0257591
0.0259609
0.02596
0.0252701
0.0239053
0.0222535
0.0199809
0.018246
0.0162963
0.0145034
0.012687
0.0107566
0.00895955
0.00710797
0.00506144
0.00299956
0.00135822
0.000410989
4.54541e-05
0.0412025
0.0394225
0.0374552
0.0346652
0.0321321
0.0285487
0.0259167
0.0227502
0.0203601
0.0174818
0.0152213
0.0124887
0.0101576
0.00738452
0.00521487
0.00321423
0.00198151
0.000985287
0.000403452
7.62094e-05
0.037988
0.0364495
0.0348649
0.0323876
0.0302329
0.0269311
0.0245148
0.0216141
0.0194491
0.016798
0.0148038
0.0122157
0.0102567
0.00748157
0.00544806
0.00319727
0.00191675
0.000845057
0.0003174
6.3202e-05
0.020042
0.0209709
0.021487
0.0217439
0.0218292
0.0211225
0.0199164
0.0180584
0.0167568
0.0149699
0.0137719
0.0119505
0.0106155
0.00879413
0.00721492
0.00516467
0.00296726
0.00118424
0.000308292
4.25709e-05
0.00946086
0.00965785
0.0100642
0.010529
0.0113187
0.0122312
0.0130227
0.0133343
0.0131602
0.012236
0.0117893
0.0108615
0.0100329
0.00897988
0.00782113
0.00649149
0.00456206
0.00224254
0.000571086
5.15018e-05
0.00684529
0.00666329
0.00660823
0.00658157
0.00675175
0.00699143
0.00741749
0.00800873
0.00878706
0.00915805
0.00933568
0.00940378
0.00914669
0.00870749
0.00794911
0.00707325
0.00568307
0.00354168
0.00108139
0.000132595
0.0061034
0.00576784
0.00563646
0.00543423
0.00538398
0.00536989
0.00545092
0.00562428
0.00598407
0.00643762
0.00712547
0.00772446
0.00801245
0.0080914
0.00792505
0.00731066
0.00638865
0.00465563
0.00192166
0.000440499
0.00578409
0.00538146
0.005252
0.00496803
0.0048515
0.0047687
0.00474264
0.00475425
0.00485327
0.0050951
0.00547359
0.00624195
0.00702628
0.00738712
0.00749069
0.00738739
0.0067957
0.00545828
0.00301196
0.00094087
0.00567948
0.00501933
0.00494763
0.00474209
0.0045853
0.00447293
0.0044069
0.00437723
0.00436863
0.0044517
0.00466632
0.00506464
0.00588046
0.00677583
0.00715244
0.00722364
0.00698966
0.0060731
0.00386243
0.00151693
0.00618029
0.00472988
0.00453061
0.00446299
0.00432319
0.00421908
0.0041535
0.00412653
0.00411843
0.00412658
0.00424191
0.00449711
0.00495577
0.00585422
0.00674152
0.00703781
0.0070442
0.00651589
0.00464226
0.00216099
0.00780407
0.00465343
0.00425602
0.00414714
0.00411423
0.00402128
0.00393558
0.00389797
0.00388573
0.00388696
0.00393524
0.00410849
0.00449912
0.00507753
0.0061339
0.00684525
0.00700227
0.00678742
0.00525973
0.00281957
0.00947302
0.00465294
0.00399514
0.00386812
0.00383796
0.0038511
0.00379636
0.0037538
0.00373925
0.00373637
0.00375811
0.00382449
0.00407846
0.00463962
0.00541804
0.00652095
0.00691877
0.00692025
0.00582909
0.00345187
0.00397118
0.00375019
0.00374679
0.0037468
0.00374652
0.00374628
0.00374612
0.00374604
0.003746
0.00374598
0.00374598
0.003746
0.00374604
0.00374612
0.00374628
0.00374652
0.0037468
0.00374679
0.00375019
0.00397118
0.00441489
0.00375347
0.00374141
0.00374096
0.00374056
0.00374012
0.00373987
0.00373975
0.00373969
0.00373966
0.00373966
0.00373969
0.00373975
0.00373987
0.00374012
0.00374056
0.00374096
0.00374141
0.00375346
0.00441489
0.00485939
0.00376058
0.00373287
0.00373264
0.00373284
0.00373273
0.00373256
0.00373242
0.00373235
0.00373231
0.00373231
0.00373235
0.00373242
0.00373256
0.00373273
0.00373284
0.00373264
0.00373287
0.00376058
0.00485939
0.00530178
0.00377206
0.0037243
0.00372396
0.00372492
0.00372524
0.00372525
0.00372519
0.00372514
0.00372512
0.00372512
0.00372514
0.00372519
0.00372525
0.00372524
0.00372492
0.00372396
0.0037243
0.00377206
0.00530179
0.00573926
0.00378544
0.0037155
0.00371483
0.00371665
0.00371758
0.00371789
0.00371795
0.00371795
0.00371795
0.00371795
0.00371795
0.00371795
0.00371789
0.00371758
0.00371665
0.00371483
0.0037155
0.00378544
0.00573926
0.00617058
0.00379767
0.00370577
0.0037051
0.003708
0.00370969
0.00371043
0.0037107
0.00371078
0.0037108
0.0037108
0.00371078
0.0037107
0.00371043
0.00370969
0.003708
0.0037051
0.00370577
0.00379767
0.00617059
0.00659183
0.00380847
0.00369498
0.00369474
0.00369894
0.00370155
0.00370284
0.0037034
0.00370361
0.00370368
0.00370368
0.00370361
0.0037034
0.00370284
0.00370155
0.00369894
0.00369474
0.00369498
0.00380847
0.00659184
0.00700084
0.00381671
0.00368272
0.00368362
0.00368941
0.00369311
0.00369508
0.00369602
0.00369642
0.00369656
0.00369656
0.00369642
0.00369602
0.00369508
0.00369311
0.00368941
0.00368362
0.00368272
0.00381671
0.00700084
0.00739337
0.00382333
0.00366915
0.00367174
0.00367942
0.00368437
0.00368714
0.00368854
0.00368919
0.00368943
0.00368943
0.00368919
0.00368854
0.00368714
0.00368437
0.00367942
0.00367174
0.00366915
0.00382333
0.00739337
0.00776769
0.00382735
0.00365405
0.00365903
0.00366893
0.00367532
0.00367898
0.00368095
0.0036819
0.00368228
0.00368228
0.0036819
0.00368095
0.00367898
0.00367532
0.00366893
0.00365903
0.00365405
0.00382735
0.00776769
0.00812023
0.00383021
0.00363764
0.00364552
0.00365794
0.00366592
0.00367061
0.00367321
0.00367453
0.00367507
0.00367507
0.00367453
0.00367321
0.00367061
0.00366592
0.00365794
0.00364552
0.00363765
0.00383022
0.00812023
0.00845034
0.00383068
0.00361989
0.00363122
0.00364645
0.0036562
0.00366201
0.00366531
0.00366705
0.00366779
0.00366779
0.00366705
0.00366531
0.00366201
0.0036562
0.00364645
0.00363122
0.00361989
0.00383069
0.00845034
0.00875525
0.00383018
0.0036009
0.00361613
0.00363446
0.00364613
0.00365316
0.00365725
0.00365946
0.00366041
0.00366041
0.00365946
0.00365725
0.00365316
0.00364613
0.00363446
0.00361613
0.0036009
0.00383019
0.00875525
0.00903545
0.00382886
0.00358085
0.00360032
0.00362199
0.00363573
0.00364408
0.00364901
0.00365173
0.00365292
0.00365292
0.00365173
0.00364901
0.00364408
0.00363573
0.00362199
0.00360032
0.00358085
0.00382886
0.00903545
0.00928895
0.00382647
0.00355981
0.0035838
0.00360904
0.003625
0.00363475
0.00364059
0.00364385
0.00364531
0.00364531
0.00364385
0.00364059
0.00363475
0.003625
0.00360904
0.0035838
0.00355981
0.00382648
0.00928894
0.00951739
0.00382339
0.00353793
0.00356664
0.00359565
0.00361394
0.00362518
0.00363197
0.00363582
0.00363755
0.00363755
0.00363582
0.00363197
0.00362518
0.00361394
0.00359565
0.00356664
0.00353793
0.0038234
0.00951737
0.00971929
0.00382011
0.00351532
0.00354885
0.00358181
0.00360255
0.00361535
0.00362316
0.00362762
0.00362964
0.00362964
0.00362762
0.00362316
0.00361535
0.00360255
0.00358181
0.00354885
0.00351532
0.00382011
0.00971928
0.00989732
0.00381662
0.00349216
0.00353055
0.00356757
0.00359087
0.00360529
0.00361414
0.00361924
0.00362157
0.00362157
0.00361924
0.00361414
0.00360529
0.00359087
0.00356758
0.00353055
0.00349216
0.00381663
0.0098973
0.0100502
0.00381347
0.00346849
0.0035117
0.00355293
0.00357887
0.00359499
0.00360492
0.00361068
0.00361332
0.00361332
0.00361068
0.00360492
0.00359499
0.00357887
0.00355293
0.0035117
0.00346849
0.00381347
0.0100502
0.0101815
0.00381057
0.00344462
0.00349247
0.00353795
0.0035666
0.00358445
0.0035955
0.00360193
0.0036049
0.0036049
0.00360193
0.0035955
0.00358445
0.0035666
0.00353795
0.00349247
0.00344463
0.00381057
0.0101815
0.0102898
0.00380853
0.00342046
0.00347279
0.0035226
0.00355404
0.00357367
0.00358587
0.003593
0.0035963
0.0035963
0.003593
0.00358587
0.00357367
0.00355404
0.0035226
0.00347279
0.00342046
0.00380853
0.0102897
0.0103794
0.00380714
0.00339643
0.00345287
0.00350698
0.00354123
0.00356267
0.00357603
0.00358387
0.00358751
0.00358751
0.00358387
0.00357603
0.00356267
0.00354123
0.00350698
0.00345288
0.00339644
0.00380714
0.0103794
0.0104486
0.00380736
0.00337229
0.00343259
0.00349103
0.00352816
0.00355145
0.003566
0.00357455
0.00357853
0.00357853
0.00357455
0.003566
0.00355145
0.00352816
0.00349103
0.00343259
0.00337229
0.00380737