/*--------------------------------*- C++ -*----------------------------------*\
| =========                 |                                                 |
| \\      /  F ield         | OpenFOAM: The Open Source CFD Toolbox           |
|  \\    /   O peration     | Version:  2.1.0                                 |
|   \\  /    A nd           | Web:      www.OpenFOAM.org                      |
|    \\/     M anipulation  |                                                 |
\*---------------------------------------------------------------------------*/
FoamFile
{
    version     2.0;
    format      ascii;
    class       volScalarField;
    location    "0.34";
    object      nut;
}
// * * * * * * * * * * * * * * * * * * * * * * * * * * * * * * * * * * * * * //

dimensions      [0 2 -1 0 0 0 0];

internalField   nonuniform List<scalar> 
6400
(
7.12639e-06
7.14835e-06
7.16004e-06
7.17547e-06
7.19149e-06
7.20863e-06
7.22435e-06
7.24262e-06
7.25868e-06
7.2776e-06
7.29417e-06
7.31341e-06
7.33067e-06
7.35008e-06
7.36813e-06
7.38774e-06
7.40662e-06
7.42655e-06
7.44628e-06
7.46671e-06
7.48735e-06
7.50846e-06
7.5301e-06
7.55205e-06
7.57474e-06
7.59768e-06
7.62148e-06
7.64552e-06
7.67049e-06
7.69573e-06
7.72196e-06
7.74852e-06
7.77607e-06
7.80404e-06
7.83299e-06
7.86244e-06
7.89286e-06
7.92382e-06
7.95568e-06
7.98801e-06
8.02116e-06
8.05472e-06
8.08895e-06
8.12349e-06
8.15848e-06
8.19363e-06
8.229e-06
8.26433e-06
8.29963e-06
8.33467e-06
8.36939e-06
8.40346e-06
8.43638e-06
8.46739e-06
8.49616e-06
8.52532e-06
8.5536e-06
8.58254e-06
8.61037e-06
8.63894e-06
8.66701e-06
8.69563e-06
8.72413e-06
8.75281e-06
8.78144e-06
8.80983e-06
8.83843e-06
8.86653e-06
8.89298e-06
8.91931e-06
8.94327e-06
8.9668e-06
8.98758e-06
9.00772e-06
9.02547e-06
9.0429e-06
9.05944e-06
9.07729e-06
9.09736e-06
9.12235e-06
9.15432e-06
9.19553e-06
9.24535e-06
9.29452e-06
9.34622e-06
9.41083e-06
9.48024e-06
9.5465e-06
9.58666e-06
9.55813e-06
9.37504e-06
8.87363e-06
7.81255e-06
5.99727e-06
3.52891e-06
2.31509e-06
2.40506e-06
3.78008e-06
3.87584e-06
4.1822e-06
7.60108e-05
7.64481e-05
7.65367e-05
7.6812e-05
7.69102e-05
7.7136e-05
7.72513e-05
7.74442e-05
7.75734e-05
7.77432e-05
7.78802e-05
7.8033e-05
7.81723e-05
7.83117e-05
7.84486e-05
7.85764e-05
7.87075e-05
7.88248e-05
7.89479e-05
7.90554e-05
7.91694e-05
7.9268e-05
7.93727e-05
7.94639e-05
7.95606e-05
7.96443e-05
7.97323e-05
7.98081e-05
7.98862e-05
7.99533e-05
8.00205e-05
8.00775e-05
8.01327e-05
8.01778e-05
8.02191e-05
8.02503e-05
8.02754e-05
8.02898e-05
8.02993e-05
8.02962e-05
8.02844e-05
8.02588e-05
8.02207e-05
8.01664e-05
8.0095e-05
8.00034e-05
7.98896e-05
7.97505e-05
7.95837e-05
7.93865e-05
7.91568e-05
7.88972e-05
7.86103e-05
7.82813e-05
7.77482e-05
7.70898e-05
7.63926e-05
7.5658e-05
7.48823e-05
7.40642e-05
7.32092e-05
7.23154e-05
7.13837e-05
7.04124e-05
6.94018e-05
6.83452e-05
6.72458e-05
6.6112e-05
6.49149e-05
6.36705e-05
6.23632e-05
6.09994e-05
5.95679e-05
5.80724e-05
5.6505e-05
5.48691e-05
5.31601e-05
5.13824e-05
4.95353e-05
4.76247e-05
4.56546e-05
4.36343e-05
4.15739e-05
3.94728e-05
3.73047e-05
3.50564e-05
3.27193e-05
3.02817e-05
2.77295e-05
2.50615e-05
2.22918e-05
1.9461e-05
1.66501e-05
1.40021e-05
1.14997e-05
9.23045e-06
7.48961e-06
6.29055e-06
5.67583e-06
6.86793e-06
0.000115997
0.000116204
0.000116285
0.000116353
0.000116418
0.000116446
0.000116499
0.000116498
0.000116536
0.000116512
0.000116532
0.000116485
0.000116482
0.000116413
0.000116382
0.000116289
0.000116226
0.000116105
0.000116006
0.000115854
0.000115719
0.000115536
0.000115364
0.00011515
0.000114948
0.000114708
0.000114474
0.000114206
0.000113939
0.000113641
0.000113338
0.000113009
0.000112669
0.000112304
0.000111926
0.000111524
0.000111105
0.000110661
0.000110193
0.0001097
0.000109181
0.000108633
0.000108055
0.000107445
0.0001068
0.000106118
0.000105393
0.000104624
0.000103803
0.000102926
0.000101889
0.000100435
9.89555e-05
9.7426e-05
9.58755e-05
9.42862e-05
9.26706e-05
9.102e-05
8.93462e-05
8.76395e-05
8.59148e-05
8.41542e-05
8.23565e-05
8.05292e-05
7.86705e-05
7.67808e-05
7.48636e-05
7.29168e-05
7.0944e-05
6.89428e-05
6.69145e-05
6.48564e-05
6.27686e-05
6.06484e-05
5.84948e-05
5.63062e-05
5.40813e-05
5.1821e-05
4.95253e-05
4.71977e-05
4.48416e-05
4.24641e-05
4.00719e-05
3.76749e-05
3.52927e-05
3.29429e-05
3.06356e-05
2.83852e-05
2.61963e-05
2.4075e-05
2.19977e-05
1.99803e-05
1.80021e-05
1.59715e-05
1.39352e-05
1.19264e-05
1.01322e-05
8.61975e-06
8.12218e-06
1.13169e-05
0.000137592
0.000137226
0.000137084
0.000136751
0.000136605
0.00013625
0.000136076
0.000135705
0.000135493
0.000135105
0.000134851
0.000134446
0.000134149
0.000133722
0.000133381
0.000132929
0.000132543
0.000132063
0.00013163
0.000131114
0.000130626
0.000130061
0.000129507
0.000128555
0.000127558
0.000126511
0.000125462
0.000124373
0.000123275
0.000122143
0.000120998
0.00011982
0.000118626
0.000117402
0.000116158
0.000114884
0.000113588
0.000112265
0.000110917
0.000109541
0.000108139
0.00010671
0.000105253
0.00010377
0.000102258
0.000100721
9.91542e-05
9.75632e-05
9.59406e-05
9.42922e-05
9.26359e-05
9.09568e-05
8.92577e-05
8.75366e-05
8.58029e-05
8.40453e-05
8.22717e-05
8.04702e-05
7.86501e-05
7.68001e-05
7.49333e-05
7.30407e-05
7.11316e-05
6.92005e-05
6.72541e-05
6.52894e-05
6.33131e-05
6.13247e-05
5.93312e-05
5.73333e-05
5.53388e-05
5.33496e-05
5.13743e-05
4.94149e-05
4.74798e-05
4.55711e-05
4.36953e-05
4.18544e-05
4.00519e-05
3.82881e-05
3.65631e-05
3.48749e-05
3.32155e-05
3.15826e-05
2.9986e-05
2.83921e-05
2.68087e-05
2.5228e-05
2.3642e-05
2.20448e-05
2.04316e-05
1.87989e-05
1.71375e-05
1.5427e-05
1.36729e-05
1.19619e-05
1.0502e-05
9.77138e-06
1.19114e-05
1.20601e-05
0.000138267
0.000138213
0.000137939
0.000137713
0.000136951
0.000136304
0.000135397
0.000134572
0.000133614
0.000132692
0.000131702
0.000130714
0.000129693
0.000128653
0.000127598
0.000126509
0.000125415
0.00012428
0.000123143
0.000121964
0.00012078
0.000119557
0.000118327
0.000117068
0.000115807
0.000114508
0.000113208
0.000111874
0.000110537
0.00010917
0.000107796
0.000106396
0.000104986
0.000103552
0.000102107
0.000100638
9.91488e-05
9.76561e-05
9.61456e-05
9.46125e-05
9.30671e-05
9.15054e-05
8.9929e-05
8.834e-05
8.67362e-05
8.51233e-05
8.3497e-05
8.18648e-05
8.02229e-05
7.85784e-05
7.69281e-05
7.5276e-05
7.3619e-05
7.19566e-05
7.02921e-05
6.86283e-05
6.69675e-05
6.53092e-05
6.36589e-05
6.2014e-05
6.03821e-05
5.87598e-05
5.71553e-05
5.55649e-05
5.39953e-05
5.24433e-05
5.09143e-05
4.94054e-05
4.79202e-05
4.64556e-05
4.50089e-05
4.35846e-05
4.21904e-05
4.07963e-05
3.94343e-05
3.80725e-05
3.67313e-05
3.53874e-05
3.40538e-05
3.27118e-05
3.13704e-05
3.00171e-05
2.86581e-05
2.72904e-05
2.59176e-05
2.45401e-05
2.31688e-05
2.1797e-05
2.04443e-05
1.91091e-05
1.78089e-05
1.65432e-05
1.53334e-05
1.41649e-05
1.30881e-05
1.22656e-05
1.20836e-05
1.3749e-05
1.3786e-05
1.41245e-05
0.000124584
0.000123839
0.000123429
0.000122834
0.000121934
0.000121004
0.000119945
0.000118875
0.000117755
0.000116617
0.000115468
0.000114289
0.000113119
0.000111912
0.000110723
0.000109494
0.000108287
0.000107041
0.000105807
0.000104556
0.000103314
0.000102042
0.000100781
9.94894e-05
9.82085e-05
9.68965e-05
9.55963e-05
9.42689e-05
9.29486e-05
9.16051e-05
9.02655e-05
8.89064e-05
8.75492e-05
8.61761e-05
8.48043e-05
8.34196e-05
8.20373e-05
8.06459e-05
7.92562e-05
7.78612e-05
7.64703e-05
7.50772e-05
7.36895e-05
7.23034e-05
7.09239e-05
6.95499e-05
6.81833e-05
6.68254e-05
6.54762e-05
6.41371e-05
6.28072e-05
6.14878e-05
6.01792e-05
5.88814e-05
5.75958e-05
5.63219e-05
5.50616e-05
5.38181e-05
5.25848e-05
5.13646e-05
5.01558e-05
4.89577e-05
4.77701e-05
4.65915e-05
4.54215e-05
4.42581e-05
4.31015e-05
4.19502e-05
4.08047e-05
3.96637e-05
3.85281e-05
3.7401e-05
3.62803e-05
3.51671e-05
3.40605e-05
3.29611e-05
3.18724e-05
3.07931e-05
2.97323e-05
2.86827e-05
2.76526e-05
2.66381e-05
2.56459e-05
2.46722e-05
2.37234e-05
2.27938e-05
2.18864e-05
2.10011e-05
2.01518e-05
1.93375e-05
1.8576e-05
1.7874e-05
1.72613e-05
1.67736e-05
1.65366e-05
1.66347e-05
1.6061e-05
1.58177e-05
1.57925e-05
1.32054e-05
0.000108922
0.000107651
0.000107122
0.000106219
0.000105324
0.000104224
0.000103188
0.000102016
0.000100924
9.97303e-05
9.86157e-05
9.74172e-05
9.62927e-05
9.50969e-05
9.39685e-05
9.2779e-05
9.16512e-05
9.04713e-05
8.93509e-05
8.81837e-05
8.70624e-05
8.59068e-05
8.47929e-05
8.36466e-05
8.2539e-05
8.14057e-05
8.03068e-05
7.91872e-05
7.80969e-05
7.69905e-05
7.59092e-05
7.48158e-05
7.37437e-05
7.26629e-05
7.16002e-05
7.05312e-05
6.9478e-05
6.842e-05
6.73735e-05
6.63233e-05
6.52958e-05
6.42553e-05
6.32362e-05
6.22085e-05
6.11979e-05
6.01823e-05
5.91799e-05
5.81755e-05
5.7182e-05
5.61887e-05
5.52045e-05
5.42229e-05
5.3251e-05
5.22851e-05
5.13295e-05
5.03733e-05
4.94291e-05
4.84892e-05
4.75595e-05
4.66368e-05
4.5726e-05
4.48255e-05
4.39399e-05
4.30679e-05
4.22109e-05
4.13718e-05
4.05537e-05
3.97541e-05
3.89771e-05
3.82213e-05
3.74892e-05
3.67762e-05
3.60853e-05
3.54141e-05
3.47632e-05
3.41305e-05
3.35143e-05
3.29116e-05
3.22386e-05
3.12764e-05
3.03328e-05
2.93923e-05
2.84709e-05
2.75543e-05
2.66574e-05
2.57675e-05
2.4899e-05
2.4041e-05
2.32094e-05
2.23961e-05
2.16195e-05
2.08758e-05
2.01826e-05
1.95491e-05
1.90025e-05
1.86034e-05
1.83418e-05
1.82405e-05
1.89335e-05
1.49372e-05
9.84912e-05
9.66512e-05
9.61232e-05
9.50191e-05
9.42132e-05
9.30318e-05
9.21234e-05
9.0946e-05
9.00072e-05
8.88646e-05
8.79247e-05
8.68239e-05
8.58933e-05
8.48319e-05
8.39131e-05
8.28854e-05
8.19774e-05
8.09756e-05
8.00764e-05
7.89002e-05
7.77114e-05
7.6434e-05
7.52517e-05
7.39961e-05
7.28541e-05
7.16386e-05
7.05307e-05
6.93617e-05
6.82957e-05
6.71795e-05
6.6162e-05
6.51037e-05
6.41387e-05
6.31404e-05
6.22311e-05
6.12957e-05
6.04452e-05
5.95743e-05
5.87843e-05
5.79779e-05
5.72443e-05
5.64984e-05
5.58177e-05
5.51288e-05
5.44988e-05
5.38621e-05
5.32791e-05
5.26898e-05
5.21488e-05
5.1601e-05
5.1096e-05
5.05838e-05
5.01045e-05
4.96179e-05
4.91603e-05
4.86934e-05
4.82489e-05
4.77921e-05
4.73495e-05
4.68924e-05
4.64437e-05
4.59786e-05
4.55097e-05
4.50268e-05
4.45582e-05
4.40592e-05
4.35661e-05
4.30602e-05
4.256e-05
4.20471e-05
4.15392e-05
4.10194e-05
4.05039e-05
3.9977e-05
3.94533e-05
3.89185e-05
3.83858e-05
3.78421e-05
3.72996e-05
3.67431e-05
3.61821e-05
3.56003e-05
3.50083e-05
3.43912e-05
3.37571e-05
3.30925e-05
3.24041e-05
3.16809e-05
3.09309e-05
3.01484e-05
2.93473e-05
2.85328e-05
2.77306e-05
2.69629e-05
2.63246e-05
2.58512e-05
2.54697e-05
2.56205e-05
2.61488e-05
2.05172e-05
8.14084e-05
7.93228e-05
7.84793e-05
7.69163e-05
7.60508e-05
7.45918e-05
7.3725e-05
7.23434e-05
7.15007e-05
7.01884e-05
6.93714e-05
6.81303e-05
6.73429e-05
6.6174e-05
6.542e-05
6.43247e-05
6.36079e-05
6.25877e-05
6.19122e-05
6.09682e-05
6.03422e-05
5.94825e-05
5.89096e-05
5.81336e-05
5.76182e-05
5.69218e-05
5.64642e-05
5.58443e-05
5.54424e-05
5.48954e-05
5.45453e-05
5.4067e-05
5.37652e-05
5.33531e-05
5.30946e-05
5.27433e-05
5.25215e-05
5.22241e-05
5.20349e-05
5.1783e-05
5.16212e-05
5.14062e-05
5.12671e-05
5.10817e-05
5.09604e-05
5.07978e-05
5.068e-05
5.0536e-05
5.04483e-05
5.03231e-05
5.02126e-05
5.00876e-05
5.00001e-05
4.98908e-05
4.98114e-05
4.97161e-05
4.96448e-05
4.95639e-05
4.95051e-05
4.94411e-05
4.93962e-05
4.93498e-05
4.93193e-05
4.929e-05
4.92741e-05
4.92617e-05
4.92642e-05
4.92691e-05
4.92872e-05
4.93091e-05
4.93433e-05
4.93814e-05
4.94304e-05
4.94835e-05
4.95459e-05
4.96116e-05
4.96844e-05
4.97587e-05
4.9837e-05
4.99141e-05
4.99903e-05
5.00597e-05
5.01209e-05
5.01667e-05
5.01936e-05
5.01931e-05
5.01587e-05
5.00808e-05
4.99523e-05
4.97642e-05
4.95121e-05
4.9194e-05
4.88151e-05
4.83874e-05
4.79378e-05
4.75459e-05
4.74079e-05
4.75032e-05
4.80368e-05
3.97958e-05
7.37394e-05
7.18664e-05
7.11171e-05
6.97108e-05
6.90104e-05
6.76853e-05
6.70297e-05
6.57914e-05
6.5182e-05
6.40323e-05
6.34707e-05
6.24107e-05
6.18982e-05
6.09275e-05
6.04643e-05
5.95821e-05
5.91677e-05
5.83721e-05
5.80055e-05
5.72932e-05
5.69735e-05
5.63399e-05
5.60643e-05
5.55043e-05
5.52695e-05
5.47772e-05
5.45799e-05
5.41546e-05
5.39822e-05
5.36269e-05
5.34677e-05
5.31727e-05
5.30272e-05
5.28057e-05
5.26664e-05
5.25054e-05
5.23732e-05
5.22413e-05
5.21327e-05
5.20329e-05
5.19572e-05
5.18775e-05
5.18287e-05
5.17727e-05
5.1749e-05
5.17181e-05
5.17176e-05
5.1712e-05
5.17342e-05
5.17521e-05
5.17957e-05
5.18395e-05
5.19078e-05
5.1978e-05
5.20714e-05
5.21686e-05
5.22876e-05
5.24122e-05
5.25567e-05
5.27084e-05
5.2879e-05
5.30585e-05
5.32565e-05
5.34657e-05
5.36925e-05
5.39321e-05
5.41887e-05
5.44595e-05
5.47473e-05
5.50505e-05
5.53708e-05
5.5708e-05
5.60632e-05
5.64367e-05
5.68293e-05
5.72421e-05
5.76753e-05
5.81309e-05
5.8609e-05
5.9112e-05
5.96401e-05
6.01963e-05
6.07811e-05
6.1398e-05
6.20481e-05
6.27358e-05
6.34634e-05
6.4237e-05
6.50597e-05
6.59388e-05
6.68793e-05
6.78895e-05
6.89761e-05
7.01486e-05
7.14118e-05
7.27612e-05
7.41663e-05
7.56345e-05
7.63561e-05
6.62135e-05
8.04977e-05
7.84265e-05
7.7614e-05
7.60281e-05
7.52295e-05
7.37349e-05
7.29545e-05
7.15551e-05
7.07995e-05
6.94986e-05
6.87747e-05
6.75743e-05
6.68873e-05
6.57881e-05
6.51478e-05
6.41454e-05
6.35571e-05
6.26481e-05
6.21151e-05
6.12958e-05
6.08189e-05
6.0085e-05
5.96636e-05
5.901e-05
5.86418e-05
5.80632e-05
5.77449e-05
5.72357e-05
5.69626e-05
5.65172e-05
5.62833e-05
5.58964e-05
5.56958e-05
5.53617e-05
5.51881e-05
5.4901e-05
5.47486e-05
5.45026e-05
5.43619e-05
5.41492e-05
5.40363e-05
5.38741e-05
5.37463e-05
5.36127e-05
5.34941e-05
5.33963e-05
5.33028e-05
5.32256e-05
5.3156e-05
5.31e-05
5.30542e-05
5.30204e-05
5.29985e-05
5.2988e-05
5.29905e-05
5.30025e-05
5.30306e-05
5.30694e-05
5.31238e-05
5.31898e-05
5.32699e-05
5.33629e-05
5.34703e-05
5.3592e-05
5.37274e-05
5.38785e-05
5.40427e-05
5.42236e-05
5.44173e-05
5.46282e-05
5.48512e-05
5.50924e-05
5.53462e-05
5.56187e-05
5.59041e-05
5.62094e-05
5.6529e-05
5.68698e-05
5.72267e-05
5.76064e-05
5.80047e-05
5.84282e-05
5.88731e-05
5.93462e-05
5.98447e-05
6.0375e-05
6.0935e-05
6.15306e-05
6.21604e-05
6.28306e-05
6.35442e-05
6.4316e-05
6.5148e-05
6.6058e-05
6.70604e-05
6.81797e-05
6.94575e-05
7.0869e-05
7.19221e-05
6.30478e-05
0.000100259
9.80219e-05
9.70983e-05
9.5358e-05
9.43588e-05
9.27039e-05
9.16397e-05
9.00582e-05
8.89436e-05
8.74305e-05
8.62801e-05
8.48423e-05
8.36685e-05
8.2267e-05
8.1116e-05
7.97625e-05
7.86388e-05
7.73365e-05
7.62476e-05
7.50027e-05
7.39558e-05
7.27733e-05
7.17747e-05
7.06585e-05
6.97136e-05
6.8667e-05
6.77781e-05
6.6804e-05
6.59756e-05
6.50755e-05
6.4309e-05
6.34824e-05
6.27788e-05
6.20245e-05
6.13834e-05
6.06979e-05
6.01155e-05
5.9495e-05
5.8968e-05
5.84081e-05
5.79321e-05
5.74275e-05
5.69954e-05
5.6538e-05
5.61406e-05
5.57241e-05
5.53556e-05
5.4972e-05
5.46257e-05
5.42668e-05
5.39366e-05
5.35955e-05
5.32714e-05
5.2935e-05
5.26304e-05
5.23175e-05
5.20103e-05
5.171e-05
5.1414e-05
5.1133e-05
5.08522e-05
5.05676e-05
5.02905e-05
5.00294e-05
4.97655e-05
4.95166e-05
4.92645e-05
4.90277e-05
4.8789e-05
4.85623e-05
4.83304e-05
4.81067e-05
4.78759e-05
4.76493e-05
4.74116e-05
4.7174e-05
4.69217e-05
4.6665e-05
4.639e-05
4.61061e-05
4.58021e-05
4.54871e-05
4.51495e-05
4.47981e-05
4.44227e-05
4.40321e-05
4.36178e-05
4.31898e-05
4.27414e-05
4.22846e-05
4.18121e-05
4.13269e-05
4.08411e-05
4.03853e-05
3.99881e-05
3.97142e-05
3.96523e-05
3.99313e-05
4.05818e-05
3.43104e-05
0.00010739
0.000105878
0.000105212
0.000104087
0.000103156
0.000101926
0.000100877
9.96258e-05
9.85307e-05
9.72932e-05
9.61833e-05
9.49708e-05
9.38631e-05
9.26769e-05
9.15802e-05
9.04199e-05
8.93367e-05
8.82014e-05
8.71333e-05
8.60222e-05
8.49695e-05
8.3881e-05
8.28439e-05
8.17768e-05
8.07549e-05
7.97042e-05
7.86995e-05
7.76711e-05
7.66818e-05
7.56701e-05
7.46936e-05
7.37021e-05
7.27405e-05
7.17688e-05
7.08227e-05
6.98714e-05
6.89434e-05
6.80042e-05
6.7075e-05
6.614e-05
6.52162e-05
6.42915e-05
6.3379e-05
6.24711e-05
6.15771e-05
6.06909e-05
5.98233e-05
5.89668e-05
5.81325e-05
5.73118e-05
5.6514e-05
5.57328e-05
5.49763e-05
5.42377e-05
5.35237e-05
5.28266e-05
5.21623e-05
5.1518e-05
5.0787e-05
5.00233e-05
4.92653e-05
4.85081e-05
4.77535e-05
4.69926e-05
4.62278e-05
4.54549e-05
4.46754e-05
4.38858e-05
4.30807e-05
4.22688e-05
4.14648e-05
4.06549e-05
3.98342e-05
3.90188e-05
3.8195e-05
3.73782e-05
3.6555e-05
3.57407e-05
3.49227e-05
3.41162e-05
3.33044e-05
3.2503e-05
3.17006e-05
3.09125e-05
3.01284e-05
2.93633e-05
2.86035e-05
2.78645e-05
2.71377e-05
2.64414e-05
2.5769e-05
2.51434e-05
2.45553e-05
2.40386e-05
2.36628e-05
2.33569e-05
2.33404e-05
2.36156e-05
2.43654e-05
1.8907e-05
0.000121689
0.000120592
0.000120049
0.000119184
0.000118207
0.000117077
0.000115936
0.000114713
0.000113488
0.000112211
0.000110947
0.000109635
0.000108348
0.000107021
0.000105724
0.000104386
0.000103077
0.00010173
0.00010041
9.90545e-05
9.77246e-05
9.63624e-05
9.50241e-05
9.36591e-05
9.23152e-05
9.0949e-05
8.96011e-05
8.8238e-05
8.68889e-05
8.55291e-05
8.41813e-05
8.28282e-05
8.14861e-05
8.01418e-05
7.88081e-05
7.74757e-05
7.61543e-05
7.48391e-05
7.35368e-05
7.22416e-05
7.09588e-05
6.9683e-05
6.84172e-05
6.71582e-05
6.59177e-05
6.46769e-05
6.34505e-05
6.22277e-05
6.10168e-05
5.98113e-05
5.86175e-05
5.743e-05
5.62533e-05
5.50836e-05
5.39245e-05
5.27735e-05
5.16339e-05
5.05058e-05
4.93917e-05
4.82917e-05
4.72083e-05
4.61335e-05
4.5071e-05
4.40199e-05
4.29858e-05
4.1967e-05
4.09673e-05
3.99901e-05
3.90391e-05
3.81117e-05
3.72114e-05
3.63379e-05
3.54938e-05
3.46784e-05
3.38895e-05
3.3126e-05
3.23895e-05
3.16767e-05
3.09895e-05
3.03233e-05
2.96751e-05
2.9045e-05
2.84306e-05
2.78307e-05
2.68345e-05
2.58636e-05
2.49016e-05
2.39994e-05
2.31105e-05
2.22858e-05
2.1481e-05
2.0748e-05
2.00413e-05
1.94201e-05
1.88121e-05
1.84045e-05
1.81764e-05
1.79871e-05
1.87211e-05
1.44601e-05
0.000138288
0.000137699
0.000137299
0.000136746
0.000135777
0.000134812
0.000133655
0.000132513
0.000131278
0.000130046
0.000128769
0.000127481
0.000126173
0.000124843
0.000123507
0.00012214
0.000120774
0.000119374
0.000117979
0.00011655
0.000115127
0.00011367
0.000112213
0.000110733
0.000109256
0.000107767
0.000106263
0.000104754
0.000103237
0.000101715
0.000100188
9.86488e-05
9.71008e-05
9.55409e-05
9.39721e-05
9.23929e-05
9.08057e-05
8.92154e-05
8.76246e-05
8.60318e-05
8.44401e-05
8.28455e-05
8.12529e-05
7.96611e-05
7.80725e-05
7.64878e-05
7.49083e-05
7.33364e-05
7.17723e-05
7.02191e-05
6.86767e-05
6.71481e-05
6.56329e-05
6.41338e-05
6.26496e-05
6.1182e-05
5.97304e-05
5.82958e-05
5.68746e-05
5.54749e-05
5.40929e-05
5.27272e-05
5.13857e-05
5.00587e-05
4.87523e-05
4.74586e-05
4.61813e-05
4.49139e-05
4.36591e-05
4.24117e-05
4.1174e-05
3.99422e-05
3.87178e-05
3.74988e-05
3.6291e-05
3.5091e-05
3.39012e-05
3.2719e-05
3.15452e-05
3.03833e-05
2.92312e-05
2.8097e-05
2.69764e-05
2.58783e-05
2.47955e-05
2.37355e-05
2.26948e-05
2.16784e-05
2.06835e-05
1.97136e-05
1.87836e-05
1.7889e-05
1.70624e-05
1.63838e-05
1.59424e-05
1.6112e-05
1.60763e-05
1.58668e-05
1.58835e-05
1.31686e-05
0.000149741
0.000149932
0.000149672
0.000149502
0.000148708
0.000148049
0.000147085
0.000146221
0.000145196
0.000144222
0.00014316
0.000142114
0.000141018
0.000139914
0.000138782
0.000137627
0.000136456
0.000135253
0.000134039
0.000132791
0.000131534
0.00013024
0.000128937
0.0001276
0.000126251
0.000124869
0.000123472
0.000122048
0.000120604
0.000119143
0.000117668
0.000116169
0.000114655
0.00011312
0.00011157
0.000110001
0.000108415
0.000106813
0.000105192
0.000103548
0.0001019
0.000100238
9.85463e-05
9.68476e-05
9.51246e-05
9.33915e-05
9.16375e-05
8.98725e-05
8.80894e-05
8.62961e-05
8.4488e-05
8.26719e-05
8.08454e-05
7.90157e-05
7.71808e-05
7.53448e-05
7.35092e-05
7.16729e-05
6.98362e-05
6.80026e-05
6.61735e-05
6.43553e-05
6.25496e-05
6.07602e-05
5.89885e-05
5.72392e-05
5.55124e-05
5.38122e-05
5.21378e-05
5.0493e-05
4.8876e-05
4.72897e-05
4.57306e-05
4.4195e-05
4.26861e-05
4.12136e-05
3.97416e-05
3.83055e-05
3.68694e-05
3.54541e-05
3.40323e-05
3.26168e-05
3.11868e-05
2.97513e-05
2.82934e-05
2.68226e-05
2.53335e-05
2.38292e-05
2.23183e-05
2.07984e-05
1.92852e-05
1.77758e-05
1.62703e-05
1.48333e-05
1.34977e-05
1.24424e-05
1.20867e-05
1.36317e-05
1.38496e-05
1.43383e-05
0.000142698
0.000142415
0.000142303
0.000142003
0.000141874
0.000141545
0.000141383
0.000141035
0.000140834
0.000140471
0.000140228
0.000139849
0.000139565
0.000139164
0.000138835
0.000138409
0.000138035
0.00013758
0.000137161
0.000136672
0.000136206
0.000135679
0.000135164
0.000134595
0.000134027
0.000133408
0.00013278
0.000132102
0.000131403
0.000130404
0.000129216
0.000127997
0.000126757
0.000125492
0.000124209
0.000122905
0.000121584
0.000120236
0.000118865
0.000117467
0.000116046
0.000114595
0.000113117
0.000111612
0.000110077
0.000108515
0.000106921
0.000105299
0.000103645
0.000101963
0.000100249
9.85077e-05
9.67288e-05
9.49205e-05
9.3101e-05
9.12461e-05
8.93711e-05
8.74716e-05
8.55473e-05
8.36036e-05
8.16364e-05
7.96516e-05
7.7643e-05
7.56155e-05
7.35602e-05
7.14845e-05
6.93845e-05
6.7269e-05
6.5132e-05
6.29854e-05
6.08241e-05
5.86613e-05
5.64948e-05
5.43383e-05
5.21914e-05
5.00681e-05
4.79686e-05
4.59054e-05
4.38783e-05
4.18966e-05
3.99584e-05
3.80686e-05
3.62219e-05
3.44182e-05
3.26386e-05
3.0888e-05
2.91789e-05
2.7445e-05
2.57287e-05
2.39853e-05
2.22257e-05
2.0411e-05
1.85297e-05
1.65854e-05
1.46501e-05
1.27174e-05
1.10555e-05
1.00849e-05
1.19776e-05
1.21318e-05
0.000117566
0.00011782
0.000117918
0.000118013
0.000118091
0.000118146
0.000118212
0.000118239
0.000118292
0.000118296
0.000118331
0.000118313
0.000118327
0.00011829
0.000118282
0.000118224
0.000118191
0.000118111
0.00011805
0.000117946
0.000117855
0.000117724
0.000117599
0.000117438
0.000117276
0.00011708
0.000116879
0.000116645
0.000116403
0.000116132
0.000115856
0.000115557
0.00011525
0.000114922
0.000114582
0.000114222
0.000113845
0.000113452
0.000113035
0.000112597
0.000112134
0.000111646
0.000111131
0.000110587
0.000110011
0.0001094
0.000108758
0.000108085
0.000107381
0.000106646
0.00010587
0.000105049
0.000104177
0.00010325
0.000102258
0.000101008
9.93874e-05
9.77265e-05
9.60099e-05
9.42563e-05
9.2455e-05
9.06205e-05
8.87484e-05
8.68497e-05
8.49274e-05
8.29898e-05
8.09814e-05
7.89572e-05
7.68784e-05
7.47766e-05
7.26297e-05
7.04577e-05
6.82395e-05
6.59933e-05
6.36999e-05
6.1372e-05
5.89939e-05
5.65744e-05
5.41022e-05
5.15849e-05
4.90167e-05
4.64076e-05
4.37588e-05
4.10847e-05
3.83941e-05
3.57095e-05
3.30472e-05
3.0434e-05
2.78932e-05
2.54483e-05
2.30748e-05
2.07807e-05
1.85575e-05
1.63107e-05
1.41392e-05
1.21386e-05
1.03231e-05
8.9263e-06
8.38254e-06
1.15417e-05
7.51455e-05
7.55976e-05
7.56824e-05
7.59665e-05
7.60606e-05
7.62952e-05
7.64086e-05
7.66111e-05
7.67411e-05
7.69218e-05
7.70628e-05
7.72285e-05
7.73754e-05
7.75302e-05
7.76786e-05
7.78248e-05
7.79713e-05
7.81097e-05
7.82514e-05
7.8382e-05
7.85166e-05
7.86386e-05
7.8764e-05
7.88765e-05
7.89909e-05
7.9093e-05
7.91957e-05
7.92872e-05
7.93787e-05
7.9461e-05
7.95433e-05
7.96168e-05
7.96884e-05
7.97513e-05
7.981e-05
7.98593e-05
7.9902e-05
7.99347e-05
7.99624e-05
7.99807e-05
7.99918e-05
7.99935e-05
7.99867e-05
7.99701e-05
7.99444e-05
7.99089e-05
7.98645e-05
7.98074e-05
7.97342e-05
7.96434e-05
7.95308e-05
7.93948e-05
7.92314e-05
7.90388e-05
7.88135e-05
7.85566e-05
7.82759e-05
7.79734e-05
7.76394e-05
7.72771e-05
7.68721e-05
7.64225e-05
7.5854e-05
7.49576e-05
7.40138e-05
7.30035e-05
7.19477e-05
7.08402e-05
6.96759e-05
6.84518e-05
6.71642e-05
6.58289e-05
6.44019e-05
6.29065e-05
6.13185e-05
5.96478e-05
5.78765e-05
5.60115e-05
5.40408e-05
5.19714e-05
4.97973e-05
4.75274e-05
4.51619e-05
4.27126e-05
4.01863e-05
3.7602e-05
3.49483e-05
3.22456e-05
2.94443e-05
2.65394e-05
2.35614e-05
2.05095e-05
1.75269e-05
1.46563e-05
1.19637e-05
9.59807e-06
7.7803e-06
6.54647e-06
5.87649e-06
6.77479e-06
6.97214e-06
6.99089e-06
7.00326e-06
7.01937e-06
7.03364e-06
7.05183e-06
7.06696e-06
7.08614e-06
7.10204e-06
7.12202e-06
7.13878e-06
7.15924e-06
7.17702e-06
7.19784e-06
7.21668e-06
7.23786e-06
7.25774e-06
7.27933e-06
7.30021e-06
7.32229e-06
7.34413e-06
7.3668e-06
7.3896e-06
7.41298e-06
7.43678e-06
7.46106e-06
7.48598e-06
7.51136e-06
7.53755e-06
7.56424e-06
7.59183e-06
7.61995e-06
7.64904e-06
7.67871e-06
7.7094e-06
7.74079e-06
7.77328e-06
7.80661e-06
7.84111e-06
7.87658e-06
7.91332e-06
7.95115e-06
7.99035e-06
8.03076e-06
8.07263e-06
8.11577e-06
8.16032e-06
8.20602e-06
8.25298e-06
8.30112e-06
8.35044e-06
8.40103e-06
8.45289e-06
8.50628e-06
8.56133e-06
8.61849e-06
8.67782e-06
8.73892e-06
8.80124e-06
8.86443e-06
8.92705e-06
8.98857e-06
9.04683e-06
9.10304e-06
9.16375e-06
9.22389e-06
9.28937e-06
9.35582e-06
9.42645e-06
9.49965e-06
9.57696e-06
9.65814e-06
9.74074e-06
9.82834e-06
9.91744e-06
1.00111e-05
1.01066e-05
1.02066e-05
1.0309e-05
1.04163e-05
1.05276e-05
1.06456e-05
1.07702e-05
1.09045e-05
1.1049e-05
1.12036e-05
1.13524e-05
1.14627e-05
1.14722e-05
1.13188e-05
1.08401e-05
9.78714e-06
8.0478e-06
5.91417e-06
3.63822e-06
2.64424e-06
2.56038e-06
3.92019e-06
4.02016e-06
4.33219e-06
1.09389e-05
2.07704e-06
2.60032e-06
3.51717e-06
4.54804e-06
5.62246e-06
6.48634e-06
7.33572e-06
8.14897e-06
8.90521e-06
9.61853e-06
1.03349e-05
1.14505e-05
1.33227e-05
1.5458e-05
1.78466e-05
1.76004e-05
1.555e-05
1.02967e-05
3.99904e-06
5.87755e-06
2.18585e-06
2.47485e-06
3.1838e-06
4.05555e-06
4.86315e-06
5.69251e-06
6.55156e-06
7.41492e-06
8.29783e-06
9.26982e-06
1.0365e-05
1.2015e-05
1.40809e-05
1.7033e-05
1.8316e-05
1.7492e-05
1.47181e-05
9.54085e-06
3.9721e-06
4.9445e-06
2.69498e-06
2.90067e-06
3.41606e-06
4.01052e-06
4.71712e-06
5.48087e-06
6.3151e-06
7.22042e-06
8.38474e-06
9.50278e-06
1.10088e-05
1.29201e-05
1.58089e-05
1.80107e-05
1.82988e-05
1.71537e-05
1.40152e-05
8.88481e-06
3.84929e-06
5.0555e-06
3.43921e-06
3.63799e-06
3.8757e-06
4.3687e-06
4.92879e-06
5.67296e-06
6.58049e-06
7.71208e-06
9.48001e-06
1.12002e-05
1.29302e-05
1.57059e-05
1.8193e-05
1.91779e-05
1.8806e-05
1.70268e-05
1.32501e-05
7.98976e-06
3.27193e-06
5.68826e-06
4.47737e-06
4.6172e-06
4.63435e-06
5.19456e-06
5.69253e-06
6.58437e-06
7.83994e-06
9.59347e-06
1.30824e-05
1.47497e-05
1.70543e-05
1.93199e-05
2.04082e-05
2.04145e-05
1.92086e-05
1.65507e-05
1.25085e-05
6.91498e-06
2.39131e-06
6.89542e-06
5.97776e-06
6.04916e-06
6.02771e-06
6.77321e-06
7.76683e-06
9.34657e-06
1.15963e-05
1.60933e-05
1.94804e-05
2.09515e-05
2.23404e-05
2.30357e-05
2.28396e-05
2.16552e-05
1.91152e-05
1.59649e-05
1.15919e-05
5.17939e-06
1.47222e-06
9.0439e-06
8.6284e-06
8.85959e-06
9.4612e-06
1.11753e-05
1.36591e-05
1.70636e-05
2.19998e-05
2.87306e-05
2.93808e-05
2.90642e-05
2.82825e-05
2.68894e-05
2.47686e-05
2.17103e-05
1.85302e-05
1.48567e-05
1.01811e-05
3.84825e-06
7.12693e-07
1.46608e-05
1.61395e-05
1.73665e-05
1.96615e-05
2.31907e-05
2.7512e-05
3.30825e-05
4.0044e-05
3.99352e-05
3.77596e-05
3.42973e-05
3.16778e-05
2.81306e-05
2.49298e-05
2.08668e-05
1.71042e-05
1.29721e-05
8.1495e-06
2.79293e-06
2.76358e-07
3.25465e-05
3.55066e-05
3.67348e-05
3.9197e-05
4.3655e-05
4.79964e-05
5.20826e-05
4.78491e-05
4.4246e-05
4.03064e-05
3.64568e-05
3.26438e-05
2.84488e-05
2.33489e-05
1.85995e-05
1.41081e-05
1.02651e-05
6.68857e-06
2.55174e-06
1.39607e-07
5.28297e-05
5.57145e-05
5.59703e-05
5.74736e-05
6.23244e-05
5.95696e-05
5.52637e-05
5.03188e-05
4.62152e-05
4.12664e-05
3.71736e-05
3.20026e-05
2.70519e-05
1.98e-05
1.4125e-05
9.81822e-06
7.98126e-06
6.8507e-06
3.40992e-06
2.3142e-07
5.03259e-05
5.30579e-05
5.34302e-05
5.50153e-05
5.98151e-05
5.78513e-05
5.37352e-05
4.89821e-05
4.5117e-05
4.03373e-05
3.66484e-05
3.15318e-05
2.76373e-05
2.05106e-05
1.48738e-05
9.93969e-06
7.6074e-06
5.83831e-06
2.72207e-06
1.92841e-07
2.7994e-05
3.08909e-05
3.22552e-05
3.47298e-05
3.91282e-05
4.3673e-05
4.96289e-05
4.56421e-05
4.26535e-05
3.84396e-05
3.56818e-05
3.13414e-05
2.83632e-05
2.39258e-05
1.93588e-05
1.45951e-05
1.0022e-05
5.59733e-06
1.80062e-06
1.30893e-07
1.30928e-05
1.40302e-05
1.50045e-05
1.70487e-05
2.02084e-05
2.42527e-05
2.95112e-05
3.6397e-05
3.97712e-05
3.61531e-05
3.40262e-05
3.06186e-05
2.76821e-05
2.45171e-05
2.12745e-05
1.73828e-05
1.29938e-05
7.80383e-06
2.38305e-06
1.57825e-07
8.63672e-06
8.11341e-06
8.26016e-06
8.65399e-06
1.00702e-05
1.22105e-05
1.52082e-05
1.98233e-05
2.62982e-05
2.74626e-05
2.77604e-05
2.75728e-05
2.66559e-05
2.47364e-05
2.14536e-05
1.86267e-05
1.4847e-05
1.00464e-05
3.51022e-06
3.94589e-07
6.737e-06
5.80394e-06
5.86829e-06
5.83095e-06
6.51166e-06
7.37066e-06
8.75508e-06
1.07425e-05
1.48258e-05
1.81796e-05
1.99684e-05
2.17185e-05
2.274e-05
2.27748e-05
2.18344e-05
1.89596e-05
1.5826e-05
1.14997e-05
5.12883e-06
1.18863e-06
5.62056e-06
4.42639e-06
4.56402e-06
4.60684e-06
5.15431e-06
5.64397e-06
6.48761e-06
7.63897e-06
9.24349e-06
1.23637e-05
1.41413e-05
1.65129e-05
1.90487e-05
2.03464e-05
2.0456e-05
1.93525e-05
1.64158e-05
1.24403e-05
6.94106e-06
2.23618e-06
5.04263e-06
3.43502e-06
3.63713e-06
3.9156e-06
4.41501e-06
4.99491e-06
5.72896e-06
6.61037e-06
7.68687e-06
9.33728e-06
1.09252e-05
1.2677e-05
1.54186e-05
1.81206e-05
1.92505e-05
1.88961e-05
1.70965e-05
1.31929e-05
8.03613e-06
3.2143e-06
5.04946e-06
2.7338e-06
2.9326e-06
3.46309e-06
4.09274e-06
4.80777e-06
5.58426e-06
6.42144e-06
7.31274e-06
8.41897e-06
9.50348e-06
1.09524e-05
1.28344e-05
1.56548e-05
1.8038e-05
1.83933e-05
1.72096e-05
1.3952e-05
8.94875e-06
3.80226e-06
6.12321e-06
2.24261e-06
2.5367e-06
3.25425e-06
4.13338e-06
4.9852e-06
5.8209e-06
6.68817e-06
7.5583e-06
8.43045e-06
9.36586e-06
1.0429e-05
1.20466e-05
1.40862e-05
1.69906e-05
1.83762e-05
1.75192e-05
1.47229e-05
9.58813e-06
3.95456e-06
1.09723e-05
2.13888e-06
2.66123e-06
3.59651e-06
4.64421e-06
5.72158e-06
6.63765e-06
7.48975e-06
8.3122e-06
9.07047e-06
9.77619e-06
1.04618e-05
1.15077e-05
1.33013e-05
1.54637e-05
1.78804e-05
1.76261e-05
1.55226e-05
1.03509e-05
3.99107e-06
1.23421e-06
0.000116558
0.000294184
0.000330906
0.00033481
0.000335356
0.000335357
0.000335342
0.000335343
0.000335345
0.000335345
0.000335343
0.000335342
0.000335357
0.000335356
0.00033481
0.000330906
0.000294184
0.000116558
1.23421e-06
1.36973e-06
6.81668e-05
0.000219584
0.000309503
0.000330909
0.000334527
0.000335273
0.000335315
0.000335296
0.000335287
0.000335287
0.000335296
0.000335315
0.000335273
0.000334527
0.000330909
0.000309503
0.000219584
6.81669e-05
1.36973e-06
1.51338e-06
5.28964e-05
0.00017646
0.00028058
0.000322148
0.000332504
0.000334604
0.0003351
0.000335168
0.000335172
0.000335172
0.000335168