/*--------------------------------*- C++ -*----------------------------------*\
| =========                 |                                                 |
| \\      /  F ield         | OpenFOAM: The Open Source CFD Toolbox           |
|  \\    /   O peration     | Version:  2.1.0                                 |
|   \\  /    A nd           | Web:      www.OpenFOAM.org                      |
|    \\/     M anipulation  |                                                 |
\*---------------------------------------------------------------------------*/
FoamFile
{
    version     2.0;
    format      ascii;
    class       volScalarField;
    location    "0.34";
    object      omega;
}
// * * * * * * * * * * * * * * * * * * * * * * * * * * * * * * * * * * * * * //

dimensions      [0 0 -1 0 0 0 0];

internalField   nonuniform List<scalar> 
6400
(
1640.01
1641.66
1642.02
1642.16
1642.15
1642.08
1641.74
1641.58
1641.1
1640.85
1640.28
1639.92
1639.28
1638.8
1638.1
1637.5
1636.75
1636.03
1635.21
1634.4
1633.52
1632.61
1631.68
1630.7
1629.7
1628.65
1627.59
1626.47
1625.34
1624.15
1622.95
1621.67
1620.39
1619.04
1617.67
1616.22
1614.74
1613.19
1611.58
1609.88
1608.11
1606.22
1604.23
1602.1
1599.84
1597.41
1594.81
1592
1588.97
1585.71
1582.19
1578.38
1574.24
1569.69
1564.7
1559.51
1554
1548.29
1542.24
1536
1529.44
1522.64
1515.55
1508.16
1500.46
1492.41
1484.03
1475.25
1465.95
1456.25
1445.94
1435.15
1423.68
1411.65
1398.89
1385.52
1371.44
1356.74
1341.42
1325.55
1309.15
1292.2
1274.47
1255.11
1234.1
1211.75
1187.2
1159.66
1127.63
1088.95
1040.04
975.017
886.343
767.752
616.388
538.135
566.156
735.405
892.985
942.839
692.135
692.532
693.73
694.83
696.191
697.651
699.073
700.708
702.198
703.935
705.507
707.318
708.98
710.855
712.615
714.554
716.413
718.42
720.379
722.461
724.524
726.691
728.867
731.138
733.437
735.832
738.277
740.815
743.419
746.116
748.895
751.773
754.747
757.829
761.024
764.34
767.789
771.381
775.098
778.96
782.966
787.127
791.45
795.942
800.613
805.469
810.521
815.774
821.24
826.927
832.848
839.007
845.39
852.018
858.883
866.071
873.56
881.403
889.58
898.156
907.122
916.535
926.405
936.785
947.708
959.185
971.117
983.511
996.55
1010.26
1024.7
1039.92
1055.96
1072.92
1090.84
1109.81
1129.93
1151.3
1174.04
1198.32
1224.31
1252.31
1281.61
1311.85
1343.65
1376.11
1408.73
1440.35
1469.72
1495.24
1513.86
1522.46
1524.24
1510.15
1475.02
1396
1285.42
1150.94
1005.74
848.193
505.008
508.169
509.67
512.72
514.73
517.812
520.14
523.258
525.832
529.008
531.799
535.059
538.055
541.421
544.618
548.114
551.513
555.16
558.762
562.57
566.375
570.359
574.375
578.555
582.784
587.168
591.627
596.234
600.936
605.785
610.748
615.861
621.103
626.499
632.039
637.74
643.594
649.614
655.823
662.221
668.821
675.63
682.66
689.918
697.417
705.166
713.176
721.456
730.016
738.86
747.995
757.426
767.173
777.239
787.645
798.414
809.559
821.1
833.045
845.421
858.231
871.499
885.227
899.431
914.11
929.285
945.001
961.273
977.93
994.974
1012.33
1029.97
1047.84
1065.89
1084.07
1102.35
1120.71
1139.12
1157.61
1176.16
1194.83
1213.62
1232.55
1251.67
1270.95
1290.18
1309.2
1327.5
1344.41
1358.76
1366.73
1369.63
1363.49
1337.6
1289.52
1209.91
1101.69
960.484
797.072
627.988
457.058
461.96
464.128
468.451
471.2
475.497
478.657
482.958
486.455
490.806
494.599
499.042
503.11
507.682
512.015
516.749
521.343
526.264
531.124
536.26
541.39
546.761
552.165
557.781
563.462
569.336
575.298
581.443
587.698
594.13
600.689
607.424
614.3
621.355
628.562
635.951
643.505
651.246
659.162
667.258
675.53
683.981
692.605
701.403
710.367
719.496
728.78
738.215
747.791
757.502
767.336
777.285
787.344
797.499
807.748
818.081
828.49
838.963
849.491
860.062
870.665
881.284
891.906
902.513
913.083
923.607
934.109
944.545
954.907
965.166
975.301
985.292
995.087
1004.63
1013.9
1022.79
1031.27
1039.21
1046.53
1053.08
1058.72
1063.25
1066.23
1067.58
1067.9
1065.44
1060.67
1052.76
1041.49
1026.06
1005.88
979.954
947.049
905.369
852.917
787.774
711.611
628.866
552.825
496.673
446.696
452.581
455.136
460.249
463.465
468.534
472.214
477.262
481.31
486.379
490.739
495.87
500.506
505.731
510.617
515.961
521.081
526.56
531.902
537.533
543.088
548.877
554.635
560.585
566.54
572.656
578.795
585.069
591.375
597.796
604.254
610.81
617.402
624.076
630.783
637.556
644.355
651.203
658.065
664.968
671.877
678.808
685.734
692.664
699.575
706.471
713.331
720.158
726.933
733.657
740.313
746.9
753.406
759.816
766.127
772.358
778.46
784.426
790.209
795.804
801.161
806.266
811.072
815.558
819.674
823.396
826.671
829.464
831.724
833.412
834.288
834.632
834.587
833.235
831.473
828.504
824.861
820.031
814.33
807.419
799.485
790.303
779.987
768.505
755.859
742.031
727.155
711.13
694.057
675.778
656.237
635.085
612.159
586.742
558.146
527.169
494.971
465.26
444.261
432.652
436.816
442.449
444.866
449.731
452.723
457.513
460.884
465.592
469.237
473.881
477.736
482.341
486.36
490.945
495.094
499.67
503.923
508.497
512.828
517.403
521.792
526.364
530.792
535.352
539.799
544.365
548.872
553.467
558.004
562.6
567.135
571.7
576.199
580.702
585.127
589.53
593.843
598.108
602.264
606.348
610.303
614.148
617.851
621.409
624.799
628.014
631.031
633.843
636.424
638.768
640.844
642.649
644.149
645.34
646.215
646.801
647.062
647.122
646.692
645.933
644.717
643.129
641.071
638.613
635.68
632.332
628.513
624.277
619.585
614.486
608.954
603.104
596.87
590.322
583.486
576.357
569.012
561.426
553.74
545.889
537.981
530.007
522.062
514.126
506.279
498.444
490.597
482.708
474.865
466.92
458.898
450.629
442.087
433.077
423.751
414.53
406.883
403.23
402.225
402.216
405.346
409.735
411.597
415.351
417.575
421.253
423.69
427.257
429.825
433.274
435.922
439.258
441.948
445.175
447.877
450.995
453.683
456.69
459.339
462.231
464.81
467.551
470.031
472.605
474.948
477.364
479.583
481.823
483.855
485.864
487.654
489.382
490.878
492.276
493.43
494.456
495.226
495.845
496.156
496.291
496.302
495.92
495.418
494.575
493.56
492.245
490.719
488.926
486.904
484.643
482.151
479.449
476.528
473.443
470.173
466.712
463.095
459.341
455.459
451.498
447.451
443.377
439.261
435.157
431.042
427.011
423.053
419.234
415.54
412.036
408.702
405.555
402.595
399.853
397.313
395.001
392.886
390.979
389.297
387.803
386.533
385.441
384.54
383.785
383.175
382.662
382.233
381.842
381.461
381.063
380.645
380.229
379.974
379.886
380.477
381.799
384.376
388.986
392.687
393.745
356.326
359.237
360.431
362.794
364.061
366.291
367.548
369.595
370.789
372.631
373.723
375.349
376.309
377.707
378.51
379.667
380.29
381.182
381.621
382.198
382.466
382.668
382.729
382.724
382.449
382.124
381.481
380.772
379.755
378.666
377.28
375.819
374.084
372.284
370.231
368.119
365.781
363.396
360.818
358.213
355.452
352.667
349.786
346.893
343.953
341.027
338.093
335.206
332.346
329.565
326.829
324.22
321.724
319.38
317.165
315.135
313.269
311.615
310.157
308.935
307.934
307.188
306.731
306.526
306.479
306.781
307.269
308.051
309.02
310.272
311.708
313.407
315.282
317.402
319.689
322.2
324.864
327.727
330.716
333.901
337.204
340.663
344.209
347.867
351.575
355.345
359.121
362.909
366.665
370.401
374.097
377.796
381.529
385.378
389.538
394.351
399.937
406.931
412.455
414.705
293.212
293.732
293.901
294.134
294.22
294.262
294.167
294.05
293.691
293.405
292.799
292.315
291.472
290.773
289.705
288.784
287.501
286.36
284.877
283.522
281.873
280.339
278.565
276.879
274.995
273.193
271.233
269.363
267.374
265.485
263.519
261.661
259.76
257.973
256.185
254.515
252.887
251.383
249.957
248.663
247.477
246.434
245.525
244.77
244.17
243.735
243.519
243.435
243.471
243.834
244.299
245.036
245.876
246.962
248.175
249.618
251.205
253.008
254.968
257.134
259.466
261.998
264.702
267.604
270.688
273.966
277.418
281.064
284.889
288.913
293.12
297.536
302.144
306.967
311.993
317.244
322.71
328.412
334.339
340.509
346.913
353.567
360.462
367.607
374.99
382.611
390.452
398.504
406.739
415.139
423.676
432.339
441.121
450.047
459.178
468.722
479.448
491.037
502.669
508.409
237.46
235.97
235.323
233.997
233.183
231.81
230.858
229.445
228.384
226.946
225.806
224.362
223.174
221.745
220.542
219.152
217.967
216.639
215.505
214.266
213.214
212.088
211.145
210.155
209.345
208.514
207.861
207.208
206.733
206.277
205.995
205.784
205.696
205.673
205.804
206.035
206.399
206.869
207.475
208.19
209.041
210.009
211.11
212.324
213.673
215.134
216.73
218.437
220.283
222.246
224.343
226.557
228.895
231.354
233.936
236.641
239.47
242.427
245.511
248.725
252.072
255.555
259.176
262.939
266.848
270.907
275.123
279.499
284.043
288.76
293.66
298.748
304.035
309.53
315.244
321.186
327.373
333.813
340.526
347.523
354.828
362.456
370.432
378.777
387.522
396.693
406.328
416.466
427.153
438.44
450.393
463.082
476.599
491.048
506.547
523.178
540.899
559.394
574.072
580.622
267.133
266.717
266.395
265.859
265.312
264.619
263.853
262.987
262.017
260.973
259.816
258.596
257.274
255.891
254.419
252.91
251.32
249.719
248.048
246.392
244.68
243.008
241.297
239.649
237.982
236.4
234.818
233.342
231.888
230.555
229.268
228.113
227.028
226.085
225.235
224.533
223.946
223.512
223.24
223.119
223.09
223.286
223.624
224.118
224.762
225.559
226.511
227.612
228.871
230.276
231.839
233.545
235.411
237.417
239.584
241.9
244.358
246.96
249.708
252.599
255.64
258.822
262.16
265.642
269.285
273.076
277.036
281.151
285.443
289.9
294.545
299.367
304.39
309.606
315.042
320.688
326.572
332.689
339.067
345.704
352.629
359.844
367.381
375.246
383.472
392.07
401.077
410.508
420.404
430.789
441.716
453.242
465.442
478.4
492.251
507.136
523.148
539.944
553.724
559.964
325.787
327.652
328.38
329.706
330.355
331.466
332.003
332.859
333.263
333.843
334.105
334.368
334.452
334.469
334.198
333.918
333.319
332.74
331.827
330.945
329.73
328.548
327.047
325.58
323.813
322.081
320.083
318.114
315.912
313.741
311.377
309.051
306.569
304.138
301.588
299.105
296.538
294.054
291.529
289.11
286.688
284.394
282.137
280.054
278.054
276.239
274.548
273.055
271.722
270.6
269.666
268.955
268.478
268.252
268.18
268.351
268.783
269.388
270.25
271.292
272.587
274.064
275.785
277.686
279.824
282.141
284.692
287.408
290.339
293.432
296.726
300.18
303.827
307.632
311.629
315.781
320.121
324.61
329.281
334.097
339.075
344.175
349.422
354.778
360.262
365.84
371.527
377.293
383.153
389.084
395.102
401.18
407.385
413.836
420.707
428.362
437.161
447.474
458.424
464.162
374.413
377.98
379.467
382.373
384.006
386.774
388.462
391.05
392.737
395.13
396.78
398.971
400.571
402.578
404.088
405.892
407.264
408.839
410.029
411.351
412.32
413.363
414.077
414.816
415.243
415.598
415.745
415.789
415.615
415.272
414.727
414.025
413.105
412.037
410.747
409.318
407.672
405.851
403.764
401.515
399.02
396.381
393.526
390.555
387.403
384.155
380.787
377.354
373.85
370.322
366.773
363.244
359.74
356.297
352.913
349.62
346.485
343.492
340.676
338.033
335.605
333.379
331.396
329.642
328.151
326.9
325.913
325.153
324.672
324.442
324.369
324.519
324.953
325.517
326.319
327.23
328.339
329.529
330.876
332.274
333.836
335.466
337.234
339.058
341.001
343.009
345.121
347.301
349.591
351.973
354.505
357.201
360.114
363.27
366.727
370.79
375.922
382.536
387.402
389.196
409.505
414.362
416.428
420.537
423.014
427.015
429.743
433.615
436.502
440.248
443.231
446.855
449.912
453.472
456.597
460.094
463.251
466.678
469.831
473.176
476.293
479.54
482.591
485.722
488.675
491.666
494.494
497.319
499.985
502.611
505.078
507.471
509.696
511.817
513.755
515.561
517.165
518.665
519.987
521.146
522.086
522.815
523.245
523.435
523.471
523.105
522.509
521.567
520.355
518.811
516.975
514.82
512.368
509.615
506.575
503.259
499.68
495.859
491.838
487.634
483.261
478.728
474.045
469.245
464.365
459.416
454.436
449.477
444.586
439.776
435.098
430.568
426.227
422.08
418.117
414.338
410.768
407.385
404.214
401.214
398.355
395.648
393.062
390.582
388.184
385.868
383.597
381.365
379.153
376.966
374.81
372.722
370.755
369.247
368.109
367.688
368.411
372.199
375.302
376.197
423.786
429.57
432.057
437.017
440.104
444.985
448.479
453.289
457.088
461.86
465.902
470.668
474.913
479.698
484.113
488.931
493.487
498.346
503.02
507.922
512.693
517.635
522.484
527.459
532.368
537.368
542.315
547.328
552.298
557.311
562.287
567.288
572.249
577.213
582.127
587.021
591.848
596.667
601.443
606.178
610.845
615.438
619.934
624.329
628.596
632.719
636.687
640.473
644.067
647.442
650.586
653.474
656.088
658.408
660.411
662.078
663.385
664.286
664.721
664.869
664.618
663.831
662.809
661.235
659.322
656.858
653.993
650.585
646.747
642.385
637.582
632.281
626.547
620.346
613.81
606.887
599.63
592.083
584.215
576.115
567.719
559.159
550.345
541.39
532.205
522.82
513.187
503.308
493.059
482.319
471.209
459.52
447.31
434.547
421.788
408.96
398.081
391.42
388.55
387.261
424.215
429.81
432.247
437.086
440.156
444.949
448.47
453.252
457.135
461.953
466.148
471.048
475.521
480.533
485.266
490.417
495.396
500.706
505.921
511.405
516.849
522.517
528.184
534.04
539.925
545.972
552.065
558.301
564.594
571.012
577.496
584.09
590.751
597.51
604.335
611.248
618.225
625.283
632.397
639.578
646.808
654.089
661.408
668.766
676.147
683.551
690.965
698.379
705.778
713.148
720.485
727.784
735.029
742.212
749.319
756.34
763.265
770.082
776.773
783.324
789.695
795.895
801.915
807.69
813.215
818.423
823.301
827.784
831.848
835.431
838.504
841.006
842.894
843.92
844.334
844.353
842.957
841.068
837.856
833.832
828.44
821.955
813.978
804.637
793.627
781.009
766.641
750.344
732.142
711.807
689.241
664.045
635.922
604.416
570.36
533.119
495.842
460.589
435.363
418.597
432.301
436.763
438.752
442.713
445.25
449.187
452.108
456.048
459.277
463.26
466.754
470.812
474.55
478.726
482.702
487.024
491.236
495.729
500.178
504.865
509.558
514.462
519.41
524.551
529.767
535.166
540.664
546.338
552.13
558.092
564.185
570.448
576.854
583.436
590.178
597.104
604.207
611.51
618.989
626.667
634.535
642.605
650.87
659.336
667.997
676.849
685.928
695.234
704.781
714.583
724.596
734.803
745.205
755.782
766.531
777.433
788.477
799.648
810.928
822.304
833.761
845.295
856.889
868.538
880.237
891.968
903.72
915.466
927.18
938.824
950.396
961.923
973.352
984.673
995.852
1006.84
1017.54
1027.96
1037.92
1047.38
1056.15
1064.1
1070.96
1076.51
1079.87
1081.28
1081.41
1076.8
1069.36
1056.41
1038.26
1012.72
978.806
934.052
878.232
807.969
725.665
634.691
553.278
488.406
479.655
482.371
483.688
486.382
488.183
490.917
493.008
495.779
498.093
500.924
503.435
506.35
509.05
512.064
514.939
518.069
521.12
524.384
527.616
531.029
534.447
538.026
541.638
545.396
549.211
553.164
557.193
561.354
565.607
569.994
574.483
579.105
583.845
588.721
593.726
598.871
604.15
609.568
615.174
620.951
626.927
633.103
639.499
646.125
653.004
660.156
667.557
675.221
683.151
691.345
699.847
708.679
717.851
727.382
737.279
747.553
758.217
769.291
780.781
792.712
805.099
817.968
831.34
845.246
859.722
874.767
890.416
906.664
923.539
941.04
959.24
977.838
996.966
1016.48
1036.37
1056.54
1076.94
1097.51
1118.2
1138.99
1159.86
1180.79
1201.75
1222.68
1243.74
1264.8
1285.68
1305.84
1324.75
1341.05
1350.74
1354.39
1349.16
1321.45
1271.3
1196.14
1093.16
963.686
802.64
630.366
662.326
662.299
663.357
664.12
665.306
666.462
667.684
669.034
670.307
671.773
673.117
674.667
676.096
677.716
679.238
680.927
682.547
684.309
686.029
687.867
689.689
691.61
693.535
695.545
697.575
699.681
701.822
704.036
706.298
708.637
711.039
713.526
716.095
718.757
721.516
724.383
727.367
730.481
733.704
737.059
740.544
744.171
747.948
751.88
755.979
760.246
764.691
769.319
774.144
779.173
784.425
789.909
795.638
801.627
807.89
814.45
821.313
828.483
835.99
843.844
852.061
860.657
869.636
879.042
889.001
899.442
910.484
922.08
934.329
947.223
960.679
974.916
989.948
1005.86
1022.7
1040.56
1059.49
1079.59
1100.95
1123.67
1147.85
1173.61
1201.05
1230.28
1261.53
1293.39
1326.02
1357.77
1387.06
1411.55
1425.55
1430.69
1428.57
1412.52
1380.82
1320.52
1232.91
1122.08
997.842
849.014
1593.69
1594.65
1594.74
1594.64
1594.12
1593.88
1593.2
1592.87
1592.13
1591.75
1590.97
1590.52
1589.73
1589.2
1588.39
1587.77
1586.94
1586.22
1585.36
1584.54
1583.63
1582.73
1581.75
1580.76
1579.73
1578.65
1577.56
1576.42
1575.26
1574.07
1572.86
1571.61
1570.35
1569.04
1567.72
1566.34
1564.96
1563.52
1562.08
1560.58
1559.06
1557.5
1555.91
1554.27
1552.59
1550.85
1549.05
1547.16
1545.16
1543.05
1540.81
1538.43
1535.9
1533.23
1530.4
1527.43
1524.34
1521.05
1517.5
1513.65
1509.36
1504.56
1499.05
1492.93
1486.67
1479.86
1472.92
1465.48
1457.74
1449.52
1440.88
1431.74
1421.86
1411.42
1400.1
1388.03
1374.92
1360.86
1345.6
1329.19
1311.45
1292.4
1271.87
1249.88
1226.25
1200.79
1172.54
1139.99
1100.71
1053.11
992.548
912.55
812.121
702.217
584.676
535.324
556.024
721.798
886.769
939.941
865.867
324.758
176.616
119.709
95.2699
82.3283
76.1153
73.1456
72.1731
74.0164
80.9065
97.338
118.775
156.037
206.898
271.36
348.812
443.857
560.37
610.586
693.163
329.206
219.163
154.349
121.77
104.126
92.9237
87.4476
85.5166
87.4831
99.5613
115.496
144.399
184.528
237.686
299.675
372.1
459.361
544.909
568.957
544.645
318.774
242.305
180.183
147.639
125.462
111.868
105.957
104.281
108.609
120.145
143.951
174.512
218.496
269.276
325.958
390.129
462.517
514.703
523.2
444.698
305.217
256.33
198.184
171.211
146.15
134.067
128.417
126.857
131.174
153.958
177.501
213.71
256.175
301.818
351.993
406.262
455.337
474.623
475.072
388.26
300.47
266.335
214.704
192.014
168.726
159.163
155.414
155.154
174.867
195.279
222.615
257.118
292.543
330.538
370.55
410
432.825
426.949
428.595
360.139
300.414
273.874
232.052
214.549
201.017
197.377
197.337
211.478
227.654
247.645
272.363
299.168
326.534
355.707
383.479
398.933
397.155
368.493
383.668
352.366
312.882
296.079
272.954
265.83
263.269
262.892
269.677
278.909
290.944
305.77
322.146
339.091
355.469
369.813
376.649
375.076
344.145
301.144
349.509
386.947
375.261
371.423
361.627
356.876
351.331
349.12
348.584
350.749
355.06
359.374
364.155
366.8
367.81
366.365
358.064
331.518
277.981
232.56
331.148
499.174
483.927
476.523
457.594
448.69
434.324
427.273
417.582
412.376
404.312
397.825
388.649
378.102
365.437
349.141
316.648
267.979
203.066
161.062
325.586
563.12
541.711
532.043
508.966
497.911
479.249
468.964
452.121
440.549
423.633
409.464
390.242
370.154
341.429
301.854
251.456
197.604
143.823
118.317
329.312
544.224
524.077
515.027
493.285
482.905
465.524
456.215
441.265
431.081
416.44
403.942
387.407
369.669
345.098
309.34
259.47
203.488
144.743
116.602
327.741
457.474
446.306
440.729
424.784
417.5
406.562
401.307
395.651
392.858
389.441
385.965
381.3
374.272
364.783
353.426
326.951
279.081
211.573
171.214
325.235
358.769
343.624
338.618
330.686
327.297
324.204
323.368
326.027
330.897
338.449
346.477
354.734
362.433
366.27
367.63
363.304
339.954
287.364
239.645
326.322
336.575
296.695
279.162
253.951
245.546
242.573
242.38
250.751
261.469
275.461
292.803
311.623
331.868
352.011
370.526
379.738
380.957
352.532
308.069
336.033
346.687
288.095
262.208
220.973
203.561
189.049
184.698
184.211
197.982
215.242
236.709
263.026
291.85
321.572
353.696
385.591
403.68
404.848
374.677
370.594
374.395
289.231
255.96
206.209
184.265
161.432
151.774
147.691
147.089
165.1
186.465
214.508
250.35
287.561
327.626
370.076
413.973
438.759
433.934
420.748
429.443
293.911
246.142
189.955
163.788
140.022
128.513
123.165
121.71
125.918
147.054
171.22
207.543
251.125
298.554
350.766
407.585
460.33
480.633
471.933
531.477
308.138
233.619
173.674
141.888
120.354
107.385
101.699
100.117
104.644
115.988
138.956
169.85
213.751
265.688
324
390.611
467.021
518.76
523.265
686.603
318.024
211.193
148.21
116.957
99.837
89.5019
84.4059
82.6168
84.6421
96.1088
112.044
140.523
180.68
234.147
297.254
371.159
461.012
548.566
571.002
863.36
313.441
170.654
115.708
92.0525
79.5726
73.1801
70.4776
69.6957
72.0544
78.7257
94.3329
115.977
152.675
203.686
268.825
347.644
444.697
563.149
613.348
646.054
32.1745
12.7362
11.3229
11.19
11.171
11.1705
11.1708
11.1706
11.1705
11.1705
11.1706
11.1708
11.1705
11.171
11.19
11.3229
12.7362
32.1744
646.054
672.74
55.0629
17.0386
12.087
11.3039
11.1803
11.1547
11.1529
11.1534
11.1536
11.1536
11.1534
11.1529
11.1547
11.1803
11.3039
12.087
17.0386
55.0628
672.74
698.453
71.0934
21.1542
13.3033
11.5874
11.2261
11.1552
11.1382
11.1358
11.1355
11.1355
11.1358
11.1382
11.1552
11.2261
11.5874
13.3033
21.1541
71.0933
698.453
723.136
85.8503
25.1369
14.6461
12.0431
11.3371
11.1684
11.1265
11.1183
11.1171
11.1171
11.1183
11.1265
11.1684
11.3371
12.0431
14.6461
25.1369
85.8503
723.136
746.743
101.867
29.2066
16.0659
12.5885
11.5234
11.2064
11.1273
11.105
11.1003
11.1003
11.105
11.1273
11.2064
11.5234
12.5885
16.0659
29.2066
101.867
746.743
769.31
118.433
33.3669
17.5406
13.1971
11.7624
11.283
11.1366
11.0944
11.0843
11.0843
11.0944
11.1366
11.283
11.7624
13.1971
17.5406
33.3669
118.433
769.31
790.728
134.967
37.5675
19.051
13.8502
12.0431
11.3872
11.16
11.0918
11.0718
11.0718
11.0918
11.16
11.3872
12.0431
13.8502
19.0511
37.5676
134.967
790.728
810.982
151.251
41.78
20.5851
14.5352
12.3571
11.5178
11.2031
11.0955
11.0625
11.0625
11.0955
11.2031
11.5178
12.3571
14.5352
20.5851
41.7801
151.251
810.982
829.956
167.079
45.9692
22.1303
15.2422
12.6969
11.6708
11.2604
11.1065
11.0594
11.0594
11.1065
11.2604
11.6708
12.6969
15.2422
22.1304
45.9693
167.079
829.956
847.653
182.402
50.1209
23.6797
15.9648
13.0568
11.8431
11.3324
11.129
11.0619
11.0619
11.129
11.3324
11.8431
13.0568
15.9648
23.6798
50.121
182.402
847.653
863.99
197.096
54.2105
25.2247
16.6968
13.4321
12.0315
11.4179
11.1609
11.0698
11.0698
11.1609
11.4179
12.0315
13.4322
16.6968
25.2248
54.2106
197.096
863.99
879.012
211.155
58.232
26.7618
17.4347
13.8192
12.2335
11.5156
11.2021
11.0862
11.0862
11.2021
11.5156
12.2335
13.8193
17.4347
26.7619
58.2322
211.155
879.012
892.663
224.491
62.1652
28.2844
18.1745
14.2149
12.4467
11.6242
11.2528
11.1113
11.1113
11.2528
11.6242
12.4467
14.2149
18.1745
28.2845
62.1654
224.492
892.663
905.026
237.119
66.009
29.7907
18.9141
14.6169
12.6691
11.7427
11.3126
11.1446
11.1446
11.3126
11.7427
12.6691
14.6169
18.9141
29.7908
66.0092
237.119
905.026
916.067
248.971
69.7458
31.2754
19.6506
15.023
12.899
11.8698
11.381
11.1861
11.1861
11.381
11.8698
12.899
15.0231
19.6507
31.2755
69.746
248.971
916.067
925.904
260.09
73.3779
32.7378
20.383
15.4319
13.1352
12.0048
11.4576
11.2357
11.2357
11.4576
12.0048
13.1352
15.4319
20.383
32.7379
73.3782
260.09
925.904
934.512
270.424
76.8907
34.1734
21.1088
15.8418
13.3762
12.1466
11.5418
11.293
11.293
11.5418
12.1466
13.3762
15.8418
21.1088
34.1734
76.8908
270.424
934.512
942.037
280.036
80.289
35.5824
21.8276
16.2519
13.6211
12.2944
11.6331
11.3579
11.3579
11.6331
12.2944
13.6211
16.2519
21.8276
35.5825
80.2891
280.035
942.036
948.451
288.886
83.5605
36.9608
22.5374
16.661
13.8691
12.4475
11.7309
11.4299
11.4299
11.7309
12.4475
13.8691
16.661
22.5374
36.9608
83.5605
288.886
948.45
953.925
297.052
86.7121
38.3096
23.2383
17.0685
14.1193
12.6053
11.8348
11.5085
11.5085
11.8348
12.6053
14.1194
17.0685
23.2383
38.3097
86.7123
297.051
953.924
958.416
304.505
89.7343
39.625
23.9283
17.4735
14.3712
12.7671
11.9442
11.5934
11.5934
11.9442
12.7671
14.3712
17.4735
23.9283
39.625
89.7343
304.505
958.416
962.12
311.326
92.6352
40.9091
24.6079
17.8757
14.6241
12.9325
12.0587
11.684
11.684
12.0587
12.9325
14.6242
17.8757
24.608
40.9092
92.6354
311.326
962.12
964.967
317.505
95.4079
42.1581
25.2755
18.2742
14.8776
13.1009
12.1777
11.78
11.78
12.1777
13.1009
14.8776
18.2742
25.2755
42.158
95.4079
317.505
964.966
967.18
323.104
98.0612
43.3748
25.9317
18.669
15.1313
13.2719
12.3009
11.8809
11.8809
12.3009
13.2719
15.1313
18.669
25.9318
43.375
98.0616
323.103
967.179
968.649
328.146
100.59
44.5557
26.575
19.0593
15.3846
13.445
12.4277
11.9862
11.9862
12.4277
13.445
15.3846
19.0593
26.5749
44.5555
100.59
328.147
968.648
969.635
332.656
103.004
45.7039
27.2062
19.4452
15.6374
13.62
12.5579
12.0955
12.0955
12.5579
13.62
15.6374
19.4453
27.2064
45.7043
103.005
332.654
969.634
969.97
336.702
105.3
46.8166
27.8241
19.8261
15.8892
13.7964
12.691
12.2085
12.2085
12.691
13.7964
15.8892
19.826
27.824
46.8162
105.3
336.704
969.969
969.834
340.245
107.487
47.8967
28.4294
20.202
16.1399
13.974
12.8267
12.3248
12.3248
12.8267
13.9741
16.14
20.2021
28.4296
47.8973
107.488
340.241
969.833
969.425
343.399
109.562
48.9423
29.0214
20.5726
16.3893
14.1525
12.9646
12.4441
12.4441
12.9646
14.1525
16.3892
20.5725
29.0211
48.9417
109.561
343.402
969.424
968.579
346.144
111.537
49.9559
29.6004
20.9378
16.6369
14.3316
13.1045
12.5659
12.5659
13.1045
14.3316
16.637
20.9379
29.6007
49.9566
111.538
346.139
968.578
967.379
348.53
113.408
50.9363
30.1662
21.2974
16.8828
14.5111
13.2461
12.69
12.69
13.2461
14.5111
16.8828
21.2973
30.166
50.9356
113.407
348.533
967.378
965.891
350.557
115.186
51.8862
30.7192
21.6514
17.1267
14.6907
13.389
12.8161
12.8161
13.389
14.6907
17.1267
21.6515
30.7194
51.8867
115.186
350.551
965.89
964.156
352.261
116.866
52.8038
31.259
21.9996
17.3685
14.8702
13.5331
12.944
12.944
13.5331
14.8702
17.3684
21.9995
31.2588
52.8033
116.865
352.265
964.154
962.204
353.662
118.463
53.6935
31.7866
22.3422
17.608
15.0495
13.6782
13.0733
13.0733
13.6782
15.0495
17.608
22.3422
31.7866
53.6937
118.463
353.656
962.204
960.074
354.763
119.966
54.5514
32.3008
22.6787
17.8451
15.2284
13.8239
13.2039
13.2039
13.8239
15.2283
17.8451
22.6787
32.3007
54.5513
119.966
354.766
960.073
957.788
355.617
121.397
55.3846
32.8036
23.0098
18.0798
15.4067
13.9702
13.3355
13.3355
13.9702
15.4067
18.0798
23.0098
32.8036
55.3844
121.396
355.613
957.789
955.382
356.174
122.738
56.1867
33.2932
23.3348
18.3119
15.5842
14.1168
13.468
13.468
14.1168
15.5842
18.3118
23.3347
33.2932
56.1866
122.738
356.175
955.381
952.869
356.559
124.014
56.9667
33.7721
23.6543
18.5414
15.761
14.2636
13.6011
13.6011
14.2636
15.761
18.5414
23.6543
33.7722
56.9667
124.013
356.556
952.87
950.287
356.612
125.206
57.7178
34.2384
23.9678
18.7681
15.9367
14.4103
13.7346
13.7346
14.4103
15.9367
18.7681
23.9676
34.2381
57.7172
125.206
356.612
950.286
947.635
356.52
126.339
58.4481
34.6943
24.2758
18.9922
16.1114
14.557
13.8684
13.8684
14.557
16.1114
18.9923
24.276
34.6947
58.4489
126.339
356.519
947.635
944.959
356.291
127.395
59.1525
35.1385
24.5781
19.2134
16.2849
14.7033
14.0024
14.0024
14.7033
16.2848
19.2133
24.5778
35.1378
59.151
127.393
356.291
944.957
942.242
355.823
128.403
59.8381
35.5729
24.875
19.4319
16.4571
14.8493
14.1364
14.1364
14.8494
16.4572
19.432
24.8753
35.5736
59.8397
128.405
355.816
942.243
939.54
355.241
129.339
60.5
35.9963
25.1663
19.6474
16.628
14.9948
14.2703
14.2703
14.9948
16.6279
19.6473
25.1659
35.9953
60.4978
129.335
355.248
939.539
936.819
354.507
130.247
61.1477
36.411
25.4526
19.8603
16.7975
15.1397
14.404
14.404
15.1397
16.7976
19.8605
25.4531
36.4119
61.1499
130.251
354.501
936.821
934.146
353.721
131.103
61.7754
36.8152
25.7334
20.0701
16.9655
15.2839
14.5373
14.5373
15.2838
16.9653
20.0699
25.7329
36.8141
61.773
131.099
353.725
934.144
931.465
352.873
131.983
62.3982
37.2122
26.0096
20.2774
17.132
15.4273
14.6702
14.6703
15.4274
17.1321
20.2777
26.0102
37.2134
62.4005
131.986
352.87
931.466
928.86
352.023
132.872
63.0138
37.6001
26.2806
20.4816
17.2969
15.5699
14.8026
14.8025
15.5698
17.2967
20.4813
26.2799
37.5988
63.0114
132.869
352.025
928.859
926.332
351.164
133.822
63.6376
37.9831
26.5474
20.6833
17.4603
15.7116
14.9344
14.9344
15.7117
17.4605
20.6837
26.5482
37.9846
63.6401
133.825
351.163
926.334
923.873
350.422
134.843
64.2648
38.359
26.8093
20.882
17.6219
15.8522
15.0654
15.0654
15.8521
17.6217
20.8815
26.8084
38.3573
64.2622
134.841
350.423
923.871
921.483
349.753
135.973
64.9111
38.7328
27.0679
21.0783
17.7821
15.9919
15.1958
15.1959
15.992
17.7824
21.0789
27.069
38.7348
64.9142
135.976
349.754
921.484
919.156
349.293
137.191
65.5657
39.1017
27.3221
21.2718
17.9404
16.1304
15.3253
15.3252
16.1303
17.9402
21.2712
27.3209
39.0995
65.5627
137.19
349.293
919.155
916.896
348.942
138.53
66.2453
39.4711
27.5738
21.4631
18.0973
16.2679
15.4541
15.4541
16.2681
18.0977
21.4639
27.5753
39.4739
66.2494
138.533
348.943
916.896
914.694
348.851
139.939
66.9337
39.8375
27.8218
21.6517
18.2523
16.4041
15.5817
15.5816
16.404
18.252
21.6509
27.8202
39.8346
66.93
139.939
348.853
914.693
912.559
348.916
141.461
67.6488
40.2063
28.0679
21.8384
18.4059
16.5394
15.7086
15.7087
16.5396
18.4065
21.8395
28.0701
40.2102
67.6542
141.464
348.918
912.558
910.48
349.098
143.024
68.3717
40.5736
28.3112
22.0226
18.5577
16.6731
15.8342
15.8342
16.6729
18.5572
22.0216
28.3091
40.5699
68.3671
143.025
349.101
910.479
908.47
349.47
144.674
69.1197
40.9446
28.5532
22.2052
18.7081
16.806
15.9592
15.9593
16.8063
18.7089
22.2067
28.5561
40.9499
69.1272
144.678
349.477
908.467
906.514
349.99
146.343
69.8734
41.3151
28.793
22.3855
18.8567
16.9373
16.0827
16.0826
16.937
18.8561
22.3843
28.7905
41.3106
69.868
146.343
349.992
906.512
904.628
350.63
148.076
70.6507
41.6901
29.0321
22.5644
19.0041
17.0677
16.2056
16.2058
17.0682
19.0051
22.5664
29.0359
41.697
70.6609
148.085
350.643
904.624
902.795
351.376
149.807
71.4303
42.065
29.2695
22.7414
19.1497
17.1965
16.3268
16.3268
17.1962
19.149
22.7399
29.2667
42.0602
71.4248
149.807
351.381
902.792
901.034
352.209
151.579
72.2314
42.4451
29.5067
22.9171
19.2942
17.3245
16.4477
16.4479
17.3252
19.2957
22.9198
29.5118
42.4541
72.2447
151.594
352.229
901.025
899.322
353.116
153.336
73.0316
42.8251
29.7426
23.0911
19.437
17.4508
16.5665
16.5665
17.4504
19.4362
23.0894
29.7394
42.82
73.0272
153.339
353.13
899.316
897.683
354.081
155.114
73.8507
43.2103
29.9786
23.264
19.5787
17.5764
16.6853
16.6856
17.5774
19.5808
23.268
29.9859
43.2229
73.8694
155.136
354.113
897.668
896.09
355.096
156.865
74.6656
43.5955
30.2137
23.4356
19.7188
17.7001
16.8017
16.8017
17.6998
19.718
23.4338
30.2103
43.5904
74.663
156.874
355.125
896.078
894.571
356.143
158.624
75.4972
43.9855
30.4488
23.6061
19.858
17.8234
16.9184
16.9188
17.8249
19.861
23.6118
30.4592
44.0035
75.5254
158.662
356.196
894.546
893.093
357.219
160.343
76.321
44.3755
30.6836
23.7754
19.9955
17.9447
17.0324
17.0324
17.9445
19.995
23.774
30.6807
44.3719
76.3234
160.363
357.272