/*--------------------------------*- C++ -*----------------------------------*\
| =========                 |                                                 |
| \\      /  F ield         | OpenFOAM: The Open Source CFD Toolbox           |
|  \\    /   O peration     | Version:  2.1.0                                 |
|   \\  /    A nd           | Web:      www.OpenFOAM.org                      |
|    \\/     M anipulation  |                                                 |
\*---------------------------------------------------------------------------*/
FoamFile
{
    version     2.0;
    format      ascii;
    class       volScalarField;
    location    "0.34";
    object      p;
}
// * * * * * * * * * * * * * * * * * * * * * * * * * * * * * * * * * * * * * //

dimensions      [1 -1 -2 0 0 0 0];

internalField   nonuniform List<scalar> 
6400
(
99998.5
99995.7
99993.8
99992.1
99990.7
99989.2
99987.8
99986.4
99985
99983.5
99982
99980.4
99978.7
99977
99975.2
99973.4
99971.4
99969.4
99967.4
99965.2
99963
99960.7
99958.3
99955.9
99953.3
99950.7
99948
99945.2
99942.3
99939.3
99936.2
99933.1
99929.8
99926.4
99922.9
99919.3
99915.6
99911.8
99907.9
99903.9
99899.7
99895.4
99890.9
99886.3
99881.6
99876.7
99871.7
99866.5
99861.1
99855.5
99849.8
99843.8
99837.7
99831.3
99824.7
99817.9
99810.9
99803.7
99796.2
99788.5
99780.5
99772.3
99763.8
99754.9
99745.8
99736.3
99726.5
99716.4
99705.8
99694.9
99683.6
99671.9
99659.7
99647.1
99633.9
99620.3
99606.1
99591.4
99576
99560
99543.3
99525.8
99507.5
99488.1
99467.4
99445.3
99421.5
99395.6
99367.1
99336
99302.2
99266.9
99232.2
99199.3
99166.9
99133.2
99075.9
98960.6
98589.5
96981.4
99996.8
99995.1
99993.3
99991.7
99990.2
99988.8
99987.4
99986
99984.6
99983.1
99981.6
99980
99978.3
99976.6
99974.8
99972.9
99971
99969
99966.9
99964.8
99962.5
99960.2
99957.9
99955.4
99952.8
99950.2
99947.5
99944.7
99941.8
99938.8
99935.7
99932.5
99929.3
99925.9
99922.4
99918.8
99915.1
99911.3
99907.4
99903.3
99899.1
99894.8
99890.4
99885.8
99881
99876.2
99871.1
99865.9
99860.5
99854.9
99849.2
99843.2
99837.1
99830.8
99824.2
99817.5
99810.5
99803.2
99795.8
99788.1
99780.1
99771.9
99763.4
99754.5
99745.4
99736
99726.2
99716.1
99705.6
99694.7
99683.4
99671.7
99659.6
99647
99633.9
99620.3
99606.1
99591.4
99576.1
99560.1
99543.4
99525.9
99507.5
99488.1
99467.5
99445.5
99421.7
99395.9
99367.6
99336.7
99303.2
99268.2
99233.4
99200.9
99172.7
99143.4
99091.8
98990.9
98690.1
98135.8
99995.3
99994.2
99992.8
99991.4
99990
99988.6
99987.2
99985.8
99984.4
99982.9
99981.4
99979.8
99978.1
99976.4
99974.6
99972.7
99970.8
99968.8
99966.7
99964.6
99962.4
99960.1
99957.7
99955.2
99952.6
99950
99947.3
99944.5
99941.6
99938.6
99935.5
99932.4
99929.1
99925.7
99922.3
99918.7
99915
99911.2
99907.3
99903.2
99899
99894.7
99890.3
99885.7
99881
99876.1
99871.1
99865.9
99860.6
99855.1
99849.3
99843.4
99837.3
99831
99824.5
99817.8
99810.9
99803.7
99796.3
99788.6
99780.7
99772.5
99764
99755.2
99746.2
99736.8
99727.1
99717
99706.6
99695.8
99684.6
99673
99660.9
99648.4
99635.4
99622
99607.9
99593.3
99578.1
99562.3
99545.7
99528.3
99510.1
99490.8
99470.2
99448.3
99424.7
99399.1
99371.2
99341
99308.6
99275.4
99243.1
99214.2
99190.4
99162.5
99126.7
99064.7
98908.5
98998.6
99993.4
99993.3
99992.4
99991.1
99989.8
99988.6
99987.2
99985.9
99984.4
99983
99981.5
99979.9
99978.2
99976.5
99974.7
99972.9
99971
99969
99966.9
99964.8
99962.6
99960.3
99957.9
99955.5
99952.9
99950.3
99947.6
99944.8
99941.9
99939
99935.9
99932.8
99929.5
99926.2
99922.7
99919.1
99915.5
99911.7
99907.8
99903.8
99899.6
99895.3
99890.9
99886.4
99881.7
99876.9
99871.9
99866.7
99861.4
99855.9
99850.3
99844.4
99838.4
99832.1
99825.7
99819
99812.1
99804.9
99797.6
99790
99782.1
99773.9
99765.5
99756.8
99747.8
99738.5
99728.8
99718.8
99708.4
99697.7
99686.5
99675
99662.9
99650.5
99637.5
99624
99609.9
99595.3
99580
99564
99547.4
99529.8
99511.4
99491.9
99471.2
99449.1
99425.4
99399.9
99372.3
99342.9
99312.1
99281.5
99253.2
99229.4
99211.9
99199.2
99193.6
99198.3
99224.9
99645.5
99991.3
99992.3
99991.9
99991
99989.9
99988.7
99987.5
99986.2
99984.8
99983.3
99981.8
99980.2
99978.6
99976.9
99975.2
99973.3
99971.4
99969.5
99967.4
99965.3
99963.1
99960.8
99958.5
99956.1
99953.6
99951
99948.3
99945.5
99942.7
99939.7
99936.7
99933.6
99930.3
99927
99923.6
99920
99916.4
99912.6
99908.7
99904.7
99900.6
99896.3
99892
99887.4
99882.8
99878
99873
99867.9
99862.6
99857.1
99851.5
99845.6
99839.6
99833.4
99826.9
99820.3
99813.4
99806.2
99798.9
99791.3
99783.4
99775.3
99766.9
99758.1
99749.1
99739.8
99730.1
99720.1
99709.6
99698.8
99687.6
99676
99663.9
99651.3
99638.3
99624.7
99610.5
99595.8
99580.4
99564.3
99547.4
99529.7
99511.1
99491.4
99470.5
99448.3
99424.5
99399.2
99372.2
99343.9
99315.2
99288.1
99265
99248.4
99242.1
99251.9
99288.9
99381.1
99579.4
100155
99989.2
99991.3
99991.5
99990.9
99990.1
99989
99987.9
99986.6
99985.3
99983.9
99982.4
99980.8
99979.2
99977.5
99975.8
99974
99972.1
99970.1
99968.1
99966
99963.8
99961.5
99959.2
99956.8
99954.3
99951.7
99949.1
99946.3
99943.5
99940.5
99937.5
99934.4
99931.2
99927.8
99924.4
99920.9
99917.2
99913.5
99909.6
99905.6
99901.5
99897.2
99892.8
99888.3
99883.6
99878.8
99873.8
99868.7
99863.4
99857.9
99852.2
99846.4
99840.3
99834.1
99827.6
99820.9
99814
99806.9
99799.5
99791.8
99784
99775.8
99767.3
99758.6
99749.6
99740.2
99730.5
99720.4
99710
99699.1
99687.9
99676.2
99664.1
99651.5
99638.3
99624.7
99610.4
99595.6
99580.1
99563.8
99546.8
99528.9
99510.1
99490.2
99469.1
99446.7
99422.9
99397.8
99371.4
99344.4
99318
99294.7
99277.3
99269.1
99277.2
99314.1
99400.6
99585.4
99920.2
100556
99987.2
99990.3
99991
99990.9
99990.2
99989.3
99988.3
99987.1
99985.7
99984.4
99982.9
99981.3
99979.7
99978.1
99976.3
99974.5
99972.6
99970.6
99968.6
99966.5
99964.3
99962.1
99959.7
99957.3
99954.8
99952.2
99949.6
99946.8
99944
99941
99938
99934.8
99931.6
99928.3
99924.8
99921.3
99917.6
99913.9
99910
99905.9
99901.8
99897.5
99893.1
99888.6
99883.9
99879
99874
99868.9
99863.6
99858.1
99852.4
99846.5
99840.4
99834.2
99827.7
99821
99814.1
99806.9
99799.5
99791.9
99784
99775.8
99767.4
99758.6
99749.6
99740.2
99730.5
99720.4
99710
99699.1
99687.9
99676.2
99664
99651.4
99638.2
99624.5
99610.2
99595.2
99579.6
99563.2
99546
99527.9
99508.8
99488.7
99467.4
99444.8
99421.1
99396.1
99370.4
99344.6
99320.3
99300.4
99288.6
99289
99312.3
99376.7
99512.7
99781.7
100214
100859
99985.6
99989.4
99990.6
99990.7
99990.3
99989.5
99988.5
99987.3
99986
99984.6
99983.2
99981.6
99980
99978.3
99976.6
99974.8
99972.9
99970.9
99968.9
99966.7
99964.6
99962.3
99959.9
99957.5
99955
99952.4
99949.7
99946.9
99944.1
99941.1
99938.1
99934.9
99931.7
99928.3
99924.9
99921.3
99917.6
99913.8
99909.9
99905.9
99901.7
99897.4
99893
99888.4
99883.7
99878.9
99873.9
99868.7
99863.4
99857.9
99852.2
99846.3
99840.3
99834
99827.5
99820.8
99813.9
99806.8
99799.4
99791.8
99783.9
99775.7
99767.3
99758.6
99749.5
99740.2
99730.5
99720.4
99710
99699.1
99687.9
99676.2
99664
99651.3
99638.1
99624.3
99609.9
99594.9
99579.2
99562.6
99545.2
99527
99507.7
99487.3
99465.7
99443
99419.2
99394.4
99369.1
99344.4
99321.9
99304.8
99297.5
99305.6
99342.4
99430.9
99609.6
99945.7
100440
101075
99984.5
99988.6
99990.1
99990.5
99990.2
99989.5
99988.5
99987.4
99986.1
99984.7
99983.2
99981.7
99980.1
99978.4
99976.6
99974.8
99972.9
99970.9
99968.8
99966.7
99964.5
99962.2
99959.9
99957.4
99954.9
99952.3
99949.6
99946.8
99943.9
99940.9
99937.9
99934.7
99931.5
99928.1
99924.6
99921.1
99917.4
99913.6
99909.7
99905.6
99901.5
99897.2
99892.7
99888.2
99883.5
99878.6
99873.6
99868.5
99863.1
99857.6
99852
99846.1
99840.1
99833.8
99827.4
99820.7
99813.8
99806.7
99799.3
99791.7
99783.8
99775.7
99767.3
99758.6
99749.5
99740.2
99730.5
99720.5
99710
99699.2
99688
99676.2
99664.1
99651.4
99638.1
99624.3
99609.8
99594.7
99578.8
99562.1
99544.6
99526.1
99506.6
99486
99464.2
99441.2
99417.3
99392.6
99367.7
99343.7
99322.5
99307.3
99303
99316.9
99363
99469.4
99678.8
100060
100591
101212
99983.9
99988.2
99989.8
99990.3
99990.1
99989.4
99988.5
99987.3
99986.1
99984.7
99983.2
99981.6
99980
99978.3
99976.5
99974.7
99972.8
99970.8
99968.7
99966.6
99964.4
99962.1
99959.7
99957.3
99954.8
99952.1
99949.4
99946.7
99943.8
99940.8
99937.7
99934.6
99931.3
99928
99924.5
99920.9
99917.2
99913.4
99909.5
99905.5
99901.3
99897
99892.6
99888.1
99883.4
99878.5
99873.5
99868.4
99863.1
99857.6
99851.9
99846
99840
99833.8
99827.3
99820.7
99813.8
99806.7
99799.3
99791.7
99783.9
99775.7
99767.3
99758.7
99749.7
99740.4
99730.7
99720.6
99710.2
99699.4
99688.2
99676.5
99664.3
99651.5
99638.3
99624.4
99609.8
99594.6
99578.6
99561.8
99544.1
99525.4
99505.7
99484.9
99462.8
99439.6
99415.6
99390.8
99366
99342.4
99321.9
99307.7
99304.8
99321.7
99373.4
99488.3
99713.2
100117
100664
101280
99983.7
99988.1
99989.8
99990.3
99990.1
99989.4
99988.5
99987.4
99986.1
99984.7
99983.3
99981.7
99980.1
99978.4
99976.6
99974.8
99972.9
99970.9
99968.9
99966.7
99964.5
99962.2
99959.9
99957.4
99954.9
99952.3
99949.6
99946.8
99943.9
99940.9
99937.9
99934.7
99931.4
99928.1
99924.6
99921
99917.3
99913.5
99909.6
99905.6
99901.4
99897.1
99892.7
99888.2
99883.5
99878.6
99873.6
99868.5
99863.1
99857.7
99852
99846.1
99840.1
99833.9
99827.4
99820.8
99813.9
99806.9
99799.5
99792
99784.1
99776.1
99767.7
99759
99750
99740.6
99731
99721
99710.6
99699.7
99688.5
99676.8
99664.6
99651.9
99638.5
99624.6
99610
99594.7
99578.7
99561.7
99543.9
99525
99505.1
99484
99461.8
99438.5
99414.1
99389.1
99364.2
99340.6
99320.1
99305.9
99303
99319.9
99372
99486.6
99710.7
100114
100660
101276
99983.9
99988.4
99990
99990.4
99990.1
99989.5
99988.5
99987.4
99986.2
99984.8
99983.3
99981.8
99980.2
99978.5
99976.8
99975
99973.1
99971.1
99969.1
99967
99964.8
99962.5
99960.2
99957.7
99955.2
99952.6
99949.9
99947.2
99944.3
99941.3
99938.3
99935.1
99931.8
99928.5
99925
99921.4
99917.7
99913.9
99910
99906
99901.8
99897.5
99893.1
99888.5
99883.8
99878.9
99873.9
99868.8
99863.4
99857.9
99852.3
99846.4
99840.4
99834.2
99827.7
99821.1
99814.2
99807.1
99799.8
99792.3
99784.4
99776.4
99768
99759.3
99750.3
99741
99731.4
99721.3
99710.9
99700.1
99688.9
99677.2
99665
99652.2
99638.9
99624.9
99610.3
99594.9
99578.7
99561.6
99543.6
99524.6
99504.5
99483.2
99460.7
99437
99412.3
99387
99361.7
99337.7
99316.7
99301.4
99296.8
99310.9
99357.8
99462.7
99669.6
100047
100576
101198
99984.9
99988.9
99990.2
99990.5
99990.1
99989.3
99988.4
99987.2
99986
99984.6
99983.2
99981.7
99980.1
99978.4
99976.7
99974.9
99973
99971.1
99969.1
99967
99964.8
99962.5
99960.2
99957.8
99955.3
99952.7
99950.1
99947.3
99944.4
99941.5
99938.5
99935.3
99932.1
99928.7
99925.3
99921.7
99918
99914.2
99910.3
99906.3
99902.1
99897.8
99893.4
99888.8
99884.1
99879.3
99874.3
99869.1
99863.8
99858.3
99852.6
99846.7
99840.7
99834.5
99828
99821.4
99814.5
99807.5
99800.1
99792.6
99784.8
99776.7
99768.3
99759.6
99750.7
99741.4
99731.7
99721.7
99711.3
99700.5
99689.3
99677.6
99665.4
99652.6
99639.2
99625.2
99610.5
99595.1
99578.8
99561.6
99543.5
99524.3
99504
99482.5
99459.7
99435.7
99410.7
99384.8
99358.9
99334.1
99312.1
99295
99287.1
99295.9
99332.8
99419.6
99594.4
99924.5
100416
101051
99986.4
99989.6
99990.6
99990.5
99989.9
99989.1
99988.1
99986.9
99985.6
99984.2
99982.8
99981.3
99979.7
99978
99976.3
99974.5
99972.7
99970.7
99968.7
99966.6
99964.5
99962.3
99959.9
99957.5
99955
99952.5
99949.8
99947.1
99944.2
99941.3
99938.3
99935.2
99931.9
99928.6
99925.1
99921.6
99917.9
99914.1
99910.2
99906.2
99902.1
99897.8
99893.4
99888.8
99884.2
99879.3
99874.3
99869.2
99863.9
99858.4
99852.7
99846.9
99840.9
99834.7
99828.2
99821.6
99814.8
99807.7
99800.4
99792.8
99785
99777
99768.6
99760
99751
99741.7
99732.1
99722.1
99711.7
99700.9
99689.7
99678
99665.8
99653
99639.7
99625.6
99610.9
99595.4
99579.1
99561.8
99543.6
99524.2
99503.8
99482.1
99459
99434.8
99409.3
99382.9
99356.2
99330.3
99306.7
99287.2
99274.8
99276.5
99300.1
99362.3
99493.4
99754.8
100181
100826
99988.2
99990.5
99990.9
99990.5
99989.7
99988.7
99987.6
99986.4
99985.1
99983.7
99982.2
99980.7
99979.1
99977.4
99975.7
99973.9
99972
99970.1
99968.1
99966
99963.8
99961.6
99959.3
99956.9
99954.4
99951.8
99949.1
99946.4
99943.6
99940.6
99937.6
99934.5
99931.3
99927.9
99924.5
99921
99917.3
99913.5
99909.7
99905.7
99901.5
99897.3
99892.9
99888.4
99883.7
99878.9
99873.9
99868.8
99863.5
99858.1
99852.5
99846.7
99840.7
99834.5
99828.1
99821.5
99814.7
99807.7
99800.4
99792.9
99785.1
99777.1
99768.8
99760.1
99751.2
99742
99732.4
99722.4
99712.1
99701.3
99690.1
99678.4
99666.3
99653.5
99640.1
99626.1
99611.4
99595.8
99579.5
99562.1
99543.8
99524.4
99503.7
99481.9
99458.6
99434
99408.1
99381.1
99353.5
99326.2
99300.7
99278.5
99262.5
99255.3
99263.6
99298.2
99379.3
99555.5
99881.9
100514
99990.3
99991.5
99991.3
99990.5
99989.5
99988.4
99987.2
99985.9
99984.5
99983.1
99981.6
99980.1
99978.5
99976.8
99975.1
99973.3
99971.4
99969.4
99967.4
99965.3
99963.1
99960.8
99958.5
99956.1
99953.6
99951
99948.3
99945.6
99942.7
99939.8
99936.8
99933.6
99930.4
99927
99923.6
99920
99916.3
99912.6
99908.7
99904.7
99900.5
99896.3
99891.9
99887.4
99882.7
99877.9
99872.9
99867.8
99862.6
99857.1
99851.5
99845.7
99839.8
99833.6
99827.3
99820.7
99814
99807
99799.7
99792.3
99784.6
99776.6
99768.3
99759.7
99750.9
99741.7
99732.1
99722.2
99711.9
99701.2
99690.1
99678.5
99666.3
99653.6
99640.3
99626.3
99611.5
99596
99579.6
99562.2
99543.9
99524.4
99503.7
99481.6
99458.2
99433.4
99407.1
99379.5
99351
99322.2
99294.5
99269.5
99249
99234.4
99228.3
99236
99267.6
99350.9
99538.5
100107
99992.4
99992.5
99991.7
99990.6
99989.4
99988.2
99986.9
99985.6
99984.2
99982.8
99981.3
99979.7
99978.1
99976.4
99974.7
99972.8
99970.9
99969
99966.9
99964.8
99962.6
99960.3
99958
99955.5
99953
99950.4
99947.7
99944.9
99942.1
99939.1
99936
99932.8
99929.6
99926.2
99922.7
99919.2
99915.5
99911.7
99907.7
99903.7
99899.5
99895.3
99890.8
99886.3
99881.6
99876.8
99871.8
99866.6
99861.3
99855.9
99850.3
99844.5
99838.5
99832.3
99825.9
99819.4
99812.6
99805.6
99798.4
99790.9
99783.2
99775.2
99767
99758.4
99749.6
99740.4
99730.9
99721
99710.8
99700.1
99689
99677.4
99665.4
99652.7
99639.4
99625.5
99610.8
99595.3
99579
99561.7
99543.3
99523.8
99503
99481
99457.5
99432.4
99405.8
99377.7
99348.3
99318.2
99288.6
99260.8
99236.6
99216.4
99198.9
99184.3
99173.7
99169.9
99184.3
99590.7
99994.3
99993.4
99992.2
99990.8
99989.5
99988.2
99986.9
99985.6
99984.2
99982.7
99981.2
99979.7
99978
99976.3
99974.6
99972.7
99970.8
99968.8
99966.8
99964.7
99962.5
99960.2
99957.8
99955.4
99952.8
99950.2
99947.5
99944.7
99941.8
99938.8
99935.7
99932.5
99929.2
99925.8
99922.3
99918.7
99915
99911.2
99907.3
99903.2
99899
99894.7
99890.3
99885.7
99881
99876.1
99871.1
99865.9
99860.6
99855.1
99849.4
99843.6
99837.6
99831.3
99824.9
99818.3
99811.5
99804.4
99797.1
99789.6
99781.9
99773.8
99765.5
99756.9
99748
99738.8
99729.3
99719.3
99709
99698.3
99687.2
99675.6
99663.5
99650.8
99637.5
99623.5
99608.8
99593.3
99576.9
99559.6
99541.2
99521.7
99500.9
99478.8
99455.3
99430.1
99403.4
99375
99345
99314
99282.8
99253.1
99226.3
99203.3
99178.8
99149
99108.8
99038.8
98869.9
98936.5
99995.8
99994.2
99992.6
99991.2
99989.8
99988.5
99987.1
99985.8
99984.4
99982.9
99981.4
99979.9
99978.2
99976.5
99974.8
99972.9
99971
99969
99967
99964.9
99962.7
99960.4
99958
99955.6
99953
99950.4
99947.7
99944.9
99942
99939
99935.9
99932.7
99929.4
99926
99922.5
99918.9
99915.2
99911.4
99907.4
99903.4
99899.2
99894.9
99890.4
99885.8
99881.1
99876.2
99871.2
99866
99860.7
99855.1
99849.5
99843.6
99837.5
99831.3
99824.8
99818.1
99811.3
99804.2
99796.9
99789.3
99781.5
99773.4
99765.1
99756.4
99747.5
99738.2
99728.6
99718.6
99708.3
99697.5
99686.3
99674.6
99662.4
99649.6
99636.2
99622.1
99607.3
99591.6
99575.1
99557.6
99539
99519.3
99498.3
99475.9
99452.1
99426.6
99399.5
99370.6
99339.9
99307.9
99275.4
99243.9
99214.7
99188.8
99164.6
99131
99075
98966.4
98653.2
98060.5
99997.5
99994.9
99993.1
99991.6
99990.2
99988.8
99987.5
99986.2
99984.8
99983.3
99981.8
99980.3
99978.6
99976.9
99975.2
99973.3
99971.4
99969.5
99967.4
99965.3
99963.1
99960.8
99958.5
99956
99953.5
99950.9
99948.2
99945.4
99942.5
99939.5
99936.4
99933.2
99929.9
99926.6
99923.1
99919.5
99915.8
99912
99908
99904
99899.8
99895.5
99891
99886.4
99881.7
99876.8
99871.8
99866.6
99861.3
99855.8
99850.1
99844.2
99838.2
99832
99825.5
99818.8
99812
99804.9
99797.6
99790
99782.2
99774.1
99765.7
99757
99748.1
99738.8
99729.2
99719.2
99708.8
99698
99686.8
99675.1
99662.9
99650.1
99636.7
99622.5
99607.7
99592
99575.4
99557.9
99539.3
99519.5
99498.5
99476.1
99452.2
99426.6
99399.4
99370.3
99339.5
99307.3
99274.7
99243.4
99214
99187.3
99152.6
99114.4
99054.4
98934.3
98552.6
96887.2
100561
101837
102380
102690
102901
103060
103185
103285
103367
103434
103489
103535
103571
103600
103623
103639
103650
103656
103657
103654
100515
101542
102176
102575
102842
103034
103179
103292
103382
103454
103512
103558
103595
103624
103645
103660
103669
103673
103672
103664
100803
101573
102118
102515
102802
103012
103171
103294
103390
103467
103527
103575
103612
103640
103660
103673
103681
103683
103682
103671
101080
101706
102168
102528
102806
103018
103181
103308
103408
103486
103548
103595
103631
103657
103676
103687
103693
103694
103691
103675
101316
101848
102252
102577
102837
103042
103204
103332
103432
103510
103571
103617
103651
103676
103692
103701
103704
103704
103699
103678
101515
101979
102342
102640
102883
103079
103236
103361
103459
103536
103595
103640
103672
103694
103707
103714
103715
103712
103705
103680
101677
102092
102425
102702
102932
103119
103270
103391
103487
103562
103620
103662
103692
103711
103721
103725
103725
103720
103709
103681
101798
102180
102493
102756
102975
103155
103301
103420
103514
103587
103643
103683
103711
103727
103735
103736
103733
103726
103712
103683
101879
102241
102541
102795
103008
103184
103328
103445
103538
103610
103664
103702
103728
103741
103746
103745
103740
103731
103715
103686
101923
102276
102570
102820
103030
103204
103347
103463
103555
103626
103679
103716
103740
103752
103755
103752
103746
103736
103715
103691
101921
102273
102568
102817
103027
103201
103345
103460
103552
103623
103677
103714
103738
103750
103754
103751
103745
103734
103716
103690
101868
102231
102531
102786
102999
103176
103321
103438
103531
103604
103659
103698
103724
103738
103744
103743
103738
103730
103714
103688
101780
102163
102477
102741
102961
103142
103290
103410
103505
103579
103636
103677
103706
103723
103732
103734
103731
103724
103711
103688
101650
102068
102403
102682
102913
103102
103255
103378
103476
103553
103611
103655
103686
103706
103718
103723
103722
103718
103707
103685
101483
101949
102314
102615
102861
103059
103218
103345
103446
103525
103586
103632
103665
103688
103703
103710
103712
103710
103703
103681
101278
101812
102219
102549
102812
103020
103185
103315
103417
103498
103560
103608
103644
103670
103687
103697
103701
103701
103696
103678
101036
101666
102132
102497
102778
102994
103160
103290
103393
103473
103536
103586
103623
103651
103671
103683
103690
103691
103688
103675
100754
101529
102079
102482
102773
102987
103150
103275
103374
103453
103515
103565
103603
103633
103654
103669
103677
103681
103679
103670
100461
101495
102136
102542
102814
103009
103157
103273
103365
103440
103500
103548
103587
103617
103639
103655
103665
103670
103669
103663
100505
101792
102342
102657
102873
103035
103163
103266
103350
103420
103477
103524
103562
103592
103616
103634
103646
103652
103654
103651
103496
103494
103493
103492
103492
103491
103491
103490
103490
103490
103490
103490
103490
103491
103491
103492
103492
103493
103494
103496
103493
103491
103491
103490
103490
103490
103489
103489
103489
103489
103489
103489
103489
103489
103490
103490
103490
103491
103491
103493
103492
103490
103490
103490
103490
103490
103490
103490
103490
103490
103490
103490
103490
103490
103490
103490
103490
103490
103490
103492
103492
103491
103490
103490
103490
103490
103490
103490
103490
103490
103490
103490
103490
103490
103490
103490
103490
103490
103491
103492
103492
103490
103490
103490
103490
103490
103490
103490
103490
103490
103490
103490
103490
103490
103490
103490
103490
103490
103490
103492
103491
103490
103490
103489
103489
103489
103489
103489
103489
103489
103489
103489
103489
103489
103489
103489
103489
103489
103490
103491
103491
103489
103489
103489
103489
103489
103489
103489
103489
103489
103489
103489
103489
103489
103489
103489
103489
103489
103489
103491
103490
103488
103488
103488
103488
103488
103488
103488
103488
103488
103488
103488
103488
103488
103488
103488
103488
103488
103488
103490
103489
103488
103488
103488
103487
103487
103487
103487
103487
103487
103487
103487
103487
103487
103487
103487
103488
103488
103488
103489
103489
103487
103487
103487
103487
103487
103487
103487
103487
103487
103487
103487
103487
103487
103487
103487
103487
103487
103487
103489
103488
103486
103486
103486
103486
103486
103486
103486
103486
103486
103486
103486
103486
103486
103486
103486
103486
103486
103486
103488
103487
103486
103486
103485
103485
103485
103485
103485
103485
103485
103485
103485
103485
103485
103485
103485
103485
103486
103486
103487
103487
103485
103485
103485
103485
103485
103485
103484
103484
103484
103484
103484
103484
103485
103485
103485
103485
103485
103485
103487
103486
103484
103484
103484
103484
103484
103484
103484
103484
103484
103484
103484
103484
103484
103484
103484
103484
103484
103484
103486
103485
103483
103483
103483
103483
103483
103483
103483
103483
103483
103483
103483
103483
103483
103483
103483
103483
103483
103483
103485
103484
103483
103483
103482
103482
103482
103482
103482
103482
103482
103482
103482
103482
103482
103482
103482
103483
103483
103483
103484
103483
103482
103482
103482
103482
103482
103482
103481
103481
103481
103481
103481
103481
103482
103482
103482
103482
103482
103482
103483
103483
103481
103481
103481
103481
103481
103481
103481
103481
103481
103481
103481
103481
103481
103481
103481
103481
103481
103481
103483
103482
103480
103480
103480
103480
103480
103480
103480
103480
103480
103480
103480
103480
103480
103480
103480
103480
103480
103480
103482
103481
103480
103479
103479
103479
103479
103479
103479
103479
103479
103479
103479
103479
103479
103479
103479
103479
103479
103480
103481
103480
103479
103479
103479
103479
103478
103478
103478
103478
103478
103478
103478
103478
103478
103478
103479
103479
103479
103479
103480
103479
103478
103478
103478
103478
103478
103478
103478
103478
103478
103478
103478
103478
103478
103478
103478
103478
103478
103478
103479
103478
103477
103477
103477
103477
103477
103477
103477
103477
103477
103477
103477
103477
103477
103477
103477
103477
103477
103477
103478
103478
103476
103476
103476
103476
103476
103476
103476
103476
103476
103476
103476
103476
103476
103476
103476
103476
103476
103476
103478
103477
103476
103475
103475
103475
103475
103475
103475
103475
103475
103475
103475
103475
103475
103475
103475
103475
103475
103476
103477
103476
103475
103475
103475
103475
103474
103474
103474
103474
103474
103474
103474
103474
103474
103474
103475
103475
103475
103475
103476
103475
103474
103474
103474
103474
103474
103474
103474
103474
103474
103474
103474
103474
103474
103474
103474
103474
103474
103474
103475
103474
103473
103473
103473
103473
103473
103473
103473
103473
103473
103473
103473
103473
103473
103473
103473
103473
103473
103473
103474
103473
103472
103472
103472
103472
103472
103472
103472
103472
103472
103472
103472
103472
103472
103472
103472
103472
103472
103472
103473
103473
103472
103471
103471
103471
103471
103471
103471
103471
103471
103471
103471
103471
103471
103471
103471
103471
103471
103472
103473
103472
103471
103471
103471
103471
103470
103470
103470
103470
103470
103470
103470
103470
103470
103470
103471
103471
103471
103471
103472
103471
103470
103470
103470
103470
103470
103470
103470
103470
103470
103470
103470
103470
103470
103470
103470
103470
103470
103470
103471
103470
103469
103469
103469
103469
103469
103469
103469
103469
103469
103469
103469
103469
103469
103469
103469
103469
103469
103469
103470
103469
103468
103468
103468
103468
103468
103468
103468
103468
103468
103468
103468
103468
103468
103468
103468
103468
103468
103468
103469
103468
103468
103467
103467
103467
103467
103467
103467
103467
103467
103467
103467
103467
103467
103467
103467
103467
103467
103468
103468
103467
103467
103467
103467
103467
103467
103466
103466
103466
103466
103466
103466
103466
103466
103467
103467
103467
103467
103467
103467
103467
103466
103466
103466
103466
103466
103466
103466
103466
103466
103466
103466
103466
103466
103466
103466
103466
103466
103466
103467
103466
103465
103465
103465
103465
103465
103465
103465
103465
103465
103465
103465
103465
103465
103465
103465
103465
103465
103465
103466
103465
103464
103464
103464
103464
103464
103464
103464
103464
103464
103464
103464
103464
103464
103464
103464
103464
103464
103464
103465
103464
103464
103464
103463
103463
103463
103463
103463
103463
103463
103463
103463
103463
103463
103463
103463
103463
103464
103464
103464
103463
103463
103463
103463
103463
103463
103463
103463
103463
103463
103463
103463
103463
103463
103463
103463
103463
103463
103463
103463
103463
103462
103462
103462
103462
103462
103462
103462
103462
103462
103462
103462
103462
103462
103462
103462
103462
103462
103462
103463
103462
103461
103461
103461
103461
103461
103461
103461
103461
103461
103461
103461
103461
103461
103461
103461
103461
103461
103461
103462
103461
103461
103461
103460
103460
103460
103460
103460
103460
103460
103460
103460
103460
103460
103460
103460
103460
103461
103461
103461
103460
103460
103460
103460
103460
103460
103460
103460
103460
103460
103460
103460
103460
103460
103460
103460
103460
103460
103460
103460
103459
103459
103459
103459
103459
103459
103459
103459
103459
103459
103459
103459
103459
103459
103459
103459
103459
103459
103459
103459
103459
103458
103458
103458
103458
103458
103458
103458
103458
103458
103458
103458
103458
103458
103458
103458
103458
103458
103458
103459
103458
103458
103458
103458
103457
103457
103457
103457
103457
103457
103457
103457
103457
103457
103457
103457
103458
103458
103458
103458
103457
103457
103457
103457
103457
103457
103457
103457
103457
103457
103457
103457
103457
103457
103457
103457
103457
103457
103457
103457
103456
103456
103456
103456
103456
103456
103456
103456
103456
103456
103456
103456
103456
103456
103456
103456
103456
103456
103456
103456
103456
103456
103455
103455
103455
103455
103455
103455
103455
103455
103455
103455
103455
103455
103455
103455
103455
103455
103456
103456
103455
103455
103455
103455
103455
103455
103455
103455
103455
103455
103455
103455
103455
103455
103455
103455
103455
103455
103455
103455
103454
103454
103454
103454
103454
103454
103454
103454
103454
103454
103454
103454
103454
103454
103454
103454
103454
103454
103454
103454
103454
103453
103453
103453
103453
103453
103453
103453
103453
103453
103453
103453
103453
103453
103453
103453
103453
103453
103453
103454
103453
103453
103453
103453
103453
103452
103452
103452
103452
103452
103452
103452
103452
103452
103452
103453
103453
103453
103453
103453
103452
103452
103452
103452
103452
103452
103452
103452
103452
103452
103452
103452
103452
103452
103452
103452
103452
103452
103452
103452
103451
103451
103451
103451
103451
103451
103451
103451
103451
103451
103451
103451
103451
103451
103451
103451
103451
103451
103451
103451
103451
103451
103451
103450
103450
103450
103450
103450
103450
103450
103450
103450
103450
103450
103450
103450
103450
103451
103451
103451
103450
103450
103450
103450
103450
103450
103450
103450
103450
103450
103450
103450
103450
103450
103450
103450
103450
103450
103450
103450
103449
103449
103449
103449
103449
103449
103449
103449
103449
103449
103449
103449
103449
103449
103449
103449
103449
103449
103449
103449
103449
103449
103449
103448
103448
103448
103448
103448
103448
103448
103448
103448
103448
103448
103448
103448
103448
103449
103449
103449
103448
103448
103448
103448
103448
103448
103448
103448
103448
103448
103448
103448
103448
103448
103448
103448
103448
103448
103448
103448
103447
103447
103447
103447
103447
103447
103447
103447
103447
103447
103447
103447
103447
103447
103447
103447
103447
103447
103447
103447
103447
103447
103447
103446
103446
103446
103446
103446
103446
103446
103446
103446
103446
103446
103446
103446
103446
103447
103447
103447
103446
103446
103446
103446
103446
103446
103446
103446
103446
103446
103446
103446
103446
103446
103446
103446
103446
103446
103446
103446
103445
103445
103445
103445
103445
103445
103445
103445
103445
103445
103445
103445
103445
103445
103445
103445
103445
103445
103445
103445
103445
103445
103445
103444
103444
103444
103444
103444
103444
103444
103444
103444
103444
103444
103445
103445
103445
103445
103445
103445
103444
103444
103444
103444
103444
103444
103444
103444
103444
103444
103444
103444
103444
103444
103444
103444
103444
103444
103444
103444
103443
103443
103443
103443
103443
103443
103443
103443
103443
103443
103443
103443
103443
103443
103443
103443
103443
103443
103443
103443
103443
103443
103443
103442
103442
103442
103442
103442
103442
103442
103443
103443
103443
103443
103443
103443
103443
103443
103443
103443
103442
103442
103442
103442
103442
103442
103442
103442
103442
103442
103442
103442
103442
103442
103442
103442
103442
103442
103442
103442
103441
103441
103441
103441
103441
103441
103441
103441
103441
103441
103441
103441
103441
103441
103441
103441
103442
103442
103442
103442
103441
103441
103440
103440
103440
103440
103440
103441
103441
103441
103441
103441
103441
103441
103441
103441
103441
103441
103441
103441
103440
103440
103440
103440
103440
103440
103440
103440
103440
103440
103440
103440
103440
103440
103440
103440
103440
103441
103441
103441
103439
103439
103439
103439
103439
103439
103439
103439
103439
103439
103439
103439
103440
103440
103440
103440
103440
103440
103440
103440
103438
103438
103438
103438
103438
103438
103438
103438
103439
103439
103439
103439
103439
103439
103439
103439
103439
103440
103440
103440
103437
103437
103437
103437
103438
103438
103438
103438
103438
103438
103438
103438
103438