/*--------------------------------*- C++ -*----------------------------------*\
| =========                 |                                                 |
| \\      /  F ield         | OpenFOAM: The Open Source CFD Toolbox           |
|  \\    /   O peration     | Version:  2.1.0                                 |
|   \\  /    A nd           | Web:      www.OpenFOAM.org                      |
|    \\/     M anipulation  |                                                 |
\*---------------------------------------------------------------------------*/
FoamFile
{
    version     2.0;
    format      ascii;
    class       surfaceScalarField;
    location    "0.34";
    object      phi;
}
// * * * * * * * * * * * * * * * * * * * * * * * * * * * * * * * * * * * * * //

dimensions      [0 3 -1 0 0 0 0];

internalField   nonuniform List<scalar> 
12460
(
-2.57007e-05
-4.61105e-09
-2.56753e-05
-4.09474e-08
-2.56271e-05
-6.35463e-08
-2.55671e-05
-7.52245e-08
-2.54997e-05
-8.22547e-08
-2.54274e-05
-8.70532e-08
-2.53514e-05
-9.05734e-08
-2.52724e-05
-9.33671e-08
-2.51908e-05
-9.5742e-08
-2.51069e-05
-9.78787e-08
-2.50207e-05
-9.98859e-08
-2.49323e-05
-1.01819e-07
-2.48419e-05
-1.03724e-07
-2.47493e-05
-1.05612e-07
-2.46546e-05
-1.07506e-07
-2.45577e-05
-1.09404e-07
-2.44587e-05
-1.11323e-07
-2.43575e-05
-1.13252e-07
-2.42541e-05
-1.15204e-07
-2.41485e-05
-1.17166e-07
-2.40407e-05
-1.19164e-07
-2.39306e-05
-1.21195e-07
-2.38182e-05
-1.23218e-07
-2.37034e-05
-1.2528e-07
-2.35863e-05
-1.27466e-07
-2.34666e-05
-1.29723e-07
-2.33444e-05
-1.32046e-07
-2.32195e-05
-1.34426e-07
-2.3092e-05
-1.36879e-07
-2.29616e-05
-1.39402e-07
-2.28284e-05
-1.4201e-07
-2.26923e-05
-1.44703e-07
-2.25531e-05
-1.47493e-07
-2.24108e-05
-1.50384e-07
-2.22652e-05
-1.53388e-07
-2.21163e-05
-1.56506e-07
-2.1964e-05
-1.5975e-07
-2.1808e-05
-1.63122e-07
-2.16482e-05
-1.66634e-07
-2.14846e-05
-1.70301e-07
-2.13169e-05
-1.74133e-07
-2.1145e-05
-1.78134e-07
-2.09687e-05
-1.82313e-07
-2.07879e-05
-1.86676e-07
-2.06022e-05
-1.91228e-07
-2.04117e-05
-1.95969e-07
-2.0216e-05
-2.00899e-07
-2.0015e-05
-2.06007e-07
-1.98085e-05
-2.11295e-07
-1.95963e-05
-2.16749e-07
-1.93786e-05
-2.2221e-07
-1.91549e-05
-2.27946e-07
-1.89248e-05
-2.34173e-07
-1.86881e-05
-2.4062e-07
-1.84448e-05
-2.47041e-07
-1.81952e-05
-2.53233e-07
-1.79393e-05
-2.59281e-07
-1.76773e-05
-2.65351e-07
-1.74089e-05
-2.71537e-07
-1.71341e-05
-2.77887e-07
-1.68526e-05
-2.84428e-07
-1.65642e-05
-2.91176e-07
-1.62686e-05
-2.98165e-07
-1.59657e-05
-3.05418e-07
-1.56552e-05
-3.12958e-07
-1.53367e-05
-3.20817e-07
-1.50098e-05
-3.29039e-07
-1.46742e-05
-3.37675e-07
-1.43294e-05
-3.46764e-07
-1.39749e-05
-3.56326e-07
-1.36103e-05
-3.66406e-07
-1.32349e-05
-3.77053e-07
-1.28482e-05
-3.88311e-07
-1.24494e-05
-4.00252e-07
-1.20378e-05
-4.12958e-07
-1.16126e-05
-4.26535e-07
-1.11726e-05
-4.41122e-07
-1.07169e-05
-4.56893e-07
-1.02438e-05
-4.74095e-07
-9.75174e-06
-4.93079e-07
-9.23837e-06
-5.14268e-07
-8.701e-06
-5.38198e-07
-8.13622e-06
-5.65536e-07
-7.53991e-06
-5.96988e-07
-6.90745e-06
-6.33051e-07
-6.23404e-06
-6.73911e-07
-5.51524e-06
-7.19216e-07
-4.74815e-06
-7.67397e-07
-3.93383e-06
-8.14505e-07
-3.08199e-06
-8.51895e-07
-2.21994e-06
-8.61939e-07
-1.41008e-06
-8.09601e-07
-7.57141e-07
-6.52556e-07
-3.68679e-07
-3.88169e-07
-2.8354e-07
-8.56684e-08
-5.34872e-07
2.49257e-07
-1.42789e-06
8.90167e-07
-3.72087e-06
2.29218e-06
-9.29115e-06
5.57023e-06
1.54958e-05
-2.47869e-05
-3.1042e-05
-2.4955e-08
-3.10063e-05
-9.44086e-08
-3.09555e-05
-1.32026e-07
-3.08953e-05
-1.52789e-07
-3.08289e-05
-1.65705e-07
-3.07582e-05
-1.74559e-07
-3.06843e-05
-1.81054e-07
-3.06078e-05
-1.86202e-07
-3.05289e-05
-1.90574e-07
-3.0448e-05
-1.94502e-07
-3.03652e-05
-1.98196e-07
-3.02804e-05
-2.01755e-07
-3.01937e-05
-2.05268e-07
-3.01051e-05
-2.08756e-07
-3.00146e-05
-2.12266e-07
-2.99222e-05
-2.15794e-07
-2.98278e-05
-2.1937e-07
-2.97315e-05
-2.22973e-07
-2.96331e-05
-2.26622e-07
-2.95328e-05
-2.30294e-07
-2.94304e-05
-2.34016e-07
-2.9326e-05
-2.37814e-07
-2.92196e-05
-2.4155e-07
-2.91112e-05
-2.45287e-07
-2.90007e-05
-2.49237e-07
-2.88882e-05
-2.53272e-07
-2.87736e-05
-2.57396e-07
-2.86569e-05
-2.61603e-07
-2.85381e-05
-2.65917e-07
-2.8417e-05
-2.70339e-07
-2.82938e-05
-2.74888e-07
-2.81683e-05
-2.79566e-07
-2.80406e-05
-2.84392e-07
-2.79104e-05
-2.89374e-07
-2.77779e-05
-2.94527e-07
-2.76429e-05
-2.99853e-07
-2.75054e-05
-3.05378e-07
-2.73652e-05
-3.11104e-07
-2.72224e-05
-3.17042e-07
-2.70769e-05
-3.23215e-07
-2.69286e-05
-3.29643e-07
-2.67773e-05
-3.36336e-07
-2.6623e-05
-3.4331e-07
-2.64656e-05
-3.50583e-07
-2.63049e-05
-3.58169e-07
-2.61409e-05
-3.66079e-07
-2.59734e-05
-3.74329e-07
-2.58021e-05
-3.82916e-07
-2.56271e-05
-3.91852e-07
-2.5448e-05
-4.01142e-07
-2.52648e-05
-4.10536e-07
-2.50777e-05
-4.19954e-07
-2.48873e-05
-4.29451e-07
-2.46936e-05
-4.38978e-07
-2.44965e-05
-4.48577e-07
-2.4296e-05
-4.58144e-07
-2.40918e-05
-4.67658e-07
-2.3884e-05
-4.77227e-07
-2.36725e-05
-4.8695e-07
-2.34573e-05
-4.96896e-07
-2.32384e-05
-5.07107e-07
-2.30155e-05
-5.17602e-07
-2.27887e-05
-5.28396e-07
-2.2558e-05
-5.39501e-07
-2.23233e-05
-5.50952e-07
-2.20844e-05
-5.62801e-07
-2.18414e-05
-5.75109e-07
-2.15941e-05
-5.87942e-07
-2.13423e-05
-6.01386e-07
-2.1086e-05
-6.15507e-07
-2.08247e-05
-6.30398e-07
-2.05582e-05
-6.46167e-07
-2.02861e-05
-6.62923e-07
-2.00081e-05
-6.80822e-07
-1.97234e-05
-7.00044e-07
-1.94315e-05
-7.20805e-07
-1.91315e-05
-7.4338e-07
-1.88226e-05
-7.68078e-07
-1.85036e-05
-7.95314e-07
-1.81732e-05
-8.2564e-07
-1.78299e-05
-8.59691e-07
-1.7472e-05
-8.98192e-07
-1.70975e-05
-9.42004e-07
-1.67045e-05
-9.92045e-07
-1.62907e-05
-1.04897e-06
-1.58538e-05
-1.1129e-06
-1.53921e-05
-1.18299e-06
-1.49053e-05
-1.25644e-06
-1.43952e-05
-1.32688e-06
-1.38681e-05
-1.38157e-06
-1.33364e-05
-1.39655e-06
-1.28189e-05
-1.33055e-06
-1.23507e-05
-1.12501e-06
-1.20119e-05
-7.3182e-07
-1.2065e-05
-3.74034e-08
-1.25926e-05
7.73364e-07
-1.39614e-05
2.25633e-06
-1.66862e-05
5.0164e-06
-2.18071e-05
1.06911e-05
2.65617e-05
-3.2873e-05
-3.40581e-05
-5.30086e-08
-3.40295e-05
-1.41564e-07
-3.39888e-05
-1.91157e-07
-3.39402e-05
-2.19518e-07
-3.38865e-05
-2.37316e-07
-3.38291e-05
-2.49473e-07
-3.37691e-05
-2.58295e-07
-3.37069e-05
-2.65249e-07
-3.3643e-05
-2.71078e-07
-3.35775e-05
-2.76297e-07
-3.35106e-05
-2.81154e-07
-3.34421e-05
-2.85836e-07
-3.33723e-05
-2.90429e-07
-3.33011e-05
-2.95003e-07
-3.32285e-05
-2.99595e-07
-3.31544e-05
-3.04233e-07
-3.3079e-05
-3.0894e-07
-3.3002e-05
-3.13719e-07
-3.29235e-05
-3.18582e-07
-3.28433e-05
-3.23527e-07
-3.27616e-05
-3.28581e-07
-3.26781e-05
-3.33793e-07
-3.25928e-05
-3.39033e-07
-3.25058e-05
-3.44215e-07
-3.24172e-05
-3.49409e-07
-3.23271e-05
-3.54592e-07
-3.22357e-05
-3.59829e-07
-3.21429e-05
-3.65141e-07
-3.20487e-05
-3.70557e-07
-3.19531e-05
-3.7608e-07
-3.18561e-05
-3.81729e-07
-3.17577e-05
-3.8751e-07
-3.1658e-05
-3.93436e-07
-3.15569e-05
-3.99517e-07
-3.14545e-05
-4.05765e-07
-3.13507e-05
-4.12178e-07
-3.12456e-05
-4.18784e-07
-3.11392e-05
-4.25585e-07
-3.10314e-05
-4.32579e-07
-3.09224e-05
-4.3979e-07
-3.08122e-05
-4.47234e-07
-3.07007e-05
-4.54914e-07
-3.05881e-05
-4.62844e-07
-3.04743e-05
-4.71036e-07
-3.03595e-05
-4.795e-07
-3.02436e-05
-4.8824e-07
-3.01267e-05
-4.97268e-07
-3.00089e-05
-5.06578e-07
-2.98904e-05
-5.16142e-07
-2.97711e-05
-5.25916e-07
-2.96512e-05
-5.35825e-07
-2.95306e-05
-5.45744e-07
-2.94096e-05
-5.55471e-07
-2.92884e-05
-5.65013e-07
-2.91671e-05
-5.74584e-07
-2.90456e-05
-5.84242e-07
-2.89238e-05
-5.939e-07
-2.88017e-05
-6.03548e-07
-2.86796e-05
-6.13221e-07
-2.85575e-05
-6.22967e-07
-2.84356e-05
-6.32812e-07
-2.83142e-05
-6.42771e-07
-2.81934e-05
-6.52819e-07
-2.80735e-05
-6.6293e-07
-2.79547e-05
-6.7311e-07
-2.78374e-05
-6.83391e-07
-2.77219e-05
-6.93809e-07
-2.76085e-05
-7.04394e-07
-2.74977e-05
-7.15219e-07
-2.73897e-05
-7.26348e-07
-2.72851e-05
-7.37867e-07
-2.71841e-05
-7.49901e-07
-2.70871e-05
-7.62553e-07
-2.69945e-05
-7.76022e-07
-2.69065e-05
-7.90538e-07
-2.68234e-05
-8.06383e-07
-2.67453e-05
-8.23932e-07
-2.66721e-05
-8.43603e-07
-2.66038e-05
-8.65932e-07
-2.654e-05
-8.9165e-07
-2.64803e-05
-9.21581e-07
-2.6424e-05
-9.5659e-07
-2.63705e-05
-9.97642e-07
-2.63189e-05
-1.0457e-06
-2.62685e-05
-1.10148e-06
-2.62183e-05
-1.16505e-06
-2.61682e-05
-1.23512e-06
-2.61187e-05
-1.308e-06
-2.60717e-05
-1.37584e-06
-2.60315e-05
-1.42371e-06
-2.60047e-05
-1.42534e-06
-2.59992e-05
-1.33779e-06
-2.60273e-05
-1.09843e-06
-2.61323e-05
-6.28003e-07
-2.63134e-05
1.43112e-07
-2.68229e-05
1.28258e-06
-2.78441e-05
3.27723e-06
-2.9766e-05
6.93815e-06
-3.33112e-05
1.42363e-05
3.11849e-05
-3.79344e-05
-3.67933e-05
-8.07335e-08
-3.67769e-05
-1.76858e-07
-3.67532e-05
-2.33788e-07
-3.67235e-05
-2.67739e-07
-3.66898e-05
-2.89258e-07
-3.66533e-05
-3.03801e-07
-3.6615e-05
-3.14184e-07
-3.65753e-05
-3.22219e-07
-3.65344e-05
-3.2881e-07
-3.64927e-05
-3.34614e-07
-3.64502e-05
-3.39921e-07
-3.6407e-05
-3.44982e-07
-3.63631e-05
-3.49886e-07
-3.63186e-05
-3.54739e-07
-3.62736e-05
-3.59568e-07
-3.6228e-05
-3.64424e-07
-3.6182e-05
-3.69323e-07
-3.61354e-05
-3.7428e-07
-3.60883e-05
-3.79296e-07
-3.60408e-05
-3.84379e-07
-3.59929e-05
-3.89553e-07
-3.59447e-05
-3.94786e-07
-3.5896e-05
-4.00083e-07
-3.58469e-05
-4.05437e-07
-3.57975e-05
-4.10724e-07
-3.57476e-05
-4.15937e-07
-3.56976e-05
-4.21149e-07
-3.56473e-05
-4.26393e-07
-3.55968e-05
-4.31693e-07
-3.55462e-05
-4.37053e-07
-3.54955e-05
-4.42489e-07
-3.54448e-05
-4.48001e-07
-3.53942e-05
-4.536e-07
-3.53437e-05
-4.59288e-07
-3.52935e-05
-4.65073e-07
-3.52435e-05
-4.70942e-07
-3.51938e-05
-4.76909e-07
-3.51447e-05
-4.82975e-07
-3.50961e-05
-4.8914e-07
-3.50483e-05
-4.95406e-07
-3.50013e-05
-5.01773e-07
-3.49553e-05
-5.08235e-07
-3.49104e-05
-5.14789e-07
-3.48668e-05
-5.2143e-07
-3.48248e-05
-5.28154e-07
-3.47845e-05
-5.34939e-07
-3.47462e-05
-5.41778e-07
-3.47101e-05
-5.48643e-07
-3.46766e-05
-5.55486e-07
-3.46459e-05
-5.62221e-07
-3.46182e-05
-5.6889e-07
-3.45935e-05
-5.75693e-07
-3.45715e-05
-5.82498e-07
-3.45522e-05
-5.89101e-07
-3.45359e-05
-5.95558e-07
-3.45227e-05
-6.0187e-07
-3.45129e-05
-6.07981e-07
-3.45067e-05
-6.13856e-07
-3.45044e-05
-6.1949e-07
-3.45062e-05
-6.24901e-07
-3.45125e-05
-6.30101e-07
-3.45236e-05
-6.35109e-07
-3.45398e-05
-6.39901e-07
-3.45614e-05
-6.44431e-07
-3.45888e-05
-6.48696e-07
-3.46223e-05
-6.52733e-07
-3.46622e-05
-6.5659e-07
-3.47089e-05
-6.60323e-07
-3.47625e-05
-6.64026e-07
-3.48233e-05
-6.678e-07
-3.48916e-05
-6.71778e-07
-3.49674e-05
-6.7615e-07
-3.50507e-05
-6.81124e-07
-3.51416e-05
-6.86979e-07
-3.52397e-05
-6.94063e-07
-3.53449e-05
-7.02798e-07
-3.54565e-05
-7.13713e-07
-3.55741e-05
-7.2739e-07
-3.56968e-05
-7.44471e-07
-3.58237e-05
-7.65866e-07
-3.59538e-05
-7.92557e-07
-3.60858e-05
-8.25462e-07
-3.62187e-05
-8.6557e-07
-3.63514e-05
-9.13786e-07
-3.64829e-05
-9.70658e-07
-3.66127e-05
-1.03591e-06
-3.67406e-05
-1.10771e-06
-3.68674e-05
-1.18163e-06
-3.69947e-05
-1.24893e-06
-3.71248e-05
-1.29395e-06
-3.72599e-05
-1.29054e-06
-3.73996e-05
-1.1983e-06
-3.75434e-05
-9.5474e-07
-3.76899e-05
-4.81601e-07
-3.78435e-05
2.96664e-07
-3.81366e-05
1.57565e-06
-3.8691e-05
3.83156e-06
-3.96782e-05
7.92535e-06
-4.12824e-05
1.58405e-05
3.12442e-05
-4.13417e-05
-3.95659e-05
-1.01001e-07
-3.95667e-05
-1.94954e-07
-3.9566e-05
-2.53306e-07
-3.95629e-05
-2.89409e-07
-3.95579e-05
-3.12543e-07
-3.95517e-05
-3.27911e-07
-3.95447e-05
-3.38676e-07
-3.95375e-05
-3.46705e-07
-3.95301e-05
-3.53096e-07
-3.95227e-05
-3.58501e-07
-3.95156e-05
-3.63309e-07
-3.95087e-05
-3.67747e-07
-3.95022e-05
-3.71957e-07
-3.94962e-05
-3.76019e-07
-3.94907e-05
-3.79988e-07
-3.94858e-05
-3.8389e-07
-3.94816e-05
-3.87757e-07
-3.94783e-05
-3.91596e-07
-3.94759e-05
-3.95384e-07
-3.94745e-05
-3.99111e-07
-3.94742e-05
-4.02833e-07
-3.94753e-05
-4.06483e-07
-3.94777e-05
-4.10079e-07
-3.94815e-05
-4.13784e-07
-3.94866e-05
-4.17559e-07
-3.94928e-05
-4.2128e-07
-3.95002e-05
-4.2495e-07
-3.9509e-05
-4.28581e-07
-3.95192e-05
-4.32189e-07
-3.95309e-05
-4.35773e-07
-3.95442e-05
-4.39344e-07
-3.95592e-05
-4.429e-07
-3.9576e-05
-4.46446e-07
-3.95946e-05
-4.49978e-07
-3.96152e-05
-4.53499e-07
-3.9638e-05
-4.57002e-07
-3.9663e-05
-4.60483e-07
-3.96903e-05
-4.63937e-07
-3.97201e-05
-4.67373e-07
-3.97525e-05
-4.70789e-07
-3.97876e-05
-4.74172e-07
-3.98256e-05
-4.77521e-07
-3.98666e-05
-4.80834e-07
-3.99108e-05
-4.84102e-07
-3.99582e-05
-4.87327e-07
-4.00089e-05
-4.9049e-07
-4.00632e-05
-4.93591e-07
-4.01211e-05
-4.96611e-07
-4.01827e-05
-4.99523e-07
-4.0248e-05
-5.02293e-07
-4.03171e-05
-5.04955e-07
-4.03901e-05
-5.07596e-07
-4.04672e-05
-5.10143e-07
-4.05483e-05
-5.12471e-07
-4.06335e-05
-5.14568e-07
-4.0723e-05
-5.16423e-07
-4.08168e-05
-5.18011e-07
-4.09149e-05
-5.19319e-07
-4.10174e-05
-5.20357e-07
-4.11244e-05
-5.2115e-07
-4.12357e-05
-5.21748e-07
-4.13514e-05
-5.22209e-07
-4.14714e-05
-5.22524e-07
-4.15956e-05
-5.22639e-07
-4.1724e-05
-5.22574e-07
-4.18564e-05
-5.2239e-07
-4.19927e-05
-5.2217e-07
-4.21328e-05
-5.21996e-07
-4.22764e-05
-5.21976e-07
-4.24235e-05
-5.22235e-07
-4.25736e-05
-5.22925e-07
-4.27267e-05
-5.24238e-07
-4.28825e-05
-5.26406e-07
-4.30407e-05
-5.29714e-07
-4.32011e-05
-5.34512e-07
-4.33634e-05
-5.41225e-07
-4.35273e-05
-5.50392e-07
-4.36926e-05
-5.62646e-07
-4.38591e-05
-5.78524e-07
-4.40264e-05
-5.98988e-07
-4.41942e-05
-6.25099e-07
-4.43623e-05
-6.5768e-07
-4.45304e-05
-6.97663e-07
-4.46986e-05
-7.4586e-07
-4.48667e-05
-8.02695e-07
-4.5035e-05
-8.67751e-07
-4.52039e-05
-9.38999e-07
-4.53737e-05
-1.01183e-06
-4.55452e-05
-1.07759e-06
-4.57178e-05
-1.12135e-06
-4.58893e-05
-1.11904e-06
-4.6053e-05
-1.03467e-06
-4.6194e-05
-8.13724e-07
-4.6292e-05
-3.83603e-07
-4.63495e-05
3.5414e-07
-4.64052e-05
1.63135e-06
-4.64762e-05
3.90252e-06
-4.65623e-05
8.01141e-06
-4.63393e-05
1.56175e-05
2.84142e-05
-4.35094e-05
-4.25096e-05
-1.07465e-07
-4.25317e-05
-1.90969e-07
-4.2559e-05
-2.442e-07
-4.25884e-05
-2.77889e-07
-4.26189e-05
-2.99522e-07
-4.26504e-05
-3.13587e-07
-4.26828e-05
-3.23115e-07
-4.27162e-05
-3.29835e-07
-4.27507e-05
-3.34871e-07
-4.27862e-05
-3.38827e-07
-4.28229e-05
-3.42125e-07
-4.28609e-05
-3.44964e-07
-4.29002e-05
-3.47508e-07
-4.2941e-05
-3.49818e-07
-4.29832e-05
-3.51964e-07
-4.30271e-05
-3.53958e-07
-4.30726e-05
-3.55832e-07
-4.31199e-05
-3.57631e-07
-4.3169e-05
-3.59286e-07
-4.32201e-05
-3.60758e-07
-4.32731e-05
-3.62171e-07
-4.33282e-05
-3.63504e-07
-4.33854e-05
-3.64768e-07
-4.34447e-05
-3.66051e-07
-4.35062e-05
-3.6733e-07
-4.35699e-05
-3.68532e-07
-4.36359e-05
-3.69652e-07
-4.37042e-05
-3.70687e-07
-4.3775e-05
-3.71654e-07
-4.38481e-05
-3.72548e-07
-4.39237e-05
-3.73386e-07
-4.40019e-05
-3.74168e-07
-4.40826e-05
-3.7491e-07
-4.41659e-05
-3.75604e-07
-4.42518e-05
-3.76265e-07
-4.43404e-05
-3.7689e-07
-4.44316e-05
-3.77486e-07
-4.45255e-05
-3.78043e-07
-4.4622e-05
-3.78576e-07
-4.47212e-05
-3.79094e-07
-4.48231e-05
-3.79604e-07
-4.49276e-05
-3.80105e-07
-4.50348e-05
-3.80601e-07
-4.51444e-05
-3.81095e-07
-4.52566e-05
-3.81598e-07
-4.53713e-05
-3.82096e-07
-4.54883e-05
-3.82596e-07
-4.56076e-05
-3.83093e-07
-4.57292e-05
-3.83567e-07
-4.5853e-05
-3.84001e-07
-4.59787e-05
-3.84426e-07
-4.61065e-05
-3.84876e-07
-4.62362e-05
-3.85313e-07
-4.63676e-05
-3.85668e-07
-4.65008e-05
-3.85918e-07
-4.66354e-05
-3.86039e-07
-4.67715e-05
-3.86007e-07
-4.6909e-05
-3.85812e-07
-4.70476e-05
-3.85457e-07
-4.71874e-05
-3.84954e-07
-4.73282e-05
-3.84353e-07
-4.74699e-05
-3.83745e-07
-4.76124e-05
-3.83108e-07
-4.77556e-05
-3.82328e-07
-4.78995e-05
-3.81402e-07
-4.80441e-05
-3.8039e-07
-4.81893e-05
-3.79381e-07
-4.83352e-05
-3.78447e-07
-4.84816e-05
-3.77678e-07
-4.86287e-05
-3.7719e-07
-4.87763e-05
-3.77126e-07
-4.89247e-05
-3.77657e-07
-4.90737e-05
-3.79002e-07
-4.92235e-05
-3.81447e-07
-4.9374e-05
-3.85341e-07
-4.95254e-05
-3.911e-07
-4.96778e-05
-3.99258e-07
-4.9831e-05
-4.10453e-07
-4.99853e-05
-4.2521e-07
-5.0141e-05
-4.44266e-07
-5.02983e-05
-4.68619e-07
-5.04574e-05
-4.99238e-07
-5.06187e-05
-5.37044e-07
-5.07824e-05
-5.82778e-07
-5.09487e-05
-6.36841e-07
-5.11181e-05
-6.98834e-07
-5.12908e-05
-7.66745e-07
-5.14668e-05
-8.36169e-07
-5.16454e-05
-8.99204e-07
-5.18245e-05
-9.4256e-07
-5.19983e-05
-9.45449e-07
-5.21556e-05
-8.77508e-07
-5.22726e-05
-6.9683e-07
-5.23198e-05
-3.36413e-07
-5.2279e-05
3.13216e-07
-5.21214e-05
1.47378e-06
-5.17666e-05
3.54759e-06
-5.10443e-05
7.28908e-06
-4.93385e-05
1.39116e-05
2.38193e-05
-4.47437e-05
-4.55332e-05
-9.84515e-08
-4.55772e-05
-1.63379e-07
-4.56317e-05
-2.06073e-07
-4.56919e-05
-2.33631e-07
-4.57559e-05
-2.51192e-07
-4.58225e-05
-2.62283e-07
-4.58911e-05
-2.69401e-07
-4.59616e-05
-2.7402e-07
-4.60336e-05
-2.77103e-07
-4.61072e-05
-2.79186e-07
-4.61824e-05
-2.80645e-07
-4.6259e-05
-2.81659e-07
-4.63371e-05
-2.82383e-07
-4.64168e-05
-2.82872e-07
-4.6498e-05
-2.83203e-07
-4.65807e-05
-2.83384e-07
-4.66649e-05
-2.83454e-07
-4.67507e-05
-2.83452e-07
-4.68379e-05
-2.83339e-07
-4.69268e-05
-2.82999e-07
-4.70173e-05
-2.8247e-07
-4.71096e-05
-2.81775e-07
-4.72037e-05
-2.80989e-07
-4.72996e-05
-2.80171e-07
-4.73974e-05
-2.79334e-07
-4.74971e-05
-2.78439e-07
-4.75987e-05
-2.77493e-07
-4.7702e-05
-2.76487e-07
-4.78072e-05
-2.7545e-07
-4.79141e-05
-2.74374e-07
-4.80227e-05
-2.73291e-07
-4.81331e-05
-2.72201e-07
-4.82451e-05
-2.71141e-07
-4.83586e-05
-2.70096e-07
-4.84736e-05
-2.69105e-07
-4.85901e-05
-2.68154e-07
-4.87079e-05
-2.67265e-07
-4.88269e-05
-2.66432e-07
-4.89471e-05
-2.65685e-07
-4.90684e-05
-2.65021e-07
-4.91906e-05
-2.64456e-07
-4.93137e-05
-2.63987e-07
-4.94375e-05
-2.63621e-07
-4.9562e-05
-2.63357e-07
-4.96871e-05
-2.63209e-07
-4.98127e-05
-2.63155e-07
-4.99386e-05
-2.63197e-07
-5.00648e-05
-2.63335e-07
-5.01913e-05
-2.63548e-07
-5.03178e-05
-2.63806e-07
-5.04444e-05
-2.64132e-07
-5.0571e-05
-2.64532e-07
-5.06976e-05
-2.64965e-07
-5.0824e-05
-2.6537e-07
-5.09503e-05
-2.65717e-07
-5.10765e-05
-2.65968e-07
-5.12024e-05
-2.66087e-07
-5.13281e-05
-2.66045e-07
-5.14537e-05
-2.65832e-07
-5.15791e-05
-2.65433e-07
-5.17044e-05
-2.64873e-07
-5.18296e-05
-2.64295e-07
-5.19547e-05
-2.63698e-07
-5.20799e-05
-2.62822e-07
-5.22052e-05
-2.61666e-07
-5.23307e-05
-2.60304e-07
-5.24567e-05
-2.58816e-07
-5.25832e-05
-2.57273e-07
-5.27103e-05
-2.55752e-07
-5.28383e-05
-2.54355e-07
-5.29672e-05
-2.53211e-07
-5.30972e-05
-2.5248e-07
-5.32286e-05
-2.52374e-07
-5.33615e-05
-2.53163e-07
-5.34961e-05
-2.55188e-07
-5.36327e-05
-2.58859e-07
-5.37715e-05
-2.64652e-07
-5.39129e-05
-2.73117e-07
-5.4057e-05
-2.85023e-07
-5.42039e-05
-3.01173e-07
-5.43537e-05
-3.22318e-07
-5.4507e-05
-3.49344e-07
-5.46642e-05
-3.83123e-07
-5.48257e-05
-4.24321e-07
-5.4992e-05
-4.73362e-07
-5.51635e-05
-5.30055e-07
-5.53401e-05
-5.92619e-07
-5.55215e-05
-6.57104e-07
-5.57059e-05
-7.16899e-07
-5.58893e-05
-7.61029e-07
-5.60636e-05
-7.72863e-07
-5.6214e-05
-7.28534e-07
-5.63128e-05
-5.99239e-07
-5.63206e-05
-3.29545e-07
-5.61923e-05
1.84225e-07
-5.58517e-05
1.13249e-06
-5.51343e-05
2.82938e-06
-5.37311e-05
5.88478e-06
-5.0918e-05
1.1097e-05
1.82004e-05
-4.5301e-05
-4.82292e-05
-7.70221e-08
-4.82869e-05
-1.19142e-07
-4.83573e-05
-1.48997e-07
-4.84354e-05
-1.68334e-07
-4.85187e-05
-1.80543e-07
-4.86051e-05
-1.88052e-07
-4.86938e-05
-1.92591e-07
-4.87841e-05
-1.95253e-07
-4.88757e-05
-1.9672e-07
-4.89684e-05
-1.97408e-07
-4.9062e-05
-1.97585e-07
-4.91566e-05
-1.974e-07
-4.9252e-05
-1.96966e-07
-4.93483e-05
-1.96337e-07
-4.94454e-05
-1.9557e-07
-4.95433e-05
-1.94678e-07
-4.96421e-05
-1.93693e-07
-4.97417e-05
-1.92569e-07
-4.98422e-05
-1.91352e-07
-4.99434e-05
-1.90073e-07
-5.00453e-05
-1.88712e-07
-5.01477e-05
-1.87232e-07
-5.02507e-05
-1.85715e-07
-5.03542e-05
-1.84193e-07
-5.04582e-05
-1.82697e-07
-5.05627e-05
-1.81206e-07
-5.06675e-05
-1.79741e-07
-5.07726e-05
-1.78279e-07
-5.0878e-05
-1.76864e-07
-5.09837e-05
-1.75465e-07
-5.10894e-05
-1.74132e-07
-5.11953e-05
-1.72842e-07
-5.13012e-05
-1.7166e-07
-5.14072e-05
-1.7054e-07
-5.15131e-05
-1.69546e-07
-5.16189e-05
-1.68639e-07
-5.17246e-05
-1.67847e-07
-5.18301e-05
-1.67157e-07
-5.19354e-05
-1.66593e-07
-5.20405e-05
-1.66151e-07
-5.21454e-05
-1.65833e-07
-5.22501e-05
-1.65633e-07
-5.23545e-05
-1.65552e-07
-5.24586e-05
-1.65579e-07
-5.25625e-05
-1.65724e-07
-5.26662e-05
-1.65961e-07
-5.27697e-05
-1.66279e-07
-5.2873e-05
-1.66672e-07
-5.29762e-05
-1.67122e-07
-5.30792e-05
-1.67599e-07
-5.31822e-05
-1.68097e-07
-5.32852e-05
-1.68606e-07
-5.33882e-05
-1.69093e-07
-5.34914e-05
-1.695e-07
-5.35948e-05
-1.69792e-07
-5.36984e-05
-1.69925e-07
-5.38023e-05
-1.69858e-07
-5.39066e-05
-1.69559e-07
-5.40115e-05
-1.69003e-07
-5.41169e-05
-1.68172e-07
-5.4223e-05
-1.67028e-07
-5.433e-05
-1.65802e-07
-5.44377e-05
-1.64647e-07
-5.45463e-05
-1.62986e-07
-5.46561e-05
-1.60845e-07
-5.47671e-05
-1.58366e-07
-5.48796e-05
-1.55626e-07
-5.49936e-05
-1.52681e-07
-5.51094e-05
-1.49596e-07
-5.5227e-05
-1.46458e-07
-5.53467e-05
-1.43385e-07
-5.54686e-05
-1.40524e-07
-5.5593e-05
-1.38079e-07
-5.57201e-05
-1.36302e-07
-5.58501e-05
-1.35518e-07
-5.59833e-05
-1.3612e-07
-5.61199e-05
-1.38561e-07
-5.62603e-05
-1.43364e-07
-5.64046e-05
-1.51351e-07
-5.65532e-05
-1.63354e-07
-5.67063e-05
-1.80058e-07
-5.68643e-05
-2.02256e-07
-5.70276e-05
-2.30744e-07
-5.71968e-05
-2.66113e-07
-5.73724e-05
-3.08816e-07
-5.75543e-05
-3.59102e-07
-5.77423e-05
-4.15637e-07
-5.79354e-05
-4.74984e-07
-5.81308e-05
-5.32288e-07
-5.83231e-05
-5.79398e-07
-5.85022e-05
-6.04179e-07
-5.86502e-05
-5.90472e-07
-5.874e-05
-5.18722e-07
-5.87219e-05
-3.56186e-07
-5.85244e-05
-2.07178e-08
-5.80404e-05
6.41372e-07
-5.70401e-05
1.82104e-06
-5.5117e-05
3.95171e-06
-5.15356e-05
7.50241e-06
1.20215e-05
-4.53731e-05
-5.02222e-05
-4.363e-08
-5.02841e-05
-6.68351e-08
-5.03589e-05
-8.34075e-08
-5.04419e-05
-9.4233e-08
-5.05299e-05
-1.01155e-07
-5.06207e-05
-1.05508e-07
-5.0713e-05
-1.08196e-07
-5.08062e-05
-1.09795e-07
-5.08996e-05
-1.1068e-07
-5.0993e-05
-1.11073e-07
-5.10863e-05
-1.11136e-07
-5.11793e-05
-1.10946e-07
-5.1272e-05
-1.10572e-07
-5.13644e-05
-1.10053e-07
-5.14564e-05
-1.09424e-07
-5.1548e-05
-1.08696e-07
-5.16392e-05
-1.07886e-07
-5.17301e-05
-1.06947e-07
-5.18205e-05
-1.0594e-07
-5.19105e-05
-1.04976e-07
-5.19999e-05
-1.04048e-07
-5.20886e-05
-1.03098e-07
-5.21767e-05
-1.02148e-07
-5.22641e-05
-1.01208e-07
-5.23508e-05
-1.00296e-07
-5.24368e-05
-9.94036e-08
-5.25222e-05
-9.85433e-08
-5.2607e-05
-9.76989e-08
-5.26911e-05
-9.68934e-08
-5.27746e-05
-9.61024e-08
-5.28574e-05
-9.53562e-08
-5.29398e-05
-9.46414e-08
-5.30215e-05
-9.40037e-08
-5.31028e-05
-9.34153e-08
-5.31836e-05
-9.29122e-08
-5.3264e-05
-9.24734e-08
-5.3344e-05
-9.21098e-08
-5.34236e-05
-9.18086e-08
-5.3503e-05
-9.15815e-08
-5.35821e-05
-9.14286e-08
-5.36611e-05
-9.13621e-08
-5.37399e-05
-9.13486e-08
-5.38187e-05
-9.14029e-08
-5.38975e-05
-9.15027e-08
-5.39764e-05
-9.16564e-08
-5.40555e-05
-9.18495e-08
-5.41347e-05
-9.20627e-08
-5.42143e-05
-9.22762e-08
-5.42942e-05
-9.24641e-08
-5.43746e-05
-9.26296e-08
-5.44554e-05
-9.27552e-08
-5.45369e-05
-9.28052e-08
-5.4619e-05
-9.27484e-08
-5.47019e-05
-9.25452e-08
-5.47856e-05
-9.21512e-08
-5.48703e-05
-9.15264e-08
-5.4956e-05
-9.06295e-08
-5.50428e-05
-8.9423e-08
-5.51308e-05
-8.78676e-08
-5.522e-05
-8.59679e-08
-5.53108e-05
-8.35872e-08
-5.54031e-05
-8.09538e-08
-5.54968e-05
-7.87621e-08
-5.55921e-05
-7.57346e-08
-5.56893e-05
-7.19953e-08
-5.57886e-05
-6.78147e-08
-5.58899e-05
-6.32738e-08
-5.59935e-05
-5.8411e-08
-5.60996e-05
-5.32733e-08
-5.62082e-05
-4.79338e-08
-5.63196e-05
-4.24969e-08
-5.64339e-05
-3.70951e-08
-5.65514e-05
-3.19164e-08
-5.66724e-05
-2.71971e-08
-5.6797e-05
-2.32389e-08
-5.69256e-05
-2.04127e-08
-5.70584e-05
-1.91536e-08
-5.71958e-05
-2.0003e-08
-5.73381e-05
-2.36732e-08
-5.74858e-05
-3.09067e-08
-5.76395e-05
-4.24142e-08
-5.77995e-05
-5.89638e-08
-5.79665e-05
-8.13406e-08
-5.81411e-05
-1.10082e-07
-5.83238e-05
-1.45564e-07
-5.85148e-05
-1.88763e-07
-5.87131e-05
-2.39141e-07
-5.89179e-05
-2.93429e-07
-5.91259e-05
-3.49065e-07
-5.93306e-05
-4.01062e-07
-5.95211e-05
-4.41846e-07
-5.96785e-05
-4.63072e-07
-5.97746e-05
-4.54512e-07
-5.97597e-05
-4.0469e-07
-5.95502e-05
-2.655e-07
-5.89862e-05
4.18418e-08
-5.78205e-05
6.17984e-07
-5.55781e-05
1.66578e-06
-5.15338e-05
3.40468e-06
5.54368e-06
-4.51178e-05
-5.10917e-05
-4.65669e-09
-5.11516e-05
-1.22311e-08
-5.12241e-05
-1.59359e-08
-5.13047e-05
-1.85558e-08
-5.13897e-05
-2.07347e-08
-5.14771e-05
-2.25989e-08
-5.15653e-05
-2.42227e-08
-5.16536e-05
-2.56082e-08
-5.17414e-05
-2.68156e-08
-5.18284e-05
-2.78385e-08
-5.19144e-05
-2.87291e-08
-5.19993e-05
-2.94816e-08
-5.20831e-05
-3.0108e-08
-5.21658e-05
-3.06306e-08
-5.22473e-05
-3.10535e-08
-5.23276e-05
-3.13864e-08
-5.24068e-05
-3.16176e-08
-5.24848e-05
-3.17426e-08
-5.25617e-05
-3.17945e-08
-5.26375e-05
-3.18407e-08
-5.27123e-05
-3.18674e-08
-5.27861e-05
-3.18554e-08
-5.2859e-05
-3.17989e-08
-5.29309e-05
-3.17151e-08
-5.30021e-05
-3.16026e-08
-5.30724e-05
-3.14694e-08
-5.3142e-05
-3.13081e-08
-5.3211e-05
-3.11336e-08
-5.32793e-05
-3.09226e-08
-5.3347e-05
-3.06911e-08
-5.34142e-05
-3.04263e-08
-5.3481e-05
-3.01637e-08
-5.35474e-05
-2.98863e-08
-5.36134e-05
-2.96311e-08
-5.36792e-05
-2.93747e-08
-5.37448e-05
-2.91412e-08
-5.38102e-05
-2.89223e-08
-5.38756e-05
-2.87147e-08
-5.39409e-05
-2.85171e-08
-5.40062e-05
-2.83283e-08
-5.40716e-05
-2.81659e-08
-5.41372e-05
-2.80003e-08
-5.4203e-05
-2.7838e-08
-5.42691e-05
-2.76609e-08
-5.43355e-05
-2.74712e-08
-5.44023e-05
-2.72602e-08
-5.44696e-05
-2.70062e-08
-5.45374e-05
-2.66863e-08
-5.46059e-05
-2.62769e-08
-5.4675e-05
-2.5783e-08
-5.47448e-05
-2.51856e-08
-5.48154e-05
-2.44429e-08
-5.4887e-05
-2.352e-08
-5.49594e-05
-2.2385e-08
-5.50329e-05
-2.0996e-08
-5.51075e-05
-1.93032e-08
-5.51833e-05
-1.72756e-08
-5.52603e-05
-1.48647e-08
-5.53386e-05
-1.20225e-08
-5.54183e-05
-8.72429e-09
-5.54994e-05
-4.97906e-09
-5.55826e-05
-3.05586e-10
-5.56669e-05
2.88709e-09
-5.57529e-05
7.56668e-09
-5.5841e-05
1.32336e-08
-5.59311e-05
1.93867e-08
-5.60235e-05
2.59804e-08
-5.61182e-05
3.30078e-08
-5.62153e-05
4.04435e-08
-5.63151e-05
4.82294e-08
-5.64177e-05
5.62751e-08
-5.65234e-05
6.44687e-08
-5.66323e-05
7.26426e-08
-5.67447e-05
8.05797e-08
-5.68609e-05
8.80066e-08
-5.69812e-05
9.458e-08
-5.71059e-05
9.98873e-08
-5.72354e-05
1.03415e-07
-5.737e-05
1.04533e-07
-5.75102e-05
1.02571e-07
-5.76566e-05
9.68393e-08
-5.78097e-05
8.65878e-08
-5.797e-05
7.10672e-08
-5.81378e-05
4.96119e-08
-5.83136e-05
2.1769e-08
-5.84977e-05
-1.335e-08
-5.86891e-05
-5.71075e-08
-5.88869e-05
-1.05931e-07
-5.90877e-05
-1.59912e-07
-5.92845e-05
-2.17441e-07
-5.94663e-05
-2.75305e-07
-5.96154e-05
-3.31864e-07
-5.97014e-05
-3.89808e-07
-5.96803e-05
-4.51261e-07
-5.94626e-05
-5.14567e-07
-5.88844e-05
-5.75411e-07
-5.76673e-05
-6.44642e-07
-5.5312e-05
-7.38433e-07
-5.1087e-05
-8.69765e-07
-9.88932e-07
-4.45968e-05
-5.0523e-05
3.31073e-08
-5.05821e-05
4.48244e-08
-5.06549e-05
5.4936e-08
-5.07362e-05
6.09469e-08
-5.08227e-05
6.39233e-08
-5.0912e-05
6.49154e-08
-5.10027e-05
6.47255e-08
-5.10938e-05
6.38735e-08
-5.11849e-05
6.26633e-08
-5.12756e-05
6.12812e-08
-5.13657e-05
5.9831e-08
-5.1455e-05
5.83673e-08
-5.15435e-05
5.69461e-08
-5.16311e-05
5.55603e-08
-5.17177e-05
5.42409e-08
-5.18034e-05
5.29823e-08
-5.18881e-05
5.18143e-08
-5.19718e-05
5.07271e-08
-5.20545e-05
4.97117e-08
-5.21361e-05
4.87245e-08
-5.22169e-05
4.77849e-08
-5.22966e-05
4.68949e-08
-5.23755e-05
4.60714e-08
-5.24534e-05
4.52969e-08
-5.25304e-05
4.45842e-08
-5.26066e-05
4.39195e-08
-5.26819e-05
4.33182e-08
-5.27565e-05
4.27572e-08
-5.28302e-05
4.2278e-08
-5.29033e-05
4.18614e-08
-5.29757e-05
4.15358e-08
-5.30474e-05
4.12516e-08
-5.31186e-05
4.10387e-08
-5.31892e-05
4.08464e-08
-5.32594e-05
4.07157e-08
-5.33292e-05
4.06087e-08
-5.33985e-05
4.05483e-08
-5.34676e-05
4.05257e-08
-5.35364e-05
4.05508e-08
-5.3605e-05
4.06225e-08
-5.36734e-05
4.07569e-08
-5.37418e-05
4.09338e-08
-5.38102e-05
4.11775e-08
-5.38786e-05
4.14881e-08
-5.39471e-05
4.18839e-08
-5.40158e-05
4.23727e-08
-5.40847e-05
4.2974e-08
-5.4154e-05
4.37087e-08
-5.42236e-05
4.45937e-08
-5.42936e-05
4.56399e-08
-5.43642e-05
4.68671e-08
-5.44353e-05
4.83101e-08
-5.45071e-05
5.00026e-08
-5.45796e-05
5.19791e-08
-5.46529e-05
5.42827e-08
-5.47271e-05
5.69696e-08
-5.48022e-05
6.00542e-08
-5.48783e-05
6.35922e-08
-5.49554e-05
6.76647e-08
-5.50338e-05
7.22631e-08
-5.51134e-05
7.74248e-08
-5.51938e-05
8.30449e-08
-5.52763e-05
8.85065e-08
-5.53604e-05
9.49932e-08
-5.5446e-05
1.02396e-07
-5.55333e-05
1.10466e-07
-5.56225e-05
1.19144e-07
-5.57136e-05
1.28417e-07
-5.58068e-05
1.3827e-07
-5.59024e-05
1.48658e-07
-5.60004e-05
1.59502e-07
-5.6101e-05
1.70719e-07
-5.62045e-05
1.82165e-07
-5.63111e-05
1.93647e-07
-5.64211e-05
2.04921e-07
-5.65347e-05
2.15676e-07
-5.66522e-05
2.25529e-07
-5.67741e-05
2.34007e-07
-5.69006e-05
2.40544e-07
-5.70323e-05
2.44522e-07
-5.71696e-05
2.45284e-07
-5.7313e-05
2.42094e-07
-5.7463e-05
2.3418e-07
-5.76199e-05
2.20771e-07
-5.77837e-05
2.01066e-07
-5.79544e-05
1.74327e-07
-5.81322e-05
1.39615e-07
-5.83137e-05
9.69274e-08
-5.84942e-05
4.49044e-08
-5.86669e-05
-1.73077e-08
-5.88216e-05
-8.97044e-08
-5.89411e-05
-1.78064e-07
-5.89961e-05
-2.96624e-07
-5.89387e-05
-4.6595e-07
-5.86861e-05
-7.19492e-07
-5.80824e-05
-1.12597e-06
-5.68483e-05
-1.8198e-06
-5.4497e-05
-3.02478e-06
-5.03261e-05
-4.97078e-06
-7.3026e-06
-4.39434e-05
-4.88314e-05
6.19431e-08
-4.88862e-05
1.00054e-07
-4.89555e-05
1.24729e-07
-4.90343e-05
1.40167e-07
-4.9119e-05
1.49158e-07
-4.92075e-05
1.53978e-07
-4.92985e-05
1.56322e-07
-4.93911e-05
1.57141e-07
-4.94849e-05
1.57129e-07
-4.95795e-05
1.56583e-07
-4.96747e-05
1.55797e-07
-4.97703e-05
1.54833e-07
-4.98663e-05
1.53805e-07
-4.99626e-05
1.52727e-07
-5.00591e-05
1.51651e-07
-5.01558e-05
1.50571e-07
-5.02525e-05
1.49523e-07
-5.03492e-05
1.48494e-07
-5.0446e-05
1.47484e-07
-5.05426e-05
1.46461e-07
-5.06391e-05
1.45443e-07
-5.07355e-05
1.44428e-07
-5.08316e-05
1.43432e-07
-5.09275e-05
1.42441e-07
-5.1023e-05
1.41468e-07
-5.11182e-05
1.40501e-07
-5.1213e-05
1.39553e-07
-5.13073e-05
1.3861e-07
-5.14012e-05
1.37708e-07
-5.14946e-05
1.36856e-07
-5.15874e-05
1.36075e-07
-5.16797e-05
1.35329e-07
-5.17714e-05
1.34627e-07
-5.18625e-05
1.33944e-07
-5.19531e-05
1.3331e-07
-5.2043e-05
1.32706e-07
-5.21324e-05
1.32158e-07
-5.22212e-05