/*--------------------------------*- C++ -*----------------------------------*\
| =========                 |                                                 |
| \\      /  F ield         | OpenFOAM: The Open Source CFD Toolbox           |
|  \\    /   O peration     | Version:  2.1.0                                 |
|   \\  /    A nd           | Web:      www.OpenFOAM.org                      |
|    \\/     M anipulation  |                                                 |
\*---------------------------------------------------------------------------*/
FoamFile
{
    version     2.0;
    format      ascii;
    class       volScalarField;
    location    "0.34";
    object      rho;
}
// * * * * * * * * * * * * * * * * * * * * * * * * * * * * * * * * * * * * * //

dimensions      [1 -3 0 0 0 0 0];

internalField   nonuniform List<scalar> 
6400
(
971.803
971.212
970.633
970.062
969.5
968.944
968.394
967.851
967.315
966.785
966.263
965.747
965.239
964.739
964.245
963.76
963.283
962.813
962.351
961.898
961.453
961.016
960.587
960.167
959.755
959.351
958.956
958.569
958.191
957.821
957.46
957.107
956.762
956.426
956.098
955.778
955.467
955.164
954.869
954.581
954.302
954.031
953.767
953.511
953.263
953.022
952.789
952.563
952.344
952.132
951.927
951.728
951.536
951.351
951.172
951
950.833
950.671
950.515
950.364
950.218
950.077
949.942
949.812
949.686
949.566
949.451
949.34
949.235
949.135
949.04
948.95
948.865
948.785
948.711
948.642
948.579
948.522
948.472
948.428
948.392
948.365
948.348
948.344
948.356
948.391
948.455
948.562
948.735
949.014
949.48
950.31
951.911
955.149
960.008
954.519
945.603
944.578
944.555
944.555
966.96
966.416
965.872
965.339
964.815
964.299
963.791
963.291
962.799
962.316
961.84
961.373
960.913
960.462
960.02
959.586
959.16
958.743
958.334
957.934
957.542
957.159
956.784
956.417
956.059
955.709
955.367
955.033
954.708
954.39
954.081
953.779
953.485
953.198
952.92
952.649
952.385
952.129
951.88
951.638
951.403
951.175
950.953
950.739
950.531
950.329
950.134
949.945
949.762
949.585
949.414
949.249
949.089
948.933
948.783
948.637
948.496
948.36
948.228
948.1
947.977
947.858
947.742
947.631
947.523
947.419
947.318
947.221
947.127
947.037
946.949
946.865
946.784
946.706
946.632
946.56
946.491
946.426
946.363
946.304
946.249
946.197
946.149
946.104
946.064
946.029
945.998
945.972
945.949
945.929
945.907
945.872
945.804
945.665
945.403
945.025
944.643
944.559
944.555
944.555
964.02
963.509
962.993
962.488
961.993
961.507
961.029
960.56
960.099
959.646
959.202
958.767
958.339
957.921
957.51
957.108
956.715
956.33
955.954
955.586
955.226
954.875
954.532
954.197
953.871
953.553
953.242
952.94
952.645
952.357
952.077
951.805
951.54
951.283
951.032
950.789
950.553
950.323
950.1
949.884
949.674
949.471
949.274
949.083
948.898
948.719
948.546
948.378
948.215
948.058
947.906
947.759
947.617
947.479
947.346
947.218
947.094
946.975
946.86
946.749
946.642
946.539
946.439
946.343
946.251
946.161
946.075
945.992
945.912
945.835
945.76
945.688
945.618
945.551
945.486
945.423
945.362
945.303
945.246
945.192
945.139
945.088
945.039
944.992
944.947
944.904
944.863
944.823
944.785
944.749
944.715
944.682
944.652
944.624
944.601
944.584
944.564
944.556
944.555
944.555
961.747
961.265
960.778
960.301
959.834
959.376
958.927
958.486
958.053
957.629
957.214
956.806
956.407
956.016
955.633
955.258
954.892
954.533
954.183
953.84
953.505
953.179
952.86
952.548
952.244
951.948
951.659
951.378
951.104
950.838
950.578
950.326
950.08
949.842
949.61
949.385
949.167
948.955
948.75
948.551
948.359
948.172
947.992
947.817
947.648
947.485
947.328
947.176
947.03
946.888
946.752
946.622
946.496
946.375
946.26
946.15
946.044
945.943
945.847
945.755
945.668
945.585
945.506
945.431
945.36
945.292
945.229
945.169
945.112
945.059
945.01
944.963
944.92
944.879
944.842
944.807
944.776
944.747
944.72
944.696
944.675
944.656
944.639
944.624
944.611
944.6
944.591
944.583
944.576
944.571
944.567
944.563
944.561
944.559
944.558
944.557
944.556
944.555
944.555
944.555
960.105
959.656
959.202
958.757
958.32
957.892
957.472
957.06
956.656
956.26
955.872
955.492
955.12
954.756
954.399
954.05
953.709
953.375
953.049
952.73
952.418
952.113
951.816
951.525
951.242
950.966
950.696
950.434
950.178
949.929
949.687
949.451
949.222
948.999
948.783
948.573
948.369
948.172
947.98
947.795
947.615
947.442
947.274
947.112
946.956
946.806
946.662
946.523
946.39
946.263
946.141
946.025
945.915
945.809
945.71
945.615
945.526
945.442
945.362
945.288
945.218
945.153
945.093
945.037
944.985
944.938
944.894
944.854
944.817
944.784
944.755
944.728
944.704
944.682
944.663
944.647
944.632
944.619
944.608
944.599
944.591
944.584
944.578
944.573
944.569
944.566
944.563
944.561
944.559
944.558
944.557
944.556
944.556
944.556
944.555
944.555
944.555
944.555
944.555
944.555
959.301
958.895
958.484
958.079
957.682
957.293
956.911
956.536
956.169
955.81
955.458
955.113
954.776
954.446
954.123
953.807
953.498
953.195
952.9
952.611
952.329
952.054
951.784
951.522
951.265
951.015
950.771
950.533
950.301
950.075
949.854
949.639
949.43
949.226
949.027
948.834
948.646
948.463
948.285
948.113
947.945
947.782
947.624
947.471
947.323
947.179
947.04
946.906
946.776
946.651
946.53
946.414
946.302
946.194
946.091
945.991
945.896
945.806
945.719
945.636
945.558
945.483
945.412
945.344
945.281
945.221
945.164
945.111
945.061
945.015
944.971
944.931
944.893
944.858
944.825
944.796
944.768
944.743
944.719
944.698
944.679
944.661
944.645
944.631
944.618
944.606
944.596
944.587
944.579
944.573
944.567
944.563
944.56
944.558
944.557
944.557
944.556
944.556
944.556
944.556
959.813
959.464
959.112
958.766
958.426
958.092
957.766
957.446
957.134
956.828
956.53
956.238
955.952
955.673
955.4
955.133
954.873
954.617
954.368
954.123
953.884
953.651
953.422
953.199
952.981
952.768
952.559
952.355
952.156
951.961
951.77
951.583
951.4
951.22
951.044
950.871
950.702
950.535
950.372
950.211
950.053
949.897
949.744
949.592
949.443
949.296
949.15
949.007
948.864
948.724
948.585
948.447
948.311
948.176
948.042
947.91
947.779
947.649
947.521
947.394
947.269
947.146
947.024
946.904
946.786
946.671
946.557
946.446
946.337
946.231
946.127
946.027
945.929
945.833
945.741
945.652
945.566
945.483
945.403
945.326
945.252
945.181
945.113
945.048
944.987
944.928
944.872
944.82
944.771
944.726
944.687
944.652
944.625
944.604
944.59
944.582
944.576
944.572
944.57
944.569
962.167
961.889
961.612
961.338
961.071
960.809
960.555
960.306
960.064
959.828
959.599
959.375
959.157
958.945
958.738
958.536
958.34
958.147
957.96
957.777
957.598
957.423
957.252
957.084
956.921
956.76
956.603
956.448
956.296
956.147
955.999
955.854
955.71
955.568
955.427
955.287
955.148
955.01
954.872
954.734
954.596
954.458
954.32
954.181
954.042
953.902
953.76
953.618
953.474
953.328
953.181
953.033
952.882
952.73
952.575
952.419
952.26
952.099
951.936
951.771
951.603
951.434
951.262
951.087
950.911
950.732
950.552
950.37
950.186
950
949.812
949.624
949.433
949.242
949.05
948.856
948.661
948.466
948.269
948.071
947.871
947.669
947.466
947.26
947.051
946.84
946.627
946.412
946.197
945.983
945.774
945.573
945.387
945.22
945.081
944.98
944.899
944.835
944.789
944.766
966.734
966.541
966.348
966.16
965.979
965.801
965.63
965.464
965.304
965.149
964.999
964.854
964.714
964.578
964.447
964.321
964.198
964.08
963.965
963.854
963.747
963.641
963.538
963.437
963.338
963.239
963.143
963.047
962.953
962.858
962.765
962.671
962.578
962.484
962.39
962.296
962.201
962.105
962.009
961.911
961.812
961.712
961.611
961.508
961.404
961.298
961.19
961.081
960.969
960.855
960.739
960.621
960.5
960.377
960.251
960.123
959.991
959.857
959.719
959.578
959.434
959.286
959.134
958.978
958.818
958.653
958.484
958.31
958.13
957.946
957.756
957.56
957.357
957.148
956.932
956.708
956.476
956.235
955.984
955.721
955.446
955.157
954.851
954.528
954.184
953.817
953.423
953
952.546
952.059
951.538
950.987
950.41
949.814
949.21
948.622
948.122
947.669
947.293
947.036
973.46
973.353
973.248
973.147
973.049
972.954
972.863
972.775
972.69
972.608
972.529
972.453
972.379
972.307
972.238
972.171
972.106
972.042
971.98
971.919
971.86
971.802
971.745
971.689
971.633
971.578
971.525
971.471
971.418
971.366
971.314
971.262
971.211
971.16
971.109
971.058
971.008
970.957
970.907
970.857
970.807
970.757
970.707
970.657
970.607
970.557
970.507
970.457
970.407
970.357
970.306
970.255
970.205
970.154
970.102
970.051
969.999
969.947
969.895
969.842
969.79
969.737
969.685
969.632
969.578
969.523
969.466
969.408
969.349
969.288
969.225
969.159
969.091
969.019
968.944
968.865
968.781
968.693
968.598
968.497
968.388
968.271
968.145
968.008
967.861
967.7
967.523
967.317
967.079
966.802
966.478
966.102
965.665
965.158
964.565
963.869
963.057
962.227
961.451
960.865
980.675
980.638
980.602
980.567
980.534
980.502
980.471
980.441
980.411
980.383
980.355
980.328
980.301
980.276
980.251
980.227
980.204
980.181
980.159
980.138
980.118
980.099
980.081
980.064
980.048
980.034
980.02
980.008
979.998
979.988
979.98
979.974
979.969
979.965
979.964
979.963
979.965
979.968
979.973
979.979
979.987
979.997
980.009
980.022
980.037
980.054
980.073
980.094
980.117
980.142
980.169
980.198
980.23
980.264
980.301
980.34
980.382
980.427
980.474
980.525
980.579
980.637
980.698
980.763
980.833
980.908
980.989
981.075
981.169
981.269
981.377
981.493
981.618
981.752
981.897
982.052
982.219
982.398
982.589
982.795
983.014
983.248
983.497
983.761
984.04
984.334
984.646
984.985
985.356
985.762
986.207
986.688
987.21
987.775
988.389
989.052
989.762
990.506
991.249
991.92
986.437
986.452
986.468
986.487
986.507
986.529
986.552
986.576
986.6
986.626
986.651
986.678
986.705
986.733
986.761
986.791
986.82
986.85
986.881
986.913
986.945
986.978
987.011
987.046
987.081
987.117
987.155
987.193
987.233
987.273
987.315
987.359
987.404
987.45
987.498
987.548
987.599
987.653
987.708
987.765
987.824
987.886
987.949
988.016
988.084
988.155
988.229
988.306
988.385
988.468
988.553
988.642
988.734
988.83
988.929
989.031
989.138
989.248
989.363
989.482
989.606
989.735
989.869
990.01
990.156
990.308
990.468
990.635
990.809
990.991
991.181
991.381
991.589
991.807
992.034
992.271
992.518
992.776
993.043
993.32
993.606
993.902
994.205
994.516
994.832
995.153
995.476
995.8
996.122
996.44
996.753
997.069
997.384
997.692
997.991
998.276
998.542
998.781
998.984
999.137
990.686
990.725
990.768
990.814
990.863
990.914
990.966
991.02
991.074
991.13
991.187
991.245
991.304
991.364
991.424
991.486
991.548
991.611
991.675
991.74
991.806
991.872
991.94
992.008
992.078
992.148
992.219
992.292
992.365
992.44
992.515
992.592
992.67
992.75
992.83
992.912
992.995
993.08
993.167
993.255
993.344
993.435
993.528
993.622
993.718
993.816
993.915
994.017
994.12
994.225
994.332
994.442
994.553
994.666
994.782
994.899
995.019
995.142
995.266
995.393
995.523
995.654
995.788
995.924
996.063
996.203
996.346
996.491
996.638
996.786
996.937
997.088
997.241
997.395
997.55
997.705
997.859
998.013
998.165
998.316
998.464
998.608
998.749
998.884
999.013
999.136
999.251
999.358
999.456
999.545
999.623
999.69
999.746
999.797
999.84
999.876
999.906
999.929
999.947
999.958
993.735
993.78
993.831
993.886
993.943
994.003
994.065
994.127
994.191
994.256
994.322
994.389
994.457
994.526
994.595
994.666
994.737
994.809
994.882
994.955
995.03
995.105
995.181
995.258
995.335
995.413
995.492
995.572
995.653
995.734
995.816
995.898
995.982
996.066
996.15
996.235
996.321
996.407
996.494
996.581
996.669
996.757
996.845
996.934
997.023
997.112
997.201
997.29
997.379
997.468
997.557
997.646
997.734
997.822
997.91
997.997
998.084
998.17
998.255
998.34
998.424
998.507
998.589
998.669
998.748
998.826
998.902
998.976
999.049
999.119
999.188
999.254
999.318
999.38
999.439
999.496
999.55
999.601
999.649
999.694
999.735
999.774
999.809
999.841
999.87
999.895
999.917
999.935
999.951
999.964
999.973
999.981
999.986
999.99
999.993
999.995
999.997
999.998
999.999
999.999
995.769
995.813
995.863
995.917
995.973
996.031
996.091
996.152
996.213
996.276
996.34
996.404
996.469
996.534
996.6
996.667
996.734
996.802
996.87
996.938
997.007
997.076
997.146
997.215
997.285
997.355
997.426
997.496
997.566
997.637
997.707
997.777
997.847
997.917
997.987
998.056
998.125
998.193
998.261
998.329
998.395
998.461
998.527
998.591
998.654
998.717
998.778
998.839
998.898
998.956
999.012
999.067
999.121
999.174
999.224
999.274
999.321
999.367
999.412
999.454
999.495
999.534
999.572
999.608
999.641
999.674
999.704
999.733
999.759
999.785
999.808
999.83
999.85
999.869
999.886
999.902
999.916
999.929
999.941
999.951
999.96
999.968
999.975
999.98
999.985
999.989
999.992
999.994
999.996
999.998
999.998
999.999
999.999
1000
1000
1000
1000
1000
1000
1000
997.096
997.135
997.179
997.227
997.277
997.328
997.38
997.434
997.488
997.542
997.597
997.653
997.709
997.765
997.821
997.878
997.935
997.991
998.048
998.105
998.162
998.219
998.275
998.332
998.388
998.443
998.499
998.554
998.608
998.662
998.715
998.767
998.819
998.871
998.921
998.971
999.02
999.067
999.114
999.16
999.205
999.249
999.291
999.333
999.373
999.411
999.449
999.485
999.52
999.554
999.586
999.617
999.646
999.674
999.7
999.726
999.749
999.772
999.793
999.813
999.831
999.848
999.864
999.879
999.892
999.905
999.916
999.927
999.936
999.945
999.953
999.96
999.966
999.971
999.976
999.98
999.984
999.987
999.99
999.992
999.994
999.995
999.996
999.997
999.998
999.999
999.999
999.999
1000
1000
1000
1000
1000
1000
1000
1000
1000
1000
1000
1000
997.989
998.021
998.058
998.097
998.138
998.18
998.223
998.266
998.31
998.353
998.398
998.442
998.486
998.531
998.575
998.62
998.664
998.708
998.753
998.796
998.84
998.883
998.926
998.968
999.01
999.052
999.093
999.133
999.172
999.211
999.25
999.287
999.324
999.36
999.394
999.428
999.461
999.493
999.524
999.554
999.583
999.611
999.638
999.663
999.688
999.711
999.734
999.755
999.775
999.794
999.812
999.829
999.845
999.86
999.873
999.886
999.898
999.909
999.919
999.928
999.937
999.944
999.951
999.958
999.963
999.969
999.973
999.977
999.981
999.984
999.986
999.989
999.991
999.993
999.994
999.995
999.996
999.997
999.998
999.998
999.999
999.999
999.999
1000
1000
1000
1000
1000
1000
1000
1000
1000
1000
1000
1000
1000
1000
1000
1000
1000
998.618
998.644
998.672
998.703
998.734
998.766
998.798
998.831
998.864
998.897
998.93
998.964
998.997
999.03
999.063
999.096
999.129
999.162
999.194
999.226
999.258
999.289
999.32
999.351
999.381
999.41
999.439
999.468
999.495
999.523
999.549
999.575
999.6
999.624
999.647
999.67
999.692
999.712
999.732
999.752
999.77
999.787
999.804
999.82
999.835
999.849
999.862
999.874
999.886
999.897
999.907
999.916
999.925
999.933
999.941
999.947
999.954
999.959
999.964
999.969
999.973
999.977
999.98
999.983
999.986
999.988
999.99
999.992
999.993
999.994
999.995
999.996
999.997
999.998
999.998
999.999
999.999
999.999
999.999
1000
1000
1000
1000
1000
1000
1000
1000
1000
1000
1000
1000
1000
1000
1000
1000
1000
1000
1000
1000
1000
999.076
999.095
999.116
999.138
999.16
999.183
999.206
999.23
999.253
999.277
999.301
999.324
999.348
999.372
999.395
999.418
999.441
999.464
999.487
999.509
999.532
999.553
999.575
999.596
999.616
999.636
999.656
999.675
999.694
999.712
999.729
999.746
999.762
999.778
999.793
999.807
999.821
999.834
999.847
999.859
999.87
999.881
999.891
999.9
999.909
999.917
999.925
999.932
999.939
999.945
999.951
999.957
999.961
999.966
999.97
999.974
999.977
999.98
999.983
999.985
999.987
999.989
999.991
999.992
999.994
999.995
999.996
999.996
999.997
999.998
999.998
999.999
999.999
999.999
999.999
999.999
1000
1000
1000
1000
1000
1000
1000
1000
1000
1000
1000
1000
1000
1000
1000
1000
1000
1000
1000
1000
1000
1000
1000
1000
999.482
999.493
999.505
999.518
999.531
999.544
999.558
999.572
999.585
999.599
999.613
999.627
999.641
999.655
999.669
999.682
999.696
999.709
999.723
999.736
999.748
999.761
999.773
999.785
999.797
999.809
999.82
999.831
999.841
999.851
999.861
999.87
999.879
999.887
999.896
999.903
999.911
999.918
999.924
999.931
999.937
999.942
999.947
999.952
999.957
999.961
999.965
999.968
999.972
999.975
999.978
999.98
999.983
999.985
999.987
999.988
999.99
999.991
999.993
999.994
999.995
999.995
999.996
999.997
999.997
999.998
999.998
999.999
999.999
999.999
999.999
999.999
1000
1000
1000
1000
1000
1000
1000
1000
1000
1000
1000
1000
1000
1000
1000
1000
1000
1000
1000
1000
1000
1000
1000
1000
1000
1000
1000
1000
944.555
944.555
944.555
944.555
944.555
944.555
944.555
944.555
944.555
944.555
944.555
944.556
944.556
944.557
944.559
944.562
944.567
944.578
944.599
944.652
944.555
944.555
944.555
944.555
944.555
944.555
944.555
944.555
944.555
944.555
944.556
944.557
944.558
944.56
944.563
944.568
944.578
944.598
944.642
944.77
944.555
944.555
944.555
944.555
944.555
944.555
944.555
944.555
944.556
944.556
944.557
944.559
944.561
944.565
944.571
944.582
944.604
944.649
944.761
945.126
944.555
944.555
944.555
944.555
944.555
944.555
944.556
944.556
944.557
944.559
944.561
944.564
944.569
944.578
944.593
944.621
944.676
944.799
945.127
946.315
944.555
944.555
944.555
944.556
944.556
944.557
944.558
944.56
944.562
944.566
944.572
944.581
944.595
944.618
944.659
944.735
944.891
945.251
946.257
950.152
944.557
944.557
944.558
944.56
944.562
944.565
944.57
944.576
944.584
944.596
944.613
944.639
944.679
944.744
944.857
945.067
945.494
946.472
949.247
960.221
944.573
944.577
944.584
944.592
944.604
944.618
944.636
944.658
944.686
944.721
944.771
944.843
944.952
945.125
945.415
945.938
946.958
949.201
955.251
977.145
944.784
944.818
944.858
944.905
944.958
945.014
945.074
945.133
945.201
945.289
945.41
945.582
945.837
946.231
946.878
947.999
950.085
954.384
964.569
991.769
947.039
947.185
947.337
947.495
947.645
947.753
947.841
947.913
948.019
948.158
948.356
948.633
949.054
949.711
950.862
952.888
956.61
963.591
976.622
997.476
960.771
961.037
961.311
961.578
961.809
961.936
962.048
962.193
962.354
962.518
962.723
962.958
963.334
963.882
965.04
967.318
971.704
978.971
989.466
997.449
992.258
992.194
992.16
992.151
992.203
992.405
992.663
992.934
993.224
993.559
993.928
994.376
994.88
995.514
996.066
996.516
996.762
997.21
998.513
999.25
999.186
999.154
999.126
999.102
999.09
999.107
999.143
999.202
999.263
999.329
999.396
999.473
999.548
999.632
999.698
999.747
999.773
999.809
999.911
999.8
999.96
999.955
999.951
999.946
999.941
999.937
999.936
999.939
999.943
999.95
999.956
999.963
999.97
999.976
999.981
999.984
999.987
999.99
999.994
999.959
999.999
999.999
999.999
999.998
999.998
999.998
999.997
999.997
999.997
999.997
999.998
999.998
999.998
999.999
999.999
999.999
999.999
1000
1000
999.996
1000
1000
1000
1000
1000
1000
1000
1000
1000
1000
1000
1000
1000
1000
1000
1000
1000
1000
1000
1000
1000
1000
1000
1000
1000
1000
1000
1000
1000
1000
1000
1000
1000
1000
1000
1000
1000
1000
1000
1000
1000
1000
1000
1000
1000
1000
1000
1000
1000
1000
1000
1000
1000
1000
1000
1000
1000
1000
1000
1000
1000
1000
1000
1000
1000
1000
1000
1000
1000
1000
1000
1000
1000
1000
1000
1000
1000
1000
1000
1000
1000
1000
1000
1000
1000
1000
1000
1000
1000
1000
1000
1000
1000
1000
1000
1000
1000
1000
1000
1000
1000
1000
1000
1000
1000
1000
1000
1000
1000
1000
1000
1000
1000
1000
1000
1000
1000
1000
1000
1000
944.555
944.555
944.555
944.555
944.555
944.555
944.555
944.555
944.555
944.555
944.555
944.555
944.555
944.555
944.555
944.555
944.555
944.555
944.555
944.555
944.555
944.555
944.555
944.555
944.555
944.555
944.555
944.555
944.555
944.555
944.555
944.555
944.555
944.555
944.555
944.555
944.555
944.555
944.555
944.555
944.555
944.555
944.555
944.555
944.555
944.555
944.555
944.555
944.555
944.555
944.555
944.555
944.555
944.555
944.555
944.555
944.555
944.555
944.555
944.555
944.555
944.555
944.555
944.555
944.555
944.555
944.555
944.555
944.555
944.555
944.555
944.555
944.555
944.555
944.555
944.555
944.555
944.555
944.555
944.555
944.555
944.555
944.555
944.555
944.555
944.555
944.555
944.555
944.555
944.555
944.555
944.555
944.555
944.555
944.555
944.555
944.555
944.555
944.555
944.555
944.555
944.555
944.555
944.555
944.555
944.555
944.555
944.555
944.555
944.555
944.555
944.555
944.555
944.555
944.555
944.555
944.555
944.555
944.555
944.555
944.555
944.555
944.555
944.555
944.555
944.555
944.555
944.555
944.555
944.555
944.555
944.555
944.555
944.555
944.555
944.555
944.555
944.555
944.555
944.555
944.555
944.555
944.555
944.555
944.555
944.555
944.555
944.555
944.555
944.555
944.555
944.555
944.555
944.555
944.555
944.555
944.555
944.555
944.555
944.555
944.555
944.555
944.555
944.555
944.555
944.555
944.555
944.555
944.555
944.555
944.555
944.555
944.555
944.555
944.555
944.555
944.555
944.555
944.555
944.555
944.555
944.555
944.555
944.555
944.555
944.555
944.555
944.555
944.555
944.555
944.555
944.555
944.555
944.555
944.555
944.555
944.555
944.555
944.555
944.555
944.555
944.555
944.555
944.555
944.555
944.555
944.555
944.555
944.555
944.555
944.555
944.555
944.555
944.555
944.555
944.555
944.555
944.555
944.555
944.555
944.555
944.555
944.555
944.555
944.555
944.555
944.555
944.555
944.555
944.555
944.555
944.555
944.555
944.555
944.555
944.555
944.555
944.555
944.555
944.555
944.555
944.555
944.555
944.555
944.555
944.555
944.555
944.555
944.555
944.555
944.555
944.555
944.555
944.555
944.555
944.555
944.555
944.555
944.555
944.555
944.555
944.555
944.555
944.555
944.555
944.555
944.555
944.555
944.555
944.555
944.555
944.555
944.555
944.555
944.555
944.555
944.555
944.555
944.555
944.555
944.555
944.555
944.555
944.555
944.555
944.555
944.555
944.555
944.555
944.555
944.555
944.555
944.555
944.555
944.555
944.555
944.555
944.555
944.555
944.555
944.555
944.555
944.555
944.555
944.555
944.555
944.555
944.555
944.555
944.555
944.555
944.555
944.555
944.555
944.555
944.555
944.555
944.555
944.555
944.555
944.555
944.555
944.555
944.555
944.555
944.555
944.555
944.555
944.555
944.555
944.555
944.555
944.555
944.555
944.555
944.555
944.555
944.555
944.555
944.555
944.555
944.555
944.555
944.555
944.555
944.555
944.555
944.555
944.555
944.555
944.555
944.555
944.555
944.555
944.555
944.555
944.555
944.555
944.555
944.555
944.555
944.555
944.555
944.555
944.555
944.555
944.555
944.555
944.555
944.555
944.555
944.555
944.555
944.555
944.555
944.555
944.555
944.555
944.555
944.555
944.555
944.555
944.555
944.555
944.555
944.555
944.555
944.555
944.555
944.555
944.555
944.555
944.555
944.555
944.555
944.555
944.555
944.555
944.555
944.555
944.555
944.555
944.555
944.555
944.555
944.555
944.555
944.555
944.555
944.555
944.555
944.555
944.555
944.555
944.555
944.555
944.555
944.555
944.555
944.555
944.555
944.555
944.555
944.555
944.555
944.555
944.555
944.555
944.555
944.555
944.555
944.555
944.555
944.555
944.555
944.555
944.555
944.555
944.555
944.555
944.555
944.555
944.555
944.555
944.555
944.555
944.555
944.555
944.555
944.555
944.555
944.555
944.555
944.555
944.555
944.555
944.555
944.555
944.555
944.555
944.555
944.555
944.555
944.555
944.555
944.555
944.555
944.555
944.555
944.555
944.555
944.555
944.555
944.555
944.555
944.555
944.555
944.555
944.555
944.555
944.555
944.555
944.555
944.555
944.555
944.555
944.555
944.555
944.555
944.555
944.555
944.555
944.555
944.555
944.555
944.555
944.555
944.555
944.555
944.555
944.555
944.555
944.555
944.555
944.555
944.555
944.555
944.555
944.555
944.555
944.555
944.555
944.555
944.555
944.555
944.555
944.555
944.555
944.555
944.555
944.555
944.555
944.555
944.555
944.555
944.555
944.555
944.555
944.555
944.555
944.555
944.555
944.555
944.555
944.555
944.555
944.555
944.555
944.555
944.555
944.555
944.555
944.555
944.555
944.555
944.555
944.555
944.555
944.555
944.555
944.555
944.555
944.555
944.555
944.555
944.555
944.555
944.555
944.555
944.555
944.555
944.555
944.555
944.555
944.555
944.555
944.555
944.555
944.555
944.555
944.555
944.555
944.555
944.555
944.555
944.555
944.555
944.555
944.555
944.555
944.555
944.555
944.555
944.555
944.555
944.555
944.555
944.555
944.555
944.555
944.555
944.555
944.555
944.555
944.555
944.555
944.555
944.555
944.555
944.555
944.555
944.555
944.555
944.555
944.555
944.555
944.555
944.555
944.555
944.555
944.555
944.555
944.555
944.555
944.555
944.555
944.555
944.555
944.555
944.555
944.555
944.555
944.555
944.555
944.555
944.555
944.555
944.555
944.555
944.555
944.555
944.555
944.555
944.555
944.555
944.555
944.555
944.555
944.555
944.555
944.555
944.555
944.555
944.555
944.555
944.555
944.555
944.555
944.555
944.555
944.555
944.555
944.555
944.555
944.555
944.555
944.555
944.555
944.555
944.555
944.555
944.555
944.555
944.555
944.555
944.555
944.555
944.555
944.555
944.555
944.555
944.555
944.555
944.555
944.555
944.555
944.555
944.555
944.555
944.555
944.555
944.555
944.555
944.555
944.555
944.555
944.555
944.555
944.555
944.555
944.555
944.555
944.555
944.555
944.555
944.555
944.555
944.555
944.555
944.555
944.555
944.555
944.555
944.555
944.555
944.555
944.555
944.555
944.555
944.555
944.555
944.555
944.555
944.555
944.555
944.555
944.555
944.555
944.555
944.555
944.555
944.555
944.555
944.555
944.555
944.555
944.555
944.555
944.555
944.555
944.555
944.555
944.555
944.555
944.555
944.555
944.555
944.555
944.555
944.555
944.555
944.555
944.555
944.555
944.555
944.555
944.555
944.555
944.555
944.555
944.555
944.555
944.555
944.555
944.555
944.555
944.555
944.555
944.555
944.555
944.555
944.555
944.555
944.555
944.555
944.555
944.555
944.555
944.555
944.555
944.555
944.555
944.555
944.555
944.555
944.555
944.555
944.555
944.555
944.555
944.555
944.555
944.555
944.555
944.555
944.555
944.555
944.555
944.555
944.555
944.555
944.555
944.555
944.555
944.555
944.555
944.555
944.555
944.555
944.555
944.555
944.555
944.555
944.555
944.555
944.555
944.555
944.555
944.555
944.555
944.555
944.555
944.555
944.555
944.555
944.555
944.555
944.555
944.555
944.555
944.555
944.555
944.555
944.555
944.555
944.555
944.555
944.555
944.555
944.555
944.555
944.555
944.555
944.555
944.555
944.555
944.555
944.555
944.555
944.555
944.555
944.555
944.555
944.555
944.555
944.555
944.555
944.555
944.555
944.555
944.555
944.555
944.555
944.555
944.555
944.555
944.555
944.555
944.555
944.555
944.555
944.555
944.555
944.555
944.555
944.555
944.555
944.555
944.555
944.555
944.555
944.555
944.555
944.555
944.555
944.555
944.555
944.555
944.555
944.555
944.555
944.555
944.555
944.555
944.555
944.555
944.555
944.555
944.555
944.555
944.555
944.555
944.555
944.555
944.555
944.555
944.555
944.555
944.555
944.555
944.555
944.555
944.555
944.555
944.555
944.555
944.555
944.555
944.555
944.555
944.555
944.555
944.555
944.555
944.555
944.555
944.555
944.555
944.555
944.555
944.555
944.555
944.555
944.555
944.555
944.555
944.555
944.555
944.555
944.555
944.555
944.555
944.555
944.555
944.555
944.555
944.555
944.555
944.555
944.555
944.555
944.555
944.555
944.555
944.555
944.555
944.555
944.555
944.555
944.555
944.555
944.555
944.555
944.555
944.555
944.555
944.555
944.555
944.555
944.555
944.555
944.555
944.555
944.555
944.555
944.555
944.555
944.555
944.555
944.555
944.555
944.555
944.555
944.555
944.555
944.555
944.555
944.555
944.555
944.555
944.555
944.555
944.555
944.555
944.555
944.555
944.555
944.555
944.555
944.555
944.555
944.555
944.555
944.555
944.555
944.555
944.555
944.555
944.555
944.555
944.555
944.555
944.555
944.555
944.555
944.555
944.555
944.555
944.555
944.555
944.555
944.555
944.555
944.555
944.555
944.555
944.555
944.555
944.555
944.555
944.555
944.555
944.555
944.555
944.555
944.555
944.555
944.555
944.555
944.555
944.555
944.555
944.555
944.555
944.555
944.555
944.555
944.555
944.555
944.555
944.555
944.555
944.555
944.555
944.555
944.555
944.555
944.555
944.555
944.555
944.555
944.555
944.555
944.555
944.555
944.555
944.555
944.555
944.555
944.555
944.555
944.555
944.555
944.555
944.555
944.555
944.555
944.555
944.555
944.555
944.555
944.555
944.555
944.555
944.555
944.555
944.555
944.555
944.555
944.555
944.555
944.555
944.555
944.555
944.555
944.555
944.555
944.555
944.555
944.555
944.555
944.555
944.555
944.555
944.555
944.555
944.555
944.555
944.555
944.555
944.555
944.555
944.555
944.555
944.555
944.555
944.555
944.555
944.555
944.555
944.555
944.555
944.555
944.555
944.555
944.555
944.555
944.555
944.555
944.555
944.555
944.555
944.555
944.555
944.555
944.555
944.555
944.555
944.555
944.555
944.555
944.555
944.555
944.555
944.555
944.555
944.555
944.555
944.555
944.555
944.555
944.555
944.555
944.555
944.555
944.555
944.555
944.555
944.555
944.555
944.555
944.555
944.555
944.555
944.555
944.555
944.555
944.555
944.555
944.555
944.555
944.555
944.555
944.555
944.555
944.555
944.555
944.555
944.555
944.555
944.555
944.555
944.555
944.555
944.555
944.555
944.555
944.555
944.555
944.555
944.555
944.555
944.555
944.555
944.555
944.555
944.555
944.555
944.555
944.555
944.555
944.555
944.555
944.555
944.555
944.555
944.555
944.555
944.555
944.555
944.555
944.555
944.555
944.555
944.555
944.555
944.555
944.555
944.555
944.555
944.555
944.555
944.555
944.555
944.555
944.555
944.555
944.555
944.555
944.555
944.555
944.555
944.555
944.555
944.555
944.555
944.555
944.555
944.555
944.555
944.555
944.555
944.555
944.555
944.555
944.555
944.555
944.555
944.555
944.555
944.555
944.555
944.555
944.555
944.555
944.555
944.555
944.555
944.555
944.555
944.555
944.555
944.555
944.555
944.555
944.555
944.555
944.555
944.555
944.555
944.555
944.555
944.555
944.555
944.555
944.555
944.555
944.555
944.555
944.555
944.555
944.555
944.555
944.555
944.555
944.555
944.555
944.555
944.555
944.555
944.555
944.555
944.555
944.555
944.555
944.555
944.555
944.555
944.555
944.555
944.555
944.555
944.555
944.555
944.555
944.555
944.555
944.555
944.555
944.555
944.555
944.555
944.555
944.555
944.555
944.555
944.555
944.555
944.555
944.555
944.555
944.555
944.555
944.555
944.555
944.555
944.555
944.555
944.555
944.555
944.555
944.555
944.555
944.555
944.555
944.555
944.555
944.555
944.555
944.555
944.555
944.555
944.555
944.555
944.555
944.555
944.555
944.555
944.555
944.555
944.555
944.555
944.555
944.555
944.555
944.555
944.555
944.555
944.555
944.555
944.555
944.555
944.555
944.555
944.555
944.555
944.555