/*--------------------------------*- C++ -*----------------------------------*\
| =========                 |                                                 |
| \\      /  F ield         | OpenFOAM: The Open Source CFD Toolbox           |
|  \\    /   O peration     | Version:  2.1.0                                 |
|   \\  /    A nd           | Web:      www.OpenFOAM.org                      |
|    \\/     M anipulation  |                                                 |
\*---------------------------------------------------------------------------*/
FoamFile
{
    version     2.0;
    format      ascii;
    class       volScalarField;
    location    "0.34";
    object      T;
}
// * * * * * * * * * * * * * * * * * * * * * * * * * * * * * * * * * * * * * //

dimensions      [0 0 0 1 0 0 0];

internalField   nonuniform List<scalar> 
6400
(
342.577
343.642
344.69
345.722
346.741
347.749
348.747
349.734
350.71
351.674
352.627
353.568
354.497
355.413
356.316
357.206
358.082
358.945
359.793
360.628
361.448
362.254
363.045
363.821
364.583
365.33
366.062
366.778
367.48
368.167
368.838
369.494
370.135
370.761
371.372
371.968
372.549
373.115
373.666
374.203
374.725
375.233
375.726
376.206
376.671
377.123
377.561
377.985
378.397
378.795
379.181
379.554
379.915
380.263
380.6
380.925
381.24
381.545
381.839
382.124
382.399
382.664
382.92
383.166
383.403
383.63
383.848
384.057
384.256
384.445
384.625
384.796
384.956
385.107
385.247
385.377
385.497
385.605
385.7
385.783
385.852
385.903
385.935
385.943
385.919
385.854
385.732
385.529
385.202
384.674
383.793
382.227
379.21
373.143
364.116
374.321
391.151
393.105
393.148
393.149
351.356
352.348
353.34
354.315
355.274
356.218
357.149
358.066
358.97
359.859
360.735
361.596
362.443
363.275
364.093
364.895
365.683
366.456
367.214
367.957
368.685
369.397
370.095
370.777
371.445
372.097
372.735
373.358
373.967
374.561
375.14
375.705
376.256
376.792
377.315
377.824
378.319
378.801
379.269
379.724
380.166
380.595
381.012
381.417
381.809
382.189
382.557
382.914
383.26
383.594
383.917
384.23
384.533
384.826
385.111
385.387
385.654
385.912
386.162
386.404
386.638
386.864
387.083
387.295
387.499
387.697
387.888
388.072
388.25
388.422
388.588
388.748
388.902
389.05
389.192
389.329
389.459
389.584
389.703
389.815
389.92
390.019
390.111
390.195
390.272
390.339
390.398
390.448
390.49
390.529
390.571
390.638
390.768
391.032
391.531
392.253
392.981
393.142
393.149
393.15
356.729
357.667
358.614
359.542
360.453
361.349
362.23
363.095
363.947
364.783
365.605
366.412
367.205
367.982
368.744
369.491
370.223
370.94
371.641
372.328
372.999
373.655
374.296
374.921
375.532
376.129
376.711
377.278
377.832
378.371
378.897
379.409
379.907
380.392
380.864
381.322
381.768
382.201
382.621
383.029
383.425
383.81
384.182
384.543
384.893
385.232
385.56
385.878
386.186
386.484
386.772
387.051
387.321
387.582
387.834
388.078
388.313
388.54
388.758
388.969
389.173
389.369
389.558
389.741
389.917
390.087
390.251
390.409
390.561
390.709
390.851
390.989
391.121
391.25
391.374
391.494
391.61
391.722
391.83
391.934
392.035
392.132
392.225
392.314
392.4
392.483
392.562
392.637
392.709
392.778
392.844
392.906
392.965
393.017
393.062
393.094
393.133
393.148
393.149
393.15
360.906
361.794
362.693
363.573
364.436
365.284
366.116
366.933
367.735
368.523
369.296
370.054
370.797
371.526
372.24
372.939
373.623
374.294
374.949
375.59
376.217
376.83
377.429
378.013
378.584
379.14
379.683
380.213
380.728
381.231
381.72
382.196
382.659
383.109
383.547
383.972
384.384
384.785
385.173
385.55
385.915
386.268
386.61
386.941
387.261
387.57
387.869
388.158
388.436
388.704
388.963
389.211
389.45
389.679
389.899
390.109
390.31
390.502
390.686
390.86
391.027
391.185
391.336
391.479
391.614
391.742
391.864
391.978
392.086
392.187
392.282
392.37
392.453
392.53
392.602
392.667
392.728
392.783
392.834
392.879
392.92
392.957
392.989
393.017
393.042
393.063
393.081
393.096
393.109
393.119
393.127
393.133
393.138
393.141
393.143
393.145
393.148
393.149
393.15
393.15
363.935
364.765
365.606
366.431
367.241
368.036
368.816
369.582
370.333
371.071
371.793
372.502
373.197
373.878
374.544
375.197
375.836
376.462
377.074
377.673
378.258
378.83
379.39
379.936
380.469
380.99
381.497
381.992
382.474
382.944
383.402
383.847
384.28
384.702
385.111
385.509
385.895
386.269
386.632
386.984
387.324
387.654
387.972
388.279
388.575
388.86
389.135
389.398
389.651
389.893
390.125
390.346
390.557
390.757
390.947
391.127
391.297
391.458
391.609
391.751
391.883
392.007
392.122
392.229
392.328
392.419
392.502
392.579
392.648
392.711
392.768
392.82
392.865
392.906
392.942
392.974
393.002
393.026
393.047
393.065
393.081
393.094
393.105
393.115
393.122
393.129
393.134
393.138
393.141
393.144
393.146
393.147
393.148
393.148
393.149
393.149
393.149
393.149
393.149
393.149
365.423
366.176
366.938
367.688
368.425
369.149
369.86
370.557
371.24
371.91
372.567
373.21
373.841
374.458
375.062
375.654
376.233
376.799
377.353
377.895
378.425
378.943
379.449
379.943
380.426
380.897
381.357
381.805
382.243
382.67
383.087
383.493
383.888
384.274
384.65
385.015
385.371
385.717
386.054
386.381
386.699
387.008
387.307
387.598
387.88
388.152
388.416
388.672
388.918
389.156
389.386
389.607
389.82
390.025
390.222
390.411
390.591
390.764
390.929
391.087
391.237
391.38
391.515
391.643
391.764
391.879
391.987
392.088
392.183
392.272
392.355
392.432
392.504
392.571
392.633
392.69
392.743
392.791
392.836
392.876
392.913
392.947
392.977
393.004
393.029
393.051
393.071
393.088
393.103
393.116
393.126
393.134
393.139
393.143
393.145
393.146
393.147
393.147
393.147
393.147
364.476
365.122
365.773
366.415
367.045
367.664
368.27
368.864
369.445
370.014
370.569
371.114
371.645
372.166
372.675
373.173
373.66
374.138
374.604
375.062
375.509
375.947
376.374
376.793
377.202
377.602
377.993
378.376
378.751
379.118
379.477
379.829
380.174
380.512
380.843
381.169
381.488
381.802
382.11
382.413
382.712
383.006
383.296
383.582
383.864
384.142
384.417
384.689
384.958
385.224
385.487
385.748
386.006
386.262
386.515
386.766
387.014
387.26
387.503
387.744
387.981
388.216
388.447
388.675
388.899
389.119
389.335
389.546
389.753
389.955
390.152
390.344
390.53
390.711
390.887
391.057
391.221
391.379
391.532
391.679
391.82
391.955
392.084
392.208
392.326
392.438
392.544
392.644
392.737
392.822
392.898
392.963
393.016
393.056
393.083
393.098
393.109
393.117
393.121
393.122
360.135
360.646
361.157
361.661
362.154
362.636
363.106
363.566
364.013
364.449
364.873
365.288
365.691
366.084
366.467
366.842
367.206
367.563
367.911
368.251
368.583
368.909
369.226
369.538
369.842
370.141
370.434
370.722
371.005
371.284
371.558
371.83
372.098
372.363
372.626
372.887
373.147
373.405
373.663
373.92
374.177
374.435
374.694
374.953
375.214
375.477
375.742
376.009
376.278
376.551
376.827
377.106
377.388
377.674
377.964
378.258
378.556
378.858
379.164
379.475
379.79
380.11
380.433
380.762
381.094
381.43
381.77
382.114
382.462
382.812
383.166
383.523
383.882
384.244
384.608
384.974
385.342
385.713
386.085
386.461
386.839
387.222
387.609
388
388.396
388.796
389.202
389.61
390.019
390.426
390.825
391.207
391.563
391.88
392.146
392.338
392.493
392.615
392.702
392.747
351.77
352.123
352.474
352.817
353.149
353.472
353.785
354.089
354.381
354.666
354.939
355.205
355.461
355.71
355.949
356.181
356.405
356.623
356.832
357.036
357.233
357.427
357.616
357.802
357.984
358.164
358.341
358.517
358.691
358.864
359.036
359.208
359.38
359.552
359.725
359.898
360.073
360.249
360.427
360.606
360.788
360.972
361.159
361.348
361.54
361.736
361.935
362.137
362.343
362.553
362.767
362.985
363.208
363.436
363.668
363.906
364.149
364.397
364.652
364.913
365.18
365.454
365.735
366.023
366.32
366.625
366.939
367.262
367.595
367.937
368.29
368.655
369.031
369.419
369.821
370.238
370.67
371.119
371.588
372.077
372.59
373.13
373.701
374.305
374.948
375.636
376.373
377.166
378.019
378.934
379.913
380.95
382.038
383.163
384.304
385.417
386.364
387.222
387.937
388.424
339.595
339.787
339.976
340.159
340.335
340.505
340.669
340.828
340.98
341.128
341.27
341.408
341.541
341.67
341.795
341.916
342.034
342.148
342.26
342.369
342.476
342.581
342.684
342.786
342.886
342.984
343.082
343.178
343.274
343.368
343.462
343.555
343.648
343.74
343.832
343.924
344.015
344.106
344.197
344.287
344.378
344.468
344.559
344.649
344.739
344.83
344.92
345.011
345.102
345.192
345.284
345.375
345.467
345.56
345.653
345.746
345.84
345.934
346.028
346.123
346.218
346.313
346.408
346.505
346.603
346.703
346.805
346.909
347.017
347.128
347.243
347.362
347.486
347.616
347.752
347.895
348.047
348.208
348.38
348.564
348.761
348.974
349.203
349.451
349.72
350.011
350.334
350.708
351.142
351.648
352.237
352.924
353.721
354.649
355.734
357.01
358.5
360.026
361.454
362.535
326.721
326.785
326.85
326.911
326.97
327.027
327.082
327.135
327.188
327.238
327.288
327.335
327.382
327.427
327.472
327.514
327.556
327.595
327.634
327.671
327.707
327.74
327.773
327.803
327.831
327.857
327.881
327.902
327.921
327.938
327.952
327.963
327.972
327.978
327.981
327.982
327.979
327.974
327.965
327.954
327.94
327.922
327.902
327.878
327.851
327.821
327.787
327.75
327.709
327.665
327.617
327.565
327.509
327.448
327.384
327.314
327.24
327.161
327.076
326.986
326.89
326.788
326.68
326.565
326.441
326.308
326.165
326.011
325.846
325.669
325.478
325.272
325.051
324.814
324.559
324.285
323.99
323.674
323.336
322.974
322.587
322.174
321.736
321.271
320.78
320.264
319.715
319.119
318.468
317.755
316.975
316.133
315.222
314.233
313.163
312.007
310.771
309.478
308.19
307.027
316.573
316.547
316.518
316.485
316.45
316.411
316.372
316.33
316.288
316.243
316.198
316.151
316.104
316.055
316.005
315.954
315.903
315.85
315.796
315.741
315.685
315.627
315.569
315.508
315.447
315.383
315.318
315.25
315.182
315.11
315.037
314.961
314.883
314.801
314.718
314.631
314.541
314.448
314.352
314.252
314.148
314.041
313.93
313.814
313.694
313.57
313.441
313.308
313.169
313.025
312.876
312.721
312.561
312.394
312.222
312.043
311.858
311.666
311.466
311.259
311.043
310.819
310.585
310.341
310.087
309.822
309.545
309.256
308.953
308.637
308.307
307.961
307.6
307.223
306.83
306.419
305.992
305.547
305.085
304.607
304.112
303.603
303.08
302.545
302
301.448
300.892
300.335
299.781
299.236
298.699
298.159
297.619
297.091
296.58
296.093
295.638
295.229
294.883
294.621
309.167
309.099
309.024
308.943
308.859
308.771
308.68
308.587
308.492
308.395
308.297
308.196
308.094
307.991
307.886
307.779
307.672
307.562
307.451
307.339
307.225
307.11
306.993
306.874
306.754
306.632
306.509
306.384
306.257
306.128
305.997
305.864
305.729
305.592
305.453
305.311
305.167
305.02
304.871
304.719
304.565
304.408
304.248
304.085
303.92
303.751
303.579
303.404
303.226
303.045
302.86
302.672
302.48
302.285
302.086
301.884
301.677
301.467
301.252
301.034
300.812
300.586
300.355
300.122
299.884
299.643
299.398
299.149
298.897
298.642
298.385
298.125
297.862
297.599
297.334
297.069
296.805
296.542
296.281
296.024
295.771
295.524
295.284
295.054
294.833
294.623
294.427
294.244
294.077
293.926
293.793
293.679
293.582
293.497
293.423
293.361
293.31
293.27
293.24
293.221
303.89
303.812
303.724
303.63
303.531
303.427
303.322
303.214
303.103
302.991
302.878
302.762
302.645
302.527
302.407
302.286
302.163
302.039
301.914
301.787
301.659
301.53
301.399
301.267
301.134
300.999
300.864
300.727
300.588
300.449
300.308
300.166
300.023
299.879
299.734
299.588
299.441
299.293
299.144
298.994
298.844
298.693
298.541
298.389
298.237
298.084
297.932
297.779
297.627
297.474
297.322
297.171
297.019
296.869
296.719
296.569
296.421
296.274
296.127
295.982
295.839
295.697
295.558
295.42
295.285
295.153
295.023
294.896
294.772
294.652
294.535
294.422
294.312
294.207
294.106
294.01
293.918
293.831
293.749
293.672
293.601
293.535
293.475
293.42
293.372
293.329
293.292
293.26
293.234
293.212
293.195
293.182
293.173
293.167
293.162
293.158
293.156
293.154
293.152
293.152
300.388
300.312
300.227
300.135
300.038
299.938
299.836
299.731
299.625
299.518
299.409
299.298
299.187
299.075
298.961
298.847
298.732
298.616
298.499
298.382
298.264
298.146
298.027
297.907
297.787
297.667
297.547
297.427
297.306
297.186
297.066
296.945
296.825
296.706
296.587
296.468
296.35
296.233
296.117
296.002
295.888
295.775
295.664
295.554
295.445
295.339
295.234
295.131
295.03
294.931
294.835
294.74
294.648
294.559
294.472
294.388
294.307
294.228
294.153
294.08
294.01
293.943
293.88
293.819
293.761
293.706
293.654
293.606
293.56
293.517
293.477
293.439
293.405
293.373
293.344
293.317
293.293
293.271
293.251
293.234
293.218
293.205
293.193
293.184
293.176
293.169
293.164
293.16
293.156
293.154
293.153
293.152
293.151
293.151
293.15
293.15
293.15
293.15
293.15
293.15
298.111
298.045
297.969
297.888
297.802
297.714
297.625
297.533
297.441
297.347
297.253
297.158
297.062
296.966
296.87
296.773
296.676
296.579
296.481
296.384
296.287
296.19
296.093
295.997
295.901
295.806
295.711
295.618
295.525
295.433
295.342
295.252
295.164
295.076
294.99
294.905
294.822
294.74
294.66
294.582
294.506
294.431
294.358
294.288
294.219
294.153
294.089
294.027
293.968
293.911
293.856
293.803
293.753
293.706
293.66
293.618
293.577
293.539
293.503
293.469
293.438
293.409
293.382
293.356
293.333
293.312
293.292
293.275
293.259
293.244
293.231
293.219
293.208
293.199
293.191
293.184
293.178
293.172
293.168
293.164
293.161
293.158
293.156
293.154
293.153
293.152
293.151
293.151
293.151
293.15
293.15
293.15
293.15
293.15
293.15
293.15
293.15
293.15
293.15
293.15
296.583
296.528
296.464
296.397
296.327
296.256
296.183
296.109
296.035
295.96
295.884
295.809
295.733
295.657
295.581
295.505
295.429
295.353
295.278
295.203
295.129
295.055
294.982
294.909
294.838
294.767
294.697
294.629
294.561
294.495
294.429
294.365
294.303
294.242
294.182
294.124
294.068
294.013
293.961
293.91
293.86
293.813
293.767
293.723
293.682
293.642
293.604
293.567
293.533
293.501
293.47
293.441
293.415
293.389
293.366
293.344
293.324
293.305
293.288
293.272
293.258
293.245
293.233
293.222
293.212
293.204
293.196
293.189
293.183
293.178
293.173
293.169
293.166
293.163
293.16
293.158
293.156
293.155
293.154
293.153
293.152
293.151
293.151
293.151
293.15
293.15
293.15
293.15
293.15
293.15
293.15
293.15
293.15
293.15
293.15
293.15
293.15
293.15
293.15
293.15
295.508
295.464
295.415
295.363
295.309
295.255
295.199
295.144
295.087
295.031
294.974
294.917
294.86
294.804
294.747
294.691
294.635
294.579
294.524
294.469
294.415
294.361
294.309
294.257
294.205
294.155
294.106
294.057
294.01
293.964
293.919
293.875
293.832
293.791
293.751
293.713
293.676
293.64
293.606
293.573
293.542
293.512
293.484
293.457
293.432
293.408
293.385
293.364
293.344
293.326
293.308
293.292
293.278
293.264
293.251
293.24
293.229
293.219
293.211
293.203
293.196
293.19
293.184
293.179
293.175
293.171
293.167
293.164
293.162
293.16
293.158
293.156
293.155
293.154
293.153
293.152
293.152
293.151
293.151
293.151
293.15
293.15
293.15
293.15
293.15
293.15
293.15
293.15
293.15
293.15
293.15
293.15
293.15
293.15
293.15
293.15
293.15
293.15
293.15
293.15
294.725
294.693
294.657
294.62
294.582
294.543
294.503
294.463
294.423
294.383
294.342
294.302
294.262
294.221
294.181
294.142
294.102
294.063
294.024
293.986
293.948
293.911
293.875
293.839
293.804
293.77
293.737
293.704
293.672
293.642
293.612
293.583
293.555
293.529
293.503
293.479
293.455
293.433
293.411
293.391
293.372
293.354
293.336
293.32
293.305
293.291
293.277
293.265
293.254
293.243
293.233
293.224
293.216
293.208
293.201
293.195
293.189
293.184
293.179
293.175
293.172
293.168
293.166
293.163
293.161
293.159
293.157
293.156
293.155
293.154
293.153
293.153
293.152
293.152
293.151
293.151
293.151
293.15
293.15
293.15
293.15
293.15
293.15
293.15
293.15
293.15
293.15
293.15
293.15
293.15
293.15
293.15
293.15
293.15
293.15
293.15
293.15
293.15
293.15
293.15
294.032
294.014
293.993
293.972
293.949
293.927
293.904
293.88
293.857
293.833
293.809
293.786
293.762
293.738
293.715
293.691
293.668
293.645
293.623
293.601
293.579
293.557
293.536
293.516
293.496
293.476
293.457
293.439
293.421
293.404
293.387
293.372
293.356
293.342
293.328
293.315
293.302
293.29
293.279
293.268
293.258
293.249
293.24
293.231
293.224
293.217
293.21
293.204
293.198
293.193
293.188
293.184
293.18
293.176
293.173
293.17
293.167
293.165
293.163
293.161
293.159
293.158
293.157
293.155
293.155
293.154
293.153
293.152
293.152
293.152
293.151
293.151
293.151
293.151
293.15
293.15
293.15
293.15
293.15
293.15
293.15
293.15
293.15
293.15
293.15
293.15
293.15
293.15
293.15
293.15
293.15
293.15
293.15
293.15
293.15
293.15
293.15
293.15
293.15
293.15
393.15
393.15
393.15
393.15
393.15
393.15
393.15
393.15
393.15
393.149
393.149
393.148
393.147
393.145
393.142
393.136
393.126
393.106
393.065
392.963
393.15
393.15
393.15
393.15
393.15
393.15
393.15
393.149
393.149
393.149
393.148
393.146
393.144
393.141
393.135
393.124
393.105
393.067
392.983
392.74
393.15
393.15
393.15
393.15
393.15
393.15
393.149
393.149
393.148
393.147
393.145
393.143
393.138
393.131
393.119
393.097
393.056
392.969
392.757
392.06
393.15
393.15
393.15
393.149
393.149
393.149
393.148
393.147
393.145
393.142
393.138
393.132
393.122
393.106
393.077
393.024
392.918
392.683
392.058
389.794
393.149
393.149
393.149
393.148
393.147
393.145
393.143
393.14
393.135
393.128
393.117
393.1
393.073
393.029
392.951
392.806
392.508
391.822
389.904
382.522
393.146
393.145
393.143
393.14
393.136
393.13
393.121
393.11
393.094
393.071
393.039
392.99
392.913
392.788
392.572
392.171
391.357
389.495
384.233
363.722
393.116
393.107
393.094
393.078
393.057
393.029
392.995
392.952
392.899
392.831
392.737
392.599
392.392
392.062
391.508
390.512
388.573
384.321
372.953
332.994
392.712
392.647
392.572
392.482
392.381
392.272
392.159
392.046
391.917
391.749
391.519
391.19
390.705
389.954
388.724
386.596
382.651
374.572
355.724
307.288
388.418
388.141
387.853
387.553
387.268
387.064
386.897
386.76
386.56
386.296
385.92
385.396
384.6
383.357
381.186
377.375
370.419
357.517
333.928
297.46
362.709
362.217
361.713
361.22
360.795
360.56
360.354
360.087
359.791
359.49
359.113
358.681
357.99
356.985
354.864
350.707
342.757
329.742
311.286
297.507
306.442
306.552
306.612
306.627
306.537
306.187
305.742
305.273
304.773
304.194
303.558
302.786
301.917
300.827
299.879
299.107
298.685
297.917
295.687
294.428
294.538
294.593
294.64
294.681
294.702
294.673
294.611
294.51
294.407
294.294
294.179
294.049
293.921
293.777
293.664
293.581
293.538
293.476
293.302
293.491
293.218
293.226
293.234
293.243
293.251
293.257
293.259
293.255
293.247
293.235
293.224
293.212
293.202
293.191
293.183
293.177
293.172
293.167
293.16
293.22
293.152
293.152
293.152
293.153
293.154
293.154
293.155
293.155
293.155
293.155
293.154
293.153
293.153
293.152
293.152
293.151
293.151
293.151
293.151
293.156
293.15
293.15
293.15
293.15
293.15
293.15
293.15
293.15
293.15
293.15
293.15
293.15
293.15
293.15
293.15
293.15
293.15
293.15
293.15
293.15
293.15
293.15
293.15
293.15
293.15
293.15
293.15
293.15
293.15
293.15
293.15
293.15
293.15
293.15
293.15
293.15
293.15
293.15
293.15
293.15
293.15
293.15
293.15
293.15
293.15
293.15
293.15
293.15
293.15
293.15
293.15
293.15
293.15
293.15
293.15
293.15
293.15
293.15
293.15
293.15
293.15
293.15
293.15
293.15
293.15
293.15
293.15
293.15
293.15
293.15
293.15
293.15
293.15
293.15
293.15
293.15
293.15
293.15
293.15
293.15
293.15
293.15
293.15
293.15
293.15
293.15
293.15
293.15
293.15
293.15
293.15
293.15
293.15
293.15
293.15
293.15
293.15
293.15
293.15
293.15
293.15
293.15
293.15
293.15
293.15
293.15
293.15
293.15
293.15
293.15
293.15
293.15
293.15
293.15
293.15
293.15
293.15
293.15
293.15
293.15
393.15
393.15
393.15
393.15
393.15
393.15
393.15
393.15
393.15
393.15
393.15
393.15
393.15
393.15
393.15
393.15
393.15
393.15
393.15
393.15
393.15
393.15
393.15
393.15
393.15
393.15
393.15
393.15
393.15
393.15
393.15
393.15
393.15
393.15
393.15
393.15
393.15
393.15
393.15
393.15
393.15
393.15
393.15
393.15
393.15
393.15
393.15
393.15
393.15
393.15
393.15
393.15
393.15
393.15
393.15
393.15
393.15
393.15
393.15
393.15
393.15
393.15
393.15
393.15
393.15
393.15
393.15
393.15
393.15
393.15
393.15
393.15
393.15
393.15
393.15
393.15
393.15
393.15
393.15
393.15
393.15
393.15
393.15
393.15
393.15
393.15
393.15
393.15
393.15
393.15
393.15
393.15
393.15
393.15
393.15
393.15
393.15
393.15
393.15
393.15
393.15
393.15
393.15
393.15
393.15
393.15
393.15
393.15
393.15
393.15
393.15
393.15
393.15
393.15
393.15
393.15
393.15
393.15
393.15
393.15
393.15
393.15
393.15
393.15
393.15
393.15
393.15
393.15
393.15
393.15
393.15
393.15
393.15
393.15
393.15
393.15
393.15
393.15
393.15
393.15
393.15
393.15
393.15
393.15
393.15
393.15
393.15
393.15
393.15
393.15
393.15
393.15
393.15
393.15
393.15
393.15
393.15
393.15
393.15
393.15
393.15
393.15
393.15
393.15
393.15
393.15
393.15
393.15
393.15
393.15
393.15
393.15
393.15
393.15
393.15
393.15
393.15
393.15
393.15
393.15
393.15
393.15
393.15
393.15
393.15
393.15
393.15
393.15
393.15
393.15
393.15
393.15
393.15
393.15
393.15
393.15
393.15
393.15
393.15
393.15
393.15
393.15
393.15
393.15
393.15
393.15
393.15
393.15
393.15
393.15
393.15
393.15
393.15
393.15
393.15
393.15
393.15
393.15
393.15
393.15
393.15
393.15
393.15
393.15
393.15
393.15
393.15
393.15
393.15
393.15
393.15
393.15
393.15
393.15
393.15
393.15
393.15
393.15
393.15
393.15
393.15
393.15
393.15
393.15
393.15
393.15
393.15
393.15
393.15
393.15
393.15
393.15
393.15
393.15
393.15
393.15
393.15
393.15
393.15
393.15
393.15
393.15
393.15
393.15
393.15
393.15
393.15
393.15
393.15
393.15
393.15
393.15
393.15
393.15
393.15
393.15
393.15
393.15
393.15
393.15
393.15
393.15
393.15
393.15
393.15
393.15
393.15
393.15
393.15
393.15
393.15
393.15
393.15
393.15
393.15
393.15
393.15
393.15
393.15
393.15
393.15
393.15
393.15
393.15
393.15
393.15
393.15
393.15
393.15
393.15
393.15
393.15
393.15
393.15
393.15
393.15
393.15
393.15
393.15
393.15
393.15
393.15
393.15
393.15
393.15
393.15
393.15
393.15
393.15
393.15
393.15
393.15
393.15
393.15
393.15
393.15
393.15
393.15
393.15
393.15
393.15
393.15
393.15
393.15
393.15
393.15
393.15
393.15
393.15
393.15
393.15
393.15
393.15
393.15
393.15
393.15
393.15
393.15
393.15
393.15
393.15
393.15
393.15
393.15
393.15
393.15
393.15
393.15
393.15
393.15
393.15
393.15
393.15
393.15
393.15
393.15
393.15
393.15
393.15
393.15
393.15
393.15
393.15
393.15
393.15
393.15
393.15
393.15
393.15
393.15
393.15
393.15
393.15
393.15
393.15
393.15
393.15
393.15
393.15
393.15
393.15
393.15
393.15
393.15
393.15
393.15
393.15
393.15
393.15
393.15
393.15
393.15
393.15
393.15
393.15
393.15
393.15
393.15
393.15
393.15
393.15
393.15
393.15
393.15
393.15
393.15
393.15
393.15
393.15
393.15
393.15
393.15
393.15
393.15
393.15
393.15
393.15
393.15
393.15
393.15
393.15
393.15
393.15
393.15
393.15
393.15
393.15
393.15
393.15
393.15
393.15
393.15
393.15
393.15
393.15
393.15
393.15
393.15
393.15
393.15
393.15
393.15
393.15
393.15
393.15
393.15
393.15
393.15
393.15
393.15
393.15
393.15
393.15
393.15
393.15
393.15
393.15
393.15
393.15
393.15
393.15
393.15
393.15
393.15
393.15
393.15
393.15
393.15
393.15
393.15
393.15
393.15
393.15
393.15
393.15
393.15
393.15
393.15
393.15
393.15
393.15
393.15
393.15
393.15
393.15
393.15
393.15
393.15
393.15
393.15
393.15
393.15
393.15
393.15
393.15
393.15
393.15
393.15
393.15
393.15
393.15
393.15
393.15
393.15
393.15
393.15
393.15
393.15
393.15
393.15
393.15
393.15
393.15
393.15
393.15
393.15
393.15
393.15
393.15
393.15
393.15
393.15
393.15
393.15
393.15
393.15
393.15
393.15
393.15
393.15
393.15
393.15
393.15
393.15
393.15
393.15
393.15
393.15
393.15
393.15
393.15
393.15
393.15
393.15
393.15
393.15
393.15
393.15
393.15
393.15
393.15
393.15
393.15
393.15
393.15
393.15
393.15
393.15
393.15
393.15
393.15
393.15
393.15
393.15
393.15
393.15
393.15
393.15
393.15
393.15
393.15
393.15
393.15
393.15
393.15
393.15
393.15
393.15
393.15
393.15
393.15
393.15
393.15
393.15
393.15
393.15
393.15
393.15
393.15
393.15
393.15
393.15
393.15
393.15
393.15
393.15
393.15
393.15
393.15
393.15
393.15
393.15
393.15
393.15
393.15
393.15
393.15
393.15
393.15
393.15
393.15
393.15
393.15
393.15
393.15
393.15
393.15
393.15
393.15
393.15
393.15
393.15
393.15
393.15
393.15
393.15
393.15
393.15
393.15
393.15
393.15
393.15
393.15
393.15
393.15
393.15
393.15
393.15
393.15
393.15
393.15
393.15
393.15
393.15
393.15
393.15
393.15
393.15
393.15
393.15
393.15
393.15
393.15
393.15
393.15
393.15
393.15
393.15
393.15
393.15
393.15
393.15
393.15
393.15
393.15
393.15
393.15
393.15
393.15
393.15
393.15
393.15
393.15
393.15
393.15
393.15
393.15
393.15
393.15
393.15
393.15
393.15
393.15
393.15
393.15
393.15
393.15
393.15
393.15
393.15
393.15
393.15
393.15
393.15
393.15
393.15
393.15
393.15
393.15
393.15
393.15
393.15
393.15
393.15
393.15
393.15
393.15
393.15
393.15
393.15
393.15
393.15
393.15
393.15
393.15
393.15
393.15
393.15
393.15
393.15
393.15
393.15
393.15
393.15
393.15
393.15
393.15
393.15
393.15
393.15
393.15
393.15
393.15
393.15
393.15
393.15
393.15
393.15
393.15
393.15
393.15
393.15
393.15
393.15
393.15
393.15
393.15
393.15
393.15
393.15
393.15
393.15
393.15
393.15
393.15
393.15
393.15
393.15
393.15
393.15
393.15
393.15
393.15
393.15
393.15
393.15
393.15
393.15
393.15
393.15
393.15
393.15
393.15
393.15
393.15
393.15
393.15
393.15
393.15
393.15
393.15
393.15
393.15
393.15
393.15
393.15
393.15
393.15
393.15
393.15
393.15
393.15
393.15
393.15
393.15
393.15
393.15
393.15
393.15
393.15
393.15
393.15
393.15
393.15
393.15
393.15
393.15
393.15
393.15
393.15
393.15
393.15
393.15
393.15
393.15
393.15
393.15
393.15
393.15
393.15
393.15
393.15
393.15
393.15
393.15
393.15
393.15
393.15
393.15
393.15
393.15
393.15
393.15
393.15
393.15
393.15
393.15
393.15
393.15
393.15
393.15
393.15
393.15
393.15
393.15
393.15
393.15
393.15
393.15
393.15
393.15
393.15
393.15
393.15
393.15
393.15
393.15
393.15
393.15
393.15
393.15
393.15
393.15
393.15
393.15
393.15
393.15
393.15
393.15
393.15
393.15
393.15
393.15
393.15
393.15
393.15
393.15
393.15
393.15
393.15
393.15
393.15
393.15
393.15
393.15
393.15
393.15
393.15
393.15
393.15
393.15
393.15
393.15
393.15
393.15
393.15
393.15
393.15
393.15
393.15
393.15
393.15
393.15
393.15
393.15
393.15
393.15
393.15
393.15
393.15
393.15
393.15
393.15
393.15
393.15
393.15
393.15
393.15
393.15
393.15
393.15
393.15
393.15
393.15
393.15
393.15
393.15
393.15
393.15
393.15
393.15
393.15
393.15
393.15
393.15
393.15
393.15
393.15
393.15
393.15
393.15
393.15
393.15
393.15
393.15
393.15
393.15
393.15
393.15
393.15
393.15
393.15
393.15
393.15
393.15
393.15
393.15
393.15
393.15
393.15
393.15
393.15
393.15
393.15
393.15
393.15
393.15
393.15
393.15
393.15
393.15
393.15
393.15
393.15
393.15
393.15
393.15
393.15
393.15
393.15
393.15
393.15
393.15
393.15
393.15
393.15
393.15
393.15
393.15
393.15
393.15
393.15
393.15
393.15
393.15
393.15
393.15
393.15
393.15
393.15
393.15
393.15
393.15
393.15
393.15
393.15
393.15
393.15
393.15
393.15
393.15
393.15
393.15
393.15
393.15
393.15
393.15
393.15
393.15
393.15
393.15
393.15
393.15
393.15
393.15
393.15
393.15
393.15
393.15
393.15
393.15
393.15
393.15
393.15
393.15
393.15
393.15
393.15
393.15
393.15
393.15
393.15
393.15
393.15
393.15
393.15
393.15
393.15
393.15
393.15
393.15
393.15
393.15
393.15
393.15
393.15
393.15
393.15
393.15
393.15
393.15
393.15
393.15
393.15
393.15
393.15
393.15
393.15
393.15
393.15
393.15
393.15
393.15
393.15
393.15
393.15
393.15
393.15
393.15
393.15
393.15
393.15
393.15
393.15
393.15
393.15
393.15
393.15
393.15
393.15
393.15
393.15
393.15
393.15
393.15
393.15
393.15
393.15
393.15
393.15
393.15
393.15
393.15
393.15
393.15
393.15
393.15
393.15
393.15
393.15
393.15
393.15
393.15
393.15
393.15
393.15
393.15
393.15
393.15
393.15
393.15
393.15
393.15
393.15
393.15
393.15
393.15
393.15
393.15
393.15
393.15
393.15
393.15
393.15
393.15
393.15
393.15
393.15
393.15
393.15
393.15
393.15
393.15
393.15
393.15
393.15
393.15
393.15
393.15
393.15
393.15
393.15
393.15
393.15
393.15
393.15
393.15
393.15
393.15
393.15
393.15
393.15
393.15
393.15
393.15
393.15
393.15
393.15
393.15
393.15
393.15
393.15
393.15
393.15
393.15
393.15
393.15
393.15
393.15
393.15
393.15
393.15
393.15
393.15
393.15
393.15
393.15
393.15
393.15
393.15
393.15
393.15
393.15
393.15
393.15
393.15
393.15
393.15
393.15
393.15
393.15
393.15
393.15
393.15
393.15
393.15
393.15
393.15
393.15
393.15
393.15
393.15
393.15
393.15
393.15
393.15
393.15
393.15
393.15
393.15
393.15
393.15
393.15
393.15
393.15
393.15
393.15
393.15
393.15
393.15
393.15
393.15
393.15
393.15
393.15
393.15
393.15
393.15
393.15
393.15
393.15
393.15
393.15
393.15
393.15
393.15
393.15
393.15
393.15
393.15
393.15
393.15
393.15
393.15
393.15
393.15
393.15
393.15
393.15
393.15
393.15
393.15
393.15
393.15
393.15
393.15
393.15
393.15
393.15
393.15
393.15
393.15
393.15
393.15
393.15
393.15
393.15
393.15
393.15
393.15
393.15
393.15
393.15
393.15
393.15
393.15
393.15
393.15
393.15
393.15
393.15
393.15
393.15
393.15
393.15
393.15
393.15
393.15
393.15
393.15
393.15
393.15
393.15
393.15
393.15
393.15
393.15
393.15
393.15
393.15
393.15
393.15
393.15
393.15
393.15
393.15
393.15
393.15
393.15
393.15
393.15
393.15
393.15
393.15
393.15
393.15
393.15
393.15
393.15
393.15
393.15
393.15
393.15
393.15
393.15
393.15
393.15
393.15
393.15
393.15
393.15
393.15
393.15
393.15
393.15
393.15
393.15
393.15
393.15
393.15
393.15
393.15
393.15
393.15
393.15
393.15
393.15
393.15
393.15
393.15
393.15
393.15
393.15
393.15
393.15
393.15
393.15
393.15
393.15
393.15
393.15
393.15
393.15
393.15
393.15
393.15
393.15
393.15
393.15
393.15
393.15
393.15
393.15
393.15
393.15
393.15
393.15
393.15
393.15
393.15
393.15
393.15
393.15
393.15
393.15
393.15
393.15
393.15
393.15
393.15
393.15
393.15
393.15
393.15
393.15
393.15
393.15
393.15
393.15
393.15
393.15
393.15
393.15
393.15
393.15
393.15
393.15
393.15
393.15
393.15
393.15
393.15
393.15
393.15
393.15
393.15
393.15
393.15
393.15
393.15
393.15
393.15
393.15
393.15
393.15
393.15
393.15
393.15
393.15
393.15
393.15
393.15
393.15
393.15
393.15
393.15
393.15
393.15
393.15
393.15
393.15
393.15
393.15
393.15
393.15
393.15
393.15
393.15
393.15
393.15
393.15
393.15
393.15
393.15
393.15