/*--------------------------------*- C++ -*----------------------------------*\
| =========                 |                                                 |
| \\      /  F ield         | OpenFOAM: The Open Source CFD Toolbox           |
|  \\    /   O peration     | Version:  2.1.0                                 |
|   \\  /    A nd           | Web:      www.OpenFOAM.org                      |
|    \\/     M anipulation  |                                                 |
\*---------------------------------------------------------------------------*/
FoamFile
{
    version     2.0;
    format      ascii;
    class       volVectorField;
    location    "0.34";
    object      U;
}
// * * * * * * * * * * * * * * * * * * * * * * * * * * * * * * * * * * * * * //

dimensions      [0 1 -1 0 0 0 0];

internalField   nonuniform List<vector> 
6400
(
(-1.28484 -5.8137e-05 0)
(-1.28431 -0.000516707 0)
(-1.28255 -0.000801912 0)
(-1.27985 -0.00094932 0)
(-1.27667 -0.00103808 0)
(-1.27318 -0.00109868 0)
(-1.26947 -0.00114314 0)
(-1.2656 -0.00117845 0)
(-1.26158 -0.00120846 0)
(-1.25744 -0.00123548 0)
(-1.25319 -0.00126086 0)
(-1.24883 -0.00128532 0)
(-1.24436 -0.00130941 0)
(-1.23978 -0.00133329 0)
(-1.2351 -0.00135726 0)
(-1.23031 -0.00138128 0)
(-1.22541 -0.00140556 0)
(-1.22041 -0.00142997 0)
(-1.21529 -0.00145467 0)
(-1.21007 -0.0014795 0)
(-1.20473 -0.00150479 0)
(-1.19928 -0.0015305 0)
(-1.19372 -0.00155611 0)
(-1.18804 -0.00158221 0)
(-1.18224 -0.00160989 0)
(-1.17632 -0.00163845 0)
(-1.17028 -0.00166785 0)
(-1.1641 -0.00169799 0)
(-1.15779 -0.00172904 0)
(-1.15134 -0.00176098 0)
(-1.14475 -0.00179399 0)
(-1.13802 -0.00182808 0)
(-1.13114 -0.0018634 0)
(-1.1241 -0.0019 0)
(-1.1169 -0.00193803 0)
(-1.10954 -0.0019775 0)
(-1.10201 -0.00201857 0)
(-1.0943 -0.00206125 0)
(-1.08641 -0.00210572 0)
(-1.07832 -0.00215214 0)
(-1.07004 -0.00220066 0)
(-1.06155 -0.00225131 0)
(-1.05284 -0.00230421 0)
(-1.04392 -0.00235945 0)
(-1.03475 -0.00241708 0)
(-1.02535 -0.00247711 0)
(-1.01569 -0.00253952 0)
(-1.00577 -0.00260419 0)
(-0.995585 -0.00267114 0)
(-0.98512 -0.00274019 0)
(-0.974372 -0.00280933 0)
(-0.963336 -0.00288191 0)
(-0.951991 -0.00296071 0)
(-0.940319 -0.0030423 0)
(-0.92832 -0.00312354 0)
(-0.915999 -0.00320188 0)
(-0.903362 -0.00327841 0)
(-0.890416 -0.00335522 0)
(-0.877156 -0.00343349 0)
(-0.863575 -0.00351385 0)
(-0.849666 -0.00359661 0)
(-0.835418 -0.00368201 0)
(-0.82082 -0.00377046 0)
(-0.80586 -0.00386226 0)
(-0.790524 -0.00395769 0)
(-0.774798 -0.00405717 0)
(-0.758663 -0.00416126 0)
(-0.742101 -0.0042706 0)
(-0.725091 -0.00438567 0)
(-0.70761 -0.00450675 0)
(-0.689632 -0.00463441 0)
(-0.671131 -0.00476925 0)
(-0.652077 -0.00491185 0)
(-0.632439 -0.00506311 0)
(-0.61218 -0.00522408 0)
(-0.59126 -0.0053961 0)
(-0.569632 -0.00558095 0)
(-0.54724 -0.00578081 0)
(-0.52402 -0.00599885 0)
(-0.499892 -0.00623947 0)
(-0.474756 -0.0065081 0)
(-0.448488 -0.0068115 0)
(-0.420935 -0.00715817 0)
(-0.391908 -0.00755706 0)
(-0.36119 -0.00801453 0)
(-0.328545 -0.00853295 0)
(-0.293742 -0.0091079 0)
(-0.256598 -0.00971952 0)
(-0.217067 -0.0103177 0)
(-0.175418 -0.0107925 0)
(-0.132576 -0.0109198 0)
(-0.0907809 -0.0102542 0)
(-0.0542046 -0.00825839 0)
(-0.0281492 -0.00490294 0)
(-0.0162687 -0.0010788 0)
(-0.0204321 0.00314897 0)
(-0.0492019 0.0113094 0)
(-0.129273 0.029192 0)
(-0.329005 0.0711482 0)
(-0.948535 0.198972 0)
(-1.55291 -0.000371021 0)
(-1.55047 -0.00169497 0)
(-1.54903 -0.00244815 0)
(-1.54625 -0.00285401 0)
(-1.5431 -0.00310362 0)
(-1.53967 -0.00327443 0)
(-1.53607 -0.00339977 0)
(-1.5323 -0.00349914 0)
(-1.52842 -0.00358358 0)
(-1.52443 -0.00365947 0)
(-1.52033 -0.00373081 0)
(-1.51614 -0.00379954 0)
(-1.51185 -0.00386734 0)
(-1.50747 -0.0039346 0)
(-1.50299 -0.00400224 0)
(-1.49842 -0.00407013 0)
(-1.49375 -0.0041389 0)
(-1.48899 -0.00420813 0)
(-1.48412 -0.00427821 0)
(-1.47915 -0.00434871 0)
(-1.47408 -0.00442029 0)
(-1.46891 -0.0044932 0)
(-1.46364 -0.00456527 0)
(-1.45827 -0.00463778 0)
(-1.4528 -0.00471453 0)
(-1.44723 -0.0047932 0)
(-1.44155 -0.0048738 0)
(-1.43576 -0.00495617 0)
(-1.42988 -0.00504077 0)
(-1.42388 -0.00512759 0)
(-1.41777 -0.00521707 0)
(-1.41156 -0.00530921 0)
(-1.40522 -0.00540442 0)
(-1.39878 -0.00550285 0)
(-1.39221 -0.0056048 0)
(-1.38552 -0.00571035 0)
(-1.37871 -0.00581996 0)
(-1.37177 -0.00593367 0)
(-1.36469 -0.0060518 0)
(-1.35748 -0.00617479 0)
(-1.35014 -0.00630304 0)
(-1.34265 -0.00643669 0)
(-1.33501 -0.00657609 0)
(-1.32721 -0.00672153 0)
(-1.31926 -0.00687325 0)
(-1.31115 -0.00703138 0)
(-1.30286 -0.00719613 0)
(-1.29439 -0.00736733 0)
(-1.28573 -0.00754516 0)
(-1.27687 -0.00772949 0)
(-1.26781 -0.00791522 0)
(-1.25856 -0.00810462 0)
(-1.24912 -0.00830107 0)
(-1.23951 -0.00850064 0)
(-1.22975 -0.00870085 0)
(-1.21981 -0.00889789 0)
(-1.20969 -0.00909252 0)
(-1.19939 -0.00928812 0)
(-1.18891 -0.00948715 0)
(-1.17825 -0.00969102 0)
(-1.16739 -0.00990062 0)
(-1.15635 -0.0101164 0)
(-1.14511 -0.010339 0)
(-1.13367 -0.0105687 0)
(-1.12203 -0.0108065 0)
(-1.11019 -0.0110532 0)
(-1.09815 -0.0113102 0)
(-1.08589 -0.0115791 0)
(-1.07341 -0.0118613 0)
(-1.06071 -0.012158 0)
(-1.04776 -0.0124709 0)
(-1.03457 -0.0128019 0)
(-1.02111 -0.0131531 0)
(-1.00735 -0.0135273 0)
(-0.993284 -0.0139277 0)
(-0.97887 -0.0143585 0)
(-0.964073 -0.0148249 0)
(-0.948851 -0.015333 0)
(-0.933152 -0.015891 0)
(-0.916917 -0.0165103 0)
(-0.900074 -0.0172043 0)
(-0.882544 -0.0179886 0)
(-0.864236 -0.0188827 0)
(-0.84505 -0.0199067 0)
(-0.824878 -0.0210754 0)
(-0.803608 -0.0223926 0)
(-0.781143 -0.0238436 0)
(-0.757429 -0.0253736 0)
(-0.732505 -0.0268538 0)
(-0.706572 -0.0280162 0)
(-0.680093 -0.02834 0)
(-0.653853 -0.0268702 0)
(-0.629217 -0.0223401 0)
(-0.609087 -0.0140985 0)
(-0.602421 -0.00153819 0)
(-0.616949 0.0129196 0)
(-0.66488 0.0396643 0)
(-0.768626 0.0919916 0)
(-0.971356 0.204332 0)
(-1.45987 0.526404 0)
(-1.70434 -0.000975258 0)
(-1.70101 -0.00294925 0)
(-1.70043 -0.00403885 0)
(-1.69822 -0.00465266 0)
(-1.69566 -0.00503643 0)
(-1.69289 -0.00529893 0)
(-1.68995 -0.00549029 0)
(-1.6869 -0.00564146 0)
(-1.68375 -0.00576887 0)
(-1.68052 -0.00588312 0)
(-1.6772 -0.0059899 0)
(-1.67382 -0.00609282 0)
(-1.67036 -0.00619406 0)
(-1.66684 -0.00629473 0)
(-1.66324 -0.00639592 0)
(-1.65958 -0.00649788 0)
(-1.65583 -0.00660133 0)
(-1.65203 -0.00670602 0)
(-1.64813 -0.00681233 0)
(-1.64417 -0.00691996 0)
(-1.64012 -0.00702957 0)
(-1.636 -0.0071421 0)
(-1.63177 -0.00725423 0)
(-1.62747 -0.00736561 0)
(-1.62307 -0.00747978 0)
(-1.61861 -0.00759488 0)
(-1.61407 -0.00771173 0)
(-1.60947 -0.00783058 0)
(-1.60479 -0.00795205 0)
(-1.60005 -0.00807621 0)
(-1.59523 -0.00820354 0)
(-1.59035 -0.00833412 0)
(-1.58539 -0.00846838 0)
(-1.58037 -0.00860651 0)
(-1.57529 -0.00874885 0)
(-1.57013 -0.00889542 0)
(-1.56491 -0.0090469 0)
(-1.55962 -0.00920332 0)
(-1.55427 -0.00936482 0)
(-1.54885 -0.00953195 0)
(-1.54337 -0.00970518 0)
(-1.53782 -0.00988468 0)
(-1.53222 -0.0100708 0)
(-1.52656 -0.010264 0)
(-1.52084 -0.0104644 0)
(-1.51508 -0.0106724 0)
(-1.50926 -0.0108882 0)
(-1.50339 -0.0111118 0)
(-1.49748 -0.0113429 0)
(-1.49153 -0.0115811 0)
(-1.48554 -0.0118224 0)
(-1.47954 -0.0120643 0)
(-1.4735 -0.0123049 0)
(-1.46745 -0.0125435 0)
(-1.46139 -0.0127834 0)
(-1.45532 -0.0130241 0)
(-1.44923 -0.0132641 0)
(-1.44314 -0.0135047 0)
(-1.43703 -0.0137476 0)
(-1.43093 -0.0139942 0)
(-1.42483 -0.0142454 0)
(-1.41875 -0.0145015 0)
(-1.41269 -0.0147626 0)
(-1.40667 -0.0150284 0)
(-1.4007 -0.0152993 0)
(-1.3948 -0.0155765 0)
(-1.38898 -0.0158612 0)
(-1.38326 -0.0161544 0)
(-1.37766 -0.0164584 0)
(-1.37219 -0.0167745 0)
(-1.36687 -0.0171052 0)
(-1.36173 -0.0174532 0)
(-1.35678 -0.0178212 0)
(-1.35204 -0.0182136 0)
(-1.34753 -0.0186356 0)
(-1.34325 -0.0190934 0)
(-1.33922 -0.019595 0)
(-1.33544 -0.0201496 0)
(-1.3319 -0.020769 0)
(-1.3286 -0.0214692 0)
(-1.32551 -0.0222685 0)
(-1.32261 -0.0231867 0)
(-1.31987 -0.0242465 0)
(-1.31724 -0.0254714 0)
(-1.31469 -0.0268785 0)
(-1.31218 -0.0284701 0)
(-1.30967 -0.030219 0)
(-1.30717 -0.0320438 0)
(-1.30475 -0.033767 0)
(-1.30256 -0.0350419 0)
(-1.30086 -0.0352414 0)
(-1.30001 -0.0333142 0)
(-1.30055 -0.027748 0)
(-1.30393 -0.0169504 0)
(-1.31248 0.00135332 0)
(-1.32939 0.0257477 0)
(-1.36852 0.069215 0)
(-1.4444 0.14944 0)
(-1.58802 0.311335 0)
(-1.85878 0.719283 0)
(-1.84138 -0.00167158 0)
(-1.83779 -0.00397819 0)
(-1.83822 -0.0053089 0)
(-1.8369 -0.00608742 0)
(-1.83532 -0.00657859 0)
(-1.83358 -0.00691218 0)
(-1.8317 -0.00715208 0)
(-1.82976 -0.00733931 0)
(-1.82774 -0.00749443 0)
(-1.82569 -0.00763212 0)
(-1.82357 -0.00775905 0)
(-1.82144 -0.00788074 0)
(-1.81925 -0.00799935 0)
(-1.81705 -0.00811709 0)
(-1.8148 -0.00823474 0)
(-1.81255 -0.00835331 0)
(-1.81025 -0.00847328 0)
(-1.80794 -0.00859489 0)
(-1.80559 -0.00871827 0)
(-1.80323 -0.00884353 0)
(-1.80084 -0.00897129 0)
(-1.79844 -0.00910176 0)
(-1.796 -0.00923342 0)
(-1.79357 -0.00936518 0)
(-1.79111 -0.00949629 0)
(-1.78863 -0.00962636 0)
(-1.78613 -0.00975711 0)
(-1.78362 -0.00988921 0)
(-1.7811 -0.0100233 0)
(-1.77858 -0.0101595 0)
(-1.77604 -0.0102982 0)
(-1.77351 -0.0104396 0)
(-1.77098 -0.0105839 0)
(-1.76845 -0.0107312 0)
(-1.76593 -0.0108818 0)
(-1.76342 -0.0110355 0)
(-1.76093 -0.0111929 0)
(-1.75846 -0.011354 0)
(-1.75602 -0.0115188 0)
(-1.75361 -0.0116875 0)
(-1.75124 -0.0118604 0)
(-1.74892 -0.0120375 0)
(-1.74664 -0.0122188 0)
(-1.74443 -0.0124045 0)
(-1.74229 -0.0125947 0)
(-1.74024 -0.0127891 0)
(-1.73827 -0.0129877 0)
(-1.73641 -0.0131902 0)
(-1.73467 -0.0133955 0)
(-1.73306 -0.0136022 0)
(-1.7316 -0.0138096 0)
(-1.7303 -0.0140188 0)
(-1.72913 -0.0142256 0)
(-1.7281 -0.0144275 0)
(-1.72721 -0.014628 0)
(-1.72647 -0.0148276 0)
(-1.72589 -0.0150248 0)
(-1.72549 -0.0152188 0)
(-1.72528 -0.01541 0)
(-1.72527 -0.0155994 0)
(-1.72547 -0.0157873 0)
(-1.72591 -0.0159741 0)
(-1.72659 -0.0161593 0)
(-1.72754 -0.0163418 0)
(-1.72876 -0.0165219 0)
(-1.73029 -0.0167002 0)
(-1.73212 -0.0168779 0)
(-1.73429 -0.017056 0)
(-1.73679 -0.0172366 0)
(-1.73965 -0.0174217 0)
(-1.74288 -0.0176141 0)
(-1.74648 -0.0178176 0)
(-1.75046 -0.0180363 0)
(-1.75482 -0.018276 0)
(-1.75954 -0.018544 0)
(-1.76463 -0.0188491 0)
(-1.77005 -0.0192025 0)
(-1.77578 -0.0196169 0)
(-1.78178 -0.0201068 0)
(-1.78802 -0.0206929 0)
(-1.79445 -0.0213977 0)
(-1.801 -0.0222434 0)
(-1.80762 -0.0232545 0)
(-1.81427 -0.0244541 0)
(-1.82087 -0.0258583 0)
(-1.8274 -0.0274641 0)
(-1.83384 -0.0292326 0)
(-1.8402 -0.0310621 0)
(-1.84654 -0.0327459 0)
(-1.85295 -0.0339015 0)
(-1.85953 -0.0338755 0)
(-1.86633 -0.0316284 0)
(-1.87333 -0.0255997 0)
(-1.88098 -0.0138247 0)
(-1.89008 0.00550942 0)
(-1.90075 0.0357008 0)
(-1.92309 0.0887553 0)
(-1.96408 0.185506 0)
(-2.03309 0.375115 0)
(-2.13377 0.777916 0)
(-1.97993 -0.0022714 0)
(-1.97675 -0.00464601 0)
(-1.97829 -0.00608643 0)
(-1.97818 -0.00696176 0)
(-1.97801 -0.0075198 0)
(-1.97772 -0.00789364 0)
(-1.97741 -0.00815806 0)
(-1.97705 -0.00835891 0)
(-1.97669 -0.00852128 0)
(-1.97632 -0.00866151 0)
(-1.97596 -0.00878806 0)
(-1.97561 -0.00890694 0)
(-1.97527 -0.00902102 0)
(-1.97496 -0.00913259 0)
(-1.97467 -0.00924272 0)
(-1.97442 -0.00935234 0)
(-1.97419 -0.00946208 0)
(-1.974 -0.0095722 0)
(-1.97385 -0.00968242 0)
(-1.97376 -0.00979272 0)
(-1.97372 -0.0099041 0)
(-1.97374 -0.0100153 0)
(-1.97382 -0.0101266 0)
(-1.97399 -0.01024 0)
(-1.9742 -0.0103534 0)
(-1.97449 -0.0104652 0)
(-1.97483 -0.0105764 0)
(-1.97524 -0.0106875 0)
(-1.97571 -0.010799 0)
(-1.97626 -0.0109109 0)
(-1.97688 -0.0110236 0)
(-1.97759 -0.0111371 0)
(-1.97838 -0.0112515 0)
(-1.97927 -0.0113669 0)
(-1.98025 -0.0114833 0)
(-1.98133 -0.0116006 0)
(-1.98253 -0.0117187 0)
(-1.98383 -0.0118378 0)
(-1.98526 -0.0119578 0)
(-1.98682 -0.0120789 0)
(-1.98851 -0.0122007 0)
(-1.99034 -0.0123233 0)
(-1.99231 -0.0124466 0)
(-1.99444 -0.0125704 0)
(-1.99673 -0.0126946 0)
(-1.99918 -0.0128188 0)
(-2.00181 -0.0129429 0)
(-2.00461 -0.0130662 0)
(-2.0076 -0.0131879 0)
(-2.01077 -0.0133064 0)
(-2.01413 -0.0134226 0)
(-2.01769 -0.0135402 0)
(-2.02144 -0.0136565 0)
(-2.02539 -0.0137675 0)
(-2.02955 -0.0138738 0)
(-2.03392 -0.0139752 0)
(-2.0385 -0.0140706 0)
(-2.0433 -0.0141595 0)
(-2.04832 -0.014242 0)
(-2.05355 -0.0143186 0)
(-2.05901 -0.01439 0)
(-2.06469 -0.0144573 0)
(-2.07058 -0.01452 0)
(-2.07668 -0.0145769 0)
(-2.083 -0.0146282 0)
(-2.08952 -0.014675 0)
(-2.09624 -0.0147192 0)
(-2.10315 -0.0147624 0)
(-2.11024 -0.0148071 0)
(-2.11751 -0.0148562 0)
(-2.12493 -0.0149133 0)
(-2.13252 -0.014983 0)
(-2.14024 -0.015071 0)
(-2.14809 -0.0151842 0)
(-2.15605 -0.0153315 0)
(-2.16412 -0.0155234 0)
(-2.17228 -0.0157731 0)
(-2.18051 -0.016096 0)
(-2.1888 -0.0165066 0)
(-2.19715 -0.0170284 0)
(-2.20552 -0.0176868 0)
(-2.21392 -0.0185037 0)
(-2.22233 -0.0195029 0)
(-2.23074 -0.0207059 0)
(-2.23914 -0.0221247 0)
(-2.24755 -0.0237508 0)
(-2.25598 -0.0255359 0)
(-2.26444 -0.0273669 0)
(-2.27295 -0.0290271 0)
(-2.28152 -0.0301345 0)
(-2.29007 -0.0300624 0)
(-2.29836 -0.0278579 0)
(-2.30586 -0.0220615 0)
(-2.31255 -0.0107904 0)
(-2.31783 0.00812933 0)
(-2.32019 0.0400326 0)
(-2.32453 0.0965239 0)
(-2.33034 0.198844 0)
(-2.32816 0.392367 0)
(-2.31043 0.744191 0)
(-2.1267 -0.00260655 0)
(-2.12456 -0.00482493 0)
(-2.12723 -0.0062199 0)
(-2.12864 -0.00709243 0)
(-2.13017 -0.00765217 0)
(-2.13172 -0.00802018 0)
(-2.13333 -0.008274 0)
(-2.13498 -0.00845845 0)
(-2.13667 -0.00860141 0)
(-2.13842 -0.00871852 0)
(-2.14023 -0.00881995 0)
(-2.1421 -0.008911 0)
(-2.14403 -0.00899552 0)
(-2.14604 -0.00907523 0)
(-2.14811 -0.00915175 0)
(-2.15027 -0.00922549 0)
(-2.15249 -0.00929732 0)
(-2.15482 -0.00936784 0)
(-2.15723 -0.0094359 0)
(-2.15973 -0.00950088 0)
(-2.16233 -0.00956503 0)
(-2.16504 -0.00962728 0)
(-2.16784 -0.00968796 0)
(-2.17076 -0.0097502 0)
(-2.17377 -0.00981327 0)
(-2.17691 -0.00987466 0)
(-2.18015 -0.00993438 0)
(-2.18351 -0.00999253 0)
(-2.18698 -0.0100495 0)
(-2.19058 -0.0101053 0)
(-2.1943 -0.0101602 0)
(-2.19815 -0.0102142 0)
(-2.20212 -0.0102675 0)
(-2.20622 -0.0103201 0)
(-2.21045 -0.0103721 0)
(-2.21481 -0.0104234 0)
(-2.2193 -0.010474 0)
(-2.22393 -0.0105238 0)
(-2.22869 -0.0105731 0)
(-2.23359 -0.0106219 0)
(-2.23861 -0.0106701 0)
(-2.24378 -0.0107178 0)
(-2.24907 -0.010765 0)
(-2.25449 -0.0108116 0)
(-2.26003 -0.0108577 0)
(-2.2657 -0.010903 0)
(-2.27149 -0.0109475 0)
(-2.2774 -0.0109909 0)
(-2.28343 -0.0110327 0)
(-2.28956 -0.0110722 0)
(-2.2958 -0.0111102 0)
(-2.30214 -0.0111483 0)
(-2.30857 -0.011185 0)
(-2.3151 -0.011218 0)
(-2.32172 -0.0112468 0)
(-2.32841 -0.0112709 0)
(-2.33518 -0.0112898 0)
(-2.34202 -0.0113031 0)
(-2.34892 -0.0113111 0)
(-2.35588 -0.0113142 0)
(-2.36289 -0.0113136 0)
(-2.36996 -0.0113113 0)
(-2.37706 -0.0113068 0)
(-2.3842 -0.011298 0)
(-2.39138 -0.0112851 0)
(-2.39859 -0.0112698 0)
(-2.40584 -0.011254 0)
(-2.41312 -0.0112398 0)
(-2.42042 -0.0112295 0)
(-2.42776 -0.0112263 0)
(-2.43513 -0.0112338 0)
(-2.44253 -0.0112565 0)
(-2.44996 -0.0113001 0)
(-2.45744 -0.0113717 0)
(-2.46494 -0.01148 0)
(-2.4725 -0.0116356 0)
(-2.48009 -0.0118517 0)
(-2.48773 -0.0121444 0)
(-2.49541 -0.0125268 0)
(-2.50317 -0.0130202 0)
(-2.51099 -0.0136502 0)
(-2.51891 -0.0144392 0)
(-2.52692 -0.0154104 0)
(-2.53505 -0.0165831 0)
(-2.5433 -0.0179677 0)
(-2.55169 -0.0195539 0)
(-2.56023 -0.0212912 0)
(-2.56894 -0.023067 0)
(-2.57778 -0.0246748 0)
(-2.58669 -0.0257621 0)
(-2.59545 -0.025769 0)
(-2.60364 -0.0238675 0)
(-2.61036 -0.0188546 0)
(-2.61525 -0.00898761 0)
(-2.61664 0.00832961 0)
(-2.61112 0.0387566 0)
(-2.59932 0.0929854 0)
(-2.57359 0.190956 0)
(-2.51192 0.368533 0)
(-2.41568 0.652293 0)
(-2.27739 -0.00257455 0)
(-2.27645 -0.00443018 0)
(-2.28018 -0.00562935 0)
(-2.28308 -0.00639501 0)
(-2.28617 -0.00688493 0)
(-2.28946 -0.00719936 0)
(-2.29283 -0.00740739 0)
(-2.29633 -0.00754905 0)
(-2.29987 -0.00765046 0)
(-2.30354 -0.00772586 0)
(-2.30724 -0.00778523 0)
(-2.31105 -0.00783326 0)
(-2.3149 -0.007874 0)
(-2.31886 -0.00790883 0)
(-2.32287 -0.00793967 0)
(-2.32698 -0.0079667 0)
(-2.33114 -0.00799086 0)
(-2.3354 -0.00801315 0)
(-2.33971 -0.00803226 0)
(-2.34413 -0.00804622 0)
(-2.3486 -0.00805707 0)
(-2.35318 -0.00806484 0)
(-2.35783 -0.00807059 0)
(-2.36259 -0.00807617 0)
(-2.36743 -0.00808147 0)
(-2.37237 -0.00808505 0)
(-2.3774 -0.00808696 0)
(-2.38253 -0.00808707 0)
(-2.38773 -0.00808593 0)
(-2.39304 -0.00808339 0)
(-2.39842 -0.00808005 0)
(-2.4039 -0.00807592 0)
(-2.40946 -0.00807166 0)
(-2.4151 -0.008067 0)
(-2.42081 -0.0080626 0)
(-2.4266 -0.00805825 0)
(-2.43245 -0.00805433 0)
(-2.43838 -0.00805061 0)
(-2.44435 -0.00804767 0)
(-2.45039 -0.00804561 0)
(-2.45648 -0.00804467 0)
(-2.46261 -0.00804483 0)
(-2.46878 -0.00804625 0)
(-2.47499 -0.00804892 0)
(-2.48123 -0.00805316 0)
(-2.4875 -0.00805853 0)
(-2.49378 -0.00806514 0)
(-2.50009 -0.00807293 0)
(-2.5064 -0.00808139 0)
(-2.51273 -0.00808992 0)
(-2.51906 -0.00809922 0)
(-2.52539 -0.00810977 0)
(-2.53172 -0.00812057 0)
(-2.53804 -0.00813 0)
(-2.54436 -0.00813743 0)
(-2.55067 -0.00814206 0)
(-2.55697 -0.00814312 0)
(-2.56327 -0.00814017 0)
(-2.56955 -0.00813307 0)
(-2.57582 -0.00812181 0)
(-2.58209 -0.00810732 0)
(-2.58835 -0.00809253 0)
(-2.59461 -0.00807713 0)
(-2.60087 -0.00805646 0)
(-2.60713 -0.00803045 0)
(-2.6134 -0.00800078 0)
(-2.61969 -0.00796958 0)
(-2.626 -0.0079386 0)
(-2.63234 -0.00790995 0)
(-2.63872 -0.00788634 0)
(-2.64514 -0.00787119 0)
(-2.65162 -0.0078686 0)
(-2.65815 -0.00788399 0)
(-2.66476 -0.00792429 0)
(-2.67145 -0.00799812 0)
(-2.67823 -0.00811581 0)
(-2.68512 -0.00828998 0)
(-2.69212 -0.00853545 0)
(-2.69924 -0.00886848 0)
(-2.70654 -0.00930834 0)
(-2.71396 -0.00987681 0)
(-2.72154 -0.010597 0)
(-2.7293 -0.0114914 0)
(-2.73727 -0.0125776 0)
(-2.74546 -0.0138657 0)
(-2.75391 -0.0153485 0)
(-2.7626 -0.0169786 0)
(-2.77154 -0.0186514 0)
(-2.78066 -0.0201858 0)
(-2.78983 -0.0212785 0)
(-2.79871 -0.0214624 0)
(-2.80674 -0.0200602 0)
(-2.81283 -0.0161892 0)
(-2.81604 -0.00832067 0)
(-2.81433 0.00620825 0)
(-2.8019 0.0325444 0)
(-2.77613 0.0796354 0)
(-2.72369 0.164528 0)
(-2.61603 0.31239 0)
(-2.47013 0.525314 0)
(-2.41181 -0.00219297 0)
(-2.41172 -0.00353042 0)
(-2.41605 -0.00443692 0)
(-2.41985 -0.00502286 0)
(-2.42381 -0.00539476 0)
(-2.42813 -0.00562708 0)
(-2.43244 -0.00577263 0)
(-2.43698 -0.0058635 0)
(-2.44147 -0.00592021 0)
(-2.44613 -0.00595471 0)
(-2.45074 -0.005975 0)
(-2.45549 -0.00598522 0)
(-2.4602 -0.00598868 0)
(-2.46503 -0.00598677 0)
(-2.46983 -0.00598116 0)
(-2.47474 -0.00597211 0)
(-2.47962 -0.00596051 0)
(-2.48461 -0.00594626 0)
(-2.48957 -0.00592948 0)
(-2.49465 -0.00590913 0)
(-2.49971 -0.00588542 0)
(-2.50484 -0.00585817 0)
(-2.50995 -0.00582931 0)
(-2.51514 -0.00580001 0)
(-2.5203 -0.00577078 0)
(-2.52554 -0.00574089 0)
(-2.53075 -0.00571068 0)
(-2.53602 -0.00567978 0)
(-2.54126 -0.00564908 0)
(-2.54656 -0.00561809 0)
(-2.55182 -0.00558784 0)
(-2.55713 -0.00555804 0)
(-2.56241 -0.00552998 0)
(-2.56772 -0.00550288 0)
(-2.573 -0.00547802 0)
(-2.57831 -0.00545477 0)
(-2.58358 -0.00543374 0)
(-2.58887 -0.00541468 0)
(-2.59414 -0.00539827 0)
(-2.59941 -0.00538444 0)
(-2.60465 -0.00537338 0)
(-2.60989 -0.00536502 0)
(-2.61511 -0.00535943 0)
(-2.62033 -0.00535648 0)
(-2.62553 -0.00535644 0)
(-2.63072 -0.00535874 0)
(-2.6359 -0.00536324 0)
(-2.64107 -0.00536989 0)
(-2.64623 -0.00537821 0)
(-2.65139 -0.00538741 0)
(-2.65653 -0.00539773 0)
(-2.66169 -0.00540913 0)
(-2.66683 -0.00542066 0)
(-2.67199 -0.00543083 0)
(-2.67715 -0.00543884 0)
(-2.68233 -0.00544367 0)
(-2.68751 -0.00544435 0)
(-2.69272 -0.00544012 0)
(-2.69795 -0.00543054 0)
(-2.70321 -0.00541519 0)
(-2.7085 -0.00539392 0)
(-2.71383 -0.0053714 0)
(-2.71919 -0.00534955 0)
(-2.7246 -0.00531786 0)
(-2.73006 -0.00527666 0)
(-2.73558 -0.00522866 0)
(-2.74117 -0.00517583 0)
(-2.74683 -0.00511972 0)
(-2.75258 -0.00506214 0)
(-2.75841 -0.00500544 0)
(-2.76434 -0.0049527 0)
(-2.77039 -0.00490776 0)
(-2.77654 -0.00487583 0)
(-2.78283 -0.00486344 0)
(-2.78926 -0.00487891 0)
(-2.79584 -0.0049323 0)
(-2.80259 -0.00503523 0)
(-2.80951 -0.00520111 0)
(-2.81662 -0.00544984 0)
(-2.82396 -0.00580187 0)
(-2.8315 -0.00627521 0)
(-2.83928 -0.00689082 0)
(-2.84731 -0.00766961 0)
(-2.85563 -0.0086273 0)
(-2.86425 -0.00977487 0)
(-2.87318 -0.0111131 0)
(-2.88242 -0.0126029 0)
(-2.89194 -0.0141521 0)
(-2.90163 -0.0156172 0)
(-2.91129 -0.016759 0)
(-2.92053 -0.017218 0)
(-2.92864 -0.0164937 0)
(-2.93446 -0.0139816 0)
(-2.93632 -0.00858033 0)
(-2.93247 0.00203396 0)
(-2.91455 0.0221643 0)
(-2.87773 0.0581259 0)
(-2.80464 0.122978 0)
(-2.66448 0.23263 0)
(-2.48901 0.378346 0)
(-2.51103 -0.00150714 0)
(-2.51167 -0.00232334 0)
(-2.51601 -0.00290333 0)
(-2.52009 -0.00328015 0)
(-2.52424 -0.00351911 0)
(-2.52883 -0.00366727 0)
(-2.53329 -0.00375751 0)
(-2.53804 -0.0038107 0)
(-2.5426 -0.00384001 0)
(-2.54737 -0.00385348 0)
(-2.55194 -0.00385639 0)
(-2.55669 -0.00385167 0)
(-2.56125 -0.00384149 0)
(-2.56596 -0.00382708 0)
(-2.57049 -0.00380955 0)
(-2.57515 -0.00378926 0)
(-2.57965 -0.00376674 0)
(-2.58427 -0.0037409 0)
(-2.58874 -0.00371302 0)
(-2.59331 -0.00368492 0)
(-2.59774 -0.00365622 0)
(-2.60224 -0.00362579 0)
(-2.60661 -0.00359486 0)
(-2.61105 -0.00356404 0)
(-2.61535 -0.00353387 0)
(-2.61972 -0.00350402 0)
(-2.62396 -0.00347488 0)
(-2.62825 -0.003446 0)
(-2.63244 -0.0034182 0)
(-2.63666 -0.00339078 0)
(-2.64079 -0.00336474 0)
(-2.64495 -0.00333964 0)
(-2.64902 -0.00331686 0)
(-2.65312 -0.00329547 0)
(-2.65715 -0.00327671 0)
(-2.6612 -0.00325986 0)
(-2.66519 -0.00324538 0)
(-2.6692 -0.00323296 0)
(-2.67316 -0.00322303 0)
(-2.67713 -0.00321557 0)
(-2.68108 -0.00321073 0)
(-2.68503 -0.00320804 0)
(-2.68896 -0.00320766 0)
(-2.69291 -0.00320923 0)
(-2.69685 -0.00321293 0)
(-2.7008 -0.00321827 0)
(-2.70475 -0.00322486 0)
(-2.70873 -0.0032324 0)
(-2.71271 -0.00324034 0)
(-2.71672 -0.00324833 0)
(-2.72075 -0.00325607 0)
(-2.72481 -0.00326302 0)
(-2.72889 -0.00326834 0)
(-2.73302 -0.00327083 0)
(-2.73719 -0.00326948 0)
(-2.7414 -0.00326327 0)
(-2.74566 -0.00325116 0)
(-2.74997 -0.00323225 0)
(-2.75434 -0.00320578 0)
(-2.75877 -0.00317155 0)
(-2.76327 -0.00312739 0)
(-2.76785 -0.00307902 0)
(-2.7725 -0.0030371 0)
(-2.77722 -0.00297837 0)
(-2.78204 -0.00290473 0)
(-2.78695 -0.00282133 0)
(-2.79196 -0.00273015 0)
(-2.79709 -0.00263237 0)
(-2.80233 -0.0025294 0)
(-2.80769 -0.00242322 0)
(-2.81319 -0.00231661 0)
(-2.81884 -0.00221307 0)
(-2.82464 -0.0021175 0)
(-2.8306 -0.00203602 0)
(-2.83674 -0.00197644 0)
(-2.84307 -0.00194833 0)
(-2.8496 -0.0019628 0)
(-2.85636 -0.00203317 0)
(-2.86335 -0.00217862 0)
(-2.8706 -0.00241884 0)
(-2.87814 -0.00277134 0)
(-2.88598 -0.00325563 0)
(-2.89416 -0.00389154 0)
(-2.9027 -0.00469321 0)
(-2.91163 -0.00567106 0)
(-2.92097 -0.00684055 0)
(-2.93069 -0.00817847 0)
(-2.94076 -0.00960098 0)
(-2.95105 -0.0110155 0)
(-2.96134 -0.0122579 0)
(-2.97118 -0.0130818 0)
(-2.97982 -0.013181 0)
(-2.98607 -0.0121831 0)
(-2.9879 -0.00953572 0)
(-2.98303 -0.00361004 0)
(-2.96383 0.00850915 0)
(-2.92006 0.0304769 0)
(-2.83443 0.0702799 0)
(-2.67507 0.136616 0)
(-2.48466 0.220321 0)
(-2.55436 -0.000601772 0)
(-2.55518 -0.000985848 0)
(-2.55933 -0.00123871 0)
(-2.56331 -0.00140637 0)
(-2.5673 -0.00151987 0)
(-2.57175 -0.00159743 0)
(-2.576 -0.00165122 0)
(-2.58054 -0.00168847 0)
(-2.58482 -0.00171458 0)
(-2.58931 -0.00173228 0)
(-2.59352 -0.00174417 0)
(-2.5979 -0.00175122 0)
(-2.60201 -0.00175437 0)
(-2.60628 -0.00175443 0)
(-2.61028 -0.00175186 0)
(-2.61442 -0.00174694 0)
(-2.61832 -0.00173971 0)
(-2.62233 -0.00172956 0)
(-2.62613 -0.00171764 0)
(-2.63002 -0.00170619 0)
(-2.63371 -0.00169493 0)
(-2.6375 -0.00168292 -1.97826e-41)
(-2.6411 -0.00167034 0)
(-2.64478 -0.00165756 0)
(-2.6483 -0.00164476 0)
(-2.65189 -0.00163195 0)
(-2.65534 -0.00161918 0)
(-2.65885 -0.00160646 0)
(-2.66224 -0.00159375 0)
(-2.66568 -0.00158098 0)
(-2.66901 -0.00156834 0)
(-2.6724 -0.00155612 0)
(-2.6757 -0.00154468 0)
(-2.67903 -0.00153413 0)
(-2.68231 -0.00152463 0)
(-2.68561 -0.00151621 0)
(-2.68887 -0.00150892 0)
(-2.69215 -0.00150254 0)
(-2.69541 -0.00149721 0)
(-2.69868 -0.00149291 0)
(-2.70194 -0.00149002 0)
(-2.70523 -0.00148775 0)
(-2.7085 -0.00148636 0)
(-2.71181 -0.00148536 0)
(-2.71511 -0.00148486 0)
(-2.71845 -0.00148458 0)
(-2.7218 -0.00148402 0)
(-2.72518 -0.00148263 0)
(-2.72858 -0.00147979 0)
(-2.73202 -0.00147562 0)
(-2.7355 -0.00146964 0)
(-2.73901 -0.0014609 0)
(-2.74256 -0.00144856 0)
(-2.74616 -0.00143174 0)
(-2.74981 -0.00140935 0)
(-2.75352 -0.00138028 0)
(-2.75727 -0.00134361 0)
(-2.76109 -0.00129828 0)
(-2.76497 -0.00124319 0)
(-2.76893 -0.00117809 0)
(-2.77295 -0.00110139 0)
(-2.77706 -0.00100988 0)
(-2.78124 -0.000942457 0)
(-2.7855 -0.000845961 0)
(-2.78985 -0.000728208 0)
(-2.79431 -0.000598857 0)
(-2.79887 -0.000459487 0)
(-2.80355 -0.00031066 0)
(-2.80834 -0.000153282 0)
(-2.81327 1.10136e-05 0)
(-2.81833 0.000179792 0)
(-2.82353 0.000350005 0)
(-2.8289 0.000517211 0)
(-2.83443 0.000675749 0)
(-2.84015 0.000818436 0)
(-2.84606 0.000936353 0)
(-2.85219 0.00101891 0)
(-2.85854 0.00105293 0)
(-2.86514 0.00102166 0)
(-2.87201 0.000907421 0)
(-2.87918 0.000692736 0)
(-2.88667 0.000358626 0)
(-2.8945 -0.00011409 -1.34112e-42)
(-2.9027 -0.000740463 0)
(-2.91131 -0.00153089 0)
(-2.92033 -0.00250863 0)
(-2.92967 -0.00368412 0)
(-2.93939 -0.00497192 -5.84446e-41)
(-2.94934 -0.00634145 0)
(-2.95925 -0.00771076 0)
(-2.96868 -0.00894582 0)
(-2.97691 -0.00992269 0)
(-2.98271 -0.010549 0)
(-2.98418 -0.0107101 -6.29482e-41)
(-2.978 -0.00979073 0)
(-2.95846 -0.00676367 0)
(-2.91282 -0.000509666 -5.9911e-42)
(-2.82278 0.0112995 0)
(-2.65672 0.031284 0)
(-2.46158 0.0565417 0)
(-2.5261 0.000356884 0)
(-2.52666 0.00040954 0)
(-2.53086 0.000490174 0)
(-2.53487 0.000532924 0)
(-2.53891 0.000543121 0)
(-2.54345 0.000532367 0)
(-2.5478 0.000509781 0)
(-2.55248 0.000481871 0)
(-2.55691 0.000451676 0)
(-2.56157 0.000421634 0)
(-2.56598 0.000392373 0)
(-2.57057 0.000364673 0)
(-2.57492 0.000339065 0)
(-2.57941 0.000315201 0)
(-2.58368 0.000293401 0)
(-2.58807 0.000273495 0)
(-2.59225 0.000255978 0)
(-2.59654 0.000240808 0)
(-2.60063 0.000227437 0)
(-2.6048 0.000214499 0)
(-2.6088 0.000202394 0)
(-2.61287 0.000191397 2.24986e-42)
(-2.61678 0.000181783 0)
(-2.62075 0.000173129 0)
(-2.62457 0.000165601 0)
(-2.62845 0.000158939 0)
(-2.63219 0.000153413 0)
(-2.63599 0.000148566 0)
(-2.63965 0.000145192 0)
(-2.64336 0.000142863 0)
(-2.64696 0.000142086 0)
(-2.6506 0.000141805 0)
(-2.65414 0.000142597 0)
(-2.65771 0.000143376 0)
(-2.66121 0.000144941 0)
(-2.66473 0.000146517 0)
(-2.66819 0.000148498 0)
(-2.67166 0.000150813 0)
(-2.6751 0.000153601 0)
(-2.67854 0.000156865 0)
(-2.68196 0.000160586 0)
(-2.68539 0.00016488 0)
(-2.6888 0.000169971 0)
(-2.69222 0.000176086 0)
(-2.69564 0.000183426 0)
(-2.69908 0.000192198 0)
(-2.70252 0.000202916 0)
(-2.70597 0.000216128 0)
(-2.70944 0.000232339 0)
(-2.71293 0.000251622 0)
(-2.71645 0.000274464 0)
(-2.71999 0.000301822 0)
(-2.72356 0.00033455 0)
(-2.72717 0.000373478 0)
(-2.73082 0.000419669 0)
(-2.73451 0.000474447 0)
(-2.73824 0.000538377 0)
(-2.74202 0.000612761 0)
(-2.74585 0.000699212 0)
(-2.74974 0.00079793 0)
(-2.75368 0.000909269 0)
(-2.75769 0.0010379 0)
(-2.76176 0.00114612 0)
(-2.76593 0.00128568 0)
(-2.77017 0.00144901 0)
(-2.77449 0.00162674 0)
(-2.77891 0.00181756 0)
(-2.78341 0.00202123 0)
(-2.78802 0.00223724 0)
(-2.79274 0.00246428 0)
(-2.79758 0.00270027 0)
(-2.80255 0.00294275 0)
(-2.80765 0.00318783 0)
(-2.8129 0.0034304 0)
(-2.81832 0.00366398 0)
(-2.82391 0.00388043 0)
(-2.82969 0.0040698 0)
(-2.83567 0.00421979 0)
(-2.84188 0.00431548 0)
(-2.84834 0.00434081 0)
(-2.85506 0.00427897 0)
(-2.86208 0.00411147 0)
(-2.86942 0.00381933 4.4896e-41)
(-2.87709 0.00338469 0)
(-2.88513 0.00279188 0)
(-2.89352 0.0020207 0)
(-2.9022 0.00104249 0)
(-2.91117 -9.82633e-05 -1.15508e-42)
(-2.92025 -0.00141959 0)
(-2.92912 -0.00291198 0)
(-2.93722 -0.0045351 0)
(-2.94406 -0.00634086 0)
(-2.94838 -0.00854095 0)
(-2.94824 -0.0114188 -6.71136e-41)
(-2.94036 -0.0153726 0)
(-2.91873 -0.0212108 0)
(-2.87239 -0.0307606 -3.61589e-40)
(-2.78197 -0.0470487 0)
(-2.61725 -0.0731878 0)
(-2.42356 -0.10419 0)
(-2.44205 0.00118761 0)
(-2.44173 0.00181046 0)
(-2.44598 0.00224524 0)
(-2.44981 0.00251337 0)
(-2.45377 0.00266297 0)
(-2.45822 0.00273567 0)
(-2.4626 0.00276264 0)
(-2.46729 0.00276228 0)
(-2.47186 0.00274705 0)
(-2.47665 0.00272301 0)
(-2.48132 0.0026951 0)
(-2.48616 0.00266481 0)
(-2.49089 0.00263423 0)
(-2.49575 0.00260349 0)
(-2.50052 0.00257358 0)
(-2.5054 0.00254441 0)
(-2.51019 0.00251674 0)
(-2.51507 0.00249033 0)
(-2.51986 0.00246504 0)
(-2.52474 0.00243995 0)
(-2.52953 0.00241552 0)
(-2.53439 0.00239173 0)
(-2.53916 0.00236902 0)
(-2.544 0.00234698 0)
(-2.54875 0.00232593 0)
(-2.55355 0.00230557 0)
(-2.55827 0.00228622 0)
(-2.56303 0.00226744 0)
(-2.56771 0.00225018 0)
(-2.57241 0.00223434 0)
(-2.57704 0.00222051 0)
(-2.58169 0.00220764 0)
(-2.58627 0.0021962 0)
(-2.59086 0.00218527 0)
(-2.59539 0.0021757 0)
(-2.59991 0.00216681 0)
(-2.60438 0.0021592 0)
(-2.60885 0.00215263 0)
(-2.61326 0.00214745 0)
(-2.61767 0.0021436 0)
(-2.62203 0.00214168 0)
(-2.62638 0.00214106 0)
(-2.63069 0.00214265 0)
(-2.63499 0.00214633 0)
(-2.63926 0.00215276 0)
(-2.64352 0.00216215 0)
(-2.64775 0.00217508 0)
(-2.65197 0.00219206 0)
(-2.65618 0.00221359 0)
(-2.66039 0.00224005 0)
(-2.66458 0.00227202 0)
(-2.66878 0.00231034 0)
(-2.67298 0.00235575 0)
(-2.67719 0.00240923 0)
(-2.6814 0.00247207 0)
(-2.68563 0.00254557 0)
(-2.68988 0.00263035 0)
(-2.69415 0.00272758 0)
(-2.69845 0.00283903 0)
(-2.70278 0.00296456 0)
(-2.70714 0.00310464 0)
(-2.71154 0.00325629 0)
(-2.71598 0.00341076 0)
(-2.72048 0.00358959 0)
(-2.72503 0.00379134 0)
(-2.72963 0.00401141 0)
(-2.73431 0.00424863 0)
(-2.73905 0.0045027 0)
(-2.74387 0.00477335 0)
(-2.74877 0.00505967 0)
(-2.75377 0.00535996 0)
(-2.75887 0.00567235 0)
(-2.76409 0.0059936 0)
(-2.76943 0.00631916 0)
(-2.77492 0.00664328 0)
(-2.78056 0.0069586 0)
(-2.78638 0.00725596 0)
(-2.79238 0.00752404 0)
(-2.7986 0.00774934 0)
(-2.80506 0.00791701 0)
(-2.81178 0.00801099 0)
(-2.81878 0.00801334 0)
(-2.8261 0.00790338 0)
(-2.83375 0.00766241 0)
(-2.84177 0.00727034 0)
(-2.85016 0.0067025 0)
(-2.85891 0.0059291 0)
(-2.86796 0.00492714 0)
(-2.87715 0.00363727 0)
(-2.88621 0.0020043 0)
(-2.89456 -3.34534e-05 0)