/*--------------------------------*- C++ -*----------------------------------*\
| =========                 |                                                 |
| \\      /  F ield         | OpenFOAM: The Open Source CFD Toolbox           |
|  \\    /   O peration     | Version:  2.1.0                                 |
|   \\  /    A nd           | Web:      www.OpenFOAM.org                      |
|    \\/     M anipulation  |                                                 |
\*---------------------------------------------------------------------------*/
FoamFile
{
    version     2.0;
    format      ascii;
    class       volScalarField;
    location    "0.36";
    object      k;
}
// * * * * * * * * * * * * * * * * * * * * * * * * * * * * * * * * * * * * * //

dimensions      [0 2 -2 0 0 0 0];

internalField   nonuniform List<scalar> 
6400
(
0.0327814
0.0328314
0.0328383
0.0328393
0.0328217
0.0328136
0.0327877
0.0327752
0.0327448
0.032729
0.032696
0.0326761
0.0326415
0.0326171
0.0325812
0.0325522
0.0325149
0.0324816
0.0324427
0.0324056
0.0323651
0.0323247
0.0322825
0.0322394
0.0321957
0.0321501
0.0321045
0.0320565
0.0320086
0.0319582
0.031908
0.031855
0.031802
0.0317461
0.0316899
0.0316308
0.0315709
0.0315079
0.0314434
0.031375
0.0313043
0.031229
0.0311501
0.0310658
0.0309765
0.0308805
0.0307781
0.0306677
0.0305493
0.0304217
0.0302846
0.0301373
0.029978
0.0298029
0.0296125
0.0294046
0.0291935
0.0289673
0.0287353
0.0284904
0.0282383
0.0279755
0.0277037
0.0274218
0.0271289
0.0268253
0.0265097
0.0261822
0.0258378
0.0254793
0.0251028
0.0247095
0.0242963
0.0238646
0.0234122
0.0229408
0.0224499
0.0219419
0.0214179
0.0208812
0.0203333
0.0197749
0.0191998
0.018585
0.0179217
0.0172314
0.0164871
0.01567
0.0147441
0.0136599
0.0123428
0.0106837
0.00859477
0.00610926
0.00345278
0.00235948
0.00274891
0.00552595
0.00876239
0.00991661
0.0523512
0.0526717
0.0528194
0.0530887
0.0532555
0.0535219
0.0537069
0.0539668
0.0541686
0.0544228
0.0546388
0.054889
0.0551163
0.0553641
0.0555999
0.0558464
0.0560884
0.0563345
0.0565809
0.0568275
0.0570774
0.0573257
0.0575793
0.0578311
0.0580902
0.0583477
0.058613
0.0588775
0.0591496
0.0594217
0.0597009
0.0599808
0.0602676
0.0605556
0.0608504
0.061147
0.0614502
0.0617561
0.0620692
0.0623845
0.0627046
0.0630263
0.0633513
0.0636764
0.0640024
0.0643261
0.0646474
0.0649628
0.0652717
0.065571
0.0658602
0.0661387
0.0664129
0.0666663
0.0669046
0.0671137
0.0673286
0.0675208
0.0677058
0.0678666
0.0680134
0.0681442
0.0682557
0.0683522
0.068425
0.0684764
0.0685002
0.0685069
0.0684731
0.0684001
0.0682808
0.06811
0.0678778
0.0675782
0.0672003
0.0667373
0.0661787
0.065518
0.0647467
0.0638602
0.0628543
0.0617294
0.0604902
0.0591275
0.0575934
0.0558388
0.053833
0.0515184
0.0488298
0.0456974
0.0420602
0.0378807
0.033218
0.0283481
0.0233693
0.0186293
0.014973
0.0124013
0.0107848
0.00922063
0.0581213
0.0585895
0.058804
0.0591936
0.0594608
0.0598363
0.0601357
0.0605022
0.0608243
0.0611864
0.0615256
0.0618867
0.0622388
0.0626009
0.0629628
0.063327
0.0636957
0.0640619
0.0644348
0.0648019
0.0651769
0.0655451
0.0659215
0.0662914
0.0666708
0.0670461
0.0674297
0.0678101
0.0681979
0.068583
0.0689744
0.0693636
0.0697581
0.0701504
0.070547
0.0709413
0.0713385
0.0717324
0.0721267
0.0725177
0.0729083
0.0732943
0.0736778
0.0740541
0.074425
0.0747848
0.0751343
0.0754665
0.0757801
0.0760665
0.076322
0.0765319
0.0767366
0.0769105
0.0770693
0.0772016
0.0773147
0.0774008
0.0774663
0.077501
0.077515
0.0775031
0.0774361
0.0773421
0.0771953
0.0770102
0.0767703
0.0764832
0.0761361
0.0757312
0.0752567
0.0747099
0.0740791
0.0733577
0.0725335
0.071597
0.0705358
0.0693399
0.0679978
0.0665008
0.0648405
0.0630111
0.0610077
0.0588266
0.0564775
0.0539742
0.0513077
0.0484831
0.0454781
0.0422806
0.0388493
0.0351519
0.0311655
0.0268863
0.0224319
0.0180816
0.0144222
0.0114615
0.00927919
0.00710592
0.0623
0.0628127
0.0630478
0.063493
0.0638055
0.0642331
0.0645874
0.0650034
0.0653832
0.0657936
0.0661904
0.0665991
0.0670076
0.0674171
0.0678339
0.0682455
0.0686679
0.0690818
0.0695075
0.069923
0.0703482
0.0707594
0.0711759
0.0715747
0.0719763
0.0723722
0.072771
0.0731622
0.0735549
0.0739389
0.0743226
0.0746965
0.0750679
0.075428
0.0757833
0.0761256
0.0764604
0.0767814
0.0770918
0.0773839
0.0776642
0.0779227
0.0781663
0.0783845
0.078584
0.0787542
0.0789013
0.0790153
0.0791008
0.0791431
0.0791595
0.079153
0.0790898
0.0789994
0.0788573
0.0786746
0.0784378
0.0781491
0.0777992
0.0773855
0.076903
0.076351
0.0757213
0.0750147
0.0742216
0.0733436
0.0723724
0.0713103
0.0701509
0.068897
0.0675452
0.0660984
0.0645566
0.0629234
0.0612002
0.0593915
0.0574998
0.0555298
0.0534846
0.0513684
0.0491841
0.046935
0.044624
0.0422537
0.0398284
0.0373494
0.0348227
0.0322695
0.0296867
0.0270902
0.0244836
0.0218803
0.0192878
0.0167239
0.014222
0.01186
0.00969261
0.00785519
0.00658547
0.00599
0.0632645
0.0637409
0.0639549
0.0643753
0.0646586
0.0650601
0.0653797
0.0657634
0.066102
0.0664714
0.0668191
0.0671768
0.0675268
0.067874
0.0682213
0.0685577
0.0688979
0.069222
0.0695506
0.06986
0.0701734
0.070468
0.0707622
0.0710385
0.071313
0.0715708
0.0718233
0.0720578
0.0722833
0.0724889
0.0726821
0.0728528
0.0730078
0.0731371
0.073247
0.0733278
0.073379
0.0734013
0.0734058
0.0733618
0.0732916
0.073174
0.0730246
0.0728241
0.0725863
0.0722938
0.0719587
0.0715658
0.0711253
0.0706251
0.070074
0.0694611
0.0687917
0.0680617
0.0672709
0.0664227
0.0655129
0.0645441
0.0635138
0.0624242
0.0612743
0.0600666
0.0588009
0.0574804
0.0561053
0.0546796
0.0532044
0.0516836
0.0501192
0.0485153
0.0468746
0.0452008
0.0434982
0.04177
0.0400268
0.0382675
0.0365019
0.0347293
0.0329604
0.0311945
0.0294434
0.0277077
0.0259998
0.0243207
0.0226825
0.0210857
0.019542
0.0180341
0.0165825
0.0151727
0.0138208
0.012514
0.0112686
0.0100771
0.00896226
0.00793556
0.00702834
0.00639753
0.00612471
0.00612187
0.0594165
0.0596801
0.0598
0.0600494
0.0602143
0.0604479
0.060628
0.0608386
0.0610181
0.0612038
0.061373
0.0615329
0.061685
0.0618178
0.0619472
0.0620506
0.0621521
0.0622232
0.0622918
0.0623271
0.0623485
0.0623542
0.0623379
0.0622937
0.0622306
0.0621374
0.0620279
0.0618887
0.061729
0.0615375
0.0613221
0.0610724
0.0607958
0.0604823
0.0601395
0.0597575
0.0593441
0.0588906
0.0584035
0.0578735
0.0573103
0.0567031
0.0560625
0.0553776
0.0546597
0.0538978
0.0531041
0.052268
0.0514013
0.0504949
0.0495592
0.0485872
0.0475879
0.0465565
0.0455003
0.0444162
0.0433104
0.0421816
0.0410366
0.0398762
0.0387044
0.0375227
0.0363347
0.0351426
0.0339495
0.032758
0.0315712
0.0303915
0.0292223
0.0280659
0.0269257
0.0258038
0.0247035
0.0236261
0.0225703
0.0215402
0.020537
0.0195629
0.0186211
0.0177115
0.0168348
0.015987
0.0151731
0.0143877
0.0136353
0.0129093
0.0122136
0.0115409
0.0108948
0.0102663
0.00965924
0.00906473
0.0084884
0.00792561
0.00739213
0.00689672
0.00653534
0.00637806
0.00635186
0.0065691
0.0497975
0.0497041
0.0496684
0.049617
0.049584
0.0495224
0.0494734
0.0493886
0.0493146
0.0492008
0.0490966
0.0489507
0.0488132
0.0486332
0.0484601
0.0482445
0.0480343
0.0477822
0.0475339
0.0472453
0.0469589
0.0466317
0.0463
0.0459313
0.0455545
0.0451429
0.0447209
0.0442663
0.0437986
0.0433005
0.0427878
0.0422463
0.0416899
0.0411062
0.0405081
0.0398843
0.0392474
0.0385868
0.0379146
0.0372211
0.036519
0.0357997
0.0350747
0.0343355
0.0335938
0.0328411
0.0320892
0.0313299
0.0305747
0.0298158
0.0290642
0.0283126
0.0275712
0.0268336
0.0261088
0.0253884
0.0246827
0.0239855
0.0233037
0.0226314
0.0219758
0.0213319
0.0207058
0.0200927
0.0194975
0.0189166
0.0183544
0.0178046
0.0172721
0.0167515
0.0162468
0.0157531
0.0152733
0.014803
0.0143445
0.0138936
0.0134518
0.0130154
0.0125846
0.0121576
0.0117491
0.0113488
0.0109649
0.0105878
0.0102252
0.00986801
0.0095236
0.00918402
0.00885699
0.00853626
0.00823115
0.0079383
0.00766981
0.0074265
0.00723043
0.00710204
0.00704924
0.00709395
0.00743391
0.0076256
0.0366363
0.036242
0.0360772
0.0357705
0.0355812
0.0352734
0.0350539
0.0347342
0.0344829
0.034146
0.0338632
0.0335063
0.0331928
0.0328143
0.032471
0.0320701
0.0316978
0.0312739
0.0308736
0.0304266
0.0299986
0.0295359
0.029092
0.0286179
0.0281619
0.027681
0.0272121
0.0267213
0.0262435
0.0257477
0.0252664
0.0247706
0.0242909
0.0237999
0.0233267
0.0228449
0.0223828
0.0219146
0.0214676
0.0210169
0.0205879
0.0201562
0.0197469
0.0193368
0.0189494
0.0185631
0.0181996
0.0178385
0.0174998
0.0171648
0.0168507
0.0165419
0.0162538
0.0159718
0.0157096
0.0154539
0.0152172
0.0149868
0.0147736
0.0145668
0.0143759
0.0141911
0.014021
0.0138568
0.0137061
0.0135605
0.0134259
0.0132984
0.0131812
0.0130703
0.0129682
0.0128713
0.012782
0.0126965
0.012617
0.0125401
0.0124676
0.0123961
0.0123271
0.0122573
0.0121875
0.0121123
0.0120335
0.0119454
0.0118494
0.0117398
0.0116177
0.011478
0.0113229
0.0111495
0.0109629
0.0107653
0.0105679
0.0103805
0.0102464
0.0101878
0.0101804
0.0104223
0.0107831
0.0109599
0.0239058
0.0233631
0.0231396
0.0227182
0.02248
0.022072
0.0218182
0.0214194
0.0211525
0.0207611
0.0204842
0.0200995
0.0198159
0.0194383
0.0191509
0.0187814
0.0184931
0.0181332
0.0178467
0.0174981
0.0172165
0.0168838
0.0166133
0.0162982
0.0160407
0.0157446
0.0155019
0.0152262
0.0150001
0.0147461
0.0145382
0.0143069
0.0141182
0.0139104
0.0137416
0.0135577
0.0134091
0.0132493
0.0131212
0.0129854
0.0128781
0.0127656
0.0126792
0.0125898
0.0125244
0.0124575
0.0124131
0.0123687
0.0123453
0.0123281
0.0123221
0.0123217
0.0123407
0.0123619
0.0124015
0.0124438
0.0125037
0.0125673
0.0126484
0.0127342
0.0128367
0.012945
0.0130693
0.0132004
0.0133469
0.0135012
0.0136706
0.0138482
0.0140405
0.0142419
0.014458
0.0146841
0.0149249
0.0151767
0.0154433
0.0157215
0.0160145
0.0163195
0.016639
0.0169702
0.0173148
0.0176698
0.0180356
0.0184087
0.0187881
0.0191692
0.0195487
0.0199206
0.0202809
0.0206225
0.0209417
0.0212345
0.0215017
0.0217475
0.0219864
0.0222632
0.0227117
0.0233106
0.0241364
0.0250286
0.0175089
0.0169675
0.0167488
0.0163332
0.0161167
0.0157217
0.015509
0.0151365
0.0149298
0.0145807
0.0143824
0.0140575
0.0138697
0.0135697
0.0133943
0.0131196
0.0129581
0.012709
0.0125627
0.0123393
0.0122092
0.0120112
0.011898
0.0117248
0.0116286
0.0114797
0.0114007
0.0112755
0.0112131
0.011113
0.0110641
0.0109899
0.0109541
0.0109051
0.0108822
0.010859
0.0108496
0.0108461
0.0108523
0.0108685
0.0108945
0.0109276
0.0109721
0.0110226
0.0110854
0.0111535
0.0112344
0.0113204
0.0114195
0.0115239
0.0116411
0.0117645
0.0119006
0.0120432
0.0121988
0.0123612
0.0125371
0.0127204
0.0129174
0.0131227
0.0133421
0.0135708
0.0138143
0.0140684
0.0143381
0.0146197
0.0149178
0.0152294
0.0155589
0.0159036
0.0162676
0.0166491
0.0170519
0.0174747
0.0179212
0.0183907
0.0188869
0.0194098
0.019963
0.0205474
0.0211668
0.0218228
0.0225197
0.0232602
0.0240493
0.0248907
0.0257907
0.0267557
0.0277932
0.0289121
0.0301231
0.0314384
0.0328728
0.0344436
0.0361689
0.03806
0.040112
0.0423031
0.0438285
0.0444508
0.0213127
0.0207264
0.0204851
0.0200236
0.0197722
0.0193275
0.0190687
0.0186415
0.0183791
0.0179704
0.0177079
0.0173189
0.0170592
0.0166915
0.0164387
0.0160931
0.0158506
0.0155282
0.0152987
0.0150001
0.0147858
0.0145116
0.0143142
0.0140649
0.0138855
0.0136612
0.0135008
0.0133014
0.0131606
0.0129861
0.012865
0.0127154
0.012614
0.0124891
0.0124073
0.0123067
0.0122443
0.0121679
0.0121252
0.012074
0.0120491
0.0120267
0.0120179
0.0120156
0.0120271
0.0120477
0.0120805
0.0121217
0.0121754
0.0122373
0.012312
0.0123947
0.0124904
0.0125944
0.0127116
0.0128373
0.012976
0.0131236
0.0132845
0.0134547
0.0136382
0.0138319
0.0140394
0.0142578
0.0144908
0.0147355
0.0149957
0.0152687
0.0155579
0.0158614
0.0161821
0.0165187
0.0168739
0.0172469
0.0176403
0.0180539
0.0184901
0.0189493
0.0194341
0.0199452
0.0204855
0.0210564
0.0216611
0.0223016
0.0229815
0.0237038
0.0244728
0.025292
0.0261661
0.0271003
0.0281007
0.029182
0.0303523
0.0316306
0.0330372
0.0346013
0.0363586
0.0382845
0.0398405
0.0405252
0.0323323
0.0317747
0.0315386
0.0310869
0.030817
0.0303688
0.030066
0.0296159
0.0292841
0.0288307
0.028475
0.0280192
0.0276377
0.0271743
0.026774
0.0263045
0.0258908
0.0254186
0.0249968
0.0245252
0.0241001
0.023633
0.0232089
0.0227497
0.0223309
0.0218831
0.0214735
0.0210403
0.0206434
0.0202278
0.019847
0.0194516
0.0190896
0.0187168
0.018376
0.0180271
0.0177087
0.0173847
0.0170905
0.0167931
0.0165241
0.0162542
0.016011
0.0157702
0.0155543
0.0153427
0.0151543
0.0149717
0.0148105
0.0146564
0.0145222
0.014396
0.0142885
0.0141897
0.0141088
0.0140368
0.013981
0.0139341
0.0139025
0.0138833
0.0138751
0.0138736
0.0138894
0.0139127
0.0139503
0.0139959
0.0140545
0.0141208
0.014199
0.0142838
0.0143783
0.0144787
0.014587
0.0147001
0.0148193
0.0149417
0.0150681
0.015196
0.0153255
0.0154544
0.0155825
0.0157076
0.0158292
0.0159457
0.0160562
0.0161597
0.0162553
0.0163433
0.0164224
0.0164951
0.0165615
0.0166176
0.0166727
0.0167439
0.0168504
0.0170352
0.0173542
0.0178853
0.0186185
0.0196651
0.0453968
0.0450665
0.0449269
0.0446596
0.0444888
0.0442106
0.0440014
0.0437004
0.043451
0.0431221
0.0428325
0.0424731
0.0421445
0.0417534
0.0413858
0.0409628
0.0405571
0.040102
0.0396595
0.0391729
0.0386953
0.0381784
0.037668
0.0371227
0.036582
0.0360106
0.0354428
0.0348486
0.0342575
0.0336443
0.0330344
0.0324064
0.0317827
0.031145
0.0305129
0.0298713
0.0292372
0.0285921
0.0279557
0.0273135
0.0266823
0.02605
0.0254312
0.0248151
0.0242147
0.0236203
0.0230434
0.0224754
0.0219263
0.0213875
0.0208674
0.020359
0.0198694
0.0193922
0.0189331
0.0184865
0.018058
0.0176416
0.0172416
0.0168565
0.016487
0.0161315
0.0157911
0.0154621
0.0151466
0.0148408
0.014547
0.01426
0.013982
0.0137123
0.0134523
0.0131985
0.0129529
0.012712
0.0124775
0.0122463
0.0120201
0.0117959
0.0115754
0.0113563
0.01114
0.0109249
0.0107125
0.0105021
0.010295
0.0100916
0.00989087
0.00969467
0.00950334
0.00932078
0.00914776
0.00899172
0.00885322
0.0087412
0.00868568
0.00866789
0.00877981
0.0090394
0.0094436
0.00962257
0.0567925
0.0568032
0.0568177
0.0568399
0.056854
0.0568594
0.0568602
0.0568337
0.0568053
0.0567424
0.0566786
0.0565752
0.0564777
0.0563384
0.0562025
0.0560243
0.0558461
0.0556256
0.0554015
0.0551354
0.0548623
0.0545476
0.0542226
0.0538578
0.0534787
0.0530604
0.0526252
0.0521524
0.0516602
0.0511316
0.0505818
0.0499967
0.0493896
0.0487486
0.0480853
0.0473899
0.0466729
0.0459257
0.0451576
0.0443615
0.0435461
0.0427054
0.0418475
0.0409675
0.0400732
0.0391607
0.0382371
0.0372998
0.036355
0.0354023
0.0344474
0.0334898
0.0325346
0.0315818
0.0306362
0.0296984
0.0287724
0.0278593
0.0269627
0.0260823
0.0252209
0.0243741
0.0235477
0.0227397
0.0219544
0.0211901
0.0204499
0.0197335
0.0190425
0.0183733
0.017727
0.0171016
0.0164976
0.0159129
0.0153473
0.0147988
0.0142667
0.0137488
0.0132446
0.0127515
0.0122692
0.0117946
0.0113273
0.010865
0.0104066
0.00997148
0.00954614
0.00914746
0.00875915
0.00839813
0.00804973
0.00773193
0.00742999
0.00717082
0.00692634
0.00676886
0.00669842
0.00669697
0.00702841
0.00721716
0.0630865
0.0634151
0.0635625
0.0638548
0.0640511
0.0643233
0.0645371
0.0647848
0.0650002
0.0652241
0.0654318
0.0656328
0.065827
0.0660044
0.0661794
0.0663314
0.0664819
0.0666058
0.0667271
0.0668194
0.0669067
0.0669634
0.0670058
0.0670237
0.0670286
0.0670029
0.0669555
0.0668785
0.0667782
0.0666453
0.0664869
0.0662928
0.0660699
0.0658082
0.065514
0.065178
0.0648056
0.0643949
0.0639467
0.0634569
0.0629273
0.0623517
0.0617343
0.0610699
0.0603615
0.0596059
0.0588051
0.0579579
0.0570656
0.0561286
0.0551479
0.054125
0.0530613
0.0519588
0.0508191
0.049645
0.0484385
0.0472026
0.04594
0.0446536
0.0433483
0.0420294
0.0406986
0.039361
0.0380189
0.036677
0.0353379
0.0340057
0.032683
0.0313735
0.0300799
0.0288058
0.0275534
0.0263261
0.0251257
0.0239546
0.022814
0.021698
0.0206133
0.0195567
0.0185322
0.0175389
0.0165782
0.0156507
0.0147563
0.0138947
0.01306
0.012254
0.0114724
0.0107185
0.00998829
0.00928521
0.00860721
0.00796347
0.00736436
0.00681492
0.00640051
0.0062118
0.00617292
0.00635933
0.0642912
0.0647778
0.0649963
0.065417
0.0657034
0.0661034
0.0664252
0.0668076
0.0671483
0.0675177
0.0678677
0.0682273
0.0685805
0.0689318
0.0692835
0.0696265
0.0699731
0.0703071
0.0706452
0.0709684
0.0712949
0.071605
0.0719164
0.0722115
0.0725046
0.0727801
0.0730507
0.0733037
0.0735492
0.073777
0.0739972
0.0741972
0.0743862
0.074553
0.0747049
0.0748322
0.0749402
0.0750227
0.0750778
0.0751032
0.0751102
0.0750795
0.0750132
0.0749109
0.0747683
0.0745842
0.0743546
0.074078
0.0737504
0.0733702
0.0729336
0.0724393
0.0718839
0.0712679
0.0705873
0.0698407
0.0690294
0.0681498
0.0672042
0.0661896
0.0651089
0.0639627
0.0627535
0.0614811
0.0601485
0.0587572
0.0573096
0.0558091
0.0542576
0.0526599
0.0510174
0.0493361
0.0476167
0.0458659
0.0440836
0.0422773
0.0404463
0.0386078
0.0367523
0.0348948
0.0330273
0.0311641
0.0292985
0.027445
0.0255989
0.0237751
0.0219716
0.0202031
0.0184718
0.0167721
0.0151254
0.0135326
0.0120173
0.0105866
0.00928423
0.00808526
0.00708393
0.00635332
0.00603038
0.00600303
0.0616482
0.0621508
0.0623806
0.0628046
0.0631041
0.0635091
0.0638461
0.0642393
0.0645994
0.0649871
0.0653622
0.0657483
0.0661337
0.0665204
0.0669127
0.0673013
0.0676985
0.0680892
0.0684895
0.068882
0.0692838
0.0696773
0.0700787
0.0704713
0.0708694
0.0712578
0.0716482
0.0720263
0.0724002
0.0727555
0.0731197
0.0734724
0.0738285
0.0741759
0.0745245
0.0748664
0.0752085
0.075539
0.0758653
0.076181
0.0764897
0.0767844
0.0770693
0.0773393
0.0775952
0.0778339
0.0780541
0.0782541
0.0784313
0.0785845
0.0787108
0.0788081
0.0788668
0.0788928
0.0788977
0.0788483
0.0787674
0.0786351
0.0784587
0.078225
0.0779356
0.0775807
0.0771576
0.0766575
0.0760751
0.0754103
0.0746537
0.0738074
0.0728588
0.0718129
0.0706576
0.0694002
0.0680309
0.0665597
0.0649785
0.0632997
0.0615175
0.0596436
0.0576738
0.0556182
0.0534725
0.0512442
0.0489272
0.0465263
0.0440335
0.0414517
0.0387755
0.0360064
0.0331476
0.0302233
0.0272341
0.0242023
0.0211533
0.0181348
0.0152564
0.0125226
0.0101307
0.0080894
0.00662604
0.00592568
0.0564085
0.0568418
0.0570408
0.0573986
0.0576462
0.0579908
0.0582675
0.0586039
0.0589011
0.0592336
0.059546
0.0598779
0.0602021
0.0605358
0.0608695
0.0612064
0.0615477
0.0618884
0.0622359
0.0625806
0.0629327
0.0632808
0.0636361
0.0639868
0.0643436
0.0646954
0.0650522
0.0654041
0.0657603
0.0661139
0.0664756
0.0668352
0.0672023
0.0675681
0.0679396
0.0683093
0.0686823
0.0690565
0.0694336
0.0698117
0.0701919
0.0705724
0.0709543
0.0713356
0.0717169
0.0720964
0.0724742
0.0728498
0.0732228
0.0735903
0.0739495
0.0742979
0.0746301
0.0749427
0.0752254
0.0754637
0.0756842
0.075883
0.0760588
0.0762076
0.0763292
0.0764221
0.0764887
0.0765268
0.0765429
0.0765372
0.076461
0.0763569
0.0761847
0.0759681
0.0756801
0.0753347
0.0749015
0.0743935
0.0737796
0.0730654
0.0722206
0.0712445
0.0701083
0.0688071
0.0673154
0.0656281
0.0637248
0.0616034
0.0592496
0.0566683
0.0538484
0.0507992
0.0475194
0.0440144
0.0402462
0.0361966
0.0318545
0.0272456
0.0225332
0.0182277
0.0144565
0.0116283
0.00943707
0.00727214
0.0498454
0.0501355
0.0502688
0.0505097
0.0506601
0.0508992
0.0510659
0.0513
0.0514824
0.0517122
0.0519083
0.0521357
0.0523432
0.0525699
0.0527866
0.0530141
0.053238
0.0534668
0.0536962
0.0539268
0.05416
0.0543922
0.0546279
0.0548615
0.0550989
0.0553339
0.0555729
0.05581
0.056052
0.0562941
0.0565417
0.0567902
0.0570446
0.0573
0.0575611
0.0578236
0.0580919
0.058363
0.0586398
0.0589199
0.0592057
0.0594957
0.0597916
0.0600925
0.0603997
0.060713
0.0610335
0.061357
0.061684
0.0620119
0.0623399
0.0626661
0.0629888
0.0633063
0.0636171
0.0639236
0.0642328
0.0645406
0.0648465
0.0651457
0.0654323
0.065697
0.0659252
0.0661293
0.0663144
0.0664812
0.066626
0.0667537
0.0668506
0.0669162
0.0669447
0.0669497
0.0668833
0.0667675
0.0665702
0.0662963
0.0659175
0.0654318
0.0648129
0.0640552
0.0631346
0.0620442
0.0607635
0.0592869
0.0575998
0.0557058
0.053554
0.0511465
0.048335
0.0450739
0.0412948
0.0369412
0.0322189
0.0273388
0.0224769
0.0180588
0.0146121
0.0122376
0.0107443
0.00922499
0.0308734
0.0309064
0.030908
0.0308961
0.0308732
0.0308589
0.0308272
0.0308113
0.0307765
0.0307582
0.0307225
0.0307011
0.0306653
0.0306404
0.0306043
0.0305757
0.0305389
0.0305066
0.0304685
0.0304325
0.0303927
0.0303531
0.0303111
0.0302683
0.030224
0.0301782
0.0301318
0.0300836
0.0300353
0.0299853
0.0299352
0.0298832
0.029831
0.0297769
0.0297226
0.0296663
0.0296097
0.0295513
0.0294926
0.029432
0.0293708
0.0293079
0.0292441
0.0291785
0.0291114
0.0290421
0.0289703
0.0288948
0.0288158
0.0287322
0.0286439
0.0285503
0.0284512
0.0283464
0.0282362
0.0281211
0.0280005
0.0278719
0.0277337
0.0275826
0.0274152
0.0272272
0.0270138
0.0267854
0.0265469
0.0262955
0.0260351
0.0257614
0.0254754
0.0251748
0.0248604
0.0245296
0.0241746
0.0238022
0.0234015
0.0229779
0.0225224
0.0220387
0.02152
0.020969
0.0203813
0.0197593
0.0191001
0.018406
0.0176743
0.0169015
0.0160606
0.0151105
0.0140047
0.0127185
0.011158
0.00923929
0.00704968
0.0049435
0.00301839
0.00232234
0.00260744
0.00527826
0.00862337
0.00984769
0.00947194
0.00467549
0.00403032
0.00390114
0.00387279
0.00389689
0.00381775
0.00378069
0.00376597
0.00376302
0.00378491
0.00385608
0.00413297
0.0047148
0.00547183
0.00655033
0.0069195
0.00690153
0.00576672
0.00340596
0.00777586
0.00468044
0.00428922
0.0041899
0.00416606
0.00404597
0.0039668
0.00393207
0.00392014
0.00392223
0.00397515
0.00416287
0.00455649
0.0051393
0.00621684
0.00686701
0.00700343
0.00675946
0.00519544
0.00278648
0.00621306
0.00478463
0.00460497
0.0045412
0.00436897
0.00426787
0.00419987
0.00417265
0.00416455
0.00417718
0.00430459
0.00456596
0.00504919
0.00598858
0.00679481
0.00704881
0.00703858
0.00648022
0.00456774
0.00215589
0.00579526
0.00511623
0.00503455
0.00479466
0.0046373
0.00452182
0.00446431
0.00444006
0.00443773
0.00453907
0.00476431
0.00519548
0.00606074
0.00686619
0.00719277
0.00725315
0.00697839
0.00602888
0.003787
0.00155056
0.00591816
0.00548202
0.00534387
0.00505447
0.00493986
0.00486724
0.00484925
0.00488302
0.00500179
0.00528458
0.00568385
0.00650739
0.00718206
0.0074875
0.00757415
0.00739603
0.00678307
0.00540888
0.00294242
0.00102231
0.00628536
0.00593577
0.00580218
0.0056178
0.00558576
0.0055946
0.00572133
0.00595302
0.00637275
0.00689556
0.00751551
0.00799687
0.00820257
0.0082459
0.00796122
0.00732773
0.00637402
0.00459324
0.00190183
0.000565781
0.00721837
0.00709244
0.00707686
0.00710561
0.00738061
0.00770335
0.00825118
0.00894993
0.00962202
0.0098224
0.00988739
0.00974749
0.00942117
0.00884011
0.00802342
0.00708154
0.0056502
0.00348802
0.00115487
0.000251158
0.0108649
0.0113035
0.0118076
0.0124647
0.013421
0.0144067
0.0148865
0.0150367
0.0140094
0.0134121
0.0123237
0.0115347
0.0103138
0.00918242
0.00784959
0.00645325
0.00446628
0.00225908
0.000648678
9.12999e-05
0.0252798
0.0257582
0.0259602
0.0259588
0.0252654
0.0239019
0.0222463
0.0199748
0.0182358
0.0162889
0.0144906
0.0126788
0.0107438
0.00895195
0.0070965
0.00504932
0.0029858
0.00134051
0.000401991
4.30718e-05
0.0411956
0.0394149
0.0374455
0.0346537
0.0321174
0.0285311
0.0259013
0.0227326
0.0203443
0.0174649
0.0152057
0.0124737
0.0101421
0.00736466
0.00518652
0.00318101
0.00194454
0.000949238
0.000386296
7.28167e-05
0.0379922
0.0364543
0.0348643
0.0323867
0.0302273
0.026924
0.0245072
0.0216046
0.0194403
0.0167872
0.0147943
0.0122046
0.0102477
0.00746654
0.00542734
0.00316162
0.00187011
0.00080702
0.000297826
6.00533e-05
0.0200552
0.0209823
0.0214966
0.0217522
0.0218365
0.021125
0.01992
0.0180584
0.0167576
0.0149686
0.0137707
0.0119477
0.0106127
0.00879244
0.00721323
0.00516616
0.00296178
0.00117416
0.000298288
4.00731e-05
0.00946409
0.00966187
0.0100686
0.0105341
0.0113247
0.0122377
0.0130282
0.0133394
0.0131623
0.0122384
0.0117911
0.0108622
0.0100326
0.00897893
0.00782016
0.00649007
0.00456264
0.00224462
0.00057035
4.96416e-05
0.00684607
0.0066641
0.00660918
0.00658273
0.00675366
0.0069933
0.00741975
0.00801154
0.00879029
0.00916117
0.00933859
0.00940636
0.00914769
0.00870781
0.00794846
0.00707208
0.00567642
0.00353568
0.00107795
0.000130764
0.00610456
0.00576837
0.00563669
0.00543443
0.00538449
0.00537071
0.00545184
0.00562532
0.00598515
0.00643881
0.00712745
0.00772633
0.00801405
0.00809276
0.00792574
0.00731071
0.00639011
0.00465328
0.00191808
0.000439106
0.00578541
0.00538238
0.00525267
0.00496806
0.00485121
0.00476909
0.00474327
0.00475504
0.00485404
0.00509577
0.00547363
0.00624379
0.00702751
0.00738775
0.00749106
0.00738737
0.00679528
0.00545717
0.00300935
0.000938561
0.00568063
0.00502055
0.00494874
0.00474254
0.00458476
0.00447283
0.00440739
0.00437792
0.00436943
0.00445265
0.00466574
0.00506442
0.00588266
0.00677731
0.00715302
0.00722389
0.00698946
0.00607193
0.00386092
0.00151486
0.00617986
0.00473011
0.00453183
0.00446456
0.00432362
0.0042182
0.00415339
0.0041268
0.00411904
0.00412881
0.00424323
0.00449617
0.00495523
0.00585639
0.00674244
0.00703794
0.00704418
0.0065156
0.00464074
0.00215941
0.00780355
0.00465286
0.0042558
0.0041479
0.00411574
0.00402206
0.00393519
0.00389722
0.00388494
0.00388712
0.00393749
0.00411024
0.0044978
0.00507748
0.00613569
0.00684562
0.0070023
0.00678719
0.00525889
0.00281835
0.00947299
0.00465245
0.00399434
0.00386763
0.00383791
0.00385223
0.00379755
0.00375421
0.00373909
0.00373584
0.00375786
0.00382684
0.00407912
0.0046392
0.00541896
0.00652152
0.00691884
0.00692015
0.00582816
0.00345084
0.00397117
0.00375019
0.00374679
0.0037468
0.00374652
0.00374628
0.00374612
0.00374604
0.003746
0.00374598
0.00374598
0.003746
0.00374604
0.00374612
0.00374628
0.00374652
0.0037468
0.00374679
0.00375019
0.00397117
0.00441489
0.00375346
0.00374141
0.00374096
0.00374056
0.00374012
0.00373987
0.00373975
0.00373969
0.00373966
0.00373966
0.00373969
0.00373975
0.00373987
0.00374012
0.00374056
0.00374096
0.00374141
0.00375346
0.00441489
0.0048594
0.00376059
0.00373287
0.00373264
0.00373284
0.00373273
0.00373256
0.00373242
0.00373235
0.00373231
0.00373231
0.00373235
0.00373242
0.00373256
0.00373273
0.00373284
0.00373264
0.00373287
0.00376059
0.0048594
0.00530178
0.00377206
0.0037243
0.00372396
0.00372492
0.00372524
0.00372525
0.00372519
0.00372514
0.00372512
0.00372512
0.00372514
0.00372519
0.00372525
0.00372524
0.00372492
0.00372396
0.0037243
0.00377206
0.00530178
0.00573923
0.00378544
0.00371551
0.00371483
0.00371665
0.00371758
0.00371789
0.00371795
0.00371795
0.00371795
0.00371795
0.00371795
0.00371795
0.00371789
0.00371758
0.00371665
0.00371483
0.00371551
0.00378544
0.00573924
0.00617058
0.00379767
0.00370577
0.0037051
0.003708
0.00370969
0.00371043
0.0037107
0.00371078
0.0037108
0.0037108
0.00371078
0.0037107
0.00371043
0.00370969
0.003708
0.0037051
0.00370577
0.00379767
0.00617058
0.00659186
0.00380847
0.00369498
0.00369474
0.00369894
0.00370155
0.00370284
0.0037034
0.00370361
0.00370368
0.00370368
0.00370361
0.0037034
0.00370284
0.00370155
0.00369894
0.00369474
0.00369498
0.00380847
0.00659186
0.00700084
0.00381671
0.00368272
0.00368362
0.00368941
0.00369311
0.00369508
0.00369602
0.00369642
0.00369656
0.00369656
0.00369642
0.00369602
0.00369508
0.00369311
0.00368941
0.00368362
0.00368272
0.00381671
0.00700084
0.00739335
0.00382334
0.00366915
0.00367174
0.00367942
0.00368437
0.00368714
0.00368854
0.00368919
0.00368943
0.00368943
0.00368919
0.00368854
0.00368714
0.00368437
0.00367942
0.00367174
0.00366915
0.00382334
0.00739335
0.00776768
0.00382735
0.00365405
0.00365903
0.00366893
0.00367532
0.00367898
0.00368095
0.0036819
0.00368228
0.00368228
0.0036819
0.00368095
0.00367898
0.00367532
0.00366893
0.00365903
0.00365405
0.00382735
0.00776768
0.00812024
0.00383021
0.00363764
0.00364552
0.00365794
0.00366592
0.00367061
0.00367321
0.00367453
0.00367507
0.00367507
0.00367453
0.00367321
0.00367061
0.00366592
0.00365794
0.00364552
0.00363764
0.00383021
0.00812024
0.00845035
0.00383068
0.00361989
0.00363122
0.00364645
0.0036562
0.00366201
0.00366531
0.00366705
0.00366779
0.00366779
0.00366705
0.00366531
0.00366201
0.0036562
0.00364645
0.00363122
0.00361989
0.00383069
0.00845034
0.00875524
0.00383018
0.0036009
0.00361613
0.00363446
0.00364613
0.00365316
0.00365725
0.00365946
0.00366041
0.00366041
0.00365946
0.00365725
0.00365316
0.00364613
0.00363446
0.00361613
0.0036009
0.00383018
0.00875524
0.00903545
0.00382886
0.00358085
0.00360032
0.00362199
0.00363573
0.00364408
0.00364901
0.00365173
0.00365292
0.00365292
0.00365173
0.00364901
0.00364408
0.00363573
0.00362199
0.00360032
0.00358085
0.00382886
0.00903544
0.00928895
0.00382648
0.00355981
0.0035838
0.00360904
0.003625
0.00363475
0.00364059
0.00364385
0.00364531
0.00364531
0.00364385
0.00364059
0.00363475
0.003625
0.00360904
0.0035838
0.00355981
0.00382648
0.00928894
0.00951739
0.00382339
0.00353793
0.00356664
0.00359565
0.00361394
0.00362518
0.00363197
0.00363582
0.00363755
0.00363755
0.00363582
0.00363197
0.00362518
0.00361394
0.00359565
0.00356664
0.00353794
0.0038234
0.00951738
0.00971929
0.00382011
0.00351531
0.00354885
0.00358181
0.00360255
0.00361535
0.00362316
0.00362762
0.00362964
0.00362964
0.00362762
0.00362316
0.00361535
0.00360255
0.00358181
0.00354885
0.00351531
0.00382011
0.00971928
0.00989731
0.00381662
0.00349215
0.00353054
0.00356757
0.00359087
0.00360529
0.00361414
0.00361924
0.00362157
0.00362157
0.00361924
0.00361414
0.00360529
0.00359087
0.00356758
0.00353055
0.00349216
0.00381663
0.0098973
0.0100502
0.00381347
0.0034685
0.0035117
0.00355293
0.00357888
0.00359499
0.00360492
0.00361068
0.00361332
0.00361332
0.00361068
0.00360492
0.00359499
0.00357887
0.00355293
0.0035117
0.00346849
0.00381347
0.0100502
0.0101815
0.00381057
0.00344461
0.00349247
0.00353795
0.0035666
0.00358445
0.0035955
0.00360193
0.0036049
0.0036049
0.00360193
0.0035955
0.00358445
0.0035666
0.00353795
0.00349248
0.00344463
0.00381058
0.0101815
0.0102898
0.00380853
0.00342047
0.0034728
0.0035226
0.00355404
0.00357367
0.00358587
0.003593
0.0035963
0.0035963
0.003593
0.00358586
0.00357367
0.00355404
0.0035226
0.00347279
0.00342045
0.00380853
0.0102897
0.0103794
0.00380713
0.00339642
0.00345287
0.00350697
0.00354123
0.00356267
0.00357603
0.00358387
0.00358751
0.00358751
0.00358387
0.00357603
0.00356267
0.00354123
0.00350698
0.00345288
0.00339645
0.00380714
0.0103794
0.0104486
0.00380736
0.00337231
0.0034326
0.00349103
0.00352816
0.00355145
0.003566
0.00357455
0.00357853
0.00357853
0.00357455
0.003566
0.00355145
0.00352816
0.00349103