/*--------------------------------*- C++ -*----------------------------------*\
| =========                 |                                                 |
| \\      /  F ield         | OpenFOAM: The Open Source CFD Toolbox           |
|  \\    /   O peration     | Version:  2.1.0                                 |
|   \\  /    A nd           | Web:      www.OpenFOAM.org                      |
|    \\/     M anipulation  |                                                 |
\*---------------------------------------------------------------------------*/
FoamFile
{
    version     2.0;
    format      ascii;
    class       volScalarField;
    location    "0.36";
    object      nut;
}
// * * * * * * * * * * * * * * * * * * * * * * * * * * * * * * * * * * * * * //

dimensions      [0 2 -1 0 0 0 0];

internalField   nonuniform List<scalar> 
6400
(
7.11344e-06
7.13256e-06
7.14379e-06
7.15939e-06
7.173e-06
7.19022e-06
7.20456e-06
7.22275e-06
7.2377e-06
7.25659e-06
7.27227e-06
7.29151e-06
7.30809e-06
7.32756e-06
7.3451e-06
7.36483e-06
7.38334e-06
7.40343e-06
7.42296e-06
7.44357e-06
7.46415e-06
7.48547e-06
7.50718e-06
7.5294e-06
7.55229e-06
7.57556e-06
7.59968e-06
7.62412e-06
7.64951e-06
7.67524e-06
7.70198e-06
7.72909e-06
7.75725e-06
7.78584e-06
7.8155e-06
7.84564e-06
7.87686e-06
7.90861e-06
7.94139e-06
7.97465e-06
8.00882e-06
8.04342e-06
8.07878e-06
8.11448e-06
8.15072e-06
8.18715e-06
8.22389e-06
8.26064e-06
8.29746e-06
8.33411e-06
8.37061e-06
8.40668e-06
8.44196e-06
8.47536e-06
8.50699e-06
8.5361e-06
8.56699e-06
8.59605e-06
8.62612e-06
8.65506e-06
8.68474e-06
8.71411e-06
8.74382e-06
8.77356e-06
8.8032e-06
8.83291e-06
8.86242e-06
8.89189e-06
8.91975e-06
8.94709e-06
8.97272e-06
8.99719e-06
9.01962e-06
9.04067e-06
9.05982e-06
9.07805e-06
9.09555e-06
9.11393e-06
9.13444e-06
9.15963e-06
9.19173e-06
9.23327e-06
9.28399e-06
9.33575e-06
9.38691e-06
9.45231e-06
9.52197e-06
9.58814e-06
9.62786e-06
9.59758e-06
9.41055e-06
8.89992e-06
7.824e-06
5.98534e-06
3.4896e-06
2.31712e-06
2.4058e-06
3.78064e-06
3.87635e-06
4.18248e-06
7.57011e-05
7.61424e-05
7.62228e-05
7.6506e-05
7.65983e-05
7.68319e-05
7.69439e-05
7.71444e-05
7.72726e-05
7.74501e-05
7.75885e-05
7.77492e-05
7.78919e-05
7.80394e-05
7.81816e-05
7.83179e-05
7.84558e-05
7.8582e-05
7.87129e-05
7.88296e-05
7.89522e-05
7.906e-05
7.91738e-05
7.92738e-05
7.93797e-05
7.94729e-05
7.95702e-05
7.96561e-05
7.97439e-05
7.98212e-05
7.98986e-05
7.99658e-05
8.00312e-05
8.00865e-05
8.0138e-05
8.01789e-05
8.02141e-05
8.02376e-05
8.02568e-05
8.02642e-05
8.02624e-05
8.02472e-05
8.02195e-05
8.01755e-05
8.0115e-05
8.00339e-05
7.99315e-05
7.98033e-05
7.9648e-05
7.94618e-05
7.92435e-05
7.89922e-05
7.87185e-05
7.84014e-05
7.8013e-05
7.73502e-05
7.66645e-05
7.59269e-05
7.51575e-05
7.43383e-05
7.3482e-05
7.25874e-05
7.1651e-05
7.06789e-05
6.9662e-05
6.86038e-05
6.74987e-05
6.63579e-05
6.51598e-05
6.39075e-05
6.25966e-05
6.12252e-05
5.97882e-05
5.82844e-05
5.67098e-05
5.50644e-05
5.33463e-05
5.15578e-05
4.96999e-05
4.77775e-05
4.57955e-05
4.37625e-05
4.16891e-05
3.95758e-05
3.73991e-05
3.51389e-05
3.27919e-05
3.03433e-05
2.7782e-05
2.51049e-05
2.23268e-05
1.94857e-05
1.66638e-05
1.40076e-05
1.15021e-05
9.23296e-06
7.4909e-06
6.29088e-06
5.67742e-06
6.86652e-06
0.000115512
0.000115731
0.000115818
0.000115898
0.000115969
0.000116011
0.000116071
0.000116086
0.000116133
0.000116125
0.000116155
0.000116126
0.000116135
0.000116084
0.000116068
0.000115993
0.000115947
0.000115845
0.000115765
0.000115633
0.000115517
0.000115353
0.0001152
0.000115005
0.000114818
0.000114598
0.000114379
0.00011413
0.000113879
0.0001136
0.000113314
0.000113002
0.00011268
0.000112332
0.000111971
0.000111585
0.000111184
0.000110756
0.000110303
0.000109825
0.000109321
0.000108787
0.000108224
0.000107627
0.000106997
0.000106327
0.000105618
0.000104861
0.000104056
0.000103192
0.000102267
0.000100857
9.93767e-05
9.78452e-05
9.62865e-05
9.4693e-05
9.30704e-05
9.14126e-05
8.97295e-05
8.80125e-05
8.62753e-05
8.45146e-05
8.27016e-05
8.08704e-05
7.89973e-05
7.71012e-05
7.51697e-05
7.32145e-05
7.12278e-05
6.92166e-05
6.71749e-05
6.51058e-05
6.3005e-05
6.08731e-05
5.87069e-05
5.65061e-05
5.42689e-05
5.19961e-05
4.96881e-05
4.73479e-05
4.49793e-05
4.25888e-05
4.01839e-05
3.77739e-05
3.53776e-05
3.30153e-05
3.06955e-05
2.84347e-05
2.62357e-05
2.41063e-05
2.20212e-05
1.9998e-05
1.80134e-05
1.59782e-05
1.3939e-05
1.19298e-05
1.01343e-05
8.62193e-06
8.1235e-06
1.13146e-05
0.000137102
0.000136761
0.00013663
0.000136318
0.000136186
0.000135851
0.000135693
0.000135342
0.000135147
0.000134781
0.000134546
0.000134162
0.000133885
0.000133481
0.000133161
0.000132732
0.000132367
0.00013191
0.000131499
0.000131008
0.000130546
0.000130009
0.000129484
0.000128793
0.000127807
0.000126786
0.000125748
0.000124679
0.000123595
0.000122479
0.000121348
0.000120185
0.000119004
0.000117792
0.000116561
0.000115297
0.000114013
0.000112698
0.000111361
0.000109989
0.000108597
0.00010717
0.000105722
0.000104238
0.000102733
0.000101193
9.963e-05
9.80345e-05
9.64156e-05
9.47592e-05
9.30879e-05
9.14156e-05
8.96984e-05
8.79766e-05
8.62264e-05
8.44653e-05
8.26787e-05
8.08727e-05
7.90407e-05
7.71849e-05
7.53048e-05
7.34048e-05
7.14821e-05
6.95421e-05
6.75815e-05
6.56066e-05
6.36156e-05
6.16157e-05
5.96069e-05
5.75965e-05
5.55864e-05
5.3584e-05
5.15931e-05
4.96201e-05
4.76699e-05
4.57475e-05
4.38575e-05
4.20033e-05
4.01878e-05
3.84116e-05
3.6675e-05
3.49756e-05
3.3306e-05
3.16633e-05
3.00582e-05
2.8456e-05
2.68658e-05
2.52778e-05
2.36864e-05
2.20833e-05
2.04656e-05
1.88283e-05
1.71627e-05
1.54474e-05
1.3688e-05
1.19696e-05
1.05066e-05
9.77254e-06
1.1911e-05
1.20608e-05
0.000138279
0.000138275
0.000138018
0.000137825
0.00013707
0.000136447
0.000135548
0.000134742
0.000133792
0.000132887
0.000131908
0.000130937
0.000129929
0.000128905
0.000127864
0.000126793
0.000125714
0.000124596
0.000123475
0.000122312
0.000121144
0.000119939
0.000118724
0.000117475
0.000116226
0.000114942
0.00011365
0.00011233
0.000111
0.000109644
0.000108277
0.000106885
0.000105481
0.000104053
0.000102612
0.000101148
9.96638e-05
9.81622e-05
9.66616e-05
9.5124e-05
9.35825e-05
9.2013e-05
9.0439e-05
8.884e-05
8.72369e-05
8.56119e-05
8.39839e-05
8.23385e-05
8.06916e-05
7.90333e-05
7.73754e-05
7.5711e-05
7.40444e-05
7.23718e-05
7.06951e-05
6.90201e-05
6.73456e-05
6.56762e-05
6.40113e-05
6.23549e-05
6.07079e-05
5.9074e-05
5.74543e-05
5.58518e-05
5.42672e-05
5.27031e-05
5.11598e-05
4.9639e-05
4.81404e-05
4.66646e-05
4.52058e-05
4.37705e-05
4.23655e-05
4.09616e-05
3.95893e-05
3.82183e-05
3.68681e-05
3.55154e-05
3.41738e-05
3.28233e-05
3.14744e-05
3.01129e-05
2.87467e-05
2.73706e-05
2.59907e-05
2.46043e-05
2.32262e-05
2.18466e-05
2.04874e-05
1.91449e-05
1.78387e-05
1.65663e-05
1.53509e-05
1.41755e-05
1.30939e-05
1.22672e-05
1.20833e-05
1.37495e-05
1.37864e-05
1.41284e-05
0.000124829
0.000124133
0.000123734
0.000123173
0.000122275
0.000121368
0.00012031
0.000119257
0.000118139
0.000117015
0.00011587
0.000114703
0.000113537
0.000112341
0.000111157
0.000109938
0.000108736
0.000107498
0.000106279
0.000105027
0.000103775
0.000102522
0.000101261
9.998e-05
9.86998e-05
9.73958e-05
9.60946e-05
9.47736e-05
9.34523e-05
9.21128e-05
9.07719e-05
8.94141e-05
8.8055e-05
8.66804e-05
8.53056e-05
8.39171e-05
8.25301e-05
8.1133e-05
7.97381e-05
7.83344e-05
7.69374e-05
7.55336e-05
7.4139e-05
7.27405e-05
7.13538e-05
6.99657e-05
6.85918e-05
6.72192e-05
6.5862e-05
6.45088e-05
6.31705e-05
6.18374e-05
6.05195e-05
5.9209e-05
5.79125e-05
5.66268e-05
5.53549e-05
5.40987e-05
5.28561e-05
5.16236e-05
5.04052e-05
4.91964e-05
4.79995e-05
4.68108e-05
4.56312e-05
4.44585e-05
4.32925e-05
4.21324e-05
4.09778e-05
3.98282e-05
3.86839e-05
3.75477e-05
3.64184e-05
3.52965e-05
3.41817e-05
3.30736e-05
3.19768e-05
3.08882e-05
2.98195e-05
2.87608e-05
2.77231e-05
2.66997e-05
2.57002e-05
2.47182e-05
2.37627e-05
2.28261e-05
2.19132e-05
2.10221e-05
2.01687e-05
1.93495e-05
1.85848e-05
1.78786e-05
1.72627e-05
1.67703e-05
1.65314e-05
1.66353e-05
1.60617e-05
1.58182e-05
1.57931e-05
1.32071e-05
0.000109314
0.000108091
0.000107562
0.000106688
0.000105789
0.000104709
0.000103667
0.00010251
0.000101413
0.000100231
9.9113e-05
9.79237e-05
9.67964e-05
9.56074e-05
9.44765e-05
9.32915e-05
9.21605e-05
9.09825e-05
8.98547e-05
8.86904e-05
8.75659e-05
8.64073e-05
8.52887e-05
8.41418e-05
8.30261e-05
8.18897e-05
8.0782e-05
7.96583e-05
7.85585e-05
7.74468e-05
7.63556e-05
7.52553e-05
7.41733e-05
7.30841e-05
7.20117e-05
7.09333e-05
6.98704e-05
6.88024e-05
6.77474e-05
6.66856e-05
6.56442e-05
6.45978e-05
6.35641e-05
6.25284e-05
6.15052e-05
6.04798e-05
5.94666e-05
5.84511e-05
5.74477e-05
5.64427e-05
5.54489e-05
5.44548e-05
5.3473e-05
5.24936e-05
5.1529e-05
5.05613e-05
4.96071e-05
4.86553e-05
4.77161e-05
4.6781e-05
4.58603e-05
4.49478e-05
4.40528e-05
4.31687e-05
4.23017e-05
4.14496e-05
4.06218e-05
3.98104e-05
3.90243e-05
3.82574e-05
3.7517e-05
3.67948e-05
3.60967e-05
3.54173e-05
3.47605e-05
3.4121e-05
3.35005e-05
3.2892e-05
3.22542e-05
3.12872e-05
3.03406e-05
2.93964e-05
2.84733e-05
2.75539e-05
2.66567e-05
2.57646e-05
2.48967e-05
2.40372e-05
2.32068e-05
2.23925e-05
2.16176e-05
2.08731e-05
2.01818e-05
1.95467e-05
1.90031e-05
1.86018e-05
1.83406e-05
1.82387e-05
1.89325e-05
1.49383e-05
9.8939e-05
9.71372e-05
9.66e-05
9.55144e-05
9.4694e-05
9.3526e-05
9.26024e-05
9.14352e-05
9.0483e-05
8.93485e-05
8.83973e-05
8.73029e-05
8.63629e-05
8.53067e-05
8.43802e-05
8.33569e-05
8.24426e-05
8.14457e-05
8.05405e-05
7.95608e-05
7.83689e-05
7.70851e-05
7.58961e-05
7.46477e-05
7.34734e-05
7.22651e-05
7.11287e-05
6.99576e-05
6.88647e-05
6.77398e-05
6.66962e-05
6.56244e-05
6.46355e-05
6.36202e-05
6.2688e-05
6.17329e-05
6.08605e-05
5.99686e-05
5.91577e-05
5.83302e-05
5.75783e-05
5.68109e-05
5.61144e-05
5.54038e-05
5.47596e-05
5.41024e-05
5.35062e-05
5.28977e-05
5.23445e-05
5.1779e-05
5.1262e-05
5.07347e-05
5.0245e-05
4.9743e-05
4.92764e-05
4.87952e-05
4.83432e-05
4.78733e-05
4.74246e-05
4.69555e-05
4.65015e-05
4.60253e-05
4.55546e-05
4.50593e-05
4.45815e-05
4.40823e-05
4.35771e-05
4.30688e-05
4.25582e-05
4.20423e-05
4.15253e-05
4.10022e-05
4.04786e-05
3.99483e-05
3.94176e-05
3.88796e-05
3.8341e-05
3.77941e-05
3.7247e-05
3.6688e-05
3.61243e-05
3.55411e-05
3.49481e-05
3.43309e-05
3.36975e-05
3.30343e-05
3.23482e-05
3.16276e-05
3.08816e-05
3.01033e-05
2.93075e-05
2.84982e-05
2.77021e-05
2.69394e-05
2.63073e-05
2.58382e-05
2.54585e-05
2.56158e-05
2.61465e-05
2.05188e-05
8.18307e-05
7.97671e-05
7.89323e-05
7.73835e-05
7.65247e-05
7.50884e-05
7.42116e-05
7.28516e-05
7.19956e-05
7.07027e-05
6.98724e-05
6.8645e-05
6.78428e-05
6.66836e-05
6.59127e-05
6.48233e-05
6.4088e-05
6.30695e-05
6.23747e-05
6.14283e-05
6.0778e-05
5.99121e-05
5.93158e-05
5.85307e-05
5.79904e-05
5.72854e-05
5.68024e-05
5.61733e-05
5.57476e-05
5.51903e-05
5.48188e-05
5.43295e-05
5.40075e-05
5.35836e-05
5.33081e-05
5.29443e-05
5.27086e-05
5.23988e-05
5.21977e-05
5.19346e-05
5.17623e-05
5.15372e-05
5.1389e-05
5.11945e-05
5.10654e-05
5.08948e-05
5.07722e-05
5.06161e-05
5.05245e-05
5.03945e-05
5.02843e-05
5.01411e-05
5.00577e-05
4.99316e-05
4.9857e-05
4.97451e-05
4.96786e-05
4.95816e-05
4.95267e-05
4.9448e-05
4.9406e-05
4.93462e-05
4.93178e-05
4.92763e-05
4.92621e-05
4.92386e-05
4.92413e-05
4.9237e-05
4.92544e-05
4.92683e-05
4.9301e-05
4.93319e-05
4.93789e-05
4.94257e-05
4.94859e-05
4.95461e-05
4.96167e-05
4.96863e-05
4.97626e-05
4.9836e-05
4.99107e-05
4.99774e-05
5.00379e-05
5.00822e-05
5.01094e-05
5.01089e-05
5.00761e-05
4.99991e-05
4.98737e-05
4.96886e-05
4.94416e-05
4.91286e-05
4.87567e-05
4.8336e-05
4.78948e-05
4.75102e-05
4.73805e-05
4.74822e-05
4.80239e-05
3.97933e-05
7.39035e-05
7.20376e-05
7.12912e-05
6.98912e-05
6.91925e-05
6.78738e-05
6.72177e-05
6.59871e-05
6.53746e-05
6.42329e-05
6.36663e-05
6.2613e-05
6.20939e-05
6.11291e-05
6.06576e-05
5.978e-05
5.93563e-05
5.85635e-05
5.81874e-05
5.74762e-05
5.71467e-05
5.65133e-05
5.62282e-05
5.56674e-05
5.54237e-05
5.49299e-05
5.47241e-05
5.42933e-05
5.41188e-05
5.37552e-05
5.35942e-05
5.32921e-05
5.31435e-05
5.29133e-05
5.27744e-05
5.26035e-05
5.24707e-05
5.23365e-05
5.22186e-05
5.21195e-05
5.20356e-05
5.19556e-05
5.19004e-05
5.1843e-05
5.18148e-05
5.17808e-05
5.17772e-05
5.17676e-05
5.17881e-05
5.18014e-05
5.18439e-05
5.1882e-05
5.19504e-05
5.20143e-05
5.21087e-05
5.21991e-05
5.23198e-05
5.24376e-05
5.25842e-05
5.27293e-05
5.29021e-05
5.30753e-05
5.32756e-05
5.34787e-05
5.37078e-05
5.39418e-05
5.42007e-05
5.44664e-05
5.47562e-05
5.50549e-05
5.53771e-05
5.57104e-05
5.60671e-05
5.64374e-05
5.68313e-05
5.72413e-05
5.76758e-05
5.81291e-05
5.86082e-05
5.91093e-05
5.96383e-05
6.0193e-05
6.07785e-05
6.13942e-05
6.2045e-05
6.27315e-05
6.3459e-05
6.42313e-05
6.50534e-05
6.59308e-05
6.68702e-05
6.78783e-05
6.89632e-05
7.01332e-05
7.13939e-05
7.27397e-05
7.41487e-05
7.56141e-05
7.63366e-05
6.62134e-05
8.02701e-05
7.82082e-05
7.73914e-05
7.58202e-05
7.50238e-05
7.35437e-05
7.27703e-05
7.13856e-05
7.06405e-05
6.93543e-05
6.8643e-05
6.74569e-05
6.67829e-05
6.56982e-05
6.50712e-05
6.40814e-05
6.35067e-05
6.26083e-05
6.20886e-05
6.12778e-05
6.08136e-05
6.00865e-05
5.96764e-05
5.90282e-05
5.86699e-05
5.80953e-05
5.77852e-05
5.72786e-05
5.70124e-05
5.65678e-05
5.63399e-05
5.59524e-05
5.57569e-05
5.5421e-05
5.52517e-05
5.49619e-05
5.48131e-05
5.45638e-05
5.44223e-05
5.42126e-05
5.41013e-05
5.39302e-05
5.38115e-05
5.36635e-05
5.35616e-05
5.34486e-05
5.33682e-05
5.32787e-05
5.32198e-05
5.31538e-05
5.31167e-05
5.30748e-05
5.306e-05
5.30432e-05
5.30514e-05
5.30582e-05
5.30918e-05
5.31257e-05
5.31854e-05
5.32466e-05
5.33314e-05
5.34203e-05
5.35322e-05
5.36496e-05
5.37896e-05
5.39364e-05
5.4105e-05
5.42818e-05
5.44794e-05
5.46867e-05
5.49134e-05
5.51513e-05
5.54084e-05
5.5678e-05
5.59663e-05
5.62689e-05
5.6591e-05
5.69292e-05
5.7288e-05
5.76654e-05
5.80652e-05
5.84862e-05
5.8932e-05
5.94027e-05
5.99014e-05
6.04293e-05
6.09892e-05
6.15828e-05
6.22121e-05
6.28803e-05
6.35902e-05
6.43585e-05
6.51867e-05
6.60932e-05
6.70918e-05
6.82073e-05
6.94798e-05
7.08862e-05
7.19331e-05
6.30611e-05
9.96723e-05
9.74177e-05
9.64883e-05
9.47409e-05
9.37423e-05
9.20846e-05
9.10267e-05
8.9447e-05
8.83441e-05
8.68365e-05
8.57033e-05
8.4278e-05
8.31182e-05
8.17296e-05
8.06058e-05
7.92636e-05
7.81691e-05
7.68804e-05
7.58216e-05
7.45919e-05
7.35752e-05
7.24093e-05
7.14401e-05
7.03413e-05
6.94245e-05
6.83955e-05
6.7533e-05
6.65762e-05
6.5773e-05
6.48885e-05
6.41458e-05
6.33333e-05
6.2652e-05
6.19101e-05
6.12896e-05
6.06146e-05
6.00509e-05
5.94393e-05
5.89294e-05
5.83771e-05
5.79161e-05
5.74181e-05
5.69977e-05
5.65452e-05
5.61583e-05
5.5745e-05
5.53859e-05
5.50039e-05
5.46659e-05
5.43076e-05
5.39847e-05
5.36436e-05
5.33226e-05
5.29895e-05
5.26955e-05
5.23737e-05
5.20806e-05
5.17733e-05
5.14894e-05
5.12069e-05
5.09319e-05
5.06407e-05
5.03798e-05
5.01095e-05
4.98594e-05
4.96034e-05
4.93628e-05
4.91212e-05
4.88928e-05
4.86618e-05
4.84386e-05
4.82114e-05
4.79882e-05
4.77586e-05
4.75276e-05
4.72871e-05
4.70403e-05
4.67807e-05
4.65099e-05
4.62227e-05
4.59215e-05
4.56025e-05
4.5266e-05
4.49095e-05
4.45331e-05
4.41361e-05
4.37186e-05
4.32834e-05
4.28295e-05
4.23637e-05
4.18878e-05
4.13938e-05
4.09013e-05
4.0437e-05
4.00324e-05
3.97499e-05
3.96825e-05
3.99558e-05
4.06031e-05
3.4326e-05
0.000106942
0.000105392
0.00010472
0.000103578
0.000102646
0.000101403
0.000100355
9.90952e-05
9.80057e-05
9.67626e-05
9.56627e-05
9.44484e-05
9.33539e-05
9.2169e-05
9.1087e-05
8.9931e-05
8.88627e-05
8.77343e-05
8.66809e-05
8.55788e-05
8.45408e-05
8.34627e-05
8.24399e-05
8.13842e-05
8.03762e-05
7.93367e-05
7.83464e-05
7.73307e-05
7.63531e-05
7.53542e-05
7.43903e-05
7.34111e-05
7.24623e-05
7.15023e-05
7.05692e-05
6.96296e-05
6.87151e-05
6.77809e-05
6.68651e-05
6.59373e-05
6.50271e-05
6.4111e-05
6.32125e-05
6.23144e-05
6.14346e-05
6.05591e-05
5.97065e-05
5.88612e-05
5.80421e-05
5.72327e-05
5.645e-05
5.56805e-05
5.49385e-05
5.42113e-05
5.35109e-05
5.28262e-05
5.21747e-05
5.15422e-05
5.07915e-05
5.00341e-05
4.92828e-05
4.85309e-05
4.77823e-05
4.70246e-05
4.62657e-05
4.54948e-05
4.47215e-05
4.3932e-05
4.313e-05
4.23222e-05
4.15254e-05
4.07105e-05
3.98991e-05
3.90789e-05
3.82631e-05
3.74414e-05
3.66246e-05
3.58054e-05
3.49925e-05
3.41809e-05
3.3372e-05
3.25651e-05
3.17642e-05
3.097e-05
3.01863e-05
2.94148e-05
2.86535e-05
2.79078e-05
2.71784e-05
2.64753e-05
2.57994e-05
2.51674e-05
2.45796e-05
2.40568e-05
2.36792e-05
2.3371e-05
2.335e-05
2.36246e-05
2.43714e-05
1.89108e-05
0.000121209
0.000120061
0.000119515
0.000118615
0.000117623
0.000116475
0.000115326
0.000114072
0.000112849
0.000111548
0.000110286
0.000108958
0.000107682
0.000106347
0.000105059
0.000103719
0.00010242
0.000101075
9.97653e-05
9.84155e-05
9.70967e-05
9.57431e-05
9.44168e-05
9.30628e-05
9.17314e-05
9.03772e-05
8.90435e-05
8.76924e-05
8.63581e-05
8.50101e-05
8.36777e-05
8.23366e-05
8.10097e-05
7.96771e-05
7.83586e-05
7.70378e-05
7.57316e-05
7.44288e-05
7.31409e-05
7.18574e-05
7.0588e-05
6.93236e-05
6.80698e-05
6.68217e-05
6.55947e-05
6.43617e-05
6.31485e-05
6.19338e-05
6.07349e-05
5.95381e-05
5.83556e-05
5.7177e-05
5.6011e-05
5.48506e-05
5.37021e-05
5.25605e-05
5.14315e-05
5.03136e-05
4.92103e-05
4.81203e-05
4.7047e-05
4.59802e-05
4.49274e-05
4.38855e-05
4.28615e-05
4.1852e-05
4.08615e-05
3.98949e-05
3.89531e-05
3.80355e-05
3.71441e-05
3.62799e-05
3.5444e-05
3.46374e-05
3.38545e-05
3.30988e-05
3.23672e-05
3.16612e-05
3.0978e-05
3.03172e-05
2.96716e-05
2.90463e-05
2.84334e-05
2.78372e-05
2.68372e-05
2.58645e-05
2.4905e-05
2.40005e-05
2.31136e-05
2.22862e-05
2.1483e-05
2.07479e-05
2.00426e-05
1.94208e-05
1.88151e-05
1.84078e-05
1.81786e-05
1.79902e-05
1.8724e-05
1.44604e-05
0.000137851
0.000137216
0.000136797
0.000136207
0.000135216
0.000134219
0.000133041
0.00013187
0.000130621
0.000129365
0.000128079
0.000126772
0.00012546
0.000124116
0.000122778
0.000121402
0.000120037
0.000118633
0.000117241
0.000115812
0.000114394
0.000112941
0.000111488
0.000110018
0.000108553
0.000107067
0.000105579
0.000104078
0.000102576
0.000101065
9.95518e-05
9.80217e-05
9.64874e-05
9.49366e-05
9.33816e-05
9.18118e-05
9.02385e-05
8.86615e-05
8.70848e-05
8.55051e-05
8.39267e-05
8.23447e-05
8.07661e-05
7.91865e-05
7.7612e-05
7.60395e-05
7.44742e-05
7.29146e-05
7.13646e-05
6.9824e-05
6.82955e-05
6.67795e-05
6.52779e-05
6.37913e-05
6.232e-05
6.08646e-05
5.94254e-05
5.8002e-05
5.65927e-05
5.5205e-05
5.38329e-05
5.24797e-05
5.11476e-05
4.98319e-05
4.85346e-05
4.7251e-05
4.59821e-05
4.47239e-05
4.34769e-05
4.22381e-05
4.10078e-05
3.9784e-05
3.8567e-05
3.73559e-05
3.61564e-05
3.49646e-05
3.3783e-05
3.26084e-05
3.14429e-05
3.0289e-05
2.91451e-05
2.80195e-05
2.6907e-05
2.58177e-05
2.4743e-05
2.36916e-05
2.26576e-05
2.16488e-05
2.06593e-05
1.9696e-05
1.87713e-05
1.78842e-05
1.70591e-05
1.63861e-05
1.59486e-05
1.61183e-05
1.60775e-05
1.58682e-05
1.58847e-05
1.31674e-05
0.000149426
0.000149568
0.000149289
0.000149083
0.000148261
0.000147567
0.000146578
0.000145681
0.000144635
0.000143633
0.000142554
0.000141484
0.000140376
0.000139252
0.00013811
0.00013694
0.000135761
0.000134547
0.000133329
0.000132074
0.000130814
0.000129517
0.000128213
0.000126875
0.000125528
0.000124147
0.000122755
0.000121333
0.000119895
0.000118442
0.000116976
0.000115482
0.000113979
0.000112451
0.000110913
0.000109352
0.000107777
0.000106184
0.000104572
0.00010294
0.000101307
9.96497e-05
9.79737e-05
9.62821e-05
9.45732e-05
9.28488e-05
9.11082e-05
8.93531e-05
8.75833e-05
8.5801e-05
8.40063e-05
8.22023e-05
8.03897e-05
7.85735e-05
7.67528e-05
7.49309e-05
7.311e-05
7.12866e-05
6.94649e-05
6.76443e-05
6.58304e-05
6.4026e-05
6.22354e-05
6.04596e-05
5.87031e-05
5.69672e-05
5.52546e-05
5.35674e-05
5.19065e-05
5.0274e-05
4.86695e-05
4.70946e-05
4.55467e-05
4.40212e-05
4.25229e-05
4.10603e-05
3.95968e-05
3.81714e-05
3.67433e-05
3.53377e-05
3.39236e-05
3.25171e-05
3.10946e-05
2.96677e-05
2.82173e-05
2.67548e-05
2.52734e-05
2.3777e-05
2.22739e-05
2.07615e-05
1.9256e-05
1.77541e-05
1.62538e-05
1.48206e-05
1.34914e-05
1.24403e-05
1.20864e-05
1.36353e-05
1.38507e-05
1.43385e-05
0.000142504
0.000142184
0.000142057
0.000141731
0.000141589
0.000141238
0.000141063
0.000140697
0.000140484
0.000140105
0.000139854
0.000139459
0.000139167
0.000138753
0.000138417
0.000137979
0.0001376
0.000137134
0.00013671
0.000136213
0.000135742
0.000135209
0.000134689
0.000134114
0.000133542
0.000132917
0.000132285
0.000131601
0.000130897
0.000129745
0.000128564
0.000127342
0.00012611
0.000124849
0.000123575
0.000122277
0.000120965
0.000119622
0.000118259
0.000116867
0.000115453
0.000114008
0.000112539
0.00011104
0.000109514
0.000107959
0.000106374
0.00010476
0.000103115
0.000101441
9.97379e-05
9.80051e-05
9.62349e-05
9.44386e-05
9.2633e-05
9.0786e-05
8.8927e-05
8.70362e-05
8.51281e-05
8.31948e-05
8.12438e-05
7.92703e-05
7.72775e-05
7.52608e-05
7.32187e-05
7.11556e-05
6.90689e-05
6.69661e-05
6.48427e-05
6.27093e-05
6.05619e-05
5.84129e-05
5.62606e-05
5.41183e-05
5.19857e-05
4.98768e-05
4.77915e-05
4.57426e-05
4.37293e-05
4.17614e-05
3.98361e-05
3.79589e-05
3.61237e-05
3.43309e-05
3.25612e-05
3.08198e-05
2.91186e-05
2.73928e-05
2.56834e-05
2.39473e-05
2.21942e-05
2.03862e-05
1.85104e-05
1.65697e-05
1.46384e-05
1.27109e-05
1.10498e-05
1.00832e-05
1.19766e-05
1.21321e-05
0.000117496
0.000117728
0.000117817
0.000117895
0.000117964
0.000118004
0.000118062
0.000118076
0.000118121
0.000118113
0.000118141
0.000118112
0.000118119
0.000118071
0.000118057
0.000117989
0.00011795
0.000117862
0.000117795
0.000117684
0.000117587
0.000117449
0.000117318
0.00011715
0.000116983
0.000116781
0.000116575
0.000116335
0.000116089
0.000115814
0.000115537
0.000115235
0.000114927
0.000114596
0.000114255
0.00011389
0.000113512
0.000113117
0.000112699
0.000112259
0.000111795
0.000111305
0.000110789
0.000110243
0.000109665
0.000109051
0.00010841
0.000107737
0.000107035
0.000106301
0.000105523
0.000104701
0.000103827
0.000102898
0.000101902
0.000100557
9.89496e-05
9.72909e-05
9.55876e-05
9.384e-05
9.20526e-05
9.02274e-05
8.83726e-05
8.64873e-05
8.45794e-05
8.26518e-05
8.06561e-05
7.86437e-05
7.65778e-05
7.44885e-05
7.23549e-05
7.01962e-05
6.79911e-05
6.57583e-05
6.34777e-05
6.1163e-05
5.87977e-05
5.63915e-05
5.39322e-05
5.14286e-05
4.88742e-05
4.62793e-05
4.36446e-05
4.09848e-05
3.83082e-05
3.56374e-05
3.29874e-05
3.03861e-05
2.78569e-05
2.54214e-05
2.30563e-05
2.07686e-05
1.8551e-05
1.6307e-05
1.41374e-05
1.21361e-05
1.03211e-05
8.92485e-06
8.38125e-06
1.15368e-05
7.51564e-05
7.55989e-05
7.56816e-05
7.59573e-05
7.60489e-05
7.6276e-05
7.63868e-05
7.65825e-05
7.67098e-05
7.68844e-05
7.70227e-05
7.71827e-05
7.73269e-05
7.74766e-05
7.76223e-05
7.77637e-05
7.79074e-05
7.80413e-05
7.81802e-05
7.83065e-05
7.8438e-05
7.85559e-05
7.8678e-05
7.87866e-05
7.88978e-05
7.89962e-05
7.90959e-05
7.91841e-05
7.92728e-05
7.93527e-05
7.94327e-05
7.95034e-05
7.9573e-05
7.96328e-05
7.96894e-05
7.97357e-05
7.97766e-05
7.98069e-05
7.98327e-05
7.98487e-05
7.98579e-05
7.98575e-05
7.9849e-05
7.98307e-05
7.98035e-05
7.97669e-05
7.97218e-05
7.96619e-05
7.95872e-05
7.94934e-05
7.93783e-05
7.92395e-05
7.90734e-05
7.88779e-05
7.865e-05
7.83918e-05
7.81128e-05
7.78075e-05
7.74742e-05
7.71074e-05
7.67e-05
7.6242e-05
7.55705e-05
7.46804e-05
7.37324e-05
7.27324e-05
7.1679e-05
7.05798e-05
6.94209e-05
6.82038e-05
6.69236e-05
6.5596e-05
6.41757e-05
6.26884e-05
6.11082e-05
5.9446e-05
5.76834e-05
5.5828e-05
5.38675e-05
5.18093e-05
4.96471e-05
4.73903e-05
4.50387e-05
4.26047e-05
4.00941e-05
3.75269e-05
3.48878e-05
3.22012e-05
2.94042e-05
2.65132e-05
2.35394e-05
2.04969e-05
1.75133e-05
1.46491e-05
1.1959e-05
9.59827e-06
7.77545e-06
6.54532e-06
5.87591e-06
6.7751e-06
6.98009e-06
6.99778e-06
7.01e-06
7.02473e-06
7.03889e-06
7.05641e-06
7.07087e-06
7.08977e-06
7.10495e-06
7.12455e-06
7.14069e-06
7.16071e-06
7.17793e-06
7.19828e-06
7.21659e-06
7.23728e-06
7.25666e-06
7.27775e-06
7.29814e-06
7.31972e-06
7.34109e-06
7.36325e-06
7.38559e-06
7.4085e-06
7.43186e-06
7.45568e-06
7.48019e-06
7.50514e-06
7.53094e-06
7.55723e-06
7.58443e-06
7.61214e-06
7.64085e-06
7.67012e-06
7.70044e-06
7.73142e-06
7.76355e-06
7.79646e-06
7.83059e-06
7.86564e-06
7.90198e-06
7.9394e-06
7.97818e-06
8.01817e-06
8.05957e-06
8.10225e-06
8.14628e-06
8.19141e-06
8.23783e-06
8.28534e-06
8.3341e-06
8.38405e-06
8.43533e-06
8.48809e-06
8.54255e-06
8.59904e-06
8.65755e-06
8.71751e-06
8.77862e-06
8.84004e-06
8.9009e-06
8.96003e-06
9.01599e-06
9.07236e-06
9.13108e-06
9.19149e-06
9.25527e-06
9.32138e-06
9.39072e-06
9.463e-06
9.53922e-06
9.61913e-06
9.70046e-06
9.78674e-06
9.87446e-06
9.96681e-06
1.0061e-05
1.01597e-05
1.0261e-05
1.03675e-05
1.04783e-05
1.05961e-05
1.07212e-05
1.08568e-05
1.10034e-05
1.1161e-05
1.13123e-05
1.14224e-05
1.14369e-05
1.12934e-05
1.08236e-05
9.78472e-06
8.05245e-06
5.92185e-06
3.63196e-06
2.64177e-06
2.55923e-06
3.91922e-06
4.01948e-06
4.33163e-06
1.09391e-05
2.07717e-06
2.60039e-06
3.51707e-06
4.54786e-06
5.62263e-06
6.48722e-06
7.33689e-06
8.1502e-06
8.90636e-06
9.61871e-06
1.03362e-05
1.14545e-05
1.33301e-05
1.54653e-05
1.78495e-05
1.75992e-05
1.5546e-05
1.02919e-05
3.99703e-06
5.8784e-06
2.18591e-06
2.47481e-06
3.18394e-06
4.056e-06
4.86383e-06
5.69304e-06
6.55198e-06
7.41522e-06
8.29808e-06
9.27219e-06
1.03698e-05
1.20209e-05
1.40917e-05
1.70447e-05
1.83203e-05
1.74929e-05
1.47119e-05
9.53626e-06
3.96913e-06
4.94506e-06
2.6951e-06
2.90096e-06
3.41655e-06
4.01083e-06
4.71727e-06
5.48125e-06
6.31571e-06
7.22137e-06
8.38783e-06
9.50729e-06
1.10159e-05
1.29312e-05
1.58249e-05
1.80192e-05
1.83022e-05
1.71528e-05
1.40098e-05
8.87756e-06
3.84443e-06
5.05597e-06
3.43941e-06
3.63819e-06
3.87582e-06
4.36874e-06
4.9292e-06
5.67375e-06
6.58182e-06
7.71415e-06
9.48517e-06
1.12105e-05
1.29439e-05
1.57254e-05
1.82078e-05
1.91883e-05
1.88139e-05
1.7028e-05
1.32415e-05
7.98276e-06
3.26605e-06
5.68864e-06
4.47733e-06
4.61713e-06
4.63438e-06
5.19464e-06
5.69328e-06
6.58573e-06
7.84265e-06
9.59798e-06
1.30984e-05
1.47659e-05
1.70751e-05
1.93378e-05
2.0424e-05
2.04273e-05
1.92135e-05
1.65448e-05
1.25004e-05
6.89624e-06
2.38659e-06
6.89564e-06
5.97762e-06
6.04903e-06
6.02796e-06
6.77372e-06
7.76929e-06
9.35125e-06
1.16043e-05
1.61133e-05
1.95053e-05
2.09771e-05
2.23671e-05
2.30585e-05
2.2859e-05
2.16648e-05
1.91092e-05
1.59613e-05
1.15709e-05
5.16454e-06
1.47429e-06
9.04428e-06
8.62875e-06
8.8603e-06
9.46485e-06
1.11822e-05
1.36703e-05
1.70792e-05
2.2025e-05
2.87636e-05
2.94126e-05
2.90937e-05
2.83051e-05
2.69055e-05
2.47745e-05
2.16971e-05
1.85265e-05
1.48346e-05
1.01419e-05
3.83692e-06
7.18121e-07
1.46629e-05
1.61431e-05
1.73712e-05
1.96684e-05
2.31991e-05
2.75231e-05
3.30959e-05
4.00601e-05
3.99371e-05
3.77706e-05
3.42905e-05
3.16748e-05
2.81194e-05
2.49257e-05
2.08599e-05
1.70911e-05
1.29453e-05
8.12953e-06
2.78752e-06
2.75729e-07
3.25462e-05
3.55051e-05
3.67325e-05
3.91943e-05
4.36505e-05
4.79926e-05
5.20645e-05
4.78331e-05
4.42199e-05
4.02869e-05
3.64234e-05
3.26219e-05
2.84142e-05
2.33368e-05
1.85807e-05
1.40859e-05
1.02288e-05
6.5884e-06
2.49292e-06
1.32408e-07
5.28311e-05
5.57157e-05
5.59704e-05
5.74736e-05
6.23242e-05
5.95193e-05
5.52181e-05
5.02679e-05
4.61683e-05
4.12165e-05
3.71265e-05
3.19564e-05
2.70387e-05
1.97824e-05
1.40902e-05
9.75617e-06
7.84741e-06
6.60815e-06
3.28088e-06
2.21393e-07
5.0333e-05
5.30651e-05
5.34351e-05
5.5019e-05
5.98171e-05
5.78275e-05
5.37116e-05
4.89553e-05
4.50924e-05
4.03087e-05
3.66231e-05
3.15027e-05
2.7631e-05
2.04995e-05
1.48534e-05
9.88187e-06
7.4549e-06
5.59332e-06
2.57432e-06
1.83447e-07
2.80049e-05
3.09011e-05
3.22638e-05
3.47376e-05
3.91362e-05
4.36791e-05
4.96338e-05
4.56394e-05
4.26534e-05
3.84351e-05
3.56779e-05
3.1334e-05
2.83557e-05
2.39282e-05
1.93608e-05
1.45995e-05
1.00133e-05
5.54365e-06
1.74414e-06
1.23328e-07
1.30962e-05
1.40358e-05
1.50113e-05
1.70562e-05
2.02173e-05
2.4263e-05
2.95231e-05
3.64099e-05
3.97702e-05
3.61546e-05
3.40268e-05
3.06173e-05
2.76793e-05
2.45136e-05
2.12714e-05
1.73792e-05
1.29928e-05
7.81475e-06
2.38081e-06
1.5223e-07
8.63722e-06
8.11444e-06
8.26143e-06
8.65586e-06
1.00732e-05
1.22145e-05
1.52136e-05
1.98311e-05
2.63084e-05
2.74735e-05
2.77703e-05
2.7582e-05
2.66624e-05
2.4734e-05
2.14506e-05
1.86233e-05
1.48344e-05
1.00325e-05
3.50081e-06
3.89391e-07
6.73725e-06
5.8043e-06
5.86858e-06
5.83122e-06
6.51226e-06
7.37185e-06
8.75688e-06
1.07452e-05
1.48307e-05
1.81864e-05
1.99762e-05
2.17259e-05
2.27461e-05
2.27802e-05
2.18377e-05
1.89586e-05
1.58299e-05
1.14948e-05
5.12089e-06
1.18535e-06
5.62085e-06
4.42674e-06
4.5643e-06
4.60673e-06
5.15404e-06
5.64432e-06
6.48839e-06
7.64028e-06
9.24534e-06
1.23669e-05
1.41451e-05
1.65198e-05
1.90541e-05
2.03502e-05
2.04588e-05
1.93535e-05
1.64144e-05
1.24387e-05
6.93688e-06
2.23185e-06
5.04284e-06
3.43545e-06
3.63759e-06
3.91566e-06
4.41428e-06
4.99456e-06
5.72936e-06
6.61122e-06
7.68817e-06
9.33921e-06
1.09252e-05
1.26791e-05
1.54253e-05
1.81253e-05
1.9253e-05
1.88976e-05
1.70966e-05
1.31904e-05
8.03397e-06
3.21109e-06
5.04859e-06
2.73368e-06
2.93308e-06
3.46397e-06
4.09282e-06
4.80643e-06
5.58378e-06
6.42156e-06
7.31361e-06
8.4233e-06
9.506e-06
1.09508e-05
1.28349e-05
1.56609e-05
1.80405e-05
1.83939e-05
1.72092e-05
1.39508e-05
8.94693e-06
3.80058e-06
6.12191e-06
2.24211e-06
2.53631e-06
3.25454e-06
4.13457e-06
4.98581e-06
5.81997e-06
6.68652e-06
7.55639e-06
8.43053e-06
9.37104e-06
1.04328e-05
1.20432e-05
1.4087e-05
1.69952e-05
1.83771e-05
1.7519e-05
1.47212e-05
9.58708e-06
3.9537e-06
1.09722e-05
2.13842e-06
2.66044e-06
3.59573e-06
4.64378e-06
5.72285e-06
6.63932e-06
7.49015e-06
8.31143e-06
9.06872e-06
9.77512e-06
1.04678e-05
1.15091e-05
1.32999e-05
1.54659e-05
1.78813e-05
1.76254e-05
1.55217e-05
1.03494e-05
3.99055e-06
1.23421e-06
0.000116558
0.000294184
0.000330906
0.00033481
0.000335356
0.000335357
0.000335342
0.000335343
0.000335345
0.000335345
0.000335343
0.000335342
0.000335357
0.000335356
0.00033481
0.000330906
0.000294184
0.000116558
1.23421e-06
1.36973e-06
6.81669e-05
0.000219584
0.000309504
0.000330909
0.000334527
0.000335273
0.000335315
0.000335296
0.000335287
0.000335287
0.000335296
0.000335315
0.000335273
0.000334527
0.000330909
0.000309504
0.000219584
6.81671e-05
1.36973e-06
1.51338e-06
5.28961e-05
0.000176459
0.00028058
0.000322148
0.000332504
0.000334604
0.0003351
0.000335168
0.000335172