/*--------------------------------*- C++ -*----------------------------------*\
| =========                 |                                                 |
| \\      /  F ield         | OpenFOAM: The Open Source CFD Toolbox           |
|  \\    /   O peration     | Version:  2.1.0                                 |
|   \\  /    A nd           | Web:      www.OpenFOAM.org                      |
|    \\/     M anipulation  |                                                 |
\*---------------------------------------------------------------------------*/
FoamFile
{
    version     2.0;
    format      ascii;
    class       volScalarField;
    location    "0.36";
    object      p;
}
// * * * * * * * * * * * * * * * * * * * * * * * * * * * * * * * * * * * * * //

dimensions      [1 -1 -2 0 0 0 0];

internalField   nonuniform List<scalar> 
6400
(
99998.5
99995.8
99993.8
99992.2
99990.7
99989.3
99987.9
99986.4
99985
99983.5
99982
99980.4
99978.7
99977
99975.2
99973.4
99971.4
99969.5
99967.4
99965.2
99963
99960.7
99958.4
99955.9
99953.4
99950.7
99948
99945.2
99942.3
99939.4
99936.3
99933.1
99929.9
99926.5
99923
99919.5
99915.8
99912
99908
99904
99899.8
99895.5
99891.1
99886.5
99881.8
99876.9
99871.9
99866.6
99861.3
99855.7
99850
99844
99837.9
99831.5
99825
99818.2
99811.2
99803.9
99796.5
99788.7
99780.7
99772.5
99764
99755.1
99746
99736.5
99726.7
99716.6
99706
99695.1
99683.8
99672
99659.9
99647.2
99634.1
99620.4
99606.2
99591.4
99576.1
99560
99543.3
99525.8
99507.4
99488
99467.3
99445.2
99421.3
99395.4
99367
99335.8
99302.1
99266.9
99232.4
99199.7
99167.2
99133.9
99076.7
98961.4
98590.2
96982.1
99997
99995.1
99993.4
99991.8
99990.3
99988.9
99987.5
99986
99984.6
99983.1
99981.6
99980
99978.3
99976.6
99974.8
99972.9
99971
99969
99966.9
99964.8
99962.6
99960.3
99957.9
99955.4
99952.9
99950.3
99947.5
99944.7
99941.8
99938.9
99935.8
99932.6
99929.4
99926
99922.5
99918.9
99915.2
99911.4
99907.5
99903.4
99899.3
99895
99890.5
99885.9
99881.2
99876.3
99871.3
99866.1
99860.7
99855.1
99849.4
99843.4
99837.3
99831
99824.4
99817.7
99810.7
99803.5
99796
99788.3
99780.3
99772.1
99763.6
99754.8
99745.6
99736.2
99726.4
99716.3
99705.8
99694.9
99683.6
99671.9
99659.7
99647.1
99634
99620.4
99606.2
99591.5
99576.1
99560.1
99543.4
99525.9
99507.5
99488.1
99467.4
99445.4
99421.6
99395.7
99367.5
99336.6
99303.2
99268.2
99233.7
99201.3
99173.4
99144.2
99092.7
98991.7
98690.9
98136.5
99995.4
99994.3
99992.9
99991.4
99990
99988.6
99987.2
99985.8
99984.4
99982.9
99981.4
99979.8
99978.1
99976.4
99974.6
99972.7
99970.8
99968.8
99966.8
99964.6
99962.4
99960.1
99957.7
99955.2
99952.7
99950.1
99947.4
99944.6
99941.7
99938.7
99935.6
99932.5
99929.2
99925.8
99922.4
99918.8
99915.1
99911.3
99907.4
99903.3
99899.2
99894.9
99890.4
99885.9
99881.2
99876.3
99871.3
99866.1
99860.8
99855.2
99849.5
99843.6
99837.5
99831.2
99824.7
99818
99811.1
99803.9
99796.5
99788.8
99780.9
99772.7
99764.2
99755.4
99746.4
99737
99727.3
99717.2
99706.8
99696
99684.8
99673.2
99661.1
99648.6
99635.6
99622.1
99608
99593.4
99578.2
99562.3
99545.7
99528.3
99510
99490.7
99470.2
99448.2
99424.6
99399
99371.1
99340.9
99308.7
99275.5
99243.4
99214.7
99191.2
99163.3
99127.6
99065.5
98909.2
98999.2
99993.5
99993.4
99992.4
99991.2
99989.9
99988.6
99987.2
99985.9
99984.5
99983
99981.5
99979.9
99978.2
99976.5
99974.7
99972.9
99971
99969
99966.9
99964.8
99962.6
99960.3
99957.9
99955.5
99953
99950.4
99947.7
99944.9
99942
99939
99936
99932.8
99929.6
99926.2
99922.8
99919.2
99915.6
99911.8
99907.9
99903.9
99899.7
99895.5
99891.1
99886.5
99881.8
99877
99872
99866.9
99861.6
99856.1
99850.5
99844.6
99838.6
99832.3
99825.9
99819.2
99812.3
99805.1
99797.8
99790.2
99782.3
99774.1
99765.7
99757
99748
99738.7
99729
99719
99708.6
99697.9
99686.7
99675.2
99663.1
99650.6
99637.6
99624.1
99610
99595.4
99580.1
99564.1
99547.4
99529.9
99511.4
99491.9
99471.2
99449.1
99425.4
99399.8
99372.3
99342.9
99312.2
99281.7
99253.5
99229.9
99212.7
99199.9
99194.4
99199.1
99225.6
99646.1
99991.3
99992.4
99992
99991
99989.9
99988.7
99987.5
99986.2
99984.8
99983.3
99981.8
99980.2
99978.6
99976.9
99975.2
99973.3
99971.4
99969.5
99967.4
99965.3
99963.1
99960.8
99958.5
99956.1
99953.6
99951
99948.3
99945.6
99942.7
99939.8
99936.8
99933.6
99930.4
99927.1
99923.6
99920.1
99916.5
99912.7
99908.8
99904.8
99900.7
99896.5
99892.1
99887.6
99882.9
99878.1
99873.2
99868
99862.7
99857.3
99851.6
99845.8
99839.8
99833.6
99827.1
99820.5
99813.6
99806.5
99799.1
99791.5
99783.6
99775.5
99767.1
99758.4
99749.3
99740
99730.3
99720.3
99709.9
99699.1
99687.8
99676.2
99664.1
99651.5
99638.5
99624.9
99610.7
99595.9
99580.5
99564.4
99547.5
99529.8
99511.1
99491.4
99470.5
99448.3
99424.5
99399.1
99372.2
99343.9
99315.3
99288.3
99265.3
99248.8
99242.7
99252.6
99289.6
99381.7
99580
100156
99989.2
99991.3
99991.5
99991
99990.1
99989.1
99987.9
99986.6
99985.3
99983.8
99982.4
99980.8
99979.2
99977.5
99975.8
99973.9
99972.1
99970.1
99968.1
99966
99963.8
99961.5
99959.2
99956.8
99954.3
99951.8
99949.1
99946.4
99943.5
99940.6
99937.6
99934.4
99931.2
99927.9
99924.5
99921
99917.3
99913.6
99909.7
99905.7
99901.6
99897.3
99893
99888.4
99883.8
99879
99874
99868.9
99863.5
99858.1
99852.4
99846.6
99840.5
99834.3
99827.8
99821.1
99814.2
99807.1
99799.7
99792.1
99784.2
99776
99767.6
99758.8
99749.8
99740.4
99730.7
99720.6
99710.2
99699.4
99688.1
99676.4
99664.3
99651.7
99638.5
99624.9
99610.6
99595.7
99580.2
99563.9
99546.9
99529
99510.1
99490.2
99469.1
99446.7
99422.9
99397.8
99371.4
99344.4
99318.1
99294.8
99277.6
99269.5
99277.8
99314.7
99401.2
99586
99920.7
100556
99987.2
99990.3
99991.1
99990.9
99990.3
99989.4
99988.3
99987.1
99985.8
99984.4
99982.9
99981.3
99979.7
99978.1
99976.3
99974.5
99972.6
99970.6
99968.6
99966.5
99964.3
99962.1
99959.7
99957.3
99954.8
99952.3
99949.6
99946.9
99944
99941.1
99938
99934.9
99931.7
99928.4
99924.9
99921.4
99917.7
99914
99910.1
99906.1
99901.9
99897.7
99893.3
99888.7
99884
99879.2
99874.2
99869.1
99863.7
99858.2
99852.6
99846.7
99840.6
99834.4
99827.9
99821.2
99814.3
99807.1
99799.8
99792.1
99784.2
99776
99767.6
99758.8
99749.8
99740.4
99730.7
99720.6
99710.2
99699.4
99688.1
99676.4
99664.2
99651.6
99638.4
99624.7
99610.4
99595.4
99579.8
99563.4
99546.1
99528
99509
99488.8
99467.5
99444.9
99421.1
99396.2
99370.4
99344.7
99320.5
99300.6
99288.8
99289.4
99312.8
99377.3
99513.2
99782.2
100214
100859
99985.6
99989.4
99990.6
99990.7
99990.3
99989.5
99988.5
99987.3
99986
99984.6
99983.2
99981.6
99980
99978.3
99976.6
99974.8
99972.9
99970.9
99968.9
99966.8
99964.6
99962.3
99960
99957.5
99955
99952.4
99949.8
99947
99944.1
99941.2
99938.1
99935
99931.7
99928.4
99924.9
99921.4
99917.7
99913.9
99910
99906
99901.8
99897.6
99893.1
99888.6
99883.9
99879
99874
99868.9
99863.5
99858
99852.4
99846.5
99840.4
99834.2
99827.7
99821
99814.1
99807
99799.6
99792
99784.1
99775.9
99767.5
99758.8
99749.8
99740.4
99730.7
99720.6
99710.2
99699.4
99688.1
99676.4
99664.2
99651.6
99638.3
99624.6
99610.2
99595.1
99579.4
99562.8
99545.4
99527.1
99507.8
99487.4
99465.9
99443.1
99419.2
99394.4
99369.2
99344.5
99322.1
99305
99297.7
99305.9
99343
99431.3
99610
99946.1
100441
101075
99984.5
99988.6
99990.1
99990.5
99990.2
99989.5
99988.5
99987.4
99986.1
99984.7
99983.2
99981.7
99980.1
99978.4
99976.6
99974.8
99972.9
99970.9
99968.8
99966.7
99964.5
99962.3
99959.9
99957.5
99954.9
99952.3
99949.6
99946.8
99944
99941
99938
99934.8
99931.5
99928.2
99924.7
99921.1
99917.5
99913.7
99909.8
99905.7
99901.6
99897.3
99892.9
99888.3
99883.6
99878.8
99873.8
99868.6
99863.3
99857.8
99852.1
99846.3
99840.2
99834
99827.5
99820.9
99814
99806.9
99799.5
99791.9
99784
99775.9
99767.5
99758.8
99749.8
99740.4
99730.7
99720.7
99710.3
99699.4
99688.2
99676.5
99664.3
99651.6
99638.4
99624.5
99610
99594.9
99579
99562.4
99544.8
99526.3
99506.8
99486.2
99464.3
99441.4
99417.4
99392.7
99367.8
99343.8
99322.7
99307.4
99303.2
99317
99362.9
99469.6
99679.1
100061
100591
101213
99983.9
99988.2
99989.8
99990.3
99990.1
99989.4
99988.5
99987.3
99986.1
99984.7
99983.2
99981.6
99980
99978.3
99976.5
99974.7
99972.8
99970.8
99968.7
99966.6
99964.4
99962.1
99959.8
99957.3
99954.8
99952.2
99949.5
99946.7
99943.8
99940.9
99937.8
99934.6
99931.4
99928
99924.6
99921
99917.3
99913.5
99909.6
99905.6
99901.4
99897.2
99892.7
99888.2
99883.5
99878.7
99873.7
99868.5
99863.2
99857.7
99852.1
99846.2
99840.2
99833.9
99827.5
99820.9
99814
99806.9
99799.5
99791.9
99784.1
99775.9
99767.6
99758.9
99749.9
99740.6
99730.9
99720.9
99710.5
99699.6
99688.4
99676.7
99664.5
99651.8
99638.5
99624.6
99610.1
99594.9
99578.9
99562.1
99544.4
99525.7
99506
99485.1
99463.1
99439.8
99415.7
99391
99366.2
99342.6
99322.1
99307.8
99305
99321.8
99373.5
99488.5
99713.4
100118
100665
101280
99983.6
99988.1
99989.8
99990.3
99990.1
99989.5
99988.5
99987.4
99986.1
99984.8
99983.3
99981.7
99980.1
99978.4
99976.6
99974.8
99972.9
99970.9
99968.9
99966.7
99964.5
99962.2
99959.9
99957.4
99954.9
99952.3
99949.6
99946.8
99943.9
99941
99937.9
99934.7
99931.5
99928.1
99924.7
99921.1
99917.4
99913.6
99909.7
99905.7
99901.5
99897.2
99892.8
99888.3
99883.6
99878.7
99873.7
99868.6
99863.3
99857.8
99852.1
99846.3
99840.3
99834.1
99827.6
99821
99814.1
99807
99799.7
99792.2
99784.4
99776.3
99767.9
99759.2
99750.2
99740.9
99731.2
99721.2
99710.8
99700
99688.7
99677
99664.8
99652.1
99638.8
99624.9
99610.3
99595
99578.9
99562
99544.2
99525.3
99505.4
99484.3
99462.1
99438.8
99414.3
99389.3
99364.4
99340.7
99320.3
99306.1
99303.1
99320
99372
99486.8
99710.9
100114
100661
101277
99983.9
99988.4
99990
99990.4
99990.2
99989.5
99988.6
99987.4
99986.2
99984.8
99983.4
99981.8
99980.2
99978.5
99976.8
99975
99973.1
99971.1
99969.1
99967
99964.8
99962.5
99960.2
99957.7
99955.2
99952.6
99949.9
99947.2
99944.3
99941.3
99938.3
99935.1
99931.9
99928.5
99925
99921.5
99917.8
99914
99910.1
99906
99901.9
99897.6
99893.1
99888.6
99883.9
99879
99874
99868.9
99863.6
99858.1
99852.4
99846.6
99840.5
99834.3
99827.9
99821.3
99814.4
99807.3
99800
99792.5
99784.6
99776.6
99768.2
99759.5
99750.5
99741.2
99731.6
99721.6
99711.2
99700.4
99689.1
99677.4
99665.2
99652.5
99639.2
99625.2
99610.6
99595.2
99579
99562
99544
99524.9
99504.8
99483.5
99461.1
99437.4
99412.6
99387.3
99361.9
99337.9
99316.8
99301.6
99296.9
99310.9
99357.8
99462.8
99669.8
100048
100576
101199
99984.9
99988.9
99990.3
99990.5
99990.1
99989.4
99988.4
99987.3
99986
99984.7
99983.2
99981.7
99980.1
99978.4
99976.7
99974.9
99973
99971.1
99969.1
99967
99964.8
99962.5
99960.2
99957.8
99955.3
99952.7
99950
99947.3
99944.4
99941.5
99938.5
99935.3
99932.1
99928.7
99925.3
99921.7
99918
99914.2
99910.3
99906.3
99902.1
99897.9
99893.4
99888.9
99884.2
99879.3
99874.3
99869.2
99863.9
99858.4
99852.7
99846.9
99840.8
99834.6
99828.2
99821.6
99814.7
99807.6
99800.3
99792.8
99785
99776.9
99768.5
99759.8
99750.9
99741.6
99731.9
99721.9
99711.6
99700.8
99689.5
99677.8
99665.6
99652.9
99639.5
99625.6
99610.9
99595.4
99579.2
99562
99543.9
99524.7
99504.4
99482.9
99460.1
99436.1
99411
99385.2
99359.2
99334.4
99312.3
99295.1
99287.2
99295.9
99332.8
99419.7
99594.5
99924.7
100416
101052
99986.4
99989.7
99990.6
99990.5
99990
99989.1
99988.1
99986.9
99985.6
99984.3
99982.8
99981.3
99979.7
99978.1
99976.3
99974.5
99972.7
99970.7
99968.7
99966.6
99964.5
99962.3
99959.9
99957.5
99955
99952.5
99949.8
99947.1
99944.2
99941.3
99938.3
99935.2
99931.9
99928.6
99925.2
99921.6
99917.9
99914.2
99910.3
99906.3
99902.1
99897.9
99893.4
99888.9
99884.2
99879.4
99874.4
99869.3
99864
99858.5
99852.9
99847
99841
99834.8
99828.4
99821.8
99814.9
99807.9
99800.6
99793
99785.2
99777.2
99768.8
99760.2
99751.2
99741.9
99732.3
99722.3
99712
99701.2
99690
99678.3
99666.1
99653.3
99640
99626
99611.3
99595.8
99579.5
99562.2
99544
99524.7
99504.2
99482.5
99459.5
99435.2
99409.7
99383.2
99356.5
99330.5
99306.9
99287.3
99275
99276.5
99300
99362.3
99493.4
99754.9
100181
100826
99988.2
99990.6
99991
99990.5
99989.7
99988.8
99987.6
99986.4
99985.1
99983.7
99982.2
99980.7
99979.1
99977.5
99975.7
99973.9
99972
99970.1
99968.1
99966
99963.8
99961.6
99959.3
99956.9
99954.4
99951.8
99949.1
99946.4
99943.6
99940.7
99937.6
99934.5
99931.3
99928
99924.5
99921
99917.3
99913.6
99909.7
99905.7
99901.6
99897.3
99892.9
99888.4
99883.8
99879
99874
99868.9
99863.6
99858.2
99852.6
99846.8
99840.8
99834.6
99828.2
99821.7
99814.9
99807.8
99800.6
99793.1
99785.3
99777.3
99769
99760.3
99751.4
99742.2
99732.6
99722.7
99712.3
99701.6
99690.4
99678.7
99666.5
99653.8
99640.5
99626.5
99611.7
99596.2
99579.9
99562.6
99544.2
99524.8
99504.2
99482.3
99459.1
99434.5
99408.6
99381.5
99353.8
99326.4
99300.8
99278.5
99262.2
99255.1
99263.4
99298
99379.2
99555.5
99882
100514
99990.3
99991.6
99991.4
99990.5
99989.5
99988.4
99987.2
99985.9
99984.6
99983.2
99981.7
99980.1
99978.5
99976.8
99975.1
99973.3
99971.4
99969.4
99967.4
99965.3
99963.1
99960.8
99958.5
99956.1
99953.6
99951
99948.3
99945.6
99942.7
99939.8
99936.8
99933.6
99930.4
99927
99923.6
99920
99916.4
99912.6
99908.7
99904.7
99900.6
99896.3
99891.9
99887.4
99882.8
99878
99873
99867.9
99862.7
99857.2
99851.6
99845.9
99839.9
99833.8
99827.4
99820.9
99814.1
99807.1
99799.9
99792.5
99784.7
99776.8
99768.5
99759.9
99751.1
99741.9
99732.4
99722.5
99712.2
99701.5
99690.4
99678.7
99666.6
99653.9
99640.6
99626.6
99611.9
99596.4
99580
99562.7
99544.3
99524.9
99504.2
99482.2
99458.8
99433.9
99407.6
99379.9
99351.3
99322.4
99294.6
99269.5
99248.8
99234.1
99228
99235.8
99267.4
99350.8
99538.5
100107
99992.5
99992.6
99991.8
99990.6
99989.4
99988.2
99987
99985.6
99984.2
99982.8
99981.3
99979.7
99978.1
99976.4
99974.7
99972.8
99970.9
99969
99966.9
99964.8
99962.6
99960.3
99958
99955.5
99953
99950.4
99947.7
99944.9
99942.1
99939.1
99936
99932.9
99929.6
99926.2
99922.8
99919.2
99915.5
99911.7
99907.8
99903.8
99899.6
99895.3
99890.9
99886.4
99881.7
99876.8
99871.9
99866.7
99861.5
99856
99850.4
99844.6
99838.6
99832.5
99826.1
99819.6
99812.8
99805.8
99798.6
99791.1
99783.4
99775.4
99767.2
99758.6
99749.8
99740.6
99731.1
99721.3
99711
99700.4
99689.3
99677.8
99665.7
99653
99639.8
99625.9
99611.2
99595.8
99579.4
99562.2
99543.8
99524.3
99503.6
99481.5
99458
99433
99406.3
99378.2
99348.7
99318.5
99288.7
99260.8
99236.4
99216.1
99198.6
99184
99173.5
99169.7
99184.2
99590.8
99994.4
99993.5
99992.2
99990.9
99989.6
99988.3
99986.9
99985.6
99984.2
99982.8
99981.2
99979.7
99978
99976.3
99974.6
99972.7
99970.8
99968.8
99966.8
99964.7
99962.5
99960.2
99957.8
99955.4
99952.8
99950.2
99947.5
99944.7
99941.8
99938.8
99935.7
99932.5
99929.2
99925.8
99922.4
99918.8
99915.1
99911.2
99907.3
99903.3
99899.1
99894.8
99890.3
99885.8
99881.1
99876.2
99871.2
99866
99860.7
99855.2
99849.6
99843.7
99837.7
99831.5
99825.1
99818.5
99811.6
99804.6
99797.3
99789.8
99782.1
99774
99765.8
99757.2
99748.3
99739.1
99729.5
99719.6
99709.3
99698.6
99687.5
99675.9
99663.8
99651.1
99637.9
99623.9
99609.2
99593.8
99577.4
99560.1
99541.7
99522.2
99501.5
99479.4
99455.8
99430.7
99403.9
99375.5
99345.4
99314.2
99282.9
99253.1
99226
99202.9
99178.4
99148.6
99108.4
99038.6
98869.7
98936.4
99995.9
99994.3
99992.7
99991.2
99989.8
99988.5
99987.2
99985.8
99984.4
99983
99981.4
99979.9
99978.2
99976.5
99974.8
99972.9
99971
99969
99967
99964.9
99962.7
99960.4
99958
99955.6
99953
99950.4
99947.7
99944.9
99942
99939
99935.9
99932.7
99929.4
99926
99922.5
99919
99915.2
99911.4
99907.5
99903.4
99899.2
99894.9
99890.5
99885.9
99881.2
99876.3
99871.3
99866.1
99860.8
99855.3
99849.6
99843.7
99837.7
99831.4
99825
99818.3
99811.4
99804.4
99797
99789.5
99781.7
99773.6
99765.3
99756.7
99747.7
99738.4
99728.8
99718.9
99708.5
99697.8
99686.6
99674.9
99662.7
99650
99636.6
99622.5
99607.7
99592.1
99575.6
99558.1
99539.6
99519.9
99498.9
99476.5
99452.7
99427.2
99400.1
99371.1
99340.4
99308.2
99275.6
99243.9
99214.5
99188.5
99164.2
99130.7
99074.6
98966.1
98652.9
98060.2
99997.6
99995
99993.2
99991.6
99990.2
99988.9
99987.6
99986.2
99984.8
99983.3
99981.8
99980.3
99978.6
99976.9
99975.2
99973.3
99971.4
99969.5
99967.4
99965.3
99963.1
99960.8
99958.5
99956
99953.5
99950.9
99948.2
99945.4
99942.5
99939.5
99936.4
99933.2
99930
99926.6
99923.1
99919.5
99915.8
99912
99908
99904
99899.8
99895.5
99891.1
99886.5
99881.8
99876.9
99871.9
99866.7
99861.4
99855.9
99850.2
99844.4
99838.3
99832.1
99825.7
99819
99812.1
99805.1
99797.7
99790.2
99782.4
99774.3
99765.9
99757.2
99748.3
99739
99729.4
99719.4
99709.1
99698.3
99687.1
99675.4
99663.2
99650.4
99637
99623
99608.1
99592.5
99576
99558.4
99539.9
99520.1
99499.1
99476.7
99452.8
99427.3
99400
99370.9
99339.9
99307.6
99274.9
99243.4
99213.9
99187.1
99152.4
99114.2
99054.1
98934
98552.3
96886.7
100562
101838
102380
102690
102902
103061
103185
103286
103368
103435
103490
103535
103572
103601
103623
103640
103651
103657
103658
103654
100516
101542
102176
102576
102843
103035
103179
103292
103382
103454
103512
103559
103596
103624
103646
103661
103670
103673
103672
103665
100804
101574
102118
102516
102802
103013
103172
103294
103391
103467
103528
103575
103612
103640
103660
103674
103682
103684
103682
103671
101080
101707
102168
102529
102806
103018
103182
103309
103409
103487
103548
103596
103631
103658
103676
103688
103694
103694
103691
103675
101317
101848
102252
102578
102838
103043
103205
103332
103432
103511
103571
103617
103652
103676
103692
103701
103705
103704
103699
103678
101516
101980
102342
102641
102883
103079
103236
103361
103460
103537
103596
103640
103672
103694
103708
103714
103716
103713
103705
103680
101677
102093
102425
102703
102932
103119
103270
103392
103488
103563
103620
103662
103692
103711
103722
103726
103725
103721
103710
103682
101799
102181
102493
102756
102975
103155
103302
103420
103514
103588
103643
103684
103711
103728
103735
103737
103733
103727
103713
103683
101880
102241
102541
102795
103008
103184
103329
103445
103538
103610
103664
103703
103728
103742
103747
103746
103741
103732
103715
103686
101924
102276
102571
102820
103030
103204
103347
103463
103555
103626
103679
103716
103740
103752
103755
103753
103746
103736
103716
103691
101921
102273
102568
102817
103027
103202
103345
103461
103553
103624
103677
103715
103739
103751
103754
103752
103745
103735
103717
103690
101869
102231
102532
102786
103000
103176
103321
103438
103532
103604
103659
103698
103724
103739
103744
103744
103739
103730
103714
103689
101780
102164
102477
102741
102962
103143
103291
103410
103506
103580
103637
103678
103706
103724
103732
103734
103731
103725
103711
103688
101651
102069
102403
102683
102914
103103
103256
103379
103477
103553
103612
103656
103687
103707
103718
103723
103723
103718
103708
103685
101483
101950
102315
102616
102861
103060
103219
103346
103447
103525
103586
103632
103666
103689
103703
103711
103713
103710
103703
103681
101278
101813
102220
102549
102812
103021
103185
103315
103418
103498
103561
103609
103645
103670
103688
103698
103702
103701
103697
103678
101036
101667
102132
102497
102779
102994
103161
103291
103393
103474
103537
103586
103624
103652
103671
103684
103690
103692
103689
103675
100755
101529
102080
102483
102774
102988
103150
103276
103375
103453
103516
103565
103604
103633
103655
103669
103678
103681
103680
103670
100461
101495
102137
102542
102814
103010
103158
103274
103366
103440
103500
103549
103587
103617
103640
103656
103666
103670
103670
103664
100505
101793
102343
102658
102874
103036
103163
103266
103351
103420
103477
103524
103562
103593
103617
103634
103646
103653
103655
103652
103497
103495
103494
103493
103492
103492
103491
103491
103491
103491
103491
103491
103491
103491
103492
103492
103493
103494
103495
103497
103494
103492
103491
103491
103491
103490
103490
103490
103490
103490
103490
103490
103490
103490
103490
103491
103491
103491
103492
103494
103493
103491
103491
103491
103491
103491
103491
103491
103491
103491
103491
103491
103491
103491
103491
103491
103491
103491
103491
103493
103493
103491
103491
103491
103491
103491
103491
103491
103491
103491
103491
103491
103491
103491
103491
103491
103491
103491
103491
103493
103493
103491
103491
103491
103490
103490
103490
103490
103490
103490
103490
103490
103490
103490
103490
103490
103491
103491
103491
103493
103492
103490
103490
103490
103490
103490
103490
103490
103490
103490
103490
103490
103490
103490
103490
103490
103490
103490
103490
103492
103491
103490
103490
103489
103489
103489
103489
103489
103489
103489
103489
103489
103489
103489
103489
103489
103489
103490
103490
103491
103491
103489
103489
103489
103489
103489
103489
103489
103489
103489
103489
103489
103489
103489
103489
103489
103489
103489
103489
103491
103490
103488
103488
103488
103488
103488
103488
103488
103488
103488
103488
103488
103488
103488
103488
103488
103488
103488
103488
103490
103489
103488
103488
103488
103487
103487
103487
103487
103487
103487
103487
103487
103487
103487
103487
103487
103488
103488
103488
103489
103489
103487
103487
103487
103487
103487
103487
103487
103487
103487
103487
103487
103487
103487
103487
103487
103487
103487
103487
103489
103488
103486
103486
103486
103486
103486
103486
103486
103486
103486
103486
103486
103486
103486
103486
103486
103486
103486
103486
103488
103487
103486
103485
103485
103485
103485
103485
103485
103485
103485
103485
103485
103485
103485
103485
103485
103485
103485
103486
103487
103486
103485
103485
103485
103485
103484
103484
103484
103484
103484
103484
103484
103484
103484
103484
103485
103485
103485
103485
103486
103486
103484
103484
103484
103484
103484
103484
103484
103484
103484
103484
103484
103484
103484
103484
103484
103484
103484
103484
103486
103485
103483
103483
103483
103483
103483
103483
103483
103483
103483
103483
103483
103483
103483
103483
103483
103483
103483
103483
103485
103484
103483
103482
103482
103482
103482
103482
103482
103482
103482
103482
103482
103482
103482
103482
103482
103482
103482
103483
103484
103483
103482
103482
103482
103482
103481
103481
103481
103481
103481
103481
103481
103481
103481
103481
103482
103482
103482
103482
103483
103482
103481
103481
103481
103481
103481
103481
103481
103481
103481
103481
103481
103481
103481
103481
103481
103481
103481
103481
103482
103482
103480
103480
103480
103480
103480
103480
103480
103480
103480
103480
103480
103480
103480
103480
103480
103480
103480
103480
103482
103481
103479
103479
103479
103479
103479
103479
103479
103479
103479
103479
103479
103479
103479
103479
103479
103479
103479
103479
103481
103480
103479
103479
103478
103478
103478
103478
103478
103478
103478
103478
103478
103478
103478
103478
103478
103478
103479
103479
103480
103479
103478
103478
103478
103478
103478
103477
103477
103477
103477
103477
103477
103477
103477
103478
103478
103478
103478
103478
103479
103478
103477
103477
103477
103477
103477
103477
103477
103477
103477
103477
103477
103477
103477
103477
103477
103477
103477
103477
103478
103477
103476
103476
103476
103476
103476
103476
103476
103476
103476
103476
103476
103476
103476
103476
103476
103476
103476
103476
103477
103477
103475
103475
103475
103475
103475
103475
103475
103475
103475
103475
103475
103475
103475
103475
103475
103475
103475
103475
103477
103476
103475
103474
103474
103474
103474
103474
103474
103474
103474
103474
103474
103474
103474
103474
103474
103474
103474
103475
103476
103475
103474
103474
103474
103474
103474
103473
103473
103473
103473
103473
103473
103473
103473
103474
103474
103474
103474
103474
103475
103474
103473
103473
103473
103473
103473
103473
103473
103473
103473
103473
103473
103473
103473
103473
103473
103473
103473
103473
103474
103473
103472
103472
103472
103472
103472
103472
103472
103472
103472
103472
103472
103472
103472
103472
103472
103472
103472
103472
103473
103472
103471
103471
103471
103471
103471
103471
103471
103471
103471
103471
103471
103471
103471
103471
103471
103471
103471
103471
103472
103471
103471
103470
103470
103470
103470
103470
103470
103470
103470
103470
103470
103470
103470
103470
103470
103470
103470
103471
103471
103471
103470
103470
103470
103470
103470
103469
103469
103469
103469
103469
103469
103469
103469
103470
103470
103470
103470
103470
103471
103470
103469
103469
103469
103469
103469
103469
103469
103469
103469
103469
103469
103469
103469
103469
103469
103469
103469
103469
103470
103469
103468
103468
103468
103468
103468
103468
103468
103468
103468
103468
103468
103468
103468
103468
103468
103468
103468
103468
103469
103468
103467
103467
103467
103467
103467
103467
103467
103467
103467
103467
103467
103467
103467
103467
103467
103467
103467
103467
103468
103467
103467
103467
103466
103466
103466
103466
103466
103466
103466
103466
103466
103466
103466
103466
103466
103466
103467
103467
103467
103466
103466
103466
103466
103466
103466
103466
103466
103466
103466
103466
103466
103466
103466
103466
103466
103466
103466
103466
103466
103466
103465
103465
103465
103465
103465
103465
103465
103465
103465
103465
103465
103465
103465
103465
103465
103465
103465
103465
103466
103465
103464
103464
103464
103464
103464
103464
103464
103464
103464
103464
103464
103464
103464
103464
103464
103464
103464
103464
103465
103464
103464
103463
103463
103463
103463
103463
103463
103463
103463
103463
103463
103463
103463
103463
103463
103463
103463
103464
103464
103463
103463
103463
103463
103463
103463
103463
103462
103462
103462
103462
103462
103462
103463
103463
103463
103463
103463
103463
103463
103462
103462
103462
103462
103462
103462
103462
103462
103462
103462
103462
103462
103462
103462
103462
103462
103462
103462
103462
103462
103462
103461
103461
103461
103461
103461
103461
103461
103461
103461
103461
103461
103461
103461
103461
103461
103461
103461
103461
103462
103461
103461
103460
103460
103460
103460
103460
103460
103460
103460
103460
103460
103460
103460
103460
103460
103460
103460
103461
103461
103460
103460
103460
103460
103460
103460
103460
103460
103460
103459
103459
103460
103460
103460
103460
103460
103460
103460
103460
103460
103459
103459
103459
103459
103459
103459
103459
103459
103459
103459
103459
103459
103459
103459
103459
103459
103459
103459
103459
103459
103459
103458
103458
103458
103458
103458
103458
103458
103458
103458
103458
103458
103458
103458
103458
103458
103458
103458
103458
103459
103458
103458
103458
103457
103457
103457
103457
103457
103457
103457
103457
103457
103457
103457
103457
103457
103457
103458
103458
103458
103457
103457
103457
103457
103457
103457
103457
103457
103457
103457
103457
103457
103457
103457
103457
103457
103457
103457
103457
103457
103456
103456
103456
103456
103456
103456
103456
103456
103456
103456
103456
103456
103456
103456
103456
103456
103456
103456
103456
103456
103456
103455
103455
103455
103455
103455
103455
103455
103455
103455
103455
103455
103455
103455
103455
103455
103455
103455
103455
103456
103455
103455
103455
103455
103455
103455
103455
103454
103454
103454
103454
103454
103454
103455
103455
103455
103455
103455
103455
103455
103454
103454
103454
103454
103454
103454
103454
103454
103454
103454
103454
103454
103454
103454
103454
103454
103454
103454
103454
103454
103454
103453
103453
103453
103453
103453
103453
103453
103453
103453
103453
103453
103453
103453
103453
103453
103453
103453
103453
103454
103453
103453
103453
103453
103452
103452
103452
103452
103452
103452
103452
103452
103452
103452
103452
103452
103453
103453
103453
103453
103452
103452
103452
103452
103452
103452
103452
103452
103452
103452
103452
103452
103452
103452
103452
103452
103452
103452
103452
103452
103451
103451
103451
103451
103451
103451
103451
103451
103451
103451
103451
103451
103451
103451
103451
103451
103451
103451
103451
103451
103451
103451
103451
103450
103450
103450
103450
103450
103450
103450
103450
103450
103450
103450
103450
103450
103450
103451
103451
103451
103450
103450
103450
103450
103450
103450
103450
103450
103450
103450
103450
103450
103450
103450
103450
103450
103450
103450
103450
103450
103449
103449
103449
103449
103449
103449
103449
103449
103449
103449
103449
103449
103449
103449
103449
103449
103449
103449
103449
103449
103449
103449
103448
103448
103448
103448
103448
103448
103448
103448
103448
103448
103448
103448
103448
103448
103448
103449
103449
103449
103448
103448
103448
103448
103448
103448
103448
103448
103448
103448
103448
103448
103448
103448
103448
103448
103448
103448
103448
103448
103447
103447
103447
103447
103447
103447
103447
103447
103447
103447
103447
103447
103447
103447
103447
103447
103447
103447
103447
103447
103447
103447
103447
103446
103446
103446
103446
103446
103446
103446
103446
103446
103446
103446
103446
103446
103447
103447
103447
103447
103446
103446
103446
103446
103446
103446
103446
103446
103446
103446
103446
103446
103446
103446
103446
103446
103446
103446
103446
103446
103445
103445
103445
103445
103445
103445
103445
103445
103445
103445
103445
103445
103445
103445
103445
103445
103445
103445
103445
103445
103445
103445
103445
103444
103444
103444
103444
103444
103444
103444
103444
103444
103444
103444
103445
103445
103445
103445
103445
103445
103444
103444
103444
103444
103444
103444
103444
103444
103444
103444
103444
103444
103444
103444
103444
103444
103444
103444
103444
103444
103443
103443
103443
103443
103443
103443
103443
103443
103443
103443
103443
103443
103443
103443
103443
103443
103443
103443
103444
103444
103443
103443
103443
103442
103442
103442
103442
103442
103442
103442
103443
103443
103443
103443
103443
103443
103443
103443
103443
103443
103442
103442
103442
103442
103442
103442
103442
103442
103442
103442
103442
103442
103442
103442
103442
103442
103442
103442
103442
103442
103441
103441
103441
103441
103441
103441
103441
103441
103441
103441
103441
103441
103441
103441
103442
103442
103442
103442
103442
103442
103440
103440
103440
103440
103440
103440
103440
103440
103441
103441
103441
103441
103441
103441
103441
103441
103441
103441
103441
103441
103440
103440
103440
103440
103440
103440
103440
103440
103440
103440
103440
103440
103440
103440
103440
103440
103441
103441
103441
103441
103439
103439
103439
103439
103439
103439
103439
103439
103439
103439
103439
103440
103440
103440
103440
103440
103440
103440
103440
103440
103438
103438
103438
103438
103438
103438
103438
103438
103439
103439
103439
103439
103439
103439
103439
103440
103440
103440
103440