/*--------------------------------*- C++ -*----------------------------------*\
| =========                 |                                                 |
| \\      /  F ield         | OpenFOAM: The Open Source CFD Toolbox           |
|  \\    /   O peration     | Version:  2.1.0                                 |
|   \\  /    A nd           | Web:      www.OpenFOAM.org                      |
|    \\/     M anipulation  |                                                 |
\*---------------------------------------------------------------------------*/
FoamFile
{
    version     2.0;
    format      ascii;
    class       surfaceScalarField;
    location    "0.36";
    object      phi;
}
// * * * * * * * * * * * * * * * * * * * * * * * * * * * * * * * * * * * * * //

dimensions      [0 3 -1 0 0 0 0];

internalField   nonuniform List<scalar> 
12460
(
-2.58897e-05
-4.92982e-09
-2.58592e-05
-4.24521e-08
-2.58059e-05
-6.50793e-08
-2.57407e-05
-7.66642e-08
-2.56683e-05
-8.36072e-08
-2.55909e-05
-8.83088e-08
-2.55099e-05
-9.17157e-08
-2.54259e-05
-9.43924e-08
-2.53394e-05
-9.66471e-08
-2.52507e-05
-9.8665e-08
-2.51599e-05
-1.00558e-07
-2.5067e-05
-1.02386e-07
-2.4972e-05
-1.04189e-07
-2.4875e-05
-1.05983e-07
-2.4776e-05
-1.0779e-07
-2.4675e-05
-1.09608e-07
-2.45718e-05
-1.11453e-07
-2.44666e-05
-1.13318e-07
-2.43592e-05
-1.15211e-07
-2.42497e-05
-1.17119e-07
-2.41381e-05
-1.19063e-07
-2.40242e-05
-1.21042e-07
-2.39082e-05
-1.23057e-07
-2.37899e-05
-1.25072e-07
-2.36693e-05
-1.27172e-07
-2.35462e-05
-1.29387e-07
-2.34207e-05
-1.31681e-07
-2.32927e-05
-1.34039e-07
-2.3162e-05
-1.36472e-07
-2.30286e-05
-1.38981e-07
-2.28924e-05
-1.41577e-07
-2.27533e-05
-1.44262e-07
-2.26113e-05
-1.47048e-07
-2.24662e-05
-1.49941e-07
-2.2318e-05
-1.5295e-07
-2.21664e-05
-1.56074e-07
-2.20114e-05
-1.59328e-07
-2.18529e-05
-1.62712e-07
-2.16907e-05
-1.66238e-07
-2.15246e-05
-1.69921e-07
-2.13546e-05
-1.73772e-07
-2.11804e-05
-1.77795e-07
-2.10018e-05
-1.81996e-07
-2.08187e-05
-1.86384e-07
-2.06309e-05
-1.90961e-07
-2.04382e-05
-1.95728e-07
-2.02404e-05
-2.00686e-07
-2.00373e-05
-2.05822e-07
-1.98288e-05
-2.11126e-07
-1.96147e-05
-2.1664e-07
-1.9395e-05
-2.22129e-07
-1.91695e-05
-2.27787e-07
-1.89377e-05
-2.33964e-07
-1.86993e-05
-2.40446e-07
-1.84542e-05
-2.4708e-07
-1.82025e-05
-2.5355e-07
-1.79445e-05
-2.5978e-07
-1.76803e-05
-2.65941e-07
-1.74097e-05
-2.72185e-07
-1.71327e-05
-2.78575e-07
-1.6849e-05
-2.85155e-07
-1.65584e-05
-2.91919e-07
-1.62608e-05
-2.98912e-07
-1.59559e-05
-3.06172e-07
-1.56433e-05
-3.13715e-07
-1.53229e-05
-3.21584e-07
-1.49941e-05
-3.29812e-07
-1.46566e-05
-3.38458e-07
-1.431e-05
-3.47555e-07
-1.39537e-05
-3.57132e-07
-1.35873e-05
-3.67225e-07
-1.32101e-05
-3.77882e-07
-1.28217e-05
-3.89144e-07
-1.24212e-05
-4.01082e-07
-1.20081e-05
-4.1377e-07
-1.15813e-05
-4.27312e-07
-1.114e-05
-4.41842e-07
-1.06829e-05
-4.57528e-07
-1.02087e-05
-4.74609e-07
-9.71565e-06
-4.93434e-07
-9.20156e-06
-5.14429e-07
-8.66373e-06
-5.38128e-07
-8.09879e-06
-5.65208e-07
-7.50261e-06
-5.96398e-07
-6.87056e-06
-6.32226e-07
-6.19783e-06
-6.72864e-07
-5.47998e-06
-7.17922e-07
-4.71421e-06
-7.65791e-07
-3.90167e-06
-8.12481e-07
-3.05225e-06
-8.49274e-07
-2.1936e-06
-8.58405e-07
-1.38862e-06
-8.04633e-07
-7.41816e-07
-6.46381e-07
-3.59165e-07
-3.82351e-07
-2.80273e-07
-7.93682e-08
-5.32828e-07
2.50887e-07
-1.42601e-06
8.91197e-07
-3.71928e-06
2.29288e-06
-9.29003e-06
5.57073e-06
1.54963e-05
-2.47864e-05
-3.12328e-05
-2.56573e-08
-3.11916e-05
-9.63632e-08
-3.1135e-05
-1.34246e-07
-3.10689e-05
-1.54981e-07
-3.09968e-05
-1.67774e-07
-3.09203e-05
-1.76457e-07
-3.08407e-05
-1.82752e-07
-3.07586e-05
-1.87688e-07
-3.06743e-05
-1.91844e-07
-3.0588e-05
-1.95559e-07
-3.04999e-05
-1.99046e-07
-3.041e-05
-2.0241e-07
-3.03183e-05
-2.05737e-07
-3.02249e-05
-2.09052e-07
-3.01296e-05
-2.12401e-07
-3.00325e-05
-2.15779e-07
-2.99336e-05
-2.19218e-07
-2.98328e-05
-2.22702e-07
-2.97302e-05
-2.26246e-07
-2.96256e-05
-2.29822e-07
-2.95191e-05
-2.3346e-07
-2.94107e-05
-2.37157e-07
-2.93003e-05
-2.40915e-07
-2.9188e-05
-2.44612e-07
-2.90738e-05
-2.4841e-07
-2.89575e-05
-2.52401e-07
-2.88393e-05
-2.56486e-07
-2.87191e-05
-2.60665e-07
-2.85968e-05
-2.64954e-07
-2.84724e-05
-2.6936e-07
-2.83459e-05
-2.73899e-07
-2.82172e-05
-2.78578e-07
-2.80862e-05
-2.83412e-07
-2.7953e-05
-2.8841e-07
-2.78174e-05
-2.93586e-07
-2.76794e-05
-2.98944e-07
-2.7539e-05
-3.04504e-07
-2.7396e-05
-3.10276e-07
-2.72503e-05
-3.1626e-07
-2.7102e-05
-3.22482e-07
-2.69509e-05
-3.28963e-07
-2.67969e-05
-3.35711e-07
-2.66399e-05
-3.4274e-07
-2.64799e-05
-3.5007e-07
-2.63166e-05
-3.57711e-07
-2.61501e-05
-3.65675e-07
-2.598e-05
-3.73977e-07
-2.58064e-05
-3.82616e-07
-2.56289e-05
-3.9159e-07
-2.54475e-05
-4.00955e-07
-2.52619e-05
-4.10488e-07
-2.50723e-05
-4.20012e-07
-2.48792e-05
-4.29615e-07
-2.46829e-05
-4.3926e-07
-2.44833e-05
-4.48996e-07
-2.42804e-05
-4.58777e-07
-2.40739e-05
-4.68482e-07
-2.38638e-05
-4.78161e-07
-2.36501e-05
-4.87955e-07
-2.34327e-05
-4.97945e-07
-2.32116e-05
-5.08192e-07
-2.29866e-05
-5.187e-07
-2.27578e-05
-5.29492e-07
-2.25251e-05
-5.40595e-07
-2.22884e-05
-5.52043e-07
-2.20477e-05
-5.63892e-07
-2.18029e-05
-5.76197e-07
-2.15538e-05
-5.89028e-07
-2.13004e-05
-6.02463e-07
-2.10424e-05
-6.16573e-07
-2.07795e-05
-6.31443e-07
-2.05116e-05
-6.47179e-07
-2.02382e-05
-6.6388e-07
-1.99588e-05
-6.81702e-07
-1.9673e-05
-7.00814e-07
-1.93801e-05
-7.21428e-07
-1.90794e-05
-7.4381e-07
-1.87698e-05
-7.68267e-07
-1.84504e-05
-7.952e-07
-1.81198e-05
-8.25163e-07
-1.77766e-05
-8.58798e-07
-1.7419e-05
-8.96831e-07
-1.70453e-05
-9.40133e-07
-1.66532e-05
-9.89638e-07
-1.62406e-05
-1.04604e-06
-1.58052e-05
-1.10945e-06
-1.53454e-05
-1.17898e-06
-1.48608e-05
-1.25177e-06
-1.43533e-05
-1.32143e-06
-1.38291e-05
-1.37512e-06
-1.33007e-05
-1.3888e-06
-1.27867e-05
-1.32113e-06
-1.23225e-05
-1.11362e-06
-1.19883e-05
-7.20205e-07
-1.20504e-05
-2.09429e-08
-1.25826e-05
7.80388e-07
-1.3954e-05
2.26081e-06
-1.66812e-05
5.01975e-06
-2.18041e-05
1.06937e-05
2.65641e-05
-3.28719e-05
-3.42379e-05
-5.38909e-08
-3.42033e-05
-1.43645e-07
-3.41566e-05
-1.93613e-07
-3.41019e-05
-2.21991e-07
-3.40421e-05
-2.39645e-07
-3.39788e-05
-2.51582e-07
-3.39129e-05
-2.6014e-07
-3.38451e-05
-2.66812e-07
-3.37755e-05
-2.7235e-07
-3.37045e-05
-2.77284e-07
-3.36322e-05
-2.81861e-07
-3.35585e-05
-2.86277e-07
-3.34836e-05
-2.90616e-07
-3.34074e-05
-2.94951e-07
-3.333e-05
-2.99318e-07
-3.32512e-05
-3.03745e-07
-3.31712e-05
-3.08252e-07
-3.30898e-05
-3.12853e-07
-3.30069e-05
-3.17556e-07
-3.29227e-05
-3.22342e-07
-3.28369e-05
-3.27253e-07
-3.27496e-05
-3.32305e-07
-3.26606e-05
-3.37502e-07
-3.25699e-05
-3.42695e-07
-3.24776e-05
-3.47866e-07
-3.23838e-05
-3.53057e-07
-3.22888e-05
-3.58274e-07
-3.21924e-05
-3.63567e-07
-3.20947e-05
-3.68965e-07
-3.19957e-05
-3.74484e-07
-3.18954e-05
-3.80138e-07
-3.17938e-05
-3.85938e-07
-3.16909e-05
-3.91895e-07
-3.15867e-05
-3.9802e-07
-3.14812e-05
-4.04325e-07
-3.13743e-05
-4.10806e-07
-3.12662e-05
-4.17482e-07
-3.11568e-05
-4.24376e-07
-3.10462e-05
-4.31468e-07
-3.09343e-05
-4.38776e-07
-3.08212e-05
-4.46324e-07
-3.07068e-05
-4.54113e-07
-3.05914e-05
-4.62152e-07
-3.04748e-05
-4.70454e-07
-3.03572e-05
-4.79027e-07
-3.02385e-05
-4.87873e-07
-3.01189e-05
-4.97005e-07
-2.99984e-05
-5.06417e-07
-2.9877e-05
-5.16097e-07
-2.97551e-05
-5.25982e-07
-2.96325e-05
-5.36032e-07
-2.95092e-05
-5.46129e-07
-2.93855e-05
-5.56056e-07
-2.92617e-05
-5.65769e-07
-2.91378e-05
-5.75399e-07
-2.9014e-05
-5.85128e-07
-2.88899e-05
-5.9491e-07
-2.87657e-05
-6.04652e-07
-2.86415e-05
-6.14392e-07
-2.85174e-05
-6.24185e-07
-2.83936e-05
-6.34062e-07
-2.82703e-05
-6.44024e-07
-2.81476e-05
-6.54058e-07
-2.8026e-05
-6.64147e-07
-2.79055e-05
-6.74309e-07
-2.77866e-05
-6.84573e-07
-2.76695e-05
-6.94971e-07
-2.75547e-05
-7.05533e-07
-2.74425e-05
-7.16319e-07
-2.73332e-05
-7.27395e-07
-2.72274e-05
-7.3884e-07
-2.71253e-05
-7.50769e-07
-2.70274e-05
-7.63279e-07
-2.6934e-05
-7.76561e-07
-2.68454e-05
-7.90832e-07
-2.67619e-05
-8.06366e-07
-2.66836e-05
-8.23529e-07
-2.66105e-05
-8.42739e-07
-2.65425e-05
-8.64512e-07
-2.64795e-05
-8.8958e-07
-2.64208e-05
-9.18778e-07
-2.6366e-05
-9.52976e-07
-2.63144e-05
-9.93147e-07
-2.62651e-05
-1.04027e-06
-2.62173e-05
-1.09511e-06
-2.61704e-05
-1.15775e-06
-2.61239e-05
-1.22685e-06
-2.60784e-05
-1.29868e-06
-2.60358e-05
-1.36537e-06
-2.60004e-05
-1.41195e-06
-2.59784e-05
-1.41216e-06
-2.59778e-05
-1.32304e-06
-2.60103e-05
-1.08225e-06
-2.61203e-05
-6.11061e-07
-2.62996e-05
1.57965e-07
-2.68112e-05
1.29179e-06
-2.78355e-05
3.28495e-06
-2.97602e-05
6.94432e-06
-3.33077e-05
1.42412e-05
3.11893e-05
-3.79329e-05
-3.69568e-05
-8.16141e-08
-3.69342e-05
-1.7885e-07
-3.69042e-05
-2.36175e-07
-3.68684e-05
-2.70165e-07
-3.68285e-05
-2.91532e-07
-3.67861e-05
-3.05829e-07
-3.67418e-05
-3.15907e-07
-3.66963e-05
-3.23614e-07
-3.66498e-05
-3.29865e-07
-3.66025e-05
-3.35335e-07
-3.65546e-05
-3.40313e-07
-3.65061e-05
-3.45061e-07
-3.64571e-05
-3.49665e-07
-3.64076e-05
-3.54237e-07
-3.63577e-05
-3.58801e-07
-3.63073e-05
-3.6341e-07
-3.62566e-05
-3.68072e-07
-3.62055e-05
-3.7282e-07
-3.6154e-05
-3.77659e-07
-3.61022e-05
-3.82553e-07
-3.60501e-05
-3.87556e-07
-3.59978e-05
-3.9268e-07
-3.59452e-05
-3.97869e-07
-3.58923e-05
-4.03143e-07
-3.58391e-05
-4.08451e-07
-3.57856e-05
-4.13695e-07
-3.5732e-05
-4.18907e-07
-3.56782e-05
-4.24148e-07
-3.56243e-05
-4.29449e-07
-3.55703e-05
-4.34826e-07
-3.55164e-05
-4.4029e-07
-3.54625e-05
-4.4585e-07
-3.54087e-05
-4.51511e-07
-3.53551e-05
-4.57279e-07
-3.53018e-05
-4.63158e-07
-3.52488e-05
-4.6914e-07
-3.51962e-05
-4.75224e-07
-3.51441e-05
-4.81425e-07
-3.50927e-05
-4.87735e-07
-3.5042e-05
-4.94154e-07
-3.49921e-05
-5.00682e-07
-3.49433e-05
-5.0731e-07
-3.48956e-05
-5.14032e-07
-3.48493e-05
-5.20844e-07
-3.48045e-05
-5.27736e-07
-3.47615e-05
-5.34688e-07
-3.47205e-05
-5.41689e-07
-3.46817e-05
-5.48712e-07
-3.46455e-05
-5.55724e-07
-3.46121e-05
-5.62622e-07
-3.45819e-05
-5.69375e-07
-3.45548e-05
-5.76236e-07
-3.45306e-05
-5.83161e-07
-3.45093e-05
-5.89879e-07
-3.4491e-05
-5.96398e-07
-3.44759e-05
-6.02772e-07
-3.44644e-05
-6.08966e-07
-3.44565e-05
-6.1491e-07
-3.44525e-05
-6.20595e-07
-3.44528e-05
-6.26047e-07
-3.44577e-05
-6.31274e-07
-3.44674e-05
-6.36262e-07
-3.44824e-05
-6.40997e-07
-3.45029e-05
-6.45457e-07
-3.45292e-05
-6.49656e-07
-3.45618e-05
-6.53625e-07
-3.4601e-05
-6.57408e-07
-3.46469e-05
-6.61056e-07
-3.47e-05
-6.64652e-07
-3.47605e-05
-6.68295e-07
-3.48285e-05
-6.72108e-07
-3.49042e-05
-6.76273e-07
-3.49877e-05
-6.80989e-07
-3.50788e-05
-6.86525e-07
-3.51775e-05
-6.93218e-07
-3.52833e-05
-7.0148e-07
-3.53959e-05
-7.1183e-07
-3.55147e-05
-7.24859e-07
-3.56388e-05
-7.41182e-07
-3.57674e-05
-7.61713e-07
-3.58994e-05
-7.87455e-07
-3.60336e-05
-8.19337e-07
-3.6169e-05
-8.58358e-07
-3.63043e-05
-9.05441e-07
-3.64387e-05
-9.61184e-07
-3.65715e-05
-1.02535e-06
-3.67027e-05
-1.09607e-06
-3.68328e-05
-1.16884e-06
-3.69636e-05
-1.23493e-06
-3.70971e-05
-1.27868e-06
-3.72354e-05
-1.27396e-06
-3.73781e-05
-1.18048e-06
-3.75247e-05
-9.35813e-07
-3.7673e-05
-4.62784e-07
-3.78285e-05
3.13493e-07
-3.81255e-05
1.58869e-06
-3.86828e-05
3.84227e-06
-3.96726e-05
7.93413e-06
-4.12791e-05
1.58477e-05
3.12505e-05
-4.13402e-05
-3.97049e-05
-1.01861e-07
-3.96994e-05
-1.96705e-07
-3.96925e-05
-2.55415e-07
-3.96832e-05
-2.91551e-07
-3.96721e-05
-3.14527e-07
-3.966e-05
-3.29632e-07
-3.96472e-05
-3.40071e-07
-3.96343e-05
-3.47748e-07
-3.96213e-05
-3.53774e-07
-3.96085e-05
-3.5882e-07
-3.95961e-05
-3.63275e-07
-3.9584e-05
-3.67379e-07
-3.95724e-05
-3.71272e-07
-3.95614e-05
-3.75039e-07
-3.95511e-05
-3.78733e-07
-3.95415e-05
-3.82385e-07
-3.95327e-05
-3.86015e-07
-3.95249e-05
-3.89641e-07
-3.9518e-05
-3.93286e-07
-3.95122e-05
-3.96865e-07
-3.95077e-05
-4.00418e-07
-3.95046e-05
-4.03993e-07
-3.95029e-05
-4.07516e-07
-3.95028e-05
-4.11051e-07
-3.95041e-05
-4.14722e-07
-3.95067e-05
-4.18438e-07
-3.95107e-05
-4.22112e-07
-3.95162e-05
-4.25755e-07
-3.95231e-05
-4.29385e-07
-3.95316e-05
-4.33006e-07
-3.95417e-05
-4.3663e-07
-3.95537e-05
-4.40257e-07
-3.95675e-05
-4.43892e-07
-3.95832e-05
-4.47532e-07
-3.9601e-05
-4.51176e-07
-3.9621e-05
-4.54816e-07
-3.96433e-05
-4.58451e-07
-3.9668e-05
-4.62069e-07
-3.96952e-05
-4.65675e-07
-3.97252e-05
-4.69269e-07
-3.97579e-05
-4.72841e-07
-3.97935e-05
-4.7638e-07
-3.98323e-05
-4.79879e-07
-3.98742e-05
-4.83335e-07
-3.99195e-05
-4.86738e-07
-3.99682e-05
-4.90074e-07
-4.00205e-05
-4.93336e-07
-4.00766e-05
-4.96509e-07
-4.01364e-05
-4.99562e-07
-4.02001e-05
-5.02456e-07
-4.02677e-05
-5.05198e-07
-4.03393e-05
-5.07892e-07
-4.0415e-05
-5.10515e-07
-4.04949e-05
-5.12917e-07
-4.05791e-05
-5.1506e-07
-4.06676e-05
-5.16953e-07
-4.07605e-05
-5.18575e-07
-4.08579e-05
-5.19904e-07
-4.09599e-05
-5.20942e-07
-4.10663e-05
-5.21729e-07
-4.11773e-05
-5.22309e-07
-4.12928e-05
-5.22701e-07
-4.14127e-05
-5.22887e-07
-4.15369e-05
-5.22857e-07
-4.16654e-05
-5.22657e-07
-4.17981e-05
-5.22342e-07
-4.19349e-05
-5.21988e-07
-4.20755e-05
-5.21669e-07
-4.22198e-05
-5.21486e-07
-4.23675e-05
-5.21557e-07
-4.25185e-05
-5.22025e-07
-4.26725e-05
-5.23073e-07
-4.28294e-05
-5.24921e-07
-4.29887e-05
-5.27847e-07
-4.31503e-05
-5.32187e-07
-4.3314e-05
-5.38357e-07
-4.34794e-05
-5.46874e-07
-4.36463e-05
-5.58404e-07
-4.38144e-05
-5.73442e-07
-4.39834e-05
-5.9294e-07
-4.41532e-05
-6.1801e-07
-4.43232e-05
-6.49474e-07
-4.44935e-05
-6.88277e-07
-4.46639e-05
-7.35241e-07
-4.48343e-05
-7.90844e-07
-4.5005e-05
-8.54747e-07
-4.51763e-05
-9.24883e-07
-4.53487e-05
-9.96545e-07
-4.55226e-05
-1.0611e-06
-4.56976e-05
-1.10365e-06
-4.58714e-05
-1.1002e-06
-4.6037e-05
-1.01487e-06
-4.61796e-05
-7.93278e-07
-4.62786e-05
-3.63739e-07
-4.63375e-05
3.72397e-07
-4.63959e-05
1.64704e-06
-4.64693e-05
3.91571e-06
-4.65576e-05
8.02236e-06
-4.63365e-05
1.56266e-05
2.84222e-05
-4.35082e-05
-4.26152e-05
-1.08228e-07
-4.26313e-05
-1.9243e-07
-4.26525e-05
-2.45934e-07
-4.2676e-05
-2.79617e-07
-4.27008e-05
-3.01073e-07
-4.27267e-05
-3.14855e-07
-4.27537e-05
-3.24042e-07
-4.27818e-05
-3.30394e-07
-4.2811e-05
-3.35051e-07
-4.28415e-05
-3.38635e-07
-4.28733e-05
-3.41571e-07
-4.29065e-05
-3.44066e-07
-4.29412e-05
-3.46287e-07
-4.29775e-05
-3.48298e-07
-4.30154e-05
-3.5017e-07
-4.3055e-05
-3.51916e-07
-4.30964e-05
-3.53569e-07
-4.31396e-05
-3.55127e-07
-4.31848e-05
-3.56664e-07
-4.32321e-05
-3.58037e-07
-4.32815e-05
-3.59262e-07
-4.33331e-05
-3.60488e-07
-4.33868e-05
-3.61661e-07
-4.34428e-05
-3.62804e-07
-4.35011e-05
-3.63993e-07
-4.35618e-05
-3.65173e-07
-4.36249e-05
-3.66289e-07
-4.36904e-05
-3.67338e-07
-4.37584e-05
-3.68328e-07
-4.3829e-05
-3.69263e-07
-4.39021e-05
-3.70154e-07
-4.39779e-05
-3.71008e-07
-4.40564e-05
-3.71836e-07
-4.41375e-05
-3.72636e-07
-4.42214e-05
-3.73415e-07
-4.4308e-05
-3.74171e-07
-4.43974e-05
-3.74913e-07
-4.44896e-05
-3.75631e-07
-4.45846e-05
-3.76328e-07
-4.46823e-05
-3.77013e-07
-4.47828e-05
-3.77695e-07
-4.4886e-05
-3.78371e-07
-4.4992e-05
-3.79039e-07
-4.51006e-05
-3.79702e-07
-4.52118e-05
-3.80366e-07
-4.53256e-05
-3.81017e-07
-4.54419e-05
-3.81657e-07
-4.55606e-05
-3.82283e-07
-4.56817e-05
-3.82875e-07
-4.5805e-05
-3.83405e-07
-4.59304e-05
-3.83893e-07
-4.60579e-05
-3.84387e-07
-4.61875e-05
-3.84868e-07
-4.63189e-05
-3.85258e-07
-4.6452e-05
-3.85527e-07
-4.65868e-05
-3.85656e-07
-4.67231e-05
-3.85625e-07
-4.68609e-05
-3.85417e-07
-4.69999e-05
-3.85031e-07
-4.71401e-05
-3.84496e-07
-4.72814e-05
-3.83869e-07
-4.74237e-05
-3.83184e-07
-4.75668e-05
-3.82381e-07
-4.77107e-05
-3.81416e-07
-4.78554e-05
-3.80336e-07
-4.80008e-05
-3.79179e-07
-4.81469e-05
-3.78025e-07
-4.82936e-05
-3.76937e-07
-4.8441e-05
-3.75996e-07
-4.8589e-05
-3.7531e-07
-4.87377e-05
-3.75012e-07
-4.8887e-05
-3.75264e-07
-4.90371e-05
-3.76272e-07
-4.9188e-05
-3.78313e-07
-4.93396e-05
-3.81722e-07
-4.94922e-05
-3.86908e-07
-4.96458e-05
-3.94383e-07
-4.98003e-05
-4.0481e-07
-4.99559e-05
-4.18706e-07
-5.01129e-05
-4.36783e-07
-5.02716e-05
-4.60058e-07
-5.04322e-05
-4.89516e-07
-5.05949e-05
-5.26102e-07
-5.07601e-05
-5.70554e-07
-5.09281e-05
-6.23308e-07
-5.10991e-05
-6.84122e-07
-5.12734e-05
-7.50964e-07
-5.1451e-05
-8.19244e-07
-5.16312e-05
-8.81101e-07
-5.18117e-05
-9.23331e-07
-5.19869e-05
-9.25247e-07
-5.21452e-05
-8.56643e-07
-5.22628e-05
-6.75754e-07
-5.23104e-05
-3.16189e-07
-5.22702e-05
3.32103e-07
-5.21145e-05
1.49134e-06
-5.17615e-05
3.56263e-06
-5.10409e-05
7.3017e-06
-4.93365e-05
1.39222e-05
2.38286e-05
-4.4743e-05
-4.56035e-05
-9.90711e-08
-4.56421e-05
-1.64515e-07
-4.56911e-05
-2.07375e-07
-4.57463e-05
-2.34863e-07
-4.58053e-05
-2.52212e-07
-4.58671e-05
-2.62986e-07
-4.59312e-05
-2.6974e-07
-4.59973e-05
-2.73968e-07
-4.60651e-05
-2.76652e-07
-4.61346e-05
-2.78343e-07
-4.62058e-05
-2.79418e-07
-4.62786e-05
-2.80066e-07
-4.63532e-05
-2.80444e-07
-4.64294e-05
-2.80612e-07
-4.65073e-05
-2.80643e-07
-4.65869e-05
-2.80549e-07
-4.66682e-05
-2.80372e-07
-4.67512e-05
-2.80104e-07
-4.68359e-05
-2.79824e-07
-4.69223e-05
-2.79416e-07
-4.70103e-05
-2.78798e-07
-4.71003e-05
-2.78016e-07
-4.71921e-05
-2.77131e-07
-4.7286e-05
-2.76197e-07
-4.73818e-05
-2.75276e-07
-4.74796e-05
-2.74341e-07
-4.75794e-05
-2.73374e-07
-4.76812e-05
-2.72366e-07
-4.77848e-05
-2.71336e-07
-4.78904e-05
-2.70282e-07
-4.79978e-05
-2.69233e-07
-4.8107e-05
-2.68195e-07
-4.8218e-05
-2.672e-07
-4.83307e-05
-2.66241e-07
-4.84449e-05
-2.65347e-07
-4.85607e-05
-2.64508e-07
-4.86779e-05
-2.63747e-07
-4.87965e-05
-2.63051e-07
-4.89163e-05
-2.62449e-07
-4.90373e-05
-2.6194e-07
-4.91593e-05
-2.61532e-07
-4.92823e-05
-2.61225e-07
-4.94061e-05
-2.61022e-07
-4.95306e-05
-2.6092e-07
-4.96558e-05
-2.60927e-07
-4.97815e-05
-2.61024e-07
-4.99077e-05
-2.61204e-07
-5.00341e-05
-2.61469e-07
-5.01609e-05
-2.61797e-07
-5.02877e-05
-2.62154e-07
-5.04147e-05
-2.62546e-07
-5.05417e-05
-2.63002e-07
-5.06687e-05
-2.63483e-07
-5.07956e-05
-2.63925e-07
-5.09224e-05
-2.64295e-07
-5.1049e-05
-2.6456e-07
-5.11754e-05
-2.64683e-07
-5.13017e-05
-2.64633e-07
-5.14278e-05
-2.64395e-07
-5.15538e-05
-2.63969e-07
-5.16796e-05
-2.63421e-07
-5.18053e-05
-2.62814e-07
-5.1931e-05
-2.62035e-07
-5.20567e-05
-2.60962e-07
-5.21825e-05
-2.59662e-07
-5.23086e-05
-2.58175e-07
-5.24351e-05
-2.56565e-07
-5.25621e-05
-2.54887e-07
-5.26898e-05
-2.53211e-07
-5.28182e-05
-2.51628e-07
-5.29477e-05
-2.5026e-07
-5.30782e-05
-2.49255e-07
-5.32101e-05
-2.48815e-07
-5.33435e-05
-2.49197e-07
-5.34787e-05
-2.50732e-07
-5.36159e-05
-2.53819e-07
-5.37552e-05
-2.58934e-07
-5.38972e-05
-2.66604e-07
-5.4042e-05
-2.77599e-07
-5.41895e-05
-2.92747e-07
-5.434e-05
-3.12797e-07
-5.44941e-05
-3.3864e-07
-5.4652e-05
-3.71185e-07
-5.48143e-05
-4.11087e-07
-5.49815e-05
-4.58729e-07
-5.51539e-05
-5.14205e-07
-5.53313e-05
-5.75817e-07
-5.55135e-05
-6.39194e-07
-5.56987e-05
-6.97838e-07
-5.58828e-05
-7.40917e-07
-5.60577e-05
-7.51924e-07
-5.62085e-05
-7.07155e-07
-5.63072e-05
-5.78084e-07
-5.6315e-05
-3.09247e-07
-5.61863e-05
2.02791e-07
-5.58473e-05
1.15175e-06
-5.51312e-05
2.84582e-06
-5.37291e-05
5.89871e-06
-5.09171e-05
1.1109e-05
1.82109e-05
-4.5301e-05
-4.8272e-05
-7.74692e-08
-4.83255e-05
-1.19835e-07
-4.83918e-05
-1.49714e-07
-4.84662e-05
-1.68899e-07
-4.85458e-05
-1.80842e-07
-4.86288e-05
-1.88003e-07
-4.87143e-05
-1.92154e-07
-4.88016e-05
-1.94406e-07
-4.88903e-05
-1.95457e-07
-4.89802e-05
-1.95736e-07
-4.90713e-05
-1.95517e-07
-4.91635e-05
-1.94953e-07
-4.92566e-05
-1.9416e-07
-4.93508e-05
-1.93194e-07
-4.94459e-05
-1.92115e-07
-4.9542e-05
-1.90936e-07
-4.9639e-05
-1.8969e-07
-4.9737e-05
-1.88371e-07
-4.98361e-05
-1.86944e-07
-4.99361e-05
-1.8546e-07
-5.00368e-05
-1.83984e-07
-5.01383e-05
-1.82407e-07
-5.02404e-05
-1.80763e-07
-5.03432e-05
-1.79119e-07
-5.04466e-05
-1.77528e-07
-5.05505e-05
-1.75971e-07
-5.06549e-05
-1.74461e-07
-5.07597e-05
-1.72976e-07
-5.08649e-05
-1.71551e-07
-5.09704e-05
-1.70157e-07
-5.10761e-05
-1.6885e-07
-5.11821e-05
-1.67603e-07
-5.12881e-05
-1.66482e-07
-5.13942e-05
-1.65445e-07
-5.15003e-05
-1.6455e-07
-5.16064e-05
-1.63759e-07
-5.17124e-05
-1.63105e-07
-5.18182e-05
-1.6256e-07
-5.1924e-05
-1.62156e-07
-5.20295e-05
-1.61888e-07
-5.21348e-05
-1.61748e-07
-5.22398e-05
-1.61733e-07
-5.23447e-05
-1.61837e-07
-5.24493e-05
-1.62053e-07
-5.25536e-05
-1.62381e-07
-5.26578e-05
-1.62797e-07
-5.27617e-05
-1.63282e-07
-5.28654e-05
-1.6383e-07
-5.2969e-05
-1.64422e-07
-5.30724e-05
-1.65027e-07
-5.31758e-05
-1.65624e-07
-5.32792e-05
-1.66219e-07
-5.33826e-05
-1.66781e-07
-5.34861e-05
-1.67251e-07
-5.35898e-05
-1.67589e-07
-5.36937e-05
-1.67758e-07
-5.37979e-05
-1.67717e-07
-5.39026e-05
-1.67428e-07
-5.40077e-05
-1.66867e-07
-5.41134e-05
-1.66012e-07
-5.42198e-05
-1.64926e-07
-5.43269e-05
-1.63769e-07
-5.44347e-05
-1.62388e-07
-5.45436e-05
-1.6051e-07
-5.46536e-05
-1.58241e-07
-5.47648e-05
-1.55664e-07
-5.48774e-05
-1.52827e-07
-5.49916e-05
-1.49766e-07
-5.51074e-05
-1.46542e-07
-5.52251e-05
-1.43231e-07
-5.53449e-05
-1.39943e-07
-5.54669e-05
-1.36813e-07
-5.55914e-05
-1.34035e-07
-5.57186e-05
-1.3185e-07
-5.58487e-05
-1.30572e-07
-5.59819e-05
-1.30585e-07
-5.61186e-05
-1.32341e-07
-5.62591e-05
-1.36335e-07
-5.64036e-05
-1.43385e-07
-5.65523e-05
-1.54362e-07
-5.67055e-05
-1.69954e-07
-5.68636e-05
-1.90951e-07
-5.70271e-05
-2.1819e-07
-5.71964e-05
-2.52293e-07
-5.73722e-05
-2.93484e-07
-5.75545e-05
-3.42418e-07
-5.77426e-05
-3.9826e-07
-5.79357e-05
-4.56531e-07
-5.81312e-05
-5.12685e-07
-5.83235e-05
-5.58784e-07
-5.85024e-05
-5.82874e-07
-5.86502e-05
-5.68842e-07
-5.87395e-05
-4.97709e-07
-5.87214e-05
-3.35338e-07
-5.85209e-05
-4.81054e-09
-5.80395e-05
6.63689e-07
-5.70399e-05
1.83866e-06
-5.51174e-05
3.96675e-06
-5.15365e-05
7.51569e-06
1.20335e-05
-4.53745e-05
-5.02534e-05
-4.38817e-08
-5.03123e-05
-6.70337e-08
-5.03845e-05
-8.34735e-08
-5.04651e-05
-9.4057e-08
-5.05509e-05
-1.00641e-07
-5.06397e-05
-1.04607e-07
-5.07302e-05
-1.06878e-07
-5.08216e-05
-1.08047e-07
-5.09134e-05
-1.085e-07
-5.10054e-05
-1.0847e-07
-5.10974e-05
-1.08123e-07
-5.11892e-05
-1.07541e-07
-5.12809e-05
-1.06794e-07
-5.13723e-05
-1.05928e-07
-5.14635e-05
-1.04976e-07
-5.15543e-05
-1.03952e-07
-5.16449e-05
-1.02873e-07
-5.17352e-05
-1.01739e-07
-5.18252e-05
-1.00497e-07
-5.19149e-05
-9.92469e-08
-5.20041e-05
-9.8126e-08
-5.20928e-05
-9.704e-08
-5.21808e-05
-9.59494e-08
-5.22683e-05
-9.48887e-08
-5.23552e-05
-9.38847e-08
-5.24414e-05
-9.29277e-08
-5.2527e-05
-9.20281e-08
-5.2612e-05
-9.11673e-08
-5.26964e-05
-9.03644e-08
-5.27802e-05
-8.95944e-08
-5.28634e-05
-8.88928e-08
-5.29461e-05
-8.82448e-08
-5.30282e-05
-8.76961e-08
-5.31098e-05
-8.72187e-08
-5.31909e-05
-8.68479e-08
-5.32716e-05
-8.6558e-08
-5.3352e-05
-8.63666e-08
-5.34319e-05
-8.62456e-08
-5.35116e-05
-8.62148e-08
-5.3591e-05
-8.6274e-08
-5.36703e-05
-8.64202e-08
-5.37494e-05
-8.66292e-08
-5.38284e-05
-8.69036e-08
-5.39074e-05
-8.72279e-08
-5.39865e-05
-8.7601e-08
-5.40658e-05
-8.80031e-08
-5.41452e-05
-8.8418e-08
-5.42249e-05
-8.88202e-08
-5.43049e-05
-8.91799e-08
-5.43854e-05
-8.94936e-08
-5.44663e-05
-8.97539e-08
-5.45478e-05
-8.9917e-08
-5.46301e-05
-8.99599e-08
-5.4713e-05
-8.98422e-08
-5.47968e-05
-8.9516e-08
-5.48815e-05
-8.8946e-08
-5.49672e-05
-8.80915e-08
-5.5054e-05
-8.69085e-08
-5.5142e-05
-8.53685e-08
-5.52313e-05
-8.34306e-08
-5.53221e-05
-8.11103e-08
-5.54143e-05
-7.87625e-08
-5.55079e-05
-7.62335e-08
-5.56032e-05
-7.29213e-08
-5.57004e-05
-6.90794e-08
-5.57996e-05
-6.48332e-08
-5.5901e-05
-6.02158e-08
-5.60045e-05
-5.52531e-08
-5.61105e-05
-4.99871e-08
-5.62191e-05
-4.44831e-08
-5.63304e-05
-3.88363e-08
-5.64447e-05
-3.31691e-08
-5.65622e-05
-2.76599e-08
-5.66831e-05
-2.25335e-08
-5.68077e-05
-1.80814e-08
-5.69363e-05
-1.46655e-08
-5.70691e-05
-1.27124e-08
-5.72064e-05
-1.27476e-08
-5.73487e-05
-1.54869e-08
-5.74964e-05
-2.16914e-08
-5.765e-05
-3.20773e-08
-5.78101e-05
-4.74276e-08
-5.79771e-05
-6.851e-08
-5.81515e-05
-9.60821e-08
-5.83342e-05
-1.29983e-07
-5.85256e-05
-1.71363e-07
-5.87237e-05
-2.21664e-07
-5.89282e-05
-2.74862e-07
-5.9136e-05
-3.29291e-07
-5.93405e-05
-3.80283e-07
-5.95306e-05
-4.20441e-07
-5.96874e-05
-4.41543e-07
-5.97831e-05
-4.33293e-07
-5.97667e-05
-3.84797e-07
-5.95591e-05
-2.46889e-07
-5.89933e-05
6.28479e-08
-5.78269e-05
6.35538e-07
-5.55843e-05
1.68123e-06
-5.15398e-05
3.41863e-06
5.55628e-06
-4.51237e-05
-5.11328e-05
-4.64016e-09
-5.11909e-05
-1.19927e-08
-5.12619e-05
-1.54422e-08
-5.1341e-05
-1.77422e-08
-5.14248e-05
-1.95366e-08
-5.1511e-05
-2.09922e-08
-5.15981e-05
-2.21884e-08
-5.16854e-05
-2.31419e-08
-5.17723e-05
-2.39183e-08
-5.18584e-05
-2.45181e-08
-5.19437e-05
-2.50013e-08
-5.20279e-05
-2.53634e-08
-5.21111e-05
-2.56153e-08
-5.21931e-05
-2.57913e-08
-5.22741e-05
-2.58907e-08
-5.23539e-05
-2.59258e-08
-5.24327e-05
-2.58918e-08
-5.25103e-05
-2.57898e-08
-5.25869e-05
-2.56009e-08
-5.26624e-05
-2.5399e-08
-5.2737e-05
-2.52366e-08
-5.28106e-05
-2.50804e-08
-5.28832e-05
-2.48954e-08
-5.2955e-05
-2.47061e-08
-5.3026e-05
-2.45163e-08
-5.30962e-05
-2.43325e-08
-5.31656e-05
-2.41507e-08
-5.32344e-05
-2.39749e-08
-5.33026e-05
-2.37826e-08
-5.33702e-05
-2.35893e-08
-5.34373e-05
-2.3386e-08
-5.3504e-05
-2.32096e-08
-5.35702e-05
-2.30444e-08
-5.36362e-05
-2.29209e-08
-5.37018e-05
-2.28178e-08
-5.37673e-05
-2.27582e-08
-5.38326e-05
-2.27268e-08
-5.38978e-05
-2.27219e-08
-5.39629e-05
-2.27407e-08
-5.40281e-05
-2.27822e-08
-5.40934e-05
-2.28532e-08
-5.41588e-05
-2.29272e-08
-5.42245e-05
-2.30042e-08
-5.42904e-05
-2.30671e-08
-5.43566e-05
-2.31137e-08
-5.44232e-05
-2.31267e-08
-5.44903e-05
-2.30895e-08
-5.4558e-05
-2.29724e-08
-5.46262e-05
-2.27481e-08
-5.46951e-05
-2.24136e-08
-5.47648e-05
-2.19655e-08
-5.48352e-05
-2.13485e-08
-5.49065e-05
-2.05352e-08
-5.49788e-05
-1.94976e-08
-5.50521e-05
-1.81832e-08
-5.51265e-05
-1.65509e-08
-5.5202e-05
-1.45731e-08
-5.52788e-05
-1.21913e-08
-5.53569e-05
-9.35658e-09
-5.54364e-05
-6.07178e-09
-5.55175e-05
-2.19124e-09
-5.56002e-05
1.70879e-09
-5.56843e-05
5.49486e-09
-5.57702e-05
1.05868e-08
-5.58581e-05
1.6291e-08
-5.59481e-05
2.24707e-08
-5.60403e-05
2.91214e-08
-5.61348e-05
3.62362e-08
-5.62318e-05
4.37907e-08
-5.63314e-05
5.17313e-08
-5.64339e-05
5.99788e-08
-5.65394e-05
6.84292e-08
-5.66482e-05
7.69249e-08
-5.67605e-05
8.52595e-08
-5.68766e-05
9.31699e-08
-5.69968e-05
1.00322e-07
-5.71214e-05
1.06313e-07
-5.72507e-05
1.10639e-07
-5.73853e-05
1.12667e-07
-5.75255e-05
1.11716e-07
-5.76719e-05
1.07086e-07
-5.7825e-05
9.80225e-08
-5.79853e-05
8.37423e-08
-5.81535e-05
6.36365e-08
-5.83291e-05
3.69255e-08
-5.85144e-05
4.83301e-09
-5.87053e-05
-4.0274e-08
-5.8903e-05
-8.77322e-08
-5.91038e-05
-1.4041e-07
-5.93007e-05
-1.96955e-07
-5.94824e-05
-2.54333e-07
-5.96314e-05
-3.10896e-07
-5.97172e-05
-3.69266e-07
-5.96962e-05
-4.31907e-07
-5.94793e-05
-4.95803e-07
-5.88998e-05
-5.56314e-07
-5.76822e-05
-6.2809e-07
-5.53264e-05
-7.24182e-07
-5.11007e-05
-8.57552e-07
-9.7878e-07
-4.46098e-05
-5.05884e-05
3.34869e-08
-5.06462e-05
4.54045e-08
-5.07179e-05
5.58176e-08
-5.07983e-05
6.21637e-08
-5.08837e-05
6.5498e-08
-5.0972e-05
6.68527e-08
-5.10617e-05
6.70331e-08
-5.11519e-05
6.65525e-08
-5.12419e-05
6.57116e-08
-5.13316e-05
6.46936e-08
-5.14206e-05
6.35978e-08
-5.15089e-05
6.24751e-08
-5.15964e-05
6.13831e-08
-5.16829e-05
6.03065e-08
-5.17685e-05
5.92774e-08
-5.18531e-05
5.82899e-08
-5.19368e-05
5.73669e-08
-5.20194e-05
5.65039e-08
-5.21011e-05
5.57142e-08
-5.21818e-05
5.49454e-08
-5.22615e-05
5.41854e-08
-5.23403e-05
5.34425e-08
-5.24182e-05
5.2746e-08
-5.24952e-05
5.20752e-08
-5.25713e-05
5.14416e-08
-5.26466e-05
5.08315e-08
-5.2721e-05
5.02553e-08
-5.27947e-05
4.97018e-08
-5.28677e-05
4.92134e-08
-5.29399e-05
4.87696e-08
-5.30115e-05
4.83931e-08
-5.30825e-05
4.80306e-08
-5.3153e-05
4.77138e-08
-5.32229e-05
4.73969e-08
-5.32924e-05
4.71213e-08
-5.33615e-05
4.68466e-08
-5.34302e-05
4.66084e-08
-5.34987e-05
4.63864e-08
-5.35668e-05
4.62015e-08
-5.36348e-05
4.60554e-08
-5.37027e-05
4.59581e-08
-5.37706e-05
4.59033e-08
-5.38384e-05
4.59088e-08
-5.39062e-05
4.59857e-08
-5.39742e-05
4.61518e-08
-5.40424e-05
4.64187e-08
-5.41109e-05
4.68084e-08
-5.41796e-05
4.7344e-08
-5.42488e-05
4.80484e-08
-5.43183e-05
4.89338e-08
-5.43885e-05
5.00154e-08
-5.44592e-05
5.13328e-08
-5.45305e-05
5.29177e-08
-5.46026e-05
5.48004e-08
-5.46755e-05
5.70319e-08
-5.47493e-05
5.96643e-08
-5.4824e-05
6.2698e-08
-5.48997e-05
6.62097e-08
-5.49765e-05
7.02766e-08
-5.50544e-05
7.48676e-08
-5.51335e-05
7.99765e-08
-5.52139e-05
8.53497e-08
-5.52961e-05
9.11321e-08
-5.53798e-05
9.78877e-08
-5.5465e-05
1.05375e-07
-5.5552e-05
1.13497e-07
-5.56408e-05
1.22239e-07
-5.57316e-05
1.31602e-07
-5.58246e-05
1.41574e-07
-5.59198e-05
1.52113e-07
-5.60175e-05
1.63157e-07
-5.61178e-05
1.74629e-07
-5.6221e-05
1.86394e-07
-5.63273e-05
1.98271e-07
-5.64369e-05
2.10025e-07
-5.65502e-05
2.21358e-07
-5.66675e-05
2.31895e-07
-5.67891e-05
2.41171e-07
-5.69153e-05
2.48619e-07
-5.70467e-05
2.53614e-07
-5.71837e-05
2.55493e-07
-5.73269e-05
2.53508e-07
-5.74766e-05
2.4687e-07
-5.76333e-05
2.34889e-07
-5.77973e-05
2.16709e-07
-5.79667e-05
1.91481e-07
-5.81449e-05
1.56984e-07
-5.83267e-05
1.15515e-07
-5.85075e-05
6.47115e-08
-5.86798e-05
2.97878e-09
-5.88342e-05
-6.88477e-08
-5.89533e-05
-1.57269e-07
-5.90076e-05
-2.76358e-07
-5.89502e-05
-4.46315e-07
-5.86974e-05
-7.0055e-07
-5.80924e-05
-1.10786e-06
-5.68572e-05
-1.80385e-06
-5.45049e-05
-3.01114e-06
-5.03328e-05
-4.95937e-06
-7.29334e-06
-4.3949e-05
-4.89166e-05
6.28195e-08
-4.89708e-05
1.01207e-07
-4.90397e-05
1.26249e-07
-4.9118e-05
1.42021e-07
-4.92022e-05
1.51319e-07
-4.92902e-05
1.5642e-07
-4.93807e-05
1.59037e-07
-4.94727e-05
1.60125e-07
-4.95657e-05
1.60374e-07
-4.96595e-05
1.60084e-07
-4.97539e-05
1.59552e-07
-4.98487e-05
1.58831e-07
-4.99437e-05
1.5803e-07
-5.00389e-05
1.57175e-07
-5.01343e-05
1.56305e-07
-5.02298e-05
1.55421e-07
-5.03253e-05
1.5455e-07
-5.04208e-05
1.53688e-07
-5.05163e-05
1.52843e-07
-5.06116e-05
1.51977e-07
-5.07067e-05
1.51092e-07
-5.08017e-05
1.50186e-07
-5.08964e-05
1.49285e-07
-5.09909e-05
1.48368e-07
-5.1085e-05
1.47451e-07
-5.11788e-05
1.4652e-07
-5.12721e-05
1.45584e-07
-5.1365e-05
1.44638e-07
-5.14574e-05
1.43724e-07
-5.15494e-05
1.42849e-07
-5.16408e-05
1.42023e-07
-5.17317e-05
1.41204e-07
-5.1822e-05
1.40406e-07
-5.19118e-05
1.3961e-07
-5.2001e-05
1.38844e-07
-5.20897e-05
1.38091e-07
-5.21778e-05
1.37381e-07