/*--------------------------------*- C++ -*----------------------------------*\
| =========                 |                                                 |
| \\      /  F ield         | OpenFOAM: The Open Source CFD Toolbox           |
|  \\    /   O peration     | Version:  2.1.0                                 |
|   \\  /    A nd           | Web:      www.OpenFOAM.org                      |
|    \\/     M anipulation  |                                                 |
\*---------------------------------------------------------------------------*/
FoamFile
{
    version     2.0;
    format      ascii;
    class       volScalarField;
    location    "0.36";
    object      rho;
}
// * * * * * * * * * * * * * * * * * * * * * * * * * * * * * * * * * * * * * //

dimensions      [1 -3 0 0 0 0 0];

internalField   nonuniform List<scalar> 
6400
(
961.611
961.162
960.725
960.299
959.883
959.475
959.076
958.685
958.303
957.928
957.561
957.202
956.851
956.508
956.173
955.845
955.525
955.213
954.908
954.611
954.321
954.038
953.763
953.495
953.234
952.98
952.733
952.492
952.258
952.031
951.811
951.597
951.389
951.188
950.992
950.803
950.62
950.442
950.27
950.104
949.944
949.788
949.639
949.494
949.355
949.22
949.091
948.966
948.846
948.731
948.62
948.514
948.412
948.314
948.221
948.131
948.045
947.963
947.884
947.809
947.736
947.667
947.602
947.539
947.48
947.424
947.371
947.321
947.274
947.23
947.19
947.153
947.119
947.088
947.061
947.038
947.019
947.003
946.992
946.986
946.985
946.99
947.002
947.024
947.058
947.108
947.18
947.285
947.439
947.675
948.057
948.726
950.014
952.641
956.554
951.515
945.085
944.563
944.555
944.555
958.373
957.988
957.605
957.232
956.867
956.511
956.163
955.823
955.49
955.164
954.846
954.535
954.232
953.936
953.647
953.365
953.09
952.821
952.56
952.306
952.058
951.816
951.582
951.353
951.131
950.915
950.705
950.502
950.304
950.112
949.925
949.745
949.569
949.4
949.235
949.076
948.922
948.773
948.629
948.49
948.355
948.226
948.1
947.98
947.863
947.751
947.643
947.539
947.439
947.343
947.25
947.161
947.076
946.994
946.914
946.838
946.765
946.694
946.627
946.561
946.499
946.438
946.381
946.325
946.271
946.22
946.171
946.123
946.078
946.034
945.992
945.951
945.913
945.876
945.841
945.807
945.775
945.745
945.716
945.689
945.664
945.641
945.62
945.601
945.585
945.571
945.559
945.551
945.544
945.539
945.53
945.511
945.464
945.361
945.159
944.866
944.599
944.556
944.555
944.555
956.615
956.266
955.916
955.574
955.24
954.914
954.595
954.283
953.978
953.68
953.389
953.105
952.827
952.556
952.292
952.034
951.782
951.537
951.298
951.065
950.838
950.617
950.403
950.194
949.991
949.794
949.602
949.416
949.235
949.06
948.889
948.724
948.564
948.409
948.259
948.114
947.973
947.837
947.706
947.579
947.456
947.338
947.224
947.113
947.007
946.905
946.806
946.711
946.62
946.532
946.447
946.366
946.287
946.212
946.139
946.069
946.002
945.938
945.876
945.816
945.759
945.704
945.652
945.601
945.552
945.505
945.459
945.415
945.373
945.332
945.292
945.253
945.215
945.179
945.143
945.108
945.074
945.041
945.008
944.976
944.944
944.914
944.883
944.854
944.825
944.797
944.769
944.742
944.716
944.691
944.667
944.643
944.621
944.601
944.584
944.572
944.559
944.555
944.555
944.555
955.465
955.144
954.82
954.504
954.194
953.891
953.595
953.305
953.021
952.744
952.473
952.207
951.948
951.695
951.448
951.206
950.97
950.74
950.515
950.296
950.082
949.874
949.671
949.473
949.28
949.093
948.91
948.733
948.56
948.392
948.229
948.071
947.917
947.768
947.623
947.483
947.348
947.216
947.089
946.966
946.848
946.733
946.622
946.515
946.413
946.313
946.218
946.126
946.038
945.953
945.871
945.793
945.718
945.646
945.578
945.513
945.45
945.391
945.334
945.28
945.229
945.18
945.134
945.09
945.049
945.009
944.972
944.936
944.903
944.872
944.842
944.814
944.788
944.763
944.74
944.719
944.699
944.681
944.664
944.649
944.635
944.623
944.611
944.601
944.593
944.585
944.579
944.573
944.569
944.565
944.562
944.56
944.558
944.557
944.556
944.556
944.555
944.555
944.555
944.555
954.922
954.628
954.33
954.036
953.749
953.466
953.189
952.918
952.652
952.392
952.137
951.887
951.643
951.403
951.169
950.94
950.716
950.496
950.282
950.072
949.867
949.667
949.471
949.28
949.093
948.911
948.733
948.559
948.39
948.225
948.064
947.908
947.755
947.607
947.462
947.322
947.185
947.053
946.924
946.799
946.679
946.561
946.448
946.339
946.233
946.131
946.032
945.938
945.847
945.76
945.676
945.596
945.52
945.447
945.378
945.312
945.25
945.191
945.136
945.084
945.035
944.989
944.946
944.906
944.869
944.835
944.804
944.775
944.749
944.725
944.703
944.683
944.666
944.65
944.636
944.623
944.613
944.603
944.595
944.588
944.581
944.576
944.572
944.568
944.565
944.562
944.56
944.559
944.557
944.557
944.556
944.555
944.555
944.555
944.555
944.555
944.555
944.555
944.555
944.555
955.19
954.925
954.655
954.389
954.126
953.868
953.614
953.364
953.119
952.879
952.643
952.412
952.185
951.963
951.744
951.53
951.32
951.114
950.912
950.714
950.52
950.329
950.142
949.96
949.78
949.605
949.433
949.264
949.099
948.937
948.778
948.623
948.471
948.322
948.176
948.033
947.894
947.757
947.623
947.493
947.365
947.24
947.119
947
946.884
946.771
946.661
946.554
946.45
946.349
946.251
946.155
946.063
945.974
945.888
945.805
945.725
945.648
945.574
945.504
945.436
945.371
945.31
945.251
945.195
945.143
945.093
945.046
945.002
944.961
944.922
944.886
944.852
944.821
944.792
944.766
944.741
944.718
944.698
944.679
944.662
944.646
944.632
944.619
944.608
944.598
944.589
944.581
944.574
944.568
944.564
944.561
944.558
944.557
944.556
944.556
944.555
944.555
944.555
944.555
956.673
956.444
956.212
955.981
955.753
955.528
955.307
955.09
954.876
954.667
954.461
954.258
954.06
953.865
953.673
953.484
953.298
953.115
952.935
952.758
952.583
952.411
952.241
952.075
951.911
951.749
951.59
951.433
951.279
951.127
950.977
950.828
950.682
950.538
950.395
950.254
950.114
949.976
949.84
949.704
949.57
949.437
949.305
949.174
949.044
948.915
948.786
948.658
948.532
948.405
948.28
948.155
948.031
947.908
947.786
947.664
947.543
947.423
947.305
947.187
947.071
946.956
946.842
946.73
946.62
946.512
946.406
946.302
946.2
946.101
946.004
945.91
945.818
945.729
945.643
945.56
945.48
945.403
945.328
945.256
945.188
945.122
945.059
945
944.943
944.889
944.837
944.789
944.745
944.704
944.668
944.637
944.612
944.593
944.581
944.574
944.569
944.566
944.563
944.563
959.772
959.587
959.401
959.216
959.033
958.853
958.677
958.503
958.334
958.167
958.004
957.844
957.687
957.533
957.382
957.234
957.088
956.944
956.803
956.664
956.527
956.392
956.258
956.127
955.997
955.869
955.742
955.617
955.492
955.369
955.246
955.124
955.003
954.882
954.761
954.64
954.519
954.398
954.277
954.155
954.032
953.908
953.783
953.658
953.53
953.402
953.272
953.14
953.007
952.872
952.735
952.595
952.454
952.311
952.165
952.018
951.867
951.715
951.56
951.403
951.244
951.082
950.918
950.752
950.583
950.412
950.24
950.065
949.889
949.711
949.531
949.35
949.168
948.985
948.8
948.615
948.428
948.241
948.053
947.863
947.672
947.48
947.285
947.089
946.89
946.69
946.487
946.283
946.078
945.875
945.677
945.487
945.31
945.153
945.022
944.928
944.852
944.791
944.747
944.721
964.838
964.71
964.582
964.454
964.331
964.209
964.091
963.975
963.862
963.753
963.646
963.542
963.442
963.343
963.248
963.155
963.065
962.976
962.891
962.807
962.726
962.645
962.566
962.488
962.41
962.333
962.257
962.18
962.104
962.027
961.95
961.873
961.795
961.716
961.637
961.556
961.475
961.392
961.308
961.222
961.135
961.046
960.956
960.863
960.769
960.673
960.575
960.474
960.372
960.267
960.159
960.049
959.937
959.821
959.703
959.582
959.458
959.33
959.2
959.065
958.928
958.786
958.641
958.491
958.337
958.178
958.015
957.847
957.673
957.494
957.31
957.119
956.922
956.718
956.508
956.289
956.062
955.827
955.581
955.325
955.056
954.773
954.475
954.159
953.823
953.465
953.081
952.668
952.224
951.748
951.24
950.702
950.139
949.557
948.968
948.395
947.905
947.459
947.083
946.817
971.894
971.831
971.767
971.705
971.645
971.587
971.53
971.475
971.422
971.37
971.32
971.271
971.224
971.177
971.132
971.088
971.045
971.003
970.962
970.921
970.881
970.842
970.802
970.764
970.725
970.686
970.648
970.61
970.572
970.534
970.496
970.457
970.419
970.381
970.342
970.304
970.265
970.226
970.187
970.147
970.108
970.068
970.028
969.987
969.947
969.906
969.865
969.824
969.782
969.74
969.698
969.655
969.612
969.568
969.524
969.48
969.435
969.39
969.345
969.299
969.253
969.207
969.16
969.113
969.064
969.015
968.963
968.911
968.856
968.799
968.741
968.679
968.615
968.547
968.475
968.399
968.319
968.233
968.14
968.041
967.934
967.818
967.692
967.555
967.407
967.245
967.068
966.864
966.627
966.35
966.028
965.651
965.214
964.704
964.107
963.406
962.592
961.755
960.963
960.346
979.387
979.381
979.374
979.368
979.362
979.356
979.349
979.343
979.337
979.331
979.324
979.318
979.312
979.306
979.299
979.294
979.287
979.282
979.277
979.272
979.268
979.264
979.261
979.258
979.256
979.255
979.255
979.256
979.258
979.261
979.265
979.271
979.277
979.285
979.294
979.304
979.316
979.329
979.344
979.36
979.378
979.397
979.417
979.439
979.463
979.488
979.516
979.545
979.575
979.608
979.643
979.679
979.718
979.759
979.802
979.848
979.897
979.948
980.002
980.059
980.119
980.182
980.249
980.32
980.396
980.477
980.563
980.656
980.755
980.861
980.974
981.096
981.226
981.365
981.515
981.676
981.848
982.033
982.231
982.443
982.669
982.91
983.166
983.438
983.726
984.029
984.348
984.693
985.069
985.481
985.935
986.425
986.956
987.531
988.154
988.826
989.544
990.295
991.041
991.71
985.407
985.447
985.487
985.529
985.571
985.614
985.657
985.7
985.743
985.787
985.83
985.874
985.917
985.961
986.005
986.049
986.093
986.137
986.181
986.226
986.271
986.317
986.363
986.41
986.457
986.505
986.553
986.603
986.653
986.705
986.757
986.811
986.866
986.923
986.98
987.04
987.1
987.163
987.227
987.293
987.361
987.431
987.503
987.578
987.654
987.733
987.815
987.899
987.986
988.076
988.169
988.265
988.364
988.466
988.572
988.681
988.794
988.911
989.032
989.158
989.288
989.424
989.564
989.711
989.864
990.023
990.188
990.362
990.542
990.731
990.928
991.134
991.349
991.573
991.807
992.052
992.306
992.571
992.846
993.131
993.426
993.73
994.043
994.362
994.688
995.019
995.353
995.687
996.02
996.348
996.669
996.991
997.314
997.629
997.935
998.226
998.498
998.743
998.95
999.105
989.88
989.941
990.005
990.072
990.14
990.209
990.28
990.351
990.422
990.495
990.567
990.64
990.714
990.788
990.862
990.937
991.012
991.088
991.164
991.241
991.319
991.397
991.475
991.555
991.635
991.715
991.797
991.879
991.962
992.046
992.131
992.217
992.304
992.392
992.482
992.572
992.664
992.757
992.851
992.946
993.043
993.142
993.242
993.343
993.447
993.551
993.658
993.766
993.876
993.987
994.101
994.217
994.334
994.454
994.575
994.699
994.825
994.953
995.083
995.216
995.351
995.489
995.628
995.77
995.914
996.061
996.209
996.359
996.512
996.666
996.822
996.979
997.138
997.297
997.457
997.618
997.778
997.937
998.095
998.251
998.404
998.554
998.7
998.84
998.975
999.102
999.222
999.334
999.436
999.528
999.61
999.68
999.738
999.79
999.834
999.872
999.902
999.927
999.945
999.956
993.114
993.178
993.248
993.321
993.397
993.474
993.551
993.63
993.71
993.789
993.87
993.951
994.032
994.114
994.196
994.278
994.361
994.445
994.529
994.613
994.698
994.784
994.87
994.956
995.043
995.13
995.218
995.307
995.396
995.486
995.576
995.666
995.757
995.849
995.94
996.033
996.126
996.219
996.312
996.406
996.5
996.594
996.689
996.783
996.877
996.972
997.066
997.161
997.255
997.349
997.443
997.536
997.629
997.722
997.814
997.905
997.997
998.087
998.177
998.265
998.353
998.44
998.525
998.609
998.692
998.773
998.852
998.93
999.005
999.079
999.15
999.22
999.286
999.351
999.413
999.472
999.528
999.581
999.631
999.678
999.722
999.763
999.8
999.833
999.863
999.89
999.913
999.932
999.948
999.962
999.972
999.98
999.986
999.99
999.993
999.995
999.997
999.998
999.998
999.999
995.288
995.349
995.416
995.486
995.559
995.633
995.707
995.783
995.858
995.935
996.011
996.088
996.165
996.242
996.319
996.397
996.475
996.552
996.63
996.708
996.786
996.864
996.942
997.02
997.098
997.176
997.254
997.332
997.409
997.486
997.563
997.64
997.716
997.792
997.868
997.942
998.017
998.091
998.164
998.236
998.307
998.378
998.447
998.516
998.583
998.65
998.715
998.779
998.841
998.902
998.962
999.02
999.077
999.132
999.186
999.237
999.288
999.336
999.383
999.427
999.47
999.511
999.551
999.588
999.623
999.657
999.689
999.719
999.747
999.774
999.798
999.821
999.842
999.862
999.88
999.897
999.912
999.925
999.937
999.948
999.958
999.966
999.973
999.979
999.984
999.988
999.991
999.994
999.996
999.997
999.998
999.999
999.999
1000
1000
1000
1000
1000
1000
1000
996.715
996.769
996.829
996.892
996.956
997.021
997.088
997.154
997.22
997.287
997.354
997.42
997.487
997.554
997.62
997.686
997.752
997.817
997.883
997.948
998.012
998.076
998.14
998.203
998.266
998.328
998.39
998.45
998.51
998.569
998.628
998.685
998.742
998.797
998.852
998.906
998.959
999.01
999.061
999.11
999.158
999.205
999.25
999.294
999.337
999.379
999.418
999.457
999.494
999.529
999.563
999.596
999.627
999.656
999.684
999.711
999.736
999.76
999.782
999.803
999.822
999.84
999.857
999.872
999.887
999.9
999.912
999.923
999.933
999.942
999.95
999.957
999.964
999.969
999.975
999.979
999.983
999.986
999.989
999.991
999.993
999.995
999.996
999.997
999.998
999.999
999.999
999.999
1000
1000
1000
1000
1000
1000
1000
1000
1000
1000
1000
1000
997.682
997.728
997.779
997.831
997.885
997.94
997.994
998.049
998.103
998.158
998.212
998.266
998.32
998.373
998.426
998.479
998.531
998.583
998.634
998.684
998.734
998.784
998.832
998.88
998.928
998.974
999.02
999.065
999.109
999.152
999.194
999.235
999.275
999.314
999.353
999.389
999.425
999.46
999.493
999.526
999.557
999.587
999.615
999.643
999.669
999.694
999.718
999.741
999.762
999.782
999.801
999.819
999.836
999.852
999.866
999.88
999.892
999.904
999.914
999.924
999.933
999.941
999.949
999.955
999.961
999.967
999.971
999.976
999.98
999.983
999.986
999.988
999.99
999.992
999.994
999.995
999.996
999.997
999.998
999.998
999.999
999.999
999.999
1000
1000
1000
1000
1000
1000
1000
1000
1000
1000
1000
1000
1000
1000
1000
1000
1000
998.368
998.406
998.447
998.489
998.531
998.574
998.617
998.66
998.702
998.744
998.786
998.828
998.869
998.91
998.95
998.99
999.029
999.068
999.106
999.144
999.181
999.218
999.253
999.288
999.322
999.356
999.389
999.421
999.452
999.482
999.512
999.54
999.568
999.595
999.62
999.645
999.669
999.691
999.713
999.734
999.754
999.773
999.791
999.808
999.824
999.839
999.853
999.866
999.879
999.89
999.901
999.911
999.92
999.929
999.937
999.944
999.951
999.957
999.962
999.967
999.971
999.975
999.979
999.982
999.985
999.987
999.989
999.991
999.993
999.994
999.995
999.996
999.997
999.998
999.998
999.999
999.999
999.999
999.999
1000
1000
1000
1000
1000
1000
1000
1000
1000
1000
1000
1000
1000
1000
1000
1000
1000
1000
1000
1000
1000
998.871
998.901
998.932
998.964
998.996
999.028
999.061
999.093
999.124
999.156
999.187
999.218
999.248
999.278
999.307
999.336
999.365
999.393
999.421
999.448
999.474
999.5
999.525
999.55
999.574
999.597
999.62
999.642
999.663
999.683
999.703
999.722
999.74
999.758
999.775
999.791
999.806
999.82
999.834
999.847
999.86
999.871
999.882
999.893
999.902
999.911
999.92
999.928
999.935
999.942
999.948
999.954
999.959
999.964
999.968
999.972
999.976
999.979
999.982
999.984
999.986
999.988
999.99
999.992
999.993
999.994
999.995
999.996
999.997
999.997
999.998
999.998
999.999
999.999
999.999
999.999
1000
1000
1000
1000
1000
1000
1000
1000
1000
1000
1000
1000
1000
1000
1000
1000
1000
1000
1000
1000
1000
1000
1000
1000
999.321
999.341
999.361
999.382
999.403
999.424
999.445
999.466
999.486
999.506
999.526
999.546
999.565
999.584
999.603
999.621
999.639
999.657
999.674
999.691
999.707
999.723
999.738
999.753
999.767
999.781
999.795
999.808
999.82
999.832
999.843
999.854
999.865
999.874
999.884
999.893
999.901
999.909
999.917
999.924
999.93
999.937
999.942
999.948
999.953
999.957
999.962
999.966
999.969
999.973
999.976
999.979
999.981
999.983
999.986
999.987
999.989
999.991
999.992
999.993
999.994
999.995
999.996
999.997
999.997
999.998
999.998
999.998
999.999
999.999
999.999
999.999
1000
1000
1000
1000
1000
1000
1000
1000
1000
1000
1000
1000
1000
1000
1000
1000
1000
1000
1000
1000
1000
1000
1000
1000
1000
1000
1000
1000
944.555
944.555
944.555
944.555
944.555
944.555
944.555
944.555
944.555
944.555
944.555
944.555
944.555
944.555
944.555
944.556
944.556
944.558
944.561
944.569
944.555
944.555
944.555
944.555
944.555
944.555
944.555
944.555
944.555
944.555
944.555
944.555
944.555
944.555
944.556
944.557
944.558
944.561
944.569
944.594
944.555
944.555
944.555
944.555
944.555
944.555
944.555
944.555
944.555
944.555
944.555
944.555
944.556
944.556
944.557
944.559
944.564
944.573
944.599
944.691
944.555
944.555
944.555
944.555
944.555
944.555
944.555
944.555
944.555
944.555
944.556
944.556
944.557
944.559
944.563
944.57
944.585
944.621
944.724
945.133
944.555
944.555
944.555
944.555
944.555
944.555
944.555
944.556
944.556
944.557
944.559
944.561
944.565
944.572
944.586
944.612
944.67
944.815
945.25
947.092
944.555
944.555
944.556
944.556
944.557
944.558
944.559
944.561
944.564
944.569
944.575
944.584
944.6
944.627
944.676
944.773
944.982
945.496
947.082
954.1
944.564
944.566
944.569
944.574
944.579
944.586
944.595
944.606
944.618
944.634
944.657
944.691
944.744
944.833
944.989
945.285
945.897
947.343
951.646
969.93
944.729
944.753
944.78
944.812
944.847
944.882
944.916
944.946
944.979
945.021
945.082
945.175
945.318
945.552
945.955
946.688
948.129
951.306
959.639
987.644
946.791
946.91
947.03
947.152
947.262
947.324
947.36
947.371
947.402
947.45
947.535
947.668
947.898
948.295
949.07
950.538
953.404
959.131
970.923
996.002
960.198
960.429
960.662
960.882
961.058
961.121
961.157
961.212
961.268
961.306
961.359
961.406
961.542
961.766
962.49
964.178
967.855
974.514
985.448
995.921
992.036
991.961
991.914
991.892
991.931
992.121
992.365
992.621
992.894
993.211
993.561
993.989
994.47
995.083
995.598
995.986
996.118
996.425
997.743
998.659
999.153
999.119
999.088
999.062
999.047
999.061
999.096
999.155
999.215
999.281
999.348
999.425
999.5
999.586
999.652
999.698
999.717
999.747
999.854
999.598
999.958
999.953
999.948
999.942
999.937
999.933
999.932
999.934
999.939
999.946
999.952
999.959
999.966
999.972
999.977
999.981
999.983
999.986
999.988
999.907
999.999
999.999
999.999
999.998
999.998
999.997
999.997
999.997
999.997
999.997
999.997
999.998
999.998
999.998
999.999
999.999
999.999
999.999
999.999
999.991
1000
1000
1000
1000
1000
1000
1000
1000
1000
1000
1000
1000
1000
1000
1000
1000
1000
1000
1000
1000
1000
1000
1000
1000
1000
1000
1000
1000
1000
1000
1000
1000
1000
1000
1000
1000
1000
1000
1000
1000
1000
1000
1000
1000
1000
1000
1000
1000
1000
1000
1000
1000
1000
1000
1000
1000
1000
1000
1000
1000
1000
1000
1000
1000
1000
1000
1000
1000
1000
1000
1000
1000
1000
1000
1000
1000
1000
1000
1000
1000
1000
1000
1000
1000
1000
1000
1000
1000
1000
1000
1000
1000
1000
1000
1000
1000
1000
1000
1000
1000
1000
1000
1000
1000
1000
1000
1000
1000
1000
1000
1000
1000
1000
1000
1000
1000
1000
1000
1000
1000
944.555
944.555
944.555
944.555
944.555
944.555
944.555
944.555
944.555
944.555
944.555
944.555
944.555
944.555
944.555
944.555
944.555
944.555
944.555
944.555
944.555
944.555
944.555
944.555
944.555
944.555
944.555
944.555
944.555
944.555
944.555
944.555
944.555
944.555
944.555
944.555
944.555
944.555
944.555
944.555
944.555
944.555
944.555
944.555
944.555
944.555
944.555
944.555
944.555
944.555
944.555
944.555
944.555
944.555
944.555
944.555
944.555
944.555
944.555
944.555
944.555
944.555
944.555
944.555
944.555
944.555
944.555
944.555
944.555
944.555
944.555
944.555
944.555
944.555
944.555
944.555
944.555
944.555
944.555
944.555
944.555
944.555
944.555
944.555
944.555
944.555
944.555
944.555
944.555
944.555
944.555
944.555
944.555
944.555
944.555
944.555
944.555
944.555
944.555
944.555
944.555
944.555
944.555
944.555
944.555
944.555
944.555
944.555
944.555
944.555
944.555
944.555
944.555
944.555
944.555
944.555
944.555
944.555
944.555
944.555
944.555
944.555
944.555
944.555
944.555
944.555
944.555
944.555
944.555
944.555
944.555
944.555
944.555
944.555
944.555
944.555
944.555
944.555
944.555
944.555
944.555
944.555
944.555
944.555
944.555
944.555
944.555
944.555
944.555
944.555
944.555
944.555
944.555
944.555
944.555
944.555
944.555
944.555
944.555
944.555
944.555
944.555
944.555
944.555
944.555
944.555
944.555
944.555
944.555
944.555
944.555
944.555
944.555
944.555
944.555
944.555
944.555
944.555
944.555
944.555
944.555
944.555
944.555
944.555
944.555
944.555
944.555
944.555
944.555
944.555
944.555
944.555
944.555
944.555
944.555
944.555
944.555
944.555
944.555
944.555
944.555
944.555
944.555
944.555
944.555
944.555
944.555
944.555
944.555
944.555
944.555
944.555
944.555
944.555
944.555
944.555
944.555
944.555
944.555
944.555
944.555
944.555
944.555
944.555
944.555
944.555
944.555
944.555
944.555
944.555
944.555
944.555
944.555
944.555
944.555
944.555
944.555
944.555
944.555
944.555
944.555
944.555
944.555
944.555
944.555
944.555
944.555
944.555
944.555
944.555
944.555
944.555
944.555
944.555
944.555
944.555
944.555
944.555
944.555
944.555
944.555
944.555
944.555
944.555
944.555
944.555
944.555
944.555
944.555
944.555
944.555
944.555
944.555
944.555
944.555
944.555
944.555
944.555
944.555
944.555
944.555
944.555
944.555
944.555
944.555
944.555
944.555
944.555
944.555
944.555
944.555
944.555
944.555
944.555
944.555
944.555
944.555
944.555
944.555
944.555
944.555
944.555
944.555
944.555
944.555
944.555
944.555
944.555
944.555
944.555
944.555
944.555
944.555
944.555
944.555
944.555
944.555
944.555
944.555
944.555
944.555
944.555
944.555
944.555
944.555
944.555
944.555
944.555
944.555
944.555
944.555
944.555
944.555
944.555
944.555
944.555
944.555
944.555
944.555
944.555
944.555
944.555
944.555
944.555
944.555
944.555
944.555
944.555
944.555
944.555
944.555
944.555
944.555
944.555
944.555
944.555
944.555
944.555
944.555
944.555
944.555
944.555
944.555
944.555
944.555
944.555
944.555
944.555
944.555
944.555
944.555
944.555
944.555
944.555
944.555
944.555
944.555
944.555
944.555
944.555
944.555
944.555
944.555
944.555
944.555
944.555
944.555
944.555
944.555
944.555
944.555
944.555
944.555
944.555
944.555
944.555
944.555
944.555
944.555
944.555
944.555
944.555
944.555
944.555
944.555
944.555
944.555
944.555
944.555
944.555
944.555
944.555
944.555
944.555
944.555
944.555
944.555
944.555
944.555
944.555
944.555
944.555
944.555
944.555
944.555
944.555
944.555
944.555
944.555
944.555
944.555
944.555
944.555
944.555
944.555
944.555
944.555
944.555
944.555
944.555
944.555
944.555
944.555
944.555
944.555
944.555
944.555
944.555
944.555
944.555
944.555
944.555
944.555
944.555
944.555
944.555
944.555
944.555
944.555
944.555
944.555
944.555
944.555
944.555
944.555
944.555
944.555
944.555
944.555
944.555
944.555
944.555
944.555
944.555
944.555
944.555
944.555
944.555
944.555
944.555
944.555
944.555
944.555
944.555
944.555
944.555
944.555
944.555
944.555
944.555
944.555
944.555
944.555
944.555
944.555
944.555
944.555
944.555
944.555
944.555
944.555
944.555
944.555
944.555
944.555
944.555
944.555
944.555
944.555
944.555
944.555
944.555
944.555
944.555
944.555
944.555
944.555
944.555
944.555
944.555
944.555
944.555
944.555
944.555
944.555
944.555
944.555
944.555
944.555
944.555
944.555
944.555
944.555
944.555
944.555
944.555
944.555
944.555
944.555
944.555
944.555
944.555
944.555
944.555
944.555
944.555
944.555
944.555
944.555
944.555
944.555
944.555
944.555
944.555
944.555
944.555
944.555
944.555
944.555
944.555
944.555
944.555
944.555
944.555
944.555
944.555
944.555
944.555
944.555
944.555
944.555
944.555
944.555
944.555
944.555
944.555
944.555
944.555
944.555
944.555
944.555
944.555
944.555
944.555
944.555
944.555
944.555
944.555
944.555
944.555
944.555
944.555
944.555
944.555
944.555
944.555
944.555
944.555
944.555
944.555
944.555
944.555
944.555
944.555
944.555
944.555
944.555
944.555
944.555
944.555
944.555
944.555
944.555
944.555
944.555
944.555
944.555
944.555
944.555
944.555
944.555
944.555
944.555
944.555
944.555
944.555
944.555
944.555
944.555
944.555
944.555
944.555
944.555
944.555
944.555
944.555
944.555
944.555
944.555
944.555
944.555
944.555
944.555
944.555
944.555
944.555
944.555
944.555
944.555
944.555
944.555
944.555
944.555
944.555
944.555
944.555
944.555
944.555
944.555
944.555
944.555
944.555
944.555
944.555
944.555
944.555
944.555
944.555
944.555
944.555
944.555
944.555
944.555
944.555
944.555
944.555
944.555
944.555
944.555
944.555
944.555
944.555
944.555
944.555
944.555
944.555
944.555
944.555
944.555
944.555
944.555
944.555
944.555
944.555
944.555
944.555
944.555
944.555
944.555
944.555
944.555
944.555
944.555
944.555
944.555
944.555
944.555
944.555
944.555
944.555
944.555
944.555
944.555
944.555
944.555
944.555
944.555
944.555
944.555
944.555
944.555
944.555
944.555
944.555
944.555
944.555
944.555
944.555
944.555
944.555
944.555
944.555
944.555
944.555
944.555
944.555
944.555
944.555
944.555
944.555
944.555
944.555
944.555
944.555
944.555
944.555
944.555
944.555
944.555
944.555
944.555
944.555
944.555
944.555
944.555
944.555
944.555
944.555
944.555
944.555
944.555
944.555
944.555
944.555
944.555
944.555
944.555
944.555
944.555
944.555
944.555
944.555
944.555
944.555
944.555
944.555
944.555
944.555
944.555
944.555
944.555
944.555
944.555
944.555
944.555
944.555
944.555
944.555
944.555
944.555
944.555
944.555
944.555
944.555
944.555
944.555
944.555
944.555
944.555
944.555
944.555
944.555
944.555
944.555
944.555
944.555
944.555
944.555
944.555
944.555
944.555
944.555
944.555
944.555
944.555
944.555
944.555
944.555
944.555
944.555
944.555
944.555
944.555
944.555
944.555
944.555
944.555
944.555
944.555
944.555
944.555
944.555
944.555
944.555
944.555
944.555
944.555
944.555
944.555
944.555
944.555
944.555
944.555
944.555
944.555
944.555
944.555
944.555
944.555
944.555
944.555
944.555
944.555
944.555
944.555
944.555
944.555
944.555
944.555
944.555
944.555
944.555
944.555
944.555
944.555
944.555
944.555
944.555
944.555
944.555
944.555
944.555
944.555
944.555
944.555
944.555
944.555
944.555
944.555
944.555
944.555
944.555
944.555
944.555
944.555
944.555
944.555
944.555
944.555
944.555
944.555
944.555
944.555
944.555
944.555
944.555
944.555
944.555
944.555
944.555
944.555
944.555
944.555
944.555
944.555
944.555
944.555
944.555
944.555
944.555
944.555
944.555
944.555
944.555
944.555
944.555
944.555
944.555
944.555
944.555
944.555
944.555
944.555
944.555
944.555
944.555
944.555
944.555
944.555
944.555
944.555
944.555
944.555
944.555
944.555
944.555
944.555
944.555
944.555
944.555
944.555
944.555
944.555
944.555
944.555
944.555
944.555
944.555
944.555
944.555
944.555
944.555
944.555
944.555
944.555
944.555
944.555
944.555
944.555
944.555
944.555
944.555
944.555
944.555
944.555
944.555
944.555
944.555
944.555
944.555
944.555
944.555
944.555
944.555
944.555
944.555
944.555
944.555
944.555
944.555
944.555
944.555
944.555
944.555
944.555
944.555
944.555
944.555
944.555
944.555
944.555
944.555
944.555
944.555
944.555
944.555
944.555
944.555
944.555
944.555
944.555
944.555
944.555
944.555
944.555
944.555
944.555
944.555
944.555
944.555
944.555
944.555
944.555
944.555
944.555
944.555
944.555
944.555
944.555
944.555
944.555
944.555
944.555
944.555
944.555
944.555
944.555
944.555
944.555
944.555
944.555
944.555
944.555
944.555
944.555
944.555
944.555
944.555
944.555
944.555
944.555
944.555
944.555
944.555
944.555
944.555
944.555
944.555
944.555
944.555
944.555
944.555
944.555
944.555
944.555
944.555
944.555
944.555
944.555
944.555
944.555
944.555
944.555
944.555
944.555
944.555
944.555
944.555
944.555
944.555
944.555
944.555
944.555
944.555
944.555
944.555
944.555
944.555
944.555
944.555
944.555
944.555
944.555
944.555
944.555
944.555
944.555
944.555
944.555
944.555
944.555
944.555
944.555
944.555
944.555
944.555
944.555
944.555
944.555
944.555
944.555
944.555
944.555
944.555
944.555
944.555
944.555
944.555
944.555
944.555
944.555
944.555
944.555
944.555
944.555
944.555
944.555
944.555
944.555
944.555
944.555
944.555
944.555
944.555
944.555
944.555
944.555
944.555
944.555
944.555
944.555
944.555
944.555
944.555
944.555
944.555
944.555
944.555
944.555
944.555
944.555
944.555
944.555
944.555
944.555
944.555
944.555
944.555
944.555
944.555
944.555
944.555
944.555
944.555
944.555
944.555
944.555
944.555
944.555
944.555
944.555
944.555
944.555
944.555
944.555
944.555
944.555
944.555
944.555
944.555
944.555
944.555
944.555
944.555
944.555
944.555
944.555
944.555
944.555
944.555
944.555
944.555
944.555
944.555
944.555
944.555
944.555
944.555
944.555
944.555
944.555
944.555
944.555
944.555
944.555
944.555
944.555
944.555
944.555
944.555
944.555
944.555
944.555
944.555
944.555
944.555
944.555
944.555
944.555
944.555
944.555
944.555
944.555
944.555
944.555
944.555
944.555
944.555
944.555
944.555
944.555
944.555
944.555
944.555
944.555
944.555
944.555
944.555
944.555
944.555
944.555
944.555
944.555
944.555
944.555
944.555
944.555
944.555
944.555
944.555
944.555
944.555
944.555
944.555
944.555
944.555
944.555
944.555
944.555
944.555
944.555
944.555
944.555
944.555
944.555
944.555
944.555
944.555
944.555
944.555
944.555
944.555
944.555
944.555
944.555
944.555
944.555
944.555
944.555
944.555
944.555
944.555
944.555
944.555
944.555
944.555
944.555
944.555
944.555
944.555
944.555
944.555
944.555
944.555
944.555
944.555
944.555
944.555
944.555
944.555
944.555
944.555
944.555
944.555
944.555
944.555
944.555
944.555
944.555
944.555
944.555
944.555
944.555
944.555
944.555
944.555
944.555
944.555
944.555
944.555
944.555
944.555
944.555
944.555
944.555
944.555
944.555
944.555
944.555
944.555
944.555
944.555
944.555
944.555
944.555
944.555
944.555
944.555
944.555
944.555
944.555
944.555
944.555
944.555
944.555
944.555
944.555
944.555
944.555
944.555
944.555
944.555
944.555
944.555
944.555
944.555
944.555
944.555
944.555
944.555
944.555
944.555
944.555
944.555
944.555
944.555