/*--------------------------------*- C++ -*----------------------------------*\
| =========                 |                                                 |
| \\      /  F ield         | OpenFOAM: The Open Source CFD Toolbox           |
|  \\    /   O peration     | Version:  2.1.0                                 |
|   \\  /    A nd           | Web:      www.OpenFOAM.org                      |
|    \\/     M anipulation  |                                                 |
\*---------------------------------------------------------------------------*/
FoamFile
{
    version     2.0;
    format      ascii;
    class       volScalarField;
    location    "0.36";
    object      T;
}
// * * * * * * * * * * * * * * * * * * * * * * * * * * * * * * * * * * * * * //

dimensions      [0 0 0 1 0 0 0];

internalField   nonuniform List<scalar> 
6400
(
361.156
361.983
362.789
363.576
364.346
365.1
365.839
366.563
367.273
367.968
368.65
369.317
369.97
370.608
371.233
371.844
372.44
373.023
373.592
374.148
374.69
375.219
375.734
376.237
376.726
377.203
377.667
378.118
378.557
378.984
379.398
379.801
380.192
380.571
380.939
381.296
381.641
381.976
382.3
382.614
382.917
383.21
383.493
383.766
384.03
384.284
384.529
384.764
384.991
385.209
385.419
385.62
385.813
385.998
386.176
386.345
386.508
386.664
386.814
386.957
387.094
387.225
387.35
387.468
387.581
387.688
387.788
387.883
387.972
388.055
388.132
388.202
388.267
388.324
388.376
388.42
388.457
388.486
388.508
388.52
388.522
388.512
388.488
388.446
388.382
388.287
388.15
387.952
387.659
387.211
386.488
385.22
382.785
377.84
370.523
379.956
392.138
393.134
393.15
393.15
367.142
367.857
368.568
369.262
369.94
370.602
371.251
371.886
372.507
373.114
373.709
374.289
374.857
375.411
375.953
376.481
376.997
377.5
377.991
378.469
378.934
379.388
379.83
380.259
380.678
381.084
381.48
381.864
382.237
382.6
382.952
383.293
383.624
383.945
384.256
384.557
384.848
385.13
385.402
385.666
385.921
386.167
386.404
386.633
386.854
387.067
387.272
387.469
387.659
387.841
388.017
388.186
388.348
388.504
388.655
388.8
388.939
389.073
389.202
389.326
389.445
389.56
389.67
389.776
389.877
389.975
390.069
390.16
390.246
390.33
390.41
390.486
390.56
390.63
390.698
390.762
390.823
390.881
390.935
390.986
391.034
391.078
391.118
391.154
391.185
391.212
391.233
391.25
391.262
391.273
391.289
391.326
391.415
391.612
391.997
392.556
393.066
393.147
393.15
393.15
370.409
371.059
371.712
372.35
372.973
373.582
374.178
374.762
375.332
375.89
376.435
376.968
377.489
377.998
378.495
378.98
379.453
379.914
380.364
380.803
381.23
381.646
382.051
382.445
382.828
383.2
383.562
383.914
384.256
384.588
384.91
385.222
385.525
385.819
386.103
386.379
386.645
386.903
387.152
387.393
387.626
387.851
388.067
388.277
388.478
388.673
388.86
389.041
389.215
389.382
389.543
389.698
389.847
389.991
390.129
390.262
390.39
390.512
390.63
390.743
390.852
390.957
391.057
391.154
391.247
391.337
391.424
391.508
391.589
391.667
391.743
391.817
391.889
391.959
392.027
392.094
392.159
392.223
392.285
392.346
392.406
392.465
392.522
392.579
392.634
392.688
392.74
392.791
392.841
392.889
392.936
392.981
393.023
393.062
393.094
393.116
393.142
393.15
393.15
393.15
372.554
373.152
373.757
374.349
374.928
375.495
376.05
376.594
377.126
377.646
378.155
378.653
379.141
379.617
380.082
380.537
380.981
381.415
381.839
382.252
382.655
383.049
383.432
383.806
384.17
384.525
384.871
385.207
385.534
385.852
386.16
386.46
386.752
387.034
387.309
387.574
387.832
388.081
388.323
388.556
388.782
389
389.21
389.413
389.609
389.798
389.979
390.154
390.322
390.484
390.639
390.788
390.931
391.067
391.198
391.322
391.441
391.555
391.663
391.765
391.863
391.956
392.044
392.128
392.207
392.282
392.354
392.421
392.485
392.545
392.601
392.655
392.705
392.752
392.795
392.836
392.874
392.909
392.941
392.97
392.996
393.02
393.042
393.061
393.077
393.092
393.104
393.115
393.123
393.13
393.136
393.14
393.143
393.145
393.147
393.148
393.149
393.15
393.15
393.15
373.567
374.116
374.675
375.223
375.762
376.291
376.81
377.319
377.818
378.307
378.786
379.256
379.716
380.166
380.607
381.039
381.461
381.875
382.279
382.675
383.062
383.44
383.81
384.172
384.525
384.87
385.206
385.535
385.855
386.168
386.472
386.769
387.059
387.34
387.614
387.881
388.14
388.392
388.636
388.873
389.103
389.326
389.542
389.75
389.951
390.145
390.333
390.513
390.686
390.852
391.011
391.163
391.309
391.447
391.579
391.704
391.823
391.935
392.041
392.14
392.234
392.321
392.403
392.479
392.549
392.614
392.674
392.729
392.779
392.825
392.867
392.904
392.938
392.968
392.995
393.019
393.039
393.058
393.074
393.087
393.099
393.109
393.117
393.124
393.13
393.135
393.139
393.142
393.145
393.146
393.148
393.149
393.149
393.149
393.15
393.15
393.15
393.15
393.15
393.15
373.068
373.563
374.066
374.565
375.056
375.54
376.016
376.483
376.942
377.393
377.835
378.27
378.696
379.114
379.525
379.928
380.323
380.711
381.092
381.465
381.831
382.19
382.543
382.888
383.226
383.558
383.883
384.202
384.515
384.821
385.121
385.415
385.703
385.985
386.261
386.532
386.797
387.056
387.309
387.557
387.799
388.036
388.267
388.493
388.713
388.928
389.137
389.34
389.538
389.731
389.917
390.098
390.274
390.443
390.607
390.765
390.918
391.064
391.205
391.34
391.469
391.592
391.71
391.821
391.927
392.028
392.123
392.212
392.296
392.375
392.449
392.517
392.582
392.641
392.696
392.747
392.794
392.837
392.877
392.913
392.946
392.975
393.002
393.026
393.048
393.068
393.085
393.1
393.113
393.124
393.132
393.139
393.143
393.146
393.148
393.148
393.149
393.149
393.149
393.149
370.303
370.729
371.162
371.592
372.017
372.437
372.849
373.255
373.654
374.046
374.431
374.809
375.181
375.546
375.906
376.259
376.607
376.95
377.288
377.621
377.949
378.272
378.591
378.904
379.212
379.516
379.815
380.11
380.401
380.687
380.97
381.249
381.525
381.797
382.066
382.333
382.596
382.856
383.114
383.37
383.624
383.875
384.125
384.373
384.619
384.863
385.106
385.348
385.588
385.827
386.065
386.301
386.536
386.77
387.002
387.232
387.462
387.689
387.914
388.138
388.358
388.577
388.792
389.005
389.214
389.42
389.622
389.82
390.013
390.202
390.387
390.566
390.741
390.91
391.074
391.232
391.385
391.532
391.675
391.811
391.942
392.067
392.187
392.301
392.409
392.513
392.61
392.702
392.787
392.865
392.934
392.993
393.04
393.076
393.099
393.112
393.122
393.129
393.133
393.135
364.553
364.895
365.239
365.583
365.92
366.254
366.581
366.903
367.217
367.526
367.829
368.126
368.417
368.704
368.984
369.26
369.531
369.799
370.061
370.32
370.576
370.828
371.075
371.32
371.562
371.801
372.037
372.272
372.504
372.734
372.963
373.191
373.417
373.644
373.869
374.095
374.321
374.548
374.775
375.004
375.233
375.465
375.699
375.934
376.172
376.413
376.657
376.904
377.154
377.407
377.665
377.926
378.191
378.46
378.734
379.012
379.294
379.58
379.871
380.167
380.467
380.772
381.081
381.394
381.712
382.034
382.359
382.689
383.021
383.358
383.697
384.039
384.383
384.73
385.079
385.43
385.783
386.138
386.495
386.854
387.216
387.582
387.951
388.324
388.701
389.082
389.468
389.856
390.246
390.632
391.01
391.372
391.708
392.008
392.258
392.436
392.583
392.699
392.784
392.833
355.233
355.468
355.703
355.936
356.163
356.386
356.603
356.815
357.021
357.223
357.417
357.608
357.793
357.974
358.148
358.32
358.485
358.647
358.805
358.959
359.108
359.256
359.401
359.545
359.688
359.83
359.97
360.111
360.252
360.393
360.534
360.677
360.82
360.965
361.112
361.26
361.411
361.563
361.718
361.876
362.037
362.2
362.367
362.537
362.711
362.889
363.07
363.256
363.445
363.639
363.838
364.041
364.249
364.463
364.681
364.906
365.135
365.371
365.613
365.862
366.117
366.379
366.648
366.926
367.212
367.506
367.809
368.122
368.444
368.776
369.12
369.474
369.84
370.219
370.612
371.018
371.441
371.88
372.338
372.817
373.319
373.847
374.404
374.995
375.624
376.296
377.016
377.791
378.624
379.518
380.474
381.487
382.55
383.648
384.762
385.847
386.775
387.621
388.335
388.839
342.415
342.53
342.644
342.755
342.863
342.969
343.071
343.17
343.267
343.36
343.451
343.539
343.625
343.709
343.79
343.869
343.947
344.023
344.098
344.171
344.244
344.315
344.386
344.456
344.526
344.596
344.665
344.734
344.803
344.872
344.941
345.01
345.079
345.149
345.218
345.288
345.358
345.429
345.5
345.571
345.643
345.715
345.788
345.86
345.934
346.008
346.082
346.157
346.233
346.309
346.386
346.463
346.541
346.62
346.7
346.78
346.861
346.943
347.025
347.108
347.192
347.275
347.359
347.445
347.534
347.624
347.717
347.813
347.912
348.014
348.121
348.233
348.35
348.473
348.603
348.741
348.887
349.044
349.212
349.392
349.587
349.798
350.027
350.275
350.546
350.84
351.162
351.534
351.966
352.471
353.06
353.747
354.547
355.48
356.573
357.859
359.354
360.895
362.354
363.494
329.005
329.016
329.027
329.038
329.05
329.06
329.071
329.082
329.094
329.104
329.116
329.127
329.139
329.149
329.161
329.171
329.182
329.191
329.201
329.209
329.217
329.223
329.229
329.234
329.237
329.239
329.239
329.237
329.234
329.228
329.221
329.212
329.2
329.186
329.17
329.152
329.131
329.107
329.081
329.053
329.022
328.988
328.951
328.912
328.87
328.825
328.776
328.725
328.671
328.613
328.551
328.486
328.417
328.344
328.267
328.186
328.1
328.009
327.914
327.813
327.706
327.594
327.476
327.35
327.215
327.072
326.919
326.755
326.579
326.392
326.191
325.976
325.745
325.498
325.233
324.949
324.644
324.318
323.969
323.595
323.196
322.771
322.319
321.84
321.333
320.799
320.238
319.632
318.972
318.249
317.453
316.594
315.665
314.66
313.573
312.401
311.15
309.845
308.55
307.39
318.378
318.309
318.238
318.164
318.091
318.015
317.94
317.864
317.788
317.712
317.636
317.559
317.484
317.407
317.33
317.253
317.177
317.099
317.021
316.942
316.864
316.783
316.703
316.621
316.539
316.455
316.37
316.283
316.195
316.104
316.013
315.918
315.822
315.724
315.623
315.519
315.413
315.303
315.191
315.076
314.957
314.835
314.709
314.579
314.445
314.307
314.164
314.017
313.865
313.708
313.546
313.379
313.206
313.028
312.844
312.653
312.456
312.252
312.042
311.823
311.596
311.36
311.115
310.86
310.595
310.319
310.03
309.73
309.416
309.089
308.747
308.39
308.017
307.628
307.222
306.799
306.359
305.901
305.425
304.932
304.423
303.898
303.36
302.808
302.247
301.678
301.104
300.53
299.958
299.394
298.844
298.292
297.739
297.198
296.675
296.177
295.712
295.294
294.941
294.676
310.566
310.461
310.35
310.233
310.115
309.994
309.872
309.748
309.624
309.498
309.372
309.245
309.118
308.989
308.861
308.731
308.6
308.469
308.336
308.203
308.069
307.934
307.797
307.66
307.521
307.381
307.24
307.098
306.954
306.808
306.661
306.512
306.362
306.21
306.055
305.899
305.74
305.58
305.417
305.252
305.084
304.914
304.741
304.566
304.388
304.207
304.024
303.837
303.648
303.455
303.259
303.06
302.857
302.652
302.442
302.229
302.012
301.792
301.567
301.339
301.106
300.87
300.63
300.386
300.139
299.888
299.633
299.375
299.113
298.849
298.581
298.312
298.04
297.767
297.493
297.218
296.944
296.672
296.402
296.135
295.873
295.617
295.368
295.128
294.899
294.681
294.476
294.286
294.111
293.954
293.815
293.696
293.597
293.508
293.433
293.369
293.316
293.275
293.244
293.224
304.962
304.851
304.73
304.604
304.474
304.341
304.207
304.071
303.934
303.796
303.658
303.518
303.378
303.237
303.096
302.953
302.81
302.666
302.522
302.376
302.23
302.083
301.935
301.786
301.637
301.486
301.335
301.183
301.03
300.876
300.721
300.565
300.409
300.252
300.094
299.935
299.776
299.616
299.456
299.295
299.134
298.972
298.81
298.648
298.486
298.324
298.162
298.001
297.839
297.678
297.518
297.358
297.199
297.04
296.882
296.726
296.57
296.415
296.262
296.11
295.96
295.812
295.666
295.523
295.382
295.243
295.108
294.975
294.846
294.721
294.599
294.481
294.367
294.257
294.151
294.051
293.955
293.864
293.778
293.698
293.623
293.554
293.491
293.434
293.383
293.338
293.299
293.266
293.238
293.215
293.197
293.184
293.174
293.168
293.163
293.159
293.156
293.154
293.153
293.152
301.215
301.11
300.995
300.874
300.75
300.623
300.495
300.365
300.235
300.104
299.972
299.841
299.708
299.576
299.443
299.31
299.177
299.044
298.91
298.776
298.642
298.509
298.375
298.241
298.108
297.974
297.841
297.708
297.575
297.443
297.311
297.18
297.05
296.92
296.791
296.662
296.535
296.409
296.284
296.161
296.039
295.918
295.799
295.682
295.567
295.454
295.342
295.233
295.126
295.022
294.92
294.821
294.724
294.63
294.538
294.45
294.365
294.282
294.203
294.126
294.053
293.983
293.916
293.852
293.792
293.734
293.68
293.629
293.581
293.536
293.494
293.455
293.418
293.385
293.354
293.326
293.301
293.278
293.257
293.238
293.222
293.208
293.196
293.186
293.177
293.17
293.165
293.16
293.157
293.154
293.153
293.152
293.151
293.151
293.15
293.15
293.15
293.15
293.15
293.15
298.764
298.672
298.569
298.462
298.351
298.239
298.126
298.012
297.898
297.784
297.67
297.556
297.442
297.328
297.214
297.101
296.989
296.876
296.765
296.653
296.543
296.433
296.324
296.216
296.109
296.003
295.898
295.794
295.692
295.591
295.491
295.393
295.296
295.201
295.108
295.016
294.926
294.838
294.752
294.667
294.585
294.506
294.428
294.353
294.28
294.209
294.141
294.076
294.013
293.952
293.894
293.839
293.786
293.735
293.688
293.642
293.6
293.56
293.522
293.486
293.453
293.423
293.394
293.368
293.343
293.321
293.3
293.282
293.265
293.249
293.235
293.223
293.212
293.202
293.193
293.186
293.179
293.174
293.169
293.165
293.161
293.159
293.156
293.155
293.153
293.152
293.151
293.151
293.151
293.15
293.15
293.15
293.15
293.15
293.15
293.15
293.15
293.15
293.15
293.15
297.108
297.029
296.943
296.852
296.76
296.667
296.574
296.481
296.387
296.294
296.201
296.109
296.017
295.926
295.835
295.745
295.656
295.568
295.481
295.394
295.309
295.225
295.141
295.06
294.979
294.9
294.822
294.745
294.67
294.596
294.524
294.454
294.385
294.319
294.254
294.191
294.13
294.071
294.013
293.958
293.905
293.854
293.805
293.758
293.714
293.671
293.63
293.592
293.556
293.521
293.489
293.458
293.43
293.403
293.378
293.355
293.334
293.314
293.296
293.279
293.264
293.25
293.237
293.226
293.216
293.207
293.199
293.191
293.185
293.179
293.174
293.17
293.167
293.163
293.161
293.159
293.157
293.155
293.154
293.153
293.152
293.152
293.151
293.151
293.15
293.15
293.15
293.15
293.15
293.15
293.15
293.15
293.15
293.15
293.15
293.15
293.15
293.15
293.15
293.15
295.935
295.871
295.801
295.729
295.656
295.583
295.51
295.437
295.364
295.292
295.22
295.149
295.079
295.009
294.94
294.872
294.805
294.739
294.674
294.609
294.546
294.484
294.423
294.363
294.305
294.248
294.192
294.137
294.084
294.032
293.982
293.933
293.886
293.841
293.797
293.755
293.715
293.676
293.639
293.603
293.569
293.537
293.507
293.478
293.451
293.425
293.401
293.378
293.357
293.337
293.318
293.301
293.285
293.271
293.257
293.245
293.234
293.224
293.214
293.206
293.199
293.192
293.186
293.181
293.176
293.172
293.168
293.165
293.163
293.16
293.158
293.157
293.155
293.154
293.153
293.153
293.152
293.151
293.151
293.151
293.151
293.15
293.15
293.15
293.15
293.15
293.15
293.15
293.15
293.15
293.15
293.15
293.15
293.15
293.15
293.15
293.15
293.15
293.15
293.15
295.075
295.025
294.971
294.917
294.862
294.807
294.752
294.697
294.643
294.59
294.537
294.484
294.432
294.381
294.331
294.281
294.232
294.184
294.137
294.091
294.046
294.002
293.959
293.917
293.876
293.837
293.798
293.761
293.725
293.69
293.656
293.624
293.592
293.563
293.534
293.507
293.481
293.456
293.433
293.41
293.389
293.369
293.351
293.333
293.316
293.301
293.287
293.273
293.261
293.249
293.239
293.229
293.22
293.212
293.205
293.198
293.192
293.186
293.181
293.177
293.173
293.17
293.167
293.164
293.162
293.16
293.158
293.157
293.155
293.154
293.153
293.153
293.152
293.152
293.151
293.151
293.151
293.151
293.15
293.15
293.15
293.15
293.15
293.15
293.15
293.15
293.15
293.15
293.15
293.15
293.15
293.15
293.15
293.15
293.15
293.15
293.15
293.15
293.15
293.15
294.307
294.274
294.238
294.203
294.167
294.131
294.096
294.061
294.026
293.991
293.957
293.924
293.891
293.858
293.826
293.795
293.765
293.735
293.705
293.677
293.649
293.622
293.596
293.571
293.546
293.523
293.5
293.478
293.457
293.436
293.417
293.398
293.381
293.364
293.348
293.333
293.318
293.305
293.292
293.28
293.269
293.258
293.248
293.239
293.231
293.223
293.215
293.208
293.202
293.196
293.191
293.186
293.182
293.178
293.175
293.171
293.169
293.166
293.164
293.162
293.16
293.158
293.157
293.156
293.155
293.154
293.153
293.153
293.152
293.152
293.151
293.151
293.151
293.151
293.15
293.15
293.15
293.15
293.15
293.15
293.15
293.15
293.15
293.15
293.15
293.15
293.15
293.15
293.15
293.15
293.15
293.15
293.15
293.15
293.15
293.15
293.15
293.15
293.15
293.15
393.15
393.15
393.15
393.15
393.15
393.15
393.15
393.15
393.15
393.15
393.15
393.15
393.15
393.149
393.149
393.148
393.147
393.144
393.138
393.122
393.15
393.15
393.15
393.15
393.15
393.15
393.15
393.15
393.15
393.15
393.15
393.15
393.149
393.149
393.148
393.146
393.143
393.137
393.122
393.075
393.15
393.15
393.15
393.15
393.15
393.15
393.15
393.15
393.15
393.15
393.149
393.149
393.148
393.147
393.145
393.141
393.133
393.114
393.065
392.89
393.15
393.15
393.15
393.15
393.15
393.15
393.15
393.15
393.149
393.149
393.148
393.147
393.145
393.141
393.134
393.121
393.093
393.024
392.826
392.047
393.15
393.15
393.15
393.15
393.149
393.149
393.149
393.148
393.147
393.145
393.142
393.137
393.13
393.116
393.091
393.04
392.929
392.654
391.823
388.317
393.149
393.148
393.148
393.147
393.146
393.144
393.141
393.137
393.131
393.123
393.112
393.093
393.063
393.011
392.918
392.733
392.334
391.354
388.337
375.103
393.132
393.128
393.122
393.114
393.103
393.09
393.073
393.053
393.029
392.999
392.955
392.89
392.788
392.618
392.321
391.756
390.591
387.84
379.708
345.962
392.817
392.771
392.719
392.658
392.592
392.524
392.459
392.402
392.341
392.26
392.143
391.966
391.693
391.248
390.48
389.085
386.35
380.349
364.798
314.462
388.891
388.664
388.436
388.204
387.996
387.877
387.809
387.788
387.729
387.637
387.477
387.225
386.787
386.036
384.568
381.796
376.409
365.739
344.168
299.987
363.765
363.339
362.91
362.504
362.178
362.063
361.996
361.895
361.791
361.721
361.623
361.537
361.286
360.873
359.541
356.441
349.73
337.702
318.305
300.128
306.825
306.956
307.037
307.075
307.008
306.679
306.257
305.815
305.343
304.794
304.191
303.453
302.622
301.568
300.682
300.016
299.788
299.262
297.004
295.437
294.594
294.653
294.705
294.75
294.776
294.75
294.691
294.59
294.488
294.375
294.261
294.13
294.002
293.856
293.744
293.665
293.632
293.582
293.398
293.836
293.222
293.23
293.239
293.248
293.257
293.264
293.267
293.262
293.254
293.242
293.231
293.219
293.208
293.198
293.189
293.183
293.179
293.174
293.171
293.308
293.152
293.152
293.153
293.153
293.154
293.154
293.155
293.156
293.156
293.155
293.154
293.154
293.153
293.153
293.152
293.152
293.152
293.151
293.152
293.166
293.15
293.15
293.15
293.15
293.15
293.15
293.15
293.15
293.15
293.15
293.15
293.15
293.15
293.15
293.15
293.15
293.15
293.15
293.15
293.15
293.15
293.15
293.15
293.15
293.15
293.15
293.15
293.15
293.15
293.15
293.15
293.15
293.15
293.15
293.15
293.15
293.15
293.15
293.15
293.15
293.15
293.15
293.15
293.15
293.15
293.15
293.15
293.15
293.15
293.15
293.15
293.15
293.15
293.15
293.15
293.15
293.15
293.15
293.15
293.15
293.15
293.15
293.15
293.15
293.15
293.15
293.15
293.15
293.15
293.15
293.15
293.15
293.15
293.15
293.15
293.15
293.15
293.15
293.15
293.15
293.15
293.15
293.15
293.15
293.15
293.15
293.15
293.15
293.15
293.15
293.15
293.15
293.15
293.15
293.15
293.15
293.15
293.15
293.15
293.15
293.15
293.15
293.15
293.15
293.15
293.15
293.15
293.15
293.15
293.15
293.15
293.15
293.15
293.15
293.15
293.15
293.15
293.15
293.15
293.15
393.15
393.15
393.15
393.15
393.15
393.15
393.15
393.15
393.15
393.15
393.15
393.15
393.15
393.15
393.15
393.15
393.15
393.15
393.15
393.15
393.15
393.15
393.15
393.15
393.15
393.15
393.15
393.15
393.15
393.15
393.15
393.15
393.15
393.15
393.15
393.15
393.15
393.15
393.15
393.15
393.15
393.15
393.15
393.15
393.15
393.15
393.15
393.15
393.15
393.15
393.15
393.15
393.15
393.15
393.15
393.15
393.15
393.15
393.15
393.15
393.15
393.15
393.15
393.15
393.15
393.15
393.15
393.15
393.15
393.15
393.15
393.15
393.15
393.15
393.15
393.15
393.15
393.15
393.15
393.15
393.15
393.15
393.15
393.15
393.15
393.15
393.15
393.15
393.15
393.15
393.15
393.15
393.15
393.15
393.15
393.15
393.15
393.15
393.15
393.15
393.15
393.15
393.15
393.15
393.15
393.15
393.15
393.15
393.15
393.15
393.15
393.15
393.15
393.15
393.15
393.15
393.15
393.15
393.15
393.15
393.15
393.15
393.15
393.15
393.15
393.15
393.15
393.15
393.15
393.15
393.15
393.15
393.15
393.15
393.15
393.15
393.15
393.15
393.15
393.15
393.15
393.15
393.15
393.15
393.15
393.15
393.15
393.15
393.15
393.15
393.15
393.15
393.15
393.15
393.15
393.15
393.15
393.15
393.15
393.15
393.15
393.15
393.15
393.15
393.15
393.15
393.15
393.15
393.15
393.15
393.15
393.15
393.15
393.15
393.15
393.15
393.15
393.15
393.15
393.15
393.15
393.15
393.15
393.15
393.15
393.15
393.15
393.15
393.15
393.15
393.15
393.15
393.15
393.15
393.15
393.15
393.15
393.15
393.15
393.15
393.15
393.15
393.15
393.15
393.15
393.15
393.15
393.15
393.15
393.15
393.15
393.15
393.15
393.15
393.15
393.15
393.15
393.15
393.15
393.15
393.15
393.15
393.15
393.15
393.15
393.15
393.15
393.15
393.15
393.15
393.15
393.15
393.15
393.15
393.15
393.15
393.15
393.15
393.15
393.15
393.15
393.15
393.15
393.15
393.15
393.15
393.15
393.15
393.15
393.15
393.15
393.15
393.15
393.15
393.15
393.15
393.15
393.15
393.15
393.15
393.15
393.15
393.15
393.15
393.15
393.15
393.15
393.15
393.15
393.15
393.15
393.15
393.15
393.15
393.15
393.15
393.15
393.15
393.15
393.15
393.15
393.15
393.15
393.15
393.15
393.15
393.15
393.15
393.15
393.15
393.15
393.15
393.15
393.15
393.15
393.15
393.15
393.15
393.15
393.15
393.15
393.15
393.15
393.15
393.15
393.15
393.15
393.15
393.15
393.15
393.15
393.15
393.15
393.15
393.15
393.15
393.15
393.15
393.15
393.15
393.15
393.15
393.15
393.15
393.15
393.15
393.15
393.15
393.15
393.15
393.15
393.15
393.15
393.15
393.15
393.15
393.15
393.15
393.15
393.15
393.15
393.15
393.15
393.15
393.15
393.15
393.15
393.15
393.15
393.15
393.15
393.15
393.15
393.15
393.15
393.15
393.15
393.15
393.15
393.15
393.15
393.15
393.15
393.15
393.15
393.15
393.15
393.15
393.15
393.15
393.15
393.15
393.15
393.15
393.15
393.15
393.15
393.15
393.15
393.15
393.15
393.15
393.15
393.15
393.15
393.15
393.15
393.15
393.15
393.15
393.15
393.15
393.15
393.15
393.15
393.15
393.15
393.15
393.15
393.15
393.15
393.15
393.15
393.15
393.15
393.15
393.15
393.15
393.15
393.15
393.15
393.15
393.15
393.15
393.15
393.15
393.15
393.15
393.15
393.15
393.15
393.15
393.15
393.15
393.15
393.15
393.15
393.15
393.15
393.15
393.15
393.15
393.15
393.15
393.15
393.15
393.15
393.15
393.15
393.15
393.15
393.15
393.15
393.15
393.15
393.15
393.15
393.15
393.15
393.15
393.15
393.15
393.15
393.15
393.15
393.15
393.15
393.15
393.15
393.15
393.15
393.15
393.15
393.15
393.15
393.15
393.15
393.15
393.15
393.15
393.15
393.15
393.15
393.15
393.15
393.15
393.15
393.15
393.15
393.15
393.15
393.15
393.15
393.15
393.15
393.15
393.15
393.15
393.15
393.15
393.15
393.15
393.15
393.15
393.15
393.15
393.15
393.15
393.15
393.15
393.15
393.15
393.15
393.15
393.15
393.15
393.15
393.15
393.15
393.15
393.15
393.15
393.15
393.15
393.15
393.15
393.15
393.15
393.15
393.15
393.15
393.15
393.15
393.15
393.15
393.15
393.15
393.15
393.15
393.15
393.15
393.15
393.15
393.15
393.15
393.15
393.15
393.15
393.15
393.15
393.15
393.15
393.15
393.15
393.15
393.15
393.15
393.15
393.15
393.15
393.15
393.15
393.15
393.15
393.15
393.15
393.15
393.15
393.15
393.15
393.15
393.15
393.15
393.15
393.15
393.15
393.15
393.15
393.15
393.15
393.15
393.15
393.15
393.15
393.15
393.15
393.15
393.15
393.15
393.15
393.15
393.15
393.15
393.15
393.15
393.15
393.15
393.15
393.15
393.15
393.15
393.15
393.15
393.15
393.15
393.15
393.15
393.15
393.15
393.15
393.15
393.15
393.15
393.15
393.15
393.15
393.15
393.15
393.15
393.15
393.15
393.15
393.15
393.15
393.15
393.15
393.15
393.15
393.15
393.15
393.15
393.15
393.15
393.15
393.15
393.15
393.15
393.15
393.15
393.15
393.15
393.15
393.15
393.15
393.15
393.15
393.15
393.15
393.15
393.15
393.15
393.15
393.15
393.15
393.15
393.15
393.15
393.15
393.15
393.15
393.15
393.15
393.15
393.15
393.15
393.15
393.15
393.15
393.15
393.15
393.15
393.15
393.15
393.15
393.15
393.15
393.15
393.15
393.15
393.15
393.15
393.15
393.15
393.15
393.15
393.15
393.15
393.15
393.15
393.15
393.15
393.15
393.15
393.15
393.15
393.15
393.15
393.15
393.15
393.15
393.15
393.15
393.15
393.15
393.15
393.15
393.15
393.15
393.15
393.15
393.15
393.15
393.15
393.15
393.15
393.15
393.15
393.15
393.15
393.15
393.15
393.15
393.15
393.15
393.15
393.15
393.15
393.15
393.15
393.15
393.15
393.15
393.15
393.15
393.15
393.15
393.15
393.15
393.15
393.15
393.15
393.15
393.15
393.15
393.15
393.15
393.15
393.15
393.15
393.15
393.15
393.15
393.15
393.15
393.15
393.15
393.15
393.15
393.15
393.15
393.15
393.15
393.15
393.15
393.15
393.15
393.15
393.15
393.15
393.15
393.15
393.15
393.15
393.15
393.15
393.15
393.15
393.15
393.15
393.15
393.15
393.15
393.15
393.15
393.15
393.15
393.15
393.15
393.15
393.15
393.15
393.15
393.15
393.15
393.15
393.15
393.15
393.15
393.15
393.15
393.15
393.15
393.15
393.15
393.15
393.15
393.15
393.15
393.15
393.15
393.15
393.15
393.15
393.15
393.15
393.15
393.15
393.15
393.15
393.15
393.15
393.15
393.15
393.15
393.15
393.15
393.15
393.15
393.15
393.15
393.15
393.15
393.15
393.15
393.15
393.15
393.15
393.15
393.15
393.15
393.15
393.15
393.15
393.15
393.15
393.15
393.15
393.15
393.15
393.15
393.15
393.15
393.15
393.15
393.15
393.15
393.15
393.15
393.15
393.15
393.15
393.15
393.15
393.15
393.15
393.15
393.15
393.15
393.15
393.15
393.15
393.15
393.15
393.15
393.15
393.15
393.15
393.15
393.15
393.15
393.15
393.15
393.15
393.15
393.15
393.15
393.15
393.15
393.15
393.15
393.15
393.15
393.15
393.15
393.15
393.15
393.15
393.15
393.15
393.15
393.15
393.15
393.15
393.15
393.15
393.15
393.15
393.15
393.15
393.15
393.15
393.15
393.15
393.15
393.15
393.15
393.15
393.15
393.15
393.15
393.15
393.15
393.15
393.15
393.15
393.15
393.15
393.15
393.15
393.15
393.15
393.15
393.15
393.15
393.15
393.15
393.15
393.15
393.15
393.15
393.15
393.15
393.15
393.15
393.15
393.15
393.15
393.15
393.15
393.15
393.15
393.15
393.15
393.15
393.15
393.15
393.15
393.15
393.15
393.15
393.15
393.15
393.15
393.15
393.15
393.15
393.15
393.15
393.15
393.15
393.15
393.15
393.15
393.15
393.15
393.15
393.15
393.15
393.15
393.15
393.15
393.15
393.15
393.15
393.15
393.15
393.15
393.15
393.15
393.15
393.15
393.15
393.15
393.15
393.15
393.15
393.15
393.15
393.15
393.15
393.15
393.15
393.15
393.15
393.15
393.15
393.15
393.15
393.15
393.15
393.15
393.15
393.15
393.15
393.15
393.15
393.15
393.15
393.15
393.15
393.15
393.15
393.15
393.15
393.15
393.15
393.15
393.15
393.15
393.15
393.15
393.15
393.15
393.15
393.15
393.15
393.15
393.15
393.15
393.15
393.15
393.15
393.15
393.15
393.15
393.15
393.15
393.15
393.15
393.15
393.15
393.15
393.15
393.15
393.15
393.15
393.15
393.15
393.15
393.15
393.15
393.15
393.15
393.15
393.15
393.15
393.15
393.15
393.15
393.15
393.15
393.15
393.15
393.15
393.15
393.15
393.15
393.15
393.15
393.15
393.15
393.15
393.15
393.15
393.15
393.15
393.15
393.15
393.15
393.15
393.15
393.15
393.15
393.15
393.15
393.15
393.15
393.15
393.15
393.15
393.15
393.15
393.15
393.15
393.15
393.15
393.15
393.15
393.15
393.15
393.15
393.15
393.15
393.15
393.15
393.15
393.15
393.15
393.15
393.15
393.15
393.15
393.15
393.15
393.15
393.15
393.15
393.15
393.15
393.15
393.15
393.15
393.15
393.15
393.15
393.15
393.15
393.15
393.15
393.15
393.15
393.15
393.15
393.15
393.15
393.15
393.15
393.15
393.15
393.15
393.15
393.15
393.15
393.15
393.15
393.15
393.15
393.15
393.15
393.15
393.15
393.15
393.15
393.15
393.15
393.15
393.15
393.15
393.15
393.15
393.15
393.15
393.15
393.15
393.15
393.15
393.15
393.15
393.15
393.15
393.15
393.15
393.15
393.15
393.15
393.15
393.15
393.15
393.15
393.15
393.15
393.15
393.15
393.15
393.15
393.15
393.15
393.15
393.15
393.15
393.15
393.15
393.15
393.15
393.15
393.15
393.15
393.15
393.15
393.15
393.15
393.15
393.15
393.15
393.15
393.15
393.15
393.15
393.15
393.15
393.15
393.15
393.15
393.15
393.15
393.15
393.15
393.15
393.15
393.15
393.15
393.15
393.15
393.15
393.15
393.15
393.15
393.15
393.15
393.15
393.15
393.15
393.15
393.15
393.15
393.15
393.15
393.15
393.15
393.15
393.15
393.15
393.15
393.15
393.15
393.15
393.15
393.15
393.15
393.15
393.15
393.15
393.15
393.15
393.15
393.15
393.15
393.15
393.15
393.15
393.15
393.15
393.15
393.15
393.15
393.15
393.15
393.15
393.15
393.15
393.15
393.15
393.15
393.15
393.15
393.15
393.15
393.15
393.15
393.15
393.15
393.15
393.15
393.15
393.15
393.15
393.15
393.15
393.15
393.15
393.15
393.15
393.15
393.15
393.15
393.15
393.15
393.15
393.15
393.15
393.15
393.15
393.15
393.15
393.15
393.15
393.15
393.15
393.15
393.15
393.15
393.15
393.15
393.15
393.15
393.15
393.15
393.15
393.15
393.15
393.15
393.15
393.15
393.15
393.15
393.15
393.15
393.15
393.15
393.15
393.15
393.15
393.15
393.15
393.15
393.15
393.15
393.15
393.15
393.15
393.15
393.15
393.15
393.15
393.15
393.15
393.15
393.15
393.15
393.15
393.15
393.15
393.15
393.15
393.15
393.15
393.15
393.15
393.15
393.15
393.15
393.15
393.15
393.15
393.15
393.15
393.15
393.15
393.15
393.15
393.15
393.15
393.15
393.15
393.15
393.15
393.15
393.15
393.15
393.15
393.15
393.15
393.15
393.15
393.15
393.15
393.15
393.15
393.15
393.15
393.15
393.15
393.15
393.15
393.15
393.15
393.15
393.15
393.15
393.15
393.15
393.15
393.15
393.15
393.15
393.15
393.15
393.15
393.15
393.15
393.15
393.15
393.15
393.15
393.15
393.15
393.15
393.15
393.15
393.15
393.15
393.15
393.15
393.15
393.15
393.15
393.15
393.15
393.15
393.15
393.15
393.15
393.15
393.15
393.15
393.15
393.15
393.15
393.15
393.15
393.15
393.15
393.15
393.15
393.15
393.15
393.15
393.15
393.15
393.15
393.15
393.15
393.15
393.15
393.15
393.15
393.15
393.15
393.15
393.15
393.15
393.15
393.15
393.15
393.15
393.15
393.15
393.15
393.15
393.15
393.15
393.15
393.15
393.15
393.15
393.15
393.15
393.15
393.15
393.15
393.15
393.15
393.15
393.15
393.15
393.15
393.15
393.15
393.15
393.15
393.15
393.15
393.15