/*--------------------------------*- C++ -*----------------------------------*\
| =========                 |                                                 |
| \\      /  F ield         | OpenFOAM: The Open Source CFD Toolbox           |
|  \\    /   O peration     | Version:  2.1.0                                 |
|   \\  /    A nd           | Web:      www.OpenFOAM.org                      |
|    \\/     M anipulation  |                                                 |
\*---------------------------------------------------------------------------*/
FoamFile
{
    version     2.0;
    format      ascii;
    class       volVectorField;
    location    "0.36";
    object      U;
}
// * * * * * * * * * * * * * * * * * * * * * * * * * * * * * * * * * * * * * //

dimensions      [0 1 -1 0 0 0 0];

internalField   nonuniform List<vector> 
6400
(
(-1.29438 -6.2205e-05 0)
(-1.29363 -0.00053612 0)
(-1.29162 -0.000821915 0)
(-1.28866 -0.000968275 0)
(-1.28522 -0.00105601 0)
(-1.28148 -0.00111544 0)
(-1.27752 -0.00115852 0)
(-1.27339 -0.00119238 0)
(-1.26914 -0.00122091 0)
(-1.26476 -0.00124645 0)
(-1.26027 -0.00127042 0)
(-1.25567 -0.00129356 0)
(-1.25098 -0.00131639 0)
(-1.24618 -0.00133911 0)
(-1.24128 -0.00136199 0)
(-1.23628 -0.00138501 0)
(-1.23117 -0.00140838 0)
(-1.22596 -0.001432 0)
(-1.22065 -0.00145597 0)
(-1.21523 -0.00148013 0)
(-1.2097 -0.00150475 0)
(-1.20406 -0.00152982 0)
(-1.19831 -0.00155533 0)
(-1.19245 -0.00158085 0)
(-1.18648 -0.00160746 0)
(-1.18039 -0.0016355 0)
(-1.17418 -0.00166455 0)
(-1.16784 -0.00169441 0)
(-1.16137 -0.00172522 0)
(-1.15476 -0.00175699 0)
(-1.14802 -0.00178986 0)
(-1.14114 -0.00182387 0)
(-1.13412 -0.00185916 0)
(-1.12694 -0.00189579 0)
(-1.11961 -0.00193388 0)
(-1.11211 -0.00197345 0)
(-1.10445 -0.00201465 0)
(-1.09661 -0.00205751 0)
(-1.08859 -0.00210216 0)
(-1.08038 -0.0021488 0)
(-1.07198 -0.00219757 0)
(-1.06337 -0.00224851 0)
(-1.05455 -0.00230171 0)
(-1.04551 -0.00235728 0)
(-1.03624 -0.00241525 0)
(-1.02673 -0.00247561 0)
(-1.01696 -0.0025384 0)
(-1.00694 -0.00260345 0)
(-0.996652 -0.00267061 0)
(-0.986086 -0.00274045 0)
(-0.97524 -0.00280995 0)
(-0.96411 -0.00288158 0)
(-0.952677 -0.00295977 0)
(-0.940923 -0.00304182 0)
(-0.928833 -0.0031258 0)
(-0.916417 -0.00320768 0)
(-0.903675 -0.00328653 0)
(-0.890619 -0.00336449 0)
(-0.877249 -0.00344352 0)
(-0.863559 -0.0035244 0)
(-0.849541 -0.00360769 0)
(-0.835185 -0.00369331 0)
(-0.820481 -0.00378183 0)
(-0.805418 -0.00387374 0)
(-0.789981 -0.00396924 0)
(-0.774155 -0.00406886 0)
(-0.757924 -0.00417305 0)
(-0.741267 -0.00428254 0)
(-0.724164 -0.00439775 0)
(-0.706591 -0.00451906 0)
(-0.688524 -0.0046469 0)
(-0.669935 -0.00478191 0)
(-0.650796 -0.00492461 0)
(-0.631073 -0.00507587 0)
(-0.610733 -0.00523667 0)
(-0.589735 -0.00540831 0)
(-0.568033 -0.00559249 0)
(-0.545573 -0.00579134 0)
(-0.522292 -0.00600792 0)
(-0.498111 -0.00624663 0)
(-0.472933 -0.00651289 0)
(-0.446635 -0.00681348 0)
(-0.419067 -0.00715702 0)
(-0.390039 -0.00755276 0)
(-0.359335 -0.00800744 0)
(-0.326717 -0.00852329 0)
(-0.291954 -0.00909541 0)
(-0.254867 -0.00970345 0)
(-0.215413 -0.0102967 0)
(-0.173869 -0.0107645 0)
(-0.131173 -0.0108809 0)
(-0.0895844 -0.0101977 0)
(-0.0532842 -0.00818676 0)
(-0.0275295 -0.00483491 0)
(-0.0159558 -0.0010011 0)
(-0.0203148 0.00317425 0)
(-0.0490954 0.0113253 0)
(-0.129177 0.029201 0)
(-0.328936 0.0711544 0)
(-0.948493 0.198979 0)
(-1.56258 -0.000383941 0)
(-1.55987 -0.00173847 0)
(-1.55815 -0.00249539 0)
(-1.55508 -0.00289978 0)
(-1.55164 -0.00314677 0)
(-1.54792 -0.00331426 0)
(-1.54403 -0.00343567 0)
(-1.53998 -0.00353093 0)
(-1.53582 -0.00361116 0)
(-1.53156 -0.0036829 0)
(-1.5272 -0.00375023 0)
(-1.52275 -0.0038152 0)
(-1.51821 -0.0038794 0)
(-1.51358 -0.00394333 0)
(-1.50886 -0.00400785 0)
(-1.50406 -0.00407287 0)
(-1.49915 -0.004139 0)
(-1.49416 -0.00420593 0)
(-1.48908 -0.00427396 0)
(-1.4839 -0.00434258 0)
(-1.47862 -0.00441243 0)
(-1.47325 -0.00448346 0)
(-1.46777 -0.00455569 0)
(-1.46221 -0.00462714 0)
(-1.45654 -0.0047009 0)
(-1.45078 -0.00477849 0)
(-1.44492 -0.00485825 0)
(-1.43896 -0.00493999 0)
(-1.4329 -0.00502402 0)
(-1.42673 -0.00511047 0)
(-1.42046 -0.00519967 0)
(-1.41408 -0.00529173 0)
(-1.40759 -0.00538698 0)
(-1.40098 -0.00548563 0)
(-1.39426 -0.00558793 0)
(-1.38742 -0.00569395 0)
(-1.38046 -0.00580412 0)
(-1.37337 -0.00591857 0)
(-1.36616 -0.00603744 0)
(-1.35881 -0.00616124 0)
(-1.35132 -0.00629037 0)
(-1.34369 -0.006425 0)
(-1.33592 -0.00656536 0)
(-1.32799 -0.00671181 0)
(-1.31991 -0.00686453 0)
(-1.31167 -0.00702365 0)
(-1.30325 -0.00718939 0)
(-1.29466 -0.0073616 0)
(-1.28588 -0.00754009 0)
(-1.27691 -0.00772612 0)
(-1.26772 -0.00791393 0)
(-1.25835 -0.00810371 0)
(-1.24879 -0.00830086 0)
(-1.23905 -0.00850233 0)
(-1.22914 -0.00870684 0)
(-1.21909 -0.00890999 0)
(-1.20886 -0.00910926 0)
(-1.19844 -0.00930736 0)
(-1.18785 -0.00950796 0)
(-1.17707 -0.00971289 0)
(-1.16611 -0.00992341 0)
(-1.15495 -0.0101395 0)
(-1.14361 -0.0103621 0)
(-1.13207 -0.0105919 0)
(-1.12034 -0.0108296 0)
(-1.1084 -0.0110764 0)
(-1.09627 -0.0113335 0)
(-1.08392 -0.0116024 0)
(-1.07135 -0.0118846 0)
(-1.05857 -0.0121813 0)
(-1.04555 -0.012494 0)
(-1.03228 -0.0128248 0)
(-1.01874 -0.0131753 0)
(-1.00492 -0.0135484 0)
(-0.990794 -0.0139472 0)
(-0.976327 -0.0143757 0)
(-0.961486 -0.0148389 0)
(-0.946228 -0.0153428 0)
(-0.930503 -0.0158955 0)
(-0.914254 -0.0165082 0)
(-0.897409 -0.0171944 0)
(-0.87989 -0.01797 0)
(-0.861606 -0.0188543 0)
(-0.842459 -0.0198683 0)
(-0.822341 -0.0210273 0)
(-0.80114 -0.0223351 0)
(-0.77876 -0.0237758 0)
(-0.755149 -0.0252935 0)
(-0.730344 -0.0267582 0)
(-0.704549 -0.0279001 0)
(-0.678226 -0.0281955 0)
(-0.652155 -0.0266861 0)
(-0.627708 -0.0221154 0)
(-0.607796 -0.013875 0)
(-0.601478 -0.00124922 0)
(-0.616332 0.0130253 0)
(-0.664433 0.0397319 0)
(-0.768307 0.0920429 0)
(-0.971154 0.204371 0)
(-1.45976 0.526441 0)
(-1.71347 -0.000995256 0)
(-1.70985 -0.00299997 0)
(-1.70897 -0.00409767 0)
(-1.70645 -0.00471139 0)
(-1.70359 -0.00509185 0)
(-1.70052 -0.00534949 0)
(-1.69729 -0.00553503 0)
(-1.69395 -0.00568004 0)
(-1.69051 -0.00580112 0)
(-1.68701 -0.00590914 0)
(-1.68342 -0.00600985 0)
(-1.67977 -0.006107 0)
(-1.67605 -0.00620273 0)
(-1.67228 -0.00629826 0)
(-1.66843 -0.0063946 0)
(-1.66453 -0.00649206 0)
(-1.66056 -0.00659129 0)
(-1.65653 -0.00669226 0)
(-1.65242 -0.00679524 0)
(-1.64824 -0.00689968 0)
(-1.64399 -0.00700644 0)
(-1.63966 -0.00711573 0)
(-1.63525 -0.00722758 0)
(-1.63076 -0.00733862 0)
(-1.62618 -0.00745062 0)
(-1.62154 -0.00756525 0)
(-1.61681 -0.00768138 0)
(-1.61203 -0.00779964 0)
(-1.60718 -0.00792057 0)
(-1.60226 -0.00804448 0)
(-1.59728 -0.00817174 0)
(-1.59223 -0.00830256 0)
(-1.58712 -0.00843728 0)
(-1.58194 -0.00857616 0)
(-1.5767 -0.0087195 0)
(-1.57139 -0.00886731 0)
(-1.56601 -0.00902009 0)
(-1.56058 -0.00917824 0)
(-1.55508 -0.00934152 0)
(-1.54951 -0.00951046 0)
(-1.54389 -0.00968565 0)
(-1.5382 -0.00986718 0)
(-1.53245 -0.0100554 0)
(-1.52665 -0.0102506 0)
(-1.5208 -0.0104531 0)
(-1.51489 -0.010663 0)
(-1.50893 -0.0108808 0)
(-1.50293 -0.0111063 0)
(-1.49688 -0.0113393 0)
(-1.4908 -0.0115798 0)
(-1.48467 -0.0118245 0)
(-1.47854 -0.0120699 0)
(-1.47237 -0.0123143 0)
(-1.46618 -0.0125565 0)
(-1.45998 -0.0127988 0)
(-1.45379 -0.013043 0)
(-1.4476 -0.0132869 0)
(-1.44139 -0.0135301 0)
(-1.43518 -0.0137746 0)
(-1.42897 -0.0140224 0)
(-1.42277 -0.0142744 0)
(-1.4166 -0.0145307 0)
(-1.41045 -0.0147915 0)
(-1.40434 -0.0150569 0)
(-1.39829 -0.0153276 0)
(-1.3923 -0.0156045 0)
(-1.3864 -0.0158889 0)
(-1.38061 -0.0161818 0)
(-1.37493 -0.0164851 0)
(-1.36939 -0.0168004 0)
(-1.36402 -0.0171298 0)
(-1.35882 -0.0174761 0)
(-1.35382 -0.0178416 0)
(-1.34904 -0.0182306 0)
(-1.34449 -0.0186481 0)
(-1.34019 -0.0191001 0)
(-1.33614 -0.0195944 0)
(-1.33235 -0.0201401 0)
(-1.32883 -0.0207486 0)
(-1.32555 -0.0214361 0)
(-1.32251 -0.0222209 0)
(-1.31968 -0.023123 0)
(-1.31702 -0.0241653 0)
(-1.31449 -0.0253717 0)
(-1.31207 -0.0267603 0)
(-1.3097 -0.0283335 0)
(-1.30736 -0.030063 0)
(-1.30506 -0.0318663 0)
(-1.30285 -0.0335649 0)
(-1.30088 -0.0348112 0)
(-1.29942 -0.0349764 0)
(-1.29882 -0.0330089 0)
(-1.29959 -0.0274008 0)
(-1.30321 -0.0165917 0)
(-1.31182 0.00174385 0)
(-1.32875 0.02595 0)
(-1.36801 0.0693672 0)
(-1.44404 0.149559 0)
(-1.58779 0.31143 0)
(-1.85865 0.719368 0)
(-1.8497 -0.00169381 0)
(-1.84581 -0.00402935 0)
(-1.84593 -0.00536972 0)
(-1.8443 -0.00614897 0)
(-1.84241 -0.00663648 0)
(-1.84036 -0.00696424 0)
(-1.83819 -0.00719701 0)
(-1.83596 -0.00737664 0)
(-1.83365 -0.00752387 0)
(-1.83132 -0.00765381 0)
(-1.82892 -0.00777313 0)
(-1.82652 -0.00788757 0)
(-1.82407 -0.00799924 0)
(-1.82162 -0.00811047 0)
(-1.81913 -0.00822199 0)
(-1.81663 -0.00833482 0)
(-1.81409 -0.00844933 0)
(-1.81156 -0.00856609 0)
(-1.80898 -0.00868524 0)
(-1.80641 -0.00880613 0)
(-1.80381 -0.00892995 0)
(-1.8012 -0.00905705 0)
(-1.79856 -0.00918678 0)
(-1.79592 -0.00931759 0)
(-1.79328 -0.00944865 0)
(-1.79062 -0.00957919 0)
(-1.78794 -0.00970966 0)
(-1.78525 -0.00984146 0)
(-1.78256 -0.00997535 0)
(-1.77987 -0.0101117 0)
(-1.77717 -0.0102508 0)
(-1.77447 -0.010393 0)
(-1.77178 -0.0105384 0)
(-1.7691 -0.0106872 0)
(-1.76642 -0.0108397 0)
(-1.76376 -0.0109957 0)
(-1.76112 -0.0111554 0)
(-1.75851 -0.0113193 0)
(-1.75592 -0.0114871 0)
(-1.75337 -0.0116589 0)
(-1.75085 -0.0118351 0)
(-1.74839 -0.0120156 0)
(-1.74597 -0.0122004 0)
(-1.74362 -0.0123896 0)
(-1.74135 -0.0125832 0)
(-1.73915 -0.0127809 0)
(-1.73705 -0.0129829 0)
(-1.73506 -0.0131886 0)
(-1.73318 -0.0133975 0)
(-1.73144 -0.0136075 0)
(-1.72985 -0.0138177 0)
(-1.72842 -0.0140298 0)
(-1.72714 -0.0142406 0)
(-1.726 -0.0144461 0)
(-1.72501 -0.0146481 0)
(-1.72418 -0.0148494 0)
(-1.72351 -0.0150491 0)
(-1.72302 -0.0152451 0)
(-1.72273 -0.0154378 0)
(-1.72264 -0.0156282 0)
(-1.72277 -0.0158168 0)
(-1.72313 -0.0160034 0)
(-1.72375 -0.0161876 0)
(-1.72464 -0.0163691 0)
(-1.72581 -0.016548 0)
(-1.72728 -0.0167253 0)
(-1.72908 -0.0169018 0)
(-1.7312 -0.0170785 0)
(-1.73368 -0.0172573 0)
(-1.73652 -0.0174401 0)
(-1.73973 -0.0176294 0)
(-1.74333 -0.0178291 0)
(-1.74731 -0.0180428 0)
(-1.75167 -0.0182762 0)
(-1.75642 -0.0185362 0)
(-1.76153 -0.0188315 0)
(-1.76699 -0.0191731 0)
(-1.77278 -0.0195735 0)
(-1.77885 -0.0200471 0)
(-1.78516 -0.0206142 0)
(-1.79168 -0.021298 0)
(-1.79834 -0.0221208 0)
(-1.80508 -0.0231073 0)
(-1.81184 -0.0242813 0)
(-1.81859 -0.0256595 0)
(-1.82526 -0.0272401 0)
(-1.83186 -0.0289829 0)
(-1.83838 -0.0307852 0)
(-1.84489 -0.0324395 0)
(-1.85147 -0.0335634 0)
(-1.85822 -0.0335034 0)
(-1.86518 -0.0312214 0)
(-1.87232 -0.0251611 0)
(-1.88013 -0.0133782 0)
(-1.88924 0.00590496 0)
(-1.9001 0.0359789 0)
(-1.9226 0.0889855 0)
(-1.96374 0.185693 0)
(-2.03287 0.375267 0)
(-2.13365 0.77805 0)
(-1.98704 -0.00229326 0)
(-1.98353 -0.00469282 0)
(-1.98476 -0.00614262 0)
(-1.98435 -0.00701883 0)
(-1.98388 -0.007573 0)
(-1.98329 -0.00794045 0)
(-1.98268 -0.00819696 0)
(-1.98203 -0.00838931 0)
(-1.98139 -0.00854286 0)
(-1.98075 -0.00867439 0)
(-1.98011 -0.00879242 0)
(-1.9795 -0.00890318 0)
(-1.97891 -0.00900951 0)
(-1.97835 -0.00911387 0)
(-1.97781 -0.00921723 0)
(-1.97732 -0.00932062 0)
(-1.97685 -0.00942442 0)
(-1.97644 -0.00952924 0)
(-1.97607 -0.00963543 0)
(-1.97576 -0.00974149 0)
(-1.9755 -0.00984861 0)
(-1.97531 -0.00995749 0)
(-1.97518 -0.0100665 0)
(-1.97514 -0.0101768 0)
(-1.97517 -0.0102891 0)
(-1.97527 -0.0104012 0)
(-1.97544 -0.0105124 0)
(-1.97567 -0.0106236 0)
(-1.97598 -0.0107353 0)
(-1.97637 -0.0108479 0)
(-1.97683 -0.0109616 0)
(-1.97739 -0.0110766 0)
(-1.97803 -0.0111929 0)
(-1.97877 -0.0113105 0)
(-1.97961 -0.0114297 0)
(-1.98055 -0.01155 0)
(-1.98161 -0.0116715 0)
(-1.98279 -0.0117943 0)
(-1.98408 -0.0119183 0)
(-1.98551 -0.0120434 0)
(-1.98708 -0.0121697 0)
(-1.98879 -0.0122967 0)
(-1.99065 -0.0124244 0)
(-1.99267 -0.0125526 0)
(-1.99485 -0.0126812 0)
(-1.9972 -0.0128096 0)
(-1.99972 -0.0129377 0)
(-2.00243 -0.0130649 0)
(-2.00533 -0.0131904 0)
(-2.00842 -0.0133125 0)
(-2.0117 -0.0134308 0)
(-2.01518 -0.0135498 0)
(-2.01886 -0.0136686 0)
(-2.02275 -0.013782 0)
(-2.02686 -0.0138896 0)
(-2.03117 -0.0139922 0)
(-2.03571 -0.0140891 0)
(-2.04047 -0.0141792 0)
(-2.04545 -0.0142623 0)
(-2.05066 -0.0143394 0)
(-2.0561 -0.0144109 0)
(-2.06176 -0.0144771 0)
(-2.06764 -0.0145375 0)
(-2.07375 -0.0145917 0)
(-2.08007 -0.0146405 0)
(-2.0866 -0.0146849 0)
(-2.09333 -0.0147265 0)
(-2.10027 -0.0147668 0)
(-2.10739 -0.0148082 0)
(-2.11469 -0.0148533 0)
(-2.12216 -0.0149056 0)
(-2.12978 -0.0149694 0)
(-2.13755 -0.0150502 0)
(-2.14546 -0.0151548 0)
(-2.15348 -0.0152914 0)
(-2.16162 -0.0154706 0)
(-2.16984 -0.0157052 0)
(-2.17815 -0.0160109 0)
(-2.18652 -0.0164016 0)
(-2.19496 -0.0169006 0)
(-2.20342 -0.0175342 0)
(-2.21192 -0.0183243 0)
(-2.22043 -0.0192953 0)
(-2.22895 -0.0204687 0)
(-2.23747 -0.0218581 0)
(-2.24599 -0.0234562 0)
(-2.25454 -0.0252139 0)
(-2.26312 -0.0270161 0)
(-2.27176 -0.0286461 0)
(-2.28045 -0.0297226 0)
(-2.28912 -0.02962 0)
(-2.29751 -0.0273881 0)
(-2.3051 -0.0215698 0)
(-2.31191 -0.0103074 0)
(-2.31715 0.00856741 0)
(-2.31965 0.0403913 0)
(-2.32413 0.0968223 0)
(-2.33005 0.19909 0)
(-2.32798 0.39257 0)
(-2.31033 0.744369 0)
(-2.13215 -0.0026268 0)
(-2.12968 -0.00486488 0)
(-2.13206 -0.00626766 0)
(-2.13317 -0.00714045 0)
(-2.13441 -0.00769598 0)
(-2.13567 -0.00805712 0)
(-2.13701 -0.00830256 0)
(-2.13838 -0.00847799 0)
(-2.13982 -0.00861162 0)
(-2.14132 -0.00871955 0)
(-2.14287 -0.00881202 0)
(-2.1445 -0.00889457 0)
(-2.14619 -0.00897106 0)
(-2.14797 -0.00904333 0)
(-2.14982 -0.00911296 0)
(-2.15176 -0.00918046 0)
(-2.15378 -0.00924654 0)
(-2.15591 -0.00931135 0)
(-2.15811 -0.00937614 0)
(-2.16043 -0.00943803 0)
(-2.16284 -0.00949772 0)
(-2.16537 -0.00955767 0)
(-2.168 -0.0096163 0)
(-2.17075 -0.00967467 0)
(-2.1736 -0.00973528 0)
(-2.17658 -0.00979633 0)
(-2.17967 -0.00985604 0)
(-2.18289 -0.00991451 0)
(-2.18622 -0.00997206 0)
(-2.18969 -0.0100288 0)
(-2.19328 -0.010085 0)
(-2.19701 -0.0101408 0)
(-2.20086 -0.0101963 0)
(-2.20485 -0.0102516 0)
(-2.20898 -0.0103066 0)
(-2.21324 -0.0103612 0)
(-2.21764 -0.0104156 0)
(-2.22218 -0.0104695 0)
(-2.22686 -0.0105229 0)
(-2.23168 -0.010576 0)
(-2.23663 -0.0106288 0)
(-2.24173 -0.0106811 0)
(-2.24695 -0.0107328 0)
(-2.25232 -0.0107838 0)
(-2.25782 -0.0108342 0)
(-2.26344 -0.0108836 0)
(-2.26919 -0.0109318 0)
(-2.27507 -0.0109788 0)
(-2.28106 -0.0110239 0)
(-2.28717 -0.0110661 0)
(-2.29339 -0.011106 0)
(-2.29971 -0.0111453 0)
(-2.30614 -0.0111835 0)
(-2.31266 -0.0112179 0)
(-2.31928 -0.0112475 0)
(-2.32598 -0.0112722 0)
(-2.33275 -0.0112915 0)
(-2.3396 -0.011305 0)
(-2.34652 -0.0113126 0)
(-2.35351 -0.0113152 0)
(-2.36054 -0.0113141 0)
(-2.36763 -0.01131 0)
(-2.37477 -0.0113018 0)
(-2.38194 -0.0112889 0)
(-2.38916 -0.0112725 0)
(-2.39641 -0.0112537 0)
(-2.4037 -0.0112344 0)
(-2.41102 -0.0112165 0)
(-2.41837 -0.0112021 0)
(-2.42575 -0.011194 0)
(-2.43317 -0.0111959 0)
(-2.44062 -0.0112118 0)
(-2.44811 -0.0112472 0)
(-2.45563 -0.011309 0)
(-2.4632 -0.0114055 0)
(-2.4708 -0.0115471 0)
(-2.47846 -0.0117466 0)
(-2.48616 -0.0120206 0)
(-2.49391 -0.0123818 0)
(-2.50173 -0.0128509 0)
(-2.50962 -0.0134544 0)
(-2.51761 -0.014215 0)
(-2.52569 -0.0151562 0)
(-2.53389 -0.0162976 0)
(-2.54222 -0.0176504 0)
(-2.5507 -0.0192074 0)
(-2.55932 -0.0209175 0)
(-2.56811 -0.0226645 0)
(-2.57703 -0.0242425 0)
(-2.58602 -0.0253006 0)
(-2.59485 -0.0252812 0)
(-2.60309 -0.0233596 0)
(-2.60986 -0.018336 0)
(-2.61483 -0.00848698 0)
(-2.61613 0.00879342 0)
(-2.61072 0.0391717 0)
(-2.59902 0.0933376 0)
(-2.57338 0.19125 0)
(-2.51179 0.368779 0)
(-2.41561 0.652508 0)
(-2.28105 -0.00259164 0)
(-2.27982 -0.00446224 0)
(-2.28328 -0.00566677 0)
(-2.28592 -0.0064314 0)
(-2.28877 -0.00691641 0)
(-2.29181 -0.0072233 0)
(-2.29495 -0.00742249 0)
(-2.29822 -0.00755465 0)
(-2.30155 -0.00764632 0)
(-2.305 -0.00771214 0)
(-2.3085 -0.00776217 0)
(-2.31212 -0.00780133 0)
(-2.31579 -0.0078337 0)
(-2.31958 -0.00786078 0)
(-2.32342 -0.00788444 0)
(-2.32737 -0.00790493 0)
(-2.33138 -0.00792323 0)
(-2.3355 -0.00793919 0)
(-2.33968 -0.00795475 0)
(-2.34395 -0.00796663 0)
(-2.34831 -0.00797404 0)
(-2.35277 -0.00797939 0)
(-2.35731 -0.00798278 0)
(-2.36196 -0.00798517 0)
(-2.3667 -0.0079883 0)
(-2.37154 -0.00799113 0)
(-2.37648 -0.00799275 0)
(-2.38152 -0.00799303 0)
(-2.38665 -0.00799227 0)
(-2.39189 -0.00799053 0)
(-2.39721 -0.00798831 0)
(-2.40263 -0.00798576 0)
(-2.40813 -0.00798341 0)
(-2.41372 -0.00798116 0)
(-2.41939 -0.00797947 0)
(-2.42515 -0.00797819 0)
(-2.43097 -0.0079777 0)
(-2.43687 -0.00797773 0)
(-2.44282 -0.00797868 0)
(-2.44885 -0.00798066 0)
(-2.45492 -0.00798387 0)
(-2.46105 -0.00798826 0)
(-2.46721 -0.00799387 0)
(-2.47342 -0.0080007 0)
(-2.47966 -0.00800891 0)
(-2.48594 -0.0080181 0)
(-2.49223 -0.00802821 0)
(-2.49855 -0.00803921 0)
(-2.50488 -0.00805059 0)
(-2.51122 -0.00806158 0)
(-2.51756 -0.00807248 0)
(-2.52391 -0.00808429 0)
(-2.53026 -0.00809626 0)
(-2.53661 -0.00810662 0)
(-2.54295 -0.00811456 0)
(-2.54929 -0.00811948 0)
(-2.55561 -0.00812063 0)
(-2.56193 -0.00811741 0)
(-2.56824 -0.00810962 0)
(-2.57454 -0.00809763 0)
(-2.58084 -0.00808296 0)
(-2.58713 -0.00806685 0)
(-2.59341 -0.0080471 0)
(-2.59969 -0.00802166 0)
(-2.60598 -0.00799193 0)
(-2.61228 -0.0079589 0)
(-2.6186 -0.00792435 0)
(-2.62494 -0.00788976 0)
(-2.6313 -0.00785702 0)
(-2.63771 -0.00782862 0)
(-2.64415 -0.00780774 0)
(-2.65065 -0.00779824 0)
(-2.65722 -0.00780525 0)
(-2.66385 -0.0078354 0)
(-2.67057 -0.00789705 0)
(-2.67737 -0.00800028 0)
(-2.68429 -0.00815743 0)
(-2.69132 -0.00838337 0)
(-2.69847 -0.00869422 0)
(-2.7058 -0.00910932 0)
(-2.71325 -0.00965061 0)
(-2.72087 -0.0103415 0)
(-2.72867 -0.0112052 0)
(-2.73668 -0.0122591 0)
(-2.74492 -0.0135134 0)
(-2.7534 -0.0149663 0)
(-2.76214 -0.016571 0)
(-2.77112 -0.0182157 0)
(-2.78028 -0.019721 0)
(-2.78948 -0.0207865 0)
(-2.7984 -0.0209479 0)
(-2.80646 -0.019532 0)
(-2.81255 -0.0156613 0)
(-2.81582 -0.00781425 0)
(-2.81398 0.00667607 0)
(-2.80164 0.0330041 0)
(-2.77594 0.080028 0)
(-2.72357 0.164858 0)
(-2.61596 0.312669 0)
(-2.4701 0.525558 0)
(-2.41407 -0.00220609 0)
(-2.41374 -0.0035529 0)
(-2.41787 -0.00446167 0)
(-2.42148 -0.00504478 0)
(-2.42526 -0.00541068 0)
(-2.42939 -0.00563468 0)
(-2.43355 -0.00577083 0)
(-2.43793 -0.00585168 0)
(-2.44227 -0.00589823 0)
(-2.44679 -0.00592271 0)
(-2.45127 -0.00593328 0)
(-2.45589 -0.00593418 0)
(-2.46049 -0.00592885 0)
(-2.46521 -0.00591873 0)
(-2.4699 -0.00590549 0)
(-2.47472 -0.00588944 0)
(-2.47952 -0.0058715 0)
(-2.48442 -0.00585151 0)
(-2.48932 -0.00583003 0)
(-2.4943 -0.00580624 0)
(-2.49931 -0.00578 0)
(-2.50439 -0.00575046 0)
(-2.50946 -0.00571879 0)
(-2.5146 -0.00568653 0)
(-2.51974 -0.00565507 0)
(-2.52494 -0.00562388 0)
(-2.53013 -0.00559287 0)
(-2.53538 -0.00556168 0)
(-2.54061 -0.00553095 0)
(-2.5459 -0.00550033 0)
(-2.55116 -0.00547084 0)
(-2.55647 -0.00544224 0)
(-2.56175 -0.00541578 0)
(-2.56707 -0.00539081 0)
(-2.57236 -0.00536843 0)
(-2.57768 -0.00534804 0)
(-2.58297 -0.00533034 0)
(-2.58827 -0.00531483 0)
(-2.59355 -0.00530224 0)
(-2.59884 -0.00529253 0)
(-2.6041 -0.00528569 0)
(-2.60937 -0.00528167 0)
(-2.61461 -0.00528044 0)
(-2.61985 -0.00528188 0)
(-2.62507 -0.00528609 0)
(-2.63029 -0.00529251 0)
(-2.63548 -0.00530084 0)
(-2.64068 -0.00531103 0)
(-2.64586 -0.00532256 0)
(-2.65104 -0.00533461 0)
(-2.6562 -0.00534701 0)
(-2.66138 -0.00536017 0)
(-2.66654 -0.00537323 0)
(-2.67172 -0.00538467 0)
(-2.67689 -0.00539356 0)
(-2.68209 -0.00539901 0)
(-2.68729 -0.00540008 0)
(-2.69251 -0.00539587 0)
(-2.69775 -0.00538591 0)
(-2.70303 -0.00536994 0)
(-2.70833 -0.00534954 0)
(-2.71367 -0.00532752 0)
(-2.71904 -0.00530055 0)
(-2.72446 -0.00526369 0)
(-2.72993 -0.00521909 0)
(-2.73546 -0.00516832 0)
(-2.74106 -0.00511273 0)
(-2.74673 -0.00505349 0)
(-2.75248 -0.00499222 0)
(-2.75832 -0.00493104 0)
(-2.76425 -0.0048728 0)
(-2.7703 -0.00482106 0)
(-2.77646 -0.00478079 0)
(-2.78276 -0.00475821 0)
(-2.78919 -0.00476137 0)
(-2.79577 -0.00480007 0)
(-2.80252 -0.00488595 0)
(-2.80945 -0.00503175 0)
(-2.81657 -0.00525736 0)
(-2.82391 -0.00558401 0)
(-2.83146 -0.0060297 0)
(-2.83924 -0.00661549 0)
(-2.84728 -0.00736319 0)
(-2.85561 -0.00828879 0)
(-2.86423 -0.00939991 0)
(-2.87318 -0.0107059 0)
(-2.88243 -0.0121752 0)
(-2.89195 -0.013697 0)
(-2.90165 -0.0151332 0)
(-2.91131 -0.0162492 0)
(-2.92054 -0.0166891 0)
(-2.92864 -0.0159552 0)
(-2.93444 -0.0134537 0)
(-2.93632 -0.00806527 0)
(-2.93236 0.00246522 0)
(-2.9144 0.0226841 0)
(-2.87771 0.0585508 0)
(-2.80464 0.123337 0)
(-2.66452 0.23294 0)
(-2.48906 0.378618 0)
(-2.51267 -0.00151572 0)
(-2.51315 -0.00233425 0)
(-2.51736 -0.00291284 0)
(-2.52131 -0.00328471 0)
(-2.52535 -0.00351611 0)
(-2.52982 -0.00365508 0)
(-2.5342 -0.00373526 0)
(-2.53885 -0.00377795 0)
(-2.54333 -0.00379669 0)
(-2.54802 -0.00379975 0)
(-2.55253 -0.00379261 0)
(-2.55721 -0.00377824 0)
(-2.56172 -0.00375893 0)
(-2.56637 -0.003736 0)
(-2.57086 -0.00371055 0)
(-2.57548 -0.00368298 0)
(-2.57995 -0.00365385 0)
(-2.58454 -0.00362315 0)
(-2.58899 -0.00358971 0)
(-2.59353 -0.00355549 0)
(-2.59795 -0.00352296 0)
(-2.60245 -0.00348963 0)
(-2.60682 -0.00345537 0)
(-2.61125 -0.00342152 0)
(-2.61557 -0.00338901 0)
(-2.61994 -0.00335755 0)
(-2.62419 -0.00332738 0)
(-2.6285 -0.00329801 0)
(-2.6327 -0.00327012 0)
(-2.63693 -0.00324304 0)
(-2.64108 -0.00321789 0)
(-2.64525 -0.00319417 0)
(-2.64935 -0.00317327 0)
(-2.65346 -0.00315431 0)
(-2.65751 -0.00313846 0)
(-2.66157 -0.00312492 0)
(-2.66558 -0.00311433 0)
(-2.66961 -0.00310598 0)
(-2.67358 -0.00310051 0)
(-2.67757 -0.00309788 0)
(-2.68153 -0.00309793 0)
(-2.6855 -0.00310033 0)
(-2.68944 -0.00310503 0)
(-2.6934 -0.00311176 0)
(-2.69735 -0.00312049 0)
(-2.70131 -0.00313068 0)
(-2.70527 -0.0031419 0)
(-2.70926 -0.00315374 0)
(-2.71324 -0.0031656 0)
(-2.71726 -0.00317704 0)
(-2.72129 -0.00318772 0)
(-2.72536 -0.00319715 0)
(-2.72944 -0.00320465 0)
(-2.73358 -0.00320901 0)
(-2.73774 -0.0032091 0)
(-2.74196 -0.00320402 0)
(-2.74621 -0.00319276 0)
(-2.75053 -0.00317427 0)
(-2.7549 -0.00314793 0)
(-2.75933 -0.00311292 0)
(-2.76383 -0.00307024 0)
(-2.76841 -0.00302633 0)
(-2.77305 -0.00297735 0)
(-2.77778 -0.00291234 0)
(-2.78259 -0.00283581 0)
(-2.7875 -0.00275038 0)
(-2.79251 -0.00265702 0)
(-2.79764 -0.00255655 0)
(-2.80288 -0.00245023 0)
(-2.80824 -0.00233983 0)
(-2.81374 -0.0022279 0)
(-2.81938 -0.00211768 0)
(-2.82518 -0.00201381 0)
(-2.83114 -0.00192212 0)
(-2.83727 -0.00185019 0)
(-2.8436 -0.00180733 0)
(-2.85014 -0.00180456 0)
(-2.85689 -0.00185461 0)
(-2.86388 -0.00197671 0)
(-2.87113 -0.00219123 0)
(-2.87867 -0.00251578 0)
(-2.88651 -0.00297006 0)
(-2.89469 -0.00357417 0)
(-2.90322 -0.00434539 0)
(-2.91215 -0.00528454 0)
(-2.9215 -0.0064143 0)
(-2.93122 -0.00774263 0)
(-2.94128 -0.009138 0)
(-2.95156 -0.010523 0)
(-2.96184 -0.0117401 0)
(-2.97166 -0.0125474 0)
(-2.98028 -0.0126409 0)
(-2.9865 -0.0116543 0)
(-2.98829 -0.00902544 0)
(-2.98349 -0.00317697 0)
(-2.96416 0.0090526 0)
(-2.92039 0.0309186 0)
(-2.83474 0.0706632 0)
(-2.67537 0.136959 0)
(-2.48495 0.220632 0)
(-2.55647 -0.000604618 0)
(-2.55719 -0.000985225 0)
(-2.56126 -0.00123321 0)
(-2.56516 -0.00139385 0)
(-2.56908 -0.00149831 0)
(-2.57347 -0.00156593 0)
(-2.57767 -0.00160918 0)
(-2.58216 -0.00163566 0)
(-2.58638 -0.001651 0)
(-2.59083 -0.00165811 0)
(-2.595 -0.00165981 0)
(-2.59935 -0.00165708 0)
(-2.60343 -0.0016509 0)
(-2.60766 -0.0016423 0)
(-2.61164 -0.00163165 0)
(-2.61575 -0.00161932 0)
(-2.61963 -0.00160543 0)
(-2.62362 -0.00159 0)
(-2.6274 -0.00157213 0)
(-2.63127 -0.00155402 0)
(-2.63495 -0.00153799 0)
(-2.63872 -0.00152248 -1.78967e-41)
(-2.64232 -0.00150655 0)
(-2.64599 -0.00149095 0)
(-2.6495 -0.00147603 0)
(-2.65308 -0.00146179 0)
(-2.65652 -0.00144828 0)
(-2.66003 -0.00143534 0)
(-2.66341 -0.0014229 0)
(-2.66684 -0.00141087 0)
(-2.67017 -0.00139956 0)
(-2.67355 -0.00138926 0)
(-2.67684 -0.00138033 0)
(-2.68017 -0.00137282 0)
(-2.68344 -0.00136689 0)
(-2.68674 -0.00136251 0)
(-2.68999 -0.00135971 0)
(-2.69327 -0.00135812 0)
(-2.69652 -0.00135795 0)
(-2.69978 -0.00135918 0)
(-2.70304 -0.00136187 0)
(-2.70631 -0.00136537 0)
(-2.70958 -0.00136973 0)
(-2.71288 -0.00137453 0)
(-2.71617 -0.00137973 0)
(-2.7195 -0.00138486 0)
(-2.72284 -0.00138953 0)
(-2.72621 -0.00139303 0)
(-2.7296 -0.00139466 0)
(-2.73304 -0.00139432 0)
(-2.7365 -0.0013919 0)
(-2.74001 -0.00138614 0)
(-2.74354 -0.00137642 0)
(-2.74714 -0.00136189 0)
(-2.75077 -0.00134128 0)
(-2.75447 -0.00131364 0)
(-2.75821 -0.00127813 0)
(-2.76203 -0.00123345 0)
(-2.76589 -0.00117865 0)
(-2.76984 -0.00111323 0)
(-2.77385 -0.00103558 0)
(-2.77795 -0.000957337 0)
(-2.78212 -0.000878265 0)
(-2.78637 -0.000773046 0)
(-2.79071 -0.000653546 0)
(-2.79516 -0.000523042 0)
(-2.79971 -0.000382001 0)
(-2.80438 -0.00023083 0)
(-2.80917 -7.03591e-05 0)
(-2.81409 9.79284e-05 0)
(-2.81914 0.000271859 0)
(-2.82434 0.000448602 0)
(-2.82969 0.000623966 0)
(-2.83522 0.000792565 0)
(-2.84093 0.000947471 0)
(-2.84684 0.00108 0)
(-2.85296 0.00117978 0)
(-2.85931 0.00123396 0)
(-2.86591 0.00122569 0)
(-2.87278 0.00113695 0)
(-2.87994 0.000950055 0)
(-2.88743 0.000645769 0)
(-2.89527 0.000204719 2.40646e-42)
(-2.90348 -0.00039018 0)
(-2.91207 -0.00114676 0)
(-2.92115 -0.0020639 0)
(-2.9305 -0.00325555 0)
(-2.9402 -0.00451273 -5.30469e-41)
(-2.95015 -0.00585099 0)
(-2.96006 -0.00719553 0)
(-2.96949 -0.00841679 0)
(-2.97771 -0.00939227 0)
(-2.9835 -0.0100279 0)
(-2.98497 -0.0102204 -6.00699e-41)
(-2.97884 -0.00932424 0)
(-2.95924 -0.00626262 0)
(-2.91358 -8.24253e-05 -9.68905e-43)
(-2.8235 0.0116735 0)
(-2.65741 0.031617 0)
(-2.46226 0.0568367 0)
(-2.52939 0.000361911 0)
(-2.5299 0.00041987 0)
(-2.53404 0.000507482 0)
(-2.53799 0.000558426 0)
(-2.54198 0.000577901 0)
(-2.54647 0.000576784 0)
(-2.55078 0.000564162 0)
(-2.55541 0.000546284 0)
(-2.55979 0.000526082 0)
(-2.5644 0.000505869 0)
(-2.56876 0.00048612 0)
(-2.57329 0.000467553 0)
(-2.57759 0.000450731 0)
(-2.58203 0.000435056 0)
(-2.58625 0.00042092 0)
(-2.59058 0.000408116 0)
(-2.59471 0.00039697 0)
(-2.59894 0.000387434 0)
(-2.60298 0.000379888 0)
(-2.60711 0.000372774 0)
(-2.61105 0.000365272 0)
(-2.61508 0.000357913 4.20725e-42)
(-2.61894 0.000351489 0)
(-2.62286 0.000345446 0)
(-2.62664 0.00033987 0)
(-2.63047 0.000334519 0)
(-2.63417 0.000329563 0)
(-2.63792 0.000324823 0)
(-2.64154 0.000321101 0)
(-2.64521 0.000317952 0)
(-2.64877 0.00031577 0)
(-2.65237 0.000313432 0)
(-2.65588 0.000311525 0)
(-2.65941 0.0003091 0)
(-2.66287 0.000306938 0)
(-2.66636 0.000304247 0)
(-2.66979 0.000301664 0)
(-2.67323 0.000298954 0)
(-2.67663 0.000296413 0)
(-2.68005 0.000294079 0)
(-2.68344 0.000291989 0)
(-2.68684 0.000290394 0)
(-2.69022 0.000289519 0)
(-2.69362 0.000289717 0)
(-2.69701 0.000291235 0)
(-2.70042 0.000294436 0)
(-2.70383 0.000299801 0)
(-2.70727 0.000307992 0)
(-2.71071 0.000319635 0)
(-2.71418 0.000334919 0)
(-2.71767 0.000354078 0)
(-2.7212 0.000378294 0)
(-2.72474 0.00040831 0)
(-2.72833 0.00044485 0)
(-2.73196 0.00048921 0)
(-2.73563 0.000542552 0)
(-2.73933 0.000605226 0)
(-2.7431 0.00067892 0)
(-2.74691 0.000765208 0)
(-2.75078 0.000863667 0)
(-2.75471 0.000976029 0)
(-2.7587 0.00109194 0)
(-2.76276 0.00121157 0)
(-2.76691 0.00135964 0)
(-2.77113 0.00152449 0)
(-2.77544 0.00170319 0)
(-2.77983 0.00189554 0)
(-2.78432 0.00210142 0)
(-2.78892 0.00232041 0)
(-2.79362 0.00255127 0)
(-2.79844 0.00279228 0)
(-2.80339 0.00304115 0)
(-2.80848 0.00329424 0)
(-2.81372 0.0035467 0)
(-2.81912 0.00379232 0)
(-2.82469 0.0040232 0)
(-2.83046 0.00422965 0)
(-2.83643 0.00439955 0)
(-2.84262 0.00451796 0)
(-2.84907 0.00456858 0)
(-2.85578 0.00453443 0)
(-2.86278 0.00439676 0)
(-2.8701 0.00413601 4.86185e-41)
(-2.87777 0.00373598 0)
(-2.88578 0.00317632 0)
(-2.89417 0.00246163 0)
(-2.90283 0.00146935 0)
(-2.91182 0.000360745 4.24054e-42)
(-2.92088 -0.000929218 0)
(-2.9298 -0.00240356 0)
(-2.93786 -0.0040137 0)
(-2.94467 -0.00582046 0)
(-2.94897 -0.00803264 0)
(-2.94882 -0.0109333 -6.42604e-41)
(-2.94093 -0.0149035 0)
(-2.91926 -0.0207485 0)
(-2.87286 -0.0303576 -3.56852e-40)
(-2.78239 -0.0467041 0)
(-2.61761 -0.072898 0)
(-2.42387 -0.103955 0)
(-2.44632 0.00120335 0)
(-2.44599 0.00183221 0)
(-2.4502 0.00227537 0)
(-2.45401 0.00255186 0)
(-2.45795 0.00270977 0)
(-2.46237 0.00279051 0)
(-2.46672 0.00282551 0)
(-2.47138 0.00283316 0)
(-2.47592 0.00282579 0)
(-2.48067 0.00280949 0)
(-2.48531 0.00278917 0)
(-2.4901 0.00276616 0)
(-2.49478 0.00274254 0)
(-2.4996 0.00271844 0)
(-2.50431 0.00269473 0)
(-2.50913 0.00267137 0)
(-2.51386 0.00264898 0)
(-2.51868 0.00262745 0)
(-2.52341 0.00260705 0)
(-2.52822 0.00258664 0)
(-2.53294 0.0025661 0)
(-2.53773 0.00254553 0)
(-2.54244 0.00252556 0)
(-2.5472 0.00250575 0)
(-2.55188 0.00248638 0)
(-2.55661 0.00246714 0)
(-2.56126 0.00244826 0)
(-2.56595 0.00242953 0)
(-2.57055 0.002412 0)
(-2.57519 0.00239554 0)
(-2.57975 0.0023805 0)
(-2.58433 0.00236575 0)
(-2.58884 0.00235182 0)
(-2.59336 0.00233791 0)
(-2.59782 0.00232488 0)
(-2.60228 0.00231204 0)
(-2.60668 0.00230018 0)
(-2.61109 0.00228886 0)
(-2.61544 0.00227868 0)
(-2.61979 0.00226965 0)
(-2.62408 0.0022622 0)
(-2.62838 0.00225608 0)
(-2.63263 0.00225201 0)
(-2.63688 0.00225017 0)
(-2.64109 0.00225118 0)
(-2.6453 0.00225533 0)
(-2.64948 0.00226329 0)
(-2.65366 0.00227562 0)
(-2.65782 0.00229295 0)
(-2.66198 0.00231568 0)
(-2.66613 0.00234435 0)
(-2.67029 0.00237979 0)
(-2.67444 0.00242277 0)
(-2.67861 0.00247428 0)
(-2.68278 0.0025356 0)
(-2.68698 0.00260806 0)
(-2.69119 0.00269193 0)
(-2.69543 0.00278871 0)
(-2.69969 0.0029002 0)
(-2.70399 0.00302566 0)
(-2.70832 0.00316436 0)
(-2.71269 0.0033123 0)
(-2.71711 0.00347349 0)
(-2.72158 0.00365818 0)
(-2.72609 0.00386232 0)
(-2.73068 0.00408402 0)
(-2.73532 0.00432308 0)
(-2.74003 0.00457954 0)
(-2.74482 0.00485328 0)
(-2.7497 0.00514347 0)
(-2.75467 0.00544883 0)
(-2.75975 0.00576762 0)
(-2.76494 0.00609687 0)
(-2.77026 0.0064323 0)
(-2.77572 0.00676846 0)
(-2.78134 0.00709822 0)
(-2.78713 0.00741269 0)
(-2.79311 0.00770071 0)
(-2.79931 0.00794879 0)
(-2.80574 0.00814197 0)
(-2.81243 0.008264 0)
(-2.81941 0.00829669 0)
(-2.8267 0.00821912 0)
(-2.83433 0.00801376 0)
(-2.84232 0.00765964 0)
(-2.85069 0.00712674 0)
(-2.85942 0.00636607 0)
(-2.86846 0.00539683 0)
(-2.87762 0.00413536 0)