/*--------------------------------*- C++ -*----------------------------------*\
| =========                 |                                                 |
| \\      /  F ield         | OpenFOAM: The Open Source CFD Toolbox           |
|  \\    /   O peration     | Version:  2.1.0                                 |
|   \\  /    A nd           | Web:      www.OpenFOAM.org                      |
|    \\/     M anipulation  |                                                 |
\*---------------------------------------------------------------------------*/
FoamFile
{
    version     2.0;
    format      ascii;
    class       volScalarField;
    location    "0.15";
    object      C0;
}
// * * * * * * * * * * * * * * * * * * * * * * * * * * * * * * * * * * * * * //

dimensions      [0 0 0 0 0 0 0];

internalField   nonuniform List<scalar> 
6400
(
5.54061e-15
7.01915e-15
9.27625e-15
1.23132e-14
1.63234e-14
2.15956e-14
2.851e-14
3.75591e-14
4.9377e-14
6.47788e-14
8.48093e-14
1.10806e-13
1.44474e-13
1.8799e-13
2.44117e-13
3.16363e-13
4.09166e-13
5.28136e-13
6.80344e-13
8.74687e-13
1.12234e-12
1.4373e-12
1.83707e-12
2.34351e-12
2.98385e-12
3.79192e-12
4.80974e-12
6.08933e-12
7.695e-12
9.70612e-12
1.22204e-11
1.53582e-11
1.92668e-11
2.41271e-11
3.016e-11
3.76356e-11
4.68829e-11
5.83022e-11
7.23802e-11
8.97072e-11
1.10998e-10
1.37119e-10
1.69113e-10
2.08241e-10
2.56022e-10
3.14282e-10
3.85216e-10
4.71457e-10
5.76164e-10
7.03118e-10
8.56846e-10
1.04276e-09
1.26731e-09
1.53822e-09
1.86469e-09
2.25766e-09
2.73021e-09
3.29788e-09
3.97915e-09
4.79602e-09
5.77464e-09
6.9461e-09
8.34734e-09
1.00222e-08
1.2023e-08
1.44114e-08
1.72613e-08
2.066e-08
2.47114e-08
2.95392e-08
3.52902e-08
4.21394e-08
5.02946e-08
6.00035e-08
7.15611e-08
8.53195e-08
1.01698e-07
1.212e-07
1.44425e-07
1.72091e-07
2.05064e-07
2.44381e-07
2.91296e-07
3.4733e-07
4.14335e-07
4.94587e-07
5.90911e-07
7.06859e-07
8.46991e-07
1.01731e-06
1.226e-06
1.48475e-06
1.81115e-06
2.23305e-06
2.79553e-06
3.57235e-06
4.67823e-06
6.29218e-06
8.63619e-06
1.17542e-05
6.47815e-15
8.23416e-15
1.0884e-14
1.44384e-14
1.91261e-14
2.52839e-14
3.33538e-14
4.39076e-14
5.76812e-14
7.56196e-14
9.89338e-14
1.29172e-13
1.6831e-13
2.18863e-13
2.84027e-13
3.67853e-13
4.75468e-13
6.13343e-13
7.89634e-13
1.0146e-12
1.3011e-12
1.66526e-12
2.12722e-12
2.71212e-12
3.45123e-12
4.38345e-12
5.55699e-12
7.03153e-12
8.88083e-12
1.11958e-11
1.40885e-11
1.76965e-11
2.21885e-11
2.77713e-11
3.46974e-11
4.32753e-11
5.38804e-11
6.69699e-11
8.30986e-11
1.02939e-10
1.27307e-10
1.57187e-10
1.93768e-10
2.38484e-10
2.93062e-10
3.59577e-10
4.40523e-10
5.3889e-10
6.58263e-10
8.02932e-10
9.78028e-10
1.18968e-09
1.44522e-09
1.75336e-09
2.12452e-09
2.57109e-09
3.10784e-09
3.75232e-09
4.52541e-09
5.45195e-09
6.56144e-09
7.88892e-09
9.47604e-09
1.13723e-08
1.36363e-08
1.63379e-08
1.95598e-08
2.34006e-08
2.7977e-08
3.3428e-08
3.99187e-08
4.76457e-08
5.68424e-08
6.77871e-08
8.08111e-08
9.63097e-08
1.14754e-07
1.36709e-07
1.62849e-07
1.93982e-07
2.31081e-07
2.75316e-07
3.28104e-07
3.91162e-07
4.66591e-07
5.56974e-07
6.65522e-07
7.96277e-07
9.54418e-07
1.14672e-06
1.38234e-06
1.67403e-06
2.04044e-06
2.51005e-06
3.12774e-06
3.96371e-06
5.11447e-06
6.70278e-06
8.81275e-06
1.12833e-05
8.22973e-15
1.04901e-14
1.38677e-14
1.83849e-14
2.43353e-14
3.21449e-14
4.23715e-14
5.57354e-14
7.3163e-14
9.58433e-14
1.25298e-13
1.63474e-13
2.12849e-13
2.76578e-13
3.58668e-13
4.64193e-13
5.99569e-13
7.7289e-13
9.94349e-13
1.27675e-12
1.63616e-12
2.09267e-12
2.67139e-12
3.4036e-12
4.32824e-12
5.49365e-12
6.95972e-12
8.80055e-12
1.11076e-11
1.39937e-11
1.75974e-11
2.2089e-11
2.76773e-11
3.46175e-11
4.32216e-11
5.38698e-11
6.70251e-11
8.32502e-11
1.03228e-10
1.27786e-10
1.57924e-10
1.94852e-10
2.40027e-10
2.95207e-10
3.62505e-10
4.4446e-10
5.44117e-10
6.6513e-10
8.11868e-10
9.89558e-10
1.20445e-09
1.46399e-09
1.77707e-09
2.15428e-09
2.60824e-09
3.15394e-09
3.80922e-09
4.5953e-09
5.53734e-09
6.66525e-09
8.01452e-09
9.62724e-09
1.15534e-08
1.38521e-08
1.65938e-08
1.98617e-08
2.37547e-08
2.83899e-08
3.39065e-08
4.04694e-08
4.82747e-08
5.75549e-08
6.85867e-08
8.16986e-08
9.72814e-08
1.15801e-07
1.37812e-07
1.63977e-07
1.95088e-07
2.32093e-07
2.7613e-07
3.28568e-07
3.91063e-07
4.65621e-07
5.54688e-07
6.61268e-07
7.89082e-07
9.42788e-07
1.1283e-06
1.35323e-06
1.62763e-06
1.96504e-06
2.38421e-06
2.91162e-06
3.58474e-06
4.454e-06
5.5768e-06
7.00244e-06
8.71192e-06
1.04937e-05
1.07841e-14
1.37772e-14
1.8215e-14
2.41364e-14
3.19294e-14
4.21503e-14
5.55259e-14
7.29936e-14
9.57582e-14
1.25365e-13
1.63791e-13
2.13561e-13
2.7789e-13
3.60869e-13
4.67685e-13
6.04907e-13
7.80832e-13
1.00592e-12
1.29335e-12
1.65963e-12
2.12548e-12
2.71679e-12
3.4659e-12
4.41307e-12
5.60834e-12
7.1138e-12
9.00634e-12
1.1381e-11
1.43549e-11
1.80725e-11
2.27111e-11
2.84882e-11
3.56703e-11
4.4583e-11
5.56236e-11
6.92761e-11
8.6129e-11
1.06897e-10
1.32446e-10
1.63824e-10
2.02298e-10
2.49396e-10
3.06957e-10
3.77198e-10
4.62778e-10
5.66889e-10
6.93356e-10
8.46756e-10
1.03256e-09
1.2573e-09
1.52877e-09
1.85625e-09
2.25078e-09
2.72552e-09
3.29608e-09
3.98099e-09
4.80227e-09
5.78601e-09
6.96312e-09
8.37024e-09
1.00507e-08
1.20559e-08
1.44466e-08
1.72945e-08
2.06846e-08
2.47175e-08
2.95118e-08
3.5208e-08
4.19723e-08
5.0001e-08
5.95267e-08
7.08243e-08
8.42193e-08
1.00097e-07
1.18915e-07
1.41213e-07
1.67634e-07
1.98941e-07
2.36042e-07
2.80017e-07
3.32158e-07
3.94006e-07
4.67414e-07
5.5461e-07
6.58291e-07
7.81733e-07
9.28944e-07
1.10486e-06
1.31562e-06
1.56892e-06
1.87449e-06
2.24475e-06
2.69558e-06
3.24701e-06
3.92323e-06
4.74951e-06
5.7496e-06
6.92463e-06
8.2175e-06
9.44437e-06
1.4113e-14
1.80652e-14
2.3886e-14
3.16391e-14
4.18359e-14
5.52027e-14
7.26866e-14
9.55079e-14
1.25234e-13
1.63874e-13
2.13998e-13
2.78882e-13
3.62701e-13
4.70758e-13
6.09776e-13
7.88263e-13
1.01696e-12
1.30939e-12
1.68257e-12
2.15784e-12
2.76192e-12
3.5282e-12
4.49831e-12
5.72408e-12
7.26985e-12
9.2154e-12
1.16594e-11
1.47237e-11
1.85584e-11
2.33482e-11
2.93198e-11
3.67509e-11
4.59812e-11
5.74255e-11
7.15892e-11
8.9087e-11
1.10666e-10
1.3723e-10
1.69876e-10
2.09927e-10
2.58979e-10
3.18956e-10
3.9217e-10
4.81399e-10
5.89972e-10
7.21876e-10
8.81878e-10
1.07567e-09
1.31005e-09
1.59309e-09
1.93442e-09
2.34547e-09
2.83982e-09
3.43357e-09
4.14579e-09
4.99908e-09
6.02013e-09
7.24053e-09
8.69755e-09
1.04352e-08
1.25054e-08
1.49693e-08
1.7899e-08
2.13794e-08
2.55105e-08
3.04099e-08
3.62161e-08
4.30918e-08
5.12285e-08
6.08516e-08
7.22258e-08
8.56629e-08
1.01529e-07
1.20256e-07
1.4235e-07
1.68408e-07
1.99133e-07
2.35352e-07
2.78041e-07
3.28351e-07
3.87642e-07
4.57522e-07
5.39898e-07
6.37031e-07
7.51615e-07
8.86867e-07
1.04663e-06
1.23553e-06
1.45912e-06
1.72406e-06
2.03836e-06
2.41148e-06
2.85437e-06
3.37898e-06
3.99684e-06
4.71603e-06
5.53928e-06
6.44812e-06
7.38099e-06
8.1869e-06
1.80915e-14
2.31982e-14
3.06746e-14
4.06186e-14
5.36899e-14
7.08181e-14
9.32127e-14
1.22431e-13
1.60472e-13
2.09897e-13
2.73977e-13
3.56885e-13
4.63929e-13
6.0185e-13
7.79186e-13
1.00673e-12
1.29811e-12
1.67045e-12
2.14529e-12
2.74962e-12
3.51721e-12
4.49019e-12
5.72107e-12
7.27512e-12
9.2333e-12
1.16959e-11
1.47867e-11
1.86586e-11
2.34996e-11
2.95405e-11
3.70645e-11
4.64179e-11
5.80238e-11
7.23978e-11
9.01671e-11
1.12094e-10
1.39101e-10
1.72306e-10
2.13058e-10
2.62986e-10
3.24048e-10
3.98598e-10
4.89461e-10
6.00021e-10
7.34324e-10
8.97204e-10
1.09442e-09
1.33284e-09
1.62062e-09
1.96744e-09
2.3848e-09
2.8863e-09
3.48803e-09
4.20903e-09
5.07174e-09
6.10264e-09
7.3329e-09
8.79923e-09
1.05447e-08
1.26201e-08
1.50848e-08
1.80086e-08
2.14732e-08
2.55744e-08
3.04241e-08
3.61535e-08
4.29156e-08
5.08896e-08
6.02844e-08
7.1344e-08
8.43533e-08
9.96443e-08
1.17604e-07
1.38685e-07
1.63411e-07
1.92396e-07
2.26353e-07
2.66112e-07
3.12639e-07
3.67059e-07
4.30679e-07
5.0502e-07
5.9185e-07
6.93228e-07
8.11545e-07
9.49582e-07
1.11056e-06
1.29823e-06
1.51687e-06
1.77138e-06
2.06723e-06
2.41035e-06
2.80677e-06
3.26194e-06
3.77942e-06
4.35842e-06
4.99227e-06
5.65807e-06
6.30025e-06
6.79362e-06
2.24195e-14
2.8791e-14
3.807e-14
5.03965e-14
6.6592e-14
8.78057e-14
1.1553e-13
1.51687e-13
1.98738e-13
2.59838e-13
3.39011e-13
4.41389e-13
5.73492e-13
7.43593e-13
9.62163e-13
1.24243e-12
1.60105e-12
2.059e-12
2.64256e-12
3.38466e-12
4.32646e-12
5.51925e-12
7.02684e-12
8.92849e-12
1.13223e-11
1.43298e-11
1.81007e-11
2.28194e-11
2.87125e-11
3.60579e-11
4.51958e-11
5.65415e-11
7.06014e-11
8.79916e-11
1.0946e-10
1.35914e-10
1.68449e-10
2.0839e-10
2.57332e-10
3.17195e-10
3.90284e-10
4.79361e-10
5.87733e-10
7.19349e-10
8.78917e-10
1.07205e-09
1.3054e-09
1.58689e-09
1.92588e-09
2.33348e-09
2.82278e-09
3.40924e-09
4.11107e-09
4.94971e-09
5.95034e-09
7.14251e-09
8.56086e-09
1.0246e-08
1.22453e-08
1.46141e-08
1.74172e-08
2.073e-08
2.464e-08
2.92496e-08
3.46772e-08
4.10608e-08
4.85599e-08
5.73598e-08
6.76748e-08
7.97529e-08
9.38804e-08
1.10388e-07
1.29658e-07
1.52128e-07
1.78303e-07
2.08766e-07
2.44182e-07
2.85315e-07
3.33038e-07
3.88349e-07
4.52386e-07
5.26438e-07
6.1197e-07
7.10633e-07
8.24286e-07
9.55012e-07
1.10513e-06
1.27718e-06
1.47394e-06
1.69834e-06
1.95337e-06
2.24189e-06
2.56629e-06
2.92804e-06
3.32695e-06
3.75929e-06
4.21497e-06
4.67302e-06
5.08676e-06
5.35571e-06
2.65834e-14
3.41784e-14
4.51903e-14
5.98029e-14
7.8993e-14
1.04118e-13
1.36939e-13
1.7972e-13
2.35361e-13
3.07573e-13
4.01089e-13
5.21934e-13
6.77761e-13
8.78268e-13
1.13572e-12
1.46558e-12
1.88734e-12
2.42546e-12
3.1106e-12
3.98111e-12
5.08485e-12
6.4814e-12
8.2448e-12
1.04668e-11
1.32611e-11
1.67677e-11
2.11594e-11
2.66486e-11
3.34956e-11
4.20193e-11
5.26092e-11
6.57403e-11
8.19902e-11
1.02061e-10
1.26801e-10
1.57241e-10
1.94619e-10
2.40432e-10
2.96476e-10
3.64908e-10
4.48309e-10
5.49769e-10
6.7297e-10
8.22303e-10
1.00298e-09
1.2212e-09
1.4843e-09
1.80096e-09
2.18141e-09
2.63774e-09
3.18416e-09
3.83737e-09
4.61696e-09
5.54587e-09
6.65093e-09
7.96347e-09
9.52004e-09
1.13632e-08
1.35423e-08
1.61148e-08
1.91473e-08
2.27168e-08
2.69125e-08
3.1837e-08
3.7609e-08
4.43648e-08
5.22613e-08
6.14784e-08
7.22223e-08
8.47288e-08
9.92671e-08
1.16144e-07
1.3571e-07
1.58359e-07
1.84541e-07
2.14763e-07
2.49595e-07
2.89679e-07
3.3573e-07
3.88548e-07
4.49016e-07
5.18109e-07
5.96889e-07
6.86505e-07
7.88181e-07
9.03222e-07
1.03297e-06
1.17881e-06
1.34207e-06
1.52401e-06
1.72565e-06
1.94768e-06
2.19021e-06
2.45259e-06
2.73317e-06
3.02877e-06
3.32858e-06
3.61575e-06
3.85464e-06
3.97197e-06
2.991e-14
3.84865e-14
5.08791e-14
6.73094e-14
8.88762e-14
1.171e-13
1.53952e-13
2.01961e-13
2.64367e-13
3.45311e-13
4.50071e-13
5.85358e-13
7.5969e-13
9.83851e-13
1.27146e-12
1.6397e-12
2.11014e-12
2.70989e-12
3.47286e-12
4.44142e-12
5.66837e-12
7.2194e-12
9.176e-12
1.16391e-11
1.47333e-11
1.86123e-11
2.34651e-11
2.95239e-11
3.70728e-11
4.64593e-11
5.8107e-11
7.25317e-11
9.03596e-11
1.1235e-10
1.39421e-10
1.7268e-10
2.13462e-10
2.63373e-10
3.24335e-10
3.98654e-10
4.89083e-10
5.98903e-10
7.32024e-10
8.93084e-10
1.08759e-09
1.32204e-09
1.60413e-09
1.94292e-09
2.34907e-09
2.8351e-09
3.41569e-09
4.10799e-09
4.93207e-09
5.91129e-09
7.07287e-09
8.44838e-09
1.00745e-08
1.19935e-08
1.42546e-08
1.6914e-08
2.00369e-08
2.3698e-08
2.79828e-08
3.29894e-08
3.88298e-08
4.56314e-08
5.35394e-08
6.27183e-08
7.33545e-08
8.5658e-08
9.98658e-08
1.16243e-07
1.35088e-07
1.5673e-07
1.81538e-07
2.09917e-07
2.42312e-07
2.79209e-07
3.21137e-07
3.68659e-07
4.22378e-07
4.82924e-07
5.5095e-07
6.27119e-07
7.12083e-07
8.06437e-07
9.10684e-07
1.02522e-06
1.15032e-06
1.28598e-06
1.43195e-06
1.58755e-06
1.7516e-06
1.92239e-06
2.09761e-06
2.27435e-06
2.44601e-06
2.59843e-06
2.70907e-06
2.73298e-06
3.17138e-14
4.08226e-14
5.39588e-14
7.13647e-14
9.42034e-14
1.24081e-13
1.63076e-13
2.13856e-13
2.79836e-13
3.65376e-13
4.76032e-13
6.18862e-13
8.02821e-13
1.03923e-12
1.3424e-12
1.73033e-12
2.22565e-12
2.85672e-12
3.65905e-12
4.67692e-12
5.9655e-12
7.59332e-12
9.64536e-12
1.22267e-11
1.54671e-11
1.95263e-11
2.46007e-11
3.09309e-11
3.88114e-11
4.86018e-11
6.074e-11
7.57584e-11
9.43023e-11
1.17153e-10
1.45255e-10
1.79744e-10
2.21988e-10
2.73627e-10
3.36626e-10
4.13332e-10
5.06543e-10
6.19588e-10
7.56421e-10
9.21725e-10
1.12104e-09
1.36089e-09
1.64898e-09
1.99434e-09
2.40756e-09
2.90105e-09
3.48927e-09
4.18909e-09
5.02012e-09
6.00511e-09
7.17038e-09
8.54636e-09
1.01681e-08
1.20759e-08
1.43162e-08
1.69417e-08
2.0013e-08
2.35992e-08
2.77783e-08
3.26393e-08
3.82824e-08
4.48207e-08
5.2381e-08
6.11057e-08
7.11532e-08
8.26997e-08
9.59399e-08
1.11088e-07
1.2838e-07
1.4807e-07
1.70434e-07
1.95767e-07
2.24382e-07
2.56607e-07
2.9278e-07
3.33243e-07
3.78334e-07
4.28376e-07
4.83663e-07
5.44444e-07
6.10898e-07
6.83109e-07
7.61051e-07
8.44502e-07
9.32956e-07
1.02567e-06
1.12167e-06
1.2196e-06
1.3177e-06
1.41373e-06
1.50493e-06
1.58794e-06
1.65856e-06
1.71089e-06
1.7327e-06
1.70513e-06
3.15317e-14
4.05819e-14
5.36343e-14
7.09271e-14
9.36145e-14
1.2329e-13
1.62016e-13
2.12439e-13
2.77946e-13
3.62862e-13
4.72693e-13
6.14439e-13
7.96974e-13
1.03152e-12
1.33225e-12
1.71699e-12
2.20815e-12
2.83383e-12
3.62913e-12
4.6379e-12
5.91468e-12
7.52724e-12
9.55954e-12
1.21154e-11
1.5323e-11
1.93399e-11
2.43598e-11
3.062e-11
3.84106e-11
4.80854e-11
6.00753e-11
7.49035e-11
9.32037e-11
1.15742e-10
1.43444e-10
1.77422e-10
2.19012e-10
2.69817e-10
3.3175e-10
4.07095e-10
4.98572e-10
6.0941e-10
7.43432e-10
9.05162e-10
1.09993e-09
1.33403e-09
1.6148e-09
1.95091e-09
2.35242e-09
2.8311e-09
3.40064e-09
4.07691e-09
4.87828e-09
5.82597e-09
6.9444e-09
8.26165e-09
9.80987e-09
1.16258e-08
1.37513e-08
1.62339e-08
1.91274e-08
2.24926e-08
2.6398e-08
3.09201e-08
3.61446e-08
4.21668e-08
4.9092e-08
5.70367e-08
6.6128e-08
7.65048e-08
8.83172e-08
1.01727e-07
1.16904e-07
1.34031e-07
1.53294e-07
1.74885e-07
1.98996e-07
2.25815e-07
2.55517e-07
2.88261e-07
3.24173e-07
3.63339e-07
4.0579e-07
4.51485e-07
5.00289e-07
5.51958e-07
6.06113e-07
6.62212e-07
7.19534e-07
7.77101e-07
8.33518e-07
8.87284e-07
9.36641e-07
9.79504e-07
1.01342e-06
1.03564e-06
1.04319e-06
1.03307e-06
1.0027e-06
9.52125e-07
2.94168e-14
3.78353e-14
5.00004e-14
6.61234e-14
8.72783e-14
1.14952e-13
1.51068e-13
1.981e-13
2.59209e-13
3.38435e-13
4.40924e-13
5.73218e-13
7.43611e-13
9.62601e-13
1.24344e-12
1.6028e-12
2.06168e-12
2.64634e-12
3.38967e-12
4.33272e-12
5.52658e-12
7.03471e-12
8.93579e-12
1.13271e-11
1.43286e-11
1.80882e-11
2.27871e-11
2.86478e-11
3.59419e-11
4.50009e-11
5.62282e-11
7.01132e-11
8.72491e-11
1.08353e-10
1.34288e-10
1.66094e-10
2.05018e-10
2.52554e-10
3.10485e-10
3.80935e-10
4.66432e-10
5.6997e-10
6.95094e-10
8.45985e-10
1.02757e-09
1.24562e-09
1.50691e-09
1.81935e-09
2.19216e-09
2.63605e-09
3.16343e-09
3.78865e-09
4.52825e-09
5.40123e-09
6.42938e-09
7.63756e-09
9.05411e-09
1.07112e-08
1.26451e-08
1.48968e-08
1.75124e-08
2.05432e-08
2.40464e-08
2.80855e-08
3.27303e-08
3.80573e-08
4.415e-08
5.10985e-08
5.89996e-08
6.79563e-08
7.80766e-08
8.9473e-08
1.0226e-07
1.16554e-07
1.32466e-07
1.50103e-07
1.69561e-07
1.90917e-07
2.14226e-07
2.39513e-07
2.66761e-07
2.95899e-07
3.26799e-07
3.59251e-07
3.9296e-07
4.2753e-07
4.62446e-07
4.9707e-07
5.30626e-07
5.62188e-07
5.90683e-07
6.14666e-07
6.32678e-07
6.43296e-07
6.44943e-07
6.3615e-07
6.15885e-07
5.84176e-07
5.43223e-07
4.98784e-07
2.58913e-14
3.32661e-14
4.39583e-14
5.81387e-14
7.67482e-14
1.01096e-13
1.32879e-13
1.74276e-13
2.28077e-13
2.97847e-13
3.88131e-13
5.04706e-13
6.54903e-13
8.48003e-13
1.09573e-12
1.41284e-12
1.81792e-12
2.33425e-12
2.99097e-12
3.82448e-12
4.8801e-12
6.21418e-12
7.89657e-12
1.00137e-11
1.26722e-11
1.60034e-11
2.01687e-11
2.53659e-11
3.18367e-11
3.98762e-11
4.98433e-11
6.21741e-11
7.73966e-11
9.61489e-11
1.192e-10
1.47476e-10
1.82085e-10
2.24357e-10
2.75876e-10
3.38531e-10
4.14565e-10
5.06634e-10
6.17879e-10
7.52e-10
9.13346e-10
1.10702e-09
1.33898e-09
1.61617e-09
1.94668e-09
2.33986e-09
2.80654e-09
3.35917e-09
4.01207e-09
4.7816e-09
5.68644e-09
6.74779e-09
7.98968e-09
9.43918e-09
1.11267e-08
1.30862e-08
1.53555e-08
1.79765e-08
2.09951e-08
2.44617e-08
2.84311e-08
3.29622e-08
3.8118e-08
4.39652e-08
5.05735e-08
5.80147e-08
6.63617e-08
7.56866e-08
8.60589e-08
9.75428e-08
1.10194e-07
1.24056e-07
1.39156e-07
1.55499e-07
1.73062e-07
1.91787e-07
2.11574e-07
2.32275e-07
2.53684e-07
2.75528e-07
2.97464e-07
3.19072e-07
3.39848e-07
3.5921e-07
3.76495e-07
3.9097e-07
4.01846e-07
4.08282e-07
4.09176e-07
4.0379e-07
3.91458e-07
3.71817e-07
3.45151e-07
3.12854e-07
2.78092e-07
2.4638e-07
2.16486e-14
2.77762e-14
3.66993e-14
4.85436e-14
6.4091e-14
8.4436e-14
1.10999e-13
1.45605e-13
1.90592e-13
2.48949e-13
3.24486e-13
4.22052e-13
5.47802e-13
7.0953e-13
9.17087e-13
1.18289e-12
1.52256e-12
1.9557e-12
2.50686e-12
3.20671e-12
4.09345e-12
5.21461e-12
6.62916e-12
8.41006e-12
1.06474e-11
1.34523e-11
1.69612e-11
2.13413e-11
2.67974e-11
3.35793e-11
4.19912e-11
5.24026e-11
6.52612e-11
8.11081e-11
1.00596e-10
1.24509e-10
1.53789e-10
1.89564e-10
2.33176e-10
2.86229e-10
3.50623e-10
4.28608e-10
5.22845e-10
6.36465e-10
7.73143e-10
9.37187e-10
1.13362e-09
1.3683e-09
1.64801e-09
1.9806e-09
2.37513e-09
2.84198e-09
3.39306e-09
4.04193e-09
4.804e-09
5.69669e-09
6.73964e-09
7.95483e-09
9.36681e-09
1.10028e-08
1.28928e-08
1.50697e-08
1.75693e-08
2.04302e-08
2.36937e-08
2.74037e-08
3.16059e-08
3.63477e-08
4.16768e-08
4.76409e-08
5.42856e-08
6.16533e-08
6.97807e-08
7.86967e-08
8.84192e-08
9.89519e-08
1.1028e-07
1.22368e-07
1.3515e-07
1.48532e-07
1.6238e-07
1.76521e-07
1.90734e-07
2.0475e-07
2.18249e-07
2.3086e-07
2.42164e-07
2.51701e-07
2.58986e-07
2.63519e-07
2.64811e-07
2.6241e-07
2.55931e-07
2.44894e-07
2.29304e-07
2.09416e-07
1.86028e-07
1.60689e-07
1.35938e-07
1.1547e-07
1.73385e-14
2.22089e-14
2.93381e-14
3.88112e-14
5.12492e-14
6.7528e-14
8.87858e-14
1.16486e-13
1.52504e-13
1.99238e-13
2.59747e-13
3.37924e-13
4.38715e-13
5.68385e-13
7.34854e-13
9.48113e-13
1.22073e-12
1.5685e-12
2.0112e-12
2.57353e-12
3.28632e-12
4.18791e-12
5.32589e-12
6.75921e-12
8.56066e-12
1.082e-11
1.36476e-11
1.71789e-11
2.15795e-11
2.70519e-11
3.38425e-11
4.22507e-11
5.26396e-11
6.5448e-11
8.12053e-11
1.00548e-10
1.24241e-10
1.53199e-10
1.88513e-10
2.31482e-10
2.83651e-10
3.46846e-10
4.23224e-10
5.15325e-10
6.26127e-10
7.59119e-10
9.18367e-10
1.1086e-09
1.3353e-09
1.60479e-09
1.92435e-09
2.30232e-09
2.74824e-09
3.27293e-09
3.88866e-09
4.60925e-09
5.45018e-09
6.42875e-09
7.5641e-09
8.87736e-09
1.03916e-08
1.2132e-08
1.41254e-08
1.64007e-08
1.89882e-08
2.19196e-08
2.52271e-08
2.89431e-08
3.30995e-08
3.77262e-08
4.28501e-08
4.84937e-08
5.46728e-08
6.1395e-08
6.86565e-08
7.64401e-08
8.47117e-08
9.34172e-08
1.02479e-07
1.11794e-07
1.21228e-07
1.30615e-07
1.39758e-07
1.48424e-07
1.56348e-07
1.63237e-07
1.68774e-07
1.72633e-07
1.74492e-07
1.74057e-07
1.71077e-07
1.65389e-07
1.56948e-07
1.45637e-07
1.31688e-07
1.15561e-07
9.8078e-08
8.04621e-08
6.43522e-08
5.18224e-08
1.34357e-14
1.71773e-14
2.26866e-14
3.00166e-14
3.96441e-14
5.22473e-14
6.87087e-14
9.01639e-14
1.18069e-13
1.54285e-13
2.01189e-13
2.61806e-13
3.39979e-13
4.40582e-13
5.69773e-13
7.35329e-13
9.47035e-13
1.21718e-12
1.56118e-12
1.99829e-12
2.55254e-12
3.25382e-12
4.13928e-12
5.2549e-12
6.65754e-12
8.4173e-12
1.06204e-11
1.33726e-11
1.68036e-11
2.10715e-11
2.63691e-11
3.29307e-11
4.10404e-11
5.10417e-11
6.3349e-11
7.84609e-11
9.69757e-11
1.1961e-10
1.47218e-10
1.80818e-10
2.21618e-10
2.71047e-10
3.30796e-10
4.02849e-10
4.89536e-10
5.93585e-10
7.1817e-10
8.66983e-10
1.04429e-09
1.25503e-09
1.50486e-09
1.80025e-09
2.14859e-09
2.55825e-09
3.03869e-09
3.60053e-09
4.25565e-09
5.01722e-09
5.89978e-09
6.91928e-09
8.09303e-09
9.43971e-09
1.09792e-08
1.27326e-08
1.47216e-08
1.69686e-08
1.9496e-08
2.23256e-08
2.5478e-08
2.89717e-08
3.28216e-08
3.70383e-08
4.16262e-08
4.65819e-08
5.18923e-08
5.75323e-08
6.34629e-08
6.96286e-08
7.59554e-08
8.2349e-08
8.86926e-08
9.48466e-08
1.00648e-07
1.05913e-07
1.10437e-07
1.14003e-07
1.16386e-07
1.17368e-07
1.16751e-07
1.14375e-07
1.10142e-07
1.04042e-07
9.61726e-08
8.67128e-08
7.58254e-08
6.39808e-08
5.18392e-08
4.02429e-08
3.01545e-08
2.26185e-08
1.02051e-14
1.302e-14
1.71922e-14
2.27524e-14
3.00593e-14
3.9628e-14
5.21299e-14
6.84299e-14
8.96369e-14
1.1717e-13
1.52841e-13
1.98957e-13
2.5845e-13
3.35039e-13
4.33427e-13
5.59553e-13
7.20892e-13
9.26839e-13
1.18917e-12
1.52262e-12
1.94557e-12
2.48089e-12
3.157e-12
4.00914e-12
5.08082e-12
6.42574e-12
8.10998e-12
1.02146e-11
1.2839e-11
1.61043e-11
2.01585e-11
2.51812e-11
3.13902e-11
3.90491e-11
4.84755e-11
6.00521e-11
7.42376e-11
9.15812e-11
1.12739e-10
1.3849e-10
1.69761e-10
2.07648e-10
2.53444e-10
3.08669e-10
3.75107e-10
4.54841e-10
5.50298e-10
6.64297e-10
8.00094e-10
9.61444e-10
1.15265e-09
1.37864e-09
1.64501e-09
1.95809e-09
2.32502e-09
2.75381e-09
3.25335e-09
3.83351e-09
4.50512e-09
5.27999e-09
6.17089e-09
7.1915e-09
8.35629e-09
9.68037e-09
1.11793e-08
1.28687e-08
1.47641e-08
1.68801e-08
1.92299e-08
2.18249e-08
2.46733e-08
2.77792e-08
3.11418e-08
3.47537e-08
3.85994e-08
4.2654e-08
4.68818e-08
5.12342e-08
5.56487e-08
6.00477e-08
6.43374e-08
6.84082e-08
7.21346e-08
7.53775e-08
7.79868e-08
7.98064e-08
8.06814e-08
8.04671e-08
7.90416e-08
7.63234e-08
7.22889e-08
6.69898e-08
6.0567e-08
5.32604e-08
4.52358e-08
3.68359e-08
2.85401e-08
2.09092e-08
1.45154e-08
9.87553e-09
7.74639e-15
9.85964e-15
1.30163e-14
1.72324e-14
2.27774e-14
3.00428e-14
3.95402e-14
5.19291e-14
6.80555e-14
8.90028e-14
1.16154e-13
1.51273e-13
1.96601e-13
2.54981e-13
3.30011e-13
4.26236e-13
5.4938e-13
7.06639e-13
9.07036e-13
1.16186e-12
1.48521e-12
1.89463e-12
2.41192e-12
3.06412e-12
3.88464e-12
4.91472e-12
6.20511e-12
7.81809e-12
9.82997e-12
1.2334e-11
1.54437e-11
1.92973e-11
2.40622e-11
2.99409e-11
3.71778e-11
4.60669e-11
5.69609e-11
7.0282e-11
8.65338e-11
1.06316e-10
1.30339e-10
1.59445e-10
1.94625e-10
2.37047e-10
2.88076e-10
3.49309e-10
4.22604e-10
5.10113e-10
6.14325e-10
7.38104e-10
8.84728e-10
1.05794e-09
1.26199e-09
1.50167e-09
1.78239e-09
2.11017e-09
2.49171e-09
2.93439e-09
3.44631e-09
4.03625e-09
4.71366e-09
5.48859e-09
6.37162e-09
7.37371e-09
8.506e-09
9.77962e-09
1.12053e-08
1.27931e-08
1.45517e-08
1.64882e-08
1.86069e-08
2.09091e-08
2.33919e-08
2.60474e-08
2.88612e-08
3.1812e-08
3.487e-08
3.7996e-08
4.11408e-08
4.42438e-08
4.72334e-08
5.00268e-08
5.25305e-08
5.46421e-08
5.62531e-08
5.72521e-08
5.75312e-08
5.69914e-08
5.55534e-08
5.31712e-08
4.98459e-08
4.56376e-08
4.06734e-08
3.51473e-08
2.92648e-08
2.32137e-08
1.7336e-08
1.20193e-08
7.65274e-09
4.5474e-09
6.07142e-15
7.70528e-15
1.01699e-14
1.34713e-14
1.78181e-14
2.3518e-14
3.09742e-14
4.07068e-14
5.3384e-14
6.98615e-14
9.12326e-14
1.18892e-13
1.54612e-13
2.00645e-13
2.59841e-13
3.35801e-13
4.33064e-13
5.57337e-13
7.15784e-13
9.17367e-13
1.17328e-12
1.49747e-12
1.90728e-12
2.42419e-12
3.0748e-12
3.89193e-12
4.91596e-12
6.19652e-12
7.79437e-12
9.7838e-12
1.22553e-11
1.53191e-11
1.91085e-11
2.3785e-11
2.95436e-11
3.66186e-11
4.52912e-11
5.5898e-11
6.88406e-11
8.45968e-11
1.03733e-10
1.2692e-10
1.54948e-10
1.88745e-10
2.29398e-10
2.78176e-10
3.36556e-10
4.06247e-10
4.89222e-10
5.87749e-10
7.04423e-10
8.422e-10
1.00443e-09
1.1949e-09
1.41785e-09
1.678e-09
1.9806e-09
2.33141e-09
2.73674e-09
3.20338e-09
3.73863e-09
4.35022e-09
5.04623e-09
5.83498e-09
6.72488e-09
7.72422e-09
8.84092e-09
1.00822e-08
1.14542e-08
1.29615e-08
1.46068e-08
1.63899e-08
1.83075e-08
2.03521e-08
2.25115e-08
2.47678e-08
2.70969e-08
2.94674e-08
3.18404e-08
3.41689e-08
3.63976e-08
3.84635e-08
4.02959e-08
4.18182e-08
4.29498e-08
4.3609e-08
4.37168e-08
4.32016e-08
4.20058e-08
4.00962e-08
3.7475e-08
3.41905e-08
3.03414e-08
2.60618e-08
2.15423e-08
1.69058e-08
1.23807e-08
8.25513e-09
4.84303e-09
2.41505e-09
5.18015e-15
6.55209e-15
8.6458e-15
1.1459e-14
1.51675e-14
2.00342e-14
2.64047e-14
3.47258e-14
4.55713e-14
5.96765e-14
7.79817e-14
1.01686e-13
1.32317e-13
1.71813e-13
2.2263e-13
2.87872e-13
3.71455e-13
4.78304e-13
6.14601e-13
7.88089e-13
1.00844e-12
1.28771e-12
1.64089e-12
2.08657e-12
2.64778e-12
3.3529e-12
4.23693e-12
5.34285e-12
6.72333e-12
8.44274e-12
1.05796e-11
1.32293e-11
1.65077e-11
2.0555e-11
2.55401e-11
3.16665e-11
3.91783e-11
4.83678e-11
5.95834e-11
7.32401e-11
8.98298e-11
1.09934e-10
1.34239e-10
1.63551e-10
1.98812e-10
2.41123e-10
2.91765e-10
3.52219e-10
4.24194e-10
5.09654e-10
6.10846e-10
7.30325e-10
8.70989e-10
1.0361e-09
1.22932e-09
1.45472e-09
1.71681e-09
2.02054e-09
2.3713e-09
2.77492e-09
3.23763e-09
3.76601e-09
4.36692e-09
5.04741e-09
5.81456e-09
6.67533e-09
7.6363e-09
8.70342e-09
9.88166e-09
1.11747e-08
1.25843e-08
1.411e-08
1.57485e-08
1.7493e-08
1.93326e-08
2.12518e-08
2.32295e-08
2.52389e-08
2.72469e-08
2.92137e-08
3.10929e-08
3.28315e-08
3.43708e-08
3.56473e-08
3.65944e-08
3.71448e-08
3.72334e-08
3.6801e-08
3.57988e-08
3.41961e-08
3.1989e-08
2.92129e-08
2.59507e-08
2.2318e-08
1.84643e-08
1.45025e-08
1.06034e-08
6.98829e-09
3.91698e-09
1.66073e-09
1.46267e-05
1.45408e-05
1.40443e-05
1.3448e-05
1.28367e-05
1.22424e-05
1.16797e-05
1.1155e-05
1.06687e-05
1.02174e-05
9.79458e-06
9.3915e-06
8.99765e-06
8.6016e-06
8.1921e-06
7.75995e-06
7.30171e-06
6.82683e-06
6.37191e-06
6.03093e-06
1.31735e-05
1.30904e-05
1.25717e-05
1.19422e-05
1.1308e-05
1.07054e-05
1.01468e-05
9.63459e-06
9.16624e-06
8.73591e-06
8.33564e-06
7.956e-06
7.58656e-06
7.21662e-06
6.83616e-06
6.43776e-06
6.01998e-06
5.59383e-06
5.19504e-06
4.90781e-06
1.16864e-05
1.15341e-05
1.10195e-05
1.04031e-05
9.78632e-06
9.20638e-06
8.67506e-06
8.1932e-06
7.75652e-06
7.35802e-06
6.98919e-06
6.64059e-06
6.30235e-06
5.96479e-06
5.61937e-06
5.26036e-06
4.8879e-06
4.51354e-06
4.17027e-06
3.93034e-06
1.0126e-05
9.90538e-06
9.41395e-06
8.84455e-06
8.27913e-06
7.75022e-06
7.26828e-06
6.83355e-06
6.44142e-06
6.08486e-06
5.75566e-06
5.44503e-06
5.14411e-06
4.84453e-06
4.53927e-06
4.22415e-06
3.90046e-06
3.57959e-06
3.29108e-06
3.09577e-06
8.50374e-06
8.2457e-06
7.79958e-06
7.30127e-06
6.81109e-06
6.35408e-06
5.93844e-06
5.56406e-06
5.22674e-06
4.9202e-06
4.63718e-06
4.37008e-06
4.1114e-06
3.85421e-06
3.59298e-06
3.32486e-06
3.05194e-06
2.78505e-06
2.55004e-06
2.39667e-06
6.86996e-06
6.61126e-06
6.23058e-06
5.81898e-06
5.41776e-06
5.04451e-06
4.70495e-06
4.39874e-06
4.12238e-06
3.87078e-06
3.638e-06
3.4179e-06
3.20453e-06
2.99239e-06
2.77733e-06
2.55759e-06
2.33577e-06
2.12189e-06
1.93798e-06
1.82263e-06
5.29596e-06
5.06684e-06
4.76446e-06
4.44602e-06
4.13788e-06
3.85143e-06
3.59035e-06
3.35415e-06
3.14019e-06
2.94467e-06
2.76309e-06
2.59084e-06
2.42344e-06
2.25683e-06
2.08802e-06
1.91609e-06
1.74387e-06
1.58029e-06
1.44351e-06
1.36096e-06
3.8567e-06
3.67562e-06
3.45463e-06
3.22664e-06
3.00711e-06
2.80283e-06
2.616e-06
2.44616e-06
2.29144e-06
2.14918e-06
2.01639e-06
1.88991e-06
1.76658e-06
1.6436e-06
1.51895e-06
1.39227e-06
1.26627e-06
1.14856e-06
1.05311e-06
9.97376e-07
2.61548e-06
2.4885e-06
2.34278e-06
2.19487e-06
2.05282e-06
1.92017e-06
1.79805e-06
1.68621e-06
1.58354e-06
1.48845e-06
1.39912e-06
1.31363e-06
1.22999e-06
1.14647e-06
1.06179e-06
9.75913e-07
8.91112e-07
8.13283e-07
7.5192e-07
7.1688e-07
1.61217e-06
1.53535e-06
1.45227e-06
1.36902e-06
1.2889e-06
1.21352e-06
1.1434e-06
1.07847e-06
1.01818e-06
9.61776e-07
9.08356e-07
8.5696e-07
8.06597e-07
7.56392e-07
7.05727e-07
6.54695e-07
6.04785e-07
5.59641e-07
5.2465e-07
5.04809e-07
8.88211e-07
8.49381e-07
8.10881e-07
7.72877e-07
7.36033e-07
7.00765e-07
6.67258e-07
6.35497e-07
6.05325e-07
5.76497e-07
5.48734e-07
5.21729e-07
4.95225e-07
4.69023e-07
4.43114e-07
4.17783e-07
3.93823e-07
3.72709e-07
3.5675e-07
3.47671e-07
4.60942e-07
4.4363e-07
4.2838e-07
4.13673e-07
3.99219e-07
3.85003e-07
3.71046e-07
3.57359e-07
3.43928e-07
3.30739e-07
3.17774e-07
3.05026e-07
2.92544e-07
2.8043e-07
2.68893e-07
2.58261e-07
2.48983e-07
2.41527e-07
2.36352e-07
2.33726e-07
2.2551e-07
2.18946e-07
2.14433e-07
2.10348e-07
2.06214e-07
2.01885e-07
1.97318e-07
1.92513e-07
1.87506e-07
1.82357e-07
1.77138e-07
1.71942e-07
1.66911e-07
1.62229e-07
1.5814e-07
1.54933e-07
1.52891e-07
1.52138e-07
1.52417e-07
1.52971e-07
1.04197e-07
1.02266e-07
1.01921e-07
1.01892e-07
1.01769e-07
1.014e-07
1.00732e-07
9.97574e-08
9.85103e-08
9.70472e-08
9.54526e-08
9.38357e-08
9.23339e-08
9.11195e-08
9.03993e-08
9.03989e-08
9.13109e-08
9.31639e-08
9.5571e-08
9.74532e-08
4.56111e-08
4.53138e-08
4.61257e-08
4.71767e-08
4.81712e-08
4.89896e-08
4.95832e-08
4.99424e-08
5.00872e-08
5.00599e-08
4.99263e-08
4.97717e-08
4.97023e-08
4.98489e-08
5.03637e-08
5.14091e-08
5.31196e-08
5.55059e-08
5.82498e-08
6.03729e-08
1.90247e-08
1.91183e-08
1.99515e-08
2.09681e-08
2.19714e-08
2.28768e-08
2.36461e-08
2.42691e-08
2.4756e-08
2.51338e-08
2.54457e-08
2.57492e-08
2.61165e-08
2.66359e-08
2.741e-08
2.85487e-08
3.01439e-08
3.22062e-08
3.45173e-08
3.63498e-08
7.64813e-09
7.7282e-09
8.29317e-09
8.99695e-09
9.71239e-09
1.03827e-08
1.09818e-08
1.15012e-08
1.19457e-08
1.23308e-08
1.26819e-08
1.30344e-08
1.34331e-08
1.39335e-08
1.46007e-08
1.55049e-08
1.67066e-08
1.82169e-08
1.98996e-08
2.127e-08
3.0331e-09
3.02546e-09
3.34042e-09
3.75623e-09
4.19056e-09
4.60799e-09
4.99262e-09
5.33906e-09
5.64924e-09
5.93123e-09
6.19901e-09
6.47257e-09
6.77813e-09
7.14857e-09
7.62307e-09
8.2447e-09
9.05194e-09
1.00543e-08
1.11722e-08
1.21023e-08
1.23517e-09
1.16754e-09
1.32136e-09
1.54208e-09
1.77871e-09
2.01148e-09
2.23179e-09
2.43638e-09
2.62578e-09
2.80384e-09
2.9777e-09
3.15805e-09
3.35936e-09
3.60022e-09
3.90325e-09
4.29399e-09
4.79624e-09
5.41809e-09
6.1154e-09
6.7061e-09
5.25613e-10
4.53645e-10
5.22085e-10
6.28935e-10
7.47049e-10
8.66555e-10
9.82964e-10
1.09432e-09
1.20052e-09
1.30319e-09
1.40578e-09
1.51369e-09
1.63454e-09
1.77833e-09
1.95763e-09
2.18713e-09
2.48148e-09
2.84822e-09
3.26711e-09
3.63576e-09
0.001
0.001
0.001
0.001
0.001
0.001
0.001
0.001
0.001
0.001
0.001
0.001
0.001
0.001
0.001
0.001
0.001
0.001
0.001
0.001
0.001
0.001
0.001
0.001
0.001
0.001
0.001
0.001
0.001
0.001
0.001
0.001
0.001
0.001
0.001
0.001
0.001
0.001
0.001
0.001
0.001
0.001
0.001
0.001
0.001
0.001
0.001
0.001
0.001
0.001
0.001
0.001
0.001
0.001
0.001
0.001
0.001
0.001
0.001
0.001
0.001
0.001
0.001
0.001
0.001
0.001
0.001
0.001
0.001
0.001
0.001
0.001
0.001
0.001
0.001
0.001
0.001
0.001
0.001
0.001
0.001
0.001
0.001
0.001
0.001
0.001
0.001
0.001
0.001
0.001
0.001
0.001
0.001
0.001
0.001
0.001
0.001
0.001
0.001
0.001
0.001
0.001
0.001
0.001
0.001
0.001
0.001