/*--------------------------------*- C++ -*----------------------------------*\
| =========                 |                                                 |
| \\      /  F ield         | OpenFOAM: The Open Source CFD Toolbox           |
|  \\    /   O peration     | Version:  2.1.0                                 |
|   \\  /    A nd           | Web:      www.OpenFOAM.org                      |
|    \\/     M anipulation  |                                                 |
\*---------------------------------------------------------------------------*/
FoamFile
{
    version     2.0;
    format      ascii;
    class       volScalarField;
    location    "0.15";
    object      C2;
}
// * * * * * * * * * * * * * * * * * * * * * * * * * * * * * * * * * * * * * //

dimensions      [0 0 0 0 0 0 0];

internalField   nonuniform List<scalar> 
6400
(
1.50794e-13
1.89891e-13
2.49264e-13
3.28615e-13
4.3264e-13
5.68388e-13
7.45083e-13
9.74564e-13
1.27194e-12
1.65644e-12
2.1525e-12
2.79106e-12
3.61124e-12
4.66235e-12
6.00643e-12
7.72134e-12
9.90453e-12
1.26777e-11
1.61926e-11
2.06375e-11
2.62463e-11
3.3308e-11
4.21792e-11
5.3299e-11
6.72062e-11
8.45609e-11
1.06169e-10
1.33014e-10
1.6629e-10
2.07444e-10
2.58227e-10
3.2075e-10
3.97551e-10
4.91677e-10
6.0677e-10
7.47174e-10
9.18059e-10
1.12555e-09
1.37691e-09
1.68066e-09
2.04686e-09
2.48728e-09
3.01564e-09
3.64795e-09
4.40276e-09
5.30148e-09
6.36882e-09
7.63309e-09
9.12662e-09
1.08862e-08
1.29537e-08
1.53759e-08
1.82057e-08
2.15021e-08
2.53304e-08
2.97629e-08
3.48788e-08
4.07644e-08
4.75126e-08
5.52233e-08
6.4002e-08
7.39593e-08
8.52097e-08
9.78693e-08
1.12054e-07
1.27876e-07
1.45442e-07
1.64844e-07
1.86161e-07
2.09448e-07
2.3473e-07
2.61997e-07
2.9119e-07
3.22197e-07
3.5484e-07
3.88866e-07
4.23938e-07
4.59622e-07
4.95382e-07
5.30571e-07
5.64426e-07
5.96066e-07
6.24499e-07
6.4863e-07
6.67282e-07
6.79229e-07
6.83241e-07
6.78148e-07
6.62917e-07
6.36766e-07
5.99287e-07
5.50616e-07
4.91653e-07
4.24375e-07
3.52034e-07
2.78615e-07
2.06451e-07
1.38727e-07
7.99083e-08
3.5258e-08
1.75668e-13
2.21935e-13
2.91381e-13
3.83902e-13
5.05047e-13
6.63005e-13
8.68461e-13
1.13511e-12
1.48042e-12
1.92661e-12
2.5019e-12
3.24199e-12
4.19201e-12
5.40881e-12
6.96387e-12
8.94684e-12
1.14699e-11
1.46731e-11
1.87309e-11
2.38598e-11
3.03284e-11
3.84686e-11
4.86899e-11
6.14959e-11
7.75049e-11
9.74736e-11
1.22326e-10
1.53189e-10
1.91429e-10
2.38704e-10
2.97019e-10
3.6879e-10
4.5692e-10
5.64895e-10
6.96881e-10
8.57847e-10
1.0537e-09
1.29145e-09
1.57939e-09
1.92728e-09
2.34661e-09
2.85083e-09
3.45565e-09
4.17937e-09
5.04319e-09
6.07166e-09
7.293e-09
8.73965e-09
1.04487e-08
1.24622e-08
1.4828e-08
1.76001e-08
2.08391e-08
2.46126e-08
2.89958e-08
3.40718e-08
3.99316e-08
4.66747e-08
5.44084e-08
6.32479e-08
7.33152e-08
8.47386e-08
9.7651e-08
1.12188e-07
1.28484e-07
1.46671e-07
1.66874e-07
1.89205e-07
2.13756e-07
2.40597e-07
2.69762e-07
3.01243e-07
3.34981e-07
3.70852e-07
4.08659e-07
4.48116e-07
4.8884e-07
5.30339e-07
5.71996e-07
6.13067e-07
6.52669e-07
6.8978e-07
7.23241e-07
7.51765e-07
7.73957e-07
7.88352e-07
7.93467e-07
7.8787e-07
7.70287e-07
7.39738e-07
6.95725e-07
6.38466e-07
5.69196e-07
4.90461e-07
4.06225e-07
3.21552e-07
2.39011e-07
1.62821e-07
9.83761e-08
5.10497e-08
2.22083e-13
2.81353e-13
3.69441e-13
4.86448e-13
6.39467e-13
8.38817e-13
1.09791e-12
1.43393e-12
1.86875e-12
2.43021e-12
3.15361e-12
4.08363e-12
5.27665e-12
6.80371e-12
8.75406e-12
1.12396e-11
1.44001e-11
1.84103e-11
2.34874e-11
2.99011e-11
3.79857e-11
4.8154e-11
6.09153e-11
7.68956e-11
9.6863e-11
1.21758e-10
1.52727e-10
1.91168e-10
2.38778e-10
2.97613e-10
3.7016e-10
4.59412e-10
5.68972e-10
7.03158e-10
8.67132e-10
1.06705e-09
1.31025e-09
1.60539e-09
1.96277e-09
2.39448e-09
2.91476e-09
3.5403e-09
4.29058e-09
5.18831e-09
6.25982e-09
7.5356e-09
9.05076e-09
1.08456e-08
1.29663e-08
1.54654e-08
1.84025e-08
2.18449e-08
2.58683e-08
3.05575e-08
3.60067e-08
4.23202e-08
4.96126e-08
5.8009e-08
6.76453e-08
7.86672e-08
9.12302e-08
1.05498e-07
1.2164e-07
1.39832e-07
1.60249e-07
1.83063e-07
2.0844e-07
2.36531e-07
2.67465e-07
3.01342e-07
3.38224e-07
3.78121e-07
4.20978e-07
4.66665e-07
5.14957e-07
5.65524e-07
6.17909e-07
6.71519e-07
7.25604e-07
7.79246e-07
8.31347e-07
8.80621e-07
9.25595e-07
9.64612e-07
9.95856e-07
1.01738e-06
1.02719e-06
1.0233e-06
1.00392e-06
9.67588e-07
9.13512e-07
8.41864e-07
7.54211e-07
6.53903e-07
5.46253e-07
4.37991e-07
3.32423e-07
2.35633e-07
1.54401e-07
9.49962e-08
2.89632e-13
3.67751e-13
4.82939e-13
6.35589e-13
8.3504e-13
1.09471e-12
1.432e-12
1.86916e-12
2.43454e-12
3.16415e-12
4.10367e-12
5.31083e-12
6.85853e-12
8.83849e-12
1.13659e-11
1.45852e-11
1.86767e-11
2.38655e-11
3.04316e-11
3.87223e-11
4.9168e-11
6.23001e-11
7.87736e-11
9.93935e-11
1.25147e-10
1.57243e-10
1.97155e-10
2.46678e-10
3.07992e-10
3.83736e-10
4.77099e-10
5.91927e-10
7.32841e-10
9.05379e-10
1.11617e-09
1.37311e-09
1.68559e-09
2.06476e-09
2.5238e-09
3.07824e-09
3.74637e-09
4.5496e-09
5.51297e-09
6.66565e-09
8.0415e-09
9.67974e-09
1.16256e-08
1.3931e-08
1.66554e-08
1.98668e-08
2.36421e-08
2.80685e-08
3.32442e-08
3.92791e-08
4.62958e-08
5.44303e-08
6.38323e-08
7.46661e-08
8.711e-08
1.01357e-07
1.17612e-07
1.36094e-07
1.57031e-07
1.8066e-07
2.07219e-07
2.36948e-07
2.70079e-07
3.06828e-07
3.47392e-07
3.91929e-07
4.40554e-07
4.93322e-07
5.5021e-07
6.11099e-07
6.75758e-07
7.43818e-07
8.14756e-07
8.87868e-07
9.62252e-07
1.03678e-06
1.11008e-06
1.18053e-06
1.24624e-06
1.30504e-06
1.3545e-06
1.392e-06
1.41472e-06
1.41982e-06
1.40458e-06
1.36666e-06
1.30445e-06
1.21759e-06
1.10747e-06
9.77903e-07
8.3552e-07
6.88333e-07
5.42084e-07
4.0557e-07
2.8885e-07
2.02152e-07
3.77456e-13
4.80188e-13
6.3065e-13
8.29693e-13
1.08959e-12
1.4278e-12
1.86692e-12
2.4358e-12
3.17119e-12
4.11978e-12
5.34071e-12
6.90874e-12
8.91818e-12
1.14877e-11
1.47662e-11
1.89403e-11
2.42431e-11
3.09651e-11
3.94677e-11
5.01991e-11
6.37142e-11
8.06981e-11
1.01995e-10
1.28642e-10
1.6191e-10
2.03355e-10
2.54874e-10
3.18776e-10
3.97865e-10
4.95534e-10
6.15884e-10
7.63856e-10
9.45387e-10
1.1676e-09
1.43899e-09
1.76973e-09
2.17186e-09
2.65971e-09
3.25019e-09
3.96328e-09
4.82245e-09
5.85522e-09
7.09376e-09
8.57559e-09
1.03442e-08
1.24502e-08
1.49517e-08
1.79156e-08
2.14187e-08
2.55485e-08
3.04048e-08
3.61003e-08
4.27623e-08
5.05337e-08
5.95741e-08
7.0061e-08
8.21906e-08
9.61785e-08
1.1226e-07
1.30691e-07
1.51745e-07
1.75714e-07
2.02909e-07
2.33651e-07
2.68272e-07
3.07107e-07
3.50489e-07
3.98739e-07
4.52155e-07
5.11004e-07
5.755e-07
6.45792e-07
7.21943e-07
8.03905e-07
8.91493e-07
9.84363e-07
1.08198e-06
1.18358e-06
1.28815e-06
1.3944e-06
1.50069e-06
1.60505e-06
1.70514e-06
1.79821e-06
1.88109e-06
1.95023e-06
2.00177e-06
2.03156e-06
2.03545e-06
2.0095e-06
1.95046e-06
1.85634e-06
1.72721e-06
1.56602e-06
1.37955e-06
1.17765e-06
9.6892e-07
7.66512e-07
5.87082e-07
4.50456e-07
4.82176e-13
6.14474e-13
8.07077e-13
1.0615e-12
1.39355e-12
1.82551e-12
2.38614e-12
3.11218e-12
4.05038e-12
5.26008e-12
6.81645e-12
8.81447e-12
1.13739e-11
1.46452e-11
1.88174e-11
2.41271e-11
3.08694e-11
3.94125e-11
5.02138e-11
6.38403e-11
8.09939e-11
1.0254e-10
1.29546e-10
1.63321e-10
2.0547e-10
2.57956e-10
3.2317e-10
4.04023e-10
5.04047e-10
6.27518e-10
7.79599e-10
9.66506e-10
1.19571e-09
1.47617e-09
1.81857e-09
2.23568e-09
2.74266e-09
3.3575e-09
4.10145e-09
4.99961e-09
6.08145e-09
7.38156e-09
8.94037e-09
1.0805e-08
1.30303e-08
1.56796e-08
1.88263e-08
2.25547e-08
2.69615e-08
3.21574e-08
3.82684e-08
4.54372e-08
5.38254e-08
6.36147e-08
7.50088e-08
8.82348e-08
1.03545e-07
1.21217e-07
1.41556e-07
1.64895e-07
1.91595e-07
2.22044e-07
2.56655e-07
2.95865e-07
3.40129e-07
3.89917e-07
4.45707e-07
5.07974e-07
5.7718e-07
6.5376e-07
7.38106e-07
8.30547e-07
9.31322e-07
1.04056e-06
1.15823e-06
1.28413e-06
1.41785e-06
1.5587e-06
1.70569e-06
1.85747e-06
2.01228e-06
2.1679e-06
2.32162e-06
2.47013e-06
2.60952e-06
2.73525e-06
2.84211e-06
2.92436e-06
2.97579e-06
2.99009e-06
2.96118e-06
2.88397e-06
2.75518e-06
2.57454e-06
2.34621e-06
2.08127e-06
1.79101e-06
1.49386e-06
1.21718e-06
9.98384e-07
5.95888e-13
7.60531e-13
9.98951e-13
1.31352e-12
1.7239e-12
2.25759e-12
2.95001e-12
3.84639e-12
5.00426e-12
6.49659e-12
8.41576e-12
1.08784e-11
1.40316e-11
1.80601e-11
2.31954e-11
2.97274e-11
3.80179e-11
4.85173e-11
6.17849e-11
7.85143e-11
9.95624e-11
1.25987e-10
1.59088e-10
2.00463e-10
2.52068e-10
3.16292e-10
3.96046e-10
4.94872e-10
6.17063e-10
7.67813e-10
9.53392e-10
1.18135e-09
1.46074e-09
1.80243e-09
2.21939e-09
2.72708e-09
3.34387e-09
4.09155e-09
4.99588e-09
6.08724e-09
7.40135e-09
8.98011e-09
1.08725e-08
1.31358e-08
1.58363e-08
1.90512e-08
2.28695e-08
2.73939e-08
3.27424e-08
3.90499e-08
4.64705e-08
5.51795e-08
6.53753e-08
7.72822e-08
9.11521e-08
1.07267e-07
1.25942e-07
1.47526e-07
1.72406e-07
2.01003e-07
2.33783e-07
2.71247e-07
3.13937e-07
3.62434e-07
4.17354e-07
4.79345e-07
5.49079e-07
6.27246e-07
7.14546e-07
8.11669e-07
9.19283e-07
1.03801e-06
1.16841e-06
1.31093e-06
1.46587e-06
1.63337e-06
1.81333e-06
2.00538e-06
2.20879e-06
2.42242e-06
2.64464e-06
2.87326e-06
3.10543e-06
3.33758e-06
3.56525e-06
3.78301e-06
3.98443e-06
4.16201e-06
4.30721e-06
4.41068e-06
4.46252e-06
4.45292e-06
4.37297e-06
4.21587e-06
3.97852e-06
3.66775e-06
3.29773e-06
2.88956e-06
2.48323e-06
2.14164e-06
7.052e-13
9.01122e-13
1.18358e-12
1.55587e-12
2.04135e-12
2.67246e-12
3.491e-12
4.55021e-12
5.9178e-12
7.67964e-12
9.94433e-12
1.2849e-11
1.65661e-11
2.13125e-11
2.73599e-11
3.50478e-11
4.48e-11
5.71434e-11
7.27324e-11
9.23773e-11
1.17079e-10
1.48072e-10
1.86874e-10
2.35345e-10
2.95765e-10
3.70914e-10
4.64181e-10
5.79681e-10
7.22405e-10
8.98387e-10
1.11491e-09
1.38072e-09
1.70635e-09
2.10438e-09
2.58987e-09
3.18072e-09
3.89826e-09
4.76774e-09
5.81903e-09
7.08739e-09
8.61426e-09
1.04483e-08
1.26465e-08
1.52753e-08
1.84122e-08
2.21468e-08
2.65834e-08
3.18419e-08
3.80606e-08
4.53981e-08
5.4036e-08
6.41813e-08
7.60694e-08
8.99671e-08
1.06176e-07
1.25034e-07
1.46923e-07
1.72267e-07
2.01539e-07
2.35261e-07
2.74012e-07
3.18424e-07
3.69189e-07
4.27057e-07
4.92838e-07
5.67398e-07
6.51658e-07
7.46588e-07
8.53199e-07
9.72533e-07
1.10565e-06
1.25362e-06
1.41745e-06
1.59812e-06
1.79649e-06
2.01329e-06
2.24904e-06
2.504e-06
2.77808e-06
3.07076e-06
3.38098e-06
3.70701e-06
4.04639e-06
4.39578e-06
4.75087e-06
5.1058e-06
5.45349e-06
5.78516e-06
6.09023e-06
6.35642e-06
6.56976e-06
6.71496e-06
6.77588e-06
6.73638e-06
6.58122e-06
6.30007e-06
5.90763e-06
5.41988e-06
4.88174e-06
4.3804e-06
7.92629e-13
1.01369e-12
1.33132e-12
1.74963e-12
2.2949e-12
3.0035e-12
3.92218e-12
5.1105e-12
6.64416e-12
8.61906e-12
1.11565e-11
1.44093e-11
1.85701e-11
2.38804e-11
3.06427e-11
3.92353e-11
5.01293e-11
6.39108e-11
8.13069e-11
1.03218e-10
1.30754e-10
1.65286e-10
2.08496e-10
2.62447e-10
3.29663e-10
4.13224e-10
5.1688e-10
6.45188e-10
8.03668e-10
9.98994e-10
1.23922e-09
1.53402e-09
1.89505e-09
2.33621e-09
2.87415e-09
3.52871e-09
4.32347e-09
5.2864e-09
6.45061e-09
7.85519e-09
9.54615e-09
1.15776e-08
1.40128e-08
1.69259e-08
2.04033e-08
2.45453e-08
2.94686e-08
3.5308e-08
4.22191e-08
5.03811e-08
5.99996e-08
7.13101e-08
8.45815e-08
1.0012e-07
1.18272e-07
1.39432e-07
1.64043e-07
1.92604e-07
2.25673e-07
2.63877e-07
3.0791e-07
3.58543e-07
4.16629e-07
4.83105e-07
5.58996e-07
6.45418e-07
7.43582e-07
8.5479e-07
9.80434e-07
1.12199e-06
1.28102e-06
1.45912e-06
1.65797e-06
1.87926e-06
2.12466e-06
2.39578e-06
2.69412e-06
3.02102e-06
3.37753e-06
3.76435e-06
4.18167e-06
4.62901e-06
5.10506e-06
5.60739e-06
6.1323e-06
6.67496e-06
7.22893e-06
7.78554e-06
8.33338e-06
8.8586e-06
9.34428e-06
9.77068e-06
1.01151e-05
1.03519e-05
1.04524e-05
1.0385e-05
1.01325e-05
9.70581e-06
9.12421e-06
8.46806e-06
8.40391e-13
1.07523e-12
1.41201e-12
1.85532e-12
2.43302e-12
3.18358e-12
4.15639e-12
5.41438e-12
7.03749e-12
9.12697e-12
1.18108e-11
1.52503e-11
1.96485e-11
2.52601e-11
3.24041e-11
4.14788e-11
5.29807e-11
6.7527e-11
8.58835e-11
1.08998e-10
1.38039e-10
1.74449e-10
2.19998e-10
2.76857e-10
3.47683e-10
4.35717e-10
5.44907e-10
6.80046e-10
8.46949e-10
1.05264e-09
1.30561e-09
1.61606e-09
1.99626e-09
2.4609e-09
3.02754e-09
3.71715e-09
4.55467e-09
5.5697e-09
6.79735e-09
8.27908e-09
1.00638e-08
1.22091e-08
1.47824e-08
1.7863e-08
2.15433e-08
2.5931e-08
3.11516e-08
3.73505e-08
4.46962e-08
5.33832e-08
6.36356e-08
7.57113e-08
8.99056e-08
1.06557e-07
1.2605e-07
1.48825e-07
1.7538e-07
2.0628e-07
2.42163e-07
2.83745e-07
3.31835e-07
3.87335e-07
4.51254e-07
5.24711e-07
6.08954e-07
7.05358e-07
8.15437e-07
9.40852e-07
1.08341e-06
1.24509e-06
1.42801e-06
1.63445e-06
1.86685e-06
2.12778e-06
2.41994e-06
2.74609e-06
3.10906e-06
3.51168e-06
3.95667e-06
4.44657e-06
4.98359e-06
5.56947e-06
6.2052e-06
6.89085e-06
7.6252e-06
8.40545e-06
9.22655e-06
1.00815e-05
1.09614e-05
1.1854e-05
1.27419e-05
1.36042e-05
1.44149e-05
1.51432e-05
1.57529e-05
1.6201e-05
1.64358e-05
1.63992e-05
1.60555e-05
1.5384e-05
8.3642e-13
1.07006e-12
1.40516e-12
1.84626e-12
2.42108e-12
3.16788e-12
4.13582e-12
5.38753e-12
7.00257e-12
9.08172e-12
1.17524e-11
1.51753e-11
1.95525e-11
2.51378e-11
3.2249e-11
4.1283e-11
5.27349e-11
6.72201e-11
8.55022e-11
1.08527e-10
1.37462e-10
1.73746e-10
2.19148e-10
2.75839e-10
3.46475e-10
4.34301e-10
5.43267e-10
6.78181e-10
8.44869e-10
1.05039e-09
1.30325e-09
1.61373e-09
1.99416e-09
2.45934e-09
3.027e-09
3.7183e-09
4.55846e-09
5.57748e-09
6.81095e-09
8.30101e-09
1.00975e-08
1.2259e-08
1.48546e-08
1.79655e-08
2.16866e-08
2.61289e-08
3.1422e-08
3.77165e-08
4.51876e-08
5.40383e-08
6.45035e-08
7.68542e-08
9.14028e-08
1.08508e-07
1.28582e-07
1.52096e-07
1.79589e-07
2.11673e-07
2.49049e-07
2.92508e-07
3.42948e-07
4.01382e-07
4.68955e-07
5.4695e-07
6.36814e-07
7.40159e-07
8.5879e-07
9.94711e-07
1.15015e-06
1.32757e-06
1.52969e-06
1.75948e-06
2.02022e-06
2.31545e-06
2.64901e-06
3.02504e-06
3.44792e-06
3.9223e-06
4.45303e-06
5.04507e-06
5.70342e-06
6.43294e-06
7.23817e-06
8.12305e-06
9.09063e-06
1.01426e-05
1.12787e-05
1.24964e-05
1.37899e-05
1.51505e-05
1.65674e-05
1.80228e-05
1.94919e-05
2.09433e-05
2.23383e-05
2.36269e-05
2.47424e-05
2.55865e-05
2.6e-05
2.57081e-05
7.81937e-13
9.9979e-13
1.3129e-12
1.72525e-12
2.26272e-12
2.96116e-12
3.86663e-12
5.03789e-12
6.54958e-12
8.49633e-12
1.09978e-11
1.42051e-11
1.83082e-11
2.35461e-11
3.02181e-11
3.86982e-11
4.94535e-11
6.30649e-11
8.0254e-11
1.01915e-10
1.29152e-10
1.6333e-10
2.06126e-10
2.596e-10
3.26275e-10
4.09239e-10
5.12255e-10
6.39905e-10
7.97752e-10
9.92539e-10
1.23242e-09
1.52723e-09
1.88881e-09
2.3314e-09
2.87206e-09
3.5312e-09
4.33319e-09
5.30707e-09
6.48736e-09
7.91503e-09
9.63859e-09
1.17154e-08
1.42129e-08
1.72109e-08
2.08027e-08
2.5098e-08
3.0225e-08
3.63335e-08
4.35981e-08
5.2222e-08
6.24411e-08
7.45291e-08
8.88024e-08
1.05627e-07
1.25424e-07
1.48678e-07
1.75949e-07
2.07874e-07
2.45186e-07
2.88723e-07
3.3944e-07
3.98424e-07
4.66914e-07
5.46314e-07
6.38216e-07
7.44423e-07
8.66968e-07
1.00815e-06
1.17053e-06
1.35703e-06
1.57088e-06
1.8157e-06
2.09556e-06
2.41493e-06
2.77881e-06
3.1927e-06
3.66264e-06
4.19525e-06
4.79773e-06
5.47783e-06
6.24384e-06
7.10448e-06
8.06882e-06
9.14604e-06
1.03452e-05
1.16746e-05
1.31418e-05
1.47522e-05
1.65086e-05
1.84104e-05
2.04523e-05
2.26269e-05
2.4918e-05
2.72969e-05
2.97245e-05
3.21429e-05
3.44609e-05
3.65199e-05
3.80191e-05
3.83924e-05
6.90309e-13
8.81797e-13
1.15797e-12
1.52196e-12
1.99656e-12
2.61349e-12
3.41357e-12
4.44889e-12
5.7857e-12
7.50801e-12
9.7222e-12
1.25626e-11
1.61984e-11
2.08425e-11
2.67617e-11
3.42901e-11
4.38448e-11
5.59455e-11
7.12384e-11
9.05248e-11
1.14797e-10
1.45279e-10
1.83481e-10
2.31259e-10
2.9089e-10
3.65161e-10
4.57478e-10
5.71991e-10
7.1375e-10
8.88884e-10
1.10481e-09
1.37052e-09
1.69681e-09
2.09673e-09
2.58592e-09
3.18315e-09
3.91087e-09
4.79588e-09
5.87014e-09
7.17164e-09
8.74548e-09
1.06451e-08
1.29338e-08
1.5686e-08
1.89898e-08
2.29486e-08
2.76837e-08
3.33374e-08
4.00761e-08
4.80945e-08
5.76191e-08
6.89139e-08
8.22857e-08
9.80907e-08
1.16741e-07
1.38715e-07
1.64563e-07
1.94921e-07
2.30523e-07
2.72211e-07
3.20955e-07
3.77867e-07
4.44219e-07
5.21471e-07
6.1129e-07
7.15579e-07
8.3651e-07
9.76555e-07
1.13853e-06
1.32563e-06
1.54148e-06
1.7902e-06
2.07644e-06
2.40548e-06
2.78324e-06
3.21643e-06
3.71257e-06
4.2801e-06
4.92845e-06
5.66813e-06
6.51079e-06
7.46927e-06
8.55761e-06
9.79099e-06
1.11856e-05
1.27586e-05
1.45271e-05
1.65083e-05
1.8718e-05
2.11695e-05
2.38719e-05
2.68287e-05
3.00398e-05
3.34876e-05
3.71375e-05
4.09256e-05
4.47359e-05
4.83503e-05
5.13356e-05
5.28325e-05
5.79434e-13
7.39219e-13
9.70717e-13
1.27613e-12
1.67451e-12
2.19252e-12
2.86457e-12
3.73455e-12
4.85837e-12
6.30695e-12
8.17019e-12
1.05617e-11
1.36246e-11
1.75394e-11
2.25323e-11
2.88867e-11
3.69573e-11
4.71861e-11
6.01232e-11
7.6452e-11
9.70191e-11
1.22871e-10
1.55301e-10
1.95898e-10
2.46616e-10
3.09851e-10
3.88535e-10
4.86245e-10
6.07341e-10
7.57126e-10
9.42032e-10
1.16985e-09
1.45e-09
1.79383e-09
2.21502e-09
2.72999e-09
3.35845e-09
4.12396e-09
5.05469e-09
6.18423e-09
7.55254e-09
9.20713e-09
1.12043e-08
1.36108e-08
1.65054e-08
1.99811e-08
2.41474e-08
2.91332e-08
3.50899e-08
4.21947e-08
5.06554e-08
6.07148e-08
7.26561e-08
8.68098e-08
1.0356e-07
1.23355e-07
1.46713e-07
1.74236e-07
2.06623e-07
2.4468e-07
2.89342e-07
3.41685e-07
4.02955e-07
4.74584e-07
5.58224e-07
6.55776e-07
7.69426e-07
9.01685e-07
1.05544e-06
1.234e-06
1.44116e-06
1.68128e-06
1.95934e-06
2.28106e-06
2.65298e-06
3.08258e-06
3.57843e-06
4.15029e-06
4.80933e-06
5.56828e-06
6.44162e-06
7.44578e-06
8.59939e-06
9.92341e-06
1.14413e-05
1.31793e-05
1.51658e-05
1.74319e-05
2.00101e-05
2.29334e-05
2.62333e-05
2.9937e-05
3.40632e-05
3.86225e-05
4.3598e-05
4.89316e-05
5.44927e-05
6.00135e-05
6.49475e-05
6.81687e-05
4.66243e-13
5.93888e-13
7.79816e-13
1.02541e-12
1.34589e-12
1.76274e-12
2.30373e-12
3.00433e-12
3.90971e-12
5.07726e-12
6.57973e-12
8.50914e-12
1.09816e-11
1.41435e-11
1.81785e-11
2.33171e-11
2.98478e-11
3.81304e-11
4.86136e-11
6.18551e-11
7.85464e-11
9.95441e-11
1.25906e-10
1.58936e-10
2.00239e-10
2.51785e-10
3.15987e-10
3.95796e-10
4.94814e-10
6.17426e-10
7.68963e-10
9.55895e-10
1.18605e-09
1.46889e-09
1.81584e-09
2.24062e-09
2.75977e-09
3.39308e-09
4.16428e-09
5.10173e-09
6.23925e-09
7.61715e-09
9.28335e-09
1.12948e-08
1.37188e-08
1.66354e-08
2.01388e-08
2.43403e-08
2.93711e-08
3.53855e-08
4.25649e-08
5.1122e-08
6.13061e-08
7.34091e-08
8.77724e-08
1.04795e-07
1.24941e-07
1.48752e-07
1.76861e-07
2.1e-07
2.49023e-07
2.94921e-07
3.48843e-07
4.12121e-07
4.86303e-07
5.73178e-07
6.7482e-07
7.93628e-07
9.3238e-07
1.09429e-06
1.28308e-06
1.50304e-06
1.75916e-06
2.05718e-06
2.40379e-06
2.8067e-06
3.27484e-06
3.81859e-06
4.44996e-06
5.18289e-06
6.03356e-06
7.02075e-06
8.16625e-06
9.49535e-06
1.10373e-05
1.2826e-05
1.49004e-05
1.7305e-05
2.00902e-05
2.33123e-05
2.7032e-05
3.13123e-05
3.62125e-05
4.17838e-05
4.80586e-05
5.50165e-05
6.25414e-05
7.03373e-05
7.77564e-05
8.34272e-05
3.63248e-13
4.6188e-13
6.06424e-13
7.97632e-13
1.04727e-12
1.3721e-12
1.79382e-12
2.3402e-12
3.04658e-12
3.95793e-12
5.13128e-12
6.63881e-12
8.57169e-12
1.10448e-11
1.42027e-11
1.82267e-11
2.33439e-11
2.9838e-11
3.80629e-11
4.84589e-11
6.15727e-11
7.80819e-11
9.88242e-11
1.24834e-10
1.57384e-10
1.98041e-10
2.48723e-10
3.11784e-10
3.90094e-10
4.87159e-10
6.07242e-10
7.55526e-10
9.38292e-10
1.16315e-09
1.43928e-09
1.77777e-09
2.19195e-09
2.69788e-09
3.31477e-09
4.06569e-09
4.97817e-09
6.08512e-09
7.42575e-09
9.04674e-09
1.10035e-08
1.3362e-08
1.62e-08
1.961e-08
2.37009e-08
2.86015e-08
3.44634e-08
4.14653e-08
4.98173e-08
5.9766e-08
7.1601e-08
8.56617e-08
1.02346e-07
1.22118e-07
1.45522e-07
1.73193e-07
2.05873e-07
2.44426e-07
2.89862e-07
3.43355e-07
4.06276e-07
4.80218e-07
5.6704e-07
6.68903e-07
7.88324e-07
9.28234e-07
1.09205e-06
1.28373e-06
1.50793e-06
1.77005e-06
2.07639e-06
2.43433e-06
2.85249e-06
3.34096e-06
3.91158e-06
4.57826e-06
5.3574e-06
6.2683e-06
7.33381e-06
8.58099e-06
1.0042e-05
1.17551e-05
1.37658e-05
1.61287e-05
1.89087e-05
2.21832e-05
2.60441e-05
3.05977e-05
3.59631e-05
4.22635e-05
4.96187e-05
5.81098e-05
6.77075e-05
7.81456e-05
8.86862e-05
9.76729e-05
2.77582e-13
3.52268e-13
4.62466e-13
6.08508e-13
7.9931e-13
1.04771e-12
1.37037e-12
1.78861e-12
2.32962e-12
3.028e-12
3.92765e-12
5.0842e-12
6.56794e-12
8.46752e-12
1.08945e-11
1.39891e-11
1.79268e-11
2.29273e-11
2.92648e-11
3.72804e-11
4.73985e-11
6.01454e-11
7.61722e-11
9.62836e-11
1.21472e-10
1.52957e-10
1.92237e-10
2.41151e-10
3.01945e-10
3.77362e-10
4.70747e-10
5.86167e-10
7.28561e-10
9.03914e-10
1.11947e-09
1.38397e-09
1.70797e-09
2.10415e-09
2.58778e-09
3.17715e-09
3.89419e-09
4.76511e-09
5.82123e-09
7.09987e-09
8.6455e-09
1.0511e-08
1.2759e-08
1.54642e-08
1.87145e-08
2.26143e-08
2.72868e-08
3.28774e-08
3.95576e-08
4.75292e-08
5.70299e-08
6.83388e-08
8.17838e-08
9.77496e-08
1.16688e-07
1.39126e-07
1.65685e-07
1.97089e-07
2.34185e-07
2.77966e-07
3.29591e-07
3.90415e-07
4.62024e-07
5.46269e-07
6.45317e-07
7.61699e-07
8.98378e-07
1.05882e-06
1.2471e-06
1.46796e-06
1.72701e-06
2.0308e-06
2.38708e-06
2.80496e-06
3.29522e-06
3.87064e-06
4.54641e-06
5.34061e-06
6.27494e-06
7.37544e-06
8.6736e-06
1.02077e-05
1.20245e-05
1.41816e-05
1.67507e-05
1.98213e-05
2.35074e-05
2.79535e-05
3.33421e-05
3.98961e-05
4.78661e-05
5.75189e-05
6.905e-05
8.23787e-05
9.67615e-05
0.000110133
2.1209e-13
2.68552e-13
3.52528e-13
4.64083e-13
6.09971e-13
8.00034e-13
1.04708e-12
1.36753e-12
1.78233e-12
2.31814e-12
3.00886e-12
3.89743e-12
5.03816e-12
6.49962e-12
8.36818e-12
1.07524e-11
1.37883e-11
1.76464e-11
2.25395e-11
2.87329e-11
3.65565e-11
4.642e-11
5.88309e-11
7.44168e-11
9.39519e-11
1.1839e-10
1.48903e-10
1.8693e-10
2.34232e-10
2.92961e-10
3.65743e-10
4.55777e-10
5.6695e-10
7.03978e-10
8.72575e-10
1.07965e-09
1.33354e-09
1.64431e-09
2.02404e-09
2.48726e-09
3.05141e-09
3.73736e-09
4.57005e-09
5.57931e-09
6.80067e-09
8.27645e-09
1.0057e-08
1.22021e-08
1.47826e-08
1.78825e-08
2.16013e-08
2.60565e-08
3.13868e-08
3.7756e-08
4.53568e-08
5.44166e-08
6.52026e-08
7.80288e-08
9.32645e-08
1.11343e-07
1.32772e-07
1.58149e-07
1.88171e-07
2.23657e-07
2.65566e-07
3.15023e-07
3.73342e-07
4.42066e-07
5.22999e-07
6.18259e-07
7.30325e-07
8.6211e-07
1.01703e-06
1.19911e-06
1.41306e-06
1.66446e-06
1.95989e-06
2.30714e-06
2.71544e-06
3.19579e-06
3.76133e-06
4.42783e-06
5.21427e-06
6.14369e-06
7.2442e-06
8.5504e-06
1.01053e-05
1.19629e-05
1.41919e-05
1.68819e-05
2.01519e-05
2.41635e-05
2.91404e-05
3.53891e-05
4.33221e-05
5.34323e-05
6.63118e-05
8.23664e-05
0.000101179
0.000120264
1.67295e-13
2.11244e-13
2.77267e-13
3.65241e-13
4.80438e-13
6.30653e-13
8.26069e-13
1.07975e-12
1.4084e-12
1.83326e-12
2.38139e-12
3.08707e-12
3.99373e-12
5.15622e-12
6.64368e-12
8.54307e-12
1.09636e-11
1.4042e-11
1.79492e-11
2.28985e-11
2.91555e-11
3.705e-11
4.69912e-11
5.94854e-11
7.51577e-11
9.47791e-11
1.19298e-10
1.49879e-10
1.87948e-10
2.35254e-10
2.93927e-10
3.66567e-10
4.56336e-10
5.67076e-10
7.03444e-10
8.71078e-10
1.07679e-09
1.3288e-09
1.637e-09
2.01331e-09
2.47201e-09
3.03024e-09
3.70851e-09
4.53135e-09
5.52804e-09
6.73345e-09
8.18913e-09
9.94446e-09
1.20581e-08
1.45995e-08
1.76511e-08
2.13104e-08
2.56926e-08
3.09335e-08
3.71939e-08
4.46627e-08
5.35628e-08
6.41562e-08
7.67511e-08
9.17093e-08
1.09456e-07
1.3049e-07
1.55395e-07
1.84859e-07
2.19686e-07
2.60818e-07
3.0936e-07
3.66606e-07
4.34073e-07
5.1354e-07
6.07093e-07
7.17177e-07
8.46667e-07
9.98941e-07
1.17797e-06
1.38844e-06
1.63589e-06
1.92687e-06
2.26916e-06
2.67201e-06
3.14651e-06
3.70596e-06
4.36642e-06
5.14741e-06
6.07285e-06
7.17232e-06
8.48283e-06
1.00513e-05
1.19386e-05
1.42253e-05
1.70221e-05
2.0486e-05
2.48464e-05
3.04406e-05
3.77712e-05
4.75392e-05
6.07449e-05
7.85781e-05
0.000101628
0.000127725
1.43383e-13
1.80463e-13
2.36825e-13
3.12167e-13
4.10947e-13
5.39865e-13
7.07707e-13
9.25757e-13
1.20844e-12
1.57415e-12
2.04627e-12
2.65453e-12
3.43654e-12
4.43988e-12
5.72453e-12
7.36603e-12
9.45924e-12
1.21231e-11
1.55063e-11
1.97947e-11
2.52195e-11
3.20683e-11
4.06982e-11
5.15511e-11
6.51731e-11
8.22383e-11
1.03576e-10
1.30206e-10
1.63378e-10
2.04622e-10
2.5581e-10
3.19222e-10
3.97636e-10
4.94427e-10
6.13691e-10
7.60391e-10
9.40524e-10
1.16133e-09
1.43155e-09
1.76167e-09
2.16433e-09
2.65466e-09
3.25079e-09
3.97443e-09
4.85147e-09
5.91283e-09
7.19531e-09
8.7427e-09
1.0607e-08
1.285e-08
1.55448e-08
1.8778e-08
2.26521e-08
2.7288e-08
3.28286e-08
3.94423e-08
4.73272e-08
5.6717e-08
6.78859e-08
8.11565e-08
9.69075e-08
1.15584e-07
1.37707e-07
1.63888e-07
1.94846e-07
2.3142e-07
2.74595e-07
3.25525e-07
3.85562e-07
4.56289e-07
5.39562e-07
6.3756e-07
7.52836e-07
8.8839e-07
1.04775e-06
1.23508e-06
1.45527e-06
1.71414e-06
2.01856e-06
2.37673e-06
2.79844e-06
3.29543e-06
3.88189e-06
4.57506e-06
5.39605e-06
6.37102e-06
7.53279e-06
8.92323e-06
1.05971e-05
1.26286e-05
1.51217e-05
1.82276e-05
2.21684e-05
2.72711e-05
3.40297e-05
4.31904e-05
5.59367e-05
7.40532e-05
9.95343e-05
0.000132107
1.17585e-08
1.04145e-08
1.20458e-08
1.44816e-08
1.7125e-08
1.97477e-08
2.22381e-08
2.45412e-08
2.66439e-08
2.85717e-08
3.03886e-08
3.2198e-08
3.41452e-08
3.64179e-08
3.92459e-08
4.28913e-08
4.76104e-08
5.35352e-08
6.03385e-08
6.63513e-08
2.71783e-08
2.60738e-08
2.95731e-08
3.44332e-08
3.95521e-08
4.44841e-08
4.90224e-08
5.3078e-08
5.66453e-08
5.97902e-08
6.26473e-08
6.542e-08
6.83814e-08
7.18747e-08
7.63085e-08
8.21331e-08
8.97621e-08
9.93492e-08
1.1021e-07
1.19471e-07
6.52636e-08
6.5596e-08
7.24467e-08
8.12674e-08
9.03175e-08
9.88186e-08
1.06402e-07
1.12923e-07
1.18395e-07
1.22962e-07
1.26885e-07
1.30542e-07
1.34421e-07
1.39121e-07
1.45344e-07
1.53841e-07
1.65284e-07
1.79885e-07
1.96469e-07
2.10425e-07
1.59933e-07
1.62262e-07
1.74037e-07
1.88374e-07
2.02663e-07
2.15689e-07
2.26858e-07
2.35952e-07
2.43021e-07
2.48341e-07
2.52382e-07
2.558e-07
2.59421e-07
2.64248e-07
2.71432e-07
2.82199e-07
2.97618e-07
3.18003e-07
3.41474e-07
3.60977e-07
3.84886e-07
3.87738e-07
4.04383e-07
4.24177e-07
4.43219e-07
4.59739e-07
4.72893e-07
4.82392e-07
4.88363e-07
4.91277e-07
4.91914e-07
4.91321e-07
4.90812e-07
4.91974e-07
4.96622e-07
5.06684e-07
5.23817e-07
5.48501e-07
5.77965e-07
6.02246e-07
8.8942e-07
8.8533e-07
9.00921e-07
9.20262e-07
9.37705e-07
9.50814e-07
9.58495e-07
9.6043e-07
9.56861e-07
9.48504e-07
9.36522e-07
9.22432e-07
9.08152e-07
8.96033e-07
8.88793e-07
8.89335e-07
9.00183e-07
9.22176e-07
9.51721e-07
9.76671e-07
1.9517e-06
1.91932e-06
1.91347e-06
1.91208e-06
1.90757e-06
1.89691e-06
1.87878e-06
1.8529e-06
1.81961e-06
1.77984e-06
1.73503e-06
1.68709e-06
1.63852e-06
1.59243e-06
1.55263e-06
1.52334e-06
1.50843e-06
1.50969e-06
1.52376e-06
1.53966e-06
4.04389e-06
3.93549e-06
3.85893e-06
3.78758e-06
3.71296e-06
3.632e-06
3.54341e-06
3.44688e-06
3.34275e-06
3.23183e-06
3.11524e-06
2.99473e-06
2.87292e-06
2.75335e-06
2.64083e-06
2.54126e-06
2.46083e-06
2.40415e-06
2.37175e-06
2.36083e-06
7.88801e-06
7.61412e-06
7.36829e-06
7.12759e-06
6.88685e-06
6.64487e-06
6.40113e-06
6.15496e-06
5.90588e-06
5.65351e-06
5.39753e-06
5.13818e-06
4.8768e-06
4.61604e-06
4.361e-06
4.11951e-06
3.90226e-06
3.72157e-06
3.59074e-06
3.52497e-06
1.44628e-05
1.388e-05
1.32934e-05
1.27086e-05
1.21341e-05
1.1575e-05
1.10325e-05
1.05053e-05
9.9909e-06
9.48546e-06
8.98482e-06
8.485e-06
7.9828e-06
7.47736e-06
6.97159e-06
6.47523e-06
6.00792e-06
5.60071e-06
5.29412e-06
5.13268e-06
2.44678e-05
2.34074e-05
2.2248e-05
2.10756e-05
1.99333e-05
1.8842e-05
1.78077e-05
1.68284e-05
1.58969e-05
1.50033e-05
1.41353e-05
1.32807e-05
1.24271e-05
1.15653e-05
1.06913e-05
9.81383e-06
8.96333e-06
8.2023e-06
7.6157e-06
7.30014e-06
3.69467e-05
3.53413e-05
3.34808e-05
3.15728e-05
2.97167e-05
2.79569e-05
2.63078e-05
2.47667e-05
2.33209e-05
2.19511e-05
2.06352e-05
1.93501e-05
1.80724e-05
1.67827e-05
1.54698e-05
1.41401e-05
1.28317e-05
1.16336e-05
1.06885e-05
1.01591e-05
5.15379e-05
4.94032e-05
4.67672e-05
4.4017e-05
4.13337e-05
3.87973e-05
3.64361e-05
3.42485e-05
3.22145e-05
3.03042e-05
2.84833e-05
2.67154e-05
2.49646e-05
2.31995e-05
2.14e-05
1.95683e-05
1.77466e-05
1.60435e-05
1.46584e-05
1.38583e-05
6.76323e-05
6.50926e-05
6.16856e-05
5.80518e-05
5.44861e-05
5.11189e-05
4.79961e-05
4.51175e-05
4.24571e-05
3.99752e-05
3.76236e-05
3.53507e-05
3.31066e-05
3.08466e-05
2.85396e-05
2.61807e-05
2.38124e-05
2.15584e-05
1.9667e-05
1.85301e-05
8.44837e-05
8.17786e-05
7.76971e-05
7.32186e-05
6.87881e-05
6.45999e-05
6.07231e-05
5.71614e-05
5.38831e-05
5.08377e-05
4.79636e-05
4.51952e-05
4.24676e-05
3.97217e-05
3.69131e-05
3.40271e-05
3.11032e-05
2.82757e-05
2.58362e-05
2.43045e-05
0.000101334
9.87961e-05
9.42191e-05
8.9017e-05
8.38193e-05
7.88936e-05
7.4335e-05
7.01521e-05
6.63095e-05
6.27475e-05
5.93935e-05
5.61689e-05
5.29947e-05
4.9797e-05
4.65173e-05
4.31282e-05
3.96627e-05
3.62621e-05
3.32576e-05
3.12896e-05
0.00011755
0.000115542
0.000110696
0.000104963
9.91759e-05
9.36722e-05
8.85688e-05
8.38798e-05
7.95682e-05
7.557e-05
7.18059e-05
6.8188e-05
6.46255e-05
6.10306e-05
5.73298e-05
5.34816e-05
4.95087e-05
4.55555e-05
4.19886e-05
3.95632e-05
0.000132757
0.000131552
0.000126652
0.000120642
0.000114522
0.000108672
0.000103218
9.81806e-05
9.35276e-05
8.9198e-05
8.51126e-05
8.11796e-05
7.73005e-05
7.33764e-05
6.93188e-05
6.50702e-05
6.06395e-05
5.6169e-05
5.20558e-05
4.91694e-05
0.000146972
0.000146523
0.000141734
0.000135768
0.000129651
0.000123739
0.000118163
0.000112958
0.000108107
0.000103563
9.92536e-05
9.50909e-05
9.09734e-05
8.67941e-05
8.24517e-05
7.78714e-05
7.30441e-05
6.81024e-05
6.34644e-05
6.01139e-05
0.000160713
0.000160254
0.00015579
0.000150285
0.000144539
0.000138857
0.000133385
0.000128187
0.00012328
0.000118636
0.0001142
0.000109893
0.000105615
0.000101255
9.67022e-05
9.18647e-05
8.67121e-05
8.13564e-05
7.62143e-05
7.23533e-05
2.36948e-76
2.35449e-76
2.33053e-76
2.30399e-76
2.28027e-76
2.26394e-76
2.25863e-76
2.26699e-76
2.29075e-76
2.33076e-76
2.38695e-76
2.45835e-76
2.54309e-76
2.63829e-76
2.74008e-76
2.84346e-76
2.94229e-76
3.02932e-76
3.09634e-76
3.13447e-76
1.76083e-75
1.7471e-75
1.72702e-75
1.70534e-75
1.68613e-75
1.67279e-75
1.668e-75
1.67372e-75
1.69121e-75
1.72109e-75
1.7633e-75
1.81715e-75
1.88124e-75
1.95348e-75
2.03102e-75
2.11016e-75
2.18635e-75
2.25416e-75
2.30739e-75
2.33937e-75
1.05897e-74
1.04868e-74
1.03477e-74
1.0202e-74
1.00744e-74
9.98498e-75
9.9497e-75
9.98018e-75
1.0084e-74
1.02647e-74
1.05222e-74
1.08522e-74