/*--------------------------------*- C++ -*----------------------------------*\
| =========                 |                                                 |
| \\      /  F ield         | OpenFOAM: The Open Source CFD Toolbox           |
|  \\    /   O peration     | Version:  2.1.0                                 |
|   \\  /    A nd           | Web:      www.OpenFOAM.org                      |
|    \\/     M anipulation  |                                                 |
\*---------------------------------------------------------------------------*/
FoamFile
{
    version     2.0;
    format      ascii;
    class       volScalarField;
    location    "0.15";
    object      k;
}
// * * * * * * * * * * * * * * * * * * * * * * * * * * * * * * * * * * * * * //

dimensions      [0 2 -2 0 0 0 0];

internalField   nonuniform List<scalar> 
6400
(
0.0271035
0.0274251
0.0275437
0.0277513
0.0278513
0.028027
0.0281112
0.0282564
0.0283226
0.028428
0.0284745
0.0285467
0.0285774
0.0286237
0.0286421
0.0286686
0.0286776
0.0286865
0.0286859
0.0286852
0.0286751
0.0286671
0.0286476
0.0286327
0.0286058
0.0285839
0.028551
0.0285226
0.0284846
0.02845
0.0284072
0.0283669
0.0283195
0.0282739
0.0282222
0.028171
0.0281149
0.0280578
0.0279965
0.0279323
0.0278638
0.0277911
0.0277137
0.0276301
0.0275411
0.0274448
0.0273417
0.02723
0.0271098
0.0269797
0.0268392
0.0266858
0.0265177
0.0263368
0.0261496
0.0259513
0.0257445
0.0255276
0.0253009
0.0250664
0.0248212
0.0245668
0.0243016
0.0240256
0.0237395
0.0234405
0.0231255
0.0227987
0.0224525
0.0220932
0.0217128
0.0213178
0.020902
0.0204702
0.0200203
0.0195552
0.0190765
0.0185865
0.018088
0.0175814
0.0170654
0.0165292
0.0159574
0.0153826
0.0147852
0.014161
0.0134964
0.0127689
0.0119541
0.0110134
0.00990277
0.00854677
0.00686904
0.00484575
0.00264981
0.00167152
0.00209612
0.004191
0.00616813
0.00679788
0.0466091
0.0473079
0.0475794
0.0480518
0.0482862
0.0487174
0.0489326
0.049317
0.0495009
0.0498215
0.0499813
0.0502707
0.0504214
0.0506912
0.0508412
0.0510982
0.0512518
0.0514987
0.0516569
0.051895
0.0520605
0.0522919
0.0524659
0.0526925
0.0528751
0.0530981
0.0532906
0.0535129
0.0537145
0.0539377
0.0541478
0.0543748
0.0545934
0.0548254
0.0550531
0.0552915
0.0555288
0.055775
0.0560232
0.0562773
0.0565335
0.0567928
0.0570532
0.0573128
0.0575734
0.0578296
0.0580827
0.0583275
0.0585648
0.0587927
0.0590146
0.0592234
0.0594144
0.059589
0.0597629
0.0599215
0.0600722
0.0602054
0.0603205
0.0604239
0.0605113
0.0605818
0.0606347
0.0606612
0.0606714
0.0606656
0.0606156
0.0605415
0.060419
0.0602584
0.0600397
0.0597691
0.0594282
0.0590207
0.0585321
0.0579626
0.0573033
0.0565528
0.0557078
0.0547683
0.0537391
0.0526186
0.0513871
0.0499952
0.0484452
0.0466874
0.0446974
0.0424192
0.0398229
0.03687
0.0335587
0.0298862
0.0259082
0.0218092
0.0176837
0.0137704
0.0107172
0.00856681
0.00718638
0.00596429
0.0514679
0.0523939
0.0527728
0.0534311
0.0537907
0.0543859
0.0547251
0.0552649
0.0555828
0.056071
0.0563694
0.0568148
0.0570995
0.0575118
0.0577887
0.0581759
0.0584482
0.0588157
0.0590869
0.0594382
0.0597112
0.0600499
0.0603263
0.0606549
0.0609333
0.0612531
0.0615377
0.0618524
0.0621411
0.0624517
0.0627454
0.063055
0.0633523
0.0636606
0.0639593
0.0642655
0.0645648
0.064867
0.0651646
0.065461
0.0657553
0.0660465
0.0663321
0.0666114
0.066884
0.0671426
0.0673895
0.0676155
0.0678148
0.0679807
0.068129
0.068261
0.0683752
0.0684702
0.068548
0.0686021
0.0686354
0.0686494
0.0686521
0.06861
0.0685439
0.068437
0.068297
0.0681147
0.0678922
0.0676222
0.0673035
0.0669341
0.0665051
0.0660162
0.0654548
0.0648206
0.0640976
0.0632856
0.0623679
0.0613429
0.0601976
0.0589291
0.0575303
0.0559987
0.0543326
0.0525305
0.0505981
0.0485551
0.0463963
0.0441318
0.0417542
0.0392635
0.036641
0.0338643
0.0308948
0.0277113
0.0242827
0.020633
0.0168283
0.0131166
0.0100102
0.00752657
0.00567272
0.00387794
0.0553358
0.0564041
0.0568366
0.0576014
0.0580313
0.0587237
0.0591366
0.0597627
0.0601525
0.060719
0.0610845
0.0615998
0.061945
0.0624184
0.0627472
0.0631844
0.0634955
0.0639025
0.0642039
0.064585
0.0648792
0.0652372
0.065527
0.0658677
0.0661519
0.0664746
0.0667546
0.0670601
0.0673295
0.0676176
0.0678781
0.0681479
0.0683959
0.0686467
0.0688773
0.0691045
0.0693163
0.0695169
0.0697041
0.0698757
0.0700311
0.0701696
0.0702863
0.0703854
0.0704615
0.0705082
0.0705295
0.0705345
0.070502
0.0704419
0.0703508
0.0702257
0.0700661
0.0698657
0.0696261
0.0693375
0.0690034
0.0686107
0.0681636
0.0676531
0.0670817
0.0664402
0.0657288
0.0649429
0.064079
0.063136
0.0621117
0.0610053
0.0598172
0.0585479
0.0571982
0.0557714
0.0542675
0.0526923
0.0510462
0.0493355
0.047561
0.0457281
0.0438372
0.0418906
0.0398908
0.0378421
0.0357513
0.0336205
0.0314462
0.0292308
0.0269838
0.0247388
0.0224951
0.0202333
0.017988
0.0158023
0.0136541
0.0115377
0.00949213
0.00760226
0.00584048
0.00438903
0.00339916
0.00294657
0.0564978
0.0575439
0.0579675
0.0587325
0.0591474
0.0598348
0.0602253
0.0608388
0.0611987
0.0617437
0.0620716
0.062554
0.0628536
0.0632822
0.0635568
0.0639352
0.0641857
0.064519
0.0647494
0.0650421
0.0652502
0.0654992
0.0656845
0.0659005
0.066055
0.0662324
0.0663638
0.0665011
0.0665964
0.0666957
0.0667562
0.0668044
0.066825
0.0668308
0.066808
0.0667522
0.0666762
0.0665593
0.0664194
0.0662381
0.0660245
0.0657718
0.0654772
0.065145
0.0647656
0.0643422
0.0638747
0.0633566
0.0627919
0.062177
0.0615119
0.0607967
0.0600307
0.0592124
0.058344
0.0574224
0.0564519
0.0554319
0.0543653
0.0532494
0.0520897
0.0508835
0.0496361
0.0483472
0.0470189
0.0456546
0.0442542
0.0428231
0.041362
0.0398741
0.038361
0.0368219
0.0352551
0.0336683
0.032065
0.0304546
0.0288335
0.0272079
0.0255742
0.0239471
0.0223372
0.0207625
0.0192161
0.017692
0.0161895
0.014751
0.0134062
0.0121469
0.0108995
0.00966774
0.00858946
0.00765964
0.00670495
0.00575816
0.00490554
0.00421741
0.00356
0.00316634
0.00299462
0.00297211
0.0535092
0.0543493
0.054685
0.0552912
0.0556
0.056127
0.0563957
0.0568406
0.0570642
0.0574285
0.0576091
0.0578897
0.0580278
0.0582347
0.0583339
0.0584651
0.0585253
0.0585802
0.0585989
0.0586038
0.0585776
0.058511
0.0584235
0.0583146
0.0581588
0.0579891
0.0577816
0.0575436
0.0572697
0.0569723
0.0566298
0.0562641
0.055862
0.0554286
0.0549559
0.0544531
0.0539125
0.0533349
0.0527243
0.0520756
0.0513927
0.0506745
0.0499212
0.0491363
0.0483155
0.0474657
0.046584
0.0456719
0.0447338
0.0437669
0.0427759
0.0417612
0.0407242
0.0396651
0.0385825
0.0374782
0.0363553
0.0352155
0.0340637
0.0328984
0.0317249
0.030541
0.0293522
0.0281567
0.0269592
0.0257602
0.0245626
0.0233686
0.0221791
0.0209971
0.0198235
0.018677
0.0175816
0.0165223
0.0155104
0.0145345
0.0136002
0.0127065
0.0118573
0.0110584
0.0103039
0.00959732
0.0089228
0.00829579
0.00770396
0.00716857
0.00665833
0.00619082
0.00573092
0.00532235
0.00492824
0.0045752
0.00421104
0.0038992
0.00359697
0.00336383
0.00317986
0.00310108
0.0030862
0.00317509
0.0452698
0.0457206
0.0458908
0.0461686
0.046299
0.0464824
0.046565
0.0466448
0.0466701
0.0466781
0.0466551
0.0465807
0.046458
0.0463314
0.0461536
0.04595
0.0457047
0.0454478
0.0451456
0.0448236
0.0444669
0.0440888
0.0436799
0.0432512
0.0427915
0.042311
0.0417986
0.041261
0.0406975
0.0401118
0.0394941
0.0388592
0.0381969
0.0375128
0.0368043
0.0360792
0.0353284
0.0345616
0.0337755
0.0329731
0.032154
0.0313245
0.0304806
0.0296284
0.028765
0.0278964
0.0270194
0.0261392
0.025256
0.0243704
0.0234858
0.0226018
0.0217205
0.0208488
0.0200009
0.0191677
0.0183599
0.0175661
0.016796
0.0160438
0.0153158
0.0146088
0.0139267
0.0132681
0.0126348
0.0120258
0.0114418
0.0108845
0.010351
0.00984647
0.00936503
0.00891513
0.00848951
0.00809303
0.00771715
0.00736741
0.00703572
0.00672835
0.00643755
0.00617075
0.00591573
0.00568136
0.00545531
0.00524745
0.00504648
0.00486018
0.00467702
0.00450625
0.00433669
0.00418017
0.00402456
0.00388261
0.00374579
0.00362914
0.00352867
0.00347232
0.0034472
0.00346706
0.00362809
0.00371423
0.033183
0.0332279
0.0332282
0.0332109
0.0331396
0.0330326
0.0328921
0.0327359
0.0325273
0.0322969
0.0320306
0.0317377
0.0314047
0.0310584
0.0306768
0.0302711
0.0298356
0.0293884
0.0289056
0.0284079
0.0278847
0.0273491
0.0267841
0.0262091
0.0256094
0.025015
0.0244009
0.0237937
0.0231759
0.0225628
0.0219432
0.0213314
0.0207133
0.020105
0.0194974
0.0189015
0.0183087
0.0177301
0.0171609
0.0166038
0.0160597
0.01553
0.0150116
0.0145111
0.0140236
0.0135538
0.0130996
0.012663
0.0122439
0.0118417
0.0114584
0.0110922
0.0107444
0.0104149
0.0101066
0.00981451
0.00954268
0.00928564
0.00904652
0.00882136
0.00861242
0.00841613
0.00823466
0.008065
0.00790821
0.00776383
0.00763108
0.00750964
0.00739757
0.00729642
0.00720248
0.00711862
0.00703994
0.00696951
0.00690245
0.00684196
0.00678347
0.00672973
0.006677
0.00662749
0.00657758
0.00652904
0.00647836
0.00642667
0.00637043
0.00630816
0.00623806
0.00615803
0.00606752
0.00596489
0.00585173
0.00572918
0.00560391
0.00548173
0.0053832
0.00533685
0.00532644
0.00544483
0.00566058
0.00578526
0.0201357
0.0198795
0.0197593
0.0195019
0.0193128
0.0190381
0.0187806
0.0184917
0.0181862
0.0178643
0.01753
0.0171846
0.0168242
0.0164619
0.0160872
0.0157118
0.0153279
0.0149491
0.0145634
0.0141832
0.0138018
0.0134294
0.0130546
0.0126924
0.0123338
0.011991
0.0116533
0.0113356
0.0110231
0.0107283
0.0104428
0.0101755
0.00991555
0.00967532
0.00944415
0.00923058
0.00902728
0.00884116
0.00866639
0.00850587
0.00835838
0.00822477
0.00810158
0.00799407
0.00789567
0.00781179
0.00773784
0.00767643
0.00762539
0.00758534
0.00755578
0.00753776
0.0075295
0.0075273
0.00753686
0.00755548
0.00758253
0.00761848
0.00766208
0.00771468
0.0077743
0.00784277
0.00791788
0.00800181
0.00809192
0.00819078
0.00829564
0.0084093
0.00852894
0.00865763
0.00879227
0.00893623
0.0090868
0.00924701
0.00941435
0.00959168
0.0097767
0.00997183
0.010175
0.010387
0.0106066
0.0108339
0.0110672
0.0113059
0.0115479
0.0117928
0.0120367
0.0122754
0.0125024
0.0127146
0.0129062
0.0130745
0.0132175
0.013338
0.0134434
0.0135628
0.0137647
0.0141365
0.0146217
0.0149886
0.0110678
0.0107569
0.0106244
0.0103548
0.0102021
0.00993771
0.00976381
0.00951085
0.00932834
0.009085
0.00889919
0.0086742
0.00848631
0.00828331
0.00809949
0.00791691
0.00774504
0.0075811
0.00742554
0.00727982
0.0071428
0.00701662
0.00689773
0.00679093
0.00669243
0.00660363
0.00652356
0.0064544
0.00639129
0.00633905
0.0062939
0.00625804
0.00622849
0.00620893
0.00619662
0.00619138
0.00619031
0.00619985
0.00621365
0.00623634
0.00626349
0.00629911
0.00633862
0.0063869
0.00643865
0.00649899
0.00656291
0.00663496
0.00671087
0.00679444
0.00688231
0.00697746
0.00707735
0.00718413
0.00729655
0.00741524
0.00754025
0.00767147
0.0078096
0.00795409
0.00810598
0.0082646
0.00843117
0.00860507
0.00878761
0.00897847
0.00917836
0.00938794
0.00960733
0.00983764
0.0100789
0.0103324
0.0105984
0.010878
0.0111721
0.0114818
0.0118081
0.0121525
0.012516
0.0129004
0.0133069
0.0137374
0.0141935
0.0146771
0.0151902
0.0157349
0.0163135
0.0169311
0.0175926
0.0183038
0.0190729
0.0199064
0.0208146
0.0218073
0.022897
0.024091
0.0253769
0.0266864
0.0275879
0.0279459
0.0118185
0.0115297
0.0114061
0.0111544
0.0110014
0.0107511
0.0105783
0.0103285
0.0101423
0.00989923
0.00970444
0.00947194
0.00927009
0.00905582
0.00885343
0.0086522
0.00846028
0.00827337
0.00809306
0.00792243
0.00775826
0.00760347
0.00745628
0.00731967
0.00719053
0.00707112
0.00696098
0.00686071
0.00676774
0.00668661
0.00661256
0.0065483
0.0064926
0.00644595
0.00640615
0.00637625
0.00635302
0.0063394
0.00633297
0.00633127
0.00633866
0.00635294
0.00637425
0.00640227
0.00643682
0.00647798
0.0065256
0.00657925
0.00663942
0.00670548
0.00677775
0.00685568
0.0069403
0.00702985
0.00712673
0.00722827
0.00733721
0.00745077
0.00757162
0.00769734
0.00783035
0.00796894
0.00811479
0.0082667
0.00842602
0.00859213
0.00876572
0.00894687
0.0091358
0.00933281
0.00953823
0.00975212
0.00997515
0.0102073
0.0104494
0.0107014
0.0109643
0.0112382
0.0115241
0.0118221
0.0121334
0.0124584
0.0127983
0.0131541
0.0135274
0.0139199
0.0143343
0.0147735
0.015241
0.0157392
0.0162709
0.0168479
0.0174766
0.0181719
0.0189486
0.0198327
0.0208495
0.0219982
0.023011
0.023475
0.0215979
0.0214124
0.0213202
0.0211479
0.0209802
0.0207851
0.0205686
0.0203264
0.0200642
0.0197876
0.0194903
0.0191728
0.0188408
0.0185009
0.0181387
0.017772
0.0173943
0.0170105
0.0166143
0.0162224
0.0158195
0.0154192
0.0150146
0.0146166
0.014214
0.0138187
0.0134252
0.01304
0.0126565
0.0122875
0.0119262
0.0115781
0.0112429
0.0109216
0.0106117
0.010318
0.0100365
0.00977107
0.009517
0.00928081
0.00905548
0.00884672
0.00865026
0.00846968
0.00830018
0.00814668
0.00800435
0.00787633
0.00775918
0.00765647
0.00756281
0.00748263
0.00741207
0.00735238
0.00730291
0.00726267
0.00723181
0.00720943
0.00719734
0.00719196
0.00719094
0.00720045
0.00721408
0.00723528
0.00726049
0.00729181
0.0073266
0.00736575
0.0074068
0.0074505
0.00749506
0.00754065
0.00758575
0.00763033
0.00767312
0.00771362
0.00775106
0.00778452
0.00781365
0.00783738
0.00785585
0.00786706
0.00787227
0.00787368
0.00786794
0.00785702
0.00784308
0.0078271
0.0078124
0.0078015
0.00779659
0.00779508
0.00780957
0.00784469
0.00791235
0.00803392
0.00824709
0.0085876
0.00906914
0.00940077
0.0345058
0.0346779
0.0347309
0.0347806
0.0347928
0.0347943
0.0347542
0.0346702
0.0345475
0.0344175
0.0342367
0.0340317
0.0337931
0.0335333
0.0332275
0.0329058
0.0325545
0.0321781
0.0317656
0.031342
0.0308841
0.030406
0.0298995
0.0293797
0.0288269
0.0282615
0.0276698
0.0270637
0.0264313
0.0257874
0.0251334
0.0244738
0.0238088
0.0231429
0.0224743
0.0218079
0.0211405
0.020479
0.0198164
0.0191646
0.0185173
0.0178809
0.0172529
0.0166404
0.0160348
0.015446
0.0148688
0.0143092
0.0137626
0.0132371
0.0127254
0.0122352
0.0117623
0.0113101
0.0108772
0.0104677
0.0100801
0.00971384
0.00936801
0.00904169
0.00873375
0.00844334
0.00816986
0.00791111
0.00766694
0.00743597
0.00721564
0.0070092
0.00681364
0.00663042
0.00645551
0.00629186
0.00613337
0.00598476
0.00583991
0.00570284
0.00556852
0.00544026
0.00531383
0.00519174
0.0050723
0.00495566
0.00484329
0.00473274
0.00462707
0.00452302
0.00442613
0.00433219
0.0042484
0.00416844
0.00410012
0.00403785
0.00398796
0.00395075
0.00393481
0.00393305
0.00401199
0.00414653
0.00435811
0.00445298
0.0461407
0.0467177
0.0469403
0.047327
0.0475157
0.0478172
0.0479609
0.0481668
0.048262
0.0483751
0.0484209
0.0484425
0.0484438
0.0484147
0.0483199
0.0482139
0.048073
0.0479062
0.0476887
0.0474638
0.0471939
0.0469022
0.0465742
0.0462268
0.0458402
0.0454354
0.044998
0.0445375
0.04405
0.04354
0.0429964
0.0424331
0.0418348
0.0412133
0.0405637
0.039889
0.0391847
0.0384597
0.0377059
0.0369293
0.0361282
0.0353057
0.034458
0.033592
0.0327069
0.0318037
0.0308854
0.0299515
0.0290049
0.0280458
0.027077
0.0260991
0.0251136
0.0241227
0.0231274
0.0221449
0.0211846
0.0202437
0.0193275
0.0184379
0.0175737
0.0167343
0.0159218
0.0151387
0.0143837
0.013662
0.0129678
0.0123081
0.0116731
0.0110749
0.0105012
0.00996547
0.00945404
0.00898136
0.00852838
0.00811037
0.00770976
0.00734032
0.00698694
0.0066569
0.00634073
0.0060412
0.0057581
0.0054911
0.00524097
0.00499647
0.00476376
0.00453482
0.00432918
0.00413151
0.00395209
0.00376504
0.00361104
0.00345977
0.00333873
0.00324024
0.00319661
0.00318784
0.00331786
0.00340707
0.0536852
0.0546255
0.0550026
0.0556872
0.0560422
0.0566475
0.0569653
0.0574888
0.0577658
0.0582109
0.0584462
0.0588166
0.0590128
0.0593089
0.0594561
0.0596839
0.0597959
0.0599543
0.0600295
0.0601195
0.0601589
0.0601797
0.0601835
0.060162
0.0600941
0.0600185
0.0599057
0.0597636
0.0595951
0.0593985
0.0591613
0.0589034
0.0586062
0.0582766
0.0579113
0.0575137
0.0570772
0.0566097
0.0561033
0.0555622
0.0549815
0.0543663
0.0537103
0.0530175
0.0522878
0.0515184
0.0507146
0.0498714
0.0489959
0.0480837
0.0471396
0.0461644
0.0451582
0.044124
0.0430637
0.0419728
0.0408542
0.0397066
0.0385342
0.0373371
0.0361196
0.0348871
0.0336396
0.0323806
0.0311115
0.0298357
0.0285539
0.0272694
0.0259814
0.0246948
0.0234094
0.0221322
0.0208785
0.0196935
0.0185362
0.0174406
0.0163715
0.015351
0.0143702
0.0134437
0.0125578
0.0116989
0.0108609
0.0100564
0.00932587
0.00865435
0.00800993
0.00732068
0.00665257
0.00611243
0.00569167
0.00513452
0.00456215
0.00410658
0.00376313
0.00340026
0.00314303
0.00302704
0.0029971
0.00304661
0.0561435
0.057265
0.0577188
0.0585379
0.058981
0.0597185
0.0601365
0.0607969
0.0611856
0.0617759
0.062134
0.0626602
0.0629884
0.0634554
0.0637545
0.0641703
0.0644474
0.0648184
0.0650735
0.0654026
0.0656387
0.0659297
0.0661482
0.0664023
0.0665964
0.0668189
0.0669933
0.067178
0.0673283
0.0674827
0.0676
0.0677173
0.0678063
0.0678847
0.0679352
0.0679653
0.0679762
0.0679754
0.0679311
0.0678731
0.0677772
0.0676567
0.0675008
0.0673097
0.0670846
0.0668158
0.0665113
0.0661579
0.065763
0.0653191
0.0648255
0.0642825
0.0636877
0.0630387
0.0623377
0.0615809
0.0607702
0.0599044
0.0589832
0.0580071
0.0569771
0.055896
0.0547646
0.0535854
0.0523587
0.0510894
0.049776
0.0484251
0.0470338
0.0456107
0.0441534
0.0426689
0.0411511
0.0395975
0.0380164
0.0364127
0.03479
0.0331361
0.0314405
0.0297233
0.0280326
0.0263773
0.0246858
0.0228448
0.0208975
0.0190764
0.0176274
0.0162423
0.0141408
0.0120711
0.0110617
0.0101519
0.00839793
0.00654487
0.0056632
0.00493233
0.00383144
0.00326887
0.00299665
0.00292315
0.0546702
0.0558029
0.0562603
0.0570668
0.0575131
0.0582403
0.0586665
0.0593219
0.0597235
0.0603147
0.0606907
0.0612255
0.0615783
0.0620646
0.0623984
0.0628453
0.0631653
0.0635793
0.0638852
0.0642697
0.0645649
0.0649265
0.0652151
0.0655556
0.0658389
0.066163
0.0664429
0.0667501
0.0670268
0.0673237
0.0675952
0.0678812
0.0681487
0.0684226
0.0686801
0.0689407
0.0691895
0.069436
0.0696696
0.0699001
0.0701174
0.0703277
0.0705259
0.0707114
0.0708859
0.0710416
0.0711857
0.0713077
0.0714122
0.0714952
0.0715538
0.0715824
0.0715923
0.0715766
0.0715229
0.0714426
0.0713214
0.0711638
0.0709595
0.0707085
0.0704035
0.0700395
0.0696106
0.0691191
0.0685551
0.0679204
0.0672034
0.0664084
0.0655254
0.0645579
0.0635
0.0623551
0.0611205
0.0597981
0.0583896
0.0568986
0.0553302
0.0536859
0.0519618
0.0501536
0.0482643
0.046307
0.0442871
0.0421755
0.0399313
0.0375549
0.0351195
0.032637
0.0299929
0.0270671
0.024119
0.0212217
0.0181627
0.0150825
0.0122005
0.00948873
0.00711659
0.00514402
0.00373444
0.00307737
0.0506489
0.051625
0.0520228
0.0527129
0.0530842
0.0537048
0.054051
0.0546102
0.0549324
0.0554343
0.0557339
0.0561863
0.0564681
0.0568806
0.0571504
0.0575326
0.0577963
0.0581553
0.0584154
0.0587554
0.0590151
0.0593405
0.059602
0.0599163
0.0601821
0.0604887
0.0607599
0.0610604
0.0613373
0.061636
0.0619173
0.0622132
0.0624998
0.062799
0.0630913
0.0633926
0.0636907
0.063995
0.0642984
0.064606
0.064914
0.0652241
0.0655352
0.0658457
0.066159
0.0664701
0.0667839
0.0670942
0.067402
0.0677037
0.0679968
0.0682757
0.0685372
0.0687696
0.0689811
0.0691869
0.0693735
0.0695472
0.0697023
0.069841
0.0699653
0.0700758
0.0701735
0.0702363
0.0702665
0.0702758
0.0702449
0.0701712
0.0700543
0.0698888
0.0696696
0.0693917
0.0690437
0.0686145
0.0680977
0.0674735
0.0667357
0.0658613
0.0648426
0.0636549
0.0622897
0.0607253
0.05896
0.0569758
0.0547736
0.0523313
0.0496608
0.0467555
0.0436412
0.0402578
0.0365915
0.0325976
0.0283001
0.0237042
0.0191059
0.0148961
0.0113096
0.00863604
0.00658115
0.00437914
0.0457229
0.0464577
0.0467432
0.0472374
0.0474818
0.0479277
0.0481493
0.0485456
0.0487349
0.0490569
0.0492155
0.0495007
0.0496456
0.0499069
0.0500461
0.0502909
0.0504314
0.0506641
0.0508071
0.0510293
0.0511772
0.0513907
0.0515452
0.0517516
0.0519145
0.0521163
0.0522876
0.0524869
0.0526663
0.0528667
0.0530542
0.0532572
0.0534525
0.0536609
0.0538653
0.0540802
0.0542947
0.0545175
0.0547431
0.0549754
0.0552131
0.0554568
0.0557076
0.0559648
0.0562295
0.0564973
0.0567712
0.057048
0.0573279
0.057609
0.0578913
0.0581719
0.0584512
0.0587291
0.0590106
0.0592953
0.0595795
0.059862
0.0601375
0.0603981
0.060637
0.0608662
0.0610761
0.0612874
0.0614823
0.0616708
0.0618407
0.0619956
0.0621284
0.0622374
0.0623032
0.0623314
0.0623346
0.0622492
0.0621128
0.0618776
0.061557
0.0611142
0.0605516
0.0598381
0.0589708
0.0579218
0.0566883
0.0552474
0.0536013
0.0516997
0.0495374
0.0470377
0.044096
0.0406784
0.0366903
0.0322688
0.0275789
0.0228208
0.0184045
0.0144688
0.0114539
0.00929388
0.00794818
0.00661082
0.0265198
0.0268533
0.0269769
0.0271952
0.0273004
0.027486
0.0275749
0.0277294
0.0278003
0.0279122
0.0279613
0.0280364
0.0280681
0.0281142
0.0281319
0.028156
0.028163
0.0281686
0.0281655
0.0281625
0.0281484
0.0281374
0.0281138
0.0280955
0.0280648
0.0280396
0.0280035
0.027972
0.0279311
0.0278941
0.0278492
0.0278073
0.0277587
0.0277124
0.0276609
0.0276106
0.0275567
0.0275029
0.0274466
0.0273895
0.027331
0.0272709
0.0272095
0.0271457
0.0270804
0.0270121
0.026941
0.0268666
0.0267887
0.0267067
0.0266209
0.0265307
0.0264362
0.0263372
0.0262338
0.0261245
0.0260073
0.0258803
0.0257415
0.0255865
0.0254154
0.0252373
0.0250465
0.024853
0.0246477
0.0244353
0.0242123
0.0239794
0.023734
0.0234753
0.0231998
0.0229107
0.0226032
0.0222677
0.0219156
0.0215292
0.0211206
0.0206744
0.0201994
0.0196839
0.0191341
0.0185415
0.0179099
0.017233
0.0165087
0.0157184
0.0148469
0.0138236
0.0126298
0.0112015
0.00943879
0.00737505
0.00537224
0.00359669
0.00237229
0.00177448
0.00205163
0.00424826
0.00664232
0.00743864
0.00629596
0.00178537
0.00163944
0.00161842
0.00158138
0.00147732
0.00143564
0.00142699
0.00142564
0.00142897
0.0014297
0.00136439
0.00132602
0.0013275
0.00143873
0.00188249
0.00299685
0.00454064
0.00501277
0.0037809
0.00437664
0.00187471
0.00178221
0.00175822
0.00159988
0.0015241
0.00150254
0.00149962
0.00150032
0.00149232
0.00144915
0.00139293
0.00138024
0.00142407
0.0016509
0.00225336
0.0035213
0.00464045
0.00479966
0.00323177
0.00310127
0.00205761
0.0019638
0.00177899
0.00166016
0.00162518
0.0016156
0.0016003
0.00158048
0.00154142
0.00148266
0.0014553
0.00147391
0.00159846
0.00197271
0.00278537
0.00408206
0.00461844
0.0045368
0.00266054
0.00278078
0.00217943
0.00204686
0.00186002
0.001798
0.00176369
0.00172236
0.00169466
0.0016579
0.00161218
0.00157498
0.00158529
0.00167353
0.00193269
0.00251866
0.00355927
0.00437888
0.00456139
0.00415165
0.00210158
0.002792
0.00231426
0.00218829
0.00203673
0.00198491
0.00191663
0.00188682
0.00185492
0.00182109
0.001801
0.00180442
0.00190025
0.00212435
0.00262166
0.0034269
0.00418272
0.0044491
0.0044421
0.00361036
0.00157943
0.00286649
0.00253928
0.00243436
0.00231248
0.00226997
0.00223164
0.00222355
0.00222107
0.00224836
0.0023275
0.00243865
0.00269164
0.00312744
0.00371472
0.00422662
0.00444765
0.00448659
0.00419618
0.00289679
0.00112309
0.00324587
0.00311854
0.00306181
0.00303222
0.00306403
0.00313338
0.0032482
0.00340988
0.00362773
0.00372748
0.00389072
0.00417192
0.00439616
0.00465347
0.0047492
0.00473589
0.00439687
0.00371938
0.00206894
0.000742091
0.00550248
0.00561184
0.00577499
0.00592212
0.00612954
0.00622233
0.00617102
0.0060714
0.00592617
0.00583137
0.00578373
0.00575349
0.00564652
0.00554555
0.00518186
0.00475718
0.00410653
0.00297183
0.00129318
0.000449943
0.0146153
0.0144532
0.0141327
0.013273
0.0124876
0.0115478
0.0108617
0.0100929
0.00952923
0.00888265
0.00836507
0.00772239
0.00711968
0.00634754
0.00544963
0.00456611
0.00339805
0.00199444
0.00078484
0.000250127
0.0251003
0.0231614
0.0218772
0.0195593
0.018424
0.0164864
0.0155356
0.0138904
0.0130743
0.0115649
0.0107725
0.00922955
0.00830501
0.00653717
0.00529664
0.00346586
0.00221191
0.00106183
0.000406499
0.000113214
0.021853
0.0201398
0.0192984
0.0173352
0.0164157
0.0148716
0.0141087
0.0128347
0.0121981
0.0110611
0.0104163
0.00926123
0.00841743
0.00709906
0.00594202
0.00428957
0.00273891
0.00131348
0.000430948
0.000106555
0.00938889
0.00961252
0.0097241
0.00973166
0.00935266
0.00918556
0.00872288
0.00850841
0.00818612
0.00803786
0.00776946
0.00763483
0.00717612
0.006848
0.0060438
0.00525174
0.0042074
0.0024735
0.000860986
0.000225983
0.00408701
0.0040819
0.00414881
0.00425174
0.00443891
0.00467478
0.00495008
0.00506971
0.00517157
0.00525554
0.00541128
0.00567349
0.00579583
0.00585462
0.00582608
0.00537495
0.0048573
0.00365632
0.00152041
0.000459779
0.00293944
0.00279204
0.00271839
0.00265553
0.00264459
0.00265044
0.00272987
0.00283871
0.00304696
0.00333108
0.00346916
0.00402434
0.00448096
0.00500745
0.00524569
0.00532248
0.00509317
0.00446077
0.00251412
0.000804374
0.00273329
0.00241378
0.00231044
0.00218915
0.00214557
0.00209456
0.00207716
0.0020666
0.00207589
0.00214764
0.00226216
0.00252588
0.00301118
0.00383402
0.00467146
0.00505966
0.00515181
0.00491304
0.00349211
0.00124359
0.00269444
0.00224118
0.00211962
0.00197542
0.00192846
0.00186496
0.00183691
0.00179759
0.00176249
0.00174354
0.00175221
0.00185411
0.0021047
0.00263965
0.00360474
0.00468921
0.00510172
0.00513133
0.00426774
0.00175834
0.00272296
0.00211659
0.0019948
0.00181478
0.00174572
0.00171587
0.00168686
0.00167324
0.00163177
0.00158895
0.00155951
0.00157435
0.00167838
0.00200714
0.00270493
0.00391568
0.00498399
0.00522883
0.00482961
0.00234072
0.00323759
0.00199591
0.00190101
0.00174794
0.00163461
0.00159385
0.00157818
0.00157072
0.00156727
0.00152617
0.00147643
0.00145446
0.00147825
0.00162267
0.00205949
0.00306757
0.00462213
0.00526937
0.00521523
0.00296019
0.00485309
0.00186328
0.00174513
0.00171688
0.00158141
0.00150968
0.00148585
0.00147899
0.00147786
0.00148141
0.00144225
0.00139554
0.00138663
0.001444
0.00172067
0.00243568
0.00397356
0.005282
0.0054542
0.00358663
0.00696715
0.00180425
0.00161144
0.00158774
0.00156029
0.00146623
0.00142778
0.0014169
0.00141487
0.00141433
0.00141958
0.00136362
0.00133443
0.00134043
0.00147969
0.00202281
0.003358
0.00515502
0.00566218
0.00418533
0.00397166
0.0037502
0.00374679
0.0037468
0.00374652
0.00374628
0.00374612
0.00374604
0.003746
0.00374598
0.00374598
0.003746
0.00374604
0.00374612
0.00374628
0.00374652
0.0037468
0.00374679
0.0037502
0.00397166
0.00441417
0.00375346
0.0037414
0.00374095
0.00374056
0.00374012
0.00373987
0.00373975
0.00373969
0.00373966
0.00373966
0.00373969
0.00373975
0.00373987
0.00374012
0.00374056
0.00374095
0.0037414
0.00375346
0.00441416
0.00485866
0.00376057
0.00373288
0.00373265
0.00373285
0.00373274
0.00373256
0.00373243
0.00373235
0.00373231
0.00373231
0.00373235
0.00373243
0.00373256
0.00373274
0.00373285
0.00373265
0.00373288
0.00376057
0.00485866
0.00530316
0.00377212
0.00372431
0.00372396
0.00372492
0.00372524
0.00372525
0.00372519
0.00372514
0.00372512
0.00372512
0.00372514
0.00372519
0.00372525
0.00372524
0.00372492
0.00372396
0.00372431
0.00377212
0.00530316
0.00574031
0.00378538
0.00371546
0.0037148
0.00371664
0.00371757
0.00371789
0.00371795
0.00371795
0.00371795
0.00371795
0.00371795
0.00371795
0.00371789
0.00371757
0.00371664
0.0037148
0.00371546
0.00378538
0.00574032
0.00616898
0.00379767
0.00370579
0.00370511
0.003708
0.00370969
0.00371043
0.0037107
0.00371078
0.0037108
0.0037108
0.00371078
0.0037107
0.00371043
0.00370969
0.003708
0.00370511
0.00370579
0.00379767
0.00616897
0.00659048
0.00380868
0.0036951
0.0036948
0.00369896
0.00370156
0.00370285
0.0037034
0.00370361
0.00370368
0.00370368
0.00370361
0.0037034
0.00370285
0.00370156
0.00369896
0.0036948
0.0036951
0.00380868
0.00659049
0.00700225
0.00381665
0.00368268
0.00368361
0.00368941
0.00369311
0.00369508
0.00369602
0.00369642
0.00369656
0.00369656
0.00369642
0.00369602
0.00369508
0.00369311
0.00368941
0.0036836
0.00368268
0.00381664
0.00700224
0.00739483
0.00382304
0.003669
0.00367167
0.00367938
0.00368436
0.00368713
0.00368854
0.00368919
0.00368943
0.00368943
0.00368919
0.00368854
0.00368713
0.00368436
0.00367938
0.00367167
0.003669
0.00382304
0.00739484
0.0077666
0.00382743
0.00365407
0.00365903
0.00366892
0.00367531
0.00367898
0.00368094
0.0036819
0.00368228
0.00368228
0.0036819
0.00368094
0.00367898
0.00367531
0.00366892
0.00365903
0.00365407
0.00382743
0.00776659
0.00811911
0.00383045
0.00363779
0.00364559
0.00365797
0.00366594
0.00367062
0.00367321
0.00367453
0.00367507
0.00367507
0.00367453
0.00367321
0.00367062
0.00366594
0.00365797
0.00364559
0.00363779
0.00383045
0.00811913
0.00845058
0.00383071
0.00361995
0.00363125
0.00364647
0.00365621
0.00366201
0.00366532
0.00366705
0.00366779
0.00366779
0.00366705
0.00366532
0.00366201
0.00365621
0.00364647
0.00363125
0.00361994
0.00383071
0.00845057
0.00875655
0.00383014
0.00360083
0.0036161
0.00363444
0.00364612
0.00365316
0.00365725
0.00365945
0.00366041
0.00366041
0.00365945
0.00365725
0.00365316
0.00364612
0.00363444
0.0036161
0.00360083
0.00383014
0.00875657
0.00903513
0.00382868
0.00358072
0.00360025
0.00362195
0.00363571
0.00364407
0.003649
0.00365172
0.00365292
0.00365292
0.00365172
0.003649
0.00364407
0.00363571
0.00362195
0.00360025
0.00358072
0.00382868
0.00903513
0.00928816
0.00382639
0.00355981
0.00358379
0.00360904
0.00362499
0.00363475
0.00364058
0.00364385
0.00364531
0.00364531
0.00364385
0.00364058
0.00363475
0.00362499
0.00360904
0.00358379
0.00355981
0.00382639
0.00928817
0.00951741
0.00382357
0.00353805
0.0035667
0.00359568
0.00361396
0.00362519
0.00363198
0.00363582
0.00363755
0.00363755
0.00363582
0.00363198
0.00362519
0.00361396
0.00359568
0.0035667
0.00353805
0.00382356
0.00951742
0.00971979
0.00382038
0.00351546
0.00354893
0.00358185
0.00360258
0.00361537
0.00362316
0.00362762
0.00362964
0.00362964
0.00362762
0.00362316
0.00361537
0.00360258
0.00358185
0.00354893
0.00351546
0.00382038
0.00971979
0.00989746
0.00381633
0.003492
0.00353048
0.00356755
0.00359085
0.00360528
0.00361413
0.00361923
0.00362156
0.00362156
0.00361923
0.00361413
0.00360528
0.00359085
0.00356755
0.00353048
0.003492
0.00381633
0.00989746
0.0100499
0.00381316
0.00346835
0.00351163
0.00355289
0.00357885
0.00359497
0.00360491
0.00361067
0.00361331
0.00361331
0.00361067
0.00360491
0.00359497
0.00357885
0.00355289
0.00351163
0.00346835
0.00381316
0.0100499
0.0101812
0.00381074
0.00344462
0.00349245
0.00353793
0.00356659
0.00358444
0.00359549
0.00360192
0.00360489
0.00360489
0.00360192
0.00359549
0.00358444
0.00356659
0.00353794
0.00349246
0.00344462
0.00381074
0.0101812
0.0102901
0.00380871
0.00342067
0.0034729
0.00352265
0.00355407
0.00357368
0.00358587
0.003593
0.00359629
0.00359629
0.003593
0.00358587
0.00357368
0.00355407
0.00352265
0.00347289
0.00342066
0.0038087