/*--------------------------------*- C++ -*----------------------------------*\
| =========                 |                                                 |
| \\      /  F ield         | OpenFOAM: The Open Source CFD Toolbox           |
|  \\    /   O peration     | Version:  2.1.0                                 |
|   \\  /    A nd           | Web:      www.OpenFOAM.org                      |
|    \\/     M anipulation  |                                                 |
\*---------------------------------------------------------------------------*/
FoamFile
{
    version     2.0;
    format      ascii;
    class       volScalarField;
    location    "0.15";
    object      nut;
}
// * * * * * * * * * * * * * * * * * * * * * * * * * * * * * * * * * * * * * //

dimensions      [0 2 -1 0 0 0 0];

internalField   nonuniform List<scalar> 
6400
(
6.37798e-06
6.46091e-06
6.49542e-06
6.55503e-06
6.59057e-06
6.64545e-06
6.67949e-06
6.72918e-06
6.7607e-06
6.80258e-06
6.83111e-06
6.86674e-06
6.89311e-06
6.92416e-06
6.9492e-06
6.97712e-06
7.00153e-06
7.02684e-06
7.05063e-06
7.07529e-06
7.09843e-06
7.12305e-06
7.14564e-06
7.17029e-06
7.19283e-06
7.21757e-06
7.24047e-06
7.26549e-06
7.28904e-06
7.3145e-06
7.33884e-06
7.36495e-06
7.3903e-06
7.41725e-06
7.44381e-06
7.47174e-06
7.4996e-06
7.52856e-06
7.55779e-06
7.58768e-06
7.61793e-06
7.64859e-06
7.67963e-06
7.71068e-06
7.74205e-06
7.77327e-06
7.80454e-06
7.83545e-06
7.86605e-06
7.89598e-06
7.92508e-06
7.95265e-06
7.97808e-06
8.0019e-06
8.02606e-06
8.04911e-06
8.07177e-06
8.09363e-06
8.11471e-06
8.13568e-06
8.15565e-06
8.17507e-06
8.19339e-06
8.21058e-06
8.22695e-06
8.24144e-06
8.25294e-06
8.2629e-06
8.26844e-06
8.27177e-06
8.26978e-06
8.26477e-06
8.25421e-06
8.23989e-06
8.22082e-06
8.19822e-06
8.17272e-06
8.14554e-06
8.11832e-06
8.09202e-06
8.06706e-06
8.03962e-06
8.00347e-06
7.97671e-06
7.95225e-06
7.93098e-06
7.90834e-06
7.87317e-06
7.80912e-06
7.68199e-06
7.43666e-06
6.96112e-06
6.08201e-06
4.61291e-06
2.62106e-06
1.62347e-06
1.83462e-06
2.91341e-06
2.83122e-06
3.02438e-06
6.66646e-05
6.81525e-05
6.86575e-05
6.95986e-05
7.01735e-05
7.10259e-05
7.15298e-05
7.22039e-05
7.23974e-05
7.27398e-05
7.28999e-05
7.31919e-05
7.3329e-05
7.35824e-05
7.3703e-05
7.39264e-05
7.40347e-05
7.42311e-05
7.43283e-05
7.44985e-05
7.45874e-05
7.47336e-05
7.48151e-05
7.49392e-05
7.50129e-05
7.51153e-05
7.51818e-05
7.52654e-05
7.53223e-05
7.53873e-05
7.54322e-05
7.54802e-05
7.55105e-05
7.55394e-05
7.55541e-05
7.55659e-05
7.55652e-05
7.55589e-05
7.55425e-05
7.55169e-05
7.54797e-05
7.54289e-05
7.53634e-05
7.52789e-05
7.51781e-05
7.50527e-05
7.49049e-05
7.47273e-05
7.45212e-05
7.42835e-05
7.40202e-05
7.37227e-05
7.3321e-05
7.27085e-05
7.20663e-05
7.13797e-05
7.06597e-05
6.98961e-05
6.90899e-05
6.82491e-05
6.73704e-05
6.64533e-05
6.54982e-05
6.44966e-05
6.34605e-05
6.23913e-05
6.12612e-05
6.00931e-05
5.88652e-05
5.75906e-05
5.62535e-05
5.48639e-05
5.34098e-05
5.19003e-05
5.03286e-05
4.87013e-05
4.70178e-05
4.52839e-05
4.35036e-05
4.16837e-05
3.98338e-05
3.79583e-05
3.60483e-05
3.40766e-05
3.20541e-05
2.99588e-05
2.7789e-05
2.55274e-05
2.31792e-05
2.07508e-05
1.82783e-05
1.58033e-05
1.34008e-05
1.11734e-05
9.11331e-06
7.23342e-06
5.73281e-06
4.64777e-06
4.02262e-06
4.80928e-06
0.000102916
0.000104124
0.000104585
0.000105309
0.000105665
0.000106257
0.000106527
0.000107005
0.000107199
0.000107577
0.00010771
0.000107995
0.00010807
0.000108271
0.000108293
0.000108419
0.00010839
0.000108447
0.000108373
0.000108365
0.000108251
0.000108184
0.000108031
0.000107909
0.000107715
0.000107539
0.00010731
0.000107085
0.000106818
0.000106547
0.000106244
0.000105931
0.000105591
0.000105237
0.000104853
0.000104449
0.000104016
0.000103556
0.000103067
0.000102544
0.000101999
0.000101423
0.000100819
0.000100179
9.95063e-05
9.87876e-05
9.80296e-05
9.72185e-05
9.63493e-05
9.5192e-05
9.37993e-05
9.23673e-05
9.09012e-05
8.94037e-05
8.78769e-05
8.63157e-05
8.4727e-05
8.31152e-05
8.14925e-05
7.9821e-05
7.81294e-05
7.64012e-05
7.46491e-05
7.28664e-05
7.10594e-05
6.92248e-05
6.73662e-05
6.54855e-05
6.35794e-05
6.16524e-05
5.96976e-05
5.77202e-05
5.57126e-05
5.36819e-05
5.16206e-05
4.9535e-05
4.74221e-05
4.52874e-05
4.31335e-05
4.09663e-05
3.87927e-05
3.66199e-05
3.44602e-05
3.23348e-05
3.02477e-05
2.82138e-05
2.62365e-05
2.4324e-05
2.24735e-05
2.06728e-05
1.89061e-05
1.72015e-05
1.54642e-05
1.37075e-05
1.18616e-05
1.00138e-05
8.24612e-06
6.6905e-06
5.88523e-06
7.0445e-06
0.000120019
0.000121913
0.000122302
0.000122875
0.000123143
0.000123566
0.000123717
0.000124002
0.000124041
0.000124199
0.000124134
0.000124174
0.000124016
0.000123948
0.000123704
0.000123533
0.000123087
0.000122672
0.000122015
0.000121474
0.000120734
0.000120079
0.000119267
0.000118518
0.000117634
0.000116792
0.000115847
0.000114922
0.000113909
0.000112907
0.000111836
0.000110761
0.000109631
0.000108489
0.0001073
0.00010609
0.000104845
0.000103571
0.000102269
0.000100936
9.95745e-05
9.81852e-05
9.67637e-05
9.53192e-05
9.38459e-05
9.23394e-05
9.08077e-05
8.92658e-05
8.76892e-05
8.60966e-05
8.44862e-05
8.28562e-05
8.12102e-05
7.95448e-05
7.78634e-05
7.61586e-05
7.4438e-05
7.26913e-05
7.09278e-05
6.91432e-05
6.73444e-05
6.55274e-05
6.36969e-05
6.18531e-05
5.99978e-05
5.81353e-05
5.62682e-05
5.44003e-05
5.25367e-05
5.06819e-05
4.884e-05
4.70147e-05
4.52094e-05
4.34308e-05
4.16809e-05
3.99666e-05
3.82887e-05
3.66515e-05
3.50532e-05
3.34934e-05
3.19695e-05
3.04721e-05
2.90067e-05
2.75806e-05
2.61442e-05
2.47259e-05
2.32904e-05
2.18615e-05
2.04124e-05
1.8945e-05
1.74515e-05
1.59456e-05
1.44099e-05
1.28412e-05
1.12331e-05
9.67515e-06
8.29936e-06
7.49928e-06
6.89247e-06
6.51445e-06
0.000116723
0.000118172
0.000118556
0.000119346
0.000119229
0.00011957
0.000119231
0.000119294
0.000118808
0.000118654
0.000118049
0.000117712
0.000117005
0.000116515
0.000115717
0.000115084
0.000114205
0.000113447
0.000112497
0.000111629
0.000110608
0.000109634
0.000108547
0.000107496
0.000106337
0.000105204
0.000103996
0.000102791
0.000101522
0.00010026
9.89435e-05
9.76156e-05
9.62573e-05
9.48895e-05
9.34961e-05
9.20744e-05
9.06453e-05
8.91846e-05
8.77192e-05
8.62289e-05
8.47286e-05
8.32137e-05
8.16838e-05
8.01484e-05
7.85988e-05
7.70434e-05
7.54848e-05
7.3919e-05
7.23539e-05
7.0788e-05
6.92224e-05
6.76574e-05
6.60927e-05
6.4526e-05
6.29631e-05
6.14011e-05
5.98463e-05
5.82999e-05
5.67669e-05
5.52462e-05
5.37443e-05
5.22596e-05
5.07972e-05
4.93564e-05
4.79388e-05
4.65467e-05
4.51786e-05
4.38369e-05
4.25197e-05
4.12222e-05
3.99488e-05
3.87006e-05
3.74465e-05
3.62167e-05
3.49822e-05
3.37638e-05
3.25354e-05
3.13083e-05
3.0062e-05
2.8808e-05
2.7542e-05
2.62751e-05
2.49947e-05
2.36984e-05
2.23815e-05
2.10701e-05
1.97782e-05
1.83836e-05
1.69572e-05
1.54969e-05
1.42202e-05
1.31334e-05
1.19528e-05
1.07296e-05
9.6191e-06
8.75685e-06
7.87143e-06
7.42916e-06
7.30039e-06
7.38177e-06
0.000105703
0.000106483
0.000106596
0.000106912
0.000106534
0.00010646
0.000105868
0.000105552
0.000104827
0.000104328
0.00010351
0.000102852
0.000101956
0.000101175
0.000100223
9.93259e-05
9.83274e-05
9.73275e-05
9.62867e-05
9.52343e-05
9.41533e-05
9.30239e-05
9.18861e-05
9.07391e-05
8.95407e-05
8.83467e-05
8.71206e-05
8.58747e-05
8.46037e-05
8.3328e-05
8.20187e-05
8.07117e-05
7.93882e-05
7.80605e-05
7.67177e-05
7.53774e-05
7.40282e-05
7.26769e-05
7.13275e-05
6.9978e-05
6.86328e-05
6.72933e-05
6.59601e-05
6.46388e-05
6.33242e-05
6.20257e-05
6.07389e-05
5.94658e-05
5.82103e-05
5.69681e-05
5.57434e-05
5.45359e-05
5.33448e-05
5.21653e-05
5.09947e-05
4.98372e-05
4.86996e-05
4.75666e-05
4.64543e-05
4.5346e-05
4.4252e-05
4.31596e-05
4.20756e-05
4.09894e-05
3.99049e-05
3.88171e-05
3.77269e-05
3.66316e-05
3.55303e-05
3.44215e-05
3.31829e-05
3.1628e-05
3.01498e-05
2.87163e-05
2.73487e-05
2.60195e-05
2.47418e-05
2.3507e-05
2.23246e-05
2.11993e-05
2.01219e-05
1.9097e-05
1.80968e-05
1.71514e-05
1.62368e-05
1.53956e-05
1.45673e-05
1.37965e-05
1.30109e-05
1.231e-05
1.16076e-05
1.09762e-05
1.02997e-05
9.73113e-06
9.16547e-06
8.75192e-06
8.42104e-06
8.28369e-06
8.26719e-06
8.51588e-06
9.22372e-05
9.238e-05
9.22894e-05
9.21633e-05
9.16827e-05
9.12392e-05
9.05989e-05
8.995e-05
8.92112e-05
8.84597e-05
8.76712e-05
8.68196e-05
8.59024e-05
8.50158e-05
8.406e-05
8.31019e-05
8.20929e-05
8.11108e-05
8.00739e-05
7.90519e-05
7.79969e-05
7.69556e-05
7.5891e-05
7.48455e-05
7.37707e-05
7.2715e-05
7.1643e-05
7.05803e-05
6.95106e-05
6.84535e-05
6.73814e-05
6.63314e-05
6.52737e-05
6.42283e-05
6.31779e-05
6.2143e-05
6.10989e-05
6.00646e-05
5.90279e-05
5.79994e-05
5.69706e-05
5.5942e-05
5.49156e-05
5.38875e-05
5.28596e-05
5.1829e-05
5.07964e-05
4.9758e-05
4.87186e-05
4.76697e-05
4.66191e-05
4.55599e-05
4.44129e-05
4.29716e-05
4.15784e-05
4.02111e-05
3.88909e-05
3.7595e-05
3.63368e-05
3.51055e-05
3.3909e-05
3.27409e-05
3.16056e-05
3.05008e-05
2.94269e-05
2.83828e-05
2.73664e-05
2.63827e-05
2.54231e-05
2.45014e-05
2.3602e-05
2.27467e-05
2.19165e-05
2.11299e-05
2.03635e-05
1.96368e-05
1.89289e-05
1.82594e-05
1.76094e-05
1.7001e-05
1.64032e-05
1.58427e-05
1.52888e-05
1.47692e-05
1.42562e-05
1.37713e-05
1.3288e-05
1.28309e-05
1.2374e-05
1.19474e-05
1.15223e-05
1.11309e-05
1.07502e-05
1.04198e-05
1.01277e-05
9.92576e-06
9.8057e-06
9.74983e-06
1.01447e-05
1.03788e-05
7.96932e-05
7.93031e-05
7.91494e-05
7.88479e-05
7.83618e-05
7.78391e-05
7.7211e-05
7.66336e-05
7.59246e-05
7.52671e-05
7.45196e-05
7.38156e-05
7.30188e-05
7.22865e-05
7.14725e-05
7.06986e-05
6.98553e-05
6.90624e-05
6.82021e-05
6.73665e-05
6.64965e-05
6.56298e-05
6.47418e-05
6.38478e-05
6.24943e-05
6.11312e-05
5.97663e-05
5.84263e-05
5.71007e-05
5.57943e-05
5.45043e-05
5.32492e-05
5.20024e-05
5.07957e-05
4.96081e-05
4.84588e-05
4.73323e-05
4.62414e-05
4.51854e-05
4.41547e-05
4.31631e-05
4.22001e-05
4.12631e-05
4.03637e-05
3.94874e-05
3.86453e-05
3.78291e-05
3.70427e-05
3.62838e-05
3.55502e-05
3.48439e-05
3.41611e-05
3.35026e-05
3.28678e-05
3.22624e-05
3.16743e-05
3.11138e-05
3.05663e-05
3.00398e-05
2.95244e-05
2.90266e-05
2.85368e-05
2.80628e-05
2.75964e-05
2.71426e-05
2.67001e-05
2.62684e-05
2.58583e-05
2.54568e-05
2.50632e-05
2.46819e-05
2.43099e-05
2.39458e-05
2.35889e-05
2.32369e-05
2.28901e-05
2.25462e-05
2.22049e-05
2.18654e-05
2.15271e-05
2.11889e-05
2.0849e-05
2.05059e-05
2.01566e-05
1.97989e-05
1.94236e-05
1.90331e-05
1.86169e-05
1.81801e-05
1.7714e-05
1.72282e-05
1.67214e-05
1.62145e-05
1.57174e-05
1.52858e-05
1.49808e-05
1.47577e-05
1.48563e-05
1.53261e-05
1.56346e-05
6.39132e-05
6.26418e-05
6.20996e-05
6.10329e-05
6.0326e-05
5.9316e-05
5.84514e-05
5.75091e-05
5.65517e-05
5.55647e-05
5.46203e-05
5.36303e-05
5.26633e-05
5.16928e-05
5.0733e-05
4.97736e-05
4.88423e-05
4.7908e-05
4.70123e-05
4.6113e-05
4.52532e-05
4.44086e-05
4.35862e-05
4.27921e-05
4.20324e-05
4.13014e-05
4.06055e-05
3.99512e-05
3.93234e-05
3.87314e-05
3.8174e-05
3.76526e-05
3.71526e-05
3.66972e-05
3.62605e-05
3.58592e-05
3.54793e-05
3.51308e-05
3.48062e-05
3.45012e-05
3.42239e-05
3.39641e-05
3.37205e-05
3.35021e-05
3.32921e-05
3.31049e-05
3.29278e-05
3.27665e-05
3.26125e-05
3.24706e-05
3.23524e-05
3.22444e-05
3.21433e-05
3.20401e-05
3.19556e-05
3.18844e-05
3.18188e-05
3.17677e-05
3.17205e-05
3.16892e-05
3.16604e-05
3.16476e-05
3.16366e-05
3.16414e-05
3.16467e-05
3.1667e-05
3.16875e-05
3.1723e-05
3.17581e-05
3.1808e-05
3.18575e-05
3.19207e-05
3.19861e-05
3.20643e-05
3.21455e-05
3.22385e-05
3.23354e-05
3.2441e-05
3.25491e-05
3.26614e-05
3.27734e-05
3.28852e-05
3.29918e-05
3.3092e-05
3.31811e-05
3.32576e-05
3.33146e-05
3.33425e-05
3.33304e-05
3.32735e-05
3.31636e-05
3.29984e-05
3.27781e-05
3.25107e-05
3.22137e-05
3.19403e-05
3.18112e-05
3.19822e-05
3.24048e-05
3.22904e-05
4.79117e-05
4.67341e-05
4.62738e-05
4.52852e-05
4.48208e-05
4.38659e-05
4.33534e-05
4.24783e-05
4.19459e-05
4.11312e-05
4.05979e-05
3.98694e-05
3.93256e-05
3.86954e-05
3.81587e-05
3.7609e-05
3.71126e-05
3.66254e-05
3.61825e-05
3.57551e-05
3.5367e-05
3.50015e-05
3.46652e-05
3.4355e-05
3.40784e-05
3.38149e-05
3.35866e-05
3.33768e-05
3.3187e-05
3.30182e-05
3.28724e-05
3.27386e-05
3.2615e-05
3.25232e-05
3.2452e-05
3.23786e-05
3.23182e-05
3.22768e-05
3.22466e-05
3.22305e-05
3.22236e-05
3.22318e-05
3.22454e-05
3.22769e-05
3.23105e-05
3.23632e-05
3.24169e-05
3.24887e-05
3.25619e-05
3.26517e-05
3.27439e-05
3.28508e-05
3.29607e-05
3.30836e-05
3.32126e-05
3.33511e-05
3.34979e-05
3.36521e-05
3.38162e-05
3.39865e-05
3.41671e-05
3.43537e-05
3.45506e-05
3.47541e-05
3.4968e-05
3.51902e-05
3.54215e-05
3.56633e-05
3.5914e-05
3.61763e-05
3.64479e-05
3.67313e-05
3.70257e-05
3.7332e-05
3.7651e-05
3.79828e-05
3.83292e-05
3.86907e-05
3.90692e-05
3.94631e-05
3.98753e-05
4.03043e-05
4.07525e-05
4.12187e-05
4.17046e-05
4.22091e-05
4.27336e-05
4.32821e-05
4.38596e-05
4.44689e-05
4.51182e-05
4.58085e-05
4.65481e-05
4.73392e-05
4.81886e-05
4.90913e-05
5.00199e-05
5.08912e-05
5.12534e-05
5.13246e-05
4.90968e-05
4.79005e-05
4.74658e-05
4.64965e-05
4.59808e-05
4.50622e-05
4.45215e-05
4.36393e-05
4.30784e-05
4.22619e-05
4.1689e-05
4.09407e-05
4.03564e-05
3.97029e-05
3.91228e-05
3.85324e-05
3.79979e-05
3.74655e-05
3.69741e-05
3.65035e-05
3.60648e-05
3.56482e-05
3.52629e-05
3.48996e-05
3.457e-05
3.42525e-05
3.39734e-05
3.37088e-05
3.3468e-05
3.32502e-05
3.30543e-05
3.28714e-05
3.27158e-05
3.25703e-05
3.24416e-05
3.23259e-05
3.22236e-05
3.21561e-05
3.20799e-05
3.20177e-05
3.19619e-05
3.19316e-05
3.18998e-05
3.18903e-05
3.18816e-05
3.18915e-05
3.19051e-05
3.19331e-05
3.19674e-05
3.20133e-05
3.20669e-05
3.21292e-05
3.22023e-05
3.22803e-05
3.23721e-05
3.24651e-05
3.2574e-05
3.26819e-05
3.28053e-05
3.29273e-05
3.30635e-05
3.32004e-05
3.33493e-05
3.34999e-05
3.36608e-05
3.38249e-05
3.39971e-05
3.41735e-05
3.43569e-05
3.45444e-05
3.47397e-05
3.49378e-05
3.51433e-05
3.53507e-05
3.55657e-05
3.57822e-05
3.60065e-05
3.62326e-05
3.64663e-05
3.67023e-05
3.69458e-05
3.71924e-05
3.74471e-05
3.7707e-05
3.79765e-05
3.82556e-05
3.85492e-05
3.88594e-05
3.91918e-05
3.95465e-05
3.99261e-05
4.03435e-05
4.08059e-05
4.13279e-05
4.19249e-05
4.2622e-05
4.34421e-05
4.43776e-05
4.51403e-05
4.54635e-05
6.72052e-05
6.60254e-05
6.55148e-05
6.45821e-05
6.38781e-05
6.29714e-05
6.21701e-05
6.12255e-05
6.03402e-05
5.93931e-05
5.8455e-05
5.74817e-05
5.64869e-05
5.55154e-05
5.45226e-05
5.35176e-05
5.25467e-05
5.15485e-05
5.0572e-05
4.96051e-05
4.86488e-05
4.77013e-05
4.67789e-05
4.58663e-05
4.49817e-05
4.4102e-05
4.32588e-05
4.24288e-05
4.16239e-05
4.08495e-05
4.01088e-05
3.93911e-05
3.87179e-05
3.8069e-05
3.74515e-05
3.68681e-05
3.63125e-05
3.57876e-05
3.52855e-05
3.48179e-05
3.43689e-05
3.39491e-05
3.35513e-05
3.31771e-05
3.28203e-05
3.24867e-05
3.2168e-05
3.1868e-05
3.15802e-05
3.13124e-05
3.10504e-05
3.08062e-05
3.05631e-05
3.03367e-05
3.0135e-05
2.99194e-05
2.97318e-05
2.95368e-05
2.93734e-05
2.92009e-05
2.90363e-05
2.88828e-05
2.87368e-05
2.85943e-05
2.84595e-05
2.8326e-05
2.81992e-05
2.807e-05
2.79426e-05
2.78081e-05
2.7672e-05
2.75254e-05
2.7374e-05
2.72093e-05
2.70369e-05
2.68477e-05
2.66482e-05
2.64291e-05
2.61976e-05
2.59449e-05
2.56787e-05
2.53885e-05
2.50845e-05
2.47722e-05
2.44446e-05
2.4106e-05
2.37653e-05
2.3423e-05
2.30899e-05
2.27704e-05
2.24702e-05
2.21822e-05
2.19356e-05
2.17393e-05
2.16127e-05
2.15987e-05
2.17702e-05
2.2201e-05
2.3005e-05
2.36296e-05
8.0889e-05
8.07142e-05
8.06144e-05
8.03847e-05
7.99912e-05
7.95993e-05
7.90828e-05
7.8545e-05
7.79078e-05
7.73372e-05
7.66495e-05
7.60051e-05
7.52778e-05
7.45981e-05
7.38218e-05
7.30972e-05
7.23086e-05
7.15508e-05
7.07213e-05
6.99416e-05
6.90956e-05
6.82785e-05
6.74066e-05
6.65657e-05
6.56727e-05
6.47865e-05
6.38775e-05
6.29715e-05
6.20208e-05
6.07256e-05
5.92954e-05
5.78677e-05
5.64617e-05
5.50714e-05
5.36986e-05
5.23496e-05
5.10187e-05
4.97203e-05
4.8436e-05
4.71903e-05
4.59669e-05
4.47735e-05
4.36092e-05
4.24787e-05
4.13678e-05
4.02921e-05
3.92388e-05
3.82199e-05
3.72201e-05
3.62605e-05
3.53164e-05
3.44088e-05
3.3523e-05
3.26667e-05
3.18358e-05
3.10368e-05
3.0265e-05
2.95174e-05
2.87949e-05
2.80933e-05
2.74131e-05
2.67486e-05
2.61038e-05
2.54679e-05
2.48475e-05
2.42347e-05
2.36293e-05
2.30381e-05
2.246e-05
2.18967e-05
2.13387e-05
2.08046e-05
2.02761e-05
1.97574e-05
1.92498e-05
1.87515e-05
1.82633e-05
1.77842e-05
1.73142e-05
1.68526e-05
1.64043e-05
1.59626e-05
1.55399e-05
1.51185e-05
1.47163e-05
1.43171e-05
1.39431e-05
1.35762e-05
1.32416e-05
1.29164e-05
1.26263e-05
1.23507e-05
1.21076e-05
1.19024e-05
1.17487e-05
1.16223e-05
1.17041e-05
1.19295e-05
1.24563e-05
1.27254e-05
9.37617e-05
9.41174e-05
9.41197e-05
9.41831e-05
9.37903e-05
9.35364e-05
9.29753e-05
9.25072e-05
9.18468e-05
9.12236e-05
9.04951e-05
8.97402e-05
8.89676e-05
8.81663e-05
8.72691e-05
8.63823e-05
8.54565e-05
8.45205e-05
8.35206e-05
8.25475e-05
8.15214e-05
8.05032e-05
7.9449e-05
7.84089e-05
7.7334e-05
7.62745e-05
7.51942e-05
7.41239e-05
7.3046e-05
7.19733e-05
7.08859e-05
6.98169e-05
6.87329e-05
6.76601e-05
6.65825e-05
6.55122e-05
6.44374e-05
6.33774e-05
6.23131e-05
6.1257e-05
6.01992e-05
5.91475e-05
5.80868e-05
5.70311e-05
5.59832e-05
5.49232e-05
5.38681e-05
5.28034e-05
5.17383e-05
5.0663e-05
4.95832e-05
4.84926e-05
4.73923e-05
4.62804e-05
4.4957e-05
4.3351e-05
4.17947e-05
4.02798e-05
3.8812e-05
3.73899e-05
3.60107e-05
3.46718e-05
3.33729e-05
3.21185e-05
3.09012e-05
2.97328e-05
2.85962e-05
2.75087e-05
2.64446e-05
2.54332e-05
2.44421e-05
2.35055e-05
2.25874e-05
2.17247e-05
2.08748e-05
2.00761e-05
1.92907e-05
1.85544e-05
1.78311e-05
1.7142e-05
1.64676e-05
1.58185e-05
1.51958e-05
1.46003e-05
1.40345e-05
1.34735e-05
1.29389e-05
1.24116e-05
1.19401e-05
1.14807e-05
1.10668e-05
1.06349e-05
1.02876e-05
9.93308e-06
9.65813e-06
9.41064e-06
9.29781e-06
9.2232e-06
9.55295e-06
9.81203e-06
0.000106996
0.000107989
0.000108211
0.000108721
0.000108468
0.000108584
0.000108114
0.000107975
0.000107369
0.000107037
0.000106326
0.000105833
0.000105039
0.000104404
0.000103516
0.00010276
0.000101817
0.00010095
9.99554e-05
9.89919e-05
9.79597e-05
9.6906e-05
9.58421e-05
9.47522e-05
9.36093e-05
9.24733e-05
9.13035e-05
9.01137e-05
8.89128e-05
8.76947e-05
8.64452e-05
8.51943e-05
8.39151e-05
8.26211e-05
8.13089e-05
7.99875e-05
7.8649e-05
7.73084e-05
7.59566e-05
7.46024e-05
7.32411e-05
7.18822e-05
7.05191e-05
6.91598e-05
6.78049e-05
6.64534e-05
6.51121e-05
6.37768e-05
6.2456e-05
6.11453e-05
5.985e-05
5.85707e-05
5.73063e-05
5.60599e-05
5.483e-05
5.36093e-05
5.24033e-05
5.12066e-05
5.00156e-05
4.88348e-05
4.7672e-05
4.65111e-05
4.53697e-05
4.42288e-05
4.31003e-05
4.19694e-05
4.08438e-05
3.97127e-05
3.85802e-05
3.74392e-05
3.62932e-05
3.5028e-05
3.33356e-05
3.17515e-05
3.02027e-05
2.8746e-05
2.73186e-05
2.59573e-05
2.46405e-05
2.33913e-05
2.21809e-05
2.09941e-05
1.98248e-05
1.86977e-05
1.76718e-05
1.67102e-05
1.57613e-05
1.47155e-05
1.37112e-05
1.29138e-05
1.23084e-05
1.14118e-05
1.04854e-05
9.76144e-06
9.25291e-06
8.65229e-06
8.27136e-06
8.13557e-06
8.13865e-06
8.34635e-06
0.00011735
0.000119007
0.00011951
0.000120495
0.000120516
0.000121054
0.000120856
0.000121108
0.000120764
0.000120791
0.000120326
0.000120162
0.000119587
0.000119252
0.000118571
0.000118085
0.000117318
0.0001167
0.000115848
0.000115109
0.000114191
0.000113342
0.000112358
0.000111414
0.000110358
0.000109335
0.000108225
0.00010712
0.000105954
0.000104788
0.000103559
0.000102328
0.000101055
9.97676e-05
9.84439e-05
9.70976e-05
9.57334e-05
9.43649e-05
9.29502e-05
9.15341e-05
9.00869e-05
8.863e-05
8.7152e-05
8.56575e-05
8.41511e-05
8.26243e-05
8.1091e-05
7.95386e-05
7.79801e-05
7.64102e-05
7.48325e-05
7.32508e-05
7.16657e-05
7.00785e-05
6.84926e-05
6.69005e-05
6.53071e-05
6.37109e-05
6.21142e-05
6.05204e-05
5.89329e-05
5.73567e-05
5.57952e-05
5.42517e-05
5.2728e-05
5.12281e-05
4.97516e-05
4.83032e-05
4.68801e-05
4.54874e-05
4.41221e-05
4.2787e-05
4.14713e-05
4.01732e-05
3.88881e-05
3.76259e-05
3.63889e-05
3.51361e-05
3.38876e-05
3.26232e-05
3.13836e-05
3.01488e-05
2.88884e-05
2.75356e-05
2.61158e-05
2.45956e-05
2.31346e-05
2.17653e-05
1.94272e-05
1.70869e-05
1.62091e-05
1.54793e-05
1.34315e-05
1.10772e-05
1.0228e-05
9.59248e-06
8.07942e-06
7.46645e-06
7.26369e-06
7.34084e-06
0.000119981
0.000122186
0.000122669
0.000123412
0.000123767
0.000124342
0.00012458
0.000125003
0.000125132
0.000125418
0.000125445
0.000125603
0.000125536
0.000125574
0.000125419
0.000125349
0.000125114
0.000124944
0.000124629
0.000124241
0.000123616
0.000123084
0.000122378
0.000121737
0.000120956
0.000120221
0.000119374
0.000118549
0.000117642
0.000116745
0.000115776
0.00011481
0.000113789
0.000112758
0.000111679
0.000110585
0.000109453
0.000108301
0.000107111
0.000105901
0.000104657
0.00010339
0.000102092
0.000100766
9.94159e-05
9.80315e-05
9.66255e-05
9.51855e-05
9.37202e-05
9.22269e-05
9.07044e-05
8.91493e-05
8.75782e-05
8.59867e-05
8.43649e-05
8.27254e-05
8.10587e-05
7.93751e-05
7.76681e-05
7.59422e-05
7.41949e-05
7.24244e-05
7.06282e-05
6.88134e-05
6.69752e-05
6.51204e-05
6.3244e-05
6.13552e-05
5.94503e-05
5.75381e-05
5.5619e-05
5.37007e-05
5.17829e-05
4.98729e-05
4.79745e-05
4.60958e-05
4.42445e-05
4.24257e-05
4.06405e-05
3.88885e-05
3.71747e-05
3.55066e-05
3.38869e-05
3.22986e-05
3.07181e-05
2.91232e-05
2.75752e-05
2.60488e-05
2.44672e-05
2.28143e-05
2.11055e-05
1.93354e-05
1.74263e-05
1.54544e-05
1.34289e-05
1.13895e-05
9.57159e-06
8.3398e-06
7.21603e-06
6.70859e-06
0.000102536
0.00010391
0.000104438
0.000105282
0.000105698
0.000106395
0.000106719
0.00010729
0.000107538
0.000107998
0.000108187
0.000108545
0.000108674
0.000108939
0.00010901
0.000109193
0.000109216
0.000109326
0.000109301
0.000109344
0.000109278
0.00010926
0.000109155
0.000109082
0.000108941
0.000108819
0.000108644
0.000108473
0.000108264
0.000108052
0.000107806
0.000107551
0.000107272
0.000106984
0.000106674
0.000106346
0.000105996
0.000105626
0.000105234
0.000104818
0.00010438
0.000103914
0.000103424
0.0001029
0.00010235
0.000101771
0.000101168
0.000100533
9.98696e-05
9.91698e-05
9.84281e-05
9.76382e-05
9.6797e-05
9.57588e-05
9.4386e-05
9.29776e-05
9.15221e-05
9.00328e-05
8.85055e-05
8.69458e-05
8.536e-05
8.37489e-05
8.21141e-05
8.04319e-05
7.87098e-05
7.69641e-05
7.51774e-05
7.33513e-05
7.14901e-05
6.95933e-05
6.76612e-05
6.5694e-05
6.36865e-05
6.16365e-05
5.95457e-05
5.74054e-05
5.52194e-05
5.29791e-05
5.06898e-05
4.8344e-05
4.59487e-05
4.35023e-05
4.10195e-05
3.85053e-05
3.59792e-05
3.34471e-05
3.09399e-05
2.84796e-05
2.61027e-05
2.3797e-05
2.15407e-05
1.93328e-05
1.71724e-05
1.49799e-05
1.28653e-05
1.08764e-05
9.03323e-06
7.50671e-06
6.60759e-06
7.52594e-06
6.5937e-05
6.7496e-05
6.80465e-05
6.90572e-05
6.96859e-05
7.06084e-05
7.1168e-05
7.19647e-05
7.2185e-05
7.25542e-05
7.27346e-05
7.30466e-05
7.32005e-05
7.34696e-05
7.36017e-05
7.38368e-05
7.39557e-05
7.41624e-05
7.42691e-05
7.44495e-05
7.45467e-05
7.47026e-05
7.47922e-05
7.49251e-05
7.5009e-05
7.51213e-05
7.51986e-05
7.5292e-05
7.5361e-05
7.54391e-05
7.54982e-05
7.55608e-05
7.5608e-05
7.56556e-05
7.56892e-05
7.57222e-05
7.57444e-05
7.57626e-05
7.57727e-05
7.57762e-05
7.57729e-05
7.57615e-05
7.57441e-05
7.57181e-05
7.56855e-05
7.56392e-05
7.55829e-05
7.55118e-05
7.54252e-05
7.53196e-05
7.51947e-05
7.50461e-05
7.48736e-05
7.46759e-05
7.44598e-05
7.42246e-05
7.39649e-05
7.36788e-05
7.33597e-05
7.29985e-05
7.24417e-05
7.17391e-05
7.09784e-05
7.01862e-05
6.93434e-05
6.84622e-05
6.75287e-05
6.65475e-05
6.55115e-05
6.44198e-05
6.32539e-05
6.20218e-05
6.07381e-05
5.93448e-05
5.78839e-05
5.63165e-05
5.46633e-05
5.29004e-05
5.10412e-05
4.90716e-05
4.70032e-05
4.48287e-05
4.25622e-05
4.02036e-05
3.77725e-05
3.52524e-05
3.26637e-05
2.99851e-05
2.71895e-05
2.43067e-05
2.13312e-05
1.83641e-05
1.54707e-05
1.26936e-05
1.02236e-05
8.07917e-06
6.42166e-06
5.21631e-06
4.49222e-06
4.8994e-06
6.3025e-06
6.38989e-06
6.42659e-06
6.48997e-06
6.52778e-06
6.5863e-06
6.62261e-06
6.67589e-06
6.70975e-06
6.75457e-06
6.78497e-06
6.82264e-06
6.85047e-06
6.88273e-06
6.90879e-06
6.93726e-06
6.96229e-06
6.98783e-06
7.01194e-06
7.03696e-06
7.05995e-06
7.08463e-06
7.1069e-06
7.13138e-06
7.15356e-06
7.17805e-06
7.2006e-06
7.22527e-06
7.24844e-06
7.27356e-06
7.29762e-06
7.32346e-06
7.34858e-06
7.37536e-06
7.40188e-06
7.42988e-06
7.45807e-06
7.48752e-06
7.5176e-06
7.54877e-06
7.58096e-06
7.61417e-06
7.64857e-06
7.68391e-06
7.72054e-06
7.7581e-06
7.79681e-06
7.83655e-06
7.87745e-06
7.91943e-06
7.96271e-06
8.00729e-06
8.05334e-06
8.10097e-06
8.15034e-06
8.20112e-06
8.25295e-06
8.30533e-06
8.35791e-06
8.40946e-06
8.46014e-06
8.51326e-06
8.56715e-06
8.62557e-06
8.68581e-06
8.74995e-06
8.81733e-06
8.88883e-06
8.96419e-06
9.04393e-06
9.12754e-06
9.21724e-06
9.31229e-06
9.40992e-06
9.51617e-06
9.62485e-06
9.74277e-06
9.86449e-06
9.9959e-06
1.01331e-05
1.02811e-05
1.04375e-05
1.06065e-05
1.07865e-05
1.09779e-05
1.11682e-05
1.13428e-05
1.14332e-05
1.13855e-05
1.10687e-05
1.02312e-05
8.72898e-06
6.80533e-06
4.70894e-06
3.07625e-06
2.14837e-06
2.11207e-06
3.26454e-06
3.17178e-06
3.3491e-06
8.41473e-06
8.41076e-07
1.08487e-06
1.49043e-06
1.9005e-06
2.19378e-06
2.5369e-06
2.92218e-06
3.31232e-06
3.69845e-06
4.03952e-06
4.11967e-06
4.19903e-06
4.3804e-06
5.18725e-06
7.09332e-06
9.55442e-06
1.04713e-05
8.79532e-06
4.00125e-06
3.75552e-06
1.07178e-06
1.11958e-06
1.3997e-06
1.62127e-06
1.90199e-06
2.2539e-06
2.63587e-06
3.03463e-06
3.42549e-06
3.66634e-06
3.84342e-06
4.11298e-06
4.75765e-06
6.25405e-06
8.53177e-06
1.0318e-05
1.03176e-05
8.56309e-06
4.07338e-06
3.4196e-06
1.55595e-06
1.59667e-06
1.57297e-06
1.71172e-06
1.96622e-06
2.2787e-06
2.62443e-06
3.00891e-06
3.43155e-06
3.62624e-06
3.93029e-06
4.59105e-06
5.80161e-06
7.89864e-06
9.89291e-06
1.10079e-05
9.94815e-06
8.3979e-06
4.11267e-06
3.8186e-06
2.18897e-06
2.20912e-06
2.01854e-06
2.16484e-06
2.29006e-06
2.56752e-06
2.9345e-06
3.43606e-06
4.10381e-06
4.19082e-06
5.00927e-06
6.09346e-06
8.01742e-06
1.01702e-05
1.11543e-05
1.11553e-05
9.85022e-06
8.14824e-06
4.05014e-06
4.47674e-06
3.07188e-06
3.07483e-06
2.76205e-06
3.02754e-06
3.01876e-06
3.39543e-06
3.90697e-06
4.72467e-06
5.47878e-06
6.35322e-06
7.62221e-06
9.32647e-06
1.10305e-05
1.16716e-05
1.18927e-05
1.09049e-05
9.80611e-06
7.65693e-06
3.30912e-06
5.40086e-06
4.29102e-06
4.26161e-06
3.8576e-06
4.21826e-06
4.4572e-06
5.15346e-06
6.25399e-06
7.8968e-06
9.85155e-06
1.12801e-05
1.27437e-05
1.26226e-05
1.27997e-05
1.27142e-05
1.19079e-05
1.10167e-05
9.83937e-06
6.8737e-06
2.56581e-06
6.98497e-06
6.27211e-06
6.28063e-06
6.18079e-06
7.00328e-06
8.21363e-06
1.02134e-05
1.31451e-05
1.66319e-05
1.57894e-05
1.51658e-05
1.48417e-05
1.4235e-05
1.38321e-05
1.3135e-05
1.2392e-05
1.11765e-05
9.63189e-06
5.70653e-06
1.84745e-06
1.09862e-05
1.15172e-05
1.21847e-05
1.38139e-05
1.65048e-05
2.01175e-05
2.05523e-05
1.98367e-05
1.89042e-05
1.80003e-05
1.73125e-05
1.6619e-05
1.58202e-05
1.51558e-05
1.39825e-05
1.27574e-05
1.13338e-05
9.03179e-06
4.35685e-06
1.21053e-06
2.61614e-05
2.88928e-05
3.03243e-05
3.15596e-05
3.0123e-05
2.84295e-05
2.70072e-05
2.54079e-05
2.41388e-05
2.2702e-05
2.15169e-05
2.00612e-05
1.87393e-05
1.70666e-05
1.50325e-05
1.32818e-05
1.05024e-05
7.60216e-06
3.39371e-06
7.15297e-07
4.64677e-05
4.51344e-05
4.32783e-05
4.01966e-05
3.85746e-05
3.5686e-05
3.42243e-05
3.1543e-05
3.02296e-05
2.75482e-05
2.62431e-05
2.32968e-05
2.17522e-05
1.81183e-05
1.49242e-05
1.01987e-05
7.56156e-06
5.30966e-06
2.30949e-06
3.39211e-07
4.22538e-05
4.10157e-05
3.98185e-05
3.69759e-05
3.55751e-05
3.3091e-05
3.18159e-05
2.95703e-05
2.84572e-05
2.63184e-05
2.5167e-05
2.2915e-05
2.13572e-05
1.8692e-05
1.66059e-05
1.18301e-05
8.73071e-06
6.09096e-06
2.33804e-06
3.20017e-07
1.90975e-05
2.15053e-05
2.2901e-05
2.58303e-05
2.52519e-05
2.49073e-05
2.36598e-05
2.28498e-05
2.17656e-05
2.10851e-05
2.01106e-05
1.95892e-05
1.83378e-05
1.7511e-05
1.56261e-05
1.40576e-05
1.18563e-05
8.57144e-06
3.48503e-06
6.51363e-07
9.35519e-06
9.22615e-06
9.46078e-06
1.02137e-05
1.20681e-05
1.47628e-05
1.89736e-05
1.88035e-05
1.81378e-05
1.74675e-05
1.68033e-05
1.66207e-05
1.59572e-05
1.53892e-05
1.48184e-05
1.34683e-05
1.23632e-05
1.01745e-05
4.75408e-06
1.23348e-06
6.60952e-06
5.78e-06
5.70287e-06
5.39576e-06
5.96387e-06
6.70473e-06
8.1885e-06
1.02261e-05
1.45599e-05
1.55415e-05
1.44096e-05
1.4802e-05
1.45854e-05
1.45246e-05
1.38531e-05
1.30398e-05
1.20469e-05
1.06936e-05
6.44885e-06
1.97248e-06
5.23736e-06
4.07449e-06
4.02294e-06
3.61358e-06
3.93203e-06
4.05941e-06
4.61235e-06
5.49632e-06
6.79754e-06
8.44713e-06
9.95661e-06
1.18633e-05
1.22995e-05
1.3017e-05
1.35306e-05
1.2826e-05
1.18052e-05
1.07532e-05
7.76757e-06
2.77271e-06
4.37614e-06
2.94846e-06
2.92686e-06
2.61053e-06
2.84549e-06
2.83697e-06
3.1763e-06
3.62526e-06
4.33625e-06
4.98638e-06
5.76163e-06
7.0821e-06
8.99624e-06
1.10038e-05
1.18697e-05
1.26581e-05
1.1713e-05
1.06064e-05
8.56457e-06
3.57422e-06
3.78608e-06
2.12139e-06
2.12864e-06
1.94943e-06
2.07878e-06
2.20135e-06
2.4622e-06
2.83072e-06
3.28677e-06
3.89598e-06
4.01139e-06
4.78287e-06
5.93945e-06
8.03952e-06
1.06253e-05
1.17238e-05
1.20136e-05
1.05819e-05
8.99421e-06
4.32482e-06
3.54372e-06
1.50813e-06
1.52587e-06
1.53616e-06
1.67753e-06
1.92548e-06
2.2187e-06
2.56254e-06
2.94971e-06
3.3299e-06
3.53122e-06
3.83259e-06
4.49705e-06
5.81726e-06
8.1152e-06
1.03771e-05
1.17597e-05
1.06678e-05
9.174e-06
4.28769e-06
4.18506e-06
1.06479e-06
1.096e-06
1.36779e-06
1.6065e-06
1.88922e-06
2.23089e-06
2.5988e-06
2.98201e-06
3.38014e-06
3.61814e-06
3.79541e-06
4.05368e-06
4.73096e-06
6.38158e-06
8.92267e-06
1.10041e-05
1.10593e-05
9.24759e-06
4.24457e-06
8.93465e-06
8.54013e-07
1.07087e-06
1.46666e-06
1.87863e-06
2.17852e-06
2.51948e-06
2.89037e-06
3.2661e-06
3.62644e-06
3.96249e-06
4.05388e-06
4.14013e-06
4.32937e-06
5.23544e-06
7.39403e-06
1.01436e-05
1.12084e-05
9.43569e-06
4.16769e-06
1.23436e-06
0.00011655
0.000294152
0.000330903
0.00033481
0.000335356
0.000335357
0.000335342
0.000335343
0.000335345
0.000335345
0.000335343
0.000335342
0.000335357
0.000335356
0.00033481
0.000330903
0.000294152
0.00011655
1.23436e-06
1.3695e-06
6.81764e-05
0.00021961
0.000309513
0.000330911
0.000334527
0.000335273
0.000335315
0.000335296
0.000335287
0.000335287
0.000335296
0.000335315
0.000335273
0.000334527
0.000330911
0.000309513
0.00021961
6.81765e-05
1.3695e-06
1.51316e-06
5.29128e-05
0.000176504
0.000280611
0.000322161
0.000332506
0.000334604
0.000335101
0.000335168