/*--------------------------------*- C++ -*----------------------------------*\
| =========                 |                                                 |
| \\      /  F ield         | OpenFOAM: The Open Source CFD Toolbox           |
|  \\    /   O peration     | Version:  2.1.0                                 |
|   \\  /    A nd           | Web:      www.OpenFOAM.org                      |
|    \\/     M anipulation  |                                                 |
\*---------------------------------------------------------------------------*/
FoamFile
{
    version     2.0;
    format      ascii;
    class       volScalarField;
    location    "0.15";
    object      omega;
}
// * * * * * * * * * * * * * * * * * * * * * * * * * * * * * * * * * * * * * //

dimensions      [0 0 -1 0 0 0 0];

internalField   nonuniform List<scalar> 
6400
(
1500.12
1508.64
1511.78
1517.25
1519.88
1524.49
1526.69
1530.5
1532.25
1535.02
1536.24
1538.14
1538.95
1540.17
1540.66
1541.36
1541.61
1541.86
1541.85
1541.84
1541.59
1541.4
1540.91
1540.53
1539.84
1539.29
1538.44
1537.72
1536.74
1535.85
1534.75
1533.71
1532.49
1531.31
1529.98
1528.65
1527.2
1525.72
1524.12
1522.45
1520.67
1518.77
1516.75
1514.57
1512.24
1509.71
1507
1504.06
1500.88
1497.44
1493.72
1489.64
1485.16
1480.32
1475.3
1469.96
1464.37
1458.49
1452.31
1445.89
1439.15
1432.13
1424.77
1417.06
1409.03
1400.59
1391.65
1382.3
1372.33
1361.91
1350.79
1339.14
1326.77
1313.8
1300.15
1285.88
1271.03
1255.65
1239.81
1223.49
1206.65
1188.9
1169.67
1150.01
1129.22
1107.08
1083.01
1056.04
1024.98
987.913
942.271
883.353
804.51
697.677
559.083
484.751
518.327
659.411
769.176
800.986
677.27
677.881
678.48
679.361
679.975
681.098
681.793
683.023
683.739
684.927
685.616
686.833
687.605
688.904
689.812
691.203
692.267
693.763
694.983
696.591
697.98
699.71
701.274
703.137
704.88
706.888
708.822
710.989
713.129
715.474
717.835
720.385
722.991
725.786
728.657
731.699
734.847
738.165
741.611
745.227
748.99
752.932
757.041
761.339
765.827
770.52
775.419
780.537
785.881
791.464
797.277
803.327
809.613
816.167
823.045
830.23
837.754
845.632
853.884
862.543
871.622
881.161
891.186
901.743
912.846
924.368
936.34
948.942
962.168
976.092
990.735
1006.17
1022.43
1039.6
1057.74
1076.94
1097.27
1118.87
1141.87
1166.45
1192.47
1219.11
1247.02
1275.73
1304.9
1333.87
1361.93
1388.22
1411.9
1432.14
1447.09
1453.97
1455.25
1440.95
1403.32
1318.47
1195.88
1046.53
885.233
727.261
500.095
503.185
504.591
507.373
509.069
511.834
513.723
516.472
518.5
521.218
523.346
526.086
528.355
531.185
533.633
536.586
539.242
542.347
545.218
548.498
551.599
555.07
558.415
562.092
565.691
569.592
573.458
577.599
581.746
586.141
590.579
595.244
599.981
604.924
609.99
615.28
620.721
626.397
632.257
638.368
644.665
651.2
657.934
664.924
672.159
679.667
687.441
695.501
703.843
712.476
721.41
730.657
740.223
750.13
760.396
771.029
782.046
793.459
805.279
817.52
830.187
843.289
856.825
870.795
885.2
900.087
915.451
931.116
947.085
963.285
979.681
996.213
1012.83
1029.5
1046.18
1062.85
1079.5
1096.14
1112.79
1129.46
1146.17
1162.95
1179.85
1196.81
1213.69
1230.41
1246.57
1261.78
1275.2
1284.88
1289.23
1289.97
1276.87
1249.23
1197.29
1115.91
1001.79
857.703
698.222
550.492
457.874
462.658
464.724
468.78
471.252
475.24
477.999
481.948
484.942
488.884
492.086
496.075
499.492
503.585
507.236
511.477
515.382
519.805
523.977
528.61
533.061
537.926
542.669
547.783
552.83
558.213
563.571
569.238
574.921
580.888
586.906
593.189
599.556
606.172
612.89
619.835
626.898
634.172
641.574
649.167
656.922
664.882
673.021
681.343
689.811
698.442
707.212
716.126
725.165
734.328
743.601
752.98
762.452
772.011
781.649
791.356
801.123
810.937
820.787
830.657
840.537
850.408
860.252
870.047
879.777
889.475
899.087
908.615
918.027
927.308
936.439
945.38
954.067
962.497
970.545
978.193
985.295
991.798
997.544
1002.43
1006.26
1008.5
1009.43
1009.52
1006.6
1002.17
994.531
984.23
970.155
952.531
930.085
902.225
867.759
825.775
773.895
710.691
638.579
561.708
493.17
452.313
451.941
457.837
460.346
465.311
468.31
473.181
476.517
481.32
484.929
489.709
493.557
498.361
502.433
507.299
511.59
516.553
521.064
526.148
530.878
536.098
541.045
546.411
551.57
557.086
562.45
568.117
573.673
579.486
585.219
591.169
597.067
603.143
609.184
615.367
621.524
627.79
634.037
640.361
646.669
653.025
659.36
665.715
672.032
678.352
684.63
690.888
697.097
703.262
709.368
715.418
721.399
727.311
733.14
738.877
744.504
750.015
755.381
760.614
765.672
770.529
775.161
779.531
783.615
787.376
790.78
793.793
796.372
798.479
800.072
800.947
801.303
801.32
800.048
798.358
795.463
791.89
787.118
781.458
774.549
766.564
757.36
747.066
735.559
722.884
708.943
693.887
677.744
660.745
642.766
623.848
604.032
583.219
560.953
536.66
509.979
481.612
452.268
426.204
410.199
402.629
443.722
449.913
452.526
457.675
460.711
465.7
468.998
473.835
477.318
482.039
485.665
490.298
494.046
498.615
502.462
506.988
510.926
515.42
519.436
523.91
527.995
532.444
536.583
541.018
545.193
549.601
553.801
558.175
562.367
566.692
570.85
575.128
579.269
583.477
587.549
591.644
595.604
599.546
603.349
607.094
610.689
614.187
617.524
620.733
623.763
626.63
629.304
631.778
634.038
636.068
637.851
639.376
640.622
641.566
642.074
642.285
642.302
641.827
641.127
639.952
638.451
636.468
634.089
631.216
627.894
624.066
619.756
614.929
609.603
603.748
597.402
590.522
583.142
575.362
567.137
558.6
549.687
540.542
531.133
521.639
512.074
502.556
493.06
483.679
474.476
465.626
457.074
448.724
440.471
432.359
424.57
416.829
408.852
400.694
392.448
384.353
377.609
374.36
373.307
372.844
417.124
422.728
425.061
429.624
432.2
436.563
439.256
443.39
446.136
450.067
452.831
456.564
459.322
462.879
465.61
468.995
471.683
474.901
477.528
480.576
483.127
485.986
488.442
491.114
493.432
495.873
497.992
500.171
502.045
503.94
505.537
507.172
508.547
509.873
510.929
511.888
512.561
513.054
513.278
513.349
513.165
512.663
511.959
510.929
509.672
508.09
506.264
504.107
501.699
498.96
495.96
492.645
489.059
485.177
481.041
476.677
472.088
467.246
462.231
457.016
451.674
446.193
440.639
435.009
429.362
423.701
418.095
412.56
407.148
401.874
396.79
391.93
387.356
383.013
378.97
375.184
371.692
368.488
365.575
362.964
360.646
358.61
356.817
355.297
353.984
352.922
351.972
351.202
350.468
349.881
349.285
348.813
348.441
348.294
348.419
349.829
351.551
355.602
357.634
357.868
374.768
379.233
381.033
384.484
386.253
389.426
391.112
393.954
395.516
398.027
399.42
401.585
402.778
404.604
405.585
407.055
407.788
408.862
409.378
410.009
410.294
410.441
410.468
410.256
409.788
409.202
408.272
407.243
405.877
404.393
402.595
400.596
398.315
395.801
393.029
390.054
386.813
383.424
379.788
376.038
372.07
368.009
363.801
359.51
355.141
350.725
346.283
341.848
337.447
333.099
328.848
324.703
320.703
316.872
313.263
309.857
306.703
303.787
301.151
298.782
296.708
294.922
293.437
292.248
291.358
290.779
290.504
290.415
290.593
291.12
291.812
292.828
293.994
295.457
297.047
298.904
300.87
303.075
305.368
307.867
310.426
313.158
315.927
318.837
321.757
324.768
327.748
330.776
333.746
336.733
339.659
342.626
345.611
348.768
352.169
356.247
360.926
366.499
369.343
370.029
315.047
317.353
318.188
319.531
320.141
320.961
321.303
321.544
321.586
321.505
320.942
320.427
319.467
318.457
317.094
315.665
313.824
312.037
309.779
307.575
304.991
302.406
299.511
296.606
293.437
290.329
286.989
283.736
280.319
276.993
273.558
270.247
266.887
263.653
260.453
257.412
254.438
251.664
248.99
246.539
244.226
242.16
240.257
238.614
237.164
235.971
234.994
234.277
233.818
233.606
233.546
233.77
234.248
234.934
235.854
236.965
238.304
239.818
241.55
243.448
245.553
247.816
250.276
252.891
255.696
258.653
261.796
265.085
268.559
272.184
275.988
279.951
284.086
288.39
292.867
297.522
302.353
307.384
312.603
318.022
323.633
329.447
335.452
341.651
348.028
354.589
361.304
368.16
375.106
382.125
389.169
396.217
403.243
410.265
417.319
424.631
432.7
442.012
451.22
455.977
231.004
230.173
229.598
228.658
227.62
226.548
225.214
223.899
222.39
220.879
219.203
217.566
215.796
214.065
212.258
210.506
208.69
206.99
205.224
203.602
201.962
200.466
198.981
197.669
196.383
195.288
194.231
193.38
192.584
191.986
191.465
191.152
190.97
190.908
190.947
191.218
191.543
192.083
192.692
193.492
194.376
195.431
196.575
197.878
199.274
200.814
202.454
204.224
206.096
208.088
210.186
212.398
214.721
217.151
219.692
222.339
225.096
227.964
230.943
234.037
237.245
240.574
244.024
247.599
251.304
255.141
259.119
263.238
267.509
271.936
276.529
281.296
286.243
291.387
296.727
302.289
308.071
314.093
320.355
326.897
333.713
340.843
348.285
356.079
364.233
372.785
381.749
391.18
401.113
411.609
422.732
434.555
447.163
460.66
475.153
490.738
507.336
524.382
538.265
544.493
240.718
240.702
240.302
239.897
239.261
238.584
237.599
236.679
235.438
234.235
232.782
231.357
229.705
228.09
226.299
224.544
222.651
220.826
218.885
217.032
215.12
213.292
211.448
209.735
207.999
206.441
204.895
203.529
202.215
201.1
200.051
199.21
198.454
197.909
197.467
197.249
197.154
197.144
197.412
197.742
198.32
198.955
199.821
200.759
201.898
203.126
204.532
206.032
207.694
209.459
211.363
213.378
215.522
217.776
220.151
222.648
225.247
227.978
230.805
233.768
236.828
240.026
243.327
246.768
250.321
254.018
257.837
261.807
265.908
270.168
274.563
279.128
283.842
288.743
293.805
299.069
304.509
310.168
316.019
322.108
328.411
334.971
341.771
348.851
356.203
363.867
371.845
380.178
388.882
397.991
407.525
417.611
428.287
439.699
451.965
465.317
479.937
495.704
509.765
516.349
321.372
324.306
325.426
327.457
328.441
330.072
330.844
331.992
332.518
333.162
333.425
333.546
333.543
333.258
332.681
332.077
331.026
329.989
328.527
327.031
325.177
323.246
320.969
318.679
315.995
313.336
310.346
307.338
304.069
300.798
297.346
293.926
290.38
286.89
283.344
279.863
276.394
273.03
269.714
266.553
263.479
260.587
257.822
255.287
252.898
250.77
248.829
247.155
245.698
244.519
243.566
242.894
242.517
242.36
242.34
242.742
243.235
244.083
245.029
246.292
247.654
249.299
251.04
253.032
255.117
257.425
259.816
262.407
265.072
267.926
270.854
273.952
277.115
280.431
283.802
287.31
290.866
294.543
298.258
302.078
305.929
309.867
313.831
317.844
321.868
325.936
330.022
334.164
338.347
342.616
346.974
351.411
356.023
360.852
366.097
371.964
378.825
386.811
394.224
397.838
377.29
382.053
383.987
387.72
389.696
393.195
395.153
398.387
400.29
403.248
405.057
407.738
409.441
411.819
413.359
415.46
416.821
418.621
419.765
421.253
422.162
423.314
423.945
424.723
425.096
425.387
425.479
425.48
425.116
424.654
423.867
422.927
421.681
420.234
418.527
416.581
414.367
411.883
409.126
406.114
402.839
399.363
395.626
391.734
387.616
383.351
378.931
374.391
369.762
365.055
360.327
355.584
350.872
346.225
341.667
337.269
333.062
329.088
325.336
321.845
318.597
315.655
312.976
310.631
308.56
306.831
305.368
304.244
303.367
302.805
302.526
302.427
302.493
302.913
303.374
304.128
304.902
305.904
306.905
308.067
309.205
310.454
311.669
313.043
314.418
315.917
317.442
319.101
320.837
322.724
324.728
326.932
329.376
331.929
334.914
338.406
342.785
347.585
349.871
349.929
416.688
422.374
424.743
429.38
432.008
436.454
439.234
443.492
446.368
450.446
453.371
457.296
460.255
464.027
466.993
470.639
473.599
477.114
480.052
483.439
486.336
489.591
492.431
495.546
498.302
501.269
503.93
506.722
509.254
511.863
514.199
516.566
518.67
520.742
522.574
524.322
525.865
527.341
528.598
529.721
530.597
531.302
531.69
531.862
531.891
531.506
530.919
529.967
528.763
527.195
525.336
523.12
520.576
517.679
514.435
510.827
506.873
502.577
497.978
493.125
488.012
482.651
477.088
471.339
465.474
459.492
453.479
447.425
441.416
435.452
429.636
423.964
418.554
413.417
408.55
403.981
399.662
395.61
391.841
388.339
385.043
381.908
378.928
376.093
373.434
370.836
368.173
365.369
362.573
359.865
357.114
354.025
351.009
348.308
345.692
344.316
343.802
345.633
347.313
347.234
440.359
446.421
448.975
454.004
456.968
461.849
465.076
469.822
473.242
477.885
481.458
486.032
489.734
494.259
498.077
502.581
506.503
510.993
515.014
519.502
523.608
528.1
532.286
536.783
541.03
545.534
549.835
554.334
558.675
563.174
567.532
572.018
576.387
580.837
585.185
589.58
593.89
598.236
602.494
606.75
610.906
615.026
619.031
622.968
626.776
630.471
634.027
637.432
640.677
643.744
646.619
649.292
651.741
653.955
655.918
657.584
658.923
659.927
660.475
660.702
660.721
660.173
659.436
658.154
656.57
654.44
651.936
648.885
645.411
641.383
636.896
631.844
626.314
620.24
613.727
606.715
599.28
591.393
583.192
574.728
566.151
557.246
547.843
537.84
527.727
517.909
508.203
497.48
485.193
473.327
462.423
449.93
435.097
420.694
406.697
392.99
379.989
372.075
368.256
365.024
446.852
452.458
454.835
459.527
462.344
466.941
470.064
474.59
477.959
482.458
486.049
490.564
494.361
498.932
502.938
507.599
511.816
516.592
521.025
525.939
530.585
535.649
540.51
545.732
550.806
556.191
561.472
567.023
572.507
578.223
583.9
589.776
595.638
601.666
607.696
613.867
620.053
626.353
632.671
639.083
645.512
652.012
658.527
665.092
671.666
678.268
684.869
691.471
698.052
704.617
711.155
717.667
724.141
730.575
736.965
743.306
749.586
755.797
761.917
767.938
773.83
779.594
785.207
790.627
795.843
800.806
805.501
809.88
813.926
817.594
820.859
823.667
825.967
827.634
828.502
828.834
828.717
827.292
825.327
822.031
817.865
812.337
805.648
797.391
787.461
775.6
761.95
746.25
727.885
706.452
682.435
655.84
625.244
590.842
553.697
514.187
474.222
437.809
412.552
398.203
452.217
456.704
458.634
462.408
464.688
468.388
470.914
474.562
477.285
480.91
483.804
487.451
490.523
494.245
497.52
501.363
504.863
508.862
512.602
516.788
520.781
525.175
529.437
534.059
538.601
543.469
548.303
553.436
558.576
563.992
569.452
575.169
580.965
587.006
593.161
599.539
606.048
612.775
619.648
626.734
633.979
641.429
649.042
656.85
664.824
673.021
681.41
690.024
698.855
707.899
717.109
726.505
736.065
745.788
755.662
765.678
775.82
786.082
796.452
806.925
817.493
828.151
838.892
849.707
860.583
871.51
882.467
893.44
904.394
915.349
926.322
937.292
948.261
959.199
970.093
980.907
991.574
1002.03
1012.24
1022.05
1031.36
1039.91
1047.57
1054.22
1059.52
1062.03
1062.81
1060.32
1053.51
1043.15
1025.15
998.572
962.879
916.959
857.321
781.755
694.751
600.499
517.52
458.721
493.96
496.823
498.12
500.682
502.227
504.765
506.48
508.997
510.821
513.29
515.163
517.631
519.611
522.135
524.266
526.888
529.195
531.946
534.443
537.343
540.048
543.111
546.033
549.276
552.427
555.868
559.259
562.91
566.554
570.431
574.338
578.455
582.63
586.997
591.439
596.099
600.877
605.865
611.006
616.362
621.901
627.671
633.658
639.902
646.397
653.133
660.127
667.383
674.9
682.705
690.827
699.272
708.051
717.173
726.648
736.497
746.725
757.353
768.398
779.882
791.828
804.265
817.209
830.689
844.708
859.296
874.458
890.215
906.577
923.609
941.15
959.142
977.577
996.422
1015.61
1035.11
1054.85
1074.81
1094.96
1115.27
1135.74
1156.34
1177.04
1198
1219.16
1240.46
1261.74
1282.43
1301.85
1318.9
1328.68
1332.2
1324.12
1291.91
1236.59
1155.7
1046.04
909.673
746.201
581.872
669.78
670.352
670.777
671.534
672.003
672.95
673.514
674.576
675.139
676.141
676.645
677.659
678.213
679.286
679.958
681.108
681.914
683.151
684.094
685.422
686.512
687.937
689.178
690.711
692.11
693.762
695.327
697.111
698.854
700.787
702.721
704.826
706.969
709.278
711.664
714.193
716.814
719.583
722.464
725.497
728.665
731.992
735.471
739.12
742.937
746.932
751.111
755.486
760.064
764.86
769.885
775.15
780.666
786.452
792.517
798.862
805.511
812.472
819.762
827.388
835.371
843.789
852.633
861.98
871.809
882.188
893.134
904.693
916.899
929.655
943.079
957.29
972.307
988.197
1005.04
1022.86
1041.79
1061.86
1083.2
1105.86
1129.99
1155.67
1183.04
1212.31
1242.37
1273.5
1304.33
1333.51
1358.89
1375.53
1382.43
1383.15
1371.86
1353.01
1319.51
1261.66
1172.36
1054.12
918.359
764.01
1484.59
1493.51
1496.81
1502.61
1505.41
1510.32
1512.67
1516.76
1518.64
1521.61
1522.92
1524.92
1525.76
1526.99
1527.47
1528.12
1528.31
1528.48
1528.41
1528.34
1527.99
1527.71
1527.11
1526.64
1525.85
1525.2
1524.27
1523.45
1522.39
1521.43
1520.27
1519.18
1517.91
1516.7
1515.36
1514.05
1512.64
1511.23
1509.75
1508.25
1506.71
1505.13
1503.51
1501.83
1500.11
1498.3
1496.42
1494.44
1492.38
1490.2
1487.91
1485.51
1482.98
1480.33
1477.56
1474.62
1471.46
1468.04
1464.28
1460.08
1455.42
1450.56
1445.34
1440.02
1434.35
1428.47
1422.26
1415.75
1408.86
1401.56
1393.75
1385.5
1376.67
1366.97
1356.71
1345.37
1333.27
1319.93
1305.58
1289.83
1272.81
1254.22
1234.08
1212.14
1188.2
1161.53
1131.38
1094.92
1050.8
995.441
922.547
829.098
727.008
622.654
539.043
493.101
514.91
662.843
793.243
832.1
748.208
300.398
166.973
113.32
89.0689
69.8361
56.573
50.8654
46.5412
45.1291
45.3782
50.5889
64.7675
87.8084
133.243
207.608
312.126
433.627
569.937
634.401
609.051
303.039
201
143.967
108.993
84.6162
72.0974
62.088
57.143
55.347
55.7643
65.2278
80.8144
111.921
164.231
242.518
341.278
449.762
560.505
599.089
495.317
296.297
225.792
163.797
126.892
102.682
85.4947
75.3324
70.7062
69.3403
72.3408
83.5062
106.725
143.874
203.019
281.552
370.831
464.252
540.229
559.994
415.503
283.577
235.519
173.415
144.717
117.067
102.129
92.7849
88.8496
87.8866
92.2527
112.625
140.111
185.439
247.652
319.095
392.537
463.074
509.514
518.89
363.394
274.712
239.741
186.203
162.751
135.505
123.104
114.799
111.998
111.88
128.911
153.654
188.13
237.674
293.611
351.705
407.991
452.993
471.515
477.297
329.584
269.21
242.683
197.813
178.73
157.886
149.589
146.302
146.832
161.117
183.684
211.213
247.765
290.219
332.433
373.506
407.255
426.468
421.431
437.715
315.073
274.262
255.086
224.656
212.403
203.94
202.222
206.463
218.119
236.075
256.546
281.094
308.829
336.424
361.57
382.173
393.404
386.152
362.557
401.685
335.428
317.446
310.071
301.72
299.409
299.057
300.26
306.069
313.485
323.96
334.079
346.2
356.919
365.902
370.595
372.894
362.325
329.041
296.816
371.69
446.731
437.791
433.713
420.57
414.556
406.189
402.177
397.235
394.769
391.271
388.767
384.941
379.933
371.927
362.522
343.786
307.965
262.351
231.263
349.683
530.677
513.165
505.501
486.591
477.622
461.986
453.934
440.364
432.499
419.807
410.49
396.172
381.8
360.806
333.274
293.358
248.045
199.98
176.012
333.758
506.775
491.026
484.66
468.825
461.438
449.416
443.448
434.039
428.649
420.282
413.886
404.156
394.126
379.79
355.439
318.009
270.6
215.643
184.32
332.968
383.939
379.572
377.96
372.766
370.374
368.791
368.679
372.362
376.103
381.21
386.336
389.748
391.329
391.068
386.776
373.589
340.767
288.575
247.053
346.939
310.425
284.936
273.641
258.95
255.11
254.783
260.893
269.616
285.126
300.875
322.037
341.351
363.21
380.438
393.165
399.082
392.883
359.361
319.811
372.749
305.28
262.862
242.545
208.96
194.849
182.835
179.591
180.562
194.926
214.334
240.753
271.879
307.222
344.756
378.666
408.173
422.778
417.143
389.855
407.799
322.142
261.222
234.753
190.338
171.408
149.237
139.979
135.615
134.829
147.917
171.614
203.169
244.821
294.54
345.251
394.484
436.404
456.892
449.576
448.51
355.531
267.368
232.289
179.153
155.848
129.231
116.975
108.735
105.735
105.327
121.423
147.459
185.168
239.887
303.692
370.451
435.56
483.794
498.302
491.951
408.391
277.025
229.312
168.728
140.144
112.833
97.4513
88.888
85.1626
84.3297
88.9706
109.202
138.566
186.983
254.575
333.993
414.864
494.131
536.968
536.867
495.515
288.99
217.879
159.574
123.446
100.039
82.4195
72.5731
67.9946
66.6363
69.7604
81.3423
105.741
145.987
209.674
295.61
393.049
493.951
568.479
580.841
630.045
298.763
195.603
138.327
106.197
82.8632
69.8737
60.4745
55.8224
54.096
54.5388
63.5979
79.8934
112.94
169.048
254.043
361.097
477.607
589.797
622.151
779.79
299.983
164.283
110.394
85.5903
69.1038
55.5351
49.1228
45.3911
44.1088
44.8913
50.1333
64.2683
89.3878
137.647
217.911
330.767
459.924
600.081
659.212
646.083
32.1767
12.7376
11.323
11.19
11.171
11.1705
11.1708
11.1706
11.1705
11.1705
11.1706
11.1708
11.1705
11.171
11.19
11.323
12.7376
32.1767
646.083
672.696
55.0552
17.0366
12.0866
11.3038
11.1803
11.1547
11.1529
11.1534
11.1536
11.1536
11.1534
11.1529
11.1547
11.1803
11.3038
12.0866
17.0366
55.0551
672.696
698.414
71.071
21.149
13.3019
11.5869
11.2261
11.1551
11.1382
11.1358
11.1355
11.1355
11.1358
11.1382
11.1551
11.2261
11.5869
13.3019
21.149
71.0711
698.415
723.214
85.897
25.1457
14.6486
12.0439
11.3373
11.1684
11.1265
11.1183
11.1171
11.1171
11.1183
11.1265
11.1684
11.3373
12.0439
14.6486
25.1457
85.8968
723.214
746.795
101.907
29.215
16.0684
12.5894
11.5237
11.2065
11.1273
11.105
11.1003
11.1003
11.105
11.1273
11.2065
11.5237
12.5894
16.0684
29.2151
101.907
746.796
769.224
118.372
33.3549
17.5373
13.1959
11.7619
11.2828
11.1365
11.0944
11.0843
11.0843
11.0944
11.1365
11.2828
11.7619
13.1959
17.5372
33.3549
118.372
769.223
790.663
134.908
37.5536
19.0468
13.8485
12.0424
11.3869
11.1599
11.0918
11.0718
11.0718
11.0918
11.1599
11.3869
12.0424
13.8485
19.0468
37.5537
134.908
790.664
811.054
151.3
41.7887
20.5872
14.5359
12.3574
11.5179
11.2031
11.0955
11.0625
11.0625
11.0955
11.2031
11.5179
12.3574
14.5359
20.5872
41.7886
151.3
811.054
830.023
167.145
45.9859
22.1357
15.2444
12.6978
11.6713
11.2606
11.1066
11.0594
11.0594
11.1066
11.2606
11.6713
12.6978
15.2444
22.1357
45.986
167.146
830.023
847.6
182.368
50.1168
23.6793
15.9648
13.0569
11.8431
11.3325
11.1291
11.0619
11.0619
11.1291
11.3325
11.8431
13.0569
15.9648
23.6793
50.1167
182.367
847.599
863.94
197.044
54.1973
25.2205
16.695
13.4313
12.0311
11.4177
11.1608
11.0697
11.0697
11.1608
11.4177
12.0311
13.4313
16.695
25.2205
54.1973
197.044
863.941
879.026
211.152
58.227
26.7593
17.4334
13.8186
12.2331
11.5154
11.202
11.0861
11.0861
11.202
11.5154
12.2331
13.8186
17.4334
26.7593
58.2269
211.152
879.025
892.721
224.543
62.1778
28.288
18.1757
14.2155
12.4469
11.6243
11.2528
11.1113
11.1113
11.2528
11.6243
12.4469
14.2155
18.1757
28.2879
62.1777
224.544
892.721
905.01
237.125
66.0155
29.7938
18.9156
14.6177
12.6695
11.7429
11.3127
11.1447
11.1447
11.3127
11.7429
12.6695
14.6177
18.9156
29.7938
66.0155
237.125
905.01
916.034
248.94
69.7385
31.2738
19.6502
15.023
12.899
11.8699
11.381
11.1861
11.1861
11.381
11.8699
12.899
15.023
19.6502
31.2737
69.7385
248.94
916.034
925.907
260.075
73.3698
32.7344
20.3814
15.4311
13.1347
12.0045
11.4574
11.2355
11.2355
11.4574
12.0045
13.1347
15.4311
20.3814
32.7344
73.3697
260.075
925.907
934.534
270.431
76.892
34.1732
21.1084
15.8414
13.3759
12.1464
11.5416
11.293
11.293
11.5416
12.1464
13.3759
15.8414
21.1084
34.1732
76.892
270.431
934.534
942.042
280.053
80.2942
35.5842
21.8283
16.2522
13.6213
12.2945
11.6331
11.358
11.358
11.6331
12.2945
13.6213
16.2522
21.8283
35.5842
80.2941
280.053
942.042
948.438
288.884
83.5623
36.9622
22.5383
16.6614
13.8694
12.4477
11.7311
11.43
11.43
11.7311
12.4477
13.8694
16.6615
22.5383
36.9623
83.5625
288.884
948.439
953.915
297.034
86.706
38.3077
23.2376
17.0683
14.1193
12.6053
11.8348
11.5085
11.5085
11.8348
12.6053
14.1193
17.0683
23.2376
38.3075
86.7055
297.033
953.915
958.433
304.497
89.7285
39.6225
23.9271
17.4728
14.3708
12.7669
11.9441
11.5933
11.5933
11.9441
12.7669
14.3708
17.4728
23.9271
39.6226
89.7288
304.498
958.433
962.132
311.338
92.634
40.9076
24.607
17.8751
14.6238
12.9323
12.0585
11.6839
11.6839
12.0585
12.9323
14.6238
17.8751
24.607
40.9076
92.6339
311.337
962.132
964.958
317.499
95.4098
42.1592
25.276
18.2744
14.8777
13.1009
12.1777
11.78
11.78
12.1777
13.1009
14.8777
18.2743
25.276
42.1592
95.4098
317.5
964.958
967.178
323.104
98.0592
43.3746
25.932
18.6692
15.1315
13.272
12.301
11.881
11.881
12.301
13.272
15.1315
18.6692
25.9319
43.3745
98.0588
323.102
967.178
968.662
328.139
100.586
44.5541
26.5744
19.0591
15.3845
13.445
12.4277
11.9862
11.9862
12.4277
13.445
15.3845
19.0591
26.5744
44.5541
100.586
328.141
968.662
969.644
332.656
102.995
45.6993
27.2041
19.4441
15.6368
13.6197
12.5577
12.0954
12.0954
12.5577
13.6197
15.6368
19.4441
27.2041
45.6993
102.995
332.655
969.644
969.977
336.69
105.295
46.8137
27.8225
19.8252
15.8887
13.7961
12.6907
12.2083
12.2083
12.6907
13.7961
15.8887
19.8251
27.8224
46.8134
105.294
336.689
969.977
969.84
340.246
107.484
47.8959
28.4291
20.2018
16.1398
13.974
12.8266
12.3248
12.3248
12.8266
13.9739
16.1398
20.2018
28.429
47.8956
107.483
340.246
969.841
969.432
343.396
109.558
48.9412
29.0212
20.5726
16.3893
14.1526
12.9647
12.4441
12.4441
12.9647
14.1526
16.3893
20.5726
29.0212
48.9413
109.558
343.394
969.433
968.591
346.147
111.523
49.9501
29.5982
20.9369
16.6366
14.3315
13.1045
12.5659
12.5659
13.1045
14.3315
16.6365
20.9368
29.598
49.9497
111.523
346.149
968.592
967.397
348.506
113.389
50.9276
30.1623
21.2955
16.8818
14.5105
13.2457
12.6898
12.6898
13.2457
14.5105
16.8817
21.2953
30.162
50.927
113.387
348.503
967.398
965.913
350.544
115.163
51.8761
30.7146
21.6491
17.1254
14.6899
13.3885
12.8157
12.8157
13.3885
14.6898
17.1253
21.6489
30.7144
51.8755
115.163
350.546
965.915
964.174
352.235
116.842
52.7936
31.2545
21.9973
17.3672
14.8694
13.5326
12.9436
12.9435
13.5326
14.8694
17.3671
21.9972
31.2542
52.7931
116.84
352.23
964.176
962.23
353.637
118.427
53.6784
31.7803
22.3393
17.6066
15.0487
13.6777
13.073
13.073
13.6777
15.0486
17.6064
22.3391
31.7798
53.6771
118.424
353.635
962.232
960.115
354.72
119.913
54.5286
32.2912
22.6744
17.843
15.2273
13.8233
13.2035
13.2035
13.8233
15.2272
17.8428
22.6741
32.2907
54.5275
119.911
354.719
960.117
957.851
355.583
121.315
55.348
32.7883
23.0029
18.0764
15.4049
13.9692
13.3348
13.3348
13.9691
15.4048
18.0762
23.0025
32.7877
55.3466
121.311
355.58
957.855
955.455
356.073
122.634
56.1413
33.2735
23.3253
18.307
15.5815
14.1151
13.4667
13.4667
14.115
15.5813
18.3067
23.3248
33.2723
56.1386
122.628
356.071
955.459
952.967
356.453
123.867
56.9021
33.7442
23.6409
18.5344
15.757
14.261
13.5991
13.599
14.2609
15.7568
18.534
23.6402
33.7428
56.8991
123.86
356.447
952.974
950.415
356.449
125.001
57.6278
34.1996
23.9492
18.7584
15.9312
14.4068
13.7319
13.7318
14.4067
15.9309
18.7579
23.9483
34.1979
57.6245
124.995
356.443
950.424
947.83
356.346
126.063
58.3243
34.6409
24.2505
18.9791
16.1041
14.5524
13.865
13.865
14.5523
16.1038
18.9786
24.2495
34.6387
58.3192
126.051
356.341
947.842
945.223
356.092
127.047
58.9915
35.0686
24.545
19.1965
16.2756
14.6977
13.9983
13.9982
14.6975
16.2752
19.1958
24.5437
35.0659
58.9852
127.033
356.086
945.238
942.604
355.565
127.93
59.6218
35.4798
24.8314
19.4098
16.4451
14.8421
14.1311
14.131
14.8418
16.4445
19.4088
24.8296
35.4763
59.6143
127.914
355.562
942.624
940.008
354.872
128.704
60.2085
35.8706
25.1072
19.6173
16.6114
14.9847
14.2628
14.2627
14.9843
16.6106
19.6159
25.1048
35.8659
60.1987
128.684
354.861
940.032
937.445
354.059
129.416
60.7579
36.2404
25.3713
19.8181
16.7737
15.1248
14.3927
14.3926
15.1244
16.7728
19.8165
25.3684
36.2346
60.7452
129.389
354.049
937.477
934.972
353.169
130.053
61.2708
36.5905
25.6247
20.0128
16.9327
15.263
14.5213
14.5211
15.2625
16.9318
20.0111
25.6216
36.5843
61.2571
130.024
353.165
935.012
932.547
352.228
130.649
61.7486
36.9215
25.8686
20.2028
17.0894
15.4002
14.6494
14.6493
15.3996
17.0883
20.201
25.8651
36.9146
61.7332
130.617
352.227
932.594
930.241
351.21
131.194
62.192
37.2324
26.1026
20.3881
17.2439
15.5365
14.7773
14.7771
15.5359
17.2426
20.3858
26.0983
37.224
62.1737
131.159
351.206
930.298
928.073
350.15
131.738
62.6046
37.5198
26.3238
20.5666
17.3948
15.6709
14.9039
14.9037
15.6701
17.3933
20.5638
26.3187
37.5098
62.5829
131.695
350.142
928.141
926.048
349.07
132.294
62.9816
37.7786
26.5283
20.7352
17.5395
15.801
15.0271
15.0268
15.8002
17.5379
20.7322
26.5228
37.7679
62.9576
132.243
349.071
926.127
924.153
348.008
132.859
63.3196
38.0056
26.7129
20.8911
17.6756
15.9246
15.1447
15.1444
15.9237
17.6737
20.8878
26.707
37.994
63.2925
132.798
348.017
924.245
922.37
347.005
133.439
63.6204
38.2005
26.8763
21.033
17.8019
16.0409
15.256
15.2557
16.0399
17.7999
21.0295
26.8699
38.188
63.591
133.375
347.019
922.474
920.684
346.123
134.071
63.895
38.3677
27.0207
21.1625
17.9201
16.1515
15.3629
15.3626
16.1505
17.9181
21.1589
27.0141
38.3544
63.8638
134.003
346.133
920.796
919.086
345.428
134.757
64.1466
38.511
27.15
21.2835
18.0338
16.2599
15.4685
15.4683
16.2591
18.0322
21.2806
27.1443
38.4988
64.114
134.672
345.412
919.203
917.579
344.814
135.413
64.3588
38.6301
27.2666
21.3988
18.1457
16.3686
15.5755
15.5754
16.3684
18.1452
21.3976
27.2638
38.6229
64.3349
135.343
344.847
917.696
916.158
344.381
136.056
64.5306
38.7241
27.3702
21.5083
18.2557
16.4773
15.6834
15.6835
16.478
18.2567
21.5098
27.372
38.7252
64.5227
136.011
344.402
916.271
914.794
343.887
136.701
64.6709
38.7949
27.4601
21.6103
18.3618
16.584
15.7901
15.7905
16.5855
18.3645
21.6147
27.4669
38.8049
64.6787
136.683
343.976
914.899
913.429
343.474
137.308
64.7856
38.8485
27.5384
21.7052
18.4636
16.6884
15.8954
15.896
16.6908
18.4679
21.7123
27.5498
38.8657
64.8013
137.279
343.46
913.524
912.004
343.051
137.76
64.8678
38.8915
27.6109
21.798
18.5665
16.7959
16.0048
16.0056
16.7989
18.5721
21.8074
27.6263
38.9153
64.8962
137.771
343.129
912.074
910.483
342.726
138.076
64.9218
38.9334
27.6892
21.9011
18.6828
16.9186
16.1302
16.1311
16.922
18.6891
21.9118
27.7072
38.9631
64.9696
138.178
343.113
910.492
908.842
342.687
138.356
64.9693
38.9903
27.7919
22.0329
18.8297
17.0725
16.287
16.2879
17.0761
18.8364
22.0445
27.8119
39.025
65.0331
138.516
343.191
908.75
907.056
342.781
138.623
65.0384
39.0901
27.9442
22.214
19.0239
17.2721
16.4885
16.4895
17.2761
19.0315
22.2273
27.9674
39.1322
65.12
138.856
343.421
906.841
905.118
343.069
138.938
65.1726
39.2716
28.169
22.4581
19.2743
17.5239
16.7406
16.7421
17.5294
19.2845
22.4754
28.1989
39.3271
65.2913
139.302
343.898
904.775
903.03
343.609
139.514
65.466
39.5618
28.4723
22.7643
19.5774
17.823
17.0376
17.0399
17.8311
19.5921
22.7885
28.5128
39.6351
65.6377
139.993
344.531
902.561
900.788
344.472
140.506
65.9655
39.9464
28.8352
23.1133
19.9132
18.1487
17.3584
17.3615
18.1598
19.9335
23.1462
28.8885
40.0382
66.1625
141.045
345.396
900.203
898.386
345.714
141.844
66.565
40.366
29.2149
23.4684
20.2465
18.4655
17.6669
17.6709