/*--------------------------------*- C++ -*----------------------------------*\
| =========                 |                                                 |
| \\      /  F ield         | OpenFOAM: The Open Source CFD Toolbox           |
|  \\    /   O peration     | Version:  2.1.0                                 |
|   \\  /    A nd           | Web:      www.OpenFOAM.org                      |
|    \\/     M anipulation  |                                                 |
\*---------------------------------------------------------------------------*/
FoamFile
{
    version     2.0;
    format      ascii;
    class       volScalarField;
    location    "0.15";
    object      p;
}
// * * * * * * * * * * * * * * * * * * * * * * * * * * * * * * * * * * * * * //

dimensions      [1 -1 -2 0 0 0 0];

internalField   nonuniform List<scalar> 
6400
(
99997.2
99995.7
99994.3
99993
99991.8
99990.7
99989.5
99988.3
99987.1
99985.9
99984.6
99983.2
99981.8
99980.4
99978.8
99977.2
99975.6
99973.8
99972
99970.1
99968.2
99966.1
99964
99961.8
99959.5
99957.1
99954.6
99952.1
99949.4
99946.7
99943.9
99941
99937.9
99934.8
99931.6
99928.3
99924.8
99921.3
99917.6
99913.9
99910
99905.9
99901.8
99897.5
99893.1
99888.5
99883.8
99878.9
99873.9
99868.7
99863.3
99857.7
99851.9
99846
99839.8
99833.4
99826.9
99820.1
99813
99805.8
99798.2
99790.4
99782.3
99774
99765.3
99756.3
99746.9
99737.2
99727.2
99716.7
99705.9
99694.7
99683.1
99671
99658.5
99645.6
99632.2
99618.4
99604.1
99589.2
99573.9
99558
99541.4
99524.1
99505.8
99486.3
99465.4
99442.7
99417.8
99390.3
99360.2
99328.1
99296
99265.7
99237.3
99205
99153.6
99047.2
98698.6
97174.5
99995.7
99994.4
99993.1
99992
99991
99989.9
99988.9
99987.8
99986.6
99985.4
99984.1
99982.8
99981.4
99980
99978.5
99976.9
99975.2
99973.5
99971.6
99969.7
99967.8
99965.7
99963.6
99961.4
99959.1
99956.7
99954.2
99951.7
99949
99946.3
99943.4
99940.5
99937.5
99934.4
99931.1
99927.8
99924.4
99920.8
99917.1
99913.4
99909.5
99905.5
99901.3
99897
99892.6
99888
99883.3
99878.5
99873.4
99868.2
99862.8
99857.2
99851.5
99845.6
99839.4
99833.1
99826.5
99819.7
99812.7
99805.5
99798
99790.2
99782.1
99773.8
99765.1
99756.1
99746.8
99737.2
99727.2
99716.8
99706
99694.9
99683.3
99671.3
99658.8
99646
99632.6
99618.8
99604.5
99589.8
99574.5
99558.6
99542
99524.7
99506.4
99487
99466.1
99443.5
99418.8
99391.5
99361.7
99329.9
99297.8
99267.5
99241.1
99213.1
99167.2
99075.4
98794.3
98275.8
99994.5
99993.7
99992.7
99991.6
99990.6
99989.6
99988.6
99987.5
99986.4
99985.2
99983.9
99982.6
99981.2
99979.8
99978.3
99976.7
99975
99973.3
99971.5
99969.6
99967.6
99965.6
99963.4
99961.2
99958.9
99956.5
99954.1
99951.5
99948.9
99946.1
99943.3
99940.4
99937.4
99934.2
99931
99927.7
99924.3
99920.7
99917.1
99913.3
99909.4
99905.4
99901.3
99897
99892.6
99888.1
99883.4
99878.6
99873.6
99868.4
99863
99857.5
99851.8
99845.9
99839.8
99833.5
99827
99820.3
99813.3
99806.1
99798.6
99790.9
99782.9
99774.6
99766
99757.1
99747.9
99738.3
99728.4
99718.1
99707.5
99696.4
99684.9
99673.1
99660.8
99648
99634.8
99621.2
99607
99592.4
99577.1
99561.3
99544.8
99527.5
99509.3
99489.9
99469.1
99446.5
99422
99395.2
99366.3
99336
99306.3
99278.8
99255.8
99231.7
99200.8
99146.1
99003.9
99103
99993
99993
99992.3
99991.4
99990.5
99989.5
99988.5
99987.5
99986.4
99985.2
99984
99982.7
99981.3
99979.9
99978.4
99976.8
99975.1
99973.4
99971.6
99969.7
99967.8
99965.8
99963.7
99961.5
99959.2
99956.8
99954.4
99951.8
99949.2
99946.5
99943.7
99940.8
99937.8
99934.7
99931.5
99928.2
99924.8
99921.2
99917.6
99913.9
99910
99906
99901.9
99897.7
99893.3
99888.8
99884.2
99879.4
99874.4
99869.3
99864
99858.6
99852.9
99847
99841
99834.7
99828.3
99821.6
99814.7
99807.5
99800.1
99792.5
99784.5
99776.3
99767.8
99758.9
99749.8
99740.3
99730.4
99720.2
99709.6
99698.5
99687.1
99675.3
99662.9
99650.2
99637
99623.2
99609
99594.2
99578.8
99562.8
99546.1
99528.5
99510
99490.3
99469.3
99446.7
99422.4
99396.3
99368.8
99341
99315.2
99292.9
99276.3
99266.8
99265.2
99274.6
99308.1
99723.8
99991.3
99992.2
99991.9
99991.3
99990.5
99989.6
99988.7
99987.7
99986.6
99985.4
99984.2
99982.9
99981.6
99980.2
99978.7
99977.2
99975.5
99973.8
99972.1
99970.2
99968.3
99966.3
99964.2
99962
99959.8
99957.4
99955
99952.5
99949.9
99947.2
99944.4
99941.5
99938.5
99935.5
99932.3
99929
99925.6
99922.1
99918.5
99914.8
99911
99907
99903
99898.8
99894.4
99889.9
99885.3
99880.5
99875.6
99870.5
99865.2
99859.7
99854.1
99848.3
99842.2
99836
99829.5
99822.9
99816
99808.8
99801.4
99793.8
99785.8
99777.6
99769
99760.2
99751
99741.5
99731.6
99721.3
99710.7
99699.6
99688.1
99676.2
99663.8
99651
99637.7
99623.8
99609.4
99594.5
99578.9
99562.7
99545.7
99527.9
99509.1
99489.1
99468
99445.4
99421.4
99396.2
99370.5
99345.9
99325.4
99310.3
99305
99317.1
99356.3
99449.4
99647.5
100211
99989.5
99991.3
99991.6
99991.2
99990.6
99989.8
99989
99988
99987
99985.8
99984.7
99983.4
99982.1
99980.7
99979.2
99977.7
99976.1
99974.4
99972.7
99970.8
99968.9
99966.9
99964.9
99962.7
99960.5
99958.1
99955.7
99953.2
99950.6
99948
99945.2
99942.3
99939.4
99936.3
99933.1
99929.9
99926.5
99923
99919.4
99915.7
99911.8
99907.9
99903.8
99899.6
99895.2
99890.7
99886
99881.2
99876.3
99871.2
99865.9
99860.4
99854.7
99848.9
99842.8
99836.6
99830.1
99823.4
99816.5
99809.3
99801.9
99794.3
99786.3
99778.1
99769.5
99760.7
99751.5
99741.9
99732.1
99721.8
99711.2
99700.1
99688.6
99676.6
99664.2
99651.3
99637.9
99623.9
99609.4
99594.2
99578.4
99561.9
99544.6
99526.4
99507.3
99487
99465.6
99443.1
99419.4
99395.2
99371.5
99350.4
99335.4
99328.8
99337.7
99375.7
99462.3
99643.7
99971.8
100591
99987.8
99990.5
99991.3
99991.2
99990.8
99990.2
99989.3
99988.4
99987.4
99986.3
99985.1
99983.9
99982.6
99981.2
99979.7
99978.2
99976.6
99974.9
99973.2
99971.3
99969.4
99967.4
99965.4
99963.2
99961
99958.6
99956.2
99953.7
99951.1
99948.4
99945.7
99942.8
99939.8
99936.7
99933.5
99930.3
99926.9
99923.4
99919.7
99916
99912.1
99908.2
99904.1
99899.8
99895.4
99890.9
99886.3
99881.4
99876.5
99871.3
99866
99860.6
99854.9
99849
99843
99836.7
99830.2
99823.5
99816.6
99809.5
99802.1
99794.4
99786.4
99778.2
99769.7
99760.8
99751.6
99742.1
99732.2
99722
99711.4
99700.3
99688.7
99676.7
99664.3
99651.3
99637.7
99623.7
99609
99593.6
99577.6
99560.8
99543.1
99524.5
99505
99484.4
99462.8
99440.2
99416.9
99393.6
99371.8
99353.8
99344.1
99346
99369.3
99433.8
99567.6
99828.9
100249
100875
99986.5
99989.8
99991
99991.2
99990.9
99990.4
99989.6
99988.7
99987.7
99986.6
99985.4
99984.2
99982.8
99981.5
99980
99978.5
99976.8
99975.2
99973.4
99971.6
99969.6
99967.6
99965.6
99963.4
99961.2
99958.8
99956.4
99953.9
99951.3
99948.6
99945.8
99942.9
99939.9
99936.8
99933.6
99930.3
99926.8
99923.3
99919.7
99915.9
99912.1
99908.1
99903.9
99899.7
99895.3
99890.8
99886.1
99881.3
99876.3
99871.1
99865.8
99860.4
99854.7
99848.9
99842.8
99836.5
99830.1
99823.4
99816.5
99809.3
99801.9
99794.3
99786.4
99778.2
99769.6
99760.8
99751.7
99742.2
99732.3
99722.1
99711.5
99700.4
99688.9
99676.8
99664.3
99651.3
99637.7
99623.5
99608.6
99593.1
99576.8
99559.7
99541.7
99522.8
99502.8
99481.8
99459.9
99437.1
99414.1
99391.6
99371.2
99355.9
99350.2
99359.7
99396
99483.4
99657.8
99982.4
100460
101076
99985.7
99989.4
99990.7
99991.1
99990.9
99990.4
99989.7
99988.8
99987.8
99986.7
99985.5
99984.2
99982.9
99981.5
99980
99978.4
99976.8
99975.1
99973.3
99971.5
99969.5
99967.5
99965.4
99963.3
99961
99958.6
99956.2
99953.6
99951
99948.3
99945.4
99942.5
99939.5
99936.4
99933.1
99929.8
99926.4
99922.8
99919.2
99915.4
99911.5
99907.5
99903.4
99899.2
99894.8
99890.3
99885.6
99880.8
99875.8
99870.7
99865.4
99859.9
99854.3
99848.5
99842.5
99836.3
99829.8
99823.2
99816.3
99809.2
99801.9
99794.3
99786.4
99778.2
99769.7
99760.9
99751.8
99742.4
99732.5
99722.3
99711.6
99700.7
99689.2
99677.2
99664.7
99651.6
99638
99623.6
99608.6
99592.9
99576.4
99558.9
99540.6
99521.2
99500.8
99479.3
99457
99434.1
99411.1
99389
99369.7
99356.2
99353.2
99368.1
99414.5
99517.9
99721.1
100089
100599
101201
99985.4
99989.1
99990.6
99991
99990.9
99990.4
99989.6
99988.7
99987.7
99986.5
99985.3
99984
99982.6
99981.1
99979.6
99978
99976.3
99974.5
99972.7
99970.8
99968.8
99966.7
99964.6
99962.4
99960.1
99957.7
99955.2
99952.7
99950
99947.3
99944.5
99941.6
99938.6
99935.6
99932.4
99929.1
99925.7
99922.2
99918.6
99914.9
99911
99907.1
99903
99898.8
99894.4
99889.9
99885.3
99880.5
99875.6
99870.5
99865.2
99859.8
99854.2
99848.4
99842.4
99836.2
99829.8
99823.2
99816.3
99809.2
99801.9
99794.3
99786.4
99778.3
99769.9
99761.2
99752.2
99742.8
99733
99722.8
99712.2
99701.2
99689.8
99677.8
99665.2
99652.1
99638.4
99623.9
99608.8
99592.8
99576
99558.3
99539.5
99519.8
99498.9
99477
99454.2
99431
99407.8
99385.9
99367
99354.3
99352.7
99370.2
99421.6
99533.2
99750.4
100139
100663
101258
99985.6
99989.2
99990.7
99991.1
99990.9
99990.4
99989.6
99988.7
99987.7
99986.5
99985.3
99984
99982.6
99981.1
99979.6
99978
99976.3
99974.5
99972.7
99970.8
99968.8
99966.8
99964.6
99962.4
99960.1
99957.7
99955.2
99952.7
99950.1
99947.4
99944.5
99941.6
99938.7
99935.6
99932.4
99929.1
99925.7
99922.2
99918.6
99914.9
99911
99907.1
99903
99898.8
99894.4
99889.9
99885.3
99880.5
99875.6
99870.5
99865.2
99859.8
99854.2
99848.4
99842.5
99836.3
99829.9
99823.3
99816.5
99809.4
99802.1
99794.6
99786.7
99778.7
99770.3
99761.6
99752.6
99743.2
99733.5
99723.4
99712.8
99701.9
99690.4
99678.4
99665.9
99652.7
99638.9
99624.3
99609
99592.9
99575.8
99557.7
99538.6
99518.4
99497.1
99474.7
99451.4
99427.7
99404.1
99381.9
99362.9
99350
99348.2
99365.6
99416.6
99527.5
99743
100129
100651
101246
99986.2
99989.7
99991
99991.3
99991
99990.5
99989.7
99988.8
99987.7
99986.6
99985.4
99984.1
99982.7
99981.2
99979.7
99978.1
99976.5
99974.7
99972.9
99971
99969.1
99967
99964.9
99962.7
99960.4
99958.1
99955.6
99953.1
99950.5
99947.8
99945
99942.1
99939.1
99936
99932.8
99929.5
99926.1
99922.6
99918.9
99915.2
99911.4
99907.4
99903.3
99899.1
99894.7
99890.2
99885.5
99880.8
99875.8
99870.7
99865.5
99860
99854.4
99848.7
99842.7
99836.5
99830.2
99823.6
99816.8
99809.8
99802.5
99794.9
99787.1
99779.1
99770.8
99762.1
99753.1
99743.8
99734.1
99724
99713.5
99702.6
99691.1
99679.1
99666.6
99653.4
99639.5
99624.8
99609.3
99593
99575.7
99557.3
99537.8
99517.2
99495.4
99472.4
99448.6
99424.2
99400.1
99377.3
99357.4
99343.5
99340.1
99354.5
99400.2
99501.1
99699.4
100060
100565
101167
99987.3
99990.4
99991.3
99991.4
99991.1
99990.4
99989.6
99988.7
99987.6
99986.5
99985.2
99983.9
99982.6
99981.1
99979.6
99978.1
99976.4
99974.7
99972.9
99971
99969.1
99967
99964.9
99962.7
99960.5
99958.1
99955.7
99953.2
99950.6
99947.9
99945.1
99942.2
99939.2
99936.1
99933
99929.7
99926.3
99922.8
99919.2
99915.5
99911.7
99907.7
99903.6
99899.4
99895
99890.6
99885.9
99881.1
99876.2
99871.1
99865.9
99860.4
99854.8
99849.1
99843.1
99837
99830.6
99824
99817.2
99810.2
99803
99795.4
99787.7
99779.6
99771.3
99762.7
99753.8
99744.5
99734.8
99724.7
99714.3
99703.4
99691.9
99679.9
99667.4
99654.1
99640.2
99625.4
99609.8
99593.3
99575.8
99557.1
99537.3
99516.2
99493.9
99470.4
99445.9
99420.8
99395.8
99372.2
99351.1
99335.1
99328.9
99338
99373.7
99456.8
99623.5
99937.9
100407
101023
99988.9
99991.2
99991.7
99991.5
99991
99990.3
99989.4
99988.4
99987.3
99986.2
99984.9
99983.6
99982.3
99980.8
99979.3
99977.8
99976.1
99974.4
99972.6
99970.7
99968.8
99966.8
99964.7
99962.5
99960.2
99957.9
99955.4
99952.9
99950.3
99947.6
99944.9
99942
99939
99936
99932.8
99929.5
99926.2
99922.7
99919.1
99915.4
99911.6
99907.6
99903.6
99899.4
99895
99890.6
99886
99881.2
99876.3
99871.2
99866
99860.6
99855
99849.3
99843.4
99837.2
99830.9
99824.3
99817.6
99810.6
99803.4
99795.9
99788.2
99780.2
99771.9
99763.4
99754.5
99745.2
99735.6
99725.6
99715.2
99704.3
99692.9
99680.9
99668.3
99655
99641.1
99626.2
99610.5
99593.9
99576.1
99557.2
99537.1
99515.7
99492.9
99468.8
99443.6
99417.7
99391.7
99366.7
99344.3
99326.4
99315.7
99317.5
99340.2
99399.3
99523.7
99771.9
100180
100805
99990.7
99992.1
99992.1
99991.6
99990.9
99990.1
99989.1
99988.1
99986.9
99985.8
99984.5
99983.2
99981.8
99980.4
99978.9
99977.3
99975.6
99973.9
99972.1
99970.2
99968.3
99966.2
99964.1
99962
99959.7
99957.3
99954.9
99952.4
99949.8
99947.1
99944.3
99941.5
99938.5
99935.5
99932.3
99929.1
99925.7
99922.2
99918.7
99915
99911.2
99907.2
99903.2
99899
99894.7
99890.2
99885.7
99880.9
99876
99871
99865.8
99860.4
99854.8
99849.1
99843.2
99837.1
99830.8
99824.3
99817.6
99810.7
99803.5
99796.1
99788.4
99780.5
99772.3
99763.8
99754.9
99745.7
99736.2
99726.2
99715.8
99705
99693.6
99681.7
99669.1
99655.9
99641.9
99627
99611.3
99594.5
99576.6
99557.5
99537.1
99515.4
99492.2
99467.6
99441.7
99414.9
99387.7
99361.2
99336.9
99316.4
99301.3
99295.6
99303.6
99335.9
99412.2
99578.6
99890.7
100504
99992.5
99993.1
99992.6
99991.8
99990.9
99989.9
99988.9
99987.8
99986.6
99985.4
99984.1
99982.8
99981.4
99979.9
99978.4
99976.8
99975.1
99973.4
99971.6
99969.7
99967.7
99965.7
99963.5
99961.3
99959.1
99956.7
99954.2
99951.7
99949.1
99946.4
99943.6
99940.7
99937.7
99934.7
99931.5
99928.2
99924.9
99921.4
99917.8
99914.1
99910.3
99906.4
99902.3
99898.1
99893.8
99889.4
99884.8
99880.1
99875.2
99870.2
99865
99859.7
99854.2
99848.5
99842.6
99836.6
99830.3
99823.8
99817.2
99810.3
99803.2
99795.8
99788.2
99780.3
99772.1
99763.7
99754.9
99745.7
99736.2
99726.3
99716
99705.2
99693.9
99682
99669.5
99656.2
99642.2
99627.4
99611.6
99594.8
99576.8
99557.6
99537
99515
99491.4
99466.4
99439.9
99412.2
99383.8
99355.8
99329.6
99306.5
99288.2
99274.9
99268.7
99275.2
99303.8
99381
99559.2
100110
99994.2
99994
99993.1
99992
99991
99989.9
99988.8
99987.7
99986.5
99985.3
99984
99982.6
99981.2
99979.7
99978.1
99976.5
99974.8
99973
99971.2
99969.3
99967.3
99965.2
99963.1
99960.9
99958.6
99956.2
99953.7
99951.2
99948.5
99945.8
99943
99940.1
99937.1
99934
99930.8
99927.5
99924.1
99920.6
99917
99913.3
99909.4
99905.5
99901.4
99897.2
99892.9
99888.4
99883.8
99879
99874.2
99869.1
99863.9
99858.6
99853
99847.4
99841.5
99835.4
99829.1
99822.7
99816
99809.1
99802
99794.7
99787.1
99779.2
99771.1
99762.7
99753.9
99744.9
99735.4
99725.6
99715.3
99704.6
99693.3
99681.5
99669
99655.9
99641.9
99627.1
99611.3
99594.4
99576.4
99557.1
99536.4
99514.2
99490.4
99464.9
99437.9
99409.4
99380
99350.6
99322.7
99297.2
99275.6
99257.5
99240
99225
99213.1
99206.7
99217.3
99609.6
99995.7
99994.7
99993.5
99992.3
99991.2
99990.1
99988.9
99987.8
99986.6
99985.3
99984
99982.6
99981.2
99979.7
99978.1
99976.5
99974.7
99973
99971.1
99969.2
99967.2
99965.1
99962.9
99960.7
99958.4
99956
99953.5
99950.9
99948.3
99945.5
99942.7
99939.8
99936.8
99933.7
99930.4
99927.1
99923.7
99920.2
99916.6
99912.8
99909
99905
99900.9
99896.7
99892.3
99887.8
99883.2
99878.4
99873.5
99868.4
99863.2
99857.8
99852.2
99846.4
99840.5
99834.4
99828.1
99821.6
99814.9
99808
99800.8
99793.5
99785.8
99777.9
99769.8
99761.3
99752.5
99743.4
99733.9
99724.1
99713.8
99703
99691.8
99679.9
99667.4
99654.2
99640.3
99625.4
99609.6
99592.7
99574.7
99555.3
99534.5
99512.2
99488.3
99462.6
99435.3
99406.3
99376.1
99345.6
99316.2
99289.1
99265.4
99245.3
99220.3
99191
99150.7
99080.6
98913.7
98973.6
99996.8
99995.3
99994
99992.7
99991.6
99990.4
99989.3
99988.1
99986.9
99985.6
99984.3
99982.9
99981.4
99979.9
99978.3
99976.7
99975
99973.2
99971.3
99969.4
99967.4
99965.3
99963.1
99960.9
99958.6
99956.2
99953.7
99951.1
99948.5
99945.7
99942.9
99940
99936.9
99933.8
99930.6
99927.3
99923.9
99920.3
99916.7
99912.9
99909.1
99905.1
99901
99896.7
99892.4
99887.9
99883.2
99878.4
99873.5
99868.4
99863.1
99857.7
99852.1
99846.3
99840.3
99834.2
99827.9
99821.3
99814.6
99807.7
99800.5
99793.1
99785.4
99777.4
99769.2
99760.7
99751.9
99742.8
99733.3
99723.3
99713
99702.2
99690.8
99678.9
99666.3
99653
99638.9
99624
99608
99591
99572.7
99553.1
99532.1
99509.5
99485.3
99459.2
99431.4
99401.8
99370.8
99339.1
99308.2
99279.3
99252.6
99229.4
99207.8
99174
99118.5
99011.2
98704.6
98119.4
99998.3
99996.7
99995.2
99993.9
99992.5
99991.3
99990
99988.7
99987.4
99986.1
99984.7
99983.3
99981.9
99980.3
99978.7
99977.1
99975.4
99973.6
99971.7
99969.8
99967.8
99965.7
99963.6
99961.3
99959
99956.6
99954.1
99951.6
99948.9
99946.2
99943.3
99940.4
99937.4
99934.3
99931.1
99927.8
99924.4
99920.8
99917.2
99913.5
99909.6
99905.6
99901.5
99897.3
99892.9
99888.4
99883.8
99879
99874
99869
99863.7
99858.3
99852.7
99846.9
99841
99834.8
99828.5
99822
99815.2
99808.2
99801
99793.6
99785.9
99778
99769.8
99761.3
99752.5
99743.3
99733.8
99723.9
99713.5
99702.7
99691.4
99679.4
99666.9
99653.6
99639.5
99624.5
99608.5
99591.4
99573.1
99553.5
99532.5
99509.8
99485.5
99459.4
99431.4
99401.7
99370.5
99338.9
99308.1
99279.4
99253.5
99228.1
99196.1
99154.3
99096
98979.1
98607.5
96975.2
100629
101854
102374
102668
102868
103018
103135
103229
103306
103370
103424
103468
103505
103535
103560
103579
103592
103600
103602
103599
100581
101569
102177
102557
102810
102991
103127
103233
103319
103388
103445
103492
103530
103560
103584
103602
103614
103620
103620
103613
100853
101596
102118
102497
102768
102967
103118
103234
103327
103401
103461
103509
103548
103578
103601
103618
103628
103633
103632
103621
101113
101716
102159
102503
102767
102968
103124
103246
103342
103419
103481
103530
103569
103598
103620
103635
103643
103646
103644
103628
101332
101844
102231
102543
102790
102987
103142
103265
103363
103442
103504
103553
103591
103619
103639
103651
103657
103658
103654
103632
101516
101961
102309
102595
102828
103016
103167
103290
103388
103466
103528
103576
103613
103639
103657
103667
103670
103669
103662
103636
101662
102061
102381
102647
102868
103048
103196
103316
103413
103491
103552
103600
103635
103659
103674
103681
103682
103678
103668
103638
101772
102138
102439
102692
102903
103079
103223
103341
103438
103515
103576
103622
103655
103677
103689
103694
103692
103686
103673
103640
101843
102190
102480
102725
102931
103103
103246
103363
103459
103535
103595
103640
103672
103692
103702
103704
103700
103693
103676
103642
101878
102216
102501
102742
102946
103117
103258
103375
103470
103546
103606
103651
103682
103701
103710
103711
103706
103697
103678
103645
101867
102206
102491
102733
102937
103108
103251
103368
103464
103540
103601
103646
103678
103698
103707
103708
103703
103693
103677
103645
101814
102164
102454
102701
102909
103082
103227
103346
103443
103521
103583
103630
103663
103685
103696
103699
103696
103688
103673
103642
101728
102099
102402
102658
102872
103050
103198
103318
103417
103497
103560
103608
103644
103668
103682
103687
103686
103681
103668
103633
101605
102009
102333
102603
102828
103013
103164
103288
103388
103469
103534
103584
103621
103648
103665
103673
103675
103672
103663
103630
101447
101899
102252
102543
102781
102974
103131
103257
103359
103441
103507
103558
103598
103627
103646
103658
103663
103662
103656
103627
101253
101772
102165
102484
102738
102940
103101
103229
103332
103414
103480
103533
103574
103605
103627
103641
103649
103650
103646
103623
101022
101635
102086
102438
102710
102918
103080
103208
103309
103390
103456
103508
103550
103583
103607
103624
103633
103637
103635
103618
100751
101506
102039
102428
102709
102915
103072
103194
103292
103370
103434
103486
103528
103561
103587
103605
103617
103623
103622
103611
100466
101474
102097
102489
102751
102939
103081
103193
103283
103357
103418
103468
103509
103542
103568
103588
103602
103608
103609
103601
100507
101762
102297
102601
102809
102965
103088
103188
103269
103338
103395
103442
103482
103515
103542
103563
103578
103587
103589
103586
103432
103430
103429
103429
103428
103427
103427
103427
103426
103426
103426
103426
103427
103427
103427
103428
103429
103429
103430
103432
103429
103427
103427
103426
103426
103426
103426
103425
103425
103425
103425
103425
103425
103426
103426
103426
103426
103427
103427
103429
103428
103426
103426
103426
103426
103426
103426
103426
103426
103426
103426
103426
103426
103426
103426
103426
103426
103426
103426
103428
103428
103427
103427
103427
103427
103427
103427
103427
103427
103426
103426
103427
103427
103427
103427
103427
103427
103427
103427
103428
103428
103426
103426
103426
103426
103426
103426
103426
103426
103426
103426
103426
103426
103426
103426
103426
103426
103426
103426
103428
103428
103426
103426
103426
103425
103425
103425
103425
103425
103425
103425
103425
103425
103425
103425
103425
103426
103426
103426
103428
103427
103425
103425
103425
103425
103425
103425
103425
103425
103425
103425
103425
103425
103425
103425
103425
103425
103425
103425
103427
103426
103425
103424
103424
103424
103424
103424
103424
103424
103424
103424
103424
103424
103424
103424
103424
103424
103424
103425
103426
103426
103424
103424
103424
103424
103424
103423
103423
103423
103423
103423
103423
103423
103423
103424
103424
103424
103424
103424
103426
103425
103423
103423
103423
103423
103423
103423
103423
103423
103423
103423
103423
103423
103423
103423
103423
103423
103423
103423
103425
103424
103423
103422
103422
103422
103422
103422
103422
103422
103422
103422
103422
103422
103422
103422
103422
103422
103422
103423
103424
103424
103422
103422
103422
103422
103421
103421
103421
103421
103421
103421
103421
103421
103421
103421
103422
103422
103422
103422
103424
103423
103421
103421
103421
103421
103421
103421
103421
103421
103421
103421
103421
103421
103421
103421
103421
103421
103421
103421
103423
103422
103420
103420
103420
103420
103420
103420
103420
103420
103420
103420
103420
103420
103420
103420
103420
103420
103420
103420
103422
103421
103420
103420
103419
103419
103419
103419
103419
103419
103419
103419
103419
103419
103419
103419
103419
103419
103420
103420
103421
103420
103419
103419
103419
103419
103419
103418
103418
103418
103418
103418
103418
103418
103418
103419
103419
103419
103419
103419
103420
103420
103418
103418
103418
103418
103418
103418
103418
103418
103418
103418
103418
103418
103418
103418
103418
103418
103418
103418
103420
103419
103417
103417
103417
103417
103417
103417
103417
103417
103417
103417
103417
103417
103417
103417
103417
103417
103417
103417
103419
103418
103417
103416
103416
103416
103416
103416
103416
103416
103416
103416
103416
103416
103416
103416
103416
103416
103416
103417
103418
103417
103416
103416
103416
103416
103415
103415
103415
103415
103415
103415
103415
103415
103415
103415
103416
103416
103416
103416
103417
103416
103415
103415
103415
103415
103415
103415
103415
103415
103415
103415
103415
103415
103415
103415
103415
103415
103415
103415
103416
103415
103414
103414
103414
103414
103414
103414
103414
103414
103414
103414
103414
103414
103414
103414
103414
103414
103414
103414
103415
103415
103413
103413
103413
103413
103413
103413
103413
103413
103413
103413
103413
103413
103413
103413
103413
103413
103413
103413
103415
103414
103413
103412
103412
103412
103412
103412
103412
103412
103412
103412
103412
103412
103412
103412
103412
103412
103412
103413
103414
103413
103412
103412
103412
103412
103411
103411
103411
103411
103411
103411
103411
103411
103411
103411
103412
103412
103412
103412
103413
103412
103411
103411
103411
103411
103411
103411
103411
103411
103411
103411
103411
103411
103411
103411
103411
103411
103411
103411
103412
103411
103410
103410
103410
103410
103410
103410
103410
103410
103410
103410
103410
103410
103410
103410
103410
103410
103410
103410
103411
103410
103409
103409
103409
103409
103409
103409
103409
103409
103409
103409
103409
103409
103409
103409
103409
103409
103409
103409
103410
103410
103409
103408
103408
103408
103408
103408
103408
103408
103408
103408
103408
103408
103408
103408
103408
103408
103408
103409
103410
103409
103408
103408
103408
103407
103407
103407
103407
103407
103407
103407
103407
103407
103407
103407
103407
103408
103408
103408
103409
103408
103407
103407
103407
103407
103407
103407
103407
103407
103407
103407
103407
103407
103407
103407
103407
103407
103407
103407
103408
103407
103406
103406
103406
103406
103406
103406
103406
103406
103406
103406
103406
103406
103406
103406
103406
103406
103406
103406
103407
103406
103405
103405
103405
103405
103405
103405
103405
103405
103405
103405
103405
103405
103405
103405
103405
103405
103405
103405
103406
103405
103405
103404
103404
103404
103404
103404
103404
103404
103404
103404
103404
103404
103404
103404
103404
103404
103404
103405
103405
103404
103404
103404
103404
103403
103403
103403
103403
103403
103403
103403
103403
103403
103403
103403
103403
103404
103404
103404
103404
103404
103403
103403
103403
103403
103403
103403
103403
103403
103403
103403
103403
103403
103403
103403
103403
103403
103403
103403
103404
103403
103402
103402
103402
103402
103402
103402
103402
103402
103402
103402
103402
103402
103402
103402
103402
103402
103402
103402
103403
103402
103401
103401
103401
103401
103401
103401
103401
103401
103401
103401
103401
103401
103401
103401
103401
103401
103401
103401
103402
103401
103401
103400
103400
103400
103400
103400
103400
103400
103400
103400
103400
103400
103400
103400
103400
103400
103400
103401
103401
103400
103400
103400
103400
103400
103400
103400
103400
103399
103399
103399
103399
103400
103400
103400
103400
103400
103400
103400
103400
103400
103399
103399
103399
103399
103399
103399
103399
103399
103399
103399
103399
103399
103399
103399
103399
103399
103399
103399
103400
103399
103398
103398
103398
103398
103398
103398
103398
103398
103398
103398
103398
103398
103398
103398
103398
103398
103398
103398
103399
103398
103397
103397
103397
103397
103397
103397
103397
103397
103397
103397
103397
103397
103397
103397
103397
103397
103397
103397
103398
103397
103397
103397
103397
103397
103397
103397
103397
103397
103396
103396
103397
103397
103397
103397
103397
103397
103397
103397
103397
103396
103396
103396
103396
103396
103396
103396
103396
103396
103396
103396
103396
103396
103396
103396
103396
103396
103396
103396
103396
103396
103395
103395
103395
103395
103395
103395
103395
103395
103395
103395
103395
103395
103395
103395
103395
103395
103395
103395
103396
103395
103395
103394
103394
103394
103394
103394
103394
103394
103394
103394
103394
103394
103394
103394
103394
103394
103394
103395
103395
103394
103394
103394
103394
103394
103394
103394
103394
103394
103394
103394
103394
103394
103394
103394
103394
103394
103394
103394
103394
103393
103393
103393
103393
103393
103393
103393
103393
103393
103393
103393
103393
103393
103393
103393
103393
103393
103393
103393
103393
103393
103392
103392
103392
103392
103392
103392
103392
103392
103392
103392
103392
103392
103392
103392
103392
103392
103392
103392
103393
103392
103392
103392
103392
103392
103392
103392
103392
103392
103392
103392
103392
103392
103392
103392
103392
103392
103392
103392
103392
103391
103391
103391
103391
103391
103391
103391
103391
103391
103391
103391
103391
103391
103391
103391
103391
103391
103391
103391
103391
103391
103390
103390
103390
103390
103390
103390
103390
103390
103390
103390
103390
103390
103390
103390
103390
103390
103390
103390
103391
103390
103390
103390
103390
103390
103390
103390
103390
103390
103390
103390
103390
103390
103390
103390
103390
103390
103390
103390
103390
103389
103389
103389
103389
103389
103389
103389
103389
103389
103389
103389
103389
103389
103389
103389
103389
103389
103389
103389
103389
103389
103388
103388
103388
103388
103388
103388
103388
103388
103388
103388
103388
103388
103388
103388
103388
103388
103388
103388
103389
103388
103388
103388
103388
103388
103388
103388
103388
103388
103388
103388
103388
103388
103388
103388
103388
103388
103388
103388
103388
103388
103387
103387
103387
103387
103387
103387
103387
103387
103387
103387
103387
103387
103387
103387
103387
103387
103387
103387
103388
103387
103386
103386
103386
103387
103387
103387
103387
103387
103387
103387
103387
103387
103387
103387
103387
103386
103386
103386
103387
103387
103386
103386
103386
103386
103386
103386
103386
103386
103386
103386
103386
103386
103386
103386
103386
103386
103386
103386
103387
103386
103385
103385
103385
103385
103385
103385
103385
103385
103385
103385
103385
103385
103385
103385
103385
103385
103385
103385
103386
103386
103385
103385
103385
103385
103385
103385
103385
103385
103385
103385
103385
103385
103385
103385
103385
103385
103385
103385
103385
103385
103384
103384
103384
103384
103384
103384
103384
103384
103384
103384
103384
103384
103384
103384
103384
103384
103384
103384
103385
103385
103384
103384
103384
103384
103384
103384
103384
103384
103384
103384
103384
103384
103384
103384
103384
103384
103384
103384
103384
103384
103383
103383
103383
103383
103383
103383
103383
103383
103383
103383
103383
103383
103383
103383
103383
103383
103383
103383
103384
103384
103383
103382
103382
103382
103382
103382
103383
103383
103383
103383
103383
103383
103382
103382
103382
103382
103382
103383
103383
103383
103382
103382
103382
103382
103382
103382
103382
103382
103382
103382
103382
103382
103382
103382
103382
103382
103382
103382
103383
103383
103381
103381
103381
103381
103381
103381
103381
103381
103381
103381
103381
103381
103381
103381
103381
103381
103381
103381
103383
103382
103381
103380
103380
103380
103381
103381
103381
103381
103381
103381
103381
103381
103381
103381
103381
103380
103380
103381
103382
103382
103380
103380
103380
103380
103380
103380
103380
103380
103380
103380
103380
103380
103380
103380
103380
103380
103380
103380
103382
103381
103380
103379
103379
103379
103379
103379
103380
103380
103380
103380
103380
103380
103379
103379
103379
103379
103379
103380
103381
103380
103379
103378
103378
103378
103378
103379
103379
103379
103379
103379
103379
103379
103379
103379
103379
103378
103379
103379
103380
103379
103378
103377
103377
103377
103378
103378
103378
103378
103378
103378
103378
103378
103378
103378
103378
103378
103378
103378
103379
103378
103377
103376
103377
103377
103377
103377
103378
103378
103379
103379
103378
103378
103377
103377
103377
103377
103377
103377
103378
103377
103376
103375
103376
103376
103376
103376
103377
103377
103378
103378
103377
103377
103376
103376
103376
103376
103376
103376
103377
103376
103375
103374
103374
103374
103374
103374
103374
103374
103374
103374
103374
103374
103375
103375
103375
103375
103375
103376
103376
103375
103373
103373
103373
103373
103373
103373
103374
103374
103375
103375
103375
103374