/*--------------------------------*- C++ -*----------------------------------*\
| =========                 |                                                 |
| \\      /  F ield         | OpenFOAM: The Open Source CFD Toolbox           |
|  \\    /   O peration     | Version:  2.1.0                                 |
|   \\  /    A nd           | Web:      www.OpenFOAM.org                      |
|    \\/     M anipulation  |                                                 |
\*---------------------------------------------------------------------------*/
FoamFile
{
    version     2.0;
    format      ascii;
    class       surfaceScalarField;
    location    "0.15";
    object      phi;
}
// * * * * * * * * * * * * * * * * * * * * * * * * * * * * * * * * * * * * * //

dimensions      [0 3 -1 0 0 0 0];

internalField   nonuniform List<scalar> 
12460
(
-2.35738e-05
3.86479e-09
-2.356e-05
-1.38171e-08
-2.35371e-05
-2.28674e-08
-2.35076e-05
-2.95059e-08
-2.34726e-05
-3.4948e-08
-2.34328e-05
-3.981e-08
-2.33886e-05
-4.42234e-08
-2.33401e-05
-4.84883e-08
-2.32876e-05
-5.25688e-08
-2.32311e-05
-5.64941e-08
-2.31709e-05
-6.01623e-08
-2.31072e-05
-6.36914e-08
-2.30402e-05
-6.70361e-08
-2.29699e-05
-7.03122e-08
-2.28964e-05
-7.34677e-08
-2.28198e-05
-7.65663e-08
-2.27402e-05
-7.958e-08
-2.26577e-05
-8.25935e-08
-2.25721e-05
-8.55426e-08
-2.24836e-05
-8.84943e-08
-2.23922e-05
-9.13934e-08
-2.22979e-05
-9.4299e-08
-2.22007e-05
-9.71791e-08
-2.21007e-05
-1.0007e-07
-2.19977e-05
-1.02955e-07
-2.18918e-05
-1.05882e-07
-2.1783e-05
-1.08821e-07
-2.16712e-05
-1.11803e-07
-2.15564e-05
-1.14813e-07
-2.14385e-05
-1.17878e-07
-2.13175e-05
-1.2099e-07
-2.11934e-05
-1.24171e-07
-2.10659e-05
-1.27416e-07
-2.09352e-05
-1.3074e-07
-2.08011e-05
-1.34141e-07
-2.06634e-05
-1.3765e-07
-2.05222e-05
-1.41263e-07
-2.03771e-05
-1.45004e-07
-2.02283e-05
-1.48877e-07
-2.00754e-05
-1.529e-07
-1.99183e-05
-1.57082e-07
-1.97569e-05
-1.61426e-07
-1.95909e-05
-1.65937e-07
-1.94203e-05
-1.70618e-07
-1.92448e-05
-1.75468e-07
-1.90644e-05
-1.80486e-07
-1.88787e-05
-1.85671e-07
-1.86877e-05
-1.91022e-07
-1.84912e-05
-1.96432e-07
-1.82893e-05
-2.01926e-07
-1.80815e-05
-2.07773e-07
-1.78676e-05
-2.13959e-07
-1.76474e-05
-2.20214e-07
-1.7421e-05
-2.2631e-07
-1.71888e-05
-2.32202e-07
-1.69508e-05
-2.38019e-07
-1.67069e-05
-2.43878e-07
-1.64571e-05
-2.49816e-07
-1.62013e-05
-2.55817e-07
-1.59394e-05
-2.61896e-07
-1.56713e-05
-2.68086e-07
-1.5397e-05
-2.74377e-07
-1.51162e-05
-2.80791e-07
-1.48288e-05
-2.87345e-07
-1.45347e-05
-2.94078e-07
-1.42337e-05
-3.0101e-07
-1.39256e-05
-3.08141e-07
-1.36101e-05
-3.15455e-07
-1.32872e-05
-3.22942e-07
-1.29566e-05
-3.30584e-07
-1.26182e-05
-3.38407e-07
-1.22717e-05
-3.4651e-07
-1.19167e-05
-3.54945e-07
-1.1553e-05
-3.63711e-07
-1.11802e-05
-3.72861e-07
-1.07977e-05
-3.82521e-07
-1.04048e-05
-3.92872e-07
-1.00006e-05
-4.0419e-07
-9.58375e-06
-4.16844e-07
-9.15242e-06
-4.31327e-07
-8.70417e-06
-4.4825e-07
-8.23582e-06
-4.6835e-07
-7.74342e-06
-4.92401e-07
-7.22235e-06
-5.21068e-07
-6.66733e-06
-5.55027e-07
-6.07256e-06
-5.94765e-07
-5.43228e-06
-6.4028e-07
-4.74175e-06
-6.90527e-07
-3.99957e-06
-7.42187e-07
-3.21154e-06
-7.88028e-07
-2.39796e-06
-8.13582e-07
-1.60909e-06
-7.88869e-07
-9.40519e-07
-6.68574e-07
-5.10386e-07
-4.30134e-07
-3.80051e-07
-1.30336e-07
-6.19382e-07
2.39332e-07
-1.49425e-06
8.74867e-07
-3.69821e-06
2.20392e-06
-8.96118e-06
5.26279e-06
1.45754e-05
-2.35372e-05
-2.90996e-05
-8.43785e-09
-2.90586e-05
-5.47525e-08
-2.90041e-05
-7.74073e-08
-2.89427e-05
-9.0948e-08
-2.88773e-05
-1.00353e-07
-2.88093e-05
-1.07809e-07
-2.87395e-05
-1.14006e-07
-2.86684e-05
-1.19568e-07
-2.85962e-05
-1.24755e-07
-2.85228e-05
-1.29885e-07
-2.84481e-05
-1.34878e-07
-2.83719e-05
-1.39865e-07
-2.82942e-05
-1.44786e-07
-2.82147e-05
-1.49744e-07
-2.81335e-05
-1.54683e-07
-2.80505e-05
-1.59606e-07
-2.79656e-05
-1.64509e-07
-2.78787e-05
-1.69473e-07
-2.77898e-05
-1.74404e-07
-2.76989e-05
-1.79378e-07
-2.7606e-05
-1.84304e-07
-2.75111e-05
-1.89268e-07
-2.7414e-05
-1.94214e-07
-2.73149e-05
-1.99183e-07
-2.72137e-05
-2.04149e-07
-2.71104e-05
-2.09195e-07
-2.70049e-05
-2.1427e-07
-2.68973e-05
-2.19409e-07
-2.67876e-05
-2.24593e-07
-2.66756e-05
-2.29863e-07
-2.65614e-05
-2.352e-07
-2.64449e-05
-2.40645e-07
-2.63261e-05
-2.46194e-07
-2.6205e-05
-2.51872e-07
-2.60815e-05
-2.57673e-07
-2.59555e-05
-2.63639e-07
-2.5827e-05
-2.69764e-07
-2.56959e-05
-2.76075e-07
-2.55622e-05
-2.82582e-07
-2.54258e-05
-2.89302e-07
-2.52866e-05
-2.96257e-07
-2.51446e-05
-3.0346e-07
-2.49996e-05
-3.10931e-07
-2.48515e-05
-3.18685e-07
-2.47003e-05
-3.26721e-07
-2.45457e-05
-3.35056e-07
-2.43877e-05
-3.43704e-07
-2.4226e-05
-3.52665e-07
-2.40606e-05
-3.61829e-07
-2.38915e-05
-3.71038e-07
-2.3719e-05
-3.80256e-07
-2.35435e-05
-3.89454e-07
-2.33651e-05
-3.98615e-07
-2.31837e-05
-4.07754e-07
-2.29991e-05
-4.16793e-07
-2.28114e-05
-4.25747e-07
-2.26205e-05
-4.34707e-07
-2.24266e-05
-4.4372e-07
-2.22297e-05
-4.52795e-07
-2.20296e-05
-4.61925e-07
-2.18266e-05
-4.71105e-07
-2.16207e-05
-4.80314e-07
-2.14119e-05
-4.89567e-07
-2.12003e-05
-4.98901e-07
-2.09861e-05
-5.08356e-07
-2.07691e-05
-5.17943e-07
-2.05496e-05
-5.27674e-07
-2.03275e-05
-5.37544e-07
-2.01029e-05
-5.47554e-07
-1.98758e-05
-5.57681e-07
-1.96462e-05
-5.67982e-07
-1.94141e-05
-5.78674e-07
-1.91791e-05
-5.89909e-07
-1.89411e-05
-6.0171e-07
-1.86998e-05
-6.14201e-07
-1.84547e-05
-6.27613e-07
-1.82053e-05
-6.42274e-07
-1.79508e-05
-6.58641e-07
-1.76903e-05
-6.77307e-07
-1.74226e-05
-6.99034e-07
-1.71462e-05
-7.24728e-07
-1.6859e-05
-7.5547e-07
-1.6559e-05
-7.92473e-07
-1.62432e-05
-8.36799e-07
-1.59088e-05
-8.89447e-07
-1.55525e-05
-9.51051e-07
-1.51715e-05
-1.02137e-06
-1.47635e-05
-1.0985e-06
-1.43287e-05
-1.17702e-06
-1.38709e-05
-1.24582e-06
-1.34003e-05
-1.28418e-06
-1.29347e-05
-1.25445e-06
-1.25036e-05
-1.09971e-06
-1.21806e-05
-7.5322e-07
-1.21495e-05
-1.61476e-07
-1.25907e-05
6.80505e-07
-1.38015e-05
2.08553e-06
-1.62788e-05
4.681e-06
-2.10135e-05
9.99704e-06
2.49366e-05
-3.13754e-05
-3.22022e-05
-2.99907e-08
-3.2161e-05
-9.59843e-08
-3.21084e-05
-1.30037e-07
-3.20493e-05
-1.50002e-07
-3.19868e-05
-1.62893e-07
-3.19223e-05
-1.72255e-07
-3.18568e-05
-1.79499e-07
-3.17908e-05
-1.85647e-07
-3.17243e-05
-1.91216e-07
-3.16574e-05
-1.96777e-07
-3.159e-05
-2.02323e-07
-3.15218e-05
-2.08002e-07
-3.14529e-05
-2.13751e-07
-3.13829e-05
-2.19673e-07
-3.13119e-05
-2.25681e-07
-3.12398e-05
-2.31788e-07
-3.11664e-05
-2.37914e-07
-3.10917e-05
-2.44115e-07
-3.10158e-05
-2.50299e-07
-3.09387e-05
-2.5654e-07
-3.08602e-05
-2.62748e-07
-3.07805e-05
-2.68995e-07
-3.06995e-05
-2.75242e-07
-3.06172e-05
-2.81487e-07
-3.05336e-05
-2.87729e-07
-3.04487e-05
-2.94064e-07
-3.03625e-05
-3.00429e-07
-3.02751e-05
-3.06846e-07
-3.01864e-05
-3.13304e-07
-3.00964e-05
-3.19832e-07
-3.00052e-05
-3.26409e-07
-2.99128e-05
-3.33084e-07
-2.98191e-05
-3.3985e-07
-2.97243e-05
-3.46735e-07
-2.96282e-05
-3.53723e-07
-2.9531e-05
-3.60859e-07
-2.94326e-05
-3.68134e-07
-2.93331e-05
-3.75567e-07
-2.92325e-05
-3.83171e-07
-2.91309e-05
-3.90948e-07
-2.90282e-05
-3.9892e-07
-2.89246e-05
-4.07088e-07
-2.88201e-05
-4.15473e-07
-2.87147e-05
-4.24084e-07
-2.86085e-05
-4.32914e-07
-2.85016e-05
-4.41974e-07
-2.8394e-05
-4.51257e-07
-2.82859e-05
-4.60723e-07
-2.81775e-05
-4.70312e-07
-2.80686e-05
-4.79941e-07
-2.79594e-05
-4.8943e-07
-2.78502e-05
-4.98634e-07
-2.77412e-05
-5.07625e-07
-2.76323e-05
-5.16631e-07
-2.75235e-05
-5.25618e-07
-2.74148e-05
-5.34461e-07
-2.73063e-05
-5.43158e-07
-2.71983e-05
-5.5171e-07
-2.7091e-05
-5.60116e-07
-2.69846e-05
-5.6835e-07
-2.68793e-05
-5.76361e-07
-2.67756e-05
-5.8409e-07
-2.66736e-05
-5.91511e-07
-2.65739e-05
-5.98648e-07
-2.64767e-05
-6.05527e-07
-2.63825e-05
-6.12102e-07
-2.62919e-05
-6.18358e-07
-2.62051e-05
-6.24268e-07
-2.61229e-05
-6.29814e-07
-2.60456e-05
-6.34929e-07
-2.5974e-05
-6.39626e-07
-2.59084e-05
-6.44225e-07
-2.58493e-05
-6.48996e-07
-2.57971e-05
-6.53945e-07
-2.57521e-05
-6.59236e-07
-2.57145e-05
-6.65193e-07
-2.56845e-05
-6.72276e-07
-2.5662e-05
-6.81127e-07
-2.56467e-05
-6.9257e-07
-2.56381e-05
-7.07641e-07
-2.56353e-05
-7.2754e-07
-2.56372e-05
-7.53626e-07
-2.56422e-05
-7.87435e-07
-2.56485e-05
-8.30493e-07
-2.56539e-05
-8.84099e-07
-2.5656e-05
-9.48976e-07
-2.56527e-05
-1.02464e-06
-2.56427e-05
-1.10856e-06
-2.56258e-05
-1.19398e-06
-2.5604e-05
-1.2676e-06
-2.55823e-05
-1.30595e-06
-2.5568e-05
-1.26888e-06
-2.55722e-05
-1.0956e-06
-2.56243e-05
-7.01259e-07
-2.57747e-05
-1.12341e-08
-2.61958e-05
1.10147e-06
-2.70741e-05
2.96349e-06
-2.87858e-05
6.39235e-06
-3.2024e-05
1.32348e-05
2.91995e-05
-3.62878e-05
-3.50047e-05
-5.36187e-08
-3.49727e-05
-1.2795e-07
-3.49333e-05
-1.69504e-07
-3.48891e-05
-1.9417e-07
-3.48423e-05
-2.09658e-07
-3.47943e-05
-2.20278e-07
-3.47457e-05
-2.2809e-07
-3.46969e-05
-2.34489e-07
-3.4648e-05
-2.40125e-07
-3.45991e-05
-2.45653e-07
-3.45503e-05
-2.51137e-07
-3.45015e-05
-2.56756e-07
-3.44528e-05
-2.62476e-07
-3.44041e-05
-2.6842e-07
-3.43553e-05
-2.74437e-07
-3.43065e-05
-2.80622e-07
-3.42575e-05
-2.86863e-07
-3.42084e-05
-2.93191e-07
-3.41592e-05
-2.99515e-07
-3.41099e-05
-3.05883e-07
-3.40604e-05
-3.12231e-07
-3.40108e-05
-3.18584e-07
-3.39611e-05
-3.24949e-07
-3.39114e-05
-3.31241e-07
-3.38616e-05
-3.3751e-07
-3.38118e-05
-3.43854e-07
-3.3762e-05
-3.50205e-07
-3.37123e-05
-3.56558e-07
-3.36627e-05
-3.62917e-07
-3.36132e-05
-3.69275e-07
-3.3564e-05
-3.75628e-07
-3.35151e-05
-3.82005e-07
-3.34666e-05
-3.88398e-07
-3.34185e-05
-3.94827e-07
-3.33709e-05
-4.01287e-07
-3.3324e-05
-4.07797e-07
-3.32778e-05
-4.14342e-07
-3.32324e-05
-4.20938e-07
-3.3188e-05
-4.27583e-07
-3.31446e-05
-4.34274e-07
-3.31026e-05
-4.41009e-07
-3.30619e-05
-4.47772e-07
-3.30228e-05
-4.54566e-07
-3.29855e-05
-4.61374e-07
-3.29502e-05
-4.68176e-07
-3.29172e-05
-4.74966e-07
-3.28868e-05
-4.81697e-07
-3.28592e-05
-4.8831e-07
-3.28348e-05
-4.94751e-07
-3.28136e-05
-5.01133e-07
-3.27955e-05
-5.07527e-07
-3.27804e-05
-5.13737e-07
-3.27684e-05
-5.19625e-07
-3.27597e-05
-5.25321e-07
-3.27545e-05
-5.30817e-07
-3.2753e-05
-5.35963e-07
-3.27554e-05
-5.40701e-07
-3.27622e-05
-5.44994e-07
-3.27735e-05
-5.48798e-07
-3.27897e-05
-5.52085e-07
-3.28113e-05
-5.54806e-07
-3.28385e-05
-5.56871e-07
-3.28718e-05
-5.58223e-07
-3.29116e-05
-5.58894e-07
-3.29581e-05
-5.58949e-07
-3.30119e-05
-5.5835e-07
-3.30732e-05
-5.57074e-07
-3.31423e-05
-5.55107e-07
-3.32197e-05
-5.5248e-07
-3.33054e-05
-5.49163e-07
-3.34e-05
-5.4507e-07
-3.35034e-05
-5.40791e-07
-3.36156e-05
-5.3687e-07
-3.37362e-05
-5.33316e-07
-3.3865e-05
-5.30434e-07
-3.40015e-05
-5.28694e-07
-3.4145e-05
-5.28745e-07
-3.42947e-05
-5.31407e-07
-3.44496e-05
-5.37704e-07
-3.46084e-05
-5.48842e-07
-3.47698e-05
-5.6621e-07
-3.49321e-05
-5.91313e-07
-3.50937e-05
-6.25798e-07
-3.52531e-05
-6.71205e-07
-3.54085e-05
-7.28713e-07
-3.55587e-05
-7.98767e-07
-3.57029e-05
-8.80466e-07
-3.58411e-05
-9.70442e-07
-3.5974e-05
-1.06119e-06
-3.6103e-05
-1.13861e-06
-3.62303e-05
-1.17872e-06
-3.63561e-05
-1.1433e-06
-3.64785e-05
-9.7335e-07
-3.65955e-05
-5.84354e-07
-3.67155e-05
1.08523e-07
-3.69311e-05
1.31682e-06
-3.73828e-05
3.41483e-06
-3.82297e-05
7.23882e-06
-3.96455e-05
1.46501e-05
2.9119e-05
-3.95658e-05
-3.78967e-05
-7.08173e-08
-3.78774e-05
-1.47228e-07
-3.78561e-05
-1.90822e-07
-3.78332e-05
-2.17077e-07
-3.78096e-05
-2.33229e-07
-3.77861e-05
-2.43722e-07
-3.77632e-05
-2.51023e-07
-3.7741e-05
-2.56663e-07
-3.77197e-05
-2.61422e-07
-3.76995e-05
-2.65935e-07
-3.76802e-05
-2.70383e-07
-3.76621e-05
-2.74855e-07
-3.76452e-05
-2.79429e-07
-3.76294e-05
-2.84155e-07
-3.76149e-05
-2.88928e-07
-3.76018e-05
-2.93777e-07
-3.75899e-05
-2.9872e-07
-3.75794e-05
-3.03736e-07
-3.75701e-05
-3.08745e-07
-3.75623e-05
-3.13756e-07
-3.75558e-05
-3.18734e-07
-3.75507e-05
-3.2368e-07
-3.7547e-05
-3.28596e-07
-3.75449e-05
-3.33343e-07
-3.75444e-05
-3.38e-07
-3.75456e-05
-3.42702e-07
-3.75484e-05
-3.47359e-07
-3.7553e-05
-3.51955e-07
-3.75595e-05
-3.5648e-07
-3.75678e-05
-3.60909e-07
-3.75782e-05
-3.65252e-07
-3.75907e-05
-3.69524e-07
-3.76054e-05
-3.73718e-07
-3.76224e-05
-3.77845e-07
-3.76417e-05
-3.81914e-07
-3.76636e-05
-3.85925e-07
-3.76881e-05
-3.89859e-07
-3.77153e-05
-3.93734e-07
-3.77453e-05
-3.97534e-07
-3.77784e-05
-4.01259e-07
-3.78145e-05
-4.04896e-07
-3.78538e-05
-4.08435e-07
-3.78965e-05
-4.11875e-07
-3.79427e-05
-4.15198e-07
-3.79925e-05
-4.18391e-07
-3.8046e-05
-4.21454e-07
-3.81033e-05
-4.24349e-07
-3.81646e-05
-4.27034e-07
-3.82298e-05
-4.295e-07
-3.82992e-05
-4.31817e-07
-3.83727e-05
-4.34014e-07
-3.84504e-05
-4.35982e-07
-3.85326e-05
-4.37503e-07
-3.86191e-05
-4.38738e-07
-3.87102e-05
-4.39766e-07
-3.88058e-05
-4.40395e-07
-3.89059e-05
-4.40587e-07
-3.90105e-05
-4.40322e-07
-3.91197e-05
-4.39588e-07
-3.92335e-05
-4.38365e-07
-3.93517e-05
-4.36621e-07
-3.94742e-05
-4.34277e-07
-3.96012e-05
-4.31245e-07
-3.97325e-05
-4.27583e-07
-3.9868e-05
-4.2345e-07
-4.00076e-05
-4.18799e-07
-4.01511e-05
-4.13601e-07
-4.02983e-05
-4.07832e-07
-4.04493e-05
-4.01532e-07
-4.06038e-05
-3.94689e-07
-4.07618e-05
-3.87011e-07
-4.09239e-05
-3.78698e-07
-4.10902e-05
-3.70548e-07
-4.12606e-05
-3.62928e-07
-4.14348e-05
-3.56257e-07
-4.16125e-05
-3.5106e-07
-4.17932e-05
-3.48025e-07
-4.19766e-05
-3.48018e-07
-4.21622e-05
-3.52126e-07
-4.23494e-05
-3.61638e-07
-4.25376e-05
-3.78026e-07
-4.27261e-05
-4.02837e-07
-4.29142e-05
-4.37701e-07
-4.31012e-05
-4.84196e-07
-4.32866e-05
-5.43447e-07
-4.34696e-05
-6.15787e-07
-4.36499e-05
-7.00243e-07
-4.38272e-05
-7.93207e-07
-4.40013e-05
-8.8711e-07
-4.41716e-05
-9.68444e-07
-4.43358e-05
-1.01464e-06
-4.44885e-05
-9.90717e-07
-4.46169e-05
-8.45188e-07
-4.47e-05
-5.01419e-07
-4.47353e-05
1.43644e-07
-4.47469e-05
1.32817e-06
-4.47579e-05
3.42546e-06
-4.47659e-05
7.24638e-06
-4.44588e-05
1.43425e-05
2.62965e-05
-4.16369e-05
-4.09966e-05
-7.6568e-08
-4.0997e-05
-1.4685e-07
-4.10006e-05
-1.87214e-07
-4.10065e-05
-2.11209e-07
-4.10142e-05
-2.25444e-07
-4.1024e-05
-2.33978e-07
-4.10356e-05
-2.39382e-07
-4.10492e-05
-2.43069e-07
-4.10648e-05
-2.45867e-07
-4.10824e-05
-2.48336e-07
-4.1102e-05
-2.5075e-07
-4.11237e-05
-2.53148e-07
-4.11475e-05
-2.55624e-07
-4.11735e-05
-2.58177e-07
-4.12016e-05
-2.60779e-07
-4.1232e-05
-2.63409e-07
-4.12646e-05
-2.66091e-07
-4.12996e-05
-2.68795e-07
-4.13369e-05
-2.71449e-07
-4.13766e-05
-2.74042e-07
-4.14188e-05
-2.76543e-07
-4.14635e-05
-2.78972e-07
-4.15107e-05
-2.81357e-07
-4.15606e-05
-2.83438e-07
-4.16133e-05
-2.85313e-07
-4.16688e-05
-2.87253e-07
-4.1727e-05
-2.89102e-07
-4.17881e-05
-2.90863e-07
-4.18521e-05
-2.92519e-07
-4.19189e-05
-2.9405e-07
-4.19887e-05
-2.95485e-07
-4.20614e-05
-2.96838e-07
-4.2137e-05
-2.98116e-07
-4.22155e-05
-2.99338e-07
-4.22969e-05
-3.00512e-07
-4.23812e-05
-3.01656e-07
-4.24683e-05
-3.02759e-07
-4.25582e-05
-3.03845e-07
-4.26508e-05
-3.04901e-07
-4.27461e-05
-3.05935e-07
-4.28441e-05
-3.06954e-07
-4.29446e-05
-3.0794e-07
-4.30475e-05
-3.08906e-07
-4.31529e-05
-3.09839e-07
-4.32605e-05
-3.10732e-07
-4.33704e-05
-3.11584e-07
-4.34824e-05
-3.12362e-07
-4.35964e-05
-3.13044e-07
-4.37123e-05
-3.13624e-07
-4.383e-05
-3.14131e-07
-4.39494e-05
-3.14571e-07
-4.40705e-05
-3.14879e-07
-4.41932e-05
-3.14807e-07
-4.43177e-05
-3.14271e-07
-4.44441e-05
-3.13339e-07
-4.45725e-05
-3.12019e-07
-4.47027e-05
-3.10339e-07
-4.48347e-05
-3.08286e-07
-4.49685e-05
-3.05836e-07
-4.51039e-05
-3.02959e-07
-4.52409e-05
-2.99611e-07
-4.53795e-05
-2.95704e-07
-4.55197e-05
-2.91054e-07
-4.56616e-05
-2.85682e-07
-4.58051e-05
-2.79906e-07
-4.59503e-05
-2.73607e-07
-4.60972e-05
-2.66706e-07
-4.62459e-05
-2.59163e-07
-4.63965e-05
-2.50948e-07
-4.65491e-05
-2.4205e-07
-4.67038e-05
-2.32348e-07
-4.68606e-05
-2.21915e-07
-4.70193e-05
-2.11806e-07
-4.718e-05
-2.02246e-07
-4.73427e-05
-1.93605e-07
-4.75073e-05
-1.86439e-07
-4.76739e-05
-1.81471e-07
-4.78423e-05
-1.79623e-07
-4.80124e-05
-1.82031e-07
-4.8184e-05
-1.90048e-07
-4.83568e-05
-2.05174e-07
-4.85308e-05
-2.28927e-07
-4.87056e-05
-2.62866e-07
-4.88811e-05
-3.08729e-07
-4.90571e-05
-3.67575e-07
-4.92333e-05
-4.3961e-07
-4.94096e-05
-5.23977e-07
-4.95856e-05
-6.17252e-07
-4.97604e-05
-7.12434e-07
-4.99315e-05
-7.974e-07
-5.00939e-05
-8.52324e-07
-5.02379e-05
-8.46853e-07
-5.03434e-05
-7.39887e-07
-5.03782e-05
-4.6675e-07
-5.03178e-05
8.30913e-08
-5.01323e-05
1.14241e-06
-4.97445e-05
3.03743e-06
-4.89936e-05
6.49507e-06
-4.72927e-05
1.26412e-05
2.1824e-05
-4.28206e-05
-4.41733e-05
-6.90049e-08
-4.41972e-05
-1.22885e-07
-4.423e-05
-1.54488e-07
-4.42684e-05
-1.72807e-07
-4.43108e-05
-1.83034e-07
-4.43565e-05
-1.8828e-07
-4.44049e-05
-1.90905e-07
-4.4456e-05
-1.92024e-07
-4.45094e-05
-1.92423e-07
-4.45652e-05
-1.92533e-07
-4.46234e-05
-1.92593e-07
-4.46838e-05
-1.92688e-07
-4.47466e-05
-1.92899e-07
-4.48116e-05
-1.93186e-07
-4.48788e-05
-1.93537e-07
-4.49482e-05
-1.93969e-07
-4.50199e-05
-1.94462e-07
-4.50937e-05
-1.95e-07
-4.51696e-05
-1.95531e-07
-4.52476e-05
-1.96028e-07
-4.53277e-05
-1.96476e-07
-4.54097e-05
-1.96894e-07
-4.54938e-05
-1.97325e-07
-4.55797e-05
-1.97541e-07
-4.56676e-05
-1.97431e-07
-4.57577e-05
-1.97138e-07
-4.58501e-05
-1.96705e-07
-4.59447e-05
-1.96214e-07
-4.60416e-05
-1.95664e-07
-4.61406e-05
-1.9505e-07
-4.62416e-05
-1.94415e-07
-4.63447e-05
-1.93769e-07
-4.64497e-05
-1.93133e-07
-4.65565e-05
-1.92544e-07
-4.6665e-05
-1.9201e-07
-4.67751e-05
-1.91547e-07
-4.68867e-05
-1.91161e-07
-4.69997e-05
-1.90878e-07
-4.71139e-05
-1.90682e-07
-4.72292e-05
-1.90577e-07
-4.73456e-05
-1.90575e-07
-4.74629e-05
-1.90654e-07
-4.7581e-05
-1.90815e-07
-4.76998e-05
-1.91044e-07
-4.78192e-05
-1.91326e-07
-4.79391e-05
-1.91649e-07
-4.80595e-05
-1.91978e-07
-4.81803e-05
-1.92293e-07
-4.83013e-05
-1.92573e-07
-4.84226e-05
-1.92825e-07
-4.85442e-05
-1.92997e-07
-4.86661e-05
-1.9298e-07
-4.87882e-05
-1.92758e-07
-4.89101e-05
-1.92303e-07
-4.9032e-05
-1.91496e-07
-4.91537e-05
-1.90285e-07
-4.92753e-05
-1.88694e-07
-4.93969e-05
-1.8671e-07
-4.95185e-05
-1.84299e-07
-4.964e-05
-1.81414e-07
-4.97616e-05
-1.78003e-07
-4.98833e-05
-1.74001e-07
-5.00052e-05
-1.69119e-07
-5.01277e-05
-1.632e-07
-5.02507e-05
-1.56976e-07
-5.03741e-05
-1.50168e-07
-5.04982e-05
-1.42634e-07
-5.0623e-05
-1.34334e-07
-5.07487e-05
-1.25236e-07
-5.08754e-05
-1.15353e-07
-5.1003e-05
-1.04777e-07
-5.1132e-05
-9.29346e-08
-5.12619e-05
-8.18678e-08
-5.13928e-05
-7.13292e-08
-5.1525e-05
-6.14601e-08
-5.16586e-05
-5.28123e-08
-5.1794e-05
-4.61348e-08
-5.19312e-05
-4.23699e-08
-5.20706e-05
-4.26557e-08
-5.22123e-05
-4.8353e-08
-5.23565e-05
-6.09878e-08
-5.25034e-05
-8.20785e-08
-5.26533e-05
-1.12972e-07
-5.28063e-05
-1.55724e-07
-5.29625e-05
-2.114e-07
-5.31222e-05
-2.79985e-07
-5.32851e-05
-3.61173e-07
-5.34504e-05
-4.51991e-07
-5.36164e-05
-5.46435e-07
-5.37795e-05
-6.34342e-07
-5.39324e-05
-6.99496e-07
-5.40612e-05
-7.18193e-07
-5.41431e-05
-6.58043e-07
-5.41355e-05
-4.74543e-07
-5.39919e-05
-6.06624e-08
-5.36305e-05
7.80936e-07
-5.29045e-05
2.31117e-06
-5.15189e-05
5.10927e-06
-4.87882e-05
9.91028e-06
1.6422e-05
-4.33864e-05
-4.71134e-05
-4.89683e-08
-4.71558e-05
-8.05402e-08
-4.72102e-05
-1.00078e-07
-4.72722e-05
-1.10771e-07
-4.73393e-05
-1.15949e-07
-4.74099e-05
-1.17715e-07
-4.74831e-05
-1.17711e-07
-4.75584e-05
-1.16693e-07
-4.76355e-05
-1.15273e-07
-4.77144e-05
-1.13689e-07
-4.77948e-05
-1.12147e-07
-4.78769e-05
-1.10666e-07
-4.79604e-05
-1.09393e-07
-4.80453e-05
-1.08213e-07
-4.81317e-05
-1.07132e-07
-4.82195e-05
-1.06169e-07
-4.83087e-05
-1.05311e-07
-4.83992e-05
-1.04505e-07
-4.8491e-05
-1.03738e-07
-4.8584e-05
-1.02975e-07
-4.86783e-05
-1.02217e-07
-4.87737e-05
-1.01453e-07
-4.88705e-05
-1.00567e-07
-4.89684e-05
-9.96096e-08
-4.90672e-05
-9.86436e-08
-4.91668e-05
-9.75709e-08
-4.9267e-05
-9.64408e-08
-4.93679e-05
-9.53394e-08
-4.94693e-05
-9.42608e-08
-4.95712e-05
-9.32098e-08
-4.96734e-05
-9.22197e-08
-4.97758e-05
-9.13039e-08
-4.98785e-05
-9.04926e-08
-4.99812e-05
-8.98205e-08
-5.00839e-05
-8.92862e-08
-5.01866e-05
-8.88915e-08
-5.02891e-05
-8.86626e-08
-5.03913e-05
-8.86031e-08
-5.04933e-05
-8.86939e-08
-5.0595e-05
-8.89305e-08
-5.06962e-05
-8.93118e-08
-5.07971e-05
-8.98159e-08
-5.08975e-05
-9.04321e-08
-5.09974e-05
-9.11365e-08
-5.10968e-05
-9.19082e-08
-5.11957e-05
-9.27235e-08
-5.12941e-05
-9.35489e-08
-5.13921e-05
-9.4357e-08
-5.14895e-05
-9.51197e-08
-5.15865e-05
-9.58211e-08
-5.16831e-05
-9.64005e-08
-5.17793e-05
-9.67601e-08
-5.18751e-05
-9.69695e-08
-5.19704e-05
-9.70585e-08
-5.2065e-05
-9.68386e-08
-5.21591e-05
-9.61729e-08
-5.22528e-05
-9.50283e-08
-5.23461e-05
-9.33846e-08
-5.24392e-05
-9.12002e-08
-5.25322e-05
-8.84242e-08
-5.26252e-05
-8.49987e-08
-5.27183e-05
-8.08897e-08
-5.28116e-05
-7.58562e-08
-5.29058e-05
-6.90337e-08
-5.30005e-05
-6.22254e-08
-5.3096e-05
-5.47123e-08
-5.31923e-05
-4.62726e-08
-5.32898e-05
-3.68574e-08
-5.33886e-05
-2.64978e-08
-5.34887e-05
-1.52079e-08
-5.35897e-05
-3.78279e-09
-5.36938e-05
1.11418e-08
-5.37999e-05
2.42344e-08
-5.3908e-05
3.67452e-08
-5.40183e-05
4.8901e-08
-5.41313e-05
6.01086e-08
-5.4247e-05
6.96004e-08
-5.43658e-05
7.6443e-08
-5.4488e-05
7.95268e-08
-5.46139e-05
7.75449e-08
-5.47439e-05
6.90384e-08
-5.48785e-05
5.24665e-08
-5.50178e-05
2.6279e-08
-5.51624e-05
-1.10886e-08
-5.53128e-05
-6.10128e-08
-5.54687e-05
-1.24091e-07
-5.56294e-05
-2.00552e-07
-5.57935e-05
-2.87892e-07
-5.59587e-05
-3.81302e-07
-5.61199e-05
-4.73177e-07
-5.6268e-05
-5.51408e-07
-5.63867e-05
-5.99565e-07
-5.64503e-05
-5.94476e-07
-5.64154e-05
-5.0957e-07
-5.62111e-05
-2.64968e-07
-5.57118e-05
2.81564e-07
-5.47247e-05
1.32391e-06
-5.28567e-05
3.24116e-06
-4.94199e-05
6.47333e-06
1.0551e-05
-4.3549e-05
-4.95119e-05
-1.69038e-08
-4.95659e-05
-2.65375e-08
-4.96326e-05
-3.33658e-08
-4.9707e-05
-3.63593e-08
-4.9786e-05
-3.6901e-08
-4.98677e-05
-3.60835e-08
-4.99508e-05
-3.45907e-08
-5.00347e-05
-3.27462e-08
-5.01191e-05
-3.09084e-08
-5.02037e-05
-2.91315e-08
-5.02883e-05
-2.75377e-08
-5.03728e-05
-2.60893e-08
-5.04573e-05
-2.4892e-08
-5.05417e-05
-2.3843e-08
-5.06259e-05
-2.2931e-08
-5.07099e-05
-2.21565e-08
-5.07937e-05
-2.1519e-08
-5.08773e-05
-2.09557e-08
-5.09606e-05
-2.04558e-08
-5.10435e-05
-2.0004e-08
-5.11262e-05
-1.95807e-08
-5.12084e-05
-1.91683e-08
-5.12903e-05
-1.86666e-08
-5.13718e-05
-1.81747e-08
-5.14526e-05
-1.78262e-08
-5.15326e-05
-1.75535e-08
-5.16117e-05
-1.73359e-08
-5.16899e-05
-1.7186e-08
-5.17671e-05
-1.70735e-08
-5.18433e-05
-1.69794e-08
-5.19186e-05
-1.69172e-08
-5.1993e-05
-1.69221e-08
-5.20664e-05
-1.70233e-08
-5.2139e-05
-1.72329e-08
-5.22108e-05
-1.75576e-08
-5.22817e-05
-1.79895e-08
-5.23518e-05
-1.85531e-08
-5.24211e-05
-1.92386e-08
-5.24898e-05
-2.0025e-08
-5.25578e-05
-2.09074e-08
-5.26253e-05
-2.18717e-08
-5.26922e-05
-2.29012e-08
-5.27586e-05
-2.3975e-08
-5.28247e-05
-2.50673e-08
-5.28905e-05
-2.61547e-08
-5.2956e-05
-2.72089e-08
-5.30213e-05
-2.81963e-08
-5.30866e-05
-2.90892e-08
-5.31519e-05
-2.98636e-08
-5.32172e-05
-3.04845e-08
-5.32827e-05
-3.08906e-08
-5.33484e-05
-3.10392e-08
-5.34144e-05
-3.09547e-08
-5.34809e-05
-3.06025e-08
-5.35479e-05
-2.98144e-08
-5.36156e-05
-2.84882e-08
-5.3684e-05
-2.65866e-08
-5.37533e-05
-2.40876e-08
-5.38236e-05
-2.09481e-08
-5.38949e-05
-1.71053e-08
-5.39674e-05
-1.25286e-08
-5.40412e-05
-7.125e-09
-5.41156e-05
-1.39031e-09
-5.41927e-05
8.0817e-09
-5.42713e-05
1.63473e-08
-5.43515e-05
2.54824e-08
-5.44335e-05
3.57627e-08
-5.45176e-05
4.71841e-08
-5.46038e-05
5.97377e-08
-5.46922e-05
7.31649e-08
-5.47837e-05
8.7755e-08
-5.48769e-05
1.04329e-07
-5.49733e-05
1.20628e-07
-5.50733e-05
1.36737e-07
-5.5177e-05
1.5259e-07
-5.52846e-05
1.67673e-07
-5.53962e-05
1.8126e-07
-5.55122e-05
1.92442e-07
-5.56328e-05
2.00124e-07
-5.57583e-05
2.03018e-07
-5.58889e-05
1.99684e-07
-5.6025e-05
1.88504e-07
-5.61664e-05
1.67633e-07
-5.63134e-05
1.36001e-07
-5.64668e-05
9.23169e-08
-5.66261e-05
3.5238e-08
-5.67914e-05
-3.52643e-08
-5.69614e-05
-1.17895e-07
-5.71325e-05
-2.10274e-07
-5.72986e-05
-3.07113e-07
-5.74495e-05
-4.00491e-07
-5.75678e-05
-4.81273e-07
-5.76246e-05
-5.37677e-07
-5.75795e-05
-5.5475e-07
-5.73491e-05
-4.95347e-07
-5.67792e-05
-2.88392e-07
-5.56256e-05
1.70216e-07
-5.34507e-05
1.06622e-06
-4.95782e-05
2.6008e-06
4.47034e-06
-4.34975e-05
-5.0982e-05
2.30429e-08
-5.1038e-05
2.93963e-08
-5.11054e-05
3.40963e-08
-5.11793e-05
3.7501e-08
-5.12562e-05
4.00688e-08
-5.13342e-05
4.18885e-08
-5.1412e-05
4.31961e-08
-5.14889e-05
4.41398e-08
-5.15645e-05
4.47206e-08
-5.16386e-05
4.49892e-08
-5.17112e-05
4.50048e-08
-5.17821e-05
4.48025e-08
-5.18514e-05
4.4401e-08
-5.1919e-05
4.38255e-08
-5.19851e-05
4.31583e-08
-5.20497e-05
4.24048e-08
-5.21128e-05
4.15575e-08
-5.21744e-05
4.0685e-08
-5.22347e-05
3.98142e-08
-5.22936e-05
3.89426e-08
-5.23513e-05
3.81107e-08
-5.24078e-05
3.73446e-08
-5.24632e-05
3.66691e-08
-5.25174e-05
3.60301e-08
-5.25706e-05
3.53746e-08
-5.26228e-05
3.4719e-08
-5.26742e-05
3.4065e-08
-5.27248e-05
3.33934e-08
-5.27747e-05
3.27571e-08
-5.28238e-05
3.22185e-08
-5.28725e-05
3.17572e-08
-5.29207e-05
3.12895e-08
-5.29685e-05
3.07832e-08
-5.3016e-05
3.02589e-08
-5.30633e-05
2.96943e-08
-5.31104e-05
2.90835e-08
-5.31573e-05
2.84162e-08
-5.32043e-05
2.77058e-08
-5.32513e-05
2.69675e-08
-5.32984e-05
2.62022e-08
-5.33457e-05
2.5428e-08
-5.33932e-05
2.4655e-08
-5.34411e-05
2.39071e-08
-5.34894e-05
2.32057e-08
-5.35381e-05
2.25751e-08
-5.35874e-05
2.20434e-08
-5.36372e-05
2.16406e-08
-5.36877e-05
2.13974e-08
-5.37389e-05
2.1335e-08
-5.37909e-05
2.1495e-08
-5.38437e-05
2.19286e-08
-5.38974e-05
2.26595e-08
-5.3952e-05
2.36901e-08
-5.40077e-05
2.50814e-08
-5.40645e-05
2.70079e-08
-5.41226e-05
2.95579e-08
-5.41819e-05
3.27522e-08
-5.42426e-05
3.66092e-08
-5.43047e-05
4.11753e-08
-5.43684e-05
4.65228e-08
-5.44336e-05
5.27269e-08
-5.45004e-05
5.96889e-08
-5.45697e-05
6.78733e-08
-5.46398e-05
7.81491e-08
-5.47121e-05
8.86529e-08
-5.47867e-05
1.00083e-07
-5.48636e-05
1.1271e-07
-5.4943e-05
1.26598e-07
-5.5025e-05
1.41731e-07
-5.51099e-05
1.58026e-07
-5.51979e-05
1.75752e-07
-5.52885e-05
1.94966e-07
-5.53825e-05
2.14618e-07
-5.54803e-05
2.34477e-07
-5.5582e-05
2.5429e-07
-5.56879e-05
2.73563e-07
-5.57982e-05
2.91606e-07
-5.59133e-05
3.07552e-07
-5.60335e-05
3.20337e-07
-5.61592e-05
3.28711e-07
-5.62908e-05
3.3125e-07
-5.64286e-05
3.26342e-07
-5.65733e-05
3.12306e-07
-5.67251e-05
2.8776e-07
-5.68836e-05
2.5083e-07
-5.70483e-05
1.99969e-07
-5.72187e-05
1.35082e-07
-5.73924e-05
5.58801e-08
-5.75669e-05
-3.57731e-08
-5.77367e-05
-1.37348e-07
-5.78906e-05
-2.46631e-07
-5.80105e-05
-3.61349e-07
-5.80675e-05
-4.80641e-07
-5.8018e-05
-6.04276e-07
-5.77804e-05
-7.32976e-07
-5.7195e-05
-8.73777e-07
-5.5989e-05
-1.03581e-06
-5.36919e-05
-1.23088e-06
-4.96187e-05
-1.47239e-06
-1.69716e-06
-4.34512e-05
-5.08345e-05
6.14255e-08
-5.08885e-05
8.34675e-08
-5.09541e-05
9.96543e-08
-5.10261e-05
1.09539e-07
-5.11014e-05
1.15344e-07
-5.11779e-05
1.18401e-07
-5.12545e-05
1.19785e-07
-5.13305e-05
1.20088e-07
-5.14055e-05
1.19707e-07
-5.14792e-05
1.1877e-07
-5.15518e-05
1.17527e-07
-5.16229e-05
1.15977e-07
-5.16928e-05
1.14254e-07
-5.17613e-05
1.12334e-07
-5.18285e-05
1.10359e-07
-5.18944e-05
1.08325e-07
-5.19591e-05
1.06231e-07
-5.20225e-05
1.04134e-07
-5.20848e-05
1.02078e-07
-5.21459e-05
1.00064e-07
-5.22059e-05
9.81291e-08
-5.22649e-05
9.63025e-08
-5.23228e-05
9.45815e-08
-5.23797e-05
9.29376e-08
-5.24357e-05
9.13523e-08
-5.24908e-05
8.98217e-08
-5.25451e-05
8.83488e-08
-5.25985e-05
8.68464e-08
-5.26512e-05
8.54047e-08
-5.27032e-05
8.41955e-08
-5.27546e-05
8.31524e-08
-5.28054e-05
8.21481e-08
-5.28558e-05
8.11657e-08
-5.29058e-05
8.02298e-08
-5.29554e-05
7.93205e-08
-5.30047e-05
7.84266e-08
-5.30539e-05
7.75669e-08
-5.31029e-05
7.67411e-08
-5.31519e-05
7.59482e-08
-5.32009e-05
7.5195e-08
-5.325e-05
7.45047e-08
-5.32992e-05
7.38895e-08
-5.33487e-05
7.33667e-08
-5.33984e-05
7.29574e-08
-5.34485e-05
7.26844e-08
-5.34991e-05
7.25788e-08
-5.35501e-05
7.26653e-08
-5.36017e-05
7.29782e-08
-5.36539e-05
7.35411e-08
-5.37068e-05
7.43932e-08
-5.37604e-05
7.55752e-08
-5.38149e-05
7.71096e-08
-5.38702e-05
7.89984e-08
-5.39264e-05
8.13238e-08
-5.39837e-05
8.4287e-08
-5.40421e-05
8.79897e-08
-5.41018e-05
9.24095e-08
-5.41627e-05
9.75522e-08
-5.4225e-05
1.03475e-07
-5.42888e-05
1.10264e-07
-5.4354e-05
1.17979e-07
-5.4421e-05
1.26665e-07
-5.44899e-05
1.36727e-07
-5.45601e-05
1.4834e-07
-5.46322e-05
1.60786e-07
-5.47064e-05
1.74338e-07
-5.47829e-05
1.89188e-07
-5.48617e-05
2.05419e-07
-5.4943e-05
2.23037e-07
-5.50271e-05
2.42051e-07
-5.51139e-05
2.62602e-07
-5.52035e-05
2.84594e-07
-5.52964e-05
3.07487e-07
-5.53929e-05
3.30953e-07
-5.54932e-05
3.5464e-07
-5.55977e-05
3.78063e-07
-5.57067e-05
4.00574e-07
-5.58205e-05
4.21348e-07
-5.59395e-05
4.39371e-07
-5.60643e-05
4.53429e-07
-5.61951e-05
4.62127e-07
-5.63327e-05
4.63886e-07
-5.64774e-05
4.57072e-07
-5.66297e-05
4.40033e-07
-5.67897e-05
4.10823e-07
-5.69574e-05
3.67658e-07
-5.71311e-05
3.08819e-07
-5.73081e-05
2.3287e-07
-5.74839e-05
1.40036e-07
-5.76525e-05
3.12304e-08
-5.78052e-05
-9.39746e-08
-5.79246e-05
-2.41942e-07
-5.79819e-05
-4.23364e-07
-5.79329e-05
-6.53267e-07
-5.76959e-05
-9.69991e-07
-5.7123e-05
-1.44665e-06
-5.59437e-05
-2.21507e-06
-5.36823e-05
-3.49233e-06
-4.96587e-05
-5.49596e-06
-7.82305e-06
-4.35328e-05
-4.9186e-05
8.90097e-08
-4.92343e-05
1.3178e-07
-4.92942e-05
1.59513e-07
-4.93612e-05
1.76556e-07
-4.94325e-05
1.86667e-07
-4.95064e-05
1.92322e-07
-4.9582e-05
1.95332e-07
-4.96585e-05
1.96646e-07
-4.97358e-05
1.96969e-07
-4.98136e-05
1.96567e-07
-4.98919e-05
1.958e-07
-4.99706e-05
1.94676e-07
-5.00497e-05
1.93339e-07
-5.01291e-05
1.91818e-07
-5.0209e-05
1.90215e-07
-5.02892e-05
1.88545e-07
-5.03698e-05
1.86805e-07
-5.04507e-05
1.85015e-07
-5.05318e-05
1.83239e-07
-5.06132e-05
1.81481e-07
-5.06949e-05
1.79758e-07
-5.07767e-05
1.781e-07
-5.08586e-05
1.76482e-07
-5.09405e-05
1.74897e-07
-5.10225e-05
1.73337e-07
-5.11045e-05
1.71785e-07
-5.11864e-05
1.7025e-07
-5.12682e-05
1.68652e-07
-5.13498e-05
1.6702e-07
-5.1431e-05
1.65429e-07
-5.15117e-05
1.63789e-07
-5.15916e-05
1.62057e-07
-5.16707e-05
1.60304e-07
-5.17491e-05
1.58567e-07
-5.18266e-05
1.56851e-07
-5.19033e-05
1.55158e-07
-5.19793e-05
1.53514e-07
-5.20544e-05
1.51913e-07
-5.21289e-05
1.50364e-07
-5.22026e-05
1.48893e-07
-5.22756e-05
1.47521e-07
-5.23479e-05
1.46264e-07