/*--------------------------------*- C++ -*----------------------------------*\
| =========                 |                                                 |
| \\      /  F ield         | OpenFOAM: The Open Source CFD Toolbox           |
|  \\    /   O peration     | Version:  2.1.0                                 |
|   \\  /    A nd           | Web:      www.OpenFOAM.org                      |
|    \\/     M anipulation  |                                                 |
\*---------------------------------------------------------------------------*/
FoamFile
{
    version     2.0;
    format      ascii;
    class       volScalarField;
    location    "0.15";
    object      rho;
}
// * * * * * * * * * * * * * * * * * * * * * * * * * * * * * * * * * * * * * //

dimensions      [1 -3 0 0 0 0 0];

internalField   nonuniform List<scalar> 
6400
(
1000
1000
1000
1000
1000
1000
1000
1000
1000
1000
1000
1000
1000
1000
1000
1000
1000
1000
1000
1000
1000
1000
1000
1000
1000
1000
1000
1000
1000
1000
1000
1000
1000
1000
1000
1000
1000
1000
1000
1000
1000
1000
1000
1000
1000
1000
1000
1000
1000
1000
1000
1000
1000
1000
1000
1000
1000
1000
1000
1000
1000
1000
1000
1000
1000
1000
1000
1000
1000
1000
1000
1000
1000
1000
1000
1000
1000
1000
1000
1000
1000
1000
1000
1000
1000
1000
1000
1000
1000
1000
1000
1000
1000
1000
1000
1000
999.998
999.986
999.956
999.917
1000
1000
1000
1000
1000
1000
1000
1000
1000
1000
1000
1000
1000
1000
1000
1000
1000
1000
1000
1000
1000
1000
1000
1000
1000
1000
1000
1000
1000
1000
1000
1000
1000
1000
1000
1000
1000
1000
1000
1000
1000
1000
1000
1000
1000
1000
1000
1000
1000
1000
1000
1000
1000
1000
1000
1000
1000
1000
1000
1000
1000
1000
1000
1000
1000
1000
1000
1000
1000
1000
1000
1000
1000
1000
1000
1000
1000
1000
1000
1000
1000
1000
1000
1000
1000
1000
999.999
999.999
999.999
999.999
999.998
999.997
999.996
999.995
999.992
999.986
999.977
999.962
999.939
999.912
1000
1000
1000
1000
1000
1000
1000
1000
1000
1000
1000
1000
1000
1000
1000
1000
1000
1000
1000
1000
1000
1000
1000
1000
1000
1000
1000
1000
1000
1000
1000
1000
1000
1000
1000
1000
1000
1000
1000
1000
1000
1000
1000
1000
1000
1000
1000
1000
1000
1000
1000
1000
1000
1000
1000
1000
1000
1000
1000
1000
1000
1000
1000
1000
1000
1000
1000
1000
1000
1000
1000
1000
1000
1000
1000
1000
1000
1000
1000
1000
1000
999.999
999.999
999.999
999.999
999.998
999.998
999.997
999.996
999.995
999.993
999.991
999.988
999.984
999.978
999.971
999.961
999.949
999.932
999.913
1000
1000
1000
1000
1000
1000
1000
1000
1000
1000
1000
1000
1000
1000
1000
1000
1000
1000
1000
1000
1000
1000
1000
1000
1000
1000
1000
1000
1000
1000
1000
1000
1000
1000
1000
1000
1000
1000
1000
1000
1000
1000
1000
1000
1000
1000
1000
1000
1000
1000
1000
1000
1000
1000
1000
1000
1000
1000
1000
1000
1000
1000
1000
1000
1000
1000
1000
1000
1000
1000
1000
1000
1000
1000
1000
1000
1000
999.999
999.999
999.999
999.999
999.999
999.998
999.998
999.997
999.996
999.995
999.994
999.992
999.99
999.988
999.985
999.981
999.976
999.971
999.964
999.956
999.946
999.934
999.921
1000
1000
1000
1000
1000
1000
1000
1000
1000
1000
1000
1000
1000
1000
1000
1000
1000
1000
1000
1000
1000
1000
1000
1000
1000
1000
1000
1000
1000
1000
1000
1000
1000
1000
1000
1000
1000
1000
1000
1000
1000
1000
1000
1000
1000
1000
1000
1000
1000
1000
1000
1000
1000
1000
1000
1000
1000
1000
1000
1000
1000
1000
1000
1000
1000
1000
1000
1000
1000
1000
1000
1000
1000
1000
1000
999.999
999.999
999.999
999.999
999.999
999.998
999.998
999.997
999.996
999.996
999.995
999.993
999.992
999.99
999.988
999.986
999.983
999.979
999.975
999.97
999.965
999.958
999.951
999.943
999.935
1000
1000
1000
1000
1000
1000
1000
1000
1000
1000
1000
1000
1000
1000
1000
1000
1000
1000
1000
1000
1000
1000
1000
1000
1000
1000
1000
1000
1000
1000
1000
1000
1000
1000
1000
1000
1000
1000
1000
1000
1000
1000
1000
1000
1000
1000
1000
1000
1000
1000
1000
1000
1000
1000
1000
1000
1000
1000
1000
1000
1000
1000
1000
1000
1000
1000
1000
1000
1000
1000
1000
1000
1000
1000
999.999
999.999
999.999
999.999
999.999
999.998
999.998
999.997
999.997
999.996
999.996
999.995
999.994
999.992
999.991
999.989
999.987
999.985
999.982
999.979
999.975
999.971
999.966
999.961
999.956
999.952
1000
1000
1000
1000
1000
1000
1000
1000
1000
1000
1000
1000
1000
1000
1000
1000
1000
1000
1000
1000
1000
1000
1000
1000
1000
1000
1000
1000
1000
1000
1000
1000
1000
1000
1000
1000
1000
1000
1000
1000
1000
1000
1000
1000
1000
1000
1000
1000
1000
1000
1000
1000
1000
1000
1000
1000
1000
1000
1000
1000
1000
1000
1000
1000
1000
1000
1000
1000
1000
1000
1000
1000
1000
1000
999.999
999.999
999.999
999.999
999.999
999.999
999.998
999.998
999.998
999.997
999.997
999.996
999.995
999.994
999.993
999.992
999.991
999.989
999.987
999.985
999.982
999.98
999.977
999.973
999.971
999.969
1000
1000
1000
1000
1000
1000
1000
1000
1000
1000
1000
1000
1000
1000
1000
1000
1000
1000
1000
1000
1000
1000
1000
1000
1000
1000
1000
1000
1000
1000
1000
1000
1000
1000
1000
1000
1000
1000
1000
1000
1000
1000
1000
1000
1000
1000
1000
1000
1000
1000
1000
1000
1000
1000
1000
1000
1000
1000
1000
1000
1000
1000
1000
1000
1000
1000
1000
1000
1000
1000
1000
1000
1000
1000
1000
1000
1000
999.999
999.999
999.999
999.999
999.999
999.999
999.998
999.998
999.998
999.997
999.997
999.996
999.996
999.995
999.994
999.993
999.992
999.99
999.989
999.987
999.985
999.984
999.984
1000
1000
1000
1000
1000
1000
1000
1000
1000
1000
1000
1000
1000
1000
1000
1000
1000
1000
1000
1000
1000
1000
1000
1000
1000
1000
1000
1000
1000
1000
1000
1000
1000
1000
1000
1000
1000
1000
1000
1000
1000
1000
1000
1000
1000
1000
1000
1000
1000
1000
1000
1000
1000
1000
1000
1000
1000
1000
1000
1000
1000
1000
1000
1000
1000
1000
1000
1000
1000
1000
1000
1000
1000
1000
1000
1000
1000
1000
1000
1000
1000
999.999
999.999
999.999
999.999
999.999
999.999
999.999
999.998
999.998
999.998
999.997
999.997
999.996
999.996
999.995
999.995
999.994
999.993
999.993
1000
1000
1000
1000
1000
1000
1000
1000
1000
1000
1000
1000
1000
1000
1000
1000
1000
1000
1000
1000
1000
1000
1000
1000
1000
1000
1000
1000
1000
1000
1000
1000
1000
1000
1000
1000
1000
1000
1000
1000
1000
1000
1000
1000
1000
1000
1000
1000
1000
1000
1000
1000
1000
1000
1000
1000
1000
1000
1000
1000
1000
1000
1000
1000
1000
1000
1000
1000
1000
1000
1000
1000
1000
1000
1000
1000
1000
1000
1000
1000
1000
1000
1000
1000
1000
1000
1000
1000
999.999
999.999
999.999
999.999
999.999
999.999
999.999
999.999
999.999
999.999
999.998
999.998
1000
1000
1000
1000
1000
1000
1000
1000
1000
1000
1000
1000
1000
1000
1000
1000
1000
1000
1000
1000
1000
1000
1000
1000
1000
1000
1000
1000
1000
1000
1000
1000
1000
1000
1000
1000
1000
1000
1000
1000
1000
1000
1000
1000
1000
1000
1000
1000
1000
1000
1000
1000
1000
1000
1000
1000
1000
1000
1000
1000
1000
1000
1000
1000
1000
1000
1000
1000
1000
1000
1000
1000
1000
1000
1000
1000
1000
1000
1000
1000
1000
1000
1000
1000
1000
1000
1000
1000
1000
1000
1000
1000
1000
1000
1000
1000
1000
1000
1000
1000
1000
1000
1000
1000
1000
1000
1000
1000
1000
1000
1000
1000
1000
1000
1000
1000
1000
1000
1000
1000
1000
1000
1000
1000
1000
1000
1000
1000
1000
1000
1000
1000
1000
1000
1000
1000
1000
1000
1000
1000
1000
1000
1000
1000
1000
1000
1000
1000
1000
1000
1000
1000
1000
1000
1000
1000
1000
1000
1000
1000
1000
1000
1000
1000
1000
1000
1000
1000
1000
1000
1000
1000
1000
1000
1000
1000
1000
1000
1000
1000
1000
1000
1000
1000
1000
1000
1000
1000
1000
1000
1000
1000
1000
1000
1000
1000
1000
1000
1000
1000
1000
1000
1000
1000
1000
1000
1000
1000
1000
1000
1000
1000
1000
1000
1000
1000
1000
1000
1000
1000
1000
1000
1000
1000
1000
1000
1000
1000
1000
1000
1000
1000
1000
1000
1000
1000
1000
1000
1000
1000
1000
1000
1000
1000
1000
1000
1000
1000
1000
1000
1000
1000
1000
1000
1000
1000
1000
1000
1000
1000
1000
1000
1000
1000
1000
1000
1000
1000
1000
1000
1000
1000
1000
1000
1000
1000
1000
1000
1000
1000
1000
1000
1000
1000
1000
1000
1000
1000
1000
1000
1000
1000
1000
1000
1000
1000
1000
1000
1000
1000
1000
1000
1000
1000
1000
1000
1000
1000
1000
1000
1000
1000
1000
1000
1000
1000
1000
1000
1000
1000
1000
1000
1000
1000
1000
1000
1000
1000
1000
1000
1000
1000
1000
1000
1000
1000
1000
1000
1000
1000
1000
1000
1000
1000
1000
1000
1000
1000
1000
1000
1000
1000
1000
1000
1000
1000
1000
1000
1000
1000
1000
1000
1000
1000
1000
1000
1000
1000
1000
1000
1000
1000
1000
1000
1000
1000
1000
1000
1000
1000
1000
1000
1000
1000
1000
1000
1000
1000
1000
1000
1000
1000
1000
1000
1000
1000
1000
1000
1000
1000
1000
1000
1000
1000
1000
1000
1000
1000
1000
1000
1000
1000
1000
1000
1000
1000
1000
1000
1000
1000
1000
1000
1000
1000
1000
1000
1000
1000
1000
1000
1000
1000
1000
1000
1000
1000
1000
1000
1000
1000
1000
1000
1000
1000
1000
1000
1000
1000
1000
1000
1000
1000
1000
1000
1000
1000
1000
1000
1000
1000
1000
1000
1000
1000
1000
1000
1000
1000
1000
1000
1000
1000
1000
1000
1000
1000
1000
1000
1000
1000
1000
1000
1000
1000
1000
1000
1000
1000
1000
1000
1000
1000
1000
1000
1000
1000
1000
1000
1000
1000
1000
1000
1000
1000
1000
1000
1000
1000
1000
1000
1000
1000
1000
1000
1000
1000
1000
1000
1000
1000
1000
1000
1000
1000
1000
1000
1000
1000
1000
1000
1000
1000
1000
1000
1000
1000
1000
1000
1000
1000
1000
1000
1000
1000
1000
1000
1000
1000
1000
1000
1000
1000
1000
1000
1000
1000
1000
1000
1000
1000
1000
1000
1000
1000
1000
1000
1000
1000
1000
1000
1000
1000
1000
1000
1000
1000
1000
1000
1000
1000
1000
1000
1000
1000
1000
1000
1000
1000
1000
1000
1000
1000
1000
1000
1000
1000
1000
1000
1000
1000
1000
1000
1000
1000
1000
1000
1000
1000
1000
1000
1000
1000
1000
1000
1000
1000
1000
1000
1000
1000
1000
1000
1000
1000
1000
1000
1000
1000
1000
1000
1000
1000
1000
1000
1000
1000
1000
1000
1000
1000
1000
1000
1000
1000
1000
1000
1000
1000
1000
1000
1000
1000
1000
1000
1000
1000
1000
1000
1000
1000
1000
1000
1000
1000
1000
1000
1000
1000
1000
1000
1000
1000
1000
1000
1000
1000
1000
1000
1000
1000
1000
1000
1000
1000
1000
1000
1000
1000
1000
1000
1000
1000
1000
1000
1000
1000
1000
1000
1000
1000
1000
1000
1000
1000
1000
1000
1000
1000
1000
1000
1000
1000
1000
1000
1000
1000
1000
1000
1000
1000
1000
1000
1000
1000
1000
1000
1000
1000
1000
1000
1000
1000
1000
1000
1000
1000
1000
1000
1000
1000
1000
1000
1000
1000
1000
1000
1000
1000
1000
1000
1000
1000
1000
1000
1000
1000
1000
1000
1000
1000
1000
1000
1000
1000
1000
1000
1000
1000
1000
1000
1000
1000
1000
1000
1000
1000
1000
1000
1000
1000
1000
1000
1000
1000
1000
1000
1000
1000
1000
1000
1000
1000
1000
1000
1000
1000
1000
1000
1000
1000
1000
1000
1000
1000
1000
1000
1000
1000
1000
1000
1000
1000
1000
1000
1000
1000
1000
1000
1000
1000
1000
1000
1000
1000
1000
1000
1000
1000
1000
1000
1000
1000
1000
1000
1000
1000
1000
1000
1000
1000
1000
1000
1000
1000
1000
1000
1000
1000
1000
1000
1000
1000
1000
1000
1000
1000
1000
1000
1000
1000
1000
1000
1000
1000
1000
1000
1000
1000
1000
1000
1000
1000
1000
1000
1000
1000
1000
1000
1000
1000
1000
1000
1000
1000
1000
1000
1000
1000
1000
1000
1000
1000
1000
1000
1000
1000
1000
1000
1000
1000
1000
1000
1000
1000
1000
1000
1000
1000
1000
1000
1000
1000
1000
1000
1000
1000
1000
1000
1000
1000
1000
1000
1000
1000
1000
1000
1000
1000
1000
1000
1000
1000
1000
1000
1000
1000
1000
1000
1000
1000
1000
1000
1000
1000
1000
1000
1000
1000
1000
1000
1000
1000
1000
1000
1000
1000
1000
1000
1000
1000
1000
1000
1000
1000
1000
1000
1000
1000
1000
1000
1000
1000
1000
1000
1000
1000
1000
1000
1000
1000
1000
1000
1000
1000
1000
1000
1000
1000
1000
1000
1000
1000
1000
1000
1000
1000
1000
1000
1000
1000
999.891
999.848
999.852
999.871
999.889
999.902
999.912
999.918
999.923
999.926
999.929
999.93
999.932
999.934
999.938
999.944
999.955
999.97
999.987
999.999
999.889
999.868
999.878
999.896
999.911
999.922
999.93
999.936
999.94
999.943
999.945
999.947
999.949
999.951
999.955
999.961
999.97
999.981
999.992
999.999
999.896
999.891
999.904
999.919
999.931
999.94
999.946
999.951
999.954
999.957
999.959
999.961
999.963
999.965
999.969
999.974
999.98
999.988
999.996
1000
999.912
999.916
999.928
999.939
999.948
999.955
999.96
999.963
999.966
999.968
999.97
999.972
999.974
999.976
999.979
999.983
999.988
999.993
999.998
1000
999.933
999.939
999.949
999.957
999.963
999.968
999.972
999.974
999.976
999.978
999.98
999.981
999.983
999.985
999.987
999.99
999.993
999.997
999.999
1000
999.954
999.96
999.966
999.972
999.976
999.979
999.981
999.983
999.985
999.986
999.987
999.988
999.99
999.991
999.993
999.995
999.997
999.998
1000
1000
999.972
999.976
999.98
999.983
999.985
999.987
999.989
999.99
999.991
999.992
999.993
999.993
999.994
999.995
999.996
999.997
999.998
999.999
1000
1000
999.986
999.988
999.99
999.991
999.992
999.993
999.994
999.995
999.995
999.996
999.996
999.997
999.997
999.998
999.998
999.999
999.999
1000
1000
1000
999.994
999.995
999.996
999.997
999.997
999.997
999.998
999.998
999.998
999.998
999.999
999.999
999.999
999.999
999.999
1000
1000
1000
1000
1000
999.999
999.999
999.999
999.999
999.999
999.999
1000
1000
1000
1000
1000
1000
1000
1000
1000
1000
1000
1000
1000
1000
1000
1000
1000
1000
1000
1000
1000
1000
1000
1000
1000
1000
1000
1000
1000
1000
1000
1000
1000
1000
1000
1000
1000
1000
1000
1000
1000
1000
1000
1000
1000
1000
1000
1000
1000
1000
1000
1000
1000
1000
1000
1000
1000
1000
1000
1000
1000
1000
1000
1000
1000
1000
1000
1000
1000
1000
1000
1000
1000
1000
1000
1000
1000
1000
1000
1000
1000
1000
1000
1000
1000
1000
1000
1000
1000
1000
1000
1000
1000
1000
1000
1000
1000
1000
1000
1000
1000
1000
1000
1000
1000
1000
1000
1000
1000
1000
1000
1000
1000
1000
1000
1000
1000
1000
1000
1000
1000
1000
1000
1000
1000
1000
1000
1000
1000
1000
1000
1000
1000
1000
1000
1000
1000
1000
1000
1000
1000
1000
1000
1000
1000
1000
1000
1000
1000
1000
1000
1000
1000
1000
1000
1000
1000
1000
1000
1000
1000
1000
1000
1000
1000
1000
1000
1000
1000
1000
1000
1000
1000
1000
1000
1000
1000
1000
1000
1000
1000
1000
1000
1000
1000
1000
1000
1000
1000
1000
1000
1000
1000
1000
1000
1000
1000
1000
1000
1000
1000
1000
1000
1000
1000
1000
1000
1000
1000
1000
1000
1000
1000
1000
944.555
944.555
944.555
944.555
944.555
944.555
944.555
944.555
944.555
944.555
944.555
944.555
944.555
944.555
944.555
944.555
944.555
944.555
944.555
944.555
944.555
944.555
944.555
944.555
944.555
944.555
944.555
944.555
944.555
944.555
944.555
944.555
944.555
944.555
944.555
944.555
944.555
944.555
944.555
944.555
944.555
944.555
944.555
944.555
944.555
944.555
944.555
944.555
944.555
944.555
944.555
944.555
944.555
944.555
944.555
944.555
944.555
944.555
944.555
944.555
944.555
944.555
944.555
944.555
944.555
944.555
944.555
944.555
944.555
944.555
944.555
944.555
944.555
944.555
944.555
944.555
944.555
944.555
944.555
944.555
944.555
944.555
944.555
944.555
944.555
944.555
944.555
944.555
944.555
944.555
944.555
944.555
944.555
944.555
944.555
944.555
944.555
944.555
944.555
944.555
944.555
944.555
944.555
944.555
944.555
944.555
944.555
944.555
944.555
944.555
944.555
944.555
944.555
944.555
944.555
944.555
944.555
944.555
944.555
944.555
944.555
944.555
944.555
944.555
944.555
944.555
944.555
944.555
944.555
944.555
944.555
944.555
944.555
944.555
944.555
944.555
944.555
944.555
944.555
944.555
944.555
944.555
944.555
944.555
944.555
944.555
944.555
944.555
944.555
944.555
944.555
944.555
944.555
944.555
944.555
944.555
944.555
944.555
944.555
944.555
944.555
944.555
944.555
944.555
944.555
944.555
944.555
944.555
944.555
944.555
944.555
944.555
944.555
944.555
944.555
944.555
944.555
944.555
944.555
944.555
944.555
944.555
944.555
944.555
944.555
944.555
944.555
944.555
944.555
944.555
944.555
944.555
944.555
944.555
944.555
944.555
944.555
944.555
944.555
944.555
944.555
944.555
944.555
944.555
944.555
944.555
944.555
944.555
944.555
944.555
944.555
944.555
944.555
944.555
944.555
944.555
944.555
944.555
944.555
944.555
944.555
944.555
944.555
944.555
944.555
944.555
944.555
944.555
944.555
944.555
944.555
944.555
944.555
944.555
944.555
944.555
944.555
944.555
944.555
944.555
944.555
944.555
944.555
944.555
944.555
944.555
944.555
944.555
944.555
944.555
944.555
944.555
944.555
944.555
944.555
944.555
944.555
944.555
944.555
944.555
944.555
944.555
944.555
944.555
944.555
944.555
944.555
944.555
944.555
944.555
944.555
944.555
944.555
944.555
944.555
944.555
944.555
944.555
944.555
944.555
944.555
944.555
944.555
944.555
944.555
944.555
944.555
944.555
944.555
944.555
944.555
944.555
944.555
944.555
944.555
944.555
944.555
944.555
944.555
944.555
944.555
944.555
944.555
944.555
944.555
944.555
944.555
944.555
944.555
944.555
944.555
944.555
944.555
944.555
944.555
944.555
944.555
944.555
944.555
944.555
944.555
944.555
944.555
944.555
944.555
944.555
944.555
944.555
944.555
944.555
944.555
944.555
944.555
944.555
944.555
944.555
944.555
944.555
944.555
944.555
944.555
944.555
944.555
944.555
944.555
944.555
944.555
944.555
944.555
944.555
944.555
944.555
944.555
944.555
944.555
944.555
944.555
944.555
944.555
944.555
944.555
944.555
944.555
944.555
944.555
944.555
944.555
944.555
944.555
944.555
944.555
944.555
944.555
944.555
944.555
944.555
944.555
944.555
944.555
944.555
944.555
944.555
944.555
944.555
944.555
944.555
944.555
944.555
944.555
944.555
944.555
944.555
944.555
944.555
944.555
944.555
944.555
944.555
944.555
944.555
944.555
944.555
944.555
944.555
944.555
944.555
944.555
944.555
944.555
944.555
944.555
944.555
944.555
944.555
944.555
944.555
944.555
944.555
944.555
944.555
944.555
944.555
944.555
944.555
944.555
944.555
944.555
944.555
944.555
944.555
944.555
944.555
944.555
944.555
944.555
944.555
944.555
944.555
944.555
944.555
944.555
944.555
944.555
944.555
944.555
944.555
944.555
944.555
944.555
944.555
944.555
944.555
944.555
944.555
944.555
944.555
944.555
944.555
944.555
944.555
944.555
944.555
944.555
944.555
944.555
944.555
944.555
944.555
944.555
944.555
944.555
944.555
944.555
944.555
944.555
944.555
944.555
944.555
944.555
944.555
944.555
944.555
944.555
944.555
944.555
944.555
944.555
944.555
944.555
944.555
944.555
944.555
944.555
944.555
944.555
944.555
944.555
944.555
944.555
944.555
944.555
944.555
944.555
944.555
944.555
944.555
944.555
944.555
944.555
944.555
944.555
944.555
944.555
944.555
944.555
944.555
944.555
944.555
944.555
944.555
944.555
944.555
944.555
944.555
944.555
944.555
944.555
944.555
944.555
944.555
944.555
944.555
944.555
944.555
944.555
944.555
944.555
944.555
944.555
944.555
944.555
944.555
944.555
944.555
944.555
944.555
944.555
944.555
944.555
944.555
944.555
944.555
944.555
944.555
944.555
944.555
944.555
944.555
944.555
944.555
944.555
944.555
944.555
944.555
944.555
944.555
944.555
944.555
944.555
944.555
944.555
944.555
944.555
944.555
944.555
944.555
944.555
944.555
944.555
944.555
944.555
944.555
944.555
944.555
944.555
944.555
944.555
944.555
944.555
944.555
944.555
944.555
944.555
944.555
944.555
944.555
944.555
944.555
944.555
944.555
944.555
944.555
944.555
944.555
944.555
944.555
944.555
944.555
944.555
944.555
944.555
944.555
944.555
944.555
944.555
944.555
944.555
944.555
944.555
944.555
944.555
944.555
944.555
944.555
944.555
944.555
944.555
944.555
944.555
944.555
944.555
944.555
944.555
944.555
944.555
944.555
944.555
944.555
944.555
944.555
944.555
944.555
944.555
944.555
944.555
944.555
944.555
944.555
944.555
944.555
944.555
944.555
944.555
944.555
944.555
944.555
944.555
944.555
944.555
944.555
944.555
944.555
944.555
944.555
944.555
944.555
944.555
944.555
944.555
944.555
944.555
944.555
944.555
944.555
944.555
944.555
944.555
944.555
944.555
944.555
944.555
944.555
944.555
944.555
944.555
944.555
944.555
944.555
944.555
944.555
944.555
944.555
944.555
944.555
944.555
944.555
944.555
944.555
944.555
944.555
944.555
944.555
944.555
944.555
944.555
944.555
944.555
944.555
944.555
944.555
944.555
944.555
944.555
944.555
944.555
944.555
944.555
944.555
944.555
944.555
944.556
944.555
944.555
944.555
944.555
944.555
944.555
944.555
944.555
944.555
944.555
944.555
944.555
944.555
944.555
944.555
944.555
944.555
944.555
944.556
944.556
944.555
944.555
944.555
944.555
944.555
944.555
944.555
944.555
944.555
944.555
944.555
944.555
944.555
944.555
944.555
944.555
944.555
944.555
944.556
944.558
944.556
944.555
944.555
944.556
944.556
944.556
944.556
944.556
944.556
944.556
944.556
944.556
944.556
944.556
944.556
944.555
944.555
944.556
944.558
944.561
944.556
944.556
944.556
944.556
944.556
944.556
944.557
944.557
944.557
944.557
944.557
944.557
944.556
944.556
944.556
944.556
944.556
944.556
944.561
944.565
944.558
944.557
944.557
944.557
944.557
944.558
944.558
944.558
944.558
944.558
944.558
944.558
944.558
944.557
944.557
944.557
944.557
944.558
944.565
944.573
944.56
944.558
944.558
944.559
944.559
944.559
944.56
944.56
944.56
944.56
944.56
944.56
944.559
944.559
944.559
944.558
944.558
944.56
944.573
944.587
944.563
944.56
944.56
944.561
944.561
944.562
944.562
944.562
944.563
944.563
944.562
944.562
944.562
944.561
944.561
944.56
944.56
944.563
944.586
944.608
944.569
944.564
944.564
944.564
944.565
944.566
944.566
944.567
944.567
944.567
944.567
944.566
944.566
944.565
944.564
944.564
944.564
944.569
944.608
944.641
944.578
944.569
944.569
944.57
944.571
944.572
944.572
944.573
944.573
944.573
944.573
944.572
944.572
944.571
944.57
944.569
944.569
944.578
944.64
944.691
944.592
944.577
944.576
944.577
944.579
944.58
944.581
944.582
944.582
944.582
944.582
944.581
944.58
944.579
944.577
944.576
944.577
944.592
944.69
944.765
944.613
944.589
944.587
944.589
944.591
944.593
944.594
944.595
944.596
944.596
944.595
944.594
944.593
944.591
944.589
944.587
944.589
944.613
944.765
944.873
944.644
944.607
944.603
944.605
944.608
944.611
944.613
944.614
944.615
944.615
944.614
944.613
944.611
944.608
944.605
944.603
944.607
944.644
944.872
945.026
944.689
944.633
944.626
944.629
944.633
944.636
944.639
944.641
944.642
944.642
944.641
944.639
944.636
944.633
944.629
944.626
944.633
944.689
945.025
945.238
944.753
944.67
944.659
944.662
944.667
944.672
944.676
944.678
944.679
944.679
944.678
944.676
944.672
944.667
944.662
944.659
944.67
944.752
945.237
945.525
944.841
944.722
944.705
944.709
944.715
944.721
944.726
944.73
944.732
944.732
944.73
944.727
944.722
944.715
944.709
944.706
944.722
944.841
945.524
945.906
944.961
944.793
944.769
944.773
944.781
944.789
944.796
944.8
944.803
944.803
944.801
944.796
944.79
944.782
944.773
944.77
944.794
944.961
945.906
946.402
945.122
944.891
944.856
944.86
944.871
944.881
944.89
944.896
944.899
944.899
944.896
944.89
944.882
944.871
944.861
944.857
944.892
945.123
946.402
947.035
945.335
945.022
944.973
944.977
944.991
945.004
945.015
945.023
945.027
945.027
945.023
945.016
945.005
944.992
944.978
944.974
945.023
945.336
947.036
947.827
945.61
945.195
945.128
945.132
945.149
945.167
945.181
945.19
945.195
945.196
945.191
945.182
945.168
945.151
945.134
945.13
945.197
945.613
947.83
948.799
945.962
945.42
945.331
945.335
945.356
945.378
945.396
945.408
945.415
945.415
945.409
945.397
945.38
945.359
945.338
945.334
945.424
945.966
948.804
949.971
946.403
945.71
945.593
945.597
945.623
945.65
945.673
945.688
945.696
945.696
945.689
945.674
945.653
945.626
945.601
945.597
945.715
946.41
949.98
951.358
946.949
946.078
945.928
945.931
945.963
945.996
946.024
946.043
946.052
946.053
946.044
946.026
946
945.967
945.936
945.934
946.085
946.96
951.372
952.97
947.615
946.538
946.348
946.35
946.389
946.43
946.463
946.487
946.499
946.499
946.489
946.467
946.435
946.395
946.358
946.357
946.549
947.633
952.991
954.811
948.418
947.106
946.87
946.871
946.917
946.966
947.007
947.035
947.05
947.051
947.038
947.012
946.973
946.925
946.881
946.883
947.121
948.445
954.841
956.876
949.375
947.798
947.51
947.508
947.563
947.622
947.671
947.705
947.723
947.724
947.709
947.677
947.631
947.574
947.522
947.526
947.819
949.41
956.918
959.154
950.498
948.631
948.282
948.278
948.342
948.412
948.47
948.511
948.532
948.534
948.516
948.479
948.424
948.357
948.296
948.304
948.658
950.544
959.208
961.622
951.801
949.618
949.203
949.195
949.27
949.352
949.42
949.469
949.494
949.497
949.475
949.432
949.368
949.29
949.219
949.231
949.652
951.858
961.689
964.253
953.29
950.771
950.284
950.273
950.36
950.456
950.536
950.593
950.623
950.626
950.602
950.551
950.476
950.386
950.304
950.32
950.815
953.358
964.333
967.011
954.967
952.101
951.537
951.524
951.624
951.735
951.829
951.895
951.931
951.935
951.907
951.848
951.761
951.657
951.563
951.583
952.156
955.047
967.103
969.854
956.829
953.612
952.97
952.954
953.069
953.198
953.306
953.383
953.425
953.43
953.398
953.33
953.231
953.111
953.003
953.026
953.678
956.919
969.956
972.737
958.866
955.304
954.583
954.567
954.699
954.847
954.972
955.061
955.11
955.116
955.08
955.002
954.889
954.751
954.628
954.653
955.383
958.967
972.846
975.611
961.065
957.172
956.376
956.361
956.512
956.681
956.824
956.927
956.984
956.992
956.95
956.862
956.732
956.575
956.435
956.459
957.265
961.176
975.724
978.428
963.408
959.203
958.337
958.327
958.499
958.691
958.855
958.974
959.039
959.049
959.002
958.901
958.753
958.576
958.416
958.436
959.31
963.528
978.542
981.143
965.873
961.381
960.453
960.451
960.647
960.863
961.05
961.187
961.263
961.275
961.221
961.105
960.937
960.737
960.556
960.567
961.503
966.001
981.255
983.716
968.431
963.683
962.703
962.715
962.935
963.177
963.389
963.547
963.637
963.651
963.588
963.455
963.265
963.041
962.835
962.833
963.819
968.565
983.824
986.114
971.043
966.082
965.064
965.095
965.342
965.61
965.846
966.032
966.138
966.154
966.08
965.925
965.713
965.464
965.232
965.209
966.229
971.177
986.215
988.301
973.665
968.55
967.512
967.571
967.844
968.136
968.405
968.625
968.747
968.765
968.679
968.493
968.253
967.981
967.723
967.672
968.706
973.796
988.394
990.253
976.256
971.061
970.025
970.113
970.408
970.728
971.047
971.294
971.431
971.449
971.352
971.143
970.859
970.56
970.279
970.197
971.223
976.382
990.336
991.961
978.777
973.587
972.574
972.689
973.002
973.353
973.719
973.992
974.138
974.156
974.052
973.826
973.498
973.167
972.866
972.755
973.754
978.897
992.034
993.43
981.196
976.098
975.126
975.265
975.591
975.97
976.382
976.681
976.827
976.844
976.739
976.495
976.128
975.766
975.45
975.314
976.267
981.31
993.492
994.674
983.485
978.562
977.648
977.806
978.139
978.545
978.999
979.308
979.445
979.462
979.363
979.112
978.711
978.322
977.995
977.84
978.733
983.594
994.725
995.714
985.619
980.947
980.107
980.277
980.61
981.039
981.518
981.823
981.942
981.963
981.874
981.626
981.207
980.797
980.467
980.299
981.121
985.727
995.756
996.572
987.581
983.228
982.469
982.645
982.973
983.416
983.904
984.198
984.315
984.323
984.244
984.006
983.58
983.158
982.832
982.657
983.402
987.695
996.608
997.273
989.367
985.38
984.705
984.881
985.202
985.647
986.127
986.405
986.509
986.512
986.441
986.219
985.804
985.381
985.061
984.885
985.552
989.49
997.307
997.838
990.978
987.382
986.791
986.963
987.272
987.706
988.161
988.408
988.491
988.506
988.437
988.241
987.85
987.44
987.132
986.96
987.55
991.107
997.874
998.292
992.413
989.218
988.706
988.871
989.163
989.574
989.993
990.207
990.28
990.296
990.231
990.059
989.706
989.319
989.029
988.865
989.381
992.547
998.332
998.653
993.674
990.876
990.44
990.594
990.865
991.246
991.62
991.803
991.862
991.871
991.821
991.674
991.363
991.01
990.74
990.588
991.036
993.814
998.7
998.939
994.77
992.354
991.988
992.129
992.375
992.721
993.047
993.199
993.247
993.243
993.21
993.089
992.822
992.508
992.263
992.125
992.512
994.917
998.993
999.165
995.711
993.653
993.349
993.476
993.697
994.004
994.283
994.408
994.445
994.436
994.412
994.314
994.092
993.819
993.6
993.477
993.81
995.866
999.225
999.342
996.51
994.78
994.532
994.644
994.839
995.106
995.34
995.443
995.468
995.465
995.44
995.362
995.181
994.95
994.759
994.652
994.938
996.673
999.408
999.481
997.181
995.745
995.545
995.642
995.812
996.042
996.235
996.319
996.337
996.334
996.315
996.248
996.104
995.912
995.75
995.66
995.906
997.351
999.552
999.589
997.738
996.561
996.402
996.485
996.632
996.827
996.984
997.051
997.065
997.059
997.043
996.992
996.88
996.724
996.588
996.514
996.725
997.915
999.663
999.673
998.195
997.243
997.119
997.189
997.316
997.478
997.605
997.659
997.67
997.662
997.643
997.606
997.522
997.398
997.288
997.23
997.412
998.379
999.749
999.737
998.566
997.806
997.711
997.771
997.879
998.013
998.114
998.157
998.166
998.16
998.14
998.108
998.047
997.952
997.865
997.823
997.98
998.757
999.815
999.786
998.864
998.267
998.195
998.246
998.338
998.447
998.527
998.562
998.57
998.565
998.548
998.519
998.473
998.403
998.336
998.308
998.446
999.06
999.865
999.823
999.102
998.639
998.586
998.631
998.709
998.797
998.86
998.888
998.896
998.892
998.878
998.854
998.818
998.766
998.717
998.702
998.822
999.301
999.903
999.85
999.289
998.936
998.899
998.94
999.006
999.076
999.124
999.147
999.154
999.152
999.142
999.123
999.095
999.057
999.022
999.018
999.122
999.49
999.931
999.871
999.436
999.172
999.148
999.185
999.24
999.296
999.333
999.352
999.358
999.358
999.35
999.336
999.315
999.288
999.265
999.269
999.359
999.636
999.952
999.886
999.549
999.357
999.344
999.378
999.424
999.468
999.497
999.512
999.518
999.518
999.513
999.503
999.488
999.469
999.456
999.466
999.544
999.747
999.967
999.896
999.637
999.5
999.498
999.529
999.567
999.601
999.624
999.636
999.641
999.643
999.64
999.633
999.623
999.611
999.605
999.62
999.684
999.829
999.978
999.902
999.704
999.612
999.618
999.646
999.678
999.705
999.722
999.732
999.737
999.738
999.737
999.733
999.727
999.721
999.721
999.737
999.789
999.89
999.986
999.903
999.755
999.699
999.712
999.738
999.763
999.784
999.797
999.805
999.809
999.811
999.811
999.809
999.807
999.805
999.809
999.826
999.866
999.932
999.992
999.9
999.796
999.769
999.786
999.809
999.829
999.844
999.854
999.861
999.865
999.867
999.868
999.868
999.868
999.869
999.875
999.89
999.92
999.961
999.995
999.897
999.831
999.826
999.845
999.864
999.88
999.891
999.899
999.904
999.907
999.91
999.911
999.912
999.913
999.917
999.923
999.936
999.956
999.98
999.998
1000
1000
1000
1000
1000
1000
1000
1000
1000
1000
1000
1000
1000
1000
1000
1000
1000
1000
1000
1000
1000
1000
1000
1000
1000
1000
1000
1000
1000
1000
1000
1000
1000
1000
1000
1000
1000
1000
1000
1000
1000