/*--------------------------------*- C++ -*----------------------------------*\
| =========                 |                                                 |
| \\      /  F ield         | OpenFOAM: The Open Source CFD Toolbox           |
|  \\    /   O peration     | Version:  2.1.0                                 |
|   \\  /    A nd           | Web:      www.OpenFOAM.org                      |
|    \\/     M anipulation  |                                                 |
\*---------------------------------------------------------------------------*/
FoamFile
{
    version     2.0;
    format      ascii;
    class       volVectorField;
    location    "0.15";
    object      U;
}
// * * * * * * * * * * * * * * * * * * * * * * * * * * * * * * * * * * * * * //

dimensions      [0 1 -1 0 0 0 0];

internalField   nonuniform List<vector> 
6400
(
(-1.17867 4.88342e-05 0)
(-1.17827 -0.000174721 0)
(-1.17743 -0.000289171 0)
(-1.17611 -0.000373127 0)
(-1.17451 -0.000441951 0)
(-1.17263 -0.000503444 0)
(-1.17054 -0.00055926 0)
(-1.16821 -0.000613204 0)
(-1.16569 -0.000664805 0)
(-1.16296 -0.000714448 0)
(-1.16005 -0.000760835 0)
(-1.15695 -0.000805471 0)
(-1.15368 -0.00084777 0)
(-1.15025 -0.000889207 0)
(-1.14666 -0.000929114 0)
(-1.1429 -0.000968308 0)
(-1.139 -0.00100642 0)
(-1.13494 -0.00104454 0)
(-1.13074 -0.00108184 0)
(-1.12639 -0.00111918 0)
(-1.1219 -0.00115585 0)
(-1.11725 -0.00119261 0)
(-1.11247 -0.00122904 0)
(-1.10753 -0.00126561 0)
(-1.10246 -0.00130211 0)
(-1.09724 -0.00133914 0)
(-1.09187 -0.00137632 0)
(-1.08635 -0.00141404 0)
(-1.08069 -0.00145212 0)
(-1.07487 -0.00149091 0)
(-1.0689 -0.00153028 0)
(-1.06277 -0.00157052 0)
(-1.05648 -0.00161158 0)
(-1.05003 -0.00165364 0)
(-1.04341 -0.00169667 0)
(-1.03661 -0.00174107 0)
(-1.02964 -0.0017868 0)
(-1.02248 -0.00183413 0)
(-1.01513 -0.00188315 0)
(-1.00759 -0.00193406 0)
(-0.99984 -0.00198699 0)
(-0.991877 -0.00204196 0)
(-0.983693 -0.00209905 0)
(-0.975279 -0.0021583 0)
(-0.966626 -0.00221968 0)
(-0.957728 -0.00228319 0)
(-0.948574 -0.00234882 0)
(-0.939156 -0.00241655 0)
(-0.92947 -0.00248503 0)
(-0.919511 -0.00255457 0)
(-0.909268 -0.00262856 0)
(-0.898724 -0.00270683 0)
(-0.887869 -0.00278598 0)
(-0.876708 -0.0028631 0)
(-0.865245 -0.00293765 0)
(-0.85349 -0.00301124 0)
(-0.841443 -0.00308537 0)
(-0.8291 -0.0031605 0)
(-0.81646 -0.00323644 0)
(-0.803517 -0.00331337 0)
(-0.790268 -0.0033917 0)
(-0.776706 -0.00347133 0)
(-0.762827 -0.00355252 0)
(-0.748624 -0.00363548 0)
(-0.734088 -0.00372073 0)
(-0.719211 -0.0038085 0)
(-0.703983 -0.00389881 0)
(-0.688393 -0.00399144 0)
(-0.672433 -0.00408629 0)
(-0.656095 -0.00418311 0)
(-0.63937 -0.00428225 0)
(-0.622247 -0.00438495 0)
(-0.604711 -0.00449188 0)
(-0.586745 -0.00460303 0)
(-0.568331 -0.00471906 0)
(-0.549447 -0.00484159 0)
(-0.530062 -0.00497291 0)
(-0.510136 -0.00511651 0)
(-0.48961 -0.00527708 0)
(-0.468406 -0.00546087 0)
(-0.446416 -0.00567564 0)
(-0.423501 -0.00593076 0)
(-0.399483 -0.00623608 0)
(-0.374146 -0.00660005 0)
(-0.347244 -0.0070313 0)
(-0.3185 -0.0075361 0)
(-0.287625 -0.00811452 0)
(-0.254357 -0.00875344 0)
(-0.218543 -0.00941087 0)
(-0.180292 -0.00999511 0)
(-0.140256 -0.0103224 0)
(-0.100198 -0.0100116 0)
(-0.0637614 -0.00848625 0)
(-0.0362867 -0.00545937 0)
(-0.0222702 -0.00165378 0)
(-0.0250021 0.003038 0)
(-0.052928 0.0111163 0)
(-0.130306 0.0280501 0)
(-0.319824 0.0671573 0)
(-0.899871 0.186909 0)
(-1.45594 -5.84676e-05 0)
(-1.45332 -0.000860485 0)
(-1.45157 -0.00125772 0)
(-1.44864 -0.00151033 0)
(-1.44551 -0.00169605 0)
(-1.44214 -0.00185004 0)
(-1.43872 -0.00198264 0)
(-1.43517 -0.0021054 0)
(-1.43162 -0.00222117 0)
(-1.42796 -0.00233431 0)
(-1.42428 -0.00244254 0)
(-1.42049 -0.00254898 0)
(-1.41666 -0.00265232 0)
(-1.41271 -0.00275526 0)
(-1.40871 -0.00285648 0)
(-1.40459 -0.00295678 0)
(-1.4004 -0.00305578 0)
(-1.3961 -0.00315555 0)
(-1.39171 -0.00325409 0)
(-1.38721 -0.0033532 0)
(-1.38262 -0.00345106 0)
(-1.37792 -0.00354947 0)
(-1.37313 -0.00364734 0)
(-1.36822 -0.00374563 0)
(-1.36322 -0.00384379 0)
(-1.3581 -0.0039435 0)
(-1.35288 -0.0040437 0)
(-1.34755 -0.00414524 0)
(-1.34212 -0.00424769 0)
(-1.33658 -0.00435191 0)
(-1.33092 -0.00445753 0)
(-1.32515 -0.00456537 0)
(-1.31927 -0.00467531 0)
(-1.31328 -0.00478785 0)
(-1.30716 -0.00490289 0)
(-1.30092 -0.00502133 0)
(-1.29456 -0.00514306 0)
(-1.28807 -0.0052687 0)
(-1.28145 -0.00539847 0)
(-1.2747 -0.00553274 0)
(-1.26781 -0.00567195 0)
(-1.26078 -0.00581627 0)
(-1.2536 -0.00596601 0)
(-1.24627 -0.00612145 0)
(-1.23879 -0.00628252 0)
(-1.23115 -0.00644943 0)
(-1.22333 -0.00662234 0)
(-1.21534 -0.00680126 0)
(-1.20716 -0.00698346 0)
(-1.1988 -0.00716726 0)
(-1.19026 -0.00735551 0)
(-1.18156 -0.00754769 0)
(-1.17271 -0.0077403 0)
(-1.16372 -0.00793073 0)
(-1.15457 -0.0081174 0)
(-1.14526 -0.00830208 0)
(-1.13579 -0.00848741 0)
(-1.12618 -0.00867437 0)
(-1.1164 -0.00886294 0)
(-1.10648 -0.00905319 0)
(-1.0964 -0.00924546 0)
(-1.08618 -0.00943938 0)
(-1.07581 -0.00963541 0)
(-1.0653 -0.00983422 0)
(-1.05466 -0.0100368 0)
(-1.04388 -0.0102436 0)
(-1.03297 -0.0104546 0)
(-1.02193 -0.0106698 0)
(-1.01076 -0.0108889 0)
(-0.999466 -0.0111115 0)
(-0.988049 -0.0113385 0)
(-0.976505 -0.0115741 0)
(-0.964827 -0.0118207 0)
(-0.953003 -0.0120787 0)
(-0.94102 -0.0123502 0)
(-0.928859 -0.0126397 0)
(-0.916497 -0.0129537 0)
(-0.903901 -0.0133014 0)
(-0.891028 -0.0136947 0)
(-0.877824 -0.0141495 0)
(-0.86422 -0.0146847 0)
(-0.850129 -0.0153231 0)
(-0.835449 -0.0160898 0)
(-0.820053 -0.0170063 0)
(-0.803798 -0.0180938 0)
(-0.78653 -0.0193664 0)
(-0.768094 -0.0208211 0)
(-0.748366 -0.0224212 0)
(-0.727294 -0.024057 0)
(-0.704976 -0.0254987 0)
(-0.681761 -0.0263054 0)
(-0.658348 -0.02563 0)
(-0.635936 -0.0221914 0)
(-0.617129 -0.0148619 0)
(-0.608683 -0.00365609 0)
(-0.619031 0.0115963 0)
(-0.660694 0.037278 0)
(-0.75419 0.0865996 0)
(-0.940458 0.191661 0)
(-1.39461 0.494474 0)
(-1.61174 -0.000481413 0)
(-1.60802 -0.00188498 0)
(-1.60673 -0.00259379 0)
(-1.60391 -0.00301257 0)
(-1.60091 -0.00329116 0)
(-1.5977 -0.00350126 0)
(-1.59449 -0.00366912 0)
(-1.59116 -0.00381534 0)
(-1.58789 -0.00394962 0)
(-1.58453 -0.00408308 0)
(-1.58119 -0.00421466 0)
(-1.57778 -0.00434783 0)
(-1.57437 -0.00448107 0)
(-1.57088 -0.00461692 0)
(-1.56738 -0.00475363 0)
(-1.56378 -0.00489138 0)
(-1.56016 -0.00502912 0)
(-1.55644 -0.00516854 0)
(-1.55269 -0.00530734 0)
(-1.54885 -0.00544737 0)
(-1.54497 -0.00558641 0)
(-1.54101 -0.0057264 0)
(-1.537 -0.00586617 0)
(-1.53291 -0.0060062 0)
(-1.52877 -0.00614615 0)
(-1.52455 -0.00628827 0)
(-1.52028 -0.00643111 0)
(-1.51594 -0.00657542 0)
(-1.51154 -0.00672079 0)
(-1.50707 -0.00686811 0)
(-1.50254 -0.00701687 0)
(-1.49795 -0.00716821 0)
(-1.4933 -0.00732199 0)
(-1.48858 -0.00747886 0)
(-1.48381 -0.00763856 0)
(-1.47898 -0.00780216 0)
(-1.47409 -0.0079695 0)
(-1.46914 -0.00814113 0)
(-1.46414 -0.00831735 0)
(-1.45908 -0.00849839 0)
(-1.45398 -0.00868481 0)
(-1.44882 -0.00887679 0)
(-1.44361 -0.0090748 0)
(-1.43837 -0.00927921 0)
(-1.43308 -0.00948987 0)
(-1.42775 -0.00970714 0)
(-1.42239 -0.00993112 0)
(-1.41699 -0.0101613 0)
(-1.41157 -0.0103956 0)
(-1.40614 -0.0106311 0)
(-1.4007 -0.0108651 0)
(-1.39524 -0.0110952 0)
(-1.38978 -0.0113223 0)
(-1.38434 -0.0115493 0)
(-1.37889 -0.0117749 0)
(-1.37346 -0.0119976 0)
(-1.36803 -0.0122186 0)
(-1.36262 -0.0124385 0)
(-1.35723 -0.0126574 0)
(-1.35189 -0.0128747 0)
(-1.3466 -0.01309 0)
(-1.34137 -0.0133021 0)
(-1.33623 -0.0135109 0)
(-1.33119 -0.0137171 0)
(-1.32626 -0.0139216 0)
(-1.32148 -0.014124 0)
(-1.31686 -0.0143241 0)
(-1.31243 -0.0145217 0)
(-1.3082 -0.0147163 0)
(-1.30421 -0.014907 0)
(-1.30049 -0.0150946 0)
(-1.29706 -0.0152857 0)
(-1.29395 -0.0154856 0)
(-1.29117 -0.0156948 0)
(-1.28873 -0.0159167 0)
(-1.28667 -0.0161583 0)
(-1.28498 -0.0164295 0)
(-1.28367 -0.0167439 0)
(-1.28273 -0.0171193 0)
(-1.28213 -0.0175782 0)
(-1.28184 -0.0181469 0)
(-1.28182 -0.0188557 0)
(-1.28199 -0.0197392 0)
(-1.28228 -0.0208296 0)
(-1.28257 -0.0221556 0)
(-1.28275 -0.023734 0)
(-1.28272 -0.0255556 0)
(-1.28238 -0.0275647 0)
(-1.2817 -0.0296089 0)
(-1.28072 -0.0313833 0)
(-1.27961 -0.0323357 0)
(-1.27867 -0.0314954 0)
(-1.27837 -0.0273935 0)
(-1.27976 -0.0181377 0)
(-1.2862 -0.00212762 0)
(-1.30019 0.0223074 0)
(-1.3334 0.0631367 0)
(-1.40019 0.138399 0)
(-1.53032 0.290135 0)
(-1.77941 0.674386 0)
(-1.7522 -0.00104543 0)
(-1.74811 -0.00279807 0)
(-1.74764 -0.00374261 0)
(-1.74551 -0.00430022 0)
(-1.7433 -0.00465473 0)
(-1.74088 -0.00490433 0)
(-1.73852 -0.00509237 0)
(-1.73604 -0.00524906 0)
(-1.73364 -0.00538898 0)
(-1.73115 -0.00552742 0)
(-1.72875 -0.00566513 0)
(-1.72628 -0.00580621 0)
(-1.72387 -0.00594941 0)
(-1.7214 -0.00609757 0)
(-1.71899 -0.00624773 0)
(-1.71652 -0.00640123 0)
(-1.7141 -0.00655572 0)
(-1.71163 -0.00671224 0)
(-1.7092 -0.00686851 0)
(-1.70671 -0.00702605 0)
(-1.70426 -0.00718298 0)
(-1.70177 -0.00734044 0)
(-1.6993 -0.00749807 0)
(-1.6968 -0.00765477 0)
(-1.69433 -0.00781117 0)
(-1.69183 -0.00796967 0)
(-1.68935 -0.00812866 0)
(-1.68685 -0.00828833 0)
(-1.68437 -0.00844859 0)
(-1.68189 -0.00860974 0)
(-1.67943 -0.00877144 0)
(-1.67697 -0.00893468 0)
(-1.67454 -0.00909928 0)
(-1.67212 -0.0092658 0)
(-1.66973 -0.00943404 0)
(-1.66737 -0.00960474 0)
(-1.66504 -0.00977765 0)
(-1.66275 -0.00995316 0)
(-1.66051 -0.0101315 0)
(-1.65831 -0.0103125 0)
(-1.65618 -0.0104965 0)
(-1.65411 -0.0106833 0)
(-1.65212 -0.0108733 0)
(-1.65021 -0.0110662 0)
(-1.64839 -0.0112618 0)
(-1.64669 -0.0114601 0)
(-1.6451 -0.0116605 0)
(-1.64365 -0.0118616 0)
(-1.64235 -0.0120621 0)
(-1.64121 -0.0122624 0)
(-1.64023 -0.012461 0)
(-1.6394 -0.0126537 0)
(-1.63872 -0.0128397 0)
(-1.6382 -0.0130235 0)
(-1.63786 -0.0132045 0)
(-1.63769 -0.0133793 0)
(-1.63771 -0.0135471 0)
(-1.63794 -0.0137075 0)
(-1.63839 -0.0138599 0)
(-1.63908 -0.0140037 0)
(-1.64003 -0.0141375 0)
(-1.64125 -0.0142594 0)
(-1.64276 -0.0143686 0)
(-1.64459 -0.0144655 0)
(-1.64675 -0.0145515 0)
(-1.64926 -0.0146253 0)
(-1.65213 -0.0146866 0)
(-1.65539 -0.0147348 0)
(-1.65906 -0.01477 0)
(-1.66314 -0.0147911 0)
(-1.66764 -0.0147971 0)
(-1.67259 -0.0147993 0)
(-1.67798 -0.0148081 0)
(-1.6838 -0.0148236 0)
(-1.69004 -0.0148517 0)
(-1.69667 -0.0149024 0)
(-1.70367 -0.0149894 0)
(-1.711 -0.0151312 0)
(-1.71862 -0.0153507 0)
(-1.72646 -0.0156761 0)
(-1.73447 -0.0161396 0)
(-1.74256 -0.0167771 0)
(-1.75066 -0.0176283 0)
(-1.75868 -0.0187314 0)
(-1.76655 -0.0201173 0)
(-1.77419 -0.0218006 0)
(-1.78154 -0.0237638 0)
(-1.7886 -0.025933 0)
(-1.79536 -0.0281303 0)
(-1.80189 -0.0300136 0)
(-1.80826 -0.0309907 0)
(-1.81451 -0.0300842 0)
(-1.82062 -0.0258 0)
(-1.82665 -0.0160257 0)
(-1.83465 0.00123018 0)
(-1.84223 0.0301992 0)
(-1.85997 0.0796261 0)
(-1.89462 0.170116 0)
(-1.95522 0.347801 0)
(-2.0435 0.726805 0)
(-1.8967 -0.00155549 0)
(-1.89298 -0.0034389 0)
(-1.89334 -0.00450284 0)
(-1.89215 -0.00513906 0)
(-1.89109 -0.00553442 0)
(-1.88984 -0.00579818 0)
(-1.88876 -0.00598704 0)
(-1.88757 -0.00613744 0)
(-1.88654 -0.00626737 0)
(-1.88545 -0.00639281 0)
(-1.88451 -0.00651696 0)
(-1.88353 -0.00664305 0)
(-1.8827 -0.00677174 0)
(-1.88184 -0.00690508 0)
(-1.88112 -0.00703997 0)
(-1.8804 -0.00717788 0)
(-1.8798 -0.0073177 0)
(-1.87922 -0.00745949 0)
(-1.87874 -0.00760116 0)
(-1.8783 -0.0077434 0)
(-1.87795 -0.00788501 0)
(-1.87765 -0.00802627 0)
(-1.87745 -0.0081673 0)
(-1.87729 -0.00830531 0)
(-1.87724 -0.00844192 0)
(-1.87725 -0.00858003 0)
(-1.87735 -0.00871769 0)
(-1.87753 -0.0088546 0)
(-1.87781 -0.00899068 0)
(-1.87818 -0.00912556 0)
(-1.87865 -0.0092593 0)
(-1.87922 -0.00939245 0)
(-1.8799 -0.00952483 0)
(-1.88069 -0.00965679 0)
(-1.8816 -0.00978842 0)
(-1.88263 -0.00991995 0)
(-1.88379 -0.0100509 0)
(-1.88509 -0.0101818 0)
(-1.88652 -0.0103123 0)
(-1.88809 -0.0104425 0)
(-1.88982 -0.0105721 0)
(-1.89171 -0.0107007 0)
(-1.89376 -0.0108285 0)
(-1.89598 -0.010955 0)
(-1.89838 -0.0110798 0)
(-1.90096 -0.0112027 0)
(-1.90374 -0.0113228 0)
(-1.9067 -0.0114387 0)
(-1.90986 -0.0115497 0)
(-1.91323 -0.011658 0)
(-1.9168 -0.0117649 0)
(-1.92058 -0.0118666 0)
(-1.92458 -0.0119586 0)
(-1.9288 -0.0120446 0)
(-1.93324 -0.0121254 0)
(-1.9379 -0.0121968 0)
(-1.94279 -0.0122576 0)
(-1.94792 -0.0123071 0)
(-1.95326 -0.0123446 0)
(-1.95884 -0.0123695 0)
(-1.96463 -0.0123808 0)
(-1.97065 -0.0123763 0)
(-1.97689 -0.0123543 0)
(-1.98335 -0.0123159 0)
(-1.99002 -0.012264 0)
(-1.9969 -0.0121973 0)
(-2.00397 -0.0121154 0)
(-2.01124 -0.0120178 0)
(-2.0187 -0.0119053 0)
(-2.02633 -0.0117774 0)
(-2.03414 -0.0116294 0)
(-2.04215 -0.0114711 0)
(-2.05036 -0.0113194 0)
(-2.05878 -0.0111789 0)
(-2.06739 -0.0110587 0)
(-2.07619 -0.0109713 0)
(-2.08515 -0.0109333 0)
(-2.09425 -0.0109657 0)
(-2.10348 -0.011095 0)
(-2.1128 -0.0113523 0)
(-2.12219 -0.0117733 0)
(-2.1316 -0.012396 0)
(-2.14102 -0.0132615 0)
(-2.1504 -0.0144085 0)
(-2.15971 -0.015866 0)
(-2.16892 -0.0176434 0)
(-2.17799 -0.0197174 0)
(-2.18692 -0.0220011 0)
(-2.19569 -0.0243061 0)
(-2.20428 -0.0262879 0)
(-2.2126 -0.0273653 0)
(-2.22042 -0.026625 0)
(-2.22733 -0.0226889 0)
(-2.2328 -0.0135461 0)
(-2.23788 0.00315095 0)
(-2.23817 0.033014 0)
(-2.23979 0.0853686 0)
(-2.24208 0.180748 0)
(-2.23583 0.361658 0)
(-2.212 0.69137 0)
(-2.05135 -0.00184228 0)
(-2.04854 -0.00367549 0)
(-2.04994 -0.00472474 0)
(-2.0501 -0.00535271 0)
(-2.05053 -0.00573249 0)
(-2.05091 -0.00597025 0)
(-2.05151 -0.00612906 0)
(-2.05209 -0.0062456 0)
(-2.05287 -0.00634007 0)
(-2.05365 -0.00642733 0)
(-2.05462 -0.0065131 0)
(-2.05562 -0.00659895 0)
(-2.05679 -0.00668709 0)
(-2.05801 -0.00677805 0)
(-2.05939 -0.00687021 0)
(-2.06083 -0.00696369 0)
(-2.06242 -0.00705896 0)
(-2.0641 -0.00715543 0)
(-2.06592 -0.00725116 0)
(-2.06783 -0.00734613 0)
(-2.06989 -0.00743954 0)
(-2.07206 -0.00753164 0)
(-2.07436 -0.0076228 0)
(-2.07678 -0.00770803 0)
(-2.07935 -0.00778952 0)
(-2.08205 -0.00787236 0)
(-2.0849 -0.00795349 0)
(-2.08788 -0.00803276 0)
(-2.09101 -0.0081098 0)
(-2.09428 -0.00818406 0)
(-2.09769 -0.00825605 0)
(-2.10125 -0.00832611 0)
(-2.10496 -0.00839425 0)
(-2.10881 -0.00846083 0)
(-2.11281 -0.00852607 0)
(-2.11695 -0.0085902 0)
(-2.12124 -0.00865284 0)
(-2.12566 -0.00871453 0)
(-2.13023 -0.00877488 0)
(-2.13493 -0.00883401 0)
(-2.13976 -0.00889185 0)
(-2.14472 -0.00894803 0)
(-2.14981 -0.00900272 0)
(-2.15501 -0.00905552 0)
(-2.16034 -0.0091062 0)
(-2.16578 -0.00915473 0)
(-2.17132 -0.00920022 0)
(-2.17697 -0.0092419 0)
(-2.18272 -0.00927957 0)
(-2.18856 -0.00931445 0)
(-2.19449 -0.00934701 0)
(-2.2005 -0.00937505 0)
(-2.20659 -0.00939275 0)
(-2.21278 -0.00940107 0)
(-2.21905 -0.00940186 0)
(-2.22542 -0.00939281 0)
(-2.23188 -0.0093738 0)
(-2.23844 -0.00934445 0)
(-2.24508 -0.00930427 0)
(-2.25181 -0.00925267 0)
(-2.25862 -0.0091887 0)
(-2.26551 -0.00911027 0)
(-2.27248 -0.00901396 0)
(-2.27953 -0.0089008 0)
(-2.28667 -0.00877671 0)
(-2.29389 -0.00863966 0)
(-2.30119 -0.00848827 0)
(-2.30858 -0.00832174 0)
(-2.31606 -0.0081402 0)
(-2.32363 -0.00794336 0)
(-2.33131 -0.00772612 0)
(-2.33912 -0.00749191 0)
(-2.34701 -0.00726379 0)
(-2.35499 -0.00704914 0)
(-2.36308 -0.00685781 0)
(-2.37126 -0.00670331 0)
(-2.37954 -0.00660326 0)
(-2.38791 -0.00657998 0)
(-2.39638 -0.00666127 0)
(-2.40492 -0.00688009 0)
(-2.41354 -0.00727359 0)
(-2.42221 -0.00788002 0)
(-2.43093 -0.00873924 0)
(-2.43969 -0.00989261 0)
(-2.44848 -0.0113674 0)
(-2.45728 -0.0131704 0)
(-2.46609 -0.0152787 0)
(-2.47488 -0.0176043 0)
(-2.48364 -0.0199655 0)
(-2.49225 -0.0220422 0)
(-2.50054 -0.0233052 0)
(-2.5081 -0.0229389 0)
(-2.51421 -0.0197879 0)
(-2.51784 -0.0120884 0)
(-2.51935 0.00282741 0)
(-2.51224 0.0308373 0)
(-2.49878 0.0806703 0)
(-2.47148 0.171515 0)
(-2.40948 0.336791 0)
(-2.31168 0.600967 0)
(-2.20972 -0.00181914 0)
(-2.20809 -0.00337052 0)
(-2.21067 -0.00426973 0)
(-2.21241 -0.00479843 0)
(-2.21448 -0.00510402 0)
(-2.21665 -0.00527616 0)
(-2.21904 -0.00537641 0)
(-2.22151 -0.00543639 0)
(-2.22414 -0.00547625 0)
(-2.22686 -0.00550841 0)
(-2.22972 -0.00553921 0)
(-2.23267 -0.00557027 0)
(-2.23577 -0.00560375 0)
(-2.23895 -0.00563914 0)
(-2.24226 -0.00567591 0)
(-2.24567 -0.00571407 0)
(-2.24921 -0.00575362 0)
(-2.25284 -0.00579401 0)
(-2.25658 -0.00583368 0)
(-2.26043 -0.00587214 0)
(-2.26438 -0.00590886 0)
(-2.26844 -0.00594429 0)
(-2.27259 -0.00597933 0)
(-2.27682 -0.00600786 0)
(-2.28118 -0.00602976 0)
(-2.28563 -0.00605015 0)
(-2.2902 -0.00606766 0)
(-2.29487 -0.00608334 0)
(-2.29966 -0.00609695 0)
(-2.30456 -0.0061082 0)
(-2.30956 -0.00611799 0)
(-2.31466 -0.00612661 0)
(-2.31986 -0.00613442 0)
(-2.32516 -0.00614213 0)
(-2.33054 -0.00614991 0)
(-2.336 -0.0061582 0)
(-2.34155 -0.00616696 0)
(-2.34716 -0.00617679 0)
(-2.35284 -0.00618734 0)
(-2.35858 -0.00619875 0)
(-2.36437 -0.00621127 0)
(-2.37022 -0.00622439 0)
(-2.3761 -0.0062383 0)
(-2.38202 -0.00625265 0)
(-2.38798 -0.00626717 0)
(-2.39396 -0.00628171 0)
(-2.39997 -0.0062954 0)
(-2.406 -0.00630773 0)
(-2.41204 -0.00631837 0)
(-2.4181 -0.00632775 0)
(-2.42417 -0.0063353 0)
(-2.43025 -0.00633885 0)
(-2.43634 -0.00633513 0)
(-2.44246 -0.0063228 0)
(-2.44855 -0.00630113 0)
(-2.45465 -0.00626956 0)
(-2.46073 -0.00622875 0)
(-2.46681 -0.00617838 0)
(-2.47289 -0.00611771 0)
(-2.47896 -0.00604578 0)
(-2.48504 -0.00596139 0)
(-2.49113 -0.00586263 0)
(-2.49722 -0.00574361 0)
(-2.50333 -0.00560257 0)
(-2.50946 -0.0054527 0)
(-2.51562 -0.00528897 0)
(-2.52181 -0.00510867 0)
(-2.52803 -0.00491076 0)
(-2.5343 -0.00469447 0)
(-2.5406 -0.00445982 0)
(-2.54696 -0.00420646 0)
(-2.55338 -0.00392812 0)
(-2.55985 -0.00366353 0)
(-2.56638 -0.00341238 0)
(-2.57295 -0.00318108 0)
(-2.5796 -0.00298344 0)
(-2.58633 -0.00283787 0)
(-2.59314 -0.00276766 0)
(-2.60006 -0.00280123 0)
(-2.60709 -0.00297246 0)
(-2.61424 -0.0033192 0)
(-2.62152 -0.00387934 0)
(-2.62894 -0.00468921 0)
(-2.63652 -0.00579616 0)
(-2.64425 -0.00722683 0)
(-2.65214 -0.00898355 0)
(-2.6602 -0.0110518 0)
(-2.66839 -0.0133517 0)
(-2.67666 -0.0157207 0)
(-2.68485 -0.0178805 0)
(-2.6927 -0.019381 0)
(-2.69966 -0.0195473 0)
(-2.7048 -0.0174614 0)
(-2.70655 -0.0117605 0)
(-2.70485 0.000273476 0)
(-2.69134 0.0240126 0)
(-2.66467 0.0667894 0)
(-2.61241 0.144922 0)
(-2.50787 0.2817 0)
(-2.36397 0.478135 0)
(-2.35626 -0.00147372 0)
(-2.35571 -0.00254111 0)
(-2.35912 -0.00317989 0)
(-2.36205 -0.00354227 0)
(-2.36528 -0.00373463 0)
(-2.36872 -0.00382216 0)
(-2.37232 -0.00385481 0)
(-2.37603 -0.003856 0)
(-2.37985 -0.00384317 0)
(-2.38375 -0.00382466 0)
(-2.38773 -0.00380608 0)
(-2.39179 -0.00378867 0)
(-2.39594 -0.00377533 0)
(-2.40014 -0.00376409 0)
(-2.40443 -0.00375488 0)
(-2.40878 -0.00374817 0)
(-2.41321 -0.00374352 0)
(-2.41769 -0.00374007 0)
(-2.42226 -0.00373705 0)
(-2.42687 -0.00373362 0)
(-2.43156 -0.00372968 0)
(-2.4363 -0.00372528 0)
(-2.4411 -0.00371951 0)
(-2.44594 -0.00371016 0)
(-2.45089 -0.00369671 0)
(-2.45585 -0.00367965 0)
(-2.46085 -0.00366013 0)
(-2.46588 -0.00364024 0)
(-2.47093 -0.00361989 0)
(-2.47601 -0.0035991 0)
(-2.48112 -0.00357879 0)
(-2.48623 -0.00355928 0)
(-2.49136 -0.00354121 0)
(-2.49649 -0.00352547 0)
(-2.50163 -0.00351213 0)
(-2.50676 -0.00350141 0)
(-2.51189 -0.00349374 0)
(-2.51701 -0.00348947 0)
(-2.52212 -0.00348816 0)
(-2.52721 -0.00348981 0)
(-2.53228 -0.00349456 0)
(-2.53733 -0.00350184 0)
(-2.54237 -0.00351156 0)
(-2.54737 -0.00352322 0)
(-2.55236 -0.00353639 0)
(-2.55731 -0.00355062 0)
(-2.56225 -0.00356505 0)
(-2.56716 -0.00357908 0)
(-2.57204 -0.00359212 0)
(-2.5769 -0.00360402 0)
(-2.58174 -0.00361342 0)
(-2.58656 -0.00361769 0)
(-2.59135 -0.00361752 0)
(-2.59614 -0.00361293 0)
(-2.60089 -0.00360007 0)
(-2.60561 -0.0035766 0)
(-2.6103 -0.0035424 0)
(-2.61498 -0.00349706 0)
(-2.61964 -0.00343963 0)
(-2.62429 -0.00336888 0)
(-2.62894 -0.00328344 0)
(-2.63359 -0.00318208 0)
(-2.63825 -0.00305819 0)
(-2.64294 -0.00289896 0)
(-2.64766 -0.00273613 0)
(-2.65241 -0.00255717 0)
(-2.65721 -0.00235756 0)
(-2.66206 -0.00213619 0)
(-2.66696 -0.00189303 0)
(-2.67193 -0.00162842 0)
(-2.67698 -0.00135348 0)
(-2.6821 -0.0010189 0)
(-2.68735 -0.000716921 0)
(-2.6927 -0.000428808 0)
(-2.69816 -0.000153484 0)
(-2.70374 9.47473e-05 0)
(-2.70946 0.000296931 0)
(-2.71533 0.00042963 0)
(-2.72135 0.000464756 0)
(-2.72755 0.000368971 0)
(-2.73395 0.000104973 0)
(-2.74057 -0.000365481 0)
(-2.74743 -0.00107861 0)
(-2.75457 -0.00207963 0)
(-2.76191 -0.00339897 0)
(-2.76956 -0.00504395 0)
(-2.77747 -0.00701367 0)
(-2.78558 -0.00923981 0)
(-2.79379 -0.0115873 0)
(-2.80192 -0.0138341 0)
(-2.8096 -0.0156266 0)
(-2.8162 -0.0164634 0)
(-2.82065 -0.0156505 0)
(-2.82114 -0.0123002 0)
(-2.81639 -0.004078 0)
(-2.79889 0.0132646 0)
(-2.76151 0.045408 0)
(-2.69016 0.104347 0)
(-2.5558 0.204828 0)
(-2.38525 0.337537 0)
(-2.47563 -0.000822811 0)
(-2.47614 -0.00133768 0)
(-2.47992 -0.0016671 0)
(-2.48352 -0.00183813 0)
(-2.4873 -0.00190959 0)
(-2.49136 -0.00192145 0)
(-2.49545 -0.00190274 0)
(-2.49964 -0.00186698 0)
(-2.50384 -0.00182627 0)
(-2.50808 -0.00178427 0)
(-2.51229 -0.0017451 0)
(-2.51653 -0.00170849 0)
(-2.52075 -0.00167762 0)
(-2.52498 -0.00164978 0)
(-2.52919 -0.00162488 0)
(-2.5334 -0.00160317 0)
(-2.53759 -0.00158448 0)
(-2.54178 -0.00156737 0)
(-2.54595 -0.00155154 0)
(-2.5501 -0.00153635 0)
(-2.55424 -0.0015216 0)
(-2.55837 -0.0015069 0)
(-2.56247 -0.00148956 0)
(-2.56654 -0.00147144 0)
(-2.57061 -0.00145499 0)
(-2.57463 -0.00143816 0)
(-2.57861 -0.00142129 0)
(-2.58254 -0.00140563 0)
(-2.58643 -0.00139073 0)
(-2.59026 -0.0013764 0)
(-2.59405 -0.00136323 0)
(-2.59779 -0.00135184 0)
(-2.60149 -0.00134295 0)
(-2.60514 -0.00133715 0)
(-2.60875 -0.00133452 0)
(-2.61231 -0.00133497 0)
(-2.61584 -0.00133914 0)
(-2.61933 -0.00134695 0)
(-2.62278 -0.0013579 0)
(-2.62619 -0.00137187 0)
(-2.62958 -0.00138868 0)
(-2.63294 -0.00140783 0)
(-2.63627 -0.00142893 0)
(-2.63959 -0.00145137 0)
(-2.64288 -0.00147459 0)
(-2.64616 -0.00149794 0)
(-2.64944 -0.00152058 0)
(-2.6527 -0.00154182 0)
(-2.65596 -0.00156101 0)
(-2.65923 -0.00157752 0)
(-2.6625 -0.00158982 0)
(-2.66578 -0.00159615 0)
(-2.66907 -0.00159769 0)
(-2.67239 -0.00159437 0)
(-2.67572 -0.00158174 0)
(-2.67909 -0.00155682 0)
(-2.68249 -0.00151872 0)
(-2.68594 -0.00146692 0)
(-2.68943 -0.00140036 0)
(-2.69296 -0.00131762 0)
(-2.69656 -0.00121759 0)
(-2.70022 -0.00109869 0)
(-2.70393 -0.000964108 0)
(-2.70771 -0.000760439 0)
(-2.71161 -0.000572038 0)
(-2.71557 -0.000363965 0)
(-2.71963 -0.000130003 0)
(-2.72378 0.000130409 0)
(-2.72804 0.000416769 0)
(-2.73241 0.000725668 0)
(-2.73692 0.0010508 0)
(-2.74152 0.00144441 0)
(-2.74626 0.00181171 0)
(-2.75117 0.00216937 0)
(-2.75626 0.00251938 0)
(-2.76154 0.00284795 0)
(-2.76702 0.00313637 0)
(-2.77271 0.00336168 0)
(-2.77863 0.00349629 0)
(-2.78478 0.00350784 0)
(-2.79118 0.00336008 0)
(-2.79784 0.00301356 0)
(-2.80479 0.00242585 0)
(-2.81204 0.001564 0)
(-2.81951 0.000394633 0)
(-2.82739 -0.00110645 0)
(-2.83552 -0.00294237 0)
(-2.84384 -0.00506551 0)
(-2.85234 -0.00738622 0)
(-2.86074 -0.00974372 0)
(-2.86863 -0.0118878 0)
(-2.8753 -0.0134994 0)
(-2.87959 -0.0141421 0)
(-2.8797 -0.0132978 0)
(-2.87291 -0.00950616 0)
(-2.85338 -0.000101893 0)
(-2.81038 0.0186549 0)
(-2.72638 0.0538412 0)
(-2.57397 0.113547 0)
(-2.39015 0.188213 0)
(-2.54871 7.68154e-05 0)
(-2.54991 3.57988e-05 0)
(-2.55354 9.21021e-06 0)
(-2.55717 1.43524e-05 0)
(-2.56084 3.96818e-05 0)
(-2.5648 7.26446e-05 0)
(-2.56862 0.000107651 0)
(-2.57255 0.000142496 0)
(-2.57631 0.000172729 0)
(-2.5801 0.000198294 0)
(-2.58373 0.000218409 0)
(-2.58735 0.000233982 0)
(-2.59083 0.000243927 0)
(-2.59427 0.000249843 0)
(-2.5976 0.0002529 0)
(-2.60087 0.00025316 0)
(-2.60406 0.000250536 0)
(-2.60718 0.000246669 0)
(-2.61023 0.00024203 0)
(-2.61321 0.000236783 0)
(-2.61612 0.000231673 0)
(-2.61898 0.00022725 2.67131e-42)
(-2.62178 0.000225076 0)
(-2.62452 0.000223236 0)
(-2.6272 0.0002194 0)
(-2.62984 0.000214613 0)
(-2.63243 0.00020916 0)
(-2.63498 0.00020264 0)
(-2.63749 0.000196094 0)
(-2.63997 0.000190539 0)
(-2.64241 0.000185551 0)
(-2.64483 0.000179644 0)
(-2.64724 0.000172053 0)
(-2.64962 0.000162881 0)
(-2.65198 0.000151768 0)
(-2.65434 0.000138738 0)
(-2.6567 0.000123356 0)
(-2.65904 0.000105912 0)
(-2.66139 8.68593e-05 0)
(-2.66374 6.62691e-05 0)
(-2.6661 4.45443e-05 0)
(-2.66847 2.20214e-05 0)
(-2.67086 -7.41087e-07 0)
(-2.67326 -2.31532e-05 0)
(-2.67569 -4.46204e-05 0)
(-2.67814 -6.44336e-05 0)
(-2.68062 -8.18035e-05 0)
(-2.68312 -9.59949e-05 0)
(-2.68567 -0.000106447 0)
(-2.68825 -0.000112202 0)
(-2.69087 -0.000111853 0)
(-2.69353 -0.00010457 0)
(-2.69624 -9.06289e-05 0)
(-2.699 -6.88358e-05 0)
(-2.70181 -3.4907e-05 0)
(-2.70468 1.35359e-05 0)
(-2.70762 7.722e-05 0)
(-2.71062 0.000156649 0)
(-2.71369 0.000252941 0)
(-2.71683 0.000367783 0)
(-2.72005 0.000502498 0)
(-2.72336 0.000657014 0)
(-2.72677 0.000830941 0)
(-2.73024 0.00107768 0)
(-2.7338 0.00131219 0)
(-2.73748 0.00156914 0)
(-2.74126 0.00185533 0)
(-2.74517 0.00217153 0)
(-2.74921 0.00251742 0)
(-2.75338 0.00288872 0)
(-2.7577 0.00329243 0)
(-2.76217 0.00373948 0)
(-2.76678 0.00418859 0)
(-2.77158 0.00463788 0)
(-2.77656 0.00508338 0)
(-2.78175 0.00551251 0)
(-2.78716 0.00590755 0)
(-2.79279 0.00624636 0)
(-2.79867 0.00650194 0)
(-2.80482 0.00664261 0)
(-2.81125 0.00663259 0)
(-2.81798 0.00643157 0)
(-2.82504 0.00599549 7.04766e-41)
(-2.83245 0.00529378 0)
(-2.84021 0.00428694 0)
(-2.84834 0.0029388 0)
(-2.85674 0.00124771 0)
(-2.86534 -0.000773702 -9.09483e-42)
(-2.87408 -0.0030722 0)
(-2.88258 -0.0055498 0)
(-2.89064 -0.00808021 0)
(-2.89744 -0.0105211 0)
(-2.9018 -0.0127148 0)
(-2.90186 -0.0144719 -8.5058e-41)
(-2.89445 -0.0153386 0)
(-2.87374 -0.0145199 0)
(-2.82912 -0.0108305 -1.27312e-40)
(-2.74046 -0.00207968 0)
(-2.58071 0.0141202 0)
(-2.39237 0.0348174 0)
(-2.54139 0.00105552 0)
(-2.54247 0.00141058 0)
(-2.54602 0.00167163 0)
(-2.54956 0.00183775 0)
(-2.55315 0.00194238 0)
(-2.55702 0.00200335 0)
(-2.56078 0.00203698 0)
(-2.56465 0.00205256 0)
(-2.56837 0.00205504 0)
(-2.57214 0.00204669 0)
(-2.57576 0.00203133 0)
(-2.57938 0.00200942 0)
(-2.58289 0.00198285 0)
(-2.58636 0.00195167 0)
(-2.58974 0.00191863 0)
(-2.59308 0.00188379 0)
(-2.59634 0.00184702 0)
(-2.59954 0.00180988 0)
(-2.60268 0.0017733 0)
(-2.60577 0.00173723 0)
(-2.6088 0.00170264 0)
(-2.61177 0.00167022 1.96334e-41)
(-2.61469 0.00164026 0)
(-2.61757 0.00161172 0)
(-2.62039 0.00158371 0)
(-2.62317 0.00155638 0)
(-2.6259 0.00152979 0)
(-2.62859 0.00150261 0)
(-2.63125 0.00147663 0)
(-2.63386 0.00145477 0)
(-2.63644 0.00143595 0)
(-2.639 0.00141754 0)
(-2.64153 0.00139892 0)
(-2.64404 0.00138065 0)
(-2.64653 0.00136221 0)
(-2.64901 0.00134339 0)
(-2.65147 0.00132429 0)
(-2.65392 0.00130508 0)
(-2.65637 0.00128593 0)
(-2.65882 0.00126694 0)
(-2.66128 0.00124862 0)
(-2.66373 0.00123126 0)
(-2.6662 0.00121536 0)
(-2.66868 0.00120147 0)
(-2.67118 0.00119016 0)
(-2.67369 0.00118218 0)
(-2.67623 0.00117821 0)
(-2.6788 0.00117906 0)
(-2.68139 0.0011853 0)
(-2.68402 0.00119792 0)
(-2.68668 0.00121809 0)
(-2.68939 0.00124638 0)
(-2.69213 0.00128283 0)
(-2.69492 0.00132925 0)
(-2.69776 0.00139032 0)
(-2.70065 0.00146842 0)
(-2.7036 0.00156353 0)
(-2.70662 0.00167595 0)
(-2.7097 0.00180698 0)
(-2.71285 0.00195859 0)
(-2.71607 0.00213246 0)
(-2.71938 0.00232793 0)
(-2.72278 0.00255585 0)
(-2.72625 0.00282928 0)
(-2.72981 0.00311596 0)
(-2.73347 0.00342802 0)
(-2.73724 0.00377124 0)
(-2.74112 0.00414747 0)
(-2.74513 0.00455657 0)
(-2.74926 0.00499759 0)
(-2.75353 0.00547571 0)
(-2.75794 0.00599039 0)
(-2.76251 0.00652178 0)
(-2.76724 0.00706289 0)
(-2.77216 0.00760618 0)
(-2.77728 0.00813939 0)
(-2.78262 0.00864582 0)
(-2.78818 0.00910433 0)
(-2.794 0.00948898 0)
(-2.8001 0.00976897 0)
(-2.80648 0.00990908 0)
(-2.81319 0.0098695 0)
(-2.82025 0.00960878 1.12951e-40)
(-2.82767 0.00908906 0)
(-2.83548 0.00826264 0)
(-2.84367 0.0070879 0)
(-2.8522 0.00554231 0)
(-2.86102 0.00360426 4.23679e-41)
(-2.86988 0.00129962 0)
(-2.87854 -0.00132846 0)
(-2.88648 -0.00425706 0)
(-2.89321 -0.00753705 0)
(-2.89758 -0.0112913 0)
(-2.89772 -0.0157045 -9.23026e-41)
(-2.89046 -0.0212642 0)
(-2.87 -0.0289722 0)
(-2.82582 -0.0405974 -4.7722e-40)
(-2.73917 -0.0590326 0)
(-2.58143 -0.0872362 0)
(-2.39513 -0.119436 0)
(-2.45951 0.00187939 0)
(-2.45965 0.00268913 0)
(-2.46317 0.00323786 0)
(-2.4664 0.00357433 0)
(-2.46982 0.00377318 0)
(-2.47349 0.00388207 0)
(-2.47719 0.00393697 0)
(-2.48102 0.0039572 0)
(-2.48485 0.00395648 0)
(-2.48874 0.00393976 0)
(-2.49263 0.00391465 0)
(-2.49656 0.00388125 0)
(-2.50051 0.00384302 0)
(-2.50447 0.00380004 0)
(-2.50845 0.00375533 0)
(-2.51246 0.00370907 0)
(-2.51647 0.00366116 0)
(-2.52051 0.00361259 0)
(-2.52457 0.00356471 0)
(-2.52863 0.00351758 0)
(-2.53271 0.00347187 0)
(-2.53679 0.00342833 0)
(-2.54088 0.00338661 0)
(-2.54498 0.00334626 0)
(-2.54908 0.00330695 0)
(-2.55318 0.00326842 0)
(-2.55727 0.00323084 0)
(-2.56137 0.00319209 0)
(-2.56544 0.00315367 0)
(-2.56952 0.00311866 0)
(-2.57357 0.00308509 0)
(-2.57759 0.00305086 0)
(-2.58156 0.00301664 0)
(-2.5855 0.00298322 0)
(-2.58939 0.00295038 0)
(-2.59325 0.00291802 0)
(-2.59707 0.00288671 0)
(-2.60084 0.00285636 0)
(-2.60459 0.00282707 0)
(-2.60829 0.00279926 0)
(-2.61196 0.00277347 0)
(-2.61559 0.00275006 0)
(-2.61919 0.00272958 0)
(-2.62277 0.00271255 0)
(-2.62632 0.00269953 0)
(-2.62985 0.00269139 0)
(-2.63335 0.0026888 0)
(-2.63684 0.0026926 0)
(-2.64031 0.00270349 0)
(-2.64378 0.00272246 0)
(-2.64723 0.00275046 0)
(-2.65068 0.00278812 0)
(-2.65413 0.00283517 0)
(-2.65758 0.00289378 0)
(-2.66104 0.00296988 0)
(-2.66451 0.00306648 0)
(-2.66799 0.00318207 0)
(-2.6715 0.00331658 0)
(-2.67504 0.00347187 0)
(-2.67861 0.00364988 0)
(-2.68221 0.00385244 0)
(-2.68586 0.00408162 0)
(-2.68955 0.00434566 0)
(-2.6933 0.00464703 0)
(-2.6971 0.00497321 0)
(-2.70096 0.00532934 0)
(-2.7049 0.00571961 0)
(-2.70892 0.00614616 0)
(-2.71302 0.00660951 0)
(-2.71723 0.00711015 0)
(-2.72154 0.00765039 0)
(-2.72595 0.00822836 0)
(-2.7305 0.00883395 0)
(-2.73519 0.00945838 0)
(-2.74003 0.010092 0)
(-2.74506 0.0107232 0)
(-2.75027 0.0113361 0)
(-2.7557 0.0119109 0)
(-2.76136 0.012423 0)
(-2.76729 0.0128426 0)
(-2.7735 0.0131353 0)
(-2.78003 0.0132621 0)
(-2.7869 0.0131822 0)
(-2.79415 0.0128525 0)
(-2.80179 0.0122231 0)
(-2.80983 0.0112434 0)
(-2.81824 0.00985873 0)
(-2.82694 0.00802044 0)
(-2.83574 0.00569525 0)
(-2.84445 0.00286155 0)