/*--------------------------------*- C++ -*----------------------------------*\
| =========                 |                                                 |
| \\      /  F ield         | OpenFOAM: The Open Source CFD Toolbox           |
|  \\    /   O peration     | Version:  2.1.0                                 |
|   \\  /    A nd           | Web:      www.OpenFOAM.org                      |
|    \\/     M anipulation  |                                                 |
\*---------------------------------------------------------------------------*/
FoamFile
{
    version     2.0;
    format      ascii;
    class       volScalarField;
    location    "0.04";
    object      C1;
}
// * * * * * * * * * * * * * * * * * * * * * * * * * * * * * * * * * * * * * //

dimensions      [0 0 0 0 0 0 0];

internalField   nonuniform List<scalar> 
6400
(
4.24098e-93
1.61365e-92
6.15239e-92
2.33768e-91
8.85187e-91
3.34043e-90
1.25636e-89
4.70929e-89
1.75929e-88
6.55001e-88
2.43024e-87
8.98597e-87
3.31122e-86
1.21596e-85
4.44893e-85
1.62157e-84
5.88726e-84
2.12894e-83
7.66776e-83
2.7504e-82
9.82451e-82
3.4945e-81
1.23769e-80
4.3646e-80
1.53238e-79
5.35642e-79
1.86392e-78
6.45552e-78
2.225e-77
7.63154e-77
2.60453e-76
8.84417e-76
2.98746e-75
1.00356e-74
3.35196e-74
1.11311e-73
3.67443e-73
1.20519e-72
3.92664e-72
1.27053e-71
4.08115e-71
1.30083e-70
4.11313e-70
1.28993e-69
4.01132e-69
1.23636e-68
3.77601e-68
1.14245e-67
3.42174e-67
1.01429e-66
2.9755e-66
8.63513e-66
2.47806e-65
7.02882e-65
1.96948e-64
5.44863e-64
1.48748e-63
4.00501e-63
1.06292e-62
2.77913e-62
7.15502e-62
1.81314e-61
4.52106e-61
1.10904e-60
2.67609e-60
6.35159e-60
1.48282e-59
3.40494e-59
7.69035e-59
1.70845e-58
3.73332e-58
8.0251e-58
1.69705e-57
3.53055e-57
7.22599e-57
1.45499e-56
2.88213e-56
5.61583e-56
1.07608e-55
2.02675e-55
3.74962e-55
6.80753e-55
1.21119e-54
2.10758e-54
3.57602e-54
5.89118e-54
9.36728e-54
1.42546e-53
2.05116e-53
2.74446e-53
3.33403e-53
3.55609e-53
3.19348e-53
2.35034e-53
1.52936e-53
1.2386e-53
1.00693e-53
6.66691e-54
3.2284e-54
9.42729e-55
3.32521e-92
1.26624e-91
4.82877e-91
1.83524e-90
6.95164e-90
2.62438e-89
9.87491e-89
3.7033e-88
1.38428e-87
5.1572e-87
1.91486e-86
7.08583e-86
2.6132e-85
9.60462e-85
3.51738e-84
1.28333e-83
4.66443e-83
1.6888e-82
6.09059e-82
2.18788e-81
7.82778e-81
2.7892e-80
9.8977e-80
3.49744e-79
1.23063e-78
4.31207e-78
1.50448e-77
5.22557e-77
1.80668e-76
6.21776e-76
2.12981e-75
7.26092e-75
2.46319e-74
8.3126e-74
2.7902e-73
9.31488e-73
3.09252e-72
1.02052e-71
3.34666e-71
1.09046e-70
3.52884e-70
1.13362e-69
3.61404e-69
1.14335e-68
3.58858e-68
1.11685e-67
3.44597e-67
1.05389e-66
3.19194e-66
9.57192e-66
2.84235e-65
8.35423e-65
2.42943e-64
6.98638e-64
1.98567e-63
5.57471e-63
1.54506e-62
4.22487e-62
1.13912e-61
3.02666e-61
7.92071e-61
2.04063e-60
5.1736e-60
1.29041e-59
3.16588e-59
7.63922e-59
1.81287e-58
4.23089e-58
9.71023e-58
2.19153e-57
4.86391e-57
1.06157e-56
2.27846e-56
4.80919e-56
9.9823e-56
2.03752e-55
4.08934e-55
8.06893e-55
1.56482e-54
2.98119e-54
5.57545e-54
1.02256e-53
1.83647e-53
3.22294e-53
5.50989e-53
9.13579e-53
1.46031e-52
2.23135e-52
3.22122e-52
4.32388e-52
5.28173e-52
5.70932e-52
5.29143e-52
4.12575e-52
2.88363e-52
2.45613e-52
1.99891e-52
1.3369e-52
6.76022e-53
2.27273e-53
1.5594e-91
5.95928e-91
2.28065e-90
8.6998e-90
3.30786e-89
1.25363e-88
4.73582e-88
1.78318e-87
6.69329e-87
2.50428e-86
9.33903e-86
3.47136e-85
1.28611e-84
4.74946e-84
1.74784e-83
6.40904e-83
2.34143e-82
8.5221e-82
3.09021e-81
1.11632e-80
4.01728e-80
1.44009e-79
5.14215e-79
1.82864e-78
6.4769e-78
2.28518e-77
8.03082e-77
2.81035e-76
9.79234e-76
3.39774e-75
1.17381e-74
4.03793e-74
1.38289e-73
4.71351e-73
1.59873e-72
5.39627e-72
1.81269e-71
6.05592e-71
2.01188e-70
6.64625e-70
2.18219e-69
7.11686e-69
2.3049e-68
7.41326e-68
2.36729e-67
7.50033e-67
2.35721e-66
7.34811e-66
2.26918e-65
6.93989e-65
2.10248e-64
6.30667e-64
1.87219e-63
5.49697e-63
1.59529e-62
4.57309e-62
1.29404e-61
3.61213e-61
9.93957e-61
2.69461e-60
7.193e-60
1.88974e-59
4.88424e-59
1.24157e-58
3.10351e-58
7.62776e-58
1.84322e-57
4.37908e-57
1.02283e-56
2.34871e-56
5.30228e-56
1.1768e-55
2.56777e-55
5.50818e-55
1.16157e-54
2.40787e-54
4.90603e-54
9.82307e-54
1.93217e-53
3.73171e-53
7.07154e-53
1.31343e-52
2.38751e-52
4.23853e-52
7.32682e-52
1.22806e-51
1.98444e-51
3.0672e-51
4.48657e-51
6.12466e-51
7.6622e-51
8.5911e-51
8.43545e-51
7.18169e-51
5.63767e-51
5.2094e-51
4.3633e-51
3.05759e-51
1.68177e-51
6.69594e-52
6.20266e-91
2.38041e-90
9.14922e-90
3.50533e-89
1.33882e-88
5.09739e-88
1.93458e-87
7.31839e-87
2.7603e-86
1.0379e-85
3.8901e-85
1.45338e-84
5.41285e-84
2.00958e-83
7.43641e-83
2.74234e-82
1.00768e-81
3.6894e-81
1.34594e-80
4.89226e-80
1.7719e-79
6.39407e-79
2.29863e-78
8.23084e-78
2.93561e-77
1.0432e-76
3.69356e-76
1.30255e-75
4.57486e-75
1.60053e-74
5.57663e-74
1.93565e-73
6.69132e-73
2.303e-72
7.89074e-72
2.69165e-71
9.1437e-71
3.09076e-70
1.03952e-69
3.47893e-69
1.15793e-68
3.8304e-68
1.25905e-67
4.11301e-67
1.33489e-66
4.30155e-66
1.37573e-65
4.36613e-65
1.37348e-64
4.27994e-64
1.32122e-63
4.03898e-63
1.22208e-62
3.65757e-62
1.08207e-61
3.16214e-61
9.12146e-61
2.59533e-60
7.27889e-60
2.01096e-59
5.4697e-59
1.46399e-58
3.85444e-58
9.97956e-58
2.54049e-57
6.35829e-57
1.56443e-56
3.78401e-56
8.99759e-56
2.10319e-55
4.83299e-55
1.09181e-54
2.42481e-54
5.29406e-54
1.13621e-53
2.39688e-53
4.9694e-53
1.01238e-52
2.02595e-52
3.98062e-52
7.67373e-52
1.45001e-51
2.68188e-51
4.84586e-51
8.53093e-51
1.4578e-50
2.4058e-50
3.80806e-50
5.7294e-50
8.0986e-50
1.05977e-49
1.26177e-49
1.34399e-49
1.27504e-49
1.13361e-49
1.12763e-49
9.97033e-50
7.50739e-50
4.58117e-50
2.15131e-50
2.23038e-90
8.59708e-90
3.31899e-89
1.27733e-88
4.90083e-88
1.87469e-87
7.1489e-87
2.71731e-86
1.02988e-85
3.89179e-85
1.46614e-84
5.50573e-84
2.06131e-83
7.69286e-83
2.86225e-82
1.0615e-81
3.92317e-81
1.44501e-80
5.30322e-80
1.9394e-79
7.06828e-79
2.56717e-78
9.2902e-78
3.34919e-77
1.20246e-76
4.30181e-76
1.53385e-75
5.44862e-75
1.92817e-74
6.7983e-74
2.38751e-73
8.35452e-73
2.9124e-72
1.01127e-71
3.49666e-71
1.20404e-70
4.13028e-70
1.41047e-69
4.79512e-69
1.62256e-68
5.46299e-68
1.82926e-67
6.09016e-67
2.01597e-66
6.63224e-66
2.16814e-65
7.03903e-65
2.26838e-64
7.25233e-64
2.29822e-63
7.21506e-63
2.24348e-62
6.90553e-62
2.10278e-61
6.33015e-61
1.88257e-60
5.52698e-60
1.60069e-59
4.56985e-59
1.28524e-58
3.55887e-58
9.69783e-58
2.59963e-57
6.85336e-57
1.77654e-56
4.52782e-56
1.13457e-55
2.79515e-55
6.7704e-55
1.61237e-54
3.77541e-54
8.69214e-54
1.96769e-53
4.37978e-53
9.58508e-53
2.06236e-52
4.36229e-52
9.06948e-52
1.85292e-51
3.71848e-51
7.32582e-51
1.41569e-50
2.68036e-50
4.96367e-50
8.97014e-50
1.57696e-49
2.68546e-49
4.40475e-49
6.90722e-49
1.02579e-48
1.42597e-48
1.83083e-48
2.14406e-48
2.28493e-48
2.30165e-48
2.43675e-48
2.31369e-48
1.90171e-48
1.29959e-48
7.09604e-49
7.33757e-90
2.84072e-89
1.10145e-88
4.25817e-88
1.64105e-87
6.30576e-87
2.4157e-86
9.22518e-86
3.5128e-85
1.33377e-84
5.04987e-84
1.9058e-83
7.17152e-83
2.69046e-82
1.00621e-81
3.75151e-81
1.39437e-80
5.16558e-80
1.90686e-79
7.01545e-79
2.57208e-78
9.3988e-78
3.42266e-77
1.24191e-76
4.48828e-76
1.61622e-75
5.80158e-75
2.07511e-74
7.39622e-74
2.62691e-73
9.29455e-73
3.27657e-72
1.15095e-71
4.02852e-71
1.40435e-70
4.8761e-70
1.68669e-69
5.81127e-69
1.99374e-68
6.8094e-68
2.31497e-67
7.83216e-67
2.63573e-66
8.82065e-66
2.93445e-65
9.70597e-65
3.19045e-64
1.04138e-63
3.37487e-63
1.08497e-62
3.45682e-62
1.09117e-61
3.41058e-61
1.0549e-60
3.2266e-60
9.75253e-60
2.91077e-59
8.5723e-59
2.48926e-58
7.12253e-58
2.00698e-57
5.56659e-57
1.5192e-56
4.07852e-56
1.07689e-55
2.7963e-55
7.14041e-55
1.79307e-54
4.4281e-54
1.07549e-53
2.56909e-53
6.0362e-53
1.39502e-52
3.1713e-52
7.0916e-52
1.5599e-51
3.37508e-51
7.18237e-51
1.50306e-50
3.09239e-50
6.25225e-50
1.24145e-49
2.41867e-49
4.61745e-49
8.62191e-49
1.57068e-48
2.78212e-48
4.7697e-48
7.86807e-48
1.23952e-47
1.84784e-47
2.57966e-47
3.33904e-47
3.99261e-47
4.5038e-47
5.12515e-47
5.29249e-47
4.80048e-47
3.6923e-47
2.31462e-47
2.20239e-89
8.56264e-89
3.33414e-88
1.29469e-87
5.01226e-87
1.93461e-86
7.44393e-86
2.85554e-85
1.09226e-84
4.16616e-84
1.58496e-83
6.01149e-83
2.2733e-82
8.57164e-82
3.22082e-81
1.20675e-80
4.5086e-80
1.67917e-79
6.23439e-79
2.3069e-78
8.50759e-78
3.12705e-77
1.14551e-76
4.18304e-76
1.52177e-75
5.51581e-75
1.99256e-74
7.17359e-74
2.57388e-73
9.20319e-73
3.27967e-72
1.16442e-71
4.11925e-71
1.45225e-70
5.10011e-70
1.78444e-69
6.22058e-69
2.15993e-68
7.47059e-68
2.57297e-67
8.82153e-67
3.01067e-66
1.02252e-65
3.45456e-65
1.16064e-64
3.87762e-64
1.28788e-63
4.24969e-63
1.39296e-62
4.53247e-62
1.46265e-61
4.6784e-61
1.48243e-60
4.65051e-60
1.44337e-59
4.42882e-59
1.3425e-58
4.01728e-58
1.18582e-57
3.45047e-57
9.89149e-57
2.79233e-56
7.75935e-56
2.12185e-55
5.70888e-55
1.51107e-54
3.93458e-54
1.00786e-53
2.53987e-53
6.29746e-53
1.5364e-52
3.68868e-52
8.71576e-52
2.02694e-51
4.63991e-51
1.04552e-50
2.31915e-50
5.06407e-50
1.08847e-49
2.30261e-49
4.7929e-49
9.81227e-49
1.97449e-48
3.9016e-48
7.5603e-48
1.43392e-47
2.65508e-47
4.78299e-47
8.34507e-47
1.40208e-46
2.25247e-46
3.43175e-46
4.91645e-46
6.58309e-46
8.28178e-46
1.02214e-45
1.16045e-45
1.17242e-45
1.01957e-45
7.2878e-46
5.98265e-89
2.33482e-88
9.12974e-88
3.5593e-87
1.38375e-86
5.365e-86
2.07362e-85
7.99095e-85
3.07011e-84
1.17622e-83
4.49504e-83
1.71309e-82
6.50771e-82
2.46462e-81
9.30475e-81
3.50349e-80
1.31534e-79
4.92316e-79
1.83731e-78
6.83413e-78
2.53391e-77
9.36561e-77
3.45141e-76
1.26779e-75
4.64061e-75
1.69268e-74
6.15223e-74
2.22893e-73
8.04899e-73
2.89612e-72
1.03867e-71
3.71195e-71
1.32207e-70
4.69417e-70
1.66062e-69
5.85198e-69
2.05446e-68
7.18712e-68
2.50446e-67
8.68954e-67
3.00209e-66
1.03278e-65
3.5371e-65
1.20535e-64
4.0862e-64
1.37781e-63
4.61903e-63
1.53903e-62
5.09568e-62
1.67574e-61
5.46927e-61
1.77035e-60
5.68002e-60
1.80523e-59
5.67954e-59
1.76757e-58
5.43758e-58
1.65226e-57
4.95531e-57
1.46582e-56
4.27426e-56
1.22799e-55
3.47464e-55
9.67992e-55
2.65456e-54
7.16507e-54
1.90344e-53
4.97686e-53
1.28086e-52
3.24501e-52
8.09393e-52
1.98788e-51
4.80803e-51
1.14538e-50
2.68776e-50
6.21356e-50
1.41529e-49
3.17641e-49
7.02473e-49
1.53079e-48
3.28661e-48
6.95083e-48
1.4475e-47
2.96645e-47
5.97735e-47
1.18273e-46
2.29404e-46
4.35126e-46
8.0453e-46
1.44408e-45
2.50326e-45
4.16438e-45
6.60039e-45
9.89373e-45
1.39507e-44
1.87866e-44
2.37061e-44
2.69516e-44
2.66891e-44
2.17679e-44
1.45528e-88
5.69861e-88
2.23576e-87
8.74555e-87
3.41272e-86
1.32801e-85
5.1529e-85
1.99437e-84
7.69546e-84
2.96031e-83
1.13559e-82
4.34467e-82
1.6574e-81
6.30689e-81
2.39266e-80
9.04662e-80
3.4114e-79
1.28257e-78
4.80823e-78
1.79752e-77
6.69656e-77
2.48732e-76
9.21401e-76
3.40266e-75
1.25242e-74
4.59513e-74
1.67995e-73
6.12199e-73
2.22397e-72
8.05182e-72
2.90581e-71
1.04503e-70
3.74544e-70
1.33847e-69
4.7678e-69
1.69177e-68
5.98219e-68
2.1077e-67
7.39699e-67
2.58609e-66
9.00254e-66
3.12047e-65
1.07713e-64
3.70092e-64
1.26532e-63
4.30386e-63
1.45597e-62
4.89689e-62
1.63699e-61
5.43746e-61
1.7936e-60
5.87139e-60
1.90624e-59
6.13425e-59
1.95525e-58
6.16878e-58
1.92504e-57
5.93757e-57
1.80878e-56
5.43833e-56
1.61285e-55
4.7157e-55
1.35877e-54
3.85702e-54
1.07839e-53
2.96934e-53
8.0517e-53
2.15015e-52
5.65508e-52
1.46504e-51
3.73907e-51
9.4028e-51
2.33026e-50
5.69221e-50
1.37075e-49
3.25463e-49
7.62036e-49
1.75967e-48
4.00786e-48
9.00412e-48
1.99536e-47
4.36141e-47
9.40139e-47
1.998e-46
4.18449e-46
8.63059e-46
1.75132e-45
3.49163e-45
6.82678e-45
1.30572e-44
2.43502e-44
4.40882e-44
7.70567e-44
1.29042e-43
2.05121e-43
3.07033e-43
4.36243e-43
5.65823e-43
6.4641e-43
6.07828e-43
3.12993e-88
1.22821e-87
4.82984e-87
1.89471e-86
7.4149e-86
2.89431e-85
1.12656e-84
4.37223e-84
1.69222e-83
6.53161e-83
2.51382e-82
9.6506e-82
3.69522e-81
1.41148e-80
5.37633e-80
2.04058e-79
7.72343e-79
2.91502e-78
1.09715e-77
4.11891e-77
1.54124e-76
5.74835e-76
2.13791e-75
7.92931e-75
2.93293e-74
1.08145e-73
3.97404e-73
1.45604e-72
5.31849e-72
1.93648e-71
7.0286e-71
2.54307e-70
9.16931e-70
3.29516e-69
1.18068e-68
4.21645e-68
1.50117e-67
5.32479e-67
1.88161e-66
6.62556e-66
2.32367e-65
8.11701e-65
2.82326e-64
9.77673e-64
3.37023e-63
1.15617e-62
3.94606e-62
1.33951e-61
4.52119e-61
1.5169e-60
5.05656e-60
1.67376e-59
5.49801e-59
1.7911e-58
5.78305e-58
1.84936e-57
5.85352e-57
1.83247e-56
5.66974e-56
1.73259e-55
5.226e-55
1.5551e-54
4.56333e-54
1.32008e-53
3.7637e-53
1.05749e-52
2.92798e-52
7.98925e-52
2.14848e-51
5.69515e-51
1.48835e-50
3.83548e-50
9.74838e-50
2.44418e-49
6.0465e-49
1.47611e-48
3.5567e-48
8.45942e-48
1.98628e-47
4.60436e-47
1.05374e-46
2.38075e-46
5.30974e-46
1.16881e-45
2.53878e-45
5.43985e-45
1.14937e-44
2.39351e-44
4.9097e-44
9.91319e-44
1.96855e-43
3.84079e-43
7.33932e-43
1.36507e-42
2.45427e-42
4.22678e-42
6.88278e-42
1.04055e-41
1.40575e-41
1.56237e-41
5.86365e-88
2.30357e-87
9.07734e-87
3.56865e-86
1.39905e-85
5.47064e-85
2.13337e-84
8.2937e-84
3.21598e-83
1.24391e-82
4.79781e-82
1.8466e-81
7.08877e-81
2.7124e-80
1.03558e-79
3.94349e-79
1.49679e-78
5.66608e-78
2.13902e-77
8.05219e-77
3.02273e-76
1.13132e-75
4.22131e-75
1.57047e-74
5.82743e-74
2.15627e-73
7.95432e-73
2.92542e-72
1.07257e-71
3.9207e-71
1.42915e-70
5.19426e-70
1.88191e-69
6.79587e-69
2.44705e-68
8.78347e-68
3.14224e-67
1.12054e-66
3.98205e-66
1.41024e-65
4.97763e-65
1.75044e-64
6.13078e-64
2.13848e-63
7.42753e-63
2.56799e-62
8.8376e-62
3.02628e-61
1.03076e-60
3.49118e-60
1.17537e-59
3.93129e-59
1.30556e-58
4.30229e-58
1.40597e-57
4.5535e-57
1.46055e-56
4.63661e-56
1.45576e-55
4.51746e-55
1.38467e-54
4.19012e-54
1.25125e-53
3.68605e-53
1.07095e-52
3.0684e-52
8.66882e-52
2.41503e-51
6.63491e-51
1.79785e-50
4.80565e-50
1.26741e-49
3.29872e-49
8.47477e-49
2.14963e-48
5.38448e-48
1.33217e-47
3.25607e-47
7.86357e-47
1.87673e-46
4.42681e-46
1.03211e-45
2.3786e-45
5.41858e-45
1.2201e-44
2.71521e-44
5.97102e-44
1.29729e-43
2.7839e-43
5.899e-43
1.23392e-42
2.5473e-42
5.19072e-42
1.04461e-41
2.06243e-41
3.96765e-41
7.37545e-41
1.30196e-40
2.09728e-40
2.7962e-40
9.42353e-88
3.70565e-87
1.46079e-86
5.74681e-86
2.25523e-85
8.82422e-85
3.4435e-84
1.34023e-83
5.20203e-83
2.01429e-82
7.78038e-82
2.99668e-81
1.15113e-80
4.40948e-80
1.68506e-79
6.42615e-79
2.44267e-78
9.25767e-78
3.49871e-77
1.31849e-76
4.95694e-76
1.85864e-75
6.94613e-75
2.58761e-74
9.61425e-74
3.56253e-73
1.31619e-72
4.84853e-72
1.78094e-71
6.52251e-71
2.38183e-70
8.67243e-70
3.14904e-69
1.1399e-68
4.11346e-68
1.48001e-67
5.30672e-67
1.89701e-66
6.76025e-66
2.40125e-65
8.50167e-65
2.99854e-64
1.05385e-63
3.6897e-63
1.28663e-62
4.46762e-62
1.5443e-61
5.31334e-61
1.81897e-60
6.19409e-60
2.09738e-59
7.05853e-59
2.35982e-58
7.8333e-58
2.58036e-57
8.43017e-57
2.72999e-56
8.75786e-56
2.78162e-55
8.74185e-55
2.71689e-54
8.34614e-54
2.53315e-53
7.59357e-53
2.24763e-52
6.56776e-52
1.8944e-51
5.39347e-51
1.5157e-50
4.20467e-50
1.15152e-49
3.11378e-49
8.3149e-49
2.19309e-48
5.71441e-48
1.47124e-47
3.74353e-47
9.41556e-47
2.3413e-46
5.75687e-46
1.39991e-45
3.36706e-45
8.01095e-45
1.8855e-44
4.3903e-44
1.0113e-43
2.30443e-43
5.19404e-43
1.15786e-42
2.55247e-42
5.56383e-42
1.19917e-41
2.5559e-41
5.3889e-41
1.12234e-40
2.28965e-40
4.54137e-40
8.61745e-40
1.50713e-39
2.21747e-39
1.28628e-87
5.05787e-87
1.99339e-86
7.83597e-86
3.07263e-85
1.20173e-84
4.68864e-84
1.82485e-83
7.08349e-83
2.74178e-82
1.05841e-81
4.0741e-81
1.56387e-80
5.98886e-80
2.28722e-79
8.71201e-79
3.30961e-78
1.25388e-77
4.73622e-77
1.7838e-76
6.70196e-76
2.51116e-75
9.37885e-75
3.49283e-74
1.29704e-73
4.80209e-73
1.77312e-72
6.52814e-72
2.39687e-71
8.77381e-71
3.2014e-70
1.16466e-69
4.22404e-69
1.52785e-68
5.50864e-68
1.98025e-67
7.09814e-67
2.53674e-66
9.03766e-66
3.20907e-65
1.13589e-64
4.00668e-64
1.40838e-63
4.93271e-63
1.72091e-62
5.97966e-62
2.06887e-61
7.12567e-61
2.44266e-60
8.33159e-60
2.8266e-59
9.53465e-59
3.19655e-58
1.06469e-57
3.52158e-57
1.15619e-56
3.76615e-56
1.21655e-55
3.8952e-55
1.23568e-54
3.88201e-54
1.20723e-53
3.7148e-53
1.13069e-52
3.40325e-52
1.01272e-51
2.97889e-51
8.6606e-51
2.48852e-50
7.0669e-50
1.98343e-49
5.50213e-49
1.50871e-48
4.08973e-48
1.0961e-47
2.90495e-47
7.61418e-47
1.97412e-46
5.06354e-46
1.28508e-45
3.22745e-45
8.02218e-45
1.97365e-44
4.80637e-44
1.15865e-43
2.76482e-43
6.53046e-43
1.52667e-42
3.53195e-42
8.08525e-42
1.83115e-41
4.1027e-41
9.09385e-41
1.99466e-40
4.33018e-40
9.23651e-40
1.92332e-39
3.85483e-39
7.19793e-39
1.15496e-38
1.47821e-87
5.80634e-87
2.28524e-86
8.96895e-86
3.51073e-85
1.37071e-84
5.33776e-84
2.07351e-83
8.03392e-83
3.10321e-82
1.19524e-81
4.59104e-81
1.75877e-80
6.72003e-80
2.56023e-79
9.72438e-79
3.68414e-78
1.39223e-77
5.24701e-77
1.97163e-76
7.3865e-76
2.75933e-75
1.02757e-74
3.81634e-74
1.41326e-73
5.21698e-73
1.92022e-72
7.04623e-72
2.57797e-71
9.40428e-71
3.41929e-70
1.23919e-69
4.47807e-69
1.61313e-68
5.7927e-68
2.07404e-67
7.40207e-67
2.63336e-66
9.34377e-66
3.30522e-65
1.16499e-64
4.09323e-64
1.43304e-63
4.99843e-63
1.73718e-62
6.01396e-62
2.0734e-61
7.11749e-61
2.43207e-60
8.27022e-60
2.79758e-59
9.4119e-59
3.14845e-58
1.04693e-57
3.45943e-57
1.13558e-56
3.70177e-56
1.19793e-55
3.84716e-55
1.22575e-54
3.87339e-54
1.21358e-53
3.76885e-53
1.15982e-52
3.53601e-52
1.06778e-51
3.19318e-51
9.45542e-51
2.77215e-50
8.0464e-50
2.31218e-49
6.57763e-49
1.85247e-48
5.16518e-48
1.42592e-47
3.89772e-47
1.05504e-46
2.82822e-46
7.50891e-46
1.9747e-45
5.1442e-45
1.32756e-44
3.39414e-44
8.59705e-44
2.15727e-43
5.36253e-43
1.32038e-42
3.21977e-42
7.77425e-42
1.85821e-41
4.39565e-41
1.02883e-40
2.38221e-40
5.45676e-40
1.23701e-39
2.76336e-39
6.04775e-39
1.28127e-38
2.55601e-38
4.47912e-38
1.42429e-87
5.57812e-87
2.18849e-86
8.56455e-86
3.34252e-85
1.30098e-84
5.04888e-84
1.95375e-83
7.54173e-83
2.90249e-82
1.1136e-81
4.25971e-81
1.62509e-80
6.18273e-80
2.34523e-79
8.87053e-79
3.34534e-78
1.25806e-77
4.7186e-77
1.76477e-76
6.57999e-76
2.44595e-75
9.06447e-75
3.34866e-74
1.23319e-73
4.52694e-73
1.65653e-72
6.04204e-72
2.19636e-71
7.95943e-71
2.87515e-70
1.03498e-69
3.71428e-69
1.32827e-68
4.73434e-68
1.68234e-67
5.958e-67
2.10279e-66
7.39827e-66
2.59484e-65
9.06921e-65
3.15912e-64
1.09653e-63
3.79181e-63
1.30619e-62
4.48218e-62
1.53189e-61
5.21327e-61
1.76608e-60
5.95324e-60
1.99646e-59
6.66028e-59
2.21002e-58
7.29278e-58
2.39276e-57
7.80411e-57
2.52973e-56
8.14821e-56
2.60737e-55
8.28739e-55
2.61603e-54
8.20001e-54
2.55199e-53
7.88468e-53
2.41815e-52
7.36104e-52
2.2239e-51
6.66787e-51
1.98395e-50
5.85777e-50
1.71628e-49
4.98998e-49
1.4397e-48
4.12212e-48
1.17128e-47
3.30298e-47
9.24435e-47
2.56795e-46
7.08029e-46
1.93766e-45
5.2634e-45
1.41909e-44
3.79746e-44
1.00852e-43
2.65786e-43
6.94989e-43
1.80272e-42
4.63735e-42
1.18265e-41
2.98893e-41
7.4826e-41
1.85467e-40
4.54945e-40
1.10398e-39
2.649e-39
6.27982e-39
1.46332e-38
3.31729e-38
7.14529e-38
1.37839e-37
1.13683e-87
4.43333e-87
1.73198e-86
6.74797e-86
2.62171e-85
1.01566e-84
3.92317e-84
1.51086e-83
5.80142e-83
2.22118e-82
8.478e-82
3.22579e-81
1.22363e-80
4.62761e-80
1.74498e-79
6.56107e-79
2.45936e-78
9.18969e-78
3.42364e-77
1.27175e-76
4.7095e-76
1.73826e-75
6.39536e-75
2.34503e-74
8.56937e-74
3.12092e-73
1.13256e-72
4.09612e-72
1.47627e-71
5.30149e-71
1.89742e-70
6.76748e-70
2.40472e-69
8.51326e-69
3.0032e-68
1.05575e-67
3.69827e-67
1.29083e-66
4.48909e-66
1.55539e-65
5.36935e-65
1.84674e-64
6.32718e-64
2.15927e-63
7.33984e-63
2.48456e-62
8.37358e-62
2.80975e-61
9.38463e-61
3.11869e-60
1.03113e-59
3.39201e-59
1.11015e-58
3.61436e-58
1.17044e-57
3.76951e-57
1.20721e-56
3.84413e-56
1.21701e-55
3.83037e-55
1.19846e-54
3.72764e-54
1.1526e-53
3.54303e-53
1.08279e-52
3.29027e-52
9.94197e-52
2.98753e-51
8.92891e-51
2.6545e-50
7.85104e-50
2.31046e-49
6.76662e-49
1.97253e-48
5.72438e-48
1.65412e-47
4.76003e-47
1.36436e-46
3.89565e-46
1.10818e-45
3.14088e-45
8.86982e-45
2.49571e-44
6.99617e-44
1.95368e-43
5.43357e-43
1.50463e-42
4.14685e-42
1.13694e-41
3.09899e-41
8.3919e-41
2.25583e-40
6.01409e-40
1.58858e-39
4.15201e-39
1.07385e-38
2.73792e-38
6.81468e-38
1.62044e-37
3.49484e-37
7.42432e-88
2.88116e-87
1.12005e-86
4.34117e-86
1.6776e-85
6.46338e-85
2.48262e-84
9.50683e-84
3.62855e-83
1.38057e-82
5.23603e-82
1.97951e-81
7.45933e-81
2.80183e-80
1.04911e-79
3.91579e-79
1.45693e-78
5.40327e-78
1.99732e-77
7.3586e-77
2.70201e-76
9.88749e-76
3.60572e-75
1.31026e-74
4.74389e-74
1.71122e-73
6.14914e-73
2.2014e-72
7.85133e-72
2.78932e-71
9.87165e-71
3.48035e-70
1.22207e-69
4.2741e-69
1.48894e-68
5.16625e-68
1.78535e-67
6.14514e-67
2.10667e-66
7.19206e-66
2.44504e-65
8.27756e-65
2.79017e-64
9.36404e-64
3.12895e-63
1.04074e-62
3.44536e-62
1.13524e-61
3.72223e-61
1.21418e-60
3.94097e-60
1.27287e-59
4.09063e-59
1.30793e-58
4.16031e-58
1.31638e-57
4.14312e-57
1.29701e-56
4.03853e-56
1.25074e-55
3.85297e-55
1.18069e-54
3.59946e-54
1.09182e-53
3.29579e-53
9.90246e-53
2.96211e-52
8.82347e-52
2.61803e-51
7.73988e-51
2.28064e-50
6.70019e-50
1.9633e-49
5.7401e-49
1.67521e-48
4.88236e-48
1.42171e-47
4.1384e-47
1.20481e-46
3.50996e-46
1.02381e-45
2.99159e-45
8.76168e-45
2.57327e-44
7.58199e-44
2.24196e-43
6.65446e-43
1.98273e-42
5.92953e-42
1.77918e-41
5.3528e-41
1.61319e-40
4.86364e-40
1.46391e-39
4.38508e-39
1.30347e-38
3.83025e-38
1.09947e-37
3.01166e-37
7.4766e-37
3.84724e-88
1.48591e-87
5.74793e-87
2.21649e-86
8.52016e-86
3.26475e-85
1.247e-84
4.74737e-84
1.80118e-83
6.81052e-83
2.56642e-82
9.63848e-82
3.60747e-81
1.34562e-80
5.00218e-80
1.85314e-79
6.84171e-79
2.51728e-78
9.22928e-78
3.37153e-77
1.22715e-76
4.45016e-76
1.60785e-75
5.78726e-75
2.07488e-74
7.4089e-74
2.63482e-73
9.33152e-73
3.29109e-72
1.15585e-71
4.04211e-71
1.40745e-70
4.87935e-70
1.68415e-69
5.78725e-69
1.97972e-68
6.74128e-68
2.28504e-67
7.71014e-67
2.58932e-66
8.6543e-66
2.87862e-65
9.5278e-65
3.13812e-64
1.02849e-63
3.35362e-63
1.08793e-62
3.51158e-62
1.12747e-61
3.60058e-61
1.14408e-60
3.61719e-60
1.13781e-59
3.56059e-59
1.10844e-58
3.43266e-58
1.05749e-57
3.24086e-57
9.88078e-57
2.99707e-56
9.04516e-56
2.71644e-55
8.11924e-55
2.41573e-54
7.15657e-54
2.11159e-53
6.20717e-53
1.81845e-52
5.31112e-52
1.54708e-51
4.49631e-51
1.30441e-50
3.77915e-50
1.09402e-49
3.16629e-49
9.1672e-49
2.65683e-48
7.71314e-48
2.24467e-47
6.55326e-47
1.92091e-46
5.65841e-46
1.6767e-45
5.00358e-45
1.50572e-44
4.57641e-44
1.40757e-43
4.39185e-43
1.39447e-42
4.52275e-42
1.50496e-41
5.1599e-41
1.82836e-40
6.69017e-40
2.50936e-39
9.51079e-39
3.58245e-38
1.31257e-37
4.51734e-37
1.37021e-36
1.42078e-88
5.4683e-88
2.10772e-87
8.09733e-87
3.10054e-86
1.18329e-85
4.50077e-85
1.70601e-84
6.44374e-84
2.42516e-83
9.09464e-83
3.39836e-82
1.26526e-81
4.69371e-81
1.73489e-80
6.38907e-80
2.34423e-79
8.56957e-79
3.12093e-78
1.13221e-77
4.09138e-77
1.47265e-76
5.2796e-76
1.88515e-75
6.7029e-75
2.373e-74
8.36422e-74
2.93503e-73
1.02525e-72
3.56491e-72
1.23377e-71
4.2496e-71
1.45668e-70
4.96889e-70
1.68658e-69
5.69586e-69
1.9137e-68
6.39642e-68
2.1269e-67
7.03467e-67
2.31412e-66
7.57091e-66
2.46311e-65
7.969e-65
2.56387e-64
8.20171e-64
2.60877e-63
8.25145e-63
2.59477e-62
8.11206e-62
2.52221e-61
7.79967e-61
2.3988e-60
7.33725e-60
2.2321e-59
6.75387e-59
2.03272e-58
6.08579e-58
1.81262e-57
5.37143e-57
1.58387e-56
4.64793e-56
1.35768e-55
3.94859e-55
1.14374e-54
3.30071e-54
9.49379e-54
2.72268e-53
7.7885e-53
2.22332e-52
6.33648e-52
1.80391e-51
5.13266e-51
1.46046e-50
4.15845e-50
1.18566e-49
3.38752e-49
9.70554e-49
2.79064e-48
8.05888e-48
2.33939e-47
6.8327e-47
2.00992e-46
5.96119e-46
1.78473e-45
5.40076e-45
1.65423e-44
5.13697e-44
1.62033e-43
5.20462e-43
1.71094e-42
5.83073e-42
2.12754e-41
8.80689e-41
4.36983e-40
2.56854e-39
1.59863e-38
9.62917e-38
5.11733e-37
2.16744e-36
2.30397e-89
8.87598e-89
3.42673e-88
1.31855e-87
5.05665e-87
1.93273e-86
7.36198e-86
2.79436e-85
1.05679e-84
3.98204e-84
1.49493e-83
5.5915e-83
2.08359e-82
7.73529e-82
2.86095e-81
1.05413e-80
3.86909e-80
1.4147e-79
5.15264e-79
1.86918e-78
6.7531e-78
2.42982e-77
8.70683e-77
3.10706e-76
1.10399e-75
3.90507e-75
1.37501e-74
4.819e-74
1.68094e-73
5.83521e-73
2.01571e-72
6.92834e-72
2.36932e-71
8.0609e-71
2.72824e-70
9.18531e-70
3.0758e-69
1.02436e-68
3.39291e-68
1.11754e-67
3.65991e-67
1.19169e-66
3.85739e-66
1.24124e-65
3.97041e-65
1.26231e-64
3.98878e-64
1.25276e-63
3.90977e-63
1.21244e-62
3.73689e-62
1.14475e-61
3.48514e-61
1.05445e-60
3.17042e-60
9.47322e-60
2.81305e-59
8.30186e-59
2.43513e-58
7.10013e-58
2.05812e-57
5.93247e-57
1.70093e-56
4.85267e-56
1.37814e-55
3.89779e-55
1.09839e-54
3.08547e-54
8.64421e-54
2.41656e-53
6.74505e-53
1.88082e-52
5.24271e-52
1.46181e-51
4.07987e-51
1.14059e-50
3.19637e-50
8.98588e-50
2.53608e-49
7.19103e-49
2.05022e-48
5.88276e-48
1.70036e-47
4.95563e-47
1.45779e-46
4.33264e-46
1.30215e-45
3.96078e-45
1.21989e-44
3.8045e-44
1.20203e-43
3.87089e-43
1.31854e-42
5.18466e-42
2.52755e-41
1.65741e-40
1.66318e-39
2.72409e-38
3.80124e-37
2.919e-36
1.22539e-55
1.03151e-55
9.35103e-56
8.07977e-56
6.75486e-56
5.54877e-56
4.52892e-56
3.70155e-56
3.04466e-56
2.52657e-56
2.11571e-56
1.78398e-56
1.50794e-56
1.26854e-56
1.05078e-56
8.44241e-57
6.44289e-57
4.54453e-57
2.90904e-57
1.88573e-57
5.03721e-54
4.0238e-54
3.38161e-54
2.76787e-54
2.21891e-54
1.76046e-54
1.39485e-54
1.11119e-54
8.94026e-55
7.27988e-55
5.99908e-55
4.991e-55
4.17229e-55
3.47838e-55
2.85988e-55
2.28245e-55
1.72905e-55
1.20586e-55
7.54516e-56
4.68217e-56
2.05714e-52
1.57505e-52
1.23557e-52
9.55056e-53
7.30928e-53
5.57983e-53
4.27876e-53
3.31445e-53
2.60351e-53
2.07713e-53
1.68249e-53
1.3799e-53
1.14017e-53
9.4165e-54
7.68285e-54
6.08979e-54
4.57821e-54
3.15504e-54
1.92693e-54
1.14109e-54
8.15686e-51
6.00576e-51
4.45565e-51
3.26781e-51
2.38748e-51
1.75063e-51
1.29647e-51
9.74542e-52
7.46012e-52
5.82252e-52
4.6301e-52
3.73993e-52
3.05225e-52
2.49611e-52
2.02041e-52
1.59022e-52
1.18605e-52
8.07107e-53
4.80325e-53
2.7037e-53
3.10942e-49
2.21283e-49
1.56591e-49
1.09596e-49
7.66359e-50
5.39997e-50
3.85965e-50
2.81217e-50
2.09535e-50
1.59805e-50
1.24636e-50
9.90755e-51
7.98235e-51
6.46195e-51
5.18815e-51
4.0544e-51
2.99948e-51
2.01436e-51
1.16612e-51
6.21123e-52
1.13228e-47
7.83563e-48
5.32525e-48
3.57435e-48
2.39943e-48
1.62706e-48
1.12277e-48
7.92678e-49
5.74526e-49
4.27863e-49
3.27075e-49
2.55733e-49
2.03333e-49
1.62916e-49
1.29742e-49
1.00673e-49
7.38743e-50
4.89389e-50
2.75123e-50
1.3796e-50
3.92101e-46
2.65528e-46
1.74338e-46
1.12707e-46
7.28435e-47
4.76182e-47
3.17499e-47
2.17238e-47
1.53133e-47
1.11322e-47
8.33763e-48
6.40993e-48
5.02869e-48
3.98781e-48
3.15057e-48
2.42796e-48
1.76746e-48
1.15469e-48
6.29324e-49
2.95382e-49
1.28701e-44
8.58197e-45
5.47184e-45
3.42003e-45
2.13369e-45
1.34697e-45
8.68655e-46
5.76257e-46
3.95128e-46
2.80367e-46
2.05692e-46
1.55462e-46
1.20336e-46
9.44662e-47
7.40627e-47
5.67094e-47
4.09687e-47
2.63919e-47
1.39225e-47
6.07716e-48
3.99382e-43
2.63784e-43
1.64065e-43
9.94627e-44
6.00358e-44
3.66611e-44
2.28926e-44
1.47336e-44
9.83033e-45
6.8084e-45
4.89257e-45
3.63517e-45
2.77659e-45
2.15836e-45
1.67996e-45
1.27879e-45
9.17279e-46
5.82694e-46
2.97082e-46
1.19761e-46
1.16891e-41
7.68997e-42
4.68413e-42
2.76224e-42
1.6164e-42
9.56279e-43
5.7883e-43
3.61632e-43
2.34855e-43
1.58772e-43
1.1176e-43
8.16338e-44
6.1539e-44
4.73859e-44
3.66349e-44
2.77408e-44
1.97707e-44
1.23875e-44
6.0967e-45
2.2538e-45
2.43858e-40
1.61077e-40
9.69205e-41
5.59623e-41
3.18878e-41
1.83047e-41
1.07623e-41
6.54511e-42
4.14495e-42
2.73866e-42
1.88975e-42
1.35814e-42
1.01115e-42
7.72019e-43
5.94593e-43
4.5043e-43
3.22176e-43
2.02937e-43
9.99704e-44
3.57466e-44
2.18052e-39
1.47548e-39
9.02265e-40
5.26713e-40
3.02392e-40
1.74651e-40
1.03245e-40
6.31753e-41
4.02495e-41
2.67647e-41
1.85773e-41
1.34319e-41
1.00616e-41
7.73523e-42
6.00878e-42
4.60281e-42
3.34019e-42
2.14613e-42
1.08713e-42
3.97296e-43
1.28295e-38
8.9641e-39
5.62179e-39
3.35134e-39
1.96031e-39
1.15252e-39
6.9287e-40
4.3083e-40
2.78889e-40
1.8846e-40
1.32831e-40
9.74235e-41
7.3978e-41
5.76437e-41
4.54165e-41
3.53458e-41
2.61512e-41
1.72307e-41
9.02962e-42
3.41909e-42
5.66212e-38
4.11638e-38
2.66582e-38
1.63298e-38
9.79279e-39
5.89743e-39
3.62955e-39
2.30875e-39
1.52768e-39
1.05438e-39
7.58348e-40
5.66917e-40
4.3832e-40
3.47525e-40
2.78646e-40
2.2094e-40
1.67014e-40
1.13029e-40
6.13208e-41
2.40678e-41
1.99987e-37
1.5262e-37
1.02775e-37
6.50623e-38
4.02139e-38
2.49333e-38
1.57877e-38
1.03231e-38
7.01285e-39
4.962e-39
3.65389e-39
2.79261e-39
2.20451e-39
1.78283e-39
1.45762e-39
1.17938e-39
9.11793e-40
6.33903e-40
3.55544e-40
1.44168e-40
5.87412e-37
4.75453e-37
3.35448e-37
2.20795e-37
1.41426e-37
9.07325e-38
5.9378e-38
4.00698e-38
2.80447e-38
2.04033e-38
1.54199e-38
1.20731e-38
9.74755e-39
8.05244e-39
6.7206e-39
5.55261e-39
4.39108e-39
3.13407e-39
1.81362e-39
7.56817e-40
1.47222e-36
1.27893e-36
9.53283e-37
6.56818e-37
4.38657e-37
2.92754e-37
1.98892e-37
1.3901e-37
1.00513e-37
7.53545e-38
5.85432e-38
4.70158e-38
3.88623e-38
3.28187e-38
2.79737e-38
2.36017e-38
1.90832e-38
1.39672e-38
8.32098e-39
3.5611e-39
3.20974e-36
3.03252e-36
2.41025e-36
1.75226e-36
1.22879e-36
8.57929e-37
6.07577e-37
4.41051e-37
3.30089e-37
2.55332e-37
2.0409e-37
1.68212e-37
1.42399e-37
1.22955e-37
1.07033e-37
9.21852e-38
7.6145e-38
5.70709e-38
3.49306e-38
1.52865e-38
6.18758e-36
6.4493e-36
5.52599e-36
4.28278e-36
3.17829e-36
2.33313e-36
1.7274e-36
1.30444e-36
1.01124e-36
8.07318e-37
6.63929e-37
5.61527e-37
4.8674e-37
4.29612e-37
3.81791e-37
3.35464e-37
2.82776e-37
2.16702e-37
1.36002e-37
6.07125e-38
1.07158e-35
1.2511e-35
1.17625e-35
9.82978e-36
7.7636e-36
6.00604e-36
4.65191e-36
3.65381e-36
2.93254e-36
2.41473e-36
2.04174e-36
1.77074e-36
1.5706e-36
1.41614e-36
1.28396e-36
1.14999e-36
9.88117e-37
7.73013e-37
4.96456e-37
2.25681e-37
3.97022e-264
2.93231e-264
2.16127e-264
1.62411e-264
1.2243e-264
9.143e-265
6.73629e-265
4.90775e-265
3.55752e-265
2.58459e-265
1.89298e-265
1.40255e-265
1.05156e-265
7.9571e-266
6.05403e-266
4.62871e-266
3.59403e-266
2.9364e-266
2.69947e-266
2.85785e-266
5.97956e-262
4.39023e-262
3.23156e-262
2.42922e-262
1.83266e-262
1.3699e-262
1.01032e-262
7.36882e-263
5.34778e-263
3.89007e-263
2.8527e-263
2.11619e-263
1.58839e-263
1.20307e-263
9.15955e-264
7.00543e-264
5.43912e-264
4.44216e-264
4.0867e-264
4.35222e-264
8.90868e-260
6.50225e-260
4.78017e-260
3.59486e-260
2.71432e-260
2.03091e-260
1.4994e-260