/*--------------------------------*- C++ -*----------------------------------*\
| =========                 |                                                 |
| \\      /  F ield         | OpenFOAM: The Open Source CFD Toolbox           |
|  \\    /   O peration     | Version:  2.1.0                                 |
|   \\  /    A nd           | Web:      www.OpenFOAM.org                      |
|    \\/     M anipulation  |                                                 |
\*---------------------------------------------------------------------------*/
FoamFile
{
    version     2.0;
    format      ascii;
    class       volScalarField;
    location    "0.04";
    object      k;
}
// * * * * * * * * * * * * * * * * * * * * * * * * * * * * * * * * * * * * * //

dimensions      [0 2 -2 0 0 0 0];

internalField   nonuniform List<scalar> 
6400
(
0.032916
0.0329392
0.0329481
0.0329553
0.0329568
0.032956
0.0329483
0.0329319
0.0329206
0.0329177
0.0329175
0.0329212
0.032928
0.0329343
0.0329396
0.0329458
0.0329524
0.0329612
0.0329685
0.0329757
0.03298
0.0329809
0.0329792
0.0329739
0.0329652
0.0329532
0.0329405
0.0329288
0.0329216
0.0329162
0.0329105
0.0329067
0.0329033
0.0329017
0.0329018
0.0329036
0.0329039
0.0329029
0.0328989
0.03289
0.0328778
0.0328546
0.0328155
0.032756
0.0326725
0.0325637
0.0324231
0.0322396
0.0320042
0.0317127
0.0313657
0.0309536
0.0304638
0.0298906
0.0292262
0.0284667
0.0276105
0.0266612
0.0256327
0.0245378
0.0233943
0.0222097
0.0209978
0.0197751
0.018561
0.0173738
0.0162424
0.0151922
0.0142255
0.0133533
0.0125857
0.0119273
0.0113812
0.0109363
0.010561
0.0102277
0.00993569
0.00969696
0.0095767
0.0095471
0.00955066
0.00957889
0.00962365
0.00966995
0.00968817
0.00967977
0.0095945
0.0094201
0.00920079
0.00890234
0.00838544
0.00757491
0.00641718
0.00486476
0.00309107
0.00164023
0.00150217
0.00297041
0.00488901
0.0055146
0.00305594
0.00303365
0.00302376
0.00300235
0.00298284
0.00297279
0.00296952
0.00296893
0.00296907
0.00297113
0.00297641
0.00298484
0.00299541
0.00300728
0.00301343
0.00301632
0.0030171
0.00301631
0.00301299
0.00300591
0.00299632
0.00298332
0.00297105
0.00296669
0.00296498
0.00296416
0.00296348
0.00296302
0.00296297
0.00296335
0.00296457
0.00296572
0.00296685
0.00296825
0.00297051
0.00297338
0.00297584
0.00297684
0.00297677
0.00297521
0.00297197
0.00296653
0.00295963
0.00295216
0.00294495
0.00293776
0.00293031
0.00292249
0.00291956
0.00291909
0.0029208
0.00293071
0.00295118
0.00297983
0.00301623
0.00306283
0.00312154
0.00318788
0.00325479
0.00330809
0.0033548
0.00343023
0.00356979
0.00379192
0.0040987
0.00448277
0.00492972
0.00542738
0.00600511
0.00670412
0.00753886
0.00850616
0.00960557
0.010821
0.0121693
0.0136748
0.0152995
0.01696
0.0185915
0.0201946
0.0217824
0.023322
0.0247468
0.0260023
0.0270399
0.027742
0.028049
0.0281449
0.02801
0.0271738
0.025629
0.0235694
0.0208639
0.0175026
0.0140995
0.0109543
0.00840799
0.00677481
0.00573485
0.00488767
0.00113645
0.00113476
0.00113395
0.00113242
0.00113119
0.00113013
0.00112976
0.00112956
0.00112948
0.00112949
0.00112969
0.0011303
0.00113119
0.0011319
0.0011322
0.00113241
0.00113243
0.00113229
0.00113179
0.00113139
0.00113064
0.0011298
0.00112902
0.00112882
0.00112876
0.00112866
0.00112871
0.00112855
0.00112869
0.00112863
0.0011287
0.00112874
0.00112878
0.00112869
0.00112868
0.00112867
0.00112867
0.00112878
0.00112945
0.00113019
0.00113144
0.00113317
0.00113645
0.00114093
0.00114799
0.0011573
0.00117166
0.00118998
0.00121437
0.00124614
0.00128213
0.00132134
0.0013611
0.00140712
0.00146665
0.00154338
0.00164114
0.00175707
0.00189738
0.00206314
0.00226596
0.00251805
0.00283631
0.00324029
0.00375227
0.00439101
0.00516868
0.00608112
0.00709432
0.00815997
0.00927124
0.0104511
0.0117343
0.0131603
0.014729
0.0163773
0.0180772
0.0198174
0.0215657
0.023269
0.0248811
0.0263491
0.0276207
0.0286591
0.0293083
0.0295829
0.0296665
0.0295476
0.0287085
0.0272816
0.0256817
0.0235573
0.020723
0.0176158
0.0143685
0.0109501
0.00812551
0.00615555
0.0046156
0.00327165
0.00106162
0.00106172
0.00106176
0.00106157
0.00106146
0.00106109
0.00106098
0.00106092
0.00106091
0.00106078
0.00106093
0.00106127
0.00106126
0.00106144
0.00106142
0.00106129
0.00106139
0.00106141
0.00106141
0.00106149
0.00106137
0.00106144
0.00106149
0.00106183
0.0010619
0.00106178
0.00106172
0.00106159
0.00106177
0.00106194
0.00106197
0.00106211
0.0010618
0.00106191
0.00106163
0.00106161
0.00106118
0.00106119
0.00106181
0.00106261
0.00106406
0.00106574
0.0010696
0.00107429
0.00107987
0.00108725
0.0010973
0.00110881
0.00112305
0.00114215
0.00116576
0.00119603
0.0012347
0.0012841
0.00134736
0.00142629
0.0015255
0.00164819
0.00180247
0.00199438
0.00223812
0.00254685
0.0029395
0.00343598
0.00405091
0.00478727
0.00563085
0.00655976
0.00754913
0.00857459
0.00962261
0.0106856
0.0117586
0.0128391
0.0139431
0.0150814
0.0162069
0.017248
0.0181706
0.0189703
0.0196473
0.0201472
0.0203769
0.0204588
0.0204395
0.0200309
0.0193059
0.0185293
0.0174902
0.0161843
0.0148188
0.013325
0.0116169
0.00989211
0.00817982
0.00642702
0.0049114
0.00367885
0.00280363
0.00243338
0.00105564
0.00105671
0.0010568
0.00105719
0.00105742
0.00105732
0.00105773
0.00105759
0.00105737
0.00105744
0.0010574
0.00105797
0.00105827
0.00105848
0.00105842
0.00105882
0.00105876
0.00105884
0.0010586
0.00105908
0.0010578
0.00105751
0.00105777
0.00105847
0.00105872
0.001058
0.00105808
0.00105794
0.00105818
0.00105873
0.00105907
0.00105867
0.00105856
0.00105902
0.0010594
0.00105877
0.00105819
0.00105795
0.00105869
0.00105893
0.00105899
0.00106061
0.00106269
0.00106388
0.00106537
0.00106939
0.00107282
0.00107722
0.00108411
0.00109571
0.00111376
0.00113953
0.00117504
0.00122082
0.00128099
0.00135639
0.00145055
0.00156716
0.0017127
0.00189462
0.00212633
0.00242299
0.00279934
0.00326047
0.00379543
0.00438471
0.00500433
0.00564051
0.00628802
0.00694844
0.00761801
0.00827664
0.00889173
0.00945428
0.00997326
0.0104482
0.0108644
0.0112048
0.0114342
0.0115365
0.0115698
0.0115352
0.011293
0.0109574
0.0105975
0.0101044
0.00951646
0.00893571
0.00826243
0.00754293
0.00685168
0.0060963
0.005409
0.00478893
0.00406867
0.00341646
0.00295771
0.00260954
0.00246714
0.00245022
0.00105035
0.00105043
0.00105067
0.0010509
0.00105143
0.00105147
0.00105122
0.00105147
0.00105144
0.00105158
0.00105177
0.00105223
0.00105199
0.00105185
0.00105181
0.00105151
0.00105167
0.00105166
0.00105172
0.00105149
0.0010518
0.00105158
0.00105139
0.00105123
0.00105123
0.00105145
0.00105136
0.00105137
0.00105154
0.00105179
0.00105182
0.00105177
0.00105159
0.00105185
0.00105153
0.00105156
0.00105153
0.00105183
0.00105184
0.00105171
0.0010521
0.00105228
0.0010528
0.00105302
0.00105368
0.00105427
0.00105504
0.00105659
0.00106071
0.00106879
0.00108342
0.00110581
0.00113689
0.00117763
0.00123047
0.00129664
0.0013795
0.00148211
0.00160975
0.0017683
0.00196534
0.00220758
0.00249001
0.00279102
0.00309783
0.00342756
0.00380526
0.00423601
0.00468807
0.00510664
0.00544782
0.00570945
0.00592565
0.00611558
0.00627264
0.00638619
0.0064389
0.00645937
0.00646104
0.0064133
0.00630388
0.0061771
0.00601227
0.00579833
0.00557757
0.00534484
0.00507982
0.00480701
0.00453858
0.00426262
0.00397829
0.00370987
0.00346238
0.00320298
0.00295781
0.00277471
0.00263192
0.00256944
0.00255898
0.00264541
0.00104413
0.00104433
0.00104446
0.0010446
0.00104456
0.00104452
0.00104449
0.00104446
0.00104484
0.00104468
0.00104475
0.00104472
0.00104471
0.00104476
0.0010451
0.00104503
0.0010448
0.00104503
0.00104486
0.00104467
0.00104473
0.00104441
0.00104428
0.00104426
0.0010443
0.00104449
0.00104466
0.00104456
0.0010448
0.00104469
0.00104509
0.00104532
0.0010456
0.00104557
0.0010455
0.00104534
0.00104491
0.00104488
0.00104488
0.00104478
0.00104479
0.00104479
0.0010447
0.00104434
0.00104488
0.00104511
0.00104542
0.00104697
0.0010504
0.00105718
0.00106992
0.00108907
0.00111599
0.00115146
0.00119675
0.00125431
0.00132604
0.00141449
0.00152238
0.0016523
0.00180573
0.00197622
0.00215375
0.00234503
0.00256886
0.00284016
0.00315491
0.00348838
0.0038034
0.00406811
0.00427237
0.00442771
0.00455295
0.00465489
0.00470307
0.0047211
0.00472374
0.00469817
0.00462571
0.00455088
0.00447771
0.00438081
0.00426758
0.00415621
0.00404821
0.00392823
0.00380139
0.00368476
0.00357146
0.00344964
0.00333271
0.00323016
0.00313093
0.00303663
0.0029638
0.00292407
0.00290726
0.0029459
0.00310215
0.00320855
0.00104035
0.00104055
0.0010408
0.00104074
0.00104068
0.00104084
0.00104088
0.00104092
0.001041
0.00104095
0.00104082
0.00104083
0.00104058
0.00104065
0.00104064
0.00104034
0.00104042
0.00104053
0.00104045
0.00104045
0.00104049
0.00104042
0.00104022
0.00104025
0.00104038
0.00104065
0.0010409
0.00104092
0.00104062
0.00104104
0.00104108
0.001041
0.00104102
0.00104093
0.00104121
0.00104107
0.00104115
0.00104089
0.00104064
0.00104064
0.00104027
0.00104034
0.00104024
0.00104031
0.00104025
0.00104058
0.00104103
0.00104288
0.00104599
0.00105274
0.00106404
0.00108125
0.00110581
0.00113705
0.0011785
0.00123044
0.00129536
0.00137434
0.00146786
0.00157537
0.00169175
0.00181394
0.00194912
0.00211146
0.00231456
0.00256374
0.0028504
0.00315052
0.00343267
0.00367299
0.00386464
0.00402516
0.0041791
0.0043293
0.00445849
0.00455598
0.00463122
0.00469895
0.00476336
0.00481512
0.00484597
0.00486003
0.00486581
0.00486677
0.00485887
0.00483316
0.00480019
0.00476709
0.00472293
0.00466796
0.00461445
0.00455886
0.004498
0.00444493
0.00441707
0.00440778
0.00446184
0.00459899
0.00484054
0.00497161
0.00103876
0.0010388
0.0010391
0.00103906
0.00103901
0.00103896
0.00103909
0.00103899
0.00103894
0.00103925
0.00103895
0.00103868
0.00103833
0.00103833
0.00103823
0.00103866
0.00103855
0.00103841
0.00103862
0.00103855
0.00103863
0.00103844
0.00103823
0.00103831
0.00103855
0.00103889
0.0010388
0.00103924
0.00103944
0.00103953
0.00103943
0.00103927
0.0010393
0.00103923
0.00103922
0.00103945
0.00103923
0.00103936
0.00103918
0.00103876
0.00103866
0.00103844
0.00103833
0.00103828
0.00103845
0.00103849
0.00103942
0.00104107
0.00104488
0.00105158
0.0010621
0.00107869
0.00110112
0.00113093
0.00117
0.00121948
0.00128069
0.00135418
0.00143859
0.00153026
0.00162631
0.00173012
0.00185191
0.00200561
0.00220408
0.0024528
0.00274464
0.00306033
0.00337641
0.00367868
0.00397098
0.00426783
0.00457774
0.00489662
0.00521303
0.00552072
0.00582358
0.00612693
0.00642783
0.00671746
0.00699201
0.00725466
0.00750753
0.00774704
0.00797113
0.00818325
0.00838672
0.00857991
0.00876191
0.00893616
0.00910455
0.00926446
0.00941622
0.00956857
0.00973292
0.00993894
0.010231
0.0106087
0.0110423
0.0112516
0.00103807
0.00103836
0.00103851
0.00103849
0.00103822
0.00103794
0.00103794
0.00103803
0.00103798
0.00103802
0.00103767
0.00103782
0.00103775
0.00103778
0.00103756
0.0010378
0.00103794
0.00103775
0.00103785
0.00103773
0.00103793
0.00103789
0.00103771
0.00103773
0.00103773
0.00103817
0.00103856
0.00103858
0.00103876
0.00103893
0.00103911
0.00103907
0.00103917
0.00103922
0.00103909
0.00103887
0.00103853
0.00103845
0.00103837
0.00103794
0.00103806
0.00103784
0.00103787
0.00103788
0.00103788
0.00103831
0.00103964
0.00104196
0.00104553
0.00105185
0.00106238
0.00107806
0.00109978
0.00112921
0.00116734
0.00121601
0.00127563
0.00134668
0.00142637
0.00151082
0.00159897
0.00169637
0.00181324
0.00196382
0.00216102
0.00241124
0.0027083
0.00303538
0.00337238
0.00370857
0.00404891
0.00440793
0.00479578
0.00520934
0.00563834
0.00607838
0.00653381
0.00700844
0.00749651
0.00798723
0.00847434
0.00895734
0.009434
0.00989839
0.0103482
0.0107871
0.0112197
0.0116489
0.0120809
0.0125252
0.0129852
0.0134562
0.0139317
0.0144101
0.0148934
0.0153844
0.0158642
0.0162082
0.0163356
0.0158857
0.00103819
0.00103824
0.00103824
0.00103814
0.00103821
0.00103799
0.00103785
0.00103812
0.00103806
0.00103784
0.00103793
0.00103764
0.00103752
0.00103781
0.00103788
0.00103794
0.00103812
0.00103795
0.00103789
0.00103806
0.00103816
0.00103843
0.00103817
0.00103824
0.00103814
0.00103835
0.00103829
0.0010385
0.00103897
0.00103909
0.00103919
0.0010392
0.00103898
0.0010388
0.0010387
0.00103883
0.00103892
0.00103881
0.00103871
0.0010386
0.00103806
0.00103789
0.00103784
0.00103776
0.00103771
0.00103845
0.00103907
0.00104129
0.00104532
0.00105169
0.00106269
0.00107841
0.0011004
0.00113011
0.00116867
0.00121749
0.00127774
0.00134927
0.00143021
0.0015159
0.00160534
0.00170335
0.00182022
0.00197007
0.00216576
0.00241345
0.00270687
0.00302849
0.00335751
0.00368251
0.00400739
0.00434666
0.00471058
0.00509598
0.00549223
0.00589473
0.00630833
0.0067377
0.00717798
0.00761845
0.00805272
0.00847992
0.0088977
0.00929993
0.00968452
0.0100559
0.0104194
0.0107778
0.0111364
0.011505
0.0118894
0.0122894
0.0127016
0.0131238
0.0135711
0.0140515
0.014585
0.0151291
0.0153882
0.0154375
0.00103889
0.00103883
0.00103886
0.00103871
0.00103863
0.00103851
0.00103854
0.00103844
0.00103845
0.00103844
0.00103844
0.00103834
0.0010386
0.00103849
0.00103867
0.00103858
0.00103881
0.00103878
0.00103887
0.00103886
0.00103893
0.00103899
0.00103901
0.00103916
0.00103923
0.00103923
0.00103896
0.00103934
0.00103931
0.00103955
0.00103962
0.00103972
0.0010395
0.00103939
0.00103942
0.00103931
0.00103948
0.00103936
0.00103904
0.0010387
0.00103848
0.00103837
0.00103829
0.00103838
0.00103826
0.00103861
0.00103971
0.00104145
0.00104545
0.00105187
0.001063
0.00107987
0.00110295
0.00113361
0.00117333
0.00122361
0.00128585
0.00136057
0.00144704
0.00154176
0.00164036
0.00174541
0.00186649
0.00201758
0.00221159
0.002454
0.00273716
0.0030405
0.00333793
0.00361295
0.00386978
0.00412238
0.00437799
0.00463191
0.00487231
0.00509269
0.00529703
0.00549258
0.00567863
0.0058474
0.00599498
0.00612412
0.00623652
0.00632831
0.00639766
0.00644895
0.00648661
0.00650297
0.0065073
0.00650679
0.00650438
0.00650483
0.00651504
0.00654518
0.00660465
0.00671539
0.00690383
0.00720011
0.00759667
0.00784227
0.00104024
0.0010405
0.0010405
0.00104022
0.00104017
0.00104035
0.00104032
0.00104026
0.00104024
0.00104027
0.00104037
0.00104022
0.00104071
0.0010406
0.00104052
0.00104045
0.00104083
0.00104088
0.00104103
0.0010411
0.00104103
0.00104117
0.00104124
0.0010413
0.00104139
0.00104128
0.00104133
0.00104098
0.00104095
0.00104109
0.00104092
0.00104092
0.00104104
0.00104078
0.00104076
0.00104086
0.00104057
0.0010407
0.00104086
0.00104073
0.00104029
0.00104045
0.0010403
0.00104012
0.00104014
0.00104027
0.00104127
0.00104342
0.00104694
0.00105388
0.0010656
0.00108374
0.00110874
0.00114146
0.00118376
0.00123691
0.0013033
0.00138418
0.00148035
0.00159191
0.00171334
0.00183903
0.0019737
0.00213176
0.00232788
0.0025683
0.0028444
0.00313149
0.00339595
0.00361007
0.00376321
0.00387279
0.00396993
0.00406338
0.0041367
0.00417615
0.00419596
0.00420492
0.00420703
0.00419924
0.00416859
0.0041271
0.00408676
0.0040376
0.00397496
0.00391151
0.00384998
0.00378025
0.00370544
0.00363803
0.00357695
0.00351892
0.00347393
0.00344823
0.00343796
0.00344354
0.00351899
0.00364158
0.00384535
0.00393853
0.00104433
0.00104477
0.00104453
0.00104448
0.00104433
0.00104456
0.00104445
0.00104419
0.00104421
0.00104443
0.00104446
0.00104438
0.00104468
0.0010448
0.00104461
0.00104466
0.00104479
0.00104474
0.00104498
0.00104514
0.00104494
0.00104524
0.00104552
0.00104547
0.00104523
0.00104533
0.00104548
0.0010452
0.00104484
0.00104486
0.00104485
0.00104474
0.00104468
0.00104473
0.00104477
0.00104459
0.00104454
0.0010443
0.0010443
0.00104443
0.00104457
0.0010446
0.00104431
0.00104431
0.00104452
0.00104493
0.00104561
0.00104737
0.00105156
0.00105881
0.00107193
0.00109223
0.00112038
0.00115687
0.00120359
0.00126234
0.0013356
0.00142596
0.00153657
0.00167005
0.00182821
0.00200519
0.00218656
0.00237585
0.00259031
0.00284847
0.00315059
0.00347285
0.0037769
0.00402736
0.00421253
0.00434427
0.00444698
0.00453616
0.00458715
0.00460675
0.00461193
0.00460319
0.00455801
0.00449284
0.00441902
0.0043218
0.00420987
0.00409745
0.00397443
0.00383665
0.00370147
0.00357367
0.00343957
0.00330341
0.00318326
0.00307131
0.0029545
0.00285622
0.00277349
0.00271191
0.00268587
0.00268611
0.00282369
0.00291394
0.00105152
0.00105139
0.00105173
0.00105125
0.00105103
0.00105128
0.00105142
0.0010518
0.00105155
0.00105162
0.00105168
0.00105194
0.00105197
0.00105151
0.0010516
0.00105173
0.00105149
0.00105156
0.00105142
0.00105171
0.0010515
0.00105195
0.00105161
0.00105171
0.00105162
0.00105201
0.00105182
0.00105194
0.00105176
0.00105131
0.00105129
0.00105145
0.00105139
0.0010513
0.00105156
0.00105099
0.00105101
0.00105061
0.00105123
0.00105147
0.00105176
0.00105158
0.00105216
0.00105232
0.0010526
0.0010537
0.00105467
0.00105712
0.00106163
0.00107071
0.00108579
0.0011091
0.00114132
0.00118298
0.00123666
0.00130355
0.00138779
0.00149161
0.00162081
0.00178122
0.00198085
0.0022255
0.00251137
0.002816
0.00312094
0.00343869
0.00379733
0.00420945
0.00465193
0.00507053
0.00541631
0.00567783
0.0058878
0.00608521
0.00626259
0.00639909
0.00648286
0.00652005
0.00653159
0.00652161
0.00644737
0.00633241
0.00619667
0.0060186
0.00581562
0.00559745
0.00534339
0.00507667
0.00480544
0.00450253
0.00419881
0.00391067
0.00360921
0.00330209
0.00301253
0.00276161
0.00257909
0.00249509
0.00247464
0.0025256
0.00105841
0.00105935
0.00105849
0.00105768
0.00105783
0.00105804
0.00105866
0.00105869
0.00105817
0.00105851
0.00105841
0.00105892
0.00105894
0.0010583
0.00105781
0.00105743
0.00105707
0.00105807
0.00105857
0.0010572
0.00105664
0.00105685
0.00105683
0.00105675
0.00105712
0.0010576
0.00105865
0.00105844
0.00105771
0.00105751
0.00105715
0.00105765
0.00105757
0.00105796
0.00105728
0.00105666
0.00105593
0.00105599
0.00105661
0.00105723
0.0010583
0.00105937
0.0010613
0.00106275
0.00106417
0.00106753
0.00107127
0.00107599
0.00108381
0.0010963
0.00111519
0.00114094
0.00117728
0.00122346
0.00128357
0.0013586
0.001453
0.0015699
0.00171505
0.00189626
0.0021263
0.0024198
0.00279029
0.00324329
0.0037678
0.00434326
0.00494647
0.00556395
0.00619242
0.00683612
0.00749579
0.00815861
0.00879627
0.00938313
0.00992591
0.0104349
0.0108999
0.0113085
0.0116516
0.0118884
0.0119951
0.0120315
0.012014
0.0118217
0.0114895
0.0111463
0.0106812
0.010057
0.00945669
0.00873228
0.00788606
0.00707929
0.00625858
0.00542156
0.0046229
0.00377408
0.00308633
0.00267199
0.00245956
0.0024039
0.00106418
0.00106357
0.00106318
0.00106274
0.00106257
0.00106265
0.00106264
0.00106272
0.00106225
0.00106206
0.00106199
0.00106193
0.00106181
0.00106164
0.00106132
0.00106097
0.00106096
0.00106103
0.00106095
0.00106055
0.00106048
0.00106057
0.00106075
0.00106083
0.0010613
0.00106142
0.00106191
0.0010619
0.0010615
0.00106141
0.00106092
0.00106081
0.0010608
0.00106076
0.00106071
0.00106045
0.00106043
0.00106056
0.00106119
0.0010617
0.00106266
0.00106437
0.0010675
0.00107193
0.00107651
0.00108388
0.00109313
0.00110478
0.00111902
0.00113717
0.00116208
0.00119094
0.00123186
0.00127956
0.00134248
0.00142013
0.00151861
0.00164008
0.00179166
0.00198053
0.00221829
0.002518
0.00289705
0.003375
0.00396601
0.00467359
0.00548551
0.00638325
0.00734203
0.00834365
0.00937604
0.0104374
0.0115249
0.0126376
0.0137755
0.0149599
0.0161783
0.0173642
0.0184653
0.0194685
0.0203698
0.0211534
0.0217682
0.0220963
0.0222368
0.022263
0.0219934
0.0212809
0.0204559
0.0193928
0.0178877
0.016159
0.0142749
0.012062
0.00981438
0.00774955
0.0057024
0.00418452
0.00306521
0.00253902
0.00113463
0.00113302
0.00113264
0.00113258
0.00113277
0.00113328
0.00113435
0.00113503
0.0011351
0.00113493
0.00113398
0.0011327
0.00113065
0.00112972
0.00112915
0.00112892
0.00112881
0.00112893
0.00112892
0.00112889
0.00112897
0.00112933
0.00113019
0.00113154
0.00113283
0.00113333
0.00113385
0.00113401
0.00113394
0.00113401
0.00113357
0.00113287
0.00113201
0.00113088
0.00112986
0.00112927
0.00112834
0.00112811
0.0011281
0.0011282
0.0011287
0.00112974
0.00113196
0.00113588
0.00114102
0.00114954
0.00116232
0.00117958
0.0012017
0.00123231
0.00126968
0.00130846
0.00135108
0.0013968
0.00145557
0.00153039
0.00162619
0.00174137
0.00187943
0.00204276
0.00224028
0.002484
0.00279009
0.00317809
0.00366788
0.00427904
0.00502261
0.00589946
0.00687609
0.00790628
0.00897797
0.0101148
0.0113438
0.0127007
0.0142263
0.0158872
0.0176265
0.0194308
0.0212861
0.0231516
0.0249819
0.0267293
0.0283327
0.0297204
0.0308403
0.0315039
0.0317815
0.0318534
0.0315809
0.0303692
0.0285511
0.0264467
0.0235575
0.0198323
0.0159093
0.0123003
0.00908605
0.00683573
0.00531037
0.00363676
0.00299402
0.00297891
0.00297698
0.00297762
0.00298471
0.0029963
0.00301371
0.00302484
0.00302632
0.00302432
0.00301718
0.00300165
0.0029792
0.00296976
0.00296689
0.00296585
0.00296561
0.00296568
0.00296589
0.00296715
0.00297033
0.0029752
0.0029828
0.00299336
0.00300466
0.0030121
0.00301643
0.00301959
0.00302098
0.00302125
0.00301971
0.00301472
0.00300449
0.00298918
0.00297655
0.0029709
0.00296618
0.00296269
0.00296048
0.00295649
0.00295153
0.00294529
0.00293904
0.00293263
0.0029245
0.00291567
0.00290759
0.0028985
0.00289366
0.00289266
0.00289339
0.00290024
0.0029177
0.00294485
0.00297979
0.00302437
0.00308045
0.00314573
0.00321354
0.00327017
0.00331614
0.00338468
0.00351289
0.00372135
0.00401237
0.00437965
0.00480612
0.00527809
0.00582236
0.0064796
0.00726592
0.00818322
0.00923193
0.010415
0.0117379
0.0132248
0.0148558
0.016557
0.0182598
0.0199666
0.0216983
0.0234422
0.0251313
0.02669
0.0280563
0.02913
0.0296833
0.029908
0.0299343
0.0293714
0.0276838
0.0250765
0.0216646
0.0177508
0.01406
0.0110447
0.00889698
0.00727796
0.00632102
0.00539503
0.0329201
0.0329149
0.0329146
0.0329147
0.0329155
0.0329183
0.0329243
0.0329328
0.0329409
0.0329473
0.0329559
0.0329631
0.0329645
0.032963
0.0329562
0.0329471
0.0329383
0.0329248
0.0329132
0.0329084
0.0329066
0.0329066
0.0329108
0.0329207
0.0329282
0.0329323
0.0329375
0.032943
0.0329494
0.0329567
0.032965
0.0329729
0.0329792
0.0329806
0.0329798
0.0329731
0.0329615
0.0329463
0.0329269
0.0329039
0.0328724
0.032829
0.0327771
0.0327134
0.0326279
0.0325189
0.0323799
0.0321919
0.031952
0.031667
0.0313238
0.0309082
0.0304139
0.0298358
0.0291699
0.0284054
0.0275401
0.0265836
0.0255425
0.0244329
0.0232748
0.0220792
0.0208565
0.0196204
0.0183931
0.0171981
0.0160552
0.014993
0.0140166
0.0131328
0.0123528
0.0116831
0.0111261
0.0106752
0.0102993
0.0099632
0.00966082
0.00943253
0.00935974
0.00935483
0.00938808
0.00946544
0.00957577
0.00970193
0.00982602
0.0098741
0.00985235
0.0097069
0.00944332
0.00906451
0.00839289
0.00724294
0.00565558
0.00402307
0.00256187
0.00158319
0.00142808
0.00296787
0.00525733
0.00603638
0.00519882
0.00151307
0.00132928
0.00128487
0.0012674
0.00123401
0.00122094
0.0012186
0.00121514
0.00121442
0.00121805
0.00122767
0.00124892
0.00128641
0.00133717
0.00139488
0.00146187
0.001728
0.00273486
0.0047286
0.00369718
0.00154918
0.00140341
0.00134941
0.00132207
0.00129937
0.00129413
0.00128301
0.00127878
0.00127738
0.00127808
0.0012882
0.00131314
0.00135417
0.00141255
0.00145813
0.00154566
0.00183428
0.00279783
0.00440184
0.00258234
0.00162817
0.00152261
0.0014707
0.00142934
0.00140917
0.00138467
0.00137378
0.00136891
0.0013676
0.00136956
0.00138698
0.00141481
0.00145926
0.00150861
0.00156514
0.00166172
0.00198312
0.00283477
0.00403947
0.00227512
0.00174841
0.00166745
0.00158915
0.00155358
0.00151661
0.00149965
0.00149074
0.00148731
0.00148726
0.0014769
0.00148615
0.00151659
0.0015609
0.00161445
0.00167413
0.00180111
0.00211061
0.00281827
0.00363135
0.00229915
0.00195212
0.00188085
0.00179689
0.00176556
0.00173356
0.00172347
0.00171197
0.00170691
0.00168375
0.0016571
0.00165417
0.0016928
0.00172915
0.0017878
0.00184909
0.00197819
0.0022729
0.00275012
0.00318515
0.00244763
0.00223731
0.00217642
0.00210444
0.00207988
0.0020536
0.00204576
0.00202406
0.00201183
0.00195917
0.00190979
0.00189159
0.00189885
0.00193414
0.00197765
0.00205813
0.00217888
0.00234196
0.00259447
0.00268825
0.00292888
0.00284438
0.00280182
0.00275653
0.00274535
0.00272636
0.00271998
0.0026736
0.00263292
0.00251671
0.00241096
0.00236536
0.00235475
0.00237346
0.0023612
0.00235007
0.00230622
0.0022972
0.00229396
0.00211741
0.00478077
0.00481275
0.00490116
0.00499909
0.00509939
0.00512416
0.00504753
0.00480982
0.00449891
0.00404416
0.00373098
0.00340094
0.00313729
0.00280802
0.00262664
0.00238711
0.00226301
0.00211603
0.00184322
0.00154331
0.0106076
0.0103106
0.00983068
0.00899043
0.00816123
0.00701787
0.006376
0.00540775
0.00490064
0.00418448
0.00382848
0.00338534
0.00309195
0.00268272
0.00249027
0.0021799
0.00194228
0.00157638
0.00119117
0.000929387
0.012918
0.0116132
0.0100969
0.00880854
0.0075747
0.00679107
0.00568867
0.00514008
0.00425407
0.0038346
0.00325719
0.00299265
0.00256028
0.00212931
0.00191182
0.00166167
0.00126627
0.000970927
0.000697756
0.000499463
0.0128937
0.0119109
0.0102889
0.00923753
0.00783817
0.00714453
0.00600691
0.00547211
0.00470669
0.00425956
0.00368663
0.00337216
0.00301919
0.00267646
0.00241081
0.00213553
0.00184096
0.00143621
0.00107982
0.000801668
0.00760287
0.0075397
0.00749781
0.00722345
0.00706752
0.00651822
0.00608984
0.00529884
0.00491208
0.00427481
0.00396844
0.00348714
0.00323899
0.00295315
0.00275835
0.00253444
0.00240077
0.00218737
0.00180012
0.00145945
0.00361982
0.00357173
0.00349839
0.00344859
0.00342585
0.00336885
0.0033447
0.00327742
0.00324932
0.00308594
0.00292837
0.00286854
0.00279291
0.00273694
0.00266155
0.00258264
0.00250484
0.00248438
0.00237421
0.00210666
0.00261776
0.00252917
0.00246938
0.00240708
0.00238421
0.00234862
0.00233477
0.00229147
0.00226705
0.00218389
0.00211345
0.00208325
0.00208156
0.00212059
0.00217315
0.0022905
0.00241904
0.00257961
0.00276247
0.00275637
0.00229157
0.00209045
0.0020308
0.00195708
0.00193162
0.00190298
0.00189323
0.00187211
0.00186201
0.00182112
0.00178395
0.0017719
0.00179446
0.00184809
0.00190839
0.00200396
0.00218887
0.00254157
0.00302385
0.00333384
0.00220167
0.0018459
0.00177295
0.00168493
0.00165181
0.00161818
0.00160591
0.00159215
0.00158668
0.00157336
0.00155473
0.00155464
0.00159412
0.00163272
0.00170966
0.00179627
0.00198135
0.00237572
0.00313616
0.00385238
0.0022492
0.00169979
0.00162343
0.00154081
0.00150285
0.00147368
0.00146054
0.0014495
0.0014415
0.00143893
0.00143137
0.00144123
0.00146947
0.00151976
0.00156978
0.00165176
0.001805
0.00222856
0.00317615
0.00433033
0.00270341
0.00158313
0.0014683
0.00141811
0.0013724
0.00134124
0.0013265
0.00131939
0.001317
0.00131655
0.00131981
0.00133339
0.00136002
0.00140246
0.001467
0.0015362
0.00166148
0.00205887
0.00317836
0.00475774
0.00406928
0.00153733
0.00139031
0.00133581
0.00131132
0.00127837
0.00126232
0.00125496
0.00125156
0.0012515
0.0012548
0.00126125
0.00128561
0.00132458
0.00138038
0.00144347
0.00154698
0.00190685
0.0030943
0.00514366
0.00576385
0.00150337
0.0013041
0.00125215
0.00123271
0.00121622
0.00119752
0.00118836
0.00118365
0.00118177
0.00119055
0.00120049
0.00122009
0.00125674
0.00131719
0.00138133
0.00145503
0.00178514
0.00302505
0.00549103
0.00396515
0.00374988
0.00374665
0.0037467
0.00374646
0.00374625
0.00374611
0.00374605
0.00374602
0.00374601
0.00374601
0.00374603
0.00374606
0.00374613
0.00374626
0.00374647
0.00374671
0.00374665
0.00374988
0.00396516
0.00440749
0.00375321
0.0037416
0.00374114
0.00374067
0.00374015
0.00373986
0.00373971
0.00373963
0.00373958
0.00373958
0.00373961
0.00373969
0.00373985
0.00374014
0.00374065
0.00374113
0.0037416
0.0037532
0.00440746
0.00488957
0.00376234
0.00373333
0.00373285
0.00373292
0.00373272
0.0037325
0.00373235
0.00373225
0.0037322
0.00373219
0.00373223
0.00373232
0.00373248
0.0037327
0.0037329
0.00373284
0.00373333
0.00376233
0.00488958
0.00531663
0.00377161
0.00372379
0.00372364
0.00372468
0.00372503
0.00372504
0.00372497
0.0037249
0.00372485
0.00372484
0.00372487
0.00372492
0.00372499
0.00372498
0.00372464
0.00372361
0.00372377
0.0037716
0.00531665
0.00569381
0.00378465
0.00371579
0.00371495
0.00371665
0.00371748
0.00371774
0.00371777
0.00371773
0.0037177
0.00371769
0.00371771
0.00371773
0.0037177
0.00371745
0.00371662
0.00371493
0.00371576
0.00378453
0.00569381
0.00613045
0.00379823
0.00370702
0.003706
0.00370859
0.00371
0.00371052
0.00371063
0.0037106
0.00371056
0.00371054
0.00371055
0.00371055
0.00371044
0.00370994
0.00370857
0.00370601
0.00370705
0.00379822
0.00613048
0.00663307
0.00380546
0.00369439
0.00369518
0.00369951
0.00370184
0.00370273
0.00370294
0.00370288
0.00370277
0.0037027
0.00370269
0.00370268
0.00370246
0.00370159
0.00369934
0.00369508
0.0036943
0.00380519
0.00663313
0.00708143
0.00381147
0.00368057
0.00368323
0.00368939
0.00369274
0.00369408
0.00369436
0.00369421
0.00369395
0.00369376
0.0036937
0.00369368
0.00369339
0.00369216
0.00368895
0.0036829
0.00368021
0.00381073
0.00708165
0.00740674
0.00381514
0.00366744
0.00367145
0.00367919
0.00368359
0.00368557
0.00368624
0.00368636
0.00368632
0.00368627
0.00368617
0.00368591
0.00368516
0.00368322
0.00367891
0.00367117
0.00366702
0.00381416
0.00740713
0.00768358
0.00381495
0.00365415
0.00366011
0.0036699
0.00367587
0.00367917
0.00368107
0.00368226
0.00368295
0.00368324
0.00368312
0.00368239
0.00368055
0.00367693
0.00367061
0.00366045
0.00365402
0.00381394
0.00768455
0.00803061
0.00381241
0.00363831
0.00364863
0.00366207
0.00367092
0.00367677
0.00368034
0.00368235
0.00368341
0.00368382
0.0036836
0.00368258
0.00368006
0.00367456
0.00366468
0.0036502
0.00363872
0.00381141
0.00803233
0.00847342
0.00380392
0.00361856
0.00363731
0.00365649
0.00366964
0.00367767
0.00368261
0.00368558
0.00368736
0.00368817
0.00368799
0.00368633
0.00368252
0.00367533
0.00366204
0.00364082
0.00361983
0.00380312
0.0084755
0.00892263
0.00378676
0.00359765
0.00362772
0.00365403
0.00367167
0.00368342
0.00369095
0.00369655
0.00370061
0.00370258
0.00370219
0.00369916
0.00369297
0.0036812
0.00366261
0.00363348
0.00359992
0.00378659
0.00892484
0.00925778
0.00377032
0.00357918
0.00361994
0.00365292
0.00367716
0.00369499
0.00370917
0.00372137
0.00372867
0.00373189
0.00373331
0.00372845
0.00371642
0.00369634
0.00366618
0.00362778
0.0035823
0.00377043
0.00926005
0.00942138
0.00375028
0.00356031
0.00360906
0.00364882
0.003677
0.00370077
0.00372281
0.00373554
0.00374248
0.00374689
0.00374884
0.00374534
0.00373059
0.00370186
0.0036652
0.0036186
0.00356408
0.00375048
0.00942392
0.00945404
0.00371406
0.00352789
0.00358527
0.0036325
0.00366787
0.00369703
0.00371953
0.00373324
0.00373978