/*--------------------------------*- C++ -*----------------------------------*\
| =========                 |                                                 |
| \\      /  F ield         | OpenFOAM: The Open Source CFD Toolbox           |
|  \\    /   O peration     | Version:  2.1.0                                 |
|   \\  /    A nd           | Web:      www.OpenFOAM.org                      |
|    \\/     M anipulation  |                                                 |
\*---------------------------------------------------------------------------*/
FoamFile
{
    version     2.0;
    format      ascii;
    class       volScalarField;
    location    "0.04";
    object      nut;
}
// * * * * * * * * * * * * * * * * * * * * * * * * * * * * * * * * * * * * * //

dimensions      [0 2 -1 0 0 0 0];

internalField   nonuniform List<scalar> 
6400
(
5.65689e-06
5.65848e-06
5.65796e-06
5.65792e-06
5.65724e-06
5.65665e-06
5.65543e-06
5.65286e-06
5.65126e-06
5.6514e-06
5.65214e-06
5.65338e-06
5.65476e-06
5.65558e-06
5.65577e-06
5.65596e-06
5.65622e-06
5.65694e-06
5.65744e-06
5.65802e-06
5.65813e-06
5.65786e-06
5.65768e-06
5.65737e-06
5.65642e-06
5.65471e-06
5.65305e-06
5.65193e-06
5.65161e-06
5.65161e-06
5.65157e-06
5.65167e-06
5.65172e-06
5.65217e-06
5.65298e-06
5.65381e-06
5.65433e-06
5.65485e-06
5.65494e-06
5.65447e-06
5.65426e-06
5.65342e-06
5.65097e-06
5.64607e-06
5.6387e-06
5.62893e-06
5.61551e-06
5.59726e-06
5.5733e-06
5.54255e-06
5.5051e-06
5.45954e-06
5.40384e-06
5.33711e-06
5.25795e-06
5.16554e-06
5.0593e-06
4.93942e-06
4.80784e-06
4.66612e-06
4.51684e-06
4.36041e-06
4.19841e-06
4.03301e-06
3.8671e-06
3.70353e-06
3.54791e-06
3.40561e-06
3.27749e-06
3.16666e-06
3.07653e-06
3.00964e-06
2.96867e-06
2.95295e-06
2.95605e-06
2.97183e-06
3.00128e-06
3.04968e-06
3.14071e-06
3.27049e-06
3.42379e-06
3.60098e-06
3.80279e-06
4.0276e-06
4.26734e-06
4.52686e-06
4.78703e-06
5.0439e-06
5.32449e-06
5.61408e-06
5.81475e-06
5.82329e-06
5.48405e-06
4.56125e-06
3.05649e-06
1.60255e-06
1.32166e-06
2.07012e-06
2.24742e-06
2.46318e-06
4.7613e-06
4.7309e-06
4.71725e-06
4.68723e-06
4.66096e-06
4.64967e-06
4.64819e-06
4.6487e-06
4.64931e-06
4.65229e-06
4.65861e-06
4.66806e-06
4.68103e-06
4.69652e-06
4.70458e-06
4.70793e-06
4.70837e-06
4.70704e-06
4.70205e-06
4.69187e-06
4.67883e-06
4.6617e-06
4.6463e-06
4.64202e-06
4.64144e-06
4.64113e-06
4.64143e-06
4.64183e-06
4.64196e-06
4.64248e-06
4.64359e-06
4.64503e-06
4.64657e-06
4.64819e-06
4.65024e-06
4.65383e-06
4.65763e-06
4.65972e-06
4.66142e-06
4.66279e-06
4.66309e-06
4.66348e-06
4.66541e-06
4.67032e-06
4.67986e-06
4.69387e-06
4.71293e-06
4.74009e-06
4.7834e-06
4.8383e-06
4.90339e-06
4.98929e-06
5.10244e-06
5.24342e-06
5.41865e-06
5.63685e-06
5.90216e-06
6.20513e-06
6.50728e-06
6.49716e-06
6.45397e-06
6.44258e-06
6.52417e-06
6.72118e-06
7.02436e-06
7.40803e-06
7.83682e-06
8.28304e-06
8.78402e-06
9.38741e-06
1.00964e-05
1.08899e-05
1.17528e-05
1.26537e-05
1.36028e-05
1.46162e-05
1.56427e-05
1.65946e-05
1.7416e-05
1.81185e-05
1.87234e-05
1.92108e-05
1.95368e-05
1.96745e-05
1.96062e-05
1.92712e-05
1.86609e-05
1.79277e-05
1.70797e-05
1.58722e-05
1.43738e-05
1.2761e-05
1.10264e-05
9.22596e-06
7.57332e-06
6.05905e-06
4.73905e-06
3.81103e-06
3.26093e-06
3.97595e-06
8.79197e-06
8.82364e-06
8.83908e-06
8.87631e-06
8.9096e-06
8.92709e-06
8.93277e-06
8.93305e-06
8.93155e-06
8.92272e-06
8.9042e-06
8.879e-06
8.85704e-06
8.84047e-06
8.83406e-06
8.83194e-06
8.83182e-06
8.83461e-06
8.84112e-06
8.85437e-06
8.86884e-06
8.89199e-06
8.91811e-06
8.92973e-06
8.93397e-06
8.9355e-06
8.93792e-06
8.93825e-06
8.93733e-06
8.93097e-06
8.9232e-06
8.91951e-06
8.9147e-06
8.90872e-06
8.90059e-06
8.8933e-06
8.89166e-06
8.89274e-06
8.90183e-06
8.92174e-06
8.95468e-06
9.00625e-06
9.07743e-06
9.16574e-06
9.27374e-06
9.41487e-06
9.58796e-06
9.83533e-06
1.01466e-05
1.05397e-05
1.10262e-05
1.06703e-05
9.95363e-06
9.3017e-06
8.75799e-06
8.32472e-06
8.00107e-06
7.7525e-06
7.58947e-06
7.49859e-06
7.49988e-06
7.60832e-06
7.84688e-06
8.23604e-06
8.78875e-06
9.50005e-06
1.03516e-05
1.13003e-05
1.22642e-05
1.31611e-05
1.39909e-05
1.47945e-05
1.56196e-05
1.65102e-05
1.74558e-05
1.83787e-05
1.92523e-05
2.00709e-05
2.08116e-05
2.14365e-05
2.19209e-05
2.22392e-05
2.23712e-05
2.23154e-05
2.19932e-05
2.14542e-05
2.08439e-05
2.01682e-05
1.91753e-05
1.79955e-05
1.68279e-05
1.55155e-05
1.40808e-05
1.25309e-05
1.08606e-05
9.09143e-06
7.32815e-06
5.85415e-06
5.013e-06
6.25535e-06
4.09289e-05
4.09433e-05
4.11386e-05
4.1295e-05
4.15076e-05
4.17275e-05
4.17516e-05
4.17589e-05
4.17878e-05
4.16874e-05
4.15202e-05
4.12271e-05
4.10506e-05
4.09506e-05
4.09474e-05
4.09214e-05
4.09156e-05
4.09535e-05
4.10756e-05
4.11621e-05
4.14261e-05
4.15738e-05
4.1635e-05
4.16208e-05
4.15999e-05
4.16787e-05
4.16816e-05
4.17572e-05
4.16469e-05
4.16611e-05
4.16001e-05
4.15198e-05
4.14282e-05
4.13758e-05
4.13164e-05
4.12973e-05
4.13887e-05
4.14645e-05
4.14533e-05
4.15547e-05
3.82748e-05
4.22192e-05
3.44481e-05
4.34145e-05
4.45146e-05
2.58468e-05
3.67705e-05
2.88287e-05
1.97396e-05
1.93786e-05
1.57446e-05
1.3945e-05
1.23966e-05
1.11569e-05
1.01939e-05
9.44645e-06
8.89031e-06
8.49557e-06
8.25902e-06
8.16555e-06
8.237e-06
8.50309e-06
9.00242e-06
9.72231e-06
1.06197e-05
1.1624e-05
1.26554e-05
1.3653e-05
1.4581e-05
1.54256e-05
1.61979e-05
1.69141e-05
1.75867e-05
1.82228e-05
1.8842e-05
1.94527e-05
2.0011e-05
2.04642e-05
2.08019e-05
2.10374e-05
2.11813e-05
2.12045e-05
2.10578e-05
2.08259e-05
2.05299e-05
2.00232e-05
1.93375e-05
1.85852e-05
1.7734e-05
1.67736e-05
1.56592e-05
1.45263e-05
1.32217e-05
1.18354e-05
1.03901e-05
8.87641e-06
7.56754e-06
6.78143e-06
5.94653e-06
5.55071e-06
0.000117651
9.68189e-05
0.000119706
0.00012023
0.000112439
0.000119889
0.000120157
0.000119892
8.20278e-05
4.30928e-05
0.000104191
0.000118762
9.87675e-05
9.95424e-05
0.000118433
5.08414e-05
0.000101761
0.000119456
6.05968e-05
3.94006e-05
7.61535e-05
0.000119336
0.000120148
0.00012054
0.000121153
0.00010623
6.44618e-05
6.64075e-05
8.56689e-05
4.50818e-05
2.76612e-05
4.15779e-05
0.000107188
4.2397e-05
3.20881e-05
4.46122e-05
5.22276e-05
0.000119786
8.69869e-05
8.35208e-05
6.54093e-05
4.28843e-05
3.273e-05
4.76991e-05
4.93344e-05
2.11603e-05
8.52752e-05
5.44392e-05
2.04367e-05
3.12973e-05
1.90647e-05
1.71481e-05
1.48479e-05
1.30792e-05
1.17571e-05
1.07497e-05
1.00009e-05
9.4657e-06
9.12377e-06
8.97283e-06
9.10316e-06
9.60347e-06
1.04639e-05
1.15318e-05
1.26415e-05
1.36483e-05
1.44813e-05
1.51584e-05
1.5742e-05
1.63006e-05
1.687e-05
1.74356e-05
1.79513e-05
1.83962e-05
1.87741e-05
1.90933e-05
1.9354e-05
1.95463e-05
1.96422e-05
1.96289e-05
1.9538e-05
1.92915e-05
1.86486e-05
1.79612e-05
1.7316e-05
1.6498e-05
1.55935e-05
1.47961e-05
1.38496e-05
1.28651e-05
1.19598e-05
1.09263e-05
1.00238e-05
9.24588e-06
8.24054e-06
7.33004e-06
6.75751e-06
6.32598e-06
6.18411e-06
6.23528e-06
8.11341e-05
0.000190638
0.000144915
0.000136327
5.8177e-05
0.000240724
0.000168133
9.02943e-05
5.50073e-05
5.9462e-05
5.30731e-05
3.58052e-05
6.43316e-05
8.41813e-05
7.49996e-05
0.000143831
6.47487e-05
4.96724e-05
4.4705e-05
4.82481e-05
4.62903e-05
6.59312e-05
0.000240323
6.56992e-05
0.000146202
8.27988e-05
6.4569e-05
4.90863e-05
4.93754e-05
2.88016e-05
6.90213e-05
3.93546e-05
4.23476e-05
4.80907e-05
0.000186427
7.32949e-05
0.000102417
6.5989e-05
9.36153e-05
5.86281e-05
4.29684e-05
6.16864e-05
4.68181e-05
2.86214e-05
3.28078e-05
5.09874e-05
4.34381e-05
2.65979e-05
3.45256e-05
4.08131e-05
2.2711e-05
2.21182e-05
1.85489e-05
1.61866e-05
1.43659e-05
1.29563e-05
1.18936e-05
1.11129e-05
1.05834e-05
1.03838e-05
1.07361e-05
1.17053e-05
1.28569e-05
1.26301e-05
1.26807e-05
1.3025e-05
1.36756e-05
1.45474e-05
1.54381e-05
1.61195e-05
1.64774e-05
1.65787e-05
1.65908e-05
1.65914e-05
1.65526e-05
1.64286e-05
1.61816e-05
1.5904e-05
1.56381e-05
1.53091e-05
1.48826e-05
1.44601e-05
1.40053e-05
1.34778e-05
1.2956e-05
1.24246e-05
1.18676e-05
1.13082e-05
1.07613e-05
1.02184e-05
9.6573e-06
9.13208e-06
8.66296e-06
8.15679e-06
7.67927e-06
7.34814e-06
7.08248e-06
6.96489e-06
6.94462e-06
7.16509e-06
8.04659e-05
0.000254695
0.000200072
8.22351e-05
6.39854e-05
0.000102062
0.000150621
0.000317728
3.72282e-05
0.0002954
0.000239893
7.00175e-05
7.975e-05
5.51531e-05
4.8093e-05
5.5711e-05
0.000336328
7.39719e-05
5.71928e-05
0.000322207
5.51231e-05
9.77598e-05
0.000178241
4.22357e-05
0.000119587
0.000152477
5.53543e-05
7.94699e-05
4.86627e-05
2.73937e-05
2.93636e-05
5.7624e-05
3.99095e-05
4.79666e-05
2.08011e-05
3.43496e-05
0.000155028
0.000196752
8.38136e-05
4.60059e-05
4.04601e-05
2.26513e-05
4.87525e-05
0.000111899
1.75367e-05
3.61565e-05
4.521e-05
2.20676e-05
0.000119322
2.93127e-05
2.90572e-05
2.87874e-05
2.30696e-05
2.0394e-05
1.80387e-05
1.61862e-05
1.47559e-05
1.36733e-05
1.29446e-05
1.28447e-05
1.37628e-05
1.28389e-05
1.19404e-05
1.15463e-05
1.16338e-05
1.21559e-05
1.29827e-05
1.39028e-05
1.46873e-05
1.51977e-05
1.54497e-05
1.55537e-05
1.56086e-05
1.56258e-05
1.54826e-05
1.52588e-05
1.50142e-05
1.47186e-05
1.43137e-05
1.39282e-05
1.35685e-05
1.31602e-05
1.27282e-05
1.23204e-05
1.19341e-05
1.15268e-05
1.11162e-05
1.0745e-05
1.03908e-05
1.00196e-05
9.66886e-06
9.36316e-06
9.06819e-06
8.7862e-06
8.55921e-06
8.40883e-06
8.30997e-06
8.32121e-06
8.69447e-06
8.97609e-06
0.000137227
0.000122724
6.49863e-05
5.64254e-05
0.000241688
5.45271e-05
0.000214867
4.51357e-05
2.69038e-05
8.18945e-05
4.84896e-05
4.28184e-05
0.000124929
4.81463e-05
3.29139e-05
8.2348e-05
0.00018628
0.000270617
8.40728e-05
7.07266e-05
6.9737e-05
0.000311628
8.69471e-05
0.000172498
6.89969e-05
0.000130874
5.23765e-05
3.61672e-05
0.000273294
3.22096e-05
3.53571e-05
3.86829e-05
8.10782e-05
2.38898e-05
3.16333e-05
5.26338e-05
3.06848e-05
9.16788e-05
0.000213549
0.000364779
0.000281576
5.42408e-05
5.33176e-05
3.61846e-05
5.95708e-05
4.55142e-05
2.47902e-05
5.35079e-05
9.48731e-05
2.51557e-05
4.33387e-05
3.39332e-05
2.78017e-05
2.52046e-05
2.23662e-05
2.01919e-05
1.84904e-05
1.72011e-05
1.64534e-05
1.64954e-05
1.39183e-05
1.2282e-05
1.13676e-05
1.10642e-05
1.12931e-05
1.19553e-05
1.28908e-05
1.38762e-05
1.46992e-05
1.52654e-05
1.56159e-05
1.58835e-05
1.61726e-05
1.64599e-05
1.66532e-05
1.67209e-05
1.67232e-05
1.67208e-05
1.67153e-05
1.66625e-05
1.6541e-05
1.63782e-05
1.62011e-05
1.60131e-05
1.58021e-05
1.55411e-05
1.52648e-05
1.49955e-05
1.4694e-05
1.43673e-05
1.40529e-05
1.37337e-05
1.34017e-05
1.30926e-05
1.28515e-05
1.26474e-05
1.26175e-05
1.27952e-05
1.33639e-05
1.37094e-05
4.07011e-05
4.82323e-05
1.75299e-05
5.30451e-05
9.3162e-05
6.98227e-05
5.55888e-05
4.44205e-05
3.74959e-05
3.55186e-05
2.71835e-05
3.87837e-05
5.62964e-05
2.4742e-05
3.62259e-05
4.5077e-05
0.000113166
0.000125658
2.52856e-05
1.71727e-05
2.97247e-05
0.000225592
0.000125326
5.75602e-05
6.02223e-05
7.12059e-05
0.000277945
4.8056e-05
4.41859e-05
2.6999e-05
4.91945e-05
0.000120682
3.05785e-05
5.7749e-05
4.087e-05
2.27505e-05
5.94648e-05
3.33741e-05
5.74142e-05
8.76548e-05
7.29304e-05
0.000288731
9.14636e-05
2.81878e-05
4.2061e-05
7.12316e-05
3.29495e-05
8.36213e-05
4.95516e-05
3.57279e-05
5.39671e-05
3.57465e-05
3.22174e-05
2.92377e-05
2.61046e-05
2.38892e-05
2.21552e-05
2.08983e-05
2.03155e-05
1.62335e-05
1.35894e-05
1.19493e-05
1.10828e-05
1.0861e-05
1.11957e-05
1.19836e-05
1.30605e-05
1.421e-05
1.52486e-05
1.61264e-05
1.69324e-05
1.77802e-05
1.86942e-05
1.96091e-05
2.04509e-05
2.12128e-05
2.19411e-05
2.26565e-05
2.3326e-05
2.39078e-05
2.44052e-05
2.48429e-05
2.52246e-05
2.55309e-05
2.57622e-05
2.59447e-05
2.60894e-05
2.61854e-05
2.62369e-05
2.6261e-05
2.62633e-05
2.62351e-05
2.61797e-05
2.61237e-05
2.6093e-05
2.61468e-05
2.63798e-05
2.68035e-05
2.75124e-05
2.57519e-05
4.41576e-05
2.04947e-05
3.00533e-05
3.01315e-05
7.14589e-05
0.000241437
8.47219e-05
4.89599e-05
4.03084e-05
5.59448e-05
0.000242827
4.25506e-05
4.58286e-05
3.2024e-05
5.95785e-05
4.05728e-05
3.01654e-05
3.05248e-05
1.80042e-05
2.60342e-05
1.67957e-05
6.17809e-05
8.50122e-05
4.79484e-05
6.09581e-05
0.000389325
5.29567e-05
5.14433e-05
2.93777e-05
8.67697e-05
3.19787e-05
0.000130726
0.000271653
3.72284e-05
3.00838e-05
5.05243e-05
2.76854e-05
1.91588e-05
6.42136e-05
0.000144226
9.88968e-05
0.000145565
8.36079e-05
6.89102e-05
3.95435e-05
3.8467e-05
7.81778e-05
5.41117e-05
3.61917e-05
5.24561e-05
4.93783e-05
3.73639e-05
3.48975e-05
3.10909e-05
2.81508e-05
2.60858e-05
2.45126e-05
2.3459e-05
2.02044e-05
1.60917e-05
1.34335e-05
1.18055e-05
1.09662e-05
1.07841e-05
1.11696e-05
1.20212e-05
1.31724e-05
1.44105e-05
1.55644e-05
1.66016e-05
1.7618e-05
1.8723e-05
1.99387e-05
2.1194e-05
2.24165e-05
2.36089e-05
2.48185e-05
2.60538e-05
2.72628e-05
2.83956e-05
2.94482e-05
3.0433e-05
3.13345e-05
3.21216e-05
3.27963e-05
3.33843e-05
3.38964e-05
3.43344e-05
3.47205e-05
3.50853e-05
3.54321e-05
3.57389e-05
3.59869e-05
3.61702e-05
3.62894e-05
3.63491e-05
3.63248e-05
3.59792e-05
3.55019e-05
3.42214e-05
4.40703e-05
1.70131e-05
3.76419e-05
4.40227e-05
7.93923e-05
7.955e-05
0.000111028
7.25266e-05
4.2983e-05
6.3057e-05
2.98873e-05
3.58099e-05
0.000123341
0.00018093
3.40617e-05
3.68385e-05
2.74889e-05
2.01897e-05
1.22357e-05
2.16128e-05
1.6326e-05
3.7372e-05
4.63856e-05
7.12811e-05
0.000248245
7.32624e-05
0.000129241
0.000282657
7.55147e-05
1.73614e-05
1.69684e-05
4.63573e-05
5.41597e-05
5.99463e-05
0.000222341
0.000109067
2.3458e-05
2.52951e-05
4.08672e-05
9.61719e-05
0.000145621
0.000182895
5.87199e-05
4.36216e-05
9.30208e-05
3.73836e-05
0.000117927
5.41409e-05
4.79542e-05
6.88118e-05
4.18564e-05
3.68673e-05
3.49085e-05
3.03958e-05
2.76391e-05
2.55818e-05
2.40074e-05
2.29573e-05
2.02607e-05
1.61479e-05
1.34856e-05
1.18476e-05
1.09958e-05
1.07993e-05
1.11681e-05
1.20002e-05
1.31302e-05
1.43435e-05
1.54655e-05
1.64603e-05
1.74183e-05
1.84507e-05
1.95822e-05
2.07438e-05
2.18615e-05
2.29365e-05
2.40192e-05
2.51233e-05
2.62018e-05
2.72062e-05
2.81332e-05
2.89925e-05
2.97711e-05
3.044e-05
3.10012e-05
3.14843e-05
3.19056e-05
3.22661e-05
3.25866e-05
3.28999e-05
3.32171e-05
3.35291e-05
3.38261e-05
3.41007e-05
3.4375e-05
3.46601e-05
3.49988e-05
3.53239e-05
3.52634e-05
3.51024e-05
2.62459e-05
2.41232e-05
2.99462e-05
5.10725e-05
4.03795e-05
0.000108166
9.72841e-05
0.00014223
7.83797e-05
5.6464e-05
3.33835e-05
4.67099e-05
3.26176e-05
0.000104696
3.67463e-05
3.07251e-05
3.20467e-05
4.85286e-05
1.56047e-05
1.2074e-05
2.26827e-05
4.98958e-05
0.00014731
0.000120003
6.11525e-05
4.85982e-05
0.00026073
0.000102222
8.63035e-05
2.96564e-05
0.000135598
4.18377e-05
0.000102048
6.41199e-05
5.62609e-05
9.04693e-05
2.72757e-05
3.93075e-05
3.2052e-05
0.000122006
8.25268e-05
0.000251054
8.32476e-05
1.94058e-05
2.45984e-05
2.3029e-05
7.40794e-05
0.000106826
2.46979e-05
6.8304e-05
4.15101e-05
3.22603e-05
3.2172e-05
2.78598e-05
2.5074e-05
2.29871e-05
2.13196e-05
2.01193e-05
1.97823e-05
1.63797e-05
1.37232e-05
1.20605e-05
1.11634e-05
1.09064e-05
1.12023e-05
1.19481e-05
1.29788e-05
1.40744e-05
1.50394e-05
1.58134e-05
1.64862e-05
1.7172e-05
1.78941e-05
1.85896e-05
1.91843e-05
1.96713e-05
2.00978e-05
2.04959e-05
2.08445e-05
2.11015e-05
2.12702e-05
2.13801e-05
2.14293e-05
2.13988e-05
2.12937e-05
2.11372e-05
2.0943e-05
2.06842e-05
2.03951e-05
2.01008e-05
1.98066e-05
1.95232e-05
1.92676e-05
1.9068e-05
1.89428e-05
1.89435e-05
1.91258e-05
1.95789e-05
2.04674e-05
2.10712e-05
3.98827e-05
2.18366e-05
4.72107e-05
3.02494e-05
4.44122e-05
5.00489e-05
6.63173e-05
3.6141e-05
3.31887e-05
2.97404e-05
3.05206e-05
8.94023e-05
3.90999e-05
2.66869e-05
0.000101011
3.92066e-05
3.18819e-05
1.58225e-05
3.38301e-05
3.73705e-05
0.000105145
3.64271e-05
2.77861e-05
6.91364e-05
5.93906e-05
5.73944e-05
4.36271e-05
0.00013023
0.000109215
6.53311e-05
1.94539e-05
2.23517e-05
3.0131e-05
4.26451e-05
8.69234e-05
4.93445e-05
6.52186e-05
2.59658e-05
4.13711e-05
0.000132857
0.000161566
4.30003e-05
3.96493e-05
2.47374e-05
4.60007e-05
3.24243e-05
3.0316e-05
5.0695e-05
2.31089e-05
3.7877e-05
4.44415e-05
2.80827e-05
2.72537e-05
2.39955e-05
2.13585e-05
1.93665e-05
1.77784e-05
1.65776e-05
1.589e-05
1.63488e-05
1.41298e-05
1.24727e-05
1.15144e-05
1.11558e-05
1.13258e-05
1.19296e-05
1.2809e-05
1.37393e-05
1.44965e-05
1.49663e-05
1.51732e-05
1.52531e-05
1.5339e-05
1.54335e-05
1.54455e-05
1.53297e-05
1.51603e-05
1.49771e-05
1.47841e-05
1.45634e-05
1.42745e-05
1.39669e-05
1.36802e-05
1.33745e-05
1.30347e-05
1.2707e-05
1.23989e-05
1.20737e-05
1.17366e-05
1.14274e-05
1.11428e-05
1.08658e-05
1.06288e-05
1.04458e-05
1.02991e-05
1.01955e-05
1.02694e-05
1.04708e-05
1.09792e-05
1.12402e-05
0.000112994
4.20403e-05
1.60829e-05
2.93301e-05
0.000167994
5.15848e-05
3.84942e-05
5.30897e-05
2.22922e-05
2.16805e-05
6.11843e-05
6.6051e-05
7.11776e-05
5.18369e-05
2.21353e-05
2.50853e-05
1.81812e-05
3.08021e-05
2.03765e-05
4.62427e-05
0.000154821
7.37036e-05
5.72605e-05
6.15488e-05
8.24228e-05
7.58175e-05
5.66681e-05
5.68623e-05
0.000308272
6.09571e-05
4.13443e-05
3.85325e-05
4.91594e-05
0.00012028
0.000128487
5.60763e-05
4.42817e-05
0.000225693
0.000166343
0.000161045
5.15816e-05
2.85639e-05
6.95322e-05
8.70721e-05
3.31114e-05
4.18906e-05
1.67416e-05
5.26595e-05
6.092e-05
2.28764e-05
3.59781e-05
2.49528e-05
2.22283e-05
1.96466e-05
1.74044e-05
1.56907e-05
1.43586e-05
1.33531e-05
1.26798e-05
1.25997e-05
1.34918e-05
1.30689e-05
1.21454e-05
1.17e-05
1.17104e-05
1.21521e-05
1.29125e-05
1.37849e-05
1.45331e-05
1.49995e-05
1.51868e-05
1.52062e-05
1.51801e-05
1.51536e-05
1.50197e-05
1.47961e-05
1.45533e-05
1.43041e-05
1.39773e-05
1.36179e-05
1.32552e-05
1.28457e-05
1.2419e-05
1.2013e-05
1.1591e-05
1.11404e-05
1.07134e-05
1.03216e-05
9.92472e-06
9.52899e-06
9.18743e-06
8.88467e-06
8.5677e-06
8.30874e-06
8.08722e-06
7.91587e-06
7.83254e-06
7.75889e-06
8.1035e-06
8.35132e-06
4.82668e-05
0.00014376
3.77876e-05
6.48327e-05
5.23245e-05
6.288e-05
9.91541e-05
4.50378e-05
2.00056e-05
3.13806e-05
4.29552e-05
4.72848e-05
4.17699e-05
4.94484e-05
5.89958e-05
4.74245e-05
6.56222e-05
2.81257e-05
7.85621e-05
4.7342e-05
0.000106859
4.43111e-05
8.60797e-05
8.13462e-05
0.000179756
4.40354e-05
7.13083e-05
6.14837e-05
8.88325e-05
9.31297e-05
4.00515e-05
4.60228e-05
4.44045e-05
4.16912e-05
0.000123374
0.000153976
6.79918e-05
0.000159906
6.88957e-05
0.000148687
5.20931e-05
0.000251201
4.78537e-05
4.08214e-05
1.90765e-05
2.56361e-05
2.01094e-05
3.51029e-05
0.000152108
2.15623e-05
2.60523e-05
2.11727e-05
1.80325e-05
1.58541e-05
1.41043e-05
1.27672e-05
1.17612e-05
1.10203e-05
1.05212e-05
1.03335e-05
1.06743e-05
1.16149e-05
1.29274e-05
1.27984e-05
1.28092e-05
1.30826e-05
1.36488e-05
1.44534e-05
1.53186e-05
1.6009e-05
1.63837e-05
1.64744e-05
1.64478e-05
1.64446e-05
1.64355e-05
1.63508e-05
1.61568e-05
1.58882e-05
1.56127e-05
1.53391e-05
1.49617e-05
1.45317e-05
1.40981e-05
1.3618e-05
1.31249e-05
1.26208e-05
1.20514e-05
1.15016e-05
1.0968e-05
1.03706e-05
9.80483e-06
9.28541e-06
8.73918e-06
8.19521e-06
7.68449e-06
7.24632e-06
6.95647e-06
6.82477e-06
6.80728e-06
6.95979e-06
7.95076e-05
5.89551e-05
8.32677e-05
9.69369e-05
0.000120005
8.42572e-05
3.53456e-05
4.59415e-05
6.84307e-05
2.96048e-05
3.63594e-05
3.12576e-05
4.72839e-05
0.000120282
5.06764e-05
4.66164e-05
8.37709e-05
3.64625e-05
4.03563e-05
5.23507e-05
0.000118178
0.000118051
7.77556e-05
0.000110363
0.000118433
6.38793e-05
6.41147e-05
0.000113745
0.000118549
0.000119052
7.97468e-05
3.51154e-05
4.75976e-05
0.000120118
7.29519e-05
0.00011464
0.000119734
0.000101044
0.000115684
0.000121724
4.67056e-05
4.83923e-05
4.65924e-05
5.84392e-05
3.4304e-05
6.42158e-05
5.55072e-05
2.51918e-05
3.93693e-05
2.27985e-05
1.99819e-05
1.71592e-05
1.47766e-05
1.3069e-05
1.17611e-05
1.07653e-05
1.00289e-05
9.50316e-06
9.16482e-06
9.01334e-06
9.13011e-06
9.60497e-06
1.043e-05
1.14694e-05
1.25577e-05
1.35493e-05
1.43675e-05
1.50245e-05
1.55832e-05
1.61177e-05
1.66694e-05
1.72371e-05
1.77787e-05
1.82525e-05
1.86585e-05
1.90133e-05
1.93217e-05
1.95811e-05
1.97787e-05
1.98811e-05
1.98736e-05
1.97326e-05
1.93572e-05
1.87846e-05
1.80846e-05
1.74678e-05
1.67136e-05
1.57566e-05
1.49544e-05
1.39878e-05
1.28687e-05
1.18719e-05
1.08528e-05
9.83488e-06
8.88691e-06
7.7488e-06
6.85014e-06
6.37637e-06
6.17228e-06
6.18693e-06
4.17405e-05
4.17067e-05
4.17109e-05
4.16524e-05
4.14765e-05
4.1327e-05
4.11725e-05
4.11484e-05
4.11826e-05
4.12058e-05
4.13478e-05
4.13966e-05
4.15196e-05
4.14874e-05
4.16127e-05
4.16673e-05
4.16864e-05
4.1588e-05
4.15855e-05
4.16229e-05
4.16288e-05
4.15089e-05
4.12939e-05
4.1163e-05
4.11028e-05
4.11103e-05
4.1009e-05
4.09862e-05
4.10731e-05
4.1051e-05
4.11828e-05
4.1294e-05
4.13628e-05
4.14147e-05
4.16385e-05
4.178e-05
4.19536e-05
4.20057e-05
4.2071e-05
4.22327e-05
4.24325e-05
4.26944e-05
4.29714e-05
4.34147e-05
4.45614e-05
2.23017e-05
4.78027e-05
2.24999e-05
2.12181e-05
1.94378e-05
1.60115e-05
1.41765e-05
1.26038e-05
1.13318e-05
1.03462e-05
9.575e-06
9.00483e-06
8.59785e-06
8.34681e-06
8.24239e-06
8.29546e-06
8.53511e-06
8.99854e-06
9.6803e-06
1.05392e-05
1.15086e-05
1.2511e-05
1.34878e-05
1.43989e-05
1.52371e-05
1.60116e-05
1.67444e-05
1.74479e-05
1.81289e-05
1.87885e-05
1.94463e-05
2.0087e-05
2.06544e-05
2.11171e-05
2.14803e-05
2.17538e-05
2.1934e-05
2.19935e-05
2.18742e-05
2.16506e-05
2.13635e-05
2.09247e-05
2.02771e-05
1.95198e-05
1.86773e-05
1.77128e-05
1.64824e-05
1.51472e-05
1.35324e-05
1.17791e-05
1.00572e-05
8.35345e-06
7.3112e-06
6.26913e-06
5.77931e-06
8.92325e-06
8.93248e-06
8.93078e-06
8.92199e-06
8.9002e-06
8.87696e-06
8.84635e-06
8.83366e-06
8.83279e-06
8.83704e-06
8.84872e-06
8.8746e-06
8.91186e-06
8.93159e-06
8.93655e-06
8.93767e-06
8.93701e-06
8.93587e-06
8.93353e-06
8.9264e-06
8.91445e-06
8.90008e-06
8.87863e-06
8.85917e-06
8.84643e-06
8.8402e-06
8.83673e-06
8.83386e-06
8.83229e-06
8.83297e-06
8.83678e-06
8.84582e-06
8.86396e-06
8.89036e-06
8.91479e-06
8.93052e-06
8.94789e-06
8.96583e-06
8.97919e-06
9.00131e-06
9.03472e-06
9.08122e-06
9.13304e-06
9.20132e-06
9.29653e-06
9.4243e-06
9.58328e-06
9.81511e-06
1.01272e-05
1.04962e-05
1.09719e-05
1.08786e-05
1.0168e-05
9.49618e-06
8.9314e-06
8.47466e-06
8.13287e-06
7.87617e-06
7.70222e-06
7.60347e-06
7.59167e-06
7.68302e-06
7.90005e-06
8.26567e-06
8.78979e-06
9.47216e-06
1.02932e-05
1.12191e-05
1.2166e-05
1.30514e-05
1.38662e-05
1.46538e-05
1.54525e-05
1.63046e-05
1.72484e-05
1.82316e-05
1.91861e-05
2.00999e-05
2.09627e-05
2.17412e-05
2.2404e-05
2.29228e-05
2.32642e-05
2.33955e-05
2.33069e-05
2.29072e-05
2.22914e-05
2.16062e-05
2.07974e-05
1.96064e-05
1.82773e-05
1.69036e-05
1.53347e-05
1.35481e-05
1.15813e-05
9.7574e-06
7.94981e-06
6.44154e-06
5.5819e-06
6.68986e-06
4.67808e-06
4.65958e-06
4.65735e-06
4.65834e-06
4.6678e-06
4.68276e-06
4.70566e-06
4.72052e-06
4.72253e-06
4.71969e-06
4.70934e-06
4.68721e-06
4.65632e-06
4.64591e-06
4.64366e-06
4.64324e-06
4.64372e-06
4.64466e-06
4.6453e-06
4.64729e-06
4.65129e-06
4.65693e-06
4.66542e-06
4.67767e-06
4.69273e-06
4.70316e-06
4.7087e-06
4.71245e-06
4.71383e-06
4.71392e-06
4.71151e-06
4.7043e-06
4.69004e-06
4.66965e-06
4.65411e-06
4.64902e-06
4.64575e-06
4.64453e-06
4.64542e-06
4.64491e-06
4.64525e-06
4.64635e-06
4.64868e-06
4.65322e-06
4.66043e-06
4.67097e-06
4.68813e-06
4.71312e-06
4.75407e-06
4.80621e-06
4.86957e-06
4.95346e-06
5.06328e-06
5.20275e-06
5.37589e-06
5.59216e-06
5.85574e-06
6.16092e-06
6.49112e-06
6.53256e-06
6.4962e-06
6.48071e-06
6.5525e-06
6.73961e-06
7.03355e-06
7.4104e-06
7.83002e-06
8.26234e-06
8.74267e-06
9.32059e-06
1.00031e-05
1.07762e-05
1.16254e-05
1.25409e-05
1.3517e-05
1.45685e-05
1.56605e-05
1.67082e-05
1.76455e-05
1.84824e-05
1.92441e-05
1.99224e-05
2.04657e-05
2.08235e-05
2.09639e-05
2.08355e-05
2.03124e-05
1.95733e-05
1.87384e-05
1.76119e-05
1.59701e-05
1.40387e-05
1.19358e-05
9.80138e-06
7.91244e-06
6.35844e-06
5.15327e-06
4.18535e-06
3.62324e-06
4.09792e-06
5.65734e-06
5.65524e-06
5.65434e-06
5.65401e-06
5.65393e-06
5.65416e-06
5.65463e-06
5.65498e-06
5.65519e-06
5.6555e-06
5.65648e-06
5.65737e-06
5.65744e-06
5.65715e-06
5.65614e-06
5.65508e-06
5.65426e-06
5.6524e-06
5.65078e-06
5.65059e-06
5.65115e-06
5.65192e-06
5.65295e-06
5.65446e-06
5.65528e-06
5.65552e-06
5.65588e-06
5.65608e-06
5.6565e-06
5.65705e-06
5.65777e-06
5.65861e-06
5.65936e-06
5.65944e-06
5.65936e-06
5.65876e-06
5.65796e-06
5.65691e-06
5.65542e-06
5.65381e-06
5.65137e-06
5.64793e-06
5.64418e-06
5.63953e-06
5.63262e-06
5.62357e-06
5.6112e-06
5.59269e-06
5.56834e-06
5.53924e-06
5.5028e-06
5.45683e-06
5.40047e-06
5.33303e-06
5.25377e-06
5.16061e-06
5.05288e-06
4.93182e-06
4.79806e-06
4.6537e-06
4.50173e-06
4.34323e-06
4.17915e-06
4.01108e-06
3.84241e-06
3.67715e-06
3.51897e-06
3.37396e-06
3.24361e-06
3.13009e-06
3.03716e-06
2.9679e-06
2.925e-06
2.90919e-06
2.91446e-06
2.93285e-06
2.96404e-06
3.02264e-06
3.1399e-06
3.29387e-06
3.47969e-06
3.70559e-06
3.97498e-06
4.28992e-06
4.65311e-06
5.03993e-06
5.4617e-06
5.89677e-06
6.35169e-06
6.82749e-06
7.15635e-06
7.02651e-06
6.1703e-06
4.77109e-06
3.11857e-06
1.83727e-06
1.43211e-06
2.25036e-06
2.50659e-06
2.73917e-06
6.82031e-06
7.03739e-07
8.77561e-07
1.18204e-06
1.51652e-06
1.81074e-06
2.10805e-06
2.40674e-06
2.68298e-06
2.94866e-06
3.19637e-06
3.44182e-06
3.70641e-06
4.00354e-06
4.31998e-06
4.62038e-06
4.88546e-06
5.71263e-06
6.53974e-06
2.97238e-06
3.20348e-06
9.33427e-07
9.20615e-07
1.10099e-06
1.34787e-06
1.61571e-06
1.91661e-06
2.19774e-06
2.4855e-06
2.78243e-06
3.01172e-06
3.25322e-06
3.54015e-06
3.86333e-06
4.21639e-06
4.4915e-06
4.83799e-06
5.74387e-06
6.47792e-06
3.02048e-06
3.06032e-06
1.37318e-06
1.38727e-06
1.38336e-06
1.5518e-06
1.7845e-06
2.0269e-06
2.3171e-06
2.61589e-06
2.95584e-06
3.0757e-06
3.24138e-06
3.48318e-06
3.79072e-06
4.10258e-06
4.40647e-06
4.80863e-06
5.80344e-06
6.36907e-06
3.0837e-06
3.55624e-06
2.03189e-06
2.07667e-06
1.95563e-06
2.12615e-06
2.21931e-06
2.49161e-06
2.77858e-06
3.11422e-06
3.59827e-06
3.45489e-06
3.44945e-06
3.5815e-06
3.83179e-06
4.14048e-06
4.48617e-06
5.02869e-06
5.94723e-06
6.19782e-06
3.14635e-06
4.28006e-06
2.97418e-06
3.0241e-06
2.79182e-06
3.11449e-06
3.12671e-06
3.53355e-06
3.83831e-06
4.44291e-06
4.82936e-06
4.43216e-06
4.17222e-06
4.11205e-06
4.27496e-06
4.59555e-06
4.97645e-06
5.52079e-06
6.24076e-06
5.96773e-06
3.20766e-06
5.41225e-06
4.39663e-06
4.44608e-06
4.18208e-06
4.65675e-06
4.80692e-06
5.42159e-06
5.85779e-06
6.80165e-06
6.71067e-06
6.00712e-06
5.44593e-06
5.2845e-06
5.44976e-06
5.63672e-06
5.97353e-06
6.26819e-06
6.37642e-06
5.65991e-06
3.24241e-06
7.15912e-06
6.50528e-06
6.56793e-06
6.33444e-06
7.05232e-06
7.45292e-06
8.61407e-06
9.54487e-06
1.11973e-05
1.02774e-05
9.1931e-06
8.63924e-06
8.36002e-06
8.14521e-06
7.92202e-06
7.63589e-06
7.05998e-06
6.2099e-06
5.11031e-06
3.17775e-06
1.0514e-05
1.05655e-05
1.08425e-05
1.11234e-05
1.25684e-05
1.38634e-05
1.61784e-05
1.89662e-05
1.97011e-05
1.77224e-05
1.60067e-05
1.41084e-05
1.24336e-05
1.05014e-05
9.12256e-06
7.62861e-06
6.59504e-06
5.58328e-06
4.30297e-06
3.01845e-06
1.9512e-05
2.09504e-05
2.13214e-05
2.23101e-05
2.46384e-05
2.19579e-05
2.02928e-05
1.7497e-05
1.59627e-05
1.36567e-05
1.24231e-05
1.08377e-05
9.74072e-06
8.22655e-06
7.43519e-06
6.30389e-06
5.43167e-06
4.24053e-06
3.05584e-06
2.215e-06
2.91323e-05
2.7237e-05
2.41444e-05
2.2052e-05
1.93809e-05
1.79887e-05
1.53273e-05
1.41843e-05
1.18763e-05
1.08396e-05
9.25883e-06
8.52554e-06
7.28947e-06
6.02558e-06
5.39052e-06
4.67002e-06
3.55226e-06
2.72779e-06
1.95894e-06
1.32526e-06
2.90742e-05
2.96691e-05
2.61846e-05
2.4703e-05
2.14627e-05
2.02917e-05
1.73654e-05
1.61723e-05
1.40571e-05
1.28015e-05
1.11001e-05
1.01061e-05
8.96757e-06
7.81298e-06
6.91749e-06
6.00633e-06
5.06634e-06
3.84747e-06
2.8289e-06
1.96779e-06
1.55621e-05
1.65215e-05
1.65893e-05
1.71521e-05
1.91002e-05
2.08266e-05
2.26136e-05
2.00653e-05
1.8736e-05
1.63274e-05
1.49392e-05
1.2775e-05
1.14776e-05
9.96917e-06
8.79495e-06
7.56534e-06
6.6747e-06
5.64152e-06
4.1952e-06
3.0996e-06
9.48377e-06
9.19798e-06
9.25609e-06
9.05947e-06
1.00094e-05
1.06353e-05
1.22122e-05
1.38628e-05
1.49345e-05
1.33799e-05
1.20561e-05
1.13712e-05
1.07668e-05
1.01786e-05
9.56353e-06
8.79868e-06
7.45343e-06
6.37311e-06
5.16964e-06
3.37495e-06
6.7777e-06
6.05129e-06
6.07766e-06
5.76603e-06
6.34931e-06
6.52904e-06
7.43641e-06
7.99826e-06
9.2255e-06
8.28188e-06
7.37249e-06
6.66148e-06
6.56713e-06
6.61646e-06
6.71699e-06
6.95049e-06
7.0014e-06
6.82207e-06
5.81418e-06
3.48878e-06
5.21613e-06
4.12859e-06
4.13066e-06
3.82253e-06
4.21541e-06
4.28708e-06
4.79241e-06
5.127e-06
5.91348e-06
5.81922e-06
5.23402e-06
4.79145e-06
4.59532e-06
4.79419e-06
5.09449e-06
5.53577e-06
6.10554e-06
6.72926e-06
6.28725e-06
3.47328e-06
4.19067e-06
2.84001e-06
2.86525e-06
2.6077e-06
2.88209e-06
2.84802e-06
3.17823e-06
3.39544e-06
3.87571e-06
4.18865e-06
3.88762e-06
3.72411e-06
3.75219e-06
3.928e-06
4.27867e-06
4.71656e-06
5.40634e-06
6.40051e-06
6.5097e-06
3.41246e-06
3.52496e-06
1.95004e-06
1.9751e-06
1.85323e-06
2.00384e-06
2.10995e-06
2.35182e-06
2.62578e-06
2.90801e-06
3.32452e-06
3.22634e-06
3.27125e-06
3.43059e-06
3.7103e-06
4.00435e-06
4.37926e-06
4.96674e-06
6.16094e-06
6.70079e-06
3.3463e-06
3.14798e-06
1.32815e-06
1.32101e-06
1.32235e-06
1.4721e-06
1.67933e-06
1.92068e-06
2.18971e-06
2.47498e-06
2.78381e-06
2.92795e-06
3.10882e-06
3.35536e-06
3.65111e-06
3.99094e-06
4.31238e-06
4.76548e-06
5.9328e-06
6.86322e-06
3.27429e-06
3.51778e-06
9.16875e-07
9.04784e-07
1.08661e-06
1.33927e-06
1.59348e-06
1.87168e-06
2.15396e-06
2.43262e-06
2.71905e-06
2.96098e-06
3.2013e-06
3.48449e-06
3.79426e-06
4.12927e-06
4.44463e-06
4.81942e-06
5.89826e-06
6.88453e-06
3.20886e-06
7.5634e-06
7.02239e-07
8.65472e-07
1.15871e-06
1.48265e-06
1.79273e-06
2.07529e-06
2.35302e-06
2.61934e-06
2.87258e-06
3.1292e-06
3.37053e-06
3.6216e-06
3.9048e-06
4.23952e-06
4.54748e-06
4.81629e-06
5.80926e-06
6.94377e-06
3.16028e-06
1.23232e-06
0.000116387
0.000294024
0.000330908
0.000334808
0.000335355
0.000335356
0.000335342
0.000335343
0.000335346
0.000335346
0.000335343
0.000335342
0.000335357
0.000335356
0.000334809
0.000330909
0.000294025
0.00011639
1.23233e-06
1.36747e-06
6.85094e-05
0.00022055
0.000310054
0.000330959
0.000334532
0.000335273
0.000335314
0.000335291
0.000335279
0.000335279
0.000335291
0.000335314
0.000335272
0.000334531
0.000330958
0.000310056
0.000220551
6.85097e-05
1.36745e-06
1.52267e-06
5.24135e-05
0.000175218
0.000279627
0.000321826
0.000332456
0.000334595
0.000335096
0.000335167
0.000335173