/*--------------------------------*- C++ -*----------------------------------*\
| =========                 |                                                 |
| \\      /  F ield         | OpenFOAM: The Open Source CFD Toolbox           |
|  \\    /   O peration     | Version:  2.1.0                                 |
|   \\  /    A nd           | Web:      www.OpenFOAM.org                      |
|    \\/     M anipulation  |                                                 |
\*---------------------------------------------------------------------------*/
FoamFile
{
    version     2.0;
    format      ascii;
    class       volScalarField;
    location    "0.04";
    object      omega;
}
// * * * * * * * * * * * * * * * * * * * * * * * * * * * * * * * * * * * * * //

dimensions      [0 0 -1 0 0 0 0];

internalField   nonuniform List<scalar> 
6400
(
1646.56
1647.12
1647.33
1647.52
1647.56
1647.55
1647.38
1646.99
1646.7
1646.62
1646.61
1646.7
1646.85
1647.01
1647.13
1647.28
1647.44
1647.65
1647.82
1648
1648.11
1648.14
1648.1
1647.99
1647.78
1647.49
1647.19
1646.9
1646.72
1646.6
1646.46
1646.36
1646.28
1646.24
1646.24
1646.28
1646.29
1646.27
1646.18
1645.98
1645.71
1645.18
1644.28
1642.9
1640.94
1638.38
1635.05
1630.7
1625.09
1618.08
1609.69
1599.65
1587.63
1573.43
1556.78
1537.5
1515.44
1490.55
1463.06
1433.16
1401.22
1367.31
1331.69
1294.72
1256.89
1218.7
1181.08
1145.01
1110.76
1078.88
1049.98
1024.5
1002.83
984.828
969.471
955.638
943.319
933.019
927.559
926.149
926.243
927.389
929.266
931.255
932.074
931.783
928.282
920.894
911.428
898.503
875.667
838.405
781.988
699.062
589.986
482.387
470.669
581.022
699.713
734.281
641.83
641.242
641.001
640.538
639.962
639.355
638.855
638.658
638.603
638.639
638.905
639.417
639.905
640.32
640.531
640.69
640.796
640.808
640.782
640.664
640.398
639.963
639.445
639.095
638.805
638.672
638.483
638.33
638.301
638.312
638.421
638.472
638.502
638.581
638.786
638.91
638.917
638.844
638.596
638.076
637.339
636.119
634.377
632.112
629.282
625.871
621.759
616.548
610.352
603.33
595.668
587.4
578.385
568.299
556.638
543.358
528.881
513.749
498.686
484.309
471.552
461.361
456.873
455.306
455.13
457.493
465.86
483.575
511.928
545.53
579.473
612.86
646.606
681.475
717.8
755.648
795.026
836.113
879.23
922.295
963.586
1004.78
1047.48
1090.75
1133.94
1176.93
1219.47
1261.71
1303.33
1342.1
1376.02
1399.85
1409.19
1409.08
1375.59
1288.81
1153.76
996.81
830.365
672.63
129.261
128.605
128.289
127.578
126.963
126.596
126.473
126.448
126.46
126.586
126.872
127.3
127.717
128.036
128.163
128.217
128.222
128.165
128.015
127.778
127.484
127.058
126.599
126.411
126.345
126.312
126.284
126.261
126.29
126.373
126.49
126.548
126.62
126.695
126.809
126.912
126.936
126.932
126.878
126.678
126.352
125.82
125.195
124.478
123.789
122.922
122.201
120.99
119.682
118.232
116.28
113.745
111.091
110.294
110.264
111.423
115.223
122.728
134.762
152.055
175.636
205.91
240.462
276.09
311.04
345.201
379.137
413.182
447.479
482.181
517.525
553.126
588.993
625.596
663.189
701.467
740.059
778.785
817.576
856.339
894.934
933.159
970.912
1008.17
1044.77
1080.55
1115.4
1148.6
1179.09
1205.67
1224.51
1232.9
1234.48
1212.78
1163.29
1081.36
960.85
814.037
653.928
523.016
25.938
25.9314
25.8094
25.707
25.5727
25.429
25.4116
25.4059
25.3881
25.4461
25.5521
25.742
25.8524
25.9199
25.9216
25.9348
25.941
25.9174
25.8404
25.7881
25.6208
25.5314
25.4952
25.5121
25.5266
25.4755
25.4723
25.423
25.4946
25.4899
25.5279
25.5808
25.63
25.665
25.6952
25.7065
25.6394
25.5927
25.6146
25.5713
25.4591
25.243
25.0746
24.7451
24.2588
23.7156
22.8684
21.8433
21.4832
21.4742
21.7875
22.5607
24.1565
27.524
33.7362
43.4258
57.0044
74.8524
97.4116
124.612
155.72
189.578
224.75
260.039
294.712
328.206
360.02
389.968
418.447
446.309
474.537
503.778
534.159
565.346
596.795
627.984
658.595
688.423
717.363
745.286
771.906
796.857
819.723
840.119
857.606
871.917
881.789
886.416
887.949
885.153
872.463
855.79
828.982
792.318
745.494
683.431
612.985
537.299
471.473
438.391
8.9726
8.82707
8.8283
8.79303
8.79504
8.81918
8.8029
8.8212
8.86733
8.87755
8.89723
8.90835
8.9141
8.91204
8.93686
8.89362
8.87772
8.86387
8.89206
8.87956
8.87851
8.86166
8.80393
8.78105
8.73868
8.74308
8.69963
8.72278
8.66878
8.70856
8.70263
8.68515
8.62105
8.6721
8.66547
8.75325
8.79901
8.83204
8.80918
8.75992
8.69751
8.60393
8.43295
8.22659
7.8938
7.5377
7.06331
6.80642
6.7747
6.85032
7.51284
9.0168
11.8068
16.3211
23.1618
32.9969
46.5575
64.5114
87.0443
113.763
143.587
175.437
208.104
240.166
270.145
297.056
320.724
341.95
362.058
382.345
403.546
425.576
447.749
469.327
489.889
509.408
527.975
545.422
561.434
575.689
587.918
597.94
605.571
610.056
612.002
612.461
610.285
603.922
596.583
586.308
572.892
557.947
539.614
517.953
493.739
466.09
437.692
412.512
398.948
392.961
4.3967
4.37215
4.36281
4.36451
4.34889
4.36796
4.37555
4.38365
4.38999
4.39892
4.39497
4.39113
4.39318
4.38602
4.38713
4.41982
4.42076
4.41961
4.40932
4.39095
4.39546
4.38045
4.37491
4.33217
4.31861
4.30801
4.31364
4.31447
4.29758
4.28621
4.28812
4.28714
4.32135
4.32207
4.3405
4.32715
4.36034
4.37052
4.33565
4.30679
4.27934
4.25439
4.15843
4.0314
3.91412
3.77018
3.71377
3.73218
3.83596
4.06744
4.76646
6.13545
8.64076
12.6479
18.7914
27.852
40.5775
57.684
79.3216
105.044
133.739
163.913
193.671
220.982
244.294
263.152
278.251
291.186
303.668
316.799
330.625
344.384
357.164
368.599
378.953
388.724
397.916
406.148
413.161
418.921
423.573
427.182
429.285
430.213
430.502
430.182
428.04
425.091
421.749
417.15
411.947
406.246
399.676
392.677
385.169
377.608
371.61
368.913
368.485
369.209
3.03758
3.05317
3.05623
3.05127
3.04425
3.04113
3.0535
3.05051
3.05269
3.06173
3.07328
3.07788
3.07516
3.06871
3.06894
3.08632
3.1065
3.11197
3.09445
3.08826
3.08772
3.06623
3.05847
3.04502
3.03376
3.03306
3.03307
3.01907
3.0157
3.02337
3.04108
3.04641
3.08057
3.08201
3.09608
3.04346
3.03586
3.01967
3.00649
2.99238
2.96092
2.95716
2.90047
2.84231
2.82107
2.78972
2.78459
2.864
3.01913
3.29691
3.91398
5.12455
7.32673
10.915
16.5558
25.0113
37.0699
53.3968
74.1083
98.689
125.923
153.924
180.375
203.097
220.809
233.644
243.01
250.912
258.958
267.678
276.533
284.673
291.694
297.897
303.765
309.401
314.618
319.198
323.166
326.739
330.008
332.882
335.284
337.342
339.214
340.79
341.968
342.928
343.712
344.289
344.685
344.986
345.265
345.614
346.271
347.738
349.852
354.023
356.796
357.455
2.69851
2.7165
2.72292
2.72906
2.75655
2.76829
2.75314
2.75556
2.74935
2.73318
2.74398
2.75157
2.77
2.7822
2.79687
2.78334
2.76552
2.75497
2.74953
2.76596
2.75754
2.7637
2.76946
2.77422
2.78297
2.76811
2.76399
2.74847
2.73971
2.75031
2.75996
2.75749
2.77159
2.78282
2.77217
2.71114
2.69715
2.68055
2.65468
2.64371
2.62169
2.6147
2.56843
2.52284
2.4581
2.4342
2.43991
2.48861
2.62004
2.92644
3.52475
4.67807
6.74774
10.1653
15.5852
23.7752
35.5334
51.4672
71.6667
95.5033
121.548
147.69
171.464
190.836
204.954
214.445
221.118
227.044
233.528
240.609
247.482
253.418
258.405
263.021
267.726
272.472
276.934
281.025
284.97
288.979
292.967
296.738
300.338
303.924
307.482
310.992
314.461
317.902
321.42
324.902
328.363
331.948
335.63
339.499
343.699
348.513
353.623
359.431
362.211
362.643
2.62841
2.64619
2.6638
2.65957
2.67821
2.67652
2.67794
2.65745
2.66038
2.67084
2.67067
2.66399
2.65638
2.67841
2.67357
2.66716
2.67382
2.66863
2.68549
2.68267
2.67309
2.65297
2.65913
2.68193
2.7378
2.7133
2.67951
2.69214
2.69409
2.72089
2.7148
2.71308
2.69921
2.66493
2.65864
2.66453
2.63364
2.61693
2.59788
2.55712
2.50858
2.49304
2.44748
2.38623
2.3113
2.25643
2.25739
2.29042
2.41778
2.72443
3.33381
4.48769
6.51346
9.89816
15.2577
23.3756
35.0472
50.8451
70.8122
94.2659
119.674
144.789
167.097
184.662
196.869
204.681
210.147
215.364
221.425
228.115
234.519
240.033
244.875
249.712
254.905
260.254
265.419
270.426
275.565
280.974
286.497
292.022
297.627
303.438
309.412
315.412
321.461
327.66
333.954
340.283
346.664
353.133
359.676
366.28
373.008
380.121
387.833
395.797
401.356
403.66
2.61472
2.62023
2.63873
2.64534
2.64749
2.65287
2.64726
2.639
2.62403
2.61637
2.6013
2.60287
2.61744
2.63834
2.66158
2.66719
2.63497
2.62541
2.64793
2.65477
2.65205
2.6371
2.64114
2.65108
2.65174
2.66658
2.68177
2.65195
2.65556
2.66929
2.68271
2.69364
2.70692
2.70669
2.68612
2.62904
2.57953
2.56778
2.53973
2.51423
2.50345
2.45669
2.39815
2.31729
2.24485
2.20898
2.20447
2.2406
2.36474
2.65997
3.27237
4.43242
6.46184
9.8355
15.1917
23.3062
34.9641
50.7195
70.597
93.888
119.028
143.693
165.349
182.103
193.473
200.583
205.604
210.636
216.673
223.386
229.817
235.428
240.527
245.793
251.526
257.462
263.264
268.999
274.973
281.284
287.771
294.33
301.074
308.154
315.53
323.12
330.999
339.277
347.948
356.992
366.481
376.514
387.133
398.396
410.406
423.241
436.731
450.489
460.134
464.202
2.59234
2.61028
2.59323
2.59766
2.62045
2.62357
2.61371
2.62303
2.62262
2.59407
2.59976
2.60758
2.62968
2.69508
2.71292
2.68531
2.65991
2.64868
2.66007
2.64255
2.65296
2.63102
2.63373
2.63649
2.66344
2.67569
2.66355
2.66705
2.66571
2.70641
2.71882
2.69843
2.69773
2.69912
2.67427
2.64525
2.62201
2.60991
2.59294
2.56671
2.50245
2.47355
2.41193
2.30783
2.23419
2.21489
2.21298
2.25422
2.39136
2.69425
3.31533
4.47321
6.49944
9.87014
15.2288
23.344
34.9891
50.7323
70.5906
93.8763
119.04
143.772
165.537
182.426
193.924
201.117
206.156
211.141
217.097
223.721
230.068
235.582
240.554
245.662
251.229
257.002
262.637
268.185
273.95
280.026
286.236
292.487
298.871
305.517
312.392
319.394
326.57
334.027
341.749
349.696
357.929
366.529
375.497
384.855
394.795
405.409
416.727
428.296
436.379
439.784
2.63212
2.64109
2.63849
2.61994
2.61801
2.61204
2.60412
2.61616
2.65932
2.6678
2.64717
2.65664
2.6888
2.69685
2.70324
2.6847
2.67912
2.65865
2.6753
2.68394
2.65777
2.64874
2.63365
2.651
2.65349
2.66071
2.67249
2.68263
2.69721
2.71197
2.6975
2.71375
2.69308
2.69565
2.6943
2.64998
2.65267
2.62581
2.60434
2.58645
2.55804
2.52046
2.48068
2.39586
2.33204
2.31614
2.31102
2.36441
2.51713
2.82324
3.44154
4.59768
6.62182
10.0013
15.3615
23.4738
35.1058
50.8465
70.7397
94.1259
119.531
144.721
167.198
184.99
197.423
205.388
210.895
216.031
221.945
228.474
234.728
240.064
244.661
249.167
253.974
258.889
263.563
267.985
272.428
277.108
281.849
286.441
291.028
295.731
300.448
305.099
309.727
314.393
319.062
323.709
328.395
333.184
338.134
343.254
348.664
354.496
360.969
367.749
371.159
372.18
2.6933
2.69991
2.68615
2.67793
2.67545
2.67174
2.66254
2.67314
2.7019
2.70542
2.70843
2.72649
2.75058
2.75196
2.7531
2.75569
2.75703
2.76844
2.74524
2.75793
2.76181
2.77207
2.76299
2.74139
2.75301
2.75466
2.74166
2.74063
2.75454
2.74199
2.75009
2.74309
2.75397
2.7611
2.74622
2.73651
2.70297
2.70654
2.69538
2.6976
2.65177
2.63914
2.5987
2.52242
2.49535
2.49369
2.51268
2.59328
2.75153
3.05321
3.68031
4.86603
6.92249
10.3528
15.781
23.968
35.6766
51.5137
71.5705
95.2698
121.257
147.444
171.411
191.089
205.539
215.288
222.062
227.923
234.26
241.214
248.017
253.902
258.813
263.284
267.825
272.422
276.773
280.757
284.565
288.343
292.03
295.492
298.736
301.887
304.951
307.824
310.51
313.099
315.716
318.361
321.01
323.852
326.842
330.108
333.811
337.751
342.669
347.785
350.24
350.395
3.01056
3.02193
3.01076
2.99793
2.99179
2.98334
2.99701
2.9942
3.04278
3.05694
3.02767
3.04473
3.06498
3.07756
3.07753
3.09778
3.09461
3.10469
3.11413
3.1003
3.09085
3.09739
3.09242
3.08951
3.08588
3.07049
3.07114
3.07645
3.08178
3.08131
3.07444
3.0608
3.05797
3.06161
3.05239
3.05289
3.03101
3.01655
3.00931
3.01042
2.97583
2.95847
2.92202
2.8543
2.82448
2.82372
2.86438
2.94343
3.13315
3.44019
4.09488
5.37398
7.57223
11.1777
16.8499
25.3178
37.3209
53.5124
74.0298
98.405
125.465
153.433
180.032
203.064
221.197
234.401
243.995
251.931
259.882
268.5
277.381
285.69
292.948
299.346
305.408
311.35
316.898
321.81
326.102
329.921
333.381
336.439
338.986
341.084
342.89
344.392
345.501
346.231
346.566
346.669
346.481
345.686
344.842
343.76
342.947
342.591
342.912
346.198
348.453
348.92
4.31307
4.3025
4.28941
4.30792
4.32104
4.32428
4.34896
4.34401
4.37819
4.39288
4.37644
4.37229
4.36376
4.36582
4.36348
4.38768
4.37974
4.37446
4.38325
4.41897
4.43399
4.43111
4.42173
4.42425
4.40004
4.40274
4.38133
4.3745
4.37028
4.36301
4.37637
4.37931
4.36176
4.36228
4.3513
4.35252
4.34349
4.32049
4.29407
4.26219
4.23857
4.18622
4.10362
3.96836
3.90118
3.79669
3.78045
3.79674
3.97238
4.22108
4.94308
6.42937
8.92482
12.9402
19.1314
28.1984
40.8531
57.7862
79.1477
104.54
132.909
162.87
192.59
220.028
243.648
262.844
278.217
291.243
303.678
316.73
330.592
344.645
357.969
370.042
381.039
391.362
401.247
410.371
418.352
425.163
430.925
435.765
439.54
441.961
443.099
443.509
443.382
441.387
438.134
434.163
428.239
421.163
412.992
402.929
392.028
381.105
370.748
365.593
363.529
362.885
8.72079
8.66874
8.74849
8.74677
8.74279
8.82791
8.85202
8.91781
8.91395
8.87889
8.92386
8.89325
8.87726
8.77048
8.80667
8.8118
8.85375
8.83169
8.83681
8.87939
8.94105
8.95249
8.93066
8.93596
8.92587
8.93773
8.89084
8.87436
8.92208
8.88272
8.88257
8.88103
8.85168
8.80765
8.83583
8.80124
8.81898
8.78082
8.73885
8.68548
8.62918
8.51931
8.31004
8.03732
7.87133
7.48541
7.06615
6.90001
6.88694
6.98358
7.5967
9.16321
11.9616
16.4221
23.2256
32.9734
46.397
64.1037
86.2772
112.559
141.945
173.357
205.664
237.475
267.391
294.366
318.109
339.319
359.288
379.391
400.409
422.46
444.944
467.077
488.38
508.826
528.558
547.545
565.457
581.947
596.766
609.731
620.647
629.329
635.319
638.102
639.076
638.273
632.368
624.279
612.812
596.308
576.678
551.259
520.192
487.054
450.549
419.046
398.485
388.544
25.4952
25.5012
25.4892
25.5146
25.6187
25.7131
25.8094
25.8265
25.7936
25.7746
25.6843
25.6526
25.5738
25.5893
25.5047
25.463
25.4509
25.5128
25.5125
25.4801
25.4748
25.5503
25.6878
25.7715
25.8205
25.819
25.8945
25.9087
25.8441
25.856
25.7613
25.6892
25.6462
25.6131
25.4742
25.3818
25.2762
25.2481
25.2237
25.1394
25.0436
24.93
24.8421
24.6904
24.1578
23.6553
22.8674
21.8612
21.2559
21.1674
21.3962
22.1337
23.7782
27.1299
33.2108
42.6352
55.8772
73.3551
95.447
122.104
152.604
185.841
220.454
255.234
289.448
322.582
354.111
383.798
411.942
439.388
467.086
495.786
525.739
556.709
588.194
619.713
650.927
681.65
711.793
741.298
770.038
797.69
823.858
848.225
870.529
890.26
907.098
920.341
926.886
929.381
928.398
914.067
891.501
854.588
801.231
734.656
650.395
563.22
488.937
439.33
127.154
126.842
126.824
126.943
127.275
127.665
128.229
128.489
128.51
128.429
128.152
127.634
126.871
126.486
126.352
126.31
126.307
126.337
126.369
126.466
126.645
126.89
127.294
127.725
128.055
128.202
128.311
128.37
128.385
128.383
128.278
128.069
127.71
127.203
126.74
126.451
126.101
125.823
125.635
125.337
124.929
124.404
123.941
123.447
122.736
121.976
121.287
120.18
118.66
117.405
115.721
112.94
110.072
108.976
108.851
109.753
113.155
120.212
131.756
148.472
171.333
200.841
234.691
269.719
304.079
337.609
370.822
404.095
437.559
471.309
505.69
540.468
575.503
611.243
648.046
685.774
724.019
762.554
801.348
840.374
879.589
918.843
957.973
997.015
1035.99
1074.66
1112.95
1150.83
1187.09
1220.14
1248.46
1263.87
1269.14
1254.45
1197.81
1115.47
998.963
856.172
692.385
543.622
640.011
639.308
639.201
639.202
639.425
639.859
640.443
640.785
640.827
640.786
640.68
640.392
639.819
639.219
638.912
638.747
638.629
638.514
638.472
638.468
638.602
638.876
639.342
639.924
640.279
640.442
640.607
640.768
640.877
640.92
640.921
640.843
640.611
640.128
639.553
639.039
638.472
637.888
637.288
636.502
635.386
633.894
632.231
630.238
627.518
624.211
620.203
614.985
608.669
601.859
594.177
585.499
576.247
566.018
554.288
540.823
526.056
510.595
495.067
480.24
467.02
455.969
450.385
448.304
447.843
449.188
455.862
471.376
497.916
530.537
563.818
596.336
628.972
662.63
697.689
734.221
772.215
811.736
853.248
896.114
937.885
978.67
1021.06
1064.78
1108.86
1153.05
1196.87
1240
1282.18
1321.08
1348.36
1359.93
1362.23
1350.49
1315.18
1241.56
1136.53
1001.57
857.662
703.144
1646.69
1646.56
1646.54
1646.54
1646.56
1646.62
1646.76
1646.97
1647.16
1647.31
1647.52
1647.7
1647.74
1647.71
1647.56
1647.34
1647.14
1646.81
1646.52
1646.4
1646.36
1646.35
1646.44
1646.67
1646.86
1646.96
1647.09
1647.22
1647.37
1647.54
1647.74
1647.93
1648.09
1648.13
1648.12
1647.97
1647.71
1647.35
1646.89
1646.35
1645.61
1644.6
1643.37
1641.87
1639.86
1637.29
1634.01
1629.55
1623.82
1616.95
1608.65
1598.53
1586.39
1572.05
1555.35
1535.93
1513.6
1488.5
1460.63
1430.27
1397.85
1363.53
1327.49
1289.99
1251.58
1212.97
1174.79
1138.11
1103.3
1070.77
1041.17
1015.03
992.719
974.277
958.717
944.616
931.76
921.599
918.163
917.854
919.18
922.41
927.074
932.417
937.725
939.845
939.04
933.02
921.836
905.533
875.994
822.746
742.616
649.664
553.233
477.636
464.363
580.811
720.23
761.877
691.636
281.76
157.648
107.975
85.5345
69.1364
58.991
54.1579
47.7288
44.3605
42.2803
41.2743
40.9675
42.3663
49.1507
67.2679
112.048
211.169
418.191
690.508
573.89
294.273
194.334
139.028
106.61
86.3033
75.2179
65.4752
58.745
54.7807
52.4291
51.5433
51.3803
53.0887
61.9174
84.4784
134.081
235.938
431.903
671.521
476.474
288.176
218.75
160.429
128.525
107.046
91.08
80.8926
72.9124
67.9177
65.5507
64.6616
64.5956
68.2487
80.6932
107.321
161.704
264.186
445.085
649.81
405.836
279.559
233.324
176.617
150.433
123.935
109.107
96.9019
87.9721
83.5869
81.4249
80.7436
81.9504
88.5244
104.427
136.239
194.159
293.465
454.72
624.456
357.713
273.072
240.012
190.68
168.981
142.674
130.279
116.669
110.082
105.389
103.327
102.713
104.504
114.658
135.755
171.304
230.794
322.962
460.832
595.507
330.55
273.514
248.919
208.341
190.427
166.425
155.378
141.889
135.729
130.545
128.672
128.3
135.089
151.632
175.387
214.1
270.541
349.401
458.394
561.489
317.86
278.578
260.302
227.194
212.806
192.887
183.801
173.189
168.723
166.662
166.408
172.681
184.934
202.543
227.852
263.479
309.922
369.925
448.889
519.686
325.933
301.203
289.352
266.038
255.883
241.732
235.427
230.08
228.358
228.195
233.089
241.058
252.323
267.396
287.928
312.915
343.139
378.994
428.359
473.971
380.92
366.762
357.486
339.658
331.24
319.606
314.201
309.068
307.006
306.406
308.175
312.368
317.426
326.105
334.93
345.802
357.585
371.741
389.801
419.588
443.423
426.377
418.187
399.445
390.833
377.519
371.148
362.379
358.197
353.758
351.793
351.021
351.23
353.379
354.663
355.817
356.469
355.939
356.191
376.88
418.559
401.46
392.936
373.943
365.199
352.091
345.913
338.363
334.826
332.739
332.125
333.676
336.679
342.565
348.51
355.547
363.371
373.286
381.711
407.395
342.623
327.703
315.961
297.186
288.202
275.228
269.3
264.08
262.173
261.818
265.639
272.965
282.2
296.228
313.629
335.007
359.682
387.727
429.091
466.94
311.549
283.464
269.781
242.368
230.379
213.359
205.579
197.022
193.677
192.438
193.848
202.436
215.374
233.45
258.925
293.02
336.066
389.822
459.26
518.886
309.229
269.226
250.807
217.043
202.04
180.454
170.519
157.959
152.38
148.341
147.127
148.261
159.88
177.975
204.378
244.889
300.548
375.022
475.127
566.286
323.52
264.833
239.521
198.53
180.424
156.225
145.061
131.591
125.422
120.175
118.138
117.607
120.931
135.59
159.744
199.45
261.749
352.538
480.95
605.324
351.995
266.394
233.135
183.648
161.806
135.056
122.252
108.106
101.131
96.2943
94.1441
93.5341
95.5404
104.133
124.063
160.484
223.401
325.056
481.767
638.327
400.419
272.296
225.947
170.275
144.292
119.143
103.935
92.3588
82.9531
78.3688
75.8228
74.9504
75.1861
81.1852
96.3634
127.676
188.317
295.6
473.996
667.304
476.65
281.467
211.605
154.926
122.774
101.488
86.3907
76.038
68.5679
63.6046
61.3311
60.489
60.485
63.4158
75.0361
101.507
157.395
266.324
463.1
692.192
589.48
288.043
188.613
134.035
103.366
82.9177
71.4947
62.6083
55.4702
51.5421
49.154
48.1395
47.9305
49.896
58.4582
80.5542
131.806
239.233
449.457
713.915
720.083
278.465
153.075
103.809
81.448
66.5949
56.0218
50.9241
45.3815
41.3797
39.5679
38.3581
38.0251
39.4793
46.3441
64.6688
110.599
215.435
435.65
732.923
645.662
32.2191
12.7426
11.3225
11.1899
11.171
11.1705
11.1709
11.1707
11.1706
11.1706
11.1707
11.1709
11.1706
11.171
11.1899
11.3225
12.7426
32.2183
645.663
672.356
54.7838
16.9649
12.0661
11.3025
11.1803
11.1547
11.1529
11.1534
11.1536
11.1536
11.1533
11.1528
11.1546
11.1802
11.3025
12.066
16.9647
54.7835
672.355
700.196
71.7817
21.3068
13.3494
11.5992
11.2277
11.1553
11.1381
11.1355
11.1351
11.1351
11.1355
11.1381
11.1552
11.2277
11.5992
13.3496
21.3069
71.7797
700.196
723.849
86.2804
25.2453
14.6793
12.054
11.3417
11.1685
11.1261
11.1176
11.1163
11.1163
11.1176
11.1261
11.1685
11.3416
12.0539
14.6789
25.2443
86.2753
723.851
744.253
100.061
28.8499
15.9645
12.5511
11.5103
11.2041
11.1266
11.1048
11.1002
11.1002
11.1047
11.1265
11.204
11.5103
12.5511
15.9641
28.8479
100.05
744.253
767.344
116.665
32.9733
17.422
13.1521
11.7441
11.2755
11.1351
11.094
11.0846
11.0845
11.0939
11.1349
11.2751
11.7435
13.1514
17.4204
32.967
116.635
767.345
792.94
135.999
37.7396
19.0941
13.8668
12.0504
11.3892
11.1593
11.0905
11.07
11.0699
11.0903
11.1591
11.3892
12.0501
13.8652
19.0892
37.7259
135.948
792.943
814.884
153.406
42.2178
20.7139
14.5904
12.3852
11.5312
11.2073
11.0942
11.0587
11.0585
11.0939
11.2068
11.531
12.3854
14.5909
20.7125
42.2064
153.345
814.895
830.404
166.22
45.7532
22.0738
15.2286
12.6953
11.6718
11.2605
11.1048
11.0569
11.0568
11.1045
11.2599
11.6711
12.6943
15.2266
22.0666
45.7235
166.124
830.422
843.579
176.941
48.7585
23.2544
15.7934
12.975
11.8011
11.3123
11.1215
11.0599
11.0599
11.1215
11.3119
11.8004
12.973
15.7856
23.2319
48.6972
176.797
843.626
859.964
189.948
52.1332
24.5053
16.3851
13.279
11.9533
11.3809
11.1506
11.0719
11.0722
11.1519
11.3841
11.9551
13.2779
16.3806
24.4886
52.0854
189.833
860.044
880.314
206.596
56.3283
26.0366
17.1287
13.6892
12.1886
11.5092
11.2098
11.1039
11.1049
11.214
11.5183
12.2031
13.7029
17.1363
26.0478
56.3386
206.61
880.408
900.278
223.87
61.0434
27.8828
18.0748
14.2399
12.517
11.7083
11.3333
11.1844
11.1862
11.3379
11.7196
12.5492
14.2876
18.1245
27.9233
61.102
223.989
900.375
914.692
237.474
65.5238
29.8006
19.0814
14.82
12.8705
11.9196
11.4803
11.3173
11.3261
11.4987
11.9349
12.8966
14.9064
19.1932
29.88
65.5907
237.553
914.79
921.496
245.915
68.955
31.32
19.877
15.2679
13.0933
12.0417
11.5825
11.4184
11.4285
11.6051
12.0672
13.1021
15.3144
20.0325
31.4643
69.0347
245.901
921.605
922.762
251.183
70.823
32.0705
20.2682
15.4167
13.1241
12.0629
11.6096
11.4478
11.454
11.6268
12.0895
13.135
15.4199
20.3898
32.3035
70.944
251.158
922.877
921.978
255.444
71.2644
32.1688
20.2677
15.3789
13.0762
12.0062
11.5557
11.3989
11.4037
11.5691
12.025
13.0768
15.3725
20.369
32.4399
71.4136
255.506
922.096
917.218
258.324
70.9754
31.8921
19.9534
15.0177
12.7343
11.7061
11.2875
11.1503
11.1461
11.2798
11.7018
12.7184
14.9901
20.0192
32.1497
71.1364
258.496
917.348
899.665
258.732
69.1415
30.4534
18.5682
13.6475
11.5176
10.6488
10.3253
10.2376
10.2025
10.2469
10.5496
11.4366
13.5616
18.5179
30.6496
69.3246
258.949
899.802
874.492
257.346
63.3288
26.4413
15.1911
10.8058
8.98103
8.27418
8.09481
8.0754
8.0191
8.00062
8.19228
8.89173
10.6897
15.0948
26.5159
63.607
257.648
874.541
854.807
252.478
56.7067
22.1836
12.1459
8.26392
6.67566
6.09366
5.95421
5.94912
5.91928
5.90572
6.02635
6.61504
8.20265
12.0774
22.2298
56.9848
252.886
854.766
841.032
247.745
51.6346
19.0469
9.88014
6.34245
4.95719
4.45188
4.31243
4.30361
4.28815
4.27232
4.38956
4.89113
6.32703
9.86566
19.037
51.7481
247.849
840.938
832.121
244.424
48.0576
16.9717
8.38164
5.13712
3.82541
3.37027
3.22979
3.1997
3.18592
3.1709
3.29839
3.77392
5.09267
8.40784
16.9661
48.0597
244.28
832.026
826.644
242.1
45.7169
15.7104
7.56024
4.44285
3.15891
2.69746
2.56708
2.53639
2.51541
2.52208
2.65569
3.1314
4.40364
7.53294
15.7006
45.7368
241.97
826.563
823.365
240.641
44.3548
15.0519
7.07858
4.02438
2.79798
2.35741
2.21013
2.1573
2.15733
2.19176
2.34868
2.78071
3.96331
7.06781
15.1168
44.3673
240.586
823.285
821.421
239.795
43.5365
14.7776
6.86941
3.82733
2.61141
2.19887
2.03978
1.96812
1.98285
2.01066
2.17601
2.62273
3.82056
6.80841
14.7451
43.6998
239.851
821.33
820.24
239.332
43.1343
14.6031
6.80643
3.74163
2.51764
2.08718
1.95429
1.90101
1.87764
1.94218
2.1115
2.51909
3.69975
6.71749
14.6171
43.2826
239.368
820.143
819.485
239.132
42.9881
14.5625
6.76853
3.71325
2.50205
2.0494
1.9134
1.88448
1.86047
1.91474
2.05705
2.48262
3.68043
6.69239
14.4756
43.1323
239.004
819.39
818.957
239.052
42.9832
14.556
6.71124
3.69722
2.49945
2.05115
1.89539
1.86232
1.8422
1.88849
2.04831
2.46929
3.65129
6.68313
14.4848
43.0028
238.764
818.885
818.544
238.98
42.9733
14.575
6.69996
3.70619
2.50823
2.04912
1.89757
1.85479
1.83863
1.87688
2.03784
2.44381
3.63969
6.69444
14.4607
42.9248
238.609
818.527
818.215
238.863
42.9414
14.5789
6.73526
3.6907
2.48788
2.05225
1.90696
1.84789
1.83474
1.85798
2.01348
2.42684
3.65168
6.7357
14.4649
42.825
238.514
818.265
817.969
238.627
42.8362
14.5772
6.76106
3.68648
2.46672
2.04835
1.9046
1.84284
1.83673
1.85787
1.99929
2.42952
3.66892
6.73927
14.4611
42.8044
238.475
818.038
817.799
238.231
42.7208
14.5625
6.75713
3.67704
2.46606
2.05249
1.91191
1.84312
1.85763
1.87659
2.01076
2.43591
3.66936
6.72785
14.4948
42.7729
238.426
817.829
817.682
237.955
42.5866
14.5151
6.7562
3.68943
2.48245
2.05831
1.89925
1.86217
1.86981
1.87311
2.02636
2.43132
3.66987
6.76734
14.4494
42.7011
238.279
817.661
817.591
237.85
42.5397
14.49
6.76635
3.69061
2.47464
2.04286
1.89306
1.85455
1.85788
1.86582
2.01778
2.43403
3.67158
6.75275
14.4038
42.5928
237.941
817.535
817.515
237.834
42.539
14.469
6.74278
3.6995
2.47079
2.02545
1.87623
1.82454
1.83183
1.85439
2.01059
2.45322
3.68945
6.70562
14.3743
42.5546
237.735
817.44
817.439
237.832
42.5585
14.4535
6.70142
3.69695
2.47419
2.02258
1.85904
1.81642
1.8076
1.8557
1.99379
2.46724
3.71557
6.67229
14.3358
42.5208
237.621
817.375
817.369
237.873
42.6063
14.4521
6.69591
3.67923
2.46703
2.01833
1.84469
1.78833
1.79454
1.85447
1.98166
2.45306
3.69538
6.64789
14.3545
42.4723
237.488
817.344
817.321
237.909
42.6672
14.4281
6.68307
3.67566
2.46248
2.01273
1.83219
1.78791
1.79277
1.84306
1.98329
2.42215
3.65941
6.67266
14.363
42.3819
237.381
817.339
817.254
237.851
42.625
14.4416
6.69086
3.66793
2.44562
1.9929
1.83823
1.79302
1.80263
1.84454
1.99608
2.42615
3.66119
6.66705
14.3702
42.3818
237.374
817.353
817.153
237.565
42.474
14.425
6.73145
3.64491
2.41828
1.99257
1.84902
1.79092
1.80247
1.85015
1.99517
2.41567
3.65028
6.7313
14.418
42.3415
237.413
817.383
817.081
237.259
42.3234
14.4212
6.74381
3.63566
2.42163
2.00283
1.83948
1.80213
1.79791
1.86712
2.00801
2.44538
3.66522
6.73427
14.4439
42.3812
237.566
817.385
817.066
237.127
42.2945
14.3916
6.72935
3.646
2.43522
2.00641
1.85363
1.80068
1.81762
1.88818
2.02855
2.46547
3.67993
6.7369
14.4383
42.4742
237.71
817.375
817.075
237.087
42.3072
14.3622
6.66668
3.67115
2.46798
2.00722
1.85885
1.81522
1.81769
1.88686
2.02202
2.43105
3.69695
6.79681
14.4305
42.4798
237.75
817.329
817.1
237.05
42.2944
14.3829
6.65034
3.65848
2.45794
1.99971
1.86034
1.81547
1.81866
1.88178
2.00239
2.42417
3.70632
6.79601
14.4378
42.4836
237.746
817.232
817.151
237.024
42.2312
14.3823
6.70434
3.63167
2.42384
1.99505
1.86109
1.81746
1.82575
1.86325
2.00713
2.4377
3.70843
6.79271
14.4464
42.4859
237.73
817.15
817.285
237.057
42.2634
14.3386
6.68291
3.65761
2.43918
2.0034
1.85967
1.81609
1.81391
1.86663
2.00438
2.456
3.70424
6.74327
14.4698
42.521
237.725
817.101
817.423
237.276
42.3631
14.3632
6.66945
3.66253
2.45893
2.02138
1.8651
1.8083
1.79825
1.84648
2.00673
2.4511
3.70152
6.76574
14.4485
42.5099
237.691
817.053
817.463
237.735
42.5007
14.4304
6.68922
3.68139
2.46536
2.02736
1.85264
1.80755
1.79241
1.83849
2.00133
2.43542
3.67975
6.77343
14.4568
42.408
237.524
816.962
817.45
237.953
42.5747
14.4679
6.74945
3.69328
2.44608
2.00741
1.85741
1.79319
1.78693
1.84665
1.99591
2.43968
3.68864
6.71401
14.3857
42.3985
237.233
816.854
817.377
237.983
42.6065
14.4737
6.75974
3.69284
2.45212
1.99616
1.84886
1.79287
1.79134
1.86693
2.01058
2.45392
3.6757
6.7005
14.3311
42.3571
237.065
816.819
817.249
237.943
42.6021
14.4648
6.7485
3.70911
2.45717
1.99364
1.84354
1.79513
1.81776
1.87618
2.02283
2.46645
3.67827
6.64817
14.3288
42.3331
237.039
816.828
817.147
237.834
42.5348
14.4915
6.78545
3.68571
2.43235
1.99809
1.85724
1.7994
1.81949
1.87342
2.02085
2.45857
3.66345
6.65979
14.3316
42.3192
237.059
816.88
817.064
237.782
42.5299
14.4976
6.77393
3.69644
2.44965
2.00688
1.87204
1.81371
1.80802
1.8691
2.02053
2.44998
3.63329
6.64724
14.3593
42.3267
237.109
816.959
816.981
237.798
42.5529
14.4699
6.77958
3.71963
2.48683
2.03931
1.86488
1.82974
1.81945
1.86562
2.00034
2.43463
3.63626
6.64738
14.3674
42.3046
237.11
816.99
816.889
237.843
42.5493
14.5248
6.79384
3.70347
2.47757
2.04056
1.86574
1.83424
1.82256
1.85331
1.98782
2.42846
3.63019
6.64856
14.3865
42.2662
237.09
817.005
816.821
237.819
42.5238
14.5449
6.79937
3.70279
2.45247
2.01571
1.85355
1.82581
1.81518
1.85645
1.9898
2.42136
3.6262
6.67522
14.3691
42.2496
237.07
817.034
816.786
237.695
42.4818
14.5223
6.79519
3.70537
2.45493
2.0141
1.85309
1.82896
1.82805
1.86134
2.00874
2.43207
3.64763
6.66419
14.3691
42.2569
237.084
817.124
816.726
237.461
42.4504
14.4904
6.7658
3.70731
2.46342
2.00816
1.857
1.81874
1.85779
1.88647
2.0142
2.44146
3.65376
6.69906
14.3657
42.2618
237.159
817.288
816.595
237.182
42.3901
14.4455
6.76366
3.69927
2.47645
2.02658
1.87363
1.80368
1.85288
1.88848
2.01489
2.43489
3.67038
6.69117
14.3572
42.38
237.436
817.372
816.532
236.983
42.3328
14.431
6.76525
3.68044
2.47964
2.03326
1.86473
1.80853
1.82669
1.84869
2.00114
2.42816
3.65126
6.67676
14.4232
42.5154
237.804
817.379
816.529
236.89
42.2955
14.418
6.75023
3.69463
2.48417
2.04456
1.8612
1.80891
1.79608
1.82529
1.997
2.41893
3.64233
6.69885
14.4736
42.5568
237.932
817.363
816.543
236.825
42.2083
14.4527
6.75167
3.68783
2.48514
2.04457
1.85659
1.80223
1.79075
1.82461
1.98484
2.40293
3.6231
6.7698
14.4837
42.5346
237.917
817.3
816.578
236.769
42.1603
14.4498
6.77271
3.66731
2.45084
2.02937
1.8574
1.79034
1.78685
1.82681
1.97515
2.40264
3.64223
6.76824
14.4515
42.5327
237.832
817.193
816.658
236.765
42.1957
14.392
6.73133
3.6784
2.4467
2.00843
1.86684
1.79863
1.78784
1.83535
1.98506