/*--------------------------------*- C++ -*----------------------------------*\
| =========                 |                                                 |
| \\      /  F ield         | OpenFOAM: The Open Source CFD Toolbox           |
|  \\    /   O peration     | Version:  2.1.0                                 |
|   \\  /    A nd           | Web:      www.OpenFOAM.org                      |
|    \\/     M anipulation  |                                                 |
\*---------------------------------------------------------------------------*/
FoamFile
{
    version     2.0;
    format      ascii;
    class       volScalarField;
    location    "0.04";
    object      p;
}
// * * * * * * * * * * * * * * * * * * * * * * * * * * * * * * * * * * * * * //

dimensions      [1 -1 -2 0 0 0 0];

internalField   nonuniform List<scalar> 
6400
(
99992.6
99992.3
99995.4
99999.4
100003
100006
100008
100011
100015
100020
100023
100026
100029
100032
100035
100039
100042
100045
100050
100055
100060
100063
100065
100067
100069
100072
100075
100078
100080
100084
100089
100092
100095
100098
100101
100104
100107
100109
100112
100114
100117
100120
100123
100126
100129
100132
100135
100137
100139
100140
100142
100142
100143
100143
100143
100142
100141
100138
100135
100131
100126
100119
100112
100102
100092
100079
100065
100050
100032
100014
99993.3
99971.5
99948.2
99923.6
99897.7
99870.5
99842.2
99812.9
99782.5
99751.2
99719.1
99686.1
99652.4
99617.8
99582.3
99545.8
99508.1
99468.9
99427.7
99384.3
99338.9
99292.6
99248
99207.6
99172
99134.2
99081
98974.2
98627.4
97114.2
99991.3
99991.5
99995.1
99999.5
100003
100006
100008
100011
100015
100020
100024
100026
100029
100032
100035
100039
100042
100045
100050
100056
100060
100063
100066
100067
100069
100072
100075
100078
100080
100084
100089
100092
100094
100098
100101
100104
100106
100109
100111
100114
100116
100119
100122
100125
100129
100131
100134
100136
100138
100139
100140
100141
100142
100142
100142
100141
100139
100137
100134
100130
100125
100118
100111
100101
100091
100078
100064
100049
100031
100013
99992.4
99970.6
99947.3
99922.7
99896.8
99869.7
99841.4
99812.1
99781.8
99750.5
99718.4
99685.5
99651.7
99617.2
99581.8
99545.3
99507.7
99468.5
99427.5
99384.5
99339.4
99293.4
99248.7
99208.4
99174.8
99142.7
99095.1
99002.4
98722.5
98211.1
99988
99989.6
99994.7
99999.7
100004
100006
100008
100010
100015
100020
100024
100026
100029
100032
100035
100039
100042
100044
100049
100057
100061
100064
100066
100067
100069
100071
100075
100078
100079
100084
100090
100092
100094
100098
100101
100104
100106
100109
100112
100113
100116
100119
100121
100126
100129
100131
100134
100136
100138
100139
100141
100141
100142
100142
100142
100141
100140
100138
100135
100131
100125
100119
100111
100102
100091
100079
100065
100049
100032
100013
99992.5
99970.7
99947.4
99922.8
99896.9
99869.7
99841.5
99812.2
99781.9
99750.7
99718.7
99685.9
99652.3
99617.9
99582.7
99546.4
99509
99470.2
99429.7
99387.5
99343.7
99299.7
99257.7
99220.2
99189.7
99161.3
99128.3
99072.6
98930.7
99033.7
99981
99986.9
99994.2
100000
100005
100007
100007
100009
100014
100021
100025
100026
100029
100032
100035
100040
100042
100042
100049
100058
100062
100064
100066
100067
100068
100070
100076
100079
100077
100083
100091
100093
100093
100098
100102
100104
100107
100109
100112
100113
100116
100119
100121
100126
100129
100131
100135
100137
100138
100140
100141
100142
100143
100143
100143
100142
100141
100138
100135
100131
100126
100120
100112
100102
100092
100079
100065
100050
100032
100014
99993.2
99971.4
99948.2
99923.6
99897.7
99870.6
99842.4
99813.2
99782.9
99751.8
99719.8
99687
99653.3
99618.9
99583.6
99547.3
99509.8
99471.1
99431
99389.5
99347.3
99305.9
99268.2
99235.9
99212.8
99197.5
99192.6
99200
99232.4
99648.4
99967.7
99984.3
99993.6
100001
100006
100007
100007
100007
100013
100023
100026
100025
100029
100031
100034
100041
100042
100039
100048
100060
100063
100064
100067
100067
100067
100069
100076
100080
100074
100083
100093
100093
100092
100098
100103
100104
100108
100109
100113
100112
100116
100120
100119
100128
100130
100130
100137
100137
100139
100141
100142
100143
100143
100144
100143
100143
100141
100139
100136
100132
100127
100120
100113
100103
100092
100080
100066
100050
100033
100014
99994.2
99972.5
99949.3
99924.7
99898.9
99871.9
99843.7
99814.5
99784.3
99753.1
99721
99688.1
99654.3
99619.7
99584.2
99547.6
99510
99471.3
99431.5
99391
99350.7
99312.7
99280.2
99255.1
99241.1
99248.4
99283.7
99373.4
99568.2
100129
99958.4
99983.9
99992.8
100002
100007
100007
100007
100004
100013
100025
100028
100025
100027
100031
100035
100041
100042
100037
100047
100063
100064
100065
100067
100068
100067
100067
100077
100080
100072
100083
100094
100094
100093
100098
100102
100103
100110
100109
100112
100111
100117
100121
100117
100129
100130
100130
100139
100138
100139
100142
100142
100143
100144
100144
100144
100143
100142
100140
100137
100133
100128
100121
100113
100104
100093
100081
100067
100051
100034
100016
99995.3
99973.6
99950.4
99925.9
99900.1
99873.1
99844.9
99815.7
99785.4
99754.2
99722
99689
99655
99620.1
99584.3
99547.5
99509.7
99470.9
99431.5
99392
99353.8
99319.2
99292.4
99275.5
99275.6
99307.7
99389.4
99565.9
99888.1
100501
99965.4
99986.3
99993.6
100003
100010
100008
100006
100003
100014
100025
100030
100026
100024
100033
100037
100040
100041
100036
100046
100064
100066
100065
100066
100070
100068
100067
100076
100079
100072
100084
100093
100093
100097
100098
100099
100103
100110
100110
100111
100112
100117
100119
100120
100129
100129
100132
100139
100137
100140
100143
100142
100144
100144
100145
100144
100144
100143
100140
100138
100134
100128
100122
100114
100105
100094
100082
100068
100052
100035
100016
99996.2
99974.5
99951.4
99926.9
99901.1
99874.1
99846
99816.7
99786.4
99755.1
99722.8
99689.6
99655.4
99620.3
99584.1
99547
99509
99470.2
99431.1
99392.5
99356.2
99324.9
99303.1
99294.5
99309.2
99366.8
99494.6
99749.4
100161
100779
99982.9
99990.8
99996.5
100005
100011
100010
100003
100001
100015
100026
100031
100026
100021
100032
100038
100039
100041
100035
100045
100066
100069
100065
100066
100071
100069
100069
100076
100074
100073
100086
100090
100093
100101
100099
100095
100102
100110
100112
100112
100113
100117
100117
100122
100127
100128
100135
100137
100137
100141
100142
100143
100144
100145
100145
100145
100144
100143
100141
100138
100134
100129
100122
100115
100105
100094
100082
100068
100053
100036
100017
99996.7
99975.1
99952
99927.6
99901.9
99874.9
99846.8
99817.5
99787.2
99755.9
99723.5
99690.2
99655.8
99620.4
99584
99546.5
99508.2
99469.3
99430.3
99392.5
99357.6
99328.9
99311.1
99309.7
99336.9
99417.2
99584.8
99901.6
100369
100974
99991.6
99994.8
100002
100007
100012
100012
100002
100001
100015
100027
100033
100026
100019
100030
100040
100039
100042
100031
100042
100070
100072
100065
100065
100070
100068
100070
100077
100070
100073
100087
100092
100094
100101
100101
100092
100099
100112
100114
100113
100114
100116
100118
100122
100124
100130
100136
100135
100138
100142
100142
100143
100144
100145
100145
100145
100144
100143
100141
100138
100134
100129
100123
100115
100106
100095
100082
100068
100053
100036
100017
99997.1
99975.5
99952.4
99928.1
99902.4
99875.5
99847.4
99818.2
99787.9
99756.5
99724.1
99690.7
99656.1
99620.5
99583.8
99546
99507.4
99468.2
99429.3
99391.8
99357.9
99330.8
99315.6
99319.5
99356.5
99452.7
99648.7
100008
100506
101098
99993.6
99998.6
100010
100008
100011
100012
100003
100003
100014
100026
100033
100028
100019
100027
100037
100039
100045
100028
100041
100075
100073
100066
100064
100068
100070
100071
100075
100068
100073
100089
100093
100096
100099
100099
100091
100095
100112
100116
100114
100115
100115
100119
100121
100123
100132
100135
100135
100139
100141
100142
100144
100144
100145
100145
100145
100145
100143
100142
100139
100135
100129
100123
100115
100106
100095
100082
100068
100053
100036
100017
99997.3
99975.7
99952.7
99928.4
99902.8
99875.9
99847.9
99818.7
99788.5
99757.1
99724.7
99691.1
99656.4
99620.6
99583.6
99545.5
99506.5
99466.9
99427.7
99390.2
99356.6
99330.2
99316
99322.5
99364.6
99468.6
99679.2
100059
100572
101157
99996.4
100001
100013
100010
100011
100011
100006
100005
100014
100024
100030
100031
100024
100024
100031
100041
100047
100029
100044
100075
100071
100066
100065
100066
100071
100072
100074
100071
100072
100086
100095
100098
100099
100098
100094
100093
100110
100119
100115
100115
100115
100118
100120
100124
100133
100135
100136
100140
100140
100142
100144
100144
100145
100145
100145
100145
100143
100141
100139
100135
100129
100123
100115
100106
100095
100082
100069
100053
100036
100018
99997.5
99975.9
99953
99928.7
99903.2
99876.4
99848.4
99819.3
99789
99757.6
99725.1
99691.5
99656.6
99620.6
99583.3
99544.8
99505.3
99465.2
99425.4
99387.4
99353.5
99326.7
99312
99318.1
99360
99463.5
99672.7
100051
100562
101147
99996.6
100003
100013
100009
100011
100012
100006
100005
100016
100023
100029
100032
100024
100024
100029
100040
100046
100036
100048
100071
100069
100066
100065
100064
100071
100074
100073
100073
100071
100084
100097
100098
100099
100097
100094
100093
100109
100119
100116
100115
100115
100116
100120
100125
100132
100136
100135
100140
100141
100142
100144
100144
100145
100145
100145
100144
100143
100141
100138
100134
100129
100123
100115
100106
100095
100082
100069
100053
100036
100018
99997.7
99976.2
99953.3
99929.1
99903.6
99876.8
99848.8
99819.7
99789.5
99758.1
99725.5
99691.7
99656.7
99620.4
99582.8
99543.9
99503.8
99463.1
99422.5
99383.5
99348.5
99320.6
99303.8
99306.6
99343.3
99437.5
99629.9
99984
100479
101071
99992
100001
100013
100008
100010
100011
100005
100003
100019
100024
100028
100033
100023
100027
100029
100035
100045
100044
100051
100065
100068
100065
100063
100063
100072
100076
100072
100073
100074
100082
100095
100099
100098
100097
100092
100095
100109
100118
100116
100114
100116
100114
100122
100126
100130
100138
100133
100139
100142
100141
100144
100144
100145
100145
100145
100144
100143
100141
100138
100134
100129
100123
100115
100105
100095
100082
100068
100053
100036
100018
99997.7
99976.2
99953.4
99929.2
99903.7
99877
99849.1
99820
99789.7
99758.3
99725.7
99691.9
99656.8
99620.3
99582.4
99543.1
99502.4
99460.8
99419.1
99378.8
99342
99312.1
99291.9
99288.9
99316.2
99393
99555.1
99864.4
100326
100932
99983.4
99996.9
100008
100009
100008
100011
100006
100001
100021
100024
100026
100033
100025
100028
100030
100032
100046
100049
100051
100063
100068
100065
100061
100063
100073
100077
100072
100074
100077
100080
100094
100099
100097
100096
100093
100098
100108
100116
100115
100111
100115
100115
100122
100127
100129
100138
100134
100138
100143
100141
100143
100144
100144
100145
100144
100144
100143
100140
100138
100134
100128
100122
100114
100105
100094
100082
100068
100053
100036
100017
99997.4
99976
99953.2
99929.1
99903.6
99877
99849.1
99820.1
99789.9
99758.5
99725.9
99692.1
99656.9
99620.3
99582.1
99542.4
99501.1
99458.7
99415.7
99373.6
99334.5
99301.7
99277.2
99266.9
99281.3
99335
99456
99701.2
100104
100722
99974.3
99994.3
100003
100009
100006
100010
100009
100001
100019
100024
100026
100033
100028
100027
100031
100035
100045
100049
100051
100061
100066
100064
100061
100064
100072
100076
100072
100075
100077
100078
100093
100100
100096
100095
100095
100100
100108
100115
100115
100110
100114
100117
100121
100129
100128
100135
100136
100137
100141
100141
100142
100143
100144
100144
100144
100143
100142
100140
100137
100133
100128
100121
100114
100104
100094
100081
100068
100052
100035
100017
99996.9
99975.5
99952.7
99928.6
99903.3
99876.7
99848.9
99819.9
99789.8
99758.5
99725.9
99692.1
99656.9
99620.2
99581.9
99541.8
99500
99456.6
99412.3
99368.2
99326.4
99289.9
99260.6
99242.7
99242.7
99270.5
99344.7
99510.3
99821
100430
99978.3
99993.3
100001
100007
100006
100009
100010
100006
100016
100022
100025
100032
100029
100027
100032
100038
100044
100049
100051
100059
100064
100063
100062
100065
100071
100076
100074
100076
100078
100080
100090
100098
100096
100094
100096
100101
100107
100114
100113
100110
100114
100118
100121
100129
100128
100132
100138
100137
100140
100141
100142
100143
100143
100144
100143
100143
100141
100139
100136
100132
100127
100121
100113
100104
100093
100081
100067
100051
100035
100016
99996.2
99974.8
99952.1
99928
99902.6
99876.1
99848.3
99819.4
99789.4
99758.1
99725.6
99691.9
99656.7
99619.9
99581.5
99541.2
99498.9
99454.7
99409
99362.9
99318.2
99278
99243.8
99218.6
99205.3
99208.1
99236
99314.2
99494.4
100045
99987.7
99994.2
100001
100005
100007
100009
100009
100009
100016
100021
100025
100030
100029
100029
100033
100038
100044
100048
100052
100058
100062
100063
100063
100066
100071
100075
100074
100076
100079
100082
100089
100096
100096
100095
100097
100102
100107
100112
100112
100112
100115
100119
100122
100127
100128
100132
100137
100137
100139
100140
100141
100142
100143
100143
100143
100142
100141
100139
100136
100132
100127
100120
100112
100103
100092
100080
100066
100051
100034
100015
99995.5
99974.2
99951.4
99927.3
99902
99875.5
99847.8
99818.9
99788.8
99757.6
99725.2
99691.4
99656.2
99619.4
99580.9
99540.4
99497.8
99452.9
99406
99358
99310.8
99266.9
99228.5
99197.5
99173.8
99156.1
99144.7
99140.7
99156.1
99553.7
99992.8
99995.7
100000
100004
100006
100008
100010
100011
100016
100021
100025
100028
100029
100030
100034
100039
100044
100048
100053
100057
100061
100063
100064
100067
100070
100073
100075
100077
100080
100083
100089
100094
100095
100096
100098
100102
100107
100111
100112
100113
100115
100119
100122
100126
100129
100132
100135
100136
100138
100140
100141
100142
100142
100142
100142
100141
100140
100138
100135
100131
100126
100119
100112
100103
100092
100080
100066
100050
100034
100015
99995.2
99973.8
99951.1
99927
99901.7
99875.2
99847.5
99818.6
99788.6
99757.3
99724.9
99691.1
99655.8
99619
99580.3
99539.6
99496.6
99451.1
99403.3
99353.8
99304.3
99257.7
99216.3
99181.5
99152
99121.1
99081.9
99015.2
98855
98926.3
99994.9
99996.7
100000
100004
100006
100008
100010
100012
100016
100021
100024
100028
100029
100031
100034
100039
100044
100048
100053
100057
100060
100062
100064
100067
100070
100073
100075
100077
100080
100084
100088
100093
100095
100096
100099
100102
100106
100110
100112
100113
100116
100119
100122
100126
100129
100132
100135
100136
100138
100139
100140
100141
100142
100142
100142
100141
100140
100138
100135
100131
100125
100119
100111
100102
100092
100079
100066
100050
100034
100015
99995.3
99974
99951.3
99927.4
99902.1
99875.6
99848
99819.1
99789.1
99757.9
99725.3
99691.5
99656.1
99619.1
99580.2
99539.1
99495.7
99449.6
99400.8
99349.9
99298.5
99249.6
99205.6
99168
99137.4
99104
99049.9
98946.3
98647.8
98082.8
99995.7
99997.2
100000
100004
100006
100008
100010
100012
100016
100021
100024
100027
100029
100031
100035
100039
100044
100048
100053
100057
100060
100062
100064
100067
100070
100073
100075
100077
100080
100084
100088
100092
100095
100097
100099
100103
100106
100110
100112
100114
100116
100120
100123
100127
100130
100133
100136
100138
100139
100141
100142
100143
100143
100143
100143
100142
100141
100139
100136
100132
100126
100120
100112
100103
100093
100080
100067
100051
100035
100016
99996.4
99975.1
99952.4
99928.5
99903.2
99876.8
99849.2
99820.4
99790.4
99759.1
99726.7
99692.8
99657.5
99620.5
99581.6
99540.5
99497
99450.8
99401.8
99350.7
99299.4
99251.1
99207.6
99170.8
99131.3
99090.1
99030.4
98915.7
98552
96953.6
100576
101788
102301
102592
102791
102940
103057
103152
103230
103295
103349
103394
103431
103462
103488
103508
103523
103534
103540
103540
100525
101502
102102
102478
102730
102910
103047
103154
103241
103311
103369
103417
103457
103489
103515
103535
103551
103561
103567
103567
100786
101521
102038
102414
102685
102884
103034
103152
103246
103322
103383
103434
103475
103509
103535
103556
103572
103582
103588
103588
101035
101632
102072
102414
102677
102879
103035
103159
103257
103336
103400
103453
103495
103530
103557
103578
103593
103603
103609
103608
101244
101750
102135
102446
102693
102890
103046
103171
103272
103353
103419
103472
103516
103550
103578
103599
103614
103623
103628
103627
101418
101859
102204
102489
102722
102911
103064
103188
103289
103371
103437
103491
103535
103570
103597
103618
103632
103641
103645
103644
101556
101951
102268
102533
102753
102935
103084
103206
103306
103388
103454
103509
103553
103588
103615
103635
103649
103657
103660
103658
101660
102022
102319
102571
102782
102957
103102
103222
103321
103403
103470
103524
103568
103603
103630
103650
103663
103670
103672
103669
101729
102071
102357
102600
102805
102976
103119
103238
103336
103417
103483
103537
103581
103616
103642
103661
103674
103680
103681
103677
101766
102099
102379
102618
102819
102989
103130
103247
103344
103424
103490
103544
103587
103622
103648
103667
103679
103685
103685
103680
101757
102090
102371
102610
102812
102981
103123
103241
103338
103419
103485
103539
103583
103617
103644
103663
103676
103682
103683
103678
101706
102050
102337
102581
102786
102959
103103
103222
103321
103403
103470
103525
103570
103605
103632
103652
103665
103672
103674
103671
101625
101990
102290
102543
102756
102933
103080
103202
103302
103385
103453
103508
103553
103589
103617
103637
103651
103659
103662
103660
101511
101909
102228
102496
102719
102903
103055
103179
103281
103365
103433
103489
103534
103570
103598
103619
103634
103643
103647
103645
101362
101807
102156
102444
102680
102872
103028
103155
103259
103343
103411
103467
103512
103549
103577
103599
103615
103624
103629
103628
101178
101689
102078
102393
102645
102846
103006
103134
103237
103321
103389
103444
103490
103526
103555
103577
103593
103604
103609
103608
100959
101562
102007
102355
102623
102830
102990
103117
103219
103301
103367
103422
103466
103502
103531
103553
103570
103581
103587
103586
100700
101442
101966
102349
102626
102830
102986
103107
103204
103283
103347
103400
103443
103479
103507
103529
103546
103557
103563
103563
100427
101417
102027
102411
102669
102855
102996
103107
103197
103271
103331
103381
103423
103457
103484
103506
103523
103534
103540
103540
100468
101701
102225
102524
102728
102882
103004
103102
103184
103251
103308
103355
103395
103427
103454
103475
103492
103503
103510
103510
103410
103408
103407
103406
103406
103405
103405
103404
103404
103404
103404
103404
103404
103405
103405
103406
103406
103407
103408
103410
103407
103405
103404
103404
103404
103404
103403
103403
103403
103403
103403
103403
103403
103403
103404
103404
103404
103404
103405
103407
103406
103404
103404
103404
103404
103404
103404
103404
103404
103404
103404
103404
103404
103404
103404
103404
103404
103404
103404
103406
103406
103405
103404
103404
103404
103404
103404
103404
103404
103404
103404
103404
103404
103404
103404
103404
103404
103404
103405
103406
103406
103404
103404
103404
103404
103404
103404
103404
103404
103404
103404
103404
103404
103404
103404
103404
103404
103404
103404
103406
103405
103403
103403
103403
103403
103403
103403
103403
103403
103403
103403
103403
103403
103403
103403
103403
103403
103403
103403
103405
103405
103403
103403
103402
103402
103402
103402
103402
103402
103403
103403
103403
103402
103402
103402
103402
103402
103403
103403
103405
103404
103402
103402
103402
103402
103402
103402
103402
103402
103402
103402
103402
103402
103402
103402
103402
103402
103402
103402
103404
103403
103401
103401
103401
103401
103401
103401
103401
103401
103401
103401
103401
103401
103401
103401
103401
103401
103401
103401
103403
103402
103400
103400
103400
103400
103401
103401
103401
103401
103401
103401
103401
103401
103401
103401
103400
103400
103400
103400
103402
103401
103399
103399
103399
103400
103400
103400
103400
103400
103401
103401
103400
103400
103400
103400
103400
103399
103399
103399
103401
103400
103398
103398
103398
103399
103399
103399
103400
103400
103400
103400
103400
103400
103399
103399
103399
103398
103398
103398
103400
103399
103397
103397
103397
103397
103397
103398
103398
103399
103399
103399
103399
103399
103398
103398
103397
103397
103397
103397
103399
103397
103396
103396
103396
103396
103396
103396
103395
103395
103395
103395
103396
103396
103396
103396
103396
103395
103395
103396
103397
103396
103394
103394
103394
103394
103394
103394
103393
103393
103393
103393
103393
103394
103394
103394
103394
103394
103394
103394
103396
103394
103393
103393
103393
103393
103393
103394
103395
103396
103396
103396
103396
103395
103394
103394
103393
103393
103393
103393
103394
103393
103391
103391
103392
103392
103393
103393
103393
103393
103393
103393
103393
103393
103392
103392
103392
103392
103391
103391
103393
103391
103389
103389
103389
103389
103389
103389
103388
103386
103385
103385
103385
103386
103388
103389
103389
103389
103389
103390
103391
103389
103387
103387
103387
103386
103386
103385
103385
103385
103386
103386
103387
103387
103387
103387
103387
103388
103388
103388
103389
103387
103386
103386
103386
103387
103387
103387
103387
103388
103388
103389
103389
103389
103389
103389
103388
103388
103387
103387
103388
103386
103385
103385
103385
103386
103387
103387
103387
103387
103387
103387
103387
103387
103387
103388
103387
103386
103386
103386
103387
103384
103383
103383
103383
103383
103383
103383
103384
103384
103384
103384
103384
103384
103384
103384
103384
103384
103384
103384
103385
103383
103382
103382
103383
103383
103383
103383
103384
103384
103385
103385
103386
103385
103385
103384
103383
103383
103383
103383
103383
103381
103381
103381
103382
103383
103384
103384
103384
103384
103384
103384
103384
103384
103384
103384
103383
103382
103382
103381
103382
103379
103378
103378
103378
103378
103379
103380
103382
103383
103384
103384
103384
103384
103383
103381
103380
103380
103379
103379
103379
103376
103376
103376
103376
103375
103376
103377
103378
103377
103377
103378
103380
103380
103379
103377
103376
103376
103376
103376
103376
103374
103374
103374
103374
103374
103373
103373
103371
103370
103368
103367
103365
103365
103367
103369
103371
103372
103372
103373
103373
103371
103371
103371
103371
103370
103370
103370
103370
103370
103369
103366
103364
103363
103364
103366
103368
103369
103370
103370
103370
103369
103369
103369
103369
103369
103368
103367
103367
103367
103367
103368
103368
103368
103368
103369
103368
103368
103368
103368
103369
103368
103368
103368
103368
103368
103367
103365
103364
103363
103364
103366
103367
103367
103366
103366
103366
103367
103367
103367
103367
103366
103366
103366
103366
103365
103365
103365
103365
103365
103364
103364
103364
103364
103364
103364
103365
103365
103366
103366
103366
103365
103365
103365
103365
103365
103364
103364
103364
103365
103364
103364
103364
103364
103365
103365
103365
103365
103365
103365
103365
103364
103364
103364
103364
103364
103365
103365
103364
103364
103365
103365
103364
103364
103364
103364
103363
103364
103364
103364
103364
103362
103362
103362
103362
103361
103361
103362
103363
103363
103364
103364
103363
103363
103364
103364
103364
103364
103363
103363
103363
103361
103361
103362
103362
103361
103362
103362
103363
103363
103364
103364
103365
103365
103364
103364
103363
103363
103362
103362
103362
103360
103360
103361
103362
103363
103364
103364
103364
103364
103365
103364
103364
103364
103363
103362
103362
103361
103361
103361
103361
103358
103358
103359
103359
103360
103361
103361
103361
103359
103359
103359
103360
103360
103361
103361
103361
103360
103359
103359
103359
103356
103355
103355
103355
103354
103353
103353
103353
103353
103354
103355
103356
103358
103358
103357
103356
103356
103357
103357
103357
103354
103353
103353
103353
103352
103351
103351
103352
103353
103355
103355
103355
103354
103353
103353
103353
103354
103354
103354
103354
103352
103352
103352
103352
103352
103352
103353
103354
103354
103353
103354
103353
103352
103352
103352
103352
103352
103352
103352
103352
103351
103351
103351
103351
103351
103351
103350
103350
103351
103351
103350
103349
103349
103349
103349
103349
103350
103350
103350
103351
103350
103350
103349
103349
103349
103349
103348
103346
103345
103346
103346
103346
103346
103346
103347
103348
103349
103349
103349
103349
103348
103348
103348
103348
103348
103348
103348
103347
103346
103344
103345
103346
103347
103348
103348
103348
103348
103348
103348
103348
103347
103347
103347
103347
103348
103348
103347
103347
103348
103348
103348
103348
103348
103348
103348
103348
103348
103347
103347
103347
103346
103346
103346
103346
103346
103346
103346
103346
103347
103348
103349
103348
103348
103348
103347
103347
103346
103346
103346
103346
103345
103345
103345
103345
103345
103345
103345
103346
103346
103346
103347
103347
103346
103345
103345
103345
103345
103345
103345
103345
103344
103344
103344
103344
103345
103345
103345
103345
103345
103344
103343
103343
103343
103343
103343
103344
103343
103343
103343
103343
103343
103343
103343
103343
103343
103344
103346
103347
103347
103346
103344
103342
103342
103342
103342
103342
103342
103342
103342
103342
103341
103341
103341
103342
103342
103343
103344
103345
103346
103345
103344
103343
103342
103342
103341
103341
103341
103340
103340
103340
103339
103339
103339
103339
103339
103339
103338
103337
103336
103336
103337
103339
103341
103341
103339
103339
103339
103339
103338
103338
103336
103336
103336
103336
103335
103334
103333
103332
103331
103333
103335
103335
103336
103335
103336
103336
103336
103336
103336
103336
103334
103334
103334
103334
103334
103333
103333
103333
103334
103334
103334
103333
103332
103332
103333
103333
103334
103334
103334
103335
103333
103333
103333
103333
103333
103334
103335
103334
103334
103333
103331
103331
103331
103331
103332
103332
103333
103333
103333
103333
103331
103331
103331
103331
103330
103331
103332
103333
103331
103330
103330
103330
103331
103332
103332
103331
103331
103331
103331
103331
103329
103329
103329
103329
103329
103328
103327
103327
103327
103328
103330
103331
103332
103331
103331
103331
103330
103330
103330
103330
103327
103327
103327
103327
103327
103326
103325
103326
103328
103329
103330
103331
103331
103330
103330
103329
103329
103328
103328
103328
103325
103325
103325
103325
103325
103326
103328
103328
103327
103326
103325
103324
103324
103324
103325
103325
103326
103326
103326
103326
103323
103324
103324
103324
103324
103323
103323
103324
103325
103324
103323
103322
103322
103323
103323
103323
103324
103324
103324
103324
103322
103322
103322
103322
103322
103321
103320
103321
103322
103322
103323
103323
103323
103323
103323
103323
103323
103323
103322
103322
103320
103320
103320
103320
103321
103322
103322
103322
103322
103323
103323
103322
103322
103322
103322
103321
103321
103321
103321
103321
103318
103318
103318
103318
103318
103319
103320
103321
103321
103321
103320
103320
103320
103320
103319
103319
103319
103319
103318
103318
103317
103317
103316
103316
103316
103315
103314
103313
103313
103312
103314
103315
103315
103316
103316
103316
103316
103316
103316
103316
103315
103315
103315
103315
103314
103313
103312
103311
103310
103310
103310
103310
103310
103311
103312
103313
103314
103314
103314
103314
103314
103314
103314
103314
103314
103314
103314
103313
103312
103311
103311
103310
103310
103310
103310
103311
103312
103313
103313
103313
103313
103313
103313
103313
103313
103312
103313
103313
103313
103312
103313
103313
103313
103313
103312
103312
103312
103312
103312
103312
103312
103312
103312
103312
103312
103312
103312
103312
103312
103313
103313
103312
103312
103311
103311
103311
103311
103311
103311
103311
103311
103311
103311
103311
103311
103311
103310
103310
103310
103310
103311
103311
103310
103311
103311
103311
103311
103310
103310
103310
103309
103309
103309
103310
103310
103310
103310
103311
103310
103310
103311
103311
103311
103310
103309
103309
103309
103309
103309
103309
103308
103308
103308
103309
103309
103310
103311
103311
103311
103310
103311
103311
103310
103310
103309
103309
103309
103308
103308
103308
103306
103306
103306
103306
103306
103306
103306
103307
103307
103308
103308
103308
103309
103310
103310
103309
103308
103307
103307
103307
103304
103304
103304
103304
103304
103304
103303
103303
103303
103303
103304
103305
103307
103307
103306
103306
103305
103305
103305
103305
103302
103302
103302
103302
103302
103302
103302
103302
103302
103301
103301
103300
103300
103300
103301
103302
103302
103302
103302
103302
103301
103301
103300
103300
103299
103299
103299
103300
103302
103302
103301
103300
103298
103297
103298
103298
103299
103300
103300
103300
103299
103299
103299
103300
103300
103300
103300
103299
103299
103300
103300
103300
103299
103298
103298
103297
103298
103298
103298
103298
103298
103298
103298
103298
103298
103298
103298
103298
103297
103297
103296
103295
103296
103297
103297
103297
103297
103296
103296
103296
103296
103296
103296
103296
103297
103298
103298
103299
103298
103298
103298
103298
103298
103297
103295
103295
103295
103295
103295
103295
103293
103294
103294
103294
103295
103296
103298
103298
103298
103298
103299
103298
103297
103295
103294
103294
103293
103293
103293
103293
103291
103291
103291
103290
103289
103288
103288
103288
103289
103290
103288
103288
103288
103290
103291
103291
103291
103291
103291
103291
103289
103288
103288
103287
103286
103284
103283
103283
103282
103282
103281
103282
103285
103287
103288
103289
103289
103290
103290
103290
103287
103287
103287
103287
103287
103287
103287
103286
103284
103284
103286
103287
103287
103287
103287
103288
103288
103289
103289
103289
103286
103286
103286
103286
103286
103286
103287
103287
103288
103289
103289
103288
103288
103288
103288
103288
103288
103288
103288
103288
103284
103284
103284
103285
103285
103286
103286
103287
103289
103290
103290
103289
103288
103288
103287
103288
103288
103288
103288
103288
103282
103282
103282
103283
103284
103284
103285
103286
103286
103286
103287
103286
103286
103286
103286
103287
103287
103287
103287
103287
103280
103280
103280
103280
103280
103281
103281
103281
103280
103279
103280
103281
103283
103285
103286
103286
103287
103287
103287
103287
103277
103277
103277
103278
103278
103278
103278
103278
103279
103280