/*--------------------------------*- C++ -*----------------------------------*\
| =========                 |                                                 |
| \\      /  F ield         | OpenFOAM: The Open Source CFD Toolbox           |
|  \\    /   O peration     | Version:  2.1.0                                 |
|   \\  /    A nd           | Web:      www.OpenFOAM.org                      |
|    \\/     M anipulation  |                                                 |
\*---------------------------------------------------------------------------*/
FoamFile
{
    version     2.0;
    format      ascii;
    class       surfaceScalarField;
    location    "0.04";
    object      phi;
}
// * * * * * * * * * * * * * * * * * * * * * * * * * * * * * * * * * * * * * //

dimensions      [0 3 -1 0 0 0 0];

internalField   nonuniform List<scalar> 
12460
(
-3.32436e-05
1.9512e-08
-3.32577e-05
1.41576e-08
-3.32674e-05
9.65114e-09
-3.32746e-05
7.19176e-09
-3.32795e-05
4.8885e-09
-3.32806e-05
1.16081e-09
-3.32795e-05
-1.16455e-09
-3.32782e-05
-1.27001e-09
-3.32752e-05
-3.04583e-09
-3.327e-05
-5.12139e-09
-3.3265e-05
-5.03127e-09
-3.32616e-05
-3.40189e-09
-3.32612e-05
-4.28714e-10
-3.32642e-05
3.04616e-09
-3.32693e-05
5.10759e-09
-3.3275e-05
5.6536e-09
-3.32802e-05
5.18514e-09
-3.32852e-05
5.01734e-09
-3.329e-05
4.81126e-09
-3.32944e-05
4.35867e-09
-3.32982e-05
3.87174e-09
-3.32998e-05
1.53063e-09
-3.32977e-05
-2.06492e-09
-3.32945e-05
-3.19541e-09
-3.32922e-05
-2.26416e-09
-3.32905e-05
-1.74464e-09
-3.32866e-05
-3.86894e-09
-3.32809e-05
-5.67347e-09
-3.32755e-05
-5.48915e-09
-3.32691e-05
-6.32523e-09
-3.32634e-05
-5.69366e-09
-3.32592e-05
-4.23001e-09
-3.3255e-05
-4.1748e-09
-3.325e-05
-5.03397e-09
-3.3246e-05
-3.96582e-09
-3.32445e-05
-1.48799e-09
-3.32426e-05
-1.9273e-09
-3.32407e-05
-1.93993e-09
-3.3239e-05
-1.71517e-09
-3.32357e-05
-3.29221e-09
-3.32276e-05
-8.07313e-09
-3.32139e-05
-1.36911e-08
-3.31961e-05
-1.78402e-08
-3.31727e-05
-2.337e-08
-3.31403e-05
-3.23946e-08
-3.30985e-05
-4.17602e-08
-3.30471e-05
-5.14678e-08
-3.29784e-05
-6.86757e-08
-3.28916e-05
-8.67672e-08
-3.27881e-05
-1.03573e-07
-3.26643e-05
-1.23719e-07
-3.25178e-05
-1.46513e-07
-3.23454e-05
-1.72396e-07
-3.21436e-05
-2.01786e-07
-3.19089e-05
-2.34743e-07
-3.16376e-05
-2.71272e-07
-3.13264e-05
-3.11244e-07
-3.0972e-05
-3.54404e-07
-3.05717e-05
-4.00258e-07
-3.01238e-05
-4.47891e-07
-2.96277e-05
-4.96153e-07
-2.90837e-05
-5.43996e-07
-2.84931e-05
-5.9058e-07
-2.78579e-05
-6.35231e-07
-2.71805e-05
-6.77336e-07
-2.64639e-05
-7.16611e-07
-2.57111e-05
-7.52837e-07
-2.49253e-05
-7.85741e-07
-2.41103e-05
-8.15047e-07
-2.32697e-05
-8.40611e-07
-2.24072e-05
-8.62484e-07
-2.15263e-05
-8.80866e-07
-2.06303e-05
-8.96003e-07
-1.97222e-05
-9.08126e-07
-1.88048e-05
-9.17456e-07
-1.78804e-05
-9.2435e-07
-1.6951e-05
-9.29406e-07
-1.60177e-05
-9.33293e-07
-1.50812e-05
-9.36529e-07
-1.41417e-05
-9.39503e-07
-1.31989e-05
-9.42787e-07
-1.22517e-05
-9.47204e-07
-1.12979e-05
-9.5382e-07
-1.03341e-05
-9.63783e-07
-9.35614e-06
-9.77937e-07
-8.35914e-06
-9.96999e-07
-7.3377e-06
-1.02144e-06
-6.28757e-06
-1.05013e-06
-5.20812e-06
-1.07945e-06
-4.10649e-06
-1.10163e-06
-3.00776e-06
-1.09873e-06
-1.97317e-06
-1.03459e-06
-1.11829e-06
-8.5488e-07
-5.77629e-07
-5.40657e-07
-3.91219e-07
-1.86409e-07
-6.11689e-07
2.20469e-07
-1.48043e-06
8.6874e-07
-3.68338e-06
2.20296e-06
-8.93944e-06
5.25606e-06
1.45314e-05
-2.34708e-05
-3.89262e-05
4.18375e-08
-3.89411e-05
2.90349e-08
-3.89504e-05
1.89918e-08
-3.89573e-05
1.40981e-08
-3.89622e-05
9.81973e-09
-3.89626e-05
1.49568e-09
-3.89604e-05
-3.30852e-09
-3.89588e-05
-2.90371e-09
-3.89557e-05
-6.09381e-09
-3.8951e-05
-9.86696e-09
-3.89471e-05
-8.95141e-09
-3.89449e-05
-5.62358e-09
-3.89452e-05
-1.04142e-10
-3.89491e-05
6.91843e-09
-3.89548e-05
1.08601e-08
-3.89607e-05
1.15194e-08
-3.89657e-05
1.02458e-08
-3.89705e-05
9.77792e-09
-3.89749e-05
9.22433e-09
-3.89786e-05
8.01767e-09
-3.8982e-05
7.28692e-09
-3.89832e-05
2.71773e-09
-3.89798e-05
-5.3801e-09
-3.89749e-05
-8.18084e-09
-3.89714e-05
-5.77509e-09
-3.89688e-05
-4.32822e-09
-3.89635e-05
-9.15683e-09
-3.89565e-05
-1.26588e-08
-3.89513e-05
-1.06838e-08
-3.89449e-05
-1.27213e-08
-3.89393e-05
-1.13321e-08
-3.89354e-05
-8.06175e-09
-3.89316e-05
-8.02036e-09
-3.89262e-05
-1.03978e-08
-3.8921e-05
-9.18095e-09
-3.89179e-05
-4.63768e-09
-3.8912e-05
-7.75072e-09
-3.89043e-05
-9.6455e-09
-3.88952e-05
-1.08739e-08
-3.88815e-05
-1.6984e-08
-3.88577e-05
-3.18228e-08
-3.88233e-05
-4.81511e-08
-3.87801e-05
-6.10043e-08
-3.87263e-05
-7.71731e-08
-3.86565e-05
-1.02153e-07
-3.85703e-05
-1.28012e-07
-3.84693e-05
-1.52502e-07
-3.83428e-05
-1.95102e-07
-3.81912e-05
-2.38367e-07
-3.80182e-05
-2.76654e-07
-3.78196e-05
-3.22308e-07
-3.75935e-05
-3.72596e-07
-3.73376e-05
-4.28271e-07
-3.70499e-05
-4.89472e-07
-3.67288e-05
-5.55891e-07
-3.63729e-05
-6.27165e-07
-3.59814e-05
-7.02705e-07
-3.55542e-05
-7.81628e-07
-3.50917e-05
-8.62763e-07
-3.45947e-05
-9.4485e-07
-3.40644e-05
-1.02647e-06
-3.35024e-05
-1.10605e-06
-3.29109e-05
-1.18203e-06
-3.2293e-05
-1.25313e-06
-3.16519e-05
-1.31847e-06
-3.09909e-05
-1.37762e-06
-3.03133e-05
-1.43038e-06
-2.96224e-05
-1.47668e-06
-2.8921e-05
-1.51645e-06
-2.8212e-05
-1.54964e-06
-2.74981e-05
-1.57637e-06
-2.6782e-05
-1.59693e-06
-2.60663e-05
-1.61175e-06
-2.5353e-05
-1.62136e-06
-2.46441e-05
-1.62639e-06
-2.39409e-05
-1.62755e-06
-2.32446e-05
-1.6257e-06
-2.2556e-05
-1.62188e-06
-2.18754e-05
-1.61711e-06
-2.12026e-05
-1.61232e-06
-2.05368e-05
-1.6086e-06
-1.98768e-05
-1.60719e-06
-1.92209e-05
-1.60975e-06
-1.85666e-05
-1.6181e-06
-1.79112e-05
-1.63334e-06
-1.72521e-05
-1.65604e-06
-1.65869e-05
-1.68671e-06
-1.59133e-05
-1.72368e-06
-1.52319e-05
-1.76089e-06
-1.4548e-05
-1.78553e-06
-1.38739e-05
-1.77278e-06
-1.32294e-05
-1.6791e-06
-1.26434e-05
-1.44092e-06
-1.2194e-05
-9.9001e-07
-1.2084e-05
-2.96444e-07
-1.25151e-05
6.5159e-07
-1.37557e-05
2.10928e-06
-1.62591e-05
4.70645e-06
-2.09978e-05
9.9947e-06
2.48606e-05
-3.1327e-05
-3.95315e-05
7.04392e-08
-3.95435e-05
4.1114e-08
-3.95491e-05
2.45746e-08
-3.95533e-05
1.83083e-08
-3.95572e-05
1.37354e-08
-3.95555e-05
-2.97998e-10
-3.95515e-05
-7.29453e-09
-3.95503e-05
-4.11446e-09
-3.95474e-05
-8.96963e-09
-3.95425e-05
-1.47917e-08
-3.95388e-05
-1.26499e-08
-3.95366e-05
-7.74566e-09
-3.95371e-05
3.3313e-10
-3.95424e-05
1.2203e-08
-3.95494e-05
1.79281e-08
-3.95557e-05
1.78314e-08
-3.95607e-05
1.52433e-08
-3.95649e-05
1.39462e-08
-3.95683e-05
1.26683e-08
-3.95706e-05
1.02419e-08
-3.95729e-05
9.66421e-09
-3.95743e-05
4.06306e-09
-3.95692e-05
-1.04609e-08
-3.95621e-05
-1.52895e-08
-3.95581e-05
-9.7904e-09
-3.95564e-05
-5.97594e-09
-3.95507e-05
-1.48711e-08
-3.95426e-05
-2.0826e-08
-3.95393e-05
-1.39593e-08
-3.95319e-05
-2.01526e-08
-3.95258e-05
-1.73711e-08
-3.95231e-05
-1.07554e-08
-3.95206e-05
-1.05223e-08
-3.95157e-05
-1.53155e-08
-3.95099e-05
-1.49533e-08
-3.95096e-05
-4.98757e-09
-3.95051e-05
-1.2228e-08
-3.94987e-05
-1.6012e-08
-3.94933e-05
-1.63385e-08
-3.94856e-05
-2.46997e-08
-3.94677e-05
-4.96298e-08
-3.94392e-05
-7.66966e-08
-3.94068e-05
-9.33709e-08
-3.93673e-05
-1.16712e-07
-3.93146e-05
-1.54866e-07
-3.92496e-05
-1.92949e-07
-3.91764e-05
-2.25797e-07
-3.90822e-05
-2.89262e-07
-3.89677e-05
-3.52907e-07
-3.88392e-05
-4.05058e-07
-3.8694e-05
-4.67518e-07
-3.85307e-05
-5.3596e-07
-3.83471e-05
-6.11804e-07
-3.81417e-05
-6.9494e-07
-3.7913e-05
-7.8454e-07
-3.76604e-05
-8.79826e-07
-3.73833e-05
-9.79759e-07
-3.7082e-05
-1.08296e-06
-3.67571e-05
-1.18763e-06
-3.641e-05
-1.29199e-06
-3.60423e-05
-1.39416e-06
-3.5656e-05
-1.49229e-06
-3.52536e-05
-1.58445e-06
-3.48377e-05
-1.66904e-06
-3.4411e-05
-1.7452e-06
-3.3976e-05
-1.81256e-06
-3.35354e-05
-1.871e-06
-3.30915e-05
-1.92059e-06
-3.26465e-05
-1.96145e-06
-3.22024e-05
-1.99373e-06
-3.17612e-05
-2.0176e-06
-3.13247e-05
-2.03345e-06
-3.08946e-05
-2.04177e-06
-3.04728e-05
-2.04318e-06
-3.00608e-05
-2.03838e-06
-2.96602e-05
-2.02821e-06
-2.92723e-05
-2.01358e-06
-2.88986e-05
-1.99556e-06
-2.85405e-05
-1.97522e-06
-2.81991e-05
-1.95374e-06
-2.78753e-05
-1.93242e-06
-2.75698e-05
-1.91262e-06
-2.72835e-05
-1.8961e-06
-2.70166e-05
-1.88501e-06
-2.6769e-05
-1.88088e-06
-2.65405e-05
-1.88457e-06
-2.63307e-05
-1.89649e-06
-2.61402e-05
-1.91419e-06
-2.59709e-05
-1.93021e-06
-2.5826e-05
-1.93043e-06
-2.57102e-05
-1.88861e-06
-2.56284e-05
-1.76085e-06
-2.55852e-05
-1.48416e-06
-2.56032e-05
-9.71962e-07
-2.57396e-05
-1.60075e-07
-2.61455e-05
1.05746e-06
-2.70299e-05
2.99372e-06
-2.87596e-05
6.43611e-06
-3.20078e-05
1.32429e-05
2.91009e-05
-3.6248e-05
-3.96426e-05
1.03283e-07
-3.96489e-05
4.73829e-08
-3.96543e-05
2.9931e-08
-3.96542e-05
1.82743e-08
-3.96564e-05
1.58842e-08
-3.96558e-05
-9.13848e-10
-3.96485e-05
-1.45419e-08
-3.96466e-05
-6.03451e-09
-3.96453e-05
-1.02241e-08
-3.96409e-05
-1.92532e-08
-3.96365e-05
-1.70467e-08
-3.96366e-05
-7.64892e-09
-3.96368e-05
5.75795e-10
-3.96408e-05
1.62154e-08
-3.96483e-05
2.54138e-08
-3.96559e-05
2.54123e-08
-3.96601e-05
1.94694e-08
-3.96619e-05
1.56728e-08
-3.96663e-05
1.7072e-08
-3.96653e-05
9.28065e-09
-3.96677e-05
1.2083e-08
-3.96728e-05
9.18253e-09
-3.96719e-05
-1.14054e-08
-3.9662e-05
-2.51875e-08
-3.96576e-05
-1.42363e-08
-3.96555e-05
-8.0044e-09
-3.965e-05
-2.03895e-08
-3.96435e-05
-2.73165e-08
-3.9639e-05
-1.8476e-08
-3.96302e-05
-2.89489e-08
-3.96281e-05
-1.94835e-08
-3.96255e-05
-1.33234e-08
-3.96208e-05
-1.52652e-08
-3.96159e-05
-2.02382e-08
-3.96095e-05
-2.13492e-08
-3.96113e-05
-3.18992e-09
-3.96059e-05
-1.75849e-08
-3.96021e-05
-1.98414e-08
-3.96006e-05
-1.78262e-08
-3.96001e-05
-2.5197e-08
-3.95879e-05
-6.18429e-08
-3.95688e-05
-9.57811e-08
-3.95563e-05
-1.05866e-07
-3.95341e-05
-1.3889e-07
-3.95112e-05
-1.77798e-07
-3.94864e-05
-2.17761e-07
-3.94477e-05
-2.6444e-07
-3.94067e-05
-3.30258e-07
-3.93555e-05
-4.04153e-07
-3.92903e-05
-4.7024e-07
-3.92171e-05
-5.40765e-07
-3.91335e-05
-6.19483e-07
-3.90392e-05
-7.06134e-07
-3.89335e-05
-8.00644e-07
-3.88159e-05
-9.02129e-07
-3.86862e-05
-1.00957e-06
-3.85443e-05
-1.12168e-06
-3.83904e-05
-1.23681e-06
-3.82253e-05
-1.35272e-06
-3.80502e-05
-1.46706e-06
-3.78668e-05
-1.57756e-06
-3.7677e-05
-1.68215e-06
-3.74827e-05
-1.77871e-06
-3.72862e-05
-1.86553e-06
-3.70894e-05
-1.94201e-06
-3.68941e-05
-2.0079e-06
-3.6702e-05
-2.06305e-06
-3.65151e-05
-2.10747e-06
-3.63353e-05
-2.14126e-06
-3.61644e-05
-2.16467e-06
-3.60038e-05
-2.17823e-06
-3.58545e-05
-2.18274e-06
-3.57172e-05
-2.17907e-06
-3.55925e-05
-2.16791e-06
-3.5481e-05
-2.14983e-06
-3.53837e-05
-2.12551e-06
-3.53014e-05
-2.09591e-06
-3.52348e-05
-2.06214e-06
-3.51847e-05
-2.02531e-06
-3.51519e-05
-1.98657e-06
-3.51369e-05
-1.94737e-06
-3.51402e-05
-1.90932e-06
-3.51621e-05
-1.87424e-06
-3.52028e-05
-1.84432e-06
-3.52619e-05
-1.82177e-06
-3.53383e-05
-1.80818e-06
-3.5431e-05
-1.80373e-06
-3.55396e-05
-1.80556e-06
-3.56634e-05
-1.80649e-06
-3.58013e-05
-1.79254e-06
-3.5952e-05
-1.73786e-06
-3.61117e-05
-1.60116e-06
-3.6273e-05
-1.32281e-06
-3.64291e-05
-8.15922e-07
-3.65795e-05
-9.6735e-09
-3.68376e-05
1.3156e-06
-3.73117e-05
3.46777e-06
-3.81825e-05
7.30694e-06
-3.96177e-05
1.46781e-05
2.90176e-05
-3.95344e-05
-3.9649e-05
9.1514e-08
-3.96471e-05
4.54638e-08
-3.96535e-05
3.63658e-08
-3.96535e-05
1.82446e-08
-3.96487e-05
1.11179e-08
-3.96474e-05
-2.18839e-09
-3.96431e-05
-1.88882e-08
-3.96397e-05
-9.46152e-09
-3.96337e-05
-1.62292e-08
-3.96367e-05
-1.62356e-08
-3.96327e-05
-2.10554e-08
-3.96339e-05
-6.45983e-09
-3.96391e-05
5.86373e-09
-3.96333e-05
1.03493e-08
-3.96369e-05
2.90058e-08
-3.96488e-05
3.73486e-08
-3.96486e-05
1.92536e-08
-3.96535e-05
2.05415e-08
-3.96586e-05
2.21792e-08
-3.96562e-05
6.88589e-09
-3.96578e-05
1.36628e-08
-3.96644e-05
1.58531e-08
-3.96756e-05
-2.16812e-10
-3.9666e-05
-3.47686e-08
-3.96518e-05
-2.85123e-08
-3.96452e-05
-1.45597e-08
-3.964e-05
-2.557e-08
-3.96365e-05
-3.08346e-08
-3.96309e-05
-2.41203e-08
-3.96275e-05
-3.22697e-08
-3.9627e-05
-2.00293e-08
-3.96188e-05
-2.15291e-08
-3.96107e-05
-2.33134e-08
-3.96073e-05
-2.36365e-08
-3.9608e-05
-2.06963e-08
-3.96054e-05
-5.78087e-09
-3.9605e-05
-1.7987e-08
-3.96127e-05
-1.21094e-08
-3.96131e-05
-1.74393e-08
-3.96052e-05
-3.30636e-08
-3.96012e-05
-6.5908e-08
-3.96086e-05
-8.8367e-08
-3.96116e-05
-1.02862e-07
-3.96019e-05
-1.48551e-07
-3.96074e-05
-1.72297e-07
-3.96147e-05
-2.1054e-07
-3.96041e-05
-2.74985e-07
-3.96109e-05
-3.23493e-07
-3.9624e-05
-3.91054e-07
-3.96241e-05
-4.70142e-07
-3.96229e-05
-5.41964e-07
-3.9619e-05
-6.23373e-07
-3.96126e-05
-7.12524e-07
-3.96041e-05
-8.09095e-07
-3.95939e-05
-9.12406e-07
-3.95822e-05
-1.02129e-06
-3.95694e-05
-1.13441e-06
-3.95562e-05
-1.25008e-06
-3.9543e-05
-1.36584e-06
-3.95311e-05
-1.47902e-06
-3.95214e-05
-1.58719e-06
-3.95157e-05
-1.68792e-06
-3.95151e-05
-1.77924e-06
-3.95211e-05
-1.85961e-06
-3.95351e-05
-1.92796e-06
-3.95591e-05
-1.98389e-06
-3.95946e-05
-2.02759e-06
-3.96424e-05
-2.05962e-06
-3.97031e-05
-2.08062e-06
-3.97765e-05
-2.09121e-06
-3.98627e-05
-2.09208e-06
-3.99614e-05
-2.08403e-06
-4.00725e-05
-2.06792e-06
-4.01959e-05
-2.0445e-06
-4.03314e-05
-2.01436e-06
-4.04788e-05
-1.97818e-06
-4.06378e-05
-1.93683e-06
-4.08086e-05
-1.89134e-06
-4.0991e-05
-1.84295e-06
-4.11846e-05
-1.79298e-06
-4.13891e-05
-1.74287e-06
-4.1604e-05
-1.69438e-06
-4.18285e-05
-1.64973e-06
-4.20617e-05
-1.61113e-06
-4.23029e-05
-1.58057e-06
-4.25512e-05
-1.55989e-06
-4.28054e-05
-1.54954e-06
-4.30641e-05
-1.54691e-06
-4.33254e-05
-1.54517e-06
-4.3587e-05
-1.53095e-06
-4.38441e-05
-1.48072e-06
-4.40872e-05
-1.35809e-06
-4.43003e-05
-1.10969e-06
-4.44561e-05
-6.60092e-07
-4.45493e-05
8.35433e-08
-4.46031e-05
1.3694e-06
-4.46505e-05
3.51517e-06
-4.46926e-05
7.34902e-06
-4.44171e-05
1.44025e-05
2.62176e-05
-4.16171e-05
-3.96232e-05
6.18795e-08
-3.96255e-05
4.77875e-08
-3.96239e-05
3.47688e-08
-3.96294e-05
2.37527e-08
-3.96221e-05
3.80936e-09
-3.96128e-05
-1.14879e-08
-3.9616e-05
-1.57026e-08
-3.96095e-05
-1.59416e-08
-3.95975e-05
-2.82733e-08
-3.96052e-05
-8.53389e-09
-3.96063e-05
-1.98773e-08
-3.96003e-05
-1.24812e-08
-3.96066e-05
1.2119e-08
-3.9599e-05
2.77103e-09
-3.9602e-05
3.19963e-08
-3.96065e-05
4.18879e-08
-3.96085e-05
2.12657e-08
-3.96232e-05
3.51683e-08
-3.96245e-05
2.35446e-08
-3.96243e-05
6.6517e-09
-3.96206e-05
9.92842e-09
-3.96265e-05
2.17765e-08
-3.96357e-05
9.02104e-09
-3.96343e-05
-3.62196e-08
-3.96177e-05
-4.50489e-08
-3.96076e-05
-2.46785e-08
-3.96006e-05
-3.25386e-08
-3.96038e-05
-2.76456e-08
-3.96014e-05
-2.66031e-08
-3.96046e-05
-2.90394e-08
-3.95978e-05
-2.67737e-08
-3.959e-05
-2.93711e-08
-3.95884e-05
-2.49246e-08
-3.95888e-05
-2.32678e-08
-3.95936e-05
-1.5833e-08
-3.95813e-05
-1.81184e-08
-3.96003e-05
1.07727e-09
-3.96081e-05
-4.32504e-09
-3.96011e-05
-2.45104e-08
-3.9591e-05
-4.31423e-08
-3.96117e-05
-4.51924e-08
-3.96414e-05
-5.86099e-08
-3.96444e-05
-9.99027e-08
-3.96577e-05
-1.35272e-07
-3.9675e-05
-1.54981e-07
-3.96917e-05
-1.93808e-07
-3.97184e-05
-2.48327e-07
-3.97577e-05
-2.84183e-07
-3.98101e-05
-3.38673e-07
-3.98664e-05
-4.13823e-07
-3.99243e-05
-4.84101e-07
-3.99866e-05
-5.60992e-07
-4.00551e-05
-6.44037e-07
-4.01305e-05
-7.33742e-07
-4.02136e-05
-8.29309e-07
-4.03053e-05
-9.29616e-07
-4.04062e-05
-1.03346e-06
-4.05169e-05
-1.13943e-06
-4.06374e-05
-1.24529e-06
-4.07685e-05
-1.34795e-06
-4.0911e-05
-1.44465e-06
-4.10661e-05
-1.5328e-06
-4.12349e-05
-1.6105e-06
-4.14178e-05
-1.67664e-06
-4.16154e-05
-1.73037e-06
-4.18278e-05
-1.77149e-06
-4.20548e-05
-1.8006e-06
-4.22958e-05
-1.81865e-06
-4.25499e-05
-1.82655e-06
-4.2816e-05
-1.82509e-06
-4.3093e-05
-1.81505e-06
-4.33798e-05
-1.79723e-06
-4.36753e-05
-1.77247e-06
-4.39783e-05
-1.74145e-06
-4.4288e-05
-1.7047e-06
-4.46033e-05
-1.66285e-06
-4.49233e-05
-1.61678e-06
-4.52472e-05
-1.56744e-06
-4.55743e-05
-1.51588e-06
-4.59039e-05
-1.46337e-06
-4.62354e-05
-1.41137e-06
-4.65681e-05
-1.36173e-06
-4.69011e-05
-1.31671e-06
-4.72337e-05
-1.27852e-06
-4.75653e-05
-1.24901e-06
-4.78952e-05
-1.22994e-06
-4.82229e-05
-1.22189e-06
-4.8547e-05
-1.22272e-06
-4.88657e-05
-1.22651e-06
-4.91751e-05
-1.22152e-06
-4.94684e-05
-1.1875e-06
-4.97327e-05
-1.09377e-06
-4.99453e-05
-8.97084e-07
-5.00693e-05
-5.36114e-07
-5.00818e-05
9.60353e-08
-4.99466e-05
1.23428e-06
-4.96046e-05
3.1731e-06
-4.88972e-05
6.64162e-06
-4.72416e-05
1.27469e-05
2.1796e-05
-4.282e-05
-3.95894e-05
7.69004e-08
-3.95985e-05
5.68997e-08
-3.95863e-05
2.2614e-08
-3.95922e-05
2.96321e-08
-3.95953e-05
6.86338e-09
-3.95842e-05
-2.25087e-08
-3.95878e-05
-1.21726e-08
-3.95768e-05
-2.68969e-08
-3.95717e-05
-3.33355e-08
-3.95621e-05
-1.81525e-08
-3.95657e-05
-1.63424e-08
-3.9561e-05
-1.71759e-08
-3.95698e-05
2.09656e-08
-3.95891e-05
2.20939e-08
-3.95804e-05
2.32485e-08
-3.95655e-05
2.69867e-08
-3.95705e-05
2.62939e-08
-3.95805e-05
4.51616e-08
-3.95884e-05
3.14072e-08
-3.95847e-05
3.02854e-09
-3.95848e-05
9.93591e-09
-3.95894e-05
2.64589e-08
-3.95766e-05
-3.82007e-09
-3.95783e-05
-3.45306e-08
-3.95954e-05
-2.7981e-08
-3.95783e-05
-4.17173e-08
-3.95679e-05
-4.29788e-08
-3.95793e-05
-1.61915e-08
-3.95676e-05
-3.82927e-08
-3.95712e-05
-2.55e-08
-3.95711e-05
-2.6831e-08
-3.95707e-05
-2.97707e-08
-3.95746e-05
-2.10945e-08
-3.9573e-05
-2.48593e-08
-3.95696e-05
-1.92137e-08
-3.958e-05
-7.698e-09
-3.95918e-05
1.28424e-08
-3.95862e-05
-9.8476e-09
-3.95956e-05
-1.51979e-08
-3.96171e-05
-2.15794e-08
-3.96366e-05
-2.57546e-08
-3.96548e-05
-4.03755e-08
-3.96731e-05
-8.15837e-08
-3.97069e-05
-1.01491e-07
-3.97359e-05
-1.26003e-07
-3.97675e-05
-1.62146e-07
-3.98217e-05
-1.94206e-07
-3.98812e-05
-2.24657e-07
-3.9953e-05
-2.66827e-07
-4.00458e-05
-3.21036e-07
-4.01448e-05
-3.85154e-07
-4.02551e-05
-4.50638e-07
-4.03795e-05
-5.19633e-07
-4.05191e-05
-5.94135e-07
-4.06752e-05
-6.73219e-07
-4.08489e-05
-7.55917e-07
-4.1041e-05
-8.41325e-07
-4.12514e-05
-9.29048e-07
-4.148e-05
-1.01674e-06
-4.17276e-05
-1.10034e-06
-4.19952e-05
-1.17704e-06
-4.22828e-05
-1.24524e-06
-4.25897e-05
-1.3036e-06
-4.2915e-05
-1.35133e-06
-4.32572e-05
-1.38816e-06
-4.36144e-05
-1.41429e-06
-4.39846e-05
-1.43035e-06
-4.43662e-05
-1.4371e-06
-4.47575e-05
-1.43527e-06
-4.5157e-05
-1.42558e-06
-4.55631e-05
-1.40892e-06
-4.59741e-05
-1.38622e-06
-4.63883e-05
-1.35831e-06
-4.68039e-05
-1.32579e-06
-4.72196e-05
-1.28905e-06
-4.76339e-05
-1.24856e-06
-4.80457e-05
-1.20497e-06
-4.8454e-05
-1.1591e-06
-4.88581e-05
-1.11186e-06
-4.92571e-05
-1.06427e-06
-4.96509e-05
-1.01766e-06
-5.00389e-05
-9.73718e-07
-5.04211e-05
-9.34493e-07
-5.07976e-05
-9.02031e-07
-5.11683e-05
-8.7826e-07
-5.15333e-05
-8.6496e-07
-5.18923e-05
-8.62945e-07
-5.22441e-05
-8.70885e-07
-5.25863e-05
-8.84269e-07
-5.29142e-05
-8.9366e-07
-5.32188e-05
-8.82922e-07
-5.34849e-05
-8.27692e-07
-5.36856e-05
-6.96315e-07
-5.37786e-05
-4.43177e-07
-5.37138e-05
3.12279e-08
-5.34179e-05
9.3846e-07
-5.27461e-05
2.5013e-06
-5.14136e-05
5.30905e-06
-4.87433e-05
1.00767e-05
1.64752e-05
-4.34225e-05
-3.95741e-05
1.43864e-07
-3.95637e-05
4.64482e-08
-3.95593e-05
1.82004e-08
-3.95603e-05
3.06386e-08
-3.95555e-05
2.04938e-09
-3.95593e-05
-1.86917e-08
-3.95602e-05
-1.12326e-08
-3.95487e-05
-3.83865e-08
-3.95514e-05
-3.06303e-08
-3.95409e-05
-2.86718e-08
-3.95452e-05
-1.21006e-08
-3.95567e-05
-5.67746e-09
-3.95658e-05
3.01132e-08
-3.95782e-05
3.44571e-08
-3.95586e-05
3.67107e-09
-3.95529e-05
2.12851e-08
-3.95557e-05
2.90566e-08
-3.95577e-05
4.71509e-08
-3.9571e-05
4.47339e-08
-3.9566e-05
-1.9553e-09
-3.95637e-05
7.68868e-09
-3.95481e-05
1.08346e-08
-3.95372e-05
-1.47436e-08
-3.95556e-05
-1.61171e-08
-3.95689e-05
-1.47225e-08
-3.95521e-05
-5.84542e-08
-3.95565e-05
-3.86263e-08
-3.95629e-05
-9.76714e-09
-3.9568e-05
-3.3245e-08
-3.9567e-05
-2.64426e-08
-3.95541e-05
-3.97736e-08
-3.95479e-05
-3.59236e-08
-3.95584e-05
-1.05921e-08
-3.95676e-05
-1.56492e-08
-3.95732e-05
-1.36385e-08
-3.95941e-05
1.32333e-08
-3.95784e-05
-2.91149e-09
-3.95896e-05
1.38433e-09
-3.96221e-05
1.73203e-08
-3.96354e-05
-8.36411e-09
-3.96534e-05
-7.75399e-09
-3.96736e-05
-2.01175e-08
-3.97046e-05
-5.06386e-08
-3.9744e-05
-6.20199e-08
-3.9787e-05
-8.3054e-08
-3.98409e-05
-1.08235e-07
-3.99069e-05
-1.28206e-07
-3.99764e-05
-1.55106e-07
-4.00649e-05
-1.78352e-07
-4.01737e-05
-2.12217e-07
-4.02977e-05
-2.61203e-07
-4.04402e-05
-3.08113e-07
-4.06024e-05
-3.57445e-07
-4.07865e-05
-4.10077e-07
-4.09941e-05
-4.6562e-07
-4.12265e-05
-5.23504e-07
-4.14845e-05
-5.83326e-07
-4.17677e-05
-6.45814e-07
-4.20768e-05
-7.07604e-07
-4.24125e-05
-7.64632e-07
-4.27738e-05
-8.15775e-07
-4.31588e-05
-8.603e-07
-4.3565e-05
-8.97396e-07
-4.39897e-05
-9.26553e-07
-4.44302e-05
-9.47663e-07
-4.48836e-05
-9.60939e-07
-4.53471e-05
-9.66856e-07
-4.58182e-05
-9.65974e-07
-4.62946e-05
-9.58823e-07
-4.67742e-05
-9.46004e-07
-4.72549e-05
-9.28255e-07
-4.77348e-05
-9.06337e-07
-4.82123e-05
-8.8083e-07
-4.8686e-05
-8.5208e-07
-4.91547e-05
-8.2035e-07
-4.96173e-05
-7.85961e-07
-5.00729e-05
-7.49358e-07
-5.05208e-05
-7.11159e-07
-5.09606e-05
-6.7209e-07
-5.13919e-05
-6.32978e-07
-5.18146e-05
-5.9494e-07
-5.22288e-05
-5.5953e-07
-5.26347e-05
-5.28596e-07
-5.30327e-05
-5.04031e-07
-5.34231e-05
-4.87803e-07
-5.38062e-05
-4.81894e-07
-5.41816e-05
-4.87574e-07
-5.45479e-05
-5.04534e-07
-5.49021e-05
-5.30092e-07
-5.52381e-05
-5.57661e-07
-5.55456e-05
-5.7538e-07
-5.58071e-05
-5.6622e-07
-5.59957e-05
-5.07696e-07
-5.60622e-05
-3.76682e-07
-5.59474e-05
-8.36268e-08
-5.55165e-05
5.07574e-07
-5.45883e-05
1.57316e-06
-5.27818e-05
3.50255e-06
-4.94214e-05
6.71626e-06
1.07159e-05
-4.36621e-05
-3.95718e-05
1.09676e-07
-3.95525e-05
2.71467e-08
-3.95555e-05
2.12102e-08
-3.95422e-05
1.73049e-08
-3.95446e-05
4.48423e-09
-3.95483e-05
-1.49705e-08
-3.95206e-05
-3.89618e-08
-3.95319e-05
-2.7043e-08
-3.95495e-05
-1.30224e-08
-3.95506e-05
-2.75698e-08
-3.95586e-05
-4.13084e-09
-3.95593e-05
-5.03269e-09
-3.95402e-05
1.10244e-08
-3.95517e-05
4.59561e-08
-3.95712e-05
2.32e-08
-3.95589e-05
8.98866e-09
-3.95582e-05
2.84058e-08
-3.95533e-05
4.21787e-08
-3.95439e-05
3.5361e-08
-3.95596e-05
1.37063e-08
-3.95573e-05
5.42158e-09
-3.95316e-05
-1.48869e-08
-3.95311e-05
-1.51733e-08
-3.95525e-05
5.23216e-09
-3.95346e-05
-3.26553e-08
-3.95455e-05
-4.75255e-08
-3.95686e-05
-1.55464e-08
-3.95537e-05
-2.46827e-08
-3.95543e-05
-3.26192e-08
-3.95541e-05
-2.66287e-08
-3.95617e-05
-3.22187e-08
-3.95545e-05
-4.30671e-08
-3.95445e-05
-2.06122e-08
-3.95582e-05
-1.93069e-09
-3.95736e-05
1.78191e-09
-3.95801e-05
1.97165e-08
-3.95911e-05
8.04712e-09
-3.9604e-05
1.43297e-08
-3.96179e-05
3.12076e-08
-3.96461e-05
1.98322e-08
-3.96703e-05
1.63986e-08
-3.96878e-05
-2.59142e-09
-3.97293e-05
-9.09461e-09
-3.97789e-05
-1.24389e-08
-3.98223e-05
-3.96761e-08
-3.98875e-05
-4.30271e-08
-3.99608e-05
-5.48893e-08
-4.00432e-05
-7.27571e-08
-4.01407e-05
-8.07582e-08
-4.02541e-05
-9.88605e-08
-4.03919e-05
-1.23394e-07
-4.0553e-05
-1.47001e-07
-4.07384e-05
-1.72034e-07
-4.09504e-05
-1.98151e-07
-4.11905e-05
-2.25441e-07
-4.14603e-05
-2.53695e-07
-4.17608e-05
-2.82873e-07
-4.20929e-05
-3.13704e-07
-4.24571e-05
-3.43427e-07
-4.28518e-05
-3.69893e-07
-4.32744e-05
-3.93231e-07
-4.37217e-05
-4.13018e-07
-4.41902e-05
-4.28826e-07
-4.46764e-05
-4.40423e-07
-4.51762e-05
-4.47769e-07
-4.56862e-05
-4.50985e-07
-4.62028e-05
-4.50298e-07
-4.67228e-05
-4.45963e-07
-4.72434e-05
-4.38196e-07
-4.77622e-05
-4.27237e-07
-4.8277e-05
-4.13391e-07
-4.87864e-05
-3.96949e-07
-4.92891e-05
-3.78102e-07
-4.97843e-05
-3.56929e-07
-5.02711e-05
-3.33494e-07
-5.07492e-05
-3.07942e-07
-5.1218e-05
-2.80553e-07
-5.16774e-05
-2.51748e-07
-5.21274e-05
-2.22071e-07
-5.25681e-05
-1.92238e-07
-5.29998e-05
-1.63268e-07
-5.34228e-05
-1.36563e-07
-5.38376e-05
-1.13811e-07
-5.42447e-05
-9.68642e-08
-5.46447e-05
-8.78054e-08
-5.50378e-05
-8.88706e-08
-5.54234e-05
-1.01954e-07
-5.57999e-05
-1.28027e-07
-5.61634e-05
-1.6657e-07
-5.65069e-05
-2.14174e-07
-5.68188e-05
-2.63513e-07
-5.70806e-05
-3.0439e-07
-5.72629e-05
-3.25432e-07
-5.73228e-05
-3.1675e-07
-5.71757e-05
-2.3072e-07
-5.66707e-05
2.6073e-09
-5.55841e-05
4.86502e-07
-5.34769e-05
1.3954e-06
-4.9695e-05
2.9343e-06
4.76999e-06
-4.37491e-05
-3.95731e-05
-3.98465e-08
-3.95614e-05
1.54812e-08
-3.95572e-05
1.69968e-08
-3.95412e-05
1.27376e-09
-3.95333e-05
-3.39256e-09
-3.95392e-05
-9.0408e-09
-3.95405e-05
-3.77242e-08
-3.95479e-05
-1.95903e-08
-3.9546e-05
-1.49403e-08
-3.95505e-05
-2.30426e-08
-3.95526e-05
-2.00709e-09
-3.95456e-05
-1.20809e-08
-3.95292e-05
-5.36384e-09
-3.95412e-05
5.79859e-08
-3.95775e-05
5.94836e-08
-3.95636e-05
-4.9347e-09
-3.95618e-05
2.66582e-08
-3.95458e-05
2.61802e-08
-3.95238e-05
1.32787e-08
-3.95481e-05
3.80283e-08
-3.95642e-05
2.15255e-08
-3.95479e-05
-3.11374e-08
-3.95374e-05
-2.57295e-08
-3.95381e-05
5.99335e-09
-3.95413e-05
-2.94738e-08
-3.95533e-05
-3.55386e-08
-3.9548e-05
-2.08275e-08
-3.95411e-05
-3.16199e-08
-3.95536e-05
-2.01057e-08
-3.95607e-05
-1.95273e-08
-3.95562e-05
-3.66896e-08
-3.95703e-05
-2.89793e-08
-3.95652e-05
-2.57041e-08
-3.95637e-05
-3.50307e-09
-3.95732e-05
1.12728e-08
-3.95698e-05
1.64011e-08
-3.95969e-05
3.50886e-08
-3.96173e-05
3.47395e-08
-3.96253e-05
3.92564e-08
-3.96535e-05
4.79464e-08
-3.96676e-05
3.05295e-08
-3.97049e-05
3.47476e-08
-3.97476e-05
3.36176e-08
-3.97858e-05
2.57226e-08
-3.98431e-05
1.76401e-08
-3.99077e-05
2.15926e-08
-3.99841e-05
2.14572e-08
-4.0072e-05
1.51376e-08
-4.01702e-05
1.7437e-08
-4.02881e-05
1.90509e-08
-4.0432e-05
2.05679e-08
-4.06021e-05
2.30585e-08
-4.07992e-05
2.50783e-08
-4.10251e-05
2.7774e-08
-4.12817e-05
3.11023e-08
-4.15704e-05
3.5035e-08
-4.18929e-05
3.96529e-08
-4.22516e-05
4.50005e-08
-4.26456e-05
5.05286e-08
-4.30714e-05
5.59543e-08
-4.3526e-05
6.1319e-08
-4.40055e-05
6.65294e-08
-4.45059e-05
7.14925e-08
-4.50225e-05
7.61808e-08
-4.55509e-05
8.0646e-08
-4.60869e-05
8.4999e-08
-4.66266e-05
8.93956e-08
-4.71665e-05
9.4018e-08
-4.77038e-05
9.90924e-08
-4.8236e-05
1.04894e-07
-4.87611e-05
1.11725e-07
-4.92779e-05
1.19899e-07
-4.97857e-05
1.29677e-07
-5.02839e-05
1.41239e-07
-5.07721e-05
1.54702e-07
-5.12501e-05
1.70117e-07
-5.17181e-05
1.87416e-07
-5.21762e-05
2.06368e-07
-5.26248e-05
2.26549e-07
-5.30644e-05
2.47318e-07
-5.34954e-05
2.67766e-07
-5.39186e-05
2.86638e-07
-5.43348e-05
3.02342e-07
-5.47446e-05
3.12989e-07
-5.51488e-05
3.16337e-07
-5.55475e-05
3.09825e-07
-5.59402e-05
2.90781e-07
-5.6325e-05
2.56753e-07
-5.66975e-05
2.05923e-07
-5.70496e-05
1.37934e-07
-5.73675e-05
5.44037e-08
-5.76338e-05
-3.8106e-08
-5.78207e-05
-1.38501e-07
-5.78843e-05
-2.53157e-07
-5.77349e-05
-3.80144e-07
-5.72202e-05
-5.12086e-07
-5.60775e-05
-6.56205e-07
-5.38491e-05
-8.32937e-07
-4.98673e-05
-1.04758e-06
-1.24405e-06
-4.38532e-05
-3.95748e-05
-1.02847e-07
-3.95465e-05
-1.28209e-08
-3.95476e-05
1.80689e-08
-3.95585e-05
1.21761e-08
-3.95478e-05
-1.41108e-08
-3.95473e-05
-9.50444e-09
-3.95725e-05
-1.25019e-08
-3.95712e-05
-2.09189e-08
-3.95575e-05
-2.86507e-08
-3.9558e-05
-2.25045e-08
-3.95229e-05
-3.70805e-08
-3.95333e-05
-1.74893e-09
-3.95685e-05
2.98823e-08
-3.95432e-05
3.26267e-08
-3.95314e-05
4.77379e-08
-3.95504e-05
1.40187e-08
-3.95503e-05
2.65692e-08
-3.95339e-05
9.7522e-09
-3.95318e-05
1.12307e-08
-3.95467e-05
5.29293e-08
-3.95506e-05
2.54649e-08
-3.95465e-05
-3.53278e-08
-3.95513e-05
-2.08955e-08
-3.95446e-05
-6.97618e-10
-3.9543e-05
-3.1061e-08
-3.95483e-05
-3.02133e-08
-3.95476e-05
-2.15456e-08
-3.95593e-05
-1.99037e-08
-3.95588e-05
-2.06427e-08
-3.95445e-05
-3.38481e-08
-3.95497e-05
-3.14271e-08
-3.95682e-05
-1.05091e-08
-3.95664e-05
-2.74614e-08
-3.95589e-05
-1.10584e-08
-3.95802e-05
3.25384e-08
-3.95836e-05
1.98008e-08
-3.95935e-05
4.50207e-08
-3.96186e-05
5.9861e-08
-3.96298e-05
5.04892e-08
-3.96391e-05
5.71586e-08
-3.96605e-05
5.19432e-08
-3.97027e-05
7.69501e-08
-3.97353e-05
6.6216e-08
-3.97786e-05
6.90007e-08
-3.98405e-05
7.95685e-08
-3.9895e-05
7.60791e-08
-3.99711e-05
9.76125e-08
-4.00618e-05
1.05777e-07
-4.01589e-05
1.14535e-07
-4.02773e-05
1.37463e-07
-4.04198e-05
1.63138e-07
-4.05879e-05
1.91165e-07
-4.07831e-05
2.20216e-07
-4.10067e-05
2.51376e-07
-4.12605e-05
2.84922e-07
-4.1546e-05
3.20558e-07
-4.18646e-05
3.58265e-07
-4.22185e-05
3.98816e-07
-4.26068e-05
4.38905e-07
-4.30266e-05
4.75751e-07
-4.34747e-05
5.0941e-07
-4.39476e-05
5.39406e-07
-4.44412e-05
5.6513e-07
-4.49513e-05
5.8629e-07
-4.54736e-05
6.02924e-07
-4.6004e-05
6.15333e-07
-4.65386e-05
6.24003e-07
-4.70741e-05
6.29508e-07
-4.76074e-05
6.3248e-07
-4.81362e-05
6.33679e-07
-4.86585e-05
6.33998e-07
-4.91729e-05
6.34342e-07
-4.96787e-05
6.35414e-07
-5.01751e-05
6.37645e-07
-5.06617e-05
6.41328e-07
-5.11383e-05
6.4672e-07
-5.16049e-05
6.53973e-07
-5.20616e-05
6.63058e-07
-5.25087e-05
6.73693e-07
-5.29467e-05
6.85341e-07
-5.33762e-05
6.97245e-07
-5.37979e-05
7.08328e-07
-5.42126e-05
7.17095e-07
-5.46213e-05
7.21648e-07
-5.50246e-05
7.19614e-07
-5.54228e-05
7.0807e-07
-5.58156e-05
6.83517e-07
-5.62007e-05
6.41918e-07
-5.65737e-05
5.78942e-07
-5.69259e-05
4.90108e-07
-5.72431e-05
3.71586e-07
-5.75044e-05
2.23155e-07
-5.76847e-05
4.18383e-08
-5.77392e-05
-1.98646e-07
-5.75845e-05
-5.34848e-07
-5.70741e-05
-1.02253e-06
-5.59421e-05
-1.78813e-06
-5.37301e-05
-3.04498e-06
-4.97776e-05
-5.00009e-06
-7.24097e-06
-4.37807e-05
-3.95703e-05
-6.67677e-08
-3.95686e-05
-1.452e-08
-3.95496e-05
-9.53623e-10
-3.95428e-05
5.3362e-09
-3.95588e-05
1.87832e-09
-3.95618e-05
-6.44513e-09
-3.95638e-05
-1.04979e-08
-3.95696e-05
-1.51115e-08
-3.95485e-05
-4.97796e-08
-3.95397e-05
-3.13394e-08
-3.95514e-05
-2.53701e-08
-3.95558e-05
2.70341e-09
-3.95629e-05
3.69891e-08
-3.95353e-05
4.95309e-09
-3.95051e-05
1.75559e-08
-3.95402e-05
4.91496e-08
-3.9549e-05
3.53665e-08
-3.95475e-05
8.20054e-09
-3.95532e-05
1.70067e-08
-3.95415e-05
4.11586e-08
-3.95255e-05
9.52861e-09
-3.95459e-05
-1.49092e-08
-3.95707e-05
3.89395e-09
-3.95519e-05
-1.95023e-08
-3.95418e-05
-4.12237e-08
-3.95508e-05
-2.11572e-08
-3.95533e-05
-1.90591e-08
-3.95552e-05
-1.79766e-08
-3.95477e-05
-2.815e-08
-3.95475e-05
-3.40773e-08
-3.9556e-05
-2.29373e-08
-3.95512e-05
-1.53447e-08
-3.95619e-05
-1.66904e-08
-3.95677e-05
-5.28705e-09
-3.95743e-05
3.91365e-08
-3.95839e-05
2.94097e-08
-3.95858e-05
4.69532e-08
-3.96018e-05
7.58311e-08
-3.96126e-05
6.12529e-08
-3.96225e-05
6.71184e-08
-3.9658e-05
8.74373e-08
-3.96771e-05
9.6024e-08
-3.97059e-05
9.50539e-08
-3.97487e-05
1.11803e-07