/*--------------------------------*- C++ -*----------------------------------*\
| =========                 |                                                 |
| \\      /  F ield         | OpenFOAM: The Open Source CFD Toolbox           |
|  \\    /   O peration     | Version:  2.1.0                                 |
|   \\  /    A nd           | Web:      www.OpenFOAM.org                      |
|    \\/     M anipulation  |                                                 |
\*---------------------------------------------------------------------------*/
FoamFile
{
    version     2.0;
    format      ascii;
    class       volVectorField;
    location    "0.04";
    object      U;
}
// * * * * * * * * * * * * * * * * * * * * * * * * * * * * * * * * * * * * * //

dimensions      [0 1 -1 0 0 0 0];

internalField   nonuniform List<vector> 
6400
(
(-1.66177 0.000245498 0)
(-1.66247 0.000178127 0)
(-1.66313 0.000121427 0)
(-1.66355 9.04839e-05 0)
(-1.66385 6.15052e-05 0)
(-1.664 1.46048e-05 0)
(-1.664 -1.46518e-05 0)
(-1.66394 -1.59787e-05 0)
(-1.66383 -3.83212e-05 0)
(-1.66363 -6.44349e-05 0)
(-1.66338 -6.33011e-05 0)
(-1.66317 -4.28011e-05 0)
(-1.66307 -5.39388e-06 0)
(-1.66314 3.83255e-05 0)
(-1.66334 6.42617e-05 0)
(-1.66361 7.11316e-05 0)
(-1.66388 6.52375e-05 0)
(-1.66413 6.31262e-05 0)
(-1.66438 6.05333e-05 0)
(-1.66461 5.4839e-05 0)
(-1.66481 4.87126e-05 0)
(-1.66495 1.92577e-05 0)
(-1.66494 -2.59799e-05 0)
(-1.6648 -4.02032e-05 0)
(-1.66467 -2.84865e-05 0)
(-1.66457 -2.19502e-05 0)
(-1.66443 -4.8677e-05 0)
(-1.66419 -7.13807e-05 0)
(-1.66391 -6.90617e-05 0)
(-1.66361 -7.95809e-05 0)
(-1.66332 -7.16345e-05 0)
(-1.66307 -5.32197e-05 0)
(-1.66285 -5.25251e-05 0)
(-1.66263 -6.33349e-05 0)
(-1.6624 -4.98958e-05 0)
(-1.66227 -1.8721e-05 0)
(-1.66218 -2.42481e-05 0)
(-1.66208 -2.44069e-05 0)
(-1.66199 -2.15791e-05 0)
(-1.66186 -4.142e-05 0)
(-1.66158 -0.000101569 0)
(-1.66103 -0.000172248 0)
(-1.66024 -0.000224444 0)
(-1.65921 -0.000294008 0)
(-1.65782 -0.000407534 0)
(-1.65596 -0.000525343 0)
(-1.65363 -0.000647443 0)
(-1.65062 -0.000863889 0)
(-1.64673 -0.00109143 0)
(-1.64198 -0.00130278 0)
(-1.63629 -0.00155612 0)
(-1.62953 -0.00184272 0)
(-1.62156 -0.00216811 0)
(-1.6122 -0.00253757 0)
(-1.60128 -0.00295185 0)
(-1.58863 -0.00341102 0)
(-1.57407 -0.00391351 0)
(-1.55742 -0.00445608 0)
(-1.53855 -0.00503257 0)
(-1.51735 -0.00563144 0)
(-1.49375 -0.00623833 0)
(-1.46775 -0.00684011 0)
(-1.43939 -0.00742626 0)
(-1.40875 -0.00798841 0)
(-1.37594 -0.00851886 0)
(-1.34109 -0.00901407 0)
(-1.30436 -0.0094713 0)
(-1.2659 -0.0098871 0)
(-1.22589 -0.010258 0)
(-1.1845 -0.0105822 0)
(-1.14193 -0.0108602 0)
(-1.09835 -0.0110947 0)
(-1.05393 -0.0112886 0)
(-1.00883 -0.0114448 0)
(-0.963193 -0.0115661 0)
(-0.917149 -0.011657 0)
(-0.870806 -0.0117248 0)
(-0.82424 -0.0117781 0)
(-0.777495 -0.0118233 0)
(-0.730595 -0.0118652 0)
(-0.683537 -0.0119111 0)
(-0.636287 -0.0119715 0)
(-0.588761 -0.0120597 0)
(-0.540821 -0.0121904 0)
(-0.492278 -0.0123743 0)
(-0.442905 -0.0126205 0)
(-0.392446 -0.0129351 0)
(-0.340659 -0.0133042 0)
(-0.287421 -0.0136818 0)
(-0.232898 -0.0139691 0)
(-0.177893 -0.0139384 0)
(-0.124562 -0.0131296 0)
(-0.0773205 -0.0108511 0)
(-0.042419 -0.00686192 0)
(-0.0242321 -0.00236504 0)
(-0.0250894 0.00279807 0)
(-0.0523893 0.0110375 0)
(-0.129591 0.0280373 0)
(-0.318892 0.0670702 0)
(-0.897245 0.186337 0)
(-1.94582 0.000766132 0)
(-1.94662 0.000539363 0)
(-1.94729 0.000357648 0)
(-1.94769 0.000265833 0)
(-1.94798 0.000183662 0)
(-1.94812 3.31431e-05 0)
(-1.94807 -5.58885e-05 0)
(-1.94798 -5.21295e-05 0)
(-1.94786 -0.000114126 0)
(-1.94767 -0.000187145 0)
(-1.94745 -0.000174562 0)
(-1.9473 -0.000112659 0)
(-1.94726 -6.62792e-06 0)
(-1.94736 0.000124453 0)
(-1.9476 0.000199406 0)
(-1.94788 0.000214442 0)
(-1.94816 0.000192678 0)
(-1.94841 0.000184735 0)
(-1.94864 0.000175245 0)
(-1.94883 0.000154516 0)
(-1.94901 0.00013932 0)
(-1.94913 5.30369e-05 0)
(-1.94908 -9.30079e-05 0)
(-1.94886 -0.000142115 0)
(-1.94866 -0.000100428 0)
(-1.94851 -7.58597e-05 0)
(-1.94831 -0.0001627 0)
(-1.948 -0.000228959 0)
(-1.94769 -0.00020194 0)
(-1.9474 -0.000237835 0)
(-1.94711 -0.000212596 0)
(-1.94687 -0.000153472 0)
(-1.94667 -0.000152268 0)
(-1.94644 -0.000192706 0)
(-1.94618 -0.000164204 0)
(-1.94598 -7.65468e-05 0)
(-1.94574 -0.000120981 0)
(-1.94541 -0.000144864 0)
(-1.94499 -0.000157453 0)
(-1.94441 -0.000253547 0)
(-1.94347 -0.000498731 0)
(-1.94201 -0.000772977 0)
(-1.94007 -0.000985478 0)
(-1.93766 -0.00125664 0)
(-1.93456 -0.00168135 0)
(-1.93065 -0.00212196 0)
(-1.92599 -0.00254847 0)
(-1.92028 -0.00329551 0)
(-1.91333 -0.00406318 0)
(-1.90522 -0.00475017 0)
(-1.8959 -0.00557241 0)
(-1.88529 -0.00648546 0)
(-1.87325 -0.00750445 0)
(-1.85966 -0.00863641 0)
(-1.84444 -0.00987832 0)
(-1.82752 -0.0112257 0)
(-1.80883 -0.0126697 0)
(-1.78836 -0.0141961 0)
(-1.7661 -0.0157842 0)
(-1.74213 -0.0174069 0)
(-1.71646 -0.0190322 0)
(-1.68915 -0.0206273 0)
(-1.66032 -0.0221623 0)
(-1.63009 -0.0236124 0)
(-1.59862 -0.0249591 0)
(-1.56606 -0.0261935 0)
(-1.5326 -0.0273101 0)
(-1.49839 -0.0283045 0)
(-1.46359 -0.0291724 0)
(-1.42833 -0.0299112 0)
(-1.39276 -0.0305227 0)
(-1.35701 -0.0310132 0)
(-1.32122 -0.031391 0)
(-1.2855 -0.0316659 0)
(-1.24994 -0.0318484 0)
(-1.21464 -0.0319517 0)
(-1.17965 -0.0319943 0)
(-1.14503 -0.0319974 0)
(-1.1108 -0.0319805 0)
(-1.07696 -0.0319602 0)
(-1.0435 -0.0319571 0)
(-1.01035 -0.0319973 0)
(-0.977451 -0.0321149 0)
(-0.944693 -0.0323473 0)
(-0.911948 -0.0327189 0)
(-0.879088 -0.033246 0)
(-0.845983 -0.0339407 0)
(-0.812508 -0.0347683 0)
(-0.778626 -0.0356072 0)
(-0.744491 -0.0361996 0)
(-0.710535 -0.0360102 0)
(-0.677559 -0.0340408 0)
(-0.6468 -0.0288155 0)
(-0.620981 -0.0192305 0)
(-0.607379 -0.00606159 0)
(-0.615575 0.0109973 0)
(-0.657654 0.037507 0)
(-0.752542 0.0869141 0)
(-0.939529 0.19155 0)
(-1.39263 0.49297 0)
(-1.97597 0.00140493 0)
(-1.97677 0.000877724 0)
(-1.97732 0.00054547 0)
(-1.97756 0.000405675 0)
(-1.97775 0.000294754 0)
(-1.97782 1.4929e-05 0)
(-1.97767 -0.000132665 0)
(-1.97755 -8.77949e-05 0)
(-1.97744 -0.000188636 0)
(-1.97724 -0.000308711 0)
(-1.97703 -0.00027049 0)
(-1.97688 -0.000167343 0)
(-1.97687 2.88186e-06 0)
(-1.97699 0.000239509 0)
(-1.97729 0.000360267 0)
(-1.97762 0.000367165 0)
(-1.97791 0.000318936 0)
(-1.97815 0.000296711 0)
(-1.97834 0.000273986 0)
(-1.97847 0.000228612 0)
(-1.97858 0.000212241 0)
(-1.97868 8.48298e-05 0)
(-1.97859 -0.000198237 0)
(-1.97827 -0.000293601 0)
(-1.97801 -0.000194741 0)
(-1.97787 -0.000129028 0)
(-1.97768 -0.00030076 0)
(-1.97733 -0.000419399 0)
(-1.97705 -0.000308269 0)
(-1.97677 -0.000411482 0)
(-1.97645 -0.000359473 0)
(-1.97623 -0.000235568 0)
(-1.97609 -0.000231922 0)
(-1.9759 -0.000321974 0)
(-1.97564 -0.000302281 0)
(-1.9755 -0.000120435 0)
(-1.97536 -0.000249989 0)
(-1.97509 -0.000321225 0)
(-1.97481 -0.000340787 0)
(-1.97448 -0.000521995 0)
(-1.97383 -0.00101917 0)
(-1.97266 -0.00156266 0)
(-1.97111 -0.0019316 0)
(-1.96921 -0.00242759 0)
(-1.96748 -0.00321561 0)
(-1.96336 -0.00401537 0)
(-1.96104 -0.00473133 0)
(-1.95688 -0.006057 0)
(-1.95042 -0.00739398 0)
(-1.94562 -0.00852303 0)
(-1.93824 -0.00987345 0)
(-1.93058 -0.0113571 0)
(-1.92194 -0.013001 0)
(-1.91222 -0.0148053 0)
(-1.90136 -0.0167558 0)
(-1.88933 -0.0188381 0)
(-1.87608 -0.0210321 0)
(-1.86162 -0.0233093 0)
(-1.84596 -0.0256329 0)
(-1.82916 -0.0279644 0)
(-1.8113 -0.0302631 0)
(-1.79245 -0.0324858 0)
(-1.77274 -0.0345894 0)
(-1.75228 -0.0365372 0)
(-1.73122 -0.0383076 0)
(-1.70967 -0.0398905 0)
(-1.68778 -0.0412816 0)
(-1.66567 -0.0424809 0)
(-1.64344 -0.0434894 0)
(-1.62122 -0.0443083 0)
(-1.59909 -0.0449413 0)
(-1.57715 -0.0453969 0)
(-1.55549 -0.0456865 0)
(-1.5342 -0.0458243 0)
(-1.51335 -0.045827 0)
(-1.49303 -0.0457137 0)
(-1.47332 -0.0455071 0)
(-1.45428 -0.045233 0)
(-1.43598 -0.0449178 0)
(-1.4185 -0.0445878 0)
(-1.40187 -0.0442728 0)
(-1.38613 -0.0440052 0)
(-1.37134 -0.0438275 0)
(-1.35751 -0.0437897 0)
(-1.34465 -0.0439246 0)
(-1.33275 -0.0442497 0)
(-1.32179 -0.0447761 0)
(-1.31177 -0.0454523 0)
(-1.30277 -0.0461094 0)
(-1.29491 -0.0464107 0)
(-1.28836 -0.0457185 0)
(-1.28337 -0.0429421 0)
(-1.2802 -0.0365043 0)
(-1.27957 -0.024473 0)
(-1.28474 -0.00567037 0)
(-1.29825 0.021394 0)
(-1.33101 0.0638094 0)
(-1.39839 0.139263 0)
(-1.5292 0.290207 0)
(-1.77766 0.672206 0)
(-1.98164 0.00217153 0)
(-1.98328 0.00110679 0)
(-1.98097 0.00068137 0)
(-1.98216 0.000457193 0)
(-1.98335 0.000370228 0)
(-1.98244 -1.51499e-05 0)
(-1.98357 -0.000272937 0)
(-1.98371 -0.000126808 0)
(-1.98013 -0.000239922 0)
(-1.9831 -0.000426573 0)
(-1.98086 -0.000371913 0)
(-1.98301 -0.000192397 0)
(-1.98127 1.13776e-05 0)
(-1.98066 0.000355499 0)
(-1.98299 0.000541739 0)
(-1.98359 0.000541274 0)
(-1.9817 0.000433973 0)
(-1.98497 0.000369915 0)
(-1.9829 0.000371707 0)
(-1.98241 0.000244192 0)
(-1.98165 0.000271944 0)
(-1.98525 0.000165563 0)
(-1.98304 -0.000273095 0)
(-1.98417 -0.000505465 0)
(-1.98449 -0.000300157 0)
(-1.98002 -0.000174776 0)
(-1.98462 -0.000441703 0)
(-1.97972 -0.000602741 0)
(-1.98435 -0.000405643 0)
(-1.982 -0.000614385 0)
(-1.98016 -0.000461844 0)
(-1.98017 -0.000301085 0)
(-1.9844 -0.00032266 0)
(-1.9794 -0.000444592 0)
(-1.97966 -0.000455286 0)
(-1.98059 -0.000102126 0)
(-1.98195 -0.00037335 0)
(-1.98005 -0.000448263 0)
(-1.97944 -0.000427194 0)
(-1.97852 -0.000624106 0)
(-1.98169 -0.00139318 0)
(-1.97796 -0.00216076 0)
(-1.97966 -0.00248942 0)
(-1.97464 -0.00319707 0)
(-1.97804 -0.00416879 0)
(-1.97335 -0.00512926 0)
(-1.97422 -0.00613499 0)
(-1.97234 -0.00775245 0)
(-1.96731 -0.00945569 0)
(-1.96706 -0.0109438 0)
(-1.96268 -0.012603 0)
(-1.9588 -0.0144423 0)
(-1.95434 -0.0164734 0)
(-1.94934 -0.0186938 0)
(-1.94375 -0.0210823 0)
(-1.93757 -0.0236162 0)
(-1.93077 -0.0262666 0)
(-1.92337 -0.0289956 0)
(-1.9154 -0.0317529 0)
(-1.90689 -0.0344863 0)
(-1.89794 -0.0371444 0)
(-1.88861 -0.0396783 0)
(-1.879 -0.0420373 0)
(-1.86923 -0.0441787 0)
(-1.85939 -0.0460853 0)
(-1.84958 -0.0477493 0)
(-1.83989 -0.0491675 0)
(-1.83042 -0.0503411 0)
(-1.82125 -0.0512727 0)
(-1.81249 -0.0519671 0)
(-1.8042 -0.0524332 0)
(-1.79646 -0.0526856 0)
(-1.78929 -0.0527417 0)
(-1.78275 -0.0526177 0)
(-1.77684 -0.0523294 0)
(-1.77162 -0.0518958 0)
(-1.76713 -0.0513403 0)
(-1.76341 -0.0506901 0)
(-1.76049 -0.0499726 0)
(-1.75842 -0.0492168 0)
(-1.75723 -0.0484568 0)
(-1.75693 -0.04773 0)
(-1.75757 -0.0470809 0)
(-1.75914 -0.0465637 0)
(-1.76162 -0.0462251 0)
(-1.76501 -0.0460959 0)
(-1.76925 -0.0461835 0)
(-1.77427 -0.0464214 0)
(-1.78006 -0.046627 0)
(-1.78658 -0.0464495 0)
(-1.79375 -0.0452392 0)
(-1.80144 -0.041934 0)
(-1.80937 -0.0350047 0)
(-1.81722 -0.0222878 0)
(-1.82725 -0.0020982 0)
(-1.83661 0.0296409 0)
(-1.85578 0.0806653 0)
(-1.89159 0.171511 0)
(-1.95326 0.348252 0)
(-2.04175 0.724315 0)
(-1.98471 0.00243279 0)
(-1.98187 0.00115891 0)
(-1.98073 0.000825921 0)
(-1.98122 0.000455086 0)
(-1.98263 0.000337043 0)
(-1.98342 -3.87397e-05 0)
(-1.98333 -0.000417924 0)
(-1.98606 -0.000193599 0)
(-1.98032 -0.000329888 0)
(-1.97873 -0.000442865 0)
(-1.97817 -0.000475347 0)
(-1.98736 -0.000176161 0)
(-1.97971 8.03124e-05 0)
(-1.97818 0.000331088 0)
(-1.98704 0.000680134 0)
(-1.97967 0.000785395 0)
(-1.98046 0.000483781 0)
(-1.98869 0.000452761 0)
(-1.98424 0.00048962 0)
(-1.97632 0.000201572 0)
(-1.98015 0.000320777 0)
(-1.98743 0.000312745 0)
(-1.98221 -0.000145174 0)
(-1.98637 -0.000749269 0)
(-1.98618 -0.000533749 0)
(-1.97959 -0.000281226 0)
(-1.98141 -0.000574052 0)
(-1.97614 -0.000726589 0)
(-1.98828 -0.000532539 0)
(-1.98512 -0.000764694 0)
(-1.97076 -0.00049382 0)
(-1.98429 -0.000435217 0)
(-1.98492 -0.000482488 0)
(-1.98328 -0.000547467 0)
(-1.9691 -0.0005245 0)
(-1.98782 -0.000112076 0)
(-1.97808 -0.000444466 0)
(-1.98328 -0.000398514 0)
(-1.97974 -0.000439211 0)
(-1.97454 -0.000726199 0)
(-1.99027 -0.00159764 0)
(-1.96977 -0.00230104 0)
(-1.98968 -0.00260861 0)
(-1.97739 -0.00359157 0)
(-1.97348 -0.00437661 0)
(-1.98825 -0.00535425 0)
(-1.978 -0.00675074 0)
(-1.97837 -0.00817514 0)
(-1.98371 -0.00994025 0)
(-1.98015 -0.0117602 0)
(-1.98173 -0.0135331 0)
(-1.98117 -0.0155351 0)
(-1.98084 -0.0177322 0)
(-1.98048 -0.0201203 0)
(-1.97999 -0.0226797 0)
(-1.97943 -0.025383 0)
(-1.97882 -0.0281976 0)
(-1.97816 -0.0310817 0)
(-1.9775 -0.0339766 0)
(-1.97688 -0.0368195 0)
(-1.97635 -0.0395518 0)
(-1.97596 -0.0421164 0)
(-1.97575 -0.044462 0)
(-1.97591 -0.0465484 0)
(-1.9764 -0.0483554 0)
(-1.97735 -0.0498752 0)
(-1.97884 -0.0511086 0)
(-1.98092 -0.0520624 0)
(-1.98363 -0.0527454 0)
(-1.98699 -0.0531683 0)
(-1.99098 -0.0533461 0)
(-1.9956 -0.0532989 0)
(-2.00085 -0.0530489 0)
(-2.00671 -0.0526138 0)
(-2.01319 -0.0520083 0)
(-2.02025 -0.0512494 0)
(-2.02792 -0.0503599 0)
(-2.03616 -0.0493666 0)
(-2.04499 -0.0482988 0)
(-2.05439 -0.0471877 0)
(-2.06434 -0.046069 0)
(-2.07482 -0.0449854 0)
(-2.08582 -0.0439871 0)
(-2.09728 -0.043129 0)
(-2.10912 -0.0424634 0)
(-2.12136 -0.0420331 0)
(-2.13393 -0.0418461 0)
(-2.14673 -0.041834 0)
(-2.15972 -0.0418219 0)
(-2.17276 -0.0414685 0)
(-2.18567 -0.0401577 0)
(-2.19809 -0.0369205 0)
(-2.20937 -0.0303466 0)
(-2.21855 -0.0184111 0)
(-2.22756 0.00093091 0)
(-2.22988 0.0335179 0)
(-2.23344 0.0871529 0)
(-2.23748 0.182883 0)
(-2.23285 0.362761 0)
(-2.21031 0.689133 0)
(-1.98439 0.00191785 0)
(-1.97633 0.00116402 0)
(-1.98385 0.000889886 0)
(-1.98207 0.000525185 0)
(-1.97749 0.000186635 0)
(-1.9849 -0.000170906 0)
(-1.97873 -0.00043199 0)
(-1.98452 -0.000317744 0)
(-1.98607 -0.000556815 0)
(-1.96789 -0.000308391 0)
(-1.97947 -0.000510449 0)
(-1.98275 -0.000237219 0)
(-1.98293 0.000224811 0)
(-1.97689 0.000164174 0)
(-1.98661 0.000762883 0)
(-1.97146 0.000985731 0)
(-1.98058 0.000505124 0)
(-1.98543 0.000696672 0)
(-1.98915 0.000571922 0)
(-1.96592 0.000168986 0)
(-1.98523 0.000295119 0)
(-1.98342 0.000470713 0)
(-1.98001 0.000110067 0)
(-1.9841 -0.000888712 0)
(-1.98397 -0.000919829 0)
(-1.98516 -0.000490038 0)
(-1.97452 -0.000722903 0)
(-1.97114 -0.000728552 0)
(-1.9886 -0.000633129 0)
(-1.98968 -0.000765652 0)
(-1.95659 -0.000582446 0)
(-1.99237 -0.000636965 0)
(-1.97828 -0.00060396 0)
(-1.99008 -0.000586796 0)
(-1.95966 -0.000454297 0)
(-1.9939 -0.000298749 0)
(-1.96967 -0.000210511 0)
(-1.9852 -0.000205372 0)
(-1.9836 -0.00052439 0)
(-1.97546 -0.000950712 0)
(-1.99035 -0.00138765 0)
(-1.96213 -0.00182593 0)
(-1.99841 -0.00253486 0)
(-1.98148 -0.00354292 0)
(-1.96619 -0.00406079 0)
(-2.00333 -0.00505394 0)
(-1.97623 -0.00652017 0)
(-1.98232 -0.0075657 0)
(-1.99838 -0.00912531 0)
(-1.98693 -0.0110413 0)
(-1.99701 -0.0128231 0)
(-1.99789 -0.0148038 0)
(-2.00111 -0.0169555 0)
(-2.00473 -0.0192836 0)
(-2.00866 -0.021769 0)
(-2.01303 -0.024383 0)
(-2.01783 -0.0270941 0)
(-2.02312 -0.0298636 0)
(-2.02891 -0.0326325 0)
(-2.03522 -0.0353294 0)
(-2.04201 -0.0378872 0)
(-2.04945 -0.0402442 0)
(-2.05746 -0.0423527 0)
(-2.06634 -0.0441825 0)
(-2.07586 -0.0457073 0)
(-2.08611 -0.046919 0)
(-2.09709 -0.0478273 0)
(-2.10877 -0.0484509 0)
(-2.12113 -0.0488093 0)
(-2.13412 -0.0489209 0)
(-2.14771 -0.0488042 0)
(-2.16181 -0.048479 0)
(-2.17638 -0.0479668 0)
(-2.19133 -0.0472848 0)
(-2.20665 -0.0464474 0)
(-2.22227 -0.0454711 0)
(-2.23816 -0.0443775 0)
(-2.25426 -0.0431915 0)
(-2.27054 -0.0419414 0)
(-2.28695 -0.0406599 0)
(-2.30348 -0.0393832 0)
(-2.32008 -0.0381563 0)
(-2.33673 -0.037035 0)
(-2.35338 -0.0360746 0)
(-2.36998 -0.0353234 0)
(-2.38652 -0.0348257 0)
(-2.40296 -0.0345951 0)
(-2.41924 -0.0345718 0)
(-2.4353 -0.0345966 0)
(-2.45096 -0.0343564 0)
(-2.46597 -0.0333044 0)
(-2.47982 -0.0306034 0)
(-2.4916 -0.0250477 0)
(-2.50007 -0.0149306 0)
(-2.50601 0.00224326 0)
(-2.50162 0.0325025 0)
(-2.49057 0.0834877 0)
(-2.46549 0.174629 0)
(-2.40569 0.338864 0)
(-2.31041 0.599643 0)
(-1.97878 0.00173593 0)
(-1.97796 0.0013108 0)
(-1.98233 0.000718123 0)
(-1.98245 0.000668307 0)
(-1.97126 0.000133601 0)
(-1.98511 -0.000425561 0)
(-1.97939 -0.000348495 0)
(-1.98101 -0.000535446 0)
(-1.98167 -0.000772957 0)
(-1.96884 -0.000334949 0)
(-1.98458 -0.000453898 0)
(-1.96967 -0.000369592 0)
(-1.98916 0.000413285 0)
(-1.97116 0.000311247 0)
(-1.97965 0.000690295 0)
(-1.97799 0.000862691 0)
(-1.98229 0.000595142 0)
(-1.97711 0.00100314 0)
(-1.9887 0.000687479 0)
(-1.96296 0.000121004 0)
(-1.98703 0.000248734 0)
(-1.97817 0.000602503 0)
(-1.98065 6.50436e-05 0)
(-1.97634 -0.000884439 0)
(-1.98201 -0.000912948 0)
(-1.98378 -0.000830282 0)
(-1.97947 -0.000944703 0)
(-1.9674 -0.000547198 0)
(-1.98674 -0.000811179 0)
(-1.98465 -0.00068257 0)
(-1.96158 -0.000669421 0)
(-1.99054 -0.000740909 0)
(-1.96964 -0.000576116 0)
(-1.9866 -0.000603474 0)
(-1.97146 -0.000438045 0)
(-1.98257 -0.000322891 0)
(-1.97674 0.000174483 0)
(-1.98243 -0.000177248 0)
(-1.98041 -0.000497243 0)
(-1.98416 -0.000810661 0)
(-1.97798 -0.000885126 0)
(-1.97798 -0.00123866 0)
(-1.99145 -0.00226669 0)
(-1.97599 -0.00295493 0)
(-1.98523 -0.0035187 0)
(-1.99762 -0.00445579 0)
(-1.9785 -0.00552656 0)
(-1.9959 -0.00636661 0)
(-2.00044 -0.00757527 0)
(-1.99409 -0.00917484 0)
(-2.00814 -0.0108645 0)
(-2.00969 -0.0126439 0)
(-2.01602 -0.0145437 0)
(-2.02258 -0.0165961 0)
(-2.02993 -0.0187788 0)
(-2.03818 -0.0210657 0)
(-2.04731 -0.0234306 0)
(-2.05738 -0.025851 0)
(-2.06838 -0.0282694 0)
(-2.0802 -0.0305949 0)
(-2.09304 -0.0327589 0)
(-2.10697 -0.0347118 0)
(-2.12183 -0.0364122 0)
(-2.13768 -0.0378346 0)
(-2.15436 -0.0389652 0)
(-2.17183 -0.0398041 0)
(-2.19 -0.0403668 0)
(-2.20877 -0.0406748 0)
(-2.22807 -0.0407488 0)
(-2.24783 -0.0406082 0)
(-2.26798 -0.0402732 0)
(-2.28842 -0.0397657 0)
(-2.30906 -0.0391065 0)
(-2.32979 -0.0383115 0)
(-2.35057 -0.0373926 0)
(-2.37133 -0.0363634 0)
(-2.39198 -0.0352425 0)
(-2.41248 -0.0340525 0)
(-2.4328 -0.0328178 0)
(-2.45287 -0.031567 0)
(-2.47269 -0.0303348 0)
(-2.49224 -0.0291654 0)
(-2.5115 -0.0281126 0)
(-2.53048 -0.0272296 0)
(-2.54915 -0.0265638 0)
(-2.56755 -0.0261591 0)
(-2.58565 -0.0260332 0)
(-2.60341 -0.0261427 0)
(-2.62074 -0.0263571 0)
(-2.63745 -0.0264124 0)
(-2.65321 -0.0258538 0)
(-2.66739 -0.0239939 0)
(-2.67893 -0.0198979 0)
(-2.68623 -0.0122303 0)
(-2.68918 0.00158699 0)
(-2.67891 0.0271301 0)
(-2.65534 0.0708598 0)
(-2.60575 0.149247 0)
(-2.50404 0.285095 0)
(-2.36397 0.478433 0)
(-1.97624 0.00275505 0)
(-1.97615 0.00129213 0)
(-1.98316 0.000512077 0)
(-1.98098 0.000754739 0)
(-1.967 0.000111244 0)
(-1.98202 -0.000515428 0)
(-1.98184 -0.000293014 0)
(-1.98533 -0.000816485 0)
(-1.97105 -0.000799968 0)
(-1.9674 -0.00058695 0)
(-1.98207 -0.000356484 0)
(-1.97451 -0.00028619 0)
(-1.9913 0.000638602 0)
(-1.96743 0.000704889 0)
(-1.97432 0.000336129 0)
(-1.98288 0.000604839 0)
(-1.98046 0.000692644 0)
(-1.97801 0.00115532 0)
(-1.98343 0.000952617 0)
(-1.96731 1.32218e-05 0)
(-1.98074 0.000220515 0)
(-1.97848 0.000466502 0)
(-1.98263 -0.000231936 0)
(-1.96832 -0.000631342 0)
(-1.98286 -0.000533766 0)
(-1.98145 -0.00125303 0)
(-1.97627 -0.00102323 0)
(-1.9775 -0.000325622 0)
(-1.98322 -0.000893933 0)
(-1.97417 -0.000649584 0)
(-1.97823 -0.000834048 0)
(-1.98272 -0.000817593 0)
(-1.96235 -0.000392031 0)
(-1.9767 -0.000503419 0)
(-1.99083 -0.00041116 0)
(-1.97572 6.89963e-05 0)
(-1.97389 0.000123415 0)
(-1.98688 -0.000105787 0)
(-1.97569 2.63747e-05 0)
(-1.98922 -0.000374874 0)
(-1.9748 -0.00041922 0)
(-1.98836 -0.000758823 0)
(-1.9844 -0.00165186 0)
(-1.97775 -0.0020427 0)
(-1.999 -0.00262179 0)
(-1.98521 -0.00337106 0)
(-1.98911 -0.00403056 0)
(-2.00597 -0.00475466 0)
(-1.99534 -0.00555532 0)
(-2.00607 -0.00666707 0)
(-2.0141 -0.00807993 0)
(-2.01756 -0.00948152 0)
(-2.02642 -0.0109612 0)
(-2.03483 -0.0125501 0)
(-2.0446 -0.0142326 0)
(-2.0556 -0.0159895 0)
(-2.06786 -0.0178044 0)
(-2.0814 -0.0196814 0)
(-2.09613 -0.0215485 0)
(-2.11215 -0.0233042 0)
(-2.12971 -0.0249026 0)
(-2.1484 -0.0263119 0)
(-2.16818 -0.0275048 0)
(-2.18895 -0.0284646 0)
(-2.21057 -0.0291876 0)
(-2.23289 -0.0296788 0)
(-2.25579 -0.0299522 0)
(-2.27912 -0.0300245 0)
(-2.30279 -0.0299113 0)
(-2.3267 -0.0296293 0)
(-2.35072 -0.0291985 0)
(-2.37474 -0.0286402 0)
(-2.39867 -0.027972 0)
(-2.42244 -0.0272057 0)
(-2.44599 -0.0263496 0)
(-2.46928 -0.0254135 0)
(-2.49224 -0.024411 0)
(-2.51483 -0.0233602 0)
(-2.53702 -0.0222815 0)
(-2.5588 -0.021198 0)
(-2.58015 -0.02014 0)
(-2.60108 -0.0191485 0)
(-2.62158 -0.0182717 0)
(-2.64168 -0.0175591 0)
(-2.6614 -0.0170593 0)
(-2.68074 -0.0168193 0)
(-2.6997 -0.0168651 0)
(-2.71823 -0.0171764 0)
(-2.73623 -0.0176633 0)
(-2.75345 -0.0181256 0)
(-2.76949 -0.0182137 0)
(-2.78363 -0.0174104 0)
(-2.79478 -0.0150397 0)
(-2.80097 -0.0102432 0)
(-2.80143 -0.000658949 0)
(-2.78698 0.0180579 0)
(-2.75318 0.0508968 0)
(-2.68483 0.110101 0)
(-2.55386 0.20992 0)
(-2.38857 0.340211 0)
(-1.98228 0.00317063 0)
(-1.97869 0.000920164 0)
(-1.97274 0.000495183 0)
(-1.98255 0.00059795 0)
(-1.96806 8.15023e-05 0)
(-1.97944 -0.000419793 0)
(-1.98108 -0.000628636 0)
(-1.99284 -0.000817325 0)
(-1.96142 -0.000541011 0)
(-1.97012 -0.000696435 0)
(-1.97242 -0.000201513 0)
(-1.98375 -0.000133749 0)
(-1.98839 0.000514464 0)
(-1.97687 0.00100418 0)
(-1.96333 0.000336215 0)
(-1.98465 0.000378026 0)
(-1.98229 0.000719647 0)
(-1.97836 0.00111719 0)
(-1.98933 0.00100059 0)
(-1.95367 0.000149407 0)
(-1.98245 0.00016356 0)
(-1.97923 -5.08773e-05 0)
(-1.98183 -0.000374098 0)
(-1.97261 -0.000136841 0)
(-1.98072 -0.000593241 0)
(-1.98209 -0.00132453 0)
(-1.96794 -0.000675078 0)
(-1.98462 -0.000431667 0)
(-1.98638 -0.00082547 0)
(-1.96496 -0.000664514 0)
(-1.97872 -0.000898114 0)
(-1.97843 -0.000984906 0)
(-1.97651 -0.000388753 0)
(-1.9686 -0.000220125 0)
(-1.99214 -0.000148838 0)
(-1.98527 0.000411239 0)
(-1.95715 6.41371e-05 0)
(-1.98929 0.000197052 0)
(-1.98227 0.000607332 0)
(-1.98488 0.000143696 0)
(-1.97949 0.000107591 0)
(-1.98703 -0.000284042 0)
(-1.98156 -0.000747654 0)
(-1.98975 -0.00093493 0)
(-1.99359 -0.00153572 0)
(-1.98513 -0.00189097 0)
(-1.99882 -0.00229432 0)
(-2.00523 -0.00284882 0)
(-1.99648 -0.00323449 0)
(-2.01384 -0.00389132 0)
(-2.01634 -0.0048059 0)
(-2.023 -0.00568711 0)
(-2.03274 -0.00661712 0)
(-2.04229 -0.00760117 0)
(-2.05362 -0.0086364 0)
(-2.06638 -0.0097129 0)
(-2.08063 -0.0108251 0)
(-2.09639 -0.0119912 0)
(-2.11359 -0.0131346 0)
(-2.13277 -0.0141794 0)
(-2.15331 -0.015111 0)
(-2.17502 -0.0159147 0)
(-2.1979 -0.0165755 0)
(-2.22175 -0.0170843 0)
(-2.24639 -0.0174394 0)
(-2.27161 -0.0176449 0)
(-2.29724 -0.0177097 0)
(-2.32313 -0.0176439 0)
(-2.34913 -0.0174569 0)
(-2.37512 -0.0171591 0)
(-2.40098 -0.0167636 0)
(-2.42659 -0.0162836 0)
(-2.45188 -0.0157287 0)
(-2.47682 -0.0151042 0)
(-2.50137 -0.0144143 0)
(-2.52549 -0.0136647 0)
(-2.54917 -0.0128646 0)
(-2.57237 -0.0120269 0)
(-2.5951 -0.0111675 0)
(-2.61737 -0.0103056 0)
(-2.63919 -0.00946803 0)
(-2.66056 -0.00869159 0)
(-2.6815 -0.0080205 0)
(-2.70205 -0.00750156 0)
(-2.72224 -0.00718539 0)
(-2.74207 -0.00712468 0)
(-2.76153 -0.00735897 0)
(-2.78058 -0.00789653 0)
(-2.79906 -0.00869735 0)
(-2.81671 -0.00963655 0)
(-2.83305 -0.0104745 0)
(-2.84733 -0.0108713 0)
(-2.85835 -0.0104045 0)
(-2.8642 -0.00866193 0)
(-2.86248 -0.00393141 0)
(-2.8465 0.00636472 0)
(-2.80615 0.0257265 0)
(-2.72598 0.0612227 0)
(-2.57735 0.120742 0)
(-2.3999 0.194004 0)
(-1.99051 0.000873919 0)
(-1.98629 0.000532678 0)
(-1.94635 0.000473506 0)
(-1.99243 0.000231657 0)
(-1.97304 1.3528e-05 0)
(-1.9811 -0.000300573 0)
(-1.97504 -0.000958029 0)
(-1.98951 -0.000583087 0)
(-1.96507 -0.000348964 0)
(-1.98396 -0.000634062 0)
(-1.96071 -7.65069e-05 0)
(-1.98704 -0.000213799 0)
(-1.98155 7.06992e-05 0)
(-1.98638 0.00129987 0)
(-1.95714 0.00102834 0)
(-1.98796 4.99992e-05 0)
(-1.97729 0.00069064 0)
(-1.97926 0.000853858 0)
(-2.00147 0.000608109 0)
(-1.92972 0.000645229 0)
(-1.99258 0.000336341 0)
(-1.98062 -0.000574528 -6.75354e-42)
(-1.98052 -0.00051204 0)
(-1.97931 0.000140494 0)
(-1.97394 -0.000776972 0)
(-1.98165 -0.00103914 0)
(-1.97548 -0.000455379 0)
(-1.98049 -0.000704722 0)
(-1.98749 -0.000657907 0)
(-1.95089 -0.000572496 0)
(-1.98706 -0.000864421 0)
(-1.97787 -0.000904234 0)
(-1.98262 -0.000582217 0)
(-1.97539 -6.797e-05 0)
(-1.98071 0.00016346 0)
(-1.98961 0.000452549 0)
(-1.96335 0.000538164 0)
(-1.97965 0.000616874 0)
(-1.98638 0.000881839 0)
(-1.9821 0.000847811 0)
(-1.98316 0.000586756 0)
(-1.98831 0.000401651 0)
(-1.9779 0.000305714 0)
(-1.99832 0.000166169 0)
(-1.98394 -0.000272423 0)
(-1.99182 -0.000268026 0)
(-2.00106 -0.000417211 0)
(-2.00058 -0.000717858 0)
(-2.00423 -0.000793953 0)
(-2.01374 -0.000997423 0)
(-2.01702 -0.00128429 0)
(-2.02612 -0.00154952 0)
(-2.03529 -0.00183677 0)
(-2.04565 -0.00212951 0)
(-2.0578 -0.00242909 0)
(-2.07141 -0.00273309 0)
(-2.08667 -0.00304006 0)
(-2.10355 -0.0033586 0)
(-2.12225 -0.00366147 0)
(-2.14311 -0.00392506 0)
(-2.1651 -0.00414976 0)
(-2.18842 -0.00433194 0)
(-2.21289 -0.00446742 0)
(-2.2383 -0.00455367 0)
(-2.26441 -0.00458953 0)
(-2.291 -0.00457514 0)
(-2.31786 -0.00451142 0)
(-2.34482 -0.00439925 0)
(-2.37174 -0.00423853 0)
(-2.39849 -0.00402879 0)
(-2.42493 -0.00377009 0)
(-2.45098 -0.00346216 0)
(-2.47659 -0.00310411 0)
(-2.50173 -0.00269473 0)
(-2.52639 -0.00223332 0)
(-2.55055 -0.00172108 0)
(-2.5742 -0.00116236 0)
(-2.59735 -0.000565324 0)
(-2.62001 5.79216e-05 0)
(-2.64221 0.000690398 0)
(-2.66398 0.00130805 0)
(-2.68533 0.00187765 0)
(-2.70632 0.00235821 2.77206e-41)
(-2.72697 0.00270299 0)
(-2.74732 0.00285798 0)
(-2.76739 0.00276324 0)
(-2.78717 0.00236175 0)
(-2.80661 0.00161073 1.8934e-41)
(-2.82553 0.000493994 0)
(-2.84362 -0.000950297 0)
(-2.8604 -0.00261037 0)
(-2.875 -0.00427661 0)
(-2.88619 -0.00579305 0)
(-2.89231 -0.00711671 -4.18283e-41)
(-2.88992 -0.00762985 0)
(-2.87367 -0.00636957 0)
(-2.83148 -0.00213007 -2.50388e-41)
(-2.74661 0.00702641 0)
(-2.59072 0.0236446 0)
(-2.40906 0.044304 0)
(-1.99454 -0.00178915 0)
(-1.97529 3.07772e-05 0)
(-1.95161 0.000437662 0)
(-1.99232 0.000167659 0)
(-1.97188 -0.00021835 0)
(-1.9812 -0.000231759 0)
(-1.97621 -0.000626626 0)
(-1.98206 -0.000505834 0)
(-1.97687 -0.000545818 0)
(-1.98134 -0.000571799 0)
(-1.97117 -0.000487169 0)
(-1.98043 -0.000173235 0)
(-1.97512 0.000306176 0)
(-1.98763 0.00113475 0)
(-1.97335 0.0013479 0)
(-1.97753 0.000115945 0)
(-1.96226 0.00066538 0)
(-1.9906 0.000449296 0)
(-1.99624 0.000307307 0)
(-1.92967 0.00113018 0)
(-1.99497 0.000587644 0)
(-1.98468 -0.000831125 -9.76983e-42)
(-1.97468 -0.000583169 0)
(-1.98506 6.61728e-05 0)
(-1.96971 -0.000755399 0)
(-1.98148 -0.000822066 0)
(-1.98023 -0.000529874 0)
(-1.97533 -0.000641754 0)
(-1.97994 -0.000507925 0)
(-1.97227 -0.000667166 0)
(-1.97208 -0.000853609 0)
(-1.98231 -0.000493593 0)
(-1.97538 -0.000664604 0)
(-1.98622 -0.000182104 0)
(-1.97352 0.000546283 0)
(-1.98889 0.000452699 0)
(-1.97936 0.00100327 0)
(-1.9601 0.0011814 0)
(-1.99223 0.00112286 0)
(-1.98127 0.00131526 0)
(-1.9839 0.00103195 0)
(-1.98677 0.00139726 0)
(-1.98248 0.00124906 0)
(-1.9972 0.0011872 0)
(-1.97825 0.00121052 0)
(-1.99574 0.00122206 0)
(-1.99963 0.00148487 0)
(-1.99507 0.0015093 0)
(-2.00999 0.00165123 0)
(-2.01149 0.00195487 0)
(-2.01542 0.00229633 0)
(-2.02635 0.00267749 0)
(-2.03437 0.00306564 0)
(-2.04477 0.00348892 0)
(-2.05682 0.00394989 0)
(-2.07027 0.0044445 0)
(-2.08536 0.00497352 0)
(-2.10203 0.00554725 0)
(-2.12045 0.006118 0)
(-2.141 0.0066473 0)
(-2.1627 0.00713529 0)
(-2.18569 0.00757533 0)
(-2.20983 0.00795882 0)
(-2.23491 0.00828175 0)
(-2.2607 0.00854528 0)
(-2.28699 0.00875453 0)
(-2.31359 0.00891758 0)
(-2.34031 0.00904385 0)
(-2.36702 0.00914408 0)
(-2.39359 0.00923121 0)
(-2.41987 0.00932014 0)
(-2.4458 0.00942612 0)
(-2.47129 0.00956123 0)
(-2.49633 0.0097331 0)
(-2.52091 0.00994685 0)
(-2.54499 0.0102063 0)
(-2.56858 0.0105125 0)
(-2.59165 0.0108623 0)
(-2.61424 0.0112467 0)
(-2.63637 0.0116511 0)
(-2.65806 0.0120547 0)
(-2.67933 0.0124283 0)
(-2.70024 0.0127334 1.4968e-40)
(-2.72082 0.0129227 0)
(-2.74112 0.0129386 0)
(-2.76115 0.0127126 0)
(-2.78092 0.0121677 0)
(-2.80036 0.0112227 1.31922e-40)
(-2.8193 0.00980086 0)
(-2.83742 0.00784178 0)
(-2.85418 0.0053178 0)
(-2.86865 0.00230813 0)
(-2.87984 -0.00121024 0)
(-2.88549 -0.00564383 -3.31714e-41)
(-2.88278 -0.011426 0)
(-2.86594 -0.0191626 0)
(-2.82452 -0.0305338 -3.58923e-40)
(-2.74031 -0.0484869 0)
(-2.58554 -0.0757488 0)
(-2.40446 -0.106511 0)
(-1.99462 -0.00211492 0)
(-1.96484 -0.000338603 0)
(-1.95856 0.000214178 0)
(-1.99499 0.000218981 0)
(-1.9748 -0.000153305 0)
(-1.97341 -0.000198468 0)
(-1.98058 -0.000287123 0)
(-1.98069 -0.000450367 0)
(-1.97997 -0.000985736 0)
(-1.97462 -0.000675517 0)
(-1.98241 -0.000782435 0)
(-1.96969 1.20689e-05 0)
(-1.9819 0.000836273 0)
(-1.99001 0.000469835 0)
(-1.97412 0.000814473 0)
(-1.97204 0.000782904 0)
(-1.95594 0.000770027 0)
(-2.00001 0.00022453 0)
(-1.97166 0.000352083 0)
(-1.95962 0.00117806 0)
(-1.98517 0.0004379 0)
(-1.98957 -0.00062897 0)
(-1.9671 -0.000211617 0)
(-1.98752 -0.000252737 0)
(-1.97404 -0.0009044 0)
(-1.97713 -0.000642287 0)
(-1.978 -0.000506897 0)
(-1.97826 -0.000473598 0)
(-1.97923 -0.000610903 0)
(-1.9874 -0.00085114 0)
(-1.94985 -0.000673193 0)
(-1.99165 -0.000323008 0)
(-1.97121 -0.000550347 0)
(-1.98666 -0.000204477 0)
(-1.97909 0.000896329 0)
(-1.98563 0.000615683 0)
(-1.98211 0.00115052 0)
(-1.95598 0.00168381 0)
(-1.9913 0.00139335 0)
(-1.97904 0.00154861 0)
(-1.98453 0.00174238 0)
(-1.98614 0.00216181 0)
(-1.98552 0.00201629 0)
(-1.98417 0.00226667 0)
(-1.98945 0.00261502 0)
(-1.98481 0.00265819 0)
(-2.00264 0.00329576 0)
(-1.99363 0.00370479 0)
(-2.00369 0.00406372 0)
(-2.01144 0.00484106 0)
(-2.01125 0.00577982 0)
(-2.0231 0.00675129 0)
(-2.03046 0.00777545 0)
(-2.04 0.00887482 0)
(-2.05117 0.0100556 0)
(-2.0636 0.011306 0)
(-2.07752 0.0126181 0)
(-2.09289 0.0140081 0)
(-2.10963 0.0153949 0)
(-2.12824 0.0166892 0)
(-2.14822 0.0178706 0)
(-2.16937 0.018923 0)
(-2.19164 0.0198275 0)
(-2.21487 0.0205737 0)
(-2.23889 0.0211617 0)
(-2.2635 0.0216001 0)
(-2.28853 0.0219038 0)
(-2.31385 0.0220907 0)
(-2.33931 0.0221798 0)
(-2.36479 0.0221939 0)
(-2.39016 0.0221597 0)
(-2.41532 0.0221053 0)
(-2.44019 0.0220527 0)
(-2.46471 0.0220162 0)
(-2.48885 0.0220057 0)
(-2.51258 0.0220298 0)
(-2.53586 0.0220951 0)
(-2.55866 0.0222037 0)
(-2.58098 0.0223513 0)
(-2.60284 0.0225267 0)
(-2.62426 0.0227131 0)
(-2.64525 0.0228867 0)
(-2.66583 0.0230126 0)