/*--------------------------------*- C++ -*----------------------------------*\
| =========                 |                                                 |
| \\      /  F ield         | OpenFOAM: The Open Source CFD Toolbox           |
|  \\    /   O peration     | Version:  2.1.0                                 |
|   \\  /    A nd           | Web:      www.OpenFOAM.org                      |
|    \\/     M anipulation  |                                                 |
\*---------------------------------------------------------------------------*/
FoamFile
{
    version     2.0;
    format      ascii;
    class       volScalarField;
    location    "0.25";
    object      C2;
}
// * * * * * * * * * * * * * * * * * * * * * * * * * * * * * * * * * * * * * //

dimensions      [0 0 0 0 0 0 0];

internalField   nonuniform List<scalar> 
6400
(
6.77347e-05
7.16116e-05
7.6687e-05
8.22874e-05
8.82585e-05
9.45729e-05
0.000101233
0.000108246
0.000115623
0.000123373
0.000131504
0.000140025
0.000148942
0.000158263
0.000167994
0.000178138
0.000188701
0.000199684
0.00021109
0.00022292
0.000235172
0.000247844
0.000260933
0.000274433
0.000288339
0.00030264
0.000317328
0.00033239
0.000347811
0.000363577
0.00037967
0.000396068
0.000412751
0.000429694
0.000446872
0.000464254
0.000481811
0.00049951
0.000517314
0.000535187
0.000553089
0.000570977
0.000588809
0.000606538
0.000624116
0.000641494
0.000658621
0.000675444
0.000691908
0.000707959
0.000723538
0.00073859
0.000753055
0.000766875
0.000779988
0.000792336
0.000803856
0.000814489
0.000824173
0.000832848
0.000840453
0.000846928
0.000852214
0.000856254
0.000858988
0.000860363
0.000860322
0.000858813
0.000855784
0.000851185
0.000844969
0.00083709
0.000827505
0.000816175
0.000803061
0.000788129
0.000771349
0.000752695
0.000732146
0.000709685
0.000685304
0.000659004
0.000630794
0.000600697
0.000568749
0.000535003
0.000499536
0.000462449
0.000423873
0.000383979
0.000342981
0.000301154
0.000258865
0.000216668
0.000175403
0.000136001
9.90211e-05
6.54575e-05
3.71648e-05
1.64812e-05
6.98369e-05
7.38952e-05
7.9142e-05
8.49085e-05
9.10489e-05
9.75389e-05
0.000104382
0.000111586
0.000119161
0.000127117
0.000135462
0.000144205
0.000153352
0.000162911
0.000172887
0.000183284
0.000194108
0.00020536
0.000217042
0.000229155
0.000241697
0.000254667
0.000268059
0.00028187
0.000296091
0.000310715
0.000325729
0.000341123
0.000356882
0.000372989
0.000389425
0.000406172
0.000423205
0.000440502
0.000458033
0.000475772
0.000493686
0.000511741
0.000529901
0.000548129
0.000566384
0.000584623
0.000602802
0.000620875
0.000638792
0.000656504
0.000673958
0.000691102
0.000707879
0.000724234
0.000740109
0.000755446
0.000770185
0.000784266
0.00079763
0.000810213
0.000821956
0.000832796
0.000842671
0.000851521
0.000859284
0.000865899
0.000871307
0.000875448
0.000878264
0.000879699
0.000879697
0.000878203
0.000875165
0.000870532
0.000864255
0.000856287
0.000846583
0.000835101
0.000821801
0.000806646
0.000789603
0.000770641
0.000749736
0.000726866
0.000702018
0.000675184
0.000646366
0.000615578
0.000582845
0.00054821
0.000511739
0.000473525
0.000433698
0.000392438
0.000349993
0.000306708
0.000263064
0.000219724
0.000177559
0.000137611
0.00010054
6.75716e-05
4.05466e-05
2.1409e-05
7.34947e-05
7.78243e-05
8.33549e-05
8.94072e-05
9.58423e-05
0.000102639
0.000109802
0.00011734
0.000125264
0.000133583
0.000142305
0.00015144
0.000160994
0.000170975
0.000181387
0.000192236
0.000203526
0.000215259
0.000227436
0.000240058
0.000253124
0.00026663
0.000280572
0.000294946
0.000309743
0.000324954
0.000340568
0.000356573
0.000372952
0.00038969
0.000406767
0.000424163
0.000441853
0.000459813
0.000478015
0.00049643
0.000515024
0.000533764
0.000552612
0.000571529
0.000590474
0.000609403
0.000628271
0.000647031
0.000665633
0.000684025
0.000702154
0.000719965
0.000737403
0.00075441
0.000770927
0.000786895
0.000802252
0.000816938
0.000830891
0.000844049
0.000856349
0.000867728
0.000878125
0.000887476
0.000895719
0.000902793
0.000908636
0.000913189
0.000916392
0.000918187
0.000918517
0.000917326
0.00091456
0.000910166
0.000904092
0.00089629
0.00088671
0.000875308
0.000862038
0.00084686
0.000829733
0.00081062
0.000789488
0.000766305
0.000741045
0.000713687
0.000684216
0.000652625
0.000618918
0.000583116
0.00054526
0.000505422
0.00046372
0.000420335
0.000375546
0.000329763
0.000283581
0.000237816
0.000193542
0.000152022
0.000113898
8.04725e-05
5.33807e-05
3.42697e-05
7.83504e-05
8.30171e-05
8.89157e-05
9.53456e-05
0.000102172
0.000109378
0.000116969
0.000124954
0.000133344
0.000142149
0.000151378
0.000161039
0.000171141
0.000181689
0.00019269
0.000204148
0.000216068
0.000228452
0.0002413
0.000254614
0.000268392
0.00028263
0.000297325
0.000312469
0.000328056
0.000344075
0.000360516
0.000377364
0.000394603
0.000412217
0.000430186
0.000448488
0.000467098
0.000485991
0.000505139
0.00052451
0.000544071
0.000563788
0.000583621
0.000603531
0.000623475
0.000643409
0.000663287
0.000683059
0.000702676
0.000722085
0.000741231
0.00076006
0.000778514
0.000796533
0.00081406
0.000831032
0.000847389
0.000863068
0.000878008
0.000892144
0.000905415
0.000917756
0.000929104
0.000939396
0.00094857
0.000956564
0.000963315
0.000968762
0.000972846
0.000975509
0.000976691
0.000976336
0.000974389
0.000970795
0.0009655
0.000958454
0.000949604
0.000938901
0.000926297
0.000911744
0.000895196
0.000876606
0.000855931
0.000833125
0.000808147
0.000780954
0.000751508
0.000719773
0.00068572
0.000649331
0.000610605
0.00056957
0.000526302
0.000480948
0.000433764
0.000385166
0.000335782
0.000286513
0.00023859
0.000193333
0.000151515
0.000114546
8.41995e-05
6.25979e-05
8.40335e-05
8.90843e-05
9.54083e-05
0.000102279
0.000109565
0.000117251
0.000125345
0.000133856
0.000142796
0.000152174
0.000162001
0.000172284
0.000183032
0.000194252
0.00020595
0.000218131
0.000230798
0.000243955
0.000257602
0.00027174
0.000286367
0.00030148
0.000317073
0.000333142
0.000349676
0.000366668
0.000384103
0.000401969
0.00042025
0.000438927
0.000457981
0.000477388
0.000497124
0.000517163
0.000537475
0.00055803
0.000578792
0.000599727
0.000620794
0.000641954
0.000663163
0.000684377
0.000705548
0.000726628
0.000747565
0.000768306
0.000788797
0.000808983
0.000828805
0.000848205
0.000867124
0.0008855
0.000903272
0.000920379
0.000936759
0.000952348
0.000967083
0.000980904
0.000993745
0.00100555
0.00101624
0.00102578
0.00103409
0.00104111
0.00104679
0.00105107
0.00105388
0.00105518
0.00105491
0.00105301
0.00104943
0.00104411
0.00103701
0.00102807
0.00101724
0.00100446
0.000989684
0.000972853
0.000953912
0.000932801
0.000909456
0.000883812
0.0008558
0.000825347
0.000792376
0.000756814
0.000718596
0.000677676
0.000634043
0.000587749
0.000538949
0.000487951
0.00043528
0.000381751
0.000328552
0.000277109
0.000228412
0.000184208
0.000146982
0.000120416
9.01131e-05
9.55718e-05
0.000102348
0.000109689
0.000117467
0.000125668
0.000134302
0.000143378
0.000152908
0.000162903
0.000173372
0.000184325
0.00019577
0.000207714
0.000220163
0.000233124
0.000246599
0.000260591
0.000275102
0.000290132
0.00030568
0.000321741
0.000338313
0.000355387
0.000372956
0.000391009
0.000409535
0.000428519
0.000447946
0.000467796
0.00048805
0.000508685
0.000529676
0.000550997
0.000572618
0.000594508
0.000616634
0.000638957
0.000661441
0.000684043
0.000706723
0.000729434
0.000752131
0.000774765
0.000797286
0.000819641
0.000841777
0.00086364
0.000885173
0.000906319
0.000927019
0.000947215
0.000966846
0.000985854
0.00100418
0.00102176
0.00103853
0.00105444
0.00106942
0.00108342
0.00109637
0.00110822
0.0011189
0.00112837
0.00113655
0.00114341
0.00114888
0.00115291
0.00115544
0.00115642
0.0011558
0.00115352
0.00114953
0.00114377
0.0011362
0.00112674
0.00111535
0.00110195
0.00108649
0.00106888
0.00104905
0.0010269
0.00100233
0.000975229
0.000945474
0.000912925
0.00087744
0.000838874
0.000797094
0.000752005
0.000703576
0.000651894
0.000597224
0.000540082
0.000481355
0.000422582
0.00036504
0.000310959
0.000264084
0.000230679
9.60697e-05
0.000101929
0.000109147
0.000116947
0.000125206
0.000133913
0.000143076
0.000152706
0.000162815
0.000173415
0.000184516
0.000196127
0.000208257
0.000220913
0.000234103
0.000247831
0.000262103
0.00027692
0.000292286
0.0003082
0.00032466
0.000341665
0.00035921
0.000377287
0.000395891
0.000415009
0.000434632
0.000454744
0.000475331
0.000496375
0.000517855
0.00053975
0.000562036
0.000584686
0.000607672
0.000630964
0.000654529
0.000678331
0.000702334
0.000726497
0.00075078
0.00077514
0.000799533
0.000823911
0.000848228
0.000872433
0.000896475
0.000920304
0.000943864
0.000967102
0.000989964
0.00101239
0.00103433
0.00105573
0.00107652
0.00109666
0.00111609
0.00113474
0.00115257
0.00116951
0.00118552
0.00120054
0.00121452
0.00122739
0.00123912
0.00124964
0.00125891
0.00126687
0.00127348
0.00127868
0.00128242
0.00128466
0.00128532
0.00128437
0.00128174
0.00127738
0.00127122
0.00126319
0.00125322
0.00124123
0.00122711
0.00121077
0.00119208
0.0011709
0.00114707
0.00112038
0.00109064
0.0010576
0.00102102
0.000980639
0.000936213
0.000887552
0.000834556
0.000777276
0.000715999
0.000651954
0.000586968
0.00052353
0.000466783
0.000426085
0.000101303
0.000107517
0.000115122
0.000123326
0.000132008
0.000141159
0.000150787
0.000160905
0.000171526
0.00018266
0.000194318
0.00020651
0.000219246
0.000232534
0.000246381
0.000260793
0.000275774
0.00029133
0.000307461
0.000324169
0.000341453
0.000359311
0.00037774
0.000396733
0.000416284
0.000436385
0.000457023
0.000478186
0.000499861
0.000522029
0.000544674
0.000567775
0.000591308
0.000615251
0.000639575
0.000664254
0.000689257
0.00071455
0.000740099
0.000765868
0.000791819
0.000817912
0.000844107
0.000870359
0.000896626
0.000922862
0.00094902
0.000975052
0.00100091
0.00102654
0.0010519
0.00107694
0.0011016
0.00112584
0.0011496
0.00117283
0.00119548
0.00121751
0.00123886
0.00125948
0.00127932
0.00129834
0.00131648
0.00133371
0.00134996
0.0013652
0.00137939
0.00139246
0.00140439
0.00141511
0.0014246
0.00143279
0.00143963
0.00144508
0.00144908
0.00145157
0.00145249
0.00145177
0.00144934
0.00144513
0.00143903
0.00143093
0.00142071
0.00140823
0.0013933
0.00137572
0.00135525
0.00133161
0.00130448
0.00127351
0.00123832
0.0011985
0.00115362
0.00110326
0.00104701
0.000984793
0.000919257
0.000852598
0.000790599
0.000744856
0.000105199
0.000111682
0.000119579
0.000128088
0.000137089
0.000146576
0.000156557
0.000167047
0.000178056
0.000189598
0.000201684
0.000214324
0.000227528
0.000241306
0.000255664
0.000270611
0.000286151
0.00030229
0.00031903
0.000336374
0.000354323
0.000372875
0.000392027
0.000411777
0.000432118
0.000453043
0.000474543
0.000496608
0.000519225
0.00054238
0.000566056
0.000590237
0.000614901
0.000640029
0.000665597
0.000691579
0.000717949
0.000744678
0.000771735
0.000799088
0.000826703
0.000854545
0.000882578
0.000910765
0.000939065
0.000967439
0.000995846
0.00102424
0.00105259
0.00108084
0.00110895
0.00113688
0.00116457
0.001192
0.00121911
0.00124586
0.00127221
0.0012981
0.00132351
0.00134839
0.00137269
0.00139638
0.00141941
0.00144174
0.00146334
0.00148417
0.00150418
0.00152334
0.00154161
0.00155895
0.00157532
0.00159069
0.001605
0.00161821
0.00163027
0.00164113
0.00165074
0.00165902
0.00166594
0.00167142
0.00167536
0.00167769
0.00167829
0.00167705
0.00167383
0.00166844
0.00166066
0.00165027
0.00163698
0.00162046
0.00160034
0.00157619
0.0015475
0.00151365
0.00147379
0.00142683
0.00137389
0.00131748
0.00126188
0.00121773
0.000107237
0.000113868
0.000121926
0.000130605
0.000139786
0.000149464
0.000159648
0.000170352
0.000181589
0.000193372
0.000205713
0.000218623
0.000232114
0.000246194
0.000260874
0.000276162
0.000292063
0.000308584
0.000325731
0.000343506
0.000361911
0.000380948
0.000400617
0.000420914
0.000441838
0.000463383
0.000485542
0.000508308
0.000531672
0.000555622
0.000580145
0.000605228
0.000630854
0.000657005
0.000683663
0.000710806
0.000738413
0.000766458
0.000794917
0.000823761
0.000852964
0.000882494
0.000912322
0.000942415
0.000972741
0.00100326
0.00103395
0.00106477
0.00109567
0.00112663
0.00115761
0.00118857
0.00121948
0.00125029
0.00128097
0.00131148
0.0013418
0.00137187
0.00140167
0.00143117
0.00146032
0.0014891
0.00151748
0.00154543
0.0015729
0.00159988
0.00162633
0.00165222
0.00167753
0.00170222
0.00172625
0.00174961
0.00177225
0.00179416
0.00181528
0.00183559
0.00185505
0.0018736
0.00189118
0.00190775
0.00192323
0.00193757
0.00195069
0.00196254
0.00197308
0.00198212
0.00198957
0.00199532
0.00199917
0.00200096
0.0020005
0.00199755
0.00199186
0.00198311
0.0019708
0.00195428
0.00193254
0.00190555
0.00187514
0.00184525
0.000107104
0.000113739
0.000121808
0.000130502
0.000139703
0.000149406
0.00015962
0.000170361
0.000181641
0.000193475
0.000205876
0.000218857
0.000232429
0.000246603
0.00026139
0.000276799
0.000292839
0.000309517
0.00032684
0.000344814
0.000363443
0.00038273
0.000402676
0.000423284
0.000444552
0.000466478
0.00048906
0.000512292
0.000536168
0.000560682
0.000585824
0.000611584
0.000637951
0.000664911
0.000692449
0.00072055
0.000749196
0.000778369
0.000808049
0.000838213
0.000868839
0.000899905
0.000931384
0.000963252
0.000995482
0.00102805
0.00106092
0.00109407
0.00112746
0.00116108
0.00119488
0.00122885
0.00126295
0.00129715
0.00133142
0.00136573
0.00140006
0.00143438
0.00146866
0.00150288
0.00153701
0.00157102
0.00160489
0.0016386
0.00167212
0.00170544
0.00173854
0.0017714
0.00180399
0.00183631
0.00186832
0.00190002
0.00193139
0.00196241
0.00199305
0.00202331
0.00205315
0.00208255
0.00211148
0.00213991
0.00216781
0.00219515
0.00222187
0.00224793
0.00227323
0.00229779
0.00232163
0.00234479
0.00236724
0.00238897
0.00241004
0.00243049
0.00245042
0.00246994
0.00248917
0.00250813
0.0025266
0.00254371
0.00255652
0.00255755
0.000104837
0.000111335
0.000119265
0.00012782
0.00013688
0.00014644
0.000156512
0.000167108
0.000178246
0.000189939
0.000202201
0.000215047
0.000228489
0.000242539
0.000257211
0.000272514
0.00028846
0.000305058
0.000322316
0.000340242
0.000358843
0.000378125
0.000398092
0.000418748
0.000440096
0.000462137
0.000484872
0.000508298
0.000532416
0.00055722
0.000582706
0.000608869
0.000635702
0.000663195
0.000691341
0.000720127
0.000749543
0.000779575
0.000810209
0.000841429
0.00087322
0.000905563
0.000938441
0.000971833
0.00100572
0.00104008
0.0010749
0.00111015
0.00114581
0.00118186
0.00121827
0.00125503
0.00129211
0.00132949
0.00136715
0.00140506
0.00144321
0.00148158
0.00152015
0.0015589
0.00159781
0.00163687
0.00167606
0.00171537
0.00175479
0.00179431
0.00183391
0.0018736
0.00191335
0.00195317
0.00199305
0.00203299
0.00207298
0.00211302
0.00215311
0.00219324
0.00223341
0.00227362
0.00231386
0.00235413
0.00239443
0.00243475
0.00247509
0.00251544
0.00255579
0.00259617
0.00263659
0.00267704
0.00271769
0.00275876
0.00280055
0.00284322
0.00288705
0.00293235
0.00297941
0.00302833
0.00307848
0.0031275
0.00316901
0.00318921
0.000100786
0.000107028
0.000114689
0.00012297
0.00013175
0.00014102
0.000150793
0.000161085
0.000171912
0.000183288
0.000195229
0.000207751
0.000220867
0.000234591
0.000248937
0.000263917
0.000279545
0.000295831
0.000312785
0.000330419
0.000348742
0.000367761
0.000387484
0.000407919
0.00042907
0.000450944
0.000473543
0.00049687
0.000520928
0.000545717
0.000571237
0.000597487
0.000624465
0.000652167
0.000680589
0.000709726
0.000739572
0.000770118
0.000801358
0.000833282
0.000865879
0.000899139
0.000933049
0.000967598
0.00100277
0.00103856
0.00107494
0.0011119
0.00114943
0.00118752
0.00122614
0.00126528
0.00130493
0.00134508
0.0013857
0.00142678
0.00146832
0.0015103
0.00155271
0.00159553
0.00163877
0.00168241
0.00172644
0.00177087
0.00181569
0.00186089
0.00190648
0.00195246
0.00199884
0.00204562
0.0020928
0.0021404
0.00218843
0.00223689
0.00228581
0.00233519
0.00238505
0.0024354
0.00248627
0.00253767
0.00258962
0.00264215
0.00269527
0.00274901
0.00280341
0.0028585
0.00291432
0.00297094
0.00302846
0.00308697
0.00314665
0.00320801
0.00327127
0.00333657
0.00340398
0.00347323
0.00354309
0.00361029
0.00366733
0.00369901
9.54775e-05
0.000101379
0.000108675
0.000116581
0.000124972
0.000133839
0.000143197
0.000153059
0.000163442
0.000174364
0.00018584
0.000197885
0.000210516
0.000223748
0.000237595
0.000252071
0.000267191
0.000282967
0.000299413
0.000316541
0.000334362
0.000352887
0.000372127
0.000392091
0.000412788
0.000434227
0.000456414
0.000479355
0.000503058
0.000527527
0.000552765
0.000578777
0.000605564
0.000633128
0.00066147
0.00069059
0.000720486
0.000751158
0.000782602
0.000814816
0.000847796
0.000881536
0.00091603
0.000951274
0.000987259
0.00102398
0.00106143
0.00109959
0.00113847
0.00117805
0.00121832
0.00125928
0.00130092
0.00134322
0.00138619
0.00142981
0.00147408
0.001519
0.00156456
0.00161075
0.00165758
0.00170505
0.00175316
0.0018019
0.0018513
0.00190134
0.00195206
0.00200344
0.00205552
0.0021083
0.0021618
0.00221604
0.00227105
0.00232685
0.00238346
0.00244092
0.00249925
0.00255849
0.00261866
0.00267981
0.00274197
0.00280518
0.00286947
0.0029349
0.00300148
0.00306928
0.00313832
0.00320866
0.00328032
0.00335334
0.00342773
0.00350347
0.0035809
0.00365989
0.00374007
0.0038207
0.00390012
0.00397488
0.0040381
0.00407635
8.95108e-05
9.50259e-05
0.0001019
0.000109371
0.000117311
0.000125709
0.000134579
0.000143935
0.000153795
0.000164176
0.000175095
0.000186568
0.00019861
0.000211239
0.000224471
0.00023832
0.000252801
0.00026793
0.000283722
0.000300189
0.000317346
0.000335206
0.000353781
0.000373084
0.000393125
0.000413916
0.000435468
0.00045779
0.000480891
0.000504779
0.000529464
0.000554951
0.000581248
0.00060836
0.000636293
0.000665051
0.000694637
0.000725057
0.000756311
0.000788404
0.000821334
0.000855104
0.000889714
0.000925162
0.000961448
0.000998571
0.00103653
0.00107532
0.00111494
0.00115539
0.00119667
0.00123877
0.00128169
0.00132544
0.00137
0.00141538
0.00146157
0.00150859
0.00155643
0.00160509
0.00165458
0.00170491
0.00175608
0.00180811
0.00186101
0.00191478
0.00196946
0.00202504
0.00208157
0.00213906
0.00219754
0.00225704
0.00231758
0.00237921
0.00244195
0.00250586
0.00257096
0.00263731
0.00270494
0.0027739
0.00284424
0.00291601
0.00298925
0.003064
0.0031403
0.00321818
0.00329766
0.00337874
0.0034614
0.00354555
0.00363105
0.00371768
0.00380506
0.00389309
0.003981
0.00406765
0.00415111
0.00422814
0.0042931
0.00433558
8.34609e-05
8.85803e-05
9.50187e-05
0.000102039
0.000109511
0.000117421
0.000125782
0.00013461
0.000143922
0.000153735
0.000164066
0.000174931
0.000186348
0.000198334
0.000210904
0.000224075
0.000237863
0.000252284
0.000267354
0.000283089
0.000299502
0.000316609
0.000334425
0.000352962
0.000372236
0.000392259
0.000413044
0.000434603
0.000456948
0.000480091
0.000504042
0.000528812
0.000554411
0.000580848
0.000608133
0.000636272
0.000665275
0.000695149
0.000725901
0.000757537
0.000790064
0.000823485
0.000857807
0.000893033
0.000929167
0.000966213
0.00100417
0.00104305
0.00108285
0.00112358
0.00116523
0.0012078
0.00125131
0.00129576
0.00134114
0.00138747
0.00143474
0.00148297
0.00153216
0.00158232
0.00163346
0.00168558
0.00173871
0.00179286
0.00184805
0.00190429
0.00196161
0.00202002
0.00207957
0.00214027
0.00220217
0.00226529
0.00232967
0.00239536
0.00246239
0.00253081
0.00260068
0.00267203
0.00274493
0.00281942
0.00289555
0.00297338
0.00305295
0.00313431
0.00321749
0.00330252
0.00338939
0.00347809
0.00356854
0.00366061
0.00375408
0.00384855
0.00394347
0.00403818
0.00413191
0.00422324
0.00431007
0.00438924
0.00445606
0.00450272
7.78222e-05
8.25665e-05
8.85909e-05
9.51843e-05
0.000102212
0.000109661
0.00011754
0.000125867
0.000134657
0.000143928
0.000153697
0.000163981
0.000174798
0.000186163
0.000198094
0.000210609
0.000223722
0.000237452
0.000251815
0.000266826
0.000282503
0.00029886
0.000315914
0.000333679
0.000352172
0.000371407
0.000391397
0.000412159
0.000433705
0.000456049
0.000479205
0.000503185
0.000528001
0.000553666
0.000580191
0.000607587
0.000635865
0.000665036
0.000695109
0.000726095
0.000758003
0.00079084
0.000824615
0.000859337
0.000895011
0.000931647
0.000969249
0.00100783
0.00104738
0.00108792
0.00112946
0.00117199
0.00121553
0.00126008
0.00130565
0.00135225
0.00139988
0.00144855
0.00149828
0.00154907
0.00160094
0.00165391
0.00170798
0.00176317
0.00181951
0.00187702
0.00193572
0.00199564
0.00205681
0.00211926
0.00218303
0.00224815
0.00231467
0.00238264
0.00245209
0.00252308
0.00259565
0.00266987
0.00274578
0.00282344
0.00290291
0.00298423
0.00306746
0.00315265
0.00323983
0.00332902
0.00342023
0.00351344
0.00360859
0.00370556
0.00380413
0.00390397
0.00400455
0.00410507
0.00420467
0.00430193
0.00439464
0.00447949
0.00455176
0.00460469
7.30089e-05
7.74211e-05
8.30839e-05
8.93075e-05
9.59527e-05
0.000103002
0.000110466
0.000118359
0.000126698
0.0001355
0.000144782
0.000154561
0.000164855
0.00017568
0.000187054
0.000198993
0.000211515
0.000224637
0.000238376
0.000252748
0.000267771
0.000283461
0.000299834
0.000316907
0.000334696
0.000353217
0.000372485
0.000392517
0.000413327
0.00043493
0.000457342
0.000480577
0.000504649
0.000529571
0.000555357
0.00058202
0.000609573
0.000638029
0.000667399
0.000697696
0.000728931
0.000761114
0.000794257
0.000828368
0.000863459
0.000899537
0.000936613
0.000974695
0.00101379
0.00105391
0.00109506
0.00113725
0.00118049
0.00122478
0.00127014
0.00131657
0.00136409
0.0014127
0.00146241
0.00151325
0.00156522
0.00161833
0.00167261
0.00172807
0.00178473
0.00184262
0.00190176
0.00196217
0.00202389
0.00208695
0.00215139
0.00221724
0.00228454
0.00235333
0.00242367
0.0024956
0.00256917
0.00264444
0.00272145
0.00280027
0.00288094
0.00296352
0.00304807
0.00313462
0.00322323
0.00331392
0.00340673
0.00350164
0.00359865
0.0036977
0.00379868
0.00390141
0.0040056
0.00411077
0.00421621
0.00432068
0.00442221
0.0045173
0.00460041
0.00466364
6.93826e-05
7.35252e-05
7.89063e-05
8.48468e-05
9.12005e-05
9.79469e-05
0.000105094
0.000112658
0.000120653
0.000129098
0.00013801
0.000147404
0.000157299
0.000167711
0.000178658
0.000190157
0.000202226
0.000214881
0.000228139
0.000242019
0.000256537
0.000271711
0.000287556
0.000304091
0.000321332
0.000339295
0.000357997
0.000377455
0.000397684
0.000418701
0.000440521
0.00046316
0.000486632
0.000510953
0.000536137
0.000562198
0.000589151
0.00061701
0.000645787
0.000675496
0.00070615
0.000737761
0.00077034
0.000803899
0.000838449
0.000874001
0.000910564
0.00094815
0.000986767
0.00102642
0.00106713
0.0011089
0.00115174
0.00119565
0.00124065
0.00128675
0.00133396
0.00138228
0.00143174
0.00148234
0.00153409
0.00158702
0.00164113
0.00169645
0.00175299
0.00181078
0.00186984
0.00193019
0.00199187
0.0020549
0.00211932
0.00218516
0.00225245
0.00232125
0.00239159
0.00246352
0.00253707
0.00261231
0.00268928
0.00276803
0.00284861
0.00293107
0.00301546
0.00310183
0.00319022
0.00328067
0.00337321
0.00346788
0.0035647
0.0036637
0.0037649
0.0038683
0.00397389
0.00408161
0.00419113
0.00430179
0.00441216
0.00451927
0.00461705
0.00469535
6.7297e-05
7.12576e-05
7.64669e-05
8.22408e-05
8.84248e-05
9.4995e-05
0.000101959
0.000109331
0.000117127
0.000125365
0.000134061
0.000143232
0.000152895
0.000163067
0.000173766
0.000185009
0.000196814
0.000209197
0.000222176
0.000235769
0.000249992
0.000264864
0.0002804
0.00029662
0.000313539
0.000331174
0.000349543
0.000368662
0.000388547
0.000409216
0.000430683
0.000452966
0.000476079
0.000500038
0.000524858
0.000550555
0.000577141
0.000604633
0.000633045
0.000662388
0.000692678
0.000723927
0.000756148
0.000789351
0.00082355
0.000858754
0.000894976
0.000932225
0.000970512
0.00100985
0.00105024
0.0010917
0.00113423
0.00117785
0.00122257
0.00126839
0.00131533
0.0013634
0.0014126
0.00146296
0.00151448
0.00156717
0.00162106
0.00167616
0.00173248
0.00179006
0.00184891
0.00190905
0.00197052
0.00203334
0.00209754
0.00216316
0.00223022
0.00229877
0.00236885
0.0024405
0.00251376
0.00258868
0.0026653
0.00274367
0.00282384
0.00290585
0.00298976
0.0030756
0.00316342
0.00325326
0.00334517
0.0034392
0.00353541
0.00363389
0.00373478
0.00383823
0.00394437
0.00405319
0.00416445
0.00427777
0.00439245
0.00450677
0.00461597
0.00470953
6.10406e-06
5.92393e-06
7.29325e-06
9.24527e-06
1.15333e-05
1.40806e-05
1.68665e-05
1.98994e-05
2.32113e-05
2.68583e-05
3.09238e-05
3.55217e-05
4.07976e-05
4.69262e-05
5.40983e-05
6.2485e-05
7.21565e-05
8.29027e-05
9.38248e-05
0.000102423
1.22848e-05
1.25585e-05
1.50701e-05
1.8509e-05
2.24491e-05
2.67385e-05
3.13284e-05
3.62233e-05
4.14681e-05
4.71478e-05
5.33896e-05
6.03663e-05
6.82954e-05
7.74312e-05
8.80405e-05
0.000100343
0.000114384
0.000129751
0.000144994
0.00015647
2.54475e-05
2.70156e-05
3.14413e-05
3.71519e-05
4.35529e-05
5.03945e-05
5.75791e-05
6.50978e-05
7.30092e-05
8.1435e-05
9.05607e-05
0.000100636
0.000111969
0.000124911
0.000139815
0.000156949
0.000176309
0.000197223
0.000217583
0.000232422
5.37045e-05
5.73642e-05
6.46465e-05
7.35439e-05
8.32871e-05
9.35224e-05
0.000104092
0.000114964
0.000126211
0.000137997
0.00015058
0.000164305
0.000179588
0.000196891
0.000216664
0.000239216
0.000264453
0.000291359
0.000317033
0.000335037
0.000111383
0.00011778
0.000128715
0.000141554
0.000155301
0.000169493
0.000183909
0.000198496
0.000213339
0.000228651
0.000244774
0.00026216
0.000281343
0.000302907
0.000327401
0.000355158
0.000385937
0.000418274
0.000448373
0.000468525
0.000221446
0.000230659
0.000245338
0.000262117
0.000279733
0.000297604
0.000315452
0.000333206
0.000350965
0.000368994
0.000387726
0.000407715
0.000429609
0.000454117
0.000481881
0.000513225
0.000547703
0.000583339
0.000615449
0.000635903
0.000416088
0.000426978
0.000443993
0.000463132
0.000482883
0.000502552
0.000521821
0.000540607
0.000559021
0.000577391
0.000596217
0.000616116
0.000637822
0.000662147
0.000689805
0.000721092
0.000755336
0.000790088
0.000820135
0.000838422
0.000732557
0.00074217
0.000757878
0.000775448
0.000793255
0.000810555
0.000827026
0.000842587
0.00085739
0.000871803
0.000886291
0.000901448
0.00091802
0.000936866
0.00095873
0.000983889
0.00101155
0.00103906
0.00106174
0.00107512
0.00120099
0.00120458
0.00121299
0.00122258
0.00123194
0.00124042
0.00124777
0.00125398
0.00125924
0.00126376
0.00126788
0.00127201
0.00127679
0.00128296
0.00129127
0.00130205
0.00131465
0.00132713
0.00133688
0.00134271
0.00182369
0.00181604
0.00181008
0.00180412
0.00179751
0.00178993
0.00178136
0.00177175
0.00176112
0.00174946
0.00173689
0.0017235
0.00170964
0.00169557
0.00168196
0.00166926
0.00165778
0.00164782
0.00163991
0.00163571
0.00253742
0.00251623
0.00249156
0.00246522
0.00243797
0.0024102
0.00238183
0.00235277
0.00232285
0.00229186
0.00225959
0.00222577
0.00219006
0.00215219
0.00211207
0.00207039
0.00202928
0.00199232
0.00196358
0.00194705
0.00316947
0.00313924
0.00310184
0.00306131
0.00301931
0.00297662
0.00293348
0.00288988
0.00284546
0.00279979
0.00275241
0.00270272
0.00264999
0.00259357
0.00253311
0.00246928
0.00240471
0.00234484
0.0022972
0.00226891
0.00368288
0.0036491
0.00360576
0.0035582
0.00350857
0.00345785
0.00340646
0.00335446
0.00330158
0.00324729
0.00319088
0.00313156
0.00306841
0.00300058
0.00292758
0.00284994
0.00277016
0.00269402
0.00263128
0.0025932
0.00406736
0.00403507
0.00399188
0.0039437
0.00389293
0.00384067
0.00378741
0.00373322
0.00367791
0.00362097
0.00356163
0.00349901
0.00343214
0.0033601
0.00328231
0.00319908
0.00311256
0.00302807
0.00295597
0.00291111
0.00433593
0.00430867
0.00426988
0.00422563
0.00417842
0.00412938
0.00407905
0.00402753
0.00397463
0.0039199
0.00386262
0.00380192
0.00373687
0.00366655
0.00359033
0.00350834
0.00342227
0.00333677
0.00326158
0.00321361
0.00451316
0.00449268
0.00446046
0.00442257
0.00438152
0.00433847
0.00429394
0.00424806
0.00420066
0.00415132
0.00409943
0.00404419
0.00398473
0.00392022
0.00385002
0.00377408
0.00369371
0.00361276
0.00353985
0.00349163
0.00462518
0.00461175
0.00458654
0.00455568
0.00452169
0.00448569
0.00444817
0.00440925
0.00436877
0.00432637
0.00428153
0.00423359
0.00418177
0.00412531
0.00406362
0.00399657
0.00392507
0.00385226
0.00378548
0.00373974
0.00469428
0.00468708
0.00466817
0.0046439
0.00461675
0.00458775
0.00455729
0.00452544
0.00449208
0.00445691
0.00441951
0.00437934
0.00433576
0.00428812
0.00423587
0.00417881
0.00411761
0.0040547
0.00399615
0.00395488
0.00473725
0.00473458
0.00472063
0.00470206
0.00468106
0.0046584
0.00463436
0.00460898
0.00458217
0.00455372
0.00452331
0.0044905
0.00445481
0.00441569
0.00437266
0.00432552
0.00427469
0.00422202
0.00417233
0.00413643
0.00476608
0.00476499
0.00475473
0.00474098
0.00472522
0.00470795
0.00468937
0.00466952
0.00464835
0.00462571
0.00460138
0.00457506
0.00454636
0.00451486
0.00448019
0.00444213
0.00440094
0.00435792
0.00431664
0.00428576
7.09004e-60
7.07831e-60
7.06701e-60
7.06693e-60
7.08713e-60
7.13497e-60
7.21587e-60
7.33331e-60
7.48869e-60
7.68146e-60
7.90902e-60
8.16671e-60
8.44785e-60
8.74378e-60
9.04379e-60
9.3352e-60
9.60337e-60
9.83197e-60
1.00034e-59
1.0099e-59
4.1583e-59
4.14637e-59
4.13559e-59
4.13204e-59
4.14106e-59
4.16701e-59
4.2131e-59
4.28135e-59
4.37257e-59
4.48644e-59
4.62144e-59
4.77484e-59
4.94273e-59
5.12004e-59
5.30051e-59
5.47672e-59
5.64003e-59
5.78073e-59
5.88836e-59
5.95228e-59
1.80759e-58
1.79943e-58
1.79207e-58
1.78833e-58
1.79052e-58
1.80051e-58
1.81969e-58
1.84893e-58
1.88862e-58
1.93863e-58
1.9983e-58
2.06645e-58
2.14139e-58
2.22091e-58
2.30226e-58
2.38221e-58
2.45698e-58
2.52237e-58
2.5738e-58
2.60631e-58
7.51866e-58
7.47095e-58
7.42789e-58
7.4022e-58
7.40332e-58
7.4389e-58
7.51465e-58
7.63433e-58
7.79959e-58
8.00997e-58
8.26282e-58
8.55326e-58
8.87426e-58
9.21659e-58
9.56876e-58
9.91709e-58
1.02459e-57
1.05377e-57
1.07735e-57
1.09309e-57
3.09657e-57
3.0714e-57
3.04826e-57
3.03322e-57
3.03023e-57
3.04234e-57
3.07186e-57
3.12035e-57
3.18852e-57
3.2762e-57
3.38235e-57
3.50495e-57
3.64113e-57
3.78707e-57
3.93802e-57
4.08831e-57
4.2315e-57
4.36044e-57
4.46716e-57
4.54114e-57
1.27004e-56
1.25743e-56
1.24571e-56
1.23767e-56
1.23497e-56
1.23886e-56
1.25028e-56
1.26986e-56
1.29787e-56
1.33428e-56
1.37865e-56
1.43017e-56
1.48767e-56
1.54958e-56
1.61396e-56
1.67849e-56
1.74054e-56
1.79716e-56
1.84496e-56
1.87915e-56
5.19235e-56
5.13145e-56
5.07437e-56
5.03371e-56
5.01656e-56
5.02804e-56
5.0719e-56
5.15066e-56
5.26549e-56
5.41618e-56
5.60103e-56
5.81677e-56
6.05863e-56