/*--------------------------------*- C++ -*----------------------------------*\
| =========                 |                                                 |
| \\      /  F ield         | OpenFOAM: The Open Source CFD Toolbox           |
|  \\    /   O peration     | Version:  2.1.0                                 |
|   \\  /    A nd           | Web:      www.OpenFOAM.org                      |
|    \\/     M anipulation  |                                                 |
\*---------------------------------------------------------------------------*/
FoamFile
{
    version     2.0;
    format      ascii;
    class       volScalarField;
    location    "0.25";
    object      k;
}
// * * * * * * * * * * * * * * * * * * * * * * * * * * * * * * * * * * * * * //

dimensions      [0 2 -2 0 0 0 0];

internalField   nonuniform List<scalar> 
6400
(
0.0299012
0.0299251
0.0299189
0.0299003
0.029872
0.0298507
0.0298138
0.029791
0.0297508
0.0297257
0.0296845
0.0296565
0.0296151
0.029584
0.0295429
0.0295089
0.0294682
0.029432
0.0293918
0.0293543
0.0293149
0.0292766
0.029238
0.0291994
0.0291613
0.0291227
0.0290851
0.0290467
0.0290095
0.0289713
0.0289344
0.0288964
0.0288598
0.0288221
0.0287855
0.0287477
0.0287104
0.0286715
0.0286322
0.0285901
0.0285459
0.0284973
0.0284449
0.0283866
0.0283227
0.0282512
0.0281718
0.0280831
0.0279832
0.0278675
0.0277396
0.0276117
0.027472
0.0273295
0.0271785
0.0270203
0.0268554
0.0266806
0.0264979
0.0263042
0.0261004
0.025886
0.025663
0.025428
0.0251809
0.0249211
0.0246465
0.0243559
0.024055
0.0237393
0.0233995
0.0230467
0.0226743
0.0222829
0.0218731
0.021445
0.0209996
0.0205393
0.0200668
0.0195862
0.0191019
0.0186167
0.0181232
0.0175968
0.0170231
0.0164274
0.0157881
0.0150721
0.0142431
0.0132563
0.0120289
0.0104659
0.00845981
0.00604222
0.00346487
0.00223443
0.00267133
0.00544177
0.00864241
0.00979121
0.0480271
0.0483002
0.0484264
0.0486573
0.0488019
0.0490316
0.0491928
0.0494179
0.0495945
0.0498156
0.0500055
0.050224
0.0504248
0.0506425
0.050852
0.0510703
0.0512873
0.0515082
0.0517325
0.0519586
0.0521924
0.0524272
0.0526716
0.0529176
0.0531739
0.0534325
0.0537021
0.0539748
0.0542588
0.0545468
0.0548461
0.0551505
0.0554667
0.0557895
0.0561241
0.0564663
0.0568205
0.0571828
0.0575565
0.0579378
0.0583291
0.0587243
0.0591249
0.0595269
0.0599292
0.0603282
0.060723
0.0611122
0.0615007
0.0618692
0.0622278
0.062596
0.0629537
0.0633135
0.0636646
0.0640102
0.0643458
0.0646708
0.0649808
0.0652717
0.0655366
0.065772
0.065993
0.0661888
0.0663521
0.0664835
0.066576
0.0666179
0.0666323
0.066611
0.0665018
0.0663495
0.0661212
0.065815
0.0654256
0.0649424
0.0643603
0.0636747
0.0628831
0.0619866
0.0609903
0.0599051
0.0587173
0.057438
0.0559909
0.054328
0.0524397
0.0502131
0.0476034
0.0445397
0.0409544
0.036875
0.0323783
0.0277341
0.0229474
0.0183158
0.0146776
0.0122223
0.0106248
0.00910056
0.0537369
0.0541451
0.054333
0.0546738
0.0549108
0.0552397
0.0555066
0.0558284
0.0561165
0.0564357
0.0567399
0.0570598
0.0573764
0.0576991
0.0580256
0.058352
0.0586863
0.059017
0.0593578
0.0596939
0.0600432
0.0603913
0.0607517
0.061112
0.0614844
0.0618567
0.0622424
0.0626296
0.0630298
0.0634329
0.0638484
0.0642679
0.0646991
0.0651344
0.065581
0.0660319
0.0664929
0.0669575
0.0674302
0.0679055
0.0683849
0.0688658
0.0693463
0.0698224
0.0702906
0.0707437
0.071175
0.0715745
0.0719842
0.0723714
0.0727554
0.0731216
0.0734716
0.073803
0.0741139
0.0744002
0.0746516
0.0748808
0.0750706
0.0752315
0.075357
0.0754287
0.0754556
0.0754564
0.0753766
0.07523
0.0750391
0.0747646
0.0744374
0.0740256
0.073539
0.0729684
0.0723062
0.0715447
0.0706768
0.069693
0.0685865
0.0673505
0.0659789
0.0644658
0.0628063
0.0609938
0.0590243
0.0568956
0.054624
0.0522142
0.0496584
0.0469581
0.0440867
0.041036
0.0377588
0.0342252
0.0304048
0.0262885
0.0219825
0.0177055
0.0141447
0.0112517
0.00910963
0.00700377
0.0581911
0.058647
0.0588569
0.0592518
0.0595332
0.059912
0.0602319
0.060601
0.0609449
0.0613102
0.0616703
0.0620361
0.0624078
0.0627763
0.0631563
0.0635279
0.0639128
0.0642857
0.06467
0.0650375
0.0654129
0.0657878
0.066171
0.0665524
0.0669442
0.067334
0.0677324
0.0681273
0.06853
0.068929
0.0693343
0.0697357
0.0701416
0.0705432
0.0709471
0.0713452
0.0717427
0.0721321
0.0725171
0.0728922
0.0732603
0.0736147
0.0739582
0.0742858
0.0745977
0.0748908
0.0751656
0.0754196
0.0756549
0.0758611
0.0760421
0.0761878
0.0762988
0.0763539
0.0763746
0.0763647
0.0762583
0.0761162
0.0758808
0.0755794
0.0751834
0.0746984
0.0741221
0.073445
0.0726622
0.0717738
0.0707819
0.0696771
0.0684719
0.0671576
0.0657473
0.0642372
0.0626373
0.060948
0.0591781
0.0573304
0.0554145
0.053433
0.0513945
0.0492993
0.0471538
0.0449569
0.0427154
0.0404273
0.0380992
0.0357271
0.0333265
0.0309011
0.028459
0.0260041
0.0235465
0.0210876
0.0186371
0.0162033
0.0138195
0.0115701
0.00948093
0.00770959
0.00649246
0.00591942
0.0598067
0.0602224
0.0604104
0.0607785
0.0610296
0.0613796
0.0616633
0.0619967
0.0622974
0.0626182
0.0629269
0.0632379
0.0635488
0.0638514
0.0641603
0.0644547
0.0647583
0.0650445
0.0653395
0.0656184
0.0659031
0.066176
0.0664507
0.0667127
0.066976
0.0672238
0.0674726
0.0677049
0.0679359
0.0681495
0.0683581
0.0685481
0.068729
0.0688893
0.0690361
0.0691588
0.0692638
0.0693411
0.0693892
0.0694125
0.069419
0.0693811
0.069316
0.069214
0.0690762
0.0688998
0.0686839
0.0684246
0.0681219
0.0677687
0.0673655
0.0669037
0.0663836
0.0657972
0.0651478
0.0644269
0.0636315
0.0627642
0.0618147
0.0607915
0.0596879
0.0585099
0.057259
0.0559374
0.0545513
0.0531039
0.0516025
0.0500492
0.0484538
0.0468172
0.0451492
0.0434516
0.0417334
0.0399997
0.03826
0.0365164
0.0347775
0.0330461
0.0313291
0.0296297
0.0279543
0.026307
0.0246943
0.0231199
0.0215901
0.0201078
0.0186718
0.0172777
0.0159314
0.0146264
0.0133662
0.0121465
0.0109728
0.00984795
0.00878466
0.00780613
0.00692684
0.00632213
0.00606085
0.00606429
0.0570603
0.0572652
0.0573601
0.0575563
0.0576898
0.0578691
0.0580132
0.0581698
0.0583102
0.0584428
0.0585711
0.0586791
0.0587893
0.0588717
0.0589589
0.0590139
0.059074
0.0591038
0.0591237
0.0591294
0.0591184
0.0590873
0.0590405
0.0589687
0.0588844
0.0587682
0.0586399
0.0584772
0.0583024
0.058097
0.0578755
0.0576224
0.0573497
0.0570441
0.0567155
0.0563521
0.0559634
0.05554
0.0550909
0.0546089
0.0541016
0.0535603
0.0529925
0.0523935
0.0517674
0.0511099
0.0504245
0.0497063
0.048958
0.0481738
0.0473574
0.046502
0.0456125
0.0446829
0.043718
0.0427138
0.0416763
0.0406042
0.0395023
0.0383756
0.0372286
0.0360642
0.0348899
0.0337066
0.0325232
0.0313397
0.0301644
0.028997
0.027845
0.0267083
0.0255937
0.0245007
0.023436
0.0223966
0.0213874
0.020409
0.0194639
0.018553
0.0176758
0.0168342
0.0160249
0.0152479
0.014502
0.0137857
0.0130991
0.0124387
0.0118048
0.0111918
0.010599
0.01002
0.0094543
0.00889751
0.00834971
0.00781204
0.00729548
0.00681908
0.00647732
0.0063292
0.00630728
0.00653328
0.0486907
0.0485258
0.048459
0.0483419
0.0482698
0.0481403
0.0480464
0.0478932
0.0477696
0.0475872
0.0474301
0.0472158
0.047023
0.0467752
0.0465452
0.0462629
0.0459955
0.0456789
0.045373
0.0450234
0.0446785
0.0442962
0.0439151
0.0435001
0.0430863
0.0426363
0.0421838
0.0416979
0.0412082
0.0406885
0.0401635
0.0396114
0.0390528
0.0384694
0.037879
0.0372661
0.0366472
0.0360102
0.0353709
0.0347176
0.0340637
0.0333999
0.0327377
0.0320687
0.0314028
0.0307308
0.0300623
0.0293879
0.0287164
0.0280391
0.0273649
0.0266856
0.0260108
0.0253335
0.0246604
0.023987
0.0233224
0.0226619
0.0220144
0.0213732
0.0207469
0.0201311
0.0195331
0.0189486
0.018383
0.0178317
0.017301
0.0167846
0.0162855
0.0157997
0.0153302
0.0148728
0.0144306
0.0139991
0.0135811
0.0131716
0.0127719
0.0123768
0.0119985
0.0116249
0.0112681
0.0109183
0.0105805
0.0102489
0.00992679
0.00961133
0.00930171
0.00899868
0.00869937
0.00840683
0.00812113
0.00784845
0.00759235
0.00736218
0.00717274
0.00706171
0.00701435
0.00707099
0.0074039
0.00759011
0.0359183
0.035451
0.0352544
0.0348799
0.0346513
0.0342732
0.034008
0.033617
0.033315
0.0329061
0.0325687
0.0321398
0.0317689
0.031319
0.0309167
0.0304455
0.0300141
0.0295233
0.0290659
0.0285567
0.0280757
0.0275501
0.0270486
0.0265086
0.0259899
0.0254469
0.0249323
0.0243972
0.0238901
0.023363
0.0228658
0.0223527
0.0218705
0.0213757
0.0209123
0.0204394
0.0199986
0.0195524
0.0191399
0.0187253
0.0183433
0.0179586
0.0176054
0.0172509
0.0169251
0.0165983
0.0162969
0.0159953
0.0157159
0.0154369
0.0151781
0.0149204
0.0146819
0.0144453
0.0142284
0.0140138
0.0138186
0.0136262
0.0134522
0.0132823
0.0131287
0.0129809
0.012848
0.012722
0.0126102
0.0125049
0.0124116
0.0123236
0.0122494
0.0121787
0.0121207
0.0120657
0.0120217
0.0119805
0.0119481
0.0119182
0.0118942
0.0118706
0.0118505
0.0118282
0.0118055
0.0117757
0.0117405
0.0116936
0.0116374
0.011565
0.0114769
0.0113684
0.0112389
0.0110863
0.010914
0.0107263
0.0105316
0.0103453
0.0102004
0.0101349
0.0101247
0.0103463
0.0106614
0.0108102
0.0223204
0.0217151
0.0214637
0.0209834
0.0207114
0.0202423
0.0199511
0.0194897
0.0191838
0.0187299
0.0184137
0.0179687
0.0176468
0.0172126
0.0168896
0.0164688
0.0161491
0.0157435
0.0154305
0.0150429
0.0147405
0.0143736
0.0140853
0.0137429
0.0134729
0.0131605
0.0129165
0.0126365
0.0124194
0.0121722
0.0119826
0.0117677
0.0116054
0.0114224
0.0112866
0.011134
0.0110245
0.0109009
0.0108182
0.0107234
0.0106657
0.0105967
0.010562
0.0105203
0.0105009
0.0104881
0.0104841
0.0104878
0.0105055
0.0105288
0.0105651
0.0106069
0.010664
0.0107239
0.0108011
0.0108798
0.0109759
0.0110744
0.0111886
0.0113079
0.0114414
0.0115831
0.0117372
0.0119017
0.0120786
0.012266
0.012467
0.0126774
0.0129023
0.0131361
0.0133855
0.0136449
0.0139201
0.0142069
0.0145093
0.0148248
0.0151553
0.0154992
0.015858
0.0162297
0.0166143
0.0170095
0.0174154
0.0178283
0.0182478
0.0186682
0.0190873
0.0194969
0.0198921
0.020264
0.020608
0.0209186
0.0211957
0.0214435
0.0216738
0.0219288
0.0223177
0.0229013
0.0236187
0.0243253
0.0135764
0.0130427
0.0128294
0.0124249
0.0122221
0.01184
0.0116489
0.0112916
0.0111131
0.0107825
0.0106178
0.010316
0.010166
0.00989457
0.00975997
0.00951997
0.00940134
0.0091933
0.0090909
0.00891506
0.00882901
0.00868559
0.00861588
0.00850374
0.00844971
0.00836737
0.00832823
0.00827404
0.00824914
0.00822265
0.00821189
0.00820744
0.00820896
0.00822531
0.00824664
0.00827727
0.00831796
0.00836271
0.0084219
0.00848096
0.0085569
0.00863125
0.00872219
0.00881269
0.00891756
0.00902454
0.00914298
0.00926626
0.00939969
0.00953895
0.00968883
0.00984443
0.0100124
0.0101848
0.0103715
0.0105619
0.0107675
0.0109774
0.0112023
0.0114334
0.0116785
0.0119324
0.0122
0.0124784
0.0127708
0.0130752
0.0133948
0.0137269
0.014076
0.0144387
0.0148204
0.0152179
0.0156365
0.0160741
0.0165349
0.0170179
0.0175266
0.0180609
0.018624
0.0192165
0.0198426
0.0205028
0.0212026
0.0219435
0.022732
0.0235723
0.0244708
0.0254334
0.0264675
0.0275814
0.0287858
0.0300928
0.0315178
0.0330775
0.0347912
0.036671
0.0386964
0.0408147
0.0423074
0.0429141
0.0154313
0.0148778
0.0146548
0.0142317
0.0140149
0.0136128
0.0134034
0.0130243
0.0128244
0.0124701
0.0122822
0.0119551
0.0117815
0.0114831
0.0113263
0.0110572
0.0109188
0.0106798
0.0105606
0.0103528
0.01025
0.0100736
0.00998671
0.00984069
0.00976901
0.00965129
0.00959368
0.00950205
0.00945745
0.00938999
0.0093574
0.00931245
0.00929116
0.0092683
0.0092584
0.0092543
0.00925518
0.00926745
0.00928542
0.00931096
0.00934577
0.00938627
0.00943725
0.00949353
0.00956027
0.00963238
0.0097148
0.00980249
0.00990125
0.0100045
0.0101204
0.0102396
0.0103734
0.0105096
0.0106616
0.0108158
0.0109864
0.0111604
0.0113495
0.0115441
0.0117529
0.0119696
0.0121993
0.0124389
0.0126919
0.0129553
0.013233
0.0135217
0.0138257
0.0141417
0.0144741
0.0148203
0.0151844
0.0155647
0.0159647
0.0163835
0.0168242
0.0172864
0.0177735
0.0182853
0.0188257
0.0193947
0.0199971
0.0206339
0.0213106
0.022029
0.0227942
0.0236098
0.0244847
0.0254237
0.0264358
0.0275284
0.0287158
0.030012
0.0314402
0.033035
0.0348273
0.0367981
0.0384383
0.0391706
0.0263714
0.0257912
0.0255493
0.0250915
0.0248299
0.0243831
0.0241011
0.0236616
0.0233621
0.0229263
0.0226089
0.0221784
0.02185
0.0214265
0.0210938
0.0206802
0.020349
0.0199483
0.0196235
0.0192383
0.0189235
0.0185563
0.0182545
0.0179067
0.0176193
0.0172913
0.0170187
0.01671
0.0164517
0.0161617
0.015917
0.0156446
0.0154132
0.0151586
0.0149408
0.0147038
0.0144999
0.0142805
0.0140901
0.0138875
0.0137127
0.01353
0.0133736
0.0132112
0.013074
0.0129324
0.0128146
0.0126933
0.0125944
0.012493
0.012413
0.0123312
0.0122705
0.0122081
0.0121665
0.012124
0.0121025
0.0120871
0.0120818
0.012082
0.0120975
0.0121209
0.0121534
0.0121958
0.0122484
0.0123086
0.0123801
0.0124579
0.0125463
0.0126408
0.0127445
0.0128538
0.0129694
0.01309
0.0132159
0.0133452
0.0134788
0.0136139
0.0137521
0.0138898
0.014029
0.014166
0.014303
0.014437
0.0145705
0.0147024
0.0148333
0.014964
0.0150907
0.0152152
0.0153379
0.0154661
0.0156003
0.0157545
0.015947
0.0162091
0.0166056
0.0171918
0.0179796
0.0190362
0.0400964
0.0397231
0.0395668
0.0392728
0.039092
0.0387939
0.0385823
0.0382702
0.0380267
0.0376968
0.0374228
0.0370737
0.0367708
0.0364026
0.0360732
0.0356871
0.0353337
0.0349313
0.0345569
0.0341399
0.0337472
0.0333178
0.0329096
0.0324691
0.0320471
0.0315969
0.0311619
0.0307019
0.0302545
0.0297845
0.0293248
0.0288452
0.0283748
0.0278865
0.0274072
0.0269118
0.026425
0.0259234
0.0254255
0.0249142
0.0244091
0.0238961
0.0233946
0.0228873
0.0223945
0.0218974
0.0214161
0.0209319
0.0204639
0.0199947
0.0195422
0.0190892
0.0186533
0.0182179
0.0178008
0.0173855
0.0169895
0.0165967
0.0162233
0.0158558
0.0155073
0.0151665
0.014843
0.0145275
0.0142274
0.0139342
0.013655
0.0133814
0.0131194
0.0128616
0.0126117
0.0123672
0.0121341
0.0119043
0.011686
0.0114692
0.0112628
0.0110568
0.0108591
0.0106614
0.0104705
0.0102797
0.010095
0.00991235
0.00973595
0.00956419
0.00939842
0.00923948
0.00908773
0.00894498
0.00881151
0.00868612
0.00857807
0.00849731
0.00846074
0.00845459
0.00860484
0.00886136
0.00927944
0.0094603
0.0520751
0.0520178
0.0519967
0.0519683
0.0519509
0.0519083
0.0518758
0.0518082
0.0517515
0.0516576
0.0515771
0.0514555
0.0513475
0.0511974
0.0510597
0.0508805
0.0507121
0.0505037
0.0503037
0.0500657
0.0498341
0.0495671
0.0493047
0.0490081
0.048713
0.048388
0.0480593
0.0477024
0.0473391
0.046948
0.0465473
0.0461189
0.0456789
0.0452104
0.0447295
0.0442193
0.0436958
0.043142
0.042572
0.0419708
0.0413537
0.0407078
0.0400447
0.0393545
0.0386479
0.0379172
0.0371714
0.0364034
0.035622
0.0348207
0.0340076
0.0331785
0.0323403
0.0314902
0.0306346
0.0297715
0.0289081
0.0280423
0.0271821
0.0263257
0.0254808
0.0246456
0.0238267
0.0230207
0.0222333
0.0214614
0.0207121
0.0199813
0.0192755
0.0185902
0.0179319
0.0172935
0.016677
0.0160805
0.0155034
0.0149444
0.0144021
0.0138743
0.0133601
0.0128562
0.0123633
0.0118775
0.0114007
0.0109292
0.0104643
0.0100224
0.00958797
0.00917578
0.00877576
0.00840466
0.00804798
0.00772206
0.00741664
0.00713844
0.00689151
0.00672325
0.00664888
0.00664517
0.00697355
0.0071652
0.0590236
0.059285
0.0594035
0.0596438
0.0598058
0.0600296
0.0602074
0.0604106
0.0605903
0.0607733
0.0609467
0.0611096
0.0612712
0.0614139
0.0615596
0.0616819
0.0618088
0.0619098
0.062015
0.0620928
0.0621734
0.0622276
0.0622841
0.0623138
0.0623354
0.0623431
0.0623382
0.0623129
0.0622749
0.0622142
0.0621384
0.0620367
0.0619176
0.0617685
0.0615996
0.0613971
0.0611714
0.0609084
0.060621
0.060293
0.0599359
0.0595372
0.059105
0.0586295
0.0581179
0.0575618
0.0569669
0.056326
0.055646
0.0549185
0.0541499
0.0533348
0.0524765
0.0515726
0.0506253
0.0496335
0.0486005
0.0475256
0.0464128
0.0452629
0.0440805
0.0428673
0.0416281
0.0403658
0.039088
0.0377988
0.0365017
0.0352024
0.0339028
0.0326082
0.0313207
0.0300434
0.0287799
0.0275321
0.0263032
0.0250951
0.0239099
0.0227485
0.0216128
0.0204962
0.019405
0.0183376
0.0172989
0.0162902
0.015314
0.01437
0.013458
0.0125799
0.0117319
0.010914
0.0101284
0.00937529
0.00865893
0.00799126
0.00736092
0.00680661
0.00637691
0.00618285
0.00614181
0.00632667
0.0606792
0.0611069
0.061299
0.0616722
0.0619259
0.0622807
0.0625665
0.0629053
0.0632083
0.0635351
0.0638467
0.0641644
0.0644791
0.0647896
0.0651039
0.0654081
0.0657196
0.0660181
0.0663248
0.0666169
0.066917
0.0672025
0.0674959
0.0677744
0.0680586
0.0683321
0.0686096
0.0688763
0.0691449
0.0694025
0.0696595
0.0699043
0.0701461
0.0703735
0.070595
0.0707992
0.0709945
0.0711706
0.0713336
0.0714725
0.071593
0.071686
0.0717519
0.0717833
0.0717934
0.0717667
0.0717007
0.0715919
0.0714451
0.071248
0.071005
0.0707085
0.0703582
0.0699495
0.0694807
0.0689479
0.0683494
0.0676824
0.0669458
0.0661345
0.065249
0.0642906
0.0632552
0.0621525
0.0609747
0.0597315
0.0584186
0.0570436
0.0556062
0.0541106
0.0525611
0.0509585
0.0493093
0.0476131
0.0458748
0.0440956
0.0422785
0.0404262
0.0385393
0.0366314
0.0346975
0.0327486
0.0307823
0.0288116
0.0268386
0.024878
0.0229335
0.0210185
0.0191406
0.0173087
0.0155281
0.0138228
0.0122038
0.0107078
0.00933198
0.0081137
0.00707101
0.0063358
0.00600526
0.00597384
0.0583845
0.0588332
0.0590384
0.0594197
0.0596894
0.0600532
0.0603573
0.06071
0.061035
0.0613823
0.061721
0.062067
0.0624154
0.0627627
0.0631185
0.0634686
0.0638301
0.064184
0.0645502
0.0649077
0.0652771
0.0656374
0.0660078
0.0663676
0.0667331
0.0670847
0.067452
0.0678127
0.0681848
0.0685534
0.0689312
0.0693069
0.0696908
0.0700733
0.0704636
0.0708533
0.0712486
0.0716411
0.072036
0.0724265
0.0728164
0.0731999
0.07358
0.0739514
0.0743158
0.0746673
0.0750083
0.0753323
0.0756427
0.0759328
0.0762039
0.076451
0.0766735
0.0768675
0.0770325
0.0771651
0.0772569
0.0773006
0.0773147
0.0772813
0.0771738
0.0770215
0.0767876
0.0764909
0.0761023
0.0756293
0.0750593
0.0743946
0.073626
0.0727445
0.0717529
0.0706414
0.0694108
0.068061
0.0665871
0.0649986
0.0632874
0.0614675
0.0595303
0.0574886
0.0553344
0.0530769
0.0507101
0.0482375
0.0456552
0.0429621
0.0401604
0.0372492
0.0342369
0.0311362
0.0279739
0.0247641
0.0215543
0.0184001
0.0154081
0.012606
0.0101726
0.00810332
0.00661745
0.00590085
0.053494
0.0538811
0.0540588
0.0543786
0.0546
0.0549073
0.0551548
0.0554541
0.0557201
0.0560157
0.0562956
0.0565907
0.0568814
0.0571783
0.0574776
0.0577777
0.0580843
0.0583884
0.0587011
0.0590097
0.0593274
0.0596406
0.059963
0.0602811
0.0606086
0.0609342
0.0612727
0.0616108
0.061962
0.0623146
0.0626798
0.063048
0.0634283
0.0638124
0.0642073
0.0646055
0.065014
0.0654278
0.0658519
0.0662816
0.0667204
0.0671644
0.0676162
0.0680724
0.0685346
0.0690001
0.0694692
0.0699385
0.0704104
0.0708799
0.0713452
0.0718023
0.0722459
0.0726692
0.0730626
0.0734432
0.0738071
0.074157
0.074486
0.0747919
0.0750682
0.0753231
0.0755437
0.0757421
0.0759065
0.07605
0.0761317
0.0761662
0.0761709
0.0760897
0.0759439
0.0757312
0.0754253
0.0750431
0.0745384
0.0739351
0.0731858
0.0722986
0.0712364
0.0699934
0.0685426
0.0668727
0.0649684
0.0628201
0.0604225
0.0577692
0.0548645
0.0517063
0.0482951
0.0446282
0.0407101
0.0364975
0.0320121
0.0272835
0.0225553
0.0181937
0.014434
0.0116038
0.0094578
0.00726286
0.0474043
0.047659
0.0477761
0.0479864
0.0481176
0.048326
0.0484712
0.0486749
0.0488337
0.0490332
0.0492039
0.0494009
0.0495814
0.0497773
0.0499657
0.0501618
0.0503563
0.0505536
0.050753
0.0509523
0.0511559
0.0513582
0.0515662
0.051773
0.0519871
0.0522016
0.0524247
0.0526492
0.0528832
0.0531195
0.0533656
0.053615
0.0538743
0.0541378
0.0544113
0.0546902
0.0549795
0.0552752
0.0555813
0.055895
0.0562191
0.0565512
0.0568937
0.0572446
0.0576055
0.0579749
0.0583538
0.0587405
0.0591323
0.0595282
0.0599271
0.0603273
0.0607278
0.0611279
0.0615286
0.0619356
0.0623437
0.0627567
0.0631643
0.0635691
0.0639593
0.0643315
0.0646769
0.0650197
0.0653369
0.065627
0.0658938
0.0661396
0.0663603
0.0665393
0.0666836
0.0667641
0.066795
0.0667955
0.066679
0.0664916
0.0661918
0.0657729
0.0652159
0.0645001
0.0636108
0.062526
0.0612332
0.0597152
0.0579621
0.0559653
0.0537019
0.051151
0.0482656
0.0449985
0.041203
0.0367621
0.0319433
0.0269826
0.0222289
0.0179912
0.0145227
0.0121697
0.0107491
0.00920889
0.0293689
0.0293891
0.0293763
0.0293569
0.0293242
0.029301
0.0292607
0.0292352
0.0291919
0.0291638
0.0291198
0.0290885
0.0290443
0.0290098
0.0289655
0.0289276
0.028883
0.0288421
0.0287969
0.0287534
0.0287076
0.028662
0.0286157
0.0285688
0.0285222
0.0284748
0.0284282
0.0283806
0.0283341
0.0282864
0.0282401
0.0281928
0.028147
0.0281004
0.0280552
0.0280095
0.0279652
0.0279205
0.027877
0.0278334
0.0277909
0.0277482
0.0277062
0.0276638
0.0276214
0.0275779
0.0275335
0.027487
0.0274382
0.0273863
0.0273316
0.0272734
0.0272118
0.0271468
0.0270782
0.0270056
0.0269265
0.0268408
0.0267438
0.0266361
0.0265118
0.0263708
0.0262114
0.0260436
0.0258611
0.0256659
0.0254596
0.025239
0.0250039
0.0247501
0.0244788
0.0241844
0.0238722
0.023539
0.0231687
0.0227733
0.0223442
0.0218768
0.0213739
0.0208268
0.0202382
0.0196028
0.0189203
0.0181887
0.0174054
0.0165664
0.0156564
0.0146561
0.0135203
0.0121721
0.0105314
0.00855022
0.00641505
0.00443096
0.00291892
0.00224454
0.00255522
0.00523638
0.00859506
0.00982737
0.00936495
0.00461711
0.00400904
0.00387031
0.00382871
0.00382861
0.00382953
0.003763
0.00372178
0.00370468
0.0037001
0.00372258
0.00392187
0.00438386
0.00517242
0.00634319
0.00684239
0.00687952
0.00583792
0.00335013
0.00768345
0.0046239
0.00423633
0.00412733
0.00410019
0.00405538
0.00397885
0.00388171
0.00384634
0.00383495
0.00383883
0.00395776
0.00430375
0.00486776
0.00583009
0.00670334
0.00691638
0.00674833
0.00525904
0.00270815
0.00613305
0.00472769
0.00455401
0.00450143
0.00437948
0.00427989
0.00414555
0.00408473
0.00406151
0.00405564
0.00412055
0.00434487
0.0047591
0.00550326
0.00653713
0.00693168
0.00696871
0.00648309
0.00465861
0.00204225
0.00573239
0.00507812
0.00501391
0.00478952
0.00462055
0.00446613
0.00436439
0.00432242
0.00430842
0.00436129
0.0045184
0.0048642
0.00553158
0.00654505
0.00701239
0.00712421
0.00691984
0.00605864
0.00386706
0.00142117
0.00588352
0.00547213
0.00533382
0.00501475
0.00488073
0.00475869
0.00471777
0.00471609
0.00479875
0.00498506
0.00528739
0.00590942
0.00681298
0.00725165
0.00739622
0.00731447
0.00673771
0.0054573
0.00288388
0.000903404
0.00626649
0.00589485
0.00574812
0.00550712
0.00544083
0.00541552
0.00549858
0.00566018
0.00598798
0.00635122
0.00691971
0.00764003
0.00797876
0.00807198
0.00785378
0.00724138
0.00634377
0.00455898
0.00190205
0.000516258
0.00713724
0.00695258
0.00689959
0.00687509
0.00709218
0.00736989
0.00783446
0.0084401
0.00912775
0.00939952
0.00956419
0.00958231
0.00921142
0.00864025
0.00786756
0.00698157
0.00554743
0.00347202
0.00120058
0.000262398
0.0106259
0.0109603
0.0114552
0.0120478
0.0129811
0.0138626
0.0142985
0.0144359
0.0134965
0.0129216
0.011925
0.0111699
0.00998346
0.00893299
0.00769859
0.00632955
0.00439207
0.00245252
0.000770753
0.000126992
0.0244777
0.0248357
0.0249896
0.024789
0.0240853
0.0226355
0.0209913
0.0189768
0.0172705
0.0155695
0.0138121
0.0122561
0.0103031
0.00879865
0.00694432
0.0049876
0.00319419
0.00167201
0.000570902
7.77875e-05
0.0396453
0.0378867
0.035921
0.0331662
0.0306713
0.0271682
0.024889
0.0218082
0.019712
0.0169486
0.0148832
0.0123011
0.010056
0.00752977
0.00524209
0.00353431
0.00226666
0.0011714
0.000473049
8.97506e-05
0.0368185
0.0352768
0.0337869
0.0313194
0.0292324
0.0259385
0.0239321
0.0210204
0.0191973
0.0165734
0.0148112
0.0122876
0.010418
0.00775192
0.00568543
0.00370733
0.00230874
0.00113163
0.000410797
7.77209e-05
0.0194293
0.0203558
0.0208645
0.0211134
0.0211907
0.0204289
0.0192281
0.0175623
0.0162657
0.0146644
0.0134748
0.0118187
0.0105292
0.00874304
0.00723798
0.00526896
0.00333448
0.00163144
0.000482582
6.61745e-05
0.00928938
0.00944721
0.00985488
0.0103061
0.0110919
0.0120208
0.0127844
0.0130929
0.0129192
0.0120373
0.0116163
0.0106804
0.0099028
0.00885977
0.00776454
0.00644784
0.00456648
0.00251227
0.000719253
8.6466e-05
0.00679894
0.00659571
0.00653047
0.00649235
0.00664429
0.00687815
0.00728374
0.00785661
0.00863306
0.00901603
0.00926932
0.00936262
0.00909462
0.00860267
0.00788647
0.0070153
0.00562569
0.00356554
0.00117034
0.000180306
0.00608409
0.00574392
0.0056097
0.00539226
0.00533265
0.00531193
0.00538549
0.00554721
0.00588621
0.00629798
0.00689865
0.00761915
0.0079588
0.00805877
0.00788134
0.00726678
0.00635248
0.00462673
0.00196458
0.000448803
0.0057633
0.00537025
0.00524253
0.00495104
0.00482927
0.00473075
0.00469955
0.00470747
0.0048027
0.00503197
0.00537192
0.00605488
0.00691125
0.00731672
0.00744053
0.0073521
0.00676223
0.00544497
0.00294732
0.000875923
0.00565262
0.00499426
0.00493139
0.00473653
0.00458059
0.00444978
0.00437095
0.00433928
0.0043315
0.00441934
0.00462372
0.00499177
0.00573215
0.0066919
0.00710403
0.0071865
0.00696072
0.00605959
0.00388321
0.0014446
0.0061758
0.00470706
0.00450014
0.00443545
0.00432826
0.00423533
0.00413219
0.00408768
0.00407397
0.00407467
0.00419419
0.00446303
0.00487471
0.00573213
0.00668059
0.00700566
0.00701836
0.00649601
0.00464275
0.00210611
0.00779971
0.00464081
0.00423249
0.00410798
0.0040679
0.0040296
0.00396365
0.00389546
0.00387189
0.00386588
0.00388585
0.00406649
0.00443633
0.00500396
0.00604896
0.00680823
0.00698132
0.00677572
0.0052626
0.00279368
0.00946072
0.00465655
0.00400584
0.0038589
0.00380756
0.00379754
0.00379554
0.00374749
0.00372657
0.00372103
0.00373234
0.00379573
0.00403857
0.00455654
0.00534458
0.00647388
0.00689878
0.00691029
0.00584228
0.00344336
0.00397115
0.00375019
0.00374679
0.0037468
0.00374652
0.00374628
0.00374612
0.00374604
0.003746
0.00374598
0.00374598
0.003746
0.00374604
0.00374612
0.00374628
0.00374652
0.0037468
0.00374679
0.00375019
0.00397115
0.00441496
0.00375347
0.00374141
0.00374096
0.00374056
0.00374012
0.00373987
0.00373975
0.00373969
0.00373966
0.00373966
0.00373969
0.00373975
0.00373987
0.00374012
0.00374056
0.00374096
0.00374141
0.00375347
0.00441496
0.00485943
0.00376059
0.00373286
0.00373263
0.00373284
0.00373273
0.00373256
0.00373242
0.00373235
0.00373231
0.00373231
0.00373235
0.00373242
0.00373256
0.00373273
0.00373284
0.00373263
0.00373286
0.00376059
0.00485943
0.00530165
0.00377206
0.0037243
0.00372396
0.00372492
0.00372524
0.00372525
0.00372519
0.00372514
0.00372512
0.00372512
0.00372514
0.00372519
0.00372525
0.00372524
0.00372492
0.00372396
0.0037243
0.00377206
0.00530165
0.0057392
0.00378544
0.00371551
0.00371483
0.00371666
0.00371758
0.00371789
0.00371795
0.00371795
0.00371795
0.00371795
0.00371795
0.00371795
0.00371789
0.00371758
0.00371666
0.00371483
0.00371551
0.00378544
0.0057392
0.00617074
0.00379766
0.00370577
0.0037051
0.003708
0.00370969
0.00371043
0.0037107
0.00371078
0.0037108
0.0037108
0.00371078
0.0037107
0.00371043
0.00370969
0.003708
0.0037051
0.00370577
0.00379766
0.00617074
0.00659192
0.00380846
0.00369497
0.00369474
0.00369893
0.00370154
0.00370284
0.0037034
0.00370361
0.00370368
0.00370368
0.00370361
0.0037034
0.00370284
0.00370154
0.00369893
0.00369474
0.00369497
0.00380846
0.00659192
0.00700071
0.00381672
0.00368272
0.00368362
0.00368941
0.00369311
0.00369508
0.00369602
0.00369642
0.00369656
0.00369656
0.00369642
0.00369602
0.00369508
0.00369311
0.00368941
0.00368362
0.00368272
0.00381672
0.00700072
0.00739328
0.00382335
0.00366916
0.00367174
0.00367942
0.00368438
0.00368714
0.00368854
0.00368919
0.00368943
0.00368943
0.00368919
0.00368854
0.00368714
0.00368438
0.00367942
0.00367174
0.00366916
0.00382335
0.00739328
0.00776777
0.00382733
0.00365404
0.00365903
0.00366893
0.00367532
0.00367898
0.00368095
0.0036819
0.00368228
0.00368228
0.0036819
0.00368095
0.00367898
0.00367532
0.00366893
0.00365902
0.00365404
0.00382734
0.00776777
0.00812031
0.0038302
0.00363763
0.00364551
0.00365794
0.00366592
0.00367061
0.00367321
0.00367453
0.00367507
0.00367507
0.00367453
0.00367321
0.00367061
0.00366592
0.00365794
0.00364551
0.00363764
0.0038302
0.00812031
0.0084503
0.00383068
0.00361988
0.00363121
0.00364645
0.0036562
0.00366201
0.00366531
0.00366705
0.00366778
0.00366778
0.00366705
0.00366531
0.003662
0.0036562
0.00364645
0.00363121
0.00361988
0.00383068
0.0084503
0.00875519
0.00383018
0.00360091
0.00361614
0.00363446
0.00364613
0.00365316
0.00365725
0.00365946
0.00366041
0.00366041
0.00365946
0.00365725
0.00365316
0.00364613
0.00363446
0.00361614
0.00360091
0.00383019
0.00875518
0.00903547
0.00382887
0.00358085
0.00360032
0.00362199
0.00363573
0.00364408
0.00364901
0.00365173
0.00365292
0.00365292
0.00365173
0.00364901
0.00364408
0.00363573
0.00362199
0.00360032
0.00358085
0.00382887
0.00903546
0.00928899
0.00382648
0.00355981
0.0035838
0.00360904
0.003625
0.00363475
0.00364059
0.00364385
0.00364531
0.00364531
0.00364385
0.00364059
0.00363475
0.003625
0.00360904
0.0035838
0.00355981
0.00382648
0.00928898
0.0095174
0.00382337
0.00353792
0.00356663
0.00359564
0.00361393
0.00362517
0.00363197
0.00363582
0.00363755
0.00363755
0.00363582
0.00363197
0.00362517
0.00361393
0.00359564
0.00356663
0.00353792
0.00382337
0.00951738
0.00971927
0.0038201
0.00351531
0.00354885
0.00358181
0.00360255
0.00361535
0.00362315
0.00362762
0.00362964
0.00362964
0.00362762
0.00362315
0.00361535
0.00360255
0.00358181
0.00354885
0.00351531
0.0038201
0.00971926
0.00989731
0.00381664
0.00349216
0.00353055
0.00356758
0.00359087
0.00360529
0.00361414
0.00361924
0.00362157
0.00362157
0.00361924
0.00361414
0.00360529
0.00359087
0.00356758
0.00353055
0.00349216
0.00381664
0.00989729
0.0100502
0.00381348
0.00346851
0.00351171
0.00355293
0.00357888
0.00359499
0.00360492
0.00361068
0.00361332
0.00361332
0.00361068
0.00360492
0.00359499
0.00357888
0.00355294
0.00351171
0.00346851
0.00381349
0.0100502
0.0101815
0.00381056
0.00344461
0.00349247
0.00353795
0.0035666
0.00358445
0.0035955
0.00360193
0.0036049
0.0036049
0.00360193
0.0035955
0.00358445
0.0035666
0.00353795
0.00349247
0.00344461
0.00381056
0.0101815
0.0102898
0.00380852
0.00342046
0.00347279
0.0035226
0.00355404
0.00357367
0.00358586
0.003593
0.0035963
0.0035963
0.003593
0.00358586
0.00357367
0.00355404
0.0035226
0.00347279
0.00342046
0.00380852
0.0102897
0.0103795
0.00380713
0.00339642
0.00345287
0.00350697
0.00354123
0.00356267
0.00357603
0.00358387
0.00358751
0.00358751
0.00358387
0.00357603
0.00356267
0.00354123
0.00350697
0.00345287
0.00339642
0.00380714
0.0103794
0.0104486
0.00380736
0.00337231
0.0034326
0.00349103
0.00352816
0.00355145
0.003566
0.00357455
0.00357853
0.00357853