/*--------------------------------*- C++ -*----------------------------------*\
| =========                 |                                                 |
| \\      /  F ield         | OpenFOAM: The Open Source CFD Toolbox           |
|  \\    /   O peration     | Version:  2.1.0                                 |
|   \\  /    A nd           | Web:      www.OpenFOAM.org                      |
|    \\/     M anipulation  |                                                 |
\*---------------------------------------------------------------------------*/
FoamFile
{
    version     2.0;
    format      ascii;
    class       volScalarField;
    location    "0.25";
    object      nut;
}
// * * * * * * * * * * * * * * * * * * * * * * * * * * * * * * * * * * * * * //

dimensions      [0 2 -1 0 0 0 0];

internalField   nonuniform List<scalar> 
6400
(
6.82547e-06
6.84101e-06
6.85132e-06
6.86408e-06
6.87647e-06
6.8918e-06
6.90439e-06
6.92099e-06
6.93412e-06
6.95133e-06
6.96527e-06
6.98281e-06
6.99771e-06
7.01553e-06
7.03149e-06
7.04966e-06
7.06674e-06
7.08545e-06
7.10375e-06
7.12322e-06
7.14282e-06
7.16323e-06
7.18416e-06
7.2057e-06
7.22802e-06
7.25084e-06
7.27462e-06
7.29886e-06
7.32419e-06
7.35e-06
7.37698e-06
7.40449e-06
7.43325e-06
7.46264e-06
7.49329e-06
7.52468e-06
7.55735e-06
7.5908e-06
7.62544e-06
7.6607e-06
7.69687e-06
7.73337e-06
7.77047e-06
7.80771e-06
7.84521e-06
7.88256e-06
7.91972e-06
7.95625e-06
7.99173e-06
8.02477e-06
8.05633e-06
8.08995e-06
8.12221e-06
8.1557e-06
8.18877e-06
8.22183e-06
8.25501e-06
8.28739e-06
8.31956e-06
8.3506e-06
8.38075e-06
8.4099e-06
8.43872e-06
8.46614e-06
8.49204e-06
8.51635e-06
8.53834e-06
8.55758e-06
8.5762e-06
8.59272e-06
8.60381e-06
8.61372e-06
8.62022e-06
8.62373e-06
8.62481e-06
8.62392e-06
8.62195e-06
8.62058e-06
8.62191e-06
8.62899e-06
8.64555e-06
8.67535e-06
8.71801e-06
8.76517e-06
8.81297e-06
8.87868e-06
8.95637e-06
9.0318e-06
9.0837e-06
9.07478e-06
8.91869e-06
8.47027e-06
7.48793e-06
5.77203e-06
3.44119e-06
2.17362e-06
2.32504e-06
3.7135e-06
3.82755e-06
4.14399e-06
7.23504e-05
7.27454e-05
7.28115e-05
7.30598e-05
7.31353e-05
7.33375e-05
7.3431e-05
7.36031e-05
7.37117e-05
7.38626e-05
7.39807e-05
7.41163e-05
7.42384e-05
7.43622e-05
7.4484e-05
7.45982e-05
7.47169e-05
7.48235e-05
7.49378e-05
7.5039e-05
7.51504e-05
7.52492e-05
7.5357e-05
7.54538e-05
7.55581e-05
7.56526e-05
7.57534e-05
7.58452e-05
7.59414e-05
7.60289e-05
7.61183e-05
7.61989e-05
7.62797e-05
7.63544e-05
7.64281e-05
7.64954e-05
7.65608e-05
7.6619e-05
7.66734e-05
7.67189e-05
7.67572e-05
7.67803e-05
7.67886e-05
7.67776e-05
7.6745e-05
7.66864e-05
7.66004e-05
7.64853e-05
7.63516e-05
7.61141e-05
7.5661e-05
7.51887e-05
7.46777e-05
7.41455e-05
7.35812e-05
7.29901e-05
7.23675e-05
7.17145e-05
7.10265e-05
7.03004e-05
6.95299e-05
6.87131e-05
6.78671e-05
6.69818e-05
6.60503e-05
6.50747e-05
6.40497e-05
6.29651e-05
6.1845e-05
6.06824e-05
5.94322e-05
5.81379e-05
5.67738e-05
5.53427e-05
5.38451e-05
5.2278e-05
5.06438e-05
4.89459e-05
4.71894e-05
4.53827e-05
4.35359e-05
4.16624e-05
3.97571e-05
3.78317e-05
3.58409e-05
3.37631e-05
3.16046e-05
2.93147e-05
2.68933e-05
2.43352e-05
2.16505e-05
1.89109e-05
1.62098e-05
1.3689e-05
1.12902e-05
9.07974e-06
7.34967e-06
6.20794e-06
5.60838e-06
6.82405e-06
0.000110399
0.000110539
0.000110592
0.000110614
0.000110649
0.000110636
0.000110656
0.000110618
0.000110625
0.000110566
0.000110554
0.000110476
0.000110443
0.000110345
0.000110287
0.000110167
0.00011008
0.000109936
0.000109818
0.000109649
0.000109503
0.000109321
0.000109152
0.000108952
0.000108761
0.000108541
0.000108328
0.00010809
0.000107855
0.000107599
0.000107344
0.00010707
0.000106792
0.00010649
0.000106179
0.000105843
0.000105493
0.000105114
0.000104717
0.000104296
0.000103852
0.000103385
0.000102884
0.000102349
0.000101773
0.000101149
0.000100445
9.92693e-05
9.8084e-05
9.68533e-05
9.56105e-05
9.43344e-05
9.30312e-05
9.17e-05
9.03425e-05
8.89565e-05
8.75315e-05
8.6087e-05
8.4604e-05
8.30979e-05
8.15631e-05
7.99826e-05
7.83688e-05
7.67437e-05
7.50542e-05
7.33187e-05
7.15632e-05
6.97538e-05
6.79239e-05
6.60481e-05
6.41413e-05
6.21996e-05
6.02225e-05
5.82092e-05
5.61602e-05
5.40746e-05
5.19541e-05
4.98006e-05
4.76173e-05
4.54076e-05
4.3176e-05
4.09262e-05
3.86648e-05
3.64002e-05
3.41531e-05
3.19364e-05
2.97574e-05
2.76288e-05
2.55506e-05
2.35316e-05
2.15452e-05
1.96116e-05
1.77053e-05
1.57442e-05
1.37501e-05
1.17685e-05
9.99368e-06
8.49981e-06
8.01613e-06
1.12226e-05
0.000130781
0.000130358
0.000130193
0.00012982
0.000129651
0.000129261
0.000129064
0.000128661
0.000128426
0.00012801
0.000127732
0.000127301
0.00012698
0.000126528
0.000126161
0.000125683
0.000125267
0.000124755
0.000124283
0.000123652
0.000122726
0.00012177
0.000120804
0.000119813
0.000118819
0.0001178
0.000116777
0.000115727
0.000114673
0.000113593
0.000112507
0.000111397
0.000110279
0.000109138
0.000107986
0.000106811
0.000105625
0.000104417
0.000103195
0.000101953
0.000100697
9.94186e-05
9.81262e-05
9.68154e-05
9.54898e-05
9.41488e-05
9.27947e-05
9.14354e-05
9.00674e-05
8.86846e-05
8.72949e-05
8.58868e-05
8.44632e-05
8.30027e-05
8.15324e-05
8.00582e-05
7.85146e-05
7.69683e-05
7.53647e-05
7.37355e-05
7.20574e-05
7.03411e-05
6.85898e-05
6.67995e-05
6.49722e-05
6.31134e-05
6.12305e-05
5.93215e-05
5.74016e-05
5.54689e-05
5.35387e-05
5.16118e-05
4.96989e-05
4.78034e-05
4.59332e-05
4.40919e-05
4.2286e-05
4.0517e-05
3.87884e-05
3.70987e-05
3.54477e-05
3.38303e-05
3.22378e-05
3.06756e-05
2.91432e-05
2.76039e-05
2.60849e-05
2.45557e-05
2.30277e-05
2.14813e-05
1.99241e-05
1.83424e-05
1.67347e-05
1.50794e-05
1.33833e-05
1.17507e-05
1.03333e-05
9.63956e-06
1.18235e-05
1.19681e-05
0.000130376
0.000130262
0.000129916
0.000129589
0.000128769
0.000128046
0.000127093
0.000126205
0.000125206
0.00012423
0.000123204
0.000122171
0.000121118
0.00012004
0.000118959
0.000117842
0.00011673
0.000115579
0.000114433
0.000113254
0.000112085
0.000110887
0.000109688
0.000108467
0.000107247
0.000106001
0.000104761
0.000103499
0.000102242
0.000100966
9.96938e-05
9.84061e-05
9.71202e-05
9.58214e-05
9.45227e-05
9.32115e-05
9.19013e-05
9.05818e-05
8.92545e-05
8.7927e-05
8.66121e-05
8.52782e-05
8.39499e-05
8.26184e-05
8.12885e-05
7.99594e-05
7.86317e-05
7.7305e-05
7.5975e-05
7.46349e-05
7.32858e-05
7.19205e-05
7.05415e-05
6.91426e-05
6.77296e-05
6.6296e-05
6.48428e-05
6.33736e-05
6.18826e-05
6.03798e-05
5.88619e-05
5.73368e-05
5.58082e-05
5.42792e-05
5.2756e-05
5.12414e-05
4.97403e-05
4.82538e-05
4.67856e-05
4.5332e-05
4.39053e-05
4.24995e-05
4.11056e-05
3.97372e-05
3.83805e-05
3.70438e-05
3.57147e-05
3.43976e-05
3.30813e-05
3.17695e-05
3.04528e-05
2.91339e-05
2.78119e-05
2.64867e-05
2.51583e-05
2.38346e-05
2.25141e-05
2.12021e-05
1.99076e-05
1.86357e-05
1.73963e-05
1.61935e-05
1.50422e-05
1.39406e-05
1.29211e-05
1.21512e-05
1.19878e-05
1.36552e-05
1.36854e-05
1.40332e-05
0.000116776
0.000116034
0.00011554
0.000114862
0.000113915
0.000112932
0.000111844
0.000110736
0.000109596
0.00010843
0.000107266
0.000106069
0.000104891
0.000103675
0.000102487
0.00010126
0.000100066
9.88436e-05
9.76335e-05
9.6426e-05
9.52261e-05
9.40195e-05
9.28191e-05
9.16107e-05
9.04126e-05
8.91962e-05
8.79957e-05
8.67749e-05
8.55722e-05
8.43596e-05
8.31629e-05
8.19596e-05
8.07705e-05
7.95772e-05
7.8396e-05
7.72111e-05
7.60396e-05
7.48701e-05
7.37162e-05
7.25666e-05
7.14328e-05
7.03031e-05
6.9188e-05
6.80798e-05
6.69846e-05
6.58949e-05
6.48143e-05
6.3735e-05
6.26602e-05
6.15817e-05
6.0502e-05
5.94128e-05
5.83181e-05
5.72102e-05
5.6094e-05
5.49674e-05
5.38397e-05
5.26922e-05
5.1543e-05
5.03838e-05
4.9223e-05
4.8057e-05
4.68922e-05
4.57266e-05
4.45635e-05
4.34021e-05
4.22443e-05
4.10902e-05
3.99413e-05
3.87976e-05
3.76637e-05
3.65373e-05
3.54227e-05
3.43183e-05
3.32251e-05
3.21471e-05
3.10831e-05
3.00361e-05
2.90053e-05
2.79985e-05
2.70096e-05
2.60446e-05
2.50992e-05
2.41783e-05
2.32815e-05
2.24027e-05
2.1547e-05
2.07129e-05
1.99121e-05
1.91448e-05
1.84265e-05
1.77673e-05
1.71917e-05
1.67476e-05
1.6556e-05
1.65127e-05
1.59546e-05
1.57165e-05
1.56931e-05
1.31562e-05
0.000100404
9.91736e-05
9.86127e-05
9.7698e-05
9.6815e-05
9.5737e-05
9.4734e-05
9.35959e-05
9.25438e-05
9.13875e-05
9.03146e-05
8.91562e-05
8.80752e-05
8.69225e-05
8.58407e-05
8.46991e-05
8.36234e-05
8.24981e-05
8.14331e-05
8.03293e-05
7.92769e-05
7.82001e-05
7.71685e-05
7.6124e-05
7.51184e-05
7.40959e-05
7.3117e-05
7.2127e-05
7.11772e-05
7.02237e-05
6.93049e-05
6.83851e-05
6.74944e-05
6.66034e-05
6.57355e-05
6.48623e-05
6.40129e-05
6.31691e-05
6.23483e-05
6.15248e-05
6.07243e-05
5.99197e-05
5.91367e-05
5.83493e-05
5.75787e-05
5.68025e-05
5.60354e-05
5.52607e-05
5.44889e-05
5.37071e-05
5.2923e-05
5.21269e-05
5.13264e-05
5.05145e-05
4.96931e-05
4.88594e-05
4.80213e-05
4.71754e-05
4.63331e-05
4.54865e-05
4.46471e-05
4.38108e-05
4.2989e-05
4.2178e-05
4.13825e-05
4.05994e-05
3.984e-05
3.90983e-05
3.83791e-05
3.76803e-05
3.70018e-05
3.63441e-05
3.57082e-05
3.5093e-05
3.44992e-05
3.39239e-05
3.33649e-05
3.25088e-05
3.16244e-05
3.07252e-05
2.98452e-05
2.89625e-05
2.80915e-05
2.72222e-05
2.63701e-05
2.55265e-05
2.46918e-05
2.3874e-05
2.30669e-05
2.22811e-05
2.15174e-05
2.07904e-05
2.01064e-05
1.94761e-05
1.8928e-05
1.85403e-05
1.82879e-05
1.81979e-05
1.88804e-05
1.48485e-05
8.66125e-05
8.504e-05
8.45358e-05
8.35537e-05
8.28516e-05
8.18283e-05
8.10479e-05
8.00318e-05
7.92228e-05
7.82346e-05
7.74192e-05
7.64632e-05
7.56506e-05
7.47251e-05
7.39186e-05
7.30186e-05
7.22224e-05
7.13423e-05
7.05603e-05
6.96909e-05
6.89204e-05
6.80781e-05
6.73032e-05
6.64775e-05
6.54225e-05
6.41792e-05
6.30594e-05
6.1887e-05
6.08365e-05
5.9741e-05
5.87672e-05
5.77551e-05
5.68625e-05
5.59366e-05
5.51266e-05
5.42864e-05
5.35576e-05
5.28045e-05
5.21614e-05
5.14976e-05
5.09352e-05
5.03498e-05
4.98554e-05
4.93403e-05
4.89036e-05
4.84462e-05
4.80532e-05
4.76406e-05
4.72812e-05
4.69008e-05
4.65661e-05
4.62097e-05
4.58966e-05
4.55554e-05
4.52578e-05
4.4929e-05
4.46379e-05
4.4314e-05
4.40184e-05
4.36924e-05
4.33825e-05
4.30473e-05
4.27199e-05
4.23606e-05
4.20126e-05
4.16639e-05
4.1289e-05
4.09133e-05
4.05351e-05
4.01437e-05
3.97571e-05
3.93543e-05
3.89588e-05
3.85484e-05
3.81438e-05
3.77271e-05
3.73118e-05
3.68831e-05
3.64507e-05
3.60028e-05
3.55444e-05
3.50618e-05
3.45601e-05
3.40285e-05
3.34727e-05
3.28818e-05
3.22563e-05
3.15913e-05
3.08838e-05
3.0134e-05
2.93483e-05
2.85407e-05
2.77285e-05
2.69495e-05
2.62753e-05
2.57743e-05
2.53757e-05
2.54848e-05
2.59329e-05
2.02741e-05
7.13207e-05
6.92744e-05
6.84436e-05
6.68936e-05
6.60296e-05
6.45632e-05
6.37091e-05
6.23072e-05
6.14671e-05
6.01318e-05
5.93128e-05
5.80478e-05
5.72581e-05
5.60673e-05
5.53149e-05
5.42028e-05
5.3495e-05
5.24636e-05
5.18043e-05
5.08591e-05
5.02535e-05
4.93997e-05
4.88562e-05
4.80933e-05
4.76163e-05
4.69549e-05
4.65571e-05
4.59967e-05
4.56763e-05
4.52128e-05
4.49649e-05
4.45919e-05
4.44103e-05
4.41208e-05
4.39992e-05
4.37839e-05
4.37185e-05
4.35666e-05
4.3552e-05
4.34552e-05
4.34822e-05
4.34301e-05
4.34872e-05
4.3484e-05
4.35391e-05
4.3592e-05
4.3643e-05
4.36917e-05
4.37758e-05
4.38447e-05
4.39305e-05
4.40006e-05
4.4098e-05
4.41704e-05
4.42817e-05
4.43598e-05
4.44767e-05
4.45632e-05
4.46796e-05
4.47773e-05
4.48963e-05
4.50097e-05
4.5135e-05
4.52627e-05
4.54008e-05
4.55405e-05
4.56931e-05
4.58455e-05
4.60107e-05
4.61733e-05
4.63501e-05
4.65256e-05
4.67136e-05
4.69036e-05
4.71025e-05
4.73053e-05
4.75123e-05
4.77212e-05
4.79315e-05
4.814e-05
4.83423e-05
4.85345e-05
4.87138e-05
4.88736e-05
4.90115e-05
4.9116e-05
4.91831e-05
4.91989e-05
4.91551e-05
4.904e-05
4.88491e-05
4.85781e-05
4.82301e-05
4.78192e-05
4.73677e-05
4.69503e-05
4.67379e-05
4.68303e-05
4.72195e-05
3.92339e-05
5.74667e-05
5.57194e-05
5.50259e-05
5.37257e-05
5.31024e-05
5.18771e-05
5.13212e-05
5.01794e-05
4.96916e-05
4.86413e-05
4.82179e-05
4.72661e-05
4.69032e-05
4.60549e-05
4.57487e-05
4.50068e-05
4.47529e-05
4.41181e-05
4.39109e-05
4.33815e-05
4.32138e-05
4.27863e-05
4.26532e-05
4.23299e-05
4.22294e-05
4.19987e-05
4.19253e-05
4.17816e-05
4.17293e-05
4.16644e-05
4.16406e-05
4.16299e-05
4.16327e-05
4.16651e-05
4.17154e-05
4.17707e-05
4.1864e-05
4.19413e-05
4.2072e-05
4.21725e-05
4.23317e-05
4.24586e-05
4.26379e-05
4.27932e-05
4.29875e-05
4.31713e-05
4.33784e-05
4.35874e-05
4.38118e-05
4.4041e-05
4.42858e-05
4.45328e-05
4.48006e-05
4.50647e-05
4.5356e-05
4.5638e-05
4.59492e-05
4.62509e-05
4.65787e-05
4.6902e-05
4.72448e-05
4.75908e-05
4.79516e-05
4.83204e-05
4.87017e-05
4.90913e-05
4.94944e-05
4.99036e-05
5.03281e-05
5.07577e-05
5.12045e-05
5.16585e-05
5.21313e-05
5.26154e-05
5.31179e-05
5.36353e-05
5.41706e-05
5.4723e-05
5.52941e-05
5.58832e-05
5.64944e-05
5.71258e-05
5.77827e-05
5.84648e-05
5.9179e-05
5.99284e-05
6.07172e-05
6.15495e-05
6.24293e-05
6.33614e-05
6.43523e-05
6.54093e-05
6.65413e-05
6.77568e-05
6.90632e-05
7.04563e-05
7.18922e-05
7.3324e-05
7.4055e-05
6.56525e-05
6.03034e-05
5.84683e-05
5.77372e-05
5.63669e-05
5.56988e-05
5.44093e-05
5.38012e-05
5.26016e-05
5.20533e-05
5.09504e-05
5.0463e-05
4.94629e-05
4.90399e-05
4.81427e-05
4.77877e-05
4.69923e-05
4.67063e-05
4.60123e-05
4.57942e-05
4.52048e-05
4.50371e-05
4.45528e-05
4.44302e-05
4.40457e-05
4.39613e-05
4.3668e-05
4.36151e-05
4.34039e-05
4.33761e-05
4.32387e-05
4.323e-05
4.31576e-05
4.31623e-05
4.31511e-05
4.31683e-05
4.31976e-05
4.32237e-05
4.32878e-05
4.33496e-05
4.34281e-05
4.35139e-05
4.36089e-05
4.37169e-05
4.38267e-05
4.3954e-05
4.40812e-05
4.42261e-05
4.43689e-05
4.45314e-05
4.46876e-05
4.48685e-05
4.50375e-05
4.52369e-05
4.54199e-05
4.56359e-05
4.58347e-05
4.60652e-05
4.62813e-05
4.65235e-05
4.67595e-05
4.70149e-05
4.72728e-05
4.75425e-05
4.78207e-05
4.81089e-05
4.84047e-05
4.8712e-05
4.90246e-05
4.93501e-05
4.96799e-05
5.00237e-05
5.03727e-05
5.07368e-05
5.11095e-05
5.14979e-05
5.18974e-05
5.23134e-05
5.27427e-05
5.31898e-05
5.36524e-05
5.4135e-05
5.46352e-05
5.51587e-05
5.57046e-05
5.62793e-05
5.68821e-05
5.75176e-05
5.81873e-05
5.89011e-05
5.96598e-05
6.04711e-05
6.1338e-05
6.22717e-05
6.32811e-05
6.43852e-05
6.56191e-05
6.70107e-05
6.8545e-05
6.97494e-05
6.24132e-05
8.00107e-05
7.79164e-05
7.70622e-05
7.54639e-05
7.45748e-05
7.30712e-05
7.21521e-05
7.07364e-05
6.97984e-05
6.8471e-05
6.75201e-05
6.62607e-05
6.53465e-05
6.41513e-05
6.32813e-05
6.21564e-05
6.13396e-05
6.02907e-05
5.95334e-05
5.85642e-05
5.78696e-05
5.69827e-05
5.63525e-05
5.55476e-05
5.49803e-05
5.42548e-05
5.37448e-05
5.30943e-05
5.26383e-05
5.20559e-05
5.16477e-05
5.11264e-05
5.07607e-05
5.02963e-05
4.99688e-05
4.9557e-05
4.92645e-05
4.89018e-05
4.86426e-05
4.83232e-05
4.80972e-05
4.78214e-05
4.76294e-05
4.73933e-05
4.72306e-05
4.70266e-05
4.68876e-05
4.67088e-05
4.65867e-05
4.64253e-05
4.63143e-05
4.61625e-05
4.60582e-05
4.59092e-05
4.57951e-05
4.56501e-05
4.55519e-05
4.54208e-05
4.53008e-05
4.51582e-05
4.50374e-05
4.4912e-05
4.47792e-05
4.46554e-05
4.45272e-05
4.44016e-05
4.42788e-05
4.41528e-05
4.4032e-05
4.39065e-05
4.37876e-05
4.36629e-05
4.35385e-05
4.3404e-05
4.32684e-05
4.31206e-05
4.29694e-05
4.28031e-05
4.26303e-05
4.24394e-05
4.22388e-05
4.20185e-05
4.17891e-05
4.15415e-05
4.12851e-05
4.10167e-05
4.07405e-05
4.0458e-05
4.01621e-05
3.98582e-05
3.95474e-05
3.92439e-05
3.89482e-05
3.86832e-05
3.84772e-05
3.83696e-05
3.84685e-05
3.88671e-05
3.963e-05
3.36325e-05
9.20937e-05
9.06674e-05
9.01462e-05
8.92094e-05
8.84751e-05
8.74696e-05
8.66486e-05
8.56361e-05
8.4786e-05
8.37961e-05
8.29459e-05
8.19868e-05
8.11492e-05
8.02237e-05
7.9404e-05
7.85132e-05
7.77146e-05
7.68585e-05
7.60826e-05
7.52604e-05
7.45075e-05
7.37176e-05
7.29872e-05
7.22255e-05
7.15167e-05
7.07717e-05
7.00828e-05
6.93642e-05
6.86791e-05
6.79732e-05
6.7292e-05
6.6593e-05
6.59128e-05
6.52176e-05
6.45384e-05
6.38483e-05
6.31697e-05
6.24726e-05
6.17676e-05
6.10459e-05
6.03236e-05
5.94137e-05
5.85449e-05
5.76652e-05
5.68405e-05
5.60053e-05
5.52246e-05
5.44308e-05
5.36883e-05
5.29328e-05
5.2224e-05
5.14998e-05
5.08175e-05
5.01173e-05
4.94563e-05
4.87757e-05
4.81309e-05
4.74672e-05
4.68307e-05
4.61744e-05
4.55382e-05
4.48889e-05
4.42509e-05
4.35991e-05
4.29508e-05
4.2284e-05
4.16181e-05
4.09301e-05
4.02404e-05
3.95294e-05
3.88029e-05
3.8068e-05
3.73523e-05
3.66069e-05
3.5888e-05
3.51472e-05
3.44312e-05
3.36994e-05
3.29886e-05
3.22681e-05
3.15658e-05
3.0859e-05
3.01617e-05
2.94692e-05
2.87887e-05
2.81212e-05
2.74668e-05
2.68322e-05
2.62143e-05
2.56211e-05
2.50505e-05
2.45009e-05
2.39976e-05
2.35648e-05
2.3237e-05
2.29624e-05
2.30519e-05
2.3319e-05
2.41161e-05
1.87221e-05
0.000107345
0.000106247
0.000105746
0.000104937
0.000104081
0.000103074
0.000102086
0.000100997
9.99521e-05
9.88361e-05
9.77752e-05
9.66517e-05
9.55853e-05
9.4463e-05
9.33967e-05
9.22818e-05
9.12205e-05
9.01182e-05
8.90663e-05
8.79805e-05
8.69423e-05
8.5878e-05
8.48585e-05
8.38169e-05
8.28151e-05
8.17975e-05
8.08122e-05
7.9816e-05
7.88458e-05
7.78665e-05
7.69078e-05
7.59406e-05
7.49905e-05
7.40319e-05
7.30892e-05
7.21383e-05
7.11998e-05
7.02477e-05
6.93051e-05
6.83502e-05
6.74067e-05
6.6449e-05
6.54988e-05
6.45348e-05
6.3577e-05
6.2615e-05
6.16447e-05
6.06705e-05
5.96899e-05
5.87005e-05
5.77049e-05
5.66987e-05
5.5686e-05
5.46617e-05
5.36307e-05
5.2589e-05
5.15432e-05
5.04891e-05
4.94339e-05
4.83746e-05
4.73193e-05
4.62689e-05
4.5225e-05
4.41837e-05
4.31535e-05
4.21319e-05
4.11273e-05
4.01372e-05
3.91678e-05
3.82179e-05
3.72973e-05
3.63999e-05
3.55304e-05
3.46894e-05
3.38762e-05
3.30947e-05
3.2336e-05
3.16041e-05
3.08946e-05
3.02085e-05
2.95439e-05
2.88987e-05
2.8266e-05
2.76547e-05
2.66814e-05
2.5742e-05
2.48074e-05
2.39127e-05
2.30361e-05
2.22197e-05
2.14272e-05
2.06994e-05
2.00017e-05
1.93642e-05
1.87675e-05
1.83393e-05
1.81275e-05
1.7926e-05
1.86638e-05
1.44223e-05
0.000124195
0.00012355
0.000123133
0.000122562
0.000121667
0.000120763
0.000119719
0.000118676
0.000117577
0.000116468
0.000115345
0.000114199
0.00011306
0.00011189
0.000110738
0.000109554
0.000108393
0.0001072
0.000106033
0.000104838
0.000103668
0.000102477
0.000101314
0.000100134
9.89681e-05
9.78103e-05
9.66595e-05
9.55023e-05
9.43522e-05
9.31943e-05
9.20421e-05
9.08803e-05
8.97233e-05
8.85542e-05
8.73896e-05
8.62114e-05
8.50346e-05
8.38397e-05
8.26472e-05
8.14378e-05
8.02294e-05
7.9004e-05
7.77768e-05
7.65352e-05
7.52904e-05
7.40337e-05
7.27739e-05
7.15039e-05
7.02334e-05
6.8954e-05
6.7674e-05
6.63878e-05
6.51001e-05
6.38077e-05
6.25131e-05
6.12146e-05
5.99157e-05
5.86145e-05
5.73136e-05
5.60107e-05
5.47087e-05
5.34138e-05
5.2122e-05
5.08378e-05
4.95634e-05
4.83006e-05
4.70451e-05
4.58011e-05
4.45622e-05
4.3333e-05
4.21069e-05
4.08872e-05
3.96691e-05
3.84548e-05
3.72409e-05
3.60298e-05
3.48227e-05
3.36195e-05
3.24215e-05
3.12252e-05
3.00337e-05
2.88495e-05
2.76733e-05
2.65148e-05
2.53671e-05
2.42396e-05
2.31302e-05
2.20461e-05
2.09855e-05
1.99507e-05
1.89446e-05
1.79843e-05
1.7121e-05
1.63591e-05
1.58648e-05
1.60284e-05
1.60342e-05
1.58241e-05
1.58458e-05
1.31924e-05
0.000136994
0.000136988
0.000136712
0.000136478
0.000135722
0.000135077
0.000134184
0.000133368
0.000132429
0.000131526
0.000130562
0.000129601
0.000128615
0.000127612
0.000126601
0.000125564
0.000124528
0.00012346
0.000122398
0.000121303
0.000120215
0.000119096
0.000117985
0.000116846
0.00011571
0.000114563
0.000113418
0.000112254
0.000111094
0.000109919
0.000108746
0.000107558
0.000106371
0.000105169
0.000103965
0.000102745
0.00010152
0.000100275
9.90223e-05
9.77476e-05
9.64616e-05
9.5153e-05
9.38254e-05
9.24715e-05
9.11114e-05
8.97275e-05
8.832e-05
8.68882e-05
8.54417e-05
8.39694e-05
8.24807e-05
8.09708e-05
7.94436e-05
7.78975e-05
7.63352e-05
7.4754e-05
7.31533e-05
7.15329e-05
6.9895e-05
6.82384e-05
6.65678e-05
6.4887e-05
6.31959e-05
6.15072e-05
5.98164e-05
5.81349e-05
5.64606e-05
5.48021e-05
5.31591e-05
5.15363e-05
4.99361e-05
4.83583e-05
4.68056e-05
4.52756e-05
4.37648e-05
4.2271e-05
4.08037e-05
3.93462e-05
3.7891e-05
3.64494e-05
3.5e-05
3.35521e-05
3.2085e-05
3.06082e-05
2.91037e-05
2.7582e-05
2.60316e-05
2.44651e-05
2.28775e-05
2.12823e-05
1.96795e-05
1.80743e-05
1.64929e-05
1.49722e-05
1.35635e-05
1.24851e-05
1.20741e-05
1.35885e-05
1.38145e-05
1.42983e-05
0.000134553
0.00013421
0.000134075
0.000133754
0.000133614
0.000133274
0.000133109
0.000132755
0.000132553
0.000132185
0.000131943
0.000131561
0.000131281
0.000130884
0.000130567
0.000130152
0.000129798
0.000129361
0.000128969
0.000128505
0.000128073
0.00012758
0.000127106
0.000126574
0.000126048
0.00012514
0.000124212
0.000123251
0.000122292
0.00012131
0.000120328
0.000119326
0.000118322
0.0001173
0.000116276
0.000115236
0.000114188
0.000113119
0.000112036
0.00011093
0.000109808
0.00010866
0.000107492
0.000106295
0.000105075
0.000103823
0.000102544
0.00010123
9.98882e-05
9.85115e-05
9.71044e-05
9.56626e-05
9.41888e-05
9.26804e-05
9.11431e-05
8.95755e-05
8.79696e-05
8.63236e-05
8.46632e-05
8.29735e-05
8.1231e-05
7.9472e-05
7.76634e-05
7.58279e-05
7.39416e-05
7.20182e-05
7.00532e-05
6.80559e-05
6.60249e-05
6.39606e-05
6.1873e-05
5.97617e-05
5.76353e-05
5.55011e-05
5.33632e-05
5.12355e-05
4.9119e-05
4.70292e-05
4.49653e-05
4.29404e-05
4.09517e-05
3.90073e-05
3.71031e-05
3.52397e-05
3.34042e-05
3.15911e-05
2.9819e-05
2.80395e-05
2.62593e-05
2.44616e-05
2.26347e-05
2.07568e-05
1.88076e-05
1.6811e-05
1.47961e-05
1.2824e-05
1.11211e-05
1.01151e-05
1.19561e-05
1.20951e-05
0.000112322
0.000112507
0.000112577
0.000112627
0.000112678
0.000112691
0.000112729
0.000112717
0.000112742
0.00011271
0.000112721
0.000112672
0.000112664
0.000112599
0.000112571
0.000112488
0.000112437
0.000112336
0.00011226
0.000112139
0.000112036
0.000111893
0.000111762
0.000111595
0.000111436
0.000111248
0.000111072
0.000110872
0.00011068
0.000110468
0.000110261
0.000110036
0.000109814
0.000109577
0.00010934
0.000109083
0.000108819
0.000108537
0.000108245
0.000107934
0.000107608
0.00010726
0.000106893
0.000106499
0.000106078
0.000105632
0.000105159
0.000104654
0.000104124
0.00010356
0.000102954
0.000102304
0.000101601
0.000100838
9.97866e-05
9.84744e-05
9.71078e-05
9.56964e-05
9.42361e-05
9.27273e-05
9.11653e-05
8.95644e-05
8.79133e-05
8.62254e-05
8.44908e-05
8.27281e-05
8.08964e-05
7.90174e-05
7.71138e-05
7.5134e-05
7.31066e-05
7.1036e-05
6.89048e-05
6.67362e-05
6.4498e-05
6.22204e-05
5.98733e-05
5.7475e-05
5.50081e-05
5.24821e-05
4.98914e-05
4.72442e-05
4.45472e-05
4.18122e-05
3.90555e-05
3.6295e-05
3.35568e-05
3.0864e-05
2.82417e-05
2.57093e-05
2.32607e-05
2.08945e-05
1.86036e-05
1.63229e-05
1.41523e-05
1.21382e-05
1.03272e-05
8.93207e-06
8.4045e-06
1.15193e-05
7.26519e-05
7.30514e-05
7.31279e-05
7.33717e-05
7.34538e-05
7.36529e-05
7.37507e-05
7.3921e-05
7.40328e-05
7.41836e-05
7.43046e-05
7.44416e-05
7.45671e-05
7.4694e-05
7.482e-05
7.49388e-05
7.50623e-05
7.51741e-05
7.52927e-05
7.53979e-05
7.55104e-05
7.56094e-05
7.57154e-05
7.58094e-05
7.59101e-05
7.60016e-05
7.60996e-05
7.61893e-05
7.62848e-05
7.6373e-05
7.64655e-05
7.65514e-05
7.664e-05
7.6722e-05
7.68043e-05
7.68812e-05
7.69587e-05
7.70309e-05
7.71025e-05
7.7169e-05
7.72335e-05
7.72922e-05
7.73473e-05
7.73957e-05
7.74387e-05
7.74742e-05
7.75022e-05
7.75204e-05
7.75239e-05
7.75109e-05
7.74785e-05
7.74248e-05
7.73467e-05
7.72435e-05
7.71147e-05
7.69688e-05
7.67979e-05
7.66061e-05
7.63808e-05
7.61243e-05
7.58237e-05
7.54377e-05
7.47624e-05
7.40435e-05
7.3258e-05
7.24075e-05
7.14978e-05
7.05329e-05
6.95096e-05
6.84111e-05
6.7247e-05
6.59902e-05
6.46582e-05
6.32724e-05
6.17543e-05
6.01539e-05
5.84402e-05
5.66167e-05
5.46776e-05
5.26184e-05
5.04415e-05
4.81461e-05
4.57404e-05
4.3231e-05
4.06311e-05
3.79561e-05
3.52137e-05
3.24166e-05
2.95667e-05
2.66739e-05
2.36965e-05
2.06055e-05
1.75561e-05
1.46211e-05
1.19511e-05
9.64391e-06
7.78152e-06
6.54293e-06
5.89259e-06
6.74608e-06
6.80515e-06
6.82049e-06
6.82985e-06
6.84292e-06
6.85479e-06
6.87023e-06
6.88256e-06
6.89917e-06
6.91221e-06
6.9294e-06
6.94334e-06
6.96086e-06
6.97579e-06
6.99356e-06
7.00951e-06
7.02756e-06
7.04452e-06
7.06296e-06
7.08092e-06
7.09989e-06
7.11889e-06
7.13858e-06
7.1587e-06
7.17934e-06
7.20071e-06
7.22252e-06
7.24524e-06
7.26839e-06
7.2926e-06
7.31728e-06
7.34313e-06
7.36956e-06
7.39728e-06
7.42572e-06
7.45555e-06
7.48624e-06
7.5184e-06
7.55155e-06
7.58624e-06
7.62212e-06
7.65967e-06
7.6986e-06
7.73929e-06
7.78149e-06
7.82549e-06
7.87107e-06
7.91841e-06
7.96734e-06
8.01796e-06
8.07022e-06
8.12437e-06
8.18041e-06
8.23863e-06
8.2992e-06
8.36236e-06
8.42815e-06
8.49613e-06
8.56646e-06
8.63803e-06
8.71128e-06
8.78468e-06
8.85847e-06
8.93229e-06
9.01002e-06
9.0898e-06
9.17279e-06
9.26012e-06
9.3512e-06
9.44664e-06
9.54553e-06
9.64907e-06
9.75584e-06
9.86881e-06
9.9878e-06
1.01068e-05
1.0232e-05
1.03607e-05
1.04918e-05
1.06275e-05
1.07648e-05
1.09058e-05
1.10486e-05
1.11936e-05
1.13399e-05
1.14856e-05
1.16266e-05
1.17479e-05
1.18245e-05
1.17956e-05
1.15413e-05
1.08768e-05
9.58733e-06
7.68923e-06
5.50363e-06
3.60539e-06
2.60246e-06
2.53974e-06
3.91729e-06
4.02147e-06
4.33297e-06
1.08666e-05
2.05749e-06
2.58937e-06
3.49241e-06
4.5016e-06
5.53343e-06
6.5223e-06
7.32544e-06
8.08787e-06
8.81342e-06
9.45732e-06
1.00322e-05
1.0938e-05
1.24741e-05
1.46818e-05
1.73166e-05
1.73664e-05
1.53846e-05
1.03773e-05
3.93968e-06
5.82943e-06
2.16486e-06
2.44668e-06
3.13912e-06
3.99651e-06
4.88291e-06
5.72264e-06
6.48632e-06
7.30147e-06
8.13383e-06
8.9566e-06
9.8846e-06
1.13708e-05
1.33643e-05
1.60796e-05
1.79118e-05
1.72402e-05
1.45459e-05
9.63694e-06
3.87692e-06
4.90314e-06
2.67082e-06
2.87548e-06
3.39086e-06
4.02509e-06
4.7374e-06
5.42079e-06
6.19549e-06
7.05404e-06
8.10293e-06
9.08838e-06
1.04114e-05
1.21726e-05
1.47005e-05
1.7396e-05
1.80031e-05
1.69143e-05
1.38692e-05
9.09474e-06
3.67559e-06
5.02482e-06
3.42269e-06
3.62915e-06
3.87259e-06
4.35597e-06
4.87348e-06
5.55511e-06
6.41266e-06
7.48492e-06
9.03166e-06
1.04837e-05
1.20831e-05
1.45905e-05
1.74769e-05
1.88023e-05
1.85711e-05
1.68118e-05
1.32144e-05
8.17857e-06
3.06441e-06
5.67814e-06
4.47661e-06
4.61661e-06
4.61102e-06
5.15236e-06
5.57671e-06
6.40046e-06
7.54374e-06
9.1503e-06
1.20467e-05
1.38269e-05
1.59133e-05
1.85896e-05
1.99972e-05
2.01842e-05
1.91215e-05
1.6289e-05
1.25651e-05
6.83876e-06
2.1655e-06
6.88522e-06
5.95245e-06
6.01611e-06
5.93263e-06
6.62315e-06
7.47764e-06
8.90553e-06
1.09665e-05
1.50832e-05
1.83547e-05
2.00697e-05
2.16404e-05
2.27721e-05
2.27042e-05
2.16546e-05
1.87348e-05
1.57848e-05
1.15076e-05
5.227e-06
1.36352e-06
8.97256e-06
8.50853e-06
8.69497e-06
9.1668e-06
1.07479e-05
1.31098e-05
1.63725e-05
2.11687e-05
2.77834e-05
2.87647e-05
2.86553e-05
2.81374e-05
2.69374e-05
2.41941e-05
2.11384e-05
1.84108e-05
1.46213e-05
1.01834e-05
4.03361e-06
7.47505e-07
1.43869e-05
1.57465e-05
1.69319e-05
1.91971e-05
2.27152e-05
2.6986e-05
3.25206e-05
3.94545e-05
3.86371e-05
3.6488e-05
3.31898e-05
3.06157e-05
2.71367e-05
2.42101e-05
2.08859e-05
1.69826e-05
1.27755e-05
8.97465e-06
3.35477e-06
3.78651e-07
3.20294e-05
3.49712e-05
3.62187e-05
3.86278e-05
4.31036e-05
4.75047e-05
4.93496e-05
4.56139e-05
4.19965e-05
3.86073e-05
3.47713e-05
3.15789e-05
2.72744e-05
2.34471e-05
1.85782e-05
1.40066e-05
1.0865e-05
8.19603e-06
3.42695e-06
2.36072e-07
5.23983e-05
5.52783e-05
5.56019e-05
5.71687e-05
6.17669e-05
5.68166e-05
5.32029e-05
4.83524e-05
4.48536e-05
4.01065e-05
3.6435e-05
3.16068e-05
2.71076e-05
1.99998e-05
1.4233e-05
1.05529e-05
9.17747e-06
7.74981e-06
3.71887e-06
2.71201e-07
5.00157e-05
5.27958e-05
5.32729e-05
5.4986e-05
5.99135e-05
5.55105e-05
5.22323e-05
4.73665e-05
4.42535e-05
3.95015e-05
3.63852e-05
3.1451e-05
2.79549e-05
2.08539e-05
1.51863e-05
1.09407e-05
9.06234e-06
7.43099e-06
3.30396e-06
2.35881e-07
2.7509e-05
3.04707e-05
3.19046e-05
3.44369e-05
3.88875e-05
4.36118e-05
4.77646e-05
4.41341e-05
4.11158e-05
3.73128e-05
3.45877e-05
3.06718e-05
2.78742e-05
2.37579e-05
1.93774e-05
1.46658e-05
1.09498e-05
7.71147e-06
2.78966e-06
2.01688e-07
1.29086e-05
1.37576e-05
1.46817e-05
1.67287e-05
1.98707e-05
2.39503e-05
2.91797e-05
3.63181e-05
3.90322e-05
3.53945e-05
3.33237e-05
2.98428e-05
2.70695e-05
2.39701e-05
2.09409e-05
1.73072e-05
1.29842e-05
8.82328e-06
3.01012e-06
2.6158e-07
8.59592e-06
8.04977e-06
8.17937e-06
8.53449e-06
9.90426e-06
1.20029e-05
1.49431e-05
1.95374e-05
2.60386e-05
2.73138e-05
2.77987e-05
2.7669e-05
2.68632e-05
2.42089e-05
2.10972e-05
1.83374e-05
1.46921e-05
1.01387e-05
3.79698e-06
5.27773e-07
6.72652e-06
5.78654e-06
5.84818e-06
5.79525e-06
6.45911e-06
7.28325e-06
8.62897e-06
1.05619e-05
1.45501e-05
1.78944e-05
1.97149e-05
2.1597e-05
2.27426e-05
2.28487e-05
2.19149e-05
1.86813e-05
1.56464e-05
1.14292e-05
5.25725e-06
1.20809e-06
5.61656e-06
4.4225e-06
4.56005e-06
4.59872e-06
5.14054e-06
5.61035e-06
6.4373e-06
7.56486e-06
9.1358e-06
1.21191e-05
1.39144e-05
1.62146e-05
1.89003e-05
2.0294e-05
2.04504e-05
1.93437e-05
1.62192e-05
1.23754e-05
6.84827e-06
2.11284e-06
5.03856e-06
3.42569e-06
3.63094e-06
3.91549e-06
4.41475e-06
4.97552e-06
5.68981e-06
6.56048e-06
7.62723e-06
9.25924e-06
1.07823e-05
1.24848e-05
1.51257e-05
1.79729e-05
1.9196e-05
1.88626e-05
1.69183e-05
1.31012e-05
8.08722e-06
3.10144e-06
5.0591e-06
2.72675e-06
2.91908e-06
3.44774e-06
4.10335e-06
4.8325e-06
5.56258e-06
6.36825e-06
7.24053e-06
8.31217e-06
9.41014e-06
1.0855e-05
1.26427e-05
1.53805e-05
1.79061e-05
1.83261e-05
1.71271e-05
1.38178e-05
8.96795e-06
3.7215e-06
6.13608e-06
2.24043e-06
2.5265e-06
3.2278e-06
4.09168e-06
5.00095e-06
5.86863e-06
6.69099e-06
7.5396e-06
8.39014e-06
9.24977e-06
1.03313e-05
1.18893e-05
1.3899e-05
1.67815e-05
1.82903e-05
1.74562e-05
1.46043e-05
9.57774e-06
3.92779e-06
1.09641e-05
2.14382e-06
2.67165e-06
3.59177e-06
4.61196e-06
5.64734e-06
6.6427e-06
7.48518e-06
8.2939e-06
9.04544e-06
9.72293e-06
1.03948e-05
1.14104e-05
1.3079e-05
1.52638e-05
1.7747e-05
1.75502e-05
1.54549e-05
1.03452e-05
3.98537e-06
1.2342e-06
0.000116559
0.000294187
0.000330906
0.00033481
0.000335356
0.000335357
0.000335342
0.000335343
0.000335345
0.000335345
0.000335343
0.000335342
0.000335357
0.000335356
0.00033481
0.000330906
0.000294187
0.000116559
1.2342e-06
1.36975e-06
6.81658e-05
0.000219581
0.000309502
0.000330908
0.000334527
0.000335273
0.000335315
0.000335296
0.000335287
0.000335287
0.000335296
0.000335315
0.000335273
0.000334527
0.000330908
0.000309502
0.000219581
6.8166e-05
1.36975e-06
1.51339e-06
5.28954e-05
0.000176457
0.000280578
0.000322147
0.000332504
0.000334604
0.0003351
0.000335168
0.000335172
0.000335172