/*--------------------------------*- C++ -*----------------------------------*\
| =========                 |                                                 |
| \\      /  F ield         | OpenFOAM: The Open Source CFD Toolbox           |
|  \\    /   O peration     | Version:  2.1.0                                 |
|   \\  /    A nd           | Web:      www.OpenFOAM.org                      |
|    \\/     M anipulation  |                                                 |
\*---------------------------------------------------------------------------*/
FoamFile
{
    version     2.0;
    format      ascii;
    class       volScalarField;
    location    "0.25";
    object      omega;
}
// * * * * * * * * * * * * * * * * * * * * * * * * * * * * * * * * * * * * * //

dimensions      [0 0 -1 0 0 0 0];

internalField   nonuniform List<scalar> 
6400
(
1572.92
1573.52
1573.36
1572.89
1572.18
1571.64
1570.71
1570.13
1569.12
1568.48
1567.44
1566.73
1565.68
1564.89
1563.85
1562.98
1561.95
1561.03
1560.01
1559.05
1558.05
1557.07
1556.08
1555.09
1554.12
1553.13
1552.17
1551.18
1550.23
1549.25
1548.3
1547.32
1546.38
1545.41
1544.46
1543.49
1542.52
1541.52
1540.5
1539.41
1538.27
1537.01
1535.65
1534.14
1532.48
1530.63
1528.57
1526.26
1523.66
1520.64
1517.29
1513.94
1510.27
1506.52
1502.54
1498.35
1493.98
1489.33
1484.45
1479.26
1473.79
1468
1461.96
1455.58
1448.83
1441.7
1434.13
1426.07
1417.68
1408.82
1399.23
1389.19
1378.53
1367.23
1355.29
1342.71
1329.5
1315.7
1301.39
1286.66
1271.64
1256.42
1240.75
1223.83
1205.1
1185.34
1163.76
1139.12
1109.9
1074.09
1027.8
965.629
879.394
762.613
614.138
528.763
560.586
730.748
887.6
937.524
663.812
663.962
665.092
665.993
667.282
668.575
669.918
671.411
672.818
674.435
675.926
677.638
679.228
681.024
682.724
684.605
686.422
688.396
690.339
692.421
694.506
696.714
698.961
701.324
703.749
706.287
708.907
711.644
714.483
717.448
720.537
723.771
727.15
730.666
734.338
738.166
742.162
746.327
750.671
755.196
759.918
764.836
769.97
775.316
780.888
786.687
792.724
799.005
805.493
812.207
819.158
826.443
833.974
841.829
849.971
858.432
867.224
876.343
885.827
895.671
905.91
916.56
927.66
939.233
951.276
963.691
976.493
989.903
1003.87
1018.48
1033.74
1049.74
1066.51
1084.13
1102.66
1122.17
1142.77
1164.54
1187.61
1212.15
1238.42
1265.44
1293.6
1322.94
1353.2
1383.98
1414.64
1444.22
1471.56
1495.25
1512.22
1519.98
1521.43
1507.2
1472.24
1393.72
1281.04
1145.77
999.805
843.141
486.752
489.829
491.292
494.276
496.263
499.292
501.612
504.694
507.269
510.426
513.23
516.489
519.511
522.896
526.134
529.669
533.126
536.831
540.512
544.408
548.324
552.423
556.578
560.905
565.315
569.893
574.574
579.422
584.392
589.529
594.803
600.243
605.84
611.649
617.645
623.867
630.308
636.998
643.93
651.085
658.485
666.113
674.023
682.201
690.66
699.402
708.422
717.719
727.312
737.187
747.367
757.868
768.676
779.816
791.278
803.077
815.215
827.698
840.536
853.731
867.292
881.222
895.526
910.202
925.267
940.763
956.701
972.875
989.366
1006.06
1022.97
1040.02
1057.19
1074.43
1091.7
1109
1126.3
1143.62
1160.97
1178.37
1195.85
1213.43
1231.17
1249.09
1267.14
1285.16
1302.99
1320.1
1335.91
1349.27
1356.58
1359.2
1352.91
1328.01
1281.19
1202.52
1094.46
953.338
791.386
624.077
444.952
449.893
452.075
456.415
459.181
463.495
466.684
471.011
474.554
478.949
482.809
487.319
491.48
496.147
500.601
505.463
510.211
515.297
520.343
525.674
531.019
536.613
542.261
548.136
554.1
560.277
566.569
573.069
579.706
586.549
593.549
600.756
608.135
615.711
623.464
631.413
639.535
647.841
656.322
665.022
673.916
683.04
692.31
701.761
711.361
721.11
730.993
740.998
751.12
761.337
771.65
782.046
792.514
803.047
813.633
824.258
834.903
845.57
856.225
866.872
877.48
888.041
898.531
908.926
919.216
929.424
939.503
949.443
959.225
968.825
978.229
987.383
996.26
1004.83
1013.03
1020.82
1028.12
1034.88
1040.97
1046.31
1050.75
1054.14
1055.87
1056.53
1055.95
1052.5
1047.31
1038.87
1027.53
1012.09
992.318
966.978
934.981
894.417
843.357
779.649
705.042
623.869
549.114
494.601
440.889
446.929
449.552
454.785
458.084
463.266
467.046
472.21
476.379
481.577
486.078
491.353
496.151
501.538
506.608
512.133
517.455
523.136
528.697
534.544
540.33
546.352
552.353
558.548
564.752
571.117
577.51
584.04
590.609
597.292
604.015
610.833
617.685
624.613
631.569
638.58
645.604
652.659
659.713
666.783
673.835
680.872
687.886
694.873
701.817
708.719
715.567
722.36
729.095
735.763
742.353
748.856
755.255
761.538
767.729
773.813
779.745
785.516
791.085
796.43
801.506
806.286
810.721
814.782
818.413
821.586
824.239
826.343
827.799
828.503
828.741
828.336
826.885
824.877
821.815
818.068
813.252
807.648
800.953
793.376
784.692
775.043
764.4
752.777
740.115
726.577
712.094
696.728
680.451
663.189
644.792
624.971
603.449
579.542
552.442
522.816
491.719
462.984
442.871
432.14
438.618
444.447
446.955
451.968
455.074
459.999
463.504
468.346
472.142
476.928
480.948
485.703
489.9
494.644
498.981
503.726
508.172
512.921
517.45
522.205
526.793
531.553
536.181
540.931
545.575
550.295
554.919
559.581
564.173
568.805
573.352
577.905
582.355
586.78
591.083
595.326
599.428
603.435
607.281
611.011
614.574
617.984
621.215
624.267
627.126
629.787
632.236
634.474
636.476
638.249
639.762
641.019
641.981
642.651
643.017
643.163
643.134
642.553
641.724
640.404
638.699
636.527
633.898
630.817
627.251
623.248
618.767
613.87
608.53
602.813
596.751
590.365
583.681
576.764
569.595
562.281
554.781
547.223
539.559
531.926
524.282
516.754
509.295
502.009
494.859
487.762
480.748
473.753
466.838
459.859
452.805
445.526
437.943
429.863
421.397
412.96
405.984
402.71
401.914
402.14
416.443
420.975
422.899
426.753
429.057
432.823
435.356
439.007
441.68
445.216
447.975
451.398
454.198
457.509
460.315
463.509
466.287
469.351
472.069
474.986
477.611
480.356
482.842
485.392
487.699
489.999
492.044
494.045
495.827
497.576
499.066
500.475
501.596
502.597
503.289
503.762
503.968
504.022
503.768
503.246
502.505
501.465
500.225
498.694
496.96
494.969
492.755
490.324
487.656
484.797
481.696
478.422
474.909
471.242
467.325
463.253
458.969
454.556
450.007
445.378
440.68
435.966
431.25
426.586
421.966
417.444
413.076
408.891
404.908
401.179
397.656
394.416
391.419
388.727
386.299
384.179
382.313
380.723
379.407
378.352
377.551
376.98
376.645
376.489
376.441
376.523
376.713
376.924
377.136
377.308
377.422
377.503
377.609
378.011
378.948
380.885
383.552
388.561
392.146
393.167
374.272
377.22
378.423
380.792
382.059
384.288
385.532
387.569
388.731
390.547
391.586
393.16
394.039
395.352
396.037
397.046
397.54
398.188
398.487
398.709
398.771
398.742
398.375
397.998
397.262
396.497
395.378
394.222
392.693
391.071
389.091
387.025
384.62
382.142
379.35
376.511
373.404
370.278
366.937
363.614
360.131
356.677
353.13
349.63
346.091
342.613
339.143
335.749
332.393
329.14
325.948
322.884
319.89
317.094
314.387
311.91
309.571
307.493
305.604
303.996
302.626
301.55
300.749
300.326
300.152
300.138
300.603
301.212
302.193
303.378
304.869
306.59
308.574
310.791
313.239
315.905
318.777
321.842
325.109
328.535
332.135
335.855
339.712
343.642
347.668
351.714
355.802
359.86
363.91
367.9
371.877
375.824
379.812
383.876
388.213
393.219
398.991
405.978
411.117
413.108
312.957
313.465
313.597
313.684
313.669
313.528
313.16
312.8
312.098
311.482
310.451
309.55
308.198
306.998
305.336
303.836
301.88
300.084
297.862
295.777
293.322
290.965
288.301
285.754
282.946
280.28
277.434
274.727
271.901
269.219
266.487
263.899
261.322
258.889
256.519
254.294
252.17
250.212
248.397
246.769
245.29
243.995
242.876
241.936
241.182
240.598
240.223
240.042
239.985
240.138
240.496
241.063
241.824
242.785
243.918
245.263
246.78
248.511
250.419
252.537
254.841
257.347
260.047
262.946
266.044
269.343
272.842
276.524
280.419
284.495
288.791
293.276
297.988
302.896
308.037
313.386
318.977
324.787
330.847
337.135
343.681
350.462
357.504
364.783
372.318
380.084
388.087
396.288
404.679
413.214
421.871
430.618
439.47
448.43
457.565
467.064
477.508
489.028
500.19
505.7
236.248
234.078
233.152
231.266
230.161
228.231
226.98
225.024
223.642
221.674
220.204
218.254
216.743
214.843
213.339
211.523
210.072
208.379
207.031
205.503
204.31
202.999
201.998
200.892
200.091
199.229
198.645
198.031
197.682
197.354
197.209
197.153
197.176
197.415
197.688
198.16
198.69
199.391
200.178
201.102
202.139
203.286
204.564
205.937
207.445
209.04
210.773
212.59
214.547
216.592
218.78
221.06
223.487
226.005
228.668
231.428
234.334
237.345
240.502
243.772
247.191
250.729
254.423
258.243
262.225
266.343
270.632
275.068
279.685
284.463
289.436
294.586
299.945
305.502
311.287
317.29
323.545
330.043
336.818
343.868
351.231
358.907
366.936
375.327
384.122
393.341
403.029
413.218
423.96
435.303
447.316
460.07
473.657
488.18
503.758
520.479
538.255
556.635
571.297
577.829
255.894
254.459
253.819
252.484
251.62
250.193
249.129
247.603
246.37
244.75
243.389
241.698
240.244
238.522
237.012
235.299
233.775
232.107
230.611
229.021
227.59
226.104
224.773
223.42
222.218
221.015
219.962
218.922
218.033
217.166
216.456
215.778
215.261
214.787
214.472
214.232
214.123
214.089
214.198
214.4
214.776
215.237
215.872
216.615
217.507
218.515
219.662
220.932
222.343
223.876
225.557
227.357
229.314
231.387
233.623
235.974
238.497
241.143
243.952
246.883
249.982
253.202
256.598
260.116
263.816
267.645
271.659
275.814
280.156
284.657
289.345
294.214
299.278
304.537
310.007
315.69
321.604
327.75
334.152
340.81
347.754
354.985
362.537
370.417
378.658
387.275
396.299
405.755
415.692
426.143
437.163
448.799
461.138
474.264
488.313
503.435
519.728
536.845
551.092
557.578
329.599
331.011
331.541
332.497
332.953
333.69
334.031
334.504
334.708
334.832
334.847
334.713
334.371
334
333.334
332.712
331.744
330.868
329.621
328.499
327.003
325.648
323.934
322.367
320.466
318.705
316.657
314.723
312.542
310.469
308.184
305.999
303.645
301.386
299.002
296.705
294.327
292.025
289.666
287.389
285.104
282.928
280.784
278.755
276.812
275.001
273.304
271.754
270.343
269.1
268.017
267.125
266.414
265.918
265.673
265.585
265.687
266.114
266.702
267.548
268.611
269.881
271.408
273.11
275.078
277.212
279.595
282.153
284.935
287.903
291.052
294.387
297.885
301.586
305.439
309.485
313.683
318.06
322.59
327.286
332.136
337.136
342.265
347.532
352.924
358.448
364.093
369.864
375.744
381.733
387.836
394.102
400.54
407.27
414.454
422.447
431.666
442.322
453.686
459.63
382.287
385.632
387.013
389.738
391.25
393.85
395.407
397.835
399.385
401.647
403.183
405.255
406.723
408.593
409.942
411.597
412.787
414.208
415.206
416.376
417.155
418.058
418.596
419.203
419.501
419.733
419.81
419.816
419.533
419.229
418.641
418.017
417.12
416.175
414.971
413.71
412.207
410.635
408.767
406.793
404.548
402.198
399.6
396.9
393.989
390.988
387.801
384.559
381.162
377.738
374.2
370.666
367.064
363.505
359.931
356.438
352.984
349.645
346.425
343.389
340.534
337.867
335.427
333.208
331.248
329.539
328.103
326.932
326.025
325.368
325.019
324.872
324.854
325.192
325.625
326.32
327.111
328.1
329.179
330.401
331.703
333.117
334.698
336.363
338.186
340.107
342.174
344.343
346.67
349.126
351.75
354.523
357.455
360.594
364.106
368.193
373.281
380.005
384.781
386.538
417.178
421.825
423.798
427.734
430.099
433.936
436.539
440.252
443.004
446.62
449.502
453.029
455.989
459.43
462.426
465.78
468.776
472.034
474.997
478.148
481.05
484.081
486.895
489.79
492.489
495.232
497.797
500.364
502.763
505.139
507.345
509.505
511.495
513.414
515.159
516.814
518.292
519.661
520.911
522.022
522.975
523.759
524.333
524.657
524.793
524.808
524.409
523.889
523.01
521.935
520.536
518.897
516.946
514.734
512.217
509.433
506.357
503.024
499.42
495.583
491.514
487.293
482.884
478.311
473.61
468.818
463.955
459.07
454.159
449.282
444.479
439.772
435.186
430.767
426.495
422.442
418.507
414.762
411.15
407.72
404.424
401.267
398.138
395.159
392.193
389.341
386.495
383.72
380.957
378.253
375.596
373.057
370.8
368.641
367.206
366.603
366.784
370.701
373.64
374.528
431.863
437.497
439.916
444.744
447.739
452.482
455.865
460.529
464.196
468.81
472.699
477.287
481.351
485.931
490.131
494.712
499.021
503.612
508.005
512.604
517.058
521.665
526.162
530.771
535.296
539.904
544.449
549.053
553.604
558.194
562.738
567.301
571.819
576.341
580.815
585.279
589.693
594.084
598.458
602.793
607.087
611.328
615.503
619.608
623.626
627.548
631.347
635.033
638.566
641.955
645.167
648.2
651.025
653.635
656.001
658.11
659.934
661.456
662.647
663.448
663.828
663.947
663.633
662.976
661.899
660.429
658.472
656.089
653.182
649.828
645.934
641.581
636.688
631.324
625.429
619.067
612.261
605.024
597.372
589.336
580.89
572.096
562.899
553.422
543.565
533.392
522.842
511.95
500.641
488.824
476.474
463.623
450.23
436.765
422.728
409.511
397.707
390.724
387.598
386.171
430.179
435.758
438.178
442.986
446.019
450.774
454.243
458.971
462.779
467.52
471.616
476.414
480.769
485.658
490.253
495.261
500.075
505.211
510.23
515.505
520.72
526.141
531.542
537.114
542.693
548.415
554.167
560.04
565.954
571.976
578.046
584.213
590.433
596.742
603.107
609.553
616.062
622.652
629.308
636.034
642.818
649.664
656.564
663.518
670.519
677.565
684.644
691.751
698.872
705.997
713.136
720.272
727.401
734.516
741.608
748.673
755.699
762.677
769.59
776.42
783.15
789.764
796.223
802.566
808.696
814.626
820.271
825.624
830.607
835.195
839.316
842.935
845.969
848.377
849.966
850.707
850.916
850.071
848.045
845.027
840.597
834.938
827.629
818.801
808.071
795.524
780.837
764.095
744.97
723.522
699.458
672.621
642.549
609.522
573.57
535.33
496.693
460.818
434.709
417.8
433.915
438.368
440.338
444.247
446.731
450.599
453.443
457.308
460.458
464.368
467.786
471.773
475.432
479.529
483.417
487.649
491.765
496.163
500.511
505.098
509.685
514.481
519.315
524.337
529.425
534.684
540.031
545.54
551.155
556.932
562.832
568.896
575.1
581.476
588.008
594.716
601.587
608.642
615.875
623.298
630.906
638.707
646.7
654.887
663.265
671.866
680.691
689.757
699.07
708.643
718.404
728.396
738.579
748.971
759.546
770.308
781.236
792.328
803.568
814.951
826.463
838.109
849.87
861.753
873.729
885.803
897.942
910.14
922.36
934.57
946.743
958.932
971.072
983.154
995.125
1006.96
1018.58
1029.9
1040.84
1051.27
1061.03
1069.96
1077.79
1084.28
1088.68
1090.71
1091.19
1087.55
1079.94
1067.24
1048.44
1022.3
987.103
941.298
883.806
812.183
728.537
636.263
553.479
487.869
476.254
478.915
480.196
482.821
484.568
487.237
489.271
491.978
494.227
496.989
499.426
502.262
504.875
507.805
510.591
513.633
516.593
519.764
522.901
526.219
529.539
533.016
536.526
540.179
543.887
547.733
551.647
555.694
559.83
564.098
568.47
572.975
577.596
582.35
587.227
592.258
597.449
602.814
608.358
614.095
620.031
626.183
632.561
639.186
646.075
653.214
660.614
668.28
676.218
684.431
692.981
701.853
711.076
720.65
730.589
740.907
751.616
762.734
774.274
786.259
798.705
811.64
825.085
839.076
853.621
868.749
884.477
900.823
917.806
935.445
953.785
972.591
992.001
1011.84
1032.13
1052.75
1073.67
1094.81
1116.11
1137.53
1159.05
1180.63
1202.26
1223.89
1245.39
1266.94
1288.23
1308.77
1327.91
1344.38
1353.77
1357.19
1350.36
1321.06
1270.52
1195.32
1092.75
964.081
804.086
630.496
652.485
652.404
653.322
654.018
655.072
656.132
657.23
658.471
659.623
660.971
662.193
663.619
664.923
666.416
667.811
669.37
670.86
672.488
674.076
675.779
677.469
679.256
681.053
682.936
684.851
686.849
688.896
691.032
693.234
695.528
697.905
700.379
702.953
705.636
708.44
711.36
714.403
717.571
720.876
724.319
727.911
731.655
735.562
739.636
743.886
748.313
752.931
757.743
762.762
767.998
773.467
779.174
785.137
791.366
797.883
804.685
811.79
819.213
826.966
835.07
843.527
852.358
861.583
871.29
881.463
892.147
903.375
915.168
927.562
940.572
954.164
968.483
983.588
999.541
1016.38
1034.21
1053.09
1073.12
1094.4
1117.01
1141.09
1166.72
1194.01
1223.04
1253.82
1285.7
1318.04
1349.47
1378.18
1401.9
1414.78
1419.29
1415.66
1399.43
1368.37
1312.33
1227.3
1119.27
997.31
848.789
1559.44
1559.95
1559.63
1559.14
1558.3
1557.71
1556.68
1556.04
1554.93
1554.22
1553.09
1552.29
1551.16
1550.28
1549.14
1548.18
1547.03
1545.98
1544.82
1543.7
1542.53
1541.35
1540.16
1538.95
1537.75
1536.52
1535.32
1534.09
1532.88
1531.65
1530.45
1529.22
1528.02
1526.81
1525.63
1524.44
1523.29
1522.12
1520.98
1519.84
1518.73
1517.61
1516.51
1515.39
1514.28
1513.14
1511.97
1510.74
1509.46
1508.09
1506.65
1505.12
1503.49
1501.77
1499.96
1498.04
1495.94
1493.66
1491.09
1488.22
1484.9
1481.13
1476.85
1472.34
1467.42
1462.14
1456.53
1450.52
1444.08
1437.1
1429.6
1421.41
1412.67
1403.29
1392.8
1381.49
1369.13
1355.52
1340.73
1324.46
1306.72
1287.29
1266.09
1242.97
1217.72
1190.08
1159.35
1124.6
1083.79
1033.28
968.252
883.384
781.7
673.59
577.824
529.522
552.316
719.527
885.505
939.079
861.81
323.606
176.387
119.522
95.0991
81.9632
75.2002
72.1316
71.0486
72.3026
78.012
92.5097
113.739
149.871
200.757
267.197
347.651
446.781
562.566
606.699
690.022
328.305
218.727
154.141
121.578
103.56
92.298
86.3472
84.1176
84.5789
95.228
110.834
138.419
178.294
232.59
298.284
373.889
463.933
545.716
563.165
542.838
318.365
242.441
180.214
147.503
124.764
110.377
103.923
101.886
104.695
116.057
137.64
168.1
212.43
265.843
325.171
391.056
467.447
512.231
514.13
443.895
304.982
256.225
197.674
170.518
144.774
132.189
126.076
124.152
126.727
147.26
170.712
207.445
252.075
300.464
353.56
411.606
458.486
472.829
463.765
388.296
300.539
266.354
214.337
191.415
166.787
156.269
151.578
150.659
166.432
188.994
216.381
253.19
290.901
331.352
373.761
413.636
434.322
421.697
417.179
360.007
299.902
273.245
230.307
212.125
196.442
191.75
191.253
204.283
221.244
243.502
268.435
298.25
326.965
358.209
386.52
401.891
396.17
363.89
378.621
351.263
310.97
293.467
268.441
260.359
257.595
257.371
264.604
274.25
288.006
303.721
321.266
340.298
357.123
372.194
379.211
376.552
340.948
297.644
351.031
383.588
370.781
366.558
357.244
353.042
347.841
346.02
345.812
349.314
354.133
359.296
364.841
367.895
368.977
368.123
358.891
328.988
273.272
229.748
335.381
495.562
480.786
473.407
454.783
446.029
432.132
425.358
416.031
411.236
403.279
397.228
388.109
377.755
365.344
348.525
313.48
264.781
204.003
166.592
329.507
560.722
539.614
530.102
507.431
496.566
478.174
467.813
451.025
439.475
422.59
408.487
389.192
369.105
340.176
300.725
252.088
201.43
151.153
127.202
330.938
543.107
523.49
514.809
493.854
483.87
467.272
458.186
443.783
433.803
419.565
407.066
390.69
372.673
347.844
311.137
262.004
208.755
152.285
124.335
329.492
453.728
443.745
438.944
423.795
416.991
407.197
402.561
397.932
395.607
393.013
389.584
385.328
377.74
368.006
355.431
325.759
276.855
211.56
172.99
328.103
355.766
339.842
334.425
327.232
324.26
321.885
321.428
325.864
330.988
340.089
348.59
357.888
365.828
369.618
370.783
365.149
339.673
284.733
238.945
330.552
335.149
295.137
277.429
251.731
243.076
240.086
239.962
248.847
260.242
275
293.436
312.848
334.581
355.352
373.816
382.569
382.905
351.678
308.229
341.635
345.673
287.184
261.357
219.974
202.441
187.457
182.899
182.28
195.918
213.67
236.047
262.94
292.721
323.406
356.776
388.986
406.002
404.815
373.689
371.498
373.516
288.57
255.357
205.726
183.819
160.817
150.99
146.707
145.944
163.011
185.051
213.484
250.406
288.432
329.495
372.998
416.927
439.984
430.374
414.571
428.584
293.246
245.537
189.383
163.197
139.415
127.884
122.532
121.065
125.116
145.583
169.752
206.432
251.102
299.66
353.037
411.432
462.523
480.166
465.783
530.862
307.667
233.242
173.572
141.748
120.118
106.885
101.045
99.3792
103.629
115.416
137.819
168.725
212.784
265.793
325.073
392.195
470.121
517.705
519.055
686.275
317.547
210.751
147.87
116.719
99.6829
89.4669
84.2388
82.3523
83.8407
94.8824
111.232
139.482
179.753
233.739
298.226
373.29
463.953
549.461
569.177
862.88
313.369
170.696
115.699
91.9565
79.3882
72.8996
70.2628
69.4996
71.8629
78.2042
93.1817
115.13
151.444
202.677
268.542
348.296
446.829
564.734
612.783
646.052
32.1743
12.7361
11.3228
11.19
11.171
11.1705
11.1708
11.1706
11.1705
11.1705
11.1706
11.1708
11.1705
11.171
11.19
11.3228
12.7361
32.1742
646.052
672.745
55.0637
17.0388
12.087
11.3039
11.1803
11.1547
11.1529
11.1534
11.1536
11.1536
11.1534
11.1529
11.1547
11.1803
11.3039
12.087
17.0388
55.0636
672.745
698.455
71.0948
21.1545
13.3034
11.5874
11.2261
11.1552
11.1382
11.1358
11.1355
11.1355
11.1358
11.1382
11.1552
11.2261
11.5874
13.3033
21.1545
71.0947
698.455
723.129
85.8458
25.136
14.6459
12.043
11.3371
11.1684
11.1265
11.1183
11.1171
11.1171
11.1183
11.1265
11.1684
11.3371
12.043
14.6459
25.136
85.8458
723.129
746.741
101.865
29.2061
16.0657
12.5884
11.5234
11.2064
11.1273
11.105
11.1003
11.1003
11.105
11.1273
11.2064
11.5234
12.5884
16.0657
29.2061
101.865
746.741
769.318
118.438
33.3681
17.5409
13.1972
11.7625
11.283
11.1366
11.0944
11.0843
11.0843
11.0944
11.1366
11.283
11.7625
13.1972
17.5409
33.3681
118.439
769.318
790.731
134.971
37.5684
19.0513
13.8503
12.0431
11.3872
11.1601
11.0918
11.0718
11.0718
11.0918
11.1601
11.3872
12.0431
13.8503
19.0513
37.5685
134.971
790.731
810.976
151.246
41.7791
20.5849
14.5351
12.357
11.5178
11.203
11.0955
11.0625
11.0625
11.0955
11.203
11.5178
12.357
14.5351
20.5849
41.7792
151.246
810.976
829.951
167.075
45.9681
22.1299
15.2421
12.6968
11.6708
11.2604
11.1065
11.0594
11.0594
11.1065
11.2604
11.6708
12.6968
15.2421
22.13
45.9681
167.075
829.951
847.657
182.404
50.1213
23.6798
15.9648
13.0568
11.8431
11.3324
11.129
11.0619
11.0619
11.129
11.3324
11.8431
13.0568
15.9648
23.6798
50.1214
182.405
847.657
863.994
197.1
54.2115
25.2251
16.6969
13.4322
12.0315
11.418
11.1609
11.0698
11.0698
11.1609
11.418
12.0316
13.4322
16.6969
25.2251
54.2117
197.1
863.994
879.011
211.154
58.2321
26.7619
17.4347
13.8193
12.2335
11.5156
11.2021
11.0862
11.0862
11.2021
11.5156
12.2335
13.8193
17.4347
26.762
58.2323
211.155
879.011
892.661
224.488
62.1644
28.2842
18.1744
14.2149
12.4466
11.6242
11.2528
11.1113
11.1113
11.2528
11.6242
12.4466
14.2149
18.1744
28.2842
62.1646
224.489
892.66
905.027
237.118
66.0086
29.7906
18.914
14.6169
12.6691
11.7426
11.3125
11.1446
11.1446
11.3125
11.7427
12.6691
14.6169
18.914
29.7906
66.0088
237.119
905.027
916.069
248.972
69.7462
31.2755
19.6507
15.0231
12.899
11.8698
11.381
11.1861
11.1861
11.381
11.8698
12.899
15.0231
19.6507
31.2756
69.7464
248.972
916.069
925.905
260.091
73.3784
32.738
20.383
15.4319
13.1352
12.0048
11.4576
11.2357
11.2357
11.4576
12.0048
13.1352
15.4319
20.3831
32.7381
73.3786
260.091
925.904
934.511
270.423
76.8906
34.1734
21.1088
15.8418
13.3762
12.1466
11.5418
11.293
11.293
11.5418
12.1466
13.3762
15.8418
21.1088
34.1735
76.8908
270.423
934.511
942.037
280.035
80.2887
35.5823
21.8275
16.2518
13.6211
12.2944
11.6331
11.3579
11.3579
11.6331
12.2944
13.6211
16.2519
21.8276
35.5824
80.2888
280.035
942.036
948.452
288.886
83.5603
36.9607
22.5374
16.6609
13.869
12.4475
11.7309
11.4299
11.4299
11.7309
12.4475
13.8691
16.6609
22.5374
36.9607
83.5603
288.885
948.451
953.926
297.053
86.7123
38.3096
23.2383
17.0685
14.1193
12.6053
11.8348
11.5085
11.5085
11.8348
12.6053
14.1194
17.0685
23.2383
38.3097
86.7124
297.052
953.925
958.417
304.506
89.7344
39.6251
23.9283
17.4735
14.3712
12.7671
11.9442
11.5934
11.5934
11.9442
12.7671
14.3712
17.4735
23.9284
39.6252
89.7345
304.505
958.416
962.121
311.327
92.6354
40.9092
24.608
17.8757
14.6242
12.9325
12.0587
11.684
11.684
12.0587
12.9325
14.6242
17.8757
24.608
40.9092
92.6355
311.327
962.12
964.967
317.504
95.4077
42.158
25.2755
18.2742
14.8776
13.1009
12.1777
11.78
11.78
12.1777
13.1009
14.8776
18.2742
25.2755
42.1581
95.4078
317.504
964.966
967.18
323.105
98.0614
43.3748
25.9317
18.669
15.1313
13.2719
12.3009
11.8808
11.8808
12.3009
13.2719
15.1313
18.669
25.9317
43.3749
98.0615
323.104
967.18
968.649
328.145
100.59
44.5555
26.5749
19.0593
15.3846
13.445
12.4277
11.9862
11.9862
12.4277
13.445
15.3846
19.0593
26.575
44.5556
100.59
328.145
968.648
969.635
332.657
103.005
45.7041
27.2063
19.4452
15.6374
13.62
12.5579
12.0955
12.0955
12.5579
13.62
15.6374
19.4452
27.2063
45.7042
103.005
332.656
969.634
969.97
336.702
105.3
46.8164
27.824
19.8261
15.8892
13.7964
12.691
12.2085
12.2085
12.691
13.7964
15.8892
19.8261
27.8241
46.8164
105.3
336.702
969.969
969.834
340.245
107.487
47.897
28.4295
20.202
16.14
13.974
12.8267
12.3248
12.3248
12.8267
13.974
16.14
20.202
28.4295
47.8971
107.487
340.245
969.833
969.425
343.4
109.561
48.9419
29.0212
20.5725
16.3892
14.1525
12.9646
12.4441
12.4441
12.9646
14.1525
16.3892
20.5725
29.0212
48.9419
109.561
343.399
969.424
968.579
346.143
111.538
49.9564
29.6006
20.9378
16.6369
14.3316
13.1045
12.5659
12.5659
13.1045
14.3316
16.6369
20.9378
29.6006
49.9564
111.538
346.142
968.578
967.379
348.531
113.407
50.9359
30.1661
21.2974
16.8828
14.5111
13.2461
12.69
12.69
13.2461
14.5111
16.8828
21.2973
30.1661
50.9358
113.407
348.531
967.378
965.891
350.556
115.187
51.8865
30.7193
21.6514
17.1267
14.6907
13.389
12.8161
12.8161
13.389
14.6907
17.1267
21.6514
30.7193
51.8865
115.186
350.554
965.89
964.156
352.263
116.866
52.8037
31.259
21.9996
17.3685
14.8702
13.5331
12.944
12.944
13.5331
14.8702
17.3685
21.9996
31.259
52.8036
116.865
352.262
964.155
962.205
353.661
118.463
53.6934
31.7865
22.3421
17.608
15.0495
13.6782
13.0733
13.0733
13.6782
15.0495
17.608
22.3421
31.7865
53.6934
118.463
353.659
962.204
960.074
354.763
119.967
54.5518
32.301
22.6788
17.8451
15.2284
13.8239
13.2039
13.2039
13.8239
15.2284
17.8451
22.6788
32.3009
54.5515
119.966
354.762
960.073
957.789
355.619
121.396
55.384
32.8034
23.0097
18.0798
15.4067
13.9702
13.3355
13.3355
13.9702
15.4067
18.0798
23.0097
32.8034
55.3841
121.396
355.617
957.788
955.382
356.173
122.739
56.1873
33.2935
23.3348
18.3119
15.5842
14.1168
13.468
13.468
14.1168
15.5842
18.3119
23.3348
33.2933
56.1869
122.738
356.173
955.382
952.869
356.558
124.013
56.966
33.7719
23.6542
18.5414
15.761
14.2635
13.601
13.601
14.2635
15.7609
18.5414
23.6542
33.7718
56.966
124.013
356.557
952.869
950.287
356.612
125.207
57.7183
34.2386
23.9678
18.7682
15.9367
14.4103
13.7346
13.7346
14.4103
15.9367
18.7681
23.9678
34.2384
57.7179
125.206
356.611
950.287
947.635
356.52
126.338
58.4476
34.6941
24.2757
18.9922
16.1114
14.557
13.8684
13.8684
14.5569
16.1114
18.9922
24.2757
34.694
58.4476
126.337
356.52
947.635
944.959
356.292
127.396
59.1528
35.1386
24.5781
19.2134
16.2849
14.7033
14.0024
14.0024
14.7033
16.2848
19.2134
24.578
35.1385
59.1524
127.395
356.291
944.959
942.243
355.823
128.402
59.8378
35.5727
24.875
19.4319
16.4571
14.8493
14.1364
14.1364
14.8493
16.4571
19.4318
24.8749
35.5726
59.8375
128.402
355.823
942.243
939.541
355.241
129.339
60.5004
35.9965
25.1664
19.6475
16.628
14.9948
14.2703
14.2703
14.9948
16.628
19.6474
25.1663
35.9963
60.5001
129.339
355.24
939.541
936.82
354.507
130.246
61.1469
36.4106
25.4525
19.8602
16.7975
15.1397
14.404
14.404
15.1397
16.7974
19.8602
25.4524
36.4104
61.1465
130.245
354.508
936.82
934.146
353.719
131.104
61.7763
36.8155
25.7335
20.0702
16.9655
15.2839
14.5373
14.5373
15.2839
16.9655
20.0701
25.7335
36.8154
61.7762
131.104
353.718
934.147
931.465
352.875
131.981
62.3972
37.2119
26.0095
20.2773
17.132
15.4273
14.6702
14.6702
15.4273
17.132
20.2773
26.0094
37.2117
62.3967
131.98
352.876
931.465
928.861
352.023
132.874
63.0146
37.6004
26.2807
20.4816
17.2969
15.5699
14.8026
14.8026
15.5699
17.2969
20.4816
26.2806
37.6003
63.0144
132.874
352.023
928.862
926.332
351.165
133.819
63.6359
37.9825
26.5472
20.6832
17.4602
15.7115
14.9343
14.9343
15.7115
17.4602
20.6831
26.5471
37.9824
63.6357
133.818
351.166
926.333
923.874
350.421
134.847
64.2664
38.3594
26.8095
20.882
17.622
15.8522
15.0654
15.0654
15.8522
17.6219
20.882
26.8094
38.3592
64.266
134.846
350.421
923.875
921.483
349.753
135.968
64.9089
38.7321
27.0676
21.0782
17.782
15.9919
15.1958
15.1958
15.9918
17.782
21.0782
27.0676
38.732
64.9089
135.968
349.754
921.484
919.158
349.292
137.196
65.5673
39.1021
27.3222
21.2718
17.9405
16.1304
15.3253
15.3253
16.1304
17.9405
21.2718
27.3222
39.102
65.5672
137.196
349.294
919.159
916.896
348.941
138.522
66.2422
39.4701
27.5734
21.463
18.0972
16.2679
15.454
15.454
16.2679
18.0972
21.463
27.5735
39.4703
66.2426
138.523
348.943
916.896
914.697
348.849
139.944
66.9353
39.8378
27.8218
21.6517
18.2523
16.4041
15.5817
15.5817
16.4042
18.2523
21.6517
27.8218
39.8377
66.9351
139.944
348.852
914.697
912.559
348.914
141.453
67.6454
40.2051
28.0675
21.8382
18.4058
16.5392
15.7085
15.7085
16.5393
18.4058
21.8383
28.0677
40.2055
67.6464
141.455
348.917
912.559
910.484
349.096
143.03
68.3735
40.5739
28.3111
22.0226
18.5577
16.6732
15.8343
15.8343
16.6732
18.5577
22.0226
28.3112
40.5739
68.3734
143.031
349.099
910.483
908.47
349.466
144.663
69.1156
40.9432
28.5527
22.2049
18.708
16.8058
15.9591
15.9591
16.8059
18.7081
22.2052
28.5532
40.9445
69.1182
144.668
349.472
908.469
906.519
349.986
146.345
69.8737
41.3148
28.7927
22.3854
18.8567
16.9373
16.0828
16.0828
16.9373
18.8568
22.3855
28.7927
41.3146
69.8732
146.345
349.991
906.517
904.629
350.626
148.063
70.6457
41.6885
29.0315
22.5641
19.0039
17.0675
16.2054
16.2054
17.0676
19.0041
22.5645
29.0323
41.6902
70.6491
148.07
350.633
904.627
902.803
351.365
149.808
71.4292
42.0638
29.2688
22.741
19.1496
17.1965
16.3269
16.3269
17.1966
19.1497
22.7412
29.2691
42.0643
71.4309
149.814
351.379
902.798
901.036
352.203
151.57
72.2266
42.4433
29.5059
22.9167
19.2939
17.3242
16.4474
16.4474
17.3245
19.2944
22.9175
29.5076
42.4466
72.2325
151.577
352.214
901.031
899.332
353.102
153.333
73.0303
42.824
29.7419
23.0907
19.4368
17.4507
16.5666
16.5667
17.4509
19.437
23.0909
29.7421
42.824
73.0314
153.341
353.122
899.324
897.688
354.063
155.093
73.8398
43.2064
29.9771
23.2634
19.5783
17.576
16.6849
16.685
17.5765
19.5792
23.2651
29.9804
43.2131
73.8524
155.11
354.089
897.679
896.105
355.08
156.86
74.6625
43.5932
30.2123
23.4348
19.7184
17.7
16.8018
16.8019
17.7003
19.7188
23.4353
30.2127
43.5937
74.6652
156.872
355.107
896.09
894.581
356.109
158.597
75.4824
43.9797
30.4465
23.605
19.8573
17.8229
16.9179
16.9181
17.8237
19.8589
23.6079
30.452
43.9902
75.5011
158.624
356.159
894.564
893.115
357.194
160.334
76.3148
44.3712
30.6811
23.7741
19.9948
17.9444
17.0324
17.0325
17.9449
19.9957
23.7753
30.683