/*--------------------------------*- C++ -*----------------------------------*\
| =========                 |                                                 |
| \\      /  F ield         | OpenFOAM: The Open Source CFD Toolbox           |
|  \\    /   O peration     | Version:  2.1.0                                 |
|   \\  /    A nd           | Web:      www.OpenFOAM.org                      |
|    \\/     M anipulation  |                                                 |
\*---------------------------------------------------------------------------*/
FoamFile
{
    version     2.0;
    format      ascii;
    class       volScalarField;
    location    "0.25";
    object      p;
}
// * * * * * * * * * * * * * * * * * * * * * * * * * * * * * * * * * * * * * //

dimensions      [1 -1 -2 0 0 0 0];

internalField   nonuniform List<scalar> 
6400
(
99998.3
99995.7
99993.8
99992.2
99990.7
99989.3
99987.8
99986.4
99984.9
99983.4
99981.8
99980.2
99978.5
99976.8
99975
99973.1
99971.1
99969.1
99967.1
99964.9
99962.7
99960.5
99958.2
99955.8
99953.3
99950.8
99948.2
99945.5
99942.7
99939.9
99937
99934
99931
99927.8
99924.6
99921.3
99917.9
99914.4
99910.8
99907.1
99903.2
99899.3
99895.2
99890.9
99886.6
99882
99877.3
99872.4
99867.3
99862
99856.6
99850.9
99845.1
99839
99832.7
99826.2
99819.4
99812.4
99805.1
99797.5
99789.7
99781.6
99773.2
99764.5
99755.4
99746.1
99736.4
99726.4
99716
99705.3
99694.1
99682.6
99670.7
99658.3
99645.5
99632.2
99618.5
99604.2
99589.3
99573.9
99557.8
99541
99523.3
99504.7
99484.8
99463.6
99440.5
99415.3
99387.4
99356.6
99322.9
99287.2
99251.8
99218.2
99187
99150.4
99093.3
98978.4
98609
97009.2
99996.7
99995
99993.3
99991.8
99990.3
99988.9
99987.5
99986.1
99984.6
99983
99981.5
99979.8
99978.1
99976.4
99974.6
99972.7
99970.8
99968.7
99966.7
99964.5
99962.3
99960.1
99957.7
99955.3
99952.9
99950.3
99947.7
99945
99942.3
99939.5
99936.6
99933.6
99930.5
99927.4
99924.1
99920.8
99917.4
99913.9
99910.3
99906.6
99902.8
99898.8
99894.7
99890.5
99886.1
99881.5
99876.8
99871.9
99866.8
99861.6
99856.1
99850.5
99844.7
99838.6
99832.3
99825.8
99819
99812
99804.8
99797.2
99789.4
99781.3
99772.9
99764.2
99755.2
99745.9
99736.2
99726.2
99715.9
99705.2
99694.1
99682.6
99670.7
99658.4
99645.6
99632.3
99618.6
99604.3
99589.4
99574
99557.8
99541
99523.3
99504.6
99484.8
99463.5
99440.5
99415.3
99387.6
99357
99323.6
99288.2
99252.8
99219.5
99190.3
99159.3
99108.5
99008.5
98709.2
98158.8
99995.3
99994.3
99992.9
99991.5
99990.1
99988.7
99987.3
99985.9
99984.4
99982.9
99981.3
99979.7
99978
99976.2
99974.4
99972.5
99970.6
99968.6
99966.5
99964.4
99962.2
99959.9
99957.6
99955.2
99952.7
99950.2
99947.6
99944.9
99942.1
99939.3
99936.4
99933.4
99930.4
99927.3
99924
99920.7
99917.4
99913.9
99910.3
99906.6
99902.7
99898.8
99894.7
99890.5
99886.1
99881.6
99876.9
99872.1
99867
99861.8
99856.4
99850.8
99845
99839
99832.7
99826.2
99819.5
99812.5
99805.3
99797.8
99790
99782
99773.6
99765
99756
99746.7
99737.2
99727.2
99716.9
99706.3
99695.3
99683.9
99672.1
99659.8
99647.2
99634
99620.4
99606.2
99591.4
99576
99560
99543.2
99525.6
99506.9
99487.1
99465.9
99443
99418
99390.6
99360.7
99328.4
99294.7
99261.8
99231.6
99206
99178.6
99143.5
99082.2
98927.2
99018.6
99993.4
99993.4
99992.5
99991.3
99990
99988.7
99987.3
99985.9
99984.5
99983
99981.4
99979.8
99978.1
99976.4
99974.6
99972.7
99970.8
99968.8
99966.7
99964.6
99962.4
99960.2
99957.9
99955.5
99953
99950.5
99947.9
99945.2
99942.5
99939.7
99936.8
99933.9
99930.8
99927.7
99924.5
99921.2
99917.8
99914.4
99910.8
99907.1
99903.3
99899.4
99895.3
99891.2
99886.8
99882.3
99877.7
99872.9
99867.9
99862.7
99857.4
99851.8
99846
99840
99833.8
99827.4
99820.7
99813.7
99806.6
99799.1
99791.4
99783.4
99775.1
99766.5
99757.6
99748.4
99738.9
99729
99718.8
99708.2
99697.2
99685.8
99674
99661.8
99649.1
99635.9
99622.2
99608
99593.1
99577.6
99561.4
99544.5
99526.6
99507.8
99487.7
99466.3
99443.3
99418.3
99391.3
99362.2
99331.5
99300.5
99271.8
99246.8
99227.5
99215.2
99210.4
99215.7
99243.2
99663.7
99991.4
99992.5
99992.1
99991.2
99990.1
99988.9
99987.6
99986.3
99984.8
99983.4
99981.8
99980.2
99978.5
99976.8
99975
99973.2
99971.3
99969.3
99967.3
99965.2
99963
99960.8
99958.5
99956.1
99953.7
99951.2
99948.6
99946
99943.2
99940.4
99937.6
99934.6
99931.6
99928.5
99925.3
99922.1
99918.7
99915.3
99911.7
99908
99904.3
99900.3
99896.3
99892.1
99887.8
99883.3
99878.7
99873.9
99868.9
99863.8
99858.4
99852.9
99847.1
99841.1
99834.9
99828.5
99821.9
99815
99807.8
99800.4
99792.7
99784.7
99776.4
99767.8
99758.9
99749.7
99740.2
99730.3
99720
99709.3
99698.3
99686.9
99675
99662.7
99649.9
99636.6
99622.7
99608.3
99593.3
99577.6
99561.2
99544.1
99526
99506.9
99486.6
99465
99441.9
99417.1
99390.6
99362.6
99334
99306.7
99283.5
99265.9
99258.1
99268.2
99305.7
99398.3
99597
100172
99989.4
99991.5
99991.8
99991.2
99990.4
99989.3
99988.1
99986.8
99985.4
99983.9
99982.4
99980.8
99979.2
99977.4
99975.7
99973.8
99971.9
99970
99967.9
99965.9
99963.7
99961.5
99959.2
99956.8
99954.4
99951.9
99949.3
99946.7
99944
99941.2
99938.3
99935.4
99932.4
99929.3
99926.1
99922.8
99919.5
99916
99912.5
99908.8
99905
99901.1
99897
99892.8
99888.5
99884
99879.4
99874.5
99869.6
99864.4
99859
99853.5
99847.7
99841.8
99835.6
99829.1
99822.5
99815.6
99808.4
99801
99793.3
99785.3
99777
99768.4
99759.5
99750.2
99740.6
99730.7
99720.4
99709.7
99698.6
99687.1
99675.2
99662.8
99649.9
99636.5
99622.5
99608
99592.8
99576.9
99560.3
99542.9
99524.5
99505.2
99484.7
99462.9
99439.7
99415.1
99389.2
99362.5
99336.3
99312.7
99295.5
99286.7
99293.7
99330.6
99417.4
99602.4
99937.1
100571
99987.7
99990.7
99991.4
99991.3
99990.6
99989.7
99988.5
99987.3
99985.9
99984.5
99982.9
99981.4
99979.7
99978
99976.2
99974.4
99972.5
99970.5
99968.5
99966.4
99964.2
99962
99959.7
99957.3
99954.9
99952.4
99949.8
99947.1
99944.4
99941.6
99938.7
99935.8
99932.7
99929.6
99926.4
99923.1
99919.7
99916.3
99912.7
99909
99905.2
99901.2
99897.2
99892.9
99888.6
99884.1
99879.4
99874.6
99869.6
99864.5
99859.1
99853.6
99847.8
99841.8
99835.6
99829.2
99822.6
99815.7
99808.5
99801.1
99793.4
99785.4
99777.1
99768.5
99759.6
99750.3
99740.8
99730.8
99720.5
99709.8
99698.7
99687.1
99675.2
99662.7
99649.7
99636.2
99622.1
99607.4
99592.1
99576
99559.2
99541.5
99522.8
99503.1
99482.4
99460.4
99437.1
99412.7
99387.4
99362
99338
99318
99306.4
99306.6
99328.8
99393.3
99529.4
99798.3
100230
100874
99986.3
99989.9
99991.1
99991.1
99990.7
99989.8
99988.7
99987.5
99986.2
99984.7
99983.2
99981.6
99980
99978.2
99976.4
99974.6
99972.7
99970.7
99968.7
99966.6
99964.4
99962.1
99959.8
99957.5
99955
99952.5
99949.9
99947.2
99944.5
99941.7
99938.8
99935.8
99932.7
99929.6
99926.3
99923
99919.6
99916.1
99912.5
99908.8
99905
99901
99896.9
99892.7
99888.3
99883.8
99879.2
99874.4
99869.4
99864.2
99858.9
99853.3
99847.6
99841.6
99835.5
99829.1
99822.4
99815.6
99808.4
99801
99793.3
99785.3
99777.1
99768.5
99759.7
99750.4
99740.9
99730.9
99720.6
99709.9
99698.8
99687.2
99675.1
99662.6
99649.6
99636
99621.8
99606.9
99591.4
99575.1
99558
99540
99521.1
99501.1
99480
99457.8
99434.4
99410.2
99385.4
99361.1
99338.9
99321.9
99314.9
99323.1
99358.8
99447.4
99626.1
99961.7
100455
101089
99985.6
99989.4
99990.7
99991
99990.6
99989.8
99988.8
99987.5
99986.2
99984.8
99983.2
99981.6
99980
99978.2
99976.4
99974.6
99972.6
99970.6
99968.6
99966.5
99964.3
99962
99959.7
99957.3
99954.8
99952.3
99949.7
99947
99944.2
99941.4
99938.5
99935.5
99932.4
99929.3
99926
99922.6
99919.3
99915.8
99912.2
99908.5
99904.6
99900.7
99896.6
99892.4
99888
99883.5
99878.9
99874.1
99869.1
99864
99858.6
99853.1
99847.4
99841.5
99835.3
99829
99822.4
99815.5
99808.4
99801
99793.4
99785.4
99777.2
99768.7
99759.8
99750.6
99741
99731.1
99720.8
99710.1
99698.9
99687.3
99675.2
99662.6
99649.5
99635.8
99621.5
99606.5
99590.7
99574.3
99557
99538.7
99519.4
99499.1
99477.8
99455.3
99431.8
99407.6
99383.2
99359.6
99338.9
99324
99320
99334.2
99380.6
99486.2
99695.2
100076
100605
101226
99985.3
99989.1
99990.5
99990.8
99990.5
99989.7
99988.7
99987.5
99986.1
99984.6
99983.1
99981.5
99979.8
99978
99976.2
99974.3
99972.4
99970.4
99968.3
99966.1
99963.9
99961.7
99959.3
99956.9
99954.5
99952
99949.4
99946.7
99943.9
99941.1
99938.2
99935.2
99932.2
99929
99925.8
99922.4
99919
99915.6
99912
99908.3
99904.5
99900.5
99896.4
99892.2
99887.9
99883.4
99878.8
99874
99869
99863.9
99858.6
99853.1
99847.4
99841.5
99835.4
99829
99822.4
99815.6
99808.5
99801.2
99793.6
99785.6
99777.4
99768.9
99760.1
99750.9
99741.4
99731.5
99721.1
99710.4
99699.2
99687.6
99675.5
99662.8
99649.6
99635.8
99621.4
99606.2
99590.4
99573.6
99556.1
99537.6
99518
99497.2
99475.7
99453
99429.3
99405
99380.8
99357.7
99337.7
99324.1
99321.7
99339
99391
99505.5
99729.5
100133
100678
101292
99985.4
99989.2
99990.6
99990.9
99990.5
99989.8
99988.7
99987.5
99986.1
99984.7
99983.1
99981.5
99979.8
99978.1
99976.2
99974.4
99972.4
99970.4
99968.3
99966.2
99964
99961.7
99959.4
99957
99954.5
99952
99949.4
99946.8
99944
99941.2
99938.3
99935.4
99932.3
99929.2
99926
99922.7
99919.3
99915.7
99912.1
99908.4
99904.6
99900.6
99896.5
99892.3
99888
99883.5
99878.9
99874.1
99869.1
99864
99858.7
99853.2
99847.5
99841.6
99835.5
99829.2
99822.7
99815.9
99808.9
99801.6
99794
99786.2
99777.9
99769.4
99760.6
99751.4
99741.9
99731.9
99721.6
99710.9
99699.7
99688
99675.9
99663.2
99649.9
99636
99621.4
99606.1
99590.1
99573.2
99555.4
99536.6
99516.8
99496
99473.9
99450.8
99426.8
99402.3
99378
99355
99335.3
99321.8
99319.6
99337
99389.2
99503.5
99726.5
100128
100672
101287
99985.8
99989.6
99990.9
99991.1
99990.6
99989.8
99988.8
99987.6
99986.2
99984.7
99983.2
99981.6
99979.9
99978.2
99976.4
99974.5
99972.6
99970.6
99968.5
99966.4
99964.2
99962
99959.6
99957.3
99954.8
99952.3
99949.7
99947.1
99944.3
99941.5
99938.6
99935.7
99932.7
99929.5
99926.3
99923.1
99919.6
99916.1
99912.5
99908.8
99905
99901
99897
99892.8
99888.4
99884
99879.3
99874.6
99869.6
99864.5
99859.2
99853.7
99848
99842.2
99836.1
99829.7
99823.2
99816.4
99809.4
99802.1
99794.5
99786.7
99778.5
99770
99761.1
99752
99742.4
99732.5
99722.2
99711.4
99700.2
99688.5
99676.3
99663.6
99650.2
99636.2
99621.5
99606.1
99589.9
99572.8
99554.7
99535.7
99515.6
99494.4
99472.1
99448.6
99424.2
99399.4
99374.8
99351.4
99331.2
99317
99313.3
99328
99375.1
99479.7
99685.5
100061
100588
101208
99986.7
99990.2
99991.2
99991.2
99990.7
99989.8
99988.7
99987.5
99986.1
99984.6
99983.1
99981.5
99979.9
99978.1
99976.3
99974.5
99972.6
99970.6
99968.5
99966.4
99964.3
99962
99959.7
99957.3
99954.9
99952.4
99949.8
99947.2
99944.5
99941.7
99938.8
99935.9
99932.9
99929.7
99926.6
99923.3
99919.9
99916.4
99912.8
99909.1
99905.3
99901.3
99897.3
99893.1
99888.8
99884.3
99879.7
99874.9
99870
99864.9
99859.6
99854.2
99848.5
99842.6
99836.5
99830.2
99823.7
99816.9
99809.9
99802.6
99795.1
99787.2
99779
99770.5
99761.7
99752.6
99743
99733.1
99722.8
99712
99700.8
99689.1
99676.8
99664
99650.6
99636.5
99621.7
99606.1
99589.7
99572.5
99554.2
99534.9
99514.6
99493.1
99470.4
99446.6
99421.8
99396.5
99371.3
99347.3
99326.1
99310.2
99303.7
99313.2
99350.4
99436.9
99610.6
99938.8
100428
101061
99988.2
99991
99991.6
99991.4
99990.6
99989.6
99988.5
99987.2
99985.8
99984.3
99982.8
99981.2
99979.5
99977.8
99976
99974.2
99972.3
99970.3
99968.3
99966.2
99964
99961.8
99959.5
99957.1
99954.7
99952.2
99949.7
99947
99944.3
99941.5
99938.7
99935.8
99932.7
99929.6
99926.5
99923.2
99919.8
99916.3
99912.7
99909
99905.2
99901.3
99897.3
99893.1
99888.8
99884.4
99879.8
99875
99870.1
99865.1
99859.8
99854.4
99848.7
99842.9
99836.8
99830.5
99824
99817.3
99810.3
99803
99795.5
99787.7
99779.5
99771.1
99762.3
99753.1
99743.6
99733.7
99723.4
99712.6
99701.4
99689.6
99677.3
99664.5
99651
99636.8
99622
99606.3
99589.8
99572.4
99553.9
99534.4
99513.8
99492.1
99469
99444.9
99419.7
99393.8
99367.9
99342.9
99320.3
99302.1
99291.8
99294.1
99318.1
99380
99510.2
99769.8
100194
100836
99990.1
99991.9
99992
99991.4
99990.4
99989.3
99988.1
99986.7
99985.3
99983.8
99982.3
99980.7
99979
99977.3
99975.5
99973.6
99971.7
99969.7
99967.7
99965.6
99963.5
99961.2
99958.9
99956.6
99954.2
99951.7
99949.1
99946.5
99943.8
99941
99938.2
99935.2
99932.2
99929.1
99926
99922.7
99919.3
99915.8
99912.2
99908.6
99904.8
99900.9
99896.9
99892.7
99888.4
99884
99879.5
99874.7
99869.9
99864.8
99859.6
99854.2
99848.6
99842.8
99836.7
99830.5
99824
99817.3
99810.4
99803.2
99795.7
99787.9
99779.8
99771.4
99762.6
99753.5
99744
99734.1
99723.8
99713.1
99701.8
99690.1
99677.8
99664.9
99651.4
99637.2
99622.3
99606.5
99589.9
99572.4
99553.8
99534.1
99513.3
99491.3
99468
99443.4
99417.8
99391.3
99364.4
99338.3
99314
99293.4
99278.6
99273.1
99282.1
99316.5
99396.9
99571.6
99895.9
100526
99992.1
99992.9
99992.4
99991.4
99990.3
99989
99987.7
99986.3
99984.8
99983.3
99981.7
99980.1
99978.4
99976.7
99974.9
99973
99971.1
99969.1
99967.1
99965
99962.8
99960.6
99958.3
99955.9
99953.5
99951
99948.4
99945.8
99943.1
99940.3
99937.4
99934.5
99931.5
99928.4
99925.2
99921.9
99918.5
99915
99911.4
99907.7
99903.9
99900
99896
99891.9
99887.6
99883.2
99878.6
99873.9
99869
99864
99858.8
99853.4
99847.8
99842
99836
99829.8
99823.4
99816.7
99809.8
99802.6
99795.2
99787.4
99779.4
99771
99762.3
99753.2
99743.8
99734
99723.7
99713
99701.8
99690.1
99677.8
99665
99651.5
99637.3
99622.3
99606.5
99589.8
99572.2
99553.5
99533.7
99512.8
99490.5
99467
99442.1
99416
99388.9
99361.2
99333.6
99307.6
99284.4
99265.8
99252.8
99247.4
99255.1
99286.2
99368.2
99554.1
100120
99994.1
99993.9
99992.8
99991.5
99990.2
99988.8
99987.5
99986
99984.5
99983
99981.4
99979.8
99978.1
99976.3
99974.5
99972.6
99970.7
99968.7
99966.6
99964.5
99962.3
99960.1
99957.8
99955.4
99952.9
99950.4
99947.8
99945.2
99942.4
99939.6
99936.8
99933.8
99930.8
99927.6
99924.4
99921.1
99917.7
99914.2
99910.6
99906.9
99903.1
99899.1
99895.1
99890.9
99886.6
99882.2
99877.6
99872.8
99867.9
99862.9
99857.6
99852.2
99846.6
99840.9
99834.9
99828.6
99822.2
99815.5
99808.6
99801.4
99794
99786.2
99778.2
99769.8
99761.1
99752.1
99742.6
99732.8
99722.6
99711.9
99700.8
99689.1
99676.9
99664
99650.6
99636.4
99621.4
99605.7
99589
99571.4
99552.7
99532.8
99511.8
99489.4
99465.7
99440.6
99414.2
99386.5
99357.9
99329.1
99301.3
99275.7
99254
99235.7
99218.5
99204.1
99193.2
99188.5
99201.6
99605.5
99995.9
99994.8
99993.3
99991.8
99990.3
99988.9
99987.5
99986
99984.5
99983
99981.4
99979.7
99978
99976.2
99974.4
99972.5
99970.6
99968.6
99966.5
99964.4
99962.2
99959.9
99957.6
99955.2
99952.7
99950.2
99947.6
99944.9
99942.2
99939.3
99936.5
99933.5
99930.4
99927.3
99924.1
99920.7
99917.3
99913.8
99910.2
99906.4
99902.6
99898.6
99894.6
99890.4
99886
99881.6
99876.9
99872.2
99867.3
99862.2
99856.9
99851.4
99845.8
99839.9
99833.9
99827.6
99821.1
99814.4
99807.5
99800.2
99792.7
99785
99776.9
99768.5
99759.7
99750.6
99741.1
99731.3
99721
99710.3
99699.1
99687.3
99675
99662.2
99648.6
99634.4
99619.4
99603.6
99586.9
99569.2
99550.4
99530.5
99509.4
99486.9
99463.1
99437.9
99411.2
99383.2
99354
99324.4
99295.2
99267.9
99244
99223.4
99198.7
99169.2
99128.8
99058.4
98888.7
98953.2
99997.3
99995.5
99993.8
99992.1
99990.6
99989.1
99987.7
99986.2
99984.7
99983.2
99981.6
99979.9
99978.2
99976.4
99974.6
99972.7
99970.8
99968.8
99966.7
99964.6
99962.4
99960.1
99957.8
99955.4
99952.9
99950.4
99947.8
99945.1
99942.3
99939.5
99936.6
99933.7
99930.6
99927.5
99924.2
99920.9
99917.5
99913.9
99910.3
99906.6
99902.7
99898.8
99894.7
99890.5
99886.1
99881.6
99877
99872.2
99867.3
99862.2
99856.9
99851.4
99845.7
99839.9
99833.8
99827.5
99820.9
99814.2
99807.2
99800
99792.4
99784.6
99776.5
99768
99759.2
99750.1
99740.6
99730.7
99720.3
99709.5
99698.3
99686.5
99674.1
99661.1
99647.5
99633.1
99618
99602
99585.1
99567.2
99548.2
99528
99506.6
99483.9
99459.7
99434.1
99407
99378.4
99348.4
99317.7
99287.1
99258
99231.1
99207.5
99185.3
99151.5
99095.3
98986.4
98672.9
98079
99998.8
99996.2
99994.2
99992.5
99991
99989.5
99988.1
99986.6
99985.1
99983.5
99981.9
99980.3
99978.6
99976.8
99975
99973.1
99971.2
99969.2
99967.1
99965
99962.8
99960.6
99958.2
99955.8
99953.4
99950.8
99948.2
99945.6
99942.8
99940
99937.1
99934.1
99931.1
99927.9
99924.7
99921.4
99918
99914.4
99910.8
99907.1
99903.2
99899.3
99895.2
99891
99886.7
99882.2
99877.6
99872.8
99867.9
99862.8
99857.5
99852
99846.4
99840.5
99834.4
99828.1
99821.6
99814.9
99807.9
99800.6
99793.1
99785.3
99777.1
99768.7
99759.9
99750.7
99741.2
99731.3
99721
99710.2
99698.9
99687.1
99674.7
99661.7
99648.1
99633.7
99618.5
99602.5
99585.5
99567.6
99548.6
99528.3
99506.9
99484
99459.8
99434.1
99406.8
99378
99347.9
99317.1
99286.5
99257.5
99230.4
99205.6
99172.4
99133.2
99073.7
98953.9
98572.7
96907.7
100578
101848
102389
102698
102908
103066
103191
103291
103372
103439
103494
103540
103576
103605
103628
103645
103656
103662
103663
103660
100532
101554
102186
102584
102850
103041
103185
103297
103387
103459
103517
103563
103600
103629
103651
103666
103675
103679
103678
103670
100818
101586
102128
102524
102810
103019
103177
103300
103396
103472
103533
103580
103617
103645
103666
103680
103688
103690
103688
103677
101093
101718
102178
102537
102813
103025
103188
103314
103414
103492
103553
103601
103637
103664
103682
103694
103700
103701
103698
103681
101329
101859
102262
102586
102845
103050
103211
103338
103438
103516
103577
103623
103658
103682
103699
103708
103712
103711
103706
103684
101528
101990
102351
102649
102891
103086
103243
103367
103465
103542
103602
103646
103678
103701
103714
103721
103722
103720
103712
103686
101689
102103
102435
102711
102940
103126
103277
103398
103494
103569
103626
103669
103699
103718
103729
103733
103732
103728
103716
103687
101810
102191
102503
102765
102983
103163
103309
103427
103521
103594
103650
103691
103718
103735
103743
103744
103741
103734
103719
103689
101891
102252
102551
102804
103017
103192
103336
103453
103545
103618
103672
103710
103736
103750
103754
103753
103748
103739
103722
103693
101935
102286
102580
102829
103038
103212
103355
103471
103562
103633
103687
103724
103748
103760
103763
103760
103754
103743
103722
103698
101929
102281
102575
102824
103034
103208
103351
103467
103559
103631
103684
103722
103746
103759
103762
103759
103752
103742
103723
103698
101877
102238
102539
102793
103006
103182
103327
103444
103538
103611
103666
103706
103732
103746
103752
103751
103746
103737
103721
103696
101788
102171
102484
102748
102968
103149
103297
103416
103512
103587
103644
103685
103714
103731
103740
103742
103739
103732
103718
103695
101659
102076
102410
102689
102920
103109
103262
103385
103483
103560
103619
103663
103694
103714
103726
103731
103730
103726
103715
103693
101492
101958
102322
102622
102868
103066
103225
103352
103453
103532
103593
103639
103673
103696
103711
103718
103720
103718
103710
103688
101288
101821
102228
102556
102819
103027
103192
103322
103425
103505
103568
103616
103652
103678
103695
103705
103709
103709
103704
103686
101047
101676
102141
102505
102786
103001
103168
103298
103400
103481
103544
103593
103631
103659
103679
103691
103698
103699
103696
103682
100767
101539
102088
102490
102781
102995
103157
103283
103382
103460
103523
103572
103611
103641
103662
103677
103686
103689
103687
103678
100474
101505
102145
102550
102822
103017
103165
103281
103373
103447
103507
103556
103594
103625
103647
103663
103674
103678
103677
103671
100518
101802
102351
102666
102881
103043
103171
103274
103358
103427
103484
103531
103570
103600
103624
103642
103654
103661
103662
103659
103499
103497
103497
103496
103495
103494
103494
103494
103493
103493
103493
103493
103494
103494
103494
103495
103496
103497
103497
103499
103496
103494
103494
103493
103493
103493
103493
103493
103492
103492
103492
103492
103493
103493
103493
103493
103493
103494
103494
103496
103496
103493
103493
103493
103493
103493
103493
103493
103493
103493
103493
103493
103493
103493
103493
103493
103493
103493
103493
103496
103496
103494
103494
103494
103494
103494
103494
103494
103494
103494
103494
103494
103494
103494
103494
103494
103494
103494
103494
103496
103495
103494
103493
103493
103493
103493
103493
103493
103493
103493
103493
103493
103493
103493
103493
103493
103493
103493
103494
103495
103495
103493
103493
103493
103493
103493
103492
103492
103492
103492
103492
103492
103492
103492
103492
103493
103493
103493
103493
103495
103494
103492
103492
103492
103492
103492
103492
103492
103492
103492
103492
103492
103492
103492
103492
103492
103492
103492
103492
103494
103493
103492
103492
103491
103491
103491
103491
103491
103491
103491
103491
103491
103491
103491
103491
103491
103491
103492
103492
103493
103493
103491
103491
103491
103491
103491
103491
103491
103491
103491
103491
103491
103491
103491
103491
103491
103491
103491
103491
103493
103492
103490
103490
103490
103490
103490
103490
103490
103490
103490
103490
103490
103490
103490
103490
103490
103490
103490
103490
103492
103491
103490
103490
103489
103489
103489
103489
103489
103489
103489
103489
103489
103489
103489
103489
103489
103489
103490
103490
103491
103491
103489
103489
103489
103489
103489
103489
103489
103488
103488
103488
103488
103489
103489
103489
103489
103489
103489
103489
103491
103490
103488
103488
103488
103488
103488
103488
103488
103488
103488
103488
103488
103488
103488
103488
103488
103488
103488
103488
103490
103489
103488
103487
103487
103487
103487
103487
103487
103487
103487
103487
103487
103487
103487
103487
103487
103487
103487
103488
103489
103488
103487
103487
103487
103486
103486
103486
103486
103486
103486
103486
103486
103486
103486
103486
103486
103487
103487
103487
103488
103488
103486
103486
103486
103486
103486
103486
103486
103486
103486
103486
103486
103486
103486
103486
103486
103486
103486
103486
103488
103487
103485
103485
103485
103485
103485
103485
103485
103485
103485
103485
103485
103485
103485
103485
103485
103485
103485
103485
103487
103486
103484
103484
103484
103484
103484
103484
103484
103484
103484
103484
103484
103484
103484
103484
103484
103484
103484
103484
103486
103485
103484
103484
103483
103483
103483
103483
103483
103483
103483
103483
103483
103483
103483
103483
103483
103483
103484
103484
103485
103484
103483
103483
103483
103483
103483
103483
103482
103482
103482
103482
103482
103482
103483
103483
103483
103483
103483
103483
103484
103483
103482
103482
103482
103482
103482
103482
103482
103482
103482
103482
103482
103482
103482
103482
103482
103482
103482
103482
103483
103483
103481
103481
103481
103481
103481
103481
103481
103481
103481
103481
103481
103481
103481
103481
103481
103481
103481
103481
103483
103482
103481
103480
103480
103480
103480
103480
103480
103480
103480
103480
103480
103480
103480
103480
103480
103480
103480
103481
103482
103481
103480
103480
103479
103479
103479
103479
103479
103479
103479
103479
103479
103479
103479
103479
103479
103479
103480
103480
103481
103480
103479
103479
103479
103479
103479
103479
103478
103478
103478
103478
103478
103478
103479
103479
103479
103479
103479
103479
103480
103479
103478
103478
103478
103478
103478
103478
103478
103478
103478
103478
103478
103478
103478
103478
103478
103478
103478
103478
103479
103478
103477
103477
103477
103477
103477
103477
103477
103477
103477
103477
103477
103477
103477
103477
103477
103477
103477
103477
103478
103478
103476
103476
103476
103476
103476
103476
103476
103476
103476
103476
103476
103476
103476
103476
103476
103476
103476
103476
103478
103477
103476
103476
103475
103475
103475
103475
103475
103475
103475
103475
103475
103475
103475
103475
103475
103475
103476
103476
103477
103476
103475
103475
103475
103475
103475
103475
103474
103474
103474
103474
103474
103474
103475
103475
103475
103475
103475
103475
103476
103475
103474
103474
103474
103474
103474
103474
103474
103474
103474
103474
103474
103474
103474
103474
103474
103474
103474
103474
103475
103474
103473
103473
103473
103473
103473
103473
103473
103473
103473
103473
103473
103473
103473
103473
103473
103473
103473
103473
103474
103473
103472
103472
103472
103472
103472
103472
103472
103472
103472
103472
103472
103472
103472
103472
103472
103472
103472
103472
103473
103472
103472
103472
103471
103471
103471
103471
103471
103471
103471
103471
103471
103471
103471
103471
103471
103471
103472
103472
103472
103472
103471
103471
103471
103471
103471
103471
103471
103471
103470
103470
103471
103471
103471
103471
103471
103471
103471
103471
103472
103471
103470
103470
103470
103470
103470
103470
103470
103470
103470
103470
103470
103470
103470
103470
103470
103470
103470
103470
103471
103470
103469
103469
103469
103469
103469
103469
103469
103469
103469
103469
103469
103469
103469
103469
103469
103469
103469
103469
103470
103469
103469
103468
103468
103468
103468
103468
103468
103468
103468
103468
103468
103468
103468
103468
103468
103468
103468
103469
103469
103468
103468
103468
103468
103468
103467
103467
103467
103467
103467
103467
103467
103467
103467
103467
103468
103468
103468
103468
103468
103467
103467
103467
103467
103467
103467
103467
103467
103467
103467
103467
103467
103467
103467
103467
103467
103467
103467
103467
103467
103467
103466
103466
103466
103466
103466
103466
103466
103466
103466
103466
103466
103466
103466
103466
103466
103466
103466
103466
103467
103466
103465
103465
103465
103465
103465
103465
103465
103465
103465
103465
103465
103465
103465
103465
103465
103465
103465
103465
103466
103465
103465
103465
103465
103464
103464
103464
103464
103464
103464
103464
103464
103464
103464
103464
103464
103465
103465
103465
103465
103464
103464
103464
103464
103464
103464
103464
103464
103464
103464
103464
103464
103464
103464
103464
103464
103464
103464
103464
103464
103464
103463
103463
103463
103463
103463
103463
103463
103463
103463
103463
103463
103463
103463
103463
103463
103463
103463
103463
103464
103463
103462
103462
103462
103462
103462
103462
103462
103462
103462
103462
103462
103462
103462
103462
103462
103462
103462
103462
103463
103462
103462
103462
103462
103462
103461
103461
103461
103461
103461
103461
103461
103461
103461
103461
103462
103462
103462
103462
103462
103461
103461
103461
103461
103461
103461
103461
103461
103461
103461
103461
103461
103461
103461
103461
103461
103461
103461
103461
103461
103461
103460
103460
103460
103460
103460
103460
103460
103460
103460
103460
103460
103460
103460
103460
103460
103460
103460
103460
103461
103460
103460
103459
103459
103459
103459
103459
103459
103459
103459
103459
103459
103459
103459
103459
103459
103459
103459
103460
103460
103459
103459
103459
103459
103459
103459
103459
103459
103459
103459
103459
103459
103459
103459
103459
103459
103459
103459
103459
103459
103458
103458
103458
103458
103458
103458
103458
103458
103458
103458
103458
103458
103458
103458
103458
103458
103458
103458
103458
103458
103458
103457
103457
103457
103457
103457
103457
103457
103457
103457
103457
103457
103457
103457
103457
103457
103457
103457
103457
103458
103457
103457
103457
103457
103457
103456
103456
103456
103456
103456
103456
103456
103456
103456
103456
103457
103457
103457
103457
103457
103456
103456
103456
103456
103456
103456
103456
103456
103456
103456
103456
103456
103456
103456
103456
103456
103456
103456
103456
103456
103455
103455
103455
103455
103455
103455
103455
103455
103455
103455
103455
103455
103455
103455
103455
103455
103455
103455
103455
103455
103455
103455
103455
103454
103454
103454
103454
103454
103454
103454
103454
103454
103454
103454
103454
103454
103454
103455
103455
103455
103454
103454
103454
103454
103454
103454
103454
103454
103454
103454
103454
103454
103454
103454
103454
103454
103454
103454
103454
103454
103453
103453
103453
103453
103453
103453
103453
103453
103453
103453
103453
103453
103453
103453
103453
103453
103453
103453
103453
103453
103453
103453
103452
103452
103452
103452
103452
103452
103452
103452
103452
103452
103452
103452
103452
103452
103452
103452
103453
103453
103452
103452
103452
103452
103452
103452
103452
103452
103452
103452
103452
103452
103452
103452
103452
103452
103452
103452
103452
103452
103451
103451
103451
103451
103451
103451
103451
103451
103451
103451
103451
103451
103451
103451
103451
103451
103451
103451
103451
103451
103451
103451
103450
103450
103450
103450
103450
103450
103450
103450
103450
103450
103450
103450
103450
103450
103450
103451
103451
103451
103450
103450
103450
103450
103450
103450
103450
103450
103450
103450
103450
103450
103450
103450
103450
103450
103450
103450
103450
103450
103449
103449
103449
103449
103449
103449
103449
103449
103449
103449
103449
103449
103449
103449
103449
103449
103449
103449
103449
103449
103449
103449
103448
103448
103448
103448
103448
103448
103448
103448
103448
103448
103448
103448
103448
103448
103449
103449
103449
103449
103448
103448
103448
103448
103448
103448
103448
103448
103448
103448
103448
103448
103448
103448
103448
103448
103448
103448
103448
103448
103447
103447
103447
103447
103447
103447
103447
103447
103447
103447
103447
103447
103447
103447
103447
103447
103447
103447
103447
103447
103447
103447
103447
103446
103446
103446
103446
103446
103446
103446
103446
103446
103446
103447
103447
103447
103447
103447
103447
103447
103446
103446
103446
103446
103446
103446
103446
103446
103446
103446
103446
103446
103446
103446
103446
103446
103446
103446
103446
103446
103445
103445
103445
103445
103445
103445
103445
103445
103445
103445
103445
103445
103445
103445
103445
103445
103445
103445
103446
103446
103445
103445
103444
103444
103444
103444
103444
103444
103444
103445
103445
103445
103445
103445
103445
103445
103445
103445
103445
103445
103444
103444
103444
103444
103444
103444
103444
103444
103444
103444
103444
103444
103444
103444
103444
103444
103444
103444
103444
103444
103443
103443
103443
103443
103443
103443
103443
103443
103443
103443
103443
103443
103443
103444
103444
103444
103444
103444
103444
103444
103442
103442
103442
103442
103442
103442
103442
103443
103443
103443
103443
103443
103443
103443
103443
103443
103443
103443
103443
103443
103442
103442
103442
103442
103442
103442
103442
103442
103442
103442
103442
103442
103442
103442
103443
103443
103443
103443
103443
103443
103441
103441
103441
103441
103441
103441
103441
103441
103441
103441
103442
103442
103442
103442
103442
103442
103442
103442
103442
103442