/*--------------------------------*- C++ -*----------------------------------*\
| =========                 |                                                 |
| \\      /  F ield         | OpenFOAM: The Open Source CFD Toolbox           |
|  \\    /   O peration     | Version:  2.1.0                                 |
|   \\  /    A nd           | Web:      www.OpenFOAM.org                      |
|    \\/     M anipulation  |                                                 |
\*---------------------------------------------------------------------------*/
FoamFile
{
    version     2.0;
    format      ascii;
    class       surfaceScalarField;
    location    "0.25";
    object      phi;
}
// * * * * * * * * * * * * * * * * * * * * * * * * * * * * * * * * * * * * * //

dimensions      [0 3 -1 0 0 0 0];

internalField   nonuniform List<scalar> 
12460
(
-2.45881e-05
-3.22729e-09
-2.45506e-05
-3.75944e-08
-2.4491e-05
-5.97044e-08
-2.44204e-05
-7.08155e-08
-2.43433e-05
-7.72565e-08
-2.4262e-05
-8.14915e-08
-2.41776e-05
-8.45128e-08
-2.4091e-05
-8.68611e-08
-2.40024e-05
-8.88442e-08
-2.39121e-05
-9.06285e-08
-2.38201e-05
-9.23168e-08
-2.37264e-05
-9.39543e-08
-2.36312e-05
-9.55784e-08
-2.35345e-05
-9.71939e-08
-2.34361e-05
-9.88192e-08
-2.33362e-05
-1.00446e-07
-2.32346e-05
-1.02086e-07
-2.31315e-05
-1.03738e-07
-2.30267e-05
-1.05409e-07
-2.29204e-05
-1.07038e-07
-2.28125e-05
-1.08724e-07
-2.27028e-05
-1.10513e-07
-2.25914e-05
-1.12361e-07
-2.24781e-05
-1.14254e-07
-2.2363e-05
-1.16205e-07
-2.2246e-05
-1.18224e-07
-2.21269e-05
-1.2032e-07
-2.20058e-05
-1.22492e-07
-2.18826e-05
-1.24747e-07
-2.17571e-05
-1.27084e-07
-2.16293e-05
-1.2951e-07
-2.14992e-05
-1.32026e-07
-2.13665e-05
-1.34642e-07
-2.12313e-05
-1.37382e-07
-2.10933e-05
-1.40285e-07
-2.09523e-05
-1.43385e-07
-2.08082e-05
-1.46714e-07
-2.06607e-05
-1.50258e-07
-2.05097e-05
-1.54006e-07
-2.03548e-05
-1.57954e-07
-2.0196e-05
-1.62113e-07
-2.0033e-05
-1.66482e-07
-1.98656e-05
-1.71063e-07
-1.96936e-05
-1.75853e-07
-1.95168e-05
-1.80837e-07
-1.93349e-05
-1.8604e-07
-1.91481e-05
-1.91226e-07
-1.89561e-05
-1.96616e-07
-1.87584e-05
-2.02509e-07
-1.85549e-05
-2.08498e-07
-1.83458e-05
-2.14262e-07
-1.81315e-05
-2.19671e-07
-1.79122e-05
-2.24876e-07
-1.76879e-05
-2.30034e-07
-1.74587e-05
-2.3521e-07
-1.72245e-05
-2.40397e-07
-1.69852e-05
-2.45637e-07
-1.67408e-05
-2.50952e-07
-1.64912e-05
-2.56331e-07
-1.62363e-05
-2.61809e-07
-1.59761e-05
-2.67365e-07
-1.57104e-05
-2.7301e-07
-1.5439e-05
-2.78791e-07
-1.51619e-05
-2.84728e-07
-1.48789e-05
-2.9083e-07
-1.45897e-05
-2.97206e-07
-1.42939e-05
-3.03874e-07
-1.39913e-05
-3.10866e-07
-1.36814e-05
-3.18294e-07
-1.33636e-05
-3.26246e-07
-1.30375e-05
-3.34821e-07
-1.27022e-05
-3.4407e-07
-1.2357e-05
-3.54087e-07
-1.2001e-05
-3.64985e-07
-1.16333e-05
-3.76872e-07
-1.12527e-05
-3.89863e-07
-1.08579e-05
-4.04102e-07
-1.04476e-05
-4.19802e-07
-1.00199e-05
-4.3722e-07
-9.57288e-06
-4.56661e-07
-9.10404e-06
-4.7856e-07
-8.61028e-06
-5.0354e-07
-8.08771e-06
-5.32393e-07
-7.53158e-06
-5.65954e-07
-6.93651e-06
-6.04834e-07
-6.29682e-06
-6.4933e-07
-5.60704e-06
-6.99222e-07
-4.86308e-06
-7.53088e-07
-4.06465e-06
-8.07115e-07
-3.21986e-06
-8.52849e-07
-2.35392e-06
-8.73153e-07
-1.52654e-06
-8.33489e-07
-8.45826e-07
-6.85371e-07
-4.28943e-07
-4.19713e-07
-3.08001e-07
-1.22108e-07
-5.50921e-07
2.41635e-07
-1.44488e-06
8.85666e-07
-3.73541e-06
2.27578e-06
-9.28028e-06
5.5338e-06
1.54185e-05
-2.47054e-05
-2.97055e-05
-2.03861e-08
-2.96563e-05
-8.71518e-08
-2.95932e-05
-1.23192e-07
-2.95218e-05
-1.42666e-07
-2.94452e-05
-1.54407e-07
-2.9365e-05
-1.622e-07
-2.92823e-05
-1.67773e-07
-2.91978e-05
-1.72114e-07
-2.91116e-05
-1.75784e-07
-2.90239e-05
-1.79087e-07
-2.89349e-05
-1.8222e-07
-2.88446e-05
-1.85262e-07
-2.87529e-05
-1.88291e-07
-2.866e-05
-1.91311e-07
-2.85657e-05
-1.94359e-07
-2.84701e-05
-1.97417e-07
-2.83732e-05
-2.00503e-07
-2.8275e-05
-2.03596e-07
-2.81755e-05
-2.06735e-07
-2.80748e-05
-2.09739e-07
-2.79728e-05
-2.12784e-07
-2.78696e-05
-2.15999e-07
-2.77652e-05
-2.19268e-07
-2.76596e-05
-2.22588e-07
-2.75527e-05
-2.25982e-07
-2.74445e-05
-2.29477e-07
-2.73351e-05
-2.33084e-07
-2.72244e-05
-2.36801e-07
-2.71124e-05
-2.4064e-07
-2.6999e-05
-2.44599e-07
-2.68843e-05
-2.48693e-07
-2.67681e-05
-2.52928e-07
-2.66505e-05
-2.57331e-07
-2.65313e-05
-2.61934e-07
-2.64106e-05
-2.66805e-07
-2.6288e-05
-2.72012e-07
-2.61636e-05
-2.77599e-07
-2.60372e-05
-2.83533e-07
-2.59087e-05
-2.89778e-07
-2.5778e-05
-2.9633e-07
-2.56449e-05
-3.03213e-07
-2.55095e-05
-3.10449e-07
-2.53714e-05
-3.18061e-07
-2.52306e-05
-3.26054e-07
-2.50869e-05
-3.34424e-07
-2.494e-05
-3.43199e-07
-2.47898e-05
-3.52121e-07
-2.46366e-05
-3.61049e-07
-2.44808e-05
-3.69998e-07
-2.43226e-05
-3.78851e-07
-2.4162e-05
-3.87613e-07
-2.39987e-05
-3.96153e-07
-2.38327e-05
-4.04492e-07
-2.36642e-05
-4.12759e-07
-2.34931e-05
-4.21037e-07
-2.33194e-05
-4.29277e-07
-2.31432e-05
-4.37534e-07
-2.29645e-05
-4.45839e-07
-2.27834e-05
-4.54172e-07
-2.25998e-05
-4.62595e-07
-2.24138e-05
-4.71107e-07
-2.22253e-05
-4.7974e-07
-2.20343e-05
-4.88506e-07
-2.18408e-05
-4.97442e-07
-2.16448e-05
-5.06598e-07
-2.14461e-05
-5.16076e-07
-2.12447e-05
-5.25938e-07
-2.10405e-05
-5.36295e-07
-2.08331e-05
-5.47297e-07
-2.06224e-05
-5.59091e-07
-2.04079e-05
-5.71884e-07
-2.01892e-05
-5.85822e-07
-1.99656e-05
-6.01099e-07
-1.97366e-05
-6.1795e-07
-1.95011e-05
-6.36613e-07
-1.92583e-05
-6.57336e-07
-1.9007e-05
-6.80412e-07
-1.87459e-05
-7.06249e-07
-1.84735e-05
-7.35324e-07
-1.81879e-05
-7.68139e-07
-1.78872e-05
-8.05338e-07
-1.75693e-05
-8.47778e-07
-1.72317e-05
-8.96492e-07
-1.68717e-05
-9.52514e-07
-1.64867e-05
-1.0166e-06
-1.60738e-05
-1.08905e-06
-1.56308e-05
-1.16909e-06
-1.51568e-05
-1.25401e-06
-1.46534e-05
-1.3375e-06
-1.41265e-05
-1.40675e-06
-1.35888e-05
-1.43788e-06
-1.30601e-05
-1.38925e-06
-1.25707e-05
-1.20136e-06
-1.22044e-05
-8.11641e-07
-1.21758e-05
-1.74027e-07
-1.26672e-05
7.13016e-07
-1.40044e-05
2.20412e-06
-1.66984e-05
4.95214e-06
-2.17796e-05
1.06039e-05
2.64206e-05
-3.27884e-05
-3.26094e-05
-4.45514e-08
-3.25673e-05
-1.29934e-07
-3.25142e-05
-1.77013e-07
-3.24543e-05
-2.0334e-07
-3.23903e-05
-2.19379e-07
-3.23235e-05
-2.30013e-07
-3.22548e-05
-2.37536e-07
-3.21848e-05
-2.43374e-07
-3.21137e-05
-2.48242e-07
-3.20416e-05
-2.5262e-07
-3.19688e-05
-2.56734e-07
-3.1895e-05
-2.60745e-07
-3.18206e-05
-2.64725e-07
-3.17453e-05
-2.68724e-07
-3.16692e-05
-2.72769e-07
-3.15923e-05
-2.76873e-07
-3.15145e-05
-2.8105e-07
-3.14357e-05
-2.85298e-07
-3.1356e-05
-2.89661e-07
-3.12753e-05
-2.93963e-07
-3.11937e-05
-2.98182e-07
-3.11114e-05
-3.02368e-07
-3.10286e-05
-3.06511e-07
-3.09453e-05
-3.10664e-07
-3.08615e-05
-3.14869e-07
-3.07773e-05
-3.19179e-07
-3.06926e-05
-3.23601e-07
-3.06076e-05
-3.28131e-07
-3.05222e-05
-3.32774e-07
-3.04365e-05
-3.37527e-07
-3.03505e-05
-3.42401e-07
-3.02642e-05
-3.47405e-07
-3.01777e-05
-3.52569e-07
-3.0091e-05
-3.57938e-07
-3.00041e-05
-3.63594e-07
-2.99169e-05
-3.69636e-07
-2.98295e-05
-3.76119e-07
-2.97418e-05
-3.82971e-07
-2.96538e-05
-3.90117e-07
-2.95656e-05
-3.97549e-07
-2.94773e-05
-4.05277e-07
-2.93888e-05
-4.13328e-07
-2.93003e-05
-4.21736e-07
-2.92118e-05
-4.30499e-07
-2.91233e-05
-4.39604e-07
-2.9035e-05
-4.48973e-07
-2.89468e-05
-4.58539e-07
-2.88587e-05
-4.68176e-07
-2.87709e-05
-4.77608e-07
-2.86836e-05
-4.86837e-07
-2.85966e-05
-4.96075e-07
-2.85097e-05
-5.05273e-07
-2.8423e-05
-5.14326e-07
-2.83364e-05
-5.23249e-07
-2.825e-05
-5.32088e-07
-2.8164e-05
-5.40807e-07
-2.80783e-05
-5.49419e-07
-2.79933e-05
-5.57917e-07
-2.79089e-05
-5.6628e-07
-2.78255e-05
-5.74539e-07
-2.77432e-05
-5.82702e-07
-2.76621e-05
-5.90798e-07
-2.75825e-05
-5.98779e-07
-2.75047e-05
-6.06623e-07
-2.74289e-05
-6.14389e-07
-2.73554e-05
-6.22133e-07
-2.72847e-05
-6.29916e-07
-2.72169e-05
-6.37868e-07
-2.71524e-05
-6.46114e-07
-2.70915e-05
-6.54795e-07
-2.70346e-05
-6.64159e-07
-2.69816e-05
-6.74414e-07
-2.69329e-05
-6.85813e-07
-2.68885e-05
-6.98669e-07
-2.68482e-05
-7.13331e-07
-2.68119e-05
-7.30172e-07
-2.67792e-05
-7.49611e-07
-2.67496e-05
-7.72254e-07
-2.67223e-05
-7.98804e-07
-2.66963e-05
-8.29941e-07
-2.66705e-05
-8.66458e-07
-2.66437e-05
-9.09349e-07
-2.66145e-05
-9.59738e-07
-2.65816e-05
-1.01867e-06
-2.65438e-05
-1.08685e-06
-2.64999e-05
-1.16438e-06
-2.64493e-05
-1.25001e-06
-2.63925e-05
-1.34006e-06
-2.63314e-05
-1.42663e-06
-2.62703e-05
-1.49453e-06
-2.62162e-05
-1.51716e-06
-2.61775e-05
-1.45108e-06
-2.61668e-05
-1.23288e-06
-2.62195e-05
-7.76643e-07
-2.63952e-05
-1.24197e-08
-2.68816e-05
1.18781e-06
-2.78673e-05
3.17906e-06
-2.97547e-05
6.82949e-06
-3.32632e-05
1.41046e-05
3.10031e-05
-3.78531e-05
-3.5263e-05
-6.82474e-08
-3.52334e-05
-1.60694e-07
-3.51974e-05
-2.14277e-07
-3.51566e-05
-2.4546e-07
-3.51129e-05
-2.64647e-07
-3.50674e-05
-2.77224e-07
-3.50208e-05
-2.85953e-07
-3.49737e-05
-2.92581e-07
-3.49262e-05
-2.97968e-07
-3.48785e-05
-3.02721e-07
-3.48309e-05
-3.07101e-07
-3.47832e-05
-3.11326e-07
-3.47357e-05
-3.15466e-07
-3.46883e-05
-3.19602e-07
-3.46412e-05
-3.2375e-07
-3.45943e-05
-3.27939e-07
-3.45477e-05
-3.3218e-07
-3.45014e-05
-3.36451e-07
-3.44557e-05
-3.40733e-07
-3.44104e-05
-3.45032e-07
-3.43655e-05
-3.49318e-07
-3.43211e-05
-3.53483e-07
-3.42773e-05
-3.57548e-07
-3.42341e-05
-3.61559e-07
-3.41918e-05
-3.65559e-07
-3.41503e-05
-3.69633e-07
-3.41098e-05
-3.73783e-07
-3.40702e-05
-3.7799e-07
-3.40317e-05
-3.82255e-07
-3.39944e-05
-3.86566e-07
-3.39584e-05
-3.90929e-07
-3.39238e-05
-3.95343e-07
-3.38906e-05
-3.99836e-07
-3.38591e-05
-4.04457e-07
-3.38293e-05
-4.09302e-07
-3.38013e-05
-4.14502e-07
-3.37751e-05
-4.20123e-07
-3.37508e-05
-4.26052e-07
-3.37285e-05
-4.32155e-07
-3.37085e-05
-4.38404e-07
-3.36909e-05
-4.44815e-07
-3.36758e-05
-4.51402e-07
-3.36634e-05
-4.58177e-07
-3.36539e-05
-4.6513e-07
-3.36476e-05
-4.72237e-07
-3.36447e-05
-4.79389e-07
-3.36453e-05
-4.86581e-07
-3.36492e-05
-4.94042e-07
-3.3656e-05
-5.01659e-07
-3.36656e-05
-5.09205e-07
-3.3678e-05
-5.16698e-07
-3.36934e-05
-5.24065e-07
-3.37116e-05
-5.31224e-07
-3.37329e-05
-5.38133e-07
-3.37573e-05
-5.44758e-07
-3.37851e-05
-5.51071e-07
-3.38163e-05
-5.57041e-07
-3.38513e-05
-5.62612e-07
-3.38903e-05
-5.67744e-07
-3.39336e-05
-5.72412e-07
-3.39814e-05
-5.76614e-07
-3.40342e-05
-5.80368e-07
-3.40921e-05
-5.83606e-07
-3.41556e-05
-5.86248e-07
-3.42251e-05
-5.88352e-07
-3.43008e-05
-5.90028e-07
-3.4383e-05
-5.91365e-07
-3.44719e-05
-5.92519e-07
-3.45677e-05
-5.93672e-07
-3.46705e-05
-5.95052e-07
-3.47802e-05
-5.96984e-07
-3.48968e-05
-5.99784e-07
-3.50199e-05
-6.03828e-07
-3.51493e-05
-6.09551e-07
-3.52843e-05
-6.17472e-07
-3.54243e-05
-6.28142e-07
-3.55684e-05
-6.421e-07
-3.57157e-05
-6.60144e-07
-3.58649e-05
-6.83217e-07
-3.60148e-05
-7.1211e-07
-3.61639e-05
-7.47682e-07
-3.6311e-05
-7.90998e-07
-3.64545e-05
-8.43218e-07
-3.65931e-05
-9.0532e-07
-3.67259e-05
-9.77737e-07
-3.68522e-05
-1.06009e-06
-3.69722e-05
-1.15052e-06
-3.70867e-05
-1.24454e-06
-3.71977e-05
-1.33317e-06
-3.7308e-05
-1.40033e-06
-3.74207e-05
-1.41921e-06
-3.75367e-05
-1.34849e-06
-3.76552e-05
-1.12647e-06
-3.77767e-05
-6.65741e-07
-3.79131e-05
1.14743e-07
-3.81685e-05
1.43488e-06
-3.86899e-05
3.69266e-06
-3.96461e-05
7.77829e-06
-4.12211e-05
1.56729e-05
3.10335e-05
-4.1261e-05
-3.79899e-05
-8.46719e-08
-3.79783e-05
-1.74038e-07
-3.79665e-05
-2.281e-07
-3.79535e-05
-2.60702e-07
-3.79396e-05
-2.80945e-07
-3.79255e-05
-2.93929e-07
-3.79117e-05
-3.02708e-07
-3.78984e-05
-3.09063e-07
-3.78859e-05
-3.14019e-07
-3.78743e-05
-3.18175e-07
-3.78638e-05
-3.21873e-07
-3.78544e-05
-3.25304e-07
-3.78464e-05
-3.28579e-07
-3.78397e-05
-3.3175e-07
-3.78346e-05
-3.34851e-07
-3.78312e-05
-3.37884e-07
-3.78296e-05
-3.4086e-07
-3.783e-05
-3.43738e-07
-3.78325e-05
-3.46476e-07
-3.78374e-05
-3.49138e-07
-3.78446e-05
-3.51892e-07
-3.78538e-05
-3.54653e-07
-3.78653e-05
-3.57344e-07
-3.78791e-05
-3.59911e-07
-3.78952e-05
-3.62374e-07
-3.79139e-05
-3.6486e-07
-3.79352e-05
-3.67363e-07
-3.79592e-05
-3.69844e-07
-3.79862e-05
-3.723e-07
-3.80161e-05
-3.74718e-07
-3.80491e-05
-3.771e-07
-3.80853e-05
-3.79446e-07
-3.8125e-05
-3.8178e-07
-3.81681e-05
-3.84153e-07
-3.82148e-05
-3.86674e-07
-3.82652e-05
-3.89521e-07
-3.83193e-05
-3.92796e-07
-3.83771e-05
-3.96346e-07
-3.84388e-05
-3.99975e-07
-3.85044e-05
-4.03652e-07
-3.8574e-05
-4.07415e-07
-3.86477e-05
-4.11303e-07
-3.87255e-05
-4.15333e-07
-3.88075e-05
-4.19506e-07
-3.88936e-05
-4.23816e-07
-3.89837e-05
-4.28205e-07
-3.90777e-05
-4.32707e-07
-3.91757e-05
-4.37414e-07
-3.92776e-05
-4.42231e-07
-3.93834e-05
-4.47004e-07
-3.94929e-05
-4.51664e-07
-3.96063e-05
-4.56116e-07
-3.97235e-05
-4.60274e-07
-3.98445e-05
-4.64075e-07
-3.99693e-05
-4.67439e-07
-4.00981e-05
-4.70298e-07
-4.02309e-05
-4.72627e-07
-4.03678e-05
-4.74374e-07
-4.05088e-05
-4.75484e-07
-4.0654e-05
-4.75947e-07
-4.08033e-05
-4.75804e-07
-4.09568e-05
-4.75128e-07
-4.11143e-05
-4.73866e-07
-4.12757e-05
-4.7195e-07
-4.14409e-05
-4.69493e-07
-4.16097e-05
-4.66643e-07
-4.17818e-05
-4.63568e-07
-4.1957e-05
-4.60475e-07
-4.2135e-05
-4.57598e-07
-4.23152e-05
-4.55222e-07
-4.24974e-05
-4.53691e-07
-4.26811e-05
-4.53363e-07
-4.2866e-05
-4.54639e-07
-4.30515e-05
-4.5797e-07
-4.32374e-05
-4.6388e-07
-4.34231e-05
-4.73008e-07
-4.36083e-05
-4.85795e-07
-4.37926e-05
-5.03061e-07
-4.39754e-05
-5.25934e-07
-4.41564e-05
-5.55159e-07
-4.43351e-05
-5.91519e-07
-4.45111e-05
-6.36048e-07
-4.46841e-05
-6.89874e-07
-4.48539e-05
-7.53917e-07
-4.50205e-05
-8.28385e-07
-4.5184e-05
-9.12573e-07
-4.53451e-05
-1.00441e-06
-4.55045e-05
-1.09913e-06
-4.5663e-05
-1.18771e-06
-4.58208e-05
-1.25461e-06
-4.59764e-05
-1.27491e-06
-4.6124e-05
-1.21131e-06
-4.62501e-05
-1.00997e-06
-4.63334e-05
-5.91248e-07
-4.63752e-05
1.48556e-07
-4.64033e-05
1.45555e-06
-4.64481e-05
3.73009e-06
-4.651e-05
7.83286e-06
-4.62659e-05
1.54207e-05
2.81804e-05
-4.34247e-05
-4.09387e-05
-8.81662e-08
-4.09506e-05
-1.64777e-07
-4.09692e-05
-2.12498e-07
-4.09913e-05
-2.41914e-07
-4.10157e-05
-2.60124e-07
-4.10422e-05
-2.71428e-07
-4.10706e-05
-2.78683e-07
-4.1101e-05
-2.83511e-07
-4.11333e-05
-2.8694e-07
-4.11677e-05
-2.89514e-07
-4.12043e-05
-2.91597e-07
-4.12431e-05
-2.93352e-07
-4.12843e-05
-2.94908e-07
-4.13279e-05
-2.963e-07
-4.1374e-05
-2.97573e-07
-4.14227e-05
-2.98726e-07
-4.14742e-05
-2.99764e-07
-4.15285e-05
-3.00672e-07
-4.15856e-05
-3.01435e-07
-4.16457e-05
-3.02104e-07
-4.17089e-05
-3.02783e-07
-4.17752e-05
-3.03396e-07
-4.18448e-05
-3.03969e-07
-4.19177e-05
-3.0436e-07
-4.1994e-05
-3.04534e-07
-4.20739e-05
-3.04729e-07
-4.21573e-05
-3.04929e-07
-4.22444e-05
-3.05082e-07
-4.23352e-05
-3.05191e-07
-4.24298e-05
-3.05256e-07
-4.25281e-05
-3.05285e-07
-4.26302e-05
-3.05281e-07
-4.27361e-05
-3.05275e-07
-4.28458e-05
-3.05319e-07
-4.29593e-05
-3.05535e-07
-4.30764e-05
-3.06159e-07
-4.31971e-05
-3.07373e-07
-4.33213e-05
-3.08959e-07
-4.34487e-05
-3.10635e-07
-4.35795e-05
-3.12377e-07
-4.37135e-05
-3.14233e-07
-4.38506e-05
-3.16261e-07
-4.39908e-05
-3.18491e-07
-4.41338e-05
-3.2091e-07
-4.42795e-05
-3.23526e-07
-4.44279e-05
-3.26285e-07
-4.45786e-05
-3.29204e-07
-4.47318e-05
-3.32299e-07
-4.48872e-05
-3.35481e-07
-4.50447e-05
-3.38635e-07
-4.52043e-05
-3.41665e-07
-4.53658e-05
-3.44477e-07
-4.55291e-05
-3.46976e-07
-4.56941e-05
-3.49086e-07
-4.58607e-05
-3.50723e-07
-4.60289e-05
-3.51817e-07
-4.61985e-05
-3.52342e-07
-4.63694e-05
-3.52262e-07
-4.65415e-05
-3.51557e-07
-4.67146e-05
-3.50216e-07
-4.68887e-05
-3.48318e-07
-4.70634e-05
-3.46006e-07
-4.72385e-05
-3.43245e-07
-4.74139e-05
-3.39894e-07
-4.75894e-05
-3.36093e-07
-4.77648e-05
-3.31989e-07
-4.794e-05
-3.27767e-07
-4.81149e-05
-3.23647e-07
-4.82892e-05
-3.19847e-07
-4.8463e-05
-3.1665e-07
-4.8636e-05
-3.14381e-07
-4.88082e-05
-3.13389e-07
-4.89796e-05
-3.14061e-07
-4.91502e-05
-3.16842e-07
-4.93199e-05
-3.22245e-07
-4.94887e-05
-3.30897e-07
-4.96567e-05
-3.43266e-07
-4.98239e-05
-3.59969e-07
-4.99907e-05
-3.82109e-07
-5.0157e-05
-4.10576e-07
-5.03231e-05
-4.46071e-07
-5.0489e-05
-4.89648e-07
-5.0655e-05
-5.42391e-07
-5.08212e-05
-6.05283e-07
-5.09877e-05
-6.78407e-07
-5.11551e-05
-7.60774e-07
-5.13239e-05
-8.50377e-07
-5.14943e-05
-9.42667e-07
-5.1666e-05
-1.0292e-06
-5.1837e-05
-1.09592e-06
-5.20024e-05
-1.12112e-06
-5.21518e-05
-1.07274e-06
-5.22639e-05
-9.08002e-07
-5.23052e-05
-5.59293e-07
-5.2253e-05
8.77874e-08
-5.20797e-05
1.2739e-06
-5.17072e-05
3.349e-06
-5.09685e-05
7.08467e-06
-4.92491e-05
1.36896e-05
2.35638e-05
-4.46486e-05
-4.4048e-05
-7.7255e-08
-4.40846e-05
-1.31867e-07
-4.41334e-05
-1.67826e-07
-4.41894e-05
-1.90421e-07
-4.42504e-05
-2.04144e-07
-4.43151e-05
-2.12195e-07
-4.43829e-05
-2.16841e-07
-4.44535e-05
-2.19424e-07
-4.45268e-05
-2.20805e-07
-4.46026e-05
-2.21451e-07
-4.4681e-05
-2.21679e-07
-4.47619e-05
-2.21632e-07
-4.48453e-05
-2.21427e-07
-4.49312e-05
-2.21093e-07
-4.50198e-05
-2.20681e-07
-4.51108e-05
-2.20188e-07
-4.52045e-05
-2.19628e-07
-4.53006e-05
-2.18988e-07
-4.53993e-05
-2.18291e-07
-4.55005e-05
-2.17553e-07
-4.56042e-05
-2.16854e-07
-4.57104e-05
-2.16139e-07
-4.58191e-05
-2.15468e-07
-4.59301e-05
-2.14714e-07
-4.60436e-05
-2.13747e-07
-4.61597e-05
-2.12634e-07
-4.62785e-05
-2.11467e-07
-4.63999e-05
-2.10281e-07
-4.6524e-05
-2.09128e-07
-4.66506e-05
-2.08006e-07
-4.67797e-05
-2.06938e-07
-4.69111e-05
-2.05917e-07
-4.70448e-05
-2.04985e-07
-4.71806e-05
-2.04183e-07
-4.73184e-05
-2.03632e-07
-4.7458e-05
-2.03624e-07
-4.75992e-05
-2.04484e-07
-4.77416e-05
-2.05883e-07
-4.78853e-05
-2.07351e-07
-4.80301e-05
-2.08899e-07
-4.8176e-05
-2.1061e-07
-4.83228e-05
-2.12527e-07
-4.84704e-05
-2.14691e-07
-4.86186e-05
-2.17047e-07
-4.87674e-05
-2.19629e-07
-4.89167e-05
-2.22352e-07
-4.90664e-05
-2.25205e-07
-4.92165e-05
-2.28182e-07
-4.93669e-05
-2.31183e-07
-4.95176e-05
-2.34108e-07
-4.96686e-05
-2.36854e-07
-4.98198e-05
-2.39337e-07
-4.99711e-05
-2.41458e-07
-5.01226e-05
-2.43143e-07
-5.02742e-05
-2.44318e-07
-5.04258e-05
-2.44921e-07
-5.05774e-05
-2.44924e-07
-5.0729e-05
-2.44293e-07
-5.08805e-05
-2.43025e-07
-5.10319e-05
-2.41094e-07
-5.11832e-05
-2.38559e-07
-5.13343e-05
-2.35664e-07
-5.14851e-05
-2.32412e-07
-5.16356e-05
-2.28454e-07
-5.1786e-05
-2.23955e-07
-5.19362e-05
-2.19109e-07
-5.20864e-05
-2.14093e-07
-5.22365e-05
-2.09112e-07
-5.23866e-05
-2.04374e-07
-5.25368e-05
-2.00141e-07
-5.26873e-05
-1.96755e-07
-5.28381e-05
-1.94549e-07
-5.29893e-05
-1.93873e-07
-5.31412e-05
-1.95168e-07
-5.32938e-05
-1.98931e-07
-5.34475e-05
-2.05642e-07
-5.36024e-05
-2.15941e-07
-5.37586e-05
-2.30537e-07
-5.3916e-05
-2.50515e-07
-5.40748e-05
-2.7681e-07
-5.42354e-05
-3.09713e-07
-5.43981e-05
-3.50344e-07
-5.45633e-05
-3.99692e-07
-5.47314e-05
-4.58951e-07
-5.49026e-05
-5.28209e-07
-5.50774e-05
-6.06069e-07
-5.52562e-05
-6.90944e-07
-5.54386e-05
-7.78863e-07
-5.56232e-05
-8.62473e-07
-5.58062e-05
-9.29934e-07
-5.598e-05
-9.63513e-07
-5.61301e-05
-9.37995e-07
-5.62326e-05
-8.19979e-07
-5.62421e-05
-5.63234e-07
-5.61108e-05
-5.58745e-08
-5.57593e-05
9.10351e-07
-5.50321e-05
2.60878e-06
-5.36204e-05
5.65747e-06
-5.08015e-05
1.08505e-05
1.79208e-05
-4.51835e-05
-4.69728e-05
-5.45595e-08
-4.70246e-05
-8.46193e-08
-4.70905e-05
-1.06821e-07
-4.71655e-05
-1.20893e-07
-4.72465e-05
-1.29082e-07
-4.73317e-05
-1.3343e-07
-4.74201e-05
-1.35408e-07
-4.75112e-05
-1.3598e-07
-4.76045e-05
-1.35716e-07
-4.76999e-05
-1.3497e-07
-4.77972e-05
-1.33955e-07
-4.78964e-05
-1.32786e-07
-4.79974e-05
-1.31543e-07
-4.81001e-05
-1.30251e-07
-4.82046e-05
-1.28954e-07
-4.83108e-05
-1.27639e-07
-4.84187e-05
-1.26342e-07
-4.85281e-05
-1.2503e-07
-4.86391e-05
-1.23765e-07
-4.87516e-05
-1.22529e-07
-4.88655e-05
-1.21397e-07
-4.89808e-05
-1.20315e-07
-4.90975e-05
-1.19271e-07
-4.92156e-05
-1.18217e-07
-4.93347e-05
-1.17302e-07
-4.94546e-05
-1.16418e-07
-4.95752e-05
-1.15596e-07
-4.96964e-05
-1.14833e-07
-4.9818e-05
-1.14219e-07
-4.99401e-05
-1.13714e-07
-5.00624e-05
-1.13358e-07
-5.01848e-05
-1.13113e-07
-5.03073e-05
-1.13015e-07
-5.04298e-05
-1.13096e-07
-5.05522e-05
-1.13429e-07
-5.06745e-05
-1.14332e-07
-5.07963e-05
-1.16384e-07
-5.09174e-05
-1.19129e-07
-5.1038e-05
-1.21719e-07
-5.11581e-05
-1.24273e-07
-5.12778e-05
-1.2692e-07
-5.1397e-05
-1.29702e-07
-5.15159e-05
-1.32649e-07
-5.16344e-05
-1.35701e-07
-5.17525e-05
-1.38868e-07
-5.18704e-05
-1.42077e-07
-5.19881e-05
-1.45291e-07
-5.21057e-05
-1.48479e-07
-5.22232e-05
-1.51559e-07
-5.23407e-05
-1.54445e-07
-5.24584e-05
-1.57038e-07
-5.25762e-05
-1.59257e-07
-5.26942e-05
-1.61009e-07
-5.28125e-05
-1.62221e-07
-5.29312e-05
-1.6282e-07
-5.30503e-05
-1.62755e-07
-5.31699e-05
-1.61993e-07
-5.329e-05
-1.60503e-07
-5.34108e-05
-1.58282e-07
-5.35323e-05
-1.55311e-07
-5.36547e-05
-1.51565e-07
-5.3778e-05
-1.47431e-07
-5.3902e-05
-1.43142e-07
-5.40269e-05
-1.37878e-07
-5.4153e-05
-1.31894e-07
-5.42803e-05
-1.25471e-07
-5.44089e-05
-1.18804e-07
-5.45389e-05
-1.12073e-07
-5.46705e-05
-1.0548e-07
-5.48037e-05
-9.92379e-08
-5.49387e-05
-9.37457e-08
-5.50756e-05
-8.93217e-08
-5.52146e-05
-8.62489e-08
-5.53559e-05
-8.49768e-08
-5.54997e-05
-8.59839e-08
-5.56461e-05
-8.97057e-08
-5.57955e-05
-9.686e-08
-5.5948e-05
-1.08017e-07
-5.6104e-05
-1.24359e-07
-5.62631e-05
-1.47348e-07
-5.64261e-05
-1.76206e-07
-5.65934e-05
-2.12439e-07
-5.67655e-05
-2.56742e-07
-5.69429e-05
-3.10693e-07
-5.71252e-05
-3.74838e-07
-5.73134e-05
-4.46749e-07
-5.75073e-05
-5.25812e-07
-5.77059e-05
-6.08957e-07
-5.79066e-05
-6.90246e-07
-5.81044e-05
-7.60541e-07
-5.82895e-05
-8.06614e-07
-5.84445e-05
-8.10858e-07
-5.85425e-05
-7.49358e-07
-5.85356e-05
-5.9676e-07
-5.83521e-05
-2.65044e-07
-5.7861e-05
3.94524e-07
-5.68601e-05
1.58203e-06
-5.49379e-05
3.70471e-06
-5.13601e-05
7.23393e-06
1.17204e-05
-4.52024e-05
-4.93136e-05
-2.19523e-08
-4.93708e-05
-3.19579e-08
-4.94414e-05
-4.11736e-08
-4.95208e-05
-4.68535e-08
-4.96058e-05
-4.98563e-08
-4.96944e-05
-5.10968e-08
-4.97852e-05
-5.1251e-08
-4.98776e-05
-5.07868e-08
-4.99711e-05
-4.99724e-08
-5.00654e-05
-4.89822e-08
-5.01603e-05
-4.79147e-08
-5.02556e-05
-4.68341e-08
-5.03514e-05
-4.57736e-08
-5.04475e-05
-4.47492e-08
-5.05439e-05
-4.3781e-08
-5.06406e-05
-4.28643e-08
-5.07375e-05
-4.20192e-08
-5.08345e-05
-4.12325e-08
-5.09316e-05
-4.05504e-08
-5.10287e-05
-3.9963e-08
-5.11258e-05
-3.95159e-08
-5.12228e-05
-3.9171e-08
-5.13197e-05
-3.89056e-08
-5.14165e-05
-3.8723e-08
-5.15128e-05
-3.88444e-08
-5.16086e-05
-3.91801e-08
-5.17037e-05
-3.96922e-08
-5.1798e-05
-4.03105e-08
-5.18916e-05
-4.10884e-08
-5.19844e-05
-4.19712e-08
-5.20764e-05
-4.29856e-08
-5.21677e-05
-4.40765e-08
-5.22582e-05
-4.52734e-08
-5.2348e-05
-4.65804e-08
-5.24372e-05
-4.80399e-08
-5.2526e-05
-4.98758e-08
-5.26139e-05
-5.31611e-08
-5.27008e-05
-5.73662e-08
-5.27872e-05
-6.08993e-08
-5.28732e-05
-6.41888e-08
-5.2959e-05
-6.74339e-08
-5.30445e-05
-7.07009e-08
-5.313e-05
-7.39849e-08
-5.32155e-05
-7.72814e-08
-5.33011e-05
-8.05335e-08
-5.33869e-05
-8.37094e-08
-5.3473e-05
-8.67758e-08
-5.35595e-05
-8.96694e-08
-5.36464e-05
-9.23188e-08
-5.3734e-05
-9.4658e-08
-5.38222e-05
-9.66036e-08
-5.39112e-05
-9.80659e-08
-5.40009e-05
-9.89638e-08
-5.40916e-05
-9.92078e-08
-5.41832e-05
-9.87264e-08
-5.42759e-05
-9.74699e-08
-5.43698e-05
-9.5401e-08
-5.4465e-05
-9.25013e-08
-5.45615e-05
-8.87516e-08
-5.46595e-05
-8.41887e-08
-5.47592e-05
-7.86189e-08
-5.48607e-05
-7.24648e-08
-5.49635e-05
-6.68038e-08
-5.5068e-05
-5.9601e-08
-5.51745e-05
-5.14968e-08
-5.52831e-05
-4.28956e-08
-5.53938e-05
-3.39889e-08
-5.55067e-05
-2.49355e-08
-5.56219e-05
-1.59352e-08
-5.57395e-05
-7.22253e-09
-5.58597e-05
9.18413e-10
-5.59828e-05
8.14116e-09
-5.61087e-05
1.40908e-08
-5.62378e-05
1.84038e-08
-5.63702e-05
2.06587e-08
-5.65062e-05
2.03786e-08
-5.6646e-05
1.69748e-08
-5.67898e-05
9.67524e-09
-5.69386e-05
-1.68594e-09
-5.70917e-05
-2.06235e-08
-5.72505e-05
-4.41089e-08
-5.74151e-05
-7.48877e-08
-5.75864e-05
-1.12887e-07
-5.77652e-05
-1.59922e-07
-5.79503e-05
-2.18523e-07
-5.81432e-05
-2.83272e-07
-5.83438e-05
-3.55747e-07
-5.85504e-05
-4.3399e-07
-5.876e-05
-5.13576e-07
-5.89668e-05
-5.88336e-07
-5.916e-05
-6.49922e-07
-5.93214e-05
-6.88048e-07
-5.9421e-05
-6.9092e-07
-5.94162e-05
-6.45415e-07
-5.92181e-05
-5.10024e-07
-5.86654e-05
-2.06955e-07
-5.75038e-05
3.71013e-07
-5.52698e-05
1.41728e-06
-5.12397e-05
3.14218e-06
5.26322e-06
-4.4842e-05
-5.06317e-05
1.68283e-08
-5.06861e-05
1.89306e-08
-5.07524e-05
2.12741e-08
-5.08263e-05
2.29943e-08
-5.09046e-05
2.41647e-08
-5.09854e-05
2.49811e-08
-5.10671e-05
2.55257e-08
-5.11491e-05
2.59016e-08
-5.12307e-05
2.61203e-08
-5.13119e-05
2.62363e-08
-5.13924e-05
2.62605e-08
-5.1472e-05
2.61994e-08
-5.15509e-05
2.60734e-08
-5.16289e-05
2.58803e-08
-5.17061e-05
2.56376e-08
-5.17824e-05
2.53348e-08
-5.18579e-05
2.4989e-08
-5.19327e-05
2.45786e-08
-5.20066e-05
2.41054e-08
-5.20799e-05
2.35405e-08
-5.21524e-05
2.28901e-08
-5.22243e-05
2.21422e-08
-5.22954e-05
2.13315e-08
-5.23659e-05
2.04007e-08
-5.24358e-05
1.92854e-08
-5.25051e-05
1.79964e-08
-5.2574e-05
1.65982e-08
-5.26424e-05
1.50986e-08
-5.27103e-05
1.35162e-08
-5.27779e-05
1.18641e-08
-5.28452e-05
1.01631e-08
-5.29122e-05
8.43396e-09
-5.29789e-05
6.67285e-09
-5.30456e-05
4.89508e-09
-5.31122e-05
3.05737e-09
-5.3179e-05
1.19742e-09
-5.32458e-05
-2.48891e-09
-5.33117e-05
-7.70716e-09
-5.33779e-05
-1.13316e-08
-5.34444e-05
-1.45786e-08
-5.35111e-05
-1.77127e-08
-5.35783e-05
-2.07988e-08
-5.36459e-05
-2.38181e-08
-5.3714e-05
-2.67806e-08
-5.37826e-05
-2.9604e-08
-5.38519e-05
-3.22725e-08
-5.39218e-05
-3.47397e-08
-5.39925e-05
-3.69393e-08
-5.40639e-05
-3.88076e-08
-5.41363e-05
-4.02786e-08
-5.42096e-05
-4.12797e-08
-5.42839e-05
-4.17154e-08
-5.43592e-05
-4.15086e-08
-5.44356e-05
-4.05523e-08
-5.45133e-05
-3.87712e-08
-5.45922e-05
-3.6111e-08
-5.46725e-05
-3.25395e-08
-5.47542e-05
-2.80312e-08
-5.48375e-05
-2.258e-08
-5.49224e-05
-1.61663e-08
-5.50089e-05
-8.87566e-09
-5.50978e-05
5.54093e-11
-5.51876e-05
6.69381e-09
-5.52794e-05
1.62083e-08
-5.53735e-05
2.67183e-08
-5.54698e-05
3.77152e-08
-5.55684e-05
4.90825e-08
-5.56694e-05
6.06868e-08
-5.57729e-05
7.2338e-08
-5.58789e-05
8.37823e-08
-5.59877e-05
9.48537e-08
-5.60995e-05
1.05254e-07
-5.62145e-05
1.1456e-07
-5.63328e-05
1.22418e-07
-5.64547e-05
1.2843e-07
-5.65804e-05
1.32124e-07
-5.67101e-05
1.32925e-07
-5.68442e-05
1.30113e-07
-5.69823e-05
1.22984e-07
-5.71266e-05
1.10317e-07
-5.72762e-05
9.24908e-08
-5.74318e-05
6.81849e-08
-5.75931e-05
3.63232e-08
-5.77629e-05
-1.60779e-09
-5.79377e-05
-5.47895e-08
-5.8121e-05
-1.10789e-07
-5.83117e-05
-1.75768e-07
-5.85077e-05
-2.48687e-07
-5.87057e-05
-3.2631e-07
-5.88994e-05
-4.05655e-07
-5.90778e-05
-4.83229e-07
-5.92225e-05
-5.5595e-07
-5.93042e-05
-6.23492e-07
-5.92786e-05
-6.87495e-07
-5.90599e-05
-7.48943e-07
-5.84835e-05
-8.09256e-07
-5.72679e-05
-8.76253e-07
-5.49192e-05
-9.64767e-07
-5.07141e-05
-1.09239e-06
-1.20279e-06
-4.42614e-05
-5.03577e-05
5.4474e-08
-5.04113e-05
7.04392e-08
-5.0477e-05
8.47444e-08
-5.05505e-05
9.40511e-08
-5.06285e-05
9.9622e-08
-5.0709e-05
1.02713e-07
-5.07905e-05
1.04194e-07
-5.08724e-05
1.04695e-07
-5.09541e-05
1.04539e-07
-5.10353e-05
1.03977e-07
-5.11158e-05
1.03139e-07
-5.11955e-05
1.02107e-07
-5.12744e-05
1.00947e-07
-5.13525e-05
9.96858e-08
-5.14297e-05
9.8361e-08
-5.1506e-05
9.69706e-08
-5.15815e-05
9.55478e-08
-5.16561e-05
9.40666e-08
-5.17299e-05
9.25599e-08
-5.18029e-05
9.09742e-08
-5.18752e-05
8.93577e-08
-5.19468e-05
8.7654e-08
-5.20176e-05
8.59268e-08
-5.20878e-05
8.40821e-08
-5.21574e-05
8.21556e-08
-5.22265e-05
8.01045e-08
-5.22951e-05
7.80171e-08
-5.23632e-05
7.58463e-08
-5.2431e-05
7.36652e-08
-5.24984e-05
7.14389e-08
-5.25655e-05
6.92355e-08
-5.26323e-05
6.7028e-08
-5.26989e-05
6.48537e-08
-5.27654e-05
6.26865e-08
-5.28316e-05
6.0482e-08
-5.28973e-05
5.79783e-08
-5.29632e-05
5.42113e-08
-5.30299e-05
4.9746e-08
-5.30968e-05
4.60733e-08
-5.31636e-05
4.27559e-08
-5.32306e-05
3.96463e-08
-5.32979e-05
3.67073e-08
-5.33654e-05
3.39139e-08
-5.34333e-05
3.12686e-08
-5.35016e-05
2.88311e-08
-5.35704e-05
2.66286e-08
-5.36398e-05
2.47163e-08
-5.37098e-05
2.31504e-08
-5.37804e-05
2.19885e-08
-5.38518e-05
2.13003e-08
-5.3924e-05
2.11541e-08
-5.3997e-05
2.16433e-08
-5.40709e-05
2.28517e-08
-5.41458e-05
2.48903e-08
-5.42217e-05
2.78499e-08
-5.42988e-05
3.17908e-08
-5.4377e-05
3.67494e-08
-5.44566e-05
4.274e-08
-5.45376e-05
4.97768e-08
-5.462e-05
5.78413e-08
-5.47039e-05
6.69416e-08
-5.47887e-05
7.68926e-08
-5.48764e-05
8.67002e-08
-5.49658e-05
9.82275e-08
-5.50569e-05
1.10811e-07
-5.515e-05
1.24085e-07
-5.5245e-05
1.37885e-07
-5.53423e-05
1.52062e-07
-5.54418e-05
1.66427e-07
-5.55438e-05
1.80775e-07
-5.56483e-05
1.94908e-07
-5.57556e-05
2.08527e-07
-5.58657e-05
2.21287e-07
-5.5979e-05
2.32835e-07
-5.60955e-05
2.4279e-07
-5.62157e-05
2.50705e-07
-5.63397e-05
2.56031e-07
-5.6468e-05
2.58154e-07
-5.66007e-05
2.563e-07
-5.67388e-05
2.49741e-07
-5.68823e-05
2.38175e-07
-5.70315e-05
2.20562e-07
-5.7187e-05
1.95824e-07
-5.73471e-05
1.63539e-07
-5.75168e-05
1.21373e-07
-5.76918e-05
7.22784e-08
-5.78716e-05
1.41695e-08
-5.80551e-05
-5.30115e-08
-5.8239e-05
-1.28079e-07
-5.84166e-05
-2.11503e-07
-5.85764e-05
-3.04199e-07
-5.87006e-05
-4.09695e-07
-5.87609e-05
-5.38062e-07
-5.87108e-05
-7.08979e-07
-5.8467e-05
-9.60103e-07
-5.78765e-05
-1.36295e-06
-5.66599e-05
-2.05117e-06
-5.43292e-05
-3.24883e-06
-5.01857e-05
-5.18486e-06
-7.49803e-06
-4.38379e-05
-4.8673e-05
8.29333e-08
-4.87248e-05
1.21176e-07
-4.87896e-05
1.48339e-07
-4.88628e-05
1.66061e-07
-4.89414e-05
1.76967e-07
-4.90235e-05
1.83368e-07
-4.91077e-05
1.86966e-07
-4.91934e-05
1.8879e-07
-4.928e-05
1.89531e-07
-4.93673e-05
1.89543e-07
-4.94551e-05
1.89098e-07
-4.95432e-05
1.88329e-07
-4.96316e-05
1.87336e-07
-4.97202e-05
1.86168e-07
-4.98089e-05
1.84868e-07
-4.98977e-05
1.83451e-07
-4.99865e-05
1.81941e-07
-5.00753e-05
1.80332e-07
-5.0164e-05
1.78645e-07
-5.02526e-05
1.76846e-07
-5.03411e-05
1.74974e-07
-5.04293e-05
1.72987e-07
-5.05174e-05
1.70925e-07
-5.06052e-05
1.6872e-07
-5.06927e-05
1.66432e-07
-5.078e-05
1.64032e-07
-5.08671e-05
1.61594e-07
-5.09539e-05
1.59076e-07
-5.10404e-05
1.56544e-07
-5.11267e-05
1.53967e-07
-5.12128e-05
1.51422e-07
-5.12985e-05
1.48875e-07
-5.13841e-05
1.46384e-07
-5.14694e-05
1.4389e-07
-5.15544e-05
1.41352e-07
-5.16391e-05
1.3845e-07
-5.17238e-05
1.3469e-07
-5.18089e-05
1.30554e-07
-5.18941e-05