/*--------------------------------*- C++ -*----------------------------------*\
| =========                 |                                                 |
| \\      /  F ield         | OpenFOAM: The Open Source CFD Toolbox           |
|  \\    /   O peration     | Version:  2.1.0                                 |
|   \\  /    A nd           | Web:      www.OpenFOAM.org                      |
|    \\/     M anipulation  |                                                 |
\*---------------------------------------------------------------------------*/
FoamFile
{
    version     2.0;
    format      ascii;
    class       volScalarField;
    location    "0.25";
    object      rho;
}
// * * * * * * * * * * * * * * * * * * * * * * * * * * * * * * * * * * * * * //

dimensions      [1 -3 0 0 0 0 0];

internalField   nonuniform List<scalar> 
6400
(
999.967
999.962
999.957
999.951
999.945
999.938
999.93
999.921
999.911
999.901
999.888
999.875
999.86
999.844
999.826
999.806
999.784
999.759
999.733
999.703
999.671
999.636
999.598
999.556
999.511
999.461
999.407
999.348
999.285
999.216
999.141
999.061
998.974
998.881
998.78
998.672
998.557
998.433
998.301
998.16
998.01
997.851
997.682
997.504
997.315
997.116
996.906
996.686
996.456
996.214
995.962
995.698
995.421
995.133
994.831
994.517
994.19
993.85
993.497
993.13
992.749
992.355
991.948
991.526
991.091
990.641
990.178
989.701
989.209
988.703
988.183
987.649
987.1
986.536
985.957
985.363
984.753
984.127
983.485
982.826
982.15
981.458
980.751
980.033
979.311
978.596
977.902
977.258
976.703
976.31
976.212
976.667
978.189
981.605
986.857
984.828
967.341
952.731
948.387
947.331
999.912
999.9
999.888
999.874
999.858
999.841
999.821
999.8
999.777
999.751
999.722
999.69
999.656
999.618
999.576
999.53
999.48
999.426
999.366
999.301
999.231
999.154
999.071
998.981
998.883
998.778
998.664
998.541
998.409
998.267
998.115
997.951
997.776
997.589
997.389
997.176
996.949
996.708
996.452
996.181
995.894
995.591
995.271
994.934
994.581
994.21
993.821
993.416
992.991
992.548
992.085
991.603
991.1
990.578
990.036
989.474
988.89
988.287
987.662
987.017
986.351
985.664
984.956
984.228
983.478
982.708
981.917
981.105
980.272
979.419
978.546
977.654
976.742
975.813
974.867
973.905
972.93
971.942
970.944
969.938
968.927
967.914
966.9
965.89
964.887
963.896
962.921
961.966
961.035
960.124
959.225
958.308
957.315
956.145
954.675
952.901
950.749
948.651
947.462
946.865
999.845
999.826
999.804
999.781
999.754
999.725
999.693
999.657
999.618
999.575
999.528
999.476
999.419
999.356
999.288
999.214
999.133
999.044
998.948
998.845
998.732
998.61
998.479
998.337
998.183
998.018
997.841
997.651
997.447
997.228
996.995
996.745
996.48
996.196
995.895
995.576
995.237
994.878
994.498
994.098
993.675
993.231
992.763
992.273
991.759
991.221
990.659
990.072
989.461
988.824
988.162
987.476
986.765
986.029
985.269
984.485
983.678
982.847
981.993
981.116
980.218
979.299
978.359
977.398
976.419
975.421
974.406
973.374
972.327
971.266
970.192
969.108
968.015
966.917
965.815
964.714
963.617
962.529
961.452
960.393
959.356
958.344
957.364
956.417
955.51
954.644
953.823
953.049
952.324
951.648
951.019
950.433
949.885
949.367
948.871
948.393
947.869
947.311
946.828
946.431
999.754
999.725
999.691
999.654
999.613
999.568
999.519
999.465
999.405
999.339
999.267
999.188
999.101
999.007
998.904
998.792
998.67
998.538
998.394
998.239
998.071
997.89
997.694
997.483
997.257
997.014
996.753
996.474
996.175
995.857
995.517
995.156
994.772
994.365
993.934
993.477
992.995
992.486
991.95
991.387
990.795
990.175
989.527
988.849
988.141
987.405
986.639
985.843
985.02
984.169
983.291
982.387
981.458
980.506
979.531
978.535
977.519
976.484
975.433
974.367
973.288
972.198
971.099
969.994
968.885
967.775
966.666
965.563
964.468
963.384
962.317
961.268
960.243
959.245
958.277
957.344
956.448
955.592
954.778
954.009
953.285
952.607
951.976
951.389
950.848
950.349
949.892
949.474
949.093
948.745
948.428
948.138
947.871
947.622
947.386
947.161
946.919
946.658
946.386
946.097
999.632
999.589
999.54
999.485
999.426
999.36
999.288
999.208
999.121
999.025
998.921
998.806
998.682
998.546
998.397
998.236
998.062
997.872
997.667
997.445
997.205
996.947
996.669
996.371
996.051
995.709
995.343
994.953
994.536
994.094
993.624
993.126
992.599
992.042
991.455
990.838
990.189
989.508
988.796
988.053
987.278
986.472
985.635
984.768
983.873
982.949
982
981.025
980.027
979.007
977.968
976.912
975.84
974.756
973.662
972.561
971.455
970.348
969.242
968.14
967.046
965.963
964.895
963.843
962.812
961.805
960.824
959.873
958.953
958.067
957.217
956.404
955.629
954.893
954.197
953.539
952.92
952.339
951.795
951.286
950.811
950.369
949.957
949.574
949.219
948.889
948.583
948.3
948.037
947.794
947.568
947.359
947.166
946.986
946.818
946.66
946.499
946.33
946.15
945.954
999.475
999.414
999.345
999.269
999.186
999.094
998.994
998.884
998.763
998.631
998.487
998.33
998.159
997.973
997.771
997.552
997.316
997.06
996.785
996.488
996.169
995.828
995.462
995.07
994.653
994.208
993.735
993.234
992.703
992.142
991.551
990.928
990.275
989.59
988.875
988.128
987.352
986.545
985.71
984.848
983.959
983.045
982.107
981.149
980.17
979.175
978.164
977.141
976.107
975.065
974.018
972.969
971.919
970.873
969.831
968.798
967.776
966.766
965.773
964.797
963.842
962.909
962.001
961.118
960.263
959.436
958.638
957.871
957.134
956.428
955.752
955.107
954.491
953.905
953.348
952.818
952.315
951.837
951.385
950.957
950.551
950.167
949.803
949.459
949.133
948.825
948.534
948.258
947.999
947.754
947.525
947.312
947.114
946.933
946.769
946.624
946.486
946.356
946.236
946.142
999.297
999.218
999.129
999.031
998.924
998.806
998.678
998.538
998.385
998.219
998.038
997.842
997.63
997.401
997.154
996.888
996.601
996.294
995.966
995.614
995.24
994.841
994.417
993.968
993.493
992.991
992.463
991.907
991.325
990.716
990.08
989.418
988.731
988.018
987.281
986.521
985.739
984.937
984.116
983.277
982.422
981.553
980.671
979.779
978.879
977.971
977.059
976.144
975.228
974.313
973.4
972.491
971.588
970.693
969.807
968.931
968.067
967.217
966.38
965.559
964.753
963.965
963.194
962.441
961.706
960.99
960.293
959.615
958.956
958.315
957.694
957.091
956.506
955.939
955.389
954.857
954.341
953.841
953.357
952.888
952.434
951.994
951.567
951.153
950.752
950.362
949.983
949.616
949.262
948.92
948.593
948.285
947.998
947.737
947.508
947.321
947.162
947.035
946.961
946.988
999.156
999.065
998.963
998.853
998.732
998.601
998.458
998.304
998.137
997.957
997.762
997.553
997.329
997.088
996.831
996.557
996.265
995.954
995.624
995.276
994.907
994.519
994.11
993.682
993.233
992.764
992.275
991.766
991.239
990.693
990.129
989.547
988.949
988.335
987.707
987.065
986.41
985.743
985.065
984.378
983.682
982.979
982.27
981.555
980.837
980.115
979.391
978.667
977.942
977.219
976.498
975.779
975.064
974.354
973.648
972.949
972.255
971.568
970.889
970.217
969.552
968.896
968.248
967.608
966.976
966.353
965.738
965.131
964.533
963.943
963.361
962.786
962.219
961.659
961.106
960.558
960.016
959.479
958.946
958.414
957.884
957.353
956.821
956.287
955.749
955.206
954.658
954.104
953.545
952.983
952.421
951.866
951.327
950.815
950.346
949.943
949.635
949.411
949.319
949.465
999.132
999.044
998.947
998.842
998.729
998.607
998.476
998.335
998.184
998.022
997.85
997.667
997.473
997.266
997.048
996.818
996.575
996.32
996.052
995.772
995.479
995.173
994.855
994.524
994.181
993.826
993.459
993.08
992.69
992.289
991.877
991.454
991.022
990.58
990.129
989.669
989.202
988.727
988.245
987.756
987.261
986.76
986.255
985.746
985.233
984.717
984.199
983.679
983.159
982.638
982.117
981.596
981.077
980.56
980.044
979.532
979.022
978.516
978.013
977.514
977.02
976.529
976.044
975.562
975.085
974.612
974.144
973.679
973.219
972.762
972.309
971.858
971.409
970.961
970.512
970.063
969.613
969.161
968.706
968.248
967.783
967.307
966.819
966.315
965.791
965.243
964.667
964.06
963.416
962.734
962.01
961.247
960.445
959.614
958.762
957.914
957.17
956.605
956.272
956.367
999.285
999.218
999.145
999.067
998.984
998.895
998.8
998.699
998.592
998.479
998.359
998.233
998.099
997.959
997.812
997.657
997.496
997.327
997.15
996.966
996.775
996.576
996.37
996.156
995.935
995.706
995.47
995.227
994.976
994.719
994.455
994.184
993.906
993.623
993.334
993.039
992.739
992.434
992.124
991.81
991.492
991.17
990.845
990.516
990.186
989.854
989.52
989.185
988.849
988.513
988.178
987.843
987.51
987.178
986.848
986.521
986.197
985.876
985.559
985.247
984.94
984.638
984.341
984.05
983.763
983.482
983.205
982.934
982.668
982.407
982.151
981.9
981.654
981.414
981.18
980.949
980.723
980.499
980.277
980.056
979.837
979.62
979.405
979.192
978.98
978.758
978.525
978.277
978.008
977.716
977.395
977.042
976.651
976.218
975.733
975.186
974.559
973.934
973.487
973.443
999.542
999.502
999.459
999.413
999.364
999.312
999.256
999.198
999.136
999.07
999.001
998.928
998.851
998.77
998.686
998.597
998.504
998.408
998.307
998.201
998.092
997.978
997.861
997.739
997.612
997.482
997.348
997.209
997.067
996.921
996.771
996.617
996.46
996.299
996.135
995.968
995.798
995.625
995.449
995.272
995.092
994.911
994.728
994.544
994.36
994.175
993.99
993.806
993.622
993.439
993.257
993.077
992.899
992.723
992.55
992.38
992.214
992.052
991.894
991.741
991.592
991.449
991.312
991.181
991.057
990.942
990.835
990.737
990.648
990.57
990.502
990.445
990.4
990.366
990.344
990.335
990.338
990.354
990.383
990.425
990.48
990.548
990.628
990.719
990.821
990.943
991.086
991.254
991.443
991.654
991.889
992.153
992.448
992.78
993.152
993.568
994.029
994.531
995.061
995.584
999.742
999.721
999.698
999.674
999.648
999.621
999.593
999.562
999.531
999.497
999.462
999.425
999.386
999.346
999.303
999.259
999.212
999.164
999.114
999.062
999.008
998.951
998.893
998.833
998.772
998.708
998.642
998.575
998.506
998.435
998.363
998.289
998.214
998.137
998.06
997.981
997.901
997.821
997.739
997.657
997.575
997.492
997.409
997.327
997.245
997.163
997.082
997.002
996.923
996.846
996.77
996.696
996.625
996.556
996.489
996.426
996.367
996.311
996.26
996.213
996.171
996.135
996.104
996.08
996.062
996.052
996.049
996.053
996.066
996.087
996.117
996.156
996.204
996.261
996.328
996.403
996.488
996.581
996.683
996.793
996.911
997.036
997.167
997.303
997.444
997.587
997.732
997.877
998.025
998.179
998.337
998.496
998.657
998.816
998.973
999.125
999.268
999.4
999.514
999.605
999.861
999.851
999.839
999.827
999.814
999.8
999.786
999.771
999.755
999.739
999.722
999.704
999.685
999.666
999.646
999.625
999.603
999.581
999.558
999.534
999.509
999.484
999.458
999.431
999.404
999.377
999.348
999.319
999.29
999.261
999.231
999.201
999.171
999.14
999.11
999.079
999.049
999.019
998.989
998.96
998.931
998.902
998.874
998.847
998.821
998.795
998.77
998.747
998.724
998.703
998.684
998.666
998.65
998.636
998.624
998.614
998.607
998.602
998.6
998.602
998.606
998.613
998.624
998.639
998.656
998.678
998.703
998.732
998.764
998.8
998.84
998.882
998.928
998.977
999.028
999.081
999.136
999.193
999.25
999.308
999.366
999.423
999.48
999.534
999.587
999.637
999.683
999.726
999.765
999.8
999.831
999.859
999.885
999.908
999.928
999.945
999.959
999.97
999.978
999.984
999.929
999.923
999.917
999.911
999.905
999.898
999.891
999.884
999.877
999.869
999.861
999.853
999.844
999.835
999.826
999.817
999.807
999.797
999.787
999.777
999.766
999.755
999.744
999.734
999.722
999.711
999.7
999.689
999.678
999.667
999.656
999.645
999.635
999.624
999.614
999.604
999.595
999.586
999.577
999.569
999.562
999.555
999.548
999.542
999.537
999.532
999.528
999.525
999.523
999.521
999.521
999.521
999.522
999.525
999.528
999.532
999.538
999.545
999.553
999.562
999.572
999.583
999.595
999.609
999.623
999.639
999.655
999.672
999.689
999.708
999.726
999.745
999.764
999.783
999.802
999.821
999.839
999.856
999.873
999.889
999.904
999.918
999.931
999.943
999.953
999.962
999.97
999.977
999.982
999.986
999.99
999.992
999.994
999.996
999.997
999.998
999.999
999.999
999.999
1000
999.964
999.961
999.958
999.955
999.952
999.949
999.946
999.943
999.939
999.936
999.932
999.928
999.924
999.92
999.916
999.912
999.908
999.904
999.9
999.896
999.891
999.887
999.883
999.879
999.875
999.871
999.867
999.863
999.859
999.855
999.851
999.848
999.845
999.842
999.839
999.836
999.834
999.832
999.83
999.829
999.828
999.827
999.826
999.826
999.826
999.826
999.827
999.828
999.83
999.832
999.834
999.837
999.84
999.843
999.847
999.851
999.856
999.86
999.866
999.871
999.877
999.883
999.889
999.895
999.902
999.908
999.915
999.921
999.928
999.934
999.941
999.947
999.952
999.958
999.963
999.968
999.973
999.977
999.981
999.984
999.987
999.989
999.992
999.994
999.995
999.996
999.997
999.998
999.999
999.999
999.999
1000
1000
1000
1000
1000
1000
1000
1000
1000
999.982
999.98
999.979
999.977
999.976
999.975
999.973
999.971
999.97
999.968
999.967
999.965
999.963
999.961
999.96
999.958
999.956
999.955
999.953
999.951
999.949
999.948
999.946
999.945
999.943
999.942
999.94
999.939
999.938
999.937
999.935
999.935
999.934
999.933
999.932
999.932
999.931
999.931
999.931
999.931
999.931
999.932
999.932
999.933
999.934
999.935
999.936
999.937
999.938
999.94
999.941
999.943
999.945
999.947
999.949
999.951
999.954
999.956
999.958
999.961
999.963
999.966
999.968
999.971
999.973
999.976
999.978
999.98
999.982
999.985
999.986
999.988
999.99
999.991
999.993
999.994
999.995
999.996
999.997
999.998
999.998
999.999
999.999
999.999
999.999
1000
1000
1000
1000
1000
1000
1000
1000
1000
1000
1000
1000
1000
1000
1000
999.991
999.99
999.989
999.989
999.988
999.987
999.987
999.986
999.985
999.984
999.984
999.983
999.982
999.981
999.981
999.98
999.979
999.978
999.978
999.977
999.976
999.976
999.975
999.974
999.974
999.973
999.973
999.972
999.972
999.972
999.971
999.971
999.971
999.971
999.971
999.971
999.971
999.971
999.971
999.971
999.972
999.972
999.973
999.973
999.974
999.974
999.975
999.976
999.977
999.977
999.978
999.979
999.98
999.981
999.982
999.983
999.984
999.985
999.986
999.987
999.988
999.989
999.99
999.991
999.992
999.993
999.994
999.994
999.995
999.996
999.997
999.997
999.998
999.998
999.998
999.999
999.999
999.999
999.999
1000
1000
1000
1000
1000
1000
1000
1000
1000
1000
1000
1000
1000
1000
1000
1000
1000
1000
1000
1000
1000
999.996
999.995
999.995
999.995
999.994
999.994
999.994
999.993
999.993
999.993
999.992
999.992
999.991
999.991
999.991
999.99
999.99
999.99
999.99
999.989
999.989
999.989
999.988
999.988
999.988
999.988
999.988
999.988
999.987
999.987
999.987
999.987
999.987
999.987
999.987
999.987
999.987
999.988
999.988
999.988
999.988
999.988
999.989
999.989
999.989
999.99
999.99
999.99
999.991
999.991
999.991
999.992
999.992
999.993
999.993
999.994
999.994
999.995
999.995
999.995
999.996
999.996
999.997
999.997
999.997
999.998
999.998
999.998
999.999
999.999
999.999
999.999
999.999
999.999
1000
1000
1000
1000
1000
1000
1000
1000
1000
1000
1000
1000
1000
1000
1000
1000
1000
1000
1000
1000
1000
1000
1000
1000
1000
1000
999.998
999.998
999.998
999.998
999.997
999.997
999.997
999.997
999.997
999.997
999.997
999.996
999.996
999.996
999.996
999.996
999.996
999.996
999.995
999.995
999.995
999.995
999.995
999.995
999.995
999.995
999.995
999.995
999.995
999.995
999.995
999.995
999.995
999.995
999.995
999.995
999.995
999.995
999.995
999.995
999.995
999.995
999.995
999.996
999.996
999.996
999.996
999.996
999.996
999.996
999.997
999.997
999.997
999.997
999.997
999.998
999.998
999.998
999.998
999.998
999.998
999.999
999.999
999.999
999.999
999.999
999.999
999.999
999.999
1000
1000
1000
1000
1000
1000
1000
1000
1000
1000
1000
1000
1000
1000
1000
1000
1000
1000
1000
1000
1000
1000
1000
1000
1000
1000
1000
1000
1000
1000
1000
999.999
999.999
999.999
999.999
999.999
999.999
999.999
999.999
999.999
999.999
999.999
999.999
999.999
999.999
999.999
999.999
999.999
999.999
999.999
999.999
999.999
999.999
999.999
999.999
999.999
999.999
999.999
999.999
999.998
999.998
999.998
999.998
999.998
999.999
999.999
999.999
999.999
999.999
999.999
999.999
999.999
999.999
999.999
999.999
999.999
999.999
999.999
999.999
999.999
999.999
999.999
999.999
999.999
999.999
999.999
999.999
999.999
999.999
999.999
1000
1000
1000
1000
1000
1000
1000
1000
1000
1000
1000
1000
1000
1000
1000
1000
1000
1000
1000
1000
1000
1000
1000
1000
1000
1000
1000
1000
1000
1000
1000
1000
1000
1000
1000
1000
1000
1000
1000
1000
1000
947.03
945.45
945.146
945.106
945.135
945.19
945.264
945.358
945.484
945.654
945.892
946.233
946.73
947.459
948.534
950.117
952.449
955.925
961.255
970.049
946.448
945.382
945.189
945.191
945.248
945.332
945.44
945.578
945.759
946.003
946.339
946.809
947.474
948.422
949.776
951.707
954.48
958.527
964.654
974.985
945.98
945.362
945.279
945.328
945.423
945.55
945.71
945.914
946.18
946.531
947.004
947.648
948.533
949.754
951.44
953.78
957.065
961.775
968.847
980.946
945.725
945.441
945.457
945.564
945.716
945.909
946.151
946.456
946.847
947.352
948.012
948.884
950.045
951.592
953.666
956.474
960.334
965.774
973.855
987.409
945.739
945.691
945.808
945.996
946.238
946.536
946.905
947.362
947.933
948.649
949.554
950.709
952.194
954.111
956.617
959.931
964.392
970.544
979.486
993.223
946.133
946.272
946.517
946.833
947.22
947.686
948.249
948.925
949.74
950.718
951.912
953.386
955.218
957.525
960.469
964.281
969.291
975.997
985.346
997.191
947.247
947.589
948.026
948.549
949.163
949.878
950.703
951.651
952.73
953.984
955.471
957.254
959.413
962.074
965.403
969.616
974.998
981.967
990.893
999.112
950.08
950.69
951.398
952.202
953.097
954.079
955.148
956.312
957.607
959.092
960.805
962.811
965.188
968.067
971.588
975.951
981.408
988.103
995.424
999.766
957.239
958.089
959.016
960.01
961.052
962.11
963.234
964.444
965.806
967.323
969.035
970.98
973.246
975.935
979.224
983.302
988.26
993.684
998.246
999.924
974.111
974.809
975.556
976.327
977.104
977.867
978.702
979.606
980.577
981.607
982.741
983.985
985.433
987.119
989.272
991.956
995.003
997.802
999.541
999.948
995.955
996.002
996.075
996.169
996.305
996.539
996.774
997.021
997.267
997.535
997.808
998.112
998.431
998.796
999.119
999.382
999.588
999.795
999.956
999.991
999.645
999.638
999.635
999.634
999.64
999.66
999.686
999.719
999.752
999.786
999.819
999.853
999.886
999.92
999.946
999.964
999.976
999.987
999.998
999.999
999.985
999.984
999.983
999.981
999.98
999.98
999.98
999.981
999.984
999.986
999.989
999.991
999.994
999.996
999.997
999.998
999.999
999.999
1000
1000
1000
1000
1000
1000
999.999
999.999
999.999
999.999
999.999
999.999
999.999
1000
1000
1000
1000
1000
1000
1000
1000
1000
1000
1000
1000
1000
1000
1000
1000
1000
1000
1000
1000
1000
1000
1000
1000
1000
1000
1000
1000
1000
1000
1000
1000
1000
1000
1000
1000
1000
1000
1000
1000
1000
1000
1000
1000
1000
1000
1000
1000
1000
1000
1000
1000
1000
1000
1000
1000
1000
1000
1000
1000
1000
1000
1000
1000
1000
1000
1000
1000
1000
1000
1000
1000
1000
1000
1000
1000
1000
1000
1000
1000
1000
1000
1000
1000
1000
1000
1000
1000
1000
1000
1000
1000
1000
1000
1000
1000
1000
1000
1000
1000
1000
1000
1000
1000
1000
1000
1000
1000
1000
1000
1000
1000
1000
1000
1000
1000
1000
1000
1000
1000
1000
1000
1000
1000
1000
1000
1000
1000
1000
944.555
944.555
944.555
944.555
944.555
944.555
944.555
944.555
944.555
944.555
944.555
944.555
944.555
944.555
944.555
944.555
944.555
944.555
944.555
944.555
944.555
944.555
944.555
944.555
944.555
944.555
944.555
944.555
944.555
944.555
944.555
944.555
944.555
944.555
944.555
944.555
944.555
944.555
944.555
944.555
944.555
944.555
944.555
944.555
944.555
944.555
944.555
944.555
944.555
944.555
944.555
944.555
944.555
944.555
944.555
944.555
944.555
944.555
944.555
944.555
944.555
944.555
944.555
944.555
944.555
944.555
944.555
944.555
944.555
944.555
944.555
944.555
944.555
944.555
944.555
944.555
944.555
944.555
944.555
944.555
944.555
944.555
944.555
944.555
944.555
944.555
944.555
944.555
944.555
944.555
944.555
944.555
944.555
944.555
944.555
944.555
944.555
944.555
944.555
944.555
944.555
944.555
944.555
944.555
944.555
944.555
944.555
944.555
944.555
944.555
944.555
944.555
944.555
944.555
944.555
944.555
944.555
944.555
944.555
944.555
944.555
944.555
944.555
944.555
944.555
944.555
944.555
944.555
944.555
944.555
944.555
944.555
944.555
944.555
944.555
944.555
944.555
944.555
944.555
944.555
944.555
944.555
944.555
944.555
944.555
944.555
944.555
944.555
944.555
944.555
944.555
944.555
944.555
944.555
944.555
944.555
944.555
944.555
944.555
944.555
944.555
944.555
944.555
944.555
944.555
944.555
944.555
944.555
944.555
944.555
944.555
944.555
944.555
944.555
944.555
944.555
944.555
944.555
944.555
944.555
944.555
944.555
944.555
944.555
944.555
944.555
944.555
944.555
944.555
944.555
944.555
944.555
944.555
944.555
944.555
944.555
944.555
944.555
944.555
944.555
944.555
944.555
944.555
944.555
944.555
944.555
944.555
944.555
944.555
944.555
944.555
944.555
944.555
944.555
944.555
944.555
944.555
944.555
944.555
944.555
944.555
944.555
944.555
944.555
944.555
944.555
944.555
944.555
944.555
944.555
944.555
944.555
944.555
944.555
944.555
944.555
944.555
944.555
944.555
944.555
944.555
944.555
944.555
944.555
944.555
944.555
944.555
944.555
944.555
944.555
944.555
944.555
944.555
944.555
944.555
944.555
944.555
944.555
944.555
944.555
944.555
944.555
944.555
944.555
944.555
944.555
944.555
944.555
944.555
944.555
944.555
944.555
944.555
944.555
944.555
944.555
944.555
944.555
944.555
944.555
944.555
944.555
944.555
944.555
944.555
944.555
944.555
944.555
944.555
944.555
944.555
944.555
944.555
944.555
944.555
944.555
944.555
944.555
944.555
944.555
944.555
944.555
944.555
944.555
944.555
944.555
944.555
944.555
944.555
944.555
944.555
944.555
944.555
944.555
944.555
944.555
944.555
944.555
944.555
944.555
944.555
944.555
944.555
944.555
944.555
944.555
944.555
944.555
944.555
944.555
944.555
944.555
944.555
944.555
944.555
944.555
944.555
944.555
944.555
944.555
944.555
944.555
944.555
944.555
944.555
944.555
944.555
944.555
944.555
944.555
944.555
944.555
944.555
944.555
944.555
944.555
944.555
944.555
944.555
944.555
944.555
944.555
944.555
944.555
944.555
944.555
944.555
944.555
944.555
944.555
944.555
944.555
944.555
944.555
944.555
944.555
944.555
944.555
944.555
944.555
944.555
944.555
944.555
944.555
944.555
944.555
944.555
944.555
944.555
944.555
944.555
944.555
944.555
944.555
944.555
944.555
944.555
944.555
944.555
944.555
944.555
944.555
944.555
944.555
944.555
944.555
944.555
944.555
944.555
944.555
944.555
944.555
944.555
944.555
944.555
944.555
944.555
944.555
944.555
944.555
944.555
944.555
944.555
944.555
944.555
944.555
944.555
944.555
944.555
944.555
944.555
944.555
944.555
944.555
944.555
944.555
944.555
944.555
944.555
944.555
944.555
944.555
944.555
944.555
944.555
944.555
944.555
944.555
944.555
944.555
944.555
944.555
944.555
944.555
944.555
944.555
944.555
944.555
944.555
944.555
944.555
944.555
944.555
944.555
944.555
944.555
944.555
944.555
944.555
944.555
944.555
944.555
944.555
944.555
944.555
944.555
944.555
944.555
944.555
944.555
944.555
944.555
944.555
944.555
944.555
944.555
944.555
944.555
944.555
944.555
944.555
944.555
944.555
944.555
944.555
944.555
944.555
944.555
944.555
944.555
944.555
944.555
944.555
944.555
944.555
944.555
944.555
944.555
944.555
944.555
944.555
944.555
944.555
944.555
944.555
944.555
944.555
944.555
944.555
944.555
944.555
944.555
944.555
944.555
944.555
944.555
944.555
944.555
944.555
944.555
944.555
944.555
944.555
944.555
944.555
944.555
944.555
944.555
944.555
944.555
944.555
944.555
944.555
944.555
944.555
944.555
944.555
944.555
944.555
944.555
944.555
944.555
944.555
944.555
944.555
944.555
944.555
944.555
944.555
944.555
944.555
944.555
944.555
944.555
944.555
944.555
944.555
944.555
944.555
944.555
944.555
944.555
944.555
944.555
944.555
944.555
944.555
944.555
944.555
944.555
944.555
944.555
944.555
944.555
944.555
944.555
944.555
944.555
944.555
944.555
944.555
944.555
944.555
944.555
944.555
944.555
944.555
944.555
944.555
944.555
944.555
944.555
944.555
944.555
944.555
944.555
944.555
944.555
944.555
944.555
944.555
944.555
944.555
944.555
944.555
944.555
944.555
944.555
944.555
944.555
944.555
944.555
944.555
944.555
944.555
944.555
944.555
944.555
944.555
944.555
944.555
944.555
944.555
944.555
944.555
944.555
944.555
944.555
944.555
944.555
944.555
944.555
944.555
944.555
944.555
944.555
944.555
944.555
944.555
944.555
944.555
944.555
944.555
944.555
944.555
944.555
944.555
944.555
944.555
944.555
944.555
944.555
944.555
944.555
944.555
944.555
944.555
944.555
944.555
944.555
944.555
944.555
944.555
944.555
944.555
944.555
944.555
944.555
944.555
944.555
944.555
944.555
944.555
944.555
944.555
944.555
944.555
944.555
944.555
944.555
944.555
944.555
944.555
944.555
944.555
944.555
944.555
944.555
944.555
944.555
944.555
944.555
944.555
944.555
944.555
944.555
944.555
944.555
944.555
944.555
944.555
944.555
944.555
944.555
944.555
944.555
944.555
944.555
944.555
944.555
944.555
944.555
944.555
944.555
944.555
944.555
944.555
944.555
944.555
944.555
944.555
944.555
944.555
944.555
944.555
944.555
944.555
944.555
944.555
944.555
944.555
944.555
944.555
944.555
944.555
944.555
944.555
944.555
944.555
944.555
944.555
944.555
944.555
944.555
944.555
944.555
944.555
944.555
944.555
944.555
944.555
944.555
944.555
944.555
944.555
944.555
944.555
944.555
944.555
944.555
944.555
944.555
944.555
944.555
944.555
944.555
944.555
944.555
944.555
944.555
944.555
944.555
944.555
944.555
944.555
944.555
944.555
944.555
944.555
944.555
944.555
944.555
944.555
944.555
944.555
944.555
944.555
944.555
944.555
944.555
944.555
944.555
944.555
944.555
944.555
944.555
944.555
944.555
944.555
944.555
944.555
944.555
944.555
944.555
944.555
944.555
944.555
944.555
944.555
944.555
944.555
944.555
944.555
944.555
944.555
944.555
944.555
944.555
944.555
944.555
944.555
944.555
944.555
944.555
944.555
944.555
944.555
944.555
944.555
944.555
944.555
944.555
944.555
944.555
944.555
944.555
944.555
944.555
944.555
944.555
944.555
944.555
944.555
944.555
944.555
944.555
944.555
944.555
944.555
944.555
944.555
944.555
944.555
944.555
944.555
944.555
944.555
944.555
944.555
944.555
944.555
944.555
944.555
944.555
944.555
944.555
944.555
944.555
944.555
944.555
944.555
944.555
944.555
944.555
944.555
944.555
944.555
944.555
944.555
944.555
944.555
944.555
944.555
944.555
944.555
944.555
944.555
944.555
944.555
944.555
944.555
944.555
944.555
944.555
944.555
944.555
944.555
944.555
944.555
944.555
944.555
944.555
944.555
944.555
944.555
944.555
944.555
944.555
944.555
944.555
944.555
944.555
944.555
944.555
944.555
944.555
944.555
944.555
944.555
944.555
944.555
944.555
944.555
944.555
944.555
944.555
944.555
944.555
944.555
944.555
944.555
944.555
944.555
944.555
944.555
944.555
944.555
944.555
944.555
944.555
944.555
944.555
944.555
944.555
944.555
944.555
944.555
944.555
944.555
944.555
944.555
944.555
944.555
944.555
944.555
944.555
944.555
944.555
944.555
944.555
944.555
944.555
944.555
944.555
944.555
944.555
944.555
944.555
944.555
944.555
944.555
944.555
944.555
944.555
944.555
944.555
944.555
944.555
944.555
944.555
944.555
944.555
944.555
944.555
944.555
944.555
944.555
944.555
944.555
944.555
944.555
944.555
944.555
944.555
944.555
944.555
944.555
944.555
944.555
944.555
944.555
944.555
944.555
944.555
944.555
944.555
944.555
944.555
944.555
944.555
944.555
944.555
944.555
944.555
944.555
944.555
944.555
944.555
944.555
944.555
944.555
944.555
944.555
944.555
944.555
944.555
944.555
944.555
944.555
944.555
944.555
944.555
944.555
944.555
944.555
944.555
944.555
944.555
944.555
944.555
944.555
944.555
944.555
944.555
944.555
944.555
944.555
944.555
944.555
944.555
944.555
944.555
944.555
944.555
944.555
944.555
944.555
944.555
944.555
944.555
944.555
944.555
944.555
944.555
944.555
944.555
944.555
944.555
944.555
944.555
944.555
944.555
944.555
944.555
944.555
944.555
944.555
944.555
944.555
944.555
944.555
944.555
944.555
944.555
944.555
944.555
944.555
944.555
944.555
944.555
944.555
944.555
944.555
944.555
944.555
944.555
944.555
944.555
944.555
944.555
944.555
944.555
944.555
944.555
944.555
944.555
944.555
944.555
944.555
944.555
944.555
944.555
944.555
944.555
944.555
944.555
944.555
944.555
944.555
944.555
944.555
944.555
944.555
944.555
944.555
944.555
944.555
944.555
944.555
944.555
944.555
944.555
944.555
944.555
944.555
944.555
944.555
944.555
944.555
944.555
944.555
944.555
944.555
944.555
944.555
944.555
944.555
944.555
944.555
944.555
944.555
944.555
944.555
944.555
944.555
944.555
944.555
944.555
944.555
944.555
944.555
944.555
944.555
944.555
944.555
944.555
944.555
944.555
944.555
944.555
944.555
944.555
944.555
944.555
944.555
944.555
944.555
944.555
944.555
944.555
944.555
944.555
944.555
944.555
944.555
944.555
944.555
944.555
944.555
944.555
944.555
944.555
944.555
944.555
944.555
944.555
944.555
944.555
944.555
944.555
944.555
944.555
944.555
944.555
944.555
944.555
944.555
944.555
944.555
944.555
944.555
944.555
944.555
944.555
944.555
944.555
944.555
944.555
944.555
944.555
944.555
944.555
944.555
944.555
944.555
944.555
944.555
944.555
944.555
944.555
944.555
944.555
944.555
944.555
944.555
944.555
944.555
944.555
944.555
944.555
944.555
944.555
944.555
944.555
944.555
944.555
944.555
944.555
944.555
944.555
944.555
944.555
944.555
944.555
944.555
944.555
944.555
944.555
944.555
944.555
944.555
944.555
944.555
944.555
944.555
944.555
944.555
944.555
944.555
944.555
944.555
944.555
944.555
944.555
944.555
944.555
944.555
944.555
944.555
944.555
944.555
944.555
944.555
944.555
944.555
944.555
944.555
944.555
944.555
944.555
944.555
944.555
944.555
944.555
944.555
944.555
944.555
944.555
944.555
944.555
944.555
944.555
944.555
944.555
944.555
944.555
944.555
944.555
944.555
944.555
944.555
944.555
944.555
944.555
944.555
944.555
944.555
944.555
944.555
944.555
944.555
944.555
944.555
944.555
944.555
944.555
944.555
944.555
944.555
944.555
944.556
944.555
944.555
944.555
944.555
944.555
944.555
944.555
944.555
944.555
944.555
944.555
944.555
944.555
944.555
944.555
944.555
944.555
944.555
944.556
944.556
944.555
944.555
944.555
944.555
944.555
944.555
944.555
944.555
944.555