/*--------------------------------*- C++ -*----------------------------------*\
| =========                 |                                                 |
| \\      /  F ield         | OpenFOAM: The Open Source CFD Toolbox           |
|  \\    /   O peration     | Version:  2.1.0                                 |
|   \\  /    A nd           | Web:      www.OpenFOAM.org                      |
|    \\/     M anipulation  |                                                 |
\*---------------------------------------------------------------------------*/
FoamFile
{
    version     2.0;
    format      ascii;
    class       volScalarField;
    location    "0.25";
    object      T;
}
// * * * * * * * * * * * * * * * * * * * * * * * * * * * * * * * * * * * * * //

dimensions      [0 0 0 1 0 0 0];

internalField   nonuniform List<scalar> 
6400
(
293.206
293.214
293.223
293.233
293.244
293.256
293.269
293.284
293.301
293.319
293.34
293.363
293.388
293.416
293.447
293.481
293.519
293.56
293.605
293.655
293.71
293.77
293.835
293.906
293.984
294.069
294.161
294.261
294.37
294.487
294.614
294.752
294.9
295.059
295.231
295.415
295.612
295.824
296.049
296.29
296.546
296.819
297.108
297.413
297.737
298.077
298.436
298.813
299.209
299.624
300.057
300.511
300.986
301.482
302
302.541
303.105
303.691
304.301
304.935
305.592
306.273
306.979
307.709
308.463
309.243
310.047
310.877
311.732
312.614
313.52
314.453
315.413
316.399
317.413
318.455
319.525
320.625
321.755
322.916
324.109
325.332
326.584
327.856
329.137
330.409
331.643
332.792
333.782
334.484
334.66
333.848
331.133
325.073
315.838
319.393
350.663
377.669
385.859
387.862
293.3
293.32
293.341
293.365
293.392
293.422
293.454
293.491
293.531
293.575
293.624
293.678
293.737
293.802
293.873
293.951
294.036
294.129
294.231
294.341
294.462
294.592
294.734
294.888
295.055
295.235
295.429
295.639
295.865
296.107
296.368
296.648
296.947
297.267
297.609
297.974
298.363
298.776
299.215
299.681
300.174
300.695
301.244
301.823
302.432
303.071
303.741
304.441
305.174
305.94
306.741
307.576
308.446
309.352
310.294
311.272
312.287
313.34
314.429
315.557
316.722
317.926
319.168
320.448
321.767
323.125
324.521
325.957
327.432
328.945
330.496
332.086
333.711
335.372
337.066
338.792
340.546
342.325
344.126
345.945
347.778
349.62
351.465
353.307
355.141
356.956
358.745
360.501
362.217
363.898
365.563
367.262
369.106
371.284
374.026
377.35
381.397
385.359
387.613
388.748
293.414
293.446
293.483
293.524
293.569
293.619
293.673
293.734
293.801
293.874
293.955
294.044
294.141
294.247
294.364
294.491
294.629
294.78
294.943
295.121
295.313
295.521
295.746
295.989
296.25
296.532
296.836
297.161
297.511
297.885
298.285
298.712
299.168
299.654
300.171
300.72
301.303
301.92
302.574
303.264
303.992
304.76
305.567
306.416
307.305
308.238
309.213
310.232
311.295
312.403
313.556
314.755
315.998
317.286
318.618
319.995
321.416
322.88
324.387
325.936
327.527
329.159
330.83
332.541
334.288
336.073
337.893
339.746
341.631
343.545
345.486
347.45
349.435
351.434
353.443
355.456
357.466
359.466
361.447
363.401
365.319
367.193
369.015
370.775
372.468
374.085
375.62
377.07
378.431
379.703
380.888
381.992
383.026
384.005
384.943
385.848
386.841
387.901
388.817
389.573
293.569
293.619
293.676
293.739
293.809
293.885
293.97
294.063
294.165
294.277
294.4
294.535
294.682
294.843
295.019
295.21
295.418
295.644
295.89
296.155
296.443
296.753
297.088
297.448
297.836
298.253
298.7
299.178
299.69
300.237
300.82
301.442
302.102
302.803
303.547
304.335
305.168
306.047
306.974
307.95
308.976
310.052
311.18
312.36
313.593
314.879
316.219
317.612
319.056
320.552
322.097
323.69
325.331
327.017
328.746
330.516
332.326
334.172
336.052
337.963
339.901
341.863
343.846
345.844
347.855
349.872
351.89
353.904
355.907
357.893
359.855
361.786
363.678
365.524
367.317
369.051
370.718
372.313
373.833
375.271
376.628
377.899
379.086
380.189
381.209
382.149
383.012
383.801
384.523
385.181
385.781
386.331
386.838
387.31
387.757
388.185
388.646
389.141
389.659
390.208
293.776
293.851
293.935
294.027
294.129
294.241
294.365
294.5
294.649
294.812
294.99
295.186
295.399
295.631
295.884
296.16
296.459
296.783
297.134
297.514
297.924
298.367
298.843
299.354
299.903
300.491
301.12
301.792
302.508
303.271
304.081
304.941
305.851
306.814
307.831
308.902
310.029
311.212
312.451
313.748
315.101
316.511
317.977
319.498
321.072
322.698
324.374
326.098
327.867
329.677
331.525
333.409
335.323
337.264
339.227
341.208
343.202
345.203
347.207
349.206
351.197
353.172
355.125
357.051
358.943
360.797
362.605
364.362
366.065
367.707
369.287
370.8
372.244
373.618
374.92
376.152
377.312
378.403
379.427
380.384
381.279
382.113
382.89
383.612
384.284
384.908
385.487
386.024
386.523
386.984
387.412
387.808
388.176
388.517
388.836
389.136
389.443
389.764
390.107
390.48
294.045
294.149
294.266
294.396
294.538
294.694
294.866
295.054
295.26
295.485
295.732
296
296.293
296.611
296.956
297.33
297.735
298.173
298.645
299.154
299.7
300.288
300.917
301.59
302.308
303.074
303.889
304.754
305.672
306.642
307.666
308.745
309.879
311.069
312.314
313.616
314.972
316.382
317.844
319.358
320.921
322.53
324.184
325.879
327.611
329.378
331.176
333
334.846
336.711
338.588
340.474
342.365
344.254
346.138
348.011
349.869
351.707
353.519
355.303
357.053
358.765
360.436
362.062
363.641
365.17
366.648
368.071
369.441
370.755
372.015
373.219
374.369
375.466
376.51
377.504
378.449
379.346
380.197
381.004
381.769
382.494
383.181
383.831
384.447
385.03
385.581
386.103
386.595
387.059
387.493
387.899
388.275
388.618
388.929
389.205
389.467
389.716
389.943
390.123
294.348
294.483
294.635
294.802
294.985
295.186
295.405
295.644
295.905
296.19
296.499
296.834
297.196
297.589
298.012
298.469
298.959
299.486
300.05
300.654
301.298
301.984
302.714
303.488
304.308
305.174
306.087
307.048
308.057
309.113
310.217
311.368
312.566
313.809
315.095
316.424
317.793
319.201
320.645
322.122
323.629
325.164
326.724
328.305
329.905
331.519
333.145
334.78
336.419
338.06
339.7
341.335
342.962
344.579
346.183
347.77
349.339
350.887
352.412
353.911
355.384
356.828
358.243
359.627
360.979
362.299
363.586
364.84
366.06
367.247
368.401
369.522
370.61
371.667
372.692
373.686
374.65
375.586
376.493
377.373
378.225
379.052
379.855
380.634
381.391
382.127
382.841
383.534
384.204
384.85
385.468
386.053
386.597
387.091
387.526
387.882
388.184
388.424
388.565
388.515
294.589
294.745
294.918
295.107
295.313
295.537
295.78
296.044
296.33
296.638
296.97
297.328
297.712
298.124
298.565
299.036
299.537
300.071
300.637
301.236
301.87
302.539
303.243
303.982
304.757
305.567
306.412
307.293
308.206
309.154
310.133
311.144
312.185
313.255
314.351
315.473
316.619
317.787
318.976
320.183
321.407
322.646
323.897
325.16
326.431
327.71
328.994
330.282
331.571
332.86
334.148
335.433
336.713
337.987
339.253
340.512
341.76
342.999
344.226
345.442
346.645
347.835
349.013
350.176
351.326
352.463
353.585
354.693
355.788
356.869
357.937
358.993
360.035
361.067
362.087
363.097
364.098
365.091
366.08
367.065
368.05
369.035
370.025
371.019
372.022
373.035
374.059
375.095
376.142
377.196
378.25
379.293
380.308
381.271
382.157
382.917
383.498
383.922
384.096
383.82
294.63
294.78
294.946
295.125
295.318
295.527
295.751
295.992
296.25
296.526
296.82
297.133
297.466
297.82
298.193
298.588
299.004
299.442
299.902
300.384
300.887
301.413
301.96
302.53
303.121
303.733
304.366
305.02
305.694
306.388
307.101
307.833
308.583
309.349
310.133
310.931
311.745
312.572
313.413
314.267
315.131
316.006
316.89
317.783
318.682
319.588
320.498
321.413
322.33
323.249
324.169
325.088
326.006
326.923
327.836
328.746
329.651
330.552
331.446
332.335
333.217
334.092
334.961
335.822
336.677
337.524
338.365
339.199
340.026
340.848
341.665
342.477
343.287
344.098
344.909
345.721
346.537
347.356
348.181
349.012
349.859
350.724
351.614
352.533
353.489
354.491
355.544
356.657
357.837
359.091
360.421
361.828
363.307
364.844
366.421
367.993
369.376
370.427
371.047
370.87
294.369
294.483
294.607
294.74
294.883
295.035
295.197
295.369
295.551
295.745
295.95
296.166
296.394
296.634
296.886
297.15
297.427
297.716
298.018
298.333
298.661
299.002
299.356
299.723
300.103
300.496
300.902
301.32
301.751
302.194
302.649
303.116
303.594
304.083
304.582
305.091
305.61
306.137
306.673
307.217
307.768
308.326
308.89
309.46
310.034
310.612
311.192
311.775
312.36
312.945
313.53
314.114
314.697
315.277
315.853
316.426
316.993
317.555
318.11
318.658
319.197
319.728
320.249
320.762
321.266
321.762
322.249
322.727
323.196
323.657
324.109
324.553
324.986
325.41
325.826
326.233
326.634
327.03
327.424
327.816
328.205
328.59
328.971
329.35
329.727
330.121
330.535
330.978
331.456
331.977
332.548
333.179
333.876
334.65
335.517
336.496
337.62
338.742
339.545
339.624
293.93
293.998
294.072
294.151
294.234
294.323
294.418
294.518
294.624
294.736
294.854
294.979
295.11
295.247
295.392
295.543
295.702
295.867
296.04
296.22
296.407
296.601
296.802
297.011
297.227
297.45
297.68
297.917
298.161
298.412
298.669
298.933
299.202
299.478
299.76
300.047
300.339
300.636
300.938
301.243
301.552
301.864
302.178
302.495
302.812
303.131
303.449
303.768
304.085
304.401
304.715
305.026
305.334
305.638
305.936
306.23
306.517
306.798
307.071
307.337
307.594
307.842
308.08
308.307
308.521
308.722
308.907
309.077
309.231
309.367
309.485
309.584
309.663
309.722
309.76
309.776
309.771
309.743
309.692
309.619
309.524
309.406
309.268
309.109
308.931
308.72
308.471
308.181
307.853
307.488
307.08
306.624
306.113
305.539
304.896
304.178
303.383
302.518
301.606
300.706
293.59
293.626
293.665
293.706
293.749
293.796
293.844
293.896
293.95
294.007
294.067
294.13
294.196
294.266
294.338
294.414
294.493
294.575
294.661
294.75
294.842
294.938
295.037
295.14
295.245
295.354
295.466
295.581
295.699
295.82
295.943
296.07
296.198
296.329
296.462
296.597
296.733
296.871
297.01
297.15
297.292
297.433
297.575
297.716
297.857
297.997
298.136
298.273
298.408
298.54
298.67
298.797
298.92
299.038
299.152
299.26
299.362
299.458
299.546
299.626
299.698
299.76
299.813
299.854
299.885
299.903
299.908
299.9
299.878
299.842
299.79
299.723
299.641
299.543
299.429
299.299
299.154
298.994
298.819
298.63
298.428
298.214
297.99
297.757
297.516
297.271
297.023
296.775
296.521
296.258
295.988
295.715
295.442
295.17
294.902
294.643
294.397
294.173
293.978
293.824
293.386
293.405
293.424
293.445
293.467
293.49
293.515
293.54
293.567
293.595
293.624
293.654
293.686
293.719
293.753
293.789
293.826
293.864
293.904
293.944
293.986
294.03
294.074
294.119
294.165
294.213
294.261
294.31
294.36
294.41
294.461
294.513
294.564
294.616
294.668
294.72
294.771
294.823
294.873
294.924
294.973
295.022
295.07
295.116
295.162
295.205
295.248
295.288
295.326
295.362
295.395
295.426
295.453
295.477
295.498
295.514
295.527
295.535
295.538
295.536
295.528
295.516
295.497
295.472
295.442
295.405
295.362
295.313
295.258
295.196
295.129
295.056
294.978
294.895
294.808
294.717
294.623
294.526
294.428
294.33
294.231
294.133
294.037
293.944
293.854
293.769
293.69
293.616
293.55
293.49
293.438
293.39
293.346
293.307
293.273
293.244
293.22
293.201
293.187
293.177
293.272
293.281
293.291
293.301
293.312
293.323
293.335
293.347
293.36
293.373
293.387
293.401
293.416
293.431
293.446
293.462
293.479
293.496
293.513
293.531
293.549
293.567
293.585
293.604
293.623
293.642
293.661
293.68
293.699
293.718
293.736
293.755
293.773
293.79
293.808
293.824
293.84
293.856
293.87
293.884
293.897
293.909
293.92
293.93
293.939
293.947
293.954
293.959
293.963
293.966
293.967
293.966
293.964
293.96
293.955
293.947
293.937
293.926
293.913
293.897
293.88
293.861
293.84
293.817
293.792
293.766
293.738
293.709
293.679
293.648
293.616
293.584
293.552
293.519
293.487
293.455
293.424
293.395
293.366
293.339
293.313
293.289
293.268
293.248
293.23
293.215
293.201
293.19
293.181
293.173
293.167
293.163
293.16
293.157
293.155
293.153
293.152
293.151
293.151
293.151
293.212
293.216
293.221
293.226
293.231
293.237
293.242
293.248
293.254
293.26
293.266
293.272
293.279
293.286
293.292
293.299
293.306
293.313
293.321
293.328
293.335
293.342
293.349
293.357
293.364
293.371
293.377
293.384
293.391
293.397
293.403
293.409
293.414
293.419
293.424
293.429
293.433
293.436
293.439
293.442
293.444
293.445
293.446
293.447
293.447
293.446
293.445
293.443
293.44
293.437
293.433
293.428
293.423
293.417
293.411
293.404
293.396
293.388
293.379
293.37
293.36
293.35
293.339
293.328
293.317
293.306
293.295
293.284
293.273
293.262
293.251
293.241
293.231
293.222
293.213
293.204
293.197
293.19
293.183
293.177
293.172
293.168
293.164
293.161
293.158
293.156
293.154
293.153
293.152
293.151
293.151
293.151
293.15
293.15
293.15
293.15
293.15
293.15
293.15
293.15
293.181
293.184
293.186
293.188
293.191
293.193
293.196
293.199
293.201
293.204
293.207
293.21
293.213
293.216
293.219
293.222
293.224
293.227
293.23
293.233
293.236
293.239
293.242
293.244
293.247
293.249
293.252
293.254
293.256
293.258
293.26
293.262
293.263
293.264
293.265
293.266
293.267
293.267
293.267
293.267
293.267
293.266
293.266
293.264
293.263
293.262
293.26
293.258
293.255
293.253
293.25
293.247
293.244
293.24
293.237
293.233
293.229
293.225
293.221
293.217
293.213
293.208
293.204
293.2
293.195
293.191
293.187
293.184
293.18
293.176
293.173
293.17
293.167
293.165
293.162
293.16
293.158
293.157
293.155
293.154
293.153
293.152
293.152
293.151
293.151
293.151
293.15
293.15
293.15
293.15
293.15
293.15
293.15
293.15
293.15
293.15
293.15
293.15
293.15
293.15
293.166
293.167
293.168
293.169
293.17
293.172
293.173
293.174
293.175
293.177
293.178
293.179
293.181
293.182
293.183
293.184
293.186
293.187
293.188
293.189
293.191
293.192
293.193
293.194
293.195
293.196
293.196
293.197
293.198
293.198
293.199
293.199
293.199
293.2
293.2
293.2
293.2
293.199
293.199
293.199
293.198
293.197
293.197
293.196
293.195
293.194
293.193
293.191
293.19
293.189
293.187
293.186
293.184
293.182
293.181
293.179
293.177
293.175
293.174
293.172
293.17
293.168
293.167
293.165
293.164
293.162
293.161
293.159
293.158
293.157
293.156
293.155
293.154
293.153
293.153
293.152
293.152
293.151
293.151
293.151
293.151
293.15
293.15
293.15
293.15
293.15
293.15
293.15
293.15
293.15
293.15
293.15
293.15
293.15
293.15
293.15
293.15
293.15
293.15
293.15
293.158
293.158
293.159
293.159
293.16
293.16
293.161
293.162
293.162
293.163
293.163
293.164
293.164
293.165
293.166
293.166
293.167
293.167
293.168
293.168
293.169
293.169
293.17
293.17
293.17
293.171
293.171
293.171
293.171
293.172
293.172
293.172
293.172
293.172
293.172
293.172
293.171
293.171
293.171
293.171
293.17
293.17
293.169
293.169
293.168
293.168
293.167
293.167
293.166
293.165
293.165
293.164
293.163
293.162
293.162
293.161
293.16
293.159
293.159
293.158
293.157
293.156
293.156
293.155
293.155
293.154
293.153
293.153
293.153
293.152
293.152
293.151
293.151
293.151
293.151
293.151
293.15
293.15
293.15
293.15
293.15
293.15
293.15
293.15
293.15
293.15
293.15
293.15
293.15
293.15
293.15
293.15
293.15
293.15
293.15
293.15
293.15
293.15
293.15
293.15
293.153
293.154
293.154
293.154
293.154
293.155
293.155
293.155
293.155
293.156
293.156
293.156
293.156
293.157
293.157
293.157
293.157
293.157
293.158
293.158
293.158
293.158
293.158
293.159
293.159
293.159
293.159
293.159
293.159
293.159
293.159
293.159
293.159
293.159
293.159
293.159
293.159
293.159
293.159
293.158
293.158
293.158
293.158
293.158
293.157
293.157
293.157
293.157
293.156
293.156
293.156
293.155
293.155
293.155
293.154
293.154
293.154
293.153
293.153
293.153
293.153
293.152
293.152
293.152
293.152
293.151
293.151
293.151
293.151
293.151
293.151
293.15
293.15
293.15
293.15
293.15
293.15
293.15
293.15
293.15
293.15
293.15
293.15
293.15
293.15
293.15
293.15
293.15
293.15
293.15
293.15
293.15
293.15
293.15
293.15
293.15
293.15
293.15
293.15
293.15
293.151
293.151
293.151
293.151
293.151
293.151
293.151
293.151
293.151
293.152
293.152
293.152
293.152
293.152
293.152
293.152
293.152
293.152
293.152
293.152
293.152
293.152
293.152
293.152
293.152
293.152
293.153
293.153
293.153
293.153
293.153
293.153
293.153
293.153
293.153
293.153
293.152
293.152
293.152
293.152
293.152
293.152
293.152
293.152
293.152
293.152
293.152
293.152
293.152
293.152
293.152
293.151
293.151
293.151
293.151
293.151
293.151
293.151
293.151
293.151
293.151
293.151
293.151
293.151
293.15
293.15
293.15
293.15
293.15
293.15
293.15
293.15
293.15
293.15
293.15
293.15
293.15
293.15
293.15
293.15
293.15
293.15
293.15
293.15
293.15
293.15
293.15
293.15
293.15
293.15
293.15
293.15
293.15
293.15
293.15
293.15
293.15
293.15
293.15
293.15
388.435
391.441
392.02
392.098
392.042
391.937
391.797
391.616
391.377
391.052
390.598
389.949
389.005
387.62
385.582
382.588
378.198
371.693
361.812
345.745
389.54
391.571
391.939
391.936
391.826
391.666
391.461
391.197
390.852
390.387
389.748
388.855
387.592
385.794
383.232
379.592
374.391
366.855
355.566
336.854
390.43
391.609
391.768
391.674
391.492
391.25
390.945
390.556
390.051
389.382
388.483
387.261
385.584
383.274
380.094
375.702
369.57
360.854
347.924
326.238
390.916
391.459
391.427
391.224
390.933
390.566
390.105
389.525
388.782
387.823
386.57
384.918
382.725
379.809
375.916
370.67
363.512
353.519
338.882
314.872
390.89
390.982
390.758
390.4
389.941
389.372
388.671
387.803
386.72
385.363
383.652
381.471
378.678
375.082
370.404
364.256
356.048
344.851
328.826
304.774
390.139
389.875
389.409
388.808
388.074
387.188
386.122
384.84
383.301
381.456
379.207
376.441
373.012
368.716
363.263
356.251
347.12
335.045
318.485
297.949
388.021
387.372
386.543
385.553
384.39
383.04
381.483
379.699
377.67
375.319
372.54
369.22
365.215
360.303
354.197
346.53
336.832
324.432
308.806
294.664
382.659
381.508
380.173
378.663
376.983
375.143
373.143
370.972
368.563
365.81
362.641
358.948
354.59
349.341
342.965
335.126
325.421
313.661
300.981
293.549
369.248
367.67
365.95
364.111
362.187
360.237
358.172
355.953
353.461
350.695
347.584
344.062
339.977
335.156
329.292
322.078
313.388
303.977
296.143
293.28
338.424
337.172
335.834
334.456
333.068
331.707
330.221
328.615
326.892
325.069
323.068
320.877
318.332
315.379
311.624
306.963
301.705
296.903
293.932
293.238
300.069
299.989
299.864
299.702
299.467
299.066
298.663
298.24
297.819
297.359
296.893
296.372
295.828
295.204
294.652
294.204
293.851
293.499
293.225
293.165
293.754
293.767
293.773
293.774
293.764
293.73
293.686
293.628
293.572
293.514
293.459
293.4
293.344
293.287
293.242
293.211
293.191
293.172
293.154
293.152
293.175
293.177
293.179
293.182
293.184
293.185
293.184
293.182
293.178
293.173
293.169
293.165
293.161
293.157
293.155
293.153
293.152
293.151
293.15
293.15
293.151
293.151
293.151
293.151
293.151
293.151
293.151
293.151
293.151
293.151
293.151
293.151
293.15
293.15
293.15
293.15
293.15
293.15
293.15
293.15
293.15
293.15
293.15
293.15
293.15
293.15
293.15
293.15
293.15
293.15
293.15
293.15
293.15
293.15
293.15
293.15
293.15
293.15
293.15
293.15
293.15
293.15
293.15
293.15
293.15
293.15
293.15
293.15
293.15
293.15
293.15
293.15
293.15
293.15
293.15
293.15
293.15
293.15
293.15
293.15
293.15
293.15
293.15
293.15
293.15
293.15
293.15
293.15
293.15
293.15
293.15
293.15
293.15
293.15
293.15
293.15
293.15
293.15
293.15
293.15
293.15
293.15
293.15
293.15
293.15
293.15
293.15
293.15
293.15
293.15
293.15
293.15
293.15
293.15
293.15
293.15
293.15
293.15
293.15
293.15
293.15
293.15
293.15
293.15
293.15
293.15
293.15
293.15
293.15
293.15
293.15
293.15
293.15
293.15
293.15
293.15
293.15
293.15
293.15
293.15
293.15
293.15
293.15
293.15
293.15
293.15
293.15
293.15
293.15
293.15
293.15
293.15
293.15
293.15
293.15
293.15
293.15
293.15
293.15
293.15
393.15
393.15
393.15
393.15
393.15
393.15
393.15
393.15
393.15
393.15
393.15
393.15
393.15
393.15
393.15
393.15
393.15
393.15
393.15
393.15
393.15
393.15
393.15
393.15
393.15
393.15
393.15
393.15
393.15
393.15
393.15
393.15
393.15
393.15
393.15
393.15
393.15
393.15
393.15
393.15
393.15
393.15
393.15
393.15
393.15
393.15
393.15
393.15
393.15
393.15
393.15
393.15
393.15
393.15
393.15
393.15
393.15
393.15
393.15
393.15
393.15
393.15
393.15
393.15
393.15
393.15
393.15
393.15
393.15
393.15
393.15
393.15
393.15
393.15
393.15
393.15
393.15
393.15
393.15
393.15
393.15
393.15
393.15
393.15
393.15
393.15
393.15
393.15
393.15
393.15
393.15
393.15
393.15
393.15
393.15
393.15
393.15
393.15
393.15
393.15
393.15
393.15
393.15
393.15
393.15
393.15
393.15
393.15
393.15
393.15
393.15
393.15
393.15
393.15
393.15
393.15
393.15
393.15
393.15
393.15
393.15
393.15
393.15
393.15
393.15
393.15
393.15
393.15
393.15
393.15
393.15
393.15
393.15
393.15
393.15
393.15
393.15
393.15
393.15
393.15
393.15
393.15
393.15
393.15
393.15
393.15
393.15
393.15
393.15
393.15
393.15
393.15
393.15
393.15
393.15
393.15
393.15
393.15
393.15
393.15
393.15
393.15
393.15
393.15
393.15
393.15
393.15
393.15
393.15
393.15
393.15
393.15
393.15
393.15
393.15
393.15
393.15
393.15
393.15
393.15
393.15
393.15
393.15
393.15
393.15
393.15
393.15
393.15
393.15
393.15
393.15
393.15
393.15
393.15
393.15
393.15
393.15
393.15
393.15
393.15
393.15
393.15
393.15
393.15
393.15
393.15
393.15
393.15
393.15
393.15
393.15
393.15
393.15
393.15
393.15
393.15
393.15
393.15
393.15
393.15
393.15
393.15
393.15
393.15
393.15
393.15
393.15
393.15
393.15
393.15
393.15
393.15
393.15
393.15
393.15
393.15
393.15
393.15
393.15
393.15
393.15
393.15
393.15
393.15
393.15
393.15
393.15
393.15
393.15
393.15
393.15
393.15
393.15
393.15
393.15
393.15
393.15
393.15
393.15
393.15
393.15
393.15
393.15
393.15
393.15
393.15
393.15
393.15
393.15
393.15
393.15
393.15
393.15
393.15
393.15
393.15
393.15
393.15
393.15
393.15
393.15
393.15
393.15
393.15
393.15
393.15
393.15
393.15
393.15
393.15
393.15
393.15
393.15
393.15
393.15
393.15
393.15
393.15
393.15
393.15
393.15
393.15
393.15
393.15
393.15
393.15
393.15
393.15
393.15
393.15
393.15
393.15
393.15
393.15
393.15
393.15
393.15
393.15
393.15
393.15
393.15
393.15
393.15
393.15
393.15
393.15
393.15
393.15
393.15
393.15
393.15
393.15
393.15
393.15
393.15
393.15
393.15
393.15
393.15
393.15
393.15
393.15
393.15
393.15
393.15
393.15
393.15
393.15
393.15
393.15
393.15
393.15
393.15
393.15
393.15
393.15
393.15
393.15
393.15
393.15
393.15
393.15
393.15
393.15
393.15
393.15
393.15
393.15
393.15
393.15
393.15
393.15
393.15
393.15
393.15
393.15
393.15
393.15
393.15
393.15
393.15
393.15
393.15
393.15
393.15
393.15
393.15
393.15
393.15
393.15
393.15
393.15
393.15
393.15
393.15
393.15
393.15
393.15
393.15
393.15
393.15
393.15
393.15
393.15
393.15
393.15
393.15
393.15
393.15
393.15
393.15
393.15
393.15
393.15
393.15
393.15
393.15
393.15
393.15
393.15
393.15
393.15
393.15
393.15
393.15
393.15
393.15
393.15
393.15
393.15
393.15
393.15
393.15
393.15
393.15
393.15
393.15
393.15
393.15
393.15
393.15
393.15
393.15
393.15
393.15
393.15
393.15
393.15
393.15
393.15
393.15
393.15
393.15
393.15
393.15
393.15
393.15
393.15
393.15
393.15
393.15
393.15
393.15
393.15
393.15
393.15
393.15
393.15
393.15
393.15
393.15
393.15
393.15
393.15
393.15
393.15
393.15
393.15
393.15
393.15
393.15
393.15
393.15
393.15
393.15
393.15
393.15
393.15
393.15
393.15
393.15
393.15
393.15
393.15
393.15
393.15
393.15
393.15
393.15
393.15
393.15
393.15
393.15
393.15
393.15
393.15
393.15
393.15
393.15
393.15
393.15
393.15
393.15
393.15
393.15
393.15
393.15
393.15
393.15
393.15
393.15
393.15
393.15
393.15
393.15
393.15
393.15
393.15
393.15
393.15
393.15
393.15
393.15
393.15
393.15
393.15
393.15
393.15
393.15
393.15
393.15
393.15
393.15
393.15
393.15
393.15
393.15
393.15
393.15
393.15
393.15
393.15
393.15
393.15
393.15
393.15
393.15
393.15
393.15
393.15
393.15
393.15
393.15
393.15
393.15
393.15
393.15
393.15
393.15
393.15
393.15
393.15
393.15
393.15
393.15
393.15
393.15
393.15
393.15
393.15
393.15
393.15
393.15
393.15
393.15
393.15
393.15
393.15
393.15
393.15
393.15
393.15
393.15
393.15
393.15
393.15
393.15
393.15
393.15
393.15
393.15
393.15
393.15
393.15
393.15
393.15
393.15
393.15
393.15
393.15
393.15
393.15
393.15
393.15
393.15
393.15
393.15
393.15
393.15
393.15
393.15
393.15
393.15
393.15
393.15
393.15
393.15
393.15
393.15
393.15
393.15
393.15
393.15
393.15
393.15
393.15
393.15
393.15
393.15
393.15
393.15
393.15
393.15
393.15
393.15
393.15
393.15
393.15
393.15
393.15
393.15
393.15
393.15
393.15
393.15
393.15
393.15
393.15
393.15
393.15
393.15
393.15
393.15
393.15
393.15
393.15
393.15
393.15
393.15
393.15
393.15
393.15
393.15
393.15
393.15
393.15
393.15
393.15
393.15
393.15
393.15
393.15
393.15
393.15
393.15
393.15
393.15
393.15
393.15
393.15
393.15
393.15
393.15
393.15
393.15
393.15
393.15
393.15
393.15
393.15
393.15
393.15
393.15
393.15
393.15
393.15
393.15
393.15
393.15
393.15
393.15
393.15
393.15
393.15
393.15
393.15
393.15
393.15
393.15
393.15
393.15
393.15
393.15
393.15
393.15
393.15
393.15
393.15
393.15
393.15
393.15
393.15
393.15
393.15
393.15
393.15
393.15
393.15
393.15
393.15
393.15
393.15
393.15
393.15
393.15
393.15
393.15
393.15
393.15
393.15
393.15
393.15
393.15
393.15
393.15
393.15
393.15
393.15
393.15
393.15
393.15
393.15
393.15
393.15
393.15
393.15
393.15
393.15
393.15
393.15
393.15
393.15
393.15
393.15
393.15
393.15
393.15
393.15
393.15
393.15
393.15
393.15
393.15
393.15
393.15
393.15
393.15
393.15
393.15
393.15
393.15
393.15
393.15
393.15
393.15
393.15
393.15
393.15
393.15
393.15
393.15
393.15
393.15
393.15
393.15
393.15
393.15
393.15
393.15
393.15
393.15
393.15
393.15
393.15
393.15
393.15
393.15
393.15
393.15
393.15
393.15
393.15
393.15
393.15
393.15
393.15
393.15
393.15
393.15
393.15
393.15
393.15
393.15
393.15
393.15
393.15
393.15
393.15
393.15
393.15
393.15
393.15
393.15
393.15
393.15
393.15
393.15
393.15
393.15
393.15
393.15
393.15
393.15
393.15
393.15
393.15
393.15
393.15
393.15
393.15
393.15
393.15
393.15
393.15
393.15
393.15
393.15
393.15
393.15
393.15
393.15
393.15
393.15
393.15
393.15
393.15
393.15
393.15
393.15
393.15
393.15
393.15
393.15
393.15
393.15
393.15
393.15
393.15
393.15
393.15
393.15
393.15
393.15
393.15
393.15
393.15
393.15
393.15
393.15
393.15
393.15
393.15
393.15
393.15
393.15
393.15
393.15
393.15
393.15
393.15
393.15
393.15
393.15
393.15
393.15
393.15
393.15
393.15
393.15
393.15
393.15
393.15
393.15
393.15
393.15
393.15
393.15
393.15
393.15
393.15
393.15
393.15
393.15
393.15
393.15
393.15
393.15
393.15
393.15
393.15
393.15
393.15
393.15
393.15
393.15
393.15
393.15
393.15
393.15
393.15
393.15
393.15
393.15
393.15
393.15
393.15
393.15
393.15
393.15
393.15
393.15
393.15
393.15
393.15
393.15
393.15
393.15
393.15
393.15
393.15
393.15
393.15
393.15
393.15
393.15
393.15
393.15
393.15
393.15
393.15
393.15
393.15
393.15
393.15
393.15
393.15
393.15
393.15
393.15
393.15
393.15
393.15
393.15
393.15
393.15
393.15
393.15
393.15
393.15
393.15
393.15
393.15
393.15
393.15
393.15
393.15
393.15
393.15
393.15
393.15
393.15
393.15
393.15
393.15
393.15
393.15
393.15
393.15
393.15
393.15
393.15
393.15
393.15
393.15
393.15
393.15
393.15
393.15
393.15
393.15
393.15
393.15
393.15
393.15
393.15
393.15
393.15
393.15
393.15
393.15
393.15
393.15
393.15
393.15
393.15
393.15
393.15
393.15
393.15
393.15
393.15
393.15
393.15
393.15
393.15
393.15
393.15
393.15
393.15
393.15
393.15
393.15
393.15
393.15
393.15
393.15
393.15
393.15
393.15
393.15
393.15
393.15
393.15
393.15
393.15
393.15
393.15
393.15
393.15
393.15
393.15
393.15
393.15
393.15
393.15
393.15
393.15
393.15
393.15
393.15
393.15
393.15
393.15
393.15
393.15
393.15
393.15
393.15
393.15
393.15
393.15
393.15
393.15
393.15
393.15
393.15
393.15
393.15
393.15
393.15
393.15
393.15
393.15
393.15
393.15
393.15
393.15
393.15
393.15
393.15
393.15
393.15
393.15
393.15
393.15
393.15
393.15
393.15
393.15
393.15
393.15
393.15
393.15
393.15
393.15
393.15
393.15
393.15
393.15
393.15
393.15
393.15
393.15
393.15
393.15
393.15
393.15
393.15
393.15
393.15
393.15
393.15
393.15
393.15
393.15
393.15
393.15
393.15
393.15
393.15
393.15
393.15
393.15
393.15
393.15
393.15
393.15
393.15
393.15
393.15
393.15
393.15
393.15
393.15
393.15
393.15
393.15
393.15
393.15
393.15
393.15
393.15
393.15
393.15
393.15
393.15
393.15
393.15
393.15
393.15
393.15
393.15
393.15
393.15
393.15
393.15
393.15
393.15
393.15
393.15
393.15
393.15
393.15
393.15
393.15
393.15
393.15
393.15
393.15
393.15
393.15
393.15
393.15
393.15
393.15
393.15
393.15
393.15
393.15
393.15
393.15
393.15
393.15
393.15
393.15
393.15
393.15
393.15
393.15
393.15
393.15
393.15
393.15
393.15
393.15
393.15
393.15
393.15
393.15
393.15
393.15
393.15
393.15
393.15
393.15
393.15
393.15
393.15
393.15
393.15
393.15
393.15
393.15
393.15
393.15
393.15
393.15
393.15
393.15
393.15
393.15
393.15
393.15
393.15
393.15
393.15
393.15
393.15
393.15
393.15
393.15
393.15
393.15
393.15
393.15
393.15
393.15
393.15
393.15
393.15
393.15
393.15
393.15
393.15
393.15
393.15
393.15
393.15
393.15
393.15
393.15
393.15
393.15
393.15
393.15
393.15
393.15
393.15
393.15
393.15
393.149
393.15
393.15
393.15
393.15
393.15
393.15
393.15
393.15
393.15
393.15
393.15
393.15
393.15
393.15
393.15
393.15
393.15
393.15
393.149
393.149
393.15
393.15
393.15
393.15
393.15
393.15
393.15
393.15
393.15
393.15
393.15
393.15
393.15
393.15
393.15
393.15
393.15
393.15
393.149
393.148
393.15
393.15
393.15
393.15
393.15
393.15
393.15
393.15
393.15
393.15
393.15
393.15
393.15
393.15
393.15
393.15
393.15
393.15
393.148
393.147
393.149
393.15
393.15
393.15
393.15
393.15
393.15
393.15
393.15
393.15
393.15
393.15
393.15
393.15
393.15
393.15
393.15
393.149
393.147
393.145
393.149
393.15
393.15
393.15
393.15
393.15
393.15
393.15
393.15
393.15
393.15
393.15
393.15
393.15
393.15
393.15
393.15
393.149
393.145
393.142
393.148
393.15
393.15
393.15
393.15
393.15
393.15
393.15
393.15
393.15
393.15
393.15
393.15
393.15
393.15
393.15
393.15
393.148
393.142
393.137
393.148
393.149
393.15
393.15
393.15
393.15
393.15
393.15
393.15
393.15
393.15
393.15
393.15
393.15
393.15
393.15
393.149
393.148
393.137
393.13
393.146
393.149
393.15
393.15
393.15
393.15
393.15
393.15
393.15
393.15
393.15
393.15
393.15
393.15
393.15
393.15
393.149
393.146
393.13
393.119
393.144
393.148
393.149
393.15
393.15
393.15
393.15
393.15
393.15
393.15
393.15
393.15
393.15
393.15
393.15
393.149
393.148
393.144
393.119
393.104
393.141
393.147
393.149
393.149
393.15
393.15