/*--------------------------------*- C++ -*----------------------------------*\
| =========                 |                                                 |
| \\      /  F ield         | OpenFOAM: The Open Source CFD Toolbox           |
|  \\    /   O peration     | Version:  2.1.0                                 |
|   \\  /    A nd           | Web:      www.OpenFOAM.org                      |
|    \\/     M anipulation  |                                                 |
\*---------------------------------------------------------------------------*/
FoamFile
{
    version     2.0;
    format      ascii;
    class       volVectorField;
    location    "0.25";
    object      U;
}
// * * * * * * * * * * * * * * * * * * * * * * * * * * * * * * * * * * * * * //

dimensions      [0 1 -1 0 0 0 0];

internalField   nonuniform List<vector> 
6400
(
(-1.22954 -4.0772e-05 0)
(-1.22838 -0.000475318 0)
(-1.22603 -0.000754875 0)
(-1.22277 -0.000895372 0)
(-1.21909 -0.000976819 0)
(-1.21513 -0.00103038 0)
(-1.21099 -0.00106858 0)
(-1.20671 -0.00109828 0)
(-1.20234 -0.00112336 0)
(-1.19786 -0.00114593 0)
(-1.1933 -0.00116728 0)
(-1.18866 -0.00118799 0)
(-1.18394 -0.00120853 0)
(-1.17914 -0.00122896 0)
(-1.17426 -0.00124951 0)
(-1.16931 -0.00127008 0)
(-1.16427 -0.00129082 0)
(-1.15915 -0.0013117 0)
(-1.15395 -0.00133281 0)
(-1.14868 -0.0013534 0)
(-1.14332 -0.00137472 0)
(-1.13788 -0.00139732 0)
(-1.13235 -0.00142068 0)
(-1.12674 -0.0014446 0)
(-1.12103 -0.00146925 0)
(-1.11522 -0.00149475 0)
(-1.10932 -0.00152123 0)
(-1.10332 -0.00154866 0)
(-1.09721 -0.00157715 0)
(-1.09099 -0.00160666 0)
(-1.08466 -0.0016373 0)
(-1.07821 -0.00166906 0)
(-1.07164 -0.0017021 0)
(-1.06494 -0.00173669 0)
(-1.05811 -0.00177333 0)
(-1.05114 -0.00181247 0)
(-1.04401 -0.00185448 0)
(-1.03672 -0.00189921 0)
(-1.02926 -0.00194652 0)
(-1.02161 -0.00199634 0)
(-1.01377 -0.00204882 0)
(-1.00572 -0.00210395 0)
(-0.997459 -0.00216174 0)
(-0.988974 -0.00222216 0)
(-0.980253 -0.00228502 0)
(-0.971288 -0.00235064 0)
(-0.962072 -0.00241603 0)
(-0.952602 -0.00248395 0)
(-0.942857 -0.00255821 0)
(-0.932825 -0.00263365 0)
(-0.922512 -0.00270621 0)
(-0.911928 -0.00277427 0)
(-0.901088 -0.00283973 0)
(-0.889999 -0.00290458 0)
(-0.878662 -0.00296963 0)
(-0.867075 -0.0030348 0)
(-0.855238 -0.00310062 0)
(-0.843147 -0.00316735 0)
(-0.830797 -0.00323488 0)
(-0.818186 -0.00330363 0)
(-0.805308 -0.00337333 0)
(-0.792159 -0.00344413 0)
(-0.778733 -0.00351662 0)
(-0.765023 -0.00359106 0)
(-0.75102 -0.00366755 0)
(-0.736713 -0.00374745 0)
(-0.722087 -0.00383102 0)
(-0.707128 -0.00391864 0)
(-0.691815 -0.00401172 0)
(-0.676124 -0.00411139 0)
(-0.660028 -0.00421887 0)
(-0.643491 -0.00433482 0)
(-0.62648 -0.00446042 0)
(-0.608951 -0.00459707 0)
(-0.590859 -0.00474616 0)
(-0.57215 -0.00490913 0)
(-0.552766 -0.00508781 0)
(-0.532639 -0.00528485 0)
(-0.511689 -0.00550354 0)
(-0.489822 -0.00574769 0)
(-0.466926 -0.00602282 0)
(-0.442862 -0.00633678 0)
(-0.417455 -0.00669957 0)
(-0.390488 -0.00712173 0)
(-0.36171 -0.00761099 0)
(-0.330844 -0.00817112 0)
(-0.297611 -0.00879937 0)
(-0.261773 -0.00947782 0)
(-0.223219 -0.0101583 0)
(-0.182145 -0.0107339 0)
(-0.139384 -0.0109879 0)
(-0.0970525 -0.0104837 0)
(-0.0593391 -0.00861036 0)
(-0.0318749 -0.0052598 0)
(-0.018395 -0.00152453 0)
(-0.0213735 0.00301838 0)
(-0.0498355 0.0111616 0)
(-0.130103 0.0289205 0)
(-0.329152 0.0706438 0)
(-0.945553 0.197913 0)
(-1.48636 -0.000296628 0)
(-1.48337 -0.00156249 0)
(-1.48122 -0.00228974 0)
(-1.47786 -0.00267235 0)
(-1.47417 -0.00289986 0)
(-1.47025 -0.00305035 0)
(-1.46618 -0.00315789 0)
(-1.462 -0.00324158 0)
(-1.45773 -0.0033123 0)
(-1.45338 -0.00337595 0)
(-1.44897 -0.00343627 0)
(-1.44448 -0.00349481 0)
(-1.43993 -0.00355302 0)
(-1.43532 -0.003611 0)
(-1.43064 -0.00366946 0)
(-1.42589 -0.00372805 0)
(-1.42108 -0.00378717 0)
(-1.4162 -0.00384651 0)
(-1.41126 -0.00390666 0)
(-1.40625 -0.00396458 0)
(-1.40119 -0.00402371 0)
(-1.39606 -0.00408624 0)
(-1.39087 -0.00415018 0)
(-1.38562 -0.0042153 0)
(-1.3803 -0.00428208 0)
(-1.37493 -0.00435094 0)
(-1.36949 -0.00442219 0)
(-1.36399 -0.00449574 0)
(-1.35842 -0.00457185 0)
(-1.35278 -0.00465048 0)
(-1.34708 -0.0047319 0)
(-1.34131 -0.0048162 0)
(-1.33546 -0.00490385 0)
(-1.32954 -0.00499554 0)
(-1.32354 -0.0050926 0)
(-1.31746 -0.00519633 0)
(-1.31128 -0.00530766 0)
(-1.30501 -0.00542601 0)
(-1.29864 -0.00555078 0)
(-1.29216 -0.00568188 0)
(-1.28557 -0.00581975 0)
(-1.27885 -0.00596466 0)
(-1.27202 -0.00611689 0)
(-1.26504 -0.00627651 0)
(-1.25793 -0.00644325 0)
(-1.25066 -0.00661779 0)
(-1.24323 -0.00679397 0)
(-1.23565 -0.00697269 0)
(-1.22792 -0.00715787 0)
(-1.22007 -0.00734305 0)
(-1.21211 -0.00752436 0)
(-1.20401 -0.0076985 0)
(-1.19578 -0.00786761 0)
(-1.18742 -0.00803521 0)
(-1.17892 -0.00820319 0)
(-1.1703 -0.00837084 0)
(-1.16156 -0.00853937 0)
(-1.15269 -0.00870944 0)
(-1.14369 -0.00888068 0)
(-1.13457 -0.00905428 0)
(-1.12533 -0.00923001 0)
(-1.11597 -0.00940837 0)
(-1.10648 -0.00959014 0)
(-1.09687 -0.00977602 0)
(-1.08713 -0.00996674 0)
(-1.07727 -0.0101649 0)
(-1.06726 -0.0103717 0)
(-1.05712 -0.0105887 0)
(-1.04683 -0.0108193 0)
(-1.03638 -0.0110665 0)
(-1.02575 -0.011334 0)
(-1.01492 -0.0116245 0)
(-1.00387 -0.0119414 0)
(-0.992551 -0.0122892 0)
(-0.980938 -0.0126723 0)
(-0.968982 -0.0130952 0)
(-0.956631 -0.0135635 0)
(-0.943822 -0.0140849 0)
(-0.930483 -0.0146687 0)
(-0.916532 -0.015325 0)
(-0.901877 -0.0160675 0)
(-0.886413 -0.0169147 0)
(-0.870025 -0.0178896 0)
(-0.852586 -0.0190157 0)
(-0.833962 -0.0203104 0)
(-0.814014 -0.0217811 0)
(-0.792616 -0.0234159 0)
(-0.769692 -0.0251633 0)
(-0.745255 -0.0268966 0)
(-0.719492 -0.0283499 0)
(-0.692867 -0.0290093 0)
(-0.666187 -0.0279206 0)
(-0.640729 -0.0237273 0)
(-0.619378 -0.0155131 0)
(-0.609922 -0.00373396 0)
(-0.621572 0.0120723 0)
(-0.667736 0.03899 0)
(-0.770097 0.0909831 0)
(-0.971004 0.202757 0)
(-1.45647 0.523634 0)
(-1.63213 -0.000812587 0)
(-1.62834 -0.0027134 0)
(-1.62701 -0.00375187 0)
(-1.6242 -0.00432413 0)
(-1.6211 -0.00467122 0)
(-1.61784 -0.00490143 0)
(-1.61445 -0.00506502 0)
(-1.61099 -0.00519214 0)
(-1.60745 -0.00529876 0)
(-1.60388 -0.00539467 0)
(-1.60025 -0.00548514 0)
(-1.5966 -0.0055732 0)
(-1.59288 -0.00566069 0)
(-1.58915 -0.00574832 0)
(-1.58535 -0.00583687 0)
(-1.58154 -0.00592627 0)
(-1.57766 -0.00601695 0)
(-1.57375 -0.00610861 0)
(-1.56979 -0.00620227 0)
(-1.56578 -0.00629348 0)
(-1.56172 -0.00638413 0)
(-1.55762 -0.00647647 0)
(-1.55349 -0.00656894 0)
(-1.54934 -0.00666216 0)
(-1.54516 -0.00675694 0)
(-1.54096 -0.00685429 0)
(-1.53674 -0.00695445 0)
(-1.5325 -0.00705732 0)
(-1.52824 -0.0071631 0)
(-1.52396 -0.00727176 0)
(-1.51967 -0.0073836 0)
(-1.51536 -0.00749883 0)
(-1.51104 -0.00761813 0)
(-1.50671 -0.0077425 0)
(-1.50237 -0.00787379 0)
(-1.49802 -0.00801409 0)
(-1.49365 -0.00816464 0)
(-1.48927 -0.00832414 0)
(-1.48488 -0.00849116 0)
(-1.48048 -0.0086656 0)
(-1.47606 -0.00884787 0)
(-1.47164 -0.00903857 0)
(-1.46722 -0.00923841 0)
(-1.46279 -0.00944745 0)
(-1.45837 -0.00966548 0)
(-1.45394 -0.00989186 0)
(-1.44952 -0.0101226 0)
(-1.44513 -0.0103545 0)
(-1.44073 -0.0105841 0)
(-1.43635 -0.01081 0)
(-1.432 -0.0110349 0)
(-1.42765 -0.0112566 0)
(-1.42331 -0.011474 0)
(-1.41898 -0.0116889 0)
(-1.41465 -0.0119029 0)
(-1.41034 -0.012115 0)
(-1.40605 -0.012326 0)
(-1.40178 -0.0125362 0)
(-1.39755 -0.0127452 0)
(-1.39335 -0.012954 0)
(-1.38921 -0.0131627 0)
(-1.38513 -0.0133723 0)
(-1.38111 -0.0135821 0)
(-1.37717 -0.0137923 0)
(-1.37333 -0.0140045 0)
(-1.3696 -0.0142204 0)
(-1.366 -0.0144417 0)
(-1.36254 -0.0146715 0)
(-1.35923 -0.014913 0)
(-1.3561 -0.01517 0)
(-1.35315 -0.015448 0)
(-1.3504 -0.0157516 0)
(-1.34787 -0.0160864 0)
(-1.34554 -0.0164591 0)
(-1.34342 -0.0168772 0)
(-1.34151 -0.0173483 0)
(-1.33979 -0.0178815 0)
(-1.33823 -0.0184893 0)
(-1.33681 -0.0191865 0)
(-1.33548 -0.0199878 0)
(-1.33418 -0.0209113 0)
(-1.33287 -0.0219801 0)
(-1.33147 -0.0232211 0)
(-1.32992 -0.0246601 0)
(-1.32815 -0.0263155 0)
(-1.32611 -0.028192 0)
(-1.32374 -0.0302639 0)
(-1.32106 -0.0324512 0)
(-1.3181 -0.0345756 0)
(-1.31503 -0.0362866 0)
(-1.31212 -0.0369526 0)
(-1.30976 -0.0355099 0)
(-1.30849 -0.0304231 0)
(-1.30952 -0.0198363 0)
(-1.31674 -0.00230195 0)
(-1.33294 0.0238147 0)
(-1.37053 0.0673494 0)
(-1.44469 0.147287 0)
(-1.5865 0.3086 0)
(-1.85507 0.715269 0)
(-1.76506 -0.0014099 0)
(-1.76107 -0.00363073 0)
(-1.76073 -0.00488807 0)
(-1.75883 -0.00560649 0)
(-1.75672 -0.00604652 0)
(-1.7545 -0.00633646 0)
(-1.75219 -0.00653941 0)
(-1.74986 -0.00669509 0)
(-1.74748 -0.00682311 0)
(-1.74512 -0.00693713 0)
(-1.74272 -0.00704315 0)
(-1.74035 -0.00714597 0)
(-1.73796 -0.00724732 0)
(-1.7356 -0.00734888 0)
(-1.73323 -0.00745114 0)
(-1.73089 -0.00755466 0)
(-1.72854 -0.00765975 0)
(-1.72623 -0.0077661 0)
(-1.72391 -0.00787401 0)
(-1.72163 -0.00798144 0)
(-1.71939 -0.00808775 0)
(-1.71716 -0.00819216 0)
(-1.71495 -0.0082948 0)
(-1.71278 -0.00839688 0)
(-1.71064 -0.00849946 0)
(-1.70855 -0.00860431 0)
(-1.70649 -0.00871151 0)
(-1.70449 -0.00882076 0)
(-1.70254 -0.00893216 0)
(-1.70065 -0.00904552 0)
(-1.69881 -0.00916103 0)
(-1.69705 -0.00927882 0)
(-1.69535 -0.0093996 0)
(-1.69374 -0.00952455 0)
(-1.6922 -0.0096559 0)
(-1.69076 -0.00979651 0)
(-1.6894 -0.00994788 0)
(-1.68814 -0.0101078 0)
(-1.68697 -0.0102735 0)
(-1.68592 -0.0104446 0)
(-1.68497 -0.0106214 0)
(-1.68415 -0.0108046 0)
(-1.68347 -0.0109945 0)
(-1.68292 -0.0111911 0)
(-1.68253 -0.0113939 0)
(-1.6823 -0.0116006 0)
(-1.68223 -0.0118102 0)
(-1.68235 -0.0120241 0)
(-1.68262 -0.0122374 0)
(-1.68303 -0.0124473 0)
(-1.68358 -0.0126567 0)
(-1.68428 -0.012864 0)
(-1.68511 -0.0130669 0)
(-1.6861 -0.0132651 0)
(-1.68725 -0.0134587 0)
(-1.68855 -0.013647 0)
(-1.69003 -0.0138296 0)
(-1.69168 -0.0140059 0)
(-1.69354 -0.014175 0)
(-1.69559 -0.0143371 0)
(-1.69787 -0.0144921 0)
(-1.70039 -0.0146407 0)
(-1.70316 -0.0147815 0)
(-1.70619 -0.014913 0)
(-1.70952 -0.0150369 0)
(-1.71315 -0.015155 0)
(-1.7171 -0.0152694 0)
(-1.72138 -0.0153835 0)
(-1.726 -0.0155012 0)
(-1.73097 -0.015627 0)
(-1.73628 -0.0157681 0)
(-1.74194 -0.015931 0)
(-1.74794 -0.0161236 0)
(-1.75425 -0.0163552 0)
(-1.76086 -0.0166366 0)
(-1.76774 -0.0169794 0)
(-1.77484 -0.0173955 0)
(-1.78213 -0.0179025 0)
(-1.78954 -0.018521 0)
(-1.79702 -0.0192694 0)
(-1.8045 -0.0201681 0)
(-1.8119 -0.0212431 0)
(-1.81916 -0.0225228 0)
(-1.82622 -0.0240324 0)
(-1.833 -0.025786 0)
(-1.83948 -0.0277801 0)
(-1.84563 -0.0299757 0)
(-1.85148 -0.0322706 0)
(-1.8571 -0.0344539 0)
(-1.86261 -0.0361352 0)
(-1.86814 -0.0366479 0)
(-1.87379 -0.0349347 0)
(-1.87955 -0.0294352 0)
(-1.8856 -0.0179873 0)
(-1.89438 0.00129448 0)
(-1.90322 0.0327597 0)
(-1.92384 0.0858014 0)
(-1.96322 0.182323 0)
(-2.0307 0.371397 0)
(-2.12985 0.773065 0)
(-1.9013 -0.00191101 0)
(-1.89778 -0.00418196 0)
(-1.89858 -0.00552669 0)
(-1.89796 -0.00632353 0)
(-1.89731 -0.00681623 0)
(-1.89661 -0.00713563 0)
(-1.89592 -0.00735447 0)
(-1.89525 -0.00751675 0)
(-1.8946 -0.0076461 0)
(-1.894 -0.00775752 0)
(-1.89344 -0.00785856 0)
(-1.89295 -0.00795433 0)
(-1.89251 -0.0080471 0)
(-1.89215 -0.00813852 0)
(-1.89185 -0.00822921 0)
(-1.89164 -0.00831957 0)
(-1.89151 -0.00840987 0)
(-1.89148 -0.00849933 0)
(-1.89155 -0.00858716 0)
(-1.89174 -0.00867425 0)
(-1.89204 -0.0087623 0)
(-1.89245 -0.00884895 0)
(-1.89297 -0.00893347 0)
(-1.8936 -0.00901576 0)
(-1.89435 -0.00909662 0)
(-1.89522 -0.00917869 0)
(-1.89622 -0.00926193 0)
(-1.89735 -0.00934561 0)
(-1.89862 -0.00942971 0)
(-1.90005 -0.00951391 0)
(-1.90162 -0.00959832 0)
(-1.90335 -0.00968292 0)
(-1.90525 -0.00976836 0)
(-1.90732 -0.00985589 0)
(-1.90956 -0.00994809 0)
(-1.91199 -0.0100488 0)
(-1.9146 -0.0101601 0)
(-1.9174 -0.0102787 0)
(-1.92039 -0.0104005 0)
(-1.92357 -0.0105248 0)
(-1.92695 -0.0106521 0)
(-1.93053 -0.0107832 0)
(-1.93432 -0.0109185 0)
(-1.93832 -0.0110577 0)
(-1.94252 -0.0112006 0)
(-1.94692 -0.0113451 0)
(-1.95153 -0.0114915 0)
(-1.95633 -0.0116438 0)
(-1.96132 -0.0117994 0)
(-1.96652 -0.0119535 0)
(-1.9719 -0.0121056 0)
(-1.97747 -0.0122535 0)
(-1.98324 -0.0123952 0)
(-1.98919 -0.0125292 0)
(-1.99534 -0.0126542 0)
(-2.00168 -0.0127689 0)
(-2.00823 -0.0128727 0)
(-2.01497 -0.0129642 0)
(-2.02192 -0.0130421 0)
(-2.02907 -0.0131061 0)
(-2.03644 -0.0131567 0)
(-2.04401 -0.0131948 0)
(-2.05179 -0.0132191 0)
(-2.05976 -0.0132277 0)
(-2.06793 -0.0132226 0)
(-2.07628 -0.0132072 0)
(-2.08481 -0.0131846 0)
(-2.09349 -0.0131594 0)
(-2.10232 -0.0131368 0)
(-2.11128 -0.0131232 0)
(-2.12034 -0.013127 0)
(-2.12949 -0.0131566 0)
(-2.1387 -0.0132218 0)
(-2.14796 -0.0133335 0)
(-2.15725 -0.013505 0)
(-2.16654 -0.013751 0)
(-2.17581 -0.0140838 0)
(-2.18505 -0.0145235 0)
(-2.19423 -0.0150962 0)
(-2.20332 -0.0158209 0)
(-2.21231 -0.0167181 0)
(-2.22118 -0.0178142 0)
(-2.22991 -0.0191375 0)
(-2.23848 -0.0207117 0)
(-2.24688 -0.0225449 0)
(-2.25514 -0.0246234 0)
(-2.26325 -0.0268982 0)
(-2.27125 -0.0292534 0)
(-2.27917 -0.0314645 0)
(-2.28705 -0.0331368 0)
(-2.29483 -0.0336245 0)
(-2.30232 -0.0319467 0)
(-2.30903 -0.0266621 0)
(-2.31448 -0.015686 0)
(-2.32005 0.00329039 0)
(-2.32073 0.0360823 0)
(-2.32376 0.0926453 0)
(-2.3283 0.194796 0)
(-2.32499 0.387853 0)
(-2.30621 0.738711 0)
(-2.04832 -0.0021603 0)
(-2.04589 -0.00423436 0)
(-2.04796 -0.00550634 0)
(-2.04897 -0.00628137 0)
(-2.05016 -0.006762 0)
(-2.05143 -0.00706556 0)
(-2.05281 -0.00726602 0)
(-2.05428 -0.0074058 0)
(-2.05585 -0.00751068 0)
(-2.05752 -0.00759482 0)
(-2.05929 -0.00766714 0)
(-2.06118 -0.00773199 0)
(-2.06318 -0.00779244 0)
(-2.0653 -0.0078495 0)
(-2.06754 -0.00790422 0)
(-2.06991 -0.00795658 0)
(-2.07241 -0.00800679 0)
(-2.07506 -0.00805414 0)
(-2.07784 -0.00809794 0)
(-2.08078 -0.0081396 0)
(-2.08385 -0.0081825 0)
(-2.08709 -0.00822465 0)
(-2.09049 -0.00826544 0)
(-2.09405 -0.00830239 0)
(-2.09778 -0.0083353 0)
(-2.10169 -0.00836875 0)
(-2.10577 -0.0084025 0)
(-2.11003 -0.00843537 0)
(-2.11448 -0.0084674 0)
(-2.11911 -0.00849838 0)
(-2.12393 -0.0085285 0)
(-2.12894 -0.00855774 0)
(-2.13414 -0.00858683 0)
(-2.13953 -0.00861704 0)
(-2.14511 -0.00865125 0)
(-2.15088 -0.00869464 0)
(-2.15683 -0.00875076 0)
(-2.16295 -0.00881499 0)
(-2.16924 -0.00888134 0)
(-2.1757 -0.00894911 0)
(-2.18231 -0.00901939 0)
(-2.18909 -0.00909338 0)
(-2.19603 -0.00917168 0)
(-2.20311 -0.00925412 0)
(-2.21033 -0.00934073 0)
(-2.21768 -0.0094301 0)
(-2.22516 -0.0095229 0)
(-2.23276 -0.00962043 0)
(-2.24047 -0.00972042 0)
(-2.24829 -0.00981949 0)
(-2.25622 -0.00991556 0)
(-2.26425 -0.0100063 0)
(-2.27237 -0.0100894 0)
(-2.28058 -0.0101632 0)
(-2.28887 -0.0102255 0)
(-2.29724 -0.0102747 0)
(-2.30569 -0.0103101 0)
(-2.3142 -0.0103306 0)
(-2.32278 -0.0103353 0)
(-2.33141 -0.0103239 0)
(-2.34009 -0.0102979 0)
(-2.34881 -0.0102601 0)
(-2.35756 -0.0102092 0)
(-2.36632 -0.0101428 0)
(-2.3751 -0.010064 0)
(-2.38387 -0.00997651 0)
(-2.39264 -0.00988471 0)
(-2.40139 -0.00979395 0)
(-2.41012 -0.0097099 0)
(-2.41882 -0.00963967 0)
(-2.42749 -0.00959163 0)
(-2.43613 -0.0095746 0)
(-2.44472 -0.00959844 0)
(-2.45327 -0.00967434 0)
(-2.46177 -0.00981527 0)
(-2.47024 -0.010037 0)
(-2.47865 -0.010351 0)
(-2.48704 -0.0107751 0)
(-2.49539 -0.0113371 0)
(-2.50372 -0.0120576 0)
(-2.51203 -0.012955 0)
(-2.52033 -0.0140554 0)
(-2.52863 -0.0153864 0)
(-2.53693 -0.0169718 0)
(-2.54525 -0.0188151 0)
(-2.5536 -0.0208951 0)
(-2.562 -0.0231609 0)
(-2.57046 -0.0254961 0)
(-2.57899 -0.0276825 0)
(-2.58752 -0.0293506 0)
(-2.59588 -0.0299181 0)
(-2.60366 -0.0285192 0)
(-2.61005 -0.0239484 0)
(-2.61404 -0.0143677 0)
(-2.61629 0.00294715 0)
(-2.6094 0.0340708 0)
(-2.59678 0.088367 0)
(-2.5702 0.186205 0)
(-2.5078 0.363361 0)
(-2.4109 0.646276 0)
(-2.20325 -0.00206737 0)
(-2.20213 -0.00370718 0)
(-2.20541 -0.00475288 0)
(-2.20806 -0.00540281 0)
(-2.21097 -0.00580183 0)
(-2.21414 -0.00604364 0)
(-2.21743 -0.00619228 0)
(-2.22091 -0.00628482 0)
(-2.22449 -0.00634487 0)
(-2.22824 -0.00638501 0)
(-2.23208 -0.00641383 0)
(-2.23607 -0.00643507 0)
(-2.24016 -0.0064519 0)
(-2.24441 -0.00646503 0)
(-2.24876 -0.00647573 0)
(-2.25326 -0.0064839 0)
(-2.25787 -0.0064898 0)
(-2.26262 -0.00649308 0)
(-2.26748 -0.00649385 0)
(-2.27249 -0.00649293 0)
(-2.2776 -0.00649265 0)
(-2.28286 -0.0064913 0)
(-2.28822 -0.00649007 0)
(-2.29371 -0.00648548 0)
(-2.29932 -0.00647553 0)
(-2.30508 -0.00646403 0)
(-2.31094 -0.00645191 0)
(-2.31695 -0.00643896 0)
(-2.32308 -0.00642589 0)
(-2.32936 -0.00641264 0)
(-2.33574 -0.00639964 0)
(-2.34226 -0.00638681 0)
(-2.34888 -0.00637506 0)
(-2.35563 -0.00636558 0)
(-2.36246 -0.00636138 0)
(-2.3694 -0.00636907 0)
(-2.37642 -0.006395 0)
(-2.38351 -0.0064323 0)
(-2.39066 -0.00647161 0)
(-2.39788 -0.00651273 0)
(-2.40514 -0.00655731 0)
(-2.41247 -0.00660661 0)
(-2.41982 -0.00666152 0)
(-2.42722 -0.00672119 0)
(-2.43465 -0.00678614 0)
(-2.4421 -0.00685462 0)
(-2.44958 -0.00692674 0)
(-2.45707 -0.0070026 0)
(-2.46458 -0.00707983 0)
(-2.47211 -0.00715574 0)
(-2.47965 -0.00722786 0)
(-2.48721 -0.00729397 0)
(-2.49477 -0.00735161 0)
(-2.50235 -0.00739894 0)
(-2.50992 -0.00743395 0)
(-2.5175 -0.00745504 0)
(-2.52508 -0.00746149 0)
(-2.53267 -0.00745246 0)
(-2.54024 -0.00742764 0)
(-2.54782 -0.00738657 0)
(-2.55539 -0.00733098 0)
(-2.56295 -0.00726573 0)
(-2.57049 -0.0071904 0)
(-2.57803 -0.00709886 0)
(-2.58555 -0.00699495 0)
(-2.59307 -0.00688289 0)
(-2.60058 -0.00676725 0)
(-2.60808 -0.00665332 0)
(-2.61559 -0.00654643 0)
(-2.6231 -0.00645338 0)
(-2.63062 -0.00638255 0)
(-2.63815 -0.0063424 0)
(-2.6457 -0.00634221 0)
(-2.65328 -0.00639301 0)
(-2.66089 -0.00650745 0)
(-2.66855 -0.00669935 0)
(-2.67624 -0.00698259 0)
(-2.68404 -0.00737378 0)
(-2.69189 -0.00790027 0)
(-2.6998 -0.00858488 0)
(-2.70778 -0.00943994 0)
(-2.71586 -0.0104926 0)
(-2.72406 -0.0117689 0)
(-2.7324 -0.0132959 0)
(-2.74088 -0.0150758 0)
(-2.74952 -0.0170788 0)
(-2.75836 -0.0192597 0)
(-2.76738 -0.0215122 0)
(-2.77653 -0.0236388 0)
(-2.78568 -0.0253159 0)
(-2.79455 -0.0260506 0)
(-2.80256 -0.0251274 0)
(-2.80874 -0.021595 0)
(-2.81144 -0.014032 0)
(-2.81091 0.000389877 0)
(-2.79763 0.0272786 0)
(-2.77127 0.0744196 0)
(-2.71839 0.15918 0)
(-2.61041 0.306621 0)
(-2.4642 0.518761 0)
(-2.34901 -0.0016468 0)
(-2.34891 -0.00270459 0)
(-2.35282 -0.00343117 0)
(-2.35643 -0.00388923 0)
(-2.36026 -0.00416293 0)
(-2.36448 -0.00431777 0)
(-2.36876 -0.00440045 0)
(-2.3733 -0.0044398 0)
(-2.37786 -0.00445369 0)
(-2.38263 -0.00445236 0)
(-2.3874 -0.00444245 0)
(-2.39235 -0.00442718 0)
(-2.39732 -0.00440903 0)
(-2.40245 -0.00438865 0)
(-2.40759 -0.00436724 0)
(-2.4129 -0.00434459 0)
(-2.41821 -0.00432132 0)
(-2.42368 -0.00429688 0)
(-2.42916 -0.00427231 0)
(-2.43477 -0.00424762 0)
(-2.4404 -0.00422469 0)
(-2.44616 -0.00420219 0)
(-2.45194 -0.00418072 0)
(-2.45781 -0.00415811 0)
(-2.46373 -0.0041346 0)
(-2.46973 -0.0041097 0)
(-2.47572 -0.00408489 0)
(-2.48179 -0.00406058 0)
(-2.48784 -0.00403854 0)
(-2.49396 -0.00401826 0)
(-2.50005 -0.0040005 0)
(-2.50618 -0.00398471 0)
(-2.51229 -0.00397186 0)
(-2.51843 -0.00396288 0)
(-2.52454 -0.00396016 0)
(-2.53067 -0.00397136 0)
(-2.53676 -0.00400777 0)
(-2.54284 -0.00405958 0)
(-2.54887 -0.00411029 0)
(-2.5549 -0.00416156 0)
(-2.56089 -0.00421602 0)
(-2.56687 -0.00427474 0)
(-2.57282 -0.00433858 0)
(-2.57876 -0.00440615 0)
(-2.58467 -0.00447796 0)
(-2.59058 -0.00455204 0)
(-2.59646 -0.00462781 0)
(-2.60235 -0.00470482 0)
(-2.60822 -0.00478074 0)
(-2.6141 -0.00485328 0)
(-2.61998 -0.00491992 0)
(-2.62587 -0.0049786 0)
(-2.63176 -0.0050269 0)
(-2.63767 -0.00506298 0)
(-2.64359 -0.00508504 0)
(-2.64954 -0.00509163 0)
(-2.6555 -0.005082 0)
(-2.6615 -0.00505536 0)
(-2.66752 -0.00501161 0)
(-2.67358 -0.00495019 0)
(-2.67968 -0.00487153 0)
(-2.68582 -0.00478352 0)
(-2.692 -0.00468914 0)
(-2.69823 -0.00457372 0)
(-2.7045 -0.00444254 0)
(-2.71084 -0.00430152 0)
(-2.71724 -0.00415533 0)
(-2.7237 -0.00400877 0)
(-2.73024 -0.00386697 0)
(-2.73686 -0.00373586 0)
(-2.74357 -0.00362472 0)
(-2.75037 -0.00354167 0)
(-2.75727 -0.00349466 0)
(-2.76428 -0.00349478 0)
(-2.7714 -0.00355427 0)
(-2.77866 -0.00368456 0)
(-2.78604 -0.00390265 0)
(-2.7936 -0.0042245 0)
(-2.80131 -0.00467853 0)
(-2.80919 -0.0052948 0)
(-2.81725 -0.00606711 0)
(-2.8255 -0.00702841 0)
(-2.83399 -0.00819975 0)
(-2.84273 -0.00961587 0)
(-2.85171 -0.0112848 0)
(-2.86098 -0.0131586 0)
(-2.87052 -0.0152099 0)
(-2.88032 -0.0173507 0)
(-2.89028 -0.0194148 0)
(-2.90021 -0.0211399 0)
(-2.90974 -0.0221387 0)
(-2.91817 -0.0218759 0)
(-2.92439 -0.0196346 0)
(-2.92643 -0.0145203 0)
(-2.92332 -0.00403327 0)
(-2.90627 0.0162961 0)
(-2.86879 0.052384 0)
(-2.79572 0.11707 0)
(-2.65578 0.226242 0)
(-2.48029 0.371167 0)
(-2.46559 -0.000955793 0)
(-2.46627 -0.00145643 0)
(-2.47024 -0.00184898 0)
(-2.47412 -0.00209581 0)
(-2.4781 -0.00223565 0)
(-2.48256 -0.00230549 0)
(-2.48693 -0.00233213 0)
(-2.49162 -0.00233349 0)
(-2.49617 -0.00232 0)
(-2.50096 -0.00229832 0)
(-2.50559 -0.00227228 0)
(-2.51044 -0.00224417 0)
(-2.51513 -0.00221538 0)
(-2.52001 -0.00218643 0)
(-2.52475 -0.0021581 0)
(-2.52965 -0.00213021 0)
(-2.53441 -0.00210341 0)
(-2.53933 -0.00207718 0)
(-2.54412 -0.00205281 0)
(-2.54903 -0.00203002 0)
(-2.55383 -0.00201024 0)
(-2.55873 -0.00199239 0)
(-2.56354 -0.00197598 0)
(-2.56841 -0.00196049 0)
(-2.5732 -0.00195051 0)
(-2.57805 -0.0019436 0)
(-2.58279 -0.00193967 0)
(-2.58755 -0.0019378 0)
(-2.59222 -0.00193978 0)
(-2.59691 -0.00194445 0)
(-2.60151 -0.00195262 0)
(-2.60611 -0.00196312 0)
(-2.61064 -0.00197679 0)
(-2.61516 -0.00199408 0)
(-2.61962 -0.00201641 0)
(-2.62409 -0.00205057 0)
(-2.62849 -0.00211721 0)
(-2.63288 -0.00220402 0)
(-2.63719 -0.00228047 0)
(-2.64152 -0.00235343 0)
(-2.64579 -0.00242699 0)
(-2.65009 -0.00250251 0)
(-2.65436 -0.00258029 0)
(-2.65864 -0.00265954 0)
(-2.66291 -0.00273966 0)
(-2.6672 -0.00281935 0)
(-2.6715 -0.00289772 0)
(-2.67582 -0.00297362 0)
(-2.68015 -0.0030451 0)
(-2.68451 -0.00311026 0)
(-2.6889 -0.00316685 0)
(-2.69334 -0.00321272 0)
(-2.6978 -0.0032457 0)
(-2.70232 -0.00326374 0)
(-2.70687 -0.00326506 0)
(-2.71148 -0.00324838 0)
(-2.71614 -0.00321283 0)
(-2.72088 -0.00315781 0)
(-2.72566 -0.00308301 0)
(-2.73053 -0.00298868 0)
(-2.73547 -0.00287206 0)
(-2.7405 -0.00274328 0)
(-2.74561 -0.00261877 0)
(-2.75079 -0.00246277 0)
(-2.75607 -0.00228649 0)
(-2.76145 -0.00209851 0)
(-2.76693 -0.00190365 0)
(-2.77252 -0.00170613 0)
(-2.77822 -0.00151099 0)
(-2.78405 -0.00132382 0)
(-2.79 -0.00115314 0)
(-2.79607 -0.00100726 0)
(-2.80229 -0.000894154 0)
(-2.80867 -0.000823989 0)
(-2.81521 -0.000808008 0)
(-2.82192 -0.000857619 0)
(-2.82881 -0.000989147 0)
(-2.8359 -0.00121938 0)
(-2.84324 -0.00156512 0)
(-2.85077 -0.0020887 0)
(-2.85857 -0.00274238 0)
(-2.86665 -0.00357945 0)
(-2.87505 -0.00460763 0)
(-2.8838 -0.00586936 0)
(-2.89289 -0.00740351 0)
(-2.90234 -0.00911172 0)
(-2.91217 -0.0110064 0)
(-2.92233 -0.0130248 0)
(-2.93271 -0.0150377 0)
(-2.94309 -0.0168541 0)
(-2.95304 -0.0182047 0)
(-2.96184 -0.0187411 0)
(-2.96829 -0.0180175 0)
(-2.97046 -0.0155533 0)
(-2.96567 -0.00973147 0)
(-2.94765 0.00228316 0)
(-2.90453 0.0243508 0)
(-2.8189 0.0639987 0)
(-2.6603 0.129832 0)
(-2.47008 0.212815 0)
(-2.53118 -6.3895e-05 0)
(-2.53227 -0.000162675 0)
(-2.5359 -0.000248532 0)
(-2.53955 -0.000297996 0)
(-2.54321 -0.000320872 0)
(-2.54732 -0.000326154 0)
(-2.55124 -0.000321251 0)
(-2.55547 -0.000310734 0)
(-2.55943 -0.000297799 0)
(-2.56363 -0.000283956 0)
(-2.56755 -0.000270288 0)
(-2.57167 -0.000257527 0)
(-2.57552 -0.000245823 0)
(-2.57955 -0.000235413 0)
(-2.58332 -0.00022632 0)
(-2.58726 -0.000218627 0)
(-2.59096 -0.00021236 0)
(-2.59481 -0.000207634 0)
(-2.59844 -0.000204994 0)
(-2.6022 -0.000204688 0)
(-2.60577 -0.0002072 0)
(-2.60945 -0.000212211 -2.49453e-42)
(-2.61296 -0.000218997 0)
(-2.61656 -0.000228321 0)
(-2.62002 -0.000243744 0)
(-2.62354 -0.000264015 0)
(-2.62696 -0.000287854 0)
(-2.63042 -0.000314286 0)
(-2.63381 -0.000343748 0)
(-2.63721 -0.000375388 0)
(-2.64057 -0.000409284 0)
(-2.64394 -0.000444485 0)
(-2.64727 -0.00048141 0)
(-2.65062 -0.000519914 0)
(-2.65394 -0.000561071 0)
(-2.65729 -0.000607201 0)
(-2.66062 -0.000694271 0)
(-2.66394 -0.000811984 0)
(-2.66723 -0.000901362 0)
(-2.67056 -0.000982974 0)
(-2.67388 -0.00106262 0)
(-2.67724 -0.00114193 0)
(-2.6806 -0.00122061 0)
(-2.684 -0.00129874 0)
(-2.68741 -0.00137457 0)
(-2.69086 -0.0014475 0)
(-2.69434 -0.00151654 0)
(-2.69786 -0.00158008 0)
(-2.70141 -0.00163642 0)
(-2.70501 -0.00168391 0)
(-2.70865 -0.00172061 0)
(-2.71234 -0.00174421 0)
(-2.71608 -0.00175272 0)
(-2.71988 -0.00174369 0)
(-2.72372 -0.00171529 0)
(-2.72764 -0.00166622 0)
(-2.73162 -0.00159561 0)
(-2.73568 -0.00150291 0)
(-2.7398 -0.00138781 0)
(-2.744 -0.00125052 0)
(-2.74829 -0.0010897 0)
(-2.75269 -0.000901045 0)
(-2.75714 -0.000747263 0)
(-2.76168 -0.00053823 0)
(-2.76633 -0.0003055 0)
(-2.77109 -6.04815e-05 0)
(-2.77596 0.000192981 0)
(-2.78096 0.000451241 0)
(-2.78607 0.000709429 0)
(-2.79131 0.000961447 0)
(-2.79668 0.00120168 0)
(-2.80219 0.00142207 0)
(-2.80786 0.0016129 0)
(-2.81369 0.00176524 0)
(-2.81969 0.00186883 0)
(-2.82588 0.00191185 0)
(-2.83227 0.00187978 0)
(-2.83886 0.00175396 0)
(-2.84569 0.00152353 0)
(-2.85274 0.00112948 0)
(-2.86008 0.000614185 0)
(-2.86771 -7.29997e-05 0)
(-2.87564 -0.000944686 -1.11047e-41)
(-2.88399 -0.00200469 0)
(-2.89253 -0.0033996 0)
(-2.90149 -0.00490599 0)
(-2.91083 -0.0066208 0)
(-2.92048 -0.00850681 -9.99971e-41)
(-2.93032 -0.0104685 0)
(-2.94008 -0.012392 0)
(-2.94935 -0.0141299 0)
(-2.95738 -0.0155164 0)
(-2.96297 -0.0164018 0)
(-2.96423 -0.0166449 -9.78297e-41)
(-2.95786 -0.0157459 0)
(-2.93814 -0.0127655 0)
(-2.89315 -0.00647042 -7.60594e-41)
(-2.80308 0.00536784 0)
(-2.63789 0.0251891 0)
(-2.44302 0.0502789 0)
(-2.51758 0.000891047 0)
(-2.51852 0.00111703 0)
(-2.52215 0.00132513 0)
(-2.52577 0.00146298 0)
(-2.52941 0.00154724 0)
(-2.53351 0.0015961 0)
(-2.53742 0.00162141 0)
(-2.54164 0.00163237 0)
(-2.5456 0.00163314 0)
(-2.54979 0.00162757 0)
(-2.55372 0.00161739 0)
(-2.55784 0.00160374 0)
(-2.5617 0.00158766 0)
(-2.56573 0.00156948 0)
(-2.56951 0.00154988 0)
(-2.57344 0.00152873 0)
(-2.57714 0.00150661 0)
(-2.58098 0.00148298 0)
(-2.58461 0.00145823 0)
(-2.58836 0.00143136 0)
(-2.59192 0.00140303 0)
(-2.59558 0.0013724 1.61325e-41)
(-2.59908 0.00134068 0)
(-2.60266 0.001306 0)
(-2.60611 0.00126799 0)
(-2.60962 0.00122626 0)
(-2.61302 0.00118271 0)
(-2.61647 0.00113686 0)
(-2.61984 0.00108984 0)
(-2.62324 0.00104139 0)
(-2.62659 0.000992613 0)
(-2.62995 0.000943437 0)
(-2.63328 0.000894279 0)
(-2.63661 0.000845002 0)
(-2.63992 0.000794513 0)
(-2.64323 0.000740006 0)
(-2.64652 0.000646902 0)
(-2.64983 0.000525945 0)
(-2.65316 0.000434798 0)
(-2.65651 0.00035281 0)
(-2.65985 0.000274831 0)
(-2.66322 0.000199587 0)
(-2.66658 0.000126999 0)
(-2.66997 5.69783e-05 0)
(-2.67337 -8.70572e-06 0)
(-2.6768 -6.95158e-05 0)
(-2.68025 -0.000124178 0)
(-2.68374 -0.000171168 0)
(-2.68726 -0.000208966 0)
(-2.69081 -0.000235882 0)
(-2.6944 -0.000250155 0)
(-2.69803 -0.000249423 0)
(-2.7017 -0.000231677 0)
(-2.70543 -0.000194197 0)
(-2.70919 -0.000134908 0)
(-2.71302 -5.23814e-05 0)
(-2.7169 5.42434e-05 0)
(-2.72085 0.000185458 0)
(-2.72486 0.000341515 0)
(-2.72895 0.000522429 0)
(-2.7331 0.00072723 0)
(-2.73734 0.000963115 0)
(-2.74164 0.00116862 0)
(-2.74607 0.00143148 0)
(-2.75058 0.00171994 0)
(-2.75518 0.0020231 0)
(-2.75989 0.00233743 0)
(-2.7647 0.00265942 0)
(-2.76961 0.00298431 0)
(-2.77465 0.00330641 0)
(-2.77981 0.00362113 0)
(-2.78511 0.00392104 0)
(-2.79054 0.00419654 0)
(-2.79613 0.00443882 0)
(-2.80187 0.00463814 0)
(-2.80779 0.00478305 0)
(-2.8139 0.00485952 0)
(-2.82021 0.0048509 0)
(-2.82673 0.00473879 0)
(-2.8335 0.0044989 0)
(-2.84054 0.00413215 0)
(-2.84785 0.00360916 0)
(-2.85547 0.00290307 3.41254e-41)
(-2.86343 0.00202709 0)
(-2.87162 0.000837812 0)
(-2.88024 -0.000473025 0)
(-2.8892 -0.00200804 0)
(-2.89823 -0.00375471 -4.41364e-41)
(-2.90738 -0.00565776 0)
(-2.9164 -0.00768586 0)
(-2.92482 -0.00980715 0)
(-2.9319 -0.0120272 0)
(-2.93647 -0.0144676 0)
(-2.93666 -0.0173948 -1.02238e-40)
(-2.92919 -0.0212918 0)
(-2.90811 -0.0270715 0)
(-2.86254 -0.0365121 -4.29197e-40)
(-2.77312 -0.0526282 0)
(-2.60974 -0.0785734 0)
(-2.41706 -0.109199 0)
(-2.43385 0.00171652 0)
(-2.434 0.00239368 0)
(-2.4378 0.00291172 0)
(-2.44137 0.00324943 0)
(-2.44505 0.00345528 0)
(-2.44918 0.00357389 0)
(-2.45323 0.00363734 0)
(-2.45757 0.0036664 0)
(-2.46179 0.00367369 0)
(-2.46622 0.00366684 0)
(-2.47052 0.0036508 0)
(-2.47499 0.00362831 0)
(-2.47934 0.00360141 0)
(-2.48383 0.00357107 0)
(-2.4882 0.00353827 0)
(-2.4927 0.0035032 0)
(-2.49708 0.00346655 0)
(-2.50158 0.00342796 0)
(-2.50596 0.00338804 0)
(-2.51044 0.00334576 0)
(-2.51482 0.00330217 0)
(-2.51929 0.00325607 0)
(-2.52365 0.00320871 0)
(-2.52809 0.00315813 0)
(-2.53243 0.00310546 0)
(-2.53684 0.00304985 0)
(-2.54116 0.00299331 0)
(-2.54554 0.00293472 0)
(-2.54985 0.00287583 0)
(-2.55419 0.00281582 0)
(-2.55848 0.00275649 0)
(-2.56279 0.0026971 0)
(-2.56706 0.0026388 0)
(-2.57134 0.00258057 0)
(-2.57559 0.00252131 0)
(-2.57984 0.00245378 0)
(-2.58407 0.00235974 0)
(-2.58833 0.0022523 0)
(-2.59257 0.00216009 0)
(-2.59684 0.00207595 0)
(-2.60107 0.00199696 0)
(-2.60534 0.00192232 0)
(-2.60957 0.00185157 0)
(-2.61382 0.00178526 0)
(-2.61806 0.00172481 0)
(-2.62231 0.00167108 0)
(-2.62655 0.00162555 0)
(-2.63082 0.00158962 0)
(-2.63508 0.0015647 0)
(-2.63937 0.00155259 0)
(-2.64367 0.00155499 0)
(-2.648 0.00157417 0)
(-2.65234 0.00161222 0)
(-2.65673 0.00167175 0)
(-2.66113 0.00175514 0)
(-2.66557 0.00186397 0)
(-2.67004 0.00199936 0)
(-2.67456 0.00216136 0)
(-2.67911 0.00235038 0)
(-2.68372 0.00256595 0)
(-2.68836 0.00280819 0)
(-2.69306 0.00307118 0)
(-2.69782 0.00334003 0)
(-2.70264 0.00364744 0)
(-2.70754 0.00398148 0)
(-2.7125 0.00433453 0)
(-2.71753 0.00470249 0)
(-2.72265 0.00508161 0)
(-2.72785 0.00546727 0)
(-2.73314 0.00585467 0)
(-2.73853 0.00623872 0)
(-2.74404 0.00661227 0)
(-2.74965 0.0069672 0)
(-2.75541 0.00729502 0)
(-2.7613 0.00758645 0)
(-2.76735 0.00783065 0)
(-2.77357 0.00801453 0)
(-2.77999 0.00812322 0)
(-2.78661 0.0081385 0)
(-2.79348 0.00804365 0)
(-2.8006 0.00782806 0)
(-2.80801 0.00746724 0)
(-2.81572 0.00693541 0)
(-2.82376 0.00621546 0)
(-2.83216 0.00526797 0)
(-2.84092 0.00412618 0)
(-2.85006 0.00275012 0)