/*--------------------------------*- C++ -*----------------------------------*\
| =========                 |                                                 |
| \\      /  F ield         | OpenFOAM: The Open Source CFD Toolbox           |
|  \\    /   O peration     | Version:  2.1.0                                 |
|   \\  /    A nd           | Web:      www.OpenFOAM.org                      |
|    \\/     M anipulation  |                                                 |
\*---------------------------------------------------------------------------*/
FoamFile
{
    version     2.0;
    format      ascii;
    class       volScalarField;
    location    "0.02";
    object      C2;
}
// * * * * * * * * * * * * * * * * * * * * * * * * * * * * * * * * * * * * * //

dimensions      [0 0 0 0 0 0 0];

internalField   nonuniform List<scalar> 
6400
(
1.84277e-110
8.47653e-110
4.03022e-109
1.91191e-108
9.04674e-108
4.26965e-107
2.00991e-106
9.43741e-106
4.42028e-105
2.06521e-104
9.62437e-104
4.47337e-103
2.07365e-102
9.58669e-102
4.4199e-101
2.03205e-100
9.31535e-100
4.25774e-99
1.9403e-98
8.81546e-98
3.99288e-97
1.80307e-96
8.11703e-96
3.64278e-95
1.6298e-94
7.26929e-94
3.23216e-93
1.43248e-92
6.3275e-92
2.78548e-91
1.22196e-90
5.3417e-90
2.32682e-89
1.00993e-88
4.3676e-88
1.88185e-87
8.07716e-87
3.45333e-86
1.47065e-85
6.23767e-85
2.63464e-84
1.10816e-83
4.64132e-83
1.93546e-82
8.03521e-82
3.32086e-81
1.36617e-80
5.59394e-80
2.27928e-79
9.23979e-79
3.72607e-78
1.49441e-77
5.95986e-77
2.36314e-76
9.31347e-76
3.64723e-75
1.41882e-74
5.48112e-74
2.10201e-73
7.99954e-73
3.01969e-72
1.13006e-71
4.19065e-71
1.5391e-70
5.59484e-70
2.01159e-69
7.1485e-69
2.50897e-68
8.69037e-68
2.96823e-67
9.98926e-67
3.30976e-66
1.07874e-65
3.45553e-65
1.08689e-64
3.35367e-64
1.01416e-63
3.00284e-63
8.69695e-63
2.46133e-62
6.79946e-62
1.8314e-61
4.80341e-61
1.22511e-60
3.0337e-60
7.28018e-60
1.68932e-59
3.77984e-59
8.12607e-59
1.67078e-58
3.26517e-58
6.01481e-58
1.03272e-57
1.62841e-57
2.31962e-57
2.97117e-57
3.5287e-57
3.83113e-57
3.43187e-57
2.25978e-57
2.54992e-110
1.17577e-109
5.59666e-109
2.65809e-108
1.25925e-107
5.95045e-107
2.80475e-106
1.31868e-105
6.18471e-105
2.89365e-104
1.35051e-103
6.28672e-103
2.91885e-102
1.35162e-101
6.24208e-101
2.87479e-100
1.32024e-99
6.04553e-99
2.76026e-98
1.25654e-97
5.70286e-97
2.58064e-96
1.16426e-95
5.23674e-95
2.34841e-94
1.04998e-93
4.68028e-93
2.07975e-92
9.21147e-92
4.06642e-91
1.78908e-90
7.84429e-90
3.42756e-89
1.49249e-88
6.4761e-88
2.80005e-87
1.20618e-86
5.17637e-86
2.21309e-85
9.42544e-85
3.99819e-84
1.68922e-83
7.10812e-83
2.97852e-82
1.24279e-81
5.16332e-81
2.1358e-80
8.79551e-80
3.60546e-79
1.47087e-78
5.97103e-78
2.41159e-77
9.68849e-77
3.87136e-76
1.53831e-75
6.07657e-75
2.38565e-74
9.30622e-74
3.60603e-73
1.38756e-72
5.29997e-72
2.00858e-71
7.54982e-71
2.81339e-70
1.03883e-69
3.79842e-69
1.37444e-68
4.91849e-68
1.73938e-67
6.07392e-67
2.09274e-66
7.10869e-66
2.37851e-65
7.83185e-65
2.53527e-64
8.05965e-64
2.51336e-63
7.67959e-63
2.29638e-62
6.7116e-62
1.91476e-61
5.32482e-61
1.44129e-60
3.79104e-60
9.673e-60
2.38941e-59
5.70052e-59
1.3097e-58
2.88715e-58
6.07766e-58
1.21401e-57
2.28164e-57
3.98942e-57
6.39746e-57
9.26933e-57
1.2083e-56
1.45958e-56
1.59641e-56
1.45269e-56
1.02051e-56
3.6656e-110
1.69374e-109
8.07794e-109
3.84416e-108
1.82479e-107
8.64088e-107
4.08171e-106
1.92323e-105
9.03978e-105
4.23885e-104
1.98294e-103
9.25316e-103
4.30694e-102
1.99958e-101
9.25887e-101
4.27582e-100
1.96918e-99
9.04322e-99
4.14125e-98
1.89089e-97
8.60848e-97
3.9078e-96
1.76868e-95
7.98173e-95
3.59182e-94
1.61161e-93
7.20978e-93
3.2161e-92
1.43011e-91
6.33866e-91
2.80046e-90
1.23315e-89
5.41195e-89
2.3672e-88
1.03194e-87
4.48322e-87
1.94086e-86
8.37216e-86
3.59834e-85
1.54095e-84
6.57412e-84
2.79417e-83
1.1831e-82
4.98956e-82
2.09561e-81
8.76562e-81
3.6514e-80
1.51461e-79
6.25588e-79
2.57246e-78
1.05294e-77
4.28948e-77
1.73878e-76
7.01251e-76
2.81391e-75
1.12307e-74
4.45679e-74
1.75832e-73
6.89456e-73
2.68636e-72
1.03983e-71
3.99671e-71
1.5248e-70
5.77269e-70
2.16788e-69
8.07106e-69
2.97712e-68
1.08739e-67
3.93004e-67
1.40432e-66
4.95712e-66
1.72716e-65
5.93399e-65
2.00836e-64
6.68847e-64
2.18911e-63
7.03236e-63
2.21431e-62
6.82447e-62
2.05568e-61
6.04282e-61
1.73077e-60
4.82211e-60
1.30462e-59
3.4212e-59
8.67801e-59
2.12406e-58
5.00214e-58
1.1293e-57
2.43273e-57
4.9699e-57
9.55116e-57
1.70875e-56
2.80997e-56
4.19419e-56
5.6626e-56
7.08316e-56
7.93206e-56
7.47834e-56
5.64348e-56
5.25937e-110
2.43537e-109
1.16389e-108
5.55047e-108
2.64032e-107
1.25306e-106
5.93321e-106
2.80238e-105
1.32025e-104
6.20475e-104
2.90909e-103
1.36083e-102
6.35073e-102
2.95635e-101
1.37267e-100
6.35658e-100
2.93572e-99
1.35227e-98
6.21205e-98
2.84532e-97
1.29952e-96
5.91815e-96
2.68723e-95
1.21674e-94
5.49451e-94
2.47405e-93
1.11074e-92
4.97318e-92
2.22025e-91
9.881e-91
4.38363e-90
1.93868e-89
8.546e-89
3.7547e-88
1.64431e-87
7.17707e-87
3.12221e-86
1.35362e-85
5.84764e-85
2.51721e-84
1.0798e-83
4.61566e-83
1.96605e-82
8.34444e-82
3.52738e-81
1.48513e-80
6.228e-80
2.60108e-79
1.08198e-78
4.48233e-78
1.84887e-77
7.59325e-77
3.10384e-76
1.26253e-75
5.11177e-75
2.0598e-74
8.25534e-74
3.29071e-73
1.30446e-72
5.14077e-72
2.01385e-71
7.83945e-71
3.03115e-70
1.16378e-69
4.43623e-69
1.67819e-68
6.29585e-68
2.34113e-67
8.62435e-67
3.14479e-66
1.13402e-65
4.0406e-65
1.42109e-64
4.92828e-64
1.68322e-63
5.65432e-63
1.8655e-62
6.03565e-62
1.91198e-61
5.9206e-61
1.78911e-60
5.26687e-60
1.5078e-59
4.19014e-59
1.12819e-58
2.93703e-58
7.37546e-58
1.78161e-57
4.12552e-57
9.11783e-57
1.91246e-56
3.7793e-56
6.97164e-56
1.18746e-55
1.84749e-55
2.61509e-55
3.42507e-55
3.99579e-55
3.96875e-55
3.24344e-55
7.33141e-110
3.40194e-109
1.62895e-108
7.78402e-108
3.711e-107
1.76518e-106
8.37747e-106
3.96617e-105
1.87281e-104
8.82153e-104
4.14525e-103
1.94375e-102
9.09317e-102
4.24325e-101
1.97525e-100
9.16988e-100
4.246e-99
1.96136e-98
9.03595e-98
4.15133e-97
1.902e-96
8.6888e-96
3.95771e-95
1.79763e-94
8.14345e-94
3.67893e-93
1.65725e-92
7.44498e-92
3.33608e-91
1.49058e-90
6.63916e-90
2.94831e-89
1.30505e-88
5.7584e-88
2.53287e-87
1.11047e-86
4.85289e-86
2.11385e-85
9.17646e-85
3.9695e-84
1.71149e-83
7.35418e-83
3.14945e-82
1.34446e-81
5.71777e-81
2.42233e-80
1.02234e-79
4.2977e-79
1.79958e-78
7.50631e-78
3.11841e-77
1.29031e-76
5.31574e-76
2.17986e-75
8.89919e-75
3.61733e-74
1.46321e-73
5.8889e-73
2.35839e-72
9.39463e-72
3.72134e-71
1.46565e-70
5.73748e-70
2.23145e-69
8.62239e-69
3.30919e-68
1.2606e-67
4.7642e-67
1.78558e-66
6.63134e-66
2.43796e-65
8.86492e-65
3.18497e-64
1.12938e-63
3.94765e-63
1.35831e-62
4.59365e-62
1.52444e-61
4.95577e-61
1.57541e-60
4.88847e-60
1.47792e-59
4.34536e-59
1.24023e-58
3.4297e-58
9.17114e-58
2.36615e-57
5.87481e-57
1.39934e-56
3.18518e-56
6.89375e-56
1.40969e-55
2.70193e-55
4.80868e-55
7.87034e-55
1.17811e-54
1.62814e-54
2.00372e-54
2.12029e-54
1.87814e-54
9.86098e-110
4.58495e-109
2.19935e-108
1.053e-107
5.03138e-107
2.39841e-106
1.1404e-105
5.40984e-105
2.56032e-104
1.20881e-103
5.69407e-103
2.67613e-102
1.25467e-101
5.8673e-101
2.73715e-100
1.2737e-99
5.91243e-99
2.73763e-98
1.26409e-97
5.82399e-97
2.67647e-96
1.22623e-95
5.60279e-95
2.55263e-94
1.15962e-93
5.25496e-93
2.3749e-92
1.07031e-91
4.812e-91
2.15777e-90
9.6479e-90
4.30067e-89
1.91105e-88
8.46702e-88
3.73934e-87
1.64621e-86
7.22479e-86
3.16055e-85
1.37827e-84
5.99052e-84
2.5955e-83
1.12075e-82
4.82259e-82
2.06869e-81
8.84545e-81
3.76909e-80
1.60036e-79
6.76958e-79
2.85251e-78
1.19764e-77
5.00914e-77
2.08675e-76
8.66058e-76
3.57964e-75
1.47292e-74
6.03525e-74
2.46263e-73
1.00026e-72
4.04396e-72
1.62715e-71
6.51256e-71
2.59281e-70
1.02676e-69
4.0424e-69
1.58177e-68
6.15119e-68
2.37656e-67
9.11685e-67
3.47086e-66
1.31052e-65
4.90363e-65
1.81651e-64
6.65528e-64
2.4089e-63
8.60287e-63
3.02708e-62
1.04779e-61
3.56168e-61
1.18682e-60
3.86948e-60
1.23209e-59
3.82403e-59
1.15473e-58
3.38623e-58
9.62577e-58
2.6474e-57
7.03053e-57
1.79864e-56
4.42082e-56
1.04038e-55
2.33432e-55
4.96643e-55
9.95165e-55
1.86283e-54
3.22854e-54
5.14305e-54
7.54667e-54
9.88954e-54
1.12348e-53
1.07726e-53
1.28245e-109
5.97375e-109
2.87068e-108
1.37707e-107
6.59128e-107
3.14742e-106
1.4992e-105
7.12576e-105
3.37967e-104
1.59921e-103
7.54934e-103
3.55558e-102
1.67049e-101
7.82815e-101
3.65962e-100
1.70694e-99
7.94213e-99
3.68498e-98
1.7054e-97
7.87538e-97
3.62799e-96
1.66682e-95
7.63867e-95
3.49017e-94
1.58971e-93
7.22473e-93
3.27533e-92
1.4805e-91
6.67531e-91
3.0027e-90
1.34703e-89
6.02474e-89
2.68679e-88
1.19452e-87
5.29406e-87
2.33937e-86
1.03089e-85
4.52928e-85
1.98315e-84
8.65649e-84
3.76659e-83
1.63364e-82
7.06226e-82
3.04302e-81
1.30735e-80
5.59811e-80
2.38898e-79
1.01629e-78
4.30877e-78
1.82017e-77
7.66079e-77
3.21229e-76
1.34236e-75
5.58853e-75
2.3167e-74
9.56485e-74
3.93413e-73
1.6115e-72
6.57174e-72
2.66787e-71
1.07802e-70
4.33637e-70
1.73567e-69
6.91048e-69
2.73596e-68
1.07714e-67
4.21602e-67
1.6395e-66
6.3312e-66
2.42665e-65
9.22601e-65
3.47606e-64
1.29659e-63
4.78275e-63
1.74243e-62
6.26056e-62
2.21492e-61
7.70258e-61
2.62814e-60
8.78145e-60
2.86783e-59
9.13633e-59
2.83404e-58
8.54421e-58
2.49925e-57
7.08042e-57
1.93922e-56
5.12439e-56
1.30341e-55
3.18203e-55
7.42935e-55
1.6514e-54
3.47476e-54
6.87246e-54
1.26709e-53
2.15851e-53
3.38241e-53
4.75607e-53
5.83533e-53
6.05517e-53
1.61587e-109
7.53771e-109
3.62909e-108
1.74375e-107
8.35779e-107
3.99677e-106
1.9071e-105
9.08222e-105
4.316e-104
2.04635e-103
9.67825e-103
4.56552e-102
2.14886e-101
1.00906e-100
4.72714e-100
2.2095e-99
1.03008e-98
4.78976e-98
2.22223e-97
1.02834e-96
4.74702e-96
2.18638e-95
1.00409e-94
4.59897e-94
2.10096e-93
9.57352e-93
4.35162e-92
1.97261e-91
8.9172e-91
4.02125e-90
1.80863e-89
8.11124e-89
3.62799e-88
1.61787e-87
7.19474e-87
3.18991e-86
1.41027e-85
6.21885e-85
2.7335e-84
1.19773e-83
5.23104e-83
2.27807e-82
9.89231e-82
4.28074e-81
1.8469e-80
7.94426e-80
3.40547e-79
1.45581e-78
6.20492e-78
2.63503e-77
1.11534e-76
4.70567e-76
1.9786e-75
8.28929e-75
3.45929e-74
1.43832e-73
5.95905e-73
2.45893e-72
1.01064e-71
4.13638e-71
1.68617e-70
6.84575e-70
2.76663e-69
1.11284e-68
4.45388e-68
1.77338e-67
7.02323e-67
2.76541e-66
1.08196e-65
4.20461e-65
1.62204e-64
6.20674e-64
2.35358e-63
8.83461e-63
3.27866e-62
1.20128e-61
4.33857e-61
1.54188e-60
5.38218e-60
1.84181e-59
6.16702e-59
2.01658e-58
6.42781e-58
1.9937e-57
6.00738e-57
1.75563e-56
4.9681e-56
1.3589e-55
3.58553e-55
9.10423e-55
2.21804e-54
5.16562e-54
1.14462e-53
2.39889e-53
4.7195e-53
8.63137e-53
1.453e-52
2.20761e-52
2.94265e-52
3.31188e-52
1.97441e-109
9.22257e-109
4.44626e-108
2.13876e-107
1.02654e-106
4.91658e-106
2.34979e-105
1.12093e-104
5.33517e-104
2.53314e-103
1.19992e-102
5.66951e-102
2.67294e-101
1.25747e-100
5.9008e-100
2.76224e-99
1.29006e-98
6.01282e-98
2.79546e-97
1.29594e-96
5.99299e-96
2.76506e-95
1.27258e-94
5.84296e-94
2.67604e-93
1.2221e-92
5.56742e-92
2.52973e-91
1.14606e-90
5.17885e-90
2.33454e-89
1.0495e-88
4.7053e-88
2.10404e-87
9.38178e-87
4.17146e-86
1.84931e-85
8.17643e-85
3.60605e-84
1.58548e-83
6.9495e-83
3.03733e-82
1.3236e-81
5.7506e-81
2.49153e-80
1.07627e-79
4.63399e-79
1.9892e-78
8.51332e-78
3.63256e-77
1.54504e-76
6.55124e-76
2.76941e-75
1.1667e-74
4.8974e-74
2.04852e-73
8.53968e-73
3.54715e-72
1.46773e-71
6.051e-71
2.48557e-70
1.01708e-69
4.14676e-69
1.68366e-68
6.80444e-68
2.73672e-67
1.09525e-66
4.36069e-66
1.72662e-65
6.79542e-65
2.6568e-64
1.03117e-63
3.96983e-63
1.51439e-62
5.71765e-62
2.13364e-61
7.85751e-61
2.8509e-60
1.01726e-59
3.56318e-59
1.22285e-58
4.10424e-58
1.34474e-57
4.29397e-57
1.33417e-56
4.02753e-56
1.17947e-55
3.34552e-55
9.17515e-55
2.42799e-54
6.18444e-54
1.51173e-53
3.53299e-53
7.85687e-53
1.65213e-52
3.25391e-52
5.92266e-52
9.79275e-52
1.4283e-51
1.75353e-51
2.34156e-109
1.0948e-108
5.28157e-108
2.54339e-107
1.22245e-106
5.8637e-106
2.80677e-105
1.34039e-104
6.38569e-104
3.03539e-103
1.43978e-102
6.81237e-102
3.21542e-101
1.51467e-100
7.118e-100
3.3368e-99
1.56087e-98
7.28443e-98
3.39156e-97
1.57508e-96
7.29475e-96
3.37013e-95
1.55388e-94
7.14967e-94
3.28093e-93
1.50137e-92
6.8507e-92
3.1179e-91
1.4153e-90
6.40712e-90
2.89411e-89
1.30397e-88
5.85887e-88
2.62545e-87
1.17309e-86
5.22902e-86
2.32408e-85
1.02964e-84
4.5513e-84
2.00682e-83
8.82482e-83
3.8687e-82
1.69082e-81
7.37189e-81
3.20543e-80
1.38937e-79
6.00505e-79
2.58731e-78
1.11124e-77
4.76037e-77
2.03304e-76
8.65287e-76
3.67241e-75
1.55426e-74
6.5559e-74
2.7561e-73
1.15499e-72
4.82463e-72
2.00826e-71
8.33123e-71
3.44436e-70
1.41929e-69
5.82878e-69
2.38477e-68
9.71801e-68
3.94309e-67
1.59283e-66
6.40496e-66
2.56296e-65
1.02007e-64
4.03606e-64
1.58665e-63
6.19263e-63
2.39737e-62
9.19557e-62
3.49026e-61
1.30903e-60
4.84356e-60
1.76509e-59
6.32396e-59
2.22358e-58
7.6592e-58
2.58012e-57
8.4865e-57
2.72145e-56
8.49642e-56
2.57882e-55
7.59838e-55
2.16991e-54
5.99503e-54
1.59902e-53
4.10718e-53
1.01292e-52
2.39004e-52
5.37146e-52
1.14109e-51
2.26205e-51
4.10266e-51
6.61054e-51
8.94533e-51
2.69217e-109
1.25972e-108
6.08278e-108
2.93262e-107
1.4109e-106
6.77498e-106
3.24657e-105
1.55185e-104
7.39973e-104
3.52092e-103
1.67143e-102
7.91616e-102
3.74088e-101
1.76375e-100
8.2968e-100
3.89479e-99
1.82411e-98
8.5198e-98
3.96992e-97
1.8458e-96
8.56113e-96
3.96026e-95
1.82818e-94
8.42176e-94
3.86893e-93
1.77281e-92
8.10221e-92
3.69296e-91
1.67898e-90
7.61357e-90
3.44388e-89
1.55423e-88
6.99569e-88
3.14008e-87
1.40573e-86
6.27678e-86
2.79488e-85
1.24091e-84
5.49539e-84
2.42817e-83
1.07021e-82
4.70242e-82
2.06027e-81
9.00568e-81
3.92544e-80
1.70579e-79
7.39236e-79
3.19451e-78
1.37653e-77
5.91458e-77
2.53409e-76
1.08225e-75
4.60728e-75
1.95612e-74
8.28116e-74
3.49502e-73
1.47078e-72
6.17142e-72
2.58153e-71
1.0764e-70
4.47439e-70
1.85386e-69
7.65494e-69
3.15065e-68
1.29229e-67
5.28103e-67
2.14996e-66
8.71737e-66
3.51898e-65
1.41384e-64
5.65132e-64
2.24614e-63
8.87094e-63
3.47846e-62
1.35287e-61
5.21289e-61
1.98741e-60
7.48604e-60
2.78163e-59
1.01795e-58
3.66283e-58
1.29376e-57
4.47868e-57
1.51727e-56
5.02332e-56
1.62313e-55
5.11195e-55
1.5671e-54
4.66915e-54
1.34983e-53
3.77895e-53
1.02217e-52
2.66431e-52
6.67163e-52
1.59929e-51
3.65533e-51
7.89078e-51
1.57725e-50
2.83126e-50
4.27537e-50
2.9984e-109
1.40394e-108
6.78608e-108
3.27581e-107
1.57769e-106
7.57996e-106
3.63469e-105
1.73873e-104
8.2977e-104
3.95162e-103
1.87721e-102
8.89634e-102
4.20704e-101
1.98513e-100
9.34539e-100
4.38989e-99
2.05746e-98
9.61654e-98
4.48343e-97
2.08591e-96
9.68395e-96
4.48478e-95
2.07204e-94
9.55021e-94
4.38994e-93
2.01268e-92
9.20772e-92
4.20236e-91
1.91266e-90
8.68332e-90
3.9316e-89
1.77627e-88
8.00612e-88
3.5988e-87
1.613e-86
7.20932e-86
3.21498e-85
1.42974e-84
6.33976e-84
2.80556e-83
1.23852e-82
5.45078e-82
2.39241e-81
1.04731e-80
4.57131e-80
1.98999e-79
8.64101e-79
3.74199e-78
1.61566e-77
6.95443e-77
2.98623e-76
1.2786e-75
5.45663e-75
2.322e-74
9.85488e-74
4.17028e-73
1.75952e-72
7.40529e-72
3.10812e-71
1.30054e-70
5.42598e-70
2.2566e-69
9.35568e-69
3.86719e-68
1.59345e-67
6.54545e-67
2.67974e-66
1.09304e-65
4.44096e-65
1.79682e-64
7.23728e-64
2.90061e-63
1.15604e-62
4.57837e-62
1.80026e-61
7.02121e-61
2.71301e-60
1.03731e-59
3.91926e-59
1.46125e-58
5.36848e-58
1.94073e-57
6.89385e-57
2.40309e-56
8.21009e-56
2.7458e-55
8.97859e-55
2.86689e-54
8.92627e-54
2.70574e-53
7.96983e-53
2.27622e-52
6.28766e-52
1.6751e-51
4.29049e-51
1.05285e-50
2.45866e-50
5.35676e-50
1.05609e-49
1.75926e-49
3.23227e-109
1.51478e-108
7.32854e-108
3.53997e-107
1.70608e-106
8.2026e-106
3.9344e-105
1.88296e-104
8.99433e-104
4.28583e-103
2.03661e-102
9.65495e-102
4.56723e-101
2.156e-100
1.01568e-99
4.77314e-99
2.23709e-98
1.0461e-97
4.88094e-97
2.27166e-96
1.05471e-95
4.88738e-95
2.25942e-94
1.04176e-93
4.79119e-93
2.19764e-92
1.00555e-91
4.59173e-91
2.09173e-90
9.50258e-90
4.30587e-89
1.94658e-88
8.77944e-88
3.94845e-87
1.77089e-86
7.92268e-86
3.53567e-85
1.57379e-84
6.98637e-84
3.09361e-83
1.3663e-82
6.01959e-82
2.64489e-81
1.15839e-80
5.05994e-80
2.20532e-79
9.58704e-79
4.15439e-78
1.79494e-77
7.73327e-77
3.32299e-76
1.42435e-75
6.08768e-75
2.59393e-74
1.10235e-73
4.67138e-73
1.97407e-72
8.3188e-72
3.49532e-71
1.46487e-70
6.12182e-70
2.55102e-69
1.06004e-68
4.39156e-68
1.81443e-67
7.47441e-67
3.0685e-66
1.25572e-65
5.12146e-65
2.08083e-64
8.42047e-64
3.39245e-63
1.35996e-62
5.42148e-62
2.14776e-61
8.44851e-61
3.29688e-60
1.27503e-59
4.88167e-59
1.84824e-58
6.91203e-58
2.55047e-57
9.27511e-57
3.32074e-56
1.16927e-55
4.04494e-55
1.37329e-54
4.57055e-54
1.48922e-53
4.74313e-53
1.474e-52
4.45969e-52
1.31031e-51
3.72756e-51
1.02338e-50
2.70199e-50
6.82339e-50
1.6173e-49
3.49217e-49
6.41611e-49
3.36464e-109
1.57855e-108
7.64434e-108
3.69318e-107
1.7803e-106
8.56319e-106
4.10828e-105
1.96704e-104
9.39849e-104
4.47839e-103
2.12869e-102
1.00953e-101
4.77695e-101
2.25547e-100
1.06286e-99
4.99589e-99
2.34138e-98
1.09538e-97
5.11297e-97
2.37945e-96
1.10466e-95
5.11916e-95
2.36705e-94
1.0916e-93
5.02212e-93
2.30435e-92
1.05456e-91
4.81487e-91
2.19357e-90
9.96812e-90
4.51802e-89
2.04272e-88
9.21135e-88
4.14247e-87
1.85919e-86
8.32347e-86
3.71494e-85
1.65412e-84
7.34609e-84
3.25257e-83
1.43639e-82
6.328e-82
2.77985e-81
1.21746e-80
5.31982e-80
2.31892e-79
1.00782e-78
4.36636e-78
1.88605e-77
8.12409e-77
3.48938e-76
1.49509e-75
6.38879e-75
2.72213e-74
1.15664e-73
4.9005e-73
2.07042e-72
8.72067e-72
3.6628e-71
1.53446e-70
6.41141e-70
2.67113e-69
1.10948e-68
4.59596e-68
1.89881e-67
7.82168e-67
3.21184e-66
1.31491e-65
5.36623e-65
2.18232e-64
8.84155e-64
3.56722e-63
1.43266e-62
5.72498e-62
2.2751e-61
8.98594e-61
3.52517e-60
1.37259e-59
5.3006e-59
2.02862e-58
7.68858e-58
2.88367e-57
1.06951e-56
3.91969e-56
1.41851e-55
5.06538e-55
1.78335e-54
6.18446e-54
2.11021e-53
7.07461e-53
2.32636e-52
7.48687e-52
2.3518e-51
7.18731e-51
2.12888e-50
6.08619e-50
1.67063e-49
4.32722e-49
1.02733e-48
2.09243e-48
3.37024e-109
1.58179e-108
7.66139e-108
3.70307e-107
1.78559e-106
8.58952e-106
4.12228e-105
1.97403e-104
9.43007e-104
4.49351e-103
2.13687e-102
1.01407e-101
4.8002e-101
2.26663e-100
1.06785e-99
5.0187e-99
2.35321e-98
1.1008e-97
5.13681e-97
2.39128e-96
1.11048e-95
5.14488e-95
2.37814e-94
1.09659e-93
5.04525e-93
2.31543e-92
1.05964e-91
4.83677e-91
2.20258e-90
1.00061e-89
4.53393e-89
2.04886e-88
9.23441e-88
4.15334e-87
1.86375e-86
8.33956e-86
3.72128e-85
1.6562e-84
7.35145e-84
3.25364e-83
1.43604e-82
6.32073e-82
2.77456e-81
1.21456e-80
5.30217e-80
2.30847e-79
1.00201e-78
4.33621e-78
1.87095e-77
8.04946e-77
3.45278e-76
1.47684e-75
6.29913e-75
2.6793e-74
1.1365e-73
4.80611e-73
2.02584e-72
8.51469e-72
3.56921e-71
1.49172e-70
6.21696e-70
2.58317e-69
1.07003e-68
4.42037e-68
1.82072e-67
7.47773e-67
3.06235e-66
1.24999e-65
5.08553e-65
2.06204e-64
8.3288e-64
3.3501e-63
1.34157e-62
5.34716e-62
2.12051e-61
8.36391e-61
3.27991e-60
1.27829e-59
4.94939e-59
1.90316e-58
7.2656e-58
2.75314e-57
1.03527e-56
3.86232e-56
1.42929e-55
5.24511e-55
1.90811e-54
6.87795e-54
2.45483e-53
8.66682e-53
3.02241e-52
1.03905e-51
3.51189e-51
1.16286e-50
3.75529e-50
1.17642e-49
3.55238e-49
1.0179e-48
2.68788e-48
6.13469e-48
3.2316e-109
1.51706e-108
7.34681e-108
3.55086e-107
1.7126e-106
8.24116e-106
3.95631e-105
1.89472e-104
9.052e-104
4.31492e-103
2.05263e-102
9.74305e-102
4.61321e-101
2.1785e-100
1.02592e-99
4.82092e-99
2.26094e-98
1.05754e-97
4.93384e-97
2.29726e-96
1.0672e-95
4.944e-95
2.28465e-94
1.05317e-93
4.8429e-93
2.222e-92
1.01679e-91
4.6397e-91
2.11152e-90
9.58453e-90
4.33971e-89
1.9598e-88
8.8286e-88
3.96795e-87
1.77867e-86
7.95067e-86
3.54413e-85
1.57559e-84
6.98609e-84
3.08901e-83
1.3619e-82
5.9869e-82
2.62447e-81
1.14728e-80
4.99966e-80
2.172e-79
9.40709e-79
4.06203e-78
1.74903e-77
7.5081e-77
3.21278e-76
1.37038e-75
5.82685e-75
2.47052e-74
1.04438e-73
4.4007e-73
1.84823e-72
7.7381e-72
3.23005e-71
1.34401e-70
5.57402e-70
2.30453e-69
9.4987e-69
3.90242e-68
1.5981e-67
6.52375e-67
2.65444e-66
1.07616e-65
4.34687e-65
1.74924e-64
7.01004e-64
2.79698e-63
1.11096e-62
4.39211e-62
1.728e-61
6.76457e-61
2.63458e-60
1.02076e-59
3.9344e-59
1.50872e-58
5.75682e-58
2.1863e-57
8.26684e-57
3.11344e-56
1.16844e-55
4.37143e-55
1.63109e-54
6.07176e-54
2.2553e-53
8.35811e-53
3.08885e-52
1.13699e-51
4.15986e-51
1.50767e-50
5.38652e-50
1.88433e-49
6.39338e-49
2.0734e-48
6.22582e-48
1.6224e-47
2.95225e-109
1.38614e-108
6.71378e-108
3.24544e-107
1.56548e-106
7.53448e-106
3.61798e-105
1.73312e-104
8.28268e-104
3.94972e-103
1.87918e-102
8.91869e-102
4.22263e-101
1.99405e-100
9.39144e-100
4.41328e-99
2.0694e-98
9.67963e-98
4.51667e-97
2.10291e-96
9.76821e-96
4.52548e-95
2.09101e-94
9.63679e-94
4.42983e-93
2.03142e-92
9.29197e-92
4.23812e-91
1.9276e-90
8.74372e-90
3.95574e-89
1.78476e-88
8.03187e-88
3.60504e-87
1.61359e-86
7.20255e-86
3.20614e-85
1.42332e-84
6.30149e-84
2.78169e-83
1.22421e-82
5.37172e-82
2.35001e-81
1.02497e-80
4.45579e-80
1.93059e-79
8.33834e-79
3.59015e-78
1.54108e-77
6.5935e-77
2.81155e-76
1.19487e-75
5.06067e-75
2.13637e-74
8.98848e-74
3.76883e-73
1.57491e-72
6.55806e-72
2.72122e-71
1.12515e-70
4.63507e-70
1.90265e-69
7.78232e-69
3.17105e-68
1.2872e-67
5.20457e-67
2.09594e-66
8.40508e-66
3.35566e-65
1.33374e-64
5.27642e-64
2.07736e-63
8.13883e-63
3.1729e-62
1.23079e-61
4.75066e-61
1.82481e-60
6.97694e-60
2.65606e-59
1.00724e-58
3.80711e-58
1.43528e-57
5.40165e-57
2.03138e-56
7.64212e-56
2.87964e-55
1.08834e-54
4.13178e-54
1.57813e-53
6.07387e-53
2.35903e-52
9.2552e-52
3.66834e-51
1.46676e-50
5.89363e-50
2.36236e-49
9.32451e-49
3.55658e-48
1.26201e-47
3.87585e-47
2.57762e-109
1.21048e-108
5.8647e-108
2.83594e-107
1.36829e-106
6.58688e-106
3.16383e-105
1.51604e-104
7.24742e-104
3.45673e-103
1.64475e-102
7.80649e-102
3.69602e-101
1.74553e-100
8.22344e-100
3.86478e-99
1.81202e-98
8.47591e-98
3.95546e-97
1.84144e-96
8.55152e-96
3.96127e-95
1.83003e-94
8.43216e-94
3.87528e-93
1.77623e-92
8.11943e-92
3.7012e-91
1.68238e-90
7.62605e-90
3.44709e-89
1.55376e-88
6.98405e-88
3.13056e-87
1.39929e-86
6.23688e-86
2.77228e-85
1.22872e-84
5.42979e-84
2.39206e-83
1.0505e-82
4.59906e-82
2.00702e-81
8.72982e-81
3.78428e-80
1.6348e-79
7.03867e-79
3.02057e-78
1.29183e-77
5.5054e-77
2.33792e-76
9.89215e-76
4.1703e-75
1.7515e-74
7.32817e-74
3.05457e-73
1.26837e-72
5.24586e-72
2.16082e-71
8.86381e-71
3.62054e-70
1.47248e-69
5.96194e-69
2.40284e-68
9.63818e-68
3.84691e-67
1.52762e-66
6.03465e-66
2.37106e-65
9.26471e-65
3.59988e-64
1.3909e-63
5.34387e-63
2.04168e-62
7.75776e-62
2.93221e-61
1.10281e-60
4.12905e-60
1.53992e-59
5.72483e-59
2.12339e-58
7.86605e-58
2.91388e-57
1.08091e-56
4.02173e-56
1.50367e-55
5.66181e-55
2.15242e-54
8.28687e-54
3.24281e-53
1.29538e-52
5.30879e-52
2.24438e-51
9.83811e-51
4.48455e-50
2.11969e-49
1.02325e-48
4.88551e-48
2.18484e-47
8.35007e-47
2.17332e-109
1.02084e-108
4.94815e-108
2.39364e-107
1.1553e-106
5.56367e-106
2.67322e-105
1.28138e-104
6.12759e-104
2.9233e-103
1.39124e-102
6.60479e-102
3.1277e-101
1.47744e-100
6.96212e-100
3.27251e-99
1.53448e-98
7.1785e-98
3.35024e-97
1.55968e-96
7.24253e-96
3.35455e-95
1.54956e-94
7.13882e-94
3.28011e-93
1.50293e-92
6.86721e-92
3.12901e-91
1.42159e-90
6.4398e-90
2.90877e-89
1.31006e-88
5.88325e-88
2.63439e-87
1.17619e-86
5.23634e-86
2.32446e-85
1.02871e-84
4.53837e-84
1.99579e-83
8.74821e-83
3.82203e-82
1.66416e-81
7.22078e-81
3.12203e-80
1.34499e-79
5.77373e-79
2.46974e-78
1.05252e-77
4.46855e-77
1.88986e-76
7.96083e-76
3.33999e-75
1.39545e-74
5.80531e-74
2.40491e-73
9.91887e-73
4.07232e-72
1.66403e-71
6.7664e-71
2.73752e-70
1.1017e-69
4.40941e-69
1.75479e-68
6.94187e-68
2.72911e-67
1.066e-66
4.13638e-66
1.59421e-65
6.1018e-65
2.31925e-64
8.75468e-64
3.28223e-63
1.22235e-62
4.52306e-62
1.66355e-61
6.08458e-61
2.21462e-60
8.0278e-60
2.90095e-59
1.0462e-58
3.77038e-58
1.35982e-57
4.91625e-57
1.78512e-56
6.52432e-56
2.40633e-55
8.98387e-55
3.40804e-54
1.31996e-53
5.2524e-53
2.16566e-52
9.36322e-52
4.31652e-51
2.16988e-50
1.21675e-49
7.5866e-49
4.9637e-48
3.08775e-47
1.6061e-46
1.7794e-109
8.35229e-109
4.05065e-108
1.9605e-107
9.46734e-107
4.56154e-106
2.19278e-105
1.0516e-104
5.03116e-104
2.4013e-103
1.14333e-102
5.43025e-102
2.57261e-101
1.21575e-100
5.7312e-100
2.69494e-99
1.26411e-98
5.9156e-98
2.76166e-97
1.28603e-96
5.97333e-96
2.7673e-95
1.27857e-94
5.89146e-94
2.70732e-93
1.24061e-92
5.669e-92
2.58309e-91
1.17352e-90
5.31556e-90
2.4006e-89
1.08096e-88
4.85308e-88
2.17235e-87
9.69503e-87
4.31408e-86
1.91395e-85
8.46472e-85
3.73156e-84
1.63962e-83
7.18035e-83
3.13377e-82
1.36292e-81
5.90614e-81
2.55002e-80
1.09689e-79
4.70071e-79
2.00693e-78
8.5351e-78
3.61533e-77
1.52513e-76
6.40652e-76
2.67956e-75
1.11569e-74
4.62396e-74
1.90751e-73
7.83091e-73
3.19858e-72
1.29958e-71
5.25111e-71
2.10962e-70
8.42413e-70
3.34263e-69
1.31757e-68
5.15734e-68
2.00398e-67
7.72764e-67
2.95659e-66
1.12209e-65
4.22344e-65
1.57644e-64
5.83544e-64
2.14228e-63
7.80093e-63
2.81843e-62
1.01075e-61
3.60004e-61
1.27447e-60
4.48859e-60
1.57444e-59
5.50715e-59
1.92372e-58
6.7217e-58
2.35364e-57
8.27611e-57
2.92933e-56
1.04655e-55
3.78634e-55
1.39288e-54
5.23749e-54
2.0276e-53
8.16787e-53
3.48186e-52
1.61557e-51
8.53722e-51
5.41256e-50
4.19027e-49
3.75012e-48
3.41947e-47
2.62849e-46
8.94643e-58
7.48489e-58
6.86682e-58
6.18535e-58
5.41702e-58
4.64888e-58
3.94474e-58
3.33359e-58
2.82055e-58
2.39821e-58
2.05417e-58
1.77518e-58
1.54907e-58
1.36548e-58
1.21612e-58
1.09475e-58
9.97542e-59
9.23577e-59
8.75199e-59
8.56037e-59
5.59251e-57
4.77289e-57
4.25715e-57
3.72627e-57
3.1855e-57
2.67931e-57
2.23548e-57
1.86255e-57
1.55718e-57
1.31073e-57
1.1132e-57
9.55175e-58
8.28554e-58
7.26753e-58
6.446e-58
5.78247e-58
5.25226e-58
4.84715e-58
4.57743e-58
4.46291e-58
3.59947e-56
3.08659e-56
2.67874e-56
2.27831e-56
1.90035e-56
1.56605e-56
1.28466e-56
1.05533e-56
8.71961e-57
7.26746e-57
6.12144e-57
5.21635e-57
4.499e-57
3.92761e-57
3.47006e-57
3.10259e-57
2.80953e-57
2.5846e-57
2.4323e-57
2.36405e-57
2.29461e-55
1.96556e-55
1.66742e-55
1.3818e-55
1.12537e-55
9.08503e-56
7.32438e-56
5.93005e-56
4.84043e-56
3.99347e-56
3.33529e-56
2.82211e-56
2.41979e-56
2.10232e-56
1.8501e-56
1.64871e-56
1.48843e-56
1.36483e-56
1.27967e-56
1.23954e-56
1.43303e-54
1.22431e-54
1.01891e-54
8.2546e-55
6.57704e-55
5.20634e-55
4.12671e-55
3.29326e-55
2.65566e-55
2.16873e-55
1.79589e-55
1.5088e-55
1.28612e-55
1.11201e-55
9.74773e-56
8.65831e-56
7.79318e-56
7.12262e-56
6.65221e-56
6.41965e-56
8.72391e-54
7.43766e-54
6.09117e-54
4.8378e-54
3.77901e-54
2.93741e-54
2.29116e-54
1.80327e-54
1.4371e-54
1.16197e-54
9.5421e-55
7.96094e-55
6.74687e-55
5.80605e-55
5.07011e-55
4.4893e-55
4.02905e-55
3.67039e-55
3.41398e-55
3.28118e-55
5.16486e-53
4.40058e-53
3.5554e-53
2.77468e-53
2.12888e-53
1.62729e-53
1.25045e-53
9.7147e-54
7.65624e-54
6.13223e-54
4.99576e-54
4.14016e-54
3.48938e-54
2.98926e-54
2.60089e-54
2.29612e-54
2.05511e-54
1.86625e-54
1.72848e-54
1.65372e-54
2.9715e-52
2.53456e-52
2.02399e-52
1.55472e-52
1.17347e-52
8.8332e-53
6.69503e-53
5.13935e-53
4.00882e-53
3.18279e-53
2.57371e-53
2.11962e-53
1.77721e-53
1.51607e-53
1.31465e-53
1.15745e-53
1.03339e-53
9.35608e-54
8.6274e-54
8.21211e-54
1.66184e-51
1.42121e-51
1.12299e-51
8.50005e-52
6.31912e-52
4.69003e-52
3.51047e-52
2.66555e-52
2.05983e-52
1.62238e-52
1.30305e-52
1.06706e-52
8.90465e-53
7.56709e-53
6.54181e-53
5.74568e-53
5.11873e-53
4.62163e-53
4.2427e-53
4.01481e-53
9.0428e-51
7.7613e-51
6.06972e-51
4.52953e-51
3.31972e-51
2.43212e-51
1.79992e-51
1.35341e-51
1.03719e-51
8.11118e-52
6.47574e-52
5.27644e-52
4.38498e-52
3.71378e-52
3.20209e-52
2.80664e-52
2.49587e-52
2.24806e-52
2.05464e-52
1.9309e-52
4.67542e-50
4.02787e-50
3.11698e-50
2.29433e-50
1.65951e-50
1.20172e-50
8.80557e-51
6.56566e-51
4.99613e-51
3.88382e-51
3.08523e-51
2.50336e-51
2.0732e-51
1.75089e-51
1.50626e-51
1.31796e-51
1.17028e-51
1.05202e-51
9.57911e-52
8.94632e-52
2.08592e-49
1.80711e-49
1.39033e-49
1.01617e-49
7.30944e-50
5.2742e-50
3.8566e-50
2.87283e-50
2.18566e-50
1.69962e-50
1.35082e-50
1.09666e-50
9.08729e-51
7.67841e-51
6.60842e-51
5.7841e-51
5.1363e-51
4.61429e-51
4.19226e-51
3.89954e-51
8.32503e-49
7.25761e-49
5.56532e-49
4.05654e-49
2.91761e-49
2.10988e-49
1.54835e-49
1.15841e-49
8.85411e-50
6.9176e-50
5.52216e-50
4.50102e-50
3.74264e-50
3.17164e-50
2.73616e-50
2.39929e-50
2.13332e-50
1.91737e-50
1.74022e-50
1.61412e-50
3.00839e-48
2.64019e-48
2.02255e-48
1.47629e-48
1.06707e-48
7.77405e-49
5.75479e-49
4.34453e-49
3.35006e-49
2.63936e-49
2.12321e-49
1.74248e-49
1.45748e-49
1.24124e-49
1.07512e-49
9.45729e-50
8.42874e-50
7.58621e-50
6.88496e-50
6.37344e-50
9.92397e-48
8.76955e-48
6.72904e-48
4.9407e-48
3.60751e-48
2.66144e-48
1.99677e-48
1.5276e-48
1.19285e-48
9.50753e-49
7.72902e-49
6.40206e-49
5.39761e-49
4.62734e-49
4.02964e-49
3.55975e-49
3.18291e-49
2.87108e-49
2.60758e-49
2.41067e-49
3.00806e-47
2.6762e-47
2.06355e-47
1.5321e-47
1.13646e-47
8.53477e-48
6.51962e-48
5.07433e-48
4.02596e-48
3.25538e-48
2.68062e-48
2.24543e-48
1.91134e-48
1.65169e-48
1.44766e-48
1.28541e-48
1.15388e-48
1.04379e-48
9.49255e-49
8.76849e-49
8.42909e-47
7.54373e-47
5.86964e-47
4.43461e-47
3.36275e-47
2.58469e-47
2.01917e-47
1.60446e-47
1.29703e-47
1.0664e-47
8.91081e-48
7.55958e-48
6.50465e-48
5.67166e-48
5.00735e-48
4.47181e-48
4.03227e-48
3.65964e-48
3.33409e-48
3.07822e-48
2.19729e-46
1.97396e-46
1.55866e-46
1.20768e-46
9.4279e-47
7.45701e-47
5.98102e-47
4.86588e-47
4.01624e-47
3.36291e-47
2.85505e-47
2.4555e-47
2.13751e-47
1.88184e-47
1.67447e-47
1.50468e-47
1.36337e-47
1.2419e-47
1.1338e-47
1.0464e-47
5.3629e-46
4.81771e-46
3.89389e-46
3.12576e-46
2.53095e-46
2.06965e-46
1.70913e-46
1.42608e-46
1.20319e-46
1.02685e-46
8.86296e-47
7.73159e-47
6.81178e-47
6.05729e-47
5.43375e-47
4.91438e-47
4.47542e-47
4.09243e-47
3.74497e-47
3.45475e-47
1.23143e-45
1.10205e-45
9.27408e-46
7.80336e-46
6.58966e-46
5.58377e-46
4.75173e-46
4.06762e-46
3.50836e-46
3.05195e-46
2.67816e-46
2.36979e-46
2.11326e-46
1.89823e-46
1.71685e-46
1.56292e-46
1.43064e-46
1.31344e-46
1.20495e-46
1.11079e-46
1.81577e-187
1.75328e-187
1.64655e-187
1.52901e-187
1.40415e-187
1.27562e-187
1.14695e-187
1.02156e-187
9.02438e-188
7.91882e-188
6.91443e-188
6.02074e-188
5.24277e-188
4.58183e-188
4.03612e-188
3.60147e-188
3.27245e-188
3.04287e-188
2.90511e-188
2.84709e-188
4.39259e-186
4.23718e-186
3.97805e-186
3.6938e-186
3.39216e-186