/*--------------------------------*- C++ -*----------------------------------*\
| =========                 |                                                 |
| \\      /  F ield         | OpenFOAM: The Open Source CFD Toolbox           |
|  \\    /   O peration     | Version:  2.1.0                                 |
|   \\  /    A nd           | Web:      www.OpenFOAM.org                      |
|    \\/     M anipulation  |                                                 |
\*---------------------------------------------------------------------------*/
FoamFile
{
    version     2.0;
    format      ascii;
    class       volScalarField;
    location    "0.02";
    object      k;
}
// * * * * * * * * * * * * * * * * * * * * * * * * * * * * * * * * * * * * * //

dimensions      [0 2 -2 0 0 0 0];

internalField   nonuniform List<scalar> 
6400
(
0.0168873
0.016891
0.0168926
0.0168956
0.0168972
0.0168973
0.0168951
0.0168904
0.0168888
0.016886
0.0168818
0.0168805
0.0168802
0.0168803
0.0168818
0.0168824
0.0168844
0.0168884
0.0168914
0.0168936
0.0168943
0.0168943
0.016893
0.0168897
0.0168867
0.016885
0.0168852
0.0168859
0.0168868
0.0168883
0.016889
0.0168892
0.0168891
0.016889
0.0168895
0.016891
0.0168927
0.0168943
0.0168962
0.0168966
0.0168961
0.0168939
0.0168901
0.0168883
0.0168863
0.0168839
0.0168838
0.0168853
0.0168851
0.016884
0.0168843
0.016884
0.0168824
0.0168825
0.0168841
0.0168865
0.0168893
0.0168907
0.0168918
0.0168942
0.0168975
0.0169022
0.0169034
0.0169015
0.0168931
0.0168734
0.0168335
0.016767
0.0166604
0.016495
0.0162554
0.0159361
0.0155283
0.0150161
0.0144044
0.0136934
0.0128766
0.011968
0.0110012
0.0100129
0.00903808
0.00811316
0.00726811
0.00653299
0.00592703
0.00546058
0.00512457
0.00487829
0.00467147
0.00457713
0.00453989
0.00450589
0.00441403
0.00416468
0.00372062
0.00278804
0.00186646
0.00201712
0.00317627
0.00359182
0.0014793
0.00146642
0.00146327
0.00146243
0.00146312
0.00146186
0.00145971
0.00145925
0.00145893
0.00145861
0.0014585
0.00145909
0.00145929
0.00145992
0.00146077
0.00146252
0.00146407
0.00146523
0.0014655
0.0014661
0.00146272
0.0014615
0.00146028
0.00145976
0.00145965
0.00145938
0.00145969
0.00146075
0.00146225
0.00146503
0.00146512
0.001463
0.00146166
0.00146117
0.00146118
0.00146204
0.00146254
0.00146258
0.00146392
0.0014634
0.00146111
0.00145947
0.00145885
0.00145843
0.0014584
0.00145804
0.00145801
0.00145835
0.0014586
0.00145845
0.00145924
0.00145951
0.00145927
0.00146013
0.00146295
0.00146443
0.00146562
0.00146508
0.00146492
0.00146699
0.00146895
0.00146913
0.00146936
0.00146911
0.00146931
0.00147043
0.00147234
0.00147602
0.00148387
0.00149534
0.00151169
0.00153197
0.00155764
0.00157492
0.00158153
0.00159107
0.00162049
0.00167869
0.00176954
0.00189591
0.00206224
0.00227654
0.00255211
0.00291983
0.0034137
0.00405817
0.00485735
0.00580381
0.0068575
0.00787123
0.00874971
0.00947872
0.00986408
0.00998733
0.00976564
0.0085803
0.00619694
0.00448402
0.00379538
0.00326168
0.00108101
0.00108017
0.00107957
0.00107938
0.00107989
0.00107926
0.00107886
0.00107884
0.00107868
0.00107879
0.00107856
0.00107874
0.00107785
0.00107849
0.00107832
0.0010789
0.0010788
0.00107912
0.00107879
0.00107976
0.00107913
0.00107969
0.00107957
0.00107892
0.00107911
0.00107906
0.00107926
0.00107914
0.00107894
0.00107958
0.00107989
0.00107931
0.00107932
0.00107894
0.00107872
0.00107856
0.00107895
0.00107827
0.00107904
0.00107877
0.00107864
0.00107749
0.00107848
0.00107801
0.00107832
0.00107853
0.00107838
0.00107816
0.00107858
0.00107756
0.00107836
0.0010782
0.00107814
0.00107849
0.00107866
0.00107795
0.00107888
0.00107897
0.00107871
0.00107823
0.00107859
0.00107774
0.00107787
0.00107722
0.0010772
0.00107694
0.00107809
0.00107974
0.00108259
0.00108634
0.00109379
0.00110512
0.00112253
0.0011465
0.0011815
0.00123128
0.0013
0.00139244
0.001516
0.00168042
0.00190381
0.00221431
0.00264922
0.00324263
0.0040124
0.00494169
0.0059622
0.00699012
0.0079862
0.0089565
0.00988504
0.0104853
0.010695
0.0106663
0.0097019
0.00785689
0.00573884
0.00408379
0.0032009
0.00240233
0.00104677
0.00104725
0.0010471
0.001047
0.00104683
0.00104686
0.00104712
0.00104695
0.00104663
0.00104704
0.00104672
0.00104699
0.00104642
0.00104721
0.00104636
0.00104657
0.00104696
0.0010469
0.0010472
0.00104757
0.00104747
0.00104768
0.00104752
0.00104685
0.00104782
0.00104778
0.00104716
0.00104735
0.00104722
0.00104695
0.00104742
0.00104719
0.00104706
0.00104723
0.00104666
0.00104699
0.00104665
0.001047
0.00104689
0.00104733
0.0010475
0.00104659
0.00104749
0.00104708
0.00104715
0.00104727
0.00104736
0.00104653
0.00104745
0.00104695
0.00104777
0.00104674
0.00104682
0.00104695
0.00104681
0.00104699
0.00104691
0.00104724
0.00104645
0.00104645
0.00104725
0.00104669
0.00104602
0.00104543
0.00104529
0.00104472
0.0010448
0.00104481
0.00104599
0.00104677
0.00105062
0.00105665
0.0010677
0.00108597
0.0011177
0.00116729
0.0012364
0.00132948
0.00145376
0.00162052
0.00185058
0.00217772
0.00264098
0.00325217
0.00395446
0.00461957
0.00511961
0.00545182
0.00574447
0.00606699
0.00622566
0.0062727
0.00620274
0.00584429
0.00534086
0.00454868
0.00354823
0.00277392
0.00234401
0.00217525
0.00102609
0.00102593
0.00102642
0.00102639
0.00102615
0.00102599
0.00102636
0.00102637
0.00102604
0.00102626
0.00102621
0.00102633
0.00102664
0.00102643
0.00102627
0.00102618
0.00102631
0.00102621
0.00102657
0.00102614
0.00102617
0.00102629
0.00102638
0.0010263
0.00102691
0.00102674
0.00102645
0.00102656
0.00102641
0.00102619
0.00102632
0.00102633
0.0010263
0.00102636
0.00102635
0.00102658
0.00102668
0.00102683
0.0010264
0.00102654
0.00102682
0.00102696
0.00102698
0.00102675
0.00102671
0.00102625
0.00102657
0.00102661
0.00102695
0.00102687
0.00102657
0.00102641
0.00102658
0.00102654
0.00102676
0.00102684
0.0010266
0.00102645
0.0010265
0.00102634
0.00102689
0.001027
0.00102662
0.00102629
0.00102562
0.00102566
0.00102538
0.00102532
0.00102553
0.00102613
0.00102801
0.00103265
0.00104194
0.00105817
0.00108608
0.0011293
0.00118834
0.00126663
0.00137047
0.0015103
0.00170258
0.00196976
0.00232663
0.002741
0.00311239
0.0033776
0.0035947
0.00381578
0.00394161
0.00398922
0.0039954
0.00388947
0.00365315
0.00343352
0.00316186
0.00280816
0.00249376
0.00231062
0.0022346
0.00225752
0.00101896
0.00101885
0.00101882
0.00101874
0.00101878
0.00101882
0.00101882
0.00101886
0.0010188
0.00101883
0.00101883
0.00101892
0.00101897
0.00101892
0.00101889
0.00101882
0.00101873
0.00101872
0.00101854
0.00101853
0.00101858
0.00101868
0.00101882
0.00101885
0.00101897
0.00101885
0.00101872
0.00101896
0.00101885
0.00101888
0.00101878
0.00101885
0.00101898
0.00101882
0.00101905
0.00101896
0.00101915
0.00101918
0.00101913
0.00101909
0.00101907
0.00101912
0.0010191
0.00101928
0.00101916
0.00101895
0.00101921
0.00101901
0.00101915
0.00101919
0.0010192
0.00101908
0.00101892
0.00101884
0.00101896
0.00101909
0.00101901
0.00101893
0.00101899
0.00101914
0.00101907
0.00101899
0.00101871
0.00101874
0.00101857
0.00101864
0.00101862
0.00101864
0.00101891
0.00101928
0.00102094
0.00102503
0.00103287
0.00104649
0.00106995
0.0011054
0.00115464
0.00122142
0.00131156
0.00143368
0.00159871
0.00181769
0.00208091
0.00233105
0.00253604
0.00271888
0.00290739
0.00304114
0.00308765
0.0030998
0.00307815
0.00297444
0.00283628
0.0027115
0.00258344
0.00245598
0.00239475
0.00236836
0.00241644
0.00252929
0.0010166
0.00101641
0.00101666
0.00101641
0.0010166
0.00101643
0.0010166
0.00101658
0.00101654
0.00101669
0.00101669
0.00101663
0.00101657
0.00101654
0.00101643
0.00101639
0.00101627
0.00101649
0.00101648
0.00101623
0.00101626
0.00101622
0.0010164
0.00101654
0.00101668
0.0010166
0.00101619
0.00101654
0.00101645
0.00101625
0.00101622
0.00101625
0.00101623
0.00101642
0.00101659
0.00101644
0.00101652
0.00101661
0.00101676
0.00101663
0.00101657
0.00101666
0.00101673
0.00101643
0.00101638
0.00101639
0.00101672
0.00101669
0.00101677
0.0010167
0.0010167
0.00101671
0.0010166
0.00101658
0.00101666
0.00101678
0.00101656
0.00101661
0.00101672
0.00101687
0.00101688
0.00101667
0.00101651
0.00101644
0.00101644
0.00101637
0.00101645
0.00101661
0.00101675
0.00101723
0.00101881
0.00102247
0.00102926
0.00104148
0.00106171
0.00109208
0.001135
0.00119383
0.00127342
0.00137983
0.00152003
0.0016973
0.00189061
0.0020728
0.00224291
0.00241573
0.00260213
0.00277437
0.00284814
0.00287532
0.00288288
0.00288079
0.00285337
0.00280521
0.00276791
0.00275096
0.00274906
0.00284092
0.0030032
0.0031145
0.00101586
0.00101583
0.00101568
0.00101562
0.00101585
0.00101568
0.0010157
0.00101567
0.00101585
0.00101582
0.00101581
0.00101592
0.00101584
0.00101547
0.00101552
0.00101557
0.00101569
0.00101579
0.00101557
0.00101553
0.00101565
0.00101569
0.00101595
0.00101598
0.00101571
0.00101571
0.00101572
0.0010158
0.00101584
0.00101575
0.00101555
0.00101561
0.00101543
0.00101538
0.0010155
0.00101558
0.00101566
0.00101569
0.00101561
0.00101569
0.00101548
0.00101567
0.00101561
0.00101583
0.00101581
0.00101569
0.00101618
0.00101612
0.001016
0.00101583
0.00101584
0.00101578
0.00101587
0.00101598
0.00101608
0.00101602
0.00101591
0.0010159
0.00101591
0.00101588
0.00101601
0.00101606
0.00101599
0.00101586
0.00101589
0.00101575
0.00101556
0.00101574
0.00101609
0.00101674
0.0010183
0.00102155
0.00102792
0.00103925
0.00105789
0.00108611
0.00112618
0.00118121
0.00125543
0.00135354
0.00148058
0.00163457
0.0017954
0.00195027
0.00210579
0.00228004
0.00248393
0.00270427
0.002908
0.00307011
0.00319923
0.00332367
0.00344719
0.00355411
0.00365081
0.0037611
0.00390131
0.00408659
0.0042954
0.0043935
0.00101548
0.00101558
0.00101537
0.00101554
0.00101587
0.00101575
0.00101581
0.00101555
0.00101546
0.00101546
0.00101558
0.00101552
0.00101551
0.00101514
0.0010152
0.00101525
0.00101524
0.00101529
0.00101525
0.00101531
0.00101535
0.00101552
0.0010156
0.00101547
0.00101534
0.00101552
0.00101537
0.00101531
0.0010153
0.00101536
0.00101517
0.00101517
0.00101503
0.00101496
0.00101493
0.0010149
0.00101494
0.00101514
0.00101502
0.00101517
0.00101508
0.00101517
0.00101528
0.00101531
0.00101511
0.00101529
0.00101567
0.00101586
0.00101568
0.00101567
0.00101569
0.0010157
0.00101571
0.0010159
0.00101611
0.00101625
0.00101608
0.00101587
0.00101589
0.00101605
0.00101589
0.00101586
0.00101571
0.00101571
0.00101579
0.00101556
0.00101553
0.00101573
0.00101574
0.00101641
0.00101831
0.00102161
0.00102757
0.00103821
0.0010563
0.00108389
0.0011231
0.00117684
0.00124938
0.00134477
0.00146748
0.00161148
0.00175568
0.00189072
0.00202783
0.00219501
0.00241627
0.00268573
0.00296526
0.00322547
0.00348123
0.00376356
0.00407045
0.00437912
0.0046968
0.00505273
0.00545585
0.00588114
0.00621342
0.00635547
0.00101563
0.00101559
0.0010157
0.00101556
0.00101564
0.00101554
0.00101541
0.00101533
0.00101536
0.00101548
0.00101539
0.0010155
0.00101549
0.00101531
0.00101526
0.00101513
0.00101509
0.00101516
0.00101525
0.00101523
0.00101526
0.00101536
0.00101515
0.00101503
0.00101519
0.00101544
0.00101528
0.00101529
0.001015
0.00101508
0.00101497
0.00101471
0.0010146
0.00101469
0.00101485
0.00101489
0.0010149
0.00101509
0.00101523
0.00101505
0.00101506
0.00101499
0.00101523
0.00101507
0.001015
0.00101519
0.00101545
0.00101569
0.0010158
0.00101573
0.00101573
0.00101582
0.00101581
0.00101578
0.0010159
0.00101621
0.00101611
0.00101602
0.00101598
0.00101577
0.00101577
0.00101559
0.00101549
0.00101568
0.00101567
0.00101553
0.00101546
0.00101563
0.00101582
0.00101664
0.0010183
0.00102152
0.00102745
0.0010379
0.00105607
0.00108344
0.0011226
0.00117635
0.00124905
0.00134506
0.00146849
0.00160966
0.00174592
0.00186993
0.00199594
0.0021563
0.00237995
0.00266433
0.00297567
0.00328634
0.00360987
0.00397644
0.00438725
0.00482462
0.00529772
0.00583303
0.0064285
0.00704292
0.0074722
0.00764679
0.00101542
0.00101526
0.00101552
0.00101558
0.00101569
0.00101557
0.00101552
0.00101547
0.0010156
0.00101559
0.00101579
0.00101555
0.00101554
0.00101536
0.00101525
0.00101518
0.00101521
0.00101532
0.00101533
0.00101531
0.00101512
0.00101512
0.00101512
0.00101511
0.00101523
0.00101535
0.0010152
0.00101517
0.00101499
0.00101495
0.00101487
0.00101469
0.00101483
0.0010149
0.00101477
0.00101487
0.00101506
0.00101525
0.00101516
0.00101507
0.00101517
0.0010151
0.00101548
0.00101543
0.00101532
0.00101546
0.00101563
0.0010159
0.00101609
0.00101613
0.00101616
0.00101618
0.0010162
0.00101591
0.00101586
0.00101573
0.00101566
0.00101572
0.00101578
0.00101578
0.00101585
0.00101587
0.00101587
0.00101576
0.00101575
0.00101551
0.00101546
0.00101557
0.00101593
0.00101655
0.00101824
0.00102138
0.00102751
0.00103834
0.00105654
0.0010841
0.00112334
0.00117749
0.00125064
0.00134766
0.00147223
0.0016146
0.00175197
0.00187678
0.0020034
0.002164
0.00238689
0.00266826
0.00297283
0.00327186
0.00357889
0.00392422
0.00430872
0.00471394
0.00514815
0.00563711
0.00618247
0.00675057
0.00715102
0.00731417
0.0010157
0.00101564
0.00101548
0.00101545
0.00101542
0.00101558
0.0010155
0.00101545
0.0010156
0.00101548
0.00101568
0.00101568
0.00101536
0.00101514
0.00101514
0.00101535
0.00101525
0.00101545
0.00101541
0.00101543
0.00101531
0.00101522
0.0010152
0.00101514
0.00101529
0.0010151
0.00101514
0.00101505
0.00101491
0.00101485
0.0010149
0.00101491
0.0010148
0.00101489
0.00101507
0.00101517
0.00101523
0.00101546
0.00101562
0.00101559
0.00101549
0.00101555
0.0010158
0.00101561
0.00101564
0.00101578
0.00101578
0.00101591
0.00101608
0.00101628
0.00101611
0.0010159
0.00101594
0.00101588
0.00101593
0.00101593
0.00101569
0.00101561
0.00101569
0.00101563
0.00101567
0.00101589
0.00101583
0.00101575
0.00101574
0.00101571
0.0010156
0.00101572
0.00101599
0.00101673
0.00101845
0.00102174
0.00102807
0.00103921
0.00105781
0.0010855
0.0011251
0.00117958
0.00125337
0.00135076
0.00147633
0.00162403
0.00177118
0.00190767
0.0020446
0.00221048
0.00242822
0.00268703
0.00294514
0.00317435
0.00338935
0.0036174
0.00385554
0.00408543
0.00431896
0.00458692
0.00489802
0.00523315
0.0055106
0.00562943
0.00101576
0.00101583
0.00101568
0.00101575
0.00101573
0.00101579
0.00101583
0.00101583
0.00101565
0.00101566
0.00101583
0.00101579
0.00101554
0.00101511
0.00101509
0.00101534
0.0010157
0.00101571
0.00101581
0.0010159
0.00101568
0.00101562
0.00101537
0.00101537
0.00101545
0.00101549
0.00101539
0.00101516
0.00101514
0.00101503
0.00101513
0.00101521
0.00101513
0.00101519
0.00101543
0.00101571
0.0010157
0.00101573
0.00101579
0.00101575
0.00101596
0.00101612
0.00101597
0.0010161
0.00101593
0.00101588
0.00101587
0.00101614
0.00101612
0.00101608
0.00101595
0.001016
0.00101592
0.00101586
0.00101584
0.00101597
0.00101593
0.00101601
0.00101595
0.00101598
0.00101588
0.00101597
0.00101588
0.00101591
0.00101581
0.00101584
0.001016
0.00101604
0.00101621
0.00101703
0.00101868
0.00102219
0.00102893
0.0010408
0.00106022
0.00108896
0.00112976
0.00118611
0.00126227
0.00136344
0.00149493
0.00165496
0.00182082
0.0019772
0.00212942
0.00229449
0.00248487
0.00268854
0.00286596
0.00298336
0.0030524
0.00311423
0.00317581
0.00321662
0.0032447
0.00329173
0.00338333
0.00353192
0.00371472
0.0038001
0.00101655
0.00101656
0.00101662
0.00101667
0.00101666
0.00101633
0.00101643
0.00101642
0.0010165
0.0010165
0.00101659
0.00101637
0.00101622
0.00101592
0.00101586
0.00101581
0.00101628
0.00101643
0.00101644
0.00101662
0.00101653
0.0010163
0.0010162
0.00101621
0.00101632
0.00101622
0.00101596
0.00101587
0.00101595
0.00101607
0.00101613
0.00101608
0.0010161
0.00101635
0.00101648
0.00101621
0.00101646
0.00101657
0.0010167
0.00101671
0.00101673
0.00101689
0.00101696
0.00101688
0.00101655
0.00101635
0.00101637
0.00101659
0.0010165
0.00101636
0.00101632
0.00101645
0.00101655
0.0010165
0.00101642
0.00101655
0.00101644
0.00101658
0.0010168
0.00101674
0.00101679
0.00101681
0.00101682
0.00101669
0.00101658
0.00101652
0.0010165
0.00101671
0.00101682
0.00101773
0.00101922
0.0010232
0.00103051
0.00104365
0.00106481
0.00109596
0.00114005
0.00120071
0.00128273
0.00139295
0.00153873
0.00172358
0.00192397
0.00210733
0.00227289
0.00243844
0.00261455
0.00273483
0.00277657
0.00278627
0.00277909
0.00273152
0.00266643
0.00261235
0.00256381
0.00254193
0.00253753
0.00260786
0.00275379
0.00286359
0.00101897
0.00101875
0.00101871
0.00101896
0.00101895
0.00101895
0.0010189
0.00101889
0.00101895
0.00101892
0.00101883
0.00101851
0.00101848
0.00101834
0.00101819
0.00101829
0.0010187
0.00101881
0.001019
0.00101916
0.00101916
0.00101887
0.00101866
0.00101877
0.00101872
0.00101868
0.00101861
0.00101856
0.00101856
0.00101855
0.00101886
0.00101862
0.00101881
0.00101887
0.00101887
0.00101903
0.00101904
0.0010191
0.00101915
0.0010192
0.00101922
0.00101914
0.00101911
0.00101896
0.00101894
0.00101871
0.00101873
0.00101874
0.00101876
0.00101872
0.00101855
0.00101851
0.0010185
0.00101874
0.00101881
0.00101867
0.00101858
0.00101873
0.00101885
0.00101881
0.00101895
0.00101892
0.00101897
0.00101885
0.00101881
0.00101865
0.00101852
0.00101863
0.00101883
0.00101966
0.00102159
0.00102596
0.00103422
0.0010489
0.00107332
0.00110993
0.00116081
0.00122957
0.00132241
0.00144833
0.00161906
0.00184663
0.00211946
0.00237522
0.00257598
0.00274891
0.00292487
0.00303163
0.00307037
0.00308085
0.00305574
0.00294752
0.00281572
0.00269424
0.002545
0.0024036
0.00233081
0.00229674
0.00230874
0.00241091
0.00102644
0.00102617
0.00102641
0.00102616
0.00102629
0.00102646
0.00102674
0.00102673
0.00102669
0.00102679
0.00102649
0.00102611
0.00102634
0.0010264
0.00102619
0.00102618
0.00102651
0.00102649
0.00102669
0.00102683
0.00102681
0.00102679
0.00102672
0.00102654
0.00102651
0.00102617
0.00102642
0.00102638
0.00102623
0.00102617
0.00102622
0.00102597
0.00102614
0.00102637
0.00102624
0.00102651
0.00102662
0.00102666
0.00102647
0.00102658
0.00102659
0.00102665
0.00102658
0.00102623
0.0010263
0.00102613
0.00102618
0.00102613
0.00102617
0.00102631
0.00102606
0.00102601
0.00102612
0.00102605
0.00102613
0.00102614
0.00102599
0.00102603
0.00102589
0.00102592
0.00102603
0.00102597
0.00102608
0.00102578
0.00102554
0.00102535
0.00102465
0.00102492
0.0010253
0.00102623
0.00102879
0.00103358
0.00104278
0.00105988
0.00108885
0.00113333
0.001194
0.00127419
0.00138082
0.00152422
0.00172155
0.00199626
0.00236173
0.00278359
0.00315761
0.00341411
0.00362207
0.00384995
0.00400258
0.00406335
0.00407755
0.00399713
0.00377827
0.00355893
0.00327306
0.00288121
0.00252625
0.00229575
0.00220202
0.00220694
0.00104726
0.00104739
0.00104746
0.00104756
0.00104802
0.00104754
0.00104826
0.00104825
0.00104776
0.00104829
0.00104813
0.00104763
0.00104879
0.00104856
0.00104855
0.00104859
0.00104809
0.0010483
0.00104828
0.00104827
0.00104799
0.00104843
0.00104831
0.00104714
0.00104786
0.00104752
0.0010476
0.00104791
0.00104709
0.00104776
0.00104721
0.00104684
0.00104687
0.00104721
0.00104705
0.00104712
0.0010473
0.00104716
0.0010469
0.00104746
0.0010471
0.0010472
0.00104739
0.00104748
0.00104782
0.00104762
0.0010478
0.00104752
0.00104762
0.00104721
0.00104751
0.00104727
0.00104756
0.0010472
0.00104682
0.00104699
0.00104667
0.00104671
0.00104613
0.00104581
0.00104524
0.00104454
0.00104464
0.00104378
0.00104323
0.00104325
0.00104286
0.00104327
0.00104462
0.00104525
0.00104953
0.00105675
0.00106757
0.00108603
0.0011185
0.00116876
0.00123996
0.00133426
0.00146064
0.00162994
0.00186291
0.0021934
0.00266069
0.00327516
0.00398329
0.00465539
0.00516734
0.00552837
0.00587255
0.00626329
0.00655104
0.00666075
0.00667945
0.00646449
0.00590761
0.00506516
0.0039805
0.0029508
0.00240213
0.00215679
0.00108056
0.0010795
0.00107898
0.00107915
0.00107898
0.00107914
0.00107948
0.00107936
0.00107936
0.00107928
0.00107956
0.00107971
0.00108027
0.00107991
0.00108043
0.00108046
0.00107912
0.00107994
0.00107956
0.00107963
0.00107863
0.0010794
0.00107952
0.00107932
0.00107973
0.00107981
0.00107917
0.00107999
0.0010794
0.00107947
0.00107903
0.00107921
0.00107904
0.00107866
0.00107846
0.00107861
0.00107875
0.00107857
0.00107824
0.00107846
0.00107895
0.00107893
0.00107945
0.00107906
0.00107957
0.00107969
0.00107916
0.00107922
0.00107917
0.00107884
0.00107969
0.00107916
0.0010796
0.00107993
0.00107852
0.0010792
0.0010782
0.00107813
0.00107753
0.0010771
0.00107644
0.00107546
0.00107406
0.00107389
0.00107242
0.00107177
0.00107241
0.00107387
0.00107809
0.00108146
0.00108921
0.00110098
0.0011188
0.00114365
0.00117982
0.00123031
0.00130043
0.00139355
0.00151773
0.00168266
0.00190533
0.00221272
0.00264282
0.00322966
0.00398856
0.00490955
0.00593492
0.00699152
0.00805251
0.00913345
0.0102256
0.0111128
0.0114848
0.0115595
0.0108207
0.00872307
0.00617174
0.0044458
0.00349695
0.00253027
0.00147523
0.00146369
0.00146026
0.00145909
0.00145885
0.00145996
0.00146125
0.00146246
0.00146329
0.00146259
0.00146301
0.00146395
0.00146325
0.00146141
0.00146098
0.00145933
0.00145852
0.00145914
0.00145934
0.00145991
0.00145948
0.00145997
0.00146038
0.00146287
0.00146439
0.00146793
0.00146967
0.00147051
0.00146722
0.00146288
0.00146063
0.00145947
0.00145905
0.0014586
0.00145834
0.00145847
0.00145956
0.00146057
0.00146194
0.00146259
0.00146324
0.00146362
0.00146629
0.0014661
0.00146353
0.00146207
0.00146103
0.00146106
0.00146092
0.00146096
0.00146172
0.00146257
0.00146369
0.0014638
0.00146137
0.00146137
0.00146079
0.0014606
0.00146085
0.00146126
0.0014618
0.00146167
0.0014612
0.00146165
0.00146217
0.00146362
0.00146503
0.00146821
0.00147519
0.00148534
0.00150141
0.00152319
0.0015485
0.00156896
0.00157697
0.0015862
0.00161475
0.00167233
0.00176289
0.00188852
0.00205316
0.00226474
0.0025388
0.0029012
0.00339136
0.00403316
0.00483339
0.00579718
0.00688972
0.00797118
0.00895586
0.00981483
0.0102204
0.0103411
0.0100805
0.00870719
0.0063021
0.00464847
0.00398965
0.00345678
0.0168898
0.0168903
0.0168877
0.016887
0.0168869
0.0168896
0.0168922
0.0168931
0.0168936
0.0168937
0.0168937
0.016894
0.0168941
0.0168934
0.0168905
0.0168841
0.0168784
0.0168779
0.0168818
0.0168837
0.0168836
0.0168834
0.0168838
0.0168855
0.016887
0.0168892
0.0168924
0.0168951
0.0168961
0.0168963
0.0168951
0.016891
0.0168862
0.016882
0.0168774
0.0168768
0.0168789
0.0168808
0.0168848
0.0168868
0.0168879
0.0168899
0.016893
0.0168952
0.0168967
0.016897
0.0168968
0.0168961
0.016895
0.0168944
0.016895
0.0168968
0.0168977
0.0168989
0.0168988
0.0168989
0.0168986
0.0168976
0.0168973
0.0168977
0.0168987
0.0168967
0.0168911
0.0168837
0.0168735
0.0168503
0.0168091
0.0167432
0.0166327
0.0164602
0.0162133
0.0158812
0.0154577
0.0149323
0.0142997
0.0135678
0.012739
0.0118197
0.010844
0.00985119
0.00887579
0.00795007
0.00710822
0.0063809
0.0057841
0.00532689
0.00500039
0.0047573
0.00456
0.00448347
0.00445675
0.00442456
0.00430926
0.00402223
0.0035143
0.0026277
0.00176444
0.00194145
0.00327063
0.00378062
0.00337661
0.00142676
0.00127897
0.00123739
0.00122354
0.00121869
0.00119936
0.00119639
0.00120039
0.00119276
0.00118911
0.00118804
0.00118694
0.00119019
0.00120425
0.00123776
0.0012999
0.00138968
0.00166989
0.00264285
0.00264169
0.00148275
0.00136255
0.00132258
0.00130861
0.00128545
0.00127619
0.00126958
0.001256
0.00124977
0.0012471
0.00124285
0.0012419
0.00124566
0.00126128
0.00129567
0.00135482
0.00143364
0.00167711
0.00247078
0.00214144
0.0015684
0.00148354
0.00144504
0.00140218
0.00138062
0.00135295
0.00134189
0.00133415
0.00132968
0.00131784
0.00131335
0.00131225
0.00131622
0.00133309
0.0013621
0.00140758
0.00147342
0.00167126
0.00227729
0.00214029
0.00172002
0.00164972
0.00156961
0.00153228
0.00149607
0.00148115
0.0014752
0.00146017
0.00144385
0.0014152
0.00140343
0.00139917
0.00139938
0.00141299
0.00143622
0.00146747
0.00150573
0.00164997
0.0020632
0.00222517
0.00191917
0.00184755
0.00176081
0.00173019
0.00170119
0.00169064
0.00166838
0.00163274
0.00159889
0.00153492
0.00151043
0.00149985
0.00149578
0.00149942
0.00151372
0.00152262
0.00153064
0.00159743
0.00183822
0.00241487
0.00219053
0.00213195
0.0020672
0.00204365
0.00200188
0.00198122
0.00191807
0.00187197
0.00179304
0.00170325
0.00166137
0.00161849
0.0016009
0.00158869
0.00158219
0.0015577
0.00152783
0.00152785
0.00160679
0.00284617
0.00274724
0.00270602
0.00261055
0.00257459
0.00247291
0.00242747
0.00230172
0.00224037
0.00208535
0.00198346
0.00184937
0.00178359
0.00172516
0.00168821
0.0016477
0.00158625
0.0014989
0.00140189
0.00135358
0.00398792
0.00389605
0.00368294
0.00355371
0.00339474
0.00321706
0.00309558
0.00286928
0.00275926
0.00248276
0.00234513
0.00209358
0.00198307
0.00186227
0.0017959
0.00170385
0.0015869
0.00143017
0.00121541
0.00108006
0.00558354
0.00534983
0.00491028
0.0046941
0.00430611
0.0040974
0.00375818
0.00353425
0.00322914
0.00293778
0.00262033
0.00231294
0.00215765
0.00197619
0.00188044
0.00173198
0.00156245
0.00131624
0.000993844
0.000794842
0.0066173
0.00628892
0.00568727
0.00539376
0.00487003
0.00461047
0.0041446
0.00391442
0.00348262
0.00319449
0.00274073
0.00243399
0.00224402
0.00203082
0.00191723
0.00173336
0.00152629
0.00123543
0.000845534
0.000610959
0.00633674
0.00603186
0.0054708
0.00519697
0.00470796
0.00446568
0.00402765
0.00380929
0.00340627
0.00312505
0.00270543
0.00240097
0.00222144
0.00201981
0.00191478
0.00174777
0.00156409
0.00130032
0.000959499
0.000751735
0.00495909
0.00477295
0.00441745
0.00424213
0.00392817
0.00374943
0.00348295
0.00327147
0.00303311
0.00276034
0.00251134
0.00222752
0.00209115
0.00193693
0.00185795
0.00174209
0.00160881
0.00142847
0.00119326
0.00104422
0.00344267
0.00337264
0.00322499
0.00311876
0.00301293
0.00286262
0.00278953
0.00260613
0.00252132
0.00229723
0.0021872
0.00198364
0.00189448
0.00180386
0.00175565
0.00169671
0.00162062
0.00152359
0.0014053
0.00133708
0.00259645
0.00248493
0.00243744
0.00235643
0.00232609
0.00224693
0.00221026
0.00211145
0.00206218
0.00193952
0.00184907
0.00175652
0.00170579
0.00166904
0.00164805
0.00163124
0.00160168
0.00156775
0.00156611
0.00161489
0.00228355
0.00206493
0.00200466
0.00193281
0.00190672
0.00186909
0.00185165
0.0018022
0.00176194
0.00170107
0.00162433
0.00159006
0.00156378
0.00155522
0.00155418
0.00156318
0.00156886
0.0015766
0.00165597
0.00187453
0.00214302
0.00183347
0.00176445
0.00167792
0.00164541
0.00161224
0.00160067
0.00158307
0.00155606
0.00152836
0.00147939
0.00146053
0.00145288
0.00145081
0.00146194
0.00148756
0.00151689
0.001565
0.00173195
0.00213157
0.0020901
0.00165563
0.0015865
0.00151491
0.00148072
0.00144321
0.00142645
0.00141885
0.00141002
0.00139227
0.00136959
0.00136069
0.00135794
0.00136006
0.00137785
0.00140703
0.00145501
0.00153146
0.00176568
0.00237814
0.00217657
0.00153061
0.00144175
0.00140066
0.00136425
0.00134653
0.00132256
0.00130823
0.00129982
0.00129677
0.00128613
0.00128144
0.00128007
0.00128294
0.00129941
0.00133667
0.00139949
0.00149207
0.00177717
0.00260226
0.00278016
0.00145603
0.00133756
0.00129524
0.00127692
0.00125278
0.00124531
0.00124558
0.00123278
0.00122662
0.00122455
0.00121997
0.00121866
0.00122067
0.00123431
0.00127016
0.001337
0.00144254
0.0017769
0.00280242
0.00360785
0.00140068
0.00125743
0.00122164
0.00120971
0.0012043
0.00117913
0.00117342
0.00117917
0.00117134
0.00116888
0.00116877
0.00116754
0.00116923
0.00118067
0.00121589
0.00128861
0.00139584
0.00175037
0.00298137
0.0039974
0.00375139
0.00374662
0.00374653
0.00374646
0.00374632
0.0037462
0.00374608
0.00374596
0.0037459
0.00374589
0.00374594
0.00374603
0.00374615
0.00374627
0.00374641
0.00374648
0.00374658
0.00375138
0.00399739
0.00441247
0.00375335
0.00374036
0.00373931
0.00373845
0.00373786
0.00373763
0.00373762
0.00373772
0.00373787
0.00373795
0.00373787
0.00373764
0.00373748
0.00373769
0.00373834
0.00373925
0.00374035
0.00375335
0.00441249
0.00475881
0.0037573
0.00373219
0.00373209
0.00373256
0.00373332
0.0037344
0.00373547
0.00373661
0.0037377
0.00373818
0.00373783
0.00373714
0.00373595
0.00373425
0.00373291
0.00373225
0.00373228
0.00375734
0.00475891
0.00527084
0.00377065
0.00372738
0.0037281
0.00373038
0.00373297
0.0037351
0.00373697
0.00373891
0.00374008
0.00374086
0.00374107
0.00373972
0.00373741
0.00373472
0.00373161
0.00372875
0.00372768
0.00377075
0.00527084
0.005906
0.00378678
0.0037217
0.00372512
0.00373063
0.00373506
0.00373848
0.0037421
0.00374542
0.00375027
0.00375279
0.00375227
0.00374829
0.0037434
0.00373784
0.00373211
0.00372604
0.00372224
0.00378707
0.00590598
0.00639551
0.00378704
0.00371038
0.00371835
0.00372779
0.00373432
0.00373905
0.00374297
0.00374707
0.00375407
0.00375887
0.00375915
0.00375473
0.00374658
0.00373755
0.00372922
0.00371952
0.00371134
0.00378739
0.00639587
0.00659431
0.0037686
0.00368042
0.00369341
0.00370758
0.0037178
0.00372453
0.00372811
0.0037319
0.00373914
0.00374327
0.00374367
0.00374026
0.00373228
0.00372124
0.00370879
0.0036947
0.00368184
0.00376902
0.0065953
0.00659932
0.00367773
0.00358124
0.00359575
0.00361341
0.00362503
0.00362911
0.00363386
0.0036365
0.00363935
0.00363856
0.00363896
0.00363793
0.0036346
0.00362654
0.00361387
0.00359691
0.0035828
0.00367832
0.00660062
0.00644919
0.00334544
0.00324636
0.00326338
0.00328019
0.00329151
0.00328763
0.00328871
0.00328115
0.00327192
0.00326715
0.00326951
0.00327543
0.00328061
0.00328518
0.00327967
0.0032626
0.00324712
0.00334634
0.00645122
0.00577196
0.00255316
0.00249218
0.00252475
0.00253743
0.00254159
0.00253723
0.00253311
0.00252836
0.00252657
0.00252634
0.00252762
0.00252914
0.00252916
0.00253315
0.0025387
0.00252327
0.00249251
0.0025539
0.00577511
0.0049098
0.00189356
0.00185214
0.00188334
0.00189295
0.00188941
0.00188925
0.00188783
0.00189009
0.00189149
0.00189074
0.00188919
0.00189074
0.00188969
0.00188857
0.00188905
0.00188214
0.00185186
0.00189356
0.00491114
0.00437599
0.00147942
0.00143428
0.00145549
0.00146166
0.00145739
0.00146017
0.00145808
0.00145921
0.00146281
0.00146413
0.00146148
0.00145792
0.00145895
0.00145886
0.00145887
0.00145539
0.00143396
0.00147913
0.00437622
0.00409033
0.00125724
0.00120344
0.00121791
0.00121962
0.00121686
0.00121741
0.00121602
0.00121837
0.00121995
0.00122126
0.00121966
0.0012173
0.00121623
0.00121679
0.0012195
0.00121703
0.00120257
0.00125669
0.00408974
0.00395129
0.00115226
0.00109085
0.00110099
0.00110161
0.00109948
0.00109882
0.00109859
0.00110009
0.00109954
0.00109994
0.00110015
0.00109949
0.00109889
0.00109965
0.00110224
0.00110117
0.00109047
0.00115194
0.00395095
0.00388695
0.00110808
0.0010415
0.00104898
0.00104967
0.00104766
0.00104678
0.00104633
0.00104671
0.00104693
0.00104662
0.0010473