/*--------------------------------*- C++ -*----------------------------------*\
| =========                 |                                                 |
| \\      /  F ield         | OpenFOAM: The Open Source CFD Toolbox           |
|  \\    /   O peration     | Version:  2.1.0                                 |
|   \\  /    A nd           | Web:      www.OpenFOAM.org                      |
|    \\/     M anipulation  |                                                 |
\*---------------------------------------------------------------------------*/
FoamFile
{
    version     2.0;
    format      ascii;
    class       volScalarField;
    location    "0.02";
    object      nut;
}
// * * * * * * * * * * * * * * * * * * * * * * * * * * * * * * * * * * * * * //

dimensions      [0 2 -1 0 0 0 0];

internalField   nonuniform List<scalar> 
6400
(
2.78753e-06
2.78802e-06
2.78793e-06
2.78805e-06
2.78802e-06
2.78779e-06
2.78743e-06
2.78696e-06
2.78725e-06
2.78727e-06
2.78685e-06
2.78658e-06
2.78697e-06
2.78698e-06
2.78732e-06
2.78723e-06
2.78724e-06
2.78761e-06
2.78779e-06
2.78777e-06
2.78769e-06
2.78762e-06
2.7873e-06
2.78696e-06
2.78682e-06
2.78691e-06
2.78722e-06
2.78742e-06
2.78717e-06
2.78764e-06
2.78722e-06
2.7872e-06
2.787e-06
2.78692e-06
2.78701e-06
2.78714e-06
2.78722e-06
2.78745e-06
2.78776e-06
2.78751e-06
2.78722e-06
2.78719e-06
2.78676e-06
2.78639e-06
2.78647e-06
2.78638e-06
2.78679e-06
2.78735e-06
2.7874e-06
2.78739e-06
2.78752e-06
2.78742e-06
2.78735e-06
2.78752e-06
2.78748e-06
2.78762e-06
2.78787e-06
2.78778e-06
2.78752e-06
2.78773e-06
2.78799e-06
2.78847e-06
2.78888e-06
2.78919e-06
2.78846e-06
2.78725e-06
2.78317e-06
2.77672e-06
2.76454e-06
2.74648e-06
2.71744e-06
2.67901e-06
2.62883e-06
2.5647e-06
2.48734e-06
2.39667e-06
2.29092e-06
2.1715e-06
2.0431e-06
1.91106e-06
1.7806e-06
1.65778e-06
1.54826e-06
1.45889e-06
1.39582e-06
1.36497e-06
1.36941e-06
1.40483e-06
1.4632e-06
1.57644e-06
1.74202e-06
1.95686e-06
2.21e-06
2.4505e-06
2.59422e-06
2.2185e-06
1.50294e-06
1.36749e-06
1.45093e-06
1.60401e-06
4.94652e-06
4.91752e-06
4.9113e-06
4.91005e-06
4.9104e-06
4.90791e-06
4.90341e-06
4.90499e-06
4.90482e-06
4.90615e-06
4.90638e-06
4.90636e-06
4.90636e-06
4.90592e-06
4.90799e-06
4.9118e-06
4.91571e-06
4.91619e-06
4.9166e-06
4.91665e-06
4.91047e-06
4.90713e-06
4.90498e-06
4.90459e-06
4.90469e-06
4.90464e-06
4.90514e-06
4.90733e-06
4.91023e-06
4.91555e-06
4.91532e-06
4.9104e-06
4.90722e-06
4.90681e-06
4.90745e-06
4.90973e-06
4.91074e-06
4.91159e-06
4.91371e-06
4.91326e-06
4.90806e-06
4.90495e-06
4.90346e-06
4.90386e-06
4.90428e-06
4.90628e-06
4.9063e-06
4.90438e-06
4.90373e-06
4.90317e-06
4.9036e-06
4.90396e-06
4.905e-06
4.90652e-06
4.91116e-06
4.91475e-06
4.91615e-06
4.91592e-06
4.91627e-06
4.9211e-06
4.92539e-06
4.92593e-06
4.92688e-06
4.92984e-06
4.93651e-06
4.94838e-06
4.97e-06
5.00422e-06
5.05709e-06
5.13824e-06
5.25557e-06
5.41734e-06
5.62723e-06
5.74601e-06
5.38095e-06
5.00768e-06
4.68538e-06
4.43369e-06
4.25083e-06
4.12947e-06
4.06429e-06
4.05523e-06
4.10877e-06
4.25492e-06
4.51355e-06
4.87528e-06
5.30753e-06
5.77545e-06
6.21384e-06
6.50845e-06
6.63404e-06
6.63436e-06
6.45901e-06
6.20817e-06
5.82951e-06
5.17163e-06
3.95385e-06
2.74425e-06
2.27369e-06
2.70884e-06
2.60388e-05
2.62071e-05
2.62398e-05
2.62318e-05
2.61898e-05
2.6252e-05
2.63388e-05
2.63079e-05
2.62665e-05
2.6169e-05
2.61621e-05
2.61841e-05
2.62034e-05
2.62225e-05
2.61226e-05
2.61164e-05
2.56052e-05
2.61327e-05
2.61629e-05
2.61588e-05
2.62089e-05
2.5068e-05
2.62313e-05
2.63248e-05
2.63514e-05
2.63411e-05
2.62704e-05
2.6261e-05
2.62863e-05
2.61955e-05
2.62306e-05
2.6282e-05
2.62995e-05
2.63067e-05
2.62319e-05
2.61396e-05
2.60996e-05
2.61062e-05
2.60723e-05
2.61009e-05
2.40808e-05
2.63116e-05
2.50324e-05
2.62537e-05
2.61994e-05
2.61316e-05
2.61102e-05
2.6108e-05
2.36582e-05
2.62825e-05
2.39817e-05
2.62337e-05
2.62082e-05
2.6139e-05
2.61303e-05
2.51633e-05
2.60842e-05
2.60264e-05
2.24509e-05
2.59327e-05
2.20619e-05
2.58466e-05
2.57276e-05
2.57121e-05
2.57226e-05
2.57505e-05
2.53716e-05
2.63244e-05
1.87081e-05
2.53244e-05
1.4446e-05
1.31607e-05
1.10934e-05
9.33378e-06
7.9438e-06
6.8676e-06
6.05097e-06
5.44691e-06
5.02201e-06
4.75079e-06
4.63167e-06
4.70377e-06
5.03286e-06
5.61362e-06
6.34911e-06
7.11021e-06
7.77091e-06
8.26656e-06
8.63257e-06
8.94901e-06
9.24212e-06
9.37037e-06
9.30249e-06
8.99249e-06
8.37792e-06
7.49978e-06
6.0196e-06
4.61306e-06
3.98991e-06
4.89188e-06
3.88984e-05
5.51076e-05
3.68999e-05
3.58771e-05
3.66141e-05
5.91234e-05
2.99189e-05
3.23811e-05
0.000138476
2.59201e-05
3.92194e-05
3.42278e-05
5.34957e-05
3.25137e-05
3.49402e-05
6.13475e-05
3.0043e-05
4.33753e-05
3.60659e-05
3.1341e-05
4.45501e-05
3.13737e-05
2.59561e-05
0.000135185
2.69871e-05
3.09464e-05
7.92547e-05
2.95943e-05
3.44586e-05
5.11695e-05
3.17971e-05
3.61257e-05
5.28051e-05
2.23783e-05
0.000138314
2.18506e-05
0.000137984
2.30817e-05
4.5441e-05
3.90121e-05
2.01106e-05
6.67198e-05
2.13784e-05
3.166e-05
4.62112e-05
3.11503e-05
2.78994e-05
6.85867e-05
2.62996e-05
5.06815e-05
3.1321e-05
8.15462e-05
2.77447e-05
3.45486e-05
3.73318e-05
2.05251e-05
6.24958e-05
2.29485e-05
1.63274e-05
2.94175e-05
1.90611e-05
3.71288e-05
4.1872e-05
4.33126e-05
3.48207e-05
3.68902e-05
2.56429e-05
7.37762e-05
2.21427e-05
2.12398e-05
1.92495e-05
1.57506e-05
1.28421e-05
1.07705e-05
9.07804e-06
7.80671e-06
6.84556e-06
6.13536e-06
5.63493e-06
5.32022e-06
5.24093e-06
5.58435e-06
6.40548e-06
7.49911e-06
8.53902e-06
9.23811e-06
9.48732e-06
9.44181e-06
9.37995e-06
9.4338e-06
9.43988e-06
9.28255e-06
8.96061e-06
8.5797e-06
8.21144e-06
7.42584e-06
6.33537e-06
5.50008e-06
5.19432e-06
5.10809e-06
5.59688e-05
0.0001813
5.5225e-05
7.23369e-05
6.99141e-05
0.000243339
3.49147e-05
5.34888e-05
0.000183106
4.79868e-05
6.73021e-05
0.000109153
5.25505e-05
8.75502e-05
7.14544e-05
6.28556e-05
9.35962e-05
7.26183e-05
8.26708e-05
8.67361e-05
5.92056e-05
5.93425e-05
4.15848e-05
0.000338452
4.37861e-05
3.49694e-05
6.74043e-05
3.8853e-05
5.70982e-05
0.000326313
6.52092e-05
6.1337e-05
6.85709e-05
2.50796e-05
2.45097e-05
1.7795e-05
1.87724e-05
1.63429e-05
9.02282e-05
5.22469e-05
2.93088e-05
7.13865e-05
2.53601e-05
5.31413e-05
3.64604e-05
7.70624e-05
3.15814e-05
5.73644e-05
3.80634e-05
3.88619e-05
0.000158355
0.000118312
4.54332e-05
5.36805e-05
4.90822e-05
2.70234e-05
9.82797e-05
1.80419e-05
1.4864e-05
2.48621e-05
1.80989e-05
2.44518e-05
3.26146e-05
2.7365e-05
8.20593e-05
3.70486e-05
3.49612e-05
5.74948e-05
3.0722e-05
1.80519e-05
4.1595e-05
2.1535e-05
1.7052e-05
1.41756e-05
1.16867e-05
9.87804e-06
8.50332e-06
7.47564e-06
6.73155e-06
6.23806e-06
6.12786e-06
6.75231e-06
8.04527e-06
9.40787e-06
9.28336e-06
9.18289e-06
9.23152e-06
9.42614e-06
9.39112e-06
9.16053e-06
8.94089e-06
8.60014e-06
8.03563e-06
7.5494e-06
7.05004e-06
6.45065e-06
5.9372e-06
5.73069e-06
5.67088e-06
5.77917e-06
4.98872e-05
4.71841e-05
4.99399e-05
0.000200445
6.32604e-05
7.6566e-05
8.32599e-05
4.31488e-05
4.76472e-05
6.45894e-05
0.000113899
0.000234057
6.34687e-05
0.000283238
0.000130094
0.000115628
0.000503675
9.07976e-05
0.000156103
9.19736e-05
3.6228e-05
2.91885e-05
5.75237e-05
4.90078e-05
4.66215e-05
3.11159e-05
3.93382e-05
3.41676e-05
5.5184e-05
0.000222476
9.68999e-05
0.000113063
6.00144e-05
2.72603e-05
5.05966e-05
0.000245646
5.97573e-05
2.58319e-05
2.94224e-05
6.13804e-05
3.56144e-05
1.77974e-05
0.000118455
3.42992e-05
3.30121e-05
6.76412e-05
2.79263e-05
2.49297e-05
3.15647e-05
3.45416e-05
7.95401e-05
5.81777e-05
8.82179e-05
0.000167326
7.44248e-05
3.50585e-05
5.98781e-05
1.7514e-05
1.63656e-05
0.000132283
1.42376e-05
1.61523e-05
1.24738e-05
1.68978e-05
0.000137671
6.43135e-05
3.14098e-05
0.000104836
2.33888e-05
3.48199e-05
8.05623e-05
2.56886e-05
2.52956e-05
1.99631e-05
1.59775e-05
1.32362e-05
1.11626e-05
9.64345e-06
8.55424e-06
7.83563e-06
7.81768e-06
9.02897e-06
9.88493e-06
9.20227e-06
8.81669e-06
8.74214e-06
8.9419e-06
9.08729e-06
8.98098e-06
8.7683e-06
8.51662e-06
8.14365e-06
7.72525e-06
7.37104e-06
7.02185e-06
6.69639e-06
6.55074e-06
6.48625e-06
6.57827e-06
6.87072e-06
3.53398e-05
0.000500587
3.91082e-05
0.000197988
4.64729e-05
0.000108351
8.41231e-05
6.64554e-05
3.60949e-05
3.69481e-05
9.27729e-05
0.000235223
0.000522806
0.00012951
7.94354e-05
4.58904e-05
8.87867e-05
4.10352e-05
2.82871e-05
5.54345e-05
2.38293e-05
1.30498e-05
3.87797e-05
3.79246e-05
7.04892e-05
2.9085e-05
0.000357808
3.03623e-05
3.64792e-05
4.58636e-05
0.000148432
0.000109203
0.000121325
1.83545e-05
1.39799e-05
1.74107e-05
1.70785e-05
2.3637e-05
4.09706e-05
7.06565e-05
4.25442e-05
3.49862e-05
3.35465e-05
0.000195454
6.74187e-05
0.000108069
2.61003e-05
6.01898e-05
2.05173e-05
4.96181e-05
0.000101
0.000111265
8.7943e-05
0.000338796
9.32807e-05
3.50594e-05
8.96149e-05
1.8177e-05
1.9263e-05
3.36512e-05
1.21965e-05
1.09215e-05
4.21291e-05
1.51876e-05
3.87565e-05
6.61411e-05
5.55836e-05
2.49625e-05
3.62939e-05
7.1049e-05
4.85933e-05
2.85389e-05
3.5081e-05
2.48123e-05
2.01474e-05
1.67207e-05
1.40668e-05
1.21421e-05
1.07614e-05
9.87263e-06
1.01454e-05
1.16209e-05
1.01208e-05
9.2469e-06
8.84343e-06
8.82965e-06
9.09393e-06
9.39571e-06
9.36972e-06
9.20136e-06
9.01828e-06
8.86661e-06
8.67497e-06
8.42865e-06
8.2231e-06
8.08761e-06
7.97895e-06
8.11732e-06
8.48964e-06
8.77985e-06
5.52448e-05
3.26299e-05
6.28657e-05
0.000259645
6.31888e-05
0.000140111
7.27059e-05
3.09275e-05
3.935e-05
7.86263e-05
8.77314e-05
0.000149655
0.000324761
0.000108059
4.33834e-05
3.85889e-05
3.12824e-05
2.76611e-05
1.69982e-05
1.70141e-05
1.66318e-05
0.000126126
1.76213e-05
7.03157e-05
0.000363149
3.58654e-05
8.14732e-05
5.5887e-05
3.3943e-05
3.60398e-05
6.90989e-05
2.61866e-05
2.05837e-05
1.76691e-05
2.63005e-05
3.73561e-05
2.01628e-05
5.22401e-05
5.83238e-05
5.09134e-05
0.000185204
4.19406e-05
6.93792e-05
3.42144e-05
5.56219e-05
0.0001505
3.18655e-05
1.77257e-05
3.13878e-05
0.00010749
0.000245579
0.000495903
0.000127832
0.000163308
0.000200567
3.37031e-05
5.08484e-05
1.6499e-05
2.84613e-05
1.14601e-05
8.23809e-06
2.16282e-05
2.25517e-05
1.82311e-05
3.04611e-05
3.19627e-05
0.000141813
2.92731e-05
0.000110776
6.32517e-05
3.13861e-05
3.88574e-05
4.02837e-05
2.66503e-05
2.24131e-05
1.86812e-05
1.58533e-05
1.38446e-05
1.24279e-05
1.16327e-05
1.2547e-05
1.23149e-05
1.0597e-05
9.60847e-06
9.17136e-06
9.18491e-06
9.51694e-06
9.96107e-06
1.03124e-05
1.05068e-05
1.06379e-05
1.08035e-05
1.09646e-05
1.105e-05
1.11047e-05
1.12036e-05
1.13552e-05
1.16306e-05
1.2092e-05
1.23358e-05
0.000167755
5.23935e-05
0.000119032
0.000103101
4.47467e-05
0.000123706
5.81813e-05
1.84827e-05
3.75297e-05
3.96194e-05
3.80083e-05
6.95448e-05
4.87307e-05
3.35605e-05
1.75591e-05
1.43557e-05
3.22645e-05
2.52705e-05
9.54602e-05
2.0306e-05
1.70488e-05
1.49555e-05
3.93101e-05
5.14475e-05
9.24486e-05
3.5244e-05
6.39924e-05
0.000131004
0.000140848
3.38983e-05
2.4157e-05
1.48282e-05
1.76793e-05
7.32877e-05
2.13935e-05
3.18611e-05
6.65015e-05
5.39645e-05
0.000317554
8.93989e-05
5.11523e-05
5.65365e-05
8.74541e-05
5.9165e-05
4.50227e-05
8.98936e-05
7.83103e-05
4.64044e-05
0.000126475
0.000347083
0.000406594
0.000168508
0.000143469
0.000222947
0.000401313
6.46088e-05
3.62291e-05
2.67512e-05
2.7634e-05
1.08517e-05
2.33981e-05
6.10579e-05
4.77489e-05
2.26181e-05
2.95511e-05
7.75224e-05
3.48512e-05
4.79661e-05
9.93888e-05
0.000110314
3.24178e-05
4.81086e-05
3.90574e-05
2.70187e-05
2.29212e-05
1.90524e-05
1.62658e-05
1.43286e-05
1.3012e-05
1.25243e-05
1.43626e-05
1.28682e-05
1.10155e-05
9.9272e-06
9.42776e-06
9.43865e-06
9.85622e-06
1.04753e-05
1.10522e-05
1.15074e-05
1.19679e-05
1.25432e-05
1.31646e-05
1.37266e-05
1.42806e-05
1.49268e-05
1.56575e-05
1.64128e-05
1.71037e-05
1.7421e-05
4.28077e-05
0.000215941
0.000102358
0.000169447
5.15962e-05
5.38508e-05
2.92445e-05
0.000191348
1.9902e-05
2.75657e-05
9.47385e-05
4.07775e-05
3.81792e-05
1.82356e-05
2.09074e-05
3.12763e-05
4.21552e-05
7.85764e-05
1.88944e-05
2.05793e-05
7.02327e-05
3.63012e-05
8.53534e-05
0.000253183
6.97625e-05
3.75035e-05
5.26644e-05
3.86174e-05
3.55063e-05
3.41813e-05
1.67113e-05
3.71916e-05
3.54997e-05
1.29531e-05
2.00007e-05
6.01272e-05
2.78915e-05
6.21969e-05
2.63685e-05
7.28057e-05
7.90539e-05
0.000236899
7.31819e-05
0.000177776
0.000119352
0.000150271
0.000193758
0.000399812
0.000288662
0.000240521
0.000121568
0.000272653
0.000271541
0.00014891
0.000395894
5.53062e-05
8.43816e-05
3.84102e-05
3.00845e-05
2.97121e-05
1.77297e-05
2.34128e-05
5.07343e-05
1.81196e-05
3.36382e-05
5.21817e-05
4.51943e-05
4.94806e-05
8.78058e-05
6.23846e-05
3.76131e-05
4.75056e-05
3.76706e-05
2.68981e-05
2.26721e-05
1.88655e-05
1.61567e-05
1.42888e-05
1.30585e-05
1.29985e-05
1.59907e-05
1.31617e-05
1.12312e-05
1.0078e-05
9.53416e-06
9.53023e-06
9.97208e-06
1.06551e-05
1.13402e-05
1.19476e-05
1.25983e-05
1.33977e-05
1.42802e-05
1.51469e-05
1.60481e-05
1.70728e-05
1.81825e-05
1.929e-05
2.01494e-05
2.05193e-05
4.51271e-05
0.000164599
0.000201508
0.000142547
4.54261e-05
5.19312e-05
2.33506e-05
1.43024e-05
2.76043e-05
5.44111e-05
4.98247e-05
0.000108255
1.98343e-05
3.4176e-05
1.74314e-05
4.08894e-05
6.32667e-05
9.15086e-05
2.49987e-05
5.69037e-05
0.000146479
0.000169415
0.000305252
7.3248e-05
0.000243634
3.52377e-05
4.05271e-05
3.55623e-05
5.65545e-05
4.81908e-05
2.73376e-05
1.3779e-05
1.55471e-05
1.73569e-05
6.06039e-05
4.70941e-05
6.62026e-05
1.58324e-05
2.70707e-05
5.83169e-05
6.72909e-05
0.000140533
8.34412e-05
0.000126212
0.000273007
0.000220081
0.000153753
0.000309202
0.00013937
0.00018913
0.000139686
8.99353e-05
0.000139268
0.00015016
8.80214e-05
8.5139e-05
5.83716e-05
9.21927e-05
6.24282e-05
8.06919e-05
3.6317e-05
2.97631e-05
2.00196e-05
2.90063e-05
4.84503e-05
0.000177084
7.9652e-05
6.8536e-05
5.68958e-05
4.71627e-05
4.2781e-05
4.23086e-05
3.7487e-05
2.67823e-05
2.24371e-05
1.87724e-05
1.60977e-05
1.42518e-05
1.30323e-05
1.29919e-05
1.60202e-05
1.31434e-05
1.1219e-05
1.00679e-05
9.52498e-06
9.52123e-06
9.96026e-06
1.06342e-05
1.13002e-05
1.18766e-05
1.24855e-05
1.32335e-05
1.4055e-05
1.4851e-05
1.56707e-05
1.66017e-05
1.76156e-05
1.86454e-05
1.94564e-05
1.98078e-05
4.61886e-05
9.35381e-05
9.2573e-05
8.30017e-05
0.000508465
6.59347e-05
2.23472e-05
1.55708e-05
3.07539e-05
0.000246856
3.96436e-05
5.64849e-05
2.28295e-05
2.2888e-05
3.49234e-05
3.98896e-05
6.01969e-05
7.22842e-05
0.000104243
4.02827e-05
6.28864e-05
5.78032e-05
7.87333e-05
5.24013e-05
4.93961e-05
0.000237039
5.01459e-05
7.88228e-05
0.000541455
8.65683e-05
7.89549e-05
2.86049e-05
3.06272e-05
0.000248509
3.85385e-05
5.36846e-05
3.86201e-05
2.31242e-05
3.59032e-05
5.35187e-05
6.83494e-05
0.00031973
6.73373e-05
0.000160474
5.389e-05
3.66928e-05
0.000509775
0.000196982
0.000110152
0.000130241
0.000193669
0.000359311
9.15705e-05
0.000102004
3.0202e-05
5.03478e-05
0.000157481
0.000331213
7.53687e-05
0.00011741
0.00013763
0.00011903
0.000161378
6.93781e-05
0.000130076
4.4605e-05
2.39719e-05
4.70538e-05
4.52322e-05
8.12465e-05
5.57962e-05
3.53342e-05
3.74214e-05
2.67937e-05
2.21715e-05
1.86798e-05
1.60094e-05
1.41401e-05
1.2864e-05
1.24031e-05
1.42668e-05
1.28813e-05
1.1037e-05
9.94314e-06
9.43218e-06
9.42958e-06
9.82886e-06
1.04097e-05
1.09208e-05
1.12917e-05
1.16486e-05
1.20876e-05
1.25388e-05
1.29211e-05
1.32996e-05
1.37686e-05
1.43231e-05
1.49223e-05
1.55219e-05
1.5802e-05
0.000192432
7.34043e-05
0.00016318
6.62044e-05
2.75702e-05
3.8999e-05
3.18384e-05
3.20202e-05
1.39191e-05
2.93599e-05
4.66912e-05
2.56309e-05
7.26112e-05
4.89425e-05
4.95799e-05
4.87755e-05
3.55379e-05
0.000120446
3.37036e-05
3.74678e-05
0.00011884
4.34367e-05
4.31272e-05
7.63026e-05
5.81914e-05
5.08787e-05
0.000208158
0.000108327
3.62798e-05
0.000112288
7.9122e-05
8.47254e-05
0.000100998
9.27732e-05
0.000128086
4.55549e-05
5.18072e-05
1.71833e-05
2.38673e-05
6.94165e-05
7.36438e-05
5.70059e-05
9.80301e-05
8.18606e-05
2.40013e-05
1.69201e-05
3.7397e-05
6.12215e-05
8.09726e-05
7.28919e-05
0.00012358
7.722e-05
8.95782e-05
3.42707e-05
2.16719e-05
2.55179e-05
4.43373e-05
5.90461e-05
0.00013502
0.000250908
0.000141394
4.81256e-05
7.27526e-05
3.50675e-05
8.51893e-05
2.41587e-05
3.02096e-05
3.16139e-05
8.18157e-05
5.05178e-05
8.60592e-05
2.98936e-05
3.47647e-05
2.65341e-05
2.13166e-05
1.79778e-05
1.53373e-05
1.34401e-05
1.20957e-05
1.13536e-05
1.23199e-05
1.23086e-05
1.0611e-05
9.61359e-06
9.14959e-06
9.12171e-06
9.4086e-06
9.81265e-06
1.01043e-05
1.01859e-05
1.01577e-05
1.01606e-05
1.01728e-05
1.01066e-05
1.00049e-05
9.9649e-06
1.00251e-05
1.02544e-05
1.06804e-05
1.09078e-05
5.08391e-05
3.46426e-05
8.21853e-05
5.78779e-05
3.56119e-05
3.48961e-05
1.24359e-05
1.74964e-05
2.04487e-05
1.45914e-05
3.90629e-05
2.01843e-05
1.72774e-05
4.80618e-05
0.000107635
0.000135913
4.99297e-05
2.77025e-05
5.21683e-05
9.93721e-05
7.90521e-05
0.000225664
0.000134257
4.91855e-05
5.2623e-05
0.000109406
0.000141244
3.43561e-05
1.84794e-05
3.43587e-05
5.64784e-05
8.15953e-05
8.70027e-05
8.23025e-05
3.18274e-05
0.000184883
2.96862e-05
3.09414e-05
2.44594e-05
0.000427079
8.47315e-05
5.16855e-05
6.32597e-05
3.43326e-05
2.36571e-05
6.81688e-05
1.89521e-05
5.29958e-05
0.000106282
9.79166e-05
0.000284582
0.000147561
7.4611e-05
2.78382e-05
9.52279e-05
3.88263e-05
6.04065e-05
6.87825e-05
0.000534428
0.000530517
8.78228e-05
3.02697e-05
2.57824e-05
5.27318e-05
4.19151e-05
4.35092e-05
9.55469e-05
3.48066e-05
0.00010384
1.73763e-05
7.16483e-05
3.15125e-05
2.84602e-05
2.421e-05
1.91125e-05
1.59281e-05
1.34746e-05
1.16788e-05
1.03866e-05
9.56649e-06
9.90151e-06
1.16308e-05
1.01605e-05
9.27369e-06
8.83947e-06
8.79565e-06
9.03269e-06
9.18349e-06
9.08911e-06
8.89131e-06
8.67384e-06
8.40158e-06
8.12501e-06
7.88792e-06
7.66962e-06
7.54417e-06
7.45503e-06
7.56653e-06
7.91788e-06
8.21676e-06
3.91685e-05
0.000499204
0.000158886
6.26319e-05
0.000100579
3.0768e-05
2.92931e-05
1.24222e-05
2.37096e-05
1.4837e-05
2.27327e-05
2.58884e-05
2.9202e-05
6.90897e-05
9.42691e-05
9.87423e-05
6.01993e-05
6.06036e-05
2.69781e-05
3.76506e-05
6.75877e-05
6.97098e-05
2.96824e-05
1.80916e-05
3.19378e-05
7.84762e-05
5.36104e-05
2.27374e-05
5.79626e-05
2.15252e-05
5.62798e-05
0.000144301
4.31784e-05
3.74467e-05
5.21409e-05
3.62402e-05
8.50794e-05
5.60691e-05
7.87537e-05
0.000110272
8.07799e-05
6.57295e-05
5.35284e-05
6.46468e-05
4.24063e-05
1.79522e-05
4.01052e-05
5.88608e-05
3.7974e-05
3.97792e-05
0.000116781
0.000520531
0.000236504
3.80746e-05
2.10903e-05
3.46967e-05
0.00011157
0.000191267
8.99461e-05
0.000231323
4.12392e-05
5.11087e-05
2.73758e-05
2.85686e-05
4.90875e-05
6.69766e-05
7.33835e-05
2.42052e-05
3.53766e-05
1.32313e-05
3.70517e-05
3.49292e-05
2.21337e-05
1.90243e-05
1.52878e-05
1.27101e-05
1.07741e-05
9.34609e-06
8.32057e-06
7.65074e-06
7.68386e-06
8.91959e-06
9.94258e-06
9.26357e-06
8.84922e-06
8.74029e-06
8.90773e-06
8.9824e-06
8.85637e-06
8.63722e-06
8.38277e-06
8.00124e-06
7.60586e-06
7.26597e-06
6.86926e-06
6.54366e-06
6.39786e-06
6.32927e-06
6.3651e-06
6.63786e-06
3.66884e-05
7.76006e-05
3.64487e-05
7.57447e-05
2.43741e-05
0.000111378
1.79526e-05
2.34748e-05
2.01964e-05
2.08292e-05
1.93407e-05
0.000196073
2.50399e-05
5.76776e-05
6.17326e-05
7.60757e-05
3.24063e-05
0.000122849
9.62311e-05
3.81142e-05
0.000254252
4.36051e-05
3.42707e-05
4.17182e-05
4.46488e-05
0.000108107
4.90336e-05
2.32501e-05
3.18751e-05
2.85081e-05
3.55092e-05
0.000106264
4.03375e-05
4.89588e-05
8.89152e-05
5.34862e-05
4.69497e-05
5.42345e-05
0.000185758
0.000201897
8.7646e-05
4.1017e-05
4.99871e-05
0.00021629
3.29409e-05
4.73328e-05
4.29709e-05
9.28035e-05
8.3728e-05
2.98357e-05
6.63084e-05
7.82987e-05
8.95964e-05
6.54366e-05
0.000368991
5.83806e-05
0.000109833
0.000154435
4.08869e-05
7.10839e-05
3.56006e-05
6.9466e-05
4.45267e-05
4.39359e-05
4.55414e-05
3.10956e-05
0.000101732
2.32271e-05
2.39977e-05
4.25887e-05
1.6717e-05
2.1544e-05
1.6503e-05
1.38685e-05
1.14803e-05
9.71198e-06
8.37436e-06
7.37391e-06
6.65275e-06
6.17794e-06
6.08994e-06
6.72912e-06
8.01575e-06
9.48098e-06
9.34697e-06
9.21223e-06
9.23053e-06
9.43031e-06
9.43707e-06
9.2089e-06
8.96774e-06
8.65706e-06
8.11679e-06
7.629e-06
7.09022e-06
6.4633e-06
5.92271e-06
5.66337e-06
5.62878e-06
5.72584e-06
2.8046e-05
4.43988e-05
2.91218e-05
3.63221e-05
1.92076e-05
5.07802e-05
1.6087e-05
2.87336e-05
0.000139661
2.33462e-05
2.06734e-05
8.32677e-05
2.0301e-05
3.14157e-05
3.7653e-05
3.29695e-05
2.82765e-05
5.13664e-05
2.96738e-05
3.76209e-05
3.4663e-05
3.23138e-05
2.06778e-05
0.000122962
2.03483e-05
5.13163e-05
2.54394e-05
2.84337e-05
0.000112965
2.48755e-05
3.01031e-05
4.16457e-05
5.24046e-05
2.51741e-05
0.000137662
2.85812e-05
3.54783e-05
3.39241e-05
7.54795e-05
2.80143e-05
7.12554e-05
2.88648e-05
3.04713e-05
5.39866e-05
2.72692e-05
4.30132e-05
3.44343e-05
3.82195e-05
2.67902e-05
5.63911e-05
2.91416e-05
3.18125e-05
3.59381e-05
3.89308e-05
3.64639e-05
3.92981e-05
4.41575e-05
3.29068e-05
4.00508e-05
3.12624e-05
3.27447e-05
0.000134737
2.12718e-05
0.000120869
4.53111e-05
2.60703e-05
5.14921e-05
3.15147e-05
1.60915e-05
9.04742e-05
1.31948e-05
1.56541e-05
1.3118e-05
1.09075e-05
9.15924e-06
7.84492e-06
6.86827e-06
6.14667e-06
5.64383e-06
5.33008e-06
5.25317e-06
5.5944e-06
6.40465e-06
7.4835e-06
8.51611e-06
9.21354e-06
9.46885e-06
9.44289e-06
9.42144e-06
9.54286e-06
9.66991e-06
9.63681e-06
9.45039e-06
9.14908e-06
8.81323e-06
7.92594e-06
6.83451e-06
5.66268e-06
5.25198e-06
5.09835e-06
2.59931e-05
2.60953e-05
2.6303e-05
2.63176e-05
2.3317e-05
2.62188e-05
2.35892e-05
2.61883e-05
2.61838e-05
2.62022e-05
2.59325e-05
2.61658e-05
2.48299e-05
2.62663e-05
2.63052e-05
2.64087e-05
2.64389e-05
2.63853e-05
2.63323e-05
2.63553e-05
2.63768e-05
2.6385e-05
2.3024e-05
2.61845e-05
2.28255e-05
2.6177e-05
2.61985e-05
2.62021e-05
2.62552e-05
2.6348e-05
2.63795e-05
2.63598e-05
2.63584e-05
2.63891e-05
2.63967e-05
2.62429e-05
2.6212e-05
2.61906e-05
2.62368e-05
2.52357e-05
2.61395e-05
2.61192e-05
2.61005e-05
2.62425e-05
2.57425e-05
2.62896e-05
2.62976e-05
2.62828e-05
2.35572e-05
2.63041e-05
2.36817e-05
2.6175e-05
2.614e-05
2.61347e-05
2.61779e-05
2.61393e-05
2.61489e-05
2.43684e-05
2.60334e-05
2.58907e-05
2.58344e-05
2.57968e-05
2.57886e-05
2.56445e-05
2.55882e-05
2.56153e-05
2.57542e-05
2.6034e-05
1.76123e-05
2.77958e-05
1.41936e-05
1.38308e-05
1.14227e-05
9.53806e-06
8.07743e-06
6.95479e-06
6.11495e-06
5.49552e-06
5.06217e-06
4.78647e-06
4.66235e-06
4.72507e-06
5.04075e-06
5.60599e-06
6.32529e-06
7.07948e-06
7.7488e-06
8.26967e-06
8.68052e-06
9.06608e-06
9.45843e-06
9.749e-06
9.80519e-06
9.5909e-06
9.02934e-06
8.09998e-06
6.47255e-06
4.92726e-06
4.27003e-06
5.08595e-06
4.9384e-06
4.91299e-06
4.90533e-06
4.90232e-06
4.902e-06
4.90257e-06
4.90556e-06
4.90814e-06
4.90894e-06
4.90786e-06
4.90922e-06
4.91131e-06
4.90971e-06
4.90593e-06
4.9047e-06
4.90358e-06
4.90463e-06
4.90423e-06
4.90221e-06
4.90175e-06
4.90132e-06
4.90118e-06
4.90321e-06
4.90928e-06
4.91325e-06
4.91895e-06
4.92341e-06
4.92376e-06
4.91769e-06
4.90693e-06
4.90352e-06
4.90354e-06
4.90401e-06
4.90423e-06
4.90559e-06
4.90667e-06
4.9068e-06
4.90804e-06
4.90874e-06
4.90938e-06
4.91075e-06
4.91271e-06
4.91695e-06
4.91546e-06
4.90838e-06
4.9053e-06
4.90413e-06
4.90397e-06
4.90376e-06
4.90441e-06
4.90604e-06
4.90888e-06
4.91179e-06
4.9113e-06
4.90824e-06
4.90803e-06
4.90726e-06
4.90846e-06
4.90926e-06
4.91149e-06
4.91263e-06
4.91466e-06
4.91862e-06
4.92315e-06
4.92864e-06
4.94181e-06
4.9632e-06
4.99647e-06
5.05026e-06
5.13066e-06
5.25037e-06
5.41587e-06
5.63252e-06
5.80572e-06
5.44111e-06
5.06182e-06
4.73308e-06
4.47739e-06
4.29287e-06
4.17009e-06
4.10278e-06
4.09118e-06
4.14554e-06
4.28753e-06
4.54564e-06
4.9091e-06
5.3468e-06
5.83467e-06
6.30847e-06
6.65093e-06
6.83644e-06
6.89621e-06
6.70922e-06
6.45052e-06
6.0715e-06
5.33835e-06
4.08124e-06
2.89625e-06
2.40444e-06
2.68459e-06
2.79054e-06
2.78849e-06
2.78747e-06
2.7873e-06
2.78744e-06
2.78804e-06
2.78838e-06
2.7883e-06
2.78831e-06
2.78824e-06
2.78797e-06
2.78772e-06
2.78744e-06
2.78723e-06
2.78681e-06
2.78526e-06
2.78543e-06
2.78559e-06
2.78702e-06
2.78736e-06
2.78746e-06
2.78731e-06
2.78718e-06
2.78753e-06
2.78771e-06
2.78765e-06
2.78804e-06
2.78799e-06
2.78782e-06
2.78741e-06
2.78724e-06
2.78647e-06
2.78583e-06
2.7853e-06
2.78502e-06
2.78559e-06
2.78634e-06
2.78673e-06
2.78744e-06
2.78782e-06
2.78796e-06
2.78821e-06
2.78836e-06
2.78832e-06
2.78819e-06
2.78775e-06
2.78818e-06
2.7879e-06
2.78751e-06
2.78751e-06
2.78737e-06
2.78765e-06
2.78764e-06
2.78743e-06
2.78764e-06
2.78788e-06
2.78794e-06
2.78777e-06
2.78782e-06
2.78804e-06
2.7883e-06
2.7882e-06
2.78789e-06
2.78751e-06
2.787e-06
2.78499e-06
2.78124e-06
2.77499e-06
2.76293e-06
2.74292e-06
2.71367e-06
2.67312e-06
2.62062e-06
2.5546e-06
2.47403e-06
2.38011e-06
2.27268e-06
2.15179e-06
2.02224e-06
1.88985e-06
1.75982e-06
1.63748e-06
1.52947e-06
1.44307e-06
1.38412e-06
1.35881e-06
1.37102e-06
1.41543e-06
1.48872e-06
1.6276e-06
1.82819e-06
2.09125e-06
2.4014e-06
2.70613e-06
2.87035e-06
2.45383e-06
1.62131e-06
1.43258e-06
1.54753e-06
1.71331e-06
4.3539e-06
6.6457e-07
8.43892e-07
1.13741e-06
1.4624e-06
1.78629e-06
2.06359e-06
2.3478e-06
2.63161e-06
2.86751e-06
3.08362e-06
3.28616e-06
3.47364e-06
3.65596e-06
3.85449e-06
4.0976e-06
4.41078e-06
4.77435e-06
5.67444e-06
1.54257e-06
2.43923e-06
9.08399e-07
8.95331e-07
1.07752e-06
1.33874e-06
1.60085e-06
1.88269e-06
2.17415e-06
2.4348e-06
2.71323e-06
2.91314e-06
3.09701e-06
3.30073e-06
3.50579e-06
3.72708e-06
3.98434e-06
4.29019e-06
4.61306e-06
5.38249e-06
1.56149e-06
2.74418e-06
1.34608e-06
1.36078e-06
1.38102e-06
1.5375e-06
1.76597e-06
1.99295e-06
2.28017e-06
2.58522e-06
2.90198e-06
2.95462e-06
3.03928e-06
3.19349e-06
3.37941e-06
3.59171e-06
3.81779e-06
4.06224e-06
4.32903e-06
4.94067e-06
1.58761e-06
3.43728e-06
2.01486e-06
2.06804e-06
1.95656e-06
2.12357e-06
2.22718e-06
2.49324e-06
2.83995e-06
3.15345e-06
3.58282e-06
3.34205e-06
3.23284e-06
3.26475e-06
3.37411e-06
3.55096e-06
3.74949e-06
3.94557e-06
4.13706e-06
4.59014e-06
1.6165e-06
4.25499e-06
2.98023e-06
3.03769e-06
2.8057e-06
3.13395e-06
3.15548e-06
3.57164e-06
3.87212e-06
4.33948e-06
4.66607e-06
4.06832e-06
3.74608e-06
3.57384e-06
3.5227e-06
3.59826e-06
3.74211e-06
3.87751e-06
4.00396e-06
4.22224e-06
1.65491e-06
5.37503e-06
4.36224e-06
4.40118e-06
4.1522e-06
4.62953e-06
4.77128e-06
5.36737e-06
5.68875e-06
6.51529e-06
6.16886e-06
5.3498e-06
4.74798e-06
4.27102e-06
3.96942e-06
3.87523e-06
3.89274e-06
3.92379e-06
3.92356e-06
3.87767e-06
1.70845e-06
7.10448e-06
6.5034e-06
6.60702e-06
6.36294e-06
7.06064e-06
7.28998e-06
8.31259e-06
8.79801e-06
1.00529e-05
8.58484e-06
7.40442e-06
6.38166e-06
5.53616e-06
4.91166e-06
4.59223e-06
4.39033e-06
4.21279e-06
3.91941e-06
3.46428e-06
1.75667e-06
1.01245e-05
1.00238e-05
1.00697e-05
9.81847e-06
1.07709e-05
1.1123e-05
1.25547e-05
1.34921e-05
1.40532e-05
1.16924e-05
1.00256e-05
8.52765e-06
7.24603e-06
6.27731e-06
5.69129e-06
5.16632e-06
4.62624e-06
3.91151e-06
2.97965e-06
1.76955e-06
1.45508e-05
1.48493e-05
1.44933e-05
1.42636e-05
1.54246e-05
1.58499e-05
1.62387e-05
1.62832e-05
1.53545e-05
1.45572e-05
1.24043e-05
1.05044e-05
8.8346e-06
7.57181e-06
6.72314e-06
5.85932e-06
4.95176e-06
3.82911e-06
2.4793e-06
1.65333e-06
1.91757e-05
1.95149e-05
1.84518e-05
1.85555e-05
1.78713e-05
1.82598e-05
1.70615e-05
1.71546e-05
1.57407e-05
1.50384e-05
1.31367e-05
1.15302e-05
9.65446e-06
8.23773e-06
7.24173e-06
6.18825e-06
5.07878e-06
3.72772e-06
2.15897e-06
1.44943e-06
1.87265e-05
1.89119e-05
1.79523e-05
1.8112e-05
1.74878e-05
1.7915e-05
1.68003e-05
1.69221e-05
1.56089e-05
1.49199e-05
1.31549e-05
1.12209e-05
9.40408e-06
8.03408e-06
7.08999e-06
6.10802e-06
5.08369e-06
3.84916e-06
2.39393e-06
1.61488e-06
1.37108e-05
1.40186e-05
1.35727e-05
1.333e-05
1.43929e-05
1.47259e-05
1.56242e-05
1.56785e-05
1.50162e-05
1.34175e-05
1.14348e-05
9.68381e-06
8.16635e-06
7.01768e-06
6.28828e-06
5.58868e-06
4.86837e-06
3.96528e-06
2.89402e-06
1.77331e-06
9.46901e-06
9.21913e-06
9.27818e-06
8.93139e-06
9.76087e-06
9.99395e-06
1.12372e-05
1.19773e-05
1.2427e-05
1.02924e-05
8.82612e-06
7.51481e-06
6.4228e-06
5.59567e-06
5.13955e-06
4.78947e-06
4.46191e-06
4.00972e-06
3.39462e-06
1.7839e-06
6.7784e-06
6.07269e-06
6.102e-06
5.79948e-06
6.38871e-06
6.52266e-06
7.38849e-06
7.73285e-06
8.77507e-06
7.43588e-06
6.40722e-06
5.55329e-06
4.8743e-06
4.38588e-06
4.17474e-06
4.09774e-06
4.06516e-06
3.98453e-06
3.8439e-06
1.74825e-06
5.21931e-06
4.14626e-06
4.1556e-06
3.85456e-06
4.25828e-06
4.33421e-06
4.84121e-06
5.08381e-06
5.7769e-06
5.45494e-06
4.71486e-06
4.22402e-06
3.87614e-06
3.68146e-06
3.66788e-06
3.75841e-06
3.87633e-06
3.99396e-06
4.19264e-06
1.70319e-06
4.16942e-06
2.85338e-06
2.88856e-06
2.6394e-06
2.9236e-06
2.90631e-06
3.26083e-06
3.52368e-06
3.90568e-06
4.20451e-06
3.68772e-06
3.44535e-06
3.3531e-06
3.36812e-06
3.4932e-06
3.67795e-06
3.86325e-06
4.085e-06
4.571e-06
1.67251e-06
3.38624e-06
1.93301e-06
1.96713e-06
1.85584e-06
2.0071e-06
2.09658e-06
2.32513e-06
2.64074e-06
2.91581e-06
3.28379e-06
3.11411e-06
3.05975e-06
3.13747e-06
3.2795e-06
3.4763e-06
3.6914e-06
3.93071e-06
4.21893e-06
4.90735e-06
1.64912e-06
2.75231e-06
1.30211e-06
1.30415e-06
1.32207e-06
1.47833e-06
1.69704e-06
1.91858e-06
2.18637e-06
2.4621e-06
2.75241e-06
2.83766e-06
2.95132e-06
3.11974e-06
3.30663e-06
3.51623e-06
3.76348e-06
4.0568e-06
4.39838e-06
5.24519e-06
1.62502e-06
2.54696e-06
8.82949e-07
8.74349e-07
1.05329e-06
1.30717e-06
1.56291e-06
1.83835e-06
2.13262e-06
2.3883e-06
2.64906e-06
2.86129e-06
3.0542e-06
3.2578e-06
3.45596e-06
3.66955e-06
3.93019e-06
4.25963e-06
4.66505e-06
5.69905e-06
1.60139e-06
4.65424e-06
6.50766e-07
8.33425e-07
1.12903e-06
1.45281e-06
1.7717e-06
2.03546e-06
2.30911e-06
2.58989e-06
2.81879e-06
3.03385e-06
3.23636e-06
3.41896e-06
3.59224e-06
3.77859e-06
4.02413e-06
4.37023e-06
4.78803e-06
5.90495e-06
1.58573e-06
1.24234e-06
0.000116992
0.000293901
0.000330838
0.000334809
0.000335381
0.0003354
0.000335356
0.000335337
0.000335329
0.000335327
0.000335334
0.000335354
0.000335398
0.000335378
0.000334806
0.000330839
0.000293922
0.000117019
1.24233e-06
1.36804e-06
6.78861e-05
0.000218285
0.000308517
0.000330746
0.000334358
0.000335093
0.000335263
0.000335299
0.000335316
0.000335324
0.000335311
0.000335266
0.000335076
0.000334345
0.000330741
0.000308522
0.000218298
6.79291e-05
1.36796e-06
1.48025e-06
5.56671e-05
0.000182358
0.00028447
0.000323263
0.000332657
0.000334686
0.0003352
0.000335361
0.000335418