/*--------------------------------*- C++ -*----------------------------------*\
| =========                 |                                                 |
| \\      /  F ield         | OpenFOAM: The Open Source CFD Toolbox           |
|  \\    /   O peration     | Version:  2.1.0                                 |
|   \\  /    A nd           | Web:      www.OpenFOAM.org                      |
|    \\/     M anipulation  |                                                 |
\*---------------------------------------------------------------------------*/
FoamFile
{
    version     2.0;
    format      ascii;
    class       volScalarField;
    location    "0.02";
    object      omega;
}
// * * * * * * * * * * * * * * * * * * * * * * * * * * * * * * * * * * * * * //

dimensions      [0 0 -1 0 0 0 0];

internalField   nonuniform List<scalar> 
6400
(
1196.68
1196.8
1196.85
1196.94
1197
1197.01
1196.95
1196.79
1196.74
1196.66
1196.51
1196.46
1196.45
1196.45
1196.5
1196.52
1196.58
1196.71
1196.81
1196.88
1196.91
1196.91
1196.87
1196.77
1196.67
1196.61
1196.61
1196.63
1196.66
1196.71
1196.73
1196.74
1196.74
1196.73
1196.75
1196.8
1196.85
1196.9
1196.97
1196.98
1196.97
1196.91
1196.78
1196.72
1196.66
1196.57
1196.57
1196.62
1196.61
1196.58
1196.58
1196.58
1196.52
1196.52
1196.57
1196.65
1196.74
1196.79
1196.82
1196.9
1197
1197.16
1197.23
1197.18
1196.95
1196.36
1195.15
1193.08
1189.75
1184.5
1176.79
1166.36
1152.84
1135.57
1114.49
1089.41
1059.79
1025.69
987.959
947.69
906.081
864.62
824.783
788.351
756.873
731.605
712.783
698.806
686.825
681.023
678.787
676.806
671.573
656.945
629.904
569.046
500.793
512.035
594.655
621.678
299.058
298.204
297.94
297.844
297.963
297.859
297.693
297.502
297.449
297.302
297.266
297.387
297.428
297.583
297.631
297.757
297.834
298.041
298.072
298.191
297.878
297.831
297.713
297.631
297.602
297.552
297.584
297.667
297.796
298.039
298.072
297.939
297.86
297.784
297.747
297.784
297.825
297.782
297.925
297.848
297.696
297.551
297.515
297.404
297.374
297.178
297.17
297.357
297.446
297.45
297.586
297.619
297.508
297.589
297.883
297.967
298.125
298.028
297.974
298.102
298.239
298.243
298.234
298.004
297.641
297.153
296.246
294.956
293.423
291.021
287.636
282.791
276.804
268.407
258.406
247.545
239.847
237.531
237.85
246.207
269.258
308.829
364.794
433.717
506.779
580.5
657.361
738.765
816.469
891.755
969.412
1050.04
1130.53
1199.14
1229.04
1232.69
1130.83
904.068
746.106
585.327
41.5153
41.2169
41.1427
41.1477
41.2333
41.1118
40.9611
41.0081
41.0667
41.2242
41.226
41.1982
41.1338
41.1286
41.2793
41.3112
41.3201
41.2937
41.2337
41.2772
41.1743
41.182
41.1557
40.9851
40.9509
40.965
41.0829
41.0928
41.0455
41.2124
41.169
41.0667
41.0396
41.0138
41.1225
41.2614
41.3396
41.3031
41.3864
41.3308
41.1419
40.951
41.0507
41.0614
41.1581
41.2729
41.3012
41.2961
41.2038
40.9993
41.0508
41.0997
41.1375
41.2597
41.2803
41.1703
41.3616
41.4566
41.5547
41.5781
41.6856
41.6975
41.8954
41.8953
41.8777
41.8221
41.5469
41.0169
39.981
38.4555
36.6278
34.9809
34.3676
34.3608
35.4982
39.82
50.079
69.5359
100.105
141.587
192.911
252.312
318.773
389.977
461.736
530.396
593.596
651.38
707.481
766.493
829.028
890.353
942.41
969.795
980.067
966.307
871.672
733.776
595.665
491.084
7.51063
7.54584
7.61925
7.64293
7.56674
7.60267
7.59351
7.56384
7.55825
7.53958
7.56069
7.5543
7.54833
7.56775
7.53352
7.56695
7.63294
7.61253
7.67659
7.59572
7.64533
7.6034
7.57083
7.57856
7.60922
7.62286
7.56599
7.61599
7.68137
7.56223
7.5947
7.59561
7.55187
7.57983
7.56733
7.59902
7.58529
7.65014
7.61036
7.67582
7.68649
7.71471
7.6173
7.57759
7.55798
7.60451
7.6409
7.6199
7.64187
7.70611
7.69129
7.62255
7.64524
7.6037
7.59817
7.73574
7.60164
7.63675
7.60494
7.6968
7.77035
7.80958
7.72299
7.71781
7.69959
7.5337
7.48093
7.35198
7.09361
6.81357
6.72656
6.88877
7.76872
9.99275
14.3088
21.9002
34.3956
53.8806
82.2167
120.488
168.104
223.441
284.173
345.919
403.081
450.736
487.341
516.425
544.456
575.129
604.604
625.316
635.331
639.218
636.211
607.301
560.066
504.343
451.265
425.844
2.74353
2.72572
2.75499
2.77429
2.77309
2.79829
2.80941
2.78934
2.76207
2.75924
2.77014
2.79497
2.84907
2.8126
2.79022
2.75732
2.76993
2.76864
2.78743
2.75994
2.75971
2.73945
2.73913
2.76505
2.77353
2.75637
2.74616
2.77887
2.78768
2.78949
2.78116
2.80351
2.80384
2.78743
2.79293
2.81702
2.81296
2.85441
2.80408
2.80245
2.82677
2.86466
2.83738
2.83389
2.77516
2.74013
2.73461
2.74571
2.77879
2.81624
2.79059
2.7887
2.79129
2.77507
2.79575
2.85059
2.80943
2.80242
2.81746
2.82071
2.81397
2.82519
2.79695
2.76373
2.71756
2.71378
2.64554
2.61657
2.6291
2.70565
2.84905
3.24557
4.16845
6.06333
9.53959
15.595
25.666
41.5212
64.9931
97.4784
138.783
187.38
240.042
291.352
335.266
367.815
389.394
404.808
419.716
435.479
446.868
452.257
454.619
454.807
448.488
435.329
420.023
403.2
394.048
390.63
1.99702
1.97487
1.97628
1.99195
2.02842
2.03975
2.03784
2.03301
2.01899
2.02705
2.04323
2.06145
2.08657
2.05103
2.04034
2.00501
2.0051
2.0043
2.02096
2.011
2.02125
2.01038
1.9975
2.00065
1.99283
1.99917
2.03459
2.06813
2.08293
2.07758
2.09918
2.10413
2.10501
2.09002
2.0656
2.057
2.07834
2.09488
2.05789
2.03413
2.03268
2.06522
2.0576
2.06901
2.04097
1.99291
1.98426
1.99365
1.99317
2.00612
2.00451
2.01444
2.01291
2.01948
2.03061
2.0516
2.024
2.03123
2.02378
2.00493
2.01468
2.01515
2.0387
2.00042
1.96052
1.95112
1.89592
1.86473
1.87378
1.94558
2.01991
2.32545
2.9921
4.41811
7.16931
12.1159
20.5777
34.2555
54.9398
83.9384
121.088
164.559
210.513
253.313
287.641
311.008
325.143
334.658
343.798
353.524
361.428
365.247
367.144
367.858
367.915
366.762
365.57
365.135
367.337
368.125
1.91578
1.89526
1.91188
1.93522
1.94031
1.96355
1.97502
1.96613
1.95474
1.95333
1.96405
1.97613
1.94446
1.91704
1.91257
1.92343
1.92568
1.91736
1.90483
1.90954
1.94203
1.9647
1.92522
1.90861
1.9232
1.94058
1.94378
1.98545
1.9968
1.99063
2.01845
2.01729
2.00053
1.99784
1.97613
1.95868
1.97216
1.97219
1.96716
1.94233
1.94921
1.9672
1.96634
1.9367
1.90699
1.90514
1.93402
1.93604
1.98697
1.95603
1.97059
1.97801
1.98401
1.93916
1.92682
1.9226
1.96113
1.95749
1.92675
1.91769
1.95382
1.95916
1.91119
1.92322
1.86744
1.79545
1.75993
1.75638
1.73288
1.77215
1.83004
2.05225
2.56569
3.76162
6.08873
10.3535
17.7342
29.7633
48.1021
73.9405
107.183
146.056
186.804
224.162
253.625
273.593
286.139
295.281
303.973
312.488
319.671
324.903
328.92
332.819
336.602
340.144
344.539
349.982
353.749
354.732
1.89191
1.89212
1.89734
1.90909
1.92264
1.91634
1.91626
1.91881
1.92154
1.93751
1.95995
1.95952
1.93679
1.89607
1.88959
1.90486
1.91256
1.91641
1.91557
1.90175
1.92366
1.90581
1.92112
1.93102
1.92758
1.92612
1.94415
1.96437
1.95421
1.98917
1.99593
2.00889
1.99024
1.97974
1.94102
1.93063
1.96359
1.94489
1.9453
1.92424
1.91119
1.90862
1.89213
1.90379
1.90913
1.90791
1.93439
1.96427
1.96127
1.98294
1.97833
1.96417
1.98387
1.97002
1.95823
1.96523
1.94931
1.9713
1.90689
1.9166
1.96881
1.93402
1.94974
1.95146
1.82877
1.76028
1.67882
1.64239
1.62857
1.64929
1.71564
1.92164
2.41215
3.49074
5.62208
9.52705
16.2654
27.227
43.9098
67.3693
97.5382
132.731
169.425
202.974
229.605
248.237
261.001
271.484
281.99
292.201
300.738
307.647
314.392
321.638
328.763
335.704
343.571
351.364
355.225
356.159
1.91815
1.93122
1.92266
1.9399
1.94544
1.94539
1.94579
1.94433
1.93189
1.93599
1.93277
1.94097
1.91322
1.89682
1.90536
1.90825
1.8864
1.88797
1.88163
1.91528
1.89746
1.91708
1.91555
1.92328
1.91766
1.91833
1.89723
1.88797
1.92561
1.9453
1.95771
1.97109
1.94934
1.89147
1.87106
1.90366
1.96039
1.95374
1.89374
1.90114
1.90281
1.90292
1.89738
1.88581
1.90101
1.88538
1.93215
1.97041
2.02627
1.95948
1.94864
1.94726
1.93996
1.93928
1.92385
1.92562
1.90024
1.88816
1.8692
1.91597
1.91034
1.94002
1.94479
1.86758
1.79964
1.7521
1.72421
1.62648
1.59294
1.59366
1.65397
1.85284
2.34004
3.39111
5.44581
9.1915
15.6238
26.0529
41.8578
63.9722
92.3071
125.23
159.382
190.458
215.091
232.556
245.152
256.388
268.297
280.294
290.881
300.049
309.196
319.024
328.894
338.5
348.45
358.327
363.28
364.816
1.96852
1.97093
1.96189
1.94776
1.93359
1.95123
1.97168
1.97251
1.97481
1.93476
1.91342
1.90518
1.91103
1.91045
1.89975
1.90074
1.90477
1.8857
1.89526
1.89864
1.90397
1.8998
1.91776
1.91534
1.90507
1.87714
1.87442
1.88208
1.88905
1.92275
1.93697
1.90664
1.87438
1.88971
1.87196
1.88553
1.89017
1.9386
1.95296
1.96215
1.95143
1.90617
1.89571
1.90798
1.91182
1.90711
1.9061
1.91527
1.95372
1.9535
1.95712
1.97731
1.98093
1.9317
1.93549
1.93846
1.92983
1.87492
1.84703
1.84155
1.85942
1.88352
1.88248
1.88181
1.85201
1.78117
1.74056
1.6414
1.59277
1.59064
1.63749
1.82632
2.31438
3.37204
5.41242
9.0968
15.417
25.6394
41.0952
62.6565
90.263
122.299
155.453
185.545
209.346
226.258
238.661
250.052
262.399
275.063
286.536
296.799
307.226
318.523
330.116
341.656
353.554
365.107
370.84
372.664
1.99082
1.97796
1.99194
1.98763
1.99435
1.99311
1.99634
2.00157
1.94436
1.92324
1.91482
1.92717
1.95682
1.95302
1.95492
1.91207
1.91024
1.92021
1.91273
1.8869
1.88136
1.90788
1.92194
1.90568
1.92599
1.87627
1.85889
1.88689
1.88511
1.90633
1.91353
1.90913
1.89674
1.88094
1.87307
1.88074
1.91998
1.9204
1.92101
1.95007
1.95058
1.93656
1.92566
1.92801
1.94576
1.95021
1.95324
1.97392
1.9702
1.93879
1.9543
1.9514
1.92695
1.93863
1.92775
1.92356
1.898
1.88185
1.8814
1.86915
1.88332
1.88827
1.89803
1.84463
1.82188
1.80978
1.77974
1.6908
1.61365
1.60256
1.64273
1.83541
2.34028
3.40937
5.46307
9.16808
15.5124
25.7686
41.2857
62.9426
90.667
122.845
156.161
186.413
210.331
227.281
239.641
250.915
263.078
275.488
286.644
296.537
306.561
317.416
328.521
339.551
350.966
362.05
367.541
369.257
1.9748
1.99341
1.96989
1.98313
1.99704
1.97335
1.94774
1.9412
1.92043
1.8959
1.87296
1.86654
1.89759
1.89364
1.94885
1.95762
1.93774
1.90956
1.90909
1.91499
1.91366
1.91963
1.93264
1.90425
1.86928
1.85375
1.8575
1.84658
1.87442
1.87643
1.9233
1.94168
1.94158
1.9386
1.92227
1.91734
1.91564
1.93065
1.97434
1.97876
1.95547
1.96432
1.97052
1.97696
1.98915
1.99339
1.9926
1.95206
1.94252
1.95352
1.93921
1.92428
1.95201
1.94209
1.94536
1.92067
1.90892
1.9121
1.91307
1.89929
1.90168
1.8858
1.85661
1.84902
1.84708
1.83236
1.75208
1.68711
1.64107
1.63878
1.69241
1.89867
2.41872
3.50968
5.60262
9.37516
15.8517
26.3364
42.2374
64.4698
92.9603
126.077
160.477
191.858
216.769
234.42
247.05
258.128
269.681
281.122
290.967
299.264
307.489
316.184
324.745
333.143
341.966
350.694
355.022
356.247
1.96485
2.0165
2.02867
1.97505
1.9586
1.94853
1.951
1.95506
1.93904
1.87045
1.8308
1.82813
1.85817
1.88617
1.87901
1.88207
1.90863
1.91657
1.93091
1.90485
1.90576
1.90658
1.92385
1.92687
1.88901
1.84936
1.85112
1.88269
1.88729
1.90016
1.90027
1.92777
1.92547
1.93044
1.93757
1.94926
1.9416
1.96351
1.9629
1.98552
2.00561
2.00577
1.99756
2.01059
2.04029
2.04911
1.98607
1.97527
1.96532
1.95839
1.94952
1.97418
1.96015
1.94619
1.95016
1.91569
1.90551
1.89729
1.91173
1.89632
1.889
1.87477
1.8431
1.83347
1.80299
1.7845
1.7608
1.70614
1.68469
1.70164
1.76932
1.98899
2.53131
3.68977
5.90444
9.8849
16.717
27.8329
44.7424
68.4492
98.9003
134.456
171.597
205.667
232.734
251.542
264.106
273.987
283.638
292.892
300.5
306.502
312.187
318.27
324.311
330.332
337.487
344.428
347.809
348.385
1.93571
1.94112
1.92354
1.93185
1.93155
1.90816
1.9137
1.89058
1.87892
1.88417
1.82126
1.83285
1.84936
1.84821
1.85913
1.85858
1.88297
1.8962
1.87913
1.89493
1.87751
1.89626
1.89044
1.90619
1.88624
1.88554
1.86122
1.88503
1.94014
1.94344
1.96157
1.966
1.99843
2.02116
2.01016
1.94842
1.9602
1.97155
2.01553
2.04452
2.04338
2.00248
1.99859
1.9929
1.98495
1.97352
1.98043
1.95355
1.94681
1.92357
1.91672
1.91416
1.91225
1.90968
1.91894
1.91271
1.88659
1.88811
1.90259
1.91652
1.93328
1.93645
1.9035
1.84943
1.83355
1.82099
1.79563
1.76954
1.76029
1.80893
1.88652
2.12798
2.73466
4.01512
6.46051
10.8616
18.3834
30.6495
49.2764
75.3886
108.948
148.191
189.358
227.238
257.13
277.233
289.454
297.798
305.483
313.369
320.399
325.12
328.176
331.183
334.281
336.939
340.378
344.658
347.794
348.506
2.03472
2.04076
1.99504
1.95378
1.94049
1.93675
1.93378
1.97732
1.97684
1.97351
1.94832
1.93815
1.9102
1.90618
1.92549
1.94044
1.94934
1.9328
1.96351
1.94774
1.95008
1.94144
1.97773
1.99704
1.98384
1.96826
1.97195
1.96501
1.97953
1.99413
1.99458
2.02169
2.08696
2.11165
2.11372
2.10872
2.06454
2.06663
2.07763
2.07652
2.07834
2.06063
2.05053
2.03279
2.03077
2.03079
2.01715
2.01464
2.00607
1.9997
1.95994
1.95668
1.97739
2.00265
2.02183
1.97088
1.92752
1.92681
1.94694
1.96906
1.98849
2.00653
2.01468
1.98157
1.95808
1.91694
1.89831
1.90151
1.90658
2.00541
2.15337
2.44511
3.16291
4.72677
7.60028
12.7312
21.3927
35.3526
56.3936
85.6924
123.107
166.894
213.17
256.405
291.096
314.51
328.352
337.508
346.685
356.694
364.526
368.383
370.204
370.803
370.492
367.317
364.31
362.876
362.718
363.206
2.76738
2.75998
2.74279
2.68998
2.68371
2.68299
2.67906
2.70115
2.74553
2.76334
2.76222
2.7217
2.68273
2.67503
2.63876
2.65878
2.72137
2.67344
2.67686
2.69756
2.74115
2.70983
2.70447
2.72448
2.71238
2.70805
2.74734
2.72262
2.73452
2.74515
2.7689
2.77704
2.83132
2.88028
2.85843
2.83477
2.81285
2.81903
2.84067
2.8311
2.80484
2.79702
2.77138
2.76744
2.73818
2.70334
2.72088
2.72315
2.73854
2.7468
2.69092
2.6963
2.68502
2.70434
2.7284
2.69736
2.69977
2.7063
2.7006
2.72583
2.76064
2.8098
2.83502
2.7693
2.73999
2.73768
2.71343
2.71877
2.70776
2.7711
2.9512
3.34934
4.29573
6.30431
9.91445
16.169
26.4817
42.6162
66.4278
99.1395
140.544
189.266
242.046
293.598
337.822
370.607
392.401
408.253
424.134
441.241
454.691
461.719
465.489
466.5
461.631
445.779
426.536
405.368
391.207
385.436
7.52583
7.49816
7.50022
7.46988
7.49589
7.40192
7.48484
7.51258
7.50215
7.54753
7.53121
7.48741
7.49302
7.51703
7.45044
7.44124
7.4932
7.43138
7.45649
7.44522
7.50761
7.52656
7.51809
7.45862
7.51654
7.49477
7.59381
7.5517
7.54785
7.58629
7.58166
7.50532
7.53726
7.59051
7.60595
7.57498
7.59805
7.61609
7.63836
7.66153
7.56512
7.61058
7.57045
7.64065
7.56875
7.51572
7.54586
7.47563
7.50414
7.51623
7.48361
7.51545
7.55424
7.48905
7.58926
7.57068
7.59758
7.59392
7.61002
7.64667
7.69518
7.75242
7.84278
7.76446
7.78563
7.75348
7.70254
7.64986
7.25693
6.92183
6.85512
6.93555
7.76362
9.96132
14.3768
22.1226
34.8449
54.5977
83.1813
121.517
168.942
224.002
284.413
346.066
403.458
451.626
488.973
519.064
548.773
582.365
616.322
642.993
659.136
665.95
666.298
639.06
582.412
521.096
457.376
423.037
41.5713
41.1395
41.0213
41.0051
41.0072
41.1591
41.1918
41.2154
41.2224
41.1904
41.2497
41.264
41.2343
41.114
41.073
40.913
40.8156
40.9297
40.9974
40.9643
40.893
40.9098
41.1102
41.2199
41.2932
41.2503
41.1922
41.2179
41.1117
40.9696
40.9042
40.9413
40.9374
40.8754
40.8557
41.1012
41.1548
41.1814
41.0963
41.1092
41.2765
41.3077
41.3574
41.1188
41.0901
41.069
41.0365
41.062
41.0108
41.0141
41.1922
41.2286
41.3006
41.3217
41.1998
41.2865
41.2333
41.3313
41.3903
41.6016
41.6668
41.6897
41.6486
41.876
41.9109
41.841
41.6401
41.2488
40.6403
38.9073
36.9167
34.8732
34.119
34.0765
35.1693
39.4826
49.8348
69.4921
100.154
141.431
192.224
250.864
316.42
386.829
458.122
526.801
590.498
649.122
706.519
767.897
834.623
902.552
963.887
1000.27
1014.17
1006.82
909.39
761.45
621.559
497.502
298.726
297.922
297.688
297.632
297.602
297.795
297.877
297.967
298.087
298.009
298.014
298.077
298.032
297.886
297.873
297.605
297.376
297.526
297.691
297.835
297.773
297.88
297.841
297.98
298.049
298.423
298.507
298.655
298.356
298.125
297.875
297.637
297.521
297.416
297.281
297.241
297.457
297.587
297.824
297.917
297.966
297.925
298.211
298.264
298.17
298.06
297.918
297.935
297.919
297.887
297.943
297.943
297.996
298.048
297.739
297.751
297.68
297.568
297.571
297.518
297.56
297.409
297.075
296.893
296.668
296.171
295.178
293.849
292.101
289.502
285.963
281.245
274.922
266.558
256.167
244.831
236.909
234.427
234.624
242.696
265.341
304.216
359.182
426.836
498.466
570.596
645.45
725.552
803.149
878.406
956.019
1036.77
1117.31
1184.58
1212.89
1215.5
1115.33
908.298
760.562
600.482
1196.77
1196.79
1196.7
1196.67
1196.67
1196.75
1196.84
1196.87
1196.89
1196.89
1196.89
1196.9
1196.9
1196.88
1196.79
1196.6
1196.4
1196.37
1196.49
1196.57
1196.56
1196.55
1196.56
1196.62
1196.67
1196.74
1196.84
1196.93
1196.97
1196.97
1196.94
1196.81
1196.65
1196.52
1196.36
1196.34
1196.4
1196.46
1196.59
1196.66
1196.7
1196.76
1196.86
1196.94
1196.99
1197
1197
1196.97
1196.93
1196.91
1196.93
1196.98
1197.02
1197.06
1197.06
1197.06
1197.05
1197.02
1197.01
1197.02
1197.06
1197.01
1196.84
1196.61
1196.31
1195.61
1194.35
1192.31
1188.85
1183.37
1175.41
1164.54
1150.47
1132.71
1110.84
1084.9
1054.69
1020
981.684
940.947
898.994
857.149
817.087
780.684
749.367
724.344
705.869
691.977
680.347
675.547
673.913
672.049
665.434
648.418
617.007
557.841
492.645
506.147
600.832
633.496
592.374
283.113
156.817
106.326
83.4471
72.1049
59.2357
52.9471
49.7969
45.0022
42.9278
40.952
39.0883
38.4767
38.5188
42.1587
58.8292
114.203
282.418
557.811
525.289
294.011
192.289
137.377
108.108
87.6243
74.6877
67.1634
59.9287
55.7513
53.0265
50.5968
48.9051
48.2523
48.3177
53.6219
73.9555
135.017
302.024
545.501
459.171
287.171
217.104
161.729
129.023
107.772
91.4049
81.5346
74.3156
68.698
65.4061
63.1355
61.9257
61.6391
62.3971
70.0915
95.0721
161.66
323.416
531.321
401.474
278.88
232.945
177.066
150.807
124.983
109.856
99.487
89.9457
84.4864
81.1242
78.3914
77.556
77.5497
80.3173
91.4327
121.413
191.673
344.016
515.197
357.821
273.554
240.702
191.521
169.915
143.931
131.621
117.945
109.231
103.982
98.8896
96.7346
96.0098
96.4346
101.815
116.982
151.776
223.604
362.372
497.712
329.306
272.037
247.269
207.337
189.699
165.822
154.671
139.924
132.923
124.98
121.101
119.187
118.579
120.077
128.664
147.885
186.342
256.644
377.4
479.031
315.966
277.994
260.74
227.791
213.097
191.12
180.814
166.343
159.638
151.66
148.127
146.265
145.861
149.052
160.916
183.241
222.816
287.732
386.829
457.697
320.212
294.303
280.575
252.028
239.08
218.373
208.6
194.373
187.768
179.688
176.086
174.355
174.157
179.101
193.407
217.03
254.94
311.588
388.13
433.488
333.479
312.752
298.126
273.246
261.137
241.01
231.434
217.048
210.306
201.81
198.102
196.467
196.403
202.549
217.998
241.315
276.412
325.941
381.717
406.734
341.826
322.263
308.223
284.308
272.506
252.493
242.921
228.185
221.25
212.422
208.632
207.002
206.976
213.571
229.312
252.147
285.698
331.419
371.939
388.512
338.384
318.946
304.74
280.987
269.214
249.271
239.737
225.107
218.227
209.456
205.66
204.003
203.954
210.406
226.142
249.323
283.786
331.761
381.234
402.538
324.387
304.68
289.008
264.563
252.483
232.445
222.92
208.66
201.989
193.551
189.795
188.028
187.868
193.442
208.578
232.407
269.37
322.873
392.39
430.212
310.673
283.335
270.073
240.885
227.858
207.116
197.325
183.014
176.367
168.153
164.487
162.493
162.126
166.069
179.398
202.904
242.576
305.006
395.342
456.261
308.941
269.295
250.973
217.598
202.67
180.544
170.16
155.505
148.675
140.337
136.591
134.476
133.885
136.006
146.363
167.667
207.755
277.267
390.411
479.677
324.089
265.387
240.252
199.51
181.551
157.455
146.229
131.453
124.352
116.44
111.939
109.81
109.054
109.783
116.78
134.397
172.075
245.196
378.688
500.548
352.854
267.415
234.307
185.13
163.39
137.134
124.668
111.342
102.319
97.4129
91.9759
89.5747
88.7255
88.8039
92.8911
106.37
139.718
212.886
362.739
520.363
395.905
272.326
226.249
171.244
145.243
119.693
104.248
94.223
84.5779
79.0996
75.8698
72.7511
71.6388
71.4775
73.2522
82.8268
111.252
181.936
343.827
538.711
455.209
280.764
210.847
156.271
124.45
103.248
87.2365
77.5846
70.1213
64.568
61.4528
58.9713
57.2716
56.7541
56.9138
63.568
87.0808
153.346
323.141
554.88
527.855
287.028
187.014
132.522
104.164
84.2784
71.1074
64.1576
57.1765
52.4883
50.1391
47.5488
45.5436
44.7177
44.7271
49.3025
68.6468
129.322
302.732
568.936
604.509
273.701
152.199
102.752
80.2518
69.2143
56.6357
50.4122
47.5582
42.7374
40.3042
38.8371
36.7453
36.095
36.0645
39.4449
55.5601
111.129
285.039
581.215
647.702
32.0655
12.7479
11.3244
11.1898
11.1704
11.1694
11.1704
11.1707
11.1708
11.1709
11.1708
11.1704
11.1693
11.1703
11.1898
11.3242
12.7468
32.0579
647.701
672.412
55.2889
17.1352
12.1203
11.3031
11.1792
11.154
11.1483
11.1474
11.1473
11.1473
11.1475
11.1483
11.1541
11.1792
11.3029
12.1199
17.1341
55.254
672.413
692.676
67.4959
20.4663
13.1195
11.5465
11.2227
11.1579
11.144
11.142
11.1434
11.1446
11.1445
11.1469
11.1595
11.2233
11.5459
13.1154
20.448
67.4317
692.682
721.793
83.4234
24.6086
14.4927
12.0082
11.3418
11.1848
11.151
11.1463
11.1469
11.1483
11.1507
11.1558
11.1881
11.3437
12.0094
14.4915
24.5987
83.3884
721.793
755.875
105.791
29.793
16.3093
12.7483
11.6257
11.2779
11.1871
11.1697
11.1731
11.1782
11.1817
11.1939
11.282
11.627
12.7455
16.3104
29.8013
105.776
755.874
780.626
122.896
34.3941
17.9931
13.3868
11.8443
11.3598
11.2377
11.2241
11.2428
11.2551
11.2566
11.2713
11.3751
11.8453
13.388
17.9836
34.4059
122.829
780.646
790.099
132.705
37.6934
18.9336
13.5756
11.8623
11.3662
11.2417
11.231
11.2579
11.2671
11.272
11.2896
11.3872
11.868
13.5747
18.9351
37.6497
132.569
790.149
790.128
141.361
39.126
19.0115
13.4701
11.7214
11.2403
11.1431
11.1406
11.1662
11.1711
11.1688
11.1743
11.26
11.7275
13.455
18.9977
39.0918
141.313
790.192
781.832
147.553
38.9622
18.3545
12.7122
11.0332
10.6326
10.6078
10.6424
10.6712
10.666
10.6463
10.622
10.6495
11.0348
12.6897
18.3107
38.9377
147.67
781.937
745.081
147.414
36.7401
15.4294
10.0775
8.69492
8.52146
8.68897
8.85645
8.93579
8.91904
8.81416
8.66634
8.52021
8.67856
10.0406
15.4316
36.6055
147.577
745.246
698.38
142.596
31.4084
11.651
6.93559
5.74173
5.62361
5.8103
6.06044
6.23643
6.22793
6.05853
5.80261
5.63085
5.74056
6.88394
11.7171
31.3184
142.852
698.451
668.217
135.124
27.5476
9.29816
4.85745
3.72535
3.58472
3.68858
3.84695
3.98025
3.97693
3.84716
3.69918
3.58055
3.76352
4.90281
9.28404
27.5162
135.362
668.228
651.63
130.816
25.3294
8.04506
3.80468
2.65044
2.43818
2.43305
2.50165
2.56522
2.56826
2.51745
2.46943
2.47483
2.67389
3.84656
8.16048
25.1837
130.844
651.594
643.446
128.619
24.0999
7.57191
3.37705
2.12687
1.85081
1.81226
1.82464
1.82308
1.85615
1.85188
1.85243
1.89507
2.18255
3.44056
7.58743
23.9964
128.594
643.426
639.635
127.58
23.4843
7.36763
3.22988
1.95469
1.61505
1.53936
1.53147
1.54305
1.55944
1.56386
1.58682
1.63785
1.93893
3.21046
7.41399
23.5004
127.517
639.635
637.852
126.972
23.1316
7.35106
3.20128
1.86899
1.54137
1.46716
1.42808
1.45276
1.46449
1.49266
1.479
1.55478
1.89192
3.21098
7.35852
23.0771
126.85
637.863
636.971
126.372
22.9441
7.239
3.19829
1.86936
1.50859
1.44455
1.42868
1.42484
1.40748
1.44553
1.45016
1.51443
1.85182
3.20566
7.3539
22.8004
126.349
636.978
636.512
125.955
22.7112
7.29174
3.17535
1.85455
1.50518
1.44936
1.43417
1.4139
1.40585
1.43547
1.44455
1.5033
1.87594
3.20561
7.15556
22.7798
125.996
636.49
636.233
125.735
22.6383
7.26919
3.16503
1.84239
1.50606
1.45321
1.43297
1.42124
1.42788
1.44782
1.4565
1.51083
1.84981
3.16107
7.19951
22.6642
125.696
636.233
636.08
125.6
22.6086
7.24034
3.15323
1.84016
1.49482
1.43932
1.43327
1.43557
1.44499
1.47254
1.47042
1.53596
1.84669
3.12319
7.1886
22.6062
125.474
636.077
635.979
125.512
22.5641
7.29182
3.11037
1.82482
1.50623
1.44919
1.44183
1.43093
1.47228
1.47721
1.48312
1.53535
1.85384
3.13401
7.21068
22.5372
125.351
635.993
635.877
125.339
22.4978
7.25561
3.15018
1.83852
1.51927
1.4551
1.43728
1.43656
1.46633
1.47307
1.49339
1.52333
1.85842
3.15041
7.10562
22.5909
125.336
635.906
635.781
125.16
22.4888
7.19863
3.17506
1.85647
1.51664
1.44799
1.4342
1.41896
1.45134
1.46406
1.45902
1.51096
1.83515
3.13207
7.16142
22.5501
125.275
635.823
635.72
125.03
22.41
7.25157
3.16874
1.84703
1.50795
1.44093
1.4415
1.41648
1.43545
1.45632
1.44602
1.50241
1.8275
3.09062
7.13047
22.5973
125.233
635.752
635.694
124.994
22.4151
7.23048
3.15844
1.83279
1.49662
1.43605
1.43783
1.42072
1.44793
1.44409
1.42758
1.50666
1.82357
3.08741
7.183
22.5367
125.181
635.702
635.682
125.037
22.5053
7.15452
3.13385
1.82803
1.49085
1.42419
1.41872
1.43016
1.43372
1.43717
1.42146
1.48766
1.82896
3.13515
7.15097
22.5222
125.115
635.677
635.672
125.024
22.4243
7.2435
3.139
1.82074
1.4838
1.4193
1.42393
1.42303
1.41778
1.43117
1.41342
1.48234
1.82846
3.15146
7.18557
22.444
124.958
635.627
635.648
124.981
22.3653
7.28372
3.14631
1.81489
1.47884
1.42666
1.4203
1.41389
1.41958
1.4164
1.42202
1.48643
1.83157
3.14078
7.16241
22.4695
124.854
635.589
635.625
124.924
22.3887
7.26739
3.11632
1.81116
1.48642
1.42396
1.41411
1.4169
1.42086
1.4234
1.42584
1.48887
1.80955
3.10052
7.23442
22.4506
124.829
635.588
635.606
124.839
22.3741
7.25097
3.12397
1.80629
1.48869
1.41997
1.41964
1.42492
1.42088
1.44601
1.42158
1.489
1.82337
3.11554
7.12027
22.53
124.841
635.6
635.603
124.81
22.4221
7.16131
3.12994
1.82104
1.49511
1.44604
1.4258
1.44604
1.43053
1.44196
1.4245
1.49728
1.82975
3.11221
7.04859
22.5734
124.883
635.622
635.616
124.822
22.397
7.1962
3.12386
1.81904
1.50718
1.44189
1.44989
1.44378
1.43086
1.43994
1.42909
1.50024
1.81923
3.08832
7.11818
22.5365
124.912
635.636
635.63
124.893
22.4042
7.14579
3.15041
1.83279
1.50055
1.45145
1.45039
1.44361
1.43626
1.43339
1.44903
1.49297
1.82627
3.09709
7.07692
22.5606
124.956
635.639
635.629
124.946
22.4974
7.11962
3.10515
1.83096
1.51462
1.4619
1.45955
1.4541
1.44545
1.43245
1.45507
1.48991
1.81751
3.13869
7.15913
22.471
124.977
635.627
635.612
124.942
22.4929
7.15112
3.08353
1.83322
1.5326
1.46718
1.45292
1.44448
1.44968
1.42504
1.43626
1.4863
1.82525
3.14544
7.17756
22.4593
124.994
635.584
635.576
124.888
22.4607
7.19099
3.09517
1.83497
1.52468
1.44965
1.42941
1.42345
1.43467
1.42798
1.41486
1.48195
1.82033
3.14549
7.17338
22.4957
125.014
635.555
635.551
124.856
22.4978
7.16264
3.07749
1.834
1.51911
1.45293
1.41036
1.40501
1.39832
1.42771
1.41838
1.47264
1.81279
3.1169
7.25029
22.4754
125
635.522
635.523
124.825
22.4816
7.1499
3.08589
1.83472
1.5182
1.43823
1.41655
1.3959
1.40287
1.41837
1.41831
1.4824
1.81832
3.13083
7.22327
22.4715
124.924
635.491
635.53
124.84
22.4968
7.13005
3.08745
1.83681
1.51296
1.42223
1.41489
1.40874
1.40053
1.40421
1.42987
1.50877
1.83498
3.11596
7.22038
22.477
124.845
635.485
635.544
124.902
22.5133
7.12565
3.11747
1.82414
1.49679
1.43534
1.40323
1.40665
1.39781
1.41255
1.43461
1.54056
1.88907
3.15205
7.11527
22.5098
124.849
635.495
635.542
125.066
22.5156
7.18292
3.1457
1.82147
1.49632
1.43273
1.40624
1.38989
1.4029
1.42644
1.46757
1.53887
1.87652
3.15852
7.14969
22.5163
124.952
635.504
635.53
125.178
22.527
7.20859
3.14117
1.85443
1.49527
1.44371
1.40492
1.40021
1.40656
1.40451
1.46368
1.53783
1.86922
3.15118
7.11751
22.5515
125.033
635.5
635.497
125.188
22.5261
7.27482
3.10907
1.83989
1.50541
1.44228
1.3978
1.40088
1.40798
1.41171
1.43725
1.50609
1.82055
3.09888
7.21612
22.5026
125.014
635.473
635.436
125.144
22.5375
7.25693
3.09883
1.80172
1.48382
1.41329
1.41122
1.42403
1.42719
1.44863
1.43299
1.5007
1.80604
3.04736
7.23293
22.486
124.934
635.414
635.375
125.008
22.5911
7.08179
3.12788
1.81352
1.46494
1.40602
1.40951
1.41846
1.46884
1.43637
1.44399
1.49718
1.79481
2.99354
7.16914
22.589
124.879
635.387
635.343
124.883
22.5581
7.13129
3.10489
1.79529
1.47279
1.41691
1.39863
1.40027
1.45577
1.41875
1.45082
1.48761
1.79413
3.01261
7.03071
22.6377
124.842
635.373
635.333
124.795
22.4584
7.21319
3.10553
1.8033
1.49592
1.41512
1.42154
1.39668
1.43093
1.41976
1.43068
1.48151
1.7903
3.05005
7.03631
22.5994
124.784
635.364
635.338
124.772
22.3983
7.24679
3.12736
1.82185
1.50132
1.42239
1.4271
1.40084
1.42665
1.43943
1.41043
1.49322
1.7922
3.08727
7.09186
22.4867
124.725
635.363
635.373
124.786
22.347
7.22465
3.19586
1.86693
1.50063
1.42644
1.41617
1.40151
1.41317
1.43393
1.42618
1.48487
1.79448
3.07119
7.17301
22.4091
124.697
635.375
635.402
124.865
22.3587
7.26091
3.18071
1.86462
1.49825
1.4188
1.41448
1.40617
1.4086
1.42277
1.43378
1.48696
1.79884
3.07269
7.12048
22.4802
124.732
635.446
635.402
125.008
22.3975
7.26804
3.18044
1.84684
1.49277
1.40854
1.41064
1.42081
1.40522
1.41713
1.41624
1.51525
1.81008
3.0402
7.10232
22.5975
124.87
635.533
635.397
124.994
22.5366
7.14078
3.17884
1.86779
1.49532
1.40937
1.41568
1.41507
1.41529
1.39698
1.40434
1.5066
1.80488
3.05484
7.16255
22.5658
124.967
635.554
635.374
124.929
22.5191
7.19365
3.12256
1.84625
1.49571
1.43612
1.41638
1.41784
1.41148
1.40294
1.39716
1.47739
1.80049
3.0661
7.14655
22.6031
125.08
635.549
635.306
124.776
22.4332
7.28272
3.0957
1.819
1.50431
1.43665
1.43023
1.41792
1.39896
1.40194
1.39772
1.46482
1.80966
3.10163
7.10553
22.6286
125.195
635.522
635.281
124.684
22.4331
7.17956
3.15418
1.83613
1.52126
1.43189
1.45367
1.40411
1.38986
1.39533
1.40614
1.47085
1.80345
3.12284
7.16843
22.5894
125.223
635.473
635.288
124.672
22.4167
7.18216
3.13255
1.83334
1.51012
1.42888
1.43087
1.4017
1.38709
1.40344
1.4123
1.48823
1.8133
3.10848
7.21648
22.5671
125.201
635.404
635.308
124.675
22.4516
7.16211
3.07099
1.83873
1.50999
1.41835
1.41006
1.39693
1.41151
1.40353
1.42837
1.48653
1.82179
3.14636
7.23066
22.506
125.126
635.362
635.328
124.651
22.4251
7.19046
3.06396
1.81445
1.50013
1.41526
1.40821
1.42147
1.42365
1.44218
1.44407
1.47994
1.8203
3.1145
7.2484
22.5143
124.995
635.314
635.359
124.656
22.4458
7.15098
3.05294
1.80737
1.49178
1.43404
1.41991
1.44205
1.43629
1.44432
1.4579
1.48964
1.81772
3.14054
7.22342
22.4672
124.816
635.262
635.431
124.704
22.4905
7.13455
3.04837
1.79104
1.48161
1.4209
1.42858
1.43009
1.42592
1.4413
1.44413
1.48229
1.83607
3.1552
7.16918
22.4806
124.697
635.241
635.5
124.805
22.5372
7.14765
3.03332
1.78861
1.48188
1.43528
1.42707
1.40132
1.41902
1.42559
1.42947
1.49422
1.83625
3.12959
7.17314
22.495
124.643
635.244
635.559
124.859
22.5535
7.16229
3.06223
1.78864
1.4915
1.4309
1.427
1.4069
1.40952
1.4039
1.43335
1.50499
1.83613
3.12485
7.20875
22.4436
124.603
635.282
635.591
124.95
22.5737
7.2091
3.07388
1.8052
1.5029
1.42777
1.41606
1.41075
1.40334
1.41479
1.45264
1.51031
1.83303
3.13437
7.26597
22.3864
124.603
635.385
635.594
125.07
22.634
7.19985
3.10583
1.8215
1.50402
1.433
1.41449
1.40472
1.41242
1.43583
1.45096
1.52648
1.85919
3.16109
7.15348
22.4686
124.664
635.491
635.586
125.093
22.6837
7.15923
3.12029
1.85279
1.5158
1.42838
1.41428
1.39572
1.40795
1.43091