/*--------------------------------*- C++ -*----------------------------------*\
| =========                 |                                                 |
| \\      /  F ield         | OpenFOAM: The Open Source CFD Toolbox           |
|  \\    /   O peration     | Version:  2.1.0                                 |
|   \\  /    A nd           | Web:      www.OpenFOAM.org                      |
|    \\/     M anipulation  |                                                 |
\*---------------------------------------------------------------------------*/
FoamFile
{
    version     2.0;
    format      ascii;
    class       volScalarField;
    location    "0.02";
    object      p;
}
// * * * * * * * * * * * * * * * * * * * * * * * * * * * * * * * * * * * * * //

dimensions      [1 -1 -2 0 0 0 0];

internalField   nonuniform List<scalar> 
6400
(
100004
100010
100012
100013
100015
100018
100021
100025
100029
100032
100034
100036
100039
100042
100046
100050
100053
100055
100058
100061
100065
100068
100071
100075
100077
100081
100085
100087
100089
100091
100093
100095
100099
100104
100110
100115
100120
100124
100126
100128
100132
100136
100138
100140
100142
100144
100147
100151
100154
100157
100159
100161
100161
100162
100162
100165
100170
100173
100179
100188
100194
100200
100205
100209
100211
100214
100217
100220
100222
100225
100226
100226
100227
100226
100226
100224
100221
100216
100209
100199
100186
100168
100146
100118
100085
100045
99998.2
99945
99884.6
99816.3
99739.1
99651.8
99553.7
99447.3
99341.6
99245.4
99153.5
99029.2
98672.7
97151.8
100006
100011
100012
100012
100014
100018
100021
100025
100029
100032
100034
100036
100039
100042
100046
100050
100053
100055
100057
100061
100065
100068
100072
100075
100077
100081
100085
100087
100089
100091
100092
100095
100098
100104
100110
100115
100120
100124
100126
100128
100132
100137
100138
100140
100143
100143
100147
100151
100154
100157
100159
100161
100162
100162
100162
100165
100171
100172
100179
100189
100195
100200
100206
100210
100212
100214
100217
100220
100222
100225
100226
100226
100227
100226
100225
100224
100221
100216
100209
100199
100185
100167
100145
100117
100083
100043
99996
99942.4
99881.8
99813.4
99736.4
99649.7
99553
99448.5
99343.9
99250.5
99167.8
99057.3
98768.5
98253.9
100012
100013
100012
100012
100014
100018
100020
100025
100029
100032
100034
100036
100039
100042
100047
100050
100053
100056
100056
100061
100066
100067
100072
100075
100076
100080
100086
100087
100089
100091
100092
100095
100097
100103
100110
100115
100121
100124
100127
100127
100132
100138
100138
100140
100143
100142
100147
100152
100154
100157
100159
100161
100162
100162
100160
100164
100172
100170
100177
100190
100195
100200
100207
100210
100212
100213
100217
100220
100223
100226
100226
100227
100227
100227
100227
100225
100222
100217
100209
100199
100186
100168
100145
100116
100082
100041
99994.3
99940.5
99879.8
99811.6
99735.3
99650.5
99557.3
99459.1
99362.6
99277.9
99206.4
99130.3
98980
99082
100026
100016
100012
100010
100013
100017
100019
100025
100030
100032
100033
100035
100039
100041
100048
100051
100052
100056
100056
100061
100066
100066
100072
100077
100074
100080
100088
100088
100089
100091
100091
100094
100096
100102
100111
100116
100122
100125
100128
100125
100131
100141
100138
100141
100144
100140
100147
100153
100154
100157
100159
100163
100162
100162
100157
100164
100176
100165
100174
100194
100195
100200
100209
100212
100212
100212
100218
100221
100223
100227
100227
100228
100228
100228
100227
100226
100222
100217
100210
100200
100186
100168
100144
100116
100081
100040
99993.1
99939.2
99878.5
99810.6
99735.4
99653
99564.9
99476
99392.5
99324.5
99280.8
99265.5
99288.1
99702.2
100032
100017
100011
100008
100012
100018
100018
100026
100032
100032
100033
100035
100038
100040
100049
100052
100051
100056
100057
100060
100066
100066
100073
100078
100071
100079
100090
100088
100089
100092
100090
100094
100093
100101
100111
100117
100125
100124
100129
100124
100131
100142
100137
100141
100144
100138
100146
100155
100154
100156
100160
100164
100162
100162
100153
100162
100181
100161
100170
100199
100195
100199
100212
100213
100212
100210
100218
100225
100223
100227
100229
100229
100229
100229
100228
100226
100223
100218
100211
100200
100186
100168
100144
100115
100081
100040
99992.3
99938.3
99877.6
99810.2
99736.4
99657.2
99575.5
99498
99431
99386.7
99383
99448.7
99631.4
100187
100017
100014
100009
100004
100011
100018
100017
100026
100032
100033
100034
100034
100036
100040
100050
100053
100050
100056
100059
100059
100066
100069
100074
100078
100068
100078
100092
100088
100090
100092
100090
100094
100090
100103
100110
100118
100129
100122
100129
100126
100132
100139
100139
100142
100143
100135
100145
100159
100154
100155
100161
100164
100161
100162
100152
100160
100183
100160
100167
100202
100191
100198
100217
100214
100212
100208
100218
100228
100223
100227
100230
100229
100230
100230
100229
100227
100224
100219
100211
100200
100186
100168
100144
100115
100080
100039
99991.6
99937.5
99876.8
99810
99737.8
99662.1
99587.2
99521.6
99472.3
99455.3
99498.5
99649.8
99957.5
100563
99997.2
100009
100006
100002
100010
100017
100018
100027
100032
100034
100034
100033
100035
100040
100052
100055
100050
100054
100062
100056
100063
100075
100076
100077
100066
100077
100093
100089
100091
100090
100089
100092
100092
100104
100110
100119
100128
100125
100127
100128
100134
100135
100140
100143
100142
100135
100144
100160
100155
100156
100161
100163
100161
100161
100152
100160
100184
100163
100166
100201
100187
100198
100222
100213
100211
100210
100220
100226
100222
100227
100230
100229
100230
100230
100229
100227
100224
100219
100211
100200
100186
100168
100144
100115
100080
100039
99990.9
99936.7
99876.1
99809.9
99739.2
99667
99598.4
99543.3
99510.8
99520.9
99610.9
99839.4
100234
100842
99989.2
100003
100004
100001
100008
100015
100018
100028
100032
100035
100034
100031
100032
100041
100054
100057
100046
100053
100067
100054
100063
100080
100076
100075
100066
100077
100091
100090
100093
100087
100089
100090
100094
100106
100111
100120
100125
100126
100127
100128
100133
100136
100141
100141
100141
100138
100143
100157
100157
100155
100160
100163
100161
100160
100153
100160
100184
100168
100164
100197
100189
100198
100222
100210
100209
100214
100222
100223
100222
100229
100230
100229
100230
100230
100229
100227
100224
100219
100211
100200
100186
100168
100144
100115
100080
100038
99990.2
99935.9
99875.4
99809.5
99740.2
99670.7
99607.2
99560.4
99541.7
99575.6
99705.9
99995.6
100444
101039
99982.5
99996.4
100002
99999.5
100008
100011
100018
100031
100031
100036
100034
100028
100028
100045
100056
100055
100045
100054
100069
100057
100065
100077
100075
100074
100067
100078
100089
100091
100095
100082
100090
100092
100093
100108
100112
100119
100123
100128
100128
100126
100133
100138
100140
100139
100141
100141
100144
100153
100156
100155
100159
100162
100162
100160
100155
100161
100182
100176
100163
100191
100192
100196
100220
100208
100207
100218
100223
100221
100222
100230
100230
100229
100231
100230
100229
100228
100224
100219
100211
100200
100186
100168
100144
100115
100079
100038
99989.6
99935
99874.5
99808.8
99740.2
99672.5
99612.5
99570.9
99562.1
99613.5
99772.7
100104
100584
101165
99968.2
99992.1
99999.4
99998.9
100008
100008
100018
100034
100031
100036
100035
100025
100025
100050
100059
100053
100048
100052
100066
100062
100068
100074
100074
100074
100068
100079
100088
100090
100094
100081
100092
100098
100090
100107
100110
100116
100127
100130
100128
100125
100133
100140
100137
100137
100141
100142
100145
100152
100155
100156
100159
100161
100160
100160
100158
100164
100180
100178
100169
100186
100189
100198
100219
100206
100205
100218
100224
100222
100222
100229
100230
100230
100231
100230
100229
100228
100224
100219
100211
100200
100186
100168
100144
100115
100079
100037
99989.1
99934.4
99873.6
99807.8
99739.2
99672.2
99613.7
99574.2
99570
99630.4
99804.3
100157
100651
101226
99958.3
99991
99997.7
99999.3
100007
100010
100018
100031
100033
100036
100032
100025
100030
100052
100057
100052
100052
100053
100062
100064
100070
100072
100072
100072
100070
100079
100087
100090
100092
100086
100094
100100
100092
100102
100107
100112
100130
100134
100128
100125
100132
100140
100137
100136
100141
100144
100146
100151
100156
100157
100158
100161
100159
100159
100161
100167
100178
100179
100174
100185
100188
100198
100214
100206
100205
100217
100223
100223
100222
100228
100230
100230
100231
100230
100230
100228
100224
100219
100211
100201
100187
100168
100144
100115
100079
100038
99989.2
99934.2
99873
99806.7
99737.5
99669.7
99610.5
99570.2
99564.7
99624.1
99797.1
100148
100641
101216
99980.4
99994.5
99998.2
100001
100006
100013
100018
100026
100035
100037
100029
100027
100036
100052
100055
100051
100053
100054
100060
100064
100071
100073
100071
100071
100072
100078
100085
100089
100091
100091
100095
100099
100095
100099
100103
100107
100130
100138
100128
100126
100132
100139
100137
100135
100139
100146
100148
100150
100156
100156
100158
100161
100156
100159
100165
100169
100175
100180
100177
100183
100188
100198
100211
100207
100204
100215
100224
100224
100223
100227
100230
100230
100231
100231
100230
100228
100225
100219
100212
100201
100187
100169
100145
100116
100080
100038
99989.7
99934.4
99872.7
99805.5
99734.9
99665
99603
99558.8
99546.4
99595
99751.4
100079
100556
101138
100005
100000
100002
100002
100005
100017
100014
100020
100040
100038
100026
100032
100042
100050
100054
100052
100050
100056
100062
100064
100070
100071
100070
100071
100075
100078
100079
100086
100093
100094
100096
100099
100097
100099
100102
100108
100128
100135
100129
100128
100132
100137
100138
100131
100135
100150
100149
100150
100156
100157
100158
100160
100154
100160
100169
100170
100177
100181
100179
100182
100186
100198
100211
100208
100202
100214
100224
100222
100222
100226
100230
100230
100230
100231
100230
100228
100225
100220
100212
100202
100188
100169
100146
100117
100081
100039
99990.4
99934.7
99872.3
99803.9
99731.3
99658.2
99591.3
99540.3
99516.3
99545.6
99671.9
99955.9
100401
100997
100018
100006
100007
100002
100006
100019
100007
100018
100045
100035
100027
100036
100043
100049
100053
100051
100048
100058
100064
100065
100068
100068
100071
100073
100077
100078
100075
100083
100097
100095
100097
100100
100096
100098
100105
100114
100123
100130
100130
100130
100134
100135
100138
100129
100134
100153
100149
100150
100155
100157
100158
100159
100152
100161
100171
100171
100179
100180
100180
100180
100186
100199
100208
100209
100203
100212
100223
100219
100222
100228
100230
100231
100230
100230
100230
100228
100225
100220
100213
100202
100188
100170
100146
100117
100082
100040
99991.2
99935.1
99872
99802.2
99727.1
99649.8
99576.2
99515.8
99476.6
99480.3
99565.9
99787.4
100176
100786
100021
100009
100007
100002
100008
100018
100004
100019
100044
100031
100029
100040
100043
100050
100053
100049
100051
100060
100062
100065
100069
100065
100069
100075
100078
100079
100071
100082
100099
100095
100096
100101
100095
100099
100110
100115
100119
100126
100130
100131
100136
100133
100137
100133
100135
100150
100149
100149
100154
100158
100158
100158
100154
100161
100170
100173
100178
100180
100182
100179
100189
100198
100203
100210
100206
100211
100222
100215
100221
100231
100230
100230
100230
100230
100229
100228
100225
100220
100213
100202
100189
100170
100147
100118
100083
100041
99992.1
99935.7
99871.9
99800.6
99722.9
99640.9
99559.3
99487.3
99430.8
99405.9
99445.2
99588.6
99887.8
100492
100015
100008
100007
100000
100008
100019
100008
100020
100038
100029
100031
100043
100042
100049
100052
100049
100053
100060
100062
100065
100069
100063
100069
100077
100077
100079
100072
100083
100098
100095
100095
100100
100097
100101
100111
100115
100118
100124
100129
100131
100136
100132
100135
100136
100137
100147
100150
100147
100152
100159
100158
100158
100156
100162
100169
100173
100176
100179
100183
100181
100190
100197
100201
100210
100208
100211
100220
100212
100220
100232
100228
100229
100229
100230
100229
100227
100224
100220
100213
100203
100189
100171
100148
100119
100084
100042
99993.2
99936.6
99872.1
99799.6
99719.3
99632.4
99542.7
99458
99384
99335.5
99325.1
99382.3
99553.6
100103
100005
100005
100007
100002
100008
100017
100013
100021
100033
100029
100033
100042
100043
100048
100051
100051
100054
100059
100062
100065
100068
100064
100070
100077
100077
100078
100076
100084
100094
100095
100096
100099
100099
100103
100110
100114
100118
100124
100128
100130
100135
100132
100135
100138
100138
100145
100150
100147
100152
100159
100157
100159
100159
100163
100169
100173
100176
100180
100183
100183
100190
100196
100201
100208
100208
100211
100218
100214
100220
100230
100227
100229
100229
100229
100228
100227
100224
100219
100213
100203
100189
100172
100149
100120
100085
100043
99994.6
99937.9
99873
99799.4
99716.9
99625.8
99528.6
99431.6
99341.7
99270
99221.3
99198.1
99206.9
99605.7
99996.3
100003
100005
100004
100009
100015
100015
100022
100030
100030
100034
100041
100043
100047
100050
100052
100055
100058
100062
100064
100066
100066
100070
100076
100077
100078
100078
100085
100092
100094
100096
100099
100100
100104
100110
100114
100118
100123
100128
100130
100133
100133
100135
100138
100139
100145
100149
100148
100152
100158
100157
100159
100160
100164
100169
100173
100176
100180
100184
100185
100191
100196
100201
100206
100209
100211
100216
100216
100220
100227
100227
100228
100228
100228
100228
100226
100223
100219
100212
100203
100189
100172
100150
100121
100087
100045
99996.5
99939.8
99874.7
99800.5
99716.3
99622
99518.8
99412
99310
99223.1
99148.1
99064.7
98899.2
98972.5
99993.3
100001
100004
100005
100009
100014
100017
100022
100028
100031
100035
100040
100043
100047
100050
100052
100055
100058
100062
100064
100066
100067
100070
100075
100077
100078
100079
100085
100091
100094
100096
100099
100101
100105
100110
100114
100118
100123
100127
100130
100133
100133
100135
100138
100140
100144
100148
100149
100153
100156
100158
100159
100161
100165
100169
100173
100176
100180
100183
100186
100191
100196
100201
100205
100208
100211
100215
100217
100220
100225
100226
100227
100227
100227
100227
100225
100222
100218
100212
100202
100189
100172
100150
100123
100088
100047
99999.1
99942.7
99877.6
99803
99717.8
99621.2
99514
99400.7
99291.1
99196.3
99111.6
98993.6
98689.1
98123.5
99992.4
100000
100004
100006
100009
100014
100017
100022
100028
100031
100035
100040
100043
100047
100050
100052
100055
100058
100061
100064
100066
100067
100071
100074
100076
100078
100080
100085
100090
100094
100096
100099
100101
100105
100110
100114
100118
100123
100127
100130
100132
100133
100136
100138
100141
100144
100147
100149
100153
100156
100158
100159
100161
100165
100169
100172
100176
100180
100183
100186
100191
100196
100201
100205
100208
100211
100215
100217
100220
100224
100226
100227
100227
100227
100227
100225
100223
100218
100212
100203
100190
100174
100152
100124
100091
100050
100002
99946
99881.3
99806.8
99721.5
99624.3
99515.9
99401.9
99293
99194
99097.9
98964.5
98592.9
96989.5
100631
101846
102359
102650
102848
102997
103114
103209
103287
103352
103406
103452
103489
103520
103545
103565
103581
103591
103598
103599
100581
101559
102159
102535
102786
102967
103104
103211
103298
103369
103427
103475
103514
103547
103573
103594
103609
103620
103626
103628
100843
101577
102094
102470
102741
102940
103091
103208
103302
103378
103440
103491
103533
103567
103594
103615
103631
103642
103648
103650
101091
101688
102127
102469
102732
102934
103091
103214
103312
103392
103457
103509
103552
103587
103615
103637
103653
103664
103671
103672
101301
101806
102190
102500
102748
102944
103100
103225
103326
103408
103474
103528
103572
103608
103636
103658
103675
103686
103692
103692
101476
101915
102259
102543
102775
102964
103117
103241
103342
103424
103491
103546
103591
103627
103656
103678
103694
103705
103711
103712
101615
102007
102322
102586
102806
102987
103136
103258
103358
103440
103508
103563
103607
103644
103673
103695
103712
103722
103728
103728
101719
102078
102374
102624
102834
103009
103154
103274
103373
103455
103522
103577
103622
103658
103687
103709
103726
103736
103742
103742
101790
102129
102413
102654
102858
103028
103170
103288
103386
103467
103533
103588
103633
103669
103698
103720
103736
103747
103752
103752
101829
102158
102436
102672
102872
103040
103180
103297
103394
103474
103539
103594
103638
103674
103703
103725
103741
103752
103756
103756
101820
102150
102428
102665
102865
103033
103174
103291
103388
103469
103535
103589
103634
103670
103699
103721
103738
103748
103753
103753
101767
102108
102393
102635
102840
103012
103155
103274
103373
103455
103522
103577
103622
103659
103688
103711
103727
103738
103743
103743
101685
102047
102345
102597
102809
102986
103133
103254
103355
103437
103505
103561
103607
103644
103673
103696
103713
103724
103729
103730
101570
101966
102284
102551
102773
102957
103108
103232
103334
103418
103486
103543
103589
103626
103655
103678
103695
103706
103712
103712
101421
101864
102212
102499
102735
102927
103083
103210
103313
103397
103466
103522
103568
103605
103634
103657
103674
103686
103692
103693
101236
101746
102135
102449
102701
102901
103061
103189
103292
103376
103444
103500
103545
103582
103612
103635
103652
103663
103670
103670
101016
101619
102064
102411
102680
102886
103047
103173
103275
103357
103423
103478
103523
103559
103588
103610
103627
103639
103646
103647
100757
101499
102024
102407
102683
102887
103043
103164
103261
103340
103404
103457
103500
103535
103563
103586
103602
103614
103621
103622
100484
101475
102085
102469
102727
102912
103053
103165
103254
103328
103388
103438
103479
103513
103540
103562
103578
103590
103596
103598
100525
101760
102283
102582
102786
102940
103061
103160
103241
103308
103365
103412
103451
103483
103510
103531
103546
103558
103564
103566
103485
103483
103482
103481
103481
103480
103480
103480
103480
103481
103481
103481
103481
103481
103481
103481
103482
103483
103483
103485
103482
103479
103479
103479
103479
103479
103479
103479
103479
103480
103480
103480
103480
103480
103480
103479
103479
103480
103480
103482
103481
103478
103478
103478
103479
103479
103479
103480
103480
103480
103481
103481
103481
103481
103480
103480
103479
103479
103479
103481
103480
103478
103478
103478
103479
103479
103479
103479
103480
103480
103480
103481
103481
103481
103480
103479
103479
103478
103479
103480
103478
103477
103476
103476
103477
103477
103477
103477
103476
103476
103476
103476
103477
103477
103477
103477
103476
103477
103477
103479
103477
103475
103475
103475
103475
103475
103475
103475
103475
103474
103473
103473
103473
103473
103473
103474
103475
103475
103475
103477
103475
103474
103474
103474
103475
103475
103475
103476
103476
103476
103476
103476
103476
103476
103476
103475
103474
103474
103474
103475
103473
103472
103472
103472
103472
103473
103473
103473
103473
103474
103475
103476
103476
103476
103475
103473
103473
103472
103472
103473
103471
103470
103469
103469
103469
103468
103467
103468
103468
103469
103468
103468
103468
103468
103469
103469
103469
103470
103470
103471
103468
103468
103468
103468
103468
103468
103468
103469
103469
103469
103468
103468
103468
103469
103469
103469
103469
103468
103468
103468
103466
103466
103466
103467
103468
103468
103468
103468
103468
103467
103467
103467
103468
103468
103468
103467
103466
103465
103465
103465
103464
103464
103464
103464
103463
103462
103462
103461
103461
103460
103460
103459
103458
103457
103457
103458
103459
103460
103461
103462
103462
103462
103462
103461
103461
103461
103461
103461
103461
103462
103462
103461
103460
103458
103457
103457
103457
103458
103459
103459
103460
103460
103461
103462
103462
103463
103463
103463
103463
103462
103462
103462
103461
103460
103459
103459
103458
103458
103458
103458
103458
103458
103458
103458
103458
103459
103459
103460
103460
103459
103456
103455
103454
103455
103456
103456
103456
103456
103456
103456
103455
103455
103455
103455
103455
103455
103455
103456
103457
103456
103454
103452
103453
103453
103453
103454
103454
103454
103454
103454
103452
103452
103451
103451
103451
103451
103450
103450
103449
103449
103451
103452
103452
103451
103452
103453
103453
103453
103453
103453
103449
103449
103449
103448
103448
103448
103449
103449
103447
103448
103450
103451
103451
103452
103452
103452
103452
103452
103452
103452
103447
103447
103447
103447
103447
103447
103447
103448
103450
103451
103451
103452
103453
103452
103451
103451
103450
103450
103450
103450
103445
103445
103445
103445
103444
103443
103443
103445
103447
103449
103453
103456
103458
103457
103454
103451
103449
103449
103448
103448
103443
103443
103443
103443
103442
103443
103444
103444
103445
103446
103448
103451
103451
103450
103449
103447
103446
103445
103445
103445
103442
103442
103442
103443
103443
103443
103442
103442
103441
103439
103437
103434
103431
103432
103434
103438
103440
103440
103440
103441
103440
103440
103440
103440
103441
103441
103440
103438
103436
103434
103431
103427
103426
103428
103431
103434
103435
103436
103437
103437
103437
103437
103437
103437
103437
103437
103437
103435
103434
103431
103430
103431
103432
103432
103432
103433
103433
103434
103435
103435
103435
103435
103435
103434
103433
103433
103432
103432
103432
103432
103432
103433
103434
103433
103433
103433
103433
103434
103434
103434
103434
103434
103433
103433
103432
103432
103432
103433
103434
103434
103434
103433
103433
103433
103433
103434
103434
103434
103434
103434
103433
103433
103433
103433
103434
103434
103434
103434
103433
103434
103435
103434
103434
103434
103434
103434
103433
103433
103433
103433
103431
103431
103432
103432
103433
103433
103434
103433
103434
103435
103435
103435
103435
103434
103434
103433
103432
103432
103432
103432
103429
103429
103430
103430
103430
103430
103431
103431
103432
103432
103431
103431
103432
103432
103432
103431
103431
103431
103431
103431
103427
103427
103427
103427
103427
103427
103427
103429
103428
103429
103429
103429
103430
103430
103430
103430
103430
103430
103429
103429
103425
103425
103425
103426
103426
103427
103428
103430
103431
103431
103430
103430
103429
103429
103429
103428
103427
103427
103426
103426
103423
103423
103423
103423
103424
103424
103426
103426
103426
103425
103424
103423
103423
103422
103421
103421
103422
103423
103423
103423
103421
103421
103421
103421
103420
103418
103416
103416
103415
103415
103415
103416
103416
103416
103417
103418
103419
103420
103421
103421
103420
103419
103419
103419
103418
103417
103416
103414
103414
103415
103416
103417
103417
103418
103419
103420
103420
103420
103420
103420
103418
103418
103418
103418
103418
103418
103418
103419
103418
103418
103418
103419
103419
103420
103420
103420
103420
103419
103419
103419
103417
103417
103417
103417
103417
103417
103417
103417
103418
103419
103419
103420
103420
103419
103418
103417
103417
103417
103417
103417
103416
103416
103416
103416
103416
103417
103417
103416
103416
103417
103418
103418
103417
103416
103415
103414
103415
103415
103416
103416
103415
103415
103415
103415
103415
103416
103415
103415
103414
103413
103413
103413
103413
103414
103415
103415
103415
103415
103415
103415
103415
103415
103415
103416
103415
103415
103414
103415
103415
103414
103413
103412
103413
103414
103415
103415
103415
103414
103414
103414
103413
103413
103414
103414
103415
103416
103416
103415
103415
103414
103413
103412
103412
103413
103414
103414
103413
103413
103412
103412
103411
103411
103411
103410
103410
103411
103412
103412
103412
103412
103411
103411
103411
103410
103409
103409
103410
103410
103410
103410
103409
103409
103409
103408
103408
103408
103408
103409
103409
103410
103410
103409
103408
103408
103407
103407
103408
103408
103409
103409
103408
103408
103408
103408
103408
103409
103408
103407
103407
103408
103408
103409
103408
103409
103409
103408
103407
103408
103408
103408
103407
103406
103406
103406
103405
103405
103405
103405
103405
103406
103407
103408
103408
103408
103408
103407
103407
103407
103407
103407
103405
103406
103406
103406
103406
103405
103405
103406
103406
103407
103408
103408
103409
103407
103406
103406
103406
103406
103405
103405
103404
103404
103404
103405
103406
103407
103408
103409
103409
103408
103407
103409
103407
103405
103405
103404
103404
103404
103404
103404
103402
103402
103402
103401
103402
103402
103404
103405
103404
103401
103399
103398
103398
103400
103400
103401
103401
103402
103402
103402
103400
103400
103400
103400
103399
103398
103396
103395
103394
103395
103395
103394
103395
103397
103397
103399
103399
103400
103400
103400
103398
103398
103398
103398
103399
103398
103395
103393
103395
103397
103397
103397
103397
103398
103398
103399
103399
103399
103399
103399
103397
103396
103396
103396
103396
103396
103397
103397
103397
103397
103397
103398
103398
103399
103399
103399
103399
103398
103398
103398
103395
103395
103396
103396
103395
103396
103398
103398
103398
103397
103397
103399
103400
103399
103398
103398
103397
103396
103396
103396
103393
103394
103395
103397
103399
103400
103400
103399
103397
103397
103395
103394
103394
103395
103395
103395
103394
103393
103393
103393
103390
103390
103390
103391
103393
103395
103395
103395
103393
103391
103390
103388
103386
103386
103386
103387
103388
103389
103389
103389
103386
103386
103385
103384
103382
103381
103383
103384
103386
103386
103386
103386
103385
103384
103384
103384
103385
103386
103387
103387
103383
103383
103382
103382
103381
103379
103380
103382
103383
103384
103385
103386
103386
103386
103386
103386
103386
103386
103386
103385
103381
103381
103381
103381
103381
103380
103379
103379
103379
103381
103383
103385
103386
103387
103387
103386
103386
103385
103384
103384
103379
103379
103379
103379
103379
103380
103379
103378
103380
103383
103385
103388
103391
103391
103390
103387
103384
103382
103381
103381
103376
103376
103377
103377
103377
103378
103380
103383
103384
103384
103383
103384
103384
103383
103380
103378
103377
103377
103377
103377
103374
103374
103373
103373
103373
103372
103373
103375
103376
103375
103372
103368
103365
103363
103365
103368
103370
103371
103372
103372
103371
103371
103371
103371
103370
103369
103368
103365
103363
103362
103362
103361
103359
103360
103363
103366
103367
103368
103369
103369
103370
103370
103370
103370
103370
103369
103369
103367
103364
103363
103363
103363
103364
103366
103366
103366
103367
103367
103367
103367
103368
103368
103368
103368
103368
103367
103367
103368
103368
103366
103365
103365
103366
103365
103365
103365
103366
103366
103366
103366
103366
103366
103366
103365
103365
103364
103363
103362
103362
103363
103365
103365
103365
103365
103366
103365
103365
103365
103365
103365
103364
103364
103364
103364
103363
103363
103363
103362
103362
103362
103363
103364
103366
103366
103367
103367
103366
103365
103365
103364
103363
103363
103363
103363
103362
103363
103363
103363
103363
103363
103363
103364
103365
103365
103364
103363
103363
103363
103363
103363
103362
103362
103362
103363
103364
103363
103363
103363
103363
103364
103364
103363
103361
103361
103360
103360
103361
103361
103361
103361
103361
103361
103362
103362
103362
103362
103363
103363
103363
103362
103361
103360
103360
103359
103360
103360
103360
103360
103360
103360
103360
103360
103359
103359
103358
103358
103359
103358
103358
103358
103359
103359
103360
103360
103359
103359
103359
103359
103359
103359
103359
103359
103359
103359
103358
103358
103357
103357
103357
103358
103358
103358
103358
103357
103358
103358
103358
103358
103358
103358
103358
103358
103358
103359
103360
103359
103359
103359
103359
103359
103358
103356
103356
103356
103357
103357
103357
103357
103357
103357
103356
103356
103356
103356
103356
103357
103357
103357
103357
103357
103357
103357
103358
103357
103357
103357
103357
103357
103357
103357
103355
103355
103354
103354
103354
103354
103355
103355
103355
103356
103356
103356
103356
103356
103355
103356
103356
103356
103356
103356
103353
103353
103353
103354
103355
103356
103357
103360
103361
103360
103358
103356
103356
103355
103355
103355
103354
103354
103354
103354
103352
103352
103352
103353
103353
103354
103356
103358
103361
103360
103359
103358
103357
103356
103354
103354
103353
103353
103353
103353
103350
103350
103350
103350
103350
103349
103348
103347
103348
103351
103353
103353
103353
103353
103352
103352
103352
103352
103352
103352
103348
103348
103348
103347
103347
103346
103345
103342
103341
103342
103344
103346
103348
103349
103349
103350
103350
103350
103350
103350
103346
103346
103345
103345
103345
103345
103345
103345
103343
103341
103342
103344
103345
103346
103347
103347
103348
103348
103348
103348
103344
103344
103344
103344
103343
103343
103343
103343
103344
103344
103344
103345
103346
103347
103348
103348
103348
103347
103347
103347
103343
103343
103343
103343
103343
103343
103343
103343
103343
103344
103344
103344
103346
103348
103347
103346
103346
103346
103346
103346
103342
103342
103342
103342
103343
103343
103343
103343
103343
103342
103342
103342
103340
103340
103341
103342
103343
103344
103344
103344
103341
103341
103341
103341
103341
103341
103342
103342
103342
103342
103341
103341
103340
103339
103340
103342
103342
103342
103342
103343
103339
103339
103339
103340
103340
103340
103341
103341
103342
103342
103342
103342
103342
103342
103342
103341
103341
103342
103342
103342
103337
103337
103338
103338
103338
103338
103339
103340
103340
103341
103342
103342
103341
103341
103341
103341
103341
103341
103341
103341
103335
103335
103336
103336
103336
103336
103336
103337
103338
103339
103339
103340
103341
103341
103341
103341
103341
103341
103341
103341
103333
103333
103333
103333
103333
103334
103335
103335
103337
103337
103336
103337
103337
103338
103338
103339
103340
103340
103341
103341
103330
103330
103330
103330
103331
103331
103332
103332
103332
103332
103333
103334
103335
103336
103338
103339
103340
103341
103341
103341
103327
103328
103328
103329
103329
103330
103330
103330
103330
103331
103333
103336
103337