/*--------------------------------*- C++ -*----------------------------------*\
| =========                 |                                                 |
| \\      /  F ield         | OpenFOAM: The Open Source CFD Toolbox           |
|  \\    /   O peration     | Version:  2.1.0                                 |
|   \\  /    A nd           | Web:      www.OpenFOAM.org                      |
|    \\/     M anipulation  |                                                 |
\*---------------------------------------------------------------------------*/
FoamFile
{
    version     2.0;
    format      ascii;
    class       surfaceScalarField;
    location    "0.02";
    object      phi;
}
// * * * * * * * * * * * * * * * * * * * * * * * * * * * * * * * * * * * * * //

dimensions      [0 3 -1 0 0 0 0];

internalField   nonuniform List<scalar> 
12460
(
-3.6394e-05
2.89645e-09
-3.63989e-05
4.89311e-09
-3.64035e-05
4.59438e-09
-3.64074e-05
3.88712e-09
-3.64116e-05
4.24512e-09
-3.64131e-05
1.50528e-09
-3.64122e-05
-9.07636e-10
-3.64058e-05
-6.4026e-09
-3.63989e-05
-6.91212e-09
-3.63938e-05
-5.13425e-09
-3.63921e-05
-1.70653e-09
-3.63899e-05
-2.17622e-09
-3.63864e-05
-3.45703e-09
-3.63854e-05
-1.0023e-09
-3.63864e-05
9.93019e-10
-3.63894e-05
3.00149e-09
-3.6394e-05
4.55717e-09
-3.63971e-05
3.11333e-09
-3.64022e-05
5.12755e-09
-3.64071e-05
4.90676e-09
-3.64073e-05
1.48654e-10
-3.64097e-05
2.38643e-09
-3.64092e-05
-4.43825e-10
-3.64049e-05
-4.30703e-09
-3.64007e-05
-4.17295e-09
-3.63957e-05
-5.0235e-09
-3.63937e-05
-1.99214e-09
-3.63954e-05
1.70146e-09
-3.63964e-05
9.54572e-10
-3.63989e-05
2.57075e-09
-3.64028e-05
3.83874e-09
-3.64048e-05
2.01108e-09
-3.64061e-05
1.32245e-09
-3.64067e-05
5.84362e-10
-3.64067e-05
3.52713e-12
-3.64098e-05
3.07783e-09
-3.64113e-05
1.55247e-09
-3.6411e-05
-3.22209e-10
-3.64132e-05
2.19059e-09
-3.64182e-05
5.01257e-09
-3.6417e-05
-1.2347e-09
-3.64128e-05
-4.20441e-09
-3.64128e-05
-3.91414e-12
-3.64102e-05
-2.60205e-09
-3.64059e-05
-4.27124e-09
-3.64012e-05
-4.71384e-09
-3.6395e-05
-6.16755e-09
-3.63926e-05
-2.40791e-09
-3.63915e-05
-1.09434e-09
-3.63885e-05
-2.99846e-09
-3.63889e-05
3.45686e-10
-3.63884e-05
-5.01865e-10
-3.63842e-05
-4.19681e-09
-3.6385e-05
8.08756e-10
-3.6389e-05
4.00089e-09
-3.63909e-05
1.93411e-09
-3.63931e-05
2.14285e-09
-3.63979e-05
4.8386e-09
-3.64004e-05
2.53473e-09
-3.64014e-05
9.32666e-10
-3.64043e-05
2.9173e-09
-3.64034e-05
-8.31557e-10
-3.63956e-05
-7.88002e-09
-3.63842e-05
-1.13925e-08
-3.63645e-05
-1.97006e-08
-3.63309e-05
-3.36208e-08
-3.62801e-05
-5.07862e-08
-3.62076e-05
-7.24835e-08
-3.61025e-05
-1.05055e-07
-3.59569e-05
-1.45657e-07
-3.57671e-05
-1.89755e-07
-3.55224e-05
-2.44741e-07
-3.52138e-05
-3.08541e-07
-3.48299e-05
-3.83915e-07
-3.43586e-05
-4.7136e-07
-3.37883e-05
-5.70301e-07
-3.31084e-05
-6.79848e-07
-3.23097e-05
-7.98702e-07
-3.13848e-05
-9.24946e-07
-3.03286e-05
-1.05617e-06
-2.91388e-05
-1.18977e-06
-2.78159e-05
-1.32294e-06
-2.6363e-05
-1.45286e-06
-2.4786e-05
-1.57702e-06
-2.30922e-05
-1.69376e-06
-2.12896e-05
-1.80261e-06
-1.93854e-05
-1.90426e-06
-1.7385e-05
-2.00039e-06
-1.52917e-05
-2.0933e-06
-1.31074e-05
-2.18425e-06
-1.08375e-05
-2.26991e-06
-8.50145e-06
-2.33608e-06
-6.15881e-06
-2.34264e-06
-3.97192e-06
-2.18689e-06
-2.29533e-06
-1.67659e-06
-1.52335e-06
-7.71985e-07
-1.89012e-06
3.66772e-07
-3.85971e-06
1.96959e-06
-9.01615e-06
5.15643e-06
1.45109e-05
-2.3527e-05
-3.87254e-05
-1.58658e-09
-3.87312e-05
1.07345e-08
-3.87365e-05
9.84701e-09
-3.87405e-05
7.89506e-09
-3.8745e-05
8.74795e-09
-3.87453e-05
1.76097e-09
-3.87448e-05
-1.36715e-09
-3.87374e-05
-1.38133e-08
-3.87292e-05
-1.50999e-08
-3.87238e-05
-1.05432e-08
-3.87235e-05
-2.0033e-09
-3.87215e-05
-4.12982e-09
-3.87174e-05
-7.60273e-09
-3.87171e-05
-1.28938e-09
-3.87183e-05
2.19214e-09
-3.87216e-05
6.31938e-09
-3.87273e-05
1.02201e-08
-3.87299e-05
5.77861e-09
-3.87351e-05
1.03181e-08
-3.87412e-05
1.09669e-08
-3.87398e-05
-1.24815e-09
-3.87428e-05
5.41532e-09
-3.87423e-05
-9.59504e-10
-3.87368e-05
-9.80832e-09
-3.87328e-05
-8.23202e-09
-3.87267e-05
-1.10564e-08
-3.87245e-05
-4.24711e-09
-3.87279e-05
5.14329e-09
-3.87282e-05
1.28539e-09
-3.87307e-05
5.05092e-09
-3.87352e-05
8.30075e-09
-3.87369e-05
3.71317e-09
-3.87383e-05
2.75599e-09
-3.8739e-05
1.23557e-09
-3.87383e-05
-6.9542e-10
-3.8742e-05
6.76389e-09
-3.87438e-05
3.36034e-09
-3.87425e-05
-1.59813e-09
-3.87437e-05
3.355e-09
-3.87507e-05
1.20437e-08
-3.87487e-05
-3.25344e-09
-3.87421e-05
-1.07476e-08
-3.87439e-05
1.8112e-09
-3.87405e-05
-6.08273e-09
-3.87352e-05
-9.48807e-09
-3.87316e-05
-8.32806e-09
-3.87244e-05
-1.33984e-08
-3.87225e-05
-4.30026e-09
-3.87225e-05
-1.05071e-09
-3.87188e-05
-6.73014e-09
-3.87202e-05
1.69169e-09
-3.87208e-05
1.04801e-10
-3.87155e-05
-9.45901e-09
-3.87176e-05
2.92632e-09
-3.87242e-05
1.05612e-08
-3.8727e-05
4.76558e-09
-3.87302e-05
5.28208e-09
-3.87388e-05
1.35282e-08
-3.8744e-05
7.66436e-09
-3.87471e-05
4.05339e-09
-3.87555e-05
1.1373e-08
-3.87583e-05
1.89077e-09
-3.87534e-05
-1.27764e-08
-3.87472e-05
-1.7535e-08
-3.87342e-05
-3.27656e-08
-3.87063e-05
-6.14882e-08
-3.86632e-05
-9.39001e-08
-3.8602e-05
-1.33656e-07
-3.85097e-05
-1.97384e-07
-3.83792e-05
-2.76168e-07
-3.82113e-05
-3.57647e-07
-3.79949e-05
-4.61106e-07
-3.77245e-05
-5.78951e-07
-3.73913e-05
-7.17169e-07
-3.69856e-05
-8.7701e-07
-3.64985e-05
-1.05738e-06
-3.59224e-05
-1.25593e-06
-3.52517e-05
-1.46942e-06
-3.44831e-05
-1.69362e-06
-3.36156e-05
-1.92362e-06
-3.26511e-05
-2.15431e-06
-3.15936e-05
-2.38042e-06
-3.04498e-05
-2.59665e-06
-2.92283e-05
-2.79849e-06
-2.79389e-05
-2.98318e-06
-2.65911e-05
-3.15039e-06
-2.51938e-05
-3.30161e-06
-2.37547e-05
-3.4395e-06
-2.22811e-05
-3.56688e-06
-2.07813e-05
-3.68401e-06
-1.92685e-05
-3.78269e-06
-1.77688e-05
-3.83584e-06
-1.63335e-05
-3.77792e-06
-1.50519e-05
-3.46851e-06
-1.40597e-05
-2.6688e-06
-1.36492e-05
-1.18248e-06
-1.43019e-05
1.01947e-06
-1.6538e-05
4.20573e-06
-2.11436e-05
9.76197e-06
2.47797e-05
-3.14124e-05
-3.89236e-05
-2.87965e-08
-3.89278e-05
1.49571e-08
-3.89349e-05
1.68945e-08
-3.89416e-05
1.45643e-08
-3.8944e-05
1.12054e-08
-3.89421e-05
-1.29865e-10
-3.89436e-05
7.73055e-11
-3.89353e-05
-2.21192e-08
-3.89267e-05
-2.36409e-08
-3.89193e-05
-1.79874e-08
-3.89201e-05
-1.21954e-09
-3.89175e-05
-6.69071e-09
-3.8912e-05
-1.30943e-08
-3.89144e-05
1.1235e-09
-3.89137e-05
1.45549e-09
-3.89177e-05
1.03081e-08
-3.89247e-05
1.72747e-08
-3.89266e-05
7.68049e-09
-3.89325e-05
1.62343e-08
-3.89383e-05
1.67574e-08
-3.89382e-05
-1.40745e-09
-3.89433e-05
1.05253e-08
-3.89416e-05
-2.64168e-09
-3.89313e-05
-2.00678e-08
-3.89299e-05
-9.66579e-09
-3.89258e-05
-1.51195e-08
-3.89173e-05
-1.28106e-08
-3.89241e-05
1.1919e-08
-3.89287e-05
5.91154e-09
-3.89274e-05
3.71885e-09
-3.89334e-05
1.43444e-08
-3.89354e-05
5.67965e-09
-3.89372e-05
4.59927e-09
-3.89374e-05
1.4564e-09
-3.89362e-05
-1.91153e-09
-3.89393e-05
9.88531e-09
-3.89409e-05
4.87973e-09
-3.89405e-05
-1.90297e-09
-3.89394e-05
2.23868e-09
-3.8946e-05
1.86331e-08
-3.89421e-05
-7.19342e-09
-3.89337e-05
-1.91046e-08
-3.89383e-05
6.3528e-09
-3.89378e-05
-6.59261e-09
-3.89294e-05
-1.7827e-08
-3.89259e-05
-1.18882e-08
-3.89209e-05
-1.83631e-08
-3.89161e-05
-9.11477e-09
-3.89139e-05
-3.23678e-09
-3.89125e-05
-8.09467e-09
-3.89139e-05
3.07169e-09
-3.89158e-05
2.04478e-09
-3.89142e-05
-1.1121e-08
-3.89097e-05
-1.57318e-09
-3.89176e-05
1.8503e-08
-3.89244e-05
1.14988e-08
-3.89254e-05
6.32654e-09
-3.89376e-05
2.57108e-08
-3.89415e-05
1.15877e-08
-3.89401e-05
2.66651e-09
-3.89518e-05
2.30975e-08
-3.89598e-05
9.88976e-09
-3.89544e-05
-1.82453e-08
-3.89526e-05
-1.93399e-08
-3.89497e-05
-3.56608e-08
-3.89348e-05
-7.63215e-08
-3.8912e-05
-1.167e-07
-3.88813e-05
-1.64438e-07
-3.88333e-05
-2.45355e-07
-3.87617e-05
-3.47772e-07
-3.86697e-05
-4.4962e-07
-3.85488e-05
-5.82038e-07
-3.83955e-05
-7.32204e-07
-3.82037e-05
-9.08981e-07
-3.79668e-05
-1.11393e-06
-3.76786e-05
-1.34558e-06
-3.73339e-05
-1.60063e-06
-3.69292e-05
-1.87415e-06
-3.6463e-05
-2.1598e-06
-3.59362e-05
-2.45036e-06
-3.53521e-05
-2.73847e-06
-3.4716e-05
-3.01644e-06
-3.40361e-05
-3.2766e-06
-3.3322e-05
-3.51259e-06
-3.25842e-05
-3.72097e-06
-3.1833e-05
-3.90159e-06
-3.10785e-05
-4.0561e-06
-3.03313e-05
-4.18674e-06
-2.96029e-05
-4.29522e-06
-2.89071e-05
-4.37987e-06
-2.82614e-05
-4.42838e-06
-2.76919e-05
-4.40529e-06
-2.72366e-05
-4.23328e-06
-2.69392e-05
-3.76587e-06
-2.68452e-05
-2.76285e-06
-2.70128e-05
-1.01478e-06
-2.76276e-05
1.63425e-06
-2.90955e-05
5.67361e-06
-3.21873e-05
1.28537e-05
2.89317e-05
-3.63392e-05
-3.91439e-05
-1.47736e-08
-3.9147e-05
1.81116e-08
-3.91565e-05
2.63329e-08
-3.91678e-05
2.58411e-08
-3.91624e-05
5.87241e-09
-3.9153e-05
-9.56896e-09
-3.9157e-05
4.0952e-09
-3.91581e-05
-2.10656e-08
-3.91548e-05
-2.68835e-08
-3.91475e-05
-2.53184e-08
-3.9134e-05
-1.47511e-08
-3.91247e-05
-1.59476e-08
-3.91249e-05
-1.29273e-08
-3.91275e-05
3.71757e-09
-3.913e-05
4.03123e-09
-3.91369e-05
1.71491e-08
-3.9139e-05
1.93576e-08
-3.91387e-05
7.37426e-09
-3.91512e-05
2.87349e-08
-3.91584e-05
2.39664e-08
-3.91624e-05
2.60079e-09
-3.91692e-05
1.73992e-08
-3.91651e-05
-6.83591e-09
-3.91496e-05
-3.55377e-08
-3.91547e-05
-4.55828e-09
-3.91546e-05
-1.52371e-08
-3.9139e-05
-2.83495e-08
-3.91395e-05
1.23625e-08
-3.91463e-05
1.27461e-08
-3.91478e-05
5.22146e-09
-3.91485e-05
1.50728e-08
-3.9152e-05
9.16503e-09
-3.9161e-05
1.35929e-08
-3.91573e-05
-2.26201e-09
-3.91588e-05
-4.30964e-10
-3.91572e-05
8.30557e-09
-3.91553e-05
3.00291e-09
-3.91632e-05
5.96265e-09
-3.91636e-05
2.59959e-09
-3.91587e-05
1.37968e-08
-3.91488e-05
-1.71276e-08
-3.91416e-05
-2.62833e-08
-3.91374e-05
2.19549e-09
-3.91486e-05
4.611e-09
-3.91524e-05
-1.41002e-08
-3.91499e-05
-1.44009e-08
-3.91488e-05
-1.94131e-08
-3.91347e-05
-2.32656e-08
-3.91288e-05
-9.11191e-09
-3.91311e-05
-5.7722e-09
-3.91246e-05
-3.39289e-09
-3.91335e-05
1.08774e-08
-3.91406e-05
-4.02446e-09
-3.91202e-05
-2.19175e-08
-3.91183e-05
1.66104e-08
-3.91365e-05
2.96118e-08
-3.91385e-05
8.40684e-09
-3.91406e-05
2.78132e-08
-3.91431e-05
1.40566e-08
-3.91367e-05
-3.75514e-09
-3.91444e-05
3.0811e-08
-3.91556e-05
2.10555e-08
-3.9153e-05
-2.07854e-08
-3.91446e-05
-2.77635e-08
-3.91421e-05
-3.81975e-08
-3.91467e-05
-7.1682e-08
-3.91403e-05
-1.23089e-07
-3.91211e-05
-1.83615e-07
-3.91058e-05
-2.60726e-07
-3.90905e-05
-3.62995e-07
-3.90627e-05
-4.77505e-07
-3.90247e-05
-6.19963e-07
-3.89753e-05
-7.81671e-07
-3.8911e-05
-9.73288e-07
-3.8829e-05
-1.19587e-06
-3.87263e-05
-1.44832e-06
-3.86002e-05
-1.72675e-06
-3.84493e-05
-2.02499e-06
-3.82741e-05
-2.33503e-06
-3.80765e-05
-2.648e-06
-3.78597e-05
-2.95519e-06
-3.76291e-05
-3.2471e-06
-3.7392e-05
-3.51369e-06
-3.71569e-05
-3.74767e-06
-3.69324e-05
-3.94554e-06
-3.67273e-05
-4.10666e-06
-3.65502e-05
-4.23315e-06
-3.64084e-05
-4.32852e-06
-3.63082e-05
-4.39542e-06
-3.62564e-05
-4.43171e-06
-3.62616e-05
-4.42323e-06
-3.63345e-05
-4.33235e-06
-3.64859e-05
-4.08191e-06
-3.67158e-05
-3.53593e-06
-3.70001e-05
-2.47855e-06
-3.73089e-05
-7.06019e-07
-3.77133e-05
2.03866e-06
-3.84507e-05
6.411e-06
-3.97764e-05
1.41794e-05
2.87684e-05
-3.96131e-05
-3.92516e-05
5.51362e-08
-3.92639e-05
3.03577e-08
-3.92711e-05
3.35449e-08
-3.92737e-05
2.84918e-08
-3.92675e-05
-3.28612e-10
-3.92577e-05
-1.93712e-08
-3.92648e-05
1.11657e-08
-3.92779e-05
-7.92065e-09
-3.9279e-05
-2.58334e-08
-3.92718e-05
-3.25356e-08
-3.92435e-05
-4.30689e-08
-3.92386e-05
-2.08241e-08
-3.92461e-05
-5.36291e-09
-3.9242e-05
-4.29596e-10
-3.92544e-05
1.64457e-08
-3.92569e-05
1.95989e-08
-3.92468e-05
9.32042e-09
-3.9254e-05
1.46e-08
-3.92671e-05
4.17788e-08
-3.92724e-05
2.92235e-08
-3.92835e-05
1.37758e-08
-3.92904e-05
2.4243e-08
-3.92887e-05
-8.50462e-09
-3.92752e-05
-4.90471e-08
-3.92783e-05
-1.40361e-09
-3.92788e-05
-1.47922e-08
-3.92655e-05
-4.16099e-08
-3.92473e-05
-5.89937e-09
-3.92485e-05
1.39979e-08
-3.92618e-05
1.84966e-08
-3.9258e-05
1.12505e-08
-3.9268e-05
1.9157e-08
-3.92695e-05
1.50939e-08
-3.92627e-05
-9.07442e-09
-3.92711e-05
8.04215e-09
-3.92721e-05
9.30039e-09
-3.92732e-05
4.04904e-09
-3.92804e-05
1.31688e-08
-3.92907e-05
1.29708e-08
-3.9274e-05
-2.93444e-09
-3.92645e-05
-2.66505e-08
-3.9261e-05
-2.97576e-08
-3.92433e-05
-1.5514e-08
-3.92629e-05
2.42303e-08
-3.92768e-05
-2.50529e-10
-3.9274e-05
-1.7227e-08
-3.92797e-05
-1.3655e-08
-3.92722e-05
-3.08172e-08
-3.9264e-05
-1.7285e-08
-3.92584e-05
-1.13999e-08
-3.92475e-05
-1.42248e-08
-3.92604e-05
2.37249e-08
-3.92674e-05
2.99984e-09
-3.9249e-05
-4.03289e-08
-3.92353e-05
2.9722e-09
-3.925e-05
4.42581e-08
-3.92556e-05
1.40108e-08
-3.92366e-05
8.81408e-09
-3.92392e-05
1.6636e-08
-3.92511e-05
8.1188e-09
-3.9261e-05
4.07514e-08
-3.92704e-05
3.04935e-08
-3.92782e-05
-1.29709e-08
-3.92631e-05
-4.28715e-08
-3.92646e-05
-3.67222e-08
-3.9283e-05
-5.3289e-08
-3.92806e-05
-1.25528e-07
-3.92757e-05
-1.88512e-07
-3.92916e-05
-2.44776e-07
-3.93272e-05
-3.2741e-07
-3.9352e-05
-4.52724e-07
-3.93851e-05
-5.868e-07
-3.9422e-05
-7.44806e-07
-3.94629e-05
-9.3241e-07
-3.95092e-05
-1.1496e-06
-3.95613e-05
-1.39619e-06
-3.96198e-05
-1.66823e-06
-3.96858e-05
-1.95905e-06
-3.97609e-05
-2.25992e-06
-3.98473e-05
-2.56158e-06
-3.9947e-05
-2.8555e-06
-4.00634e-05
-3.13066e-06
-4.02017e-05
-3.37539e-06
-4.0367e-05
-3.5824e-06
-4.05639e-05
-3.7486e-06
-4.07965e-05
-3.87413e-06
-4.1067e-05
-3.96256e-06
-4.13765e-05
-4.01907e-06
-4.17244e-05
-4.04749e-06
-4.21102e-05
-4.04599e-06
-4.25329e-05
-4.00049e-06
-4.29901e-05
-3.8752e-06
-4.34723e-05
-3.5997e-06
-4.39519e-05
-3.05627e-06
-4.4364e-05
-2.06646e-06
-4.46385e-05
-4.31527e-07
-4.47739e-05
2.17405e-06
-4.48175e-05
6.45462e-06
-4.45089e-05
1.38708e-05
2.5926e-05
-4.16665e-05
-3.92692e-05
1.13701e-07
-3.92929e-05
5.40566e-08
-3.92915e-05
3.21625e-08
-3.92755e-05
1.24968e-08
-3.92816e-05
5.73493e-09
-3.92975e-05
-3.44141e-09
-3.92943e-05
7.98328e-09
-3.92919e-05
-1.03849e-08
-3.92909e-05
-2.68486e-08
-3.92831e-05
-4.02893e-08
-3.92741e-05
-5.20838e-08
-3.92767e-05
-1.81884e-08
-3.92836e-05
1.54789e-09
-3.92782e-05
-5.8161e-09
-3.92789e-05
1.70791e-08
-3.92704e-05
1.10862e-08
-3.92709e-05
9.89843e-09
-3.92904e-05
3.40922e-08
-3.92668e-05
1.81253e-08
-3.9268e-05
3.04921e-08
-3.92973e-05
4.30186e-08
-3.92938e-05
2.07622e-08
-3.92999e-05
-2.40962e-09
-3.93051e-05
-4.38553e-08
-3.92908e-05
-1.56777e-08
-3.92862e-05
-1.93994e-08
-3.92812e-05
-4.65873e-08
-3.92555e-05
-3.16492e-08
-3.92514e-05
9.94553e-09
-3.92599e-05
2.69889e-08
-3.92693e-05
2.06699e-08
-3.92824e-05
3.22475e-08
-3.92697e-05
2.38698e-09
-3.92823e-05
3.47843e-09
-3.92909e-05
1.66081e-08
-3.92953e-05
1.37543e-08
-3.93037e-05
1.24791e-08
-3.92935e-05
2.88998e-09
-3.93026e-05
2.2112e-08
-3.92934e-05
-1.21141e-08
-3.9299e-05
-2.10787e-08
-3.931e-05
-1.87784e-08
-3.92905e-05
-3.49687e-08
-3.92872e-05
2.09489e-08
-3.92872e-05
-2.51762e-10
-3.92842e-05
-2.02191e-08
-3.93025e-05
4.63746e-09
-3.93136e-05
-1.97907e-08
-3.92924e-05
-3.84722e-08
-3.92911e-05
-1.26268e-08
-3.92946e-05
-1.07495e-08
-3.92802e-05
9.33352e-09
-3.92755e-05
-1.74476e-09
-3.92861e-05
-2.9709e-08
-3.92769e-05
-6.21269e-09
-3.92657e-05
3.30034e-08
-3.9268e-05
1.63491e-08
-3.92576e-05
-1.58569e-09
-3.92579e-05
1.69462e-08
-3.92895e-05
3.97128e-08
-3.93001e-05
5.13798e-08
-3.92887e-05
1.90255e-08
-3.92984e-05
-3.25128e-09
-3.93151e-05
-2.61344e-08
-3.93193e-05
-3.25101e-08
-3.93166e-05
-5.60382e-08
-3.93293e-05
-1.1277e-07
-3.9358e-05
-1.59812e-07
-3.93962e-05
-2.06653e-07
-3.94488e-05
-2.74788e-07
-3.95163e-05
-3.85207e-07
-3.96024e-05
-5.00731e-07
-3.97039e-05
-6.43309e-07
-3.98256e-05
-8.10689e-07
-3.99718e-05
-1.00341e-06
-4.01459e-05
-1.22208e-06
-4.0351e-05
-1.46311e-06
-4.05899e-05
-1.72015e-06
-4.08651e-05
-1.98472e-06
-4.1178e-05
-2.2487e-06
-4.15288e-05
-2.50468e-06
-4.19194e-05
-2.74006e-06
-4.23511e-05
-2.94368e-06
-4.28238e-05
-3.1097e-06
-4.33364e-05
-3.236e-06
-4.38864e-05
-3.32415e-06
-4.44703e-05
-3.37869e-06
-4.5084e-05
-3.40534e-06
-4.57231e-05
-3.40837e-06
-4.63824e-05
-3.38665e-06
-4.7055e-05
-3.3279e-06
-4.77292e-05
-3.20099e-06
-4.83828e-05
-2.94613e-06
-4.89711e-05
-2.46799e-06
-4.94058e-05
-1.63179e-06
-4.959e-05
-2.47291e-07
-4.9451e-05
2.03507e-06
-4.88521e-05
5.85567e-06
-4.72412e-05
1.226e-05
2.15147e-05
-4.28299e-05
-3.92721e-05
1.61951e-07
-3.92958e-05
7.76939e-08
-3.92825e-05
1.89136e-08
-3.92787e-05
8.73367e-09
-3.92877e-05
1.46882e-08
-3.93035e-05
1.23227e-08
-3.92955e-05
-1.73521e-11
-3.92787e-05
-2.71746e-08
-3.9276e-05
-2.95164e-08
-3.92754e-05
-4.08905e-08
-3.9274e-05
-5.35039e-08
-3.92864e-05
-5.73746e-09
-3.92939e-05
9.04346e-09
-3.92856e-05
-1.41033e-08
-3.92758e-05
7.25292e-09
-3.9273e-05
8.22675e-09
-3.92937e-05
3.06681e-08
-3.92954e-05
3.57512e-08
-3.92673e-05
-9.92178e-09
-3.92586e-05
2.17193e-08
-3.92661e-05
5.05544e-08
-3.92648e-05
1.94441e-08
-3.92942e-05
2.70549e-08
-3.93207e-05
-1.74448e-08
-3.92798e-05
-5.65829e-08
-3.92668e-05
-3.23274e-08
-3.9284e-05
-2.93942e-08
-3.92636e-05
-5.21104e-08
-3.92461e-05
-7.47386e-09
-3.92504e-05
3.12519e-08
-3.92643e-05
3.46018e-08
-3.92709e-05
3.88202e-08
-3.9283e-05
1.45106e-08
-3.9295e-05
1.54149e-08
-3.92916e-05
1.3289e-08
-3.92802e-05
2.29522e-09
-3.92889e-05
2.12397e-08
-3.93111e-05
2.50218e-08
-3.93081e-05
1.91546e-08
-3.93144e-05
-5.8174e-09
-3.9319e-05
-1.64688e-08
-3.93141e-05
-2.36764e-08
-3.93142e-05
-3.49245e-08
-3.93012e-05
7.9884e-09
-3.92967e-05
-4.73917e-09
-3.92895e-05
-2.74322e-08
-3.92799e-05
-4.95189e-09
-3.92817e-05
-1.80098e-08
-3.92866e-05
-3.35778e-08
-3.9297e-05
-2.19656e-09
-3.92961e-05
-1.16922e-08
-3.92691e-05
-1.76075e-08
-3.92657e-05
-5.22892e-09
-3.92899e-05
-5.50028e-09
-3.92876e-05
-8.49587e-09
-3.92684e-05
1.38175e-08
-3.9265e-05
1.29508e-08
-3.92738e-05
7.22037e-09
-3.92852e-05
2.83363e-08
-3.93006e-05
5.50818e-08
-3.928e-05
3.07694e-08
-3.92843e-05
2.33282e-08
-3.93054e-05
1.78596e-08
-3.93304e-05
-1.06094e-09
-3.93365e-05
-2.64216e-08
-3.93361e-05
-5.65123e-08
-3.93693e-05
-7.95306e-08
-3.94131e-05
-1.16035e-07
-3.94632e-05
-1.56508e-07
-3.952e-05
-2.18058e-07
-3.96106e-05
-2.94596e-07
-3.97251e-05
-3.86187e-07
-3.98676e-05
-5.00858e-07
-4.00441e-05
-6.34161e-07
-4.02596e-05
-7.8788e-07
-4.05198e-05
-9.61862e-07
-4.08299e-05
-1.15308e-06
-4.11937e-05
-1.35627e-06
-4.16143e-05
-1.5642e-06
-4.20918e-05
-1.77116e-06
-4.2626e-05
-1.97054e-06
-4.32158e-05
-2.15018e-06
-4.38579e-05
-2.30156e-06
-4.45468e-05
-2.42083e-06
-4.52759e-05
-2.50689e-06
-4.60382e-05
-2.56184e-06
-4.68267e-05
-2.59026e-06
-4.76342e-05
-2.5978e-06
-4.84536e-05
-2.58895e-06
-4.92768e-05
-2.56347e-06
-5.00928e-05
-2.51193e-06
-5.08839e-05
-2.40982e-06
-5.16196e-05
-2.21042e-06
-5.22452e-05
-1.84246e-06
-5.26607e-05
-1.21631e-06
-5.27468e-05
-1.61154e-07
-5.2356e-05
1.64433e-06
-5.1209e-05
4.70861e-06
-4.86489e-05
9.69988e-06
1.62552e-05
-4.33894e-05
-3.92853e-05
1.85321e-07
-3.92707e-05
6.30521e-08
-3.92779e-05
2.61612e-08
-3.92969e-05
2.77607e-08
-3.92964e-05
1.41293e-08
-3.92932e-05
9.10923e-09
-3.92751e-05
-1.80885e-08
-3.92638e-05
-3.84472e-08
-3.9263e-05
-3.03021e-08
-3.92756e-05
-2.83188e-08
-3.92913e-05
-3.78461e-08
-3.92882e-05
-8.83388e-09
-3.92857e-05
6.52928e-09
-3.92734e-05
-2.63413e-08
-3.9267e-05
8.68767e-10
-3.92835e-05
2.46899e-08
-3.92883e-05
3.54855e-08
-3.92676e-05
1.50369e-08
-3.92777e-05
2.05576e-10
-3.92672e-05
1.12141e-08
-3.92548e-05
3.81096e-08
-3.92914e-05
5.60611e-08
-3.92941e-05
2.98018e-08
-3.92859e-05
-2.5652e-08
-3.92763e-05
-6.62181e-08
-3.92692e-05
-3.93786e-08
-3.92758e-05
-2.28383e-08
-3.9282e-05
-4.59119e-08
-3.927e-05
-1.95237e-08
-3.92712e-05
3.2461e-08
-3.92768e-05
4.02555e-08
-3.92664e-05
2.84076e-08
-3.92859e-05
3.40207e-08
-3.92842e-05
1.37264e-08
-3.92982e-05
2.72612e-08
-3.92986e-05
2.68884e-09
-3.92795e-05
2.14575e-09
-3.93057e-05
5.1259e-08
-3.93151e-05
2.84804e-08
-3.93284e-05
7.5417e-09
-3.93125e-05
-3.23455e-08
-3.92986e-05
-3.76471e-08
-3.9331e-05
-2.47418e-09
-3.93185e-05
-4.53689e-09
-3.92983e-05
-2.49329e-08
-3.9306e-05
-1.97503e-08
-3.92676e-05
-4.32897e-08
-3.92545e-05
-3.11381e-08
-3.92848e-05
-3.31208e-09
-3.92776e-05
-9.37895e-09
-3.92646e-05
-2.47153e-08
-3.92658e-05
-1.64086e-08
-3.92716e-05
6.43395e-10
-3.92821e-05
4.99429e-09
-3.92736e-05
-1.70591e-08
-3.92664e-05
6.61166e-09
-3.9283e-05
2.96099e-08
-3.92769e-05
1.11036e-09
-3.92902e-05
4.16048e-08
-3.92902e-05
5.50709e-08
-3.92798e-05
2.03568e-08
-3.92981e-05
4.16279e-08
-3.93071e-05
2.6841e-08
-3.93208e-05
1.26956e-08
-3.9335e-05
-1.223e-08
-3.93542e-05
-3.73179e-08
-3.93918e-05
-4.18788e-08
-3.94471e-05
-6.07641e-08
-3.9499e-05
-1.04596e-07
-3.95682e-05
-1.48875e-07
-3.96673e-05
-1.95495e-07
-3.97957e-05
-2.57818e-07
-3.99606e-05
-3.35899e-07
-4.01683e-05
-4.26508e-07
-4.04255e-05
-5.3067e-07
-4.07394e-05
-6.47964e-07
-4.11163e-05
-7.76149e-07
-4.15611e-05
-9.11482e-07
-4.20766e-05
-1.04873e-06
-4.26628e-05
-1.18499e-06
-4.33186e-05
-1.3147e-06
-4.40399e-05
-1.42891e-06
-4.4819e-05
-1.52247e-06
-4.56467e-05
-1.59313e-06
-4.6513e-05
-1.64056e-06
-4.74079e-05
-1.66697e-06
-4.83217e-05
-1.67646e-06
-4.92454e-05
-1.67407e-06
-5.01703e-05
-1.66403e-06
-5.10866e-05
-1.64717e-06
-5.19807e-05
-1.61782e-06
-5.2831e-05
-1.55959e-06
-5.36008e-05
-1.44055e-06
-5.42302e-05
-1.21305e-06
-5.46168e-05
-8.298e-07
-5.46199e-05
-1.58044e-07
-5.40238e-05
1.0483e-06
-5.24537e-05
3.13843e-06
-4.92476e-05
6.49385e-06
1.05937e-05
-4.35862e-05
-3.92844e-05
1.81478e-07
-3.92656e-05
4.42731e-08
-3.92905e-05
5.10462e-08
-3.9288e-05
2.52877e-08
-3.928e-05
6.1536e-09
-3.927e-05
-9.4418e-10
-3.92437e-05
-4.43754e-08
-3.92484e-05
-3.37463e-08
-3.92637e-05
-1.50035e-08
-3.92682e-05
-2.38059e-08
-3.92808e-05
-2.52526e-08
-3.92709e-05
-1.87207e-08
-3.92622e-05
-2.17295e-09
-3.92715e-05
-1.70085e-08
-3.92759e-05
5.26272e-09
-3.92713e-05
2.00349e-08
-3.92418e-05
6.02877e-09
-3.92569e-05
3.01653e-08
-3.92898e-05
3.30396e-08
-3.92846e-05
6.03684e-09
-3.92758e-05
2.92716e-08
-3.9282e-05
6.23434e-08
-3.92757e-05
2.34743e-08
-3.92691e-05
-3.22287e-08
-3.92862e-05
-4.91605e-08
-3.92779e-05
-4.76719e-08
-3.92823e-05
-1.84216e-08
-3.93087e-05
-1.95069e-08
-3.93031e-05
-2.51432e-08
-3.92858e-05
1.51252e-08
-3.9285e-05
3.95223e-08
-3.92771e-05
2.04172e-08
-3.92733e-05
3.03067e-08
-3.92881e-05
2.85191e-08
-3.93004e-05
3.9549e-08
-3.93094e-05
1.1634e-08
-3.92901e-05
-1.70714e-08
-3.92791e-05
4.0238e-08
-3.93009e-05
5.02773e-08
-3.93078e-05
1.44241e-08
-3.93014e-05
-3.8725e-08
-3.93038e-05
-3.52643e-08
-3.93098e-05
3.51385e-09
-3.92903e-05
-2.40263e-08
-3.92828e-05
-3.24207e-08
-3.92978e-05
-4.7777e-09
-3.92859e-05
-5.52028e-08
-3.92773e-05
-3.96906e-08
-3.92716e-05
-9.00801e-09
-3.92717e-05
-9.34258e-09
-3.92634e-05
-3.29906e-08
-3.92585e-05
-2.12485e-08
-3.92751e-05
1.7243e-08
-3.92881e-05
1.79515e-08
-3.92913e-05
-1.3851e-08
-3.9284e-05
-7.03212e-10
-3.92903e-05
3.58647e-08
-3.93048e-05
1.56611e-08
-3.92874e-05
2.42112e-08
-3.92802e-05
4.79031e-08
-3.92918e-05
3.18993e-08
-3.92708e-05
2.05971e-08
-3.92812e-05
3.72721e-08
-3.9308e-05
3.94868e-08
-3.93386e-05
1.83526e-08
-3.93729e-05
-2.98923e-09
-3.94044e-05
-1.04052e-08
-3.9442e-05
-2.31333e-08
-3.9501e-05
-4.56179e-08
-3.95842e-05
-6.5649e-08
-3.96897e-05
-9.0018e-08
-3.98262e-05
-1.21341e-07
-4.0003e-05
-1.59026e-07
-4.02271e-05
-2.02457e-07
-4.05069e-05
-2.5089e-07
-4.08506e-05
-3.04209e-07
-4.12654e-05
-3.61338e-07
-4.17565e-05
-4.2039e-07
-4.23265e-05
-4.78691e-07
-4.29759e-05
-5.35591e-07
-4.37026e-05
-5.88023e-07
-4.44998e-05
-6.31736e-07
-4.53576e-05
-6.64657e-07
-4.62647e-05
-6.86048e-07
-4.72089e-05
-6.96355e-07
-4.81783e-05
-6.97586e-07
-4.91617e-05
-6.93008e-07
-5.01492e-05
-6.86592e-07
-5.11312e-05
-6.82066e-07
-5.20968e-05
-6.81539e-07
-5.30309e-05
-6.83719e-07
-5.39088e-05
-6.81703e-07
-5.46903e-05
-6.59074e-07
-5.53121e-05
-5.9125e-07
-5.5679e-05
-4.62839e-07
-5.56299e-05
-2.07202e-07
-5.48966e-05
3.15076e-07
-5.30462e-05
1.28799e-06
-4.94361e-05
2.88369e-06
4.7665e-06
-4.36088e-05
-3.93109e-05
9.96652e-08
-3.93028e-05
3.62011e-08
-3.9292e-05
4.01858e-08
-3.92714e-05
4.7664e-09
-3.92606e-05
-4.68751e-09
-3.92461e-05
-1.5456e-08
-3.92548e-05
-3.57086e-08
-3.92717e-05
-1.67675e-08
-3.92649e-05
-2.1851e-08
-3.92566e-05
-3.20943e-08
-3.92741e-05
-7.77457e-09
-3.92751e-05
-1.76811e-08
-3.92434e-05
-3.38938e-08
-3.92604e-05
2.06145e-11
-3.92754e-05
2.02219e-08
-3.9258e-05
2.67932e-09
-3.92546e-05
2.56295e-09
-3.92537e-05
2.92751e-08
-3.92666e-05
4.59417e-08
-3.92928e-05
3.22241e-08
-3.92922e-05
2.86813e-08
-3.92606e-05
3.07641e-08
-3.92409e-05
3.79801e-09
-3.92582e-05
-1.49671e-08
-3.92796e-05
-2.77479e-08
-3.93025e-05
-2.47515e-08
-3.93021e-05
-1.88316e-08
-3.93049e-05
-1.66988e-08
-3.93091e-05
-2.1003e-08
-3.9274e-05
-1.99762e-08
-3.9277e-05
4.25613e-08
-3.92872e-05
3.0593e-08
-3.92769e-05
2.00874e-08
-3.92979e-05
4.94933e-08
-3.92848e-05
2.64237e-08
-3.92993e-05
2.61216e-08
-3.93284e-05
1.20007e-08
-3.92913e-05
3.22887e-09
-3.92737e-05
3.26786e-08
-3.92705e-05
1.11402e-08
-3.92895e-05
-1.96896e-08
-3.93059e-05
-1.88374e-08
-3.92754e-05
-2.70579e-08
-3.92655e-05
-3.38793e-08
-3.92881e-05
-9.84393e-09
-3.92819e-05
-1.09534e-08
-3.92955e-05
-4.16514e-08
-3.9307e-05
-2.81711e-08
-3.92752e-05
-4.08098e-08
-3.92812e-05
-3.2825e-09
-3.93021e-05
-1.21525e-08
-3.92725e-05
-5.0803e-08
-3.92637e-05
8.41472e-09
-3.92867e-05
4.09357e-08
-3.92933e-05
-7.25867e-09
-3.92898e-05
-4.14536e-09
-3.92872e-05
3.32514e-08
-3.92996e-05
2.80139e-08
-3.92919e-05
1.65243e-08
-3.92811e-05
3.71519e-08
-3.92639e-05
1.46738e-08
-3.92603e-05
1.6983e-08
-3.92828e-05
5.98133e-08
-3.93015e-05
5.81869e-08
-3.93305e-05
4.72937e-08
-3.93635e-05
3.00176e-08
-3.93952e-05
2.12854e-08
-3.94339e-05
1.5646e-08
-3.94992e-05
1.96514e-08
-3.95849e-05
2.0044e-08
-3.96919e-05
1.7025e-08
-3.98306e-05
1.72782e-08
-4.0012e-05
2.23713e-08
-4.02436e-05
2.91876e-08
-4.05338e-05
3.93155e-08
-4.08911e-05
5.30581e-08
-4.1323e-05
7.05499e-08
-4.18349e-05
9.15809e-08
-4.24294e-05
1.15718e-07
-4.31072e-05
1.42291e-07
-4.38657e-05
1.70403e-07
-4.46965e-05
1.99101e-07
-4.55888e-05
2.27664e-07
-4.65302e-05
2.55301e-07
-4.75074e-05
2.80885e-07
-4.85079e-05
3.02888e-07
-4.95201e-05
3.19238e-07
-5.0534e-05
3.27275e-07
-5.15398e-05
3.23773e-07
-5.25265e-05
3.05122e-07
-5.34779e-05
2.67665e-07
-5.43679e-05
2.08367e-07
-5.51526e-05
1.25581e-07
-5.57671e-05
2.32332e-08
-5.61259e-05
-1.03978e-07
-5.60612e-05
-2.71924e-07
-5.52762e-05
-4.69929e-07
-5.33026e-05
-6.85649e-07
-4.94924e-05
-9.26451e-07
-1.13928e-06
-4.35867e-05
-3.93237e-05
-9.7883e-08
-3.93081e-05
2.06085e-08
-3.92804e-05
1.25321e-08
-3.9269e-05
-6.61207e-09
-3.92487e-05
-2.503e-08
-3.92428e-05
-2.13852e-08
-3.92621e-05
-1.63396e-08
-3.92769e-05
-1.95752e-09
-3.92655e-05
-3.32614e-08
-3.92656e-05
-3.20461e-08
-3.9265e-05
-8.40176e-09
-3.92537e-05
-2.8953e-08
-3.92547e-05
-3.29104e-08
-3.92616e-05
6.98581e-09
-3.9252e-05
1.05921e-08
-3.92545e-05
5.16445e-09
-3.92802e-05
2.82628e-08
-3.92752e-05
2.43283e-08
-3.92634e-05
3.40722e-08
-3.9271e-05
3.98435e-08
-3.92858e-05
4.35398e-08
-3.92588e-05
3.75949e-09
-3.92385e-05
-1.65139e-08
-3.92625e-05
8.96998e-09
-3.92688e-05
-2.14421e-08
-3.92809e-05
-1.26598e-08
-3.92978e-05
-1.91197e-09
-3.92944e-05
-2.00334e-08
-3.92945e-05
-2.09772e-08
-3.92897e-05
-2.4774e-08
-3.92761e-05
2.89686e-08
-3.92835e-05
3.79873e-08
-3.92861e-05
2.27145e-08
-3.92802e-05
4.36298e-08
-3.92784e-05
2.45793e-08
-3.92915e-05
3.92146e-08
-3.93058e-05
2.63457e-08
-3.92978e-05
-4.79205e-09
-3.92729e-05
7.78315e-09
-3.92605e-05
-1.25178e-09
-3.92811e-05
8.58546e-10
-3.92871e-05
-1.28527e-08
-3.92562e-05
-5.78951e-08
-3.92629e-05
-2.71989e-08
-3.92852e-05
1.24622e-08
-3.92783e-05
-1.78801e-08
-3.92758e-05
-4.41663e-08
-3.92742e-05
-2.97092e-08
-3.92774e-05
-3.76394e-08
-3.92797e-05
-9.91197e-10
-3.92948e-05
3.00757e-09
-3.93045e-05
-4.11119e-08
-3.92853e-05
-1.082e-08
-3.9281e-05
3.65854e-08
-3.92833e-05
-4.94188e-09
-3.92778e-05
-9.60056e-09
-3.9273e-05
2.83983e-08
-3.9274e-05
2.905e-08
-3.9282e-05
2.45714e-08
-3.9276e-05
3.11497e-08
-3.92794e-05
1.80444e-08
-3.92928e-05
3.03303e-08
-3.92893e-05
5.63418e-08
-3.92975e-05
6.63628e-08
-3.93197e-05
6.94976e-08
-3.93401e-05
5.0458e-08
-3.93717e-05
5.28359e-08
-3.94259e-05
6.98682e-08
-3.94888e-05
8.25482e-08
-3.95717e-05
1.02919e-07
-3.96788e-05
1.24124e-07
-3.98181e-05
1.56621e-07
-3.99997e-05
2.03995e-07
-4.02314e-05
2.60908e-07
-4.05213e-05
3.29155e-07
-4.08775e-05
4.09269e-07
-4.13075e-05
5.00514e-07
-4.18166e-05
6.00683e-07
-4.24071e-05
7.0621e-07
-4.308e-05
8.15212e-07
-4.38325e-05
9.22951e-07
-4.46568e-05
1.02336e-06
-4.55421e-05
1.113e-06
-4.64764e-05
1.18961e-06
-4.74469e-05
1.25141e-06
-4.84414e-05
1.29735e-06
-4.94487e-05
1.32652e-06
-5.04589e-05
1.33752e-06
-5.14627e-05
1.32753e-06
-5.24489e-05
1.29133e-06
-5.34014e-05
1.22012e-06
-5.42935e-05
1.10055e-06
-5.50807e-05
9.12775e-07
-5.56948e-05
6.37329e-07
-5.60489e-05
2.5008e-07
-5.59827e-05
-3.38096e-07
-5.52041e-05
-1.24856e-06
-5.32445e-05
-2.64518e-06
-4.94602e-05
-4.71083e-06
-7.02998e-06
-4.35695e-05
-3.93188e-05
-1.28056e-07
-3.92844e-05
-1.38178e-08
-3.92452e-05
-2.66135e-08
-3.9255e-05
3.12733e-09
-3.927e-05
-9.9867e-09
-3.92525e-05
-3.88646e-08
-3.92707e-05
1.8555e-09
-3.92799e-05
7.2347e-09
-3.92627e-05
-5.04452e-08
-3.92756e-05
-1.91563e-08
-3.9279e-05
-4.9986e-09
-3.92686e-05
-3.93673e-08
-3.92696e-05
-3.1949e-08
-3.92767e-05
1.40823e-08
-3.9268e-05
1.93404e-09
-3.92643e-05
1.49385e-09
-3.92971e-05
6.09847e-08
-3.93016e-05
2.88786e-08
-3.92743e-05
6.72522e-09
-3.92626e-05
2.82251e-08
-3.92769e-05
5.77824e-08
-3.92738e-05
6.86248e-10
-3.92653e-05
-2.50415e-08
-3.92765e-05
2.02158e-08
-3.92844e-05
-1.35781e-08
-3.92668e-05
-3.02109e-08
-3.9271e-05
2.28031e-09
-3.92917e-05
6.02234e-10
-3.9284e-05
-2.86798e-08
-3.92956e-05
-1.313e-08
-3.92716e-05
5.00873e-09
-3.92624e-05
2.87114e-08
-3.92745e-05
3.48929e-08
-3.92881e-05
5.71857e-08
-3.92905e-05
2.70137e-08
-3.92591e-05
7.8066e-09
-3.9277e-05
4.42438e-08
-3.93018e-05
2.00277e-08
-3.92576e-05
-3.65083e-08
-3.92472e-05
-1.15609e-08
-3.92723e-05
2.58807e-08
-3.92695e-05
-1.55752e-08
-3.92594e-05
-6.80151e-08
-3.9277e-05
-9.65391e-09
-3.92718e-05
7.33424e-09
-3.92537e-05
-3.59838e-08
-3.92486e-05
-4.93001e-08
-3.92659e-05
-1.24359e-08
-3.92863e-05
-1.72559e-08
-3.92576e-05
-2.96393e-08
-3.92701e-05
1.54737e-08