/*--------------------------------*- C++ -*----------------------------------*\
| =========                 |                                                 |
| \\      /  F ield         | OpenFOAM: The Open Source CFD Toolbox           |
|  \\    /   O peration     | Version:  2.1.0                                 |
|   \\  /    A nd           | Web:      www.OpenFOAM.org                      |
|    \\/     M anipulation  |                                                 |
\*---------------------------------------------------------------------------*/
FoamFile
{
    version     2.0;
    format      ascii;
    class       volVectorField;
    location    "0.02";
    object      U;
}
// * * * * * * * * * * * * * * * * * * * * * * * * * * * * * * * * * * * * * //

dimensions      [0 1 -1 0 0 0 0];

internalField   nonuniform List<vector> 
6400
(
(-1.81968 3.6322e-05 0)
(-1.81978 6.13586e-05 0)
(-1.82006 5.76155e-05 0)
(-1.82027 4.8746e-05 0)
(-1.82047 5.32355e-05 0)
(-1.82062 1.88765e-05 0)
(-1.82063 -1.13821e-05 0)
(-1.82045 -8.02915e-05 0)
(-1.82012 -8.6681e-05 0)
(-1.81982 -6.43854e-05 0)
(-1.81965 -2.14004e-05 0)
(-1.81955 -2.72883e-05 0)
(-1.81941 -4.33525e-05 0)
(-1.8193 -1.25684e-05 0)
(-1.8193 1.24528e-05 0)
(-1.8194 3.76397e-05 0)
(-1.81958 5.71487e-05 0)
(-1.81978 3.90423e-05 0)
(-1.81998 6.43011e-05 0)
(-1.82023 6.15328e-05 0)
(-1.82036 1.86418e-06 0)
(-1.82042 2.99267e-05 0)
(-1.82047 -5.56572e-06 0)
(-1.82035 -5.40119e-05 0)
(-1.82014 -5.23307e-05 0)
(-1.81991 -6.29969e-05 0)
(-1.81974 -2.4982e-05 0)
(-1.81973 2.13369e-05 0)
(-1.8198 1.19691e-05 0)
(-1.81988 3.22381e-05 0)
(-1.82004 4.81352e-05 0)
(-1.82019 2.52197e-05 0)
(-1.82027 1.65839e-05 0)
(-1.82032 7.32811e-06 0)
(-1.82034 4.42314e-08 0)
(-1.82041 3.85971e-05 0)
(-1.82053 1.94686e-05 0)
(-1.82056 -4.04059e-06 0)
(-1.82061 2.74707e-05 0)
(-1.82078 6.28594e-05 0)
(-1.82088 -1.54835e-05 0)
(-1.82074 -5.27249e-05 0)
(-1.82064 -4.90847e-08 0)
(-1.82057 -3.26288e-05 0)
(-1.8204 -5.35628e-05 0)
(-1.82017 -5.91133e-05 0)
(-1.81991 -7.73434e-05 0)
(-1.8197 -3.01958e-05 0)
(-1.8196 -1.37234e-05 0)
(-1.8195 -3.76018e-05 0)
(-1.81944 4.33502e-06 0)
(-1.81943 -6.29357e-06 0)
(-1.81931 -5.26297e-05 0)
(-1.81923 1.01421e-05 0)
(-1.81935 5.01717e-05 0)
(-1.8195 2.42544e-05 0)
(-1.8196 2.68716e-05 0)
(-1.81977 6.0678e-05 0)
(-1.81996 3.17865e-05 0)
(-1.82005 1.16961e-05 0)
(-1.82014 3.65846e-05 0)
(-1.82019 -1.04282e-05 0)
(-1.81997 -9.88201e-05 0)
(-1.81949 -0.000142869 0)
(-1.81871 -0.000247036 0)
(-1.81737 -0.000421646 0)
(-1.81526 -0.000636863 0)
(-1.81217 -0.000909093 0)
(-1.80772 -0.00131741 0)
(-1.80145 -0.00182714 0)
(-1.79305 -0.00237969 0)
(-1.78218 -0.00306956 0)
(-1.76834 -0.00387001 0)
(-1.75101 -0.00481589 0)
(-1.72963 -0.00591351 0)
(-1.70358 -0.0071559 0)
(-1.67232 -0.00853212 0)
(-1.63536 -0.0100262 0)
(-1.59227 -0.0116143 0)
(-1.54275 -0.0132665 0)
(-1.48661 -0.0149503 0)
(-1.4238 -0.0166309 0)
(-1.35443 -0.0182731 0)
(-1.2787 -0.0198456 0)
(-1.19695 -0.0213275 0)
(-1.10957 -0.0227132 0)
(-1.01691 -0.0240113 0)
(-0.919317 -0.0252428 0)
(-0.816994 -0.0264373 0)
(-0.710074 -0.0276108 0)
(-0.598741 -0.0287216 0)
(-0.483613 -0.0295892 0)
(-0.366669 -0.0297036 0)
(-0.253442 -0.0277551 0)
(-0.156829 -0.0212899 0)
(-0.095567 -0.00980082 0)
(-0.0854735 0.00465743 0)
(-0.144245 0.025062 0)
(-0.325224 0.0657946 0)
(-0.900879 0.186072 0)
(-1.93641 1.62149e-05 0)
(-1.93645 0.000195361 0)
(-1.93664 0.000180613 0)
(-1.93693 0.000147312 0)
(-1.93712 0.000162458 0)
(-1.93729 4.08079e-05 0)
(-1.93724 -2.84426e-05 0)
(-1.93704 -0.000252762 0)
(-1.93666 -0.000275247 0)
(-1.93633 -0.000196001 0)
(-1.93612 -4.63693e-05 0)
(-1.93628 -7.88119e-05 0)
(-1.93583 -0.000138294 0)
(-1.93598 -2.86303e-05 0)
(-1.93584 3.98234e-05 0)
(-1.936 0.000116568 0)
(-1.93622 0.000184738 0)
(-1.93643 0.000111226 0)
(-1.93664 0.000193069 0)
(-1.93689 0.000198503 0)
(-1.93703 -1.38089e-05 0)
(-1.93706 9.75348e-05 0)
(-1.93713 -1.75487e-05 0)
(-1.93697 -0.000176544 0)
(-1.93673 -0.000155084 0)
(-1.93648 -0.000201042 0)
(-1.9363 -7.80314e-05 0)
(-1.93618 8.56115e-05 0)
(-1.93666 2.79845e-05 0)
(-1.93627 9.52825e-05 0)
(-1.93681 0.000151743 0)
(-1.93672 7.15624e-05 0)
(-1.93688 5.0989e-05 0)
(-1.93693 2.27628e-05 0)
(-1.93694 -8.66569e-06 0)
(-1.937 0.000123067 0)
(-1.93714 6.14245e-05 0)
(-1.93716 -2.40479e-05 0)
(-1.93716 6.93138e-05 0)
(-1.93735 0.000213276 0)
(-1.93749 -5.61269e-05 0)
(-1.93726 -0.000187082 0)
(-1.9371 2.26305e-05 0)
(-1.93722 -0.000108571 0)
(-1.93684 -0.000172109 0)
(-1.93667 -0.000163016 0)
(-1.93639 -0.000244598 0)
(-1.93619 -8.39275e-05 0)
(-1.93613 -2.6791e-05 0)
(-1.93602 -0.000121746 0)
(-1.93598 2.54888e-05 0)
(-1.93602 -4.9399e-06 0)
(-1.9359 -0.000170752 0)
(-1.93582 4.67438e-05 0)
(-1.93608 0.000182107 0)
(-1.93625 8.37793e-05 0)
(-1.93647 9.28561e-05 0)
(-1.9367 0.000229717 0)
(-1.93708 0.000127562 0)
(-1.93728 6.24712e-05 0)
(-1.93755 0.000178761 0)
(-1.93785 1.3337e-05 0)
(-1.93779 -0.000258164 0)
(-1.93741 -0.000361688 0)
(-1.93725 -0.000655601 0)
(-1.93577 -0.00118897 0)
(-1.93446 -0.00180823 0)
(-1.93131 -0.00257666 0)
(-1.92821 -0.00377969 0)
(-1.92162 -0.00527937 0)
(-1.91506 -0.00684059 0)
(-1.90507 -0.00882085 0)
(-1.89295 -0.0110907 0)
(-1.87782 -0.0137599 0)
(-1.85936 -0.016851 0)
(-1.83704 -0.0203434 0)
(-1.81046 -0.0241968 0)
(-1.77928 -0.0283547 0)
(-1.7433 -0.0327405 0)
(-1.70239 -0.037263 0)
(-1.6566 -0.0418258 0)
(-1.60606 -0.0463281 0)
(-1.55104 -0.050669 0)
(-1.49192 -0.0547597 0)
(-1.42916 -0.0585448 0)
(-1.36324 -0.0620136 0)
(-1.29463 -0.0651929 0)
(-1.22373 -0.0681367 0)
(-1.15092 -0.0709094 0)
(-1.07659 -0.0735302 0)
(-1.00128 -0.0758542 0)
(-0.925963 -0.0773618 0)
(-0.852566 -0.0767274 0)
(-0.784596 -0.0709052 0)
(-0.727779 -0.0544994 0)
(-0.693422 -0.0245141 0)
(-0.70051 0.0174687 0)
(-0.773186 0.077671 0)
(-0.95016 0.187358 0)
(-1.39877 0.49168 0)
(-1.94635 -0.000380438 0)
(-1.94755 0.000321416 0)
(-1.94548 0.00033453 0)
(-1.94728 0.000280961 0)
(-1.94694 0.000249516 0)
(-1.94809 2.03438e-05 0)
(-1.94566 -1.6076e-05 0)
(-1.9478 -0.000449315 0)
(-1.94626 -0.000485033 0)
(-1.94707 -0.000356691 0)
(-1.94399 -4.02529e-05 0)
(-1.94783 -0.000135248 0)
(-1.94458 -0.00025889 0)
(-1.94651 -2.04179e-06 0)
(-1.94583 4.5572e-05 0)
(-1.9447 0.000208066 0)
(-1.94784 0.000343648 0)
(-1.94393 0.000168244 0)
(-1.94812 0.000331886 0)
(-1.948 0.000346602 0)
(-1.94311 -3.32069e-05 0)
(-1.94961 0.000199338 0)
(-1.94683 -4.50447e-05 0)
(-1.94627 -0.000374222 0)
(-1.94684 -0.000223708 0)
(-1.94695 -0.000327288 0)
(-1.94522 -0.000213605 0)
(-1.9458 0.000213325 0)
(-1.94751 8.99904e-05 0)
(-1.94538 0.000109562 0)
(-1.94755 0.000283015 0)
(-1.94599 0.000117426 0)
(-1.94756 9.20365e-05 0)
(-1.94581 3.36621e-05 0)
(-1.94737 -3.26547e-05 0)
(-1.94664 0.00020833 0)
(-1.94815 0.000103039 0)
(-1.94521 -4.37899e-05 0)
(-1.94773 6.99005e-05 0)
(-1.94726 0.000383656 0)
(-1.94795 -0.000130656 0)
(-1.94527 -0.000374651 0)
(-1.94739 0.000102092 0)
(-1.94815 -0.000158387 0)
(-1.94504 -0.000341722 0)
(-1.94692 -0.000252642 0)
(-1.94783 -0.000397 0)
(-1.9429 -0.000167968 0)
(-1.94863 -5.36385e-05 0)
(-1.9429 -0.000185489 0)
(-1.94774 5.95573e-05 0)
(-1.94455 2.69658e-05 0)
(-1.94673 -0.000257248 0)
(-1.94453 1.67867e-05 0)
(-1.94631 0.000363427 0)
(-1.94608 0.000203347 0)
(-1.94614 0.000145529 0)
(-1.94648 0.000490886 0)
(-1.94883 0.000240754 0)
(-1.9435 8.41286e-05 0)
(-1.94998 0.000431246 0)
(-1.94601 0.000147583 0)
(-1.94953 -0.000387892 0)
(-1.94562 -0.000461021 0)
(-1.94953 -0.000855205 0)
(-1.94579 -0.00172253 0)
(-1.94722 -0.00263171 0)
(-1.9438 -0.00372581 0)
(-1.94597 -0.00553432 0)
(-1.93458 -0.00780163 0)
(-1.93857 -0.0100917 0)
(-1.93029 -0.0130388 0)
(-1.92362 -0.0163887 0)
(-1.91499 -0.0203263 0)
(-1.90427 -0.0248863 0)
(-1.89113 -0.0300367 0)
(-1.87529 -0.035707 0)
(-1.85654 -0.0417952 0)
(-1.83476 -0.0481693 0)
(-1.80994 -0.0546773 0)
(-1.78217 -0.061164 0)
(-1.75167 -0.0674672 0)
(-1.71878 -0.0734249 0)
(-1.68392 -0.0789 0)
(-1.64762 -0.0838129 0)
(-1.6104 -0.0881587 0)
(-1.57277 -0.0919769 0)
(-1.53524 -0.0953284 0)
(-1.49837 -0.0982689 0)
(-1.46277 -0.100779 0)
(-1.42921 -0.102602 0)
(-1.3988 -0.102953 0)
(-1.3731 -0.10005 0)
(-1.35413 -0.0903126 0)
(-1.3442 -0.0677726 0)
(-1.3481 -0.0273776 0)
(-1.3693 0.0332104 0)
(-1.42159 0.123451 0)
(-1.54204 0.282414 0)
(-1.78473 0.669075 0)
(-1.95698 -0.000544108 0)
(-1.95789 0.000413659 0)
(-1.95619 0.000540549 0)
(-1.95879 0.000505383 0)
(-1.95871 0.000213379 0)
(-1.95796 -0.000121731 0)
(-1.95552 5.21935e-05 0)
(-1.96176 -0.000540285 0)
(-1.95292 -0.000632574 0)
(-1.96178 -0.000541305 0)
(-1.95289 -0.00019955 0)
(-1.96114 -0.000283016 0)
(-1.952 -0.00032511 0)
(-1.95966 6.05503e-05 0)
(-1.95738 6.86298e-05 0)
(-1.95165 0.000343283 0)
(-1.96231 0.000457741 0)
(-1.95201 0.000187907 0)
(-1.96074 0.000561861 0)
(-1.96076 0.000508417 0)
(-1.94924 1.49368e-05 0)
(-1.96363 0.000348928 0)
(-1.96031 -0.000118512 0)
(-1.95219 -0.000696508 0)
(-1.96089 -0.000177764 0)
(-1.95933 -0.000379649 0)
(-1.95314 -0.000515632 0)
(-1.95828 0.000303448 0)
(-1.95927 0.00023321 0)
(-1.9552 0.000111796 0)
(-1.95997 0.000367656 0)
(-1.9571 0.000185612 0)
(-1.95733 0.000227863 0)
(-1.95772 -1.01937e-05 0)
(-1.95721 -2.9269e-05 0)
(-1.95688 0.000227588 0)
(-1.96172 9.88601e-05 0)
(-1.95333 5.09126e-05 0)
(-1.95998 6.05733e-05 0)
(-1.95795 0.000405617 0)
(-1.96485 -0.000304473 0)
(-1.94305 -0.000568451 0)
(-1.96385 0.000106822 0)
(-1.96053 -2.46764e-05 0)
(-1.95233 -0.000398534 0)
(-1.96008 -0.000328536 0)
(-1.96167 -0.000472133 0)
(-1.94897 -0.00040515 0)
(-1.96439 -0.000154482 0)
(-1.94813 -0.000173089 0)
(-1.96394 -4.26895e-06 0)
(-1.95052 0.000162141 0)
(-1.96048 -0.00018914 0)
(-1.95463 -0.000293438 0)
(-1.9565 0.000438637 0)
(-1.96269 0.000514432 0)
(-1.94639 0.000184857 0)
(-1.96116 0.000670126 0)
(-1.96659 0.000320822 0)
(-1.93901 -1.46205e-05 0)
(-1.96784 0.000674652 0)
(-1.95335 0.00038686 0)
(-1.96164 -0.000488239 0)
(-1.95282 -0.000588489 0)
(-1.96133 -0.00092306 0)
(-1.95455 -0.00184882 0)
(-1.95971 -0.00299825 0)
(-1.95473 -0.0043636 0)
(-1.96127 -0.0063252 0)
(-1.94493 -0.00885686 0)
(-1.9588 -0.0115875 0)
(-1.95213 -0.0150271 0)
(-1.9501 -0.018923 0)
(-1.94721 -0.0235275 0)
(-1.94356 -0.0288703 0)
(-1.93892 -0.0349197 0)
(-1.93319 -0.0415859 0)
(-1.92625 -0.0487301 0)
(-1.91809 -0.0561727 0)
(-1.90876 -0.0637128 0)
(-1.89842 -0.0711494 0)
(-1.88724 -0.0782681 0)
(-1.87552 -0.084846 0)
(-1.86366 -0.09071 0)
(-1.85219 -0.0957756 0)
(-1.84146 -0.100035 0)
(-1.83192 -0.103535 0)
(-1.82397 -0.106347 0)
(-1.81794 -0.108524 0)
(-1.81413 -0.110018 0)
(-1.81292 -0.110498 0)
(-1.8148 -0.109053 0)
(-1.82028 -0.103757 0)
(-1.82956 -0.0910893 0)
(-1.84213 -0.0653657 0)
(-1.8606 -0.0214335 0)
(-1.87931 0.0458729 0)
(-1.90816 0.150815 0)
(-1.96378 0.337169 0)
(-2.04784 0.719084 0)
(-1.96345 0.000505127 0)
(-1.95986 0.000606411 0)
(-1.9631 0.000747671 0)
(-1.96511 0.000678117 0)
(-1.96435 6.90754e-05 0)
(-1.95874 -0.000361747 0)
(-1.96698 0.000190756 0)
(-1.96742 -0.000361618 0)
(-1.95078 -0.000657015 0)
(-1.97233 -0.000723064 0)
(-1.96063 -0.000722937 0)
(-1.96671 -0.000459519 0)
(-1.95683 -0.000228266 0)
(-1.96631 4.10493e-05 0)
(-1.96365 0.000256237 0)
(-1.95488 0.000458472 0)
(-1.96937 0.000358494 0)
(-1.95891 0.000274775 0)
(-1.96517 0.000881568 0)
(-1.96678 0.000665299 0)
(-1.95746 0.000204611 0)
(-1.96871 0.000520487 0)
(-1.96998 -0.000191802 0)
(-1.95093 -0.00105511 0)
(-1.97054 -7.4413e-05 0)
(-1.96704 -0.000375109 0)
(-1.95366 -0.000876241 0)
(-1.96768 8.06104e-05 0)
(-1.96613 0.000334286 0)
(-1.95812 0.000296622 0)
(-1.96796 0.00032904 0)
(-1.9638 0.000353925 0)
(-1.95974 0.000358243 0)
(-1.9747 -0.000142182 0)
(-1.94435 9.6585e-05 0)
(-1.97624 0.000220456 0)
(-1.95106 8.86321e-05 0)
(-1.97329 0.000239601 0)
(-1.96181 0.000195414 0)
(-1.96336 0.000134869 0)
(-1.97799 -0.000547378 0)
(-1.93579 -0.000695257 0)
(-1.9754 -0.000166475 0)
(-1.96671 0.00036183 0)
(-1.95893 -0.000179362 0)
(-1.96665 -0.000395748 0)
(-1.9697 -0.000413456 0)
(-1.9523 -0.000678983 0)
(-1.97343 -0.000330222 0)
(-1.95577 -0.000214515 0)
(-1.96858 -0.000221036 0)
(-1.95201 0.00043229 0)
(-1.96971 -1.2773e-05 0)
(-1.96339 -0.000777666 0)
(-1.96314 0.000244663 0)
(-1.97675 0.000922933 0)
(-1.93589 0.000278957 0)
(-1.97097 0.000456467 0)
(-1.985 0.000383819 0)
(-1.92164 5.60795e-05 0)
(-1.9827 0.000894933 0)
(-1.96234 0.000644942 0)
(-1.96452 -0.00042339 0)
(-1.96035 -0.000882535 0)
(-1.96747 -0.000936266 0)
(-1.96227 -0.00156108 0)
(-1.97122 -0.00311117 0)
(-1.95074 -0.00465756 0)
(-1.97216 -0.00632469 0)
(-1.96243 -0.00863383 0)
(-1.96886 -0.0116366 0)
(-1.96765 -0.015084 0)
(-1.97066 -0.0190806 0)
(-1.97216 -0.0238198 0)
(-1.97442 -0.0293149 0)
(-1.97685 -0.0355504 0)
(-1.9796 -0.0424281 0)
(-1.9827 -0.0497874 0)
(-1.98621 -0.0574188 0)
(-1.99026 -0.0650956 0)
(-1.99494 -0.0726029 0)
(-2.00031 -0.0796839 0)
(-2.00659 -0.0860619 0)
(-2.01412 -0.0915593 0)
(-2.02326 -0.0960995 0)
(-2.03402 -0.0996726 0)
(-2.0466 -0.102348 0)
(-2.06108 -0.104233 0)
(-2.07752 -0.105412 0)
(-2.09586 -0.105834 0)
(-2.11601 -0.105148 0)
(-2.13791 -0.102438 0)
(-2.16124 -0.0958629 0)
(-2.18497 -0.082258 0)
(-2.2069 -0.056705 0)
(-2.22888 -0.0141783 0)
(-2.23872 0.0525918 0)
(-2.24349 0.160551 0)
(-2.23806 0.349913 0)
(-2.21389 0.682395 0)
(-1.96745 0.00211408 0)
(-1.95463 0.00105775 0)
(-1.96713 0.00082126 0)
(-1.9672 0.000512444 0)
(-1.96609 6.74374e-05 0)
(-1.9562 -0.000284728 0)
(-1.97268 0.000239372 0)
(-1.96452 -0.00022835 0)
(-1.95293 -0.00065645 0)
(-1.97302 -0.000910582 0)
(-1.96149 -0.00118866 0)
(-1.96656 -0.000487651 0)
(-1.96435 -4.78591e-05 0)
(-1.96534 -7.81372e-05 0)
(-1.96129 0.000419366 0)
(-1.96098 0.000384508 0)
(-1.96838 0.000240275 0)
(-1.96049 0.000608148 0)
(-1.96625 0.000749183 0)
(-1.96532 0.000747126 0)
(-1.95978 0.000709361 0)
(-1.96947 0.000565462 0)
(-1.96824 -0.000136375 0)
(-1.95397 -0.00115894 0)
(-1.97026 -0.00021332 0)
(-1.97268 -0.000427085 0)
(-1.94397 -0.00110107 0)
(-1.97265 -0.000469637 0)
(-1.96824 0.000299344 0)
(-1.95651 0.000567605 0)
(-1.96889 0.000398958 0)
(-1.96569 0.000643008 0)
(-1.96225 0.000218353 0)
(-1.98051 -6.9199e-05 0)
(-1.93145 0.000304823 0)
(-1.99233 0.000287076 0)
(-1.92789 0.000204451 0)
(-1.99158 0.000200145 0)
(-1.95946 0.000436697 0)
(-1.96168 -0.000187954 0)
(-1.97399 -0.000596912 0)
(-1.95197 -0.000607572 0)
(-1.97667 -0.000632296 0)
(-1.95787 0.000565224 0)
(-1.9694 -6.28875e-06 0)
(-1.96315 -0.000468514 0)
(-1.97894 -0.000112318 0)
(-1.93824 -0.000630243 0)
(-1.98115 -0.000696189 0)
(-1.96421 -0.00029936 0)
(-1.96129 -0.000310163 0)
(-1.95593 0.000411951 0)
(-1.97134 1.57329e-05 0)
(-1.96563 -0.000875965 0)
(-1.96622 -4.04734e-05 0)
(-1.97625 0.000966186 0)
(-1.94114 0.000379606 0)
(-1.96735 8.98835e-05 0)
(-1.99122 0.000419084 0)
(-1.91374 0.000596225 0)
(-1.98835 0.00114978 0)
(-1.97533 0.000619093 0)
(-1.94142 -0.000201287 0)
(-1.97572 -0.000862951 0)
(-1.96862 -0.000865684 0)
(-1.9704 -0.00136814 0)
(-1.97442 -0.00297346 0)
(-1.94209 -0.00432112 0)
(-1.97823 -0.00563125 0)
(-1.97739 -0.00754512 0)
(-1.97036 -0.0104722 0)
(-1.97804 -0.0135854 0)
(-1.98342 -0.0173486 0)
(-1.98823 -0.0217849 0)
(-1.99515 -0.0269075 0)
(-2.00309 -0.0327216 0)
(-2.01254 -0.0391325 0)
(-2.02363 -0.0459773 0)
(-2.03647 -0.0530411 0)
(-2.0512 -0.0601062 0)
(-2.06783 -0.066974 0)
(-2.08616 -0.0733463 0)
(-2.10669 -0.0789391 0)
(-2.12936 -0.0835953 0)
(-2.15404 -0.0872444 0)
(-2.18061 -0.0899071 0)
(-2.20893 -0.0916854 0)
(-2.23884 -0.0927162 0)
(-2.27016 -0.0931017 0)
(-2.30261 -0.0928049 0)
(-2.33585 -0.0914969 0)
(-2.36941 -0.0883426 0)
(-2.40243 -0.0817166 0)
(-2.43316 -0.0689597 0)
(-2.45832 -0.0461626 0)
(-2.47896 -0.00846743 0)
(-2.47866 0.0525492 0)
(-2.46031 0.153664 0)
(-2.40433 0.326159 0)
(-2.31061 0.5925 0)
(-1.97073 0.00344196 0)
(-1.94591 0.00163811 0)
(-1.97182 0.000638023 0)
(-1.96775 0.000265641 0)
(-1.9702 0.000255196 0)
(-1.95205 0.00011111 0)
(-1.97179 9.95297e-05 0)
(-1.96259 -0.000470067 0)
(-1.96226 -0.000705566 0)
(-1.96439 -0.00101585 0)
(-1.96387 -0.00132033 0)
(-1.96551 -0.000299174 0)
(-1.96694 0.00013262 0)
(-1.96623 -0.000249153 0)
(-1.96013 0.000303566 0)
(-1.95693 0.000241566 0)
(-1.97067 0.000508957 0)
(-1.9659 0.000875494 0)
(-1.96337 0.000100394 0)
(-1.96164 0.000652834 0)
(-1.9745 0.00117407 0)
(-1.94749 0.00050402 0)
(-1.96886 0.000309035 0)
(-1.96369 -0.000767648 0)
(-1.9682 -0.000902428 0)
(-1.97475 -0.000646366 0)
(-1.93759 -0.000946784 0)
(-1.97509 -0.00104665 0)
(-1.96591 3.02618e-05 0)
(-1.9609 0.000728656 0)
(-1.96772 0.000691905 0)
(-1.96663 0.000889889 0)
(-1.96033 0.000211511 0)
(-1.96684 0.000237351 0)
(-1.9538 0.000374268 0)
(-1.97669 0.000200726 0)
(-1.94046 0.000418943 0)
(-1.9834 0.000348018 0)
(-1.96534 0.000515923 0)
(-1.96256 -0.000223697 0)
(-1.96142 -0.00046806 0)
(-1.97122 -0.000532731 0)
(-1.97282 -0.000873515 0)
(-1.94933 0.000359512 0)
(-1.97718 -6.232e-05 0)
(-1.96014 -0.000594144 0)
(-1.9838 -3.83119e-06 0)
(-1.92671 -0.000467666 0)
(-1.98152 -0.000899294 0)
(-1.96769 -0.000186136 0)
(-1.96356 -0.00028091 0)
(-1.96035 -0.00010194 0)
(-1.96702 -8.71763e-05 0)
(-1.96431 -0.000440168 0)
(-1.96796 -0.000184097 0)
(-1.97379 0.000585453 0)
(-1.94392 0.00036699 0)
(-1.96416 7.07863e-05 0)
(-1.99253 0.000565999 0)
(-1.91798 0.00118413 0)
(-1.99122 0.0010309 0)
(-1.98237 0.000526908 0)
(-1.91316 0.000180908 0)
(-1.99206 -0.000339596 0)
(-1.96984 -0.000736401 0)
(-1.97014 -0.0014105 0)
(-1.97129 -0.00240513 0)
(-1.95453 -0.00345389 0)
(-1.98056 -0.00454319 0)
(-1.97693 -0.00616626 0)
(-1.9723 -0.00849139 0)
(-1.98646 -0.0110857 0)
(-1.98987 -0.0142996 0)
(-1.99773 -0.0180559 0)
(-2.00791 -0.0223861 0)
(-2.01966 -0.0272933 0)
(-2.0339 -0.0326949 0)
(-2.05073 -0.0384455 0)
(-2.07033 -0.0443492 0)
(-2.09285 -0.0502324 0)
(-2.11811 -0.0559197 0)
(-2.14585 -0.0610995 0)
(-2.17687 -0.0655342 0)
(-2.2102 -0.069097 0)
(-2.24564 -0.0717457 0)
(-2.28291 -0.0735287 0)
(-2.32165 -0.0745601 0)
(-2.3615 -0.0749827 0)
(-2.40217 -0.074906 0)
(-2.44323 -0.0743129 0)
(-2.48415 -0.0729324 0)
(-2.52421 -0.0700695 0)
(-2.5622 -0.0643943 0)
(-2.59595 -0.0538269 0)
(-2.62155 -0.035565 0)
(-2.63871 -0.00509935 0)
(-2.62933 0.0459462 0)
(-2.59067 0.131926 0)
(-2.49635 0.274287 0)
(-2.36068 0.472139 0)
(-1.96692 0.00433495 0)
(-1.9533 0.00175908 0)
(-1.97104 0.000563858 0)
(-1.96404 0.000455791 0)
(-1.97379 0.000360552 0)
(-1.95047 0.000268071 0)
(-1.97204 -0.000226524 0)
(-1.9575 -0.000823622 0)
(-1.97007 -0.000748556 0)
(-1.95569 -0.00086386 0)
(-1.96859 -0.00114317 0)
(-1.96578 -0.000182055 0)
(-1.96527 0.000194598 0)
(-1.96577 -0.000508127 0)
(-1.96595 0.000101562 0)
(-1.94955 0.000409954 0)
(-1.97177 0.000828739 0)
(-1.97475 0.000634862 0)
(-1.9441 -0.00011972 0)
(-1.97404 0.000411245 0)
(-1.98417 0.00110613 0)
(-1.92092 0.000930297 0)
(-1.97907 0.000707604 0)
(-1.96996 -0.000539218 0)
(-1.96641 -0.0015349 0)
(-1.97195 -0.000896734 0)
(-1.94215 -0.000654188 0)
(-1.9785 -0.00122686 0)
(-1.95509 -0.000338642 0)
(-1.97051 0.000798084 0)
(-1.96797 0.000937543 0)
(-1.96301 0.000843275 0)
(-1.96708 0.000606653 0)
(-1.94658 0.000364542 0)
(-1.97598 0.00050944 0)
(-1.95741 6.22472e-05 0)
(-1.96456 0.000295966 0)
(-1.97162 0.000953903 0)
(-1.96358 0.000597349 0)
(-1.96966 2.10088e-05 0)
(-1.96035 -0.000610141 0)
(-1.96788 -0.000768187 0)
(-1.96647 -0.000466403 0)
(-1.95886 4.38245e-05 0)
(-1.97428 -0.000370745 0)
(-1.95971 -0.000589487 0)
(-1.97407 -0.000602419 0)
(-1.94814 -0.000614662 0)
(-1.97107 -0.000462739 0)
(-1.9645 -0.000144755 0)
(-1.96479 -0.000455896 0)
(-1.96099 -0.000425863 0)
(-1.96457 -5.73482e-05 0)
(-1.96681 -6.3258e-06 0)
(-1.96753 -0.000319392 0)
(-1.97075 0.000254491 0)
(-1.94262 0.000529427 0)
(-1.96286 0.000103856 0)
(-1.9939 0.00087327 0)
(-1.93265 0.00136918 0)
(-1.96355 0.000638023 0)
(-1.99176 0.000812987 0)
(-1.92773 0.000558647 0)
(-1.98589 0.000145404 0)
(-1.97296 -0.000483237 0)
(-1.9601 -0.00117243 0)
(-1.97185 -0.00151871 0)
(-1.96522 -0.00221443 0)
(-1.98316 -0.00326353 0)
(-1.97021 -0.00457344 0)
(-1.97716 -0.00611704 0)
(-1.99181 -0.0080502 0)
(-1.99306 -0.0104567 0)
(-2.00339 -0.0132559 0)
(-2.01522 -0.0164795 0)
(-2.02931 -0.0201199 0)
(-2.04658 -0.0241118 0)
(-2.0671 -0.0283423 0)
(-2.09111 -0.0326558 0)
(-2.11874 -0.0369444 0)
(-2.14957 -0.0410557 0)
(-2.18379 -0.0447266 0)
(-2.22159 -0.0477875 0)
(-2.26175 -0.0501588 0)
(-2.30408 -0.0518244 0)
(-2.34809 -0.0528384 0)
(-2.39328 -0.0533095 0)
(-2.43918 -0.0533713 0)
(-2.48537 -0.0531325 0)
(-2.53139 -0.052601 0)
(-2.57661 -0.0515885 0)
(-2.62011 -0.0495837 0)
(-2.66043 -0.0456045 0)
(-2.69519 -0.0381655 0)
(-2.72018 -0.0255571 0)
(-2.73322 -0.0039882 0)
(-2.71702 0.0336312 0)
(-2.66229 0.0980358 0)
(-2.54118 0.202404 0)
(-2.38219 0.335893 0)
(-1.96356 0.00458404 0)
(-1.9631 0.00134621 0)
(-1.96466 0.000965194 0)
(-1.96632 0.000663814 0)
(-1.97278 0.000253598 0)
(-1.94743 0.00010186 0)
(-1.97822 -0.000783544 0)
(-1.94202 -0.000904709 0)
(-1.97819 -0.000566983 0)
(-1.95627 -0.000650523 0)
(-1.96396 -0.000788724 0)
(-1.96967 -0.000344771 0)
(-1.96872 5.41855e-05 0)
(-1.96039 -0.000542265 0)
(-1.9517 7.76824e-05 0)
(-1.97307 0.000559867 0)
(-1.96142 0.000515407 0)
(-1.97706 0.00056202 0)
(-1.92622 0.000411309 0)
(-1.98605 0.00021508 0)
(-1.97005 0.000840165 0)
(-1.94413 0.00148034 0)
(-1.9768 0.000667534 0)
(-1.96284 -0.000723842 0)
(-1.96869 -0.00144298 0)
(-1.97149 -0.00108753 0)
(-1.94358 -0.000514889 0)
(-1.98181 -0.000816151 0)
(-1.94926 -0.000555465 0)
(-1.97645 0.00059354 0)
(-1.97514 0.000996778 0)
(-1.94243 0.000608245 0)
(-1.98837 0.000802403 0)
(-1.93172 0.000524704 0)
(-1.97632 0.000837868 0)
(-1.96179 0.00017906 0)
(-1.97046 -0.000187848 0)
(-1.97157 0.00114461 0)
(-1.95419 0.000980897 0)
(-1.97409 0.000274769 0)
(-1.96412 -0.000888922 0)
(-1.95692 -0.000908977 0)
(-1.96689 1.29475e-05 0)
(-1.9669 -0.000356882 0)
(-1.9656 -0.000717605 0)
(-1.96418 -0.000307456 0)
(-1.96588 -0.00123174 0)
(-1.96226 -0.000888638 0)
(-1.9654 -0.000154053 0)
(-1.96387 -0.000234048 0)
(-1.96318 -0.000720821 0)
(-1.9617 -0.000470403 0)
(-1.96455 0.000223647 0)
(-1.96726 0.000286866 0)
(-1.96667 -0.000385777 0)
(-1.96799 7.38839e-05 0)
(-1.95489 0.000817943 0)
(-1.95238 0.00020841 0)
(-1.98739 0.000823244 0)
(-1.96846 0.00129063 0)
(-1.92691 0.000644328 0)
(-1.99671 0.000778023 0)
(-1.94043 0.000806644 0)
(-1.97856 0.000653478 0)
(-1.97886 7.67437e-05 0)
(-1.94998 -0.000499937 0)
(-1.9701 -0.000651415 0)
(-1.97333 -0.00105014 0)
(-1.98177 -0.00187783 0)
(-1.96795 -0.00267919 0)
(-1.98165 -0.00357146 0)
(-1.99195 -0.00473958 0)
(-1.99444 -0.00618558 0)
(-2.00618 -0.00786216 0)
(-2.0187 -0.00976971 0)
(-2.03412 -0.0119026 0)
(-2.05309 -0.0142193 0)
(-2.07572 -0.0166494 0)
(-2.10228 -0.019094 0)
(-2.13289 -0.0215086 0)
(-2.1668 -0.0237848 0)
(-2.20501 -0.0257602 0)
(-2.24659 -0.0273413 0)
(-2.29069 -0.0284917 0)
(-2.33695 -0.0292129 0)
(-2.38477 -0.0295576 0)
(-2.43356 -0.029618 0)
(-2.48279 -0.0295067 0)
(-2.532 -0.029323 0)
(-2.58068 -0.0291039 0)
(-2.62814 -0.0287624 0)
(-2.67335 -0.0280073 0)
(-2.71468 -0.0262347 0)
(-2.74959 -0.0225422 0)
(-2.77397 -0.0161486 0)
(-2.78334 -0.00456452 0)
(-2.76338 0.0170344 0)
(-2.69783 0.0553431 0)
(-2.56008 0.117355 0)
(-2.38944 0.192463 0)
(-1.96886 0.00352013 0)
(-1.96343 0.0010073 0)
(-1.96599 0.00114078 0)
(-1.96576 0.00037556 0)
(-1.96909 1.79047e-05 0)
(-1.95322 -0.000205086 0)
(-1.98161 -0.000997269 0)
(-1.92354 -0.000622733 0)
(-1.98361 -0.00045944 0)
(-1.96787 -0.000698873 0)
(-1.9552 -0.000411499 0)
(-1.9746 -0.00045518 0)
(-1.97626 -0.000453316 0)
(-1.9514 -0.000209153 0)
(-1.93179 0.000315327 0)
(-1.99308 0.00028383 0)
(-1.95249 0.000107032 0)
(-1.97573 0.000742367 0)
(-1.94312 0.000986232 0)
(-1.97371 0.000479195 0)
(-1.96279 0.0007247 0)
(-1.96266 0.00117272 1.37852e-41)
(-1.96895 0.000341498 0)
(-1.95809 -0.000589498 0)
(-1.96909 -0.000961679 0)
(-1.97042 -0.000906624 0)
(-1.94888 -0.000466012 0)
(-1.97608 -0.000453016 0)
(-1.95814 -0.000577007 0)
(-1.97423 -6.10151e-05 0)
(-1.97799 0.00102111 0)
(-1.92151 0.000627754 0)
(-2.00182 0.000628947 0)
(-1.94594 0.000966098 0)
(-1.95549 0.000819578 0)
(-1.97619 0.000474777 0)
(-1.9586 -5.95731e-05 0)
(-1.97401 0.000543529 0)
(-1.96254 0.00103943 0)
(-1.96854 0.000319717 0)
(-1.96175 -0.000729757 0)
(-1.95737 -0.000676217 0)
(-1.96535 -0.000294123 0)
(-1.96904 -0.000724534 0)
(-1.96046 -0.000527892 0)
(-1.96643 -0.000196825 0)
(-1.9659 -0.0012113 0)
(-1.96224 -0.000847878 0)
(-1.96655 -0.000623363 0)
(-1.96329 -0.000157854 0)
(-1.96478 -0.000564555 0)
(-1.96501 -0.000901817 0)
(-1.96308 0.000320774 0)
(-1.96435 0.00073584 0)
(-1.9689 -0.000264297 0)
(-1.9663 -6.05961e-05 0)
(-1.95612 0.000863786 0)
(-1.95778 0.000544783 0)
(-1.97469 0.000509177 0)
(-1.97182 0.00106787 0)
(-1.94525 0.000586288 0)
(-1.98799 0.000469441 0)
(-1.93055 0.00120207 0)
(-1.97965 0.00121917 0)
(-1.9789 0.000822059 0)
(-1.95494 0.000337545 0)
(-1.96463 0.00013573 0)
(-1.97437 -9.26874e-05 0)
(-1.97945 -0.000323613 0)
(-1.97013 -0.000571441 0)
(-1.98223 -0.000913259 0)
(-1.99115 -0.00130078 0)
(-1.99494 -0.00170864 0)
(-2.00683 -0.00216647 0)
(-2.01977 -0.00264549 0)
(-2.03581 -0.00314051 0)
(-2.05555 -0.00363634 0)
(-2.07913 -0.004112 0)
(-2.10684 -0.00453945 0)
(-2.1388 -0.00491875 0)
(-2.174 -0.00522253 0)
(-2.21409 -0.00541105 0)
(-2.25731 -0.00546568 -6.42488e-41)
(-2.30312 -0.00538754 0)
(-2.35107 -0.00519632 0)
(-2.40048 -0.00493627 0)
(-2.45076 -0.00467418 0)
(-2.50137 -0.00449308 -5.28159e-41)
(-2.55183 -0.00447994 0)
(-2.60164 -0.0047063 0)
(-2.65006 -0.00520173 0)
(-2.69602 -0.00591774 0)
(-2.73777 -0.00666951 0)
(-2.77277 -0.00710034 -4.17321e-41)
(-2.7968 -0.0070834 0)
(-2.80411 -0.00598694 0)
(-2.78267 -0.00193931 -2.27965e-41)
(-2.71274 0.00753564 0)
(-2.56757 0.0245486 0)
(-2.39214 0.0456138 0)
(-1.97495 2.17106e-05 0)
(-1.96001 0.000708734 0)
(-1.97026 0.000658816 0)
(-1.96291 -2.35067e-05 0)
(-1.96416 -0.000373289 0)
(-1.95452 -0.000461145 0)
(-1.9732 -0.000652851 0)
(-1.94511 -0.000236583 0)
(-1.97392 -0.000689995 0)
(-1.96716 -0.00080327 0)
(-1.95951 -0.000202226 0)
(-1.97372 -0.000583087 0)
(-1.96767 -0.000834269 0)
(-1.94655 8.6674e-05 0)
(-1.9458 0.000385908 0)
(-1.98676 9.80035e-05 0)
(-1.95314 0.000384207 0)
(-1.973 0.000670432 0)
(-1.95936 0.0010019 0)
(-1.9587 0.000896789 0)
(-1.96601 0.000903477 0)
(-1.96066 0.000431571 5.07309e-42)
(-1.9694 -0.000158792 0)
(-1.95988 -7.5446e-05 0)
(-1.97053 -0.000615518 0)
(-1.96299 -0.00046721 0)
(-1.95506 -0.000259442 0)
(-1.96684 -0.000458934 0)
(-1.96714 -0.000525563 0)
(-1.96545 -0.000559403 0)
(-1.97015 0.000895894 0)
(-1.94364 0.00085789 0)
(-1.9846 0.000536924 0)
(-1.96766 0.00117043 0)
(-1.95301 0.000636325 0)
(-1.97154 0.000816194 0)
(-1.94801 0.000479883 0)
(-1.96254 -2.11855e-05 0)
(-1.97762 0.00050628 0)
(-1.96458 0.000123368 0)
(-1.96318 -0.000235566 0)
(-1.95742 -0.000396496 0)
(-1.96497 -0.00106214 0)
(-1.96731 -0.000763918 0)
(-1.96104 3.30323e-05 0)
(-1.9655 -0.000360826 0)
(-1.96424 -0.00107394 0)
(-1.96404 -0.000724527 0)
(-1.96406 -0.000981211 0)
(-1.96161 -5.33866e-05 0)
(-1.96777 -0.000114313 0)
(-1.96386 -0.00114931 0)
(-1.96313 -3.00715e-05 0)
(-1.96682 0.000969463 0)
(-1.967 -0.000152621 0)
(-1.96163 -0.000171715 0)
(-1.9596 0.000771232 0)
(-1.962 0.000715318 0)
(-1.96922 0.000514284 0)
(-1.96458 0.000854187 0)
(-1.96024 0.000410444 0)
(-1.97222 0.000591866 0)
(-1.95168 0.00145857 0)
(-1.97225 0.00156134 0)
(-1.972 0.00146115 0)
(-1.9559 0.00100799 0)
(-1.97027 0.000930539 0)
(-1.96653 0.00107098 0)
(-1.97678 0.00127965 0)
(-1.97558 0.00153438 0)
(-1.97932 0.00176477 0)
(-1.99037 0.00217421 0)
(-1.99471 0.00282927 0)
(-2.00604 0.00362683 0)
(-2.01916 0.00460684 0)
(-2.03516 0.00578058 0)
(-2.05482 0.0071405 0)
(-2.07828 0.00865636 0)
(-2.10582 0.0102781 0)
(-2.13756 0.0119736 0)
(-2.17249 0.013672 0)
(-2.21227 0.0152879 0)
(-2.25515 0.0167664 1.97089e-40)
(-2.30061 0.0180701 0)
(-2.34821 0.0191627 0)
(-2.3973 0.0200118 0)
(-2.44731 0.0205804 0)
(-2.49769 0.0208176 2.4471e-40)
(-2.54801 0.0206481 0)
(-2.59774 0.0199612 0)
(-2.64618 0.0186015 0)
(-2.69221 0.0163641 0)
(-2.73408 0.0129801 0)
(-2.76912 0.00825585 4.85235e-41)
(-2.79351 0.00182417 0)
(-2.8006 -0.00762194 0)
(-2.77862 -0.0214779 -2.52471e-40)
(-2.70953 -0.0416718 0)
(-2.56528 -0.0706559 0)
(-2.39058 -0.102623 0)
(-1.96767 -0.00283042 0)
(-1.96513 8.48686e-05 0)
(-1.96707 -0.000177662 0)
(-1.9645 -4.3243e-05 0)
(-1.95636 -0.000435509 0)
(-1.96335 -0.000753578 0)
(-1.95562 -0.000179502 0)
(-1.96753 6.56035e-05 0)
(-1.96669 -0.0010504 0)
(-1.96262 -0.000639865 0)
(-1.96706 -0.000167682 0)
(-1.97377 -0.000854364 0)
(-1.95133 -0.000809647 0)
(-1.96199 0.000262582 0)
(-1.95405 0.00015771 0)
(-1.97859 8.33194e-05 0)
(-1.95429 0.00111195 0)
(-1.97075 0.000665372 0)
(-1.96628 0.00051358 0)
(-1.96366 0.000852056 0)
(-1.95857 0.00126381 0)
(-1.95977 5.55034e-05 0)
(-1.97026 -0.000520076 0)
(-1.96631 0.000365027 0)
(-1.96776 -0.000437688 0)
(-1.95648 -0.000534443 0)
(-1.96415 4.43372e-06 0)
(-1.96045 -0.000242658 0)
(-1.96917 -0.000620964 0)
(-1.96207 -0.000473717 0)
(-1.96163 0.000425431 0)
(-1.96583 0.000840009 0)
(-1.96524 0.000720659 0)
(-1.97454 0.00126513 0)
(-1.96532 0.000645946 0)
(-1.96323 0.000584838 0)
(-1.95125 0.000875659 0)
(-1.94022 0.000189052 0)
(-1.98574 -0.000358582 0)
(-1.96474 -0.000160044 0)
(-1.96921 0.00033401 0)
(-1.95268 -0.000354528 0)
(-1.96734 -0.0015742 0)
(-1.96546 -0.000459879 0)
(-1.96224 0.000247084 0)
(-1.96426 -0.000677043 0)
(-1.96176 -0.00116961 0)
(-1.96427 -0.000526506 0)
(-1.96271 -0.000685873 0)
(-1.96171 -0.000383305 0)
(-1.9683 0.000231157 0)
(-1.95888 -0.0006074 0)
(-1.96805 -0.000311558 0)
(-1.96747 0.000714494 0)
(-1.96219 -9.31454e-05 0)
(-1.96154 -0.000221407 0)
(-1.96732 0.000316023 0)
(-1.9582 0.00066797 0)
(-1.96486 0.000883469 0)
(-1.96724 0.000825748 0)
(-1.9616 0.000649983 0)
(-1.96825 0.000826734 0)
(-1.9625 0.00135696 0)
(-1.96339 0.0017751 0)
(-1.97281 0.00172486 0)
(-1.95762 0.00144141 0)
(-1.96492 0.00185322 0)
(-1.96744 0.00242535 0)
(-1.9718 0.00280309 0)
(-1.98229 0.0035067 0)
(-1.97532 0.0043853 0)
(-1.98861 0.00563489 0)
(-1.99385 0.00731186 0)
(-2.00386 0.00932181 0)