/*--------------------------------*- C++ -*----------------------------------*\
| =========                 |                                                 |
| \\      /  F ield         | OpenFOAM: The Open Source CFD Toolbox           |
|  \\    /   O peration     | Version:  2.1.0                                 |
|   \\  /    A nd           | Web:      www.OpenFOAM.org                      |
|    \\/     M anipulation  |                                                 |
\*---------------------------------------------------------------------------*/
FoamFile
{
    version     2.0;
    format      ascii;
    class       volScalarField;
    location    "0.47";
    object      C0;
}
// * * * * * * * * * * * * * * * * * * * * * * * * * * * * * * * * * * * * * //

dimensions      [0 0 0 0 0 0 0];

internalField   nonuniform List<scalar> 
6400
(
0.000513177
0.000513795
0.000514586
0.000515439
0.000516327
0.000517243
0.000518186
0.000519157
0.000520156
0.000521185
0.000522244
0.000523334
0.000524457
0.000525613
0.000526804
0.000528031
0.000529294
0.000530596
0.000531937
0.000533318
0.000534742
0.000536209
0.000537721
0.000539279
0.000540886
0.000542542
0.000544248
0.000546008
0.000547823
0.000549693
0.000551623
0.000553612
0.000555664
0.000557779
0.000559962
0.000562213
0.000564535
0.00056693
0.000569402
0.000571951
0.000574582
0.000577296
0.000580097
0.000582988
0.000585971
0.000589049
0.000592227
0.000595507
0.000598893
0.000602388
0.000605996
0.000609722
0.000613568
0.00061754
0.000621641
0.000625877
0.000630251
0.000634768
0.000639434
0.000644253
0.000649231
0.000654373
0.000659684
0.00066517
0.000670837
0.000676691
0.000682739
0.000688986
0.000695439
0.000702104
0.000708988
0.000716098
0.000723441
0.000731023
0.000738852
0.000746933
0.000755273
0.000763879
0.000772756
0.000781909
0.000791342
0.000801059
0.000811059
0.000821344
0.00083191
0.00084275
0.000853855
0.000865209
0.000876793
0.000888578
0.000900527
0.000912593
0.000924707
0.000936757
0.00094857
0.000959924
0.000970635
0.000980391
0.000988688
0.000994837
0.000512642
0.000513257
0.000514038
0.000514876
0.000515749
0.000516648
0.000517575
0.000518529
0.000519511
0.000520523
0.000521564
0.000522636
0.00052374
0.000524877
0.000526048
0.000527254
0.000528497
0.000529778
0.000531097
0.000532456
0.000533857
0.000535301
0.00053679
0.000538324
0.000539905
0.000541535
0.000543216
0.00054495
0.000546737
0.00054858
0.000550481
0.000552441
0.000554464
0.00055655
0.000558701
0.000560921
0.000563212
0.000565575
0.000568013
0.00057053
0.000573126
0.000575806
0.000578573
0.000581428
0.000584375
0.000587418
0.000590559
0.000593802
0.000597151
0.000600609
0.00060418
0.000607868
0.000611677
0.000615611
0.000619676
0.000623874
0.000628212
0.000632693
0.000637324
0.000642108
0.000647052
0.00065216
0.000657439
0.000662895
0.000668533
0.00067436
0.000680382
0.000686606
0.000693039
0.000699686
0.000706557
0.000713657
0.000720994
0.000728576
0.000736409
0.000744501
0.00075286
0.000761492
0.000770403
0.000779601
0.000789091
0.000798876
0.000808962
0.000819348
0.000830034
0.000841017
0.000852289
0.000863836
0.000875637
0.000887662
0.000899865
0.00091218
0.000924509
0.000936713
0.000948609
0.000959947
0.000970528
0.000979985
0.000987798
0.000993383
0.000511492
0.00051209
0.000512843
0.000513649
0.000514487
0.000515352
0.000516243
0.00051716
0.000518105
0.000519078
0.000520079
0.000521111
0.000522173
0.000523268
0.000524395
0.000525557
0.000526753
0.000527987
0.000529258
0.000530568
0.000531918
0.00053331
0.000534745
0.000536225
0.00053775
0.000539323
0.000540946
0.000542619
0.000544345
0.000546125
0.000547962
0.000549857
0.000551812
0.000553829
0.00055591
0.000558059
0.000560276
0.000562564
0.000564926
0.000567364
0.000569882
0.000572481
0.000575164
0.000577936
0.000580797
0.000583753
0.000586806
0.00058996
0.000593217
0.000596583
0.000600061
0.000603654
0.000607368
0.000611205
0.000615172
0.000619272
0.000623511
0.000627893
0.000632423
0.000637107
0.00064195
0.000646958
0.000652137
0.000657493
0.000663032
0.000668761
0.000674687
0.000680817
0.000687157
0.000693716
0.000700501
0.00070752
0.000714781
0.000722292
0.000730062
0.000738099
0.000746411
0.000755008
0.000763898
0.000773089
0.000782589
0.000792406
0.000802547
0.000813017
0.000823821
0.000834958
0.000846427
0.000858218
0.000870313
0.000882678
0.000895261
0.000907978
0.000920702
0.000933253
0.000945382
0.000956838
0.000967405
0.000976712
0.000984297
0.000989671
0.000509701
0.000510267
0.000510973
0.000511728
0.000512512
0.000513321
0.000514155
0.000515015
0.0005159
0.000516811
0.00051775
0.000518717
0.000519713
0.00052074
0.000521798
0.000522888
0.000524011
0.000525169
0.000526363
0.000527593
0.000528862
0.00053017
0.00053152
0.000532911
0.000534347
0.000535827
0.000537355
0.000538931
0.000540557
0.000542235
0.000543967
0.000545754
0.000547599
0.000549503
0.000551469
0.000553498
0.000555594
0.000557758
0.000559992
0.0005623
0.000564684
0.000567147
0.000569691
0.00057232
0.000575036
0.000577842
0.000580743
0.000583741
0.00058684
0.000590044
0.000593356
0.000596781
0.000600322
0.000603985
0.000607773
0.000611691
0.000615744
0.000619937
0.000624276
0.000628765
0.00063341
0.000638217
0.000643191
0.00064834
0.00065367
0.000659187
0.000664898
0.000670811
0.000676933
0.000683272
0.000689837
0.000696634
0.000703674
0.000710965
0.000718516
0.000726337
0.000734438
0.000742829
0.000751521
0.000760525
0.000769851
0.000779512
0.000789519
0.000799883
0.000810615
0.000821724
0.000833215
0.000845089
0.000857334
0.000869927
0.000882816
0.000895917
0.000909095
0.000922149
0.0009348
0.000946812
0.000957947
0.000967817
0.000975939
0.000981706
0.00050727
0.000507788
0.000508428
0.000509112
0.000509822
0.000510556
0.000511312
0.000512091
0.000512893
0.00051372
0.000514572
0.00051545
0.000516354
0.000517287
0.000518247
0.000519238
0.000520259
0.000521311
0.000522397
0.000523516
0.000524671
0.000525862
0.000527091
0.000528358
0.000529666
0.000531016
0.000532409
0.000533847
0.000535331
0.000536863
0.000538445
0.000540078
0.000541764
0.000543506
0.000545305
0.000547163
0.000549082
0.000551065
0.000553114
0.000555231
0.000557419
0.000559681
0.000562018
0.000564434
0.000566932
0.000569515
0.000572186
0.000574948
0.000577805
0.00058076
0.000583817
0.00058698
0.000590252
0.000593638
0.000597142
0.000600769
0.000604523
0.000608409
0.000612432
0.000616597
0.00062091
0.000625375
0.00063
0.00063479
0.000639751
0.000644889
0.000650213
0.000655728
0.000661442
0.000667363
0.000673499
0.000679859
0.000686451
0.000693284
0.000700369
0.000707716
0.000715337
0.000723242
0.000731445
0.000739959
0.0007488
0.000757983
0.000767525
0.000777445
0.000787763
0.000798498
0.000809669
0.000821292
0.000833376
0.000845914
0.00085888
0.000872214
0.000885807
0.000899481
0.000912978
0.000926071
0.000938485
0.000949759
0.000959242
0.000965922
0.000504225
0.000504679
0.000505236
0.00050583
0.000506446
0.000507083
0.00050774
0.000508417
0.000509114
0.000509833
0.000510573
0.000511337
0.000512123
0.000512934
0.00051377
0.000514632
0.000515521
0.000516437
0.000517383
0.000518358
0.000519364
0.000520403
0.000521474
0.00052258
0.000523721
0.0005249
0.000526116
0.000527372
0.000528669
0.000530008
0.000531391
0.00053282
0.000534295
0.00053582
0.000537395
0.000539023
0.000540706
0.000542444
0.000544242
0.0005461
0.00054802
0.000550006
0.00055206
0.000554184
0.000556381
0.000558653
0.000561003
0.000563435
0.000565952
0.000568555
0.00057125
0.000574039
0.000576926
0.000579914
0.000583007
0.000586211
0.000589527
0.000592962
0.00059652
0.000600204
0.00060402
0.000607974
0.000612069
0.000616313
0.000620709
0.000625266
0.000629987
0.000634881
0.000639955
0.000645215
0.000650668
0.000656324
0.000662192
0.000668279
0.000674596
0.000681154
0.000687965
0.000695042
0.000702398
0.000710049
0.000718015
0.000726313
0.000734968
0.000744004
0.000753451
0.00076334
0.000773705
0.000784582
0.000796005
0.000808001
0.000820585
0.000833746
0.000847437
0.000861553
0.000875909
0.000890271
0.000904334
0.000917525
0.000928887
0.000936755
0.000500619
0.000500994
0.00050145
0.000501936
0.00050244
0.00050296
0.000503497
0.000504051
0.000504621
0.000505209
0.000505814
0.000506439
0.000507082
0.000507745
0.000508429
0.000509134
0.000509861
0.000510611
0.000511385
0.000512183
0.000513007
0.000513857
0.000514735
0.00051564
0.000516575
0.000517541
0.000518538
0.000519567
0.00052063
0.000521729
0.000522863
0.000524035
0.000525246
0.000526498
0.000527791
0.000529128
0.00053051
0.000531938
0.000533415
0.000534942
0.000536521
0.000538154
0.000539843
0.00054159
0.000543397
0.000545267
0.000547202
0.000549204
0.000551276
0.000553421
0.000555641
0.000557938
0.000560317
0.00056278
0.00056533
0.000567971
0.000570706
0.000573539
0.000576474
0.000579514
0.000582663
0.000585926
0.000589307
0.00059281
0.00059644
0.000600203
0.000604104
0.000608148
0.00061234
0.000616689
0.000621199
0.000625879
0.000630736
0.000635778
0.000641015
0.000646457
0.000652115
0.000658002
0.000664133
0.000670522
0.000677191
0.000684159
0.000691454
0.000699104
0.000707144
0.000715615
0.000724562
0.00073404
0.000744106
0.000754821
0.000766243
0.000778425
0.000791401
0.000805177
0.000819696
0.000834725
0.00084997
0.000864771
0.000877832
0.000886736
0.000496533
0.000496814
0.000497155
0.000497516
0.000497891
0.000498278
0.000498677
0.000499088
0.000499512
0.000499948
0.000500397
0.00050086
0.000501337
0.000501829
0.000502336
0.000502859
0.000503398
0.000503953
0.000504527
0.000505118
0.000505728
0.000506358
0.000507008
0.000507678
0.000508371
0.000509086
0.000509824
0.000510586
0.000511373
0.000512186
0.000513026
0.000513894
0.000514791
0.000515718
0.000516675
0.000517665
0.000518688
0.000519746
0.000520839
0.00052197
0.000523139
0.000524348
0.000525599
0.000526893
0.000528231
0.000529616
0.000531049
0.000532532
0.000534066
0.000535654
0.000537298
0.000538999
0.000540761
0.000542584
0.000544472
0.000546428
0.000548452
0.000550549
0.000552722
0.000554971
0.000557302
0.000559716
0.000562217
0.000564808
0.000567493
0.000570275
0.000573158
0.000576146
0.000579245
0.000582458
0.00058579
0.000589247
0.000592835
0.000596561
0.000600432
0.000604456
0.000608643
0.000613004
0.000617551
0.000622299
0.000627264
0.000632467
0.000637931
0.000643686
0.000649764
0.000656206
0.00066306
0.000670385
0.000678249
0.000686729
0.000695913
0.000705897
0.000716785
0.000728694
0.000741735
0.000755739
0.00077045
0.000785257
0.000798694
0.000807829
0.000492083
0.000492259
0.000492472
0.000492697
0.000492929
0.000493169
0.000493416
0.00049367
0.000493931
0.0004942
0.000494476
0.000494761
0.000495054
0.000495356
0.000495667
0.000495987
0.000496317
0.000496657
0.000497007
0.000497368
0.000497741
0.000498125
0.000498521
0.00049893
0.000499352
0.000499787
0.000500236
0.0005007
0.000501179
0.000501673
0.000502183
0.00050271
0.000503255
0.000503817
0.000504398
0.000504999
0.000505619
0.00050626
0.000506923
0.000507608
0.000508316
0.000509049
0.000509806
0.000510589
0.000511399
0.000512237
0.000513103
0.000513999
0.000514927
0.000515886
0.000516879
0.000517906
0.000518969
0.000520069
0.000521207
0.000522385
0.000523605
0.000524867
0.000526173
0.000527525
0.000528924
0.000530372
0.000531871
0.000533422
0.000535027
0.000536688
0.000538408
0.000540188
0.00054203
0.000543938
0.000545915
0.000547962
0.000550085
0.000552286
0.000554569
0.00055694
0.000559406
0.000561974
0.000564654
0.000567454
0.000570386
0.000573463
0.000576704
0.000580131
0.000583766
0.000587641
0.000591789
0.000596253
0.000601093
0.000606372
0.000612166
0.000618567
0.000625692
0.000633691
0.000642764
0.000653077
0.000664242
0.000675945
0.000686972
0.000694641
0.000487417
0.000487482
0.000487559
0.00048764
0.000487723
0.000487807
0.000487894
0.000487982
0.000488072
0.000488164
0.000488258
0.000488354
0.000488453
0.000488554
0.000488657
0.000488763
0.000488872
0.000488984
0.000489098
0.000489216
0.000489337
0.000489461
0.000489589
0.00048972
0.000489855
0.000489994
0.000490137
0.000490284
0.000490436
0.000490592
0.000490753
0.000490919
0.000491089
0.000491266
0.000491447
0.000491634
0.000491827
0.000492027
0.000492232
0.000492444
0.000492663
0.000492889
0.000493122
0.000493363
0.000493611
0.000493867
0.000494132
0.000494406
0.000494688
0.000494979
0.00049528
0.00049559
0.00049591
0.000496241
0.000496582
0.000496933
0.000497295
0.000497669
0.000498053
0.00049845
0.000498857
0.000499276
0.000499707
0.000500149
0.000500603
0.000501069
0.000501546
0.000502036
0.000502537
0.00050305
0.000503574
0.000504112
0.000504662
0.000505225
0.000505802
0.000506396
0.000507006
0.000507634
0.000508283
0.000508957
0.000509664
0.000510409
0.000511199
0.000512044
0.000512955
0.000513942
0.000515017
0.000516184
0.000517475
0.000518914
0.000520523
0.000522336
0.000524405
0.000526804
0.000529638
0.000533051
0.000537139
0.000541698
0.000546294
0.000549761
0.000482705
0.000482656
0.000482596
0.000482531
0.000482462
0.00048239
0.000482315
0.000482236
0.000482153
0.000482067
0.000481977
0.000481883
0.000481785
0.000481683
0.000481577
0.000481467
0.000481353
0.000481234
0.000481111
0.000480982
0.000480849
0.000480711
0.000480567
0.000480419
0.000480264
0.000480104
0.000479938
0.000479766
0.000479587
0.000479402
0.00047921
0.000479011
0.000478804
0.000478591
0.000478369
0.000478139
0.000477901
0.000477654
0.000477398
0.000477133
0.000476857
0.000476572
0.000476277
0.00047597
0.000475652
0.000475322
0.00047498
0.000474625
0.000474257
0.000473875
0.000473478
0.000473066
0.000472638
0.000472193
0.000471731
0.00047125
0.000470751
0.000470231
0.00046969
0.000469127
0.00046854
0.000467927
0.000467288
0.000466621
0.000465924
0.000465194
0.000464431
0.000463632
0.000462795
0.000461917
0.000460996
0.000460029
0.000459013
0.000457945
0.000456823
0.000455641
0.000454398
0.000453088
0.000451709
0.000450257
0.00044873
0.000447123
0.000445433
0.000443655
0.000441786
0.000439822
0.00043776
0.0004356
0.00043332
0.000430888
0.000428261
0.000425381
0.00042222
0.000418743
0.000414914
0.000410685
0.000406011
0.000400954
0.000395987
0.000392396
0.000478117
0.000477959
0.000477767
0.000477562
0.000477348
0.000477124
0.000476892
0.000476652
0.000476402
0.000476144
0.000475876
0.000475598
0.000475311
0.000475014
0.000474706
0.000474387
0.000474057
0.000473716
0.000473363
0.000472997
0.000472619
0.000472228
0.000471823
0.000471404
0.00047097
0.000470522
0.000470058
0.000469577
0.000469081
0.000468567
0.000468035
0.000467485
0.000466915
0.000466326
0.000465716
0.000465085
0.000464432
0.000463756
0.000463056
0.000462332
0.000461582
0.000460806
0.000460002
0.00045917
0.000458308
0.000457416
0.000456492
0.000455534
0.000454543
0.000453515
0.00045245
0.000451346
0.000450202
0.000449016
0.000447786
0.000446511
0.000445188
0.000443815
0.000442391
0.000440912
0.000439376
0.000437781
0.000436123
0.000434399
0.000432606
0.000430741
0.0004288
0.000426778
0.000424672
0.000422476
0.000420186
0.000417797
0.000415303
0.000412697
0.000409972
0.000407123
0.00040414
0.000401015
0.000397741
0.000394306
0.000390702
0.000386916
0.000382936
0.000378748
0.000374336
0.000369681
0.000364763
0.000359553
0.000354015
0.000348104
0.00034177
0.000334937
0.00032744
0.000319202
0.000310177
0.000300321
0.000289701
0.000278712
0.000268496
0.000261517
0.000473799
0.000473542
0.000473229
0.000472894
0.000472544
0.00047218
0.000471803
0.000471413
0.000471009
0.000470591
0.000470158
0.000469711
0.000469248
0.00046877
0.000468275
0.000467764
0.000467235
0.000466688
0.000466123
0.000465538
0.000464934
0.000464309
0.000463663
0.000462995
0.000462304
0.00046159
0.000460852
0.000460088
0.000459298
0.000458482
0.000457637
0.000456764
0.000455861
0.000454927
0.00045396
0.000452961
0.000451927
0.000450857
0.00044975
0.000448605
0.000447421
0.000446194
0.000444926
0.000443612
0.000442253
0.000440846
0.00043939
0.000437881
0.00043632
0.000434703
0.000433028
0.000431293
0.000429496
0.000427635
0.000425705
0.000423706
0.000421634
0.000419485
0.000417258
0.000414947
0.000412551
0.000410063
0.000407482
0.000404801
0.000402018
0.000399126
0.00039612
0.000392995
0.000389746
0.000386364
0.000382845
0.00037918
0.000375361
0.00037138
0.000367228
0.000362895
0.000358369
0.000353641
0.000348697
0.000343524
0.000338108
0.000332433
0.000326482
0.000320234
0.000313669
0.000306762
0.000299484
0.000291803
0.000283678
0.000275065
0.000265913
0.000256159
0.000245731
0.000234475
0.000222418
0.000209606
0.000196254
0.000182941
0.000170973
0.000162919
0.000469872
0.000469529
0.000469107
0.000468656
0.000468185
0.000467696
0.00046719
0.000466666
0.000466125
0.000465565
0.000464986
0.000464388
0.000463769
0.00046313
0.00046247
0.000461788
0.000461083
0.000460354
0.000459601
0.000458823
0.000458019
0.000457188
0.00045633
0.000455442
0.000454525
0.000453578
0.000452598
0.000451585
0.000450539
0.000449457
0.000448339
0.000447182
0.000445987
0.000444751
0.000443473
0.000442152
0.000440785
0.000439372
0.00043791
0.000436399
0.000434835
0.000433217
0.000431544
0.000429812
0.000428021
0.000426167
0.000424249
0.000422263
0.000420208
0.00041808
0.000415878
0.000413597
0.000411236
0.00040879
0.000406257
0.000403633
0.000400915
0.000398098
0.000395179
0.000392154
0.000389017
0.000385764
0.000382391
0.000378891
0.000375259
0.000371489
0.000367576
0.000363512
0.000359289
0.000354902
0.00035034
0.000345597
0.000340662
0.000335526
0.000330178
0.000324607
0.000318801
0.000312747
0.000306432
0.00029984
0.000292958
0.000285767
0.000278251
0.00027039
0.000262164
0.00025355
0.000244526
0.000235066
0.000225144
0.000214734
0.000203815
0.00019237
0.000180393
0.000167849
0.000154763
0.00014129
0.000127723
0.000114655
0.000103212
9.54598e-05
0.000466427
0.000466012
0.000465497
0.000464946
0.000464371
0.000463774
0.000463157
0.000462519
0.00046186
0.000461179
0.000460475
0.000459748
0.000458997
0.000458221
0.00045742
0.000456592
0.000455738
0.000454855
0.000453944
0.000453002
0.000452029
0.000451025
0.000449987
0.000448915
0.000447808
0.000446664
0.000445482
0.000444261
0.000442999
0.000441696
0.000440349
0.000438957
0.000437519
0.000436032
0.000434495
0.000432907
0.000431266
0.000429569
0.000427814
0.000426
0.000424125
0.000422185
0.000420179
0.000418105
0.00041596
0.00041374
0.000411444
0.000409069
0.000406612
0.000404069
0.000401437
0.000398713
0.000395894
0.000392976
0.000389954
0.000386826
0.000383586
0.000380231
0.000376755
0.000373155
0.000369424
0.000365558
0.000361551
0.000357396
0.000353089
0.000348621
0.000343987
0.000339179
0.000334188
0.000329008
0.000323629
0.000318043
0.000312239
0.000306207
0.000299937
0.000293416
0.000286634
0.000279577
0.000272233
0.000264588
0.000256628
0.000248339
0.000239705
0.000230713
0.000221347
0.000211595
0.000201443
0.000190881
0.000179906
0.000168521
0.000156742
0.000144603
0.000132167
0.000119525
0.000106711
9.39344e-05
8.15037e-05
6.99265e-05
6.00227e-05
5.31966e-05
0.000463528
0.000463054
0.000462464
0.00046183
0.000461169
0.000460484
0.000459775
0.000459043
0.000458287
0.000457506
0.0004567
0.000455868
0.000455008
0.000454121
0.000453205
0.00045226
0.000451283
0.000450276
0.000449235
0.000448161
0.000447053
0.000445908
0.000444726
0.000443505
0.000442245
0.000440944
0.0004396
0.000438212
0.000436779
0.000435299
0.000433771
0.000432192
0.000430561
0.000428877
0.000427136
0.000425338
0.000423481
0.000421561
0.000419578
0.000417529
0.000415411
0.000413222
0.000410959
0.00040862
0.000406202
0.000403703
0.000401118
0.000398446
0.000395682
0.000392823
0.000389867
0.000386809
0.000383645
0.000380371
0.000376984
0.000373479
0.000369851
0.000366097
0.000362209
0.000358185
0.000354018
0.000349702
0.000345232
0.000340601
0.000335803
0.000330832
0.000325679
0.000320337
0.000314799
0.000309057
0.000303101
0.000296923
0.000290513
0.000283861
0.000276957
0.000269791
0.00026235
0.000254625
0.000246603
0.000238274
0.000229625
0.000220647
0.000211329
0.000201661
0.000191637
0.000181252
0.000170506
0.000159404
0.00014796
0.000136204
0.000124184
0.000111973
9.96847e-05
8.74733e-05
7.54328e-05
6.37657e-05
5.27627e-05
4.28341e-05
3.45395e-05
2.87242e-05
0.000461216
0.000460699
0.000460049
0.00045935
0.000458621
0.000457867
0.000457087
0.000456282
0.00045545
0.000454592
0.000453706
0.000452792
0.000451849
0.000450875
0.00044987
0.000448834
0.000447764
0.00044666
0.00044552
0.000444344
0.000443131
0.000441878
0.000440586
0.000439252
0.000437875
0.000436454
0.000434988
0.000433474
0.000431911
0.000430298
0.000428632
0.000426913
0.000425138
0.000423305
0.000421412
0.000419458
0.00041744
0.000415357
0.000413204
0.000410982
0.000408686
0.000406314
0.000403865
0.000401334
0.000398719
0.000396017
0.000393226
0.000390341
0.00038736
0.000384278
0.000381093
0.000377801
0.000374397
0.000370877
0.000367238
0.000363475
0.000359583
0.000355558
0.000351394
0.000347086
0.00034263
0.000338018
0.000333245
0.000328305
0.000323192
0.000317899
0.000312418
0.000306743
0.000300866
0.000294779
0.000288473
0.00028194
0.000275172
0.000268159
0.000260891
0.00025336
0.000245555
0.000237468
0.000229088
0.000220408
0.000211417
0.00020211
0.00019248
0.000182523
0.000172237
0.000161626
0.000150696
0.000139464
0.000127955
0.00011621
0.000104294
9.22965e-05
8.03485e-05
6.86208e-05
5.72827e-05
4.64968e-05
3.65378e-05
2.77603e-05
2.05855e-05
1.55225e-05
0.000459512
0.000458965
0.000458273
0.000457528
0.00045675
0.000455946
0.000455114
0.000454256
0.00045337
0.000452456
0.000451513
0.00045054
0.000449536
0.000448501
0.000447432
0.00044633
0.000445193
0.00044402
0.00044281
0.000441562
0.000440274
0.000438945
0.000437574
0.00043616
0.000434701
0.000433195
0.000431642
0.000430039
0.000428385
0.000426678
0.000424917
0.000423099
0.000421224
0.000419288
0.00041729
0.000415228
0.000413099
0.000410902
0.000408634
0.000406293
0.000403876
0.000401381
0.000398804
0.000396144
0.000393397
0.000390561
0.000387632
0.000384607
0.000381482
0.000378255
0.000374921
0.000371478
0.00036792
0.000364244
0.000360446
0.000356522
0.000352466
0.000348275
0.000343943
0.000339465
0.000334837
0.000330051
0.000325104
0.000319988
0.000314698
0.000309228
0.00030357
0.000297718
0.000291665
0.000285404
0.000278927
0.000272226
0.000265294
0.000258122
0.000250703
0.000243028
0.000235088
0.000226877
0.000218388
0.000209612
0.000200544
0.00019118
0.000181517
0.000171554
0.000161292
0.00015074
0.000139907
0.000128813
0.000117485
0.000105967
9.43204e-05
8.26315e-05
7.10199e-05
5.96388e-05
4.86826e-05
3.83058e-05
2.87628e-05
2.03991e-05
1.3626e-05
8.86184e-06
0.000458414
0.000457853
0.000457136
0.000456362
0.000455553
0.000454717
0.000453853
0.000452962
0.000452042
0.000451093
0.000450114
0.000449104
0.000448063
0.000446988
0.00044588
0.000444737
0.000443558
0.000442342
0.000441088
0.000439795
0.00043846
0.000437084
0.000435665
0.000434201
0.000432691
0.000431133
0.000429526
0.000427868
0.000426158
0.000424394
0.000422574
0.000420697
0.00041876
0.000416761
0.000414699
0.000412572
0.000410376
0.000408111
0.000405774
0.000403361
0.000400872
0.000398303
0.000395652
0.000392915
0.000390091
0.000387175
0.000384166
0.000381059
0.000377852
0.000374542
0.000371124
0.000367595
0.000363951
0.000360188
0.000356303
0.000352291
0.000348147
0.000343868
0.000339448
0.000334882
0.000330166
0.000325294
0.000320261
0.000315062
0.00030969
0.000304139
0.000298404
0.000292479
0.000286356
0.000280029
0.000273492
0.000266738
0.00025976
0.00025255
0.000245102
0.000237409
0.000229465
0.000221264
0.000212799
0.000204066
0.00019506
0.000185781
0.000176225
0.000166396
0.000156298
0.000145938
0.000135329
0.000124489
0.000113445
0.000102232
9.09007e-05
7.95212e-05
6.81896e-05
5.70313e-05
4.62092e-05
3.58836e-05
2.6281e-05
1.77414e-05
1.07297e-05
5.75097e-06
0.0004579
0.000457338
0.000456611
0.000455824
0.000455002
0.000454151
0.000453273
0.000452366
0.000451431
0.000450466
0.000449471
0.000448445
0.000447386
0.000446294
0.000445168
0.000444007
0.000442809
0.000441574
0.0004403
0.000438987
0.000437632
0.000436235
0.000434794
0.000433307
0.000431775
0.000430194
0.000428563
0.000426881
0.000425146
0.000423357
0.000421512
0.000419608
0.000417644
0.000415618
0.000413528
0.000411372
0.000409148
0.000406853
0.000404486
0.000402043
0.000399523
0.000396922
0.000394239
0.00039147
0.000388613
0.000385665
0.000382622
0.000379482
0.000376242
0.000372897
0.000369445
0.000365882
0.000362204
0.000358408
0.000354488
0.000350443
0.000346266
0.000341954
0.000337502
0.000332905
0.000328159
0.000323259
0.000318199
0.000312974
0.000307578
0.000302006
0.000296252
0.00029031
0.000284174
0.000277838
0.000271295
0.00026454
0.000257567
0.000250367
0.000242937
0.000235269
0.000227358
0.000219199
0.000210786
0.000202117
0.000193188
0.000183997
0.000174545
0.000164834
0.00015487
0.000144661
0.00013422
0.000123563
0.000112715
0.000101703
9.05648e-05
7.93537e-05
6.81489e-05
5.70743e-05
4.62849e-05
3.59396e-05
2.6228e-05
1.74343e-05
1.00029e-05
4.52938e-06
0.000997976
0.000997976
0.000997476
0.000996773
0.000995944
0.000995009
0.000993974
0.000992833
0.000991574
0.000990177
0.000988612
0.000986841
0.000984815
0.000982477
0.000979767
0.000976635
0.00097307
0.000969164
0.000965247
0.0009622
0.000996059
0.000995891
0.000995012
0.000993817
0.000992436
0.000990912
0.000989257
0.000987467
0.000985526
0.000983404
0.000981058
0.000978432
0.000975455
0.000972047
0.000968127
0.000963635
0.000958574
0.00095311
0.000947761
0.000943779
0.000992113
0.000991509
0.000990013
0.000988086
0.000985903
0.000983537
0.000981012
0.000978329
0.000975467
0.000972384
0.000969022
0.000965301
0.000961125
0.000956387
0.000950983
0.000944845
0.000938001
0.000930706
0.000923695
0.000918635
0.000983938
0.000982642
0.000980242
0.000977308
0.000974059
0.000970593
0.000966953
0.000963144
0.000959143
0.000954896
0.000950324
0.000945321
0.000939762
0.000933511
0.000926442
0.000918479
0.000909688
0.000900439
0.000891714
0.000885638
0.000967835
0.00096563
0.000962081
0.000957911
0.000953391
0.000948648
0.00094374
0.000938679
0.000933437
0.000927949
0.000922113
0.000915795
0.000908841
0.000901085
0.000892376
0.000882643
0.000872002
0.000860963
0.000850777
0.000843963
0.00093819
0.000934998
0.000930238
0.000924799
0.000919014
0.000913038
0.000906942
0.000900742
0.000894406
0.000887859
0.000880975
0.000873596
0.00086554
0.000856613
0.000846648
0.000835583
0.000823601
0.000811362
0.000800375
0.000793305
0.000887623
0.000883658
0.000877992
0.000871641
0.000864991
0.00085822
0.000851409
0.000844577
0.000837689
0.000830655
0.000823335
0.000815558
0.000807126
0.000797824
0.000787478
0.000776042
0.00076377
0.000751462
0.000740774
0.000734085
0.000808323
0.000804213
0.00079846
0.000792094
0.000785518
0.000778918
0.000772377
0.000765913
0.00075948
0.000752979
0.00074628
0.000739228
0.000731628
0.000723267
0.000713968
0.000703709
0.000692797
0.000682112
0.000673209
0.000667767
0.000695078
0.000691845
0.000687326
0.000682374
0.000677328
0.000672355
0.000667516
0.000662815
0.000658193
0.000653582
0.0006489
0.000644037
0.000638837
0.000633131
0.000626758
0.000619712
0.000612288
0.000605263
0.000599751
0.000596641
0.000550249
0.000549026
0.000547271
0.000545376
0.000543495
0.000541718
0.000540061
0.000538518
0.000537077
0.000535733
0.000534454
0.000533213
0.000531937
0.000530571
0.00052903
0.000527307
0.000525511
0.000523944
0.000522995
0.000522796
0.000392079
0.000393473
0.000395454
0.000397654
0.000399934
0.000402229
0.000404547
0.000406921
0.000409382
0.00041197
0.00041472
0.000417692
0.00042096
0.000424604
0.000428707
0.000433232
0.000437937
0.000442404
0.000446167
0.000448707
0.000261275
0.000264363
0.000268685
0.000273483
0.000278466
0.000283501
0.000288548
0.000293614
0.000298773
0.000304111
0.000309717
0.000315711
0.00032225
0.000329494
0.000337571
0.000346452
0.000355789
0.000364764
0.000372166
0.000376786
0.000162572
0.000166292
0.000171522
0.000177367
0.000183486
0.000189728
0.000196035
0.000202404
0.000208891
0.000215594
0.000222648
0.000230205
0.000238453
0.000247585
0.00025775
0.000268944
0.000280846
0.000292579
0.000302528
0.000308733
9.47094e-05
9.81886e-05
0.000103196
0.00010886
0.000114855
0.000121039
0.000127353
0.000133792
0.0001404
0.000147266
0.000154528
0.000162346
0.000170909
0.000180409
0.000191003
0.000202722
0.000215312
0.000227997
0.000239135
0.000246223
5.19348e-05
5.46736e-05
5.88013e-05
6.35622e-05
6.86757e-05
7.40177e-05
7.9536e-05
8.52273e-05
9.1129e-05
9.73181e-05
0.000103915
0.000111066
0.000118942
0.000127721
0.000137556
0.000148499
0.000160375
0.000172557
0.000183587
0.000190793
2.70339e-05
2.88901e-05
3.19271e-05
3.5532e-05
3.94755e-05
4.36558e-05
4.80307e-05
5.25981e-05
5.73904e-05
6.24725e-05
6.79413e-05
7.39217e-05
8.0558e-05
8.80038e-05
9.63972e-05
0.000105805
0.000116118
0.000126858
0.000136834
0.000143605
1.35508e-05
1.46186e-05
1.66528e-05
1.91674e-05
2.19784e-05
2.50055e-05
2.82179e-05
3.16168e-05
3.52297e-05
3.91084e-05
4.33287e-05
4.79895e-05
5.32073e-05
5.91086e-05
6.58112e-05
7.33848e-05
8.17697e-05
9.06193e-05
9.90084e-05
0.000104917
6.70326e-06
7.18191e-06
8.44108e-06
1.00837e-05
1.1962e-05
1.40173e-05
1.62313e-05
1.86085e-05
2.11717e-05
2.39604e-05
2.70315e-05
3.04592e-05
3.4333e-05
3.87524e-05
4.38137e-05
4.95817e-05
5.60304e-05
6.29208e-05
6.95664e-05
7.4396e-05
3.38418e-06
3.49668e-06
4.23264e-06
5.24844e-06
6.43443e-06
7.75455e-06
9.20068e-06
1.07792e-05
1.25079e-05
1.44153e-05
1.6542e-05
1.89413e-05
2.16784e-05
2.48281e-05
2.84655e-05
3.26472e-05
3.73689e-05
4.24772e-05
4.74882e-05
5.12305e-05
1.75536e-06
1.73371e-06
2.15157e-06
2.74887e-06
3.46088e-06
4.26967e-06
5.17303e-06
6.17702e-06
7.2944e-06
8.54488e-06
9.95605e-06
1.15642e-05
1.34145e-05
1.55597e-05
1.80556e-05
2.09481e-05
2.42471e-05
2.78678e-05
3.15019e-05
3.43297e-05
0.001
0.001
0.001
0.001
0.001
0.001
0.001
0.001
0.001
0.001
0.001
0.001
0.001
0.001
0.001
0.001
0.001
0.001
0.001
0.001
0.001
0.001
0.001
0.001
0.001
0.001
0.001
0.001
0.001
0.001
0.001
0.001
0.001
0.001
0.001
0.001
0.001
0.001
0.001
0.001
0.001
0.001
0.001
0.001
0.001
0.001
0.001
0.001
0.001
0.001
0.001
0.001
0.001
0.001
0.001
0.001
0.001
0.001
0.001
0.001
0.001
0.001
0.001
0.001
0.001
0.001
0.001
0.001
0.001
0.001
0.001
0.001
0.001
0.001
0.001
0.001
0.001
0.001
0.001
0.001
0.001
0.001
0.001
0.001
0.001
0.001
0.001
0.001
0.001
0.001
0.001
0.001
0.001
0.001
0.001
0.001
0.001