/*--------------------------------*- C++ -*----------------------------------*\
| =========                 |                                                 |
| \\      /  F ield         | OpenFOAM: The Open Source CFD Toolbox           |
|  \\    /   O peration     | Version:  2.1.0                                 |
|   \\  /    A nd           | Web:      www.OpenFOAM.org                      |
|    \\/     M anipulation  |                                                 |
\*---------------------------------------------------------------------------*/
FoamFile
{
    version     2.0;
    format      ascii;
    class       volScalarField;
    location    "0.47";
    object      C2;
}
// * * * * * * * * * * * * * * * * * * * * * * * * * * * * * * * * * * * * * //

dimensions      [0 0 0 0 0 0 0];

internalField   nonuniform List<scalar> 
6400
(
0.00243097
0.002428
0.00242418
0.00242005
0.00241575
0.0024113
0.0024067
0.00240197
0.00239708
0.00239204
0.00238685
0.00238149
0.00237597
0.00237027
0.0023644
0.00235834
0.0023521
0.00234566
0.00233902
0.00233218
0.00232512
0.00231784
0.00231034
0.0023026
0.00229461
0.00228638
0.00227789
0.00226913
0.0022601
0.00225079
0.00224118
0.00223127
0.00222104
0.00221049
0.00219961
0.00218838
0.0021768
0.00216485
0.00215252
0.00213979
0.00212666
0.00211311
0.00209912
0.00208469
0.00206979
0.00205442
0.00203855
0.00202216
0.00200525
0.00198779
0.00196976
0.00195115
0.00193192
0.00191208
0.00189158
0.00187042
0.00184856
0.00182598
0.00180266
0.00177857
0.00175369
0.00172799
0.00170144
0.00167402
0.00164569
0.00161642
0.00158619
0.00155496
0.0015227
0.00148938
0.00145497
0.00141942
0.00138271
0.00134481
0.00130567
0.00126527
0.00122357
0.00118054
0.00113616
0.0010904
0.00104324
0.000994659
0.000944659
0.000893238
0.000840413
0.000786215
0.000730693
0.000673923
0.000616007
0.000557085
0.00049734
0.000437012
0.000376446
0.000316198
0.000257135
0.00020037
0.000146818
9.8038e-05
5.65551e-05
2.58137e-05
0.0024337
0.00243073
0.00242697
0.00242291
0.00241869
0.00241431
0.0024098
0.00240514
0.00240034
0.00239539
0.00239028
0.00238501
0.00237958
0.00237398
0.00236821
0.00236225
0.00235611
0.00234978
0.00234325
0.00233651
0.00232957
0.0023224
0.00231501
0.00230739
0.00229954
0.00229143
0.00228307
0.00227444
0.00226555
0.00225637
0.0022469
0.00223713
0.00222705
0.00221666
0.00220593
0.00219485
0.00218343
0.00217164
0.00215947
0.00214691
0.00213395
0.00212057
0.00210676
0.0020925
0.00207778
0.00206258
0.00204689
0.00203069
0.00201397
0.00199669
0.00197885
0.00196042
0.00194139
0.00192173
0.00190142
0.00188043
0.00185875
0.00183636
0.00181321
0.0017893
0.00176459
0.00173905
0.00171267
0.0016854
0.00165721
0.00162808
0.00159798
0.00156686
0.00153471
0.00150147
0.00146713
0.00143163
0.00139495
0.00135705
0.00131788
0.00127743
0.00123564
0.00119248
0.00114793
0.00110194
0.0010545
0.00100557
0.000955149
0.000903221
0.000849792
0.00079488
0.000738525
0.000680793
0.000621787
0.000561664
0.000500652
0.000439081
0.00037744
0.000316421
0.000256942
0.000200254
0.000147352
0.000100067
6.10072e-05
3.30833e-05
0.00243953
0.00243665
0.00243302
0.00242912
0.00242506
0.00242086
0.00241653
0.00241205
0.00240744
0.00240267
0.00239776
0.00239269
0.00238747
0.00238208
0.00237652
0.00237079
0.00236487
0.00235877
0.00235248
0.00234599
0.0023393
0.00233239
0.00232527
0.00231792
0.00231034
0.00230252
0.00229445
0.00228613
0.00227753
0.00226867
0.00225952
0.00225008
0.00224034
0.00223028
0.0022199
0.00220919
0.00219813
0.00218671
0.00217492
0.00216275
0.00215019
0.00213721
0.00212381
0.00210998
0.00209568
0.00208092
0.00206567
0.00204992
0.00203365
0.00201683
0.00199945
0.0019815
0.00196294
0.00194377
0.00192394
0.00190345
0.00188227
0.00186037
0.00183773
0.00181431
0.00179011
0.00176507
0.00173919
0.00171241
0.00168472
0.00165608
0.00162646
0.00159582
0.00156412
0.00153133
0.00149741
0.00146232
0.00142602
0.00138847
0.00134962
0.00130944
0.00126788
0.0012249
0.00118046
0.00113451
0.00108701
0.00103793
0.000987225
0.000934877
0.000880863
0.000825177
0.000767835
0.000708883
0.000648412
0.000586586
0.000523673
0.000460093
0.000396475
0.000333722
0.000273078
0.000215802
0.000162969
0.000116435
7.85119e-05
5.16441e-05
0.00244859
0.00244587
0.00244247
0.00243883
0.00243503
0.00243111
0.00242705
0.00242286
0.00241854
0.00241408
0.00240948
0.00240473
0.00239983
0.00239478
0.00238957
0.00238419
0.00237864
0.00237292
0.00236701
0.00236091
0.00235463
0.00234814
0.00234144
0.00233453
0.0023274
0.00232004
0.00231244
0.0023046
0.00229651
0.00228815
0.00227953
0.00227062
0.00226143
0.00225194
0.00224214
0.00223202
0.00222156
0.00221077
0.00219961
0.0021881
0.0021762
0.0021639
0.0021512
0.00213808
0.00212451
0.00211049
0.00209601
0.00208103
0.00206555
0.00204954
0.00203299
0.00201588
0.00199818
0.00197988
0.00196095
0.00194137
0.00192111
0.00190016
0.00187847
0.00185604
0.00183282
0.00180879
0.00178392
0.00175819
0.00173154
0.00170396
0.00167541
0.00164585
0.00161525
0.00158356
0.00155074
0.00151676
0.00148156
0.00144511
0.00140736
0.00136826
0.00132776
0.0012858
0.00124235
0.00119733
0.0011507
0.0011024
0.00105237
0.00100055
0.000946892
0.00089135
0.000833897
0.000774532
0.000713306
0.000650345
0.0005859
0.000520398
0.00045451
0.000389242
0.000325988
0.000265929
0.000210258
0.00016091
0.000120301
9.14652e-05
0.00246085
0.00245837
0.0024553
0.00245201
0.00244858
0.00244503
0.00244136
0.00243757
0.00243365
0.00242961
0.00242544
0.00242114
0.0024167
0.00241211
0.00240738
0.0024025
0.00239746
0.00239226
0.00238689
0.00238135
0.00237563
0.00236973
0.00236363
0.00235734
0.00235084
0.00234414
0.00233721
0.00233006
0.00232268
0.00231505
0.00230717
0.00229904
0.00229063
0.00228195
0.00227298
0.00226372
0.00225415
0.00224425
0.00223403
0.00222346
0.00221254
0.00220126
0.00218959
0.00217752
0.00216505
0.00215215
0.00213881
0.00212501
0.00211074
0.00209598
0.0020807
0.0020649
0.00204855
0.00203163
0.00201412
0.001996
0.00197723
0.00195781
0.0019377
0.00191689
0.00189533
0.00187301
0.00184989
0.00182595
0.00180115
0.00177546
0.00174885
0.00172128
0.00169271
0.00166311
0.00163243
0.00160064
0.00156769
0.00153352
0.0014981
0.00146137
0.00142327
0.00138374
0.00134273
0.00130016
0.00125596
0.00121005
0.00116234
0.00111274
0.00106116
0.00100748
0.000951628
0.000893515
0.000833101
0.000770411
0.00070558
0.000638912
0.000570952
0.00050258
0.000435095
0.000369632
0.000307567
0.000251197
0.000203784
0.000170383
0.00247619
0.00247402
0.00247136
0.00246852
0.00246555
0.00246248
0.00245931
0.00245602
0.00245263
0.00244913
0.00244551
0.00244178
0.00243792
0.00243394
0.00242983
0.00242559
0.00242121
0.00241669
0.00241202
0.00240719
0.00240222
0.00239707
0.00239176
0.00238628
0.00238061
0.00237476
0.00236872
0.00236247
0.00235602
0.00234936
0.00234248
0.00233536
0.00232801
0.00232041
0.00231256
0.00230445
0.00229606
0.00228738
0.00227842
0.00226915
0.00225956
0.00224965
0.0022394
0.00222879
0.00221783
0.00220648
0.00219474
0.00218259
0.00217002
0.00215702
0.00214355
0.00212962
0.0021152
0.00210026
0.00208481
0.0020688
0.00205222
0.00203506
0.00201728
0.00199886
0.00197978
0.00196002
0.00193955
0.00191834
0.00189636
0.00187359
0.00184998
0.00182552
0.00180015
0.00177386
0.00174659
0.00171832
0.00168899
0.00165855
0.00162697
0.00159418
0.00156013
0.00152475
0.00148797
0.00144972
0.00140989
0.0013684
0.00132513
0.00127995
0.00123272
0.00118328
0.00113145
0.00107707
0.00101996
0.000959974
0.000897055
0.00083125
0.000762801
0.000692218
0.00062044
0.000548633
0.000478318
0.000412363
0.000355554
0.000316215
0.00249431
0.00249255
0.00249039
0.00248808
0.00248567
0.00248318
0.0024806
0.00247793
0.00247517
0.00247232
0.00246937
0.00246633
0.00246319
0.00245995
0.0024566
0.00245314
0.00244956
0.00244587
0.00244205
0.00243812
0.00243405
0.00242984
0.0024255
0.00242101
0.00241638
0.00241159
0.00240664
0.00240153
0.00239625
0.00239079
0.00238514
0.00237931
0.00237328
0.00236705
0.00236061
0.00235395
0.00234706
0.00233994
0.00233257
0.00232496
0.00231708
0.00230893
0.0023005
0.00229178
0.00228276
0.00227342
0.00226376
0.00225376
0.00224341
0.0022327
0.00222161
0.00221013
0.00219825
0.00218594
0.0021732
0.00216001
0.00214634
0.00213218
0.00211751
0.00210232
0.00208658
0.00207027
0.00205337
0.00203586
0.00201772
0.00199891
0.00197941
0.00195919
0.00193823
0.00191649
0.00189395
0.00187055
0.00184627
0.00182106
0.00179488
0.00176767
0.00173939
0.00170995
0.0016793
0.00164735
0.00161402
0.00157917
0.0015427
0.00150446
0.00146426
0.0014219
0.00137717
0.00132978
0.00127945
0.00122588
0.00116876
0.00110786
0.00104298
0.000974098
0.000901504
0.000826355
0.000750131
0.000676128
0.000610824
0.000566305
0.00251482
0.00251352
0.00251194
0.00251025
0.00250848
0.00250665
0.00250476
0.0025028
0.00250077
0.00249868
0.00249651
0.00249428
0.00249196
0.00248957
0.00248711
0.00248456
0.00248192
0.0024792
0.00247638
0.00247348
0.00247048
0.00246737
0.00246417
0.00246086
0.00245743
0.0024539
0.00245024
0.00244646
0.00244256
0.00243852
0.00243435
0.00243004
0.00242558
0.00242097
0.00241621
0.00241128
0.00240619
0.00240092
0.00239547
0.00238983
0.002384
0.00237797
0.00237173
0.00236528
0.0023586
0.00235169
0.00234454
0.00233714
0.00232948
0.00232155
0.00231334
0.00230484
0.00229604
0.00228693
0.0022775
0.00226773
0.00225761
0.00224714
0.00223628
0.00222504
0.00221339
0.00220133
0.00218883
0.00217588
0.00216246
0.00214855
0.00213414
0.0021192
0.00210372
0.00208765
0.002071
0.00205371
0.00203578
0.00201715
0.0019978
0.00197768
0.00195675
0.00193495
0.00191221
0.00188847
0.00186365
0.00183764
0.00181032
0.00178155
0.00175116
0.00171895
0.00168468
0.00164806
0.00160874
0.00156633
0.00152041
0.0014705
0.00141605
0.00135651
0.00129131
0.00122128
0.00114773
0.00107369
0.00100651
0.00096083
0.00253712
0.00253634
0.00253539
0.00253438
0.00253333
0.00253224
0.0025311
0.00252993
0.00252871
0.00252745
0.00252615
0.0025248
0.00252341
0.00252197
0.00252048
0.00251894
0.00251735
0.0025157
0.002514
0.00251225
0.00251043
0.00250856
0.00250662
0.00250462
0.00250255
0.00250041
0.00249819
0.00249591
0.00249355
0.0024911
0.00248858
0.00248597
0.00248327
0.00248049
0.0024776
0.00247462
0.00247154
0.00246835
0.00246506
0.00246165
0.00245813
0.00245448
0.00245071
0.00244681
0.00244277
0.0024386
0.00243428
0.0024298
0.00242518
0.00242039
0.00241544
0.00241031
0.002405
0.00239951
0.00239383
0.00238795
0.00238186
0.00237555
0.00236903
0.00236228
0.00235528
0.00234805
0.00234056
0.00233281
0.00232479
0.00231649
0.0023079
0.002299
0.00228979
0.00228025
0.00227037
0.00226014
0.00224953
0.00223853
0.00222711
0.00221526
0.00220293
0.00219009
0.0021767
0.0021627
0.00214804
0.00213266
0.00211645
0.00209932
0.00208114
0.00206177
0.00204103
0.00201871
0.00199451
0.00196812
0.00193915
0.00190715
0.00187152
0.00183152
0.00178616
0.00173459
0.00167876
0.00162025
0.00156511
0.00152676
0.00256045
0.00256023
0.00255997
0.00255968
0.00255937
0.00255905
0.00255872
0.00255837
0.00255801
0.00255764
0.00255725
0.00255684
0.00255642
0.00255598
0.00255553
0.00255506
0.00255458
0.00255408
0.00255355
0.00255302
0.00255246
0.00255188
0.00255129
0.00255067
0.00255003
0.00254938
0.00254869
0.00254799
0.00254726
0.00254651
0.00254574
0.00254493
0.0025441
0.00254325
0.00254236
0.00254145
0.0025405
0.00253953
0.00253852
0.00253747
0.0025364
0.00253528
0.00253413
0.00253294
0.00253171
0.00253044
0.00252913
0.00252778
0.00252638
0.00252493
0.00252344
0.00252189
0.0025203
0.00251866
0.00251696
0.00251521
0.00251341
0.00251155
0.00250963
0.00250765
0.00250562
0.00250353
0.00250138
0.00249918
0.00249691
0.00249459
0.0024922
0.00248976
0.00248726
0.0024847
0.00248208
0.00247939
0.00247665
0.00247383
0.00247095
0.00246798
0.00246494
0.0024618
0.00245855
0.00245518
0.00245165
0.00244793
0.00244398
0.00243975
0.0024352
0.00243027
0.00242489
0.00241906
0.0024126
0.00240541
0.00239736
0.0023883
0.00237795
0.00236595
0.00235179
0.00233472
0.00231428
0.00229148
0.0022685
0.00225116
0.00258398
0.00258433
0.00258475
0.00258519
0.00258565
0.00258611
0.00258659
0.00258708
0.00258759
0.0025881
0.00258863
0.00258918
0.00258974
0.00259032
0.00259091
0.00259153
0.00259216
0.00259281
0.00259348
0.00259417
0.00259489
0.00259562
0.00259638
0.00259717
0.00259798
0.00259882
0.00259968
0.00260058
0.0026015
0.00260246
0.00260344
0.00260447
0.00260552
0.00260662
0.00260775
0.00260892
0.00261013
0.00261138
0.00261268
0.00261403
0.00261542
0.00261686
0.00261835
0.0026199
0.0026215
0.00262317
0.00262489
0.00262667
0.00262853
0.00263045
0.00263244
0.00263451
0.00263666
0.00263889
0.00264121
0.00264362
0.00264613
0.00264873
0.00265144
0.00265427
0.00265721
0.00266027
0.00266347
0.00266682
0.00267031
0.00267396
0.00267778
0.00268178
0.00268597
0.00269036
0.00269497
0.00269981
0.00270489
0.00271023
0.00271585
0.00272175
0.00272798
0.00273452
0.00274142
0.00274868
0.00275632
0.00276436
0.00277281
0.0027817
0.00279104
0.00280087
0.00281118
0.00282197
0.00283338
0.00284554
0.00285867
0.00287307
0.00288887
0.00290626
0.0029254
0.00294655
0.00296991
0.0029952
0.00302003
0.00303799
0.00260685
0.00260775
0.00260883
0.00260997
0.00261116
0.00261239
0.00261365
0.00261495
0.00261629
0.00261767
0.00261909
0.00262056
0.00262207
0.00262363
0.00262524
0.00262689
0.0026286
0.00263037
0.00263219
0.00263407
0.00263601
0.00263801
0.00264008
0.00264222
0.00264442
0.00264671
0.00264906
0.0026515
0.00265401
0.00265661
0.0026593
0.00266208
0.00266495
0.00266793
0.002671
0.00267418
0.00267746
0.00268086
0.00268438
0.00268802
0.00269179
0.00269568
0.00269972
0.00270389
0.00270821
0.00271269
0.00271732
0.00272212
0.00272709
0.00273224
0.00273758
0.0027431
0.00274883
0.00275477
0.00276093
0.00276731
0.00277394
0.00278081
0.00278794
0.00279534
0.00280302
0.002811
0.0028193
0.00282792
0.00283689
0.00284622
0.00285593
0.00286604
0.00287658
0.00288756
0.00289901
0.00291096
0.00292344
0.00293647
0.0029501
0.00296435
0.00297926
0.00299489
0.00301126
0.00302844
0.00304646
0.00306539
0.00308529
0.00310623
0.00312829
0.00315157
0.00317616
0.00320221
0.0032299
0.00325945
0.00329112
0.00332529
0.00336278
0.00340397
0.00344909
0.00349837
0.00355147
0.00360641
0.00365749
0.00369239
0.00262834
0.00262973
0.00263142
0.00263322
0.00263509
0.00263702
0.00263901
0.00264107
0.00264318
0.00264536
0.00264761
0.00264993
0.00265232
0.00265479
0.00265733
0.00265996
0.00266266
0.00266546
0.00266834
0.00267132
0.00267439
0.00267756
0.00268084
0.00268422
0.00268772
0.00269133
0.00269506
0.00269891
0.00270289
0.00270701
0.00271126
0.00271566
0.0027202
0.0027249
0.00272975
0.00273477
0.00273997
0.00274534
0.00275089
0.00275663
0.00276258
0.00276872
0.00277508
0.00278167
0.00278848
0.00279553
0.00280282
0.00281037
0.00281819
0.00282629
0.00283467
0.00284336
0.00285235
0.00286167
0.00287133
0.00288133
0.0028917
0.00290245
0.00291359
0.00292515
0.00293714
0.00294958
0.0029625
0.0029759
0.00298983
0.00300429
0.00301933
0.00303495
0.00305121
0.00306812
0.00308572
0.00310405
0.00312314
0.00314305
0.00316381
0.00318548
0.00320811
0.00323176
0.00325648
0.00328234
0.00330943
0.0033378
0.00336756
0.0033988
0.00343163
0.00346616
0.00350255
0.00354096
0.00358159
0.00362465
0.00367041
0.00371918
0.00377132
0.0038276
0.00388789
0.00395195
0.00401871
0.00408527
0.00414511
0.00418538
0.00264784
0.00264967
0.00265191
0.00265429
0.00265677
0.00265933
0.00266198
0.0026647
0.00266751
0.0026704
0.00267339
0.00267647
0.00267964
0.00268291
0.00268629
0.00268977
0.00269336
0.00269706
0.00270089
0.00270484
0.00270891
0.00271311
0.00271746
0.00272194
0.00272657
0.00273135
0.00273629
0.00274139
0.00274665
0.0027521
0.00275772
0.00276353
0.00276954
0.00277575
0.00278216
0.00278879
0.00279565
0.00280274
0.00281007
0.00281764
0.00282548
0.00283359
0.00284197
0.00285065
0.00285962
0.0028689
0.00287851
0.00288845
0.00289874
0.00290939
0.00292041
0.00293183
0.00294364
0.00295588
0.00296856
0.00298168
0.00299528
0.00300937
0.00302398
0.00303911
0.0030548
0.00307107
0.00308795
0.00310545
0.00312361
0.00314247
0.00316204
0.00318237
0.00320348
0.00322542
0.00324823
0.00327196
0.00329663
0.00332232
0.00334906
0.00337692
0.00340595
0.00343622
0.0034678
0.00350076
0.00353518
0.00357113
0.00360872
0.00364802
0.00368915
0.00373222
0.00377734
0.00382465
0.00387426
0.00392631
0.0039809
0.00403813
0.00409801
0.00416074
0.00422616
0.00429353
0.00436137
0.0044267
0.00448392
0.00452268
0.00266491
0.00266711
0.00266982
0.00267271
0.00267572
0.00267882
0.00268202
0.00268532
0.00268873
0.00269223
0.00269585
0.00269957
0.00270341
0.00270737
0.00271145
0.00271567
0.00272001
0.00272449
0.00272911
0.00273388
0.00273879
0.00274387
0.00274911
0.00275452
0.0027601
0.00276587
0.00277182
0.00277796
0.00278431
0.00279086
0.00279763
0.00280462
0.00281184
0.0028193
0.00282701
0.00283498
0.00284321
0.00285172
0.00286052
0.00286961
0.00287901
0.00288872
0.00289877
0.00290916
0.0029199
0.00293102
0.00294251
0.0029544
0.0029667
0.00297943
0.0029926
0.00300623
0.00302034
0.00303494
0.00305006
0.00306571
0.00308191
0.0030987
0.00311608
0.00313409
0.00315275
0.00317209
0.00319213
0.00321291
0.00323446
0.0032568
0.00327998
0.00330402
0.00332898
0.00335488
0.00338178
0.00340972
0.00343874
0.00346891
0.00350026
0.00353287
0.00356678
0.00360207
0.00363879
0.00367702
0.00371682
0.00375827
0.00380144
0.0038464
0.00389323
0.003942
0.00399276
0.00404557
0.00410045
0.00415737
0.00421627
0.00427696
0.00433915
0.00440236
0.00446643
0.00453031
0.00459247
0.00465035
0.00469987
0.00473401
0.00267926
0.00268175
0.00268484
0.00268815
0.00269159
0.00269515
0.00269881
0.00270259
0.00270648
0.00271049
0.00271462
0.00271887
0.00272326
0.00272778
0.00273244
0.00273725
0.0027422
0.00274731
0.00275258
0.00275801
0.00276361
0.00276939
0.00277536
0.00278151
0.00278786
0.00279441
0.00280117
0.00280815
0.00281536
0.0028228
0.00283047
0.0028384
0.00284659
0.00285504
0.00286377
0.00287279
0.00288211
0.00289173
0.00290167
0.00291194
0.00292255
0.00293351
0.00294485
0.00295656
0.00296867
0.00298118
0.00299412
0.0030075
0.00302133
0.00303564
0.00305043
0.00306573
0.00308157
0.00309794
0.00311489
0.00313243
0.00315057
0.00316936
0.0031888
0.00320893
0.00322977
0.00325136
0.00327372
0.00329688
0.00332087
0.00334574
0.00337151
0.00339822
0.00342592
0.00345463
0.00348442
0.00351531
0.00354737
0.00358063
0.00361515
0.00365099
0.00368819
0.00372682
0.00376694
0.00380859
0.00385183
0.00389673
0.00394332
0.00399166
0.00404178
0.00409371
0.00414744
0.00420296
0.00426017
0.00431896
0.00437906
0.00444012
0.00450156
0.00456262
0.00462282
0.00468116
0.00473618
0.00478582
0.00482729
0.00485637
0.00269067
0.00269338
0.00269677
0.00270041
0.0027042
0.0027081
0.00271213
0.00271628
0.00272055
0.00272495
0.00272948
0.00273415
0.00273896
0.00274392
0.00274903
0.00275429
0.00275972
0.00276531
0.00277108
0.00277703
0.00278316
0.00278948
0.00279599
0.00280272
0.00280965
0.00281681
0.00282419
0.0028318
0.00283965
0.00284776
0.00285613
0.00286476
0.00287367
0.00288286
0.00289236
0.00290216
0.00291227
0.00292272
0.00293351
0.00294464
0.00295614
0.00296802
0.00298029
0.00299297
0.00300606
0.00301958
0.00303356
0.003048
0.00306292
0.00307834
0.00309428
0.00311076
0.00312779
0.0031454
0.0031636
0.00318243
0.0032019
0.00322204
0.00324286
0.00326441
0.0032867
0.00330977
0.00333364
0.00335835
0.00338392
0.00341039
0.0034378
0.00346618
0.00349557
0.00352602
0.00355755
0.00359022
0.00362406
0.00365913
0.00369548
0.00373314
0.00377216
0.0038126
0.0038545
0.00389791
0.00394287
0.00398941
0.00403756
0.00408735
0.00413878
0.00419184
0.00424649
0.00430265
0.0043602
0.00441893
0.00447851
0.0045385
0.00459824
0.00465688
0.00471357
0.00476751
0.0048173
0.00486119
0.00489707
0.00492238
0.00269905
0.00270191
0.00270553
0.0027094
0.00271344
0.0027176
0.00272189
0.0027263
0.00273085
0.00273554
0.00274036
0.00274533
0.00275044
0.00275571
0.00276114
0.00276674
0.0027725
0.00277844
0.00278457
0.00279088
0.00279738
0.00280409
0.002811
0.00281813
0.00282548
0.00283306
0.00284087
0.00284893
0.00285724
0.00286582
0.00287466
0.00288379
0.0028932
0.00290292
0.00291294
0.00292328
0.00293395
0.00294496
0.00295633
0.00296806
0.00298017
0.00299267
0.00300557
0.00301889
0.00303265
0.00304685
0.00306151
0.00307665
0.00309229
0.00310844
0.00312512
0.00314236
0.00316016
0.00317855
0.00319755
0.00321718
0.00323747
0.00325844
0.00328011
0.0033025
0.00332566
0.00334959
0.00337434
0.00339992
0.00342638
0.00345374
0.00348203
0.0035113
0.00354157
0.00357288
0.00360527
0.00363878
0.00367345
0.00370931
0.00374641
0.00378479
0.00382449
0.00386555
0.003908
0.00395189
0.00399723
0.00404405
0.00409237
0.00414219
0.0041935
0.00424627
0.00430043
0.00435591
0.00441255
0.00447014
0.00452838
0.00458682
0.00464488
0.00470179
0.00475657
0.00480846
0.00485618
0.004898
0.00493187
0.00495569
0.00270444
0.00270737
0.00271111
0.00271514
0.00271933
0.00272365
0.00272811
0.00273269
0.00273742
0.00274228
0.00274728
0.00275244
0.00275775
0.00276322
0.00276885
0.00277465
0.00278062
0.00278678
0.00279313
0.00279966
0.0028064
0.00281335
0.0028205
0.00282788
0.00283549
0.00284333
0.00285141
0.00285975
0.00286834
0.00287721
0.00288635
0.00289577
0.00290549
0.00291552
0.00292586
0.00293653
0.00294754
0.0029589
0.00297061
0.0029827
0.00299517
0.00300804
0.00302132
0.00303502
0.00304916
0.00306376
0.00307882
0.00309437
0.00311042
0.00312699
0.0031441
0.00316176
0.00317999
0.00319881
0.00321825
0.00323833
0.00325906
0.00328046
0.00330257
0.00332541
0.003349
0.00337337
0.00339854
0.00342455
0.00345141
0.00347917
0.00350786
0.00353749
0.00356811
0.00359975
0.00363244
0.00366622
0.00370111
0.00373717
0.00377441
0.00381288
0.0038526
0.00389362
0.00393594
0.00397961
0.00402464
0.00407105
0.00411882
0.00416797
0.00421847
0.00427027
0.00432332
0.00437752
0.00443274
0.00448881
0.00454547
0.00460237
0.00465903
0.00471483
0.00476894
0.00482057
0.00486859
0.00491129
0.00494635
0.00497124
0.00270695
0.00270989
0.00271367
0.00271777
0.00272203
0.00272643
0.00273096
0.00273562
0.00274042
0.00274537
0.00275046
0.0027557
0.00276109
0.00276665
0.00277237
0.00277826
0.00278434
0.00279059
0.00279704
0.00280368
0.00281052
0.00281757
0.00282484
0.00283233
0.00284005
0.002848
0.00285621
0.00286466
0.00287338
0.00288237
0.00289164
0.0029012
0.00291106
0.00292122
0.00293171
0.00294252
0.00295367
0.00296517
0.00297704
0.00298928
0.0030019
0.00301493
0.00302837
0.00304223
0.00305654
0.0030713
0.00308653
0.00310225
0.00311847
0.00313521
0.00315248
0.00317031
0.00318872
0.00320771
0.00322732
0.00324756
0.00326846
0.00329003
0.0033123
0.00333529
0.00335903
0.00338354
0.00340885
0.00343498
0.00346197
0.00348984
0.00351861
0.00354833
0.00357902
0.0036107
0.00364342
0.0036772
0.00371208
0.00374808
0.00378523
0.00382358
0.00386314
0.00390394
0.003946
0.00398935
0.00403401
0.00407996
0.00412723
0.00417578
0.00422561
0.00427665
0.00432886
0.00438215
0.0044364
0.00449146
0.00454715
0.00460321
0.00465924
0.00471461
0.00476856
0.00482029
0.00486885
0.00491282
0.00494998
0.00497735
1.012e-05
1.01213e-05
1.2621e-05
1.61317e-05
2.02783e-05
2.49503e-05
3.0126e-05
3.58299e-05
4.21241e-05
4.91101e-05
5.69334e-05
6.57879e-05
7.59173e-05
8.76065e-05
0.000101156
0.000116815
0.000134638
0.000154169
0.000173752
0.000188987
1.97017e-05
2.05412e-05
2.49384e-05
3.09106e-05
3.78174e-05
4.54385e-05
5.3712e-05
6.26588e-05
7.23633e-05
8.29725e-05
9.47002e-05
0.00010783
0.000122714
0.000139752
0.000159351
0.000181812
0.000207113
0.000234431
0.000261176
0.000281086
3.94323e-05
4.24521e-05
4.9934e-05
5.95664e-05
7.04784e-05
8.23103e-05
9.49316e-05
0.000108345
0.000122657
0.000138068
0.000154878
0.000173482
0.000194362
0.000218051
0.000245067
0.000275756
0.000309975
0.000346444
0.000381502
0.000406798
8.03076e-05
8.6786e-05
9.8784e-05
0.000113452
0.000129699
0.000147028
0.000165226
0.000184266
0.000204271
0.000225505
0.000248364
0.000273377
0.00030117
0.000332423
0.000367769
0.00040758
0.000451533
0.000497775
0.000541398
0.000571779
0.000160818
0.000171844
0.000189585
0.000210437
0.000233035
0.000256748
0.000281285
0.000306587
0.000332795
0.000360235
0.000389413
0.000420999
0.000455767
0.000494548
0.000538089
0.000586752
0.000639953
0.000695149
0.000746079
0.000780146
0.000309037
0.000324999
0.000348794
0.000375988
0.000404911
0.000434792
0.000465271
0.000496269
0.000527943
0.000560677
0.000595096
0.000631989
0.000672265
0.000716898
0.000766721
0.000822044
0.000881953
0.000943147
0.000998083
0.00103343
0.000561865
0.000581692
0.000610017
0.00064177
0.000675019
0.000708874
0.000742927
0.000777086
0.000811522
0.000846688
0.000883288
0.000922171
0.000964329
0.00101083
0.00106256
0.00111974
0.0011811
0.00124264
0.00129608
0.00132953
0.000958362
0.000978908
0.00100767
0.0010395
0.00107238
0.00110537
0.00113808
0.0011704
0.00120256
0.00123506
0.00126855
0.00130381
0.00134181
0.00138361
0.0014301
0.0014814
0.00153595
0.00158938
0.00163389
0.0016611
0.00152458
0.00154074
0.00156333
0.00158809
0.00161332
0.00163818
0.00166237
0.00168588
0.00170899
0.00173204
0.00175545
0.00177976
0.00180575
0.00183428
0.00186614
0.00190137
0.00193849
0.00197361
0.00200117
0.00201671
0.00224872
0.00225483
0.0022636
0.00227308
0.00228248
0.00229136
0.00229965
0.00230736
0.00231456
0.00232128
0.00232767
0.00233387
0.00234025
0.00234707
0.00235477
0.00236339
0.00237236
0.00238019
0.00238493
0.00238592
0.00303957
0.00303259
0.00302269
0.00301169
0.00300028
0.00298881
0.00297721
0.00296534
0.00295303
0.00294009
0.00292634
0.00291147
0.00289513
0.00287691
0.00285639
0.00283376
0.00281022
0.00278788
0.00276906
0.00275636
0.00369359
0.00367815
0.00365654
0.00363254
0.00360763
0.00358245
0.00355722
0.00353188
0.00350608
0.00347939
0.00345136
0.00342138
0.00338868
0.00335246
0.00331207
0.00326766
0.00322096
0.00317609
0.00313907
0.00311596
0.00418711
0.00416851
0.00414236
0.00411313
0.00408254
0.00405132
0.00401979
0.00398794
0.0039555
0.00392198
0.00388671
0.00384892
0.00380767
0.00376201
0.00371118
0.0036552
0.00359569
0.00353702
0.00348726
0.00345624
0.00452643
0.00450904
0.004484
0.00445568
0.0044257
0.00439478
0.00436321
0.00433101
0.00429796
0.00426363
0.00422732
0.00418822
0.0041454
0.0040979
0.00404492
0.00398632
0.00392337
0.00385994
0.00380424
0.0037688
0.00474031
0.00472662
0.00470598
0.00468217
0.0046566
0.00462989
0.0046023
0.00457384
0.00454433
0.00451338
0.00448039
0.00444463
0.00440525
0.00436135
0.00431217
0.00425745
0.00419806
0.00413715
0.004082
0.00404596
0.00486482
0.00485554
0.00484035
0.00482233
0.00480261
0.00478171
0.00475983
0.00473699
0.00471303
0.00468761
0.00466027
0.00463036
0.00459718
0.00455995
0.00451797
0.00447093
0.00441936
0.00436566
0.00431577
0.00428192
0.00493224
0.0049269
0.00491673
0.00490416
0.0048901
0.00487496
0.0048589
0.0048419
0.00482384
0.00480444
0.00478334
0.00476003
0.00473394
0.00470443
0.00467091
0.00463304
0.00459111
0.00454686
0.00450491
0.00447537
0.00496648
0.00496409
0.00495779
0.00494958
0.00494018
0.00492991
0.00491884
0.00490695
0.00489413
0.00488019
0.00486483
0.00484769
0.00482832
0.00480622
0.00478091
0.00475207
0.00471982
0.00468536
0.00465213
0.00462798
0.00498308
0.00498251
0.00497883
0.00497376
0.00496782
0.00496122
0.00495399
0.0049461
0.00493745
0.00492792
0.00491728
0.00490528
0.0048916
0.00487585
0.00485766
0.00483675
0.00481314
0.00478759
0.00476253
0.00474382
0.00499122
0.00499133
0.00498924
0.00498625
0.00498269
0.00497865
0.00497413
0.00496911
0.00496352
0.00495727
0.00495021
0.00494217
0.00493292
0.00492219
0.00490971
0.00489525
0.00487875
0.00486064
0.00484247
0.00482833
3.79423e-52
3.78731e-52
3.77863e-52
3.77173e-52
3.76946e-52
3.77412e-52
3.78735e-52
3.8102e-52
3.8431e-52
3.88596e-52
3.93813e-52
3.99844e-52
4.06524e-52
4.13639e-52
4.20925e-52
4.28069e-52
4.34707e-52
4.40429e-52
4.44781e-52
4.47262e-52
1.91673e-51
1.91134e-51
1.90554e-51
1.90089e-51
1.89883e-51
1.90049e-51
1.90672e-51
1.91803e-51
1.93463e-51
1.95646e-51
1.98318e-51
2.01421e-51
2.0487e-51
2.08557e-51
2.12351e-51
2.16095e-51
2.19603e-51
2.22667e-51
2.25062e-51
2.26557e-51
6.62375e-51
6.59619e-51
6.56837e-51
6.54611e-51
6.53414e-51
6.53625e-51
6.55527e-51
6.59297e-51
6.65011e-51
6.72648e-51
6.82095e-51
6.93144e-51
7.05503e-51
7.18794e-51
7.32553e-51
7.46233e-51
7.59196e-51
7.70738e-51
7.8009e-51
7.8641e-51
2.10604e-50
2.094e-50
2.08224e-50
2.07282e-50
2.06716e-50
2.06642e-50
2.07148e-50
2.08292e-50
2.101e-50
2.12567e-50
2.15657e-50
2.19303e-50
2.2341e-50
2.27857e-50
2.32492e-50
2.37136e-50
2.41588e-50
2.45625e-50
2.4901e-50
2.51449e-50
6.53331e-50
6.48579e-50
6.43935e-50
6.40192e-50
6.37796e-50
6.37086e-50
6.38327e-50
6.41699e-50
6.47287e-50
6.55079e-50
6.64965e-50
6.76736e-50
6.90095e-50
7.04652e-50
7.19927e-50
7.35357e-50
7.5032e-50
7.6414e-50
7.76067e-50
7.8499e-50
2.01024e-49
1.99241e-49
1.97497e-49
1.96077e-49
1.95128e-49
1.94753e-49
1.9503e-49
1.96012e-49
1.97728e-49
2.00173e-49
2.03314e-49
2.07086e-49
2.11396e-49
2.16122e-49
2.21114e-49
2.26199e-49
2.31186e-49
2.35866e-49
2.39995e-49
2.43176e-49
6.16572e-49
6.10104e-49
6.03768e-49
5.9857e-49
5.94985e-49
5.93335e-49
5.93854e-49
5.96703e-49
6.0196e-49
6.09614e-49
6.19564e-49
6.31609e-49
6.45461e-49
6.60739e-49
6.76984e-49
6.93665e-49
7.10193e-49
7.25915e-49
7.40038e-49
7.51171e-49
1.88809e-48
1.8652e-48
1.84274e-48
1.82419e-48
1.81111e-48
1.80449e-48
1.80506e-48
1.81328e-48
1.82938e-48
1.85333e-48
1.8848e-48
1.92317e-48
1.96757e-48
2.01681e-48
2.0695e-48
2.12401e-48
2.17853e-48
2.231e-48
2.27884e-48
2.31726e-48
5.77536e-48
5.6958e-48
5.61767e-48
5.55283e-48
5.50631e-48
5.48126e-48
5.47985e-48
5.50348e-48
5.55279e-48
5.62765e-48
5.72705e-48
5.8491e-48
5.99107e-48
6.1494e-48
6.31981e-48
6.49731e-48
6.67632e-48
6.85037e-48
7.01113e-48
7.1422e-48
1.76488e-47
1.73765e-47
1.71088e-47
1.68857e-47
1.67236e-47
1.66323e-47
1.66184e-47
1.66861e-47
1.68372e-47
1.70711e-47
1.73847e-47
1.77722e-47
1.82253e-47
1.87331e-47
1.92827e-47
1.98588e-47
2.04442e-47
2.10184e-47
2.15547e-47
2.19976e-47
5.38833e-47
5.29628e-47
5.20564e-47
5.12994e-47
5.07436e-47
5.04199e-47
5.03486e-47
5.05418e-47
5.10047e-47
5.17351e-47
5.27235e-47
5.39519e-47
5.53951e-47
5.70203e-47
5.87879e-47
6.06516e-47
6.25581e-47
6.44435e-47
6.62216e-47
6.77052e-47
1.64361e-46
1.61281e-46
1.58245e-46
1.55704e-46
1.53824e-46
1.52701e-46
1.52396e-46
1.52946e-46
1.54365e-46
1.56645e-46
1.59757e-46