/*--------------------------------*- C++ -*----------------------------------*\
| =========                 |                                                 |
| \\      /  F ield         | OpenFOAM: The Open Source CFD Toolbox           |
|  \\    /   O peration     | Version:  2.1.0                                 |
|   \\  /    A nd           | Web:      www.OpenFOAM.org                      |
|    \\/     M anipulation  |                                                 |
\*---------------------------------------------------------------------------*/
FoamFile
{
    version     2.0;
    format      ascii;
    class       volScalarField;
    location    "0.47";
    object      k;
}
// * * * * * * * * * * * * * * * * * * * * * * * * * * * * * * * * * * * * * //

dimensions      [0 2 -2 0 0 0 0];

internalField   nonuniform List<scalar> 
6400
(
0.0327783
0.0328174
0.0328208
0.0328146
0.0327922
0.0327813
0.032751
0.0327365
0.0327028
0.032686
0.0326504
0.0326304
0.0325938
0.0325699
0.0325326
0.0325044
0.0324661
0.0324338
0.0323941
0.0323577
0.0323165
0.0322766
0.0322337
0.0321908
0.0321463
0.0321009
0.0320548
0.032007
0.0319589
0.0319086
0.0318581
0.0318053
0.0317521
0.0316964
0.0316403
0.0315815
0.0315219
0.0314596
0.0313961
0.0313293
0.0312605
0.0311874
0.0311114
0.0310302
0.0309447
0.0308531
0.0307557
0.0306509
0.0305389
0.0304184
0.0302893
0.0301506
0.0300017
0.0298399
0.0296622
0.0294669
0.0292505
0.0290335
0.0287972
0.0285581
0.0283022
0.0280418
0.0277677
0.0274868
0.0271921
0.0268889
0.0265716
0.0262442
0.0258997
0.0255396
0.0251634
0.0247678
0.0243542
0.0239196
0.0234654
0.0229901
0.0224955
0.0219821
0.0214522
0.0209085
0.0203532
0.0197878
0.0192084
0.0185969
0.0179221
0.0172258
0.0164748
0.0156502
0.0147177
0.0136252
0.0123002
0.0106321
0.00853898
0.00605685
0.00339907
0.00235692
0.00274601
0.00552303
0.00876175
0.00991658
0.0518719
0.0522098
0.0523645
0.0526479
0.0528231
0.0531043
0.0532984
0.0535735
0.0537854
0.054055
0.054282
0.0545478
0.054787
0.0550506
0.0552993
0.0555619
0.0558174
0.0560797
0.05634
0.0566022
0.0568655
0.057128
0.0573936
0.0576575
0.0579264
0.0581942
0.0584683
0.0587418
0.0590222
0.0593022
0.0595892
0.0598762
0.06017
0.0604644
0.0607651
0.0610672
0.0613754
0.0616859
0.0620028
0.0623228
0.0626495
0.0629769
0.0633087
0.0636408
0.0639746
0.0643071
0.064638
0.0649647
0.0652856
0.0655989
0.0659024
0.0661954
0.0664809
0.0667592
0.0670188
0.0672601
0.067465
0.0676799
0.0678656
0.0680463
0.0681982
0.0683382
0.068454
0.0685589
0.0686355
0.0686942
0.0687219
0.0687313
0.0687076
0.0686369
0.0685259
0.0683587
0.0681333
0.0678374
0.0674641
0.0670033
0.0664459
0.065784
0.0650088
0.0641157
0.0630989
0.0619596
0.0607001
0.0593183
0.0577781
0.0560041
0.0539845
0.051647
0.0489384
0.0457816
0.0421244
0.037924
0.0332435
0.028353
0.0233624
0.0186235
0.014977
0.0123964
0.0107885
0.00922053
0.0576265
0.0581284
0.0583569
0.058772
0.0590541
0.0594538
0.0597691
0.0601589
0.0604977
0.0608823
0.0612387
0.0616217
0.0619915
0.0623752
0.0627554
0.0631411
0.0635289
0.063917
0.0643103
0.0647003
0.0650964
0.0654869
0.065883
0.0662719
0.0666675
0.0670577
0.0674567
0.0678511
0.0682536
0.0686522
0.0690578
0.0694601
0.0698682
0.0702735
0.0706832
0.0710905
0.0715006
0.0719077
0.0723153
0.0727191
0.0731215
0.0735208
0.0739164
0.0743073
0.0746914
0.0750677
0.0754326
0.0757845
0.0761177
0.0764286
0.0767104
0.0769537
0.0771584
0.0773555
0.0775179
0.0776647
0.0777804
0.077878
0.0779433
0.0779826
0.0779983
0.0779991
0.0779356
0.0778508
0.0777067
0.0775286
0.0772903
0.0770075
0.0766605
0.0762577
0.0757822
0.0752356
0.0746023
0.073879
0.0730498
0.0721084
0.0710389
0.0698339
0.0684787
0.0669675
0.0652884
0.063439
0.061411
0.0592045
0.0568187
0.0542837
0.0515773
0.048718
0.0456729
0.0424412
0.0389724
0.0352441
0.0312262
0.0269235
0.0224477
0.0180975
0.0144248
0.0114658
0.00928319
0.00710591
0.0619018
0.0624639
0.0627197
0.0632005
0.0635341
0.0639946
0.0643706
0.0648175
0.0652196
0.0656592
0.0660785
0.066515
0.0669461
0.0673822
0.0678213
0.0682583
0.0687027
0.0691409
0.0695881
0.0700267
0.0704742
0.0709114
0.0713556
0.071787
0.0722182
0.0726306
0.0730516
0.0734612
0.073875
0.074278
0.074682
0.0750752
0.0754665
0.0758461
0.0762209
0.0765828
0.0769369
0.0772764
0.0776066
0.0779194
0.0782159
0.0784968
0.0787559
0.0789968
0.0792117
0.0794045
0.0795673
0.0797032
0.079805
0.0798684
0.0798965
0.0799027
0.0798571
0.0797779
0.0796478
0.0794768
0.0792495
0.0789723
0.0786309
0.0782288
0.077753
0.0772071
0.0765806
0.0758775
0.075084
0.0742062
0.0732302
0.0721634
0.0709942
0.06973
0.0683625
0.0668995
0.0653358
0.0636804
0.0619296
0.0600935
0.0581693
0.0561678
0.0540866
0.0519358
0.0497128
0.0474271
0.0450758
0.0426673
0.0402005
0.0376829
0.0351146
0.0325206
0.0298973
0.0272631
0.0246197
0.0219839
0.0193612
0.0167732
0.0142521
0.0118781
0.00969919
0.00786189
0.00658643
0.00598986
0.0631107
0.0636475
0.0638868
0.0643521
0.0646623
0.0651053
0.0654528
0.0658755
0.0662429
0.0666493
0.0670261
0.0674193
0.0677985
0.0681799
0.0685563
0.0689259
0.0692952
0.0696519
0.0700099
0.0703516
0.0706942
0.0710185
0.0713419
0.0716461
0.0719454
0.072228
0.0725044
0.0727633
0.0730131
0.0732428
0.0734601
0.0736548
0.0738333
0.0739864
0.0741192
0.0742234
0.0743028
0.0743424
0.074358
0.0743534
0.0742891
0.0742041
0.0740634
0.0738904
0.0736618
0.0733923
0.0730655
0.0726909
0.0722566
0.0717692
0.071221
0.0706157
0.0699458
0.0692175
0.0684226
0.0675671
0.0666486
0.065669
0.0646253
0.063521
0.0623531
0.0611263
0.0598381
0.0584943
0.0570925
0.0556396
0.0541336
0.0525821
0.0509836
0.0493461
0.0476685
0.0459588
0.0442169
0.042451
0.0406644
0.0388662
0.0370568
0.0352449
0.0334323
0.0316277
0.0298339
0.0280603
0.0263113
0.0245959
0.0229192
0.0212887
0.01971
0.0181745
0.0166936
0.0152612
0.0138863
0.0125628
0.011301
0.010099
0.00897412
0.00794281
0.00703074
0.00639853
0.00612447
0.00612125
0.0596935
0.0600284
0.060178
0.0604801
0.0606764
0.0609587
0.0611711
0.0614272
0.0616397
0.0618683
0.0620708
0.0622715
0.0624566
0.0626283
0.0627901
0.0629307
0.0630639
0.0631706
0.0632701
0.0633394
0.0633972
0.0634246
0.0634356
0.0634306
0.0633876
0.0633274
0.0632344
0.0631156
0.0629725
0.0627997
0.0625999
0.0623669
0.0621041
0.0618049
0.0614733
0.0611028
0.0606973
0.0602508
0.0597684
0.0592433
0.0586781
0.0580727
0.0574246
0.0567372
0.0560068
0.0552377
0.0544264
0.0535778
0.052689
0.0517647
0.0508029
0.0498079
0.0487787
0.0477197
0.0466304
0.0455154
0.0443742
0.0432113
0.0420274
0.0408299
0.0396176
0.038397
0.0371675
0.0359351
0.0347
0.0334678
0.032239
0.0310188
0.0298082
0.0286121
0.0274316
0.0262713
0.0251322
0.0240184
0.0229284
0.0218647
0.0208296
0.0198249
0.0188536
0.0179169
0.0170152
0.016144
0.0153085
0.0145035
0.0137329
0.0129909
0.0122803
0.0115952
0.0109372
0.0102995
0.00968366
0.00908285
0.00850046
0.00793402
0.00739686
0.00689961
0.00653549
0.00637726
0.00635071
0.00656776
0.0506536
0.050627
0.0506188
0.050615
0.0506097
0.0505912
0.0505689
0.0505232
0.0504744
0.0503955
0.0503147
0.0501996
0.0500829
0.0499295
0.0497741
0.0495808
0.0493845
0.0491499
0.0489113
0.0486348
0.0483531
0.048035
0.0477107
0.0473507
0.0469768
0.0465705
0.0461472
0.0456934
0.0452213
0.0447198
0.0441992
0.0436502
0.0430819
0.0424865
0.0418725
0.041233
0.0405759
0.0398955
0.0391993
0.0384822
0.0377513
0.0370033
0.0362456
0.0354746
0.0346967
0.0339096
0.0331187
0.0323227
0.0315264
0.030729
0.0299348
0.0291436
0.0283592
0.0275814
0.026814
0.0260566
0.0253092
0.0245752
0.0238547
0.0231474
0.0224551
0.0217779
0.0211173
0.0204731
0.0198461
0.0192359
0.0186446
0.0180691
0.0175104
0.016967
0.0164393
0.0159257
0.015426
0.0149387
0.0144633
0.0139982
0.0135426
0.0130948
0.0126533
0.0122159
0.0117962
0.0113877
0.010995
0.010612
0.0102428
0.00988162
0.00953257
0.00919069
0.00886059
0.00853895
0.00823207
0.00793929
0.00766977
0.00742697
0.00723025
0.00709994
0.00704649
0.00709041
0.00743099
0.00762316
0.0378011
0.037453
0.0373061
0.0370302
0.0368552
0.0365732
0.0363643
0.0360654
0.0358212
0.0354998
0.0352203
0.0348739
0.0345602
0.0341879
0.0338412
0.0334427
0.033064
0.0326391
0.0322299
0.0317789
0.0313402
0.0308638
0.0303965
0.0298982
0.029414
0.0289052
0.0284095
0.0278944
0.0273862
0.0268618
0.026347
0.0258195
0.0253039
0.0247792
0.0242683
0.0237515
0.0232507
0.0227468
0.0222606
0.0217741
0.0213067
0.0208411
0.0203943
0.0199512
0.0195276
0.0191095
0.0187113
0.01832
0.0179486
0.0175852
0.0172412
0.0169055
0.0165889
0.0162825
0.0159938
0.0157161
0.0154547
0.0152049
0.0149694
0.0147453
0.0145341
0.0143339
0.0141455
0.0139675
0.0138004
0.0136432
0.013494
0.0133554
0.0132253
0.0131045
0.012991
0.0128855
0.0127859
0.012693
0.0126045
0.0125211
0.0124407
0.0123638
0.0122879
0.0122136
0.0121387
0.0120604
0.0119779
0.0118884
0.0117905
0.0116813
0.0115595
0.0114223
0.0112695
0.0111005
0.0109181
0.0107265
0.0105344
0.0103535
0.0102258
0.0101705
0.0101647
0.0104121
0.0107746
0.010953
0.024905
0.0243773
0.0241578
0.0237413
0.0235009
0.0230939
0.0228327
0.0224312
0.0221517
0.0217547
0.0214614
0.0210682
0.0207647
0.0203755
0.0200655
0.0196815
0.0193683
0.0189912
0.0186782
0.01831
0.0180003
0.0176432
0.0173401
0.0169977
0.016708
0.0163849
0.0161108
0.0158084
0.0155516
0.0152714
0.015034
0.0147774
0.0145607
0.0143288
0.0141336
0.0139271
0.013754
0.0135732
0.0134223
0.0132674
0.0131389
0.0130091
0.0129032
0.0127981
0.0127147
0.0126338
0.012573
0.0125159
0.0124776
0.0124451
0.0124294
0.0124226
0.012422
0.0124406
0.0124636
0.0125032
0.0125486
0.0126093
0.0126776
0.0127604
0.0128516
0.0129568
0.0130711
0.013199
0.0133367
0.0134878
0.0136491
0.0138237
0.0140087
0.0142071
0.0144164
0.0146394
0.014874
0.0151225
0.0153832
0.015658
0.0159453
0.0162466
0.0165605
0.0168881
0.0172277
0.0175793
0.0179407
0.0183109
0.0186868
0.0190658
0.0194436
0.0198154
0.0201756
0.0205193
0.0208413
0.0211392
0.0214127
0.0216666
0.021916
0.0222105
0.022656
0.0232711
0.0240967
0.0250027
0.0177021
0.0171701
0.0169545
0.0165438
0.0163278
0.0159363
0.0157218
0.0153512
0.0151407
0.0147923
0.0145884
0.0142631
0.0140682
0.0137668
0.0135832
0.0133061
0.0131355
0.0128831
0.0127273
0.0124998
0.0123599
0.0121573
0.0120343
0.0118566
0.0117513
0.0115979
0.0115102
0.0113806
0.0113107
0.0112044
0.0111515
0.0110703
0.0110308
0.0109755
0.0109494
0.0109199
0.0109071
0.0109014
0.0109011
0.0109159
0.0109363
0.0109682
0.0110075
0.0110569
0.0111151
0.0111821
0.0112589
0.0113438
0.0114393
0.0115426
0.011657
0.0117791
0.0119125
0.0120543
0.0122071
0.0123692
0.0125423
0.0127256
0.01292
0.0131253
0.0133423
0.0135712
0.0138125
0.0140667
0.0143344
0.0146162
0.0149125
0.0152243
0.0155521
0.0158969
0.0162595
0.0166411
0.0170427
0.0174655
0.0179109
0.0183805
0.018876
0.0193992
0.019952
0.0205367
0.0211557
0.0218119
0.0225085
0.0232492
0.024038
0.0248796
0.0257793
0.0267435
0.0277802
0.0288977
0.030107
0.03142
0.0328517
0.0344189
0.0361401
0.0380261
0.040083
0.0422707
0.0437982
0.044421
0.0204755
0.0199204
0.0196928
0.0192582
0.0190232
0.0186053
0.0183651
0.0179645
0.017722
0.0173393
0.0170973
0.0167342
0.0164961
0.0161539
0.0159228
0.0156024
0.0153813
0.0150833
0.0148746
0.0145996
0.0144051
0.0141535
0.0139749
0.0137468
0.0135852
0.0133806
0.0132368
0.0130558
0.0129302
0.0127725
0.0126656
0.0125311
0.0124428
0.0123313
0.0122616
0.012173
0.0121218
0.0120562
0.0120235
0.0119838
0.0119653
0.0119538
0.0119504
0.0119562
0.0119763
0.0120023
0.0120423
0.0120884
0.0121483
0.0122147
0.0122947
0.0123814
0.0124818
0.0125894
0.0127107
0.0128394
0.0129817
0.013132
0.0132959
0.0134684
0.0136545
0.0138505
0.01406
0.0142807
0.0145153
0.0147622
0.0150237
0.0152986
0.0155891
0.0158944
0.0162165
0.0165547
0.0169113
0.0172858
0.0176807
0.0180957
0.0185334
0.0189941
0.0194803
0.0199928
0.0205345
0.0211066
0.0217125
0.022354
0.0230349
0.023758
0.0245275
0.0253473
0.0262223
0.0271569
0.028158
0.0292339
0.0304028
0.0316756
0.0330793
0.0346382
0.0363919
0.0383112
0.0398604
0.0405413
0.0308678
0.0303307
0.0301044
0.0296738
0.0294196
0.0289948
0.0287127
0.028289
0.0279825
0.027557
0.0272237
0.0267923
0.0264369
0.0260012
0.0256293
0.0251904
0.0248074
0.0243678
0.0239783
0.0235409
0.0231493
0.0227171
0.0223275
0.0219035
0.0215195
0.0211068
0.0207318
0.0203332
0.0199705
0.0195886
0.0192411
0.0188783
0.0185485
0.0182067
0.0178961
0.0175763
0.0172863
0.0169901
0.0167225
0.0164509
0.0162063
0.015961
0.0157409
0.0155228
0.0153282
0.0151371
0.0149682
0.014804
0.0146606
0.0145229
0.0144049
0.0142932
0.0142004
0.0141146
0.0140468
0.0139859
0.0139418
0.0139047
0.0138843
0.0138743
0.0138715
0.0138819
0.0139038
0.0139358
0.0139795
0.0140326
0.0140969
0.0141699
0.0142536
0.0143439
0.0144434
0.0145488
0.0146618
0.0147794
0.0149029
0.0150294
0.0151598
0.0152911
0.0154243
0.015556
0.015687
0.0158141
0.0159377
0.0160548
0.0161658
0.0162679
0.0163617
0.0164453
0.0165203
0.0165855
0.0166451
0.0166975
0.0167438
0.0168069
0.0169033
0.01708
0.0173922
0.0179181
0.0186469
0.0196911
0.0438448
0.0435146
0.0433754
0.0431103
0.042942
0.0426679
0.0424627
0.0421683
0.041925
0.0416051
0.0413243
0.0409758
0.040658
0.0402796
0.0399251
0.0395164
0.0391261
0.0386873
0.0382626
0.0377944
0.037337
0.0368407
0.0363529
0.0358305
0.0353148
0.0347687
0.0342282
0.0336614
0.0331
0.0325162
0.0319382
0.0313416
0.0307517
0.030147
0.029551
0.0289441
0.0283416
0.0277317
0.0271295
0.0265235
0.0259282
0.0253326
0.0247504
0.0241708
0.0236069
0.0230483
0.0225072
0.0219739
0.0214593
0.0209526
0.0204651
0.0199868
0.0195274
0.0190776
0.0186458
0.0182244
0.0178204
0.0174261
0.0170507
0.0166854
0.0163376
0.0160001
0.0156786
0.0153655
0.0150664
0.0147745
0.0144943
0.0142187
0.0139521
0.0136933
0.0134427
0.013198
0.0129604
0.0127266
0.0124988
0.012273
0.012052
0.0118317
0.0116151
0.0113983
0.0111846
0.0109704
0.0107594
0.0105484
0.0103414
0.010136
0.00993328
0.00973371
0.00953944
0.0093523
0.00917613
0.00901468
0.00887406
0.00875848
0.00870116
0.00868221
0.00879061
0.0090502
0.00945226
0.00963048
0.0554503
0.0554481
0.0554564
0.0554684
0.0554744
0.055475
0.0554626
0.0554301
0.0553903
0.0553214
0.0552537
0.0551505
0.0550496
0.0549094
0.0547709
0.0545912
0.054411
0.054189
0.0539639
0.053697
0.053424
0.0531096
0.0527863
0.0524238
0.052048
0.0516332
0.0512043
0.0507366
0.0502533
0.0497319
0.0491936
0.0486185
0.0480257
0.0473976
0.0467516
0.0460725
0.0453757
0.0446478
0.0439028
0.0431292
0.0423397
0.0415246
0.0406955
0.0398441
0.0389817
0.0381004
0.0372114
0.0363078
0.0354001
0.034484
0.0335682
0.0326487
0.0317339
0.0308202
0.0299158
0.0290171
0.0281322
0.0272578
0.0264004
0.0255574
0.0247313
0.0239185
0.0231261
0.02235
0.0215967
0.0208616
0.0201512
0.0194616
0.0187977
0.0181512
0.0175287
0.0169233
0.0163399
0.0157722
0.0152242
0.0146898
0.0141723
0.0136662
0.0131739
0.0126903
0.0122173
0.0117499
0.0112897
0.0108323
0.0103789
0.00994727
0.00952802
0.00913142
0.00874788
0.00838777
0.00804319
0.00772541
0.00742722
0.00716716
0.00692861
0.00677077
0.00670112
0.00670006
0.00703189
0.00722015
0.0621311
0.0624488
0.0625914
0.0628755
0.0630654
0.0633303
0.0635362
0.0637775
0.0639847
0.0642025
0.0644023
0.0645963
0.0647819
0.0649512
0.0651169
0.0652598
0.0654004
0.0655143
0.0656253
0.0657068
0.0657834
0.0658288
0.0658576
0.0658673
0.0658647
0.0658214
0.0657688
0.0656771
0.0655704
0.065425
0.0652595
0.0650543
0.0648241
0.0645524
0.0642513
0.0639065
0.063535
0.0631194
0.0626719
0.0621802
0.0616519
0.0610762
0.0604635
0.0598012
0.059101
0.0583507
0.0575618
0.0567238
0.0558473
0.0549237
0.0539629
0.0529579
0.0519179
0.0508377
0.0497253
0.0485771
0.0474011
0.0461942
0.0449646
0.0437098
0.0424425
0.0411573
0.039866
0.038564
0.0372622
0.0359569
0.0346583
0.0333628
0.0320802
0.0308072
0.029553
0.0283146
0.0271004
0.0259075
0.0247435
0.0236051
0.022495
0.0214088
0.0203525
0.0193229
0.0183247
0.0173556
0.0164188
0.0155127
0.0146397
0.0137969
0.0129789
0.0121885
0.0114207
0.0106791
0.00995934
0.00926496
0.00859435
0.00795495
0.00736105
0.00681254
0.00640051
0.00621277
0.00617426
0.00636094
0.0636673
0.0641485
0.0643643
0.0647811
0.0650638
0.0654599
0.0657773
0.0661557
0.0664913
0.0668562
0.0672006
0.0675547
0.0679016
0.0682464
0.068591
0.0689266
0.0692654
0.0695909
0.0699205
0.0702344
0.0705516
0.0708514
0.0711529
0.0714376
0.0717197
0.0719834
0.072244
0.0724848
0.0727211
0.072939
0.0731484
0.0733379
0.0735154
0.0736707
0.0738103
0.073926
0.0740237
0.0740942
0.0741349
0.0741513
0.0741524
0.0741005
0.0740301
0.07391
0.0737614
0.0735618
0.0733256
0.0730357
0.0727018
0.0723105
0.0718692
0.0713668
0.0708093
0.0701894
0.0695098
0.068763
0.0679578
0.0670818
0.0661469
0.0651401
0.0640751
0.062943
0.0617543
0.0605001
0.0591926
0.0578235
0.056405
0.0549305
0.0534114
0.0518431
0.0502359
0.048587
0.0469052
0.045189
0.0434458
0.0416755
0.0398883
0.0380869
0.0362746
0.0344546
0.0326294
0.0308034
0.0289788
0.0271615
0.0253541
0.0235643
0.0217963
0.0200587
0.0183582
0.0166831
0.0150604
0.0134854
0.0119863
0.0105659
0.00927313
0.00807941
0.00708174
0.00635305
0.00603092
0.00600395
0.0612695
0.0617684
0.0619964
0.0624187
0.0627162
0.0631196
0.0634543
0.0638455
0.0642028
0.0645876
0.0649595
0.065342
0.0657236
0.066106
0.0664941
0.0668776
0.06727
0.0676549
0.0680498
0.0684358
0.0688313
0.0692173
0.0696114
0.0699953
0.0703844
0.0707619
0.0711403
0.0715033
0.0718596
0.0722155
0.0725689
0.0729188
0.0732675
0.073612
0.0739566
0.0742934
0.0746261
0.0749496
0.0752672
0.0755756
0.0758752
0.0761607
0.0764378
0.0766969
0.076945
0.0771719
0.077384
0.0775719
0.0777407
0.0778823
0.0779995
0.0780853
0.0781318
0.07815
0.0781501
0.0780851
0.0780035
0.0778568
0.0776791
0.0774329
0.0771423
0.0767771
0.076353
0.0758442
0.0752644
0.0745973
0.0738458
0.0730013
0.0720613
0.071022
0.0698798
0.068635
0.0672844
0.065832
0.0642755
0.0626217
0.0608696
0.0590255
0.0570899
0.0550676
0.0529589
0.0507661
0.048488
0.0461243
0.0436716
0.0411281
0.0384924
0.0357614
0.032942
0.0300558
0.0271034
0.0241045
0.0210853
0.0180905
0.015227
0.0125108
0.0101207
0.00808761
0.00662563
0.00592609
0.0562306
0.0566626
0.0568608
0.0572177
0.0574639
0.0578074
0.0580824
0.0584171
0.0587121
0.0590423
0.0593521
0.0596812
0.0600024
0.0603326
0.0606628
0.0609956
0.0613328
0.0616688
0.0620115
0.0623507
0.0626974
0.0630393
0.0633884
0.063732
0.064082
0.0644263
0.064776
0.0651207
0.0654718
0.0658227
0.0661787
0.0665356
0.0668967
0.067258
0.0676219
0.0679871
0.0683564
0.0687266
0.0690998
0.0694738
0.0698497
0.0702259
0.0706034
0.0709796
0.0713563
0.0717301
0.072104
0.0724743
0.0728418
0.0732012
0.0735531
0.0738907
0.074212
0.0745103
0.0747754
0.0749925
0.0752171
0.0753992
0.0755755
0.0757113
0.0758339
0.0759201
0.0759933
0.076032
0.0760482
0.0760368
0.0759604
0.0758532
0.0756819
0.0754645
0.0751797
0.0748355
0.0744072
0.0739025
0.0732951
0.0725866
0.0717508
0.0707836
0.0696597
0.0683717
0.0668972
0.0652284
0.0633477
0.0612499
0.058925
0.0563717
0.0535851
0.0505664
0.0473304
0.0438585
0.040132
0.0361137
0.0318066
0.0272201
0.022527
0.0182191
0.0144577
0.0116237
0.00943556
0.00727251
0.0498893
0.0501762
0.0503082
0.0505466
0.0506954
0.0509321
0.0510968
0.0513281
0.051508
0.0517348
0.0519278
0.0521518
0.0523558
0.0525787
0.0527914
0.0530144
0.0532338
0.0534576
0.0536819
0.0539069
0.0541346
0.0543608
0.0545908
0.0548181
0.0550498
0.0552789
0.0555129
0.0557452
0.055984
0.0562224
0.056467
0.0567126
0.0569638
0.0572168
0.057475
0.057736
0.0580023
0.0582718
0.0585471
0.0588261
0.0591109
0.0594003
0.0596959
0.0599969
0.0603048
0.0606189
0.0609377
0.0612594
0.0615836
0.061908
0.0622324
0.0625536
0.0628717
0.0631833
0.0634894
0.0637927
0.0641029
0.0644032
0.064707
0.0649921
0.0652669
0.0655045
0.0657199
0.0659195
0.0660971
0.0662637
0.0664036
0.06653
0.0666238
0.0666872
0.0667143
0.0667183
0.0666491
0.0665323
0.0663336
0.066059
0.0656805
0.0651958
0.0645801
0.0638267
0.0629136
0.0618329
0.0605663
0.0591081
0.0574483
0.0555788
0.0534633
0.0510894
0.0482847
0.0450512
0.0412799
0.0369504
0.0322304
0.0273602
0.0224848
0.0180661
0.0146152
0.012239
0.0107422
0.0092254
0.0311079
0.0311346
0.0311315
0.0311126
0.0310862
0.0310651
0.0310294
0.031007
0.0309676
0.0309432
0.0309026
0.0308754
0.0308343
0.0308037
0.0307623
0.0307281
0.030686
0.0306483
0.030605
0.0305638
0.0305189
0.0304744
0.0304278
0.0303803
0.0303318
0.030282
0.0302318
0.0301801
0.0301286
0.0300752
0.0300221
0.029967
0.029912
0.0298551
0.0297982
0.0297396
0.0296806
0.0296201
0.0295591
0.0294966
0.0294335
0.0293687
0.029303
0.0292354
0.0291663
0.0290945
0.0290198
0.0289414
0.0288591
0.0287721
0.0286803
0.0285829
0.0284803
0.0283717
0.0282578
0.0281388
0.0280132
0.0278772
0.0277315
0.0275688
0.02739
0.0271862
0.0269667
0.0267384
0.0264971
0.026248
0.0259856
0.0257143
0.0254273
0.0251287
0.0248143
0.024485
0.0241305
0.0237599
0.0233604
0.0229391
0.022486
0.0220056
0.0214909
0.020945
0.0203635
0.019749
0.0190992
0.0184162
0.0176974
0.0169358
0.0161051
0.0151485
0.0140521
0.0127756
0.0112179
0.00930492
0.00710654
0.00498202
0.00301684
0.00232227
0.00260807
0.00528031
0.0086244
0.00984819
0.00947215
0.00467546
0.00403041
0.00390135
0.00387304
0.00389707
0.00381777
0.0037807
0.00376599
0.00376304
0.00378542
0.00385677
0.00413385
0.0047169
0.00547392
0.00655174
0.00691999
0.00690157
0.00576401
0.00340287
0.00777605
0.00468051
0.00428943
0.00419009
0.00416619
0.00404597
0.00396685
0.0039322
0.00392035
0.00392279
0.00397617
0.00416381
0.00455795
0.005142
0.00622026
0.0068686
0.00700447
0.00675932
0.00519316
0.00278271
0.0062134
0.00478471
0.00460502
0.00454118
0.00436895
0.00426776
0.00420001
0.0041729
0.00416487
0.00417783
0.00430542
0.00456699
0.00505157
0.00599231
0.00679666
0.00704965
0.00703853
0.00647814
0.00456252
0.00215048
0.00579516
0.00511607
0.00503432
0.00479456
0.00463719
0.00452194
0.00446459
0.00444046
0.00443824
0.00454013
0.00476583
0.005198
0.00606642
0.00686964
0.00719489
0.00725481
0.0069776
0.00602592
0.00378272
0.00154442
0.00591781
0.00548166
0.00534358
0.00505438
0.00493984
0.0048675
0.00484963
0.00488373
0.00500288
0.00528675
0.00568708
0.00651185
0.00718463
0.00748894
0.00757526
0.00739528
0.00678056
0.00540303
0.0029324
0.00101509
0.00628475
0.00593529
0.00580182
0.00561771
0.00558579
0.00559513
0.00572214
0.0059547
0.00637552
0.00689962
0.00752039
0.00800162
0.00820679
0.00824995
0.00796268
0.00732502
0.00636963
0.00458368
0.00189217
0.000561532
0.00721727
0.00709161
0.0070762
0.00710578
0.00738121
0.00770515
0.00825423
0.00895577
0.00962998
0.00983041
0.00989512
0.00975169
0.00942404
0.00883814
0.00801673
0.00707563
0.00563773
0.00347025
0.00114834
0.000251681
0.0108603
0.0113005
0.0118055
0.0124652
0.0134244
0.0144105
0.0148906
0.0150408
0.0140091
0.0134129
0.0123202
0.0115306
0.0103075
0.00917441
0.00784101
0.00644299
0.00445121
0.00224891
0.000647015
9.1694e-05
0.0252583
0.0257389
0.0259418
0.0259419
0.0252459
0.023885
0.0222264
0.019958
0.0182157
0.0162729
0.0144707
0.0126644
0.0107284
0.00894254
0.00708409
0.00504026
0.00296837
0.00131598
0.00039073
3.94467e-05
0.041165
0.0393836
0.0374119
0.0346181
0.0320772
0.0284867
0.0258644
0.0226922
0.0203113
0.0174298
0.0151773
0.012445
0.0101178
0.007326
0.00513432
0.00310301
0.0018574
0.000861566
0.000335912
6.15502e-05
0.0379905
0.0364547
0.0348547
0.0323773
0.0302088
0.0269033
0.0244877
0.0215816
0.0194203
0.0167635
0.0147746
0.0121814
0.0102304
0.0074351
0.00538585
0.00308768
0.00178243
0.000730612
0.000244401
4.85151e-05
0.0200799
0.0210027
0.021514
0.021767
0.0218495
0.021129
0.019926
0.0180577
0.0167583
0.0149656
0.0137677
0.0119419
0.0106066
0.00878887
0.00721077
0.00517264
0.00295892
0.00116326
0.000285588
3.41659e-05
0.00947118
0.00966976
0.0100768
0.0105432
0.0113352
0.0122504
0.0130384
0.0133488
0.0131653
0.0122423
0.011794
0.0108633
0.0100317
0.0089767
0.00781831
0.00648722
0.00455548
0.00224105
0.000566597
4.57699e-05
0.00684798
0.00666641
0.00661155
0.00658512
0.00675632
0.00699656
0.00742394
0.00801711
0.00879631
0.00916637
0.00934281
0.00940996
0.00914926
0.00870832
0.00794739
0.00707082
0.00567255
0.003527
0.00107176
0.000127241
0.00610538
0.0057694
0.00563777
0.00543547
0.00538541
0.00537154
0.00545288
0.00562671
0.00598727
0.00644172
0.00713107
0.00772861
0.00801584
0.0080943
0.00792653
0.00731035
0.00639
0.00465218
0.00191348
0.000435383
0.0057859
0.00538286
0.00525317
0.00496874
0.00485196
0.00476951
0.00474359
0.00475533
0.00485454
0.00509677
0.00547583
0.00624678
0.00702888
0.00738837
0.00749144
0.00738723
0.00679454
0.00545436
0.00300668
0.000935181
0.00568106
0.00502081
0.00494889
0.0047429
0.00458545
0.00447329
0.00440757
0.00437795
0.00436937
0.0044525
0.00466669
0.0050661
0.00588549
0.00677863
0.00715361
0.0072242
0.00698918
0.00607133
0.00385853
0.0015124
0.00618007
0.00473051
0.00453189
0.0044644
0.00432382
0.00421885
0.00415397
0.00412729
0.00411939
0.00412839
0.00424283
0.00449694
0.00495689
0.00585812
0.00674314
0.00703804
0.00704404
0.00651456
0.00463937
0.00215748
0.00780325
0.00465326
0.00425643
0.00414814
0.00411555
0.00402164
0.00393531
0.00389767
0.00388551
0.00388776
0.0039373
0.0041096
0.00449898
0.00507904
0.00613697
0.00684614
0.00700247
0.00678689
0.00525746
0.00281682
0.00947293
0.00465253
0.00399482
0.00386837
0.00383867
0.00385257
0.00379703
0.00375413
0.0037392
0.00373608
0.00375866
0.0038264
0.00407888
0.00464058
0.00541997
0.00652206
0.00691891
0.00692008
0.00582737
0.00344964
0.00397118
0.00375019
0.00374679
0.0037468
0.00374652
0.00374628
0.00374612
0.00374604
0.003746
0.00374598
0.00374598
0.003746
0.00374604
0.00374612
0.00374628
0.00374652
0.0037468
0.00374679
0.00375019
0.00397117
0.00441489
0.00375346
0.00374141
0.00374096
0.00374056
0.00374012
0.00373987
0.00373975
0.00373969
0.00373966
0.00373966
0.00373969
0.00373975
0.00373987
0.00374012
0.00374056
0.00374096
0.00374141
0.00375346
0.00441489
0.0048594
0.00376059
0.00373287
0.00373264
0.00373284
0.00373273
0.00373256
0.00373242
0.00373235
0.00373231
0.00373231
0.00373235
0.00373242
0.00373256
0.00373273
0.00373284
0.00373264
0.00373287
0.00376059
0.0048594
0.00530178
0.00377206
0.0037243
0.00372396
0.00372492
0.00372524
0.00372525
0.00372519
0.00372514
0.00372512
0.00372512
0.00372514
0.00372519
0.00372525
0.00372524
0.00372492
0.00372396
0.0037243
0.00377206
0.00530179
0.00573924
0.00378544
0.0037155
0.00371483
0.00371665
0.00371758
0.00371789
0.00371795
0.00371795
0.00371795
0.00371795
0.00371795
0.00371795
0.00371789
0.00371758
0.00371665
0.00371483
0.00371551
0.00378544
0.00573924
0.00617058
0.00379767
0.00370577
0.0037051
0.003708
0.00370969
0.00371043
0.0037107
0.00371078
0.0037108
0.0037108
0.00371078
0.0037107
0.00371043
0.00370969
0.003708
0.0037051
0.00370577
0.00379767
0.00617059
0.00659185
0.00380847
0.00369498
0.00369474
0.00369894
0.00370155
0.00370284
0.0037034
0.00370361
0.00370368
0.00370368
0.00370361
0.0037034
0.00370284
0.00370155
0.00369894
0.00369474
0.00369498
0.00380847
0.00659185
0.00700084
0.00381671
0.00368272
0.00368362
0.00368941
0.00369311
0.00369508
0.00369602
0.00369642
0.00369656
0.00369656
0.00369642
0.00369602
0.00369508
0.00369311
0.00368941
0.00368362
0.00368272
0.00381671
0.00700085
0.00739336
0.00382333
0.00366915
0.00367174
0.00367942
0.00368437
0.00368714
0.00368854
0.00368919
0.00368943
0.00368943
0.00368919
0.00368854
0.00368714
0.00368437
0.00367942
0.00367174
0.00366915
0.00382334
0.00739335
0.00776768
0.00382735
0.00365405
0.00365903
0.00366893
0.00367532
0.00367898
0.00368095
0.0036819
0.00368228
0.00368228
0.0036819
0.00368095
0.00367898
0.00367532
0.00366893
0.00365903
0.00365405
0.00382735
0.00776768
0.00812024
0.00383021
0.00363764
0.00364552
0.00365794
0.00366592
0.00367061
0.00367321
0.00367453
0.00367507
0.00367507
0.00367453
0.00367321
0.00367061
0.00366592
0.00365794
0.00364552
0.00363765
0.00383021
0.00812023
0.00845034
0.00383068
0.00361989
0.00363122
0.00364645
0.0036562
0.00366201
0.00366531
0.00366705
0.00366779
0.00366779
0.00366705
0.00366531
0.00366201
0.0036562
0.00364645
0.00363121
0.00361989
0.00383069
0.00845034
0.00875525
0.00383018
0.0036009
0.00361613
0.00363446
0.00364613
0.00365316
0.00365725
0.00365946
0.00366041
0.00366041
0.00365946
0.00365725
0.00365316
0.00364613
0.00363446
0.00361613
0.00360091
0.00383019
0.00875524
0.00903545
0.00382886
0.00358085
0.00360032
0.00362199
0.00363573
0.00364408
0.00364901
0.00365173
0.00365292
0.00365292
0.00365173
0.00364901
0.00364408
0.00363573
0.00362199
0.00360032
0.00358084
0.00382886
0.00903544
0.00928895
0.00382647
0.00355981
0.00358379
0.00360904
0.003625
0.00363475
0.00364059
0.00364385
0.00364531
0.00364531
0.00364385
0.00364059
0.00363475
0.003625
0.00360904
0.0035838
0.00355982
0.00382648
0.00928894
0.00951739
0.0038234
0.00353794
0.00356664
0.00359565
0.00361394
0.00362518
0.00363197
0.00363582
0.00363755
0.00363755
0.00363582
0.00363197
0.00362518
0.00361394
0.00359565
0.00356663
0.00353793
0.00382339
0.00951738
0.00971929
0.00382011
0.00351531
0.00354885
0.00358181
0.00360255
0.00361535
0.00362316
0.00362762
0.00362964
0.00362964
0.00362762
0.00362316
0.00361535
0.00360255
0.00358181
0.00354886
0.00351532
0.00382012
0.00971928
0.00989731
0.00381663
0.00349216
0.00353055
0.00356758
0.00359087
0.00360529
0.00361414
0.00361924
0.00362157
0.00362157
0.00361924
0.00361414
0.00360529
0.00359087
0.00356757
0.00353054
0.00349215
0.00381662
0.0098973
0.0100502
0.00381347
0.00346849
0.0035117
0.00355293
0.00357887
0.00359499
0.00360492
0.00361068
0.00361332
0.00361332
0.00361068
0.00360492
0.00359499
0.00357888
0.00355293
0.00351171
0.00346851
0.00381348
0.0100502
0.0101815
0.00381057
0.00344463
0.00349248
0.00353795
0.0035666
0.00358445
0.0035955
0.00360193
0.0036049
0.0036049
0.00360193
0.00359549
0.00358445
0.0035666
0.00353795
0.00349247
0.00344461
0.00381057
0.0101815
0.0102898
0.00380853
0.00342045
0.00347279
0.0035226
0.00355404
0.00357367
0.00358587
0.003593
0.0035963
0.0035963
0.003593
0.00358587
0.00357367
0.00355404
0.00352261
0.0034728
0.00342048
0.00380854
0.0102897
0.0103794
0.00380714
0.00339644
0.00345288
0.00350698
0.00354123
0.00356267
0.00357603
0.00358387
0.00358751
0.00358751
0.00358387
0.00357603
0.00356267
0.00354123
0.00350697
0.00345286
0.00339641
0.00380714
0.0103794
0.0104486
0.00380736
0.00337228
0.00343258
0.00349103
0.00352816
0.00355145
0.003566
0.00357455
0.00357853
0.00357853
0.00357455
0.003566
0.00355145
0.00352816
0.00349104