/*--------------------------------*- C++ -*----------------------------------*\
| =========                 |                                                 |
| \\      /  F ield         | OpenFOAM: The Open Source CFD Toolbox           |
|  \\    /   O peration     | Version:  2.1.0                                 |
|   \\  /    A nd           | Web:      www.OpenFOAM.org                      |
|    \\/     M anipulation  |                                                 |
\*---------------------------------------------------------------------------*/
FoamFile
{
    version     2.0;
    format      ascii;
    class       volScalarField;
    location    "0.47";
    object      nut;
}
// * * * * * * * * * * * * * * * * * * * * * * * * * * * * * * * * * * * * * //

dimensions      [0 2 -1 0 0 0 0];

internalField   nonuniform List<scalar> 
6400
(
7.08421e-06
7.103e-06
7.11542e-06
7.13134e-06
7.14567e-06
7.16399e-06
7.17902e-06
7.19833e-06
7.21408e-06
7.23421e-06
7.25074e-06
7.27132e-06
7.28881e-06
7.30969e-06
7.32818e-06
7.34934e-06
7.36885e-06
7.39033e-06
7.41086e-06
7.43279e-06
7.45434e-06
7.4769e-06
7.49955e-06
7.52294e-06
7.54677e-06
7.57117e-06
7.59624e-06
7.62178e-06
7.64814e-06
7.67494e-06
7.70266e-06
7.73081e-06
7.75995e-06
7.78956e-06
7.82021e-06
7.8514e-06
7.88366e-06
7.91653e-06
7.95049e-06
7.98505e-06
8.02062e-06
8.05666e-06
8.09362e-06
8.13098e-06
8.16907e-06
8.20745e-06
8.24634e-06
8.28539e-06
8.32473e-06
8.36411e-06
8.40357e-06
8.44294e-06
8.48204e-06
8.52014e-06
8.55645e-06
8.59048e-06
8.62104e-06
8.65429e-06
8.6846e-06
8.71695e-06
8.74711e-06
8.77896e-06
8.80972e-06
8.84163e-06
8.87257e-06
8.90437e-06
8.93535e-06
8.96691e-06
8.99685e-06
9.02585e-06
9.05382e-06
9.07979e-06
9.10443e-06
9.12681e-06
9.14772e-06
9.16691e-06
9.18544e-06
9.20412e-06
9.22468e-06
9.2493e-06
9.28055e-06
9.32121e-06
9.37207e-06
9.42748e-06
9.47432e-06
9.53762e-06
9.60393e-06
9.66504e-06
9.69863e-06
9.65835e-06
9.45754e-06
8.92589e-06
7.82528e-06
5.9655e-06
3.44838e-06
2.32022e-06
2.40694e-06
3.78169e-06
3.8773e-06
4.18306e-06
7.5401e-05
7.587e-05
7.59634e-05
7.62693e-05
7.63747e-05
7.6631e-05
7.67568e-05
7.69799e-05
7.71228e-05
7.73225e-05
7.74765e-05
7.76589e-05
7.78182e-05
7.7987e-05
7.81467e-05
7.83038e-05
7.84598e-05
7.86064e-05
7.87554e-05
7.88913e-05
7.90309e-05
7.91558e-05
7.92846e-05
7.93991e-05
7.95174e-05
7.96232e-05
7.97324e-05
7.98293e-05
7.99284e-05
8.00157e-05
8.01034e-05
8.01797e-05
8.02543e-05
8.03176e-05
8.0377e-05
8.04247e-05
8.04661e-05
8.04949e-05
8.05188e-05
8.05316e-05
8.05381e-05
8.05297e-05
8.05102e-05
8.04743e-05
8.04228e-05
8.03517e-05
8.02597e-05
8.01437e-05
8.00009e-05
7.9829e-05
7.96248e-05
7.93872e-05
7.91201e-05
7.88261e-05
7.84902e-05
7.81144e-05
7.74075e-05
7.66812e-05
7.58944e-05
7.50778e-05
7.42065e-05
7.33005e-05
7.2347e-05
7.13616e-05
7.03262e-05
6.92529e-05
6.81288e-05
6.6968e-05
6.57565e-05
6.4483e-05
6.31561e-05
6.1764e-05
6.03085e-05
5.87833e-05
5.71874e-05
5.55186e-05
5.3776e-05
5.19611e-05
5.00752e-05
4.81232e-05
4.61096e-05
4.40437e-05
4.19352e-05
3.97899e-05
3.75918e-05
3.53034e-05
3.29337e-05
3.0459e-05
2.78759e-05
2.5177e-05
2.23821e-05
1.9526e-05
1.66915e-05
1.40213e-05
1.15076e-05
9.23629e-06
7.4964e-06
6.29086e-06
5.68001e-06
6.864e-06
0.000115504
0.00011578
0.00011589
0.000116012
0.000116108
0.00011619
0.000116276
0.000116328
0.000116402
0.000116429
0.000116486
0.00011649
0.000116526
0.000116507
0.000116518
0.000116473
0.000116454
0.000116382
0.000116331
0.00011623
0.000116143
0.000116008
0.00011588
0.000115707
0.000115537
0.00011533
0.000115126
0.000114888
0.00011465
0.000114381
0.000114107
0.000113804
0.000113492
0.000113152
0.0001128
0.000112423
0.00011203
0.000111611
0.000111165
0.000110687
0.000110186
0.000109657
0.000109097
0.000108506
0.000107879
0.000107217
0.000106512
0.000105765
0.000104968
0.000104117
0.000103205
0.000102102
0.000100588
9.90455e-05
9.74488e-05
9.58268e-05
9.41676e-05
9.24832e-05
9.07598e-05
8.90076e-05
8.72328e-05
8.54468e-05
8.35986e-05
8.17384e-05
7.98298e-05
7.79033e-05
7.59364e-05
7.39492e-05
7.19272e-05
6.98836e-05
6.78076e-05
6.57063e-05
6.35721e-05
6.14085e-05
5.92094e-05
5.69773e-05
5.47077e-05
5.24038e-05
5.00635e-05
4.76922e-05
4.52915e-05
4.28704e-05
4.04345e-05
3.79955e-05
3.55661e-05
3.31766e-05
3.08277e-05
2.85436e-05
2.63214e-05
2.41743e-05
2.20722e-05
2.0037e-05
1.80392e-05
1.59944e-05
1.39477e-05
1.19388e-05
1.01374e-05
8.62606e-06
8.12546e-06
1.13136e-05
0.000137675
0.000137404
0.000137302
0.000137038
0.000136935
0.000136643
0.000136513
0.000136201
0.000136035
0.000135704
0.000135497
0.000135145
0.000134895
0.00013452
0.000134225
0.000133823
0.000133481
0.000133048
0.000132658
0.000132187
0.000131745
0.000131232
0.000130734
0.000130171
0.000129602
0.000128657
0.000127617
0.000126534
0.000125438
0.000124307
0.000123161
0.000121981
0.000120784
0.000119554
0.000118304
0.000117022
0.000115717
0.000114381
0.000113022
0.000111632
0.000110212
0.000108766
0.000107288
0.000105785
0.000104248
0.000102686
0.000101091
9.94711e-05
9.78194e-05
9.61352e-05
9.44256e-05
9.27106e-05
9.09621e-05
8.91991e-05
8.74094e-05
8.5608e-05
8.37841e-05
8.19445e-05
8.00779e-05
7.8191e-05
7.62761e-05
7.43412e-05
7.23822e-05
7.04073e-05
6.84096e-05
6.63997e-05
6.43711e-05
6.23354e-05
6.02884e-05
5.82416e-05
5.6193e-05
5.41539e-05
5.21246e-05
5.01155e-05
4.81278e-05
4.6171e-05
4.42456e-05
4.23597e-05
4.05121e-05
3.87076e-05
3.69427e-05
3.52188e-05
3.35248e-05
3.1861e-05
3.02354e-05
2.8615e-05
2.70068e-05
2.54018e-05
2.37944e-05
2.21766e-05
2.05445e-05
1.88937e-05
1.72143e-05
1.54846e-05
1.37153e-05
1.1987e-05
1.05122e-05
9.77659e-06
1.19118e-05
1.2061e-05
0.000140429
0.000140543
0.000140281
0.000140131
0.000139364
0.000138766
0.000137852
0.000137061
0.000136098
0.0001352
0.000134209
0.00013324
0.00013222
0.000131195
0.000130142
0.000129067
0.000127976
0.000126854
0.00012572
0.00012455
0.00012337
0.000122153
0.000120926
0.000119662
0.00011838
0.000117079
0.000115762
0.000114417
0.00011306
0.000111676
0.000110279
0.000108857
0.000107422
0.000105963
0.00010449
0.000102994
0.000101483
9.99407e-05
9.83914e-05
9.68423e-05
9.52458e-05
9.36556e-05
9.20312e-05
9.04054e-05
8.87537e-05
8.70977e-05
8.54218e-05
8.37413e-05
8.20465e-05
8.03491e-05
7.86438e-05
7.69376e-05
7.52263e-05
7.35141e-05
7.17949e-05
7.00766e-05
6.83596e-05
6.66484e-05
6.49421e-05
6.32451e-05
6.15571e-05
5.98833e-05
5.82233e-05
5.65822e-05
5.49588e-05
5.3358e-05
5.1778e-05
5.0223e-05
4.86902e-05
4.7183e-05
4.56933e-05
4.4229e-05
4.27942e-05
4.13666e-05
3.9965e-05
3.85724e-05
3.71963e-05
3.58239e-05
3.44593e-05
3.3091e-05
3.17211e-05
3.03428e-05
2.89569e-05
2.75634e-05
2.61647e-05
2.47598e-05
2.33624e-05
2.19652e-05
2.05876e-05
1.92284e-05
1.79052e-05
1.66177e-05
1.53866e-05
1.41957e-05
1.31036e-05
1.22702e-05
1.20797e-05
1.37497e-05
1.37877e-05
1.41381e-05
0.000127504
0.000126884
0.000126473
0.000125933
0.000125005
0.0001241
0.000123007
0.000121945
0.000120792
0.000119653
0.00011847
0.000117283
0.000116079
0.000114857
0.000113633
0.000112384
0.00011114
0.000109867
0.000108605
0.000107312
0.000106027
0.000104719
0.000103416
0.000102113
0.000100783
9.94578e-05
9.81127e-05
9.67561e-05
9.53943e-05
9.40184e-05
9.26375e-05
9.12425e-05
8.9843e-05
8.84303e-05
8.70142e-05
8.55865e-05
8.41568e-05
8.27181e-05
8.12806e-05
7.98356e-05
7.83918e-05
7.69479e-05
7.55047e-05
7.40662e-05
7.26303e-05
7.12024e-05
6.97797e-05
6.83675e-05
6.69629e-05
6.55706e-05
6.41876e-05
6.28169e-05
6.14563e-05
6.01091e-05
5.87728e-05
5.745e-05
5.61394e-05
5.48482e-05
5.35725e-05
5.23064e-05
5.10576e-05
4.98182e-05
4.85926e-05
4.73753e-05
4.61688e-05
4.49695e-05
4.37785e-05
4.25933e-05
4.14146e-05
4.02412e-05
3.90734e-05
3.79126e-05
3.67599e-05
3.5614e-05
3.44774e-05
3.33465e-05
3.2228e-05
3.11178e-05
3.00268e-05
2.89479e-05
2.78893e-05
2.6847e-05
2.58281e-05
2.48292e-05
2.38563e-05
2.29063e-05
2.19781e-05
2.1075e-05
2.02086e-05
1.938e-05
1.86046e-05
1.78903e-05
1.72649e-05
1.6763e-05
1.65163e-05
1.66376e-05
1.60618e-05
1.58179e-05
1.57931e-05
1.32107e-05
0.000111944
0.000110769
0.000110219
0.000109347
0.00010841
0.00010732
0.000106236
0.000105063
0.000103921
0.000102716
0.000101553
0.000100335
9.91603e-05
9.79378e-05
9.67569e-05
9.55335e-05
9.43497e-05
9.31287e-05
9.19453e-05
9.073e-05
8.95506e-05
8.83466e-05
8.71771e-05
8.59799e-05
8.48113e-05
8.36282e-05
8.24659e-05
8.12944e-05
8.01427e-05
7.89844e-05
7.78431e-05
7.66976e-05
7.55674e-05
7.44345e-05
7.33155e-05
7.21952e-05
7.10874e-05
6.99792e-05
6.88822e-05
6.77814e-05
6.66941e-05
6.56125e-05
6.45352e-05
6.34643e-05
6.23989e-05
6.13396e-05
6.02853e-05
5.92368e-05
5.81931e-05
5.71556e-05
5.61225e-05
5.50962e-05
5.40747e-05
5.30617e-05
5.20565e-05
5.10632e-05
5.0071e-05
4.90927e-05
4.8119e-05
4.71566e-05
4.62029e-05
4.52624e-05
4.43349e-05
4.34225e-05
4.25252e-05
4.16432e-05
4.07865e-05
3.99476e-05
3.91347e-05
3.83424e-05
3.75776e-05
3.68346e-05
3.61156e-05
3.54184e-05
3.47443e-05
3.40903e-05
3.3457e-05
3.28387e-05
3.22388e-05
3.12932e-05
3.03379e-05
2.93909e-05
2.84616e-05
2.75415e-05
2.66403e-05
2.57498e-05
2.48799e-05
2.40233e-05
2.31923e-05
2.23818e-05
2.1607e-05
2.08666e-05
2.01754e-05
1.95431e-05
1.90017e-05
1.85975e-05
1.83372e-05
1.82336e-05
1.89295e-05
1.49388e-05
0.000100795
9.90464e-05
9.84813e-05
9.7396e-05
9.65425e-05
9.5371e-05
9.44112e-05
9.32378e-05
9.22466e-05
9.11012e-05
9.01109e-05
8.90013e-05
8.80228e-05
8.69498e-05
8.59863e-05
8.49457e-05
8.39969e-05
8.29837e-05
8.20471e-05
8.10555e-05
8.01277e-05
7.91482e-05
7.81132e-05
7.67972e-05
7.5544e-05
7.42532e-05
7.30417e-05
7.17901e-05
7.06165e-05
6.94116e-05
6.82845e-05
6.7134e-05
6.60607e-05
6.49707e-05
6.3957e-05
6.29303e-05
6.19783e-05
6.10182e-05
6.01307e-05
5.9239e-05
5.84161e-05
5.75916e-05
5.68301e-05
5.60667e-05
5.5363e-05
5.46576e-05
5.40074e-05
5.33551e-05
5.27533e-05
5.21488e-05
5.15886e-05
5.10264e-05
5.04994e-05
4.99692e-05
4.94656e-05
4.89618e-05
4.84759e-05
4.79889e-05
4.75101e-05
4.70275e-05
4.65469e-05
4.60602e-05
4.55704e-05
4.50659e-05
4.45575e-05
4.4057e-05
4.35342e-05
4.30162e-05
4.24887e-05
4.1965e-05
4.1432e-05
4.09024e-05
4.0364e-05
3.98282e-05
3.9284e-05
3.87416e-05
3.81911e-05
3.7641e-05
3.70837e-05
3.6523e-05
3.5953e-05
3.53708e-05
3.47747e-05
3.41615e-05
3.35289e-05
3.28733e-05
3.21926e-05
3.14836e-05
3.07468e-05
2.99835e-05
2.92004e-05
2.84085e-05
2.76267e-05
2.68811e-05
2.62643e-05
2.58058e-05
2.54291e-05
2.56008e-05
2.61348e-05
2.05151e-05
8.39926e-05
8.1895e-05
8.10427e-05
7.94561e-05
7.85659e-05
7.70879e-05
7.61669e-05
7.4791e-05
7.38522e-05
7.2539e-05
7.16327e-05
7.038e-05
6.95008e-05
6.83099e-05
6.74622e-05
6.63357e-05
6.55239e-05
6.44642e-05
6.36932e-05
6.27022e-05
6.19767e-05
6.10566e-05
6.03805e-05
5.95372e-05
5.89201e-05
5.81601e-05
5.76055e-05
5.69249e-05
5.64334e-05
5.58293e-05
5.5399e-05
5.48672e-05
5.44936e-05
5.40301e-05
5.37074e-05
5.33086e-05
5.30323e-05
5.26923e-05
5.24555e-05
5.2168e-05
5.19646e-05
5.172e-05
5.15443e-05
5.13344e-05
5.11812e-05
5.09984e-05
5.08625e-05
5.06926e-05
5.05644e-05
5.04369e-05
5.03102e-05
5.01922e-05
5.00452e-05
4.99511e-05
4.9825e-05
4.97383e-05
4.96281e-05
4.95495e-05
4.94571e-05
4.93916e-05
4.93175e-05
4.92666e-05
4.9211e-05
4.91752e-05
4.91377e-05
4.9117e-05
4.90989e-05
4.90962e-05
4.90958e-05
4.91098e-05
4.91269e-05
4.91572e-05
4.91907e-05
4.92362e-05
4.92846e-05
4.93432e-05
4.94035e-05
4.94711e-05
4.95384e-05
4.96101e-05
4.96782e-05
4.97447e-05
4.98009e-05
4.98464e-05
4.98723e-05
4.98751e-05
4.98452e-05
4.9776e-05
4.96572e-05
4.94838e-05
4.92486e-05
4.89523e-05
4.85976e-05
4.81976e-05
4.77798e-05
4.74283e-05
4.72968e-05
4.74276e-05
4.79682e-05
3.97711e-05
7.42456e-05
7.23802e-05
7.1633e-05
7.02308e-05
6.95257e-05
6.82047e-05
6.7538e-05
6.63051e-05
6.56756e-05
6.45345e-05
6.39465e-05
6.28948e-05
6.23513e-05
6.13878e-05
6.08907e-05
6.00137e-05
5.95642e-05
5.87711e-05
5.83695e-05
5.76572e-05
5.73031e-05
5.6668e-05
5.636e-05
5.57981e-05
5.55339e-05
5.50398e-05
5.48157e-05
5.43839e-05
5.41961e-05
5.38227e-05
5.36643e-05
5.33528e-05
5.32017e-05
5.29515e-05
5.28265e-05
5.2633e-05
5.25088e-05
5.23715e-05
5.22443e-05
5.21455e-05
5.20531e-05
5.19766e-05
5.19115e-05
5.1859e-05
5.18208e-05
5.17909e-05
5.17783e-05
5.17713e-05
5.17841e-05
5.18007e-05
5.18363e-05
5.18765e-05
5.19353e-05
5.20037e-05
5.20872e-05
5.21832e-05
5.22926e-05
5.24163e-05
5.25521e-05
5.27032e-05
5.28661e-05
5.3045e-05
5.32363e-05
5.34445e-05
5.36656e-05
5.3904e-05
5.41559e-05
5.44255e-05
5.47094e-05
5.50115e-05
5.53288e-05
5.56649e-05
5.60177e-05
5.63904e-05
5.67813e-05
5.71935e-05
5.76263e-05
5.8082e-05
5.85604e-05
5.9064e-05
5.95924e-05
6.01488e-05
6.07342e-05
6.13515e-05
6.20024e-05
6.26905e-05
6.34182e-05
6.419e-05
6.50113e-05
6.58873e-05
6.68245e-05
6.78299e-05
6.89115e-05
7.0077e-05
7.13327e-05
7.26725e-05
7.40893e-05
7.5551e-05
7.6276e-05
6.62006e-05
7.89063e-05
7.69352e-05
7.61438e-05
7.46506e-05
7.38869e-05
7.24795e-05
7.1744e-05
7.04273e-05
6.97229e-05
6.85002e-05
6.78297e-05
6.67041e-05
6.60703e-05
6.50426e-05
6.44517e-05
6.35161e-05
6.29738e-05
6.21258e-05
6.16348e-05
6.08702e-05
6.04312e-05
5.97457e-05
5.93576e-05
5.87465e-05
5.84069e-05
5.78649e-05
5.75705e-05
5.70922e-05
5.68389e-05
5.64184e-05
5.62017e-05
5.58332e-05
5.56474e-05
5.53263e-05
5.51656e-05
5.48865e-05
5.47455e-05
5.44955e-05
5.43662e-05
5.41871e-05
5.40349e-05
5.39104e-05
5.37631e-05
5.36451e-05
5.35389e-05
5.34414e-05
5.33591e-05
5.32824e-05
5.32231e-05
5.31678e-05
5.31316e-05
5.30985e-05
5.30858e-05
5.30764e-05
5.30857e-05
5.31008e-05
5.31359e-05
5.31771e-05
5.32383e-05
5.33055e-05
5.33916e-05
5.34864e-05
5.35985e-05
5.37214e-05
5.38614e-05
5.4013e-05
5.41814e-05
5.43621e-05
5.45597e-05
5.477e-05
5.49975e-05
5.5238e-05
5.5496e-05
5.57677e-05
5.60569e-05
5.6361e-05
5.66839e-05
5.70233e-05
5.73828e-05
5.77608e-05
5.81608e-05
5.85819e-05
5.90277e-05
5.94976e-05
5.99956e-05
6.05217e-05
6.10801e-05
6.16716e-05
6.22998e-05
6.29656e-05
6.36739e-05
6.44303e-05
6.52537e-05
6.61489e-05
6.71411e-05
6.8247e-05
6.95118e-05
7.09071e-05
7.19427e-05
6.30806e-05
9.67723e-05
9.46041e-05
9.37126e-05
9.20398e-05
9.10911e-05
8.95074e-05
8.85093e-05
8.70042e-05
8.59692e-05
8.45436e-05
8.34723e-05
8.2126e-05
8.10353e-05
7.97422e-05
7.86835e-05
7.74336e-05
7.64088e-05
7.52094e-05
7.42227e-05
7.30793e-05
7.21354e-05
7.10521e-05
7.01553e-05
6.91352e-05
6.82891e-05
6.73346e-05
6.654e-05
6.56539e-05
6.49153e-05
6.40963e-05
6.34149e-05
6.26626e-05
6.20388e-05
6.13519e-05
6.0783e-05
6.01572e-05
5.96411e-05
5.90734e-05
5.86067e-05
5.80932e-05
5.767e-05
5.72052e-05
5.68145e-05
5.63915e-05
5.60302e-05
5.56419e-05
5.53046e-05
5.49433e-05
5.46239e-05
5.42825e-05
5.39756e-05
5.36445e-05
5.33375e-05
5.30283e-05
5.2739e-05
5.24294e-05
5.21497e-05
5.18529e-05
5.15843e-05
5.13134e-05
5.1036e-05
5.07686e-05
5.05114e-05
5.02558e-05
5.00111e-05
4.97669e-05
4.95336e-05
4.93026e-05
4.90823e-05
4.88594e-05
4.86429e-05
4.84227e-05
4.8206e-05
4.79817e-05
4.77566e-05
4.75201e-05
4.72783e-05
4.70211e-05
4.67538e-05
4.6467e-05
4.61683e-05
4.58475e-05
4.55109e-05
4.51498e-05
4.47697e-05
4.4364e-05
4.39382e-05
4.34881e-05
4.30217e-05
4.2536e-05
4.20428e-05
4.15387e-05
4.10264e-05
4.05451e-05
4.012e-05
3.98215e-05
3.97413e-05
4.00046e-05
4.06446e-05
3.43545e-05
0.0001047
0.000103158
0.000102519
0.000101418
0.000100525
9.93266e-05
9.83212e-05
9.71082e-05
9.60624e-05
9.48687e-05
9.38148e-05
9.26504e-05
9.16021e-05
9.04664e-05
8.94302e-05
8.83217e-05
8.7299e-05
8.62165e-05
8.52081e-05
8.41499e-05
8.31561e-05
8.21211e-05
8.11425e-05
8.01286e-05
7.91639e-05
7.81645e-05
7.7218e-05
7.62415e-05
7.53036e-05
7.43452e-05
7.34222e-05
7.24827e-05
7.15748e-05
7.06539e-05
6.9763e-05
6.8863e-05
6.79733e-05
6.70744e-05
6.61887e-05
6.52976e-05
6.44205e-05
6.35427e-05
6.26806e-05
6.18211e-05
6.09802e-05
6.01452e-05
5.93327e-05
5.85287e-05
5.77506e-05
5.6981e-05
5.62393e-05
5.55085e-05
5.48059e-05
5.41156e-05
5.3452e-05
5.28054e-05
5.21869e-05
5.14682e-05
5.07377e-05
4.99966e-05
4.92703e-05
4.85331e-05
4.78041e-05
4.70585e-05
4.63156e-05
4.55551e-05
4.47946e-05
4.401e-05
4.32165e-05
4.24256e-05
4.16345e-05
4.08237e-05
4.00223e-05
3.92046e-05
3.83971e-05
3.75761e-05
3.6766e-05
3.59458e-05
3.51377e-05
3.43234e-05
3.3516e-05
3.27043e-05
3.19029e-05
3.11017e-05
3.03154e-05
2.95346e-05
2.87661e-05
2.80086e-05
2.72707e-05
2.65538e-05
2.58693e-05
2.52227e-05
2.4629e-05
2.40948e-05
2.37117e-05
2.33991e-05
2.33679e-05
2.36427e-05
2.43835e-05
1.89183e-05
0.000118546
0.000117403
0.000116869
0.000115986
0.000115017
0.000113904
0.000112774
0.000111555
0.000110356
0.000109092
0.000107871
0.000106592
0.000105357
0.000104069
0.000102823
0.000101527
0.000100271
9.89688e-05
9.77022e-05
9.63954e-05
9.51202e-05
9.381e-05
9.25288e-05
9.12193e-05
8.99324e-05
8.86223e-05
8.73344e-05
8.60254e-05
8.47363e-05
8.34303e-05
8.21441e-05
8.08443e-05
7.95629e-05
7.82716e-05
7.69982e-05
7.5719e-05
7.44602e-05
7.31983e-05
7.19553e-05
7.07112e-05
6.94838e-05
6.82563e-05
6.70425e-05
6.58338e-05
6.46409e-05
6.34447e-05
6.2266e-05
6.10856e-05
5.99205e-05
5.87573e-05
5.76083e-05
5.6462e-05
5.53293e-05
5.42008e-05
5.30855e-05
5.19752e-05
5.08794e-05
4.97907e-05
4.87191e-05
4.76597e-05
4.66138e-05
4.55736e-05
4.45489e-05
4.35345e-05
4.25379e-05
4.15543e-05
4.05918e-05
3.96517e-05
3.87367e-05
3.78433e-05
3.69774e-05
3.61357e-05
3.53231e-05
3.45349e-05
3.37712e-05
3.30316e-05
3.2316e-05
3.16236e-05
3.09529e-05
3.03025e-05
2.96666e-05
2.90488e-05
2.84426e-05
2.78511e-05
2.6837e-05
2.58607e-05
2.49062e-05
2.3997e-05
2.31142e-05
2.22814e-05
2.14822e-05
2.07414e-05
2.00417e-05
1.9416e-05
1.88208e-05
1.84109e-05
1.81794e-05
1.79933e-05
1.87269e-05
1.44605e-05
0.000134927
0.000134289
0.000133875
0.000133294
0.000132324
0.000131351
0.000130199
0.00012906
0.000127841
0.000126621
0.000125369
0.000124101
0.000122823
0.000121517
0.000120215
0.000118878
0.00011755
0.000116186
0.000114832
0.000113442
0.000112064
0.000110652
0.000109236
0.000107813
0.000106397
0.000104945
0.00010351
0.000102046
0.000100598
9.91234e-05
9.76537e-05
9.61592e-05
9.46662e-05
9.3152e-05
9.16379e-05
9.01057e-05
8.85829e-05
8.70469e-05
8.55177e-05
8.39801e-05
8.24466e-05
8.0906e-05
7.93729e-05
7.78339e-05
7.63049e-05
7.47728e-05
7.32529e-05
7.17336e-05
7.02287e-05
6.87282e-05
6.72439e-05
6.57676e-05
6.43092e-05
6.28613e-05
6.14309e-05
6.00122e-05
5.86117e-05
5.72205e-05
5.58471e-05
5.44924e-05
5.31519e-05
5.18333e-05
5.0531e-05
4.92466e-05
4.79769e-05
4.67211e-05
4.54776e-05
4.42445e-05
4.30213e-05
4.18056e-05
4.05981e-05
3.9396e-05
3.82011e-05
3.70124e-05
3.58354e-05
3.46652e-05
3.35036e-05
3.23495e-05
3.12038e-05
3.00694e-05
2.89461e-05
2.78393e-05
2.67468e-05
2.56757e-05
2.46201e-05
2.35861e-05
2.25697e-05
2.15774e-05
2.06022e-05
1.96535e-05
1.87421e-05
1.78711e-05
1.70526e-05
1.63921e-05
1.59629e-05
1.61328e-05
1.60763e-05
1.58675e-05
1.58837e-05
1.3164e-05
0.00014671
0.000146821
0.000146547
0.000146341
0.000145532
0.000144853
0.000143882
0.000143007
0.000141981
0.000141003
0.000139947
0.000138902
0.000137817
0.000136718
0.000135601
0.000134457
0.000133304
0.000132117
0.000130925
0.000129696
0.000128464
0.000127194
0.000125919
0.00012461
0.000123292
0.000121938
0.000120579
0.000119183
0.000117793
0.000116369
0.000114936
0.000113478
0.00011201
0.000110518
0.000109015
0.000107489
0.000105954
0.000104396
0.000102817
0.000101225
9.96372e-05
9.80037e-05
9.63746e-05
9.47119e-05
9.30469e-05
9.13543e-05
8.96562e-05
8.79352e-05
8.62076e-05
8.44614e-05
8.27095e-05
8.09438e-05
7.91753e-05
7.74001e-05
7.56236e-05
7.38438e-05
7.20663e-05
7.02813e-05
6.85022e-05
6.67198e-05
6.49489e-05
6.31843e-05
6.14364e-05
5.96996e-05
5.7985e-05
5.62862e-05
5.46136e-05
5.29614e-05
5.13379e-05
4.97383e-05
4.81686e-05
4.6624e-05
4.5108e-05
4.361e-05
4.21408e-05
4.07017e-05
3.9267e-05
3.78629e-05
3.64598e-05
3.50734e-05
3.36811e-05
3.22922e-05
3.08893e-05
2.9479e-05
2.80468e-05
2.66011e-05
2.51373e-05
2.36574e-05
2.21727e-05
2.06761e-05
1.91878e-05
1.77008e-05
1.62148e-05
1.47908e-05
1.34779e-05
1.24364e-05
1.20865e-05
1.36434e-05
1.38507e-05
1.43363e-05
0.000140865
0.000140542
0.000140414
0.000140092
0.000139953
0.000139607
0.000139438
0.000139077
0.000138872
0.000138497
0.000138251
0.00013786
0.000137572
0.000137161
0.000136831
0.000136396
0.000136022
0.00013556
0.00013514
0.000134646
0.00013418
0.000133649
0.000133133
0.000132559
0.000131989
0.000131363
0.00013073
0.00013004
0.000128935
0.000127793
0.000126628
0.00012544
0.000124236
0.000123009
0.000121769
0.000120502
0.000119214
0.000117899
0.000116562
0.000115199
0.000113812
0.000112393
0.000110953
0.000109479
0.000107984
0.000106453
0.0001049
0.000103312
0.0001017
0.000100054
9.83835e-05
9.66808e-05
9.49407e-05
9.31807e-05
9.14146e-05
8.95977e-05
8.77821e-05
8.59206e-05
8.40566e-05
8.21556e-05
8.02484e-05
7.83089e-05
7.63579e-05
7.43721e-05
7.23697e-05
7.03399e-05
6.8292e-05
6.62235e-05
6.4139e-05
6.20407e-05
5.99323e-05
5.78195e-05
5.57063e-05
5.36008e-05
5.1507e-05
4.94345e-05
4.73866e-05
4.53721e-05
4.33934e-05
4.14566e-05
3.95621e-05
3.7712e-05
3.59033e-05
3.41335e-05
3.23864e-05
3.06643e-05
2.89815e-05
2.7273e-05
2.55797e-05
2.38596e-05
2.21216e-05
2.0328e-05
1.84665e-05
1.65348e-05
1.46143e-05
1.26981e-05
1.10393e-05
1.00806e-05
1.19764e-05
1.21314e-05
0.000116572
0.0001168
0.000116888
0.000116964
0.000117033
0.000117072
0.00011713
0.000117142
0.000117186
0.000117175
0.000117202
0.00011717
0.000117175
0.000117124
0.000117107
0.000117036
0.000116994
0.000116901
0.000116832
0.000116715
0.000116615
0.000116471
0.000116337
0.000116163
0.000115992
0.000115784
0.000115574
0.000115331
0.000115084
0.000114815
0.000114538
0.000114242
0.000113934
0.000113605
0.000113261
0.000112899
0.000112525
0.000112133
0.000111719
0.000111283
0.000110822
0.000110336
0.000109822
0.000109277
0.000108701
0.000108095
0.000107462
0.000106799
0.000106108
0.000105373
0.000104601
0.000103779
0.000102906
0.000101975
0.000100957
9.94017e-05
9.78294e-05
9.61825e-05
9.45157e-05
9.27891e-05
9.1041e-05
8.92471e-05
8.74391e-05
8.55901e-05
8.37178e-05
8.18192e-05
7.98591e-05
7.78787e-05
7.58488e-05
7.37932e-05
7.16962e-05
6.95715e-05
6.74028e-05
6.52037e-05
6.29585e-05
6.06772e-05
5.83463e-05
5.5973e-05
5.35476e-05
5.10765e-05
4.85554e-05
4.59925e-05
4.33901e-05
4.07607e-05
3.81151e-05
3.54721e-05
3.28503e-05
3.02727e-05
2.77715e-05
2.53555e-05
2.30119e-05
2.0738e-05
1.85361e-05
1.62981e-05
1.41351e-05
1.21309e-05
1.03198e-05
8.92103e-06
8.37938e-06
1.15376e-05
7.48927e-05
7.53304e-05
7.54143e-05
7.56867e-05
7.57781e-05
7.60025e-05
7.61119e-05
7.63051e-05
7.643e-05
7.66018e-05
7.67371e-05
7.68938e-05
7.70345e-05
7.71803e-05
7.7322e-05
7.74589e-05
7.75982e-05
7.77271e-05
7.78611e-05
7.79818e-05
7.81081e-05
7.82201e-05
7.83368e-05
7.84395e-05
7.85455e-05
7.86385e-05
7.87339e-05
7.8818e-05
7.89045e-05
7.89815e-05
7.90585e-05
7.9127e-05
7.91932e-05
7.92512e-05
7.9305e-05
7.93505e-05
7.93898e-05
7.94191e-05
7.94438e-05
7.94591e-05
7.94679e-05
7.94675e-05
7.94594e-05
7.94421e-05
7.94169e-05
7.93829e-05
7.93368e-05
7.92761e-05
7.91988e-05
7.91015e-05
7.89833e-05
7.88392e-05
7.8669e-05
7.84679e-05
7.82361e-05
7.7976e-05
7.77021e-05
7.73908e-05
7.70595e-05
7.66812e-05
7.6266e-05
7.56988e-05
7.48701e-05
7.39864e-05
7.30464e-05
7.20649e-05
7.10265e-05
6.99467e-05
6.88058e-05
6.76079e-05
6.63479e-05
6.50411e-05
6.36402e-05
6.21743e-05
6.06156e-05
5.89758e-05
5.72369e-05
5.54059e-05
5.34717e-05
5.14406e-05
4.93076e-05
4.7081e-05
4.47616e-05
4.23612e-05
3.98883e-05
3.73542e-05
3.47529e-05
3.20989e-05
2.93152e-05
2.64479e-05
2.34845e-05
2.04612e-05
1.74852e-05
1.4635e-05
1.19464e-05
9.59199e-06
7.77118e-06
6.54255e-06
5.87318e-06
6.77693e-06
6.97682e-06
6.99351e-06
7.00517e-06
7.01881e-06
7.03271e-06
7.0492e-06
7.06332e-06
7.08128e-06
7.09597e-06
7.11471e-06
7.13025e-06
7.14945e-06
7.16599e-06
7.18553e-06
7.2031e-06
7.22297e-06
7.24157e-06
7.26182e-06
7.28141e-06
7.30214e-06
7.3227e-06
7.34404e-06
7.36559e-06
7.38769e-06
7.41032e-06
7.43338e-06
7.45721e-06
7.48145e-06
7.5066e-06
7.53215e-06
7.5587e-06
7.58571e-06
7.61375e-06
7.64235e-06
7.67203e-06
7.70238e-06
7.73384e-06
7.76613e-06
7.79962e-06
7.83405e-06
7.86977e-06
7.90655e-06
7.94469e-06
7.984e-06
8.02466e-06
8.06648e-06
8.10949e-06
8.1536e-06
8.19887e-06
8.24519e-06
8.29269e-06
8.3413e-06
8.39124e-06
8.44252e-06
8.49551e-06
8.55029e-06
8.6067e-06
8.66371e-06
8.72169e-06
8.77858e-06
8.83488e-06
8.88786e-06
8.94062e-06
8.99569e-06
9.05191e-06
9.1114e-06
9.17265e-06
9.23762e-06
9.30448e-06
9.37525e-06
9.44907e-06
9.52701e-06
9.6058e-06
9.68997e-06
9.77516e-06
9.8653e-06
9.95719e-06
1.00539e-05
1.01534e-05
1.02586e-05
1.03686e-05
1.04865e-05
1.06129e-05
1.07513e-05
1.09028e-05
1.10655e-05
1.12231e-05
1.133e-05
1.13563e-05
1.12303e-05
1.07796e-05
9.77208e-06
8.06165e-06
5.93814e-06
3.61767e-06
2.63555e-06
2.55613e-06
3.91748e-06
4.01825e-06
4.33064e-06
1.09393e-05
2.07737e-06
2.60067e-06
3.51752e-06
4.54844e-06
5.6232e-06
6.48756e-06
7.33717e-06
8.15045e-06
8.90653e-06
9.62002e-06
1.03382e-05
1.14568e-05
1.33357e-05
1.54702e-05
1.78508e-05
1.75966e-05
1.55412e-05
1.02869e-05
3.99558e-06
5.8799e-06
2.18619e-06
2.47519e-06
3.18437e-06
4.05644e-06
4.86415e-06
5.69342e-06
6.5525e-06
7.41588e-06
8.2996e-06
9.27523e-06
1.03728e-05
1.20261e-05
1.41e-05
1.70543e-05
1.83244e-05
1.74933e-05
1.47067e-05
9.53284e-06
3.9668e-06
4.94618e-06
2.69542e-06
2.90125e-06
3.41686e-06
4.01117e-06
4.71751e-06
5.48181e-06
6.31646e-06
7.22234e-06
8.39002e-06
9.5104e-06
1.1022e-05
1.29403e-05
1.58378e-05
1.80273e-05
1.83053e-05
1.71508e-05
1.40006e-05
8.86969e-06
3.83898e-06
5.05653e-06
3.43953e-06
3.63822e-06
3.876e-06
4.36893e-06
4.92968e-06
5.67451e-06
6.58294e-06
7.71579e-06
9.48949e-06
1.122e-05
1.29549e-05
1.57426e-05
1.82221e-05
1.91992e-05
1.88225e-05
1.70302e-05
1.32329e-05
7.97776e-06
3.25665e-06
5.68869e-06
4.47717e-06
4.61695e-06
4.63444e-06
5.19476e-06
5.69388e-06
6.58673e-06
7.84452e-06
9.60105e-06
1.31109e-05
1.47783e-05
1.70919e-05
1.93538e-05
2.04394e-05
2.04415e-05
1.92219e-05
1.65348e-05
1.24881e-05
6.87763e-06
2.37345e-06
6.89546e-06
5.97706e-06
6.04847e-06
6.02763e-06
6.77338e-06
7.76995e-06
9.35327e-06
1.16084e-05
1.61273e-05
1.95232e-05
2.09983e-05
2.23909e-05
2.30815e-05
2.28807e-05
2.16802e-05
1.90988e-05
1.59601e-05
1.15526e-05
5.14367e-06
1.46489e-06
9.04365e-06
8.62749e-06
8.85908e-06
9.46564e-06
1.11853e-05
1.36766e-05
1.70888e-05
2.20436e-05
2.87896e-05
2.94408e-05
2.91218e-05
2.83298e-05
2.69249e-05
2.47858e-05
2.1677e-05
1.85292e-05
1.48177e-05
1.00988e-05
3.81998e-06
7.19492e-07
1.46595e-05
1.6139e-05
1.73675e-05
1.9666e-05
2.31973e-05
2.75241e-05
3.30986e-05
4.00649e-05
3.99369e-05
3.77735e-05
3.42808e-05
3.16635e-05
2.81024e-05
2.49268e-05
2.08584e-05
1.70832e-05
1.29145e-05
8.10292e-06
2.78113e-06
2.7688e-07
3.25309e-05
3.54873e-05
3.67137e-05
3.91754e-05
4.36291e-05
4.7973e-05
5.20241e-05
4.77971e-05
4.41734e-05
4.02481e-05
3.63724e-05
3.25824e-05
2.83694e-05
2.3326e-05
1.85616e-05
1.407e-05
1.01871e-05
6.44384e-06
2.41397e-06
1.2143e-07
5.2824e-05
5.57081e-05
5.59618e-05
5.74659e-05
6.23171e-05
5.94069e-05
5.51202e-05
5.01595e-05
4.60741e-05
4.11149e-05
3.70386e-05
3.18656e-05
2.70267e-05
1.97569e-05
1.40324e-05
9.61865e-06
7.54037e-06
6.0108e-06
2.8879e-06
1.87917e-07
5.03421e-05
5.30748e-05
5.34406e-05
5.50235e-05
5.98188e-05
5.77683e-05
5.3656e-05
4.88929e-05
4.50374e-05
4.02452e-05
3.65691e-05
3.14395e-05
2.76186e-05
2.04757e-05
1.48128e-05
9.76425e-06
7.17173e-06
5.07739e-06
2.1608e-06
1.48838e-07
2.80244e-05
3.09207e-05
3.22772e-05
3.47509e-05
3.91494e-05
4.36888e-05
4.96429e-05
4.56341e-05
4.26525e-05
3.84268e-05
3.56698e-05
3.13196e-05
2.83402e-05
2.39319e-05
1.93668e-05
1.46129e-05
1.00117e-05
5.48162e-06
1.67235e-06
1.05383e-07
1.31031e-05
1.40466e-05
1.5024e-05
1.70699e-05
2.02335e-05
2.42822e-05
2.95446e-05
3.6432e-05
3.97669e-05
3.61571e-05
3.4028e-05
3.06154e-05
2.76744e-05
2.45063e-05
2.12657e-05
1.73738e-05
1.29732e-05
7.81072e-06
2.36742e-06
1.40561e-07
8.63833e-06
8.11686e-06
8.26424e-06
8.65966e-06
1.00786e-05
1.22221e-05
1.52239e-05
1.98451e-05
2.63258e-05
2.74908e-05
2.7785e-05
2.75956e-05
2.66716e-05
2.47312e-05
2.14457e-05
1.86188e-05
1.48275e-05
1.0011e-05
3.48371e-06
3.79372e-07
6.73716e-06
5.80507e-06
5.86948e-06
5.83215e-06
6.51345e-06
7.37376e-06
8.76001e-06
1.07501e-05
1.484e-05
1.81978e-05
1.99876e-05
2.17361e-05
2.27547e-05
2.27873e-05
2.18416e-05
1.8956e-05
1.58295e-05
1.14927e-05
5.11162e-06
1.17657e-06
5.62044e-06
4.4268e-06
4.56446e-06
4.60693e-06
5.15442e-06
5.64456e-06
6.48888e-06
7.64138e-06
9.24761e-06
1.23735e-05
1.41527e-05
1.65289e-05
1.90607e-05
2.03555e-05
2.04623e-05
1.93545e-05
1.64119e-05
1.24334e-05
6.93235e-06
2.22551e-06
5.0423e-06
3.43518e-06
3.6373e-06
3.91544e-06
4.4144e-06
4.9945e-06
5.7291e-06
6.61097e-06
7.68815e-06
9.34001e-06
1.09291e-05
1.26846e-05
1.54326e-05
1.81302e-05
1.92562e-05
1.88993e-05
1.70966e-05
1.31889e-05
8.03023e-06
3.20728e-06
5.04741e-06
2.73338e-06
2.93262e-06
3.46323e-06
4.09234e-06
4.80648e-06
5.58385e-06
6.42163e-06
7.31367e-06
8.4225e-06
9.50538e-06
1.09535e-05
1.28394e-05
1.56656e-05
1.80429e-05
1.83942e-05
1.72083e-05
1.39475e-05
8.94544e-06
3.79892e-06
6.11982e-06
2.24181e-06
2.53617e-06
3.25413e-06
4.1337e-06
4.98456e-06
5.81935e-06
6.68648e-06
7.55667e-06
8.43117e-06
9.36994e-06
1.04309e-05
1.20461e-05
1.40908e-05
1.69983e-05
1.83781e-05
1.75187e-05
1.47188e-05
9.58494e-06
3.95292e-06
1.09719e-05
2.13798e-06
2.66024e-06
3.59579e-06
4.64396e-06
5.72252e-06
6.63753e-06
7.48908e-06
8.31072e-06
9.06838e-06
9.77627e-06
1.04657e-05
1.15075e-05
1.33029e-05
1.54678e-05
1.78816e-05
1.76243e-05
1.55202e-05
1.03482e-05
3.99019e-06
1.23421e-06
0.000116558
0.000294184
0.000330906
0.00033481
0.000335356
0.000335357
0.000335342
0.000335343
0.000335345
0.000335345
0.000335343
0.000335342
0.000335357
0.000335356
0.00033481
0.000330906
0.000294184
0.000116558
1.23421e-06
1.36973e-06
6.8167e-05
0.000219584
0.000309504
0.000330909
0.000334527
0.000335273
0.000335315
0.000335296
0.000335287
0.000335287
0.000335296
0.000335315
0.000335273
0.000334527
0.000330909
0.000309504
0.000219584
6.8167e-05
1.36973e-06
1.51338e-06
5.28962e-05
0.00017646
0.00028058
0.000322148
0.000332504
0.000334604
0.0003351
0.000335168
0.000335172
0.000335172
0.000335168
0.0003351