/*--------------------------------*- C++ -*----------------------------------*\
| =========                 |                                                 |
| \\      /  F ield         | OpenFOAM: The Open Source CFD Toolbox           |
|  \\    /   O peration     | Version:  2.1.0                                 |
|   \\  /    A nd           | Web:      www.OpenFOAM.org                      |
|    \\/     M anipulation  |                                                 |
\*---------------------------------------------------------------------------*/
FoamFile
{
    version     2.0;
    format      ascii;
    class       volScalarField;
    location    "0.47";
    object      omega;
}
// * * * * * * * * * * * * * * * * * * * * * * * * * * * * * * * * * * * * * //

dimensions      [0 0 -1 0 0 0 0];

internalField   nonuniform List<scalar> 
6400
(
1643.87
1644.81
1644.89
1644.75
1644.2
1643.94
1643.21
1642.86
1642.05
1641.64
1640.78
1640.3
1639.41
1638.83
1637.93
1637.25
1636.32
1635.54
1634.58
1633.69
1632.69
1631.72
1630.68
1629.63
1628.55
1627.45
1626.32
1625.16
1623.98
1622.75
1621.52
1620.22
1618.92
1617.56
1616.18
1614.74
1613.27
1611.74
1610.18
1608.53
1606.84
1605.03
1603.15
1601.14
1599.02
1596.75
1594.33
1591.72
1588.92
1585.91
1582.68
1579.2
1575.46
1571.38
1566.89
1561.94
1556.43
1550.9
1544.84
1538.69
1532.08
1525.32
1518.18
1510.82
1503.07
1495.05
1486.61
1477.85
1468.57
1458.82
1448.55
1437.68
1426.23
1414.09
1401.29
1387.78
1373.57
1358.66
1343.11
1326.96
1310.26
1293.03
1275.13
1255.97
1234.48
1211.91
1187.08
1159.2
1126.85
1087.71
1038.28
972.481
883.004
763.425
609.925
537.909
565.869
735.17
892.952
942.848
687.947
688.147
689.338
690.29
691.632
692.987
694.381
695.942
697.399
699.085
700.624
702.402
704.038
705.895
707.634
709.568
711.414
713.425
715.379
717.471
719.535
721.716
723.894
726.173
728.474
730.87
733.308
735.842
738.438
741.132
743.903
746.775
749.741
752.816
756.001
759.308
762.749
766.332
770.041
773.893
777.886
782.034
786.344
790.821
795.479
800.32
805.36
810.602
816.061
821.743
827.662
833.83
840.253
846.917
853.849
861.042
868.502
876.363
884.531
893.122
902.078
911.498
921.355
931.727
942.617
954.103
966.146
978.647
991.693
1005.48
1019.97
1035.25
1051.38
1068.41
1086.43
1105.51
1125.75
1147.24
1170.12
1194.52
1220.64
1248.74
1278.5
1308.97
1341.19
1374.04
1407.12
1439.16
1468.91
1494.72
1513.41
1521.98
1523.69
1509.37
1473.99
1394.71
1284.99
1150.74
1005.89
848.269
498.913
502.058
503.554
506.6
508.613
511.696
514.028
517.15
519.732
522.915
525.716
528.988
531.995
535.378
538.591
542.109
545.528
549.2
552.822
556.658
560.487
564.502
568.545
572.755
577.02
581.444
585.938
590.582
595.32
600.206
605.203
610.35
615.625
621.053
626.622
632.35
638.229
644.272
650.524
656.978
663.62
670.46
677.528
684.821
692.36
700.149
708.205
716.535
725.152
734.065
743.281
752.804
762.643
772.815
783.324
794.19
805.426
817.076
829.129
841.626
854.562
867.971
881.85
896.223
911.085
926.45
942.33
958.789
975.748
993.049
1010.73
1028.67
1046.87
1065.25
1083.77
1102.38
1121.06
1139.79
1158.56
1177.39
1196.3
1215.32
1234.46
1253.76
1273.2
1292.56
1311.69
1330.06
1347
1361.34
1369.17
1371.98
1365.4
1339.12
1290.4
1210.67
1102.16
960.975
797.349
628.088
449.622
454.599
456.801
461.19
463.973
468.334
471.533
475.895
479.432
483.841
487.676
492.174
496.284
500.909
505.282
510.065
514.699
519.668
524.569
529.753
534.928
540.35
545.806
551.484
557.229
563.174
569.211
575.435
581.769
588.285
594.929
601.753
608.72
615.869
623.175
630.666
638.328
646.179
654.194
662.39
670.79
679.394
688.172
697.141
706.285
715.609
725.099
734.755
744.563
754.518
764.607
774.821
785.147
795.581
806.101
816.71
827.39
838.143
848.949
859.806
870.693
881.605
892.519
903.426
914.297
925.115
935.864
946.576
957.188
967.705
978.083
988.315
998.343
1008.11
1017.6
1026.7
1035.37
1043.49
1050.97
1057.66
1063.42
1068.05
1071.07
1072.44
1072.74
1070.18
1065.29
1057.17
1045.65
1029.89
1009.34
982.988
949.615
907.437
854.451
788.958
712.237
629.224
552.934
496.629
438.461
444.542
447.182
452.451
455.758
460.978
464.757
469.953
474.109
479.325
483.799
489.076
493.834
499.205
504.22
509.711
514.966
520.596
526.083
531.871
537.579
543.532
549.452
555.575
561.698
567.989
574.308
580.771
587.275
593.897
600.568
607.338
614.157
621.059
628.007
635.022
642.075
649.181
656.314
663.483
670.664
677.863
685.066
692.274
699.467
706.648
713.793
720.908
727.967
734.975
741.91
748.773
755.545
762.227
768.792
775.233
781.581
787.778
793.814
799.644
805.257
810.6
815.658
820.376
824.733
828.674
832.169
835.167
837.625
839.493
840.563
841.016
841.074
839.893
838.163
835.29
831.645
826.836
821.081
814.116
806.06
796.744
786.232
774.492
761.574
747.369
732.119
715.636
698.103
679.307
659.251
637.554
614.092
588.135
559.054
527.737
495.232
465.356
444.2
432.554
429.601
435.613
438.191
443.354
446.525
451.604
455.172
460.162
464.02
468.943
473.026
477.909
482.17
487.033
491.436
496.293
500.809
505.666
510.271
515.13
519.8
524.659
529.373
534.226
538.963
543.8
548.542
553.347
558.134
562.963
567.762
572.581
577.354
582.124
586.834
591.516
596.119
600.67
605.123
609.495
613.748
617.893
621.884
625.745
629.419
632.932
636.227
639.327
642.177
644.794
647.128
649.19
650.931
652.36
653.431
654.147
654.516
654.646
654.467
653.74
652.72
651.166
649.244
646.799
643.941
640.571
636.766
632.466
627.727
622.518
616.882
610.835
604.434
597.647
590.581
583.175
575.551
567.648
559.624
551.431
543.152
534.801
526.458
518.129
509.874
501.677
493.442
485.193
476.98
468.698
460.339
451.765
442.925
433.661
424.086
414.701
406.896
403.166
402.12
402.098
401.308
406.151
408.205
412.318
414.759
418.78
421.455
425.352
428.175
431.946
434.862
438.512
441.482
445.016
448.004
451.424
454.4
457.704
460.642
463.822
466.695
469.743
472.529
475.423
478.075
480.776
483.258
485.748
488.078
490.373
492.483
494.517
496.34
498.052
499.533
500.869
501.955
502.869
503.515
503.901
504.062
504.086
503.704
503.166
502.268
501.184
499.757
498.127
496.172
494.009
491.542
488.873
485.928
482.796
479.441
475.947
472.204
468.348
464.3
460.167
455.917
451.616
447.262
442.895
438.52
434.153
429.902
425.722
421.711
417.83
414.162
410.665
407.374
404.283
401.422
398.774
396.359
394.136
392.162
390.367
388.827
387.457
386.311
385.309
384.484
383.756
383.144
382.574
382.049
381.513
380.99
380.478
380.155
380.031
380.505
381.768
384.272
388.866
392.562
393.624
355.572
359.028
360.451
363.244
364.762
367.403
368.932
371.367
372.855
375.059
376.459
378.427
379.702
381.426
382.543
384.012
384.945
386.146
386.867
387.787
388.269
388.858
389.134
389.314
389.363
389.279
388.95
388.554
387.816
386.993
385.841
384.597
383.041
381.39
379.448
377.426
375.142
372.787
370.203
367.563
364.741
361.878
358.864
355.848
352.719
349.622
346.458
343.36
340.237
337.211
334.206
331.308
328.497
325.85
323.332
320.987
318.812
316.843
315.079
313.546
312.247
311.2
310.411
309.935
309.72
309.67
309.964
310.473
311.266
312.272
313.55
315.031
316.765
318.693
320.855
323.196
325.749
328.465
331.357
334.409
337.626
340.97
344.443
348.005
351.652
355.344
359.074
362.801
366.525
370.22
373.902
377.579
381.313
385.159
389.342
394.117
399.728
406.711
412.272
414.54
296.514
297.665
298.087
298.798
299.124
299.579
299.771
299.919
299.947
299.903
299.603
299.35
298.77
298.281
297.433
296.696
295.592
294.601
293.253
292.015
290.436
288.964
287.18
285.497
283.57
281.721
279.674
277.706
275.573
273.538
271.376
269.33
267.2
265.199
263.159
261.255
259.35
257.593
255.879
254.32
252.843
251.53
250.331
249.308
248.426
247.73
247.197
246.897
246.766
246.745
247.054
247.502
248.217
249.057
250.148
251.381
252.853
254.479
256.334
258.351
260.588
262.993
265.614
268.407
271.414
274.605
277.993
281.564
285.335
289.292
293.453
297.807
302.374
307.142
312.13
317.328
322.757
328.407
334.297
340.417
346.785
353.391
360.249
367.347
374.694
382.271
390.079
398.091
406.297
414.667
423.186
431.833
440.612
449.537
458.688
468.297
479.017
490.666
502.346
508.118
238.426
237.221
236.686
235.563
234.846
233.654
232.785
231.524
230.537
229.216
228.134
226.777
225.629
224.259
223.074
221.717
220.527
219.209
218.047
216.795
215.693
214.536
213.526
212.492
211.606
210.718
209.981
209.264
208.699
208.173
207.801
207.492
207.34
207.275
207.27
207.472
207.72
208.156
208.656
209.336
210.099
211.021
212.043
213.211
214.49
215.908
217.444
219.114
220.904
222.827
224.881
227.06
229.371
231.798
234.359
237.034
239.848
242.779
245.85
249.042
252.38
255.843
259.456
263.203
267.106
271.152
275.363
279.727
284.267
288.975
293.871
298.952
304.237
309.726
315.437
321.375
327.559
333.996
340.708
347.703
355.007
362.632
370.607
378.951
387.695
396.864
406.498
416.63
427.313
438.593
450.538
463.217
476.723
491.158
506.641
523.253
541.009
559.499
574.207
580.768
259.492
258.925
258.626
257.978
257.464
256.698
255.981
255.078
254.177
253.128
252.062
250.872
249.674
248.359
247.05
245.646
244.248
242.787
241.334
239.848
238.373
236.895
235.436
234.002
232.596
231.239
229.923
228.678
227.489
226.389
225.361
224.438
223.601
222.883
222.268
221.786
221.42
221.234
221.158
221.156
221.436
221.736
222.279
222.876
223.693
224.587
225.684
226.874
228.253
229.738
231.401
233.178
235.126
237.195
239.438
241.793
244.311
246.948
249.743
252.666
255.743
258.954
262.321
265.828
269.494
273.308
277.285
281.42
285.727
290.202
294.859
299.698
304.73
309.961
315.406
321.068
326.961
333.093
339.479
346.131
353.063
360.292
367.836
375.713
383.944
392.553
401.563
411.004
420.905
431.297
442.222
453.73
465.917
478.853
492.684
507.542
523.535
540.301
554.058
560.284
318.974
320.607
321.241
322.401
322.968
323.937
324.404
325.145
325.494
325.951
326.14
326.235
326.239
326.065
325.726
325.316
324.667
323.999
323.059
322.128
320.915
319.725
318.258
316.821
315.123
313.461
311.57
309.703
307.64
305.613
303.416
301.269
298.982
296.759
294.427
292.173
289.839
287.61
285.334
283.181
281.018
279.013
277.058
275.268
273.57
272.045
270.65
269.441
268.392
267.543
266.878
266.444
266.236
266.171
266.345
266.757
267.341
268.156
269.157
270.383
271.799
273.434
275.26
277.298
279.528
281.967
284.593
287.407
290.401
293.576
296.927
300.454
304.15
308.021
312.06
316.273
320.65
325.198
329.904
334.775
339.779
344.927
350.195
355.59
361.088
366.693
372.381
378.155
384
389.918
395.908
401.976
408.122
414.525
421.318
428.915
437.635
447.901
458.779
464.496
370.024
373.432
374.847
377.622
379.17
381.814
383.405
385.876
387.461
389.748
391.314
393.41
394.914
396.797
398.189
399.851
401.087
402.51
403.554
404.719
405.537
406.425
406.989
407.576
407.867
408.06
408.116
408.043
407.714
407.302
406.637
405.881
404.877
403.778
402.443
401.013
399.278
397.425
395.301
393.058
390.577
387.988
385.197
382.321
379.281
376.182
372.974
369.733
366.434
363.137
359.83
356.563
353.327
350.16
347.056
344.092
341.252
338.579
336.055
333.731
331.592
329.675
327.976
326.519
325.297
324.322
323.573
323.08
322.841
322.76
322.874
323.293
323.83
324.621
325.515
326.618
327.803
329.153
330.56
332.085
333.709
335.442
337.255
339.159
341.127
343.192
345.312
347.526
349.806
352.203
354.712
357.404
360.309
363.501
366.956
371.05
376.182
382.791
387.649
389.436
407.765
412.524
414.544
418.568
420.977
424.89
427.528
431.3
434.074
437.716
440.621
444.179
447.171
450.65
453.688
457.088
460.139
463.454
466.486
469.706
472.69
475.801
478.708
481.694
484.495
487.332
490.004
492.665
495.166
497.625
499.918
502.14
504.186
506.133
507.89
509.52
511.032
512.387
513.569
514.559
515.334
515.866
516.122
516.206
516.038
515.519
514.781
513.708
512.385
510.741
508.83
506.614
504.13
501.36
498.335
495.05
491.531
487.804
483.896
479.827
475.603
471.217
466.713
462.117
457.443
452.727
447.993
443.327
438.708
434.213
429.835
425.635
421.604
417.773
414.089
410.622
407.32
404.24
401.32
398.601
395.977
393.538
391.17
388.938
386.739
384.648
382.555
380.524
378.463
376.447
374.411
372.463
370.589
369.137
368.135
367.76
368.611
372.365
375.497
376.389
424.715
430.495
432.977
437.932
441.001
445.873
449.339
454.133
457.894
462.642
466.639
471.368
475.555
480.288
484.632
489.383
493.856
498.634
503.213
508.02
512.685
517.519
522.25
527.108
531.888
536.759
541.571
546.446
551.274
556.145
560.972
565.82
570.62
575.416
580.154
584.864
589.567
594.23
598.854
603.417
607.911
612.317
616.628
620.825
624.891
628.809
632.568
636.142
639.525
642.688
645.621
648.299
650.708
652.825
654.633
656.108
657.233
657.914
658.219
658.284
657.771
657.057
655.825
654.279
652.214
649.768
646.808
643.431
639.554
635.247
630.46
625.248
619.58
613.535
607.15
600.425
593.376
586.069
578.456
570.635
562.547
554.312
545.845
537.251
528.442
519.442
510.205
500.728
490.834
480.478
469.722
458.391
446.509
433.974
421.527
408.824
398.133
391.542
388.717
387.453
426.547
432.216
434.682
439.587
442.687
447.544
451.095
455.937
459.848
464.716
468.928
473.86
478.339
483.371
488.102
493.26
498.228
503.532
508.726
514.191
519.603
525.237
530.859
536.668
542.494
548.478
554.498
560.656
566.858
573.187
579.565
586.052
592.595
599.234
605.93
612.713
619.554
626.466
633.43
640.453
647.519
654.628
661.773
668.947
676.142
683.352
690.564
697.765
704.941
712.103
719.228
726.312
733.342
740.309
747.203
754.011
760.732
767.337
773.828
780.163
786.33
792.36
798.168
803.768
809.085
814.117
818.796
823.106
826.985
830.409
833.321
835.684
837.441
838.351
838.705
838.632
837.191
835.285
832.08
828.1
822.78
816.409
808.578
799.431
788.653
776.335
762.296
746.378
728.628
708.752
686.689
661.987
634.358
603.272
569.529
532.68
495.587
460.595
435.422
418.794
434.951
439.502
441.525
445.555
448.123
452.123
455.071
459.064
462.317
466.347
469.868
473.975
477.739
481.958
485.959
490.318
494.553
499.079
503.549
508.265
512.978
517.906
522.871
528.032
533.261
538.674
544.178
549.856
555.641
561.595
567.671
573.916
580.3
586.857
593.569
600.464
607.531
614.792
622.224
629.849
637.656
645.658
653.846
662.225
670.784
679.571
688.574
697.816
707.303
716.962
726.834
736.878
747.109
757.502
768.056
778.747
789.58
800.518
811.569
822.702
833.926
845.217
856.579
867.998
879.467
890.967
902.482
913.989
925.453
936.844
948.234
959.536
970.777
981.893
992.888
1003.68
1014.22
1024.46
1034.26
1043.58
1052.22
1060.06
1066.83
1072.33
1075.69
1077.12
1077.28
1072.84
1065.57
1052.91
1035.1
1009.98
976.536
932.266
876.785
807.13
725.02
634.423
553.222
488.49
482.367
485.125
486.457
489.189
491.004
493.774
495.881
498.687
501.018
503.881
506.41
509.355
512.074
515.118
518.012
521.17
524.24
527.528
530.777
534.212
537.646
541.243
544.869
548.643
552.47
556.435
560.472
564.643
568.905
573.292
577.786
582.411
587.155
592.035
597.043
602.193
607.476
612.901
618.513
624.299
630.286
636.475
642.888
649.538
656.447
663.584
670.972
678.605
686.487
694.683
703.177
712.002
721.161
730.672
740.54
750.773
761.399
772.415
783.851
795.714
808.035
820.829
834.133
847.97
862.355
877.311
892.845
908.978
925.716
943.087
961.111
979.505
998.375
1017.64
1037.24
1057.13
1077.23
1097.51
1117.92
1138.43
1159.03
1179.69
1200.37
1221.17
1242.06
1263.01
1283.8
1303.9
1322.81
1339.17
1349.05
1352.81
1348.17
1320.88
1271.28
1196.04
1093.13
963.508
802.412
630.333
666.144
666.082
667.09
667.841
668.999
670.136
671.337
672.67
673.923
675.373
676.698
678.231
679.641
681.245
682.747
684.419
686.018
687.76
689.458
691.275
693.073
694.972
696.872
698.859
700.866
702.949
705.069
707.265
709.516
711.842
714.244
716.729
719.302
721.967
724.734
727.607
730.601
733.726
736.962
740.331
743.834
747.479
751.276
755.228
759.344
763.627
768.088
772.735
777.582
782.641
787.919
793.433
799.192
805.213
811.51
818.108
824.983
832.181
839.702
847.563
855.78
864.35
873.342
882.825
892.785
903.285
914.329
925.981
938.254
951.197
964.595
978.882
993.877
1009.81
1026.62
1044.47
1063.37
1083.45
1104.78
1127.47
1151.62
1177.35
1204.79
1234.14
1265.22
1296.99
1329.46
1361.06
1390.22
1414.64
1428.6
1433.74
1431.5
1415.16
1383.13
1321.92
1233.73
1122.42
997.862
848.979
1603.06
1603.72
1603.64
1603.18
1602.53
1602
1601.12
1600.56
1599.59
1598.98
1597.97
1597.3
1596.28
1595.52
1594.49
1593.64
1592.59
1591.65
1590.57
1589.54
1588.42
1587.31
1586.15
1584.96
1583.75
1582.5
1581.24
1579.94
1578.65
1577.31
1575.97
1574.58
1573.2
1571.76
1570.33
1568.85
1567.35
1565.82
1564.28
1562.69
1561.09
1559.44
1557.77
1556.05
1554.29
1552.45
1550.54
1548.54
1546.43
1544.2
1541.84
1539.33
1536.68
1533.88
1530.93
1527.84
1524.58
1521.04
1517.23
1512.98
1508.28
1502.92
1497.11
1491.05
1484.62
1477.95
1470.89
1463.56
1455.76
1447.6
1438.96
1429.86
1419.99
1409.61
1398.32
1386.32
1373.3
1359.35
1344.25
1328.05
1310.57
1291.84
1271.73
1250.25
1227.24
1202.38
1174.66
1141.91
1103.17
1056.28
996.079
916.758
816.134
705.381
584.542
535.348
556.117
721.958
886.831
939.967
865.883
324.72
176.6
119.702
95.2635
82.3298
76.1285
73.1611
72.1891
74.034
80.9588
97.4718
118.899
156.242
207.127
271.573
349.006
444.082
560.323
610.171
693.159
329.162
219.137
154.329
121.756
104.135
92.9364
87.467
85.5418
87.5402
99.6672
115.602
144.586
184.774
237.986
300
372.438
459.609
544.766
568.435
544.57
318.725
242.263
180.152
147.623
125.458
111.88
105.98
104.313
108.677
120.225
144.153
174.751
218.802
269.569
326.199
390.28
462.703
514.394
522.467
444.608
305.159
256.279
198.157
171.194
146.155
134.087
128.451
126.902
131.267
154.179
177.741
213.991
256.469
302.106
352.306
406.678
455.374
474.159
474.237
388.173
300.411
266.285
214.673
191.991
168.731
159.189
155.462
155.219
175.093
195.485
222.886
257.408
292.866
330.862
370.833
410.077
432.653
426.368
427.686
360.07
300.357
273.824
232.019
214.523
201.042
197.445
197.434
211.713
227.902
247.926
272.69
299.486
326.833
355.904
383.532
398.924
396.767
367.865
383.327
352.306
312.832
296.041
273.004
265.946
263.431
263.073
269.924
279.163
291.202
306.025
322.382
339.263
355.568
369.826
376.633
374.925
343.63
300.615
349.804
386.863
375.207
371.392
361.613
356.855
351.342
349.142
348.614
350.78
355.088
359.39
364.162
366.784
367.787
366.314
357.913
331.034
277.543
232.645
331.169
499.016
483.788
476.404
457.501
448.609
434.269
427.232
417.557
412.368
404.315
397.849
388.687
378.166
365.476
349.203
316.751
268.546
204.223
161.862
324.852
563.317
541.922
532.266
509.206
498.161
479.518
469.235
452.402
440.84
423.929
409.77
390.547
370.48
341.862
302.374
252.055
198.285
143.336
116.317
327.54
544.487
524.329
515.269
493.506
483.115
465.71
456.382
441.405
431.204
416.535
404.02
387.456
369.707
345.129
309.439
259.761
203.673
143.155
113.107
325.958
457.719
446.52
440.879
424.92
417.619
406.654
401.387
395.707
392.902
389.457
385.976
381.292
374.26
364.766
353.379
326.917
279.403
212.211
170.771
324.207
358.976
343.873
338.887
330.927
327.524
324.411
323.567
326.194
331.062
338.586
346.598
354.831
362.49
366.302
367.649
363.228
339.559
286.919
239.331
325.623
336.698
296.818
279.284
254.088
245.694
242.729
242.537
250.912
261.623
275.619
292.948
311.767
331.992
352.118
370.583
379.768
380.962
352.312
307.65
335.399
346.8
288.195
262.298
221.051
203.636
189.134
184.792
184.311
198.108
215.376
236.845
263.162
291.976
321.697
353.803
385.649
403.677
404.793
374.34
370.046
374.528
289.328
256.043
206.271
184.319
161.485
151.831
147.753
147.156
165.202
186.577
214.642
250.473
287.684
327.744
370.175
414.001
438.687
433.717
420.21
429.61
294.015
246.229
190.016
163.839
140.067
128.557
123.208
121.754
125.968
147.126
171.326
207.667
251.241
298.669
350.883
407.718
460.335
480.5
471.551
531.605
308.24
233.701
173.723
141.93
120.383
107.423
101.741
100.163
104.7
116.031
139.023
169.95
213.869
265.789
324.091
390.673
467.078
518.63
522.998
686.661
318.125
211.267
148.264
116.996
99.8635
89.5223
84.427
82.6406
84.6856
96.1652
112.087
140.587
180.784
234.258
297.367
371.276
461.103
548.513
570.81
863.38
313.531
170.704
115.744
92.0822
79.5944
73.2041
70.4987
69.7158
72.077
78.7681
94.3902
116.02
152.749
203.773
268.905
347.715
444.772
563.131
613.203
646.054
32.1745
12.7362
11.3229
11.19
11.171
11.1705
11.1708
11.1706
11.1705
11.1705
11.1706
11.1708
11.1705
11.171
11.19
11.3229
12.7362
32.1744
646.053
672.74
55.0628
17.0386
12.087
11.3039
11.1803
11.1547
11.1529
11.1534
11.1536
11.1536
11.1534
11.1529
11.1547
11.1803
11.3039
12.087
17.0386
55.0628
672.74
698.453
71.0937
21.1542
13.3033
11.5874
11.2261
11.1552
11.1382
11.1358
11.1355
11.1355
11.1358
11.1382
11.1552
11.2261
11.5874
13.3033
21.1542
71.0935
698.453
723.136
85.8503
25.1369
14.6461
12.0431
11.3371
11.1684
11.1265
11.1183
11.1171
11.1171
11.1183
11.1265
11.1684
11.3371
12.0431
14.6461
25.1369
85.8503
723.136
746.743
101.867
29.2065
16.0658
12.5885
11.5234
11.2064
11.1273
11.105
11.1003
11.1003
11.105
11.1273
11.2064
11.5234
12.5885
16.0658
29.2065
101.867
746.743
769.31
118.432
33.3669
17.5406
13.1971
11.7624
11.283
11.1366
11.0944
11.0843
11.0843
11.0944
11.1366
11.283
11.7624
13.1971
17.5406
33.3669
118.433
769.31
790.728
134.968
37.5676
19.0511
13.8502
12.0431
11.3872
11.16
11.0918
11.0718
11.0718
11.0918
11.16
11.3872
12.0431
13.8502
19.0511
37.5677
134.968
790.728
810.982
151.251
41.7801
20.5852
14.5352
12.3571
11.5178
11.2031
11.0955
11.0625
11.0625
11.0955
11.2031
11.5178
12.3571
14.5352
20.5852
41.7802
151.251
810.982
829.955
167.079
45.9691
22.1303
15.2422
12.6968
11.6708
11.2604
11.1065
11.0594
11.0594
11.1065
11.2604
11.6708
12.6968
15.2422
22.1303
45.9692
167.079
829.955
847.653
182.401
50.1209
23.6797
15.9648
13.0568
11.8431
11.3324
11.129
11.0619
11.0619
11.129
11.3324
11.8431
13.0568
15.9648
23.6797
50.121
182.402
847.653
863.991
197.096
54.2105
25.2247
16.6968
13.4321
12.0315
11.4179
11.1609
11.0697
11.0698
11.1609
11.4179
12.0315
13.4321
16.6968
25.2248
54.2106
197.096
863.99
879.013
211.155
58.2321
26.7619
17.4347
13.8193
12.2335
11.5156
11.2021
11.0862
11.0862
11.2021
11.5156
12.2335
13.8193
17.4347
26.7619
58.2323
211.156
879.013
892.663
224.491
62.1651
28.2844
18.1745
14.2149
12.4467
11.6242
11.2528
11.1113
11.1113
11.2528
11.6242
12.4467
14.2149
18.1745
28.2845
62.1653
224.491
892.663
905.026
237.118
66.009
29.7908
18.9141
14.6169
12.6691
11.7427
11.3126
11.1446
11.1446
11.3126
11.7427
12.6691
14.6169
18.9141
29.7908
66.0092
237.119
905.026
916.068
248.971
69.7457
31.2753
19.6506
15.023
12.899
11.8698
11.381
11.1861
11.1861
11.381
11.8698
12.899
15.0231
19.6507
31.2755
69.7459
248.97
916.067
925.904
260.089
73.3781
32.7379
20.383
15.4319
13.1352
12.0048
11.4576
11.2357
11.2357
11.4576
12.0048
13.1352
15.4319
20.383
32.7379
73.3783
260.09
925.904
934.512
270.424
76.8906
34.1733
21.1087
15.8417
13.3762
12.1466
11.5418
11.293
11.293
11.5418
12.1466
13.3762
15.8418
21.1088
34.1734
76.8908
270.423
934.512
942.037
280.035
80.2892
35.5826
21.8277
16.2519
13.6211
12.2944
11.6331
11.3579
11.3579
11.6331
12.2944
13.6211
16.2519
21.8276
35.5825
80.2892
280.036
942.036
948.451
288.886
83.5602
36.9606
22.5374
16.6609
13.8691
12.4475
11.7309
11.4299
11.4299
11.7309
12.4475
13.8691
16.661
22.5375
36.9608
83.5604
288.885
948.45
953.925
297.051
86.7124
38.3098
23.2383
17.0685
14.1194
12.6053
11.8348
11.5085
11.5085
11.8348
12.6053
14.1194
17.0685
23.2383
38.3097
86.7123
297.052
953.924
958.416
304.506
89.734
39.6248
23.9282
17.4734
14.3712
12.7671
11.9442
11.5934
11.5934
11.9442
12.7671
14.3712
17.4735
23.9283
39.6251
89.7342
304.504
958.415
962.12
311.326
92.6356
40.9093
24.608
17.8757
14.6242
12.9325
12.0587
11.684
11.684
12.0587
12.9325
14.6242
17.8757
24.608
40.9092
92.6355
311.327
962.12
964.967
317.506
95.4074
42.1578
25.2754
18.2741
14.8776
13.1009
12.1777
11.78
11.78
12.1777
13.1009
14.8776
18.2742
25.2755
42.1581
95.4078
317.503
964.966
967.18
323.102
98.0618
43.3751
25.9318
18.669
15.1313
13.2719
12.3009
11.8809
11.8809
12.3009
13.2719
15.1313
18.669
25.9318
43.3749
98.0616
323.105
967.179
968.649
328.148
100.59
44.5553
26.5748
19.0592
15.3846
13.445
12.4277
11.9862
11.9862
12.4277
13.445
15.3846
19.0593
26.575
44.5556
100.59
328.144
968.648
969.635
332.653
103.005
45.7045
27.2064
19.4453
15.6374
13.62
12.5579
12.0955
12.0955
12.5579
13.62
15.6374
19.4452
27.2063
45.7042
103.005
332.657
969.634
969.97
336.705
105.299
46.8159
27.8239
19.826
15.8892
13.7964
12.691
12.2085
12.2085
12.691
13.7964
15.8892
19.8261
27.824
46.8163
105.3
336.7
969.969
969.834
340.242
107.488
47.8975
28.4297
20.2021
16.14
13.9741
12.8267
12.3248
12.3248
12.8267
13.9741
16.14
20.2021
28.4296
47.8972
107.488
340.246
969.833
969.425
343.403
109.561
48.9414
29.021
20.5725
16.3892
14.1525
12.9646
12.4441
12.4441
12.9646
14.1525
16.3892
20.5725
29.0212
48.9418
109.561
343.397
969.424
968.579
346.14
111.539
49.9569
29.6008
20.9379
16.637
14.3316
13.1045
12.5659
12.5659
13.1045
14.3316
16.637
20.9379
29.6007
49.9565
111.538
346.144
968.578
967.379
348.534
113.406
50.9352
30.1658
21.2973
16.8828
14.511
13.2461
12.69
12.69
13.2461
14.511
16.8828
21.2973
30.166
50.9357
113.406
348.528
967.378
965.891
350.552
115.188
51.8872
30.7196
21.6515
17.1267
14.6907
13.389
12.8161
12.8161
13.389
14.6907
17.1267
21.6515
30.7194
51.8867
115.187
350.556
965.89
964.155
352.265
116.864
52.8028
31.2587
21.9995
17.3684
14.8702
13.5331
12.944
12.944
13.5331
14.8702
17.3684
21.9995
31.2588
52.8033
116.865
352.259
964.155
962.205
353.658
118.465
53.6944
31.7868
22.3423
17.608
15.0495
13.6782
13.0733
13.0733
13.6782
15.0495
17.608
22.3422
31.7867
53.6937
118.463
353.662
962.203
960.073
354.766
119.965
54.5507
32.3005
22.6787
17.8451
15.2283
13.8239
13.2039
13.2039
13.8239
15.2283
17.8451
22.6787
32.3006
54.5512
119.966
354.761
960.074
957.789
355.615
121.399
55.3853
32.8039
23.0099
18.0798
15.4067
13.9702
13.3355
13.3355
13.9702
15.4067
18.0799
23.0099
32.8037
55.3846
121.397
355.618
957.788
955.381
356.175
122.736
56.186
33.293
23.3347
18.3118
15.5842
14.1168
13.468
13.468
14.1168
15.5842
18.3118
23.3346
33.2931
56.1865
122.737
356.171
955.382
952.87
356.557
124.016
56.9676
33.7724
23.6544
18.5414
15.761
14.2636
13.6011
13.6011
14.2636
15.761
18.5415
23.6544
33.7723
56.9667
124.013
356.559
952.868
950.286
356.613
125.204
57.7167
34.238
23.9676
18.7681
15.9367
14.4103
13.7346
13.7346
14.4103
15.9366
18.768
23.9676
34.2381
57.7173
125.206
356.611
950.287
947.636
356.52
126.342
58.4494
34.6947
24.2759
18.9922
16.1114
14.557
13.8684
13.8684
14.557
16.1114
18.9923
24.276
34.6946
58.4485
126.338
356.519
947.634
944.957
356.291
127.392
59.1511
35.1381
24.5779
19.2134
16.2848
14.7033
14.0024
14.0024
14.7033
16.2848
19.2133
24.5778
35.138
59.1518
127.395
356.29
944.959
942.244
355.82
128.406
59.8395
35.5733
24.8751
19.4319
16.4571
14.8493
14.1364
14.1364
14.8494
16.4572
19.432
24.8753
35.5733
59.8385
128.402
355.826
942.242
939.539
355.244
129.335
60.4986
35.9959
25.1662
19.6474
16.628
14.9948
14.2703
14.2703
14.9947
16.6279
19.6473
25.1659
35.9957
60.4995
129.339
355.236
939.541
936.821
354.505
130.251
61.149
36.4113
25.4527
19.8603
16.7975
15.1397
14.404
14.404
15.1398
16.7976
19.8605
25.453
36.4115
61.1479
130.246
354.511
936.818
934.145
353.722
131.099
61.7743
36.8149
25.7334
20.0701
16.9655
15.2839
14.5373
14.5373
15.2838
16.9653
20.0699
25.7329
36.8145
61.7751
131.104
353.714
934.147
931.466
352.872
131.987
62.3994
37.2125
26.0097
20.2774
17.132
15.4273
14.6702
14.6703
15.4274
17.1321
20.2777
26.0102
37.213
62.3985
131.981
352.877
931.463
928.859
352.024
132.869
63.0126
37.5999
26.2805
20.4816
17.2969
15.5699
14.8026
14.8025
15.5698
17.2967
20.4813
26.2799
37.5991
63.0133
132.875
352.019
928.862
926.333
351.164
133.826
63.6387
37.9833
26.5474
20.6833
17.4603
15.7116
14.9344
14.9344
15.7117
17.4605
20.6837
26.5482
37.9843
63.6383
133.819
351.166
926.33
923.871
350.422
134.84
64.2638
38.3588
26.8093
20.882
17.622
15.8522
15.0654
15.0654
15.8521
17.6217
20.8816
26.8085
38.3576
64.264
134.846
350.42
923.875
921.484
349.753
135.976
64.912
38.7329
27.0679
21.0783
17.7821
15.9919
15.1958
15.1959
15.992
17.7824
21.0789
27.0689
38.7345
64.9124
135.97
349.755
921.481
919.155
349.293
137.189
65.565
39.1016
27.3221
21.2718
17.9404
16.1304
15.3253
15.3252
16.1303
17.9402
21.2712
27.321
39.0999
65.5646
137.196
349.292
919.158
916.897
348.942
138.533
66.246
39.4712
27.5738
21.4631
18.0973
16.2679
15.4541
15.4541
16.2681
18.0977
21.4638
27.5752
39.4735
66.2475
138.527
348.943
916.893
914.693
348.851
139.937
66.9331
39.8374
27.8218
21.6517
18.2523
16.4041
15.5817
15.5816
16.404
18.252
21.651
27.8204
39.8351
66.9318
139.944
348.853
914.696
912.56
348.916
141.463
67.6495
40.2064
28.0679
21.8384
18.4059
16.5394
15.7086
15.7087
16.5396
18.4064
21.8394
28.0699
40.2097
67.6525
141.459
348.918
912.554
910.479
349.098
143.022
68.3711
40.5735
28.3111
22.0226
18.5577
16.6731
15.8342
15.8342
16.6729
18.5573
22.0217
28.3094
40.5705
68.3689
143.029
349.101
910.482
908.471
349.471
144.676
69.1203
40.9447
28.5532
22.2052
18.7081
16.806
15.9592
15.9593
16.8063
18.7088
22.2066
28.5558
40.9492
69.1254
144.675
349.481
908.463
906.512
349.99
146.342
69.873
41.315
28.793
22.3855
18.8567
16.9373
16.0827
16.0826
16.937
18.8562
22.3844
28.7908
41.3113
69.87
146.347
349.989
906.516
904.629
350.63
148.077
70.651
41.6902
29.0321
22.5644
19.0041
17.0677
16.2056
16.2058
17.0682
19.0051
22.5663
29.0357
41.6964
70.659
148.081
350.645
904.62
902.794
351.376
149.806
71.4301
42.065
29.2695
22.7414
19.1497
17.1965
16.3268
16.3268
17.1962
19.1491
22.74
29.2669
42.0607
71.4265
149.811
351.379
902.796
901.035
352.209
151.58
72.2317
42.4452
29.5067
22.9171
19.2942
17.3245
16.4477
16.4479
17.3252
19.2956
22.9198
29.5117
42.4537
72.2435
151.592
352.231
901.021
899.321
353.116
153.335
73.0313
42.8251
29.7426
23.0911
19.437
17.4508
16.5666
16.5665
17.4504
19.4362
23.0895
29.7397
42.8206
73.0281
153.339
353.127
899.32
897.684
354.081
155.115
73.8509
43.2104
29.9786
23.264
19.5787
17.5764
16.6853
16.6856
17.5774
19.5808
23.2679
29.9856
43.2223
73.8685
155.138
354.116
897.665
896.089
355.096
156.864
74.6654
43.5954
30.2137
23.4356
19.7188
17.7001
16.8017
16.8017
17.6998
19.7181
23.434
30.2107
43.5913
74.6644
156.873
355.121
896.082
894.571
356.143
158.624
75.4974
43.9856
30.4488
23.6061
19.858
17.8234
16.9184
16.9188
17.8249
19.861
23.6117
30.4589
44.0027
75.5237
158.662
356.199
894.542
893.092
357.219
160.343
76.3209
44.3755
30.6836
23.7754
19.9955
17.9447
17.0324
17.0324
17.9445
19.995