/*--------------------------------*- C++ -*----------------------------------*\
| =========                 |                                                 |
| \\      /  F ield         | OpenFOAM: The Open Source CFD Toolbox           |
|  \\    /   O peration     | Version:  2.1.0                                 |
|   \\  /    A nd           | Web:      www.OpenFOAM.org                      |
|    \\/     M anipulation  |                                                 |
\*---------------------------------------------------------------------------*/
FoamFile
{
    version     2.0;
    format      ascii;
    class       surfaceScalarField;
    location    "0.47";
    object      phi;
}
// * * * * * * * * * * * * * * * * * * * * * * * * * * * * * * * * * * * * * //

dimensions      [0 3 -1 0 0 0 0];

internalField   nonuniform List<scalar> 
12460
(
-2.60141e-05
-3.48066e-09
-2.59761e-05
-3.93721e-08
-2.59151e-05
-6.22924e-08
-2.58424e-05
-7.39512e-08
-2.57629e-05
-8.08373e-08
-2.56786e-05
-8.54578e-08
-2.5591e-05
-8.87893e-08
-2.55008e-05
-9.14098e-08
-2.54083e-05
-9.36241e-08
-2.53138e-05
-9.56234e-08
-2.52173e-05
-9.75095e-08
-2.5119e-05
-9.93471e-08
-2.50188e-05
-1.01173e-07
-2.49167e-05
-1.03003e-07
-2.48128e-05
-1.04857e-07
-2.4707e-05
-1.06734e-07
-2.45992e-05
-1.08646e-07
-2.44894e-05
-1.10587e-07
-2.43777e-05
-1.12566e-07
-2.42639e-05
-1.14573e-07
-2.4148e-05
-1.16616e-07
-2.403e-05
-1.18681e-07
-2.39099e-05
-1.20786e-07
-2.37876e-05
-1.22933e-07
-2.36632e-05
-1.25088e-07
-2.35365e-05
-1.27287e-07
-2.34074e-05
-1.2962e-07
-2.32759e-05
-1.32046e-07
-2.31419e-05
-1.34552e-07
-2.30053e-05
-1.37128e-07
-2.28659e-05
-1.39788e-07
-2.27239e-05
-1.4253e-07
-2.25789e-05
-1.45369e-07
-2.2431e-05
-1.48307e-07
-2.228e-05
-1.51354e-07
-2.21259e-05
-1.54509e-07
-2.19684e-05
-1.57782e-07
-2.18076e-05
-1.61177e-07
-2.16432e-05
-1.64705e-07
-2.14751e-05
-1.68378e-07
-2.13031e-05
-1.72222e-07
-2.11271e-05
-1.76233e-07
-2.09469e-05
-1.80417e-07
-2.07623e-05
-1.84787e-07
-2.05732e-05
-1.89344e-07
-2.03793e-05
-1.94091e-07
-2.01804e-05
-1.9903e-07
-1.99764e-05
-2.04156e-07
-1.97671e-05
-2.09459e-07
-1.95523e-05
-2.14948e-07
-1.93318e-05
-2.20585e-07
-1.91057e-05
-2.26228e-07
-1.88736e-05
-2.32183e-07
-1.8635e-05
-2.3865e-07
-1.83896e-05
-2.45468e-07
-1.81372e-05
-2.52519e-07
-1.78778e-05
-2.59416e-07
-1.76119e-05
-2.66004e-07
-1.73395e-05
-2.72454e-07
-1.70605e-05
-2.78975e-07
-1.67749e-05
-2.85641e-07
-1.64825e-05
-2.9246e-07
-1.6183e-05
-2.99487e-07
-1.58763e-05
-3.06781e-07
-1.55619e-05
-3.14354e-07
-1.52397e-05
-3.22251e-07
-1.49092e-05
-3.30498e-07
-1.457e-05
-3.39155e-07
-1.42218e-05
-3.48261e-07
-1.38639e-05
-3.57846e-07
-1.3496e-05
-3.67938e-07
-1.31174e-05
-3.78587e-07
-1.27275e-05
-3.8983e-07
-1.23258e-05
-4.01734e-07
-1.19114e-05
-4.14373e-07
-1.14835e-05
-4.27841e-07
-1.10412e-05
-4.42264e-07
-1.05834e-05
-4.57798e-07
-1.01087e-05
-4.74665e-07
-9.61545e-06
-4.93197e-07
-9.1016e-06
-5.13806e-07
-8.56456e-06
-5.37001e-07
-8.00108e-06
-5.63439e-07
-7.40719e-06
-5.93851e-07
-6.77833e-06
-6.28808e-07
-6.10977e-06
-6.68508e-07
-5.39713e-06
-7.12577e-07
-4.63768e-06
-7.59383e-07
-3.83273e-06
-8.04869e-07
-2.99237e-06
-8.40265e-07
-2.14453e-06
-8.47723e-07
-1.35223e-06
-7.92171e-07
-7.18593e-07
-6.33497e-07
-3.45461e-07
-3.73063e-07
-2.74448e-07
-7.12027e-08
-5.29397e-07
2.54564e-07
-1.42277e-06
8.93106e-07
-3.71653e-06
2.29374e-06
-9.28766e-06
5.57112e-06
1.54964e-05
-2.4784e-05
-3.13302e-05
-2.21927e-08
-3.12797e-05
-9.17552e-08
-3.12145e-05
-1.29352e-07
-3.11404e-05
-1.49881e-07
-3.10606e-05
-1.6246e-07
-3.09769e-05
-1.70954e-07
-3.08903e-05
-1.77089e-07
-3.08015e-05
-1.81906e-07
-3.07108e-05
-1.85976e-07
-3.06184e-05
-1.89642e-07
-3.05244e-05
-1.93105e-07
-3.04288e-05
-1.96474e-07
-3.03316e-05
-1.99829e-07
-3.02329e-05
-2.03195e-07
-3.01326e-05
-2.06612e-07
-3.00306e-05
-2.10079e-07
-2.9927e-05
-2.1362e-07
-2.98216e-05
-2.17223e-07
-2.97146e-05
-2.20906e-07
-2.96057e-05
-2.24653e-07
-2.9495e-05
-2.28477e-07
-2.93825e-05
-2.32349e-07
-2.92681e-05
-2.36281e-07
-2.91518e-05
-2.40299e-07
-2.90337e-05
-2.44288e-07
-2.89137e-05
-2.48282e-07
-2.87918e-05
-2.52492e-07
-2.86679e-05
-2.56829e-07
-2.85421e-05
-2.61267e-07
-2.84143e-05
-2.6581e-07
-2.82844e-05
-2.70475e-07
-2.81524e-05
-2.7527e-07
-2.80183e-05
-2.8021e-07
-2.78821e-05
-2.85304e-07
-2.77435e-05
-2.90566e-07
-2.76027e-05
-2.95999e-07
-2.74595e-05
-3.01618e-07
-2.73138e-05
-3.07436e-07
-2.71656e-05
-3.13467e-07
-2.70148e-05
-3.19704e-07
-2.68613e-05
-3.26192e-07
-2.67051e-05
-3.3294e-07
-2.6546e-05
-3.3996e-07
-2.63839e-05
-3.47273e-07
-2.62187e-05
-3.54891e-07
-2.60504e-05
-3.62829e-07
-2.58786e-05
-3.711e-07
-2.57034e-05
-3.79717e-07
-2.55245e-05
-3.88678e-07
-2.53417e-05
-3.98009e-07
-2.51549e-05
-4.07693e-07
-2.49639e-05
-4.17473e-07
-2.4769e-05
-4.27293e-07
-2.45706e-05
-4.37232e-07
-2.4369e-05
-4.47294e-07
-2.41642e-05
-4.57509e-07
-2.3956e-05
-4.67794e-07
-2.37442e-05
-4.77966e-07
-2.35287e-05
-4.88036e-07
-2.33096e-05
-4.98189e-07
-2.30869e-05
-5.08529e-07
-2.28604e-05
-5.19098e-07
-2.263e-05
-5.29933e-07
-2.23959e-05
-5.41077e-07
-2.21577e-05
-5.52559e-07
-2.19157e-05
-5.64433e-07
-2.16695e-05
-5.76744e-07
-2.14192e-05
-5.89563e-07
-2.11646e-05
-6.0296e-07
-2.09055e-05
-6.17015e-07
-2.06417e-05
-6.31799e-07
-2.0373e-05
-6.47421e-07
-2.00989e-05
-6.63974e-07
-1.98191e-05
-6.81607e-07
-1.95331e-05
-7.00487e-07
-1.92402e-05
-7.20814e-07
-1.89397e-05
-7.42842e-07
-1.86308e-05
-7.66859e-07
-1.83123e-05
-7.93241e-07
-1.79831e-05
-8.22521e-07
-1.76417e-05
-8.5532e-07
-1.72865e-05
-8.92334e-07
-1.69156e-05
-9.34398e-07
-1.65272e-05
-9.82419e-07
-1.6119e-05
-1.03711e-06
-1.5689e-05
-1.09867e-06
-1.52355e-05
-1.16623e-06
-1.47582e-05
-1.23694e-06
-1.4259e-05
-1.30433e-06
-1.3744e-05
-1.35556e-06
-1.32255e-05
-1.36661e-06
-1.27217e-05
-1.2964e-06
-1.22685e-05
-1.0874e-06
-1.19462e-05
-6.96248e-07
-1.20167e-05
-1.52966e-09
-1.25613e-05
7.98724e-07
-1.39386e-05
2.27009e-06
-1.66707e-05
5.02584e-06
-2.17975e-05
1.06979e-05
2.65671e-05
-3.28682e-05
-3.43056e-05
-4.86724e-08
-3.42621e-05
-1.37578e-07
-3.42069e-05
-1.86955e-07
-3.41442e-05
-2.14877e-07
-3.40768e-05
-2.32152e-07
-3.40063e-05
-2.43791e-07
-3.39335e-05
-2.52106e-07
-3.3859e-05
-2.58599e-07
-3.37831e-05
-2.64007e-07
-3.3706e-05
-2.68862e-07
-3.36278e-05
-2.73398e-07
-3.35484e-05
-2.7781e-07
-3.34681e-05
-2.82174e-07
-3.33867e-05
-2.86563e-07
-3.33042e-05
-2.91005e-07
-3.32206e-05
-2.95527e-07
-3.31359e-05
-3.00145e-07
-3.305e-05
-3.04866e-07
-3.2963e-05
-3.09702e-07
-3.28747e-05
-3.14657e-07
-3.2785e-05
-3.19743e-07
-3.26941e-05
-3.24948e-07
-3.26016e-05
-3.30283e-07
-3.25077e-05
-3.35792e-07
-3.2412e-05
-3.41388e-07
-3.23148e-05
-3.46951e-07
-3.22162e-05
-3.52523e-07
-3.21163e-05
-3.58101e-07
-3.20151e-05
-3.63735e-07
-3.19127e-05
-3.69462e-07
-3.18091e-05
-3.75308e-07
-3.17043e-05
-3.81286e-07
-3.15982e-05
-3.87409e-07
-3.14909e-05
-3.93688e-07
-3.13824e-05
-4.00133e-07
-3.12727e-05
-4.06748e-07
-3.11617e-05
-4.13537e-07
-3.10495e-05
-4.20519e-07
-3.09362e-05
-4.27718e-07
-3.08216e-05
-4.35096e-07
-3.07059e-05
-4.42697e-07
-3.05891e-05
-4.50533e-07
-3.04712e-05
-4.58605e-07
-3.03522e-05
-4.66934e-07
-3.02322e-05
-4.75524e-07
-3.01113e-05
-4.84385e-07
-2.99894e-05
-4.93527e-07
-2.98667e-05
-5.02955e-07
-2.97433e-05
-5.12664e-07
-2.96191e-05
-5.22637e-07
-2.94945e-05
-5.32817e-07
-2.93693e-05
-5.43135e-07
-2.92435e-05
-5.53462e-07
-2.91175e-05
-5.63636e-07
-2.89914e-05
-5.73672e-07
-2.88657e-05
-5.83641e-07
-2.874e-05
-5.93719e-07
-2.86145e-05
-6.0384e-07
-2.84889e-05
-6.13851e-07
-2.83636e-05
-6.23812e-07
-2.82386e-05
-6.33771e-07
-2.81141e-05
-6.43771e-07
-2.79905e-05
-6.53826e-07
-2.78678e-05
-6.63933e-07
-2.77465e-05
-6.74107e-07
-2.76267e-05
-6.84366e-07
-2.75089e-05
-6.94733e-07
-2.73935e-05
-7.05234e-07
-2.72807e-05
-7.15913e-07
-2.7171e-05
-7.26836e-07
-2.70649e-05
-7.38074e-07
-2.69628e-05
-7.49733e-07
-2.6865e-05
-7.61906e-07
-2.67721e-05
-7.74767e-07
-2.66842e-05
-7.88534e-07
-2.66017e-05
-8.03463e-07
-2.65248e-05
-8.19902e-07
-2.64536e-05
-8.38249e-07
-2.63881e-05
-8.58988e-07
-2.6328e-05
-8.82828e-07
-2.62729e-05
-9.10589e-07
-2.62223e-05
-9.43111e-07
-2.61756e-05
-9.81339e-07
-2.6132e-05
-1.02622e-06
-2.60909e-05
-1.0785e-06
-2.60515e-05
-1.13834e-06
-2.60134e-05
-1.20455e-06
-2.59772e-05
-1.27343e-06
-2.59447e-05
-1.3371e-06
-2.59199e-05
-1.38062e-06
-2.59089e-05
-1.37785e-06
-2.59194e-05
-1.28619e-06
-2.59631e-05
-1.0439e-06
-2.60842e-05
-5.75267e-07
-2.62711e-05
1.85336e-07
-2.67856e-05
1.31318e-06
-2.78169e-05
3.30137e-06
-2.97474e-05
6.95626e-06
-3.32995e-05
1.425e-05
3.1196e-05
-3.79285e-05
-3.69906e-05
-7.49727e-08
-3.69594e-05
-1.71538e-07
-3.69212e-05
-2.28086e-07
-3.68775e-05
-2.61449e-07
-3.68302e-05
-2.82301e-07
-3.67806e-05
-2.962e-07
-3.67296e-05
-3.05966e-07
-3.66775e-05
-3.13444e-07
-3.66247e-05
-3.19532e-07
-3.65713e-05
-3.24905e-07
-3.65176e-05
-3.29834e-07
-3.64634e-05
-3.34582e-07
-3.64089e-05
-3.39223e-07
-3.63542e-05
-3.43867e-07
-3.62991e-05
-3.48529e-07
-3.62439e-05
-3.53261e-07
-3.61884e-05
-3.58063e-07
-3.61326e-05
-3.6296e-07
-3.60767e-05
-3.67951e-07
-3.60206e-05
-3.73052e-07
-3.59643e-05
-3.78273e-07
-3.59079e-05
-3.83602e-07
-3.58513e-05
-3.89043e-07
-3.57946e-05
-3.94559e-07
-3.57379e-05
-4.00192e-07
-3.56809e-05
-4.0592e-07
-3.56238e-05
-4.11597e-07
-3.55666e-05
-4.1721e-07
-3.55094e-05
-4.22817e-07
-3.54523e-05
-4.28466e-07
-3.53952e-05
-4.34183e-07
-3.53382e-05
-4.39979e-07
-3.52815e-05
-4.45864e-07
-3.5225e-05
-4.51842e-07
-3.51688e-05
-4.57917e-07
-3.5113e-05
-4.64084e-07
-3.50577e-05
-4.70338e-07
-3.5003e-05
-4.76679e-07
-3.49489e-05
-4.83128e-07
-3.48957e-05
-4.89664e-07
-3.48434e-05
-4.96301e-07
-3.47922e-05
-5.03024e-07
-3.47421e-05
-5.09825e-07
-3.46935e-05
-5.16708e-07
-3.46465e-05
-5.23661e-07
-3.46013e-05
-5.3067e-07
-3.45581e-05
-5.37725e-07
-3.45172e-05
-5.44805e-07
-3.44789e-05
-5.51883e-07
-3.44435e-05
-5.58913e-07
-3.44113e-05
-5.65801e-07
-3.43826e-05
-5.72619e-07
-3.43572e-05
-5.79584e-07
-3.4335e-05
-5.86574e-07
-3.43159e-05
-5.93392e-07
-3.43002e-05
-6.00022e-07
-3.4288e-05
-6.06503e-07
-3.42796e-05
-6.12756e-07
-3.42753e-05
-6.1867e-07
-3.42754e-05
-6.2426e-07
-3.42801e-05
-6.29529e-07
-3.42898e-05
-6.34478e-07
-3.43049e-05
-6.39139e-07
-3.43257e-05
-6.43519e-07
-3.43525e-05
-6.47626e-07
-3.43858e-05
-6.5148e-07
-3.44257e-05
-6.55109e-07
-3.44727e-05
-6.58555e-07
-3.4527e-05
-6.61886e-07
-3.45889e-05
-6.65198e-07
-3.46586e-05
-6.68604e-07
-3.47363e-05
-6.72274e-07
-3.4822e-05
-6.76399e-07
-3.49157e-05
-6.81241e-07
-3.50173e-05
-6.87131e-07
-3.51265e-05
-6.94468e-07
-3.52428e-05
-7.03751e-07
-3.53657e-05
-7.1556e-07
-3.54944e-05
-7.30477e-07
-3.56279e-05
-7.49386e-07
-3.57654e-05
-7.73296e-07
-3.59055e-05
-8.03111e-07
-3.60471e-05
-8.398e-07
-3.61892e-05
-8.84258e-07
-3.63307e-05
-9.37061e-07
-3.64711e-05
-9.98054e-07
-3.66101e-05
-1.06557e-06
-3.67484e-05
-1.1352e-06
-3.68874e-05
-1.19819e-06
-3.70291e-05
-1.23892e-06
-3.71755e-05
-1.23149e-06
-3.73259e-05
-1.13591e-06
-3.74796e-05
-8.9013e-07
-3.76346e-05
-4.20288e-07
-3.77982e-05
3.48865e-07
-3.81016e-05
1.6166e-06
-3.86647e-05
3.86451e-06
-3.96598e-05
7.95137e-06
-4.12707e-05
1.58609e-05
3.12609e-05
-4.13356e-05
-3.96931e-05
-9.44167e-08
-3.96796e-05
-1.88404e-07
-3.96649e-05
-2.46195e-07
-3.96482e-05
-2.81554e-07
-3.963e-05
-3.03902e-07
-3.96111e-05
-3.18517e-07
-3.95919e-05
-3.28585e-07
-3.95727e-05
-3.3599e-07
-3.95538e-05
-3.4183e-07
-3.95352e-05
-3.46773e-07
-3.95171e-05
-3.51189e-07
-3.94997e-05
-3.55315e-07
-3.94828e-05
-3.59276e-07
-3.94668e-05
-3.63156e-07
-3.94514e-05
-3.66998e-07
-3.9437e-05
-3.7083e-07
-3.94235e-05
-3.74666e-07
-3.9411e-05
-3.78511e-07
-3.93996e-05
-3.8237e-07
-3.93894e-05
-3.86241e-07
-3.93805e-05
-3.90142e-07
-3.9373e-05
-3.9404e-07
-3.9367e-05
-3.97899e-07
-3.93627e-05
-4.01693e-07
-3.93602e-05
-4.05494e-07
-3.93595e-05
-4.09429e-07
-3.93603e-05
-4.13465e-07
-3.93627e-05
-4.17472e-07
-3.93668e-05
-4.21427e-07
-3.93725e-05
-4.25348e-07
-3.938e-05
-4.29251e-07
-3.93893e-05
-4.3314e-07
-3.94006e-05
-4.37021e-07
-3.9414e-05
-4.40892e-07
-3.94296e-05
-4.44751e-07
-3.94474e-05
-4.48584e-07
-3.94676e-05
-4.52389e-07
-3.94904e-05
-4.56164e-07
-3.95158e-05
-4.59898e-07
-3.95441e-05
-4.63588e-07
-3.95752e-05
-4.6725e-07
-3.96094e-05
-4.70851e-07
-3.96469e-05
-4.74388e-07
-3.96876e-05
-4.77861e-07
-3.97319e-05
-4.81262e-07
-3.97799e-05
-4.84577e-07
-3.98316e-05
-4.87802e-07
-3.98872e-05
-4.90925e-07
-3.99468e-05
-4.93932e-07
-4.00105e-05
-4.968e-07
-4.00783e-05
-4.99497e-07
-4.01504e-05
-5.0207e-07
-4.02267e-05
-5.0464e-07
-4.03075e-05
-5.07144e-07
-4.03928e-05
-5.09483e-07
-4.04824e-05
-5.11609e-07
-4.05766e-05
-5.13481e-07
-4.06755e-05
-5.15032e-07
-4.0779e-05
-5.16202e-07
-4.08873e-05
-5.17018e-07
-4.10002e-05
-5.1751e-07
-4.11179e-05
-5.17718e-07
-4.12402e-05
-5.17681e-07
-4.13671e-05
-5.17432e-07
-4.14984e-05
-5.17016e-07
-4.16341e-05
-5.16471e-07
-4.1774e-05
-5.15852e-07
-4.19179e-05
-5.15225e-07
-4.20656e-05
-5.14678e-07
-4.2217e-05
-5.14321e-07
-4.23717e-05
-5.14288e-07
-4.25296e-05
-5.14752e-07
-4.26905e-05
-5.15919e-07
-4.2854e-05
-5.1806e-07
-4.30199e-05
-5.2151e-07
-4.3188e-05
-5.26671e-07
-4.33579e-05
-5.34026e-07
-4.35294e-05
-5.44241e-07
-4.37023e-05
-5.57771e-07
-4.38763e-05
-5.7551e-07
-4.40511e-05
-5.98609e-07
-4.42265e-05
-6.27865e-07
-4.44022e-05
-6.64192e-07
-4.45781e-05
-7.08398e-07
-4.47544e-05
-7.60911e-07
-4.4931e-05
-8.21451e-07
-4.51084e-05
-8.88256e-07
-4.52868e-05
-9.56795e-07
-4.54667e-05
-1.01835e-06
-4.56475e-05
-1.05811e-06
-4.58267e-05
-1.05229e-06
-4.59973e-05
-9.65377e-07
-4.61442e-05
-7.43187e-07
-4.6248e-05
-3.16546e-07
-4.63125e-05
4.13458e-07
-4.63758e-05
1.67986e-06
-4.64538e-05
3.94249e-06
-4.65463e-05
8.04386e-06
-4.6329e-05
1.56437e-05
2.84361e-05
-4.35041e-05
-4.25487e-05
-1.00272e-07
-4.25575e-05
-1.8337e-07
-4.25718e-05
-2.35728e-07
-4.25887e-05
-2.68485e-07
-4.26073e-05
-2.89187e-07
-4.26273e-05
-3.02372e-07
-4.26487e-05
-3.11111e-07
-4.26714e-05
-3.17129e-07
-4.26955e-05
-3.2156e-07
-4.27211e-05
-3.25013e-07
-4.27483e-05
-3.27895e-07
-4.2777e-05
-3.30404e-07
-4.28074e-05
-3.32697e-07
-4.28395e-05
-3.3483e-07
-4.28734e-05
-3.36866e-07
-4.29092e-05
-3.38813e-07
-4.29469e-05
-3.40696e-07
-4.29867e-05
-3.42507e-07
-4.30285e-05
-3.44257e-07
-4.30725e-05
-3.45937e-07
-4.31188e-05
-3.47579e-07
-4.31673e-05
-3.49169e-07
-4.32183e-05
-3.50581e-07
-4.32718e-05
-3.51892e-07
-4.33277e-05
-3.53239e-07
-4.33861e-05
-3.54628e-07
-4.34471e-05
-3.56039e-07
-4.35108e-05
-3.5739e-07
-4.35771e-05
-3.58659e-07
-4.36461e-05
-3.59849e-07
-4.37179e-05
-3.60976e-07
-4.37926e-05
-3.62042e-07
-4.387e-05
-3.63062e-07
-4.39503e-05
-3.64035e-07
-4.40336e-05
-3.64965e-07
-4.41197e-05
-3.65841e-07
-4.42089e-05
-3.6667e-07
-4.4301e-05
-3.67462e-07
-4.4396e-05
-3.68208e-07
-4.4494e-05
-3.68896e-07
-4.4595e-05
-3.6956e-07
-4.4699e-05
-3.70191e-07
-4.48058e-05
-3.70786e-07
-4.49155e-05
-3.71353e-07
-4.50281e-05
-3.71895e-07
-4.51434e-05
-3.72411e-07
-4.52614e-05
-3.72898e-07
-4.5382e-05
-3.73359e-07
-4.55052e-05
-3.7379e-07
-4.56308e-05
-3.74174e-07
-4.57587e-05
-3.74508e-07
-4.58888e-05
-3.7482e-07
-4.6021e-05
-3.75184e-07
-4.61554e-05
-3.75573e-07
-4.62916e-05
-3.75971e-07
-4.64294e-05
-3.76338e-07
-4.65689e-05
-3.76578e-07
-4.67098e-05
-3.76586e-07
-4.68521e-05
-3.76316e-07
-4.69956e-05
-3.75796e-07
-4.71403e-05
-3.75061e-07
-4.7286e-05
-3.7415e-07
-4.74327e-05
-3.73086e-07
-4.75802e-05
-3.71889e-07
-4.77285e-05
-3.70605e-07
-4.78776e-05
-3.69244e-07
-4.80273e-05
-3.6785e-07
-4.81777e-05
-3.66483e-07
-4.83287e-05
-3.65209e-07
-4.84803e-05
-3.64123e-07
-4.86326e-05
-3.63353e-07
-4.87856e-05
-3.63048e-07
-4.89393e-05
-3.63398e-07
-4.90938e-05
-3.64666e-07
-4.92492e-05
-3.67195e-07
-4.94054e-05
-3.71381e-07
-4.95626e-05
-3.77695e-07
-4.97209e-05
-3.86792e-07
-4.98802e-05
-3.99168e-07
-5.00409e-05
-4.15495e-07
-5.02033e-05
-4.36788e-07
-5.03677e-05
-4.64001e-07
-5.05344e-05
-4.98062e-07
-5.07034e-05
-5.39735e-07
-5.08754e-05
-5.89381e-07
-5.10504e-05
-6.46706e-07
-5.12288e-05
-7.1014e-07
-5.14104e-05
-7.75452e-07
-5.15944e-05
-8.34526e-07
-5.17785e-05
-8.74231e-07
-5.19568e-05
-8.74132e-07
-5.21178e-05
-8.0443e-07
-5.22376e-05
-6.23464e-07
-5.22883e-05
-2.65941e-07
-5.22522e-05
3.77379e-07
-5.20994e-05
1.52702e-06
-5.17494e-05
3.5925e-06
-5.10319e-05
7.32636e-06
-4.93306e-05
1.39423e-05
2.38452e-05
-4.47398e-05
-4.5496e-05
-9.07635e-08
-4.55287e-05
-1.54604e-07
-4.55725e-05
-1.96024e-07
-4.56226e-05
-2.22382e-07
-4.56771e-05
-2.38808e-07
-4.57347e-05
-2.48826e-07
-4.57949e-05
-2.55009e-07
-4.58573e-05
-2.58777e-07
-4.59219e-05
-2.61124e-07
-4.59884e-05
-2.62581e-07
-4.60568e-05
-2.63503e-07
-4.61272e-05
-2.64069e-07
-4.61996e-05
-2.64422e-07
-4.62739e-05
-2.64615e-07
-4.63501e-05
-2.64712e-07
-4.64283e-05
-2.6472e-07
-4.65085e-05
-2.64671e-07
-4.65906e-05
-2.64556e-07
-4.66746e-05
-2.64397e-07
-4.67605e-05
-2.64185e-07
-4.68484e-05
-2.63957e-07
-4.69381e-05
-2.63705e-07
-4.70296e-05
-2.63293e-07
-4.71231e-05
-2.62674e-07
-4.72187e-05
-2.61964e-07
-4.73164e-05
-2.6122e-07
-4.74163e-05
-2.60474e-07
-4.75183e-05
-2.5969e-07
-4.76225e-05
-2.5886e-07
-4.77287e-05
-2.57986e-07
-4.78369e-05
-2.57095e-07
-4.79472e-05
-2.56191e-07
-4.80593e-05
-2.55305e-07
-4.81733e-05
-2.54437e-07
-4.82891e-05
-2.53608e-07
-4.84066e-05
-2.52805e-07
-4.85257e-05
-2.52056e-07
-4.86463e-05
-2.51348e-07
-4.87683e-05
-2.50711e-07
-4.88916e-05
-2.50133e-07
-4.90161e-05
-2.49636e-07
-4.91417e-05
-2.49219e-07
-4.92682e-05
-2.48885e-07
-4.93956e-05
-2.48637e-07
-4.95237e-05
-2.4848e-07
-4.96524e-05
-2.48408e-07
-4.97816e-05
-2.48415e-07
-4.99112e-05
-2.48493e-07
-5.00412e-05
-2.48652e-07
-5.01713e-05
-2.48853e-07
-5.03015e-05
-2.49111e-07
-5.04317e-05
-2.4941e-07
-5.0562e-05
-2.49804e-07
-5.06922e-05
-2.50268e-07
-5.08222e-05
-2.5082e-07
-5.0952e-05
-2.51441e-07
-5.10815e-05
-2.51971e-07
-5.12107e-05
-2.52246e-07
-5.13397e-05
-2.52202e-07
-5.14685e-05
-2.51875e-07
-5.15971e-05
-2.51298e-07
-5.17255e-05
-2.50498e-07
-5.18539e-05
-2.49483e-07
-5.19823e-05
-2.48252e-07
-5.21107e-05
-2.46836e-07
-5.22394e-05
-2.4524e-07
-5.23683e-05
-2.43486e-07
-5.24976e-05
-2.41618e-07
-5.26276e-05
-2.39691e-07
-5.27582e-05
-2.37789e-07
-5.28897e-05
-2.36021e-07
-5.30224e-05
-2.34525e-07
-5.31563e-05
-2.33485e-07
-5.32917e-05
-2.33138e-07
-5.34289e-05
-2.33831e-07
-5.3568e-05
-2.35951e-07
-5.37092e-05
-2.39957e-07
-5.38531e-05
-2.46315e-07
-5.39998e-05
-2.55736e-07
-5.41493e-05
-2.69077e-07
-5.43019e-05
-2.8713e-07
-5.4458e-05
-3.10725e-07
-5.4618e-05
-3.40717e-07
-5.47824e-05
-3.77852e-07
-5.49517e-05
-4.22464e-07
-5.51263e-05
-4.74306e-07
-5.53061e-05
-5.32319e-07
-5.54904e-05
-5.92983e-07
-5.56776e-05
-6.49093e-07
-5.58634e-05
-6.89887e-07
-5.60397e-05
-6.9917e-07
-5.61917e-05
-6.53644e-07
-5.62909e-05
-5.25133e-07
-5.63003e-05
-2.5725e-07
-5.61758e-05
2.52331e-07
-5.58375e-05
1.18821e-06
-5.51231e-05
2.87752e-06
-5.37231e-05
5.92564e-06
-5.09133e-05
1.11315e-05
1.82298e-05
-4.52991e-05
-4.81683e-05
-6.87887e-08
-4.82178e-05
-1.08848e-07
-4.82809e-05
-1.3684e-07
-4.83524e-05
-1.54691e-07
-4.84294e-05
-1.65526e-07
-4.85103e-05
-1.71765e-07
-4.85938e-05
-1.75191e-07
-4.86795e-05
-1.76854e-07
-4.87669e-05
-1.77448e-07
-4.88558e-05
-1.77375e-07
-4.89461e-05
-1.76898e-07
-4.90377e-05
-1.76153e-07
-4.91306e-05
-1.75246e-07
-4.92246e-05
-1.74224e-07
-4.93199e-05
-1.73136e-07
-4.94163e-05
-1.71991e-07
-4.95138e-05
-1.70815e-07
-4.96125e-05
-1.69604e-07
-4.97122e-05
-1.68375e-07
-4.9813e-05
-1.67121e-07
-4.99149e-05
-1.65833e-07
-5.00178e-05
-1.64476e-07
-5.01218e-05
-1.63132e-07
-5.02265e-05
-1.61788e-07
-5.03319e-05
-1.60415e-07
-5.04379e-05
-1.59037e-07
-5.05445e-05
-1.57705e-07
-5.06517e-05
-1.564e-07
-5.07594e-05
-1.55133e-07
-5.08675e-05
-1.53895e-07
-5.09758e-05
-1.52728e-07
-5.10845e-05
-1.51612e-07
-5.11933e-05
-1.50598e-07
-5.13022e-05
-1.49663e-07
-5.14112e-05
-1.48849e-07
-5.15202e-05
-1.48112e-07
-5.16291e-05
-1.47503e-07
-5.17379e-05
-1.46976e-07
-5.18465e-05
-1.4658e-07
-5.1955e-05
-1.46291e-07
-5.20632e-05
-1.46117e-07
-5.21711e-05
-1.46052e-07
-5.22788e-05
-1.4609e-07
-5.23862e-05
-1.46231e-07
-5.24933e-05
-1.4647e-07
-5.26001e-05
-1.46794e-07
-5.27066e-05
-1.47189e-07
-5.28129e-05
-1.47638e-07
-5.2919e-05
-1.48141e-07
-5.30249e-05
-1.4867e-07
-5.31306e-05
-1.4922e-07
-5.32362e-05
-1.49767e-07
-5.33418e-05
-1.50324e-07
-5.34475e-05
-1.50872e-07
-5.35532e-05
-1.51475e-07
-5.36591e-05
-1.52164e-07
-5.37651e-05
-1.52715e-07
-5.38713e-05
-1.52885e-07
-5.3978e-05
-1.52596e-07
-5.40851e-05
-1.5192e-07
-5.41929e-05
-1.50905e-07
-5.43014e-05
-1.49572e-07
-5.44107e-05
-1.47923e-07
-5.45208e-05
-1.45957e-07
-5.4632e-05
-1.4367e-07
-5.47444e-05
-1.41066e-07
-5.48581e-05
-1.38165e-07
-5.49732e-05
-1.34988e-07
-5.50899e-05
-1.31581e-07
-5.52085e-05
-1.28013e-07
-5.53291e-05
-1.2438e-07
-5.54518e-05
-1.20808e-07
-5.5577e-05
-1.17477e-07
-5.57048e-05
-1.14579e-07
-5.58355e-05
-1.12488e-07
-5.59694e-05
-1.11552e-07
-5.61066e-05
-1.1222e-07
-5.62476e-05
-1.14914e-07
-5.63926e-05
-1.20361e-07
-5.6542e-05
-1.29454e-07
-5.66958e-05
-1.43025e-07
-5.68545e-05
-1.61786e-07
-5.70186e-05
-1.86443e-07
-5.71885e-05
-2.17763e-07
-5.73647e-05
-2.56133e-07
-5.75475e-05
-3.01315e-07
-5.77366e-05
-3.5303e-07
-5.79302e-05
-4.09052e-07
-5.81259e-05
-4.62955e-07
-5.83183e-05
-5.06954e-07
-5.84971e-05
-5.29521e-07
-5.86445e-05
-5.1493e-07
-5.87329e-05
-4.44856e-07
-5.8714e-05
-2.83609e-07
-5.85192e-05
5.10738e-08
-5.80357e-05
6.98517e-07
-5.70367e-05
1.87152e-06
-5.51154e-05
3.9956e-06
-5.15358e-05
7.54072e-06
1.20551e-05
-4.53749e-05
-5.02012e-05
-3.51949e-08
-5.02581e-05
-5.47441e-08
-5.03287e-05
-6.89445e-08
-5.04079e-05
-7.80649e-08
-5.04926e-05
-8.3378e-08
-5.05806e-05
-8.62903e-08
-5.06706e-05
-8.76855e-08
-5.07617e-05
-8.81511e-08
-5.08535e-05
-8.80485e-08
-5.09457e-05
-8.75746e-08
-5.1038e-05
-8.68877e-08
-5.11303e-05
-8.60526e-08
-5.12227e-05
-8.51349e-08
-5.13149e-05
-8.416e-08
-5.1407e-05
-8.31573e-08
-5.1499e-05
-8.2132e-08
-5.15908e-05
-8.10994e-08
-5.16824e-05
-8.00577e-08
-5.17737e-05
-7.90174e-08
-5.18649e-05
-7.79719e-08
-5.19557e-05
-7.69013e-08
-5.20463e-05
-7.57886e-08
-5.21366e-05
-7.4782e-08
-5.22263e-05
-7.39378e-08
-5.23155e-05
-7.31765e-08
-5.24041e-05
-7.2456e-08
-5.2492e-05
-7.17925e-08
-5.25793e-05
-7.11681e-08
-5.26659e-05
-7.0587e-08
-5.2752e-05
-7.00416e-08
-5.28374e-05
-6.95638e-08
-5.29222e-05
-6.91361e-08
-5.30064e-05
-6.87903e-08
-5.309e-05
-6.85106e-08
-5.31731e-05
-6.83213e-08
-5.32556e-05
-6.81899e-08
-5.33378e-05
-6.81418e-08
-5.34194e-05
-6.81352e-08
-5.35008e-05
-6.82256e-08
-5.35818e-05
-6.83588e-08
-5.36625e-05
-6.85661e-08
-5.3743e-05
-6.88252e-08
-5.38234e-05
-6.91207e-08
-5.39037e-05
-6.94652e-08
-5.3984e-05
-6.98391e-08
-5.40644e-05
-7.02305e-08
-5.41449e-05
-7.06238e-08
-5.42256e-05
-7.10178e-08
-5.43066e-05
-7.13708e-08
-5.43879e-05
-7.16834e-08
-5.44698e-05
-7.19327e-08
-5.45521e-05
-7.21211e-08
-5.46351e-05
-7.22181e-08
-5.47188e-05
-7.21806e-08
-5.48034e-05
-7.21272e-08
-5.48888e-05
-7.22239e-08
-5.4975e-05
-7.21539e-08
-5.50622e-05
-7.15478e-08
-5.51506e-05
-7.02998e-08
-5.52403e-05
-6.85596e-08
-5.53313e-05
-6.64098e-08
-5.54239e-05
-6.3864e-08
-5.5518e-05
-6.09198e-08
-5.56138e-05
-5.75631e-08
-5.57114e-05
-5.37791e-08
-5.5811e-05
-4.95653e-08
-5.59126e-05
-4.49318e-08
-5.60165e-05
-3.98918e-08
-5.61227e-05
-3.44785e-08
-5.62315e-05
-2.87488e-08
-5.6343e-05
-2.27857e-08
-5.64575e-05
-1.67009e-08
-5.65752e-05
-1.06607e-08
-5.66962e-05
-4.87057e-09
-5.68209e-05
3.50878e-10
-5.69496e-05
4.79918e-09
-5.70826e-05
7.78949e-09
-5.72201e-05
9.03633e-09
-5.73626e-05
7.8455e-09
-5.75104e-05
3.49442e-09
-5.76641e-05
-4.84436e-09
-5.78242e-05
-1.79271e-08
-5.79912e-05
-3.64263e-08
-5.81658e-05
-6.10982e-08
-5.83482e-05
-9.25516e-08
-5.8539e-05
-1.30386e-07
-5.8738e-05
-1.75117e-07
-5.89423e-05
-2.271e-07
-5.91494e-05
-2.79587e-07
-5.93531e-05
-3.28561e-07
-5.95423e-05
-3.67325e-07
-5.96979e-05
-3.87931e-07
-5.97922e-05
-3.80904e-07
-5.97752e-05
-3.32555e-07
-5.95614e-05
-1.9602e-07
-5.89992e-05
1.02527e-07
-5.78334e-05
6.6987e-07
-5.55909e-05
1.71133e-06
-5.15467e-05
3.44523e-06
5.57956e-06
-4.51309e-05
-5.11859e-05
4.24262e-09
-5.12421e-05
6.87137e-10
-5.13114e-05
-3.19315e-10
-5.13888e-05
-1.2812e-09
-5.14711e-05
-1.72547e-09
-5.15559e-05
-2.06648e-09
-5.16418e-05
-2.3264e-09
-5.17279e-05
-2.52634e-09
-5.18137e-05
-2.69994e-09
-5.18989e-05
-2.81821e-09
-5.19833e-05
-2.9223e-09
-5.20668e-05
-2.99592e-09
-5.21493e-05
-3.04646e-09
-5.22308e-05
-3.08851e-09
-5.23112e-05
-3.11252e-09
-5.23906e-05
-3.12603e-09
-5.2469e-05
-3.12081e-09
-5.25463e-05
-3.10257e-09
-5.26226e-05
-3.06372e-09
-5.2698e-05
-3.0046e-09
-5.27724e-05
-2.90334e-09
-5.28458e-05
-2.77909e-09
-5.29183e-05
-2.71863e-09
-5.299e-05
-2.76168e-09
-5.30608e-05
-2.83999e-09
-5.31309e-05
-2.92933e-09
-5.32002e-05
-3.02466e-09
-5.32689e-05
-3.11286e-09
-5.33369e-05
-3.17935e-09
-5.34044e-05
-3.23974e-09
-5.34713e-05
-3.29341e-09
-5.35378e-05
-3.36956e-09
-5.36039e-05
-3.45667e-09
-5.36697e-05
-3.56576e-09
-5.37352e-05
-3.68066e-09
-5.38004e-05
-3.82295e-09
-5.38655e-05
-3.95897e-09
-5.39305e-05
-4.10257e-09
-5.39954e-05
-4.26618e-09
-5.40603e-05
-4.41795e-09
-5.41253e-05
-4.57372e-09
-5.41905e-05
-4.72097e-09
-5.42559e-05
-4.84476e-09
-5.43215e-05
-4.94542e-09
-5.43875e-05
-5.01364e-09
-5.44538e-05
-5.03191e-09
-5.45206e-05
-4.98823e-09
-5.4588e-05
-4.8783e-09
-5.4656e-05
-4.66001e-09
-5.47246e-05
-4.33377e-09
-5.4794e-05
-3.87701e-09
-5.48641e-05
-3.28583e-09
-5.49352e-05
-2.52067e-09
-5.50073e-05
-1.5158e-09
-5.50805e-05
-3.40796e-10
-5.51547e-05
4.98411e-10
-5.52299e-05
1.48048e-09
-5.53062e-05
3.16895e-09
-5.53839e-05
5.75256e-09
-5.54631e-05
8.9069e-09
-5.55438e-05
1.25145e-08
-5.56262e-05
1.65766e-08
-5.57103e-05
2.11154e-08
-5.57961e-05
2.616e-08
-5.5884e-05
3.17262e-08
-5.59738e-05
3.78253e-08
-5.60658e-05
4.44611e-08
-5.61602e-05
5.16294e-08
-5.6257e-05
5.93071e-08
-5.63565e-05
6.74502e-08
-5.64589e-05
7.59914e-08
-5.65642e-05
8.48343e-08
-5.66729e-05
9.38368e-08
-5.6785e-05
1.0276e-07
-5.6901e-05
1.11443e-07
-5.70211e-05
1.19608e-07
-5.71457e-05
1.26706e-07
-5.72751e-05
1.32344e-07
-5.74097e-05
1.35876e-07
-5.75499e-05
1.36617e-07
-5.76963e-05
1.33936e-07
-5.78495e-05
1.2711e-07
-5.801e-05
1.15365e-07
-5.81782e-05
9.79648e-08
-5.83547e-05
7.43135e-08
-5.85389e-05
4.37166e-08
-5.87318e-05
7.27327e-09
-5.89291e-05
-4.10023e-08
-5.91294e-05
-9.18725e-08
-5.93259e-05
-1.46373e-07
-5.95072e-05
-2.0246e-07
-5.96554e-05
-2.58925e-07
-5.97413e-05
-3.17746e-07
-5.97193e-05
-3.81704e-07
-5.94995e-05
-4.48892e-07
-5.8921e-05
-5.1652e-07
-5.77037e-05
-5.94283e-07
-5.53476e-05
-6.95473e-07
-5.11211e-05
-8.33357e-07
-9.59021e-07
-4.46294e-05
-5.07626e-05
4.22531e-08
-5.08173e-05
5.66666e-08
-5.08855e-05
6.9056e-08
-5.09624e-05
7.67694e-08
-5.10444e-05
8.13107e-08
-5.11291e-05
8.36876e-08
-5.12151e-05
8.47218e-08
-5.13016e-05
8.49375e-08
-5.13881e-05
8.46576e-08
-5.14741e-05
8.40873e-08
-5.15595e-05
8.33437e-08
-5.16442e-05
8.24901e-08
-5.1728e-05
8.15939e-08
-5.1811e-05
8.0652e-08
-5.18931e-05
7.97089e-08
-5.19742e-05
7.87589e-08
-5.20545e-05
7.78298e-08
-5.21338e-05
7.69137e-08
-5.22122e-05
7.60324e-08
-5.22896e-05
7.51806e-08
-5.23662e-05
7.43808e-08
-5.24419e-05
7.36026e-08
-5.25167e-05
7.28081e-08
-5.25907e-05
7.19676e-08
-5.26639e-05
7.11308e-08
-5.27364e-05
7.03046e-08
-5.28081e-05
6.95083e-08
-5.28791e-05
6.87554e-08
-5.29495e-05
6.80764e-08
-5.30193e-05
6.74455e-08
-5.30885e-05
6.68741e-08
-5.31572e-05
6.63172e-08
-5.32254e-05
6.58055e-08
-5.32932e-05
6.53156e-08
-5.33606e-05
6.48788e-08
-5.34276e-05
6.44605e-08
-5.34944e-05
6.41087e-08
-5.3561e-05
6.37785e-08
-5.36274e-05
6.35295e-08
-5.36937e-05
6.33128e-08
-5.37599e-05
6.31733e-08
-5.38261e-05
6.31003e-08
-5.38924e-05
6.30939e-08
-5.39588e-05
6.31854e-08
-5.40254e-05
6.33735e-08
-5.40923e-05
6.36759e-08
-5.41594e-05
6.41051e-08
-5.42269e-05
6.46748e-08
-5.42949e-05
6.54096e-08
-5.43634e-05
6.63228e-08
-5.44324e-05
6.74271e-08
-5.45021e-05
6.87395e-08
-5.45724e-05
7.02886e-08
-5.46435e-05
7.20948e-08
-5.47153e-05
7.40726e-08
-5.4788e-05
7.60427e-08
-5.4862e-05
7.83261e-08
-5.49372e-05
8.13261e-08
-5.50134e-05
8.51256e-08
-5.50908e-05
8.95601e-08
-5.51694e-05
9.45648e-08
-5.52494e-05
1.00136e-07
-5.53308e-05
1.06294e-07
-5.54138e-05
1.13069e-07
-5.54984e-05
1.20482e-07
-5.55847e-05
1.2855e-07
-5.5673e-05
1.3729e-07
-5.57632e-05
1.46717e-07
-5.58556e-05
1.56818e-07
-5.59502e-05
1.67562e-07
-5.60474e-05
1.78906e-07
-5.61472e-05
1.90775e-07
-5.62499e-05
2.03042e-07
-5.63557e-05
2.15531e-07
-5.64649e-05
2.2807e-07
-5.65777e-05
2.40373e-07
-5.66944e-05
2.52025e-07
-5.68155e-05
2.62602e-07
-5.69412e-05
2.71542e-07
-5.70721e-05
2.7824e-07
-5.72086e-05
2.82077e-07
-5.73512e-05
2.82344e-07
-5.75004e-05
2.78243e-07
-5.76566e-05
2.69051e-07
-5.78201e-05
2.54011e-07
-5.79908e-05
2.31975e-07
-5.81664e-05
2.02036e-07
-5.83482e-05
1.62096e-07
-5.85295e-05
1.13481e-07
-5.87021e-05
5.35174e-08
-5.88551e-05
-1.83688e-08
-5.89729e-05
-1.06406e-07
-5.90263e-05
-2.25501e-07
-5.89678e-05
-3.96958e-07
-5.87132e-05
-6.55149e-07
-5.81073e-05
-1.0686e-06
-5.68714e-05
-1.77052e-06
-5.45178e-05
-2.9833e-06
-5.0344e-05
-4.93655e-06
-7.27513e-06
-4.39587e-05
-4.91758e-05
7.13851e-08
-4.92273e-05
1.10984e-07
-4.92929e-05
1.37484e-07
-4.93678e-05
1.54402e-07
-4.94484e-05
1.64686e-07
-4.95326e-05
1.70616e-07
-4.96192e-05
1.73911e-07
-4.97071e-05
1.75542e-07
-4.97961e-05
1.76221e-07
-4.98857e-05
1.7626e-07
-4.99757e-05
1.75965e-07
-5.00661e-05
1.75406e-07
-5.01567e-05
1.74717e-07
-5.02474e-05
1.73922e-07
-5.03382e-05
1.73069e-07
-5.04291e-05
1.72165e-07
-5.052e-05
1.7124e-07
-5.06109e-05
1.7029e-07
-5.07017e-05
1.69337e-07
-5.07924e-05
1.68374e-07
-5.08829e-05
1.67418e-07
-5.09732e-05
1.66444e-07
-5.10633e-05
1.65433e-07
-5.11531e-05
1.64362e-07
-5.12427e-05
1.63266e-07
-5.13319e-05
1.62145e-07
-5.14207e-05
1.61021e-07
-5.15092e-05
1.59918e-07
-5.15973e-05
1.58876e-07
-5.16849e-05
1.57875e-07
-5.17721e-05
1.56911e-07
-5.18588e-05
1.55957e-07
-5.19451e-05
1.55035e-07
-5.20309e-05
1.54138e-07
-5.21162e-05
1.53289e-07
-5.22011e-05
1.52479e-07
-5.22854e-05
1.5173e-07
-5.23693e-05
1.51023e-07
-5.24528e-05
1.50419e-07