/*--------------------------------*- C++ -*----------------------------------*\
| =========                 |                                                 |
| \\      /  F ield         | OpenFOAM: The Open Source CFD Toolbox           |
|  \\    /   O peration     | Version:  2.1.0                                 |
|   \\  /    A nd           | Web:      www.OpenFOAM.org                      |
|    \\/     M anipulation  |                                                 |
\*---------------------------------------------------------------------------*/
FoamFile
{
    version     2.0;
    format      ascii;
    class       volScalarField;
    location    "0.47";
    object      rho;
}
// * * * * * * * * * * * * * * * * * * * * * * * * * * * * * * * * * * * * * //

dimensions      [1 -3 0 0 0 0 0];

internalField   nonuniform List<scalar> 
6400
(
946.18
946.13
946.081
946.033
945.985
945.939
945.894
945.85
945.807
945.765
945.725
945.685
945.647
945.61
945.574
945.539
945.505
945.472
945.44
945.409
945.379
945.351
945.323
945.296
945.27
945.246
945.222
945.199
945.177
945.157
945.137
945.117
945.099
945.082
945.065
945.05
945.035
945.021
945.008
944.995
944.983
944.972
944.962
944.952
944.943
944.934
944.927
944.919
944.913
944.907
944.901
944.896
944.891
944.887
944.884
944.881
944.878
944.876
944.874
944.872
944.871
944.87
944.87
944.87
944.87
944.87
944.871
944.872
944.874
944.876
944.878
944.881
944.884
944.887
944.891
944.896
944.901
944.907
944.913
944.921
944.929
944.939
944.949
944.962
944.978
944.997
945.02
945.051
945.094
945.155
945.251
945.417
945.735
946.375
947.221
945.514
944.584
944.555
944.555
944.555
946.542
946.485
946.427
946.369
946.312
946.256
946.201
946.146
946.093
946.041
945.99
945.94
945.892
945.844
945.798
945.752
945.708
945.665
945.622
945.581
945.541
945.503
945.465
945.428
945.393
945.359
945.325
945.293
945.262
945.232
945.204
945.176
945.15
945.124
945.1
945.076
945.054
945.033
945.013
944.993
944.975
944.958
944.941
944.926
944.911
944.898
944.885
944.873
944.861
944.851
944.841
944.832
944.823
944.816
944.808
944.802
944.796
944.79
944.785
944.78
944.776
944.772
944.768
944.765
944.762
944.76
944.757
944.755
944.753
944.751
944.75
944.748
944.747
944.746
944.745
944.744
944.743
944.742
944.742
944.741
944.741
944.741
944.741
944.741
944.742
944.743
944.744
944.745
944.746
944.747
944.747
944.743
944.733
944.708
944.66
944.594
944.557
944.555
944.555
944.555
947.036
946.971
946.903
946.835
946.768
946.701
946.635
946.569
946.505
946.442
946.379
946.318
946.258
946.199
946.141
946.084
946.028
945.973
945.92
945.867
945.816
945.765
945.716
945.668
945.621
945.576
945.531
945.488
945.446
945.405
945.366
945.327
945.29
945.255
945.22
945.187
945.155
945.125
945.095
945.067
945.04
945.014
944.99
944.967
944.944
944.923
944.903
944.885
944.867
944.85
944.834
944.819
944.806
944.793
944.78
944.769
944.758
944.749
944.739
944.731
944.723
944.716
944.709
944.702
944.696
944.691
944.685
944.68
944.675
944.671
944.666
944.662
944.658
944.654
944.649
944.645
944.641
944.637
944.633
944.628
944.624
944.619
944.614
944.61
944.605
944.6
944.595
944.59
944.585
944.58
944.575
944.57
944.566
944.562
944.559
944.557
944.555
944.555
944.555
944.555
947.771
947.698
947.62
947.541
947.461
947.381
947.302
947.223
947.146
947.069
946.993
946.918
946.844
946.77
946.698
946.627
946.557
946.488
946.42
946.353
946.287
946.222
946.158
946.096
946.035
945.974
945.915
945.857
945.801
945.745
945.691
945.639
945.587
945.537
945.489
945.441
945.395
945.351
945.308
945.266
945.226
945.187
945.15
945.114
945.079
945.046
945.015
944.985
944.956
944.928
944.902
944.878
944.854
944.832
944.812
944.792
944.774
944.756
944.74
944.725
944.711
944.698
944.686
944.674
944.664
944.654
944.645
944.637
944.629
944.622
944.615
944.609
944.603
944.598
944.593
944.589
944.584
944.581
944.577
944.574
944.571
944.568
944.566
944.564
944.562
944.561
944.559
944.558
944.557
944.556
944.556
944.555
944.555
944.555
944.555
944.555
944.555
944.555
944.555
944.555
948.871
948.789
948.701
948.61
948.518
948.426
948.334
948.242
948.15
948.059
947.969
947.879
947.79
947.702
947.614
947.527
947.441
947.356
947.272
947.188
947.105
947.024
946.943
946.863
946.784
946.707
946.63
946.555
946.48
946.406
946.334
946.263
946.192
946.123
946.055
945.989
945.924
945.86
945.797
945.736
945.676
945.617
945.561
945.505
945.451
945.399
945.348
945.299
945.252
945.206
945.163
945.12
945.08
945.041
945.004
944.969
944.936
944.904
944.874
944.846
944.819
944.794
944.771
944.749
944.729
944.71
944.693
944.678
944.663
944.65
944.638
944.627
944.617
944.609
944.601
944.594
944.588
944.583
944.578
944.574
944.57
944.567
944.565
944.563
944.561
944.559
944.558
944.557
944.556
944.556
944.555
944.555
944.555
944.555
944.555
944.555
944.555
944.555
944.555
944.555
950.562
950.472
950.376
950.277
950.176
950.074
949.972
949.87
949.767
949.666
949.564
949.462
949.361
949.26
949.16
949.06
948.96
948.86
948.761
948.662
948.564
948.465
948.368
948.271
948.174
948.078
947.983
947.888
947.794
947.7
947.607
947.514
947.422
947.331
947.241
947.151
947.062
946.974
946.887
946.8
946.715
946.63
946.547
946.464
946.383
946.303
946.224
946.146
946.07
945.995
945.922
945.85
945.78
945.712
945.645
945.581
945.518
945.457
945.398
945.341
945.287
945.234
945.184
945.136
945.09
945.047
945.005
944.966
944.929
944.895
944.862
944.832
944.804
944.777
944.753
944.731
944.71
944.691
944.673
944.657
944.643
944.63
944.618
944.607
944.598
944.589
944.582
944.575
944.57
944.565
944.562
944.559
944.557
944.556
944.555
944.555
944.555
944.555
944.555
944.555
953.178
953.085
952.987
952.886
952.783
952.679
952.575
952.47
952.365
952.26
952.155
952.051
951.946
951.841
951.736
951.631
951.526
951.421
951.316
951.21
951.103
950.997
950.89
950.782
950.675
950.567
950.46
950.353
950.245
950.138
950.031
949.923
949.816
949.709
949.601
949.494
949.386
949.279
949.171
949.063
948.956
948.848
948.739
948.631
948.523
948.414
948.306
948.197
948.088
947.979
947.871
947.762
947.653
947.545
947.437
947.329
947.222
947.115
947.009
946.903
946.799
946.695
946.593
946.492
946.393
946.295
946.199
946.105
946.013
945.923
945.836
945.751
945.669
945.589
945.511
945.437
945.365
945.296
945.229
945.165
945.104
945.046
944.991
944.938
944.888
944.84
944.796
944.754
944.715
944.68
944.649
944.622
944.601
944.585
944.575
944.569
944.565
944.562
944.56
944.558
957.019
956.933
956.842
956.75
956.656
956.562
956.468
956.373
956.279
956.185
956.092
955.999
955.906
955.813
955.721
955.629
955.537
955.444
955.352
955.26
955.168
955.075
954.982
954.889
954.796
954.702
954.608
954.514
954.42
954.325
954.23
954.134
954.037
953.94
953.842
953.743
953.643
953.542
953.439
953.336
953.231
953.124
953.016
952.907
952.795
952.682
952.567
952.45
952.33
952.209
952.085
951.96
951.831
951.701
951.568
951.433
951.295
951.154
951.011
950.866
950.718
950.568
950.415
950.26
950.103
949.944
949.783
949.62
949.455
949.289
949.121
948.951
948.781
948.61
948.437
948.264
948.09
947.915
947.74
947.564
947.386
947.208
947.028
946.847
946.664
946.479
946.293
946.106
945.919
945.733
945.552
945.379
945.219
945.077
944.959
944.873
944.802
944.746
944.704
944.676
962.465
962.403
962.34
962.275
962.211
962.146
962.083
962.02
961.958
961.897
961.837
961.777
961.719
961.661
961.604
961.548
961.493
961.438
961.385
961.332
961.28
961.228
961.177
961.127
961.076
961.025
960.973
960.921
960.867
960.813
960.758
960.701
960.644
960.585
960.525
960.462
960.399
960.334
960.266
960.197
960.126
960.053
959.978
959.901
959.821
959.74
959.655
959.568
959.479
959.387
959.292
959.195
959.094
958.991
958.884
958.774
958.661
958.544
958.423
958.299
958.17
958.038
957.901
957.761
957.615
957.465
957.31
957.15
956.985
956.814
956.637
956.455
956.266
956.07
955.868
955.657
955.438
955.21
954.971
954.722
954.461
954.189
953.901
953.597
953.274
952.93
952.562
952.167
951.743
951.289
950.804
950.29
949.752
949.197
948.636
948.094
947.62
947.185
946.813
946.537
969.725
969.706
969.688
969.67
969.652
969.635
969.618
969.602
969.586
969.571
969.556
969.541
969.527
969.512
969.499
969.485
969.472
969.458
969.445
969.431
969.418
969.404
969.39
969.376
969.361
969.345
969.33
969.313
969.296
969.279
969.26
969.242
969.222
969.202
969.182
969.16
969.139
969.116
969.093
969.07
969.045
969.021
968.995
968.97
968.943
968.917
968.889
968.861
968.833
968.804
968.775
968.745
968.714
968.683
968.652
968.619
968.587
968.553
968.519
968.484
968.447
968.41
968.372
968.332
968.291
968.248
968.204
968.157
968.109
968.058
968.005
967.948
967.888
967.825
967.757
967.684
967.607
967.524
967.435
967.338
967.232
967.115
966.988
966.849
966.696
966.528
966.345
966.143
965.909
965.636
965.316
964.943
964.507
963.998
963.4
962.695
961.882
961.036
960.221
959.555
977.525
977.554
977.581
977.609
977.635
977.661
977.685
977.709
977.732
977.755
977.776
977.798
977.818
977.838
977.857
977.877
977.895
977.914
977.932
977.95
977.968
977.986
978.004
978.023
978.041
978.06
978.08
978.1
978.12
978.141
978.163
978.186
978.209
978.233
978.258
978.284
978.312
978.34
978.369
978.399
978.431
978.463
978.497
978.532
978.569
978.606
978.645
978.686
978.728
978.771
978.816
978.863
978.912
978.962
979.015
979.069
979.126
979.185
979.247
979.312
979.38
979.452
979.528
979.608
979.692
979.782
979.877
979.978
980.085
980.199
980.321
980.45
980.589
980.737
980.895
981.064
981.245
981.439
981.646
981.867
982.104
982.356
982.624
982.91
983.212
983.532
983.868
984.223
984.606
985.025
985.486
985.992
986.538
987.129
987.767
988.453
989.184
989.943
990.691
991.352
983.907
983.973
984.04
984.108
984.176
984.244
984.311
984.378
984.444
984.511
984.576
984.641
984.706
984.77
984.834
984.898
984.961
985.024
985.087
985.15
985.212
985.276
985.339
985.402
985.465
985.53
985.594
985.659
985.725
985.791
985.858
985.926
985.995
986.066
986.137
986.21
986.284
986.359
986.436
986.515
986.595
986.678
986.762
986.848
986.937
987.028
987.121
987.217
987.315
987.416
987.52
987.627
987.736
987.849
987.966
988.086
988.209
988.336
988.467
988.603
988.743
988.889
989.04
989.197
989.36
989.529
989.705
989.889
990.08
990.279
990.487
990.704
990.93
991.165
991.411
991.668
991.934
992.212
992.5
992.799
993.108
993.426
993.754
994.09
994.432
994.78
995.131
995.484
995.836
996.184
996.525
996.859
997.193
997.521
997.839
998.141
998.422
998.675
998.888
999.047
988.715
988.799
988.886
988.976
989.067
989.159
989.251
989.343
989.435
989.527
989.619
989.711
989.803
989.896
989.988
990.08
990.172
990.264
990.357
990.45
990.542
990.636
990.729
990.823
990.917
991.012
991.107
991.202
991.299
991.396
991.493
991.592
991.691
991.791
991.892
991.994
992.097
992.202
992.307
992.414
992.522
992.631
992.742
992.854
992.968
993.083
993.2
993.319
993.439
993.561
993.685
993.811
993.939
994.069
994.201
994.335
994.471
994.609
994.749
994.892
995.037
995.184
995.334
995.485
995.639
995.796
995.954
996.114
996.277
996.441
996.607
996.774
996.943
997.112
997.282
997.453
997.623
997.792
997.96
998.126
998.29
998.45
998.605
998.755
998.899
999.036
999.165
999.285
999.396
999.496
999.584
999.66
999.723
999.777
999.824
999.864
999.896
999.921
999.94
999.952
992.228
992.313
992.404
992.499
992.595
992.692
992.79
992.888
992.986
993.084
993.183
993.281
993.379
993.478
993.576
993.675
993.773
993.872
993.971
994.07
994.169
994.268
994.368
994.467
994.567
994.667
994.768
994.868
994.969
995.071
995.172
995.274
995.376
995.478
995.58
995.683
995.786
995.889
995.992
996.096
996.199
996.303
996.406
996.51
996.613
996.716
996.82
996.922
997.025
997.127
997.229
997.331
997.432
997.533
997.633
997.732
997.831
997.929
998.025
998.121
998.216
998.31
998.402
998.492
998.581
998.669
998.754
998.838
998.92
998.999
999.076
999.151
999.223
999.293
999.359
999.423
999.484
999.542
999.596
999.648
999.695
999.739
999.78
999.816
999.849
999.878
999.904
999.925
999.943
999.958
999.97
999.979
999.985
999.989
999.992
999.994
999.996
999.997
999.998
999.999
994.618
994.698
994.785
994.875
994.966
995.059
995.152
995.245
995.338
995.431
995.524
995.616
995.709
995.801
995.893
995.985
996.076
996.168
996.259
996.349
996.44
996.53
996.62
996.709
996.798
996.887
996.976
997.064
997.151
997.238
997.324
997.41
997.496
997.58
997.664
997.747
997.83
997.911
997.992
998.072
998.15
998.228
998.304
998.38
998.454
998.526
998.597
998.667
998.736
998.802
998.868
998.931
998.993
999.053
999.111
999.168
999.222
999.275
999.325
999.374
999.421
999.465
999.508
999.548
999.587
999.624
999.658
999.691
999.722
999.751
999.777
999.803
999.826
999.847
999.867
999.885
999.902
999.917
999.93
999.942
999.952
999.962
999.97
999.976
999.982
999.987
999.99
999.993
999.995
999.997
999.998
999.999
999.999
1000
1000
1000
1000
1000
1000
1000
996.2
996.272
996.349
996.43
996.512
996.594
996.676
996.758
996.841
996.922
997.003
997.084
997.164
997.244
997.323
997.401
997.479
997.556
997.633
997.708
997.783
997.858
997.931
998.004
998.076
998.146
998.216
998.285
998.353
998.419
998.485
998.55
998.613
998.676
998.737
998.797
998.855
998.913
998.968
999.023
999.076
999.128
999.178
999.226
999.273
999.319
999.363
999.405
999.445
999.484
999.521
999.557
999.591
999.623
999.654
999.683
999.71
999.736
999.76
999.783
999.804
999.824
999.842
999.859
999.875
999.889
999.902
999.914
999.925
999.935
999.944
999.952
999.959
999.966
999.971
999.976
999.981
999.984
999.987
999.99
999.992
999.994
999.996
999.997
999.998
999.998
999.999
999.999
1000
1000
1000
1000
1000
1000
1000
1000
1000
1000
1000
1000
997.276
997.338
997.405
997.473
997.543
997.612
997.681
997.75
997.818
997.885
997.952
998.018
998.084
998.148
998.212
998.275
998.337
998.399
998.459
998.518
998.577
998.635
998.691
998.747
998.801
998.855
998.907
998.958
999.008
999.057
999.105
999.152
999.197
999.241
999.284
999.325
999.365
999.404
999.441
999.477
999.511
999.545
999.576
999.607
999.636
999.663
999.69
999.714
999.738
999.76
999.781
999.801
999.819
999.836
999.852
999.867
999.881
999.894
999.905
999.916
999.926
999.935
999.943
999.95
999.957
999.963
999.968
999.973
999.977
999.981
999.984
999.987
999.989
999.991
999.993
999.994
999.996
999.997
999.997
999.998
999.999
999.999
999.999
999.999
1000
1000
1000
1000
1000
1000
1000
1000
1000
1000
1000
1000
1000
1000
1000
1000
998.04
998.093
998.148
998.205
998.261
998.317
998.373
998.428
998.482
998.535
998.588
998.64
998.691
998.742
998.791
998.84
998.887
998.934
998.98
999.025
999.069
999.112
999.154
999.195
999.235
999.274
999.312
999.349
999.385
999.42
999.453
999.486
999.517
999.548
999.577
999.605
999.631
999.657
999.681
999.705
999.727
999.748
999.768
999.787
999.804
999.821
999.837
999.852
999.866
999.879
999.89
999.902
999.912
999.921
999.93
999.938
999.945
999.952
999.958
999.963
999.968
999.973
999.976
999.98
999.983
999.986
999.988
999.99
999.992
999.993
999.994
999.996
999.996
999.997
999.998
999.998
999.999
999.999
999.999
999.999
1000
1000
1000
1000
1000
1000
1000
1000
1000
1000
1000
1000
1000
1000
1000
1000
1000
1000
1000
1000
998.602
998.645
998.69
998.735
998.779
998.823
998.866
998.909
998.951
998.992
999.033
999.072
999.111
999.149
999.186
999.223
999.258
999.293
999.327
999.36
999.392
999.423
999.453
999.483
999.511
999.539
999.566
999.591
999.616
999.64
999.663
999.685
999.706
999.726
999.746
999.764
999.781
999.798
999.813
999.828
999.842
999.856
999.868
999.88
999.891
999.901
999.91
999.919
999.927
999.935
999.942
999.948
999.954
999.959
999.964
999.969
999.973
999.976
999.979
999.982
999.985
999.987
999.989
999.991
999.992
999.994
999.995
999.996
999.996
999.997
999.998
999.998
999.999
999.999
999.999
999.999
1000
1000
1000
1000
1000
1000
1000
1000
1000
1000
1000
1000
1000
1000
1000
1000
1000
1000
1000
1000
1000
1000
1000
1000
999.103
999.135
999.167
999.2
999.231
999.263
999.293
999.323
999.353
999.381
999.409
999.436
999.463
999.489
999.514
999.538
999.562
999.585
999.607
999.628
999.649
999.669
999.688
999.707
999.725
999.742
999.758
999.774
999.789
999.803
999.817
999.83
999.843
999.854
999.865
999.876
999.886
999.895
999.904
999.912
999.92
999.927
999.934
999.94
999.946
999.951
999.956
999.961
999.965
999.969
999.972
999.976
999.978
999.981
999.983
999.986
999.988
999.989
999.991
999.992
999.993
999.994
999.995
999.996
999.997
999.997
999.998
999.998
999.999
999.999
999.999
999.999
999.999
1000
1000
1000
1000
1000
1000
1000
1000
1000
1000
1000
1000
1000
1000
1000
1000
1000
1000
1000
1000
1000
1000
1000
1000
1000
1000
1000
944.555
944.555
944.555
944.555
944.555
944.555
944.555
944.555
944.555
944.555
944.555
944.555
944.555
944.555
944.555
944.555
944.555
944.555
944.555
944.555
944.555
944.555
944.555
944.555
944.555
944.555
944.555
944.555
944.555
944.555
944.555
944.555
944.555
944.555
944.555
944.555
944.555
944.555
944.555
944.555
944.555
944.555
944.555
944.555
944.555
944.555
944.555
944.555
944.555
944.555
944.555
944.555
944.555
944.555
944.555
944.555
944.555
944.555
944.555
944.555
944.555
944.555
944.555
944.555
944.555
944.555
944.555
944.555
944.555
944.555
944.555
944.555
944.555
944.555
944.555
944.555
944.555
944.555
944.555
944.557
944.555
944.555
944.555
944.555
944.555
944.555
944.555
944.555
944.555
944.555
944.555
944.555
944.555
944.555
944.555
944.556
944.557
944.559
944.565
944.593
944.555
944.555
944.555
944.555
944.555
944.555
944.555
944.555
944.555
944.556
944.556
944.556
944.557
944.558
944.56
944.564
944.574
944.598
944.675
945.05
944.558
944.559
944.56
944.561
944.563
944.565
944.566
944.568
944.569
944.57
944.57
944.572
944.576
944.583
944.596
944.625
944.689
944.862
945.468
948.896
944.676
944.689
944.704
944.72
944.736
944.749
944.757
944.756
944.75
944.743
944.737
944.735
944.74
944.761
944.813
944.931
945.204
945.924
948.439
963.798
946.472
946.555
946.633
946.707
946.761
946.76
946.724
946.649
946.573
946.486
946.398
946.301
946.214
946.149
946.204
946.478
947.222
948.982
953.589
982.384
959.322
959.493
959.654
959.791
959.872
959.817
959.713
959.598
959.45
959.237
958.976
958.614
958.205
957.647
957.221
957.119
958.046
960.591
966.638
982.717
991.651
991.553
991.48
991.43
991.438
991.598
991.806
992.02
992.244
992.507
992.791
993.142
993.526
994.018
994.341
994.396
993.898
993.044
992.244
991.13
999.092
999.052
999.016
998.983
998.962
998.971
999.001
999.056
999.112
999.173
999.235
999.306
999.373
999.449
999.497
999.51
999.459
999.349
999.113
995.668
999.954
999.948
999.942
999.936
999.929
999.925
999.922
999.924
999.928
999.935
999.941
999.948
999.953
999.958
999.961
999.96
999.951
999.923
999.787
998.342
999.999
999.999
999.998
999.998
999.997
999.997
999.996
999.996
999.996
999.996
999.997
999.997
999.997
999.997
999.997
999.997
999.995
999.989
999.962
999.719
1000
1000
1000
1000
1000
1000
1000
1000
1000
1000
1000
1000
1000
1000
1000
1000
1000
999.999
999.998
999.995
1000
1000
1000
1000
1000
1000
1000
1000
1000
1000
1000
1000
1000
1000
1000
1000
1000
1000
1000
1000
1000
1000
1000
1000
1000
1000
1000
1000
1000
1000
1000
1000
1000
1000
1000
1000
1000
1000
1000
1000
1000
1000
1000
1000
1000
1000
1000
1000
1000
1000
1000
1000
1000
1000
1000
1000
1000
1000
1000
1000
1000
1000
1000
1000
1000
1000
1000
1000
1000
1000
1000
1000
1000
1000
1000
1000
1000
1000
1000
1000
1000
1000
1000
1000
1000
1000
1000
1000
1000
1000
1000
1000
1000
1000
1000
1000
1000
1000
1000
1000
944.555
944.555
944.555
944.555
944.555
944.555
944.555
944.555
944.555
944.555
944.555
944.555
944.555
944.555
944.555
944.555
944.555
944.555
944.555
944.555
944.555
944.555
944.555
944.555
944.555
944.555
944.555
944.555
944.555
944.555
944.555
944.555
944.555
944.555
944.555
944.555
944.555
944.555
944.555
944.555
944.555
944.555
944.555
944.555
944.555
944.555
944.555
944.555
944.555
944.555
944.555
944.555
944.555
944.555
944.555
944.555
944.555
944.555
944.555
944.555
944.555
944.555
944.555
944.555
944.555
944.555
944.555
944.555
944.555
944.555
944.555
944.555
944.555
944.555
944.555
944.555
944.555
944.555
944.555
944.555
944.555
944.555
944.555
944.555
944.555
944.555
944.555
944.555
944.555
944.555
944.555
944.555
944.555
944.555
944.555
944.555
944.555
944.555
944.555
944.555
944.555
944.555
944.555
944.555
944.555
944.555
944.555
944.555
944.555
944.555
944.555
944.555
944.555
944.555
944.555
944.555
944.555
944.555
944.555
944.555
944.555
944.555
944.555
944.555
944.555
944.555
944.555
944.555
944.555
944.555
944.555
944.555
944.555
944.555
944.555
944.555
944.555
944.555
944.555
944.555
944.555
944.555
944.555
944.555
944.555
944.555
944.555
944.555
944.555
944.555
944.555
944.555
944.555
944.555
944.555
944.555
944.555
944.555
944.555
944.555
944.555
944.555
944.555
944.555
944.555
944.555
944.555
944.555
944.555
944.555
944.555
944.555
944.555
944.555
944.555
944.555
944.555
944.555
944.555
944.555
944.555
944.555
944.555
944.555
944.555
944.555
944.555
944.555
944.555
944.555
944.555
944.555
944.555
944.555
944.555
944.555
944.555
944.555
944.555
944.555
944.555
944.555
944.555
944.555
944.555
944.555
944.555
944.555
944.555
944.555
944.555
944.555
944.555
944.555
944.555
944.555
944.555
944.555
944.555
944.555
944.555
944.555
944.555
944.555
944.555
944.555
944.555
944.555
944.555
944.555
944.555
944.555
944.555
944.555
944.555
944.555
944.555
944.555
944.555
944.555
944.555
944.555
944.555
944.555
944.555
944.555
944.555
944.555
944.555
944.555
944.555
944.555
944.555
944.555
944.555
944.555
944.555
944.555
944.555
944.555
944.555
944.555
944.555
944.555
944.555
944.555
944.555
944.555
944.555
944.555
944.555
944.555
944.555
944.555
944.555
944.555
944.555
944.555
944.555
944.555
944.555
944.555
944.555
944.555
944.555
944.555
944.555
944.555
944.555
944.555
944.555
944.555
944.555
944.555
944.555
944.555
944.555
944.555
944.555
944.555
944.555
944.555
944.555
944.555
944.555
944.555
944.555
944.555
944.555
944.555
944.555
944.555
944.555
944.555
944.555
944.555
944.555
944.555
944.555
944.555
944.555
944.555
944.555
944.555
944.555
944.555
944.555
944.555
944.555
944.555
944.555
944.555
944.555
944.555
944.555
944.555
944.555
944.555
944.555
944.555
944.555
944.555
944.555
944.555
944.555
944.555
944.555
944.555
944.555
944.555
944.555
944.555
944.555
944.555
944.555
944.555
944.555
944.555
944.555
944.555
944.555
944.555
944.555
944.555
944.555
944.555
944.555
944.555
944.555
944.555
944.555
944.555
944.555
944.555
944.555
944.555
944.555
944.555
944.555
944.555
944.555
944.555
944.555
944.555
944.555
944.555
944.555
944.555
944.555
944.555
944.555
944.555
944.555
944.555
944.555
944.555
944.555
944.555
944.555
944.555
944.555
944.555
944.555
944.555
944.555
944.555
944.555
944.555
944.555
944.555
944.555
944.555
944.555
944.555
944.555
944.555
944.555
944.555
944.555
944.555
944.555
944.555
944.555
944.555
944.555
944.555
944.555
944.555
944.555
944.555
944.555
944.555
944.555
944.555
944.555
944.555
944.555
944.555
944.555
944.555
944.555
944.555
944.555
944.555
944.555
944.555
944.555
944.555
944.555
944.555
944.555
944.555
944.555
944.555
944.555
944.555
944.555
944.555
944.555
944.555
944.555
944.555
944.555
944.555
944.555
944.555
944.555
944.555
944.555
944.555
944.555
944.555
944.555
944.555
944.555
944.555
944.555
944.555
944.555
944.555
944.555
944.555
944.555
944.555
944.555
944.555
944.555
944.555
944.555
944.555
944.555
944.555
944.555
944.555
944.555
944.555
944.555
944.555
944.555
944.555
944.555
944.555
944.555
944.555
944.555
944.555
944.555
944.555
944.555
944.555
944.555
944.555
944.555
944.555
944.555
944.555
944.555
944.555
944.555
944.555
944.555
944.555
944.555
944.555
944.555
944.555
944.555
944.555
944.555
944.555
944.555
944.555
944.555
944.555
944.555
944.555
944.555
944.555
944.555
944.555
944.555
944.555
944.555
944.555
944.555
944.555
944.555
944.555
944.555
944.555
944.555
944.555
944.555
944.555
944.555
944.555
944.555
944.555
944.555
944.555
944.555
944.555
944.555
944.555
944.555
944.555
944.555
944.555
944.555
944.555
944.555
944.555
944.555
944.555
944.555
944.555
944.555
944.555
944.555
944.555
944.555
944.555
944.555
944.555
944.555
944.555
944.555
944.555
944.555
944.555
944.555
944.555
944.555
944.555
944.555
944.555
944.555
944.555
944.555
944.555
944.555
944.555
944.555
944.555
944.555
944.555
944.555
944.555
944.555
944.555
944.555
944.555
944.555
944.555
944.555
944.555
944.555
944.555
944.555
944.555
944.555
944.555
944.555
944.555
944.555
944.555
944.555
944.555
944.555
944.555
944.555
944.555
944.555
944.555
944.555
944.555
944.555
944.555
944.555
944.555
944.555
944.555
944.555
944.555
944.555
944.555
944.555
944.555
944.555
944.555
944.555
944.555
944.555
944.555
944.555
944.555
944.555
944.555
944.555
944.555
944.555
944.555
944.555
944.555
944.555
944.555
944.555
944.555
944.555
944.555
944.555
944.555
944.555
944.555
944.555
944.555
944.555
944.555
944.555
944.555
944.555
944.555
944.555
944.555
944.555
944.555
944.555
944.555
944.555
944.555
944.555
944.555
944.555
944.555
944.555
944.555
944.555
944.555
944.555
944.555
944.555
944.555
944.555
944.555
944.555
944.555
944.555
944.555
944.555
944.555
944.555
944.555
944.555
944.555
944.555
944.555
944.555
944.555
944.555
944.555
944.555
944.555
944.555
944.555
944.555
944.555
944.555
944.555
944.555
944.555
944.555
944.555
944.555
944.555
944.555
944.555
944.555
944.555
944.555
944.555
944.555
944.555
944.555
944.555
944.555
944.555
944.555
944.555
944.555
944.555
944.555
944.555
944.555
944.555
944.555
944.555
944.555
944.555
944.555
944.555
944.555
944.555
944.555
944.555
944.555
944.555
944.555
944.555
944.555
944.555
944.555
944.555
944.555
944.555
944.555
944.555
944.555
944.555
944.555
944.555
944.555
944.555
944.555
944.555
944.555
944.555
944.555
944.555
944.555
944.555
944.555
944.555
944.555
944.555
944.555
944.555
944.555
944.555
944.555
944.555
944.555
944.555
944.555
944.555
944.555
944.555
944.555
944.555
944.555
944.555
944.555
944.555
944.555
944.555
944.555
944.555
944.555
944.555
944.555
944.555
944.555
944.555
944.555
944.555
944.555
944.555
944.555
944.555
944.555
944.555
944.555
944.555
944.555
944.555
944.555
944.555
944.555
944.555
944.555
944.555
944.555
944.555
944.555
944.555
944.555
944.555
944.555
944.555
944.555
944.555
944.555
944.555
944.555
944.555
944.555
944.555
944.555
944.555
944.555
944.555
944.555
944.555
944.555
944.555
944.555
944.555
944.555
944.555
944.555
944.555
944.555
944.555
944.555
944.555
944.555
944.555
944.555
944.555
944.555
944.555
944.555
944.555
944.555
944.555
944.555
944.555
944.555
944.555
944.555
944.555
944.555
944.555
944.555
944.555
944.555
944.555
944.555
944.555
944.555
944.555
944.555
944.555
944.555
944.555
944.555
944.555
944.555
944.555
944.555
944.555
944.555
944.555
944.555
944.555
944.555
944.555
944.555
944.555
944.555
944.555
944.555
944.555
944.555
944.555
944.555
944.555
944.555
944.555
944.555
944.555
944.555
944.555
944.555
944.555
944.555
944.555
944.555
944.555
944.555
944.555
944.555
944.555
944.555
944.555
944.555
944.555
944.555
944.555
944.555
944.555
944.555
944.555
944.555
944.555
944.555
944.555
944.555
944.555
944.555
944.555
944.555
944.555
944.555
944.555
944.555
944.555
944.555
944.555
944.555
944.555
944.555
944.555
944.555
944.555
944.555
944.555
944.555
944.555
944.555
944.555
944.555
944.555
944.555
944.555
944.555
944.555
944.555
944.555
944.555
944.555
944.555
944.555
944.555
944.555
944.555
944.555
944.555
944.555
944.555
944.555
944.555
944.555
944.555
944.555
944.555
944.555
944.555
944.555
944.555
944.555
944.555
944.555
944.555
944.555
944.555
944.555
944.555
944.555
944.555
944.555
944.555
944.555
944.555
944.555
944.555
944.555
944.555
944.555
944.555
944.555
944.555
944.555
944.555
944.555
944.555
944.555
944.555
944.555
944.555
944.555
944.555
944.555
944.555
944.555
944.555
944.555
944.555
944.555
944.555
944.555
944.555
944.555
944.555
944.555
944.555
944.555
944.555
944.555
944.555
944.555
944.555
944.555
944.555
944.555
944.555
944.555
944.555
944.555
944.555
944.555
944.555
944.555
944.555
944.555
944.555
944.555
944.555
944.555
944.555
944.555
944.555
944.555
944.555
944.555
944.555
944.555
944.555
944.555
944.555
944.555
944.555
944.555
944.555
944.555
944.555
944.555
944.555
944.555
944.555
944.555
944.555
944.555
944.555
944.555
944.555
944.555
944.555
944.555
944.555
944.555
944.555
944.555
944.555
944.555
944.555
944.555
944.555
944.555
944.555
944.555
944.555
944.555
944.555
944.555
944.555
944.555
944.555
944.555
944.555
944.555
944.555
944.555
944.555
944.555
944.555
944.555
944.555
944.555
944.555
944.555
944.555
944.555
944.555
944.555
944.555
944.555
944.555
944.555
944.555
944.555
944.555
944.555
944.555
944.555
944.555
944.555
944.555
944.555
944.555
944.555
944.555
944.555
944.555
944.555
944.555
944.555
944.555
944.555
944.555
944.555
944.555
944.555
944.555
944.555
944.555
944.555
944.555
944.555
944.555
944.555
944.555
944.555
944.555
944.555
944.555
944.555
944.555
944.555
944.555
944.555
944.555
944.555
944.555
944.555
944.555
944.555
944.555
944.555
944.555
944.555
944.555
944.555
944.555
944.555
944.555
944.555
944.555
944.555
944.555
944.555
944.555
944.555
944.555
944.555
944.555
944.555
944.555
944.555
944.555
944.555
944.555
944.555
944.555
944.555
944.555
944.555
944.555
944.555
944.555
944.555
944.555
944.555
944.555
944.555
944.555
944.555
944.555
944.555
944.555
944.555
944.555
944.555
944.555
944.555
944.555
944.555
944.555
944.555
944.555
944.555
944.555
944.555
944.555
944.555
944.555
944.555
944.555
944.555
944.555
944.555
944.555
944.555
944.555
944.555
944.555
944.555
944.555
944.555
944.555
944.555
944.555
944.555
944.555
944.555
944.555
944.555
944.555
944.555
944.555
944.555
944.555
944.555
944.555
944.555
944.555
944.555
944.555
944.555
944.555
944.555
944.555
944.555
944.555
944.555
944.555
944.555
944.555
944.555
944.555
944.555
944.555
944.555
944.555
944.555
944.555
944.555
944.555
944.555
944.555
944.555
944.555
944.555
944.555
944.555
944.555
944.555
944.555
944.555
944.555
944.555
944.555
944.555
944.555
944.555
944.555
944.555
944.555
944.555
944.555
944.555
944.555
944.555
944.555
944.555
944.555
944.555
944.555
944.555
944.555
944.555
944.555
944.555
944.555
944.555
944.555
944.555
944.555
944.555
944.555
944.555
944.555
944.555
944.555