/*--------------------------------*- C++ -*----------------------------------*\
| =========                 |                                                 |
| \\      /  F ield         | OpenFOAM: The Open Source CFD Toolbox           |
|  \\    /   O peration     | Version:  2.1.0                                 |
|   \\  /    A nd           | Web:      www.OpenFOAM.org                      |
|    \\/     M anipulation  |                                                 |
\*---------------------------------------------------------------------------*/
FoamFile
{
    version     2.0;
    format      ascii;
    class       volScalarField;
    location    "0.47";
    object      T;
}
// * * * * * * * * * * * * * * * * * * * * * * * * * * * * * * * * * * * * * //

dimensions      [0 0 0 1 0 0 0];

internalField   nonuniform List<scalar> 
6400
(
390.051
390.146
390.24
390.332
390.422
390.51
390.596
390.68
390.762
390.841
390.918
390.993
391.066
391.137
391.206
391.273
391.338
391.4
391.461
391.52
391.577
391.631
391.684
391.735
391.784
391.831
391.876
391.92
391.961
392.001
392.039
392.076
392.111
392.144
392.175
392.205
392.233
392.26
392.286
392.309
392.332
392.353
392.373
392.392
392.409
392.425
392.44
392.454
392.466
392.478
392.489
392.498
392.507
392.515
392.522
392.528
392.533
392.537
392.541
392.544
392.546
392.547
392.548
392.549
392.548
392.547
392.546
392.543
392.54
392.537
392.532
392.527
392.521
392.515
392.507
392.498
392.489
392.478
392.465
392.451
392.435
392.417
392.396
392.372
392.342
392.307
392.261
392.202
392.122
392.004
391.821
391.505
390.9
389.68
388.073
391.32
393.094
393.149
393.15
393.15
389.363
389.471
389.582
389.692
389.801
389.907
390.013
390.116
390.217
390.316
390.413
390.508
390.6
390.691
390.78
390.866
390.951
391.033
391.113
391.192
391.268
391.342
391.413
391.483
391.551
391.616
391.68
391.741
391.8
391.857
391.912
391.964
392.015
392.063
392.11
392.154
392.197
392.237
392.276
392.313
392.348
392.381
392.412
392.441
392.469
392.495
392.52
392.543
392.565
392.585
392.604
392.621
392.637
392.652
392.666
392.678
392.69
392.701
392.711
392.719
392.728
392.735
392.742
392.748
392.753
392.758
392.763
392.767
392.771
392.774
392.777
392.78
392.783
392.785
392.787
392.789
392.79
392.792
392.793
392.793
392.794
392.794
392.794
392.793
392.792
392.791
392.789
392.787
392.784
392.783
392.783
392.79
392.81
392.857
392.948
393.074
393.145
393.15
393.15
393.15
388.424
388.547
388.676
388.805
388.934
389.061
389.187
389.311
389.434
389.554
389.673
389.789
389.904
390.016
390.127
390.235
390.341
390.445
390.548
390.648
390.745
390.841
390.935
391.026
391.116
391.203
391.287
391.37
391.45
391.528
391.603
391.676
391.746
391.814
391.88
391.943
392.004
392.062
392.118
392.172
392.224
392.273
392.319
392.364
392.406
392.446
392.484
392.52
392.554
392.586
392.616
392.644
392.671
392.696
392.719
392.741
392.761
392.78
392.797
392.814
392.829
392.843
392.856
392.868
392.88
392.891
392.901
392.91
392.92
392.928
392.937
392.945
392.953
392.961
392.969
392.977
392.985
392.993
393.001
393.01
393.018
393.027
393.036
393.045
393.054
393.064
393.073
393.083
393.092
393.101
393.111
393.12
393.128
393.136
393.142
393.146
393.15
393.15
393.15
393.15
387.028
387.167
387.316
387.466
387.618
387.769
387.919
388.068
388.216
388.362
388.506
388.649
388.79
388.929
389.066
389.201
389.335
389.466
389.596
389.723
389.848
389.972
390.093
390.212
390.329
390.443
390.556
390.666
390.774
390.879
390.982
391.082
391.18
391.276
391.368
391.459
391.546
391.631
391.713
391.793
391.869
391.943
392.014
392.083
392.149
392.212
392.272
392.329
392.384
392.437
392.486
392.533
392.578
392.62
392.659
392.697
392.732
392.765
392.796
392.824
392.851
392.876
392.9
392.921
392.941
392.96
392.977
392.993
393.008
393.022
393.035
393.046
393.057
393.067
393.077
393.085
393.093
393.1
393.107
393.113
393.119
393.124
393.128
393.132
393.136
393.139
393.141
393.143
393.145
393.147
393.148
393.148
393.149
393.149
393.15
393.15
393.15
393.15
393.15
393.15
384.945
385.101
385.268
385.439
385.613
385.788
385.963
386.137
386.31
386.483
386.654
386.824
386.993
387.16
387.326
387.491
387.655
387.816
387.977
388.135
388.292
388.448
388.601
388.753
388.902
389.05
389.196
389.339
389.481
389.621
389.759
389.895
390.028
390.16
390.289
390.415
390.54
390.662
390.781
390.898
391.012
391.123
391.231
391.337
391.439
391.539
391.636
391.729
391.819
391.906
391.99
392.07
392.148
392.221
392.292
392.359
392.423
392.483
392.541
392.595
392.645
392.693
392.737
392.779
392.817
392.853
392.885
392.915
392.943
392.968
392.991
393.012
393.03
393.047
393.062
393.075
393.086
393.097
393.106
393.113
393.12
393.126
393.131
393.135
393.138
393.141
393.144
393.146
393.147
393.148
393.149
393.149
393.15
393.15
393.15
393.15
393.15
393.15
393.15
393.15
381.752
381.922
382.103
382.29
382.48
382.672
382.865
383.058
383.251
383.444
383.636
383.827
384.018
384.209
384.399
384.589
384.778
384.966
385.154
385.341
385.528
385.713
385.898
386.082
386.265
386.447
386.628
386.808
386.987
387.164
387.341
387.516
387.691
387.864
388.036
388.206
388.375
388.542
388.708
388.873
389.035
389.196
389.355
389.511
389.666
389.818
389.969
390.116
390.261
390.403
390.543
390.679
390.813
390.943
391.07
391.193
391.313
391.429
391.541
391.649
391.753
391.853
391.949
392.041
392.128
392.211
392.29
392.364
392.435
392.501
392.563
392.62
392.675
392.725
392.771
392.814
392.854
392.89
392.924
392.954
392.982
393.007
393.029
393.05
393.068
393.084
393.098
393.11
393.121
393.13
393.137
393.142
393.145
393.148
393.149
393.149
393.149
393.15
393.15
393.15
376.833
377.007
377.191
377.381
377.574
377.769
377.965
378.162
378.359
378.556
378.753
378.95
379.146
379.343
379.54
379.738
379.935
380.134
380.332
380.532
380.731
380.932
381.134
381.337
381.539
381.742
381.944
382.147
382.349
382.552
382.754
382.957
383.159
383.362
383.565
383.768
383.971
384.174
384.378
384.582
384.786
384.99
385.195
385.4
385.605
385.81
386.016
386.222
386.428
386.634
386.841
387.047
387.253
387.458
387.663
387.868
388.072
388.275
388.477
388.677
388.876
389.072
389.267
389.458
389.647
389.833
390.016
390.195
390.369
390.54
390.707
390.868
391.026
391.178
391.325
391.467
391.604
391.736
391.863
391.985
392.101
392.212
392.318
392.418
392.514
392.605
392.69
392.77
392.844
392.911
392.971
393.021
393.062
393.092
393.112
393.123
393.131
393.137
393.141
393.143
369.66
369.821
369.988
370.161
370.335
370.511
370.686
370.862
371.037
371.212
371.385
371.559
371.732
371.905
372.077
372.25
372.422
372.594
372.766
372.938
373.11
373.284
373.457
373.631
373.805
373.98
374.155
374.331
374.507
374.685
374.863
375.043
375.223
375.406
375.589
375.775
375.962
376.152
376.343
376.538
376.734
376.934
377.136
377.342
377.551
377.764
377.98
378.2
378.424
378.652
378.884
379.121
379.361
379.607
379.857
380.112
380.371
380.636
380.905
381.179
381.458
381.741
382.029
382.321
382.617
382.918
383.222
383.53
383.841
384.156
384.473
384.793
385.116
385.44
385.767
386.095
386.425
386.756
387.089
387.423
387.759
388.098
388.439
388.784
389.132
389.483
389.837
390.193
390.549
390.902
391.247
391.577
391.882
392.153
392.378
392.542
392.677
392.785
392.865
392.918
359.587
359.701
359.818
359.937
360.055
360.174
360.29
360.406
360.52
360.633
360.744
360.854
360.961
361.068
361.172
361.276
361.377
361.478
361.576
361.674
361.77
361.865
361.958
362.052
362.145
362.24
362.335
362.432
362.53
362.631
362.732
362.837
362.943
363.052
363.163
363.278
363.395
363.516
363.64
363.768
363.899
364.034
364.172
364.315
364.463
364.614
364.77
364.93
365.096
365.266
365.442
365.622
365.808
366
366.198
366.401
366.612
366.828
367.052
367.283
367.521
367.767
368.02
368.282
368.552
368.831
369.118
369.416
369.724
370.041
370.37
370.71
371.062
371.427
371.804
372.196
372.605
373.032
373.478
373.943
374.43
374.94
375.478
376.047
376.653
377.298
377.989
378.73
379.527
380.383
381.296
382.264
383.279
384.328
385.39
386.417
387.316
388.142
388.848
389.373
346.337
346.37
346.403
346.436
346.468
346.499
346.529
346.559
346.588
346.616
346.643
346.67
346.696
346.721
346.746
346.771
346.795
346.819
346.843
346.868
346.892
346.917
346.943
346.969
346.996
347.024
347.053
347.082
347.113
347.145
347.178
347.212
347.247
347.284
347.321
347.359
347.399
347.44
347.481
347.524
347.568
347.613
347.659
347.705
347.753
347.802
347.851
347.902
347.954
348.006
348.059
348.114
348.169
348.226
348.283
348.341
348.4
348.461
348.524
348.588
348.654
348.721
348.791
348.863
348.938
349.016
349.096
349.18
349.268
349.361
349.458
349.561
349.67
349.786
349.909
350.042
350.182
350.333
350.495
350.671
350.864
351.077
351.309
351.563
351.841
352.146
352.482
352.85
353.277
353.776
354.36
355.043
355.84
356.773
357.87
359.165
360.66
362.219
363.724
364.956
332.319
332.267
332.217
332.169
332.122
332.077
332.033
331.99
331.949
331.908
331.87
331.832
331.796
331.76
331.726
331.691
331.658
331.625
331.593
331.561
331.529
331.496
331.464
331.431
331.398
331.364
331.33
331.294
331.258
331.22
331.182
331.141
331.1
331.056
331.012
330.965
330.917
330.867
330.815
330.761
330.705
330.647
330.587
330.524
330.459
330.393
330.323
330.251
330.176
330.099
330.019
329.936
329.849
329.76
329.666
329.57
329.469
329.364
329.254
329.139
329.017
328.89
328.755
328.613
328.463
328.304
328.135
327.956
327.766
327.564
327.348
327.118
326.873
326.611
326.331
326.032
325.711
325.369
325.002
324.611
324.193
323.748
323.274
322.771
322.238
321.675
321.082
320.458
319.784
319.048
318.24
317.353
316.396
315.362
314.248
313.051
311.778
310.457
309.157
308.012
321.014
320.897
320.78
320.66
320.541
320.421
320.304
320.185
320.069
319.952
319.838
319.723
319.61
319.496
319.385
319.272
319.162
319.051
318.94
318.83
318.72
318.609
318.499
318.387
318.276
318.163
318.051
317.936
317.822
317.705
317.587
317.468
317.347
317.223
317.099
316.971
316.842
316.709
316.575
316.437
316.296
316.152
316.004
315.853
315.698
315.54
315.377
315.209
315.038
314.861
314.68
314.493
314.301
314.104
313.901
313.692
313.477
313.255
313.026
312.79
312.545
312.291
312.028
311.755
311.471
311.177
310.87
310.551
310.219
309.873
309.512
309.136
308.743
308.334
307.908
307.464
307.002
306.522
306.023
305.507
304.973
304.423
303.857
303.278
302.688
302.089
301.485
300.878
300.273
299.675
299.09
298.518
297.945
297.383
296.84
296.323
295.842
295.41
295.046
294.775
312.594
312.448
312.296
312.139
311.981
311.821
311.662
311.501
311.341
311.18
311.02
310.86
310.7
310.539
310.379
310.219
310.059
309.898
309.738
309.577
309.416
309.254
309.092
308.929
308.766
308.601
308.436
308.27
308.104
307.935
307.766
307.596
307.424
307.25
307.075
306.898
306.72
306.539
306.357
306.172
305.985
305.796
305.605
305.411
305.214
305.015
304.813
304.608
304.401
304.19
303.976
303.759
303.539
303.315
303.087
302.857
302.622
302.384
302.142
301.896
301.647
301.394
301.137
300.876
300.611
300.343
300.071
299.795
299.517
299.235
298.95
298.664
298.375
298.084
297.793
297.501
297.209
296.919
296.632
296.348
296.068
295.795
295.53
295.273
295.027
294.793
294.573
294.368
294.18
294.01
293.859
293.73
293.622
293.53
293.45
293.383
293.327
293.284
293.252
293.231
306.494
306.347
306.189
306.026
305.86
305.692
305.523
305.353
305.184
305.014
304.844
304.674
304.504
304.334
304.164
303.994
303.824
303.654
303.484
303.313
303.142
302.971
302.8
302.628
302.456
302.283
302.11
301.937
301.763
301.589
301.415
301.24
301.065
300.889
300.713
300.536
300.359
300.182
300.005
299.827
299.65
299.472
299.294
299.117
298.939
298.762
298.585
298.409
298.233
298.058
297.883
297.709
297.536
297.364
297.193
297.023
296.854
296.686
296.52
296.356
296.194
296.035
295.877
295.722
295.57
295.421
295.275
295.132
294.993
294.857
294.726
294.598
294.475
294.356
294.242
294.133
294.029
293.931
293.838
293.751
293.669
293.594
293.525
293.463
293.407
293.357
293.314
293.277
293.247
293.222
293.202
293.187
293.176
293.169
293.163
293.159
293.156
293.154
293.153
293.152
302.369
302.23
302.081
301.926
301.769
301.61
301.45
301.29
301.13
300.97
300.81
300.651
300.492
300.333
300.175
300.018
299.861
299.704
299.548
299.392
299.237
299.082
298.928
298.774
298.622
298.469
298.318
298.167
298.017
297.868
297.72
297.573
297.427
297.282
297.138
296.996
296.855
296.715
296.577
296.441
296.307
296.174
296.043
295.915
295.789
295.664
295.543
295.423
295.307
295.193
295.081
294.973
294.867
294.765
294.666
294.569
294.476
294.387
294.3
294.217
294.138
294.062
293.989
293.92
293.854
293.791
293.732
293.677
293.624
293.575
293.529
293.486
293.447
293.41
293.376
293.345
293.317
293.292
293.269
293.249
293.231
293.215
293.202
293.19
293.181
293.173
293.166
293.162
293.158
293.155
293.153
293.152
293.151
293.151
293.15
293.15
293.15
293.15
293.15
293.15
299.648
299.525
299.392
299.254
299.114
298.973
298.831
298.69
298.549
298.41
298.27
298.132
297.995
297.858
297.723
297.589
297.456
297.323
297.193
297.063
296.934
296.807
296.682
296.558
296.435
296.314
296.194
296.077
295.961
295.847
295.735
295.624
295.516
295.409
295.305
295.202
295.102
295.005
294.909
294.816
294.725
294.637
294.552
294.469
294.389
294.311
294.237
294.165
294.095
294.029
293.966
293.905
293.847
293.792
293.74
293.691
293.644
293.6
293.559
293.52
293.484
293.45
293.419
293.39
293.363
293.339
293.316
293.296
293.277
293.26
293.245
293.231
293.219
293.208
293.199
293.19
293.183
293.177
293.171
293.167
293.163
293.16
293.157
293.155
293.154
293.153
293.152
293.151
293.151
293.15
293.15
293.15
293.15
293.15
293.15
293.15
293.15
293.15
293.15
293.15
297.804
297.698
297.583
297.465
297.347
297.228
297.11
296.992
296.875
296.76
296.646
296.533
296.421
296.31
296.201
296.093
295.987
295.882
295.779
295.678
295.578
295.479
295.383
295.288
295.195
295.103
295.014
294.927
294.841
294.757
294.676
294.596
294.519
294.444
294.371
294.301
294.232
294.167
294.103
294.042
293.983
293.926
293.872
293.82
293.771
293.724
293.679
293.637
293.596
293.559
293.523
293.489
293.458
293.429
293.401
293.376
293.353
293.331
293.311
293.293
293.276
293.261
293.247
293.234
293.223
293.213
293.204
293.196
293.189
293.183
293.177
293.173
293.169
293.165
293.162
293.16
293.158
293.156
293.154
293.153
293.152
293.152
293.151
293.151
293.151
293.15
293.15
293.15
293.15
293.15
293.15
293.15
293.15
293.15
293.15
293.15
293.15
293.15
293.15
293.15
296.495
296.406
296.31
296.214
296.118
296.022
295.927
295.833
295.74
295.649
295.559
295.47
295.383
295.297
295.212
295.129
295.048
294.968
294.89
294.813
294.738
294.664
294.593
294.523
294.454
294.388
294.323
294.26
294.198
294.139
294.082
294.026
293.973
293.921
293.872
293.824
293.778
293.735
293.693
293.653
293.616
293.58
293.546
293.514
293.483
293.455
293.428
293.402
293.379
293.357
293.337
293.318
293.3
293.284
293.269
293.256
293.243
293.232
293.222
293.212
293.204
293.197
293.19
293.184
293.179
293.175
293.171
293.167
293.164
293.162
293.159
293.158
293.156
293.155
293.154
293.153
293.152
293.152
293.151
293.151
293.151
293.15
293.15
293.15
293.15
293.15
293.15
293.15
293.15
293.15
293.15
293.15
293.15
293.15
293.15
293.15
293.15
293.15
293.15
293.15
295.535
295.461
295.385
295.309
295.233
295.158
295.084
295.011
294.939
294.869
294.8
294.732
294.666
294.601
294.537
294.475
294.414
294.355
294.298
294.241
294.187
294.133
294.082
294.031
293.983
293.936
293.89
293.846
293.804
293.763
293.724
293.687
293.651
293.616
293.584
293.552
293.523
293.495
293.468
293.442
293.419
293.396
293.375
293.355
293.337
293.319
293.303
293.288
293.274
293.261
293.249
293.239
293.229
293.219
293.211
293.204
293.197
293.191
293.185
293.18
293.176
293.172
293.169
293.166
293.163
293.161
293.159
293.157
293.156
293.155
293.154
293.153
293.152
293.152
293.151
293.151
293.151
293.151
293.15
293.15
293.15
293.15
293.15
293.15
293.15
293.15
293.15
293.15
293.15
293.15
293.15
293.15
293.15
293.15
293.15
293.15
293.15
293.15
293.15
293.15
294.68
294.625
294.57
294.515
294.46
294.407
294.355
294.304
294.254
294.205
294.157
294.111
294.066
294.022
293.979
293.937
293.897
293.858
293.82
293.784
293.748
293.714
293.681
293.649
293.619
293.59
293.562
293.535
293.509
293.485
293.462
293.439
293.418
293.398
293.379
293.361
293.345
293.329
293.314
293.3
293.287
293.274
293.263
293.252
293.242
293.233
293.225
293.217
293.21
293.203
293.197
293.192
293.187
293.182
293.178
293.175
293.171
293.168
293.166
293.163
293.161
293.16
293.158
293.157
293.156
293.155
293.154
293.153
293.153
293.152
293.152
293.151
293.151
293.151
293.151
293.15
293.15
293.15
293.15
293.15
293.15
293.15
293.15
293.15
293.15
293.15
293.15
293.15
293.15
293.15
293.15
293.15
293.15
293.15
293.15
293.15
293.15
293.15
293.15
293.15
393.15
393.15
393.15
393.15
393.15
393.15
393.15
393.15
393.15
393.15
393.15
393.15
393.15
393.15
393.15
393.15
393.15
393.15
393.15
393.15
393.15
393.15
393.15
393.15
393.15
393.15
393.15
393.15
393.15
393.15
393.15
393.15
393.15
393.15
393.15
393.15
393.15
393.15
393.15
393.15
393.15
393.15
393.15
393.15
393.15
393.15
393.15
393.15
393.15
393.15
393.15
393.15
393.15
393.15
393.15
393.15
393.15
393.15
393.15
393.15
393.15
393.15
393.15
393.15
393.15
393.15
393.15
393.15
393.15
393.15
393.15
393.15
393.15
393.15
393.15
393.15
393.15
393.149
393.149
393.146
393.15
393.15
393.15
393.15
393.15
393.15
393.15
393.15
393.15
393.15
393.15
393.15
393.15
393.149
393.149
393.148
393.146
393.142
393.129
393.077
393.15
393.15
393.15
393.15
393.15
393.149
393.149
393.149
393.149
393.148
393.148
393.147
393.146
393.144
393.14
393.131
393.113
393.067
392.921
392.204
393.143
393.141
393.139
393.137
393.134
393.131
393.127
393.124
393.123
393.122
393.12
393.116
393.109
393.096
393.071
393.016
392.893
392.563
391.407
384.898
392.919
392.893
392.865
392.834
392.803
392.778
392.764
392.765
392.777
392.79
392.802
392.805
392.795
392.757
392.657
392.432
391.911
390.538
385.763
357.138
389.496
389.338
389.189
389.049
388.947
388.948
389.017
389.159
389.304
389.469
389.638
389.822
389.987
390.111
390.006
389.484
388.07
384.735
376.061
323.698
365.387
365.071
364.773
364.518
364.369
364.471
364.663
364.875
365.149
365.544
366.027
366.697
367.457
368.492
369.283
369.474
367.751
363.04
351.945
323.111
307.492
307.663
307.789
307.876
307.861
307.585
307.225
306.855
306.466
306.012
305.52
304.914
304.25
303.402
302.846
302.75
303.61
305.082
306.466
308.395
294.699
294.767
294.829
294.885
294.921
294.905
294.853
294.759
294.664
294.56
294.455
294.334
294.219
294.089
294.007
293.986
294.072
294.259
294.662
300.562
293.229
293.238
293.248
293.259
293.27
293.279
293.283
293.279
293.272
293.261
293.251
293.239
293.23
293.221
293.217
293.219
293.234
293.282
293.513
295.979
293.152
293.152
293.153
293.154
293.154
293.155
293.156
293.157
293.157
293.156
293.156
293.155
293.155
293.155
293.155
293.156
293.159
293.169
293.214
293.629
293.15
293.15
293.15
293.15
293.15
293.15
293.15
293.15
293.15
293.15
293.15
293.15
293.15
293.15
293.15
293.15
293.151
293.151
293.153
293.159
293.15
293.15
293.15
293.15
293.15
293.15
293.15
293.15
293.15
293.15
293.15
293.15
293.15
293.15
293.15
293.15
293.15
293.15
293.15
293.15
293.15
293.15
293.15
293.15
293.15
293.15
293.15
293.15
293.15
293.15
293.15
293.15
293.15
293.15
293.15
293.15
293.15
293.15
293.15
293.15
293.15
293.15
293.15
293.15
293.15
293.15
293.15
293.15
293.15
293.15
293.15
293.15
293.15
293.15
293.15
293.15
293.15
293.15
293.15
293.15
293.15
293.15
293.15
293.15
293.15
293.15
293.15
293.15
293.15
293.15
293.15
293.15
293.15
293.15
293.15
293.15
293.15
293.15
293.15
293.15
293.15
293.15
293.15
293.15
293.15
293.15
293.15
293.15
293.15
293.15
293.15
293.15
293.15
293.15
293.15
293.15
293.15
293.15
293.15
293.15
393.15
393.15
393.15
393.15
393.15
393.15
393.15
393.15
393.15
393.15
393.15
393.15
393.15
393.15
393.15
393.15
393.15
393.15
393.15
393.15
393.15
393.15
393.15
393.15
393.15
393.15
393.15
393.15
393.15
393.15
393.15
393.15
393.15
393.15
393.15
393.15
393.15
393.15
393.15
393.15
393.15
393.15
393.15
393.15
393.15
393.15
393.15
393.15
393.15
393.15
393.15
393.15
393.15
393.15
393.15
393.15
393.15
393.15
393.15
393.15
393.15
393.15
393.15
393.15
393.15
393.15
393.15
393.15
393.15
393.15
393.15
393.15
393.15
393.15
393.15
393.15
393.15
393.15
393.15
393.15
393.15
393.15
393.15
393.15
393.15
393.15
393.15
393.15
393.15
393.15
393.15
393.15
393.15
393.15
393.15
393.15
393.15
393.15
393.15
393.15
393.15
393.15
393.15
393.15
393.15
393.15
393.15
393.15
393.15
393.15
393.15
393.15
393.15
393.15
393.15
393.15
393.15
393.15
393.15
393.15
393.15
393.15
393.15
393.15
393.15
393.15
393.15
393.15
393.15
393.15
393.15
393.15
393.15
393.15
393.15
393.15
393.15
393.15
393.15
393.15
393.15
393.15
393.15
393.15
393.15
393.15
393.15
393.15
393.15
393.15
393.15
393.15
393.15
393.15
393.15
393.15
393.15
393.15
393.15
393.15
393.15
393.15
393.15
393.15
393.15
393.15
393.15
393.15
393.15
393.15
393.15
393.15
393.15
393.15
393.15
393.15
393.15
393.15
393.15
393.15
393.15
393.15
393.15
393.15
393.15
393.15
393.15
393.15
393.15
393.15
393.15
393.15
393.15
393.15
393.15
393.15
393.15
393.15
393.15
393.15
393.15
393.15
393.15
393.15
393.15
393.15
393.15
393.15
393.15
393.15
393.15
393.15
393.15
393.15
393.15
393.15
393.15
393.15
393.15
393.15
393.15
393.15
393.15
393.15
393.15
393.15
393.15
393.15
393.15
393.15
393.15
393.15
393.15
393.15
393.15
393.15
393.15
393.15
393.15
393.15
393.15
393.15
393.15
393.15
393.15
393.15
393.15
393.15
393.15
393.15
393.15
393.15
393.15
393.15
393.15
393.15
393.15
393.15
393.15
393.15
393.15
393.15
393.15
393.15
393.15
393.15
393.15
393.15
393.15
393.15
393.15
393.15
393.15
393.15
393.15
393.15
393.15
393.15
393.15
393.15
393.15
393.15
393.15
393.15
393.15
393.15
393.15
393.15
393.15
393.15
393.15
393.15
393.15
393.15
393.15
393.15
393.15
393.15
393.15
393.15
393.15
393.15
393.15
393.15
393.15
393.15
393.15
393.15
393.15
393.15
393.15
393.15
393.15
393.15
393.15
393.15
393.15
393.15
393.15
393.15
393.15
393.15
393.15
393.15
393.15
393.15
393.15
393.15
393.15
393.15
393.15
393.15
393.15
393.15
393.15
393.15
393.15
393.15
393.15
393.15
393.15
393.15
393.15
393.15
393.15
393.15
393.15
393.15
393.15
393.15
393.15
393.15
393.15
393.15
393.15
393.15
393.15
393.15
393.15
393.15
393.15
393.15
393.15
393.15
393.15
393.15
393.15
393.15
393.15
393.15
393.15
393.15
393.15
393.15
393.15
393.15
393.15
393.15
393.15
393.15
393.15
393.15
393.15
393.15
393.15
393.15
393.15
393.15
393.15
393.15
393.15
393.15
393.15
393.15
393.15
393.15
393.15
393.15
393.15
393.15
393.15
393.15
393.15
393.15
393.15
393.15
393.15
393.15
393.15
393.15
393.15
393.15
393.15
393.15
393.15
393.15
393.15
393.15
393.15
393.15
393.15
393.15
393.15
393.15
393.15
393.15
393.15
393.15
393.15
393.15
393.15
393.15
393.15
393.15
393.15
393.15
393.15
393.15
393.15
393.15
393.15
393.15
393.15
393.15
393.15
393.15
393.15
393.15
393.15
393.15
393.15
393.15
393.15
393.15
393.15
393.15
393.15
393.15
393.15
393.15
393.15
393.15
393.15
393.15
393.15
393.15
393.15
393.15
393.15
393.15
393.15
393.15
393.15
393.15
393.15
393.15
393.15
393.15
393.15
393.15
393.15
393.15
393.15
393.15
393.15
393.15
393.15
393.15
393.15
393.15
393.15
393.15
393.15
393.15
393.15
393.15
393.15
393.15
393.15
393.15
393.15
393.15
393.15
393.15
393.15
393.15
393.15
393.15
393.15
393.15
393.15
393.15
393.15
393.15
393.15
393.15
393.15
393.15
393.15
393.15
393.15
393.15
393.15
393.15
393.15
393.15
393.15
393.15
393.15
393.15
393.15
393.15
393.15
393.15
393.15
393.15
393.15
393.15
393.15
393.15
393.15
393.15
393.15
393.15
393.15
393.15
393.15
393.15
393.15
393.15
393.15
393.15
393.15
393.15
393.15
393.15
393.15
393.15
393.15
393.15
393.15
393.15
393.15
393.15
393.15
393.15
393.15
393.15
393.15
393.15
393.15
393.15
393.15
393.15
393.15
393.15
393.15
393.15
393.15
393.15
393.15
393.15
393.15
393.15
393.15
393.15
393.15
393.15
393.15
393.15
393.15
393.15
393.15
393.15
393.15
393.15
393.15
393.15
393.15
393.15
393.15
393.15
393.15
393.15
393.15
393.15
393.15
393.15
393.15
393.15
393.15
393.15
393.15
393.15
393.15
393.15
393.15
393.15
393.15
393.15
393.15
393.15
393.15
393.15
393.15
393.15
393.15
393.15
393.15
393.15
393.15
393.15
393.15
393.15
393.15
393.15
393.15
393.15
393.15
393.15
393.15
393.15
393.15
393.15
393.15
393.15
393.15
393.15
393.15
393.15
393.15
393.15
393.15
393.15
393.15
393.15
393.15
393.15
393.15
393.15
393.15
393.15
393.15
393.15
393.15
393.15
393.15
393.15
393.15
393.15
393.15
393.15
393.15
393.15
393.15
393.15
393.15
393.15
393.15
393.15
393.15
393.15
393.15
393.15
393.15
393.15
393.15
393.15
393.15
393.15
393.15
393.15
393.15
393.15
393.15
393.15
393.15
393.15
393.15
393.15
393.15
393.15
393.15
393.15
393.15
393.15
393.15
393.15
393.15
393.15
393.15
393.15
393.15
393.15
393.15
393.15
393.15
393.15
393.15
393.15
393.15
393.15
393.15
393.15
393.15
393.15
393.15
393.15
393.15
393.15
393.15
393.15
393.15
393.15
393.15
393.15
393.15
393.15
393.15
393.15
393.15
393.15
393.15
393.15
393.15
393.15
393.15
393.15
393.15
393.15
393.15
393.15
393.15
393.15
393.15
393.15
393.15
393.15
393.15
393.15
393.15
393.15
393.15
393.15
393.15
393.15
393.15
393.15
393.15
393.15
393.15
393.15
393.15
393.15
393.15
393.15
393.15
393.15
393.15
393.15
393.15
393.15
393.15
393.15
393.15
393.15
393.15
393.15
393.15
393.15
393.15
393.15
393.15
393.15
393.15
393.15
393.15
393.15
393.15
393.15
393.15
393.15
393.15
393.15
393.15
393.15
393.15
393.15
393.15
393.15
393.15
393.15
393.15
393.15
393.15
393.15
393.15
393.15
393.15
393.15
393.15
393.15
393.15
393.15
393.15
393.15
393.15
393.15
393.15
393.15
393.15
393.15
393.15
393.15
393.15
393.15
393.15
393.15
393.15
393.15
393.15
393.15
393.15
393.15
393.15
393.15
393.15
393.15
393.15
393.15
393.15
393.15
393.15
393.15
393.15
393.15
393.15
393.15
393.15
393.15
393.15
393.15
393.15
393.15
393.15
393.15
393.15
393.15
393.15
393.15
393.15
393.15
393.15
393.15
393.15
393.15
393.15
393.15
393.15
393.15
393.15
393.15
393.15
393.15
393.15
393.15
393.15
393.15
393.15
393.15
393.15
393.15
393.15
393.15
393.15
393.15
393.15
393.15
393.15
393.15
393.15
393.15
393.15
393.15
393.15
393.15
393.15
393.15
393.15
393.15
393.15
393.15
393.15
393.15
393.15
393.15
393.15
393.15
393.15
393.15
393.15
393.15
393.15
393.15
393.15
393.15
393.15
393.15
393.15
393.15
393.15
393.15
393.15
393.15
393.15
393.15
393.15
393.15
393.15
393.15
393.15
393.15
393.15
393.15
393.15
393.15
393.15
393.15
393.15
393.15
393.15
393.15
393.15
393.15
393.15
393.15
393.15
393.15
393.15
393.15
393.15
393.15
393.15
393.15
393.15
393.15
393.15
393.15
393.15
393.15
393.15
393.15
393.15
393.15
393.15
393.15
393.15
393.15
393.15
393.15
393.15
393.15
393.15
393.15
393.15
393.15
393.15
393.15
393.15
393.15
393.15
393.15
393.15
393.15
393.15
393.15
393.15
393.15
393.15
393.15
393.15
393.15
393.15
393.15
393.15
393.15
393.15
393.15
393.15
393.15
393.15
393.15
393.15
393.15
393.15
393.15
393.15
393.15
393.15
393.15
393.15
393.15
393.15
393.15
393.15
393.15
393.15
393.15
393.15
393.15
393.15
393.15
393.15
393.15
393.15
393.15
393.15
393.15
393.15
393.15
393.15
393.15
393.15
393.15
393.15
393.15
393.15
393.15
393.15
393.15
393.15
393.15
393.15
393.15
393.15
393.15
393.15
393.15
393.15
393.15
393.15
393.15
393.15
393.15
393.15
393.15
393.15
393.15
393.15
393.15
393.15
393.15
393.15
393.15
393.15
393.15
393.15
393.15
393.15
393.15
393.15
393.15
393.15
393.15
393.15
393.15
393.15
393.15
393.15
393.15
393.15
393.15
393.15
393.15
393.15
393.15
393.15
393.15
393.15
393.15
393.15
393.15
393.15
393.15
393.15
393.15
393.15
393.15
393.15
393.15
393.15
393.15
393.15
393.15
393.15
393.15
393.15
393.15
393.15
393.15
393.15
393.15
393.15
393.15
393.15
393.15
393.15
393.15
393.15
393.15
393.15
393.15
393.15
393.15
393.15
393.15
393.15
393.15
393.15
393.15
393.15
393.15
393.15
393.15
393.15
393.15
393.15
393.15
393.15
393.15
393.15
393.15
393.15
393.15
393.15
393.15
393.15
393.15
393.15
393.15
393.15
393.15
393.15
393.15
393.15
393.15
393.15
393.15
393.15
393.15
393.15
393.15
393.15
393.15
393.15
393.15
393.15
393.15
393.15
393.15
393.15
393.15
393.15
393.15
393.15
393.15
393.15
393.15
393.15
393.15
393.15
393.15
393.15
393.15
393.15
393.15
393.15
393.15
393.15
393.15
393.15
393.15
393.15
393.15
393.15
393.15
393.15
393.15
393.15
393.15
393.15
393.15
393.15
393.15
393.15
393.15
393.15
393.15
393.15
393.15
393.15
393.15
393.15
393.15
393.15
393.15
393.15
393.15
393.15
393.15
393.15
393.15
393.15
393.15
393.15
393.15
393.15
393.15
393.15
393.15
393.15
393.15
393.15
393.15
393.15
393.15
393.15
393.15
393.15
393.15
393.15
393.15
393.15
393.15
393.15
393.15
393.15
393.15
393.15
393.15
393.15
393.15
393.15
393.15
393.15
393.15
393.15
393.15
393.15
393.15
393.15
393.15
393.15
393.15
393.15
393.15
393.15
393.15
393.15
393.15
393.15
393.15
393.15
393.15
393.15
393.15
393.15
393.15
393.15
393.15
393.15
393.15
393.15
393.15
393.15
393.15
393.15
393.15
393.15
393.15
393.15
393.15
393.15
393.15
393.15
393.15
393.15
393.15
393.15
393.15
393.15
393.15
393.15
393.15
393.15
393.15
393.15
393.15
393.15
393.15
393.15
393.15
393.15
393.15
393.15
393.15
393.15
393.15
393.15
393.15
393.15
393.15
393.15
393.15
393.15
393.15
393.15
393.15
393.15
393.15
393.15
393.15
393.15
393.15
393.15
393.15
393.15
393.15
393.15
393.15
393.15
393.15
393.15
393.15
393.15
393.15
393.15
393.15
393.15
393.15
393.15
393.15
393.15
393.15
393.15
393.15
393.15
393.15
393.15
393.15
393.15
393.15
393.15
393.15
393.15
393.15
393.15
393.15
393.15
393.15
393.15
393.15
393.15
393.15
393.15
393.15
393.15
393.15
393.15
393.15
393.15
393.15
393.15
393.15
393.15
393.15
393.15
393.15
393.15
393.15
393.15
393.15
393.15
393.15
393.15
393.15
393.15
393.15
393.15
393.15
393.15
393.15
393.15
393.15
393.15
393.15
393.15
393.15
393.15
393.15
393.15
393.15
393.15
393.15
393.15
393.15
393.15
393.15
393.15
393.15
393.15
393.15
393.15
393.15
393.15
393.15
393.15
393.15
393.15
393.15
393.15
393.15
393.15
393.15
393.15
393.15
393.15
393.15
393.15
393.15
393.15
393.15
393.15
393.15
393.15
393.15
393.15
393.15
393.15
393.15
393.15
393.15
393.15
393.15
393.15
393.15
393.15
393.15
393.15
393.15
393.15
393.15
393.15
393.15
393.15
393.15
393.15
393.15
393.15
393.15
393.15
393.15
393.15
393.15
393.15
393.15
393.15
393.15
393.15
393.15
393.15
393.15
393.15
393.15
393.15
393.15
393.15
393.15
393.15
393.15