/*--------------------------------*- C++ -*----------------------------------*\
| =========                 |                                                 |
| \\      /  F ield         | OpenFOAM: The Open Source CFD Toolbox           |
|  \\    /   O peration     | Version:  2.1.0                                 |
|   \\  /    A nd           | Web:      www.OpenFOAM.org                      |
|    \\/     M anipulation  |                                                 |
\*---------------------------------------------------------------------------*/
FoamFile
{
    version     2.0;
    format      ascii;
    class       volVectorField;
    location    "0.47";
    object      U;
}
// * * * * * * * * * * * * * * * * * * * * * * * * * * * * * * * * * * * * * //

dimensions      [0 1 -1 0 0 0 0];

internalField   nonuniform List<vector> 
6400
(
(-1.30082 -4.39999e-05 0)
(-1.29966 -0.000498117 0)
(-1.29726 -0.000788107 0)
(-1.29393 -0.000935629 0)
(-1.29013 -0.00102276 0)
(-1.28603 -0.00108124 0)
(-1.28174 -0.0011234 0)
(-1.27729 -0.00115657 0)
(-1.27273 -0.0011846 0)
(-1.26805 -0.0012099 0)
(-1.26328 -0.00123378 0)
(-1.25841 -0.00125704 0)
(-1.25344 -0.00128016 0)
(-1.24839 -0.00130333 0)
(-1.24324 -0.0013268 0)
(-1.23799 -0.00135056 0)
(-1.23265 -0.00137477 0)
(-1.22721 -0.00139934 0)
(-1.22168 -0.0014244 0)
(-1.21604 -0.00144981 0)
(-1.2103 -0.00147568 0)
(-1.20445 -0.00150182 0)
(-1.1985 -0.00152847 0)
(-1.19244 -0.00155565 0)
(-1.18627 -0.00158294 0)
(-1.17999 -0.00161078 0)
(-1.1736 -0.00164031 0)
(-1.16708 -0.00167103 0)
(-1.16044 -0.00170275 0)
(-1.15368 -0.00173537 0)
(-1.14678 -0.00176904 0)
(-1.13974 -0.00180377 0)
(-1.13257 -0.00183971 0)
(-1.12525 -0.00187691 0)
(-1.11777 -0.00191549 0)
(-1.11015 -0.00195544 0)
(-1.10236 -0.00199689 0)
(-1.0944 -0.00203988 0)
(-1.08627 -0.00208456 0)
(-1.07795 -0.00213107 0)
(-1.06945 -0.00217975 0)
(-1.06075 -0.00223055 0)
(-1.05185 -0.00228355 0)
(-1.04273 -0.00233889 0)
(-1.03339 -0.0023966 0)
(-1.02381 -0.00245673 0)
(-1.01399 -0.0025193 0)
(-1.00392 -0.00258422 0)
(-0.993586 -0.00265139 0)
(-0.982982 -0.00272092 0)
(-0.9721 -0.00279232 0)
(-0.960935 -0.00286379 0)
(-0.94948 -0.00293919 0)
(-0.937713 -0.00302107 0)
(-0.925614 -0.0031074 0)
(-0.913165 -0.00319669 0)
(-0.900374 -0.003284 0)
(-0.887241 -0.00336739 0)
(-0.873782 -0.00344906 0)
(-0.859999 -0.00353161 0)
(-0.845885 -0.003616 0)
(-0.831434 -0.00370236 0)
(-0.816637 -0.00379133 0)
(-0.801481 -0.0038837 0)
(-0.785954 -0.00397961 0)
(-0.770039 -0.00407964 0)
(-0.753721 -0.00418409 0)
(-0.73698 -0.00429377 0)
(-0.719794 -0.00440914 0)
(-0.702141 -0.0045306 0)
(-0.683996 -0.00465849 0)
(-0.665333 -0.00479347 0)
(-0.646122 -0.004936 0)
(-0.626332 -0.00508693 0)
(-0.605928 -0.00524719 0)
(-0.584872 -0.005418 0)
(-0.563118 -0.00560094 0)
(-0.540616 -0.005798 0)
(-0.517303 -0.00601201 0)
(-0.493105 -0.00624719 0)
(-0.467929 -0.00650876 0)
(-0.441657 -0.0068032 0)
(-0.414144 -0.00713888 0)
(-0.38521 -0.0075251 0)
(-0.354643 -0.00796915 0)
(-0.322208 -0.00847362 0)
(-0.28768 -0.00903385 0)
(-0.250881 -0.0096292 0)
(-0.211774 -0.0102083 0)
(-0.170646 -0.0106597 0)
(-0.128445 -0.0107565 0)
(-0.087444 -0.0100528 0)
(-0.0517915 -0.0080382 0)
(-0.0266107 -0.00473116 0)
(-0.0154942 -0.000902231 0)
(-0.0201094 0.00323046 0)
(-0.0488993 0.0113522 0)
(-0.129019 0.0292118 0)
(-0.328807 0.0711592 0)
(-0.948367 0.198979 0)
(-1.56766 -0.000322642 0)
(-1.5645 -0.00164281 0)
(-1.56234 -0.00239978 0)
(-1.55885 -0.00280252 0)
(-1.55502 -0.00304612 0)
(-1.55093 -0.00321023 0)
(-1.54668 -0.00332871 0)
(-1.54229 -0.00342177 0)
(-1.53781 -0.00350042 0)
(-1.53323 -0.00357131 0)
(-1.52857 -0.00363825 0)
(-1.52383 -0.0037034 0)
(-1.51901 -0.00376822 0)
(-1.51411 -0.00383324 0)
(-1.50913 -0.0038992 0)
(-1.50408 -0.00396605 0)
(-1.49894 -0.00403429 0)
(-1.49371 -0.00410366 0)
(-1.4884 -0.00417452 0)
(-1.48301 -0.00424652 0)
(-1.47752 -0.00431993 0)
(-1.47194 -0.00439422 0)
(-1.46626 -0.00446975 0)
(-1.4605 -0.00454688 0)
(-1.45464 -0.00462376 0)
(-1.44868 -0.0047012 0)
(-1.44263 -0.00478301 0)
(-1.43649 -0.00486757 0)
(-1.43025 -0.00495439 0)
(-1.42391 -0.00504338 0)
(-1.41746 -0.00513496 0)
(-1.41092 -0.00522917 0)
(-1.40427 -0.00532641 0)
(-1.39751 -0.00542681 0)
(-1.39064 -0.00553067 0)
(-1.38365 -0.00563803 0)
(-1.37655 -0.00574917 0)
(-1.36933 -0.00586433 0)
(-1.36198 -0.00598381 0)
(-1.35451 -0.00610767 0)
(-1.3469 -0.0062368 0)
(-1.33916 -0.00637127 0)
(-1.33127 -0.0065113 0)
(-1.32324 -0.00665732 0)
(-1.31506 -0.00680948 0)
(-1.30673 -0.00696802 0)
(-1.29822 -0.00713316 0)
(-1.28955 -0.00730494 0)
(-1.28069 -0.00748324 0)
(-1.27165 -0.00766853 0)
(-1.26241 -0.00786007 0)
(-1.25296 -0.00805292 0)
(-1.24332 -0.00825006 0)
(-1.23349 -0.00845503 0)
(-1.22349 -0.00866588 0)
(-1.21332 -0.00888158 0)
(-1.203 -0.00909634 0)
(-1.1925 -0.00930591 0)
(-1.18182 -0.00951253 0)
(-1.17096 -0.00972109 0)
(-1.15991 -0.00993383 0)
(-1.14868 -0.0101514 0)
(-1.13726 -0.0103749 0)
(-1.12564 -0.0106056 0)
(-1.11384 -0.0108441 0)
(-1.10183 -0.0110916 0)
(-1.08963 -0.011349 0)
(-1.07722 -0.0116179 0)
(-1.06459 -0.0118996 0)
(-1.05175 -0.0121957 0)
(-1.03868 -0.0125073 0)
(-1.02537 -0.0128365 0)
(-1.0118 -0.0131849 0)
(-0.997949 -0.0135551 0)
(-0.983804 -0.0139504 0)
(-0.969331 -0.0143743 0)
(-0.954497 -0.0148317 0)
(-0.93926 -0.0153281 0)
(-0.923574 -0.0158711 0)
(-0.907382 -0.0164716 0)
(-0.890617 -0.0171425 0)
(-0.873201 -0.0178989 0)
(-0.85505 -0.0187596 0)
(-0.836068 -0.0197451 0)
(-0.816152 -0.0208716 0)
(-0.795198 -0.0221442 0)
(-0.77311 -0.0235474 0)
(-0.749838 -0.0250251 0)
(-0.725421 -0.0264456 0)
(-0.700062 -0.0275381 0)
(-0.674216 -0.027778 0)
(-0.648653 -0.0262119 0)
(-0.624743 -0.0216142 0)
(-0.605402 -0.0134453 0)
(-0.599598 -0.000897254 0)
(-0.614947 0.013296 0)
(-0.663486 0.0398717 0)
(-0.767652 0.0921315 0)
(-0.970723 0.204431 0)
(-1.4595 0.526481 0)
(-1.71707 -0.000887018 0)
(-1.71301 -0.00286704 0)
(-1.7117 -0.00395384 0)
(-1.70876 -0.00455933 0)
(-1.70552 -0.00493239 0)
(-1.70207 -0.00518394 0)
(-1.69849 -0.00536447 0)
(-1.69481 -0.00550575 0)
(-1.69105 -0.00562412 0)
(-1.68723 -0.00573053 0)
(-1.68334 -0.00583041 0)
(-1.67941 -0.00592758 0)
(-1.67541 -0.00602395 0)
(-1.67137 -0.00612077 0)
(-1.66727 -0.0062189 0)
(-1.66312 -0.00631865 0)
(-1.65891 -0.00642051 0)
(-1.65465 -0.00652445 0)
(-1.65032 -0.00663083 0)
(-1.64594 -0.0067395 0)
(-1.64149 -0.00685076 0)
(-1.63698 -0.00696412 0)
(-1.63239 -0.00707985 0)
(-1.62773 -0.00719886 0)
(-1.62298 -0.00731859 0)
(-1.61817 -0.00743793 0)
(-1.61327 -0.00756008 0)
(-1.60831 -0.00768386 0)
(-1.60328 -0.0078096 0)
(-1.59819 -0.0079378 0)
(-1.59304 -0.00806903 0)
(-1.58783 -0.00820351 0)
(-1.58256 -0.00834162 0)
(-1.57723 -0.00848361 0)
(-1.57183 -0.00862976 0)
(-1.56637 -0.00878018 0)
(-1.56086 -0.00893509 0)
(-1.55528 -0.00909491 0)
(-1.54964 -0.00926009 0)
(-1.54394 -0.0094301 0)
(-1.53819 -0.00960603 0)
(-1.53237 -0.00978814 0)
(-1.5265 -0.00997658 0)
(-1.52058 -0.0101719 0)
(-1.51461 -0.0103743 0)
(-1.50858 -0.0105841 0)
(-1.50252 -0.0108016 0)
(-1.4964 -0.011027 0)
(-1.49025 -0.0112602 0)
(-1.48406 -0.0115013 0)
(-1.47783 -0.0117495 0)
(-1.47157 -0.0120007 0)
(-1.46532 -0.0122527 0)
(-1.45902 -0.0125044 0)
(-1.45272 -0.0127559 0)
(-1.44642 -0.0130084 0)
(-1.44014 -0.0132632 0)
(-1.43386 -0.0135172 0)
(-1.42758 -0.0137686 0)
(-1.42131 -0.0140205 0)
(-1.41505 -0.0142746 0)
(-1.40882 -0.0145322 0)
(-1.40262 -0.0147938 0)
(-1.39646 -0.0150599 0)
(-1.39036 -0.0153311 0)
(-1.38433 -0.0156082 0)
(-1.37839 -0.0158922 0)
(-1.37256 -0.0161842 0)
(-1.36685 -0.0164856 0)
(-1.36129 -0.0167983 0)
(-1.3559 -0.017124 0)
(-1.3507 -0.0174653 0)
(-1.3457 -0.0178247 0)
(-1.34093 -0.0182061 0)
(-1.33641 -0.0186142 0)
(-1.33215 -0.0190549 0)
(-1.32817 -0.0195356 0)
(-1.32447 -0.0200649 0)
(-1.32105 -0.0206534 0)
(-1.31791 -0.0213168 0)
(-1.31503 -0.0220729 0)
(-1.31239 -0.022941 0)
(-1.30996 -0.0239433 0)
(-1.3077 -0.0251028 0)
(-1.30558 -0.0264376 0)
(-1.30357 -0.0279521 0)
(-1.30163 -0.0296204 0)
(-1.29976 -0.0313602 0)
(-1.29804 -0.0329922 0)
(-1.29659 -0.0341688 0)
(-1.29567 -0.0342637 0)
(-1.29562 -0.0322328 0)
(-1.29695 -0.0265884 0)
(-1.30115 -0.0158412 0)
(-1.31019 0.00232925 0)
(-1.32738 0.026445 0)
(-1.36691 0.069689 0)
(-1.44325 0.149785 0)
(-1.58726 0.311594 0)
(-1.85833 0.719491 0)
(-1.8516 -0.00154586 0)
(-1.84727 -0.00386245 0)
(-1.84698 -0.00518576 0)
(-1.84494 -0.00595149 0)
(-1.84268 -0.00642783 0)
(-1.84026 -0.00674689 0)
(-1.83775 -0.00697272 0)
(-1.83518 -0.00714725 0)
(-1.83255 -0.00729079 0)
(-1.8299 -0.00741852 0)
(-1.82722 -0.00753668 0)
(-1.82453 -0.00765108 0)
(-1.8218 -0.0077635 0)
(-1.81908 -0.00787629 0)
(-1.81633 -0.00798995 0)
(-1.81358 -0.00810551 0)
(-1.8108 -0.00822311 0)
(-1.80803 -0.00834321 0)
(-1.80523 -0.00846591 0)
(-1.80243 -0.00859148 0)
(-1.79962 -0.00872019 0)
(-1.79681 -0.00885173 0)
(-1.79397 -0.0089863 0)
(-1.79114 -0.00912401 0)
(-1.78829 -0.00926426 0)
(-1.78546 -0.00940543 0)
(-1.78262 -0.00954613 0)
(-1.77976 -0.00968612 0)
(-1.7769 -0.00982674 0)
(-1.77404 -0.00996908 0)
(-1.77119 -0.0101137 0)
(-1.76834 -0.0102611 0)
(-1.76549 -0.0104113 0)
(-1.76266 -0.0105647 0)
(-1.75984 -0.0107214 0)
(-1.75704 -0.0108813 0)
(-1.75426 -0.0110446 0)
(-1.75152 -0.0112113 0)
(-1.7488 -0.0113821 0)
(-1.74612 -0.0115563 0)
(-1.74348 -0.0117345 0)
(-1.74089 -0.0119167 0)
(-1.73836 -0.0121029 0)
(-1.73589 -0.0122933 0)
(-1.7335 -0.0124878 0)
(-1.73119 -0.0126865 0)
(-1.72898 -0.0128892 0)
(-1.72688 -0.0130958 0)
(-1.7249 -0.0133059 0)
(-1.72306 -0.0135186 0)
(-1.72137 -0.0137321 0)
(-1.71984 -0.0139465 0)
(-1.7185 -0.0141627 0)
(-1.71731 -0.0143773 0)
(-1.71628 -0.0145881 0)
(-1.7154 -0.0147956 0)
(-1.71471 -0.0150026 0)
(-1.71419 -0.0152072 0)
(-1.71388 -0.0154061 0)
(-1.71377 -0.0156003 0)
(-1.71389 -0.0157904 0)
(-1.71425 -0.015977 0)
(-1.71487 -0.0161605 0)
(-1.71577 -0.0163411 0)
(-1.71696 -0.0165191 0)
(-1.71846 -0.0166948 0)
(-1.72029 -0.016869 0)
(-1.72247 -0.0170424 0)
(-1.725 -0.0172164 0)
(-1.7279 -0.0173932 0)
(-1.7312 -0.0175748 0)
(-1.73488 -0.0177649 0)
(-1.73897 -0.0179669 0)
(-1.74345 -0.0181863 0)
(-1.74834 -0.01843 0)
(-1.75361 -0.0187061 0)
(-1.75924 -0.0190253 0)
(-1.76522 -0.0193997 0)
(-1.77151 -0.0198427 0)
(-1.77807 -0.0203742 0)
(-1.78484 -0.0210171 0)
(-1.79178 -0.0217931 0)
(-1.79883 -0.0227262 0)
(-1.80592 -0.0238393 0)
(-1.81301 -0.0251488 0)
(-1.82005 -0.026655 0)
(-1.82703 -0.0283218 0)
(-1.83396 -0.0300481 0)
(-1.84088 -0.0316259 0)
(-1.84787 -0.0326742 0)
(-1.85503 -0.0325434 0)
(-1.86238 -0.0302039 0)
(-1.8699 -0.0241113 0)
(-1.87811 -0.0124003 0)
(-1.88744 0.00668893 0)
(-1.89874 0.036595 0)
(-1.92156 0.0894686 0)
(-1.96297 0.186057 0)
(-2.03234 0.375543 0)
(-2.13331 0.778265 0)
(-1.98668 -0.00211726 0)
(-1.98271 -0.00449748 0)
(-1.98358 -0.00592596 0)
(-1.98277 -0.00678456 0)
(-1.98195 -0.0073244 0)
(-1.98101 -0.00768073 0)
(-1.98007 -0.00792866 0)
(-1.97911 -0.00811472 0)
(-1.97816 -0.00826389 0)
(-1.97722 -0.00839291 0)
(-1.97631 -0.00850981 0)
(-1.97542 -0.00862082 0)
(-1.97456 -0.00872845 0)
(-1.97374 -0.0088351 0)
(-1.97295 -0.00894152 0)
(-1.97221 -0.00904868 0)
(-1.97151 -0.00915678 0)
(-1.97087 -0.00926617 0)
(-1.97026 -0.00937692 0)
(-1.96973 -0.0094892 0)
(-1.96925 -0.00960337 0)
(-1.96884 -0.00971882 0)
(-1.9685 -0.0098352 0)
(-1.96824 -0.00995171 0)
(-1.96807 -0.0100697 0)
(-1.96799 -0.0101906 0)
(-1.96799 -0.0103121 0)
(-1.96808 -0.0104325 0)
(-1.96824 -0.0105521 0)
(-1.96848 -0.0106718 0)
(-1.96881 -0.0107921 0)
(-1.96923 -0.0109133 0)
(-1.96975 -0.0110354 0)
(-1.97037 -0.0111586 0)
(-1.97109 -0.0112829 0)
(-1.97193 -0.0114079 0)
(-1.97288 -0.0115337 0)
(-1.97395 -0.0116602 0)
(-1.97516 -0.0117875 0)
(-1.9765 -0.0119153 0)
(-1.97798 -0.012044 0)
(-1.97962 -0.012173 0)
(-1.98141 -0.0123021 0)
(-1.98336 -0.0124314 0)
(-1.98549 -0.0125607 0)
(-1.9878 -0.0126896 0)
(-1.99029 -0.0128179 0)
(-1.99297 -0.0129452 0)
(-1.99585 -0.0130709 0)
(-1.99894 -0.0131943 0)
(-2.00223 -0.0133138 0)
(-2.00572 -0.0134307 0)
(-2.00943 -0.0135493 0)
(-2.01336 -0.0136674 0)
(-2.01751 -0.0137812 0)
(-2.02188 -0.01389 0)
(-2.02648 -0.0139936 0)
(-2.03131 -0.0140903 0)
(-2.03637 -0.014178 0)
(-2.04166 -0.0142571 0)
(-2.04719 -0.0143281 0)
(-2.05296 -0.0143915 0)
(-2.05896 -0.0144482 0)
(-2.06519 -0.0144986 0)
(-2.07164 -0.0145436 0)
(-2.07832 -0.0145837 0)
(-2.08521 -0.0146201 0)
(-2.0923 -0.0146541 0)
(-2.09959 -0.0146876 0)
(-2.10707 -0.0147232 0)
(-2.11472 -0.0147641 0)
(-2.12254 -0.0148146 0)
(-2.13051 -0.0148795 0)
(-2.13862 -0.0149656 0)
(-2.14685 -0.0150811 0)
(-2.1552 -0.0152361 0)
(-2.16365 -0.0154429 0)
(-2.17219 -0.015717 0)
(-2.1808 -0.0160714 0)
(-2.18948 -0.0165281 0)
(-2.1982 -0.0171143 0)
(-2.20695 -0.017851 0)
(-2.21573 -0.018762 0)
(-2.22452 -0.0198682 0)
(-2.23332 -0.0211824 0)
(-2.24214 -0.0226989 0)
(-2.25099 -0.024375 0)
(-2.25988 -0.0260991 0)
(-2.26881 -0.027653 0)
(-2.2778 -0.028657 0)
(-2.28675 -0.028491 0)
(-2.2954 -0.0262133 0)
(-2.30322 -0.0203738 0)
(-2.31036 -0.00918736 0)
(-2.31564 0.00952203 0)
(-2.31853 0.0411499 0)
(-2.32324 0.0974346 0)
(-2.32938 0.199574 0)
(-2.32751 0.392948 0)
(-2.31003 0.744672 0)
(-2.12903 -0.00243405 0)
(-2.12613 -0.00464729 0)
(-2.1282 -0.00602405 0)
(-2.12896 -0.00687544 0)
(-2.12989 -0.00741362 0)
(-2.13084 -0.00776113 0)
(-2.1319 -0.00799629 0)
(-2.13299 -0.00816412 0)
(-2.13417 -0.00829259 0)
(-2.13541 -0.00839758 0)
(-2.13674 -0.00848887 0)
(-2.13813 -0.00857185 0)
(-2.13961 -0.00865008 0)
(-2.14117 -0.00872528 0)
(-2.14282 -0.0087988 0)
(-2.14457 -0.00887108 0)
(-2.1464 -0.0089426 0)
(-2.14834 -0.00901331 0)
(-2.15038 -0.00908344 0)
(-2.15253 -0.00915284 0)
(-2.15478 -0.00922212 0)
(-2.15716 -0.00929068 0)
(-2.15964 -0.00935653 0)
(-2.16225 -0.00942026 0)
(-2.16499 -0.00948451 0)
(-2.16785 -0.00955091 0)
(-2.17083 -0.00961884 0)
(-2.17395 -0.00968564 0)
(-2.1772 -0.00975075 0)
(-2.18058 -0.00981443 0)
(-2.1841 -0.00987707 0)
(-2.18777 -0.00993879 0)
(-2.19157 -0.00999981 0)
(-2.19551 -0.0100601 0)
(-2.1996 -0.0101197 0)
(-2.20384 -0.0101782 0)
(-2.20822 -0.0102358 0)
(-2.21275 -0.0102926 0)
(-2.21743 -0.0103482 0)
(-2.22225 -0.0104026 0)
(-2.22723 -0.0104563 0)
(-2.23235 -0.0105088 0)
(-2.23762 -0.01056 0)
(-2.24304 -0.0106101 0)
(-2.2486 -0.0106589 0)
(-2.25429 -0.0107064 0)
(-2.26012 -0.0107523 0)
(-2.26609 -0.0107966 0)
(-2.27218 -0.010839 0)
(-2.2784 -0.0108792 0)
(-2.28474 -0.0109165 0)
(-2.29119 -0.0109521 0)
(-2.29775 -0.0109882 0)
(-2.30441 -0.0110238 0)
(-2.31118 -0.0110575 0)
(-2.31803 -0.0110881 0)
(-2.32496 -0.011114 0)
(-2.33197 -0.011133 0)
(-2.33905 -0.0111437 0)
(-2.3462 -0.0111469 0)
(-2.3534 -0.0111434 0)
(-2.36066 -0.0111341 0)
(-2.36797 -0.0111199 0)
(-2.37533 -0.0111014 0)
(-2.38272 -0.0110797 0)
(-2.39016 -0.0110555 0)
(-2.39763 -0.01103 0)
(-2.40513 -0.0110047 0)
(-2.41266 -0.0109816 0)
(-2.42023 -0.0109633 0)
(-2.42783 -0.0109529 0)
(-2.43546 -0.0109546 0)
(-2.44313 -0.0109733 0)
(-2.45084 -0.0110157 0)
(-2.45858 -0.0110901 0)
(-2.46637 -0.0112066 0)
(-2.47421 -0.0113771 0)
(-2.4821 -0.0116181 0)
(-2.49003 -0.0119415 0)
(-2.49804 -0.0123668 0)
(-2.50612 -0.0129209 0)
(-2.51429 -0.0136259 0)
(-2.52257 -0.0145047 0)
(-2.53096 -0.0155768 0)
(-2.53949 -0.0168523 0)
(-2.54816 -0.0183238 0)
(-2.55699 -0.0199497 0)
(-2.56598 -0.0216207 0)
(-2.5751 -0.0231265 0)
(-2.58427 -0.0241183 0)
(-2.59327 -0.0240442 0)
(-2.60166 -0.0220892 0)
(-2.60855 -0.0170573 0)
(-2.61378 -0.00726998 0)
(-2.61499 0.00987169 0)
(-2.6099 0.040027 0)
(-2.59834 0.094045 0)
(-2.57286 0.191826 0)
(-2.51142 0.369242 0)
(-2.41538 0.652888 0)
(-2.27585 -0.002388 0)
(-2.27426 -0.00422445 0)
(-2.27748 -0.00539648 0)
(-2.27986 -0.0061353 0)
(-2.28247 -0.0065993 0)
(-2.28529 -0.00688923 0)
(-2.28823 -0.00707567 0)
(-2.29131 -0.00719789 0)
(-2.29447 -0.00728252 0)
(-2.29776 -0.00734378 0)
(-2.30113 -0.00739121 0)
(-2.30461 -0.00742953 0)
(-2.30817 -0.00746248 0)
(-2.31184 -0.00749142 0)
(-2.3156 -0.00751794 0)
(-2.31947 -0.00754223 0)
(-2.32342 -0.00756502 0)
(-2.32748 -0.00758607 0)
(-2.33163 -0.00760581 0)
(-2.33588 -0.007624 0)
(-2.34022 -0.00764151 0)
(-2.34466 -0.00765806 0)
(-2.34919 -0.00767041 0)
(-2.35382 -0.00767888 0)
(-2.35855 -0.00768664 0)
(-2.36338 -0.0076945 0)
(-2.36832 -0.0077026 0)
(-2.37337 -0.00770946 0)
(-2.37852 -0.00771471 0)
(-2.38378 -0.00771844 0)
(-2.38914 -0.00772115 0)
(-2.39461 -0.00772294 0)
(-2.40016 -0.00772438 0)
(-2.40582 -0.00772545 0)
(-2.41156 -0.00772648 0)
(-2.4174 -0.00772716 0)
(-2.42331 -0.00772793 0)
(-2.42931 -0.00772875 0)
(-2.43537 -0.0077299 0)
(-2.4415 -0.00773105 0)
(-2.4477 -0.00773294 0)
(-2.45395 -0.00773541 0)
(-2.46025 -0.00773849 0)
(-2.4666 -0.00774229 0)
(-2.47298 -0.00774696 0)
(-2.47941 -0.00775234 0)
(-2.48585 -0.0077584 0)
(-2.49232 -0.007765 0)
(-2.49881 -0.00777227 0)
(-2.50531 -0.0077795 0)
(-2.51182 -0.00778681 0)
(-2.51833 -0.0077944 0)
(-2.52484 -0.00780382 0)
(-2.53136 -0.00781445 0)
(-2.53786 -0.00782629 0)
(-2.54436 -0.00783864 0)
(-2.55084 -0.00784827 0)
(-2.55731 -0.00785181 0)
(-2.56376 -0.0078479 0)
(-2.57021 -0.00783736 0)
(-2.57664 -0.00782099 0)
(-2.58307 -0.00779963 0)
(-2.58949 -0.00777367 0)
(-2.59591 -0.00774336 0)
(-2.60233 -0.00770964 0)
(-2.60876 -0.0076727 0)
(-2.6152 -0.00763337 0)
(-2.62165 -0.00759292 0)
(-2.62813 -0.00755289 0)
(-2.63465 -0.00751552 0)
(-2.6412 -0.00748373 0)
(-2.64781 -0.00746115 0)
(-2.65447 -0.00745242 0)
(-2.66121 -0.00746383 0)
(-2.66802 -0.00750396 0)
(-2.67493 -0.00758259 0)
(-2.68194 -0.00771138 0)
(-2.68907 -0.0079043 0)
(-2.69631 -0.00817647 0)
(-2.70374 -0.00854707 0)
(-2.7113 -0.00903862 0)
(-2.71902 -0.00967337 0)
(-2.72692 -0.0104736 0)
(-2.73503 -0.0114582 0)
(-2.74337 -0.0126357 0)
(-2.75197 -0.0139995 0)
(-2.76082 -0.0155167 0)
(-2.76992 -0.0170904 0)
(-2.77918 -0.0185292 0)
(-2.78847 -0.0195347 0)
(-2.79747 -0.0196495 0)
(-2.80559 -0.0182105 0)
(-2.81173 -0.014346 0)
(-2.81519 -0.00653653 0)
(-2.81318 0.00786076 0)
(-2.80114 0.0339049 0)
(-2.77549 0.0807964 0)
(-2.72321 0.165501 0)
(-2.61571 0.313199 0)
(-2.46995 0.525998 0)
(-2.40902 -0.00199348 0)
(-2.40843 -0.00329125 0)
(-2.41241 -0.00415833 0)
(-2.41585 -0.0047106 0)
(-2.4195 -0.00505109 0)
(-2.42352 -0.00525411 0)
(-2.42758 -0.00537405 0)
(-2.43186 -0.0054418 0)
(-2.43614 -0.00547843 0)
(-2.44059 -0.0054956 0)
(-2.44503 -0.00550104 0)
(-2.44962 -0.00549868 0)
(-2.45419 -0.00549164 0)
(-2.4589 -0.00548115 0)
(-2.4636 -0.00546863 0)
(-2.46842 -0.00545429 0)
(-2.47324 -0.00543886 0)
(-2.47817 -0.00542215 0)
(-2.48311 -0.00540468 0)
(-2.48814 -0.00538622 0)
(-2.49319 -0.00536714 0)
(-2.49832 -0.00534691 0)
(-2.50347 -0.00532488 0)
(-2.50872 -0.0053003 0)
(-2.51395 -0.00527424 0)
(-2.51926 -0.00524769 0)
(-2.52456 -0.00522169 0)
(-2.52992 -0.00519557 0)
(-2.53527 -0.00516933 0)
(-2.54068 -0.00514292 0)
(-2.54608 -0.0051172 0)
(-2.55152 -0.00509192 0)
(-2.55694 -0.00506817 0)
(-2.5624 -0.00504563 0)
(-2.56783 -0.0050251 0)
(-2.57329 -0.00500586 0)
(-2.57873 -0.00498888 0)
(-2.58418 -0.00497347 0)
(-2.58961 -0.00496056 0)
(-2.59504 -0.00494973 0)
(-2.60045 -0.00494137 0)
(-2.60586 -0.00493536 0)
(-2.61125 -0.00493168 0)
(-2.61663 -0.00493038 0)
(-2.62198 -0.00493143 0)
(-2.62734 -0.00493461 0)
(-2.63267 -0.00493966 0)
(-2.63799 -0.00494628 0)
(-2.6433 -0.0049546 0)
(-2.6486 -0.00496376 0)
(-2.65389 -0.00497389 0)
(-2.65917 -0.00498451 0)
(-2.66445 -0.00499642 0)
(-2.66973 -0.00500912 0)
(-2.67502 -0.00502358 0)
(-2.68031 -0.00504001 0)
(-2.6856 -0.00505356 0)
(-2.69091 -0.00505917 0)
(-2.69623 -0.00505503 0)
(-2.70158 -0.00504254 0)
(-2.70695 -0.00502266 0)
(-2.71236 -0.00499602 0)
(-2.7178 -0.00496274 0)
(-2.72329 -0.00492281 0)
(-2.72882 -0.00487654 0)
(-2.73441 -0.00482405 0)
(-2.74006 -0.00476585 0)
(-2.74578 -0.00470278 0)
(-2.75158 -0.00463608 0)
(-2.75746 -0.00456767 0)
(-2.76344 -0.00450011 0)
(-2.76952 -0.00443671 0)
(-2.77572 -0.004382 0)
(-2.78205 -0.00434137 0)
(-2.78851 -0.00432382 0)
(-2.79513 -0.00433856 0)
(-2.80191 -0.00439693 0)
(-2.80887 -0.00451006 0)
(-2.81601 -0.0046959 0)
(-2.82338 -0.00497634 0)
(-2.83096 -0.00537175 0)
(-2.83877 -0.0059014 0)
(-2.84685 -0.00658482 0)
(-2.8552 -0.00744095 0)
(-2.86385 -0.0084788 0)
(-2.87282 -0.00969232 0)
(-2.88211 -0.0110648 0)
(-2.89167 -0.0125245 0)
(-2.90138 -0.0139007 0)
(-2.91105 -0.0149618 0)
(-2.92028 -0.015361 0)
(-2.92837 -0.0146106 0)
(-2.93414 -0.0121295 0)
(-2.93613 -0.00676729 0)
(-2.93195 0.00378445 0)
(-2.91427 0.0235749 0)
(-2.87753 0.0593563 0)
(-2.80451 0.12403 0)
(-2.66445 0.233527 0)
(-2.48904 0.379113 0)
(-2.51017 -0.00129844 0)
(-2.51046 -0.00204292 0)
(-2.5146 -0.00256985 0)
(-2.51848 -0.00290673 0)
(-2.52246 -0.00310837 0)
(-2.52689 -0.00322265 0)
(-2.53123 -0.00328281 0)
(-2.53586 -0.00330936 0)
(-2.54034 -0.00331544 0)
(-2.54502 -0.00330857 0)
(-2.54956 -0.00329397 0)
(-2.55425 -0.0032742 0)
(-2.55879 -0.00325136 0)
(-2.56348 -0.00322637 0)
(-2.56802 -0.0032002 0)
(-2.57268 -0.00317305 0)
(-2.57722 -0.00314541 0)
(-2.58186 -0.00311721 0)
(-2.58638 -0.00308882 0)
(-2.59099 -0.00306004 0)
(-2.59549 -0.00303052 0)
(-2.60007 -0.00299963 0)
(-2.60455 -0.0029702 0)
(-2.6091 -0.0029428 0)
(-2.61353 -0.00291608 0)
(-2.61801 -0.00288981 0)
(-2.62239 -0.00286482 0)
(-2.6268 -0.00284069 0)
(-2.63112 -0.00281754 0)
(-2.63547 -0.00279522 0)
(-2.63972 -0.00277464 0)
(-2.644 -0.00275531 0)
(-2.6482 -0.00273829 0)
(-2.65242 -0.00272309 0)
(-2.65657 -0.00271053 0)
(-2.66073 -0.00269966 0)
(-2.66483 -0.00269143 0)
(-2.66894 -0.00268474 0)
(-2.673 -0.0026809 0)
(-2.67707 -0.00267893 0)
(-2.6811 -0.00267933 0)
(-2.68514 -0.00268173 0)
(-2.68916 -0.00268588 0)
(-2.69318 -0.00269193 0)
(-2.69719 -0.00269957 0)
(-2.70121 -0.00270848 0)
(-2.70523 -0.0027183 0)
(-2.70926 -0.00272882 0)
(-2.7133 -0.00273948 0)
(-2.71736 -0.00274996 0)
(-2.72144 -0.00275991 0)
(-2.72555 -0.00276906 0)
(-2.72968 -0.00277718 0)
(-2.73385 -0.00278351 0)
(-2.73806 -0.00279032 0)
(-2.7423 -0.00280009 0)
(-2.7466 -0.00280605 0)
(-2.75093 -0.00280053 0)
(-2.75532 -0.00278124 0)
(-2.75977 -0.00275094 0)
(-2.76429 -0.00271128 0)
(-2.76888 -0.00266268 0)
(-2.77355 -0.00260516 0)
(-2.7783 -0.0025385 0)
(-2.78313 -0.00246246 0)
(-2.78806 -0.00237708 0)
(-2.79309 -0.00228272 0)
(-2.79823 -0.00217982 0)
(-2.80348 -0.00206935 0)
(-2.80885 -0.0019529 0)
(-2.81436 -0.00183269 0)
(-2.82001 -0.00171171 0)
(-2.82582 -0.00159427 0)
(-2.83179 -0.00148536 0)
(-2.83794 -0.00139361 0)
(-2.84426 -0.00132595 0)
(-2.85081 -0.00129657 0)
(-2.85757 -0.00131432 0)
(-2.86457 -0.00139698 0)
(-2.87183 -0.00156475 0)
(-2.87937 -0.00183841 0)
(-2.88721 -0.00223635 0)
(-2.89539 -0.00277584 0)
(-2.90393 -0.00347596 0)
(-2.91286 -0.00434923 0)
(-2.92218 -0.0053877 0)
(-2.93192 -0.00659443 0)
(-2.94199 -0.00794645 0)
(-2.95225 -0.00927884 0)
(-2.96249 -0.0104442 0)
(-2.97227 -0.0112148 0)
(-2.98084 -0.0112947 0)
(-2.98699 -0.0103364 0)
(-2.98881 -0.00772283 0)
(-2.98375 -0.00183919 0)
(-2.96428 0.00998764 0)
(-2.9207 0.0317617 0)
(-2.83506 0.0714027 0)
(-2.6757 0.137606 0)
(-2.4853 0.221194 0)
(-2.55917 -0.000384939 0)
(-2.5598 -0.000673021 0)
(-2.56378 -0.000862461 0)
(-2.56759 -0.000988085 0)
(-2.57143 -0.00105979 0)
(-2.57575 -0.00110031 0)
(-2.57988 -0.00112091 0)
(-2.58431 -0.00112919 0)
(-2.58849 -0.00113005 0)
(-2.59288 -0.00112561 0)
(-2.59701 -0.00111833 0)
(-2.60131 -0.00110883 0)
(-2.60536 -0.001098 0)
(-2.60955 -0.00108637 0)
(-2.61351 -0.00107416 0)
(-2.61759 -0.00106154 0)
(-2.62145 -0.00104859 0)
(-2.62542 -0.00103537 0)
(-2.62919 -0.00102191 0)
(-2.63305 -0.00100813 0)
(-2.63673 -0.00099351 0)
(-2.64049 -0.000978082 -1.14973e-41)
(-2.64408 -0.000964769 0)
(-2.64774 -0.000954778 0)
(-2.65125 -0.000946257 0)
(-2.65482 -0.000938387 0)
(-2.65826 -0.000931299 0)
(-2.66175 -0.000924613 0)
(-2.66513 -0.000918189 0)
(-2.66856 -0.000912138 0)
(-2.67188 -0.000906842 0)
(-2.67525 -0.000902454 0)
(-2.67853 -0.000899221 0)
(-2.68186 -0.000897088 0)
(-2.68511 -0.000896152 0)
(-2.6884 -0.000896282 0)
(-2.69164 -0.000897368 0)
(-2.69491 -0.000899067 0)
(-2.69815 -0.000902224 0)
(-2.7014 -0.000905764 0)
(-2.70464 -0.000910276 0)
(-2.7079 -0.000915324 0)
(-2.71116 -0.00092053 0)
(-2.71444 -0.000926054 0)
(-2.71772 -0.000931537 0)
(-2.72104 -0.000936607 0)
(-2.72436 -0.000940924 0)
(-2.72772 -0.000944414 0)
(-2.7311 -0.000946032 0)
(-2.73452 -0.00094579 0)
(-2.73797 -0.00094312 0)
(-2.74145 -0.000938003 0)
(-2.74499 -0.00092956 0)
(-2.74856 -0.000916433 0)
(-2.7522 -0.000900967 0)
(-2.75588 -0.000891584 0)
(-2.75962 -0.000878329 0)
(-2.7634 -0.000849531 0)
(-2.76725 -0.000801504 0)
(-2.77118 -0.000740186 0)
(-2.77518 -0.000668076 0)
(-2.77925 -0.000585329 0)
(-2.78342 -0.000491637 0)
(-2.78766 -0.000386459 0)
(-2.79201 -0.000269411 0)
(-2.79645 -0.00014032 0)
(-2.801 7.36608e-07 0)
(-2.80566 0.000153544 0)
(-2.81044 0.000317399 0)
(-2.81534 0.000491043 0)
(-2.82039 0.000672602 0)
(-2.82558 0.000859476 0)
(-2.83093 0.00104782 0)
(-2.83645 0.00123208 0)
(-2.84216 0.00140627 0)
(-2.84806 0.00156435 0)
(-2.85417 0.00169095 0)
(-2.86052 0.00177756 0)
(-2.86712 0.00180746 0)
(-2.874 0.00176303 0)
(-2.88117 0.00162609 0)
(-2.88865 0.00137813 0)
(-2.89649 0.00100105 1.17672e-41)
(-2.90471 0.000476195 0)
(-2.91333 -0.000211514 0)
(-2.92235 -0.00106589 0)
(-2.93183 -0.00207949 0)
(-2.94152 -0.0033321 -3.91687e-41)
(-2.95144 -0.0046237 0)
(-2.96133 -0.00591765 0)
(-2.97074 -0.00710536 0)
(-2.97893 -0.0080735 0)
(-2.9847 -0.00872993 0)
(-2.98615 -0.0089408 -5.25493e-41)
(-2.98 -0.0081031 0)
(-2.9602 -0.00526841 0)
(-2.91464 0.000771892 9.07355e-42)
(-2.82456 0.0124146 0)
(-2.65844 0.0322637 0)
(-2.46328 0.0573941 0)
(-2.53814 0.000582476 0)
(-2.53854 0.000719049 0)
(-2.54251 0.000861885 0)
(-2.54629 0.000946649 0)
(-2.5501 0.000998074 0)
(-2.55441 0.00102365 0)
(-2.55854 0.00103339 0)
(-2.56298 0.00103362 0)
(-2.56719 0.00102795 0)
(-2.57161 0.00101935 0)
(-2.57579 0.00100873 0)
(-2.58014 0.000997121 0)
(-2.58427 0.000985254 0)
(-2.58852 0.000972933 0)
(-2.59257 0.000960809 0)
(-2.59672 0.000948739 0)
(-2.60068 0.000937156 0)
(-2.60474 0.000925906 0)
(-2.60862 0.00091534 0)
(-2.61258 0.000905405 0)
(-2.61637 0.000896638 0)
(-2.62023 0.000888434 1.04435e-41)
(-2.62394 0.000879227 0)
(-2.62771 0.00086816 0)
(-2.63134 0.000856695 0)
(-2.63503 0.000845232 0)
(-2.63859 0.000834063 0)
(-2.6422 0.000823533 0)
(-2.6457 0.000814194 0)
(-2.64924 0.00080554 0)
(-2.65268 0.000797711 0)
(-2.65616 0.00078979 0)
(-2.65955 0.000782295 0)
(-2.66298 0.000774803 0)
(-2.66633 0.000767903 0)
(-2.66972 0.000760896 0)
(-2.67304 0.0007548 0)
(-2.6764 0.000748881 0)
(-2.67971 0.000743734 0)
(-2.68303 0.000739137 0)
(-2.68634 0.000735461 0)
(-2.68965 0.000732723 0)
(-2.69297 0.000731115 0)
(-2.69629 0.000731021 0)
(-2.69961 0.000732544 0)
(-2.70295 0.000736122 0)
(-2.70629 0.000742061 0)
(-2.70966 0.000750588 0)
(-2.71305 0.000762534 0)
(-2.71646 0.000778062 0)
(-2.7199 0.000797609 0)
(-2.72337 0.000821441 0)
(-2.72687 0.000850405 0)
(-2.7304 0.000885576 0)
(-2.73397 0.000925018 0)
(-2.73759 0.000960184 0)
(-2.74126 0.00100106 0)
(-2.74499 0.00105971 0)
(-2.74877 0.00113951 0)
(-2.75261 0.00123438 0)
(-2.75651 0.00134203 0)
(-2.76048 0.00146245 0)
(-2.76451 0.00159614 0)
(-2.76862 0.00174386 0)
(-2.77281 0.00190606 0)
(-2.77709 0.00208309 0)
(-2.78145 0.00227521 0)
(-2.78592 0.00248256 0)
(-2.79048 0.00270469 0)
(-2.79516 0.00294065 0)
(-2.79995 0.00318906 0)
(-2.80488 0.00344778 0)
(-2.80994 0.00371345 0)
(-2.81515 0.00398091 0)
(-2.82053 0.00424595 0)
(-2.82608 0.00450157 0)
(-2.83182 0.00473575 0)
(-2.83776 0.00493824 0)
(-2.84393 0.00509402 0)
(-2.85035 0.00518696 0)
(-2.85703 0.00520151 0)
(-2.86401 0.00511982 0)
(-2.87131 0.00492228 5.78611e-41)
(-2.87894 0.00459073 0)
(-2.88694 0.00410834 0)
(-2.89529 0.00345214 0)
(-2.904 0.00262445 0)
(-2.9129 0.00152476 1.79234e-41)
(-2.92196 0.000284445 0)
(-2.93083 -0.00114266 0)
(-2.93903 -0.0027381 0)
(-2.94569 -0.00453935 0)
(-2.94993 -0.00675766 0)
(-2.94973 -0.00969404 -5.69765e-41)
(-2.94177 -0.0137552 0)
(-2.92003 -0.0197664 0)
(-2.87358 -0.0295248 -3.47063e-40)
(-2.78306 -0.0460049 0)
(-2.61821 -0.0723203 0)
(-2.42441 -0.103493 0)
(-2.45929 0.0014199 0)
(-2.4589 0.00209509 0)
(-2.46294 0.00258118 0)
(-2.46658 0.00288907 0)
(-2.47035 0.00307438 0)
(-2.47458 0.00317824 0)
(-2.47875 0.00323236 0)
(-2.4832 0.00325548 0)
(-2.48754 0.00326048 0)
(-2.49208 0.00325388 0)
(-2.4965 0.00324091 0)
(-2.50108 0.00322329 0)
(-2.50554 0.00320351 0)
(-2.51013 0.00318182 0)
(-2.51462 0.0031594 0)
(-2.51921 0.00313625 0)
(-2.52371 0.0031131 0)
(-2.5283 0.00308981 0)
(-2.5328 0.0030669 0)
(-2.53737 0.00304425 0)
(-2.54187 0.00302232 0)
(-2.54642 0.00300044 0)
(-2.5509 0.0029779 0)
(-2.55543 0.00295403 0)
(-2.55988 0.00292989 0)
(-2.56438 0.00290557 0)
(-2.56881 0.00288158 0)
(-2.57326 0.0028584 0)
(-2.57765 0.00283689 0)
(-2.58207 0.00281652 0)
(-2.58642 0.00279732 0)
(-2.59079 0.00277845 0)
(-2.59509 0.00276052 0)
(-2.59941 0.00274319 0)
(-2.60367 0.00272712 0)
(-2.60794 0.00271177 0)
(-2.61216 0.002698 0)
(-2.61638 0.00268502 0)
(-2.62055 0.00267435 0)
(-2.62472 0.00266458 0)
(-2.62886 0.0026572 0)
(-2.63298 0.0026518 0)
(-2.63708 0.00264855 0)
(-2.64117 0.00264826 0)
(-2.64523 0.00265098 0)
(-2.6493 0.00265719 0)
(-2.65334 0.00266729 0)
(-2.65738 0.00268168 0)
(-2.66141 0.00270097 0)
(-2.66545 0.00272557 0)
(-2.66948 0.00275584 0)
(-2.67352 0.00279212 0)
(-2.67757 0.00283517 0)
(-2.68163 0.00288537 0)
(-2.6857 0.00294094 0)
(-2.6898 0.00299932 0)
(-2.69392 0.00306729 0)
(-2.69808 0.00315305 0)
(-2.70227 0.0032585 0)
(-2.7065 0.00338036 0)
(-2.71076 0.00351763 0)
(-2.71506 0.00367057 0)
(-2.71941 0.00383959 0)
(-2.72381 0.00402543 0)
(-2.72826 0.00422865 0)
(-2.73278 0.00444976 0)
(-2.73736 0.00468934 0)
(-2.74202 0.00494792 0)
(-2.74675 0.00522538 0)
(-2.75157 0.00552116 0)
(-2.75649 0.00583441 0)
(-2.76152 0.00616348 0)
(-2.76666 0.00650559 0)
(-2.77193 0.00685677 0)
(-2.77734 0.00721273 0)
(-2.78291 0.00756668 0)
(-2.78865 0.00790909 0)
(-2.79458 0.0082296 0)
(-2.80073 0.00851499 0)
(-2.80711 0.0087508 0)
(-2.81375 0.00892189 0)
(-2.82068 0.00901088 0)
(-2.82792 0.00899669 0)
(-2.83551 0.00886165 0)
(-2.84345 0.00858552 0)
(-2.85177 0.00813589 0)
(-2.86044 0.00747769 0)
(-2.86942 0.00655612 0)
(-2.87855 0.00535794 0)
(-2.88755 0.0037804 0)