/*--------------------------------*- C++ -*----------------------------------*\
| =========                 |                                                 |
| \\      /  F ield         | OpenFOAM: The Open Source CFD Toolbox           |
|  \\    /   O peration     | Version:  2.1.0                                 |
|   \\  /    A nd           | Web:      www.OpenFOAM.org                      |
|    \\/     M anipulation  |                                                 |
\*---------------------------------------------------------------------------*/
FoamFile
{
    version     2.0;
    format      ascii;
    class       volScalarField;
    location    "0.51";
    object      C1;
}
// * * * * * * * * * * * * * * * * * * * * * * * * * * * * * * * * * * * * * //

dimensions      [0 0 0 0 0 0 0];

internalField   nonuniform List<scalar> 
6400
(
5.21096e-05
5.11123e-05
5.00701e-05
4.90231e-05
4.7977e-05
4.69338e-05
4.58948e-05
4.48607e-05
4.38321e-05
4.28093e-05
4.17926e-05
4.07824e-05
3.97789e-05
3.87824e-05
3.77931e-05
3.68112e-05
3.58371e-05
3.48709e-05
3.3913e-05
3.29636e-05
3.20229e-05
3.10913e-05
3.0169e-05
2.92563e-05
2.83535e-05
2.74609e-05
2.65788e-05
2.57076e-05
2.48473e-05
2.39985e-05
2.31612e-05
2.23359e-05
2.15228e-05
2.07222e-05
1.99343e-05
1.91595e-05
1.83981e-05
1.76502e-05
1.69162e-05
1.61963e-05
1.54908e-05
1.48e-05
1.4124e-05
1.34631e-05
1.28176e-05
1.21875e-05
1.15733e-05
1.09749e-05
1.03927e-05
9.82674e-06
9.27726e-06
8.7444e-06
8.22836e-06
7.72927e-06
7.24721e-06
6.78227e-06
6.3345e-06
5.90396e-06
5.49074e-06
5.09486e-06
4.7163e-06
4.35502e-06
4.01092e-06
3.68388e-06
3.37376e-06
3.08037e-06
2.80349e-06
2.54286e-06
2.2982e-06
2.06918e-06
1.85546e-06
1.65666e-06
1.47234e-06
1.30209e-06
1.14542e-06
1.00185e-06
8.70852e-07
7.519e-07
6.44437e-07
5.47893e-07
4.61685e-07
3.85216e-07
3.17884e-07
2.59078e-07
2.08188e-07
1.646e-07
1.27711e-07
9.69254e-08
7.16601e-08
5.13417e-08
3.54058e-08
2.32949e-08
1.44677e-08
8.39561e-09
4.52296e-09
2.2595e-09
9.46751e-10
2.98401e-10
6.72237e-11
1.22909e-11
5.88293e-05
5.78151e-05
5.674e-05
5.56491e-05
5.45523e-05
5.34541e-05
5.23569e-05
5.12621e-05
5.01706e-05
4.90831e-05
4.80001e-05
4.69219e-05
4.58488e-05
4.47811e-05
4.3719e-05
4.26628e-05
4.16128e-05
4.05692e-05
3.95322e-05
3.85022e-05
3.74794e-05
3.6464e-05
3.54564e-05
3.44568e-05
3.34655e-05
3.2483e-05
3.15095e-05
3.05453e-05
2.95908e-05
2.86463e-05
2.77121e-05
2.67885e-05
2.5876e-05
2.49747e-05
2.40851e-05
2.32075e-05
2.23423e-05
2.14897e-05
2.06501e-05
1.98239e-05
1.90114e-05
1.82129e-05
1.74288e-05
1.66594e-05
1.5905e-05
1.5166e-05
1.44426e-05
1.37353e-05
1.30442e-05
1.23697e-05
1.1712e-05
1.10714e-05
1.04483e-05
9.84289e-06
9.25553e-06
8.68651e-06
8.13609e-06
7.60454e-06
7.09209e-06
6.59896e-06
6.12532e-06
5.67129e-06
5.23693e-06
4.82228e-06
4.42734e-06
4.05206e-06
3.69634e-06
3.36007e-06
3.04305e-06
2.74507e-06
2.46585e-06
2.20508e-06
1.96238e-06
1.73736e-06
1.52956e-06
1.33847e-06
1.16356e-06
1.00425e-06
8.5993e-07
7.2994e-07
6.13605e-07
5.10218e-07
4.19051e-07
3.39365e-07
2.70407e-07
2.11425e-07
1.61666e-07
1.20387e-07
8.68455e-08
6.02993e-08
3.99873e-08
2.51137e-08
1.48271e-08
8.20868e-09
4.28709e-09
2.19927e-09
1.01308e-09
4.0955e-10
1.50876e-10
5.87842e-11
7.36449e-05
7.25833e-05
7.14337e-05
7.02505e-05
6.90501e-05
6.78403e-05
6.66256e-05
6.54086e-05
6.41907e-05
6.29731e-05
6.17563e-05
6.05409e-05
5.93272e-05
5.81155e-05
5.69061e-05
5.56992e-05
5.44951e-05
5.32941e-05
5.20964e-05
5.09022e-05
4.97118e-05
4.85254e-05
4.73434e-05
4.6166e-05
4.49935e-05
4.38262e-05
4.26645e-05
4.15088e-05
4.03594e-05
3.92168e-05
3.80814e-05
3.69536e-05
3.58338e-05
3.47225e-05
3.36199e-05
3.25267e-05
3.14432e-05
3.03698e-05
2.93071e-05
2.82555e-05
2.72156e-05
2.61878e-05
2.51726e-05
2.41706e-05
2.31823e-05
2.22082e-05
2.12489e-05
2.03048e-05
1.93767e-05
1.8465e-05
1.75702e-05
1.6693e-05
1.58339e-05
1.49936e-05
1.41728e-05
1.33722e-05
1.25924e-05
1.18341e-05
1.10979e-05
1.03843e-05
9.69399e-06
9.02732e-06
8.38479e-06
7.76679e-06
7.17367e-06
6.60573e-06
6.06322e-06
5.54632e-06
5.05515e-06
4.58977e-06
4.15015e-06
3.73621e-06
3.34777e-06
2.98458e-06
2.64631e-06
2.33256e-06
2.04282e-06
1.77652e-06
1.53303e-06
1.31162e-06
1.11152e-06
9.31861e-07
7.71767e-07
6.30305e-07
5.06515e-07
3.99422e-07
3.08033e-07
2.31348e-07
1.68346e-07
1.17965e-07
7.90581e-08
5.0344e-08
3.03617e-08
1.74605e-08
9.86899e-09
5.63754e-09
3.05316e-09
1.57701e-09
8.11551e-10
4.68276e-10
9.75077e-05
9.63694e-05
9.5115e-05
9.3807e-05
9.24674e-05
9.1108e-05
8.97356e-05
8.8354e-05
8.69656e-05
8.55718e-05
8.41735e-05
8.27713e-05
8.13656e-05
7.99567e-05
7.85448e-05
7.71303e-05
7.57132e-05
7.42939e-05
7.28725e-05
7.14492e-05
7.00243e-05
6.8598e-05
6.71705e-05
6.57422e-05
6.43132e-05
6.28839e-05
6.14546e-05
6.00256e-05
5.85974e-05
5.71706e-05
5.57454e-05
5.43224e-05
5.2902e-05
5.14847e-05
5.00709e-05
4.86613e-05
4.72562e-05
4.58563e-05
4.44622e-05
4.30745e-05
4.16938e-05
4.03209e-05
3.89564e-05
3.76011e-05
3.62556e-05
3.49209e-05
3.35977e-05
3.22869e-05
3.09894e-05
2.97061e-05
2.8438e-05
2.71861e-05
2.59515e-05
2.47352e-05
2.35383e-05
2.23618e-05
2.12071e-05
2.00752e-05
1.89674e-05
1.78847e-05
1.68282e-05
1.57992e-05
1.47986e-05
1.38275e-05
1.28869e-05
1.19776e-05
1.11005e-05
1.02565e-05
9.44616e-06
8.67024e-06
7.92923e-06
7.22357e-06
6.55356e-06
5.9194e-06
5.32118e-06
4.75882e-06
4.23213e-06
3.74079e-06
3.28433e-06
2.86221e-06
2.47372e-06
2.11808e-06
1.79441e-06
1.50182e-06
1.23936e-06
1.00609e-06
8.01061e-07
6.23367e-07
4.72084e-07
3.46234e-07
2.44655e-07
1.65843e-07
1.0775e-07
6.7717e-08
4.24102e-08
2.66634e-08
1.62434e-08
9.72873e-09
5.99291e-09
4.21282e-09
0.000131488
0.000130263
0.000128901
0.000127467
0.000125988
0.000124477
0.000122945
0.000121395
0.000119832
0.000118256
0.000116669
0.000115072
0.000113464
0.000111847
0.000110221
0.000108585
0.000106939
0.000105284
0.000103621
0.000101948
0.000100266
9.85758e-05
9.68769e-05
9.51699e-05
9.34549e-05
9.17323e-05
9.00023e-05
8.82649e-05
8.65205e-05
8.47696e-05
8.30123e-05
8.12492e-05
7.94807e-05
7.77071e-05
7.59288e-05
7.41465e-05
7.23605e-05
7.05715e-05
6.878e-05
6.69868e-05
6.51925e-05
6.33979e-05
6.16038e-05
5.9811e-05
5.80203e-05
5.62328e-05
5.44494e-05
5.26712e-05
5.08992e-05
4.91346e-05
4.73786e-05
4.56326e-05
4.38977e-05
4.21752e-05
4.04667e-05
3.87735e-05
3.70975e-05
3.54402e-05
3.38034e-05
3.21889e-05
3.05985e-05
2.90339e-05
2.74968e-05
2.5989e-05
2.45123e-05
2.30683e-05
2.16586e-05
2.02849e-05
1.89487e-05
1.76515e-05
1.63947e-05
1.51796e-05
1.40073e-05
1.28789e-05
1.17955e-05
1.07577e-05
9.7663e-06
8.82177e-06
7.9245e-06
7.07482e-06
6.27292e-06
5.51886e-06
4.81268e-06
4.15446e-06
3.54436e-06
2.98268e-06
2.46994e-06
2.00692e-06
1.59468e-06
1.23448e-06
9.27521e-07
6.74411e-07
4.74556e-07
3.25607e-07
2.22917e-07
1.52546e-07
1.02337e-07
6.84169e-08
4.75206e-08
3.74802e-08
0.00017676
0.000175477
0.000174048
0.000172537
0.00017097
0.000169364
0.000167729
0.000166069
0.000164389
0.000162691
0.000160975
0.000159243
0.000157494
0.000155729
0.000153948
0.00015215
0.000150337
0.000148507
0.000146661
0.000144799
0.000142921
0.000141026
0.000139115
0.000137188
0.000135246
0.000133287
0.000131313
0.000129323
0.000127317
0.000125296
0.000123259
0.000121207
0.00011914
0.000117058
0.000114961
0.00011285
0.000110725
0.000108586
0.000106433
0.000104267
0.000102089
9.98986e-05
9.76966e-05
9.54836e-05
9.32601e-05
9.10268e-05
8.87845e-05
8.65338e-05
8.42756e-05
8.20107e-05
7.974e-05
7.74644e-05
7.5185e-05
7.29028e-05
7.0619e-05
6.8335e-05
6.60523e-05
6.37726e-05
6.14977e-05
5.92295e-05
5.69697e-05
5.47204e-05
5.24835e-05
5.02609e-05
4.80548e-05
4.58673e-05
4.37006e-05
4.15569e-05
3.94383e-05
3.73473e-05
3.5286e-05
3.32569e-05
3.1262e-05
2.93037e-05
2.73841e-05
2.55053e-05
2.36694e-05
2.18783e-05
2.01338e-05
1.84378e-05
1.67921e-05
1.51987e-05
1.36596e-05
1.21771e-05
1.0754e-05
9.39409e-06
8.10181e-06
6.88318e-06
5.74592e-06
4.69978e-06
3.75612e-06
2.92714e-06
2.22422e-06
1.65571e-06
1.22612e-06
9.06581e-07
6.61589e-07
4.83767e-07
3.67363e-07
3.11436e-07
0.000234381
0.000233124
0.000231731
0.000230259
0.000228731
0.00022716
0.000225557
0.000223927
0.000222273
0.000220598
0.000218901
0.000217185
0.000215448
0.000213692
0.000211916
0.000210119
0.000208302
0.000206465
0.000204608
0.000202729
0.000200829
0.000198908
0.000196965
0.000195001
0.000193014
0.000191006
0.000188976
0.000186924
0.000184849
0.000182751
0.000180631
0.000178487
0.000176321
0.00017413
0.000171916
0.000169678
0.000167416
0.000165129
0.000162818
0.000160481
0.000158119
0.000155732
0.000153319
0.00015088
0.000148415
0.000145923
0.000143405
0.000140859
0.000138287
0.000135687
0.00013306
0.000130404
0.000127721
0.000125009
0.000122269
0.000119502
0.000116706
0.000113884
0.000111036
0.000108162
0.000105264
0.000102343
9.93985e-05
9.6433e-05
9.34473e-05
9.04427e-05
8.74208e-05
8.4383e-05
8.13311e-05
7.82669e-05
7.51922e-05
7.2109e-05
6.90192e-05
6.5925e-05
6.28282e-05
5.97308e-05
5.66348e-05
5.35418e-05
5.04536e-05
4.73716e-05
4.42973e-05
4.12319e-05
3.8177e-05
3.51354e-05
3.21105e-05
2.91079e-05
2.61361e-05
2.32073e-05
2.03398e-05
1.75598e-05
1.49027e-05
1.24126e-05
1.01417e-05
8.14417e-06
6.4812e-06
5.15072e-06
4.0566e-06
3.2047e-06
2.61317e-06
2.32513e-06
0.000304734
0.00030365
0.000302463
0.000301213
0.000299915
0.000298581
0.000297219
0.000295832
0.000294424
0.000292996
0.000291549
0.000290082
0.000288597
0.000287093
0.000285569
0.000284027
0.000282465
0.000280884
0.000279282
0.00027766
0.000276017
0.000274354
0.000272668
0.000270962
0.000269233
0.000267482
0.000265708
0.000263911
0.00026209
0.000260245
0.000258375
0.00025648
0.000254558
0.00025261
0.000250634
0.000248629
0.000246595
0.000244531
0.000242436
0.000240309
0.000238149
0.000235954
0.000233725
0.000231459
0.000229156
0.000226813
0.000224431
0.000222007
0.000219539
0.000217028
0.000214469
0.000211863
0.000209207
0.000206499
0.000203738
0.000200922
0.00019805
0.00019512
0.000192131
0.000189083
0.000185973
0.000182802
0.000179566
0.000176266
0.000172899
0.000169465
0.000165962
0.000162389
0.000158745
0.000155028
0.000151236
0.000147369
0.000143425
0.000139401
0.000135295
0.000131104
0.000126824
0.000122452
0.000117984
0.000113414
0.000108735
0.000103937
9.9008e-05
9.39386e-05
8.87179e-05
8.33363e-05
7.77875e-05
7.207e-05
6.61916e-05
6.01785e-05
5.40792e-05
4.79697e-05
4.19582e-05
3.61841e-05
3.08373e-05
2.6232e-05
2.21824e-05
1.8791e-05
1.62793e-05
1.50049e-05
0.000386565
0.000385838
0.000385051
0.000384228
0.000383376
0.000382502
0.00038161
0.000380702
0.000379781
0.000378846
0.000377898
0.000376938
0.000375964
0.000374979
0.00037398
0.000372969
0.000371944
0.000370905
0.000369854
0.000368788
0.000367707
0.000366613
0.000365503
0.000364379
0.000363239
0.000362083
0.00036091
0.000359721
0.000358513
0.000357288
0.000356043
0.000354779
0.000353495
0.000352189
0.000350862
0.000349511
0.000348137
0.000346738
0.000345314
0.000343862
0.000342383
0.000340875
0.000339337
0.000337767
0.000336164
0.000334528
0.000332855
0.000331145
0.000329397
0.000327607
0.000325775
0.000323897
0.000321972
0.000319998
0.000317971
0.000315889
0.00031375
0.000311551
0.000309291
0.000306968
0.000304578
0.000302119
0.000299588
0.000296981
0.000294295
0.000291526
0.00028867
0.000285724
0.000282683
0.000279542
0.000276296
0.00027294
0.000269467
0.000265872
0.000262145
0.00025827
0.000254229
0.00025001
0.000245601
0.00024099
0.000236164
0.000231109
0.000225773
0.00022012
0.000214108
0.000207687
0.000200801
0.000193389
0.00018538
0.000176724
0.000167391
0.000157376
0.000146708
0.000135459
0.000123769
0.00011207
0.000101442
9.17757e-05
8.40239e-05
7.97463e-05
0.000476284
0.000476062
0.000475828
0.000475587
0.000475341
0.00047509
0.000474836
0.000474578
0.000474317
0.000474052
0.000473784
0.000473513
0.000473239
0.000472962
0.000472681
0.000472397
0.000472109
0.000471818
0.000471524
0.000471226
0.000470924
0.000470618
0.000470308
0.000469994
0.000469676
0.000469354
0.000469027
0.000468695
0.000468359
0.000468017
0.00046767
0.000467318
0.000466961
0.000466597
0.000466228
0.000465851
0.000465468
0.000465078
0.00046468
0.000464274
0.000463861
0.000463439
0.000463008
0.000462569
0.000462121
0.000461663
0.000461196
0.000460719
0.000460232
0.000459735
0.000459228
0.00045871
0.00045818
0.00045764
0.000457089
0.000456526
0.000455951
0.000455364
0.000454764
0.000454152
0.000453525
0.000452885
0.000452229
0.000451558
0.000450868
0.00045016
0.000449431
0.000448678
0.0004479
0.000447092
0.00044625
0.00044537
0.000444447
0.000443472
0.000442438
0.000441345
0.000440189
0.000438957
0.000437634
0.000436198
0.000434623
0.000432884
0.000430977
0.000428885
0.000426587
0.000424063
0.000421295
0.000418264
0.000414796
0.00041076
0.000406054
0.000400562
0.000394149
0.000386641
0.000377804
0.000367339
0.000355281
0.000342959
0.000331831
0.000324571
0.000568115
0.000568499
0.000568896
0.0005693
0.000569712
0.000570131
0.000570556
0.000570988
0.000571426
0.00057187
0.000572321
0.000572778
0.000573242
0.000573712
0.00057419
0.000574674
0.000575166
0.000575665
0.000576171
0.000576686
0.000577208
0.000577739
0.000578278
0.000578826
0.000579383
0.000579949
0.000580525
0.00058111
0.000581705
0.000582311
0.000582927
0.000583554
0.000584192
0.000584843
0.000585505
0.000586181
0.00058687
0.000587574
0.000588292
0.000589026
0.000589775
0.000590542
0.000591326
0.000592129
0.000592951
0.000593793
0.000594657
0.000595543
0.000596452
0.000597385
0.000598343
0.000599329
0.000600341
0.000601382
0.000602454
0.000603559
0.000604698
0.000605875
0.000607095
0.000608359
0.000609672
0.000611037
0.000612458
0.00061394
0.000615486
0.000617104
0.000618797
0.000620573
0.000622439
0.000624401
0.000626468
0.00062865
0.000630956
0.000633395
0.00063598
0.000638723
0.000641635
0.000644727
0.000648012
0.000651501
0.000655204
0.000659133
0.000663296
0.000667702
0.000672353
0.000677253
0.000682398
0.000687788
0.000693563
0.000699842
0.000706721
0.00071428
0.000722424
0.000731189
0.000740581
0.000750556
0.000760933
0.000771203
0.000780142
0.000785458
0.000654379
0.000655221
0.000656118
0.000657052
0.000658015
0.000659
0.000660005
0.000661027
0.000662064
0.000663116
0.000664183
0.000665265
0.000666361
0.000667471
0.000668597
0.000669737
0.000670893
0.000672065
0.000673252
0.000674456
0.000675676
0.000676913
0.000678167
0.000679439
0.000680728
0.000682037
0.000683364
0.00068471
0.000686076
0.000687463
0.000688871
0.0006903
0.000691752
0.000693226
0.000694725
0.000696248
0.000697796
0.00069937
0.000700971
0.000702601
0.00070426
0.000705949
0.00070767
0.000709424
0.000711212
0.000713036
0.000714897
0.000716797
0.000718737
0.00072072
0.000722748
0.000724821
0.000726943
0.000729115
0.000731341
0.000733622
0.000735963
0.000738367
0.000740839
0.000743383
0.000746004
0.000748706
0.000751494
0.000754375
0.000757353
0.000760435
0.000763627
0.000766937
0.000770372
0.00077394
0.000777649
0.000781508
0.000785525
0.00078971
0.000794072
0.000798619
0.000803361
0.000808304
0.000813456
0.000818822
0.000824407
0.000830211
0.000836235
0.000842477
0.000848929
0.000855584
0.00086243
0.000869451
0.000876624
0.000883919
0.000891289
0.000898715
0.000906361
0.000914089
0.000921761
0.000929243
0.000936319
0.000942625
0.000947539
0.000950045
0.000730479
0.000731599
0.000732819
0.000734099
0.000735423
0.000736782
0.000738168
0.000739578
0.000741009
0.000742459
0.000743929
0.000745417
0.000746924
0.00074845
0.000749994
0.000751558
0.00075314
0.000754742
0.000756363
0.000758004
0.000759665
0.000761346
0.000763048
0.000764771
0.000766515
0.00076828
0.000770067
0.000771876
0.000773708
0.000775562
0.00077744
0.000779341
0.000781266
0.000783216
0.00078519
0.00078719
0.000789216
0.000791269
0.000793349
0.000795457
0.000797593
0.000799759
0.000801955
0.000804182
0.000806442
0.000808734
0.00081106
0.000813422
0.00081582
0.000818255
0.00082073
0.000823244
0.000825799
0.000828398
0.00083104
0.000833729
0.000836466
0.000839254
0.000842095
0.000844992
0.000847947
0.000850963
0.000854041
0.000857186
0.000860398
0.000863681
0.000867038
0.00087047
0.000873981
0.000877573
0.000881247
0.000885005
0.000888849
0.000892779
0.000896796
0.000900899
0.000905084
0.00090935
0.000913692
0.000918102
0.000922572
0.000927091
0.000931647
0.000936224
0.000940805
0.000945369
0.000949893
0.000954352
0.000958716
0.000962953
0.000967022
0.000970883
0.000974488
0.000977897
0.000981058
0.000983926
0.000986441
0.000988516
0.000990019
0.000990726
0.000794221
0.000795448
0.000796801
0.000798228
0.000799706
0.000801222
0.000802768
0.000804338
0.00080593
0.000807541
0.00080917
0.000810818
0.000812484
0.000814168
0.00081587
0.000817589
0.000819327
0.000821083
0.000822857
0.000824649
0.00082646
0.000828289
0.000830138
0.000832004
0.00083389
0.000835795
0.000837718
0.00083966
0.000841622
0.000843602
0.000845601
0.00084762
0.000849658
0.000851715
0.000853792
0.000855887
0.000858002
0.000860136
0.000862289
0.000864461
0.000866653
0.000868864
0.000871094
0.000873344
0.000875613
0.000877902
0.00088021
0.000882537
0.000884884
0.000887251
0.000889638
0.000892044
0.00089447
0.000896915
0.00089938
0.000901865
0.00090437
0.000906895
0.000909441
0.000912009
0.000914597
0.000917206
0.000919836
0.000922486
0.000925156
0.000927846
0.000930555
0.000933282
0.000936025
0.000938782
0.000941553
0.000944335
0.000947125
0.000949919
0.000952715
0.000955506
0.000958288
0.000961054
0.000963797
0.000966509
0.000969182
0.000971804
0.000974366
0.000976857
0.000979263
0.000981574
0.000983777
0.000985859
0.000987807
0.000989608
0.000991248
0.000992715
0.000993995
0.000995093
0.000996051
0.000996864
0.000997528
0.00099804
0.000998389
0.000998547
0.000845459
0.000846669
0.000848014
0.000849432
0.000850899
0.0008524
0.000853927
0.000855475
0.00085704
0.00085862
0.000860215
0.000861823
0.000863445
0.000865081
0.00086673
0.000868392
0.000870067
0.000871756
0.000873458
0.000875173
0.000876901
0.000878642
0.000880396
0.000882163
0.000883943
0.000885735
0.00088754
0.000889357
0.000891186
0.000893027
0.000894879
0.000896743
0.000898619
0.000900505
0.000902401
0.000904308
0.000906224
0.00090815
0.000910084
0.000912027
0.000913979
0.000915937
0.000917903
0.000919875
0.000921853
0.000923836
0.000925824
0.000927816
0.000929811
0.000931808
0.000933806
0.000935806
0.000937805
0.000939802
0.000941798
0.00094379
0.000945778
0.000947762
0.000949739
0.00095171
0.000953672
0.000955625
0.000957568
0.000959498
0.000961415
0.000963317
0.000965201
0.000967066
0.000968911
0.000970732
0.000972527
0.000974295
0.000976031
0.000977734
0.0009794
0.000981025
0.000982606
0.000984138
0.000985618
0.000987042
0.000988405
0.000989702
0.000990929
0.000992083
0.000993159
0.000994155
0.000995067
0.000995892
0.000996631
0.00099728
0.000997841
0.000998313
0.000998699
0.000999002
0.000999247
0.000999442
0.000999591
0.000999699
0.000999768
0.0009998
0.000885185
0.000886319
0.000887577
0.000888898
0.000890259
0.000891646
0.000893051
0.00089447
0.0008959
0.000897339
0.000898787
0.000900242
0.000901706
0.000903176
0.000904654
0.000906138
0.000907629
0.000909127
0.000910632
0.000912143
0.000913661
0.000915184
0.000916714
0.000918249
0.00091979
0.000921337
0.000922888
0.000924443
0.000926003
0.000927567
0.000929134
0.000930705
0.000932278
0.000933854
0.000935431
0.00093701
0.00093859
0.00094017
0.00094175
0.000943328
0.000944906
0.000946481
0.000948054
0.000949623
0.000951188
0.000952748
0.000954302
0.00095585
0.00095739
0.000958921
0.000960443
0.000961955
0.000963454
0.000964941
0.000966414
0.000967871
0.000969313
0.000970737
0.000972143
0.00097353
0.000974895
0.000976238
0.000977558
0.000978853
0.000980121
0.000981362
0.000982573
0.000983754
0.000984902
0.000986017
0.000987096
0.000988139
0.000989144
0.000990109
0.000991033
0.000991915
0.000992753
0.000993545
0.000994291
0.00099499
0.000995639
0.00099624
0.000996791
0.000997292
0.000997743
0.000998145
0.0009985
0.000998807
0.00099907
0.00099929
0.00099947
0.000999613
0.000999722
0.000999801
0.00099986
0.000999904
0.000999935
0.000999956
0.000999969
0.000999975
0.000914713
0.000915758
0.000916907
0.000918103
0.000919325
0.000920563
0.000921811
0.000923066
0.000924325
0.000925588
0.000926853
0.00092812
0.000929388
0.000930658
0.00093193
0.000933202
0.000934475
0.000935749
0.000937023
0.000938298
0.000939572
0.000940847
0.000942121
0.000943394
0.000944666
0.000945937
0.000947207
0.000948475
0.00094974
0.000951003
0.000952263
0.00095352
0.000954773
0.000956021
0.000957265
0.000958503
0.000959736
0.000960962
0.000962182
0.000963394
0.000964598
0.000965795
0.000966982
0.00096816
0.000969327
0.000970484
0.000971629
0.000972762
0.000973883
0.000974989
0.000976082
0.000977159
0.000978221
0.000979265
0.000980292
0.000981301
0.00098229
0.00098326
0.000984208
0.000985135
0.000986039
0.00098692
0.000987776
0.000988608
0.000989413
0.000990192
0.000990944
0.000991667
0.000992361
0.000993025
0.000993659
0.000994262
0.000994834
0.000995374
0.000995882
0.000996358
0.0009968
0.000997211
0.000997588
0.000997933
0.000998247
0.000998529
0.00099878
0.000999003
0.000999196
0.000999364
0.000999505
0.000999624
0.000999721
0.000999798
0.000999859
0.000999904
0.000999936
0.000999958
0.000999972
0.000999983
0.000999989
0.000999994
0.000999996
0.000999997
0.00093529
0.000936264
0.000937316
0.000938397
0.000939491
0.000940591
0.000941695
0.000942799
0.000943902
0.000945003
0.000946102
0.000947198
0.000948292
0.000949382
0.000950469
0.000951552
0.000952632
0.000953707
0.000954779
0.000955846
0.000956908
0.000957966
0.000959018
0.000960065
0.000961107
0.000962143
0.000963172
0.000964195
0.000965212
0.000966221
0.000967223
0.000968217
0.000969203
0.000970181
0.000971149
0.000972108
0.000973058
0.000973997
0.000974926
0.000975844
0.000976751
0.000977646
0.000978529
0.0009794
0.000980258
0.000981102
0.000981933
0.00098275
0.000983551
0.000984338
0.00098511
0.000985865
0.000986604
0.000987326
0.000988031
0.000988718
0.000989387
0.000990037
0.000990669
0.000991281
0.000991873
0.000992445
0.000992996
0.000993526
0.000994035
0.000994522
0.000994988
0.000995431
0.000995853
0.000996252
0.000996628
0.000996982
0.000997314
0.000997624
0.000997911
0.000998176
0.00099842
0.000998643
0.000998845
0.000999026
0.000999189
0.000999332
0.000999458
0.000999566
0.000999659
0.000999737
0.000999802
0.000999854
0.000999896
0.000999928
0.000999952
0.000999969
0.000999981
0.000999989
0.000999993
0.000999996
0.000999998
0.000999999
0.000999999
0.001
0.000947978
0.000948911
0.000949899
0.000950898
0.000951901
0.000952903
0.000953903
0.000954899
0.00095589
0.000956876
0.000957857
0.000958831
0.0009598
0.000960763
0.000961719
0.000962669
0.000963612
0.000964548
0.000965477
0.000966399
0.000967314
0.00096822
0.000969119
0.000970009
0.000970891
0.000971765
0.000972629
0.000973485
0.00097433
0.000975167
0.000975993
0.000976809
0.000977614
0.000978408
0.000979192
0.000979964
0.000980724
0.000981473
0.000982209
0.000982933
0.000983644
0.000984342
0.000985027
0.000985698
0.000986356
0.000986999
0.000987629
0.000988243
0.000988843
0.000989428
0.000989998
0.000990553
0.000991091
0.000991614
0.000992122
0.000992613
0.000993087
0.000993545
0.000993987
0.000994412
0.00099482
0.000995211
0.000995585
0.000995943
0.000996283
0.000996606
0.000996913
0.000997202
0.000997475
0.000997731
0.000997971
0.000998194
0.000998402
0.000998594
0.000998771
0.000998933
0.00099908
0.000999214
0.000999334
0.000999441
0.000999537
0.00099962
0.000999693
0.000999755
0.000999808
0.000999852
0.000999889
0.000999918
0.000999942
0.00099996
0.000999973
0.000999983
0.00099999
0.000999994
0.000999997
0.000999998
0.000999999
0.001
0.001
0.001
0.00095369
0.000954611
0.000955571
0.000956534
0.000957494
0.00095845
0.000959399
0.000960343
0.000961281
0.000962211
0.000963134
0.00096405
0.000964959
0.00096586
0.000966753
0.000967639
0.000968516
0.000969385
0.000970245
0.000971097
0.00097194
0.000972774
0.000973598
0.000974413
0.000975219
0.000976014
0.0009768
0.000977575
0.000978339
0.000979092
0.000979835
0.000980566
0.000981286
0.000981993
0.000982689
0.000983373
0.000984044
0.000984703
0.000985349
0.000985982
0.000986602
0.000987208
0.000987801
0.00098838
0.000988945
0.000989496
0.000990033
0.000990555
0.000991063
0.000991557
0.000992035
0.000992499
0.000992948
0.000993381
0.0009938
0.000994204
0.000994592
0.000994965
0.000995323
0.000995666
0.000995994
0.000996306
0.000996604
0.000996887
0.000997155
0.000997409
0.000997648
0.000997872
0.000998083
0.00099828
0.000998464
0.000998634
0.000998792
0.000998937
0.000999071
0.000999192
0.000999303
0.000999402
0.000999492
0.000999572
0.000999643
0.000999705
0.000999759
0.000999806
0.000999846
0.000999879
0.000999907
0.00099993
0.000999949
0.000999963
0.000999975
0.000999983
0.00099999
0.000999994
0.000999997
0.000999998
0.000999999
0.001
0.001
0.001
3.07267e-12
6.35798e-12
1.30743e-11
2.48555e-11
4.46924e-11
7.73884e-11
1.30742e-10
2.17686e-10
3.60188e-10
5.96553e-10
9.95453e-10
1.68366e-09
2.90254e-09
5.12645e-09
9.31788e-09
1.74862e-08
3.39108e-08
6.76348e-08
1.35735e-07
2.51586e-07
3.47217e-11
5.9025e-11
1.04222e-10
1.79026e-10
2.9805e-10
4.83856e-10
7.72079e-10
1.22045e-09
1.92512e-09
3.05096e-09
4.88894e-09
7.96819e-09
1.32803e-08
2.27419e-08
4.01673e-08
7.3339e-08
1.38373e-07
2.67998e-07
5.20051e-07
9.24365e-07
3.96959e-10
5.95699e-10
9.20124e-10
1.41575e-09
2.15316e-09
3.2346e-09
4.81553e-09
7.14087e-09
1.06086e-08
1.58845e-08
2.41155e-08
3.7334e-08
5.92464e-08
9.68114e-08
1.63458e-07
2.85721e-07
5.16639e-07
9.59201e-07
1.78161e-06
3.00741e-06
4.14198e-09
5.65181e-09
7.88734e-09
1.10303e-08
1.53864e-08
2.13738e-08
2.96028e-08
4.10084e-08
5.70755e-08
8.02318e-08
1.14551e-07
1.67057e-07
2.50157e-07
3.86374e-07
6.17706e-07
1.02414e-06
1.75872e-06
3.10229e-06
5.46393e-06
8.64608e-06
3.89842e-08
4.92192e-08
6.32629e-08
8.1623e-08
1.05393e-07
1.36029e-07
1.75602e-07
2.27229e-07
2.95789e-07
3.89109e-07
5.20061e-07
7.10211e-07
9.96365e-07
1.4431e-06
2.16636e-06
3.37725e-06
5.45822e-06
9.05839e-06
1.4958e-05
2.19514e-05
3.28303e-07
3.88643e-07
4.6657e-07
5.62307e-07
6.78811e-07
8.20069e-07
9.91824e-07
1.20283e-06
1.4668e-06
1.80559e-06
2.25504e-06
2.87305e-06
3.75539e-06
5.06456e-06
7.07952e-06
1.02813e-05
1.54813e-05
2.38997e-05
3.64596e-05
4.9306e-05
2.4339e-06
2.73232e-06
3.09988e-06
3.52819e-06
4.02134e-06
4.58628e-06
5.23462e-06
5.98566e-06
6.87099e-06
7.94347e-06
9.28858e-06
1.10393e-05
1.34102e-05
1.67537e-05
2.16439e-05
2.90057e-05
4.02375e-05
5.70164e-05
7.90628e-05
9.8409e-05
1.54634e-05
1.66274e-05
1.80106e-05
1.95507e-05
2.12364e-05
2.30659e-05
2.50507e-05
2.72197e-05
2.96366e-05
3.24116e-05
3.57033e-05
3.9759e-05
4.49782e-05
5.19972e-05
6.17967e-05
7.5792e-05
9.57502e-05
0.000122629
0.000152654
0.000175439
8.07876e-05
8.39315e-05
8.75739e-05
9.14596e-05
9.55018e-05
9.96381e-05
0.000103868
0.000108234
0.000112865
0.000117891
0.000123496
0.000130004
0.000137981
0.000148266
0.000162164
0.000181177
0.000206372
0.000235963
0.000263143
0.000281172
0.000324582
0.000328306
0.000332577
0.000336893
0.000341061
0.000344916
0.000348505
0.000351881
0.000355044
0.000357945
0.000360706
0.000363402
0.000366479
0.000370216
0.000375551
0.000383047
0.000392675
0.000401974
0.000407227
0.000409333
0.000784506
0.000780995
0.000776903
0.000772543
0.000767994
0.000763304
0.00075834
0.000752945
0.000747
0.000740346
0.000732771
0.000723874
0.000713046
0.000699366
0.000681412
0.000658007
0.000629406
0.000598035
0.000568125
0.000546189
0.000948918
0.000946528
0.000943721
0.000940635
0.000937292
0.000933693
0.000929796
0.000925522
0.000920704
0.000915141
0.000908571
0.000900563
0.000890412
0.000877074
0.000858946
0.000833964
0.000800026
0.000757314
0.000712052
0.000676086
0.000990306
0.000989465
0.00098845
0.000987291
0.000985978
0.000984497
0.000982815
0.000980885
0.000978624
0.000975905
0.000972533
0.000968214
0.000962475
0.000954568
0.000943302
0.000926869
0.000902709
0.000868337
0.000825932
0.000788335
0.000998449
0.000998235
0.000997966
0.000997644
0.000997261
0.000996805
0.00099626
0.0009956
0.000994785
0.000993754
0.000992406
0.000990586
0.000988041
0.00098435
0.000978812
0.000970253
0.000956775
0.000935736
0.000905979
0.000876336
0.000999784
0.000999739
0.000999681
0.000999607
0.000999514
0.000999397
0.000999249
0.000999059
0.000998811
0.000998479
0.00099802
0.000997367
0.000996405
0.000994935
0.00099261
0.000988816
0.000982473
0.000971843
0.000955183
0.000936734
0.000999973
0.000999965
0.000999954
0.00099994
0.00099992
0.000999893
0.000999858
0.000999809
0.000999743
0.000999648
0.00099951
0.000999303
0.000998982
0.000998466
0.000997609
0.000996138
0.000993545
0.000988936
0.000981133
0.00097135
0.000999997
0.000999996
0.000999994
0.000999991
0.000999987
0.000999982
0.000999974
0.000999963
0.000999947
0.000999922
0.000999885
0.000999826
0.00099973
0.000999568
0.000999287
0.000998782
0.00099785
0.000996108
0.000992978
0.000988593
0.001
0.001
0.000999999
0.000999999
0.000999998
0.000999997
0.000999996
0.000999993
0.000999989
0.000999984
0.000999974
0.000999959
0.000999933
0.000999888
0.000999805
0.00099965
0.000999353
0.000998775
0.000997682
0.000996014
0.001
0.001
0.001
0.001
0.001
0.001
0.000999999
0.000999999
0.000999998
0.000999997
0.000999995
0.000999991
0.000999984
0.000999973
0.000999951
0.000999908
0.000999824
0.000999654
0.000999319
0.000998775
0.001
0.001
0.001
0.001
0.001
0.001
0.001
0.001
0.001
0.000999999
0.000999999
0.000999998
0.000999996
0.000999994
0.000999988
0.000999978
0.000999956
0.000999912
0.000999822
0.000999668
2.73297e-139
3.48893e-139
5.78387e-139
1.12799e-138
2.33841e-138
4.89594e-138
1.01522e-137
2.06975e-137
4.13442e-137
8.07212e-137
1.53664e-136
2.84151e-136
5.09076e-136
8.80616e-136
1.4644e-135
2.32768e-135
3.50923e-135
4.96321e-135
6.47753e-135
7.59289e-135
6.38106e-138
7.92984e-138
1.29028e-137
2.50272e-137
5.1963e-137
1.09226e-136
2.27581e-136
4.66413e-136
9.36936e-136
1.84031e-135
3.52604e-135
6.56425e-135
1.18439e-134
2.06425e-134
3.4605e-134
5.5491e-134
8.44732e-134
1.20768e-133
1.59538e-133
1.89665e-133
1.37116e-136
1.65114e-136
2.62563e-136
5.05685e-136
1.05148e-135
2.22004e-135
4.65051e-135
9.58671e-135
1.93784e-134
3.8317e-134
7.39396e-134
1.38689e-133
2.52246e-133
4.434e-133
7.50135e-133
1.21481e-132
1.86942e-132
2.70549e-132