/*--------------------------------*- C++ -*----------------------------------*\
| =========                 |                                                 |
| \\      /  F ield         | OpenFOAM: The Open Source CFD Toolbox           |
|  \\    /   O peration     | Version:  2.1.0                                 |
|   \\  /    A nd           | Web:      www.OpenFOAM.org                      |
|    \\/     M anipulation  |                                                 |
\*---------------------------------------------------------------------------*/
FoamFile
{
    version     2.0;
    format      ascii;
    class       volScalarField;
    location    "0.51";
    object      k;
}
// * * * * * * * * * * * * * * * * * * * * * * * * * * * * * * * * * * * * * //

dimensions      [0 2 -2 0 0 0 0];

internalField   nonuniform List<scalar> 
6400
(
0.0327579
0.0327973
0.0328007
0.0327949
0.0327728
0.0327621
0.0327323
0.032718
0.0326849
0.0326683
0.0326333
0.0326136
0.0325776
0.0325541
0.0325173
0.0324896
0.0324518
0.0324199
0.0323808
0.0323448
0.032304
0.0322644
0.0322219
0.0321793
0.0321352
0.03209
0.0320442
0.0319967
0.0319488
0.0318988
0.0318486
0.0317959
0.031743
0.0316876
0.0316316
0.031573
0.0315136
0.0314515
0.0313882
0.0313218
0.0312533
0.0311806
0.031105
0.0310243
0.0309393
0.0308483
0.0307514
0.0306474
0.0305361
0.0304164
0.030288
0.0301501
0.0300021
0.0298413
0.0296646
0.0294707
0.0292554
0.029038
0.0288024
0.0285631
0.0283073
0.0280467
0.0277728
0.0274917
0.027197
0.0268937
0.0265765
0.026249
0.0259045
0.0255444
0.0251681
0.0247724
0.0243587
0.0239239
0.0234695
0.0229939
0.0224988
0.0219848
0.0214543
0.0209098
0.0203537
0.0197876
0.0192077
0.0185966
0.0179207
0.0172237
0.0164721
0.0156467
0.0147139
0.0136207
0.0122953
0.0106266
0.00853332
0.0060519
0.00339381
0.00235663
0.00274575
0.00552271
0.00876166
0.00991655
0.0518757
0.052214
0.052369
0.0526528
0.0528283
0.0531098
0.0533043
0.0535796
0.0537919
0.0540617
0.0542892
0.0545553
0.054795
0.055059
0.0553082
0.0555713
0.0558274
0.0560902
0.0563511
0.0566139
0.0568778
0.0571408
0.0574069
0.0576712
0.0579404
0.0582084
0.0584827
0.0587562
0.0590366
0.0593167
0.0596036
0.0598907
0.0601843
0.0604787
0.0607792
0.0610813
0.0613892
0.0616995
0.0620161
0.0623359
0.0626622
0.0629898
0.0633215
0.0636539
0.0639878
0.0643208
0.064652
0.0649794
0.065301
0.0656151
0.0659194
0.0662131
0.0664986
0.0667783
0.0670386
0.0672823
0.0674894
0.0677033
0.0678902
0.0680712
0.0682244
0.0683639
0.0684805
0.0685852
0.0686622
0.068721
0.0687487
0.0687583
0.0687349
0.0686643
0.0685537
0.0683867
0.0681616
0.0678659
0.0674927
0.0670319
0.0664743
0.0658119
0.0650361
0.0641419
0.0631238
0.0619827
0.0607209
0.0593366
0.0577959
0.0560196
0.0539989
0.051659
0.0489488
0.0457896
0.0421307
0.0379279
0.0332456
0.0283529
0.0233618
0.0186229
0.0149774
0.0123958
0.0107891
0.00922045
0.0576682
0.0581703
0.058399
0.0588142
0.0590965
0.0594963
0.0598118
0.0602017
0.0605407
0.0609254
0.061282
0.0616651
0.0620352
0.062419
0.0627994
0.0631853
0.0635735
0.063962
0.0643557
0.0647461
0.0651428
0.0655339
0.0659308
0.0663204
0.0667163
0.0671068
0.0675057
0.0679004
0.0683027
0.0687018
0.0691071
0.0695098
0.0699177
0.0703234
0.0707331
0.0711406
0.0715507
0.071958
0.0723657
0.0727698
0.0731725
0.073572
0.0739679
0.0743593
0.0747438
0.0751208
0.0754864
0.0758394
0.0761738
0.0764863
0.0767698
0.0770155
0.0772192
0.0774177
0.0775797
0.0777272
0.0778423
0.0779401
0.0780048
0.0780435
0.0780589
0.0780597
0.0779964
0.0779115
0.0777675
0.0775892
0.0773508
0.0770676
0.0767204
0.0763171
0.0758412
0.0752941
0.0746602
0.0739362
0.0731063
0.072164
0.0710934
0.0698871
0.0685304
0.0670174
0.0653363
0.0634844
0.0614539
0.0592445
0.0568549
0.0543163
0.0516057
0.0487426
0.0456934
0.0424578
0.0389852
0.0352536
0.0312324
0.0269271
0.0224493
0.018099
0.0144251
0.0114661
0.00928377
0.00710571
0.0619801
0.0625429
0.062799
0.0632801
0.0636141
0.0640748
0.0644511
0.0648982
0.0653007
0.0657403
0.06616
0.0665966
0.0670279
0.0674642
0.0679035
0.0683407
0.0687853
0.0692237
0.0696711
0.0701099
0.0705576
0.0709949
0.0714393
0.0718713
0.0723041
0.072718
0.0731381
0.0735488
0.0739622
0.0743661
0.07477
0.075164
0.0755553
0.0759356
0.0763106
0.0766732
0.0770276
0.0773677
0.0776983
0.078012
0.0783089
0.0785906
0.0788502
0.0790919
0.0793075
0.0795011
0.0796645
0.0798012
0.0799036
0.0799677
0.0799961
0.0800025
0.0799572
0.0798783
0.0797483
0.0795776
0.0793503
0.0790734
0.0787321
0.0783302
0.0778546
0.0773082
0.0766815
0.0759778
0.0751838
0.0743051
0.0733282
0.07226
0.0710894
0.0698235
0.068454
0.0669886
0.0654225
0.0637641
0.0620103
0.0601708
0.0582431
0.0562378
0.0541527
0.0519978
0.0497707
0.0474806
0.045125
0.042712
0.0402409
0.0377189
0.0351462
0.0325476
0.0299201
0.0272816
0.0246343
0.0219948
0.019369
0.0167783
0.0142552
0.0118798
0.0096999
0.00786248
0.00658651
0.00598986
0.0632334
0.063771
0.0640108
0.0644767
0.0647874
0.065231
0.065579
0.0660022
0.0663702
0.0667771
0.0671545
0.067548
0.0679279
0.0683097
0.0686868
0.0690568
0.0694267
0.0697839
0.0701425
0.0704848
0.0708281
0.0711531
0.0714773
0.0717822
0.072082
0.0723652
0.0726416
0.0729013
0.073151
0.0733816
0.0735989
0.0737945
0.0739732
0.0741271
0.0742602
0.0743652
0.0744451
0.0744853
0.0745012
0.0744976
0.0744335
0.0743493
0.0742088
0.0740364
0.0738079
0.0735387
0.0732117
0.0728371
0.0724023
0.0719145
0.0713654
0.0707593
0.0700882
0.0693588
0.0685626
0.0677057
0.066785
0.0658036
0.0647574
0.0636507
0.0624798
0.0612502
0.0599587
0.0586115
0.057206
0.0557495
0.0542395
0.0526841
0.0510814
0.0494397
0.0477578
0.0460436
0.0442973
0.0425269
0.0407354
0.0389327
0.0371184
0.0353019
0.0334846
0.0316754
0.0298769
0.0280989
0.0263455
0.024626
0.0229451
0.0213108
0.0197284
0.0181898
0.0167057
0.0152707
0.0138933
0.0125679
0.0113044
0.0101012
0.00897531
0.00794348
0.00703097
0.00639862
0.00612446
0.00612121
0.0598738
0.0602098
0.0603599
0.060663
0.06086
0.0611429
0.0613562
0.0616129
0.0618261
0.0620553
0.0622585
0.0624597
0.0626455
0.0628177
0.0629802
0.0631213
0.0632551
0.0633623
0.0634624
0.0635321
0.0635905
0.0636183
0.0636295
0.0636254
0.0635823
0.0635227
0.0634295
0.0633114
0.0631667
0.062994
0.062793
0.0625597
0.0622957
0.0619961
0.0616632
0.0612919
0.0608851
0.0604375
0.0599537
0.0594271
0.05886
0.0582529
0.0576025
0.0569128
0.0561795
0.0554077
0.0545931
0.0537412
0.0528487
0.0519206
0.0509547
0.0499558
0.0489224
0.0478592
0.0467656
0.0456464
0.0445007
0.0433333
0.0421446
0.040942
0.0397247
0.0384989
0.0372643
0.0360268
0.0347865
0.0335492
0.0323154
0.0310903
0.0298748
0.0286739
0.0274887
0.0263239
0.0251804
0.0240624
0.0229684
0.0219009
0.0208622
0.0198541
0.0188795
0.0179396
0.0170351
0.0161614
0.0153234
0.0145163
0.0137436
0.0129999
0.0122876
0.0116011
0.0109418
0.0103031
0.00968623
0.00908475
0.00850167
0.00793485
0.00739729
0.00689988
0.00653549
0.00637717
0.00635059
0.00656763
0.0508953
0.0508687
0.0508604
0.0508566
0.0508512
0.0508325
0.05081
0.0507638
0.0507147
0.0506351
0.0505537
0.0504377
0.0503202
0.0501656
0.0500091
0.0498143
0.0496166
0.0493802
0.0491398
0.0488611
0.0485771
0.0482563
0.0479292
0.0475679
0.0471913
0.046783
0.0463569
0.0459007
0.0454255
0.0449212
0.0443973
0.0438451
0.0432732
0.0426744
0.0420565
0.0414132
0.0407521
0.0400676
0.0393672
0.0386456
0.0379102
0.0371572
0.0363946
0.0356184
0.0348352
0.0340427
0.0332463
0.0324447
0.0316427
0.0308397
0.0300399
0.0292432
0.0284534
0.0276705
0.0268979
0.0261356
0.0253835
0.0246446
0.0239195
0.0232077
0.0225108
0.0218295
0.0211646
0.0205166
0.0198858
0.019272
0.0186773
0.0180987
0.017537
0.0169909
0.0164605
0.0159445
0.0154426
0.0149533
0.014476
0.0140092
0.0135521
0.013103
0.0126603
0.0122219
0.0118012
0.0113917
0.0109982
0.0106144
0.0102446
0.00988291
0.00953353
0.00919128
0.008861
0.00853912
0.00823218
0.00793926
0.00766976
0.00742689
0.00723019
0.00709966
0.00704615
0.00709
0.00743065
0.00762287
0.0380505
0.0377007
0.037553
0.0372754
0.0370992
0.0368152
0.0366048
0.0363036
0.0360575
0.0357337
0.0354519
0.0351028
0.0347861
0.0344109
0.0340609
0.0336591
0.0332771
0.0328487
0.0324359
0.0319814
0.0315391
0.031059
0.0305882
0.0300831
0.0295946
0.029079
0.0285785
0.0280566
0.0275444
0.0270134
0.0264939
0.02596
0.0254394
0.0249083
0.0243923
0.0238694
0.0233633
0.0228535
0.0223622
0.02187
0.0213977
0.0209268
0.0204752
0.020027
0.0195989
0.019176
0.0187735
0.0183777
0.0180023
0.0176347
0.0172871
0.0169478
0.0166278
0.0163181
0.0160264
0.0157458
0.0154818
0.0152293
0.0149915
0.0147648
0.0145517
0.0143492
0.0141591
0.013979
0.0138104
0.0136514
0.0135011
0.0133607
0.0132296
0.0131073
0.012993
0.0128861
0.0127859
0.0126917
0.0126026
0.0125182
0.0124373
0.0123594
0.0122833
0.0122081
0.012133
0.0120541
0.0119716
0.0118816
0.0117839
0.0116745
0.011553
0.0114159
0.0112636
0.0110949
0.0109133
0.0107221
0.0105308
0.0103504
0.0102234
0.0101685
0.0101629
0.0104109
0.0107735
0.0109521
0.0250947
0.0245637
0.0243426
0.0239228
0.0236801
0.0232695
0.0230051
0.0225998
0.0223166
0.0219154
0.021618
0.0212205
0.020913
0.0205193
0.020205
0.0198165
0.0194989
0.0191172
0.0187996
0.0184268
0.0181126
0.0177508
0.0174432
0.0170949
0.0168009
0.0164723
0.016194
0.0158863
0.0156256
0.0153405
0.0150994
0.0148381
0.014618
0.0143818
0.0141835
0.0139731
0.0137972
0.0136129
0.0134594
0.0133013
0.0131705
0.0130379
0.0129299
0.0128222
0.012737
0.0126538
0.0125914
0.0125321
0.0124924
0.0124576
0.0124406
0.0124328
0.0124315
0.0124477
0.0124706
0.0125082
0.0125535
0.0126124
0.0126805
0.0127618
0.0128529
0.0129567
0.0130709
0.0131976
0.0133351
0.0134851
0.0136463
0.0138199
0.0140048
0.0142023
0.0144115
0.0146336
0.0148681
0.0151158
0.0153764
0.0156504
0.0159374
0.0162381
0.0165517
0.0168785
0.0172178
0.017569
0.01793
0.0182999
0.0186756
0.0190543
0.0194319
0.0198037
0.0201641
0.0205079
0.0208305
0.0211289
0.0214031
0.0216578
0.0219084
0.0222045
0.0226499
0.0232664
0.0240921
0.0249994
0.0177458
0.0172127
0.0169966
0.0165846
0.0163678
0.0159751
0.0157596
0.0153878
0.015176
0.0148264
0.0146212
0.0142947
0.0140985
0.0137958
0.0136108
0.0133324
0.0131605
0.0129068
0.0127496
0.0125208
0.0123796
0.0121758
0.0120516
0.0118726
0.0117662
0.0116116
0.0115231
0.0113923
0.0113216
0.0112143
0.0111608
0.0110786
0.0110386
0.0109825
0.0109559
0.0109255
0.0109123
0.0109062
0.0109056
0.0109196
0.01094
0.0109711
0.0110103
0.0110592
0.0111172
0.0111837
0.0112604
0.011345
0.0114403
0.0115433
0.0116575
0.0117794
0.0119126
0.0120543
0.0122069
0.0123688
0.0125418
0.0127249
0.0129193
0.0131244
0.0133414
0.0135701
0.0138114
0.0140655
0.0143332
0.0146148
0.0149112
0.0152228
0.0155506
0.0158953
0.0162579
0.0166395
0.017041
0.0174638
0.0179091
0.0183788
0.0188742
0.0193975
0.0199504
0.0205352
0.0211543
0.0218104
0.0225072
0.0232478
0.0240367
0.0248783
0.0257781
0.0267423
0.0277789
0.0288963
0.0301054
0.0314183
0.0328498
0.0344167
0.0361375
0.0380232
0.0400807
0.0422682
0.0437961
0.044419
0.0203502
0.0198001
0.0195747
0.0191444
0.018912
0.0184984
0.0182611
0.0178646
0.0176252
0.0172465
0.0170079
0.0166486
0.016414
0.0160756
0.015848
0.0155312
0.0153135
0.015019
0.0148136
0.0145418
0.0143506
0.014102
0.0139264
0.0137011
0.0135423
0.0133404
0.0131991
0.0130205
0.0128974
0.0127419
0.0126371
0.0125045
0.0124182
0.0123085
0.0122405
0.0121536
0.0121039
0.01204
0.0120083
0.0119703
0.0119527
0.0119425
0.0119396
0.0119474
0.0119676
0.0119952
0.0120354
0.0120829
0.012143
0.0122105
0.0122907
0.0123784
0.0124789
0.0125874
0.0127088
0.0128382
0.0129806
0.0131315
0.0132956
0.0134687
0.0136549
0.0138514
0.014061
0.0142821
0.0145168
0.0147641
0.0150257
0.015301
0.0155915
0.0158972
0.0162193
0.0165579
0.0169145
0.0172895
0.0176843
0.0180997
0.0185375
0.0189985
0.0194847
0.0199975
0.0205392
0.0211117
0.0217176
0.0223594
0.0230403
0.0237635
0.0245331
0.025353
0.026228
0.0271629
0.0281639
0.0292395
0.0304081
0.0316805
0.0330838
0.0346423
0.0363955
0.0383143
0.0398629
0.0405434
0.0306397
0.0301074
0.0298833
0.0294572
0.0292062
0.0287863
0.0285082
0.0280897
0.0277877
0.0273659
0.0270374
0.0266103
0.0262599
0.0258289
0.0254623
0.0250285
0.0246509
0.0242166
0.0238326
0.0234006
0.0230145
0.0225877
0.0222035
0.0217849
0.0214063
0.0209988
0.0206292
0.0202357
0.0198781
0.0195012
0.0191585
0.0188005
0.0184753
0.0181379
0.0178316
0.0175158
0.0172298
0.0169374
0.0166734
0.0164052
0.016164
0.015922
0.015705
0.0154899
0.015298
0.0151098
0.0149433
0.0147817
0.0146404
0.014505
0.0143888
0.0142793
0.014188
0.0141041
0.0140376
0.0139784
0.0139353
0.0138998
0.0138807
0.0138716
0.0138694
0.0138817
0.0139037
0.0139375
0.0139812
0.0140359
0.0141003
0.0141746
0.0142584
0.01435
0.0144496
0.014556
0.0146691
0.0147877
0.0149113
0.0150386
0.0151691
0.0153013
0.0154344
0.0155668
0.0156978
0.0158254
0.015949
0.0160665
0.0161772
0.0162795
0.0163728
0.0164562
0.0165304
0.0165951
0.0166535
0.0167059
0.016751
0.0168135
0.0169086
0.0170847
0.0173958
0.0179214
0.0186495
0.0196935
0.0435964
0.0432682
0.0431299
0.0428667
0.0426997
0.0424277
0.0422241
0.0419323
0.041691
0.0413739
0.0410955
0.0407501
0.040435
0.0400598
0.0397084
0.0393032
0.0389162
0.0384811
0.03806
0.0375958
0.0371423
0.0366502
0.0361666
0.0356486
0.0351372
0.0345958
0.0340598
0.033498
0.0329414
0.0323627
0.0317898
0.0311984
0.0306138
0.0300145
0.0294238
0.0288217
0.0282243
0.0276194
0.0270223
0.0264214
0.0258313
0.0252408
0.0246636
0.0240892
0.0235302
0.0229766
0.0224403
0.0219117
0.0214015
0.0208993
0.0204158
0.0199415
0.0194857
0.0190394
0.0186107
0.0181925
0.0177912
0.0173997
0.0170271
0.0166644
0.0163192
0.015984
0.0156646
0.0153537
0.0150563
0.0147663
0.0144876
0.0142136
0.013948
0.0136908
0.013441
0.0131977
0.0129607
0.0127281
0.0125006
0.0122759
0.0120551
0.0118357
0.0116191
0.011403
0.0111892
0.0109755
0.0107642
0.0105537
0.0103462
0.0101411
0.00993765
0.00973815
0.00954307
0.0093559
0.00917891
0.00901734
0.00887589
0.00876022
0.00870271
0.00868365
0.00879165
0.00905126
0.00945306
0.00963119
0.0552277
0.0552254
0.0552333
0.0552451
0.0552509
0.0552515
0.0552386
0.0552061
0.0551659
0.055099
0.0550314
0.0549298
0.0548293
0.0546906
0.0545527
0.0543744
0.054195
0.0539744
0.0537503
0.0534849
0.0532131
0.0529003
0.0525785
0.0522177
0.0518436
0.0514308
0.0510039
0.0505385
0.0500575
0.0495386
0.049003
0.0484308
0.0478409
0.0472161
0.0465734
0.0458979
0.0452046
0.0444804
0.0437392
0.0429697
0.0421842
0.0413735
0.0405489
0.0397021
0.0388445
0.0379682
0.0370842
0.0361857
0.0352833
0.0343725
0.0334621
0.0325478
0.0316383
0.0307296
0.0298302
0.0289365
0.0280565
0.0271869
0.0263343
0.025496
0.024674
0.0238657
0.0230772
0.0223052
0.0215556
0.0208242
0.0201172
0.0194309
0.01877
0.0181264
0.0175065
0.0169035
0.0163223
0.0157567
0.0152106
0.014678
0.014162
0.0136573
0.0131662
0.0126838
0.0122117
0.0117452
0.0112857
0.010829
0.010376
0.00994483
0.0095261
0.00912985
0.00874665
0.00838682
0.00804245
0.00772487
0.00742689
0.00716693
0.0069288
0.00677102
0.00670145
0.00670042
0.00703228
0.00722048
0.0619649
0.0622823
0.0624246
0.0627085
0.0628981
0.0631628
0.0633684
0.0636096
0.0638166
0.0640345
0.0642339
0.0644281
0.0646132
0.0647826
0.0649477
0.0650906
0.0652308
0.0653445
0.065455
0.0655363
0.0656126
0.0656577
0.0656862
0.0656958
0.0656926
0.0656492
0.0655962
0.0655045
0.0653976
0.0652522
0.0650867
0.0648815
0.0646514
0.0643798
0.0640788
0.0637351
0.0633642
0.0629497
0.062503
0.0620124
0.0614853
0.0609108
0.0602997
0.059639
0.0589408
0.0581925
0.0574061
0.0565705
0.0556969
0.0547763
0.0538187
0.052817
0.0517805
0.0507037
0.049595
0.0484504
0.0472783
0.0460753
0.0448499
0.0435995
0.0423369
0.0410563
0.0397699
0.0384725
0.0371756
0.035875
0.0345811
0.0332903
0.0320124
0.0307438
0.0294941
0.02826
0.0270501
0.0258612
0.0247012
0.0235665
0.0224598
0.021377
0.0203239
0.0192973
0.018302
0.0173356
0.0164013
0.0154977
0.014627
0.0137863
0.0129701
0.0121814
0.0114151
0.0106749
0.00995629
0.00926289
0.00859308
0.00795416
0.00736078
0.00681238
0.0064006
0.00621296
0.00617448
0.00636119
0.0635519
0.0640332
0.064249
0.0646659
0.0649484
0.0653447
0.0656619
0.0660404
0.0663758
0.0667408
0.0670849
0.0674391
0.0677856
0.0681304
0.0684747
0.0688101
0.0691485
0.0694739
0.0698031
0.0701166
0.0704334
0.0707328
0.0710337
0.071318
0.0715995
0.0718627
0.0721227
0.0723631
0.0725991
0.0728165
0.0730255
0.0732144
0.0733914
0.0735462
0.073685
0.0738005
0.0738976
0.0739677
0.0740077
0.0740235
0.0740244
0.0739715
0.0739009
0.07378
0.0736311
0.073431
0.0731946
0.0729043
0.0725704
0.072179
0.0717379
0.0712358
0.0706788
0.0700593
0.0693805
0.0686345
0.0678303
0.0669556
0.0660222
0.0650173
0.0639547
0.0628248
0.0616389
0.0603875
0.0590833
0.0577174
0.0563024
0.0548314
0.0533161
0.0517516
0.0501485
0.0485035
0.046826
0.0451139
0.0433751
0.0416088
0.0398266
0.0380293
0.0362218
0.034406
0.0325855
0.0307637
0.0289435
0.0271303
0.0253272
0.0235411
0.0217771
0.0200428
0.0183458
0.0166734
0.0150534
0.0134803
0.0119831
0.0105637
0.00927207
0.00807882
0.00708163
0.00635309
0.00603105
0.00600412
0.0611934
0.0616925
0.0619205
0.0623432
0.0626406
0.0630442
0.0633789
0.0637702
0.0641275
0.0645125
0.0648843
0.0652669
0.0656483
0.0660308
0.0664188
0.0668023
0.0671945
0.0675794
0.067974
0.0683598
0.0687551
0.0691408
0.0695345
0.0699179
0.0703063
0.070683
0.0710603
0.0714217
0.0717784
0.0721339
0.0724875
0.0728372
0.0731861
0.0735308
0.0738759
0.0742119
0.0745446
0.0748676
0.0751849
0.0754929
0.0757921
0.076077
0.0763537
0.0766122
0.0768597
0.0770859
0.0772975
0.0774847
0.0776531
0.077794
0.0779108
0.0779959
0.0780419
0.0780598
0.0780597
0.0779942
0.0779123
0.0777652
0.0775871
0.0773407
0.0770498
0.0766844
0.0762602
0.0757512
0.0751719
0.074505
0.0737543
0.0729104
0.0719716
0.0709333
0.0697928
0.0685495
0.0672013
0.065751
0.0641975
0.0625464
0.0607978
0.0589569
0.0570253
0.0550065
0.052902
0.0507132
0.0484395
0.0460798
0.0436317
0.0410923
0.0384612
0.0357344
0.0329196
0.0300374
0.0270892
0.0240939
0.0210781
0.0180858
0.015224
0.0125095
0.0101197
0.00808731
0.00662559
0.00592618
0.0561882
0.0566205
0.0568188
0.0571759
0.0574221
0.0577658
0.0580407
0.0583755
0.0586704
0.0590007
0.0593104
0.0596395
0.0599606
0.0602908
0.0606208
0.0609535
0.0612906
0.0616263
0.0619689
0.0623078
0.0626542
0.0629958
0.0633445
0.0636877
0.0640373
0.0643811
0.0647305
0.0650749
0.0654262
0.0657769
0.066133
0.0664897
0.0668506
0.0672116
0.067575
0.0679405
0.0683096
0.06868
0.069053
0.0694271
0.0698028
0.0701789
0.0705562
0.0709323
0.0713087
0.0716821
0.0720558
0.0724257
0.0727926
0.0731515
0.0735027
0.0738395
0.0741597
0.0744566
0.0747198
0.0749378
0.0751611
0.0753434
0.0755187
0.0756547
0.0757768
0.0758636
0.0759373
0.0759764
0.0759925
0.0759806
0.0759044
0.0757969
0.0756258
0.0754083
0.075124
0.0747798
0.0743522
0.0738477
0.0732412
0.0725332
0.0716984
0.070732
0.0696096
0.068323
0.0668505
0.0651837
0.0633057
0.0612104
0.0588889
0.0563387
0.0535561
0.0505407
0.0473098
0.0438414
0.0401198
0.0361046
0.0318016
0.0272172
0.0225264
0.0182179
0.0144579
0.011623
0.00943576
0.00727204
0.0498845
0.0501712
0.050303
0.0505412
0.0506898
0.0509263
0.0510907
0.0513219
0.0515014
0.051728
0.0519207
0.0521445
0.0523481
0.0525707
0.0527829
0.0530056
0.0532245
0.053448
0.0536718
0.0538964
0.0541236
0.0543492
0.0545787
0.0548056
0.0550368
0.0552655
0.0554991
0.0557313
0.0559699
0.0562081
0.0564527
0.0566982
0.0569493
0.0572022
0.0574604
0.0577216
0.0579878
0.0582575
0.0585328
0.058812
0.0590969
0.0593866
0.0596823
0.0599835
0.0602916
0.060606
0.0609244
0.061246
0.0615698
0.061894
0.0622179
0.0625389
0.0628566
0.0631681
0.0634741
0.063778
0.0640877
0.0643881
0.0646907
0.0649749
0.0652472
0.0654819
0.0656984
0.0658955
0.0660744
0.0662394
0.0663799
0.0665053
0.0665993
0.0666623
0.066689
0.066693
0.0666232
0.0665062
0.0663072
0.0660324
0.0656539
0.0651692
0.0645537
0.0638007
0.0628884
0.0618087
0.0605439
0.0590877
0.0574311
0.0555642
0.0534528
0.0510824
0.0482789
0.0450484
0.0412786
0.0369513
0.0322319
0.0273621
0.0224862
0.0180668
0.0146157
0.0122389
0.0107425
0.00922535
0.0311354
0.0311617
0.0311578
0.0311387
0.0311117
0.0310901
0.0310537
0.0310309
0.0309908
0.0309659
0.0309246
0.0308968
0.030855
0.0308239
0.0307818
0.0307471
0.0307043
0.030666
0.0306221
0.0305803
0.0305348
0.0304898
0.0304426
0.0303946
0.0303456
0.0302953
0.0302448
0.0301926
0.0301407
0.030087
0.0300335
0.029978
0.0299227
0.0298656
0.0298084
0.0297494
0.0296902
0.0296295
0.0295683
0.0295055
0.0294422
0.0293772
0.0293112
0.0292433
0.0291738
0.0291016
0.0290264
0.0289476
0.0288647
0.0287773
0.028685
0.0285873
0.0284843
0.0283754
0.0282612
0.0281418
0.0280155
0.0278788
0.0277319
0.027568
0.0273875
0.0271822
0.0269633
0.0267339
0.0264934
0.0262434
0.0259818
0.0257098
0.0254233
0.0251243
0.0248102
0.0244808
0.0241263
0.0237558
0.0233563
0.0229351
0.0224822
0.0220021
0.0214878
0.0209423
0.0203615
0.0197478
0.019099
0.0184173
0.0177
0.0169396
0.0161102
0.0151528
0.0140576
0.012782
0.0112248
0.0093122
0.00711286
0.00498601
0.00301673
0.0023222
0.0026082
0.00528049
0.00862453
0.00984826
0.00947217
0.00467549
0.00403045
0.00390139
0.00387306
0.00389708
0.00381777
0.00378069
0.00376598
0.00376304
0.00378542
0.00385677
0.0041339
0.00471699
0.00547404
0.00655185
0.00692005
0.0069016
0.00576391
0.00340267
0.00777607
0.00468056
0.00428948
0.00419011
0.0041662
0.00404598
0.00396685
0.0039322
0.00392035
0.0039228
0.00397618
0.00416385
0.00455801
0.00514213
0.00622047
0.00686871
0.00700455
0.00675933
0.005193
0.00278241
0.00621357
0.00478475
0.00460504
0.00454119
0.00436897
0.00426776
0.00420001
0.0041729
0.00416487
0.00417783
0.00430544
0.00456703
0.00505167
0.00599249
0.00679677
0.00704972
0.00703854
0.00647801
0.00456228
0.00215001
0.00579521
0.00511608
0.00503431
0.00479457
0.00463719
0.00452194
0.00446458
0.00444045
0.00443824
0.00454014
0.00476587
0.00519811
0.00606669
0.00686982
0.00719502
0.00725491
0.00697755
0.00602571
0.00378241
0.00154379
0.00591782
0.00548165
0.00534357
0.00505436
0.00493982
0.00486748
0.00484961
0.00488371
0.00500288
0.0052868
0.00568718
0.00651201
0.00718471
0.00748899
0.0075753
0.00739523
0.00678039
0.00540263
0.00293202
0.00101428
0.0062847
0.00593523
0.00580176
0.00561765
0.00558573
0.00559507
0.00572209
0.00595467
0.00637552
0.00689965
0.00752056
0.00800182
0.008207
0.00825016
0.00796276
0.00732482
0.0063693
0.00458324
0.00189137
0.000560601
0.00721708
0.00709142
0.00707601
0.00710559
0.00738103
0.007705
0.00825413
0.00895581
0.00963022
0.0098307
0.00989543
0.00975184
0.00942409
0.00883792
0.00801626
0.00707526
0.00563711
0.00346916
0.00114752
0.000251125
0.0108595
0.0112997
0.0118047
0.0124644
0.0134237
0.0144099
0.0148901
0.0150404
0.0140085
0.0134125
0.0123196
0.0115301
0.010307
0.00917402
0.00784049
0.00644248
0.00445018
0.0022483
0.000646804
9.16347e-05
0.0252555
0.0257365
0.0259396
0.0259399
0.0252442
0.0238833
0.022225
0.0199567
0.0182146
0.0162719
0.0144699
0.0126638
0.0107279
0.00894234
0.00708406
0.00504107
0.0029689
0.00131618
0.000391075
3.94157e-05
0.0411633
0.0393819
0.0374103
0.0346163
0.0320753
0.0284845
0.0258629
0.0226905
0.0203103
0.0174285
0.0151768
0.0124442
0.0101177
0.00732465
0.00513206
0.0030978
0.00185122
0.000853676
0.000330044
6.01765e-05
0.0379911
0.0364554
0.0348545
0.0323772
0.030208
0.0269022
0.0244867
0.0215803
0.0194193
0.0167622
0.0147737
0.0121801
0.0102294
0.00743298
0.00538291
0.00308205
0.00177537
0.000723073
0.000238098
4.68609e-05
0.0200821
0.0210046
0.0215154
0.0217682
0.0218505
0.0211291
0.0199263
0.0180574
0.0167581
0.0149651
0.0137672
0.0119412
0.010606
0.00878842
0.00721042
0.00517305
0.00295892
0.00116281
0.000284926
3.34825e-05
0.00947177
0.00967051
0.0100776
0.0105441
0.0113363
0.0122517
0.0130394
0.0133497
0.0131656
0.0122426
0.0117942
0.0108632
0.0100314
0.00897632
0.00781797
0.00648677
0.00455441
0.00224015
0.000565994
4.53324e-05
0.00684809
0.00666658
0.00661173
0.00658533
0.00675663
0.00699692
0.0074244
0.0080177
0.00879695
0.00916693
0.00934331
0.00941041
0.00914942
0.00870828
0.00794716
0.00707058
0.00567222
0.00352612
0.00107104
0.000126777
0.00610551
0.00576947
0.00563782
0.00543552
0.00538549
0.00537164
0.00545303
0.00562693
0.00598754
0.00644204
0.00713136
0.0077289
0.0080161
0.00809453
0.00792661
0.00731023
0.00638971
0.00465186
0.00191284
0.000434739
0.00578608
0.00538295
0.00525324
0.00496876
0.00485197
0.00476955
0.00474364
0.00475542
0.00485467
0.00509699
0.00547603
0.0062471
0.00702906
0.00738849
0.00749153
0.0073872
0.00679443
0.00545402
0.00300626
0.000934624
0.00568125
0.00502094
0.00494902
0.00474295
0.00458545
0.00447329
0.00440759
0.00437799
0.00436943
0.00445265
0.00466683
0.00506629
0.0058858
0.00677885
0.00715373
0.00722428
0.00698916
0.00607119
0.00385822
0.00151196
0.00618022
0.00473057
0.00453202
0.00446455
0.0043239
0.0042189
0.00415397
0.00412729
0.0041194
0.00412847
0.00424298
0.00449708
0.00495701
0.00585839
0.00674328
0.00703808
0.00704405
0.00651444
0.00463916
0.00215714
0.00780325
0.00465329
0.00425642
0.00414818
0.00411566
0.00402179
0.00393538
0.00389769
0.0038855
0.00388773
0.00393734
0.00410982
0.00449907
0.00507914
0.00613722
0.00684624
0.00700252
0.00678686
0.00525728
0.00281658
0.00947296
0.00465259
0.00399485
0.00386835
0.00383864
0.00385261
0.00379722
0.00375423
0.00373926
0.00373612
0.00375857
0.00382647
0.00407908
0.00464071
0.00542008
0.00652217
0.00691894
0.00692009
0.00582727
0.00344946
0.00397118
0.00375019
0.00374679
0.0037468
0.00374652
0.00374628
0.00374612
0.00374604
0.003746
0.00374598
0.00374598
0.003746
0.00374604
0.00374612
0.00374628
0.00374652
0.0037468
0.00374679
0.00375019
0.00397117
0.00441489
0.00375346
0.00374141
0.00374096
0.00374056
0.00374012
0.00373987
0.00373975
0.00373969
0.00373966
0.00373966
0.00373969
0.00373975
0.00373987
0.00374012
0.00374056
0.00374096
0.00374141
0.00375346
0.00441489
0.0048594
0.00376059
0.00373287
0.00373264
0.00373284
0.00373273
0.00373256
0.00373242
0.00373235
0.00373231
0.00373231
0.00373235
0.00373242
0.00373256
0.00373273
0.00373284
0.00373264
0.00373287
0.00376059
0.00485939
0.00530178
0.00377206
0.0037243
0.00372396
0.00372492
0.00372524
0.00372525
0.00372519
0.00372514
0.00372512
0.00372512
0.00372514
0.00372519
0.00372525
0.00372524
0.00372492
0.00372396
0.0037243
0.00377206
0.00530179
0.00573924
0.00378544
0.0037155
0.00371483
0.00371665
0.00371758
0.00371789
0.00371795
0.00371795
0.00371795
0.00371795
0.00371795
0.00371795
0.00371789
0.00371758
0.00371665
0.00371483
0.00371551
0.00378544
0.00573924
0.00617058
0.00379767
0.00370577
0.0037051
0.003708
0.00370969
0.00371043
0.0037107
0.00371078
0.0037108
0.0037108
0.00371078
0.0037107
0.00371043
0.00370969
0.003708
0.0037051
0.00370577
0.00379767
0.00617059
0.00659185
0.00380847
0.00369498
0.00369474
0.00369894
0.00370155
0.00370284
0.0037034
0.00370361
0.00370368
0.00370368
0.00370361
0.0037034
0.00370284
0.00370155
0.00369894
0.00369474
0.00369498
0.00380847
0.00659185
0.00700084
0.00381671
0.00368272
0.00368362
0.00368941
0.00369311
0.00369508
0.00369602
0.00369642
0.00369656
0.00369656
0.00369642
0.00369602
0.00369508
0.00369311
0.00368941
0.00368362
0.00368272
0.00381671
0.00700085
0.00739336
0.00382333
0.00366915
0.00367174
0.00367942
0.00368437
0.00368714
0.00368854
0.00368919
0.00368943
0.00368943
0.00368919
0.00368854
0.00368714
0.00368437
0.00367942
0.00367174
0.00366915
0.00382334
0.00739335
0.00776768
0.00382735
0.00365405
0.00365903
0.00366893
0.00367532
0.00367898
0.00368095
0.0036819
0.00368228
0.00368228
0.0036819
0.00368095
0.00367898
0.00367532
0.00366893
0.00365903
0.00365404
0.00382735
0.00776768
0.00812024
0.00383021
0.00363764
0.00364552
0.00365794
0.00366592
0.00367061
0.00367321
0.00367453
0.00367507
0.00367507
0.00367453
0.00367321
0.00367061
0.00366592
0.00365794
0.00364552
0.00363765
0.00383021
0.00812023
0.00845034
0.00383068
0.00361989
0.00363122
0.00364645
0.0036562
0.00366201
0.00366531
0.00366705
0.00366779
0.00366779
0.00366705
0.00366531
0.00366201
0.0036562
0.00364645
0.00363121
0.00361988
0.00383069
0.00845034
0.00875525
0.00383018
0.0036009
0.00361613
0.00363446
0.00364613
0.00365316
0.00365725
0.00365946
0.00366041
0.00366041
0.00365946
0.00365725
0.00365316
0.00364613
0.00363446
0.00361613
0.00360091
0.00383019
0.00875524
0.00903545
0.00382886
0.00358085
0.00360032
0.00362199
0.00363573
0.00364408
0.00364901
0.00365173
0.00365292
0.00365292
0.00365173
0.00364901
0.00364408
0.00363573
0.00362199
0.00360032
0.00358084
0.00382886
0.00903544
0.00928895
0.00382647
0.00355981
0.00358379
0.00360904
0.003625
0.00363475
0.00364059
0.00364385
0.00364531
0.00364531
0.00364385
0.00364059
0.00363475
0.003625
0.00360904
0.0035838
0.00355982
0.00382648
0.00928894
0.00951739
0.0038234
0.00353794
0.00356664
0.00359565
0.00361394
0.00362518
0.00363197
0.00363582
0.00363755
0.00363755
0.00363582
0.00363197
0.00362518
0.00361394
0.00359565
0.00356663
0.00353793
0.00382339
0.00951738
0.00971929
0.00382011
0.00351531
0.00354885
0.00358181
0.00360255
0.00361535
0.00362316
0.00362762
0.00362964
0.00362964
0.00362762
0.00362316
0.00361535
0.00360255
0.00358181
0.00354886
0.00351532
0.00382012
0.00971928
0.00989731
0.00381663
0.00349216
0.00353055
0.00356758
0.00359087
0.00360529
0.00361414
0.00361924
0.00362157
0.00362157
0.00361924
0.00361414
0.00360529
0.00359087
0.00356757
0.00353054
0.00349215
0.00381662
0.0098973
0.0100502
0.00381347
0.00346849
0.0035117
0.00355293
0.00357887
0.00359499
0.00360492
0.00361068
0.00361332
0.00361332
0.00361068
0.00360492
0.00359499
0.00357888
0.00355293
0.00351171
0.00346851
0.00381348
0.0100502
0.0101815
0.00381057
0.00344463
0.00349248
0.00353795
0.0035666
0.00358445
0.0035955
0.00360193
0.0036049
0.0036049
0.00360193
0.00359549
0.00358445
0.0035666
0.00353795
0.00349247
0.00344461
0.00381057
0.0101815
0.0102898
0.00380853
0.00342045
0.00347279
0.0035226
0.00355404
0.00357367
0.00358587
0.003593
0.0035963
0.0035963
0.003593
0.00358587
0.00357367
0.00355404
0.00352261
0.0034728
0.00342048
0.00380854
0.0102897
0.0103794
0.00380714
0.00339644
0.00345288
0.00350698
0.00354123
0.00356267
0.00357603
0.00358387
0.00358751
0.00358751
0.00358387
0.00357603
0.00356267
0.00354123
0.00350697
0.00345286
0.00339641
0.00380714
0.0103794
0.0104486
0.00380736
0.00337228
0.00343258
0.00349103
0.00352816
0.00355145
0.003566
0.00357455
0.00357853
0.00357853
0.00357455
0.003566
0.00355145