/*--------------------------------*- C++ -*----------------------------------*\
| =========                 |                                                 |
| \\      /  F ield         | OpenFOAM: The Open Source CFD Toolbox           |
|  \\    /   O peration     | Version:  2.1.0                                 |
|   \\  /    A nd           | Web:      www.OpenFOAM.org                      |
|    \\/     M anipulation  |                                                 |
\*---------------------------------------------------------------------------*/
FoamFile
{
    version     2.0;
    format      ascii;
    class       volScalarField;
    location    "0.51";
    object      nut;
}
// * * * * * * * * * * * * * * * * * * * * * * * * * * * * * * * * * * * * * //

dimensions      [0 2 -1 0 0 0 0];

internalField   nonuniform List<scalar> 
6400
(
7.08537e-06
7.10424e-06
7.11669e-06
7.13272e-06
7.14713e-06
7.16549e-06
7.18062e-06
7.19999e-06
7.21584e-06
7.23601e-06
7.25265e-06
7.27329e-06
7.29087e-06
7.31181e-06
7.3304e-06
7.35162e-06
7.37122e-06
7.39277e-06
7.41337e-06
7.43538e-06
7.457e-06
7.47962e-06
7.50232e-06
7.52577e-06
7.54964e-06
7.57409e-06
7.59921e-06
7.6248e-06
7.65121e-06
7.67805e-06
7.70581e-06
7.734e-06
7.76319e-06
7.79285e-06
7.82354e-06
7.85478e-06
7.88709e-06
7.92002e-06
7.95404e-06
7.98869e-06
8.02434e-06
8.0605e-06
8.09755e-06
8.13505e-06
8.17326e-06
8.2118e-06
8.25084e-06
8.29008e-06
8.32959e-06
8.36919e-06
8.40887e-06
8.44848e-06
8.48786e-06
8.52633e-06
8.56299e-06
8.5975e-06
8.62847e-06
8.66167e-06
8.69228e-06
8.72466e-06
8.75499e-06
8.78688e-06
8.8178e-06
8.84977e-06
8.88086e-06
8.91276e-06
8.94388e-06
8.97557e-06
9.00567e-06
9.03481e-06
9.06295e-06
9.08905e-06
9.11385e-06
9.13635e-06
9.15737e-06
9.17663e-06
9.1952e-06
9.21385e-06
9.23434e-06
9.25882e-06
9.28992e-06
9.33041e-06
9.38123e-06
9.437e-06
9.4833e-06
9.54628e-06
9.61219e-06
9.6727e-06
9.70569e-06
9.66437e-06
9.46228e-06
8.9285e-06
7.82553e-06
5.96387e-06
3.44438e-06
2.32054e-06
2.40711e-06
3.7818e-06
3.87741e-06
4.18313e-06
7.54484e-05
7.59176e-05
7.60111e-05
7.63168e-05
7.64224e-05
7.66785e-05
7.68046e-05
7.70276e-05
7.71708e-05
7.73704e-05
7.75247e-05
7.77071e-05
7.78668e-05
7.80357e-05
7.81958e-05
7.83532e-05
7.85097e-05
7.86566e-05
7.88061e-05
7.89424e-05
7.90824e-05
7.92077e-05
7.93368e-05
7.94515e-05
7.95699e-05
7.96757e-05
7.97848e-05
7.98817e-05
7.99806e-05
8.0068e-05
8.01554e-05
8.02317e-05
8.0306e-05
8.03693e-05
8.04283e-05
8.04758e-05
8.05166e-05
8.05452e-05
8.05685e-05
8.05808e-05
8.05867e-05
8.05784e-05
8.05586e-05
8.0523e-05
8.04714e-05
8.04008e-05
8.0309e-05
8.01937e-05
8.00515e-05
7.98803e-05
7.96768e-05
7.94398e-05
7.91722e-05
7.88793e-05
7.85436e-05
7.81702e-05
7.7494e-05
7.67654e-05
7.59784e-05
7.51601e-05
7.4288e-05
7.33793e-05
7.24243e-05
7.14364e-05
7.03991e-05
6.93235e-05
6.81971e-05
6.7034e-05
6.58205e-05
6.45447e-05
6.32157e-05
6.18213e-05
6.03636e-05
5.8836e-05
5.72377e-05
5.55662e-05
5.38209e-05
5.20031e-05
5.01141e-05
4.81588e-05
4.61418e-05
4.40724e-05
4.19602e-05
3.98113e-05
3.76111e-05
3.53197e-05
3.29479e-05
3.04706e-05
2.78855e-05
2.51845e-05
2.23881e-05
1.95302e-05
1.66944e-05
1.40227e-05
1.15083e-05
9.23666e-06
7.497e-06
6.29081e-06
5.6804e-06
6.8637e-06
0.000115657
0.000115932
0.000116041
0.000116163
0.000116258
0.000116339
0.000116425
0.000116476
0.000116549
0.000116575
0.000116633
0.000116636
0.000116672
0.000116651
0.000116662
0.000116617
0.000116597
0.000116525
0.000116473
0.000116372
0.000116285
0.000116151
0.000116023
0.00011585
0.00011568
0.000115471
0.000115266
0.000115028
0.000114788
0.000114519
0.000114243
0.000113939
0.000113625
0.000113285
0.000112932
0.000112553
0.000112159
0.000111739
0.000111292
0.000110814
0.00011031
0.000109781
0.000109219
0.000108627
0.000107999
0.000107336
0.000106631
0.000105883
0.000105085
0.000104234
0.000103323
0.000102248
0.000100729
9.91852e-05
9.75838e-05
9.59586e-05
9.42941e-05
9.26059e-05
9.08777e-05
8.91207e-05
8.73412e-05
8.55513e-05
8.36992e-05
8.18349e-05
7.99224e-05
7.79918e-05
7.6021e-05
7.40297e-05
7.20038e-05
6.99562e-05
6.78764e-05
6.57713e-05
6.36333e-05
6.1466e-05
5.92634e-05
5.70277e-05
5.47546e-05
5.24472e-05
5.01035e-05
4.77287e-05
4.53247e-05
4.29003e-05
4.04611e-05
3.8019e-05
3.55861e-05
3.31936e-05
3.08417e-05
2.85551e-05
2.63305e-05
2.41815e-05
2.20775e-05
2.00411e-05
1.80419e-05
1.59961e-05
1.39487e-05
1.19397e-05
1.01377e-05
8.62647e-06
8.12576e-06
1.13132e-05
0.000137937
0.000137664
0.00013756
0.000137294
0.000137189
0.000136895
0.000136764
0.00013645
0.000136282
0.000135949
0.00013574
0.000135386
0.000135134
0.000134757
0.00013446
0.000134056
0.000133713
0.000133278
0.000132885
0.000132413
0.000131969
0.000131454
0.000130954
0.000130389
0.00012982
0.00012893
0.000127885
0.000126799
0.000125698
0.000124563
0.000123411
0.000122227
0.000121025
0.000119791
0.000118536
0.000117249
0.00011594
0.000114599
0.000113237
0.000111842
0.000110417
0.000108968
0.000107485
0.000105977
0.000104436
0.00010287
0.00010127
9.96452e-05
9.79884e-05
9.62991e-05
9.45841e-05
9.28631e-05
9.11097e-05
8.93417e-05
8.7547e-05
8.5741e-05
8.39119e-05
8.20679e-05
8.01967e-05
7.83057e-05
7.63866e-05
7.4447e-05
7.24838e-05
7.05044e-05
6.85024e-05
6.64881e-05
6.44553e-05
6.24152e-05
6.0364e-05
5.83128e-05
5.626e-05
5.42166e-05
5.21831e-05
5.01698e-05
4.8178e-05
4.62173e-05
4.42882e-05
4.23986e-05
4.05476e-05
3.87399e-05
3.69719e-05
3.52452e-05
3.35485e-05
3.18823e-05
3.02545e-05
2.86321e-05
2.7022e-05
2.54152e-05
2.38061e-05
2.21866e-05
2.05529e-05
1.89005e-05
1.72197e-05
1.54885e-05
1.37181e-05
1.19887e-05
1.05128e-05
9.77695e-06
1.19119e-05
1.20611e-05
0.000140862
0.000140979
0.000140713
0.00014056
0.000139788
0.000139183
0.000138263
0.000137465
0.000136495
0.000135591
0.000134593
0.000133618
0.000132592
0.000131561
0.000130501
0.00012942
0.000128323
0.000127194
0.000126055
0.000124879
0.000123694
0.000122471
0.000121239
0.00011997
0.000118683
0.000117375
0.000116053
0.000114703
0.000113338
0.000111949
0.000110546
0.000109118
0.000107677
0.000106212
0.000104733
0.000103231
0.000101714
0.000100166
9.86108e-05
9.70568e-05
9.54543e-05
9.38589e-05
9.22284e-05
9.05972e-05
8.89395e-05
8.72778e-05
8.55958e-05
8.39095e-05
8.22084e-05
8.05048e-05
7.87932e-05
7.7081e-05
7.5364e-05
7.36468e-05
7.19228e-05
7.01998e-05
6.84776e-05
6.67613e-05
6.50496e-05
6.33477e-05
6.16544e-05
5.99757e-05
5.83108e-05
5.66651e-05
5.5037e-05
5.34319e-05
5.18475e-05
5.02885e-05
4.87517e-05
4.72408e-05
4.57476e-05
4.428e-05
4.28419e-05
4.14115e-05
4.00067e-05
3.86115e-05
3.72326e-05
3.58579e-05
3.44908e-05
3.31204e-05
3.17482e-05
3.0368e-05
2.898e-05
2.75844e-05
2.61837e-05
2.47767e-05
2.33774e-05
2.19781e-05
2.05984e-05
1.92374e-05
1.79123e-05
1.66231e-05
1.53903e-05
1.41977e-05
1.31046e-05
1.22705e-05
1.20793e-05
1.37498e-05
1.37878e-05
1.41392e-05
0.000127978
0.000127355
0.00012694
0.000126394
0.000125458
0.000124545
0.000123444
0.000122374
0.000121212
0.000120063
0.000118873
0.000117676
0.000116464
0.000115233
0.000114001
0.000112743
0.00011149
0.000110209
0.000108938
0.000107637
0.000106343
0.000105026
0.000103716
0.000102405
0.000101067
9.97355e-05
9.83839e-05
9.70218e-05
9.56517e-05
9.427e-05
9.28817e-05
9.14806e-05
9.0074e-05
8.86552e-05
8.72322e-05
8.57984e-05
8.4362e-05
8.29174e-05
8.14736e-05
8.00227e-05
7.85725e-05
7.71226e-05
7.5673e-05
7.42285e-05
7.27862e-05
7.13523e-05
6.99234e-05
6.85052e-05
6.70944e-05
6.56962e-05
6.43073e-05
6.29313e-05
6.15655e-05
6.02139e-05
5.88734e-05
5.75469e-05
5.62319e-05
5.49363e-05
5.36564e-05
5.23859e-05
5.11332e-05
4.98899e-05
4.86607e-05
4.74399e-05
4.62302e-05
4.50277e-05
4.38336e-05
4.26455e-05
4.1464e-05
4.02878e-05
3.91173e-05
3.79536e-05
3.67982e-05
3.56495e-05
3.45105e-05
3.3377e-05
3.2256e-05
3.11434e-05
3.005e-05
2.89687e-05
2.79077e-05
2.68633e-05
2.58423e-05
2.48414e-05
2.38666e-05
2.29152e-05
2.19853e-05
2.1081e-05
2.0213e-05
1.93833e-05
1.86066e-05
1.78915e-05
1.72649e-05
1.67621e-05
1.65147e-05
1.66377e-05
1.60618e-05
1.58179e-05
1.57931e-05
1.32111e-05
0.000112374
0.000111193
0.000110639
0.000109761
0.000108817
0.000107719
0.000106627
0.000105446
0.000104297
0.000103084
0.000101912
0.000100686
9.95033e-05
9.82721e-05
9.7083e-05
9.58509e-05
9.46586e-05
9.34286e-05
9.22364e-05
9.10121e-05
8.98238e-05
8.86094e-05
8.74343e-05
8.62285e-05
8.50508e-05
8.38602e-05
8.26894e-05
8.15103e-05
8.03503e-05
7.91848e-05
7.80359e-05
7.68834e-05
7.5746e-05
7.46064e-05
7.34807e-05
7.23541e-05
7.124e-05
7.01263e-05
6.90238e-05
6.79179e-05
6.68251e-05
6.57377e-05
6.46557e-05
6.3579e-05
6.25089e-05
6.14441e-05
6.03851e-05
5.93313e-05
5.82827e-05
5.72399e-05
5.62019e-05
5.51707e-05
5.4145e-05
5.31281e-05
5.21195e-05
5.11231e-05
5.0128e-05
4.91453e-05
4.81676e-05
4.72011e-05
4.62435e-05
4.5299e-05
4.43678e-05
4.34518e-05
4.25511e-05
4.16658e-05
4.08055e-05
3.99637e-05
3.91474e-05
3.83524e-05
3.75845e-05
3.68394e-05
3.61177e-05
3.54187e-05
3.47423e-05
3.40871e-05
3.3452e-05
3.28329e-05
3.22316e-05
3.12928e-05
3.03374e-05
2.93895e-05
2.84603e-05
2.75396e-05
2.66386e-05
2.57477e-05
2.48782e-05
2.40214e-05
2.3191e-05
2.23804e-05
2.16061e-05
2.08656e-05
2.01748e-05
1.95424e-05
1.90016e-05
1.8597e-05
1.83368e-05
1.8233e-05
1.89292e-05
1.49388e-05
0.000101072
9.93218e-05
9.87544e-05
9.76643e-05
9.68065e-05
9.563e-05
9.46661e-05
9.3488e-05
9.24928e-05
9.13427e-05
9.03482e-05
8.92341e-05
8.82504e-05
8.71726e-05
8.62041e-05
8.51589e-05
8.42053e-05
8.31877e-05
8.22469e-05
8.12512e-05
8.03198e-05
7.93374e-05
7.8415e-05
7.7086e-05
7.58242e-05
7.45171e-05
7.32967e-05
7.20297e-05
7.08468e-05
6.96271e-05
6.84904e-05
6.73259e-05
6.6243e-05
6.51397e-05
6.41167e-05
6.3078e-05
6.21171e-05
6.11458e-05
6.02499e-05
5.93479e-05
5.85171e-05
5.76838e-05
5.6915e-05
5.61436e-05
5.54333e-05
5.47207e-05
5.40645e-05
5.34059e-05
5.27988e-05
5.21887e-05
5.1624e-05
5.10568e-05
5.05262e-05
4.99915e-05
4.94849e-05
4.89769e-05
4.84889e-05
4.7998e-05
4.75178e-05
4.70316e-05
4.65501e-05
4.60603e-05
4.55698e-05
4.50637e-05
4.45537e-05
4.40496e-05
4.35293e-05
4.30063e-05
4.24809e-05
4.19529e-05
4.14216e-05
4.08882e-05
4.03513e-05
3.98122e-05
3.92693e-05
3.87241e-05
3.81746e-05
3.76221e-05
3.70658e-05
3.65031e-05
3.59342e-05
3.53506e-05
3.47559e-05
3.41418e-05
3.35107e-05
3.28548e-05
3.21758e-05
3.14672e-05
3.07324e-05
2.99699e-05
2.91891e-05
2.83983e-05
2.76188e-05
2.68743e-05
2.62595e-05
2.58019e-05
2.54256e-05
2.55989e-05
2.61332e-05
2.05143e-05
8.43448e-05
8.22344e-05
8.13765e-05
7.9779e-05
7.88813e-05
7.73926e-05
7.64628e-05
7.50767e-05
7.41283e-05
7.28034e-05
7.18874e-05
7.06233e-05
6.97354e-05
6.85338e-05
6.76768e-05
6.654e-05
6.57188e-05
6.46492e-05
6.38687e-05
6.28681e-05
6.21334e-05
6.12039e-05
6.05187e-05
5.96636e-05
5.90384e-05
5.82671e-05
5.77053e-05
5.70144e-05
5.65165e-05
5.59031e-05
5.54672e-05
5.49271e-05
5.45489e-05
5.40781e-05
5.37515e-05
5.33461e-05
5.30666e-05
5.27211e-05
5.24815e-05
5.21893e-05
5.19838e-05
5.17352e-05
5.1558e-05
5.13446e-05
5.11903e-05
5.10046e-05
5.08678e-05
5.06969e-05
5.0567e-05
5.04332e-05
5.03107e-05
5.01892e-05
5.00464e-05
4.99437e-05
4.98229e-05
4.97291e-05
4.96232e-05
4.95388e-05
4.94497e-05
4.93793e-05
4.93077e-05
4.92527e-05
4.91989e-05
4.91596e-05
4.91236e-05
4.91e-05
4.90828e-05
4.90776e-05
4.9078e-05
4.90898e-05
4.91076e-05
4.91359e-05
4.917e-05
4.92137e-05
4.92628e-05
4.93196e-05
4.93802e-05
4.94463e-05
4.95139e-05
4.95842e-05
4.96525e-05
4.97183e-05
4.97748e-05
4.982e-05
4.98464e-05
4.98492e-05
4.982e-05
4.97513e-05
4.96338e-05
4.94614e-05
4.9228e-05
4.89332e-05
4.85807e-05
4.81825e-05
4.77674e-05
4.74188e-05
4.72876e-05
4.7421e-05
4.79618e-05
3.97683e-05
7.42967e-05
7.24275e-05
7.16787e-05
7.02733e-05
6.95663e-05
6.82425e-05
6.75736e-05
6.63382e-05
6.57063e-05
6.45629e-05
6.39727e-05
6.29189e-05
6.23733e-05
6.14078e-05
6.09088e-05
6.00298e-05
5.95785e-05
5.87835e-05
5.83804e-05
5.76663e-05
5.73107e-05
5.66739e-05
5.63647e-05
5.58011e-05
5.55361e-05
5.50406e-05
5.48161e-05
5.43829e-05
5.41951e-05
5.38203e-05
5.36625e-05
5.33507e-05
5.31999e-05
5.29478e-05
5.28221e-05
5.26295e-05
5.25033e-05
5.23683e-05
5.22405e-05
5.2141e-05
5.20491e-05
5.1972e-05
5.19074e-05
5.18545e-05
5.18164e-05
5.17865e-05
5.17737e-05
5.17669e-05
5.17792e-05
5.17962e-05
5.18314e-05
5.18719e-05
5.19303e-05
5.19985e-05
5.20819e-05
5.21776e-05
5.22871e-05
5.24103e-05
5.25464e-05
5.2697e-05
5.28603e-05
5.30387e-05
5.32303e-05
5.34381e-05
5.36594e-05
5.38975e-05
5.41497e-05
5.4419e-05
5.4703e-05
5.50049e-05
5.53224e-05
5.56583e-05
5.60113e-05
5.63838e-05
5.67748e-05
5.71872e-05
5.76202e-05
5.80762e-05
5.85548e-05
5.90588e-05
5.95875e-05
6.01439e-05
6.07296e-05
6.1347e-05
6.19982e-05
6.26863e-05
6.34142e-05
6.41862e-05
6.50075e-05
6.58834e-05
6.68205e-05
6.78258e-05
6.89071e-05
7.00723e-05
7.13276e-05
7.26669e-05
7.40847e-05
7.55462e-05
7.62717e-05
6.61999e-05
7.87005e-05
7.67419e-05
7.59548e-05
7.44724e-05
7.3714e-05
7.23168e-05
7.15873e-05
7.02803e-05
6.95822e-05
6.83686e-05
6.77046e-05
6.65871e-05
6.596e-05
6.49396e-05
6.43552e-05
6.34262e-05
6.28899e-05
6.20478e-05
6.15624e-05
6.08032e-05
6.0369e-05
5.96883e-05
5.93045e-05
5.86976e-05
5.83619e-05
5.78235e-05
5.75326e-05
5.70574e-05
5.6807e-05
5.63891e-05
5.61748e-05
5.58085e-05
5.56246e-05
5.53053e-05
5.51463e-05
5.48686e-05
5.47279e-05
5.44807e-05
5.43528e-05
5.4173e-05
5.40226e-05
5.38983e-05
5.3751e-05
5.36376e-05
5.35293e-05
5.34358e-05
5.33517e-05
5.32784e-05
5.32178e-05
5.31655e-05
5.31281e-05
5.30976e-05
5.3084e-05
5.30767e-05
5.3085e-05
5.31025e-05
5.31366e-05
5.31802e-05
5.32404e-05
5.33096e-05
5.33949e-05
5.34917e-05
5.36028e-05
5.37276e-05
5.38666e-05
5.40199e-05
5.41874e-05
5.43697e-05
5.45663e-05
5.47781e-05
5.50048e-05
5.52466e-05
5.55039e-05
5.57768e-05
5.60655e-05
5.63706e-05
5.6693e-05
5.70332e-05
5.73922e-05
5.77709e-05
5.81705e-05
5.85922e-05
5.90375e-05
5.95079e-05
6.00054e-05
6.05318e-05
6.10897e-05
6.16813e-05
6.2309e-05
6.2975e-05
6.36829e-05
6.44383e-05
6.5261e-05
6.61553e-05
6.71466e-05
6.82518e-05
6.95156e-05
7.091e-05
7.19445e-05
6.3083e-05
9.63241e-05
9.41721e-05
9.32877e-05
9.16283e-05
9.06886e-05
8.9118e-05
8.81303e-05
8.66383e-05
8.56148e-05
8.42014e-05
8.31441e-05
8.18084e-05
8.07311e-05
7.94508e-05
7.84048e-05
7.71676e-05
7.61554e-05
7.49684e-05
7.3994e-05
7.28627e-05
7.19306e-05
7.08588e-05
6.99734e-05
6.89642e-05
6.81288e-05
6.71847e-05
6.64003e-05
6.5524e-05
6.47948e-05
6.3985e-05
6.33122e-05
6.25684e-05
6.19525e-05
6.12732e-05
6.07113e-05
6.00924e-05
5.95825e-05
5.90209e-05
5.85597e-05
5.80518e-05
5.76331e-05
5.71728e-05
5.67859e-05
5.63669e-05
5.60087e-05
5.5624e-05
5.5289e-05
5.4931e-05
5.46132e-05
5.42748e-05
5.39691e-05
5.36396e-05
5.33347e-05
5.30301e-05
5.27377e-05
5.24343e-05
5.2152e-05
5.18605e-05
5.15914e-05
5.13232e-05
5.10432e-05
5.07825e-05
5.05217e-05
5.02717e-05
5.00241e-05
4.97847e-05
4.95493e-05
4.93224e-05
4.91006e-05
4.88811e-05
4.86632e-05
4.84459e-05
4.82279e-05
4.80063e-05
4.778e-05
4.75459e-05
4.73029e-05
4.70476e-05
4.67792e-05
4.64939e-05
4.6194e-05
4.58744e-05
4.55365e-05
4.5176e-05
4.47945e-05
4.43888e-05
4.39612e-05
4.35106e-05
4.30414e-05
4.25546e-05
4.20584e-05
4.15541e-05
4.10389e-05
4.05565e-05
4.01286e-05
3.9829e-05
3.97468e-05
4.00095e-05
4.06482e-05
3.43572e-05
0.000104354
0.000102816
0.000102182
0.000101089
0.000100204
9.90136e-05
9.80156e-05
9.68113e-05
9.57732e-05
9.45884e-05
9.35424e-05
9.23867e-05
9.1346e-05
9.02188e-05
8.91902e-05
8.80899e-05
8.70747e-05
8.60002e-05
8.4999e-05
8.39485e-05
8.29615e-05
8.19334e-05
8.09613e-05
7.99539e-05
7.89961e-05
7.80033e-05
7.70637e-05
7.60933e-05
7.51621e-05
7.42099e-05
7.32934e-05
7.23599e-05
7.14584e-05
7.05436e-05
6.96591e-05
6.87633e-05
6.78786e-05
6.69838e-05
6.61025e-05
6.52158e-05
6.43436e-05
6.34708e-05
6.26137e-05
6.17596e-05
6.09239e-05
6.00945e-05
5.92874e-05
5.84892e-05
5.77167e-05
5.69534e-05
5.62175e-05
5.54924e-05
5.47943e-05
5.41081e-05
5.34464e-05
5.28023e-05
5.2186e-05
5.14564e-05
5.07288e-05
4.99903e-05
4.92664e-05
4.85317e-05
4.78044e-05
4.70612e-05
4.63193e-05
4.5561e-05
4.4801e-05
4.40176e-05
4.32251e-05
4.24374e-05
4.16441e-05
4.08371e-05
4.00338e-05
3.92194e-05
3.841e-05
3.7592e-05
3.678e-05
3.59622e-05
3.51523e-05
3.434e-05
3.35306e-05
3.27205e-05
3.1917e-05
3.1117e-05
3.03285e-05
2.95486e-05
2.87775e-05
2.80204e-05
2.72798e-05
2.6563e-05
2.58759e-05
2.52293e-05
2.46332e-05
2.40987e-05
2.37149e-05
2.34019e-05
2.33696e-05
2.36445e-05
2.43846e-05
1.8919e-05
0.000118133
0.000116994
0.000116461
0.000115584
0.000114621
0.000113515
0.00011239
0.000111178
0.000109985
0.000108732
0.000107517
0.000106248
0.00010502
0.000103741
0.000102502
0.000101215
9.99659e-05
9.86724e-05
9.7413e-05
9.61142e-05
9.48461e-05
9.35435e-05
9.22692e-05
9.09671e-05
8.96874e-05
8.83848e-05
8.7104e-05
8.58022e-05
8.452e-05
8.32211e-05
8.19417e-05
8.06488e-05
7.9374e-05
7.80894e-05
7.68227e-05
7.55505e-05
7.4298e-05
7.30423e-05
7.1805e-05
7.05667e-05
6.93448e-05
6.81227e-05
6.69143e-05
6.57113e-05
6.4523e-05
6.33323e-05
6.21582e-05
6.0983e-05
5.98227e-05
5.86647e-05
5.75205e-05
5.6379e-05
5.52504e-05
5.41256e-05
5.30134e-05
5.19061e-05
5.08137e-05
4.97289e-05
4.86615e-05
4.76065e-05
4.65636e-05
4.55274e-05
4.45057e-05
4.34951e-05
4.25013e-05
4.15212e-05
4.05619e-05
3.96249e-05
3.8713e-05
3.78225e-05
3.69595e-05
3.61204e-05
3.53104e-05
3.45241e-05
3.37628e-05
3.30248e-05
3.23111e-05
3.16198e-05
3.09507e-05
3.03013e-05
2.96666e-05
2.90494e-05
2.84441e-05
2.78517e-05
2.6837e-05
2.58608e-05
2.49063e-05
2.39971e-05
2.31141e-05
2.22814e-05
2.14819e-05
2.07412e-05
2.00413e-05
1.9416e-05
1.88213e-05
1.84113e-05
1.81796e-05
1.79937e-05
1.87273e-05
1.44605e-05
0.000134475
0.000133839
0.000133427
0.00013285
0.000131886
0.000130919
0.000129774
0.000128643
0.00012743
0.000126219
0.000124974
0.000123714
0.000122443
0.000121145
0.00011985
0.000118521
0.0001172
0.000115843
0.000114496
0.000113114
0.000111743
0.000110338
0.00010893
0.000107514
0.000106105
0.00010466
0.000103233
0.000101777
0.000100336
9.88678e-05
9.74044e-05
9.59163e-05
9.44295e-05
9.29216e-05
9.14136e-05
8.98889e-05
8.83727e-05
8.68434e-05
8.53204e-05
8.37891e-05
8.22618e-05
8.07274e-05
7.92004e-05
7.76676e-05
7.61447e-05
7.46187e-05
7.31049e-05
7.15916e-05
7.00928e-05
6.85984e-05
6.71201e-05
6.56494e-05
6.41963e-05
6.27531e-05
6.13271e-05
5.99124e-05
5.85162e-05
5.71291e-05
5.57602e-05
5.44098e-05
5.30737e-05
5.17591e-05
5.04607e-05
4.91799e-05
4.79138e-05
4.66612e-05
4.54209e-05
4.41906e-05
4.29704e-05
4.17573e-05
4.05526e-05
3.9353e-05
3.81606e-05
3.69744e-05
3.58e-05
3.46323e-05
3.34728e-05
3.2321e-05
3.11776e-05
3.00454e-05
2.89243e-05
2.78196e-05
2.67293e-05
2.56602e-05
2.46067e-05
2.35746e-05
2.25601e-05
2.15696e-05
2.05961e-05
1.9649e-05
1.87392e-05
1.78698e-05
1.7052e-05
1.63929e-05
1.59644e-05
1.61344e-05
1.60764e-05
1.58676e-05
1.58837e-05
1.31637e-05
0.000146286
0.000146396
0.000146124
0.000145921
0.000145116
0.000144443
0.000143477
0.000142608
0.000141588
0.000140616
0.000139566
0.000138526
0.000137447
0.000136355
0.000135243
0.000134105
0.000132957
0.000131776
0.00013059
0.000129367
0.00012814
0.000126876
0.000125606
0.000124303
0.00012299
0.000121642
0.000120289
0.0001189
0.000117515
0.000116097
0.000114671
0.000113218
0.000111756
0.00011027
0.000108772
0.000107253
0.000105723
0.000104171
0.000102597
0.000101011
9.9429e-05
9.78003e-05
9.61771e-05
9.45195e-05
9.28603e-05
9.11731e-05
8.94808e-05
8.77653e-05
8.60437e-05
8.43032e-05
8.25574e-05
8.07973e-05
7.90346e-05
7.72646e-05
7.54933e-05
7.37181e-05
7.19455e-05
7.01654e-05
6.83915e-05
6.66141e-05
6.48486e-05
6.30889e-05
6.13461e-05
5.96141e-05
5.79043e-05
5.621e-05
5.45419e-05
5.28939e-05
5.12747e-05
4.9679e-05
4.81131e-05
4.6572e-05
4.50595e-05
4.35646e-05
4.20986e-05
4.06622e-05
3.92306e-05
3.78288e-05
3.64284e-05
3.50442e-05
3.36543e-05
3.22674e-05
3.08667e-05
2.94581e-05
2.8028e-05
2.65841e-05
2.51222e-05
2.36442e-05
2.21616e-05
2.06668e-05
1.91804e-05
1.7695e-05
1.62109e-05
1.47878e-05
1.34766e-05
1.2436e-05
1.20866e-05
1.36444e-05
1.38509e-05
1.43362e-05
0.000140598
0.000140278
0.000140152
0.000139833
0.000139696
0.000139353
0.000139186
0.000138829
0.000138625
0.000138253
0.000138008
0.00013762
0.000137334
0.000136926
0.000136597
0.000136165
0.000135793
0.000135333
0.000134915
0.000134423
0.000133959
0.000133429
0.000132915
0.000132343
0.000131774
0.00013115
0.000130517
0.000129785
0.000128674
0.000127536
0.000126377
0.000125194
0.000123995
0.000122774
0.00012154
0.000120276
0.000118994
0.000117682
0.00011635
0.00011499
0.000113608
0.000112193
0.000110758
0.000109288
0.000107797
0.000106271
0.000104722
0.000103138
0.000101531
9.98902e-05
9.82243e-05
9.65263e-05
9.4791e-05
9.30355e-05
9.12742e-05
8.94614e-05
8.76503e-05
8.57935e-05
8.39343e-05
8.20383e-05
8.01359e-05
7.82012e-05
7.62545e-05
7.42727e-05
7.22749e-05
7.02491e-05
6.82056e-05
6.61412e-05
6.40611e-05
6.19668e-05
5.98629e-05
5.77542e-05
5.56454e-05
5.35439e-05
5.14544e-05
4.93859e-05
4.73422e-05
4.53313e-05
4.33565e-05
4.14231e-05
3.95321e-05
3.76849e-05
3.58791e-05
3.41118e-05
3.23672e-05
3.06471e-05
2.89664e-05
2.72598e-05
2.55683e-05
2.385e-05
2.21137e-05
2.03217e-05
1.84619e-05
1.65311e-05
1.46118e-05
1.26968e-05
1.10383e-05
1.00803e-05
1.19764e-05
1.21315e-05
0.000116414
0.000116644
0.000116732
0.00011681
0.00011688
0.000116921
0.000116979
0.000116992
0.000117037
0.000117027
0.000117055
0.000117024
0.00011703
0.00011698
0.000116963
0.000116893
0.000116852
0.00011676
0.00011669
0.000116575
0.000116474
0.000116331
0.000116197
0.000116024
0.000115853
0.000115646
0.000115436
0.000115194
0.000114948
0.000114681
0.000114405
0.00011411
0.000113803
0.000113475
0.000113131
0.000112771
0.000112398
0.000112008
0.000111595
0.00011116
0.0001107
0.000110215
0.000109702
0.000109158
0.000108582
0.000107978
0.000107347
0.000106686
0.000105995
0.000105262
0.00010449
0.000103669
0.000102797
0.000101865
0.000100822
9.92702e-05
9.76997e-05
9.6057e-05
9.43932e-05
9.26711e-05
9.09269e-05
8.91383e-05
8.73349e-05
8.54904e-05
8.3622e-05
8.17269e-05
7.97709e-05
7.77941e-05
7.57684e-05
7.37165e-05
7.16237e-05
6.95027e-05
6.73381e-05
6.51426e-05
6.29015e-05
6.06237e-05
5.82967e-05
5.59269e-05
5.35054e-05
5.10378e-05
4.85204e-05
4.5961e-05
4.33622e-05
4.07361e-05
3.80941e-05
3.54541e-05
3.28354e-05
3.02604e-05
2.77623e-05
2.53484e-05
2.30072e-05
2.07346e-05
1.85346e-05
1.62971e-05
1.41349e-05
1.21303e-05
1.03197e-05
8.92057e-06
8.37939e-06
1.15369e-05
7.48411e-05
7.52787e-05
7.53634e-05
7.56357e-05
7.57277e-05
7.59521e-05
7.60618e-05
7.62551e-05
7.63802e-05
7.65521e-05
7.66874e-05
7.68442e-05
7.69848e-05
7.71306e-05
7.72722e-05
7.74091e-05
7.75482e-05
7.7677e-05
7.78107e-05
7.79313e-05
7.80572e-05
7.81691e-05
7.82855e-05
7.83879e-05
7.84938e-05
7.85866e-05
7.8682e-05
7.87661e-05
7.88528e-05
7.89298e-05
7.90069e-05
7.90754e-05
7.91417e-05
7.91998e-05
7.92538e-05
7.92997e-05
7.93391e-05
7.93688e-05
7.93937e-05
7.94095e-05
7.94186e-05
7.94186e-05
7.94109e-05
7.93941e-05
7.93694e-05
7.9336e-05
7.92897e-05
7.9229e-05
7.91513e-05
7.90539e-05
7.89351e-05
7.87909e-05
7.86204e-05
7.84193e-05
7.81876e-05
7.79287e-05
7.76545e-05
7.73439e-05
7.70117e-05
7.6633e-05
7.62158e-05
7.56192e-05
7.47927e-05
7.3908e-05
7.29715e-05
7.19906e-05
7.09552e-05
6.98768e-05
6.87386e-05
6.75425e-05
6.62848e-05
6.49802e-05
6.35814e-05
6.21179e-05
6.05614e-05
5.8924e-05
5.71877e-05
5.53594e-05
5.34281e-05
5.13999e-05
4.92703e-05
4.70469e-05
4.47312e-05
4.23345e-05
3.98659e-05
3.73353e-05
3.47382e-05
3.20876e-05
2.93055e-05
2.64408e-05
2.34788e-05
2.04574e-05
1.74824e-05
1.46333e-05
1.19453e-05
9.59126e-06
7.77081e-06
6.5421e-06
5.87317e-06
6.77705e-06
6.97534e-06
6.99198e-06
7.00351e-06
7.01714e-06
7.03094e-06
7.04739e-06
7.06141e-06
7.07932e-06
7.09393e-06
7.11261e-06
7.12807e-06
7.14721e-06
7.16367e-06
7.18314e-06
7.20064e-06
7.22043e-06
7.23895e-06
7.25913e-06
7.27864e-06
7.2993e-06
7.31978e-06
7.34104e-06
7.36253e-06
7.38456e-06
7.40713e-06
7.43014e-06
7.45391e-06
7.4781e-06
7.50319e-06
7.5287e-06
7.5552e-06
7.58216e-06
7.61015e-06
7.6387e-06
7.66833e-06
7.69863e-06
7.73005e-06
7.76229e-06
7.79572e-06
7.83011e-06
7.86576e-06
7.9025e-06
7.94057e-06
7.97981e-06
8.02039e-06
8.06212e-06
8.10502e-06
8.14903e-06
8.19416e-06
8.24038e-06
8.28773e-06
8.33623e-06
8.38603e-06
8.43719e-06
8.49003e-06
8.54464e-06
8.60077e-06
8.6575e-06
8.71504e-06
8.77149e-06
8.82718e-06
8.87958e-06
8.93244e-06
8.98703e-06
9.04341e-06
9.10246e-06
9.16378e-06
9.22836e-06
9.2952e-06
9.36561e-06
9.43931e-06
9.51695e-06
9.5955e-06
9.67939e-06
9.76431e-06
9.85418e-06
9.9458e-06
1.00422e-05
1.01416e-05
1.02465e-05
1.03565e-05
1.04743e-05
1.06009e-05
1.07397e-05
1.08917e-05
1.1055e-05
1.12134e-05
1.13199e-05
1.13477e-05
1.12236e-05
1.07753e-05
9.77094e-06
8.06291e-06
5.93974e-06
3.61623e-06
2.63483e-06
2.55586e-06
3.91728e-06
4.01813e-06
4.33054e-06
1.09393e-05
2.07742e-06
2.60073e-06
3.51759e-06
4.54851e-06
5.62326e-06
6.48762e-06
7.33723e-06
8.15051e-06
8.9066e-06
9.62009e-06
1.03383e-05
1.1457e-05
1.33361e-05
1.54705e-05
1.7851e-05
1.75964e-05
1.55407e-05
1.02867e-05
3.99554e-06
5.88007e-06
2.18624e-06
2.47525e-06
3.18443e-06
4.05649e-06
4.86421e-06
5.69348e-06
6.55256e-06
7.41595e-06
8.29969e-06
9.27538e-06
1.0373e-05
1.20264e-05
1.41005e-05
1.7055e-05
1.83248e-05
1.74935e-05
1.47062e-05
9.53251e-06
3.96667e-06
4.94637e-06
2.69547e-06
2.90129e-06
3.41691e-06
4.01123e-06
4.71756e-06
5.48186e-06
6.31652e-06
7.2224e-06
8.39013e-06
9.51058e-06
1.10223e-05
1.29408e-05
1.58386e-05
1.80279e-05
1.83056e-05
1.71507e-05
1.39997e-05
8.86927e-06
3.8386e-06
5.05662e-06
3.43955e-06
3.63823e-06
3.87604e-06
4.36896e-06
4.92971e-06
5.67454e-06
6.58298e-06
7.71584e-06
9.48966e-06
1.12204e-05
1.29555e-05
1.57436e-05
1.8223e-05
1.92e-05
1.88232e-05
1.70305e-05
1.3232e-05
7.97736e-06
3.25568e-06
5.68872e-06
4.47716e-06
4.61693e-06
4.63443e-06
5.19474e-06
5.69387e-06
6.58673e-06
7.84452e-06
9.60108e-06
1.31113e-05
1.47788e-05
1.70927e-05
1.93547e-05
2.04405e-05
2.04426e-05
1.92226e-05
1.65338e-05
1.2487e-05
6.87691e-06
2.37197e-06
6.89543e-06
5.97698e-06
6.04837e-06
6.02753e-06
6.77325e-06
7.76981e-06
9.35313e-06
1.16082e-05
1.61276e-05
1.95237e-05
2.09992e-05
2.23921e-05
2.30828e-05
2.28822e-05
2.16816e-05
1.90977e-05
1.596e-05
1.15516e-05
5.14179e-06
1.46283e-06
9.0435e-06
8.62725e-06
8.8588e-06
9.46539e-06
1.11851e-05
1.36764e-05
1.70887e-05
2.20439e-05
2.87902e-05
2.94418e-05
2.9123e-05
2.83311e-05
2.69262e-05
2.47868e-05
2.16754e-05
1.853e-05
1.48173e-05
1.00961e-05
3.81767e-06
7.1803e-07
1.46587e-05
1.6138e-05
1.73665e-05
1.96649e-05
2.31961e-05
2.7523e-05
3.30975e-05
4.00638e-05
3.9936e-05
3.77727e-05
3.42795e-05
3.16622e-05
2.81009e-05
2.49274e-05
2.0859e-05
1.70834e-05
1.29126e-05
8.10185e-06
2.78067e-06
2.76707e-07
3.25288e-05
3.54851e-05
3.67114e-05
3.91732e-05
4.36269e-05
4.79708e-05
5.20218e-05
4.77944e-05
4.41711e-05
4.02457e-05
3.63702e-05
3.25805e-05
2.83676e-05
2.33259e-05
1.85613e-05
1.40713e-05
1.01892e-05
6.44229e-06
2.41462e-06
1.21336e-07
5.2824e-05
5.57081e-05
5.59618e-05
5.74662e-05
6.23176e-05
5.94003e-05
5.5115e-05
5.01534e-05
4.60695e-05
4.11094e-05
3.70347e-05
3.18609e-05
2.7028e-05
1.97573e-05
1.40307e-05
9.61037e-06
7.51921e-06
5.95585e-06
2.84121e-06
1.83816e-07
5.03435e-05
5.30764e-05
5.34418e-05
5.50248e-05
5.98199e-05
5.77641e-05
5.36522e-05
4.88884e-05
4.50337e-05
4.02407e-05
3.65655e-05
3.1435e-05
2.76179e-05
2.0474e-05
1.48099e-05
9.75556e-06
7.14937e-06
5.0261e-06
2.11132e-06
1.43853e-07
2.80262e-05
3.09225e-05
3.22783e-05
3.47521e-05
3.91506e-05
4.36896e-05
4.9643e-05
4.56328e-05
4.26517e-05
3.84253e-05
3.56685e-05
3.13178e-05
2.83385e-05
2.39322e-05
1.93673e-05
1.46137e-05
1.00119e-05
5.47884e-06
1.6687e-06
1.03302e-07
1.31038e-05
1.40477e-05
1.50253e-05
1.70712e-05
2.0235e-05
2.4284e-05
2.95466e-05
3.64341e-05
3.97664e-05
3.61571e-05
3.40277e-05
3.06147e-05
2.76733e-05
2.4505e-05
2.12646e-05
1.73732e-05
1.29706e-05
7.80845e-06
2.36517e-06
1.3924e-07
8.6384e-06
8.11706e-06
8.26449e-06
8.66002e-06
1.00792e-05
1.22229e-05
1.5225e-05
1.98466e-05
2.63277e-05
2.74927e-05
2.77867e-05
2.75972e-05
2.66728e-05
2.47305e-05
2.14447e-05
1.86179e-05
1.48271e-05
1.00087e-05
3.48165e-06
3.78051e-07
6.73716e-06
5.80512e-06
5.86953e-06
5.83221e-06
6.51356e-06
7.37397e-06
8.76036e-06
1.07506e-05
1.48411e-05
1.81991e-05
1.99889e-05
2.17375e-05
2.2756e-05
2.27885e-05
2.18423e-05
1.89553e-05
1.58286e-05
1.14919e-05
5.1103e-06
1.17504e-06
5.62046e-06
4.42683e-06
4.56448e-06
4.60691e-06
5.1544e-06
5.64459e-06
6.48896e-06
7.64158e-06
9.24797e-06
1.23744e-05
1.41536e-05
1.65301e-05
1.90618e-05
2.03565e-05
2.0463e-05
1.93548e-05
1.64113e-05
1.24326e-05
6.93148e-06
2.22446e-06
5.04233e-06
3.43521e-06
3.63733e-06
3.91542e-06
4.41435e-06
4.99444e-06
5.72908e-06
6.611e-06
7.68826e-06
9.34044e-06
1.09297e-05
1.26853e-05
1.54337e-05
1.81312e-05
1.92569e-05
1.88998e-05
1.70967e-05
1.31884e-05
8.02972e-06
3.20661e-06
5.04735e-06
2.73336e-06
2.93264e-06
3.46329e-06
4.09236e-06
4.80646e-06
5.58378e-06
6.42156e-06
7.31363e-06
8.42266e-06
9.50576e-06
1.09539e-05
1.28399e-05
1.56665e-05
1.80435e-05
1.83944e-05
1.72082e-05
1.39469e-05
8.94515e-06
3.79869e-06
6.11962e-06
2.24177e-06
2.53611e-06
3.2541e-06
4.13374e-06
4.98466e-06
5.81939e-06
6.68642e-06
7.55657e-06
8.43102e-06
9.37001e-06
1.04314e-05
1.20464e-05
1.40911e-05
1.6999e-05
1.83784e-05
1.75187e-05
1.47184e-05
9.58463e-06
3.95283e-06
1.09719e-05
2.13796e-06
2.6602e-06
3.59571e-06
4.64385e-06
5.7225e-06
6.63777e-06
7.48918e-06
8.31075e-06
9.06836e-06
9.77593e-06
1.04658e-05
1.1508e-05
1.33032e-05
1.5468e-05
1.78817e-05
1.76241e-05
1.55199e-05
1.03479e-05
3.99017e-06
1.23421e-06
0.000116558
0.000294184
0.000330906
0.00033481
0.000335356
0.000335357
0.000335342
0.000335343
0.000335345
0.000335345
0.000335343
0.000335342
0.000335357
0.000335356
0.00033481
0.000330906
0.000294184
0.000116558
1.23421e-06
1.36973e-06
6.8167e-05
0.000219584
0.000309504
0.000330909
0.000334527
0.000335273
0.000335315
0.000335296
0.000335287
0.000335287
0.000335296
0.000335315
0.000335273
0.000334527
0.000330909
0.000309503
0.000219584
6.8167e-05
1.36973e-06
1.51338e-06
5.28962e-05
0.00017646
0.00028058
0.000322148
0.000332504
0.000334604
0.0003351
0.000335168
0.000335172
0.000335172
0.000335168
0.0003351
0.000334604