/*--------------------------------*- C++ -*----------------------------------*\
| =========                 |                                                 |
| \\      /  F ield         | OpenFOAM: The Open Source CFD Toolbox           |
|  \\    /   O peration     | Version:  2.1.0                                 |
|   \\  /    A nd           | Web:      www.OpenFOAM.org                      |
|    \\/     M anipulation  |                                                 |
\*---------------------------------------------------------------------------*/
FoamFile
{
    version     2.0;
    format      ascii;
    class       volScalarField;
    location    "0.51";
    object      omega;
}
// * * * * * * * * * * * * * * * * * * * * * * * * * * * * * * * * * * * * * //

dimensions      [0 0 -1 0 0 0 0];

internalField   nonuniform List<scalar> 
6400
(
1643.38
1644.33
1644.41
1644.27
1643.74
1643.48
1642.76
1642.41
1641.61
1641.21
1640.37
1639.89
1639.02
1638.45
1637.56
1636.89
1635.97
1635.2
1634.25
1633.38
1632.39
1631.42
1630.39
1629.35
1628.28
1627.18
1626.06
1624.9
1623.73
1622.51
1621.28
1620
1618.7
1617.34
1615.97
1614.53
1613.07
1611.54
1609.98
1608.35
1606.66
1604.86
1602.99
1600.99
1598.89
1596.63
1594.22
1591.63
1588.85
1585.86
1582.65
1579.19
1575.47
1571.42
1566.95
1562.04
1556.56
1551.01
1544.97
1538.82
1532.21
1525.45
1518.31
1510.95
1503.2
1495.18
1486.74
1477.98
1468.7
1458.95
1448.68
1437.81
1426.35
1414.21
1401.41
1387.88
1373.66
1358.74
1343.17
1327
1310.27
1293.02
1275.11
1255.96
1234.43
1211.84
1186.98
1159.08
1126.71
1087.55
1038.09
972.254
882.749
763.167
609.582
537.887
565.851
735.153
892.948
942.847
687.565
687.773
688.965
689.924
691.268
692.629
694.025
695.59
697.05
698.739
700.282
702.063
703.701
705.562
707.304
709.24
711.089
713.103
715.06
717.154
719.221
721.404
723.585
725.867
728.169
730.567
733.006
735.54
738.136
740.829
743.601
746.472
749.437
752.51
755.695
759.002
762.441
766.024
769.731
773.582
777.575
781.721
786.03
790.506
795.162
800.002
805.041
810.281
815.738
821.418
827.335
833.5
839.924
846.587
853.521
860.716
868.179
876.033
884.204
892.791
901.748
911.165
921.022
931.392
942.28
953.76
965.814
978.319
991.366
1005.16
1019.65
1034.94
1051.07
1068.11
1086.13
1105.21
1125.45
1146.95
1169.84
1194.25
1220.37
1248.47
1278.26
1308.74
1340.99
1373.86
1406.96
1439.03
1468.8
1494.62
1513.31
1521.88
1523.59
1509.27
1473.89
1394.61
1284.95
1150.72
1005.9
848.272
498.616
501.762
503.26
506.308
508.321
511.405
513.738
516.861
519.443
522.627
525.428
528.699
531.708
535.091
538.303
541.821
545.242
548.913
552.535
556.37
560.199
564.214
568.257
572.467
576.732
581.155
585.65
590.294
595.033
599.918
604.916
610.063
615.337
620.765
626.334
632.061
637.939
643.981
650.232
656.685
663.333
670.173
677.242
684.536
692.076
699.867
707.924
716.256
724.875
733.791
743.011
752.538
762.38
772.557
783.07
793.942
805.183
816.837
828.897
841.4
854.344
867.761
881.648
896.031
910.905
926.283
942.172
958.643
975.621
992.939
1010.64
1028.61
1046.83
1065.23
1083.77
1102.4
1121.1
1139.85
1158.64
1177.48
1196.41
1215.44
1234.6
1253.91
1273.35
1292.72
1311.86
1330.23
1347.17
1361.5
1369.33
1372.13
1365.51
1339.22
1290.45
1210.72
1102.19
961.007
797.366
628.092
449.337
454.316
456.52
460.91
463.695
468.057
471.257
475.62
479.158
483.567
487.403
491.901
496.011
500.636
505.009
509.791
514.425
519.394
524.294
529.478
534.652
540.074
545.531
551.209
556.955
562.901
568.94
575.166
581.503
588.021
594.668
601.495
608.467
615.619
622.929
630.425
638.091
645.948
653.968
662.171
670.571
679.183
687.97
696.949
706.104
715.44
724.943
734.612
744.435
754.404
764.509
774.739
785.081
795.531
806.068
816.694
827.391
838.162
848.985
859.86
870.765
881.695
892.627
903.553
914.443
925.28
936.043
946.772
957.399
967.932
978.325
988.572
998.614
1008.4
1017.9
1027.01
1035.69
1043.82
1051.32
1058.02
1063.78
1068.42
1071.44
1072.81
1073.12
1070.55
1065.64
1057.51
1045.97
1030.18
1009.6
983.218
949.807
907.587
854.559
789.041
712.276
629.247
552.938
496.625
438.236
444.323
446.966
452.241
455.551
460.776
464.56
469.76
473.92
479.14
483.62
488.901
493.663
499.039
504.06
509.555
514.815
520.452
525.944
531.738
537.453
543.413
549.34
555.471
561.602
567.902
574.229
580.701
587.214
593.848
600.528
607.311
614.141
621.056
628.015
635.044
642.111
649.231
656.378
663.563
670.76
677.976
685.193
692.418
699.626
706.823
713.984
721.115
728.19
735.213
742.162
749.04
755.825
762.521
769.1
775.557
781.915
788.128
794.175
800.02
805.646
811.002
816.073
820.805
825.174
829.127
832.634
835.644
838.112
839.99
841.071
841.53
841.591
840.421
838.69
835.822
832.175
827.366
821.604
814.634
806.568
797.24
786.712
774.951
762.011
747.777
732.498
715.979
698.409
679.571
659.475
637.735
614.231
588.233
559.117
527.776
495.248
465.362
444.193
432.547
429.614
435.64
438.224
443.399
446.578
451.667
455.244
460.245
464.113
469.047
473.141
478.034
482.307
487.181
491.596
496.464
500.993
505.862
510.48
515.352
520.035
524.906
529.633
534.5
539.249
544.101
548.856
553.676
558.464
563.308
568.112
572.945
577.727
582.512
587.232
591.929
596.544
601.11
605.576
609.964
614.23
618.391
622.397
626.273
629.961
633.489
636.798
639.91
642.773
645.402
647.747
649.819
651.571
653.011
654.092
654.82
655.19
655.323
655.153
654.426
653.412
651.858
649.938
647.491
644.631
641.256
637.446
633.138
628.39
623.169
617.52
611.455
605.038
598.229
591.142
583.713
576.064
568.136
560.083
551.862
543.552
535.171
526.796
518.437
510.149
501.924
493.659
485.384
477.139
468.832
460.445
451.849
442.985
433.703
424.108
414.713
406.896
403.161
402.111
402.088
401.725
406.578
408.637
412.758
415.206
419.235
421.917
425.822
428.654
432.433
435.359
439.018
441.997
445.54
448.538
451.967
454.954
458.267
461.215
464.404
467.287
470.344
473.139
476.051
478.712
481.429
483.92
486.425
488.756
491.068
493.184
495.235
497.068
498.798
500.29
501.643
502.741
503.671
504.328
504.731
504.901
504.93
504.565
504.028
503.141
502.056
500.635
499.002
497.047
494.877
492.406
489.728
486.775
483.633
480.265
476.758
473.004
469.132
465.067
460.913
456.641
452.315
447.936
443.542
439.141
434.746
430.462
426.255
422.209
418.3
414.597
411.075
407.749
404.634
401.741
399.069
396.625
394.381
392.377
390.565
388.997
387.61
386.44
385.423
384.577
383.837
383.208
382.628
382.089
381.545
381.012
380.495
380.166
380.04
380.504
381.765
384.262
388.856
392.551
393.613
356.294
359.766
361.195
364
365.527
368.179
369.717
372.163
373.661
375.876
377.286
379.264
380.548
382.282
383.409
384.887
385.828
387.038
387.767
388.695
389.185
389.783
390.064
390.253
390.305
390.232
389.902
389.514
388.788
387.972
386.827
385.587
384.032
382.382
380.436
378.41
376.117
373.754
371.157
368.505
365.665
362.785
359.75
356.711
353.558
350.434
347.242
344.114
340.961
337.903
334.866
331.939
329.092
326.417
323.865
321.494
319.286
317.291
315.493
313.934
312.603
311.531
310.712
310.205
309.971
309.909
310.161
310.668
311.426
312.429
313.677
315.155
316.863
318.788
320.928
323.266
325.801
328.514
331.391
334.44
337.644
340.986
344.449
348.008
351.647
355.337
359.06
362.787
366.507
370.202
373.881
377.56
381.292
385.14
389.323
394.097
399.71
406.692
412.255
414.524
297.524
298.703
299.136
299.864
300.199
300.668
300.867
301.023
301.054
301.022
300.72
300.474
299.89
299.404
298.551
297.813
296.701
295.707
294.348
293.102
291.511
290.028
288.229
286.522
284.577
282.702
280.633
278.637
276.479
274.412
272.222
270.142
267.98
265.945
263.873
261.933
259.997
258.206
256.46
254.867
253.358
252.012
250.783
249.728
248.817
248.091
247.531
247.197
247.046
247.012
247.275
247.717
248.399
249.234
250.298
251.526
252.976
254.597
256.433
258.444
260.666
263.066
265.674
268.464
271.459
274.646
278.026
281.594
285.357
289.312
293.467
297.82
302.381
307.147
312.129
317.327
322.75
328.398
334.283
340.402
346.765
353.37
360.223
367.32
374.662
382.238
390.042
398.053
406.256
414.625
423.143
431.79
440.569
449.495
458.647
468.263
478.981
490.636
502.319
508.092
238.851
237.654
237.122
236.002
235.284
234.094
233.222
231.959
230.968
229.643
228.554
227.193
226.034
224.658
223.462
222.096
220.894
219.565
218.389
217.126
216.009
214.839
213.814
212.767
211.865
210.965
210.213
209.482
208.904
208.366
207.982
207.656
207.494
207.42
207.41
207.592
207.84
208.26
208.758
209.425
210.185
211.096
212.114
213.273
214.549
215.959
217.492
219.155
220.944
222.86
224.912
227.086
229.396
231.819
234.379
237.052
239.865
242.793
245.864
249.054
252.391
255.853
259.465
263.211
267.114
271.159
275.369
279.733
284.273
288.98
293.876
298.957
304.241
309.73
315.441
321.379
327.563
334.001
340.713
347.708
355.012
362.637
370.612
378.956
387.7
396.869
406.503
416.636
427.318
438.598
450.542
463.221
476.726
491.16
506.642
523.253
541.012
559.501
574.211
580.774
258.578
258.009
257.715
257.067
256.56
255.796
255.089
254.191
253.3
252.258
251.207
250.028
248.848
247.547
246.258
244.871
243.497
242.055
240.627
239.163
237.714
236.26
234.828
233.418
232.04
230.709
229.42
228.2
227.038
225.963
224.961
224.062
223.251
222.555
221.964
221.503
221.164
220.996
220.932
220.964
221.253
221.575
222.128
222.743
223.57
224.479
225.585
226.787
228.175
229.669
231.34
233.125
235.079
237.154
239.404
241.762
244.287
246.926
249.728
252.65
255.734
258.946
262.318
265.825
269.496
273.309
277.291
281.425
285.736
290.21
294.871
299.709
304.745
309.976
315.423
321.085
326.98
333.112
339.501
346.152
353.087
360.316
367.861
375.738
383.971
392.58
401.592
411.033
420.935
431.327
442.253
453.759
465.946
478.881
492.71
507.566
523.56
540.323
554.079
560.304
318.09
319.707
320.335
321.486
322.049
323.013
323.477
324.218
324.567
325.006
325.187
325.275
325.276
325.093
324.754
324.339
323.692
323.024
322.088
321.16
319.954
318.771
317.314
315.887
314.203
312.553
310.679
308.829
306.786
304.778
302.604
300.479
298.217
296.018
293.711
291.482
289.176
286.972
284.724
282.597
280.464
278.489
276.565
274.805
273.137
271.642
270.276
269.096
268.075
267.251
266.612
266.208
266.018
265.964
266.178
266.589
267.206
268.022
269.051
270.28
271.719
273.357
275.202
277.243
279.49
281.932
284.571
287.387
290.392
293.569
296.931
300.459
304.163
308.036
312.083
316.297
320.681
325.229
329.942
334.814
339.824
344.973
350.246
355.642
361.143
366.748
372.439
378.212
384.057
389.973
395.962
402.028
408.173
414.57
421.36
428.951
437.666
447.928
458.802
464.517
369.415
372.809
374.218
376.982
378.523
381.157
382.742
385.205
386.783
389.069
390.626
392.718
394.21
396.087
397.467
399.121
400.345
401.759
402.79
403.947
404.753
405.632
406.185
406.762
407.047
407.231
407.284
407.199
406.87
406.451
405.787
405.027
404.027
402.929
401.599
400.165
398.432
396.58
394.46
392.223
389.75
387.171
384.394
381.531
378.509
375.43
372.243
369.026
365.752
362.482
359.202
355.964
352.755
349.616
346.537
343.603
340.791
338.144
335.651
333.353
331.244
329.352
327.682
326.249
325.055
324.1
323.376
322.906
322.683
322.611
322.759
323.178
323.743
324.536
325.453
326.557
327.762
329.113
330.536
332.062
333.7
335.433
337.257
339.16
341.137
343.2
345.327
347.538
349.822
352.216
354.728
357.415
360.323
363.515
366.972
371.066
376.201
382.807
387.665
389.452
407.47
412.214
414.228
418.24
420.64
424.541
427.168
430.927
433.687
437.332
440.226
443.784
446.764
450.239
453.266
456.66
459.699
463.006
466.026
469.238
472.209
475.311
478.205
481.181
483.969
486.795
489.454
492.103
494.592
497.038
499.319
501.529
503.562
505.496
507.241
508.87
510.372
511.72
512.89
513.871
514.633
515.153
515.4
515.48
515.296
514.776
514.027
512.954
511.625
509.983
508.072
505.861
503.379
500.616
497.595
494.318
490.809
487.095
483.201
479.149
474.938
470.574
466.087
461.514
456.861
452.169
447.461
442.82
438.229
433.76
429.412
425.238
421.237
417.427
413.773
410.327
407.053
403.991
401.097
398.394
395.796
393.371
391.027
388.808
386.63
384.552
382.478
380.456
378.412
376.404
374.383
372.441
370.579
369.125
368.136
367.764
368.625
372.376
375.511
376.402
424.76
430.53
433.008
437.955
441.019
445.884
449.343
454.131
457.885
462.627
466.615
471.339
475.516
480.242
484.576
489.319
493.782
498.551
503.119
507.916
512.57
517.394
522.113
526.96
531.728
536.587
541.387
546.25
551.066
555.924
560.739
565.574
570.36
575.142
579.865
584.567
589.258
593.91
598.521
603.072
607.552
611.944
616.241
620.423
624.474
628.378
632.122
635.683
639.052
642.202
645.123
647.788
650.185
652.29
654.085
655.547
656.66
657.327
657.624
657.684
657.169
656.454
655.22
653.673
651.608
649.162
646.205
642.831
638.959
634.658
629.878
624.675
619.019
612.989
606.619
599.912
592.882
585.596
578.005
570.206
562.145
553.935
545.496
536.929
528.151
519.18
509.974
500.528
490.662
480.336
469.609
458.304
446.45
433.933
421.508
408.814
398.137
391.551
388.729
387.466
426.783
432.45
434.915
439.819
442.917
447.774
451.324
456.167
460.074
464.941
469.15
474.081
478.557
483.586
488.313
493.468
498.431
503.732
508.921
514.381
519.787
525.416
531.031
536.834
542.651
548.628
554.639
560.788
566.981
573.3
579.668
586.145
592.676
599.304
605.989
612.761
619.59
626.489
633.44
640.449
647.501
654.596
661.726
668.884
676.064
683.257
690.452
697.636
704.797
711.942
719.053
726.121
733.137
740.089
746.969
753.761
760.467
767.057
773.533
779.854
786.01
792.027
797.824
803.411
808.717
813.736
818.404
822.702
826.571
829.986
832.89
835.244
836.995
837.9
838.252
838.174
836.735
834.828
831.628
827.652
822.341
815.979
808.162
799.029
788.271
775.977
761.963
746.074
728.36
708.52
686.496
661.832
634.242
603.19
569.469
532.65
495.57
460.597
435.427
418.808
435.236
439.787
441.81
445.839
448.407
452.406
455.353
459.344
462.597
466.627
470.148
474.255
478.019
482.237
486.238
490.598
494.832
499.358
503.828
508.544
513.256
518.184
523.149
528.309
533.538
538.949
544.452
550.128
555.911
561.862
567.935
574.178
580.558
587.112
593.821
600.713
607.775
615.032
622.459
630.079
637.881
645.876
654.057
662.427
670.978
679.761
688.757
697.996
707.467
717.118
726.974
737.008
747.224
757.603
768.141
778.817
789.631
800.552
811.584
822.699
833.904
845.178
856.523
867.924
879.376
890.859
902.356
913.844
925.29
936.668
948.041
959.329
970.555
981.659
992.64
1003.42
1013.94
1024.17
1033.97
1043.28
1051.91
1059.74
1066.51
1072
1075.36
1076.79
1076.95
1072.53
1065.27
1052.65
1034.86
1009.77
976.365
932.136
876.682
807.071
724.976
634.406
553.22
488.496
482.659
485.415
486.746
489.476
491.29
494.059
496.164
498.969
501.299
504.162
506.69
509.634
512.352
515.396
518.289
521.447
524.516
527.805
531.054
534.489
537.923
541.52
545.145
548.919
552.745
556.71
560.746
564.917
569.178
573.565
578.058
582.683
587.426
592.306
597.314
602.464
607.747
613.172
618.785
624.571
630.558
636.748
643.162
649.813
656.724
663.856
671.242
678.868
686.753
694.946
703.441
712.264
721.422
730.931
740.796
751.026
761.647
772.659
784.089
795.946
808.261
821.048
834.347
848.176
862.554
877.5
893.025
909.147
925.874
943.237
961.242
979.623
998.47
1017.71
1037.29
1057.16
1077.24
1097.5
1117.88
1138.38
1158.95
1179.59
1200.25
1221.04
1241.92
1262.86
1283.64
1303.74
1322.65
1339.02
1348.91
1352.69
1348.09
1320.83
1271.28
1196.03
1093.13
963.495
802.401
630.33
666.538
666.473
667.472
668.22
669.37
670.505
671.7
673.029
674.277
675.723
677.043
678.573
679.979
681.58
683.078
684.746
686.341
688.08
689.774
691.589
693.383
695.278
697.175
699.158
701.162
703.243
705.36
707.554
709.803
712.129
714.53
717.014
719.587
722.252
725.018
727.892
730.886
734.01
737.247
740.617
744.12
747.766
751.563
755.516
759.632
763.915
768.378
773.025
777.874
782.935
788.216
793.733
799.495
805.517
811.818
818.416
825.293
832.491
840.012
847.871
856.085
864.652
873.652
883.131
893.097
903.595
914.645
926.296
938.576
951.502
964.909
979.189
994.185
1010.11
1026.92
1044.77
1063.67
1083.75
1105.07
1127.75
1151.9
1177.63
1205.06
1234.43
1265.48
1297.25
1329.71
1361.29
1390.45
1414.86
1428.82
1433.96
1431.71
1415.35
1383.3
1322.02
1233.79
1122.44
997.868
848.978
1603.74
1604.39
1604.3
1603.82
1603.16
1602.62
1601.72
1601.16
1600.16
1599.55
1598.52
1597.83
1596.79
1596.02
1594.97
1594.11
1593.05
1592.09
1591
1589.96
1588.82
1587.7
1586.52
1585.32
1584.09
1582.83
1581.57
1580.26
1578.95
1577.6
1576.26
1574.86
1573.47
1572.03
1570.58
1569.1
1567.6
1566.06
1564.51
1562.92
1561.31
1559.66
1557.98
1556.25
1554.48
1552.63
1550.71
1548.7
1546.57
1544.33
1541.96
1539.44
1536.79
1533.97
1531.02
1527.92
1524.64
1521.08
1517.25
1512.96
1508.22
1502.81
1497.02
1490.93
1484.52
1477.83
1470.79
1463.44
1455.65
1447.48
1438.85
1429.74
1419.87
1409.49
1398.2
1386.21
1373.19
1359.25
1344.16
1327.97
1310.51
1291.8
1271.73
1250.29
1227.33
1202.5
1174.83
1142.05
1103.37
1056.52
996.355
917.073
816.441
705.605
584.534
535.343
556.126
721.968
886.836
939.97
865.883
324.716
176.598
119.701
95.2624
82.3293
76.1283
73.1611
72.1892
74.0343
80.9597
97.4745
118.902
156.247
207.133
271.579
349.013
444.098
560.329
610.158
693.157
329.158
219.134
154.326
121.754
104.134
92.9358
87.4667
85.5417
87.5408
99.669
115.604
144.59
184.78
237.995
300.013
372.454
459.626
544.768
568.414
544.563
318.72
242.259
180.15
147.621
125.457
111.879
105.979
104.313
108.678
120.226
144.156
174.756
218.81
269.578
326.208
390.288
462.725
514.392
522.431
444.6
305.153
256.274
198.153
171.191
146.153
134.086
128.45
126.902
131.268
154.182
177.745
213.997
256.477
302.116
352.32
406.706
455.389
474.142
474.184
388.165
300.406
266.28
214.669
191.988
168.729
159.187
155.461
155.218
175.096
195.488
222.891
257.414
292.875
330.874
370.85
410.094
432.659
426.357
427.61
360.063
300.351
273.819
232.014
214.519
201.038
197.442
197.431
211.714
227.904
247.93
272.696
299.494
326.843
355.915
383.544
398.937
396.762
367.843
383.231
352.299
312.825
296.034
272.999
265.942
263.428
263.071
269.924
279.164
291.205
306.029
322.387
339.268
355.574
369.833
376.642
374.931
343.615
300.581
349.741
386.85
375.194
371.379
361.601
356.844
351.332
349.134
348.606
350.775
355.083
359.387
364.16
366.784
367.789
366.318
357.912
331.012
277.504
232.607
331.162
498.999
483.773
476.39
457.489
448.599
434.261
427.225
417.552
412.365
404.313
397.851
388.691
378.175
365.483
349.215
316.761
268.583
204.304
161.961
324.848
563.327
541.934
532.278
509.221
498.177
479.535
469.254
452.423
440.863
423.955
409.8
390.58
370.517
341.913
302.438
252.135
198.385
143.334
116.163
327.373
544.504
524.346
515.286
493.522
483.131
465.726
456.397
441.419
431.218
416.548
404.033
387.469
369.718
345.141
309.456
259.797
203.72
143.065
112.772
325.756
457.733
446.533
440.887
424.928
417.626
406.66
401.392
395.71
392.905
389.458
385.977
381.292
374.261
364.765
353.375
326.909
279.408
212.236
170.747
324.123
358.988
343.889
338.903
330.942
327.538
324.424
323.579
326.205
331.073
338.595
346.606
354.838
362.494
366.306
367.652
363.226
339.541
286.888
239.303
325.57
336.705
296.826
279.292
254.097
245.704
242.739
242.547
250.922
261.634
275.63
292.958
311.777
332.002
352.127
370.589
379.773
380.965
352.303
307.623
335.344
346.808
288.202
262.303
221.056
203.641
189.14
184.798
184.318
198.117
215.385
236.854
263.173
291.986
321.707
353.812
385.657
403.681
404.794
374.31
369.977
374.538
289.334
256.048
206.275
184.322
161.489
151.835
147.757
147.162
165.21
186.586
214.653
250.484
287.694
327.754
370.186
414.008
438.686
433.712
420.158
429.623
294.022
246.235
190.019
163.842
140.07
128.56
123.211
121.758
125.973
147.133
171.334
207.677
251.252
298.679
350.894
407.734
460.342
480.493
471.514
531.615
308.247
233.707
173.727
141.933
120.385
107.425
101.743
100.165
104.704
116.037
139.029
169.958
213.88
265.799
324.1
390.681
467.09
518.623
522.972
686.667
318.133
211.271
148.267
116.999
99.8659
89.5242
84.4286
82.642
84.687
96.1691
112.093
140.593
180.793
234.268
297.378
371.288
461.115
548.512
570.793
863.382
313.539
170.708
115.746
92.0836
79.5954
73.2062
70.5008
69.7177
72.0782
78.7694
94.3942
116.026
152.755
203.78
268.913
347.723
444.783
563.134
613.192
646.054
32.1745
12.7362
11.3229
11.19
11.171
11.1705
11.1708
11.1706
11.1705
11.1705
11.1706
11.1708
11.1705
11.171
11.19
11.3229
12.7362
32.1744
646.053
672.74
55.0628
17.0386
12.087
11.3039
11.1803
11.1547
11.1529
11.1534
11.1536
11.1536
11.1534
11.1529
11.1547
11.1803
11.3039
12.087
17.0386
55.0628
672.741
698.453
71.0937
21.1542
13.3033
11.5874
11.2261
11.1552
11.1382
11.1358
11.1355
11.1355
11.1358
11.1382
11.1552
11.2261
11.5874
13.3033
21.1542
71.0935
698.453
723.136
85.8503
25.1369
14.6461
12.0431
11.3371
11.1684
11.1265
11.1183
11.1171
11.1171
11.1183
11.1265
11.1684
11.3371
12.0431
14.6461
25.1369
85.8503
723.136
746.743
101.867
29.2065
16.0658
12.5885
11.5234
11.2064
11.1273
11.105
11.1003
11.1003
11.105
11.1273
11.2064
11.5234
12.5885
16.0658
29.2065
101.867
746.743
769.31
118.432
33.3669
17.5406
13.1971
11.7624
11.283
11.1366
11.0944
11.0843
11.0843
11.0944
11.1366
11.283
11.7624
13.1971
17.5406
33.3669
118.433
769.31
790.728
134.968
37.5676
19.0511
13.8502
12.0431
11.3872
11.16
11.0918
11.0718
11.0718
11.0918
11.16
11.3872
12.0431
13.8502
19.0511
37.5677
134.968
790.728
810.982
151.251
41.7801
20.5852
14.5352
12.3571
11.5178
11.2031
11.0955
11.0625
11.0625
11.0955
11.2031
11.5178
12.3571
14.5352
20.5852
41.7802
151.251
810.982
829.955
167.079
45.9691
22.1303
15.2422
12.6968
11.6708
11.2604
11.1065
11.0594
11.0594
11.1065
11.2604
11.6708
12.6969
15.2422
22.1303
45.9692
167.079
829.955
847.653
182.401
50.1209
23.6797
15.9648
13.0568
11.8431
11.3324
11.129
11.0619
11.0619
11.129
11.3324
11.8431
13.0568
15.9648
23.6797
50.121
182.402
847.653
863.991
197.096
54.2105
25.2247
16.6968
13.4321
12.0315
11.4179
11.1609
11.0697
11.0698
11.1609
11.4179
12.0315
13.4322
16.6968
25.2248
54.2106
197.096
863.99
879.013
211.155
58.2321
26.7619
17.4347
13.8193
12.2335
11.5156
11.2021
11.0862
11.0862
11.2021
11.5156
12.2335
13.8193
17.4347
26.7619
58.2323
211.156
879.013
892.663
224.491
62.1651
28.2844
18.1745
14.2149
12.4467
11.6242
11.2528
11.1113
11.1113
11.2528
11.6242
12.4467
14.2149
18.1745
28.2845
62.1653
224.491
892.663
905.026
237.118
66.009
29.7908
18.9141
14.6169
12.6691
11.7427
11.3126
11.1446
11.1446
11.3126
11.7427
12.6691
14.6169
18.9141
29.7908
66.0092
237.119
905.026
916.068
248.971
69.7457
31.2753
19.6506
15.023
12.899
11.8698
11.381
11.1861
11.1861
11.381
11.8698
12.899
15.0231
19.6507
31.2755
69.7459
248.97
916.067
925.904
260.089
73.3781
32.7379
20.383
15.4319
13.1352
12.0048
11.4576
11.2357
11.2357
11.4576
12.0048
13.1352
15.4319
20.383
32.7379
73.3782
260.09
925.904
934.512
270.424
76.8906
34.1733
21.1087
15.8417
13.3762
12.1466
11.5418
11.293
11.293
11.5418
12.1466
13.3762
15.8418
21.1088
34.1735
76.8908
270.423
934.512
942.037
280.035
80.2892
35.5826
21.8277
16.2519
13.6211
12.2944
11.6331
11.3579
11.3579
11.6331
12.2944
13.6211
16.2519
21.8276
35.5825
80.2892
280.036
942.036
948.451
288.886
83.5602
36.9606
22.5374
16.6609
13.8691
12.4475
11.7309
11.4299
11.4299
11.7309
12.4475
13.8691
16.661
22.5375
36.9608
83.5604
288.885
948.45
953.925
297.051
86.7124
38.3098
23.2383
17.0685
14.1194
12.6053
11.8348
11.5085
11.5085
11.8348
12.6053
14.1194
17.0685
23.2383
38.3097
86.7123
297.052
953.924
958.416
304.506
89.734
39.6248
23.9282
17.4734
14.3712
12.7671
11.9442
11.5934
11.5934
11.9442
12.7671
14.3712
17.4735
23.9283
39.6251
89.7342
304.504
958.415
962.12
311.326
92.6356
40.9093
24.608
17.8757
14.6242
12.9325
12.0587
11.684
11.684
12.0587
12.9325
14.6242
17.8757
24.608
40.9092
92.6355
311.327
962.12
964.967
317.506
95.4074
42.1578
25.2754
18.2741
14.8776
13.1009
12.1777
11.78
11.78
12.1777
13.1009
14.8776
18.2742
25.2755
42.1581
95.4078
317.503
964.966
967.18
323.102
98.0618
43.3751
25.9318
18.669
15.1313
13.2719
12.3009
11.8809
11.8809
12.3009
13.2719
15.1313
18.669
25.9318
43.3749
98.0616
323.105
967.179
968.649
328.148
100.59
44.5553
26.5748
19.0592
15.3846
13.445
12.4277
11.9862
11.9862
12.4277
13.445
15.3846
19.0593
26.575
44.5556
100.59
328.144
968.648
969.635
332.653
103.005
45.7045
27.2064
19.4453
15.6374
13.62
12.5579
12.0955
12.0955
12.5579
13.62
15.6374
19.4452
27.2063
45.7042
103.005
332.657
969.634
969.97
336.705
105.299
46.8159
27.8239
19.826
15.8892
13.7964
12.691
12.2085
12.2085
12.691
13.7964
15.8892
19.8261
27.824
46.8163
105.3
336.7
969.969
969.834
340.242
107.488
47.8975
28.4297
20.2021
16.14
13.9741
12.8267
12.3248
12.3248
12.8267
13.9741
16.14
20.2021
28.4296
47.8972
107.488
340.246
969.833
969.425
343.403
109.561
48.9414
29.021
20.5725
16.3892
14.1525
12.9646
12.4441
12.4441
12.9646
14.1525
16.3892
20.5725
29.0212
48.9418
109.561
343.397
969.424
968.579
346.14
111.539
49.9569
29.6008
20.9379
16.637
14.3316
13.1045
12.5659
12.5659
13.1045
14.3316
16.637
20.9379
29.6006
49.9565
111.538
346.144
968.578
967.379
348.534
113.406
50.9352
30.1658
21.2973
16.8828
14.511
13.2461
12.69
12.69
13.2461
14.511
16.8828
21.2973
30.166
50.9357
113.406
348.528
967.378
965.891
350.552
115.188
51.8872
30.7196
21.6515
17.1267
14.6907
13.389
12.8161
12.8161
13.389
14.6907
17.1267
21.6515
30.7194
51.8867
115.187
350.556
965.89
964.155
352.265
116.864
52.8028
31.2587
21.9995
17.3684
14.8702
13.5331
12.944
12.944
13.5331
14.8702
17.3684
21.9995
31.2588
52.8033
116.865
352.259
964.155
962.205
353.658
118.465
53.6944
31.7868
22.3423
17.608
15.0495
13.6782
13.0733
13.0733
13.6782
15.0495
17.608
22.3422
31.7867
53.6937
118.463
353.662
962.203
960.073
354.766
119.965
54.5507
32.3005
22.6787
17.8451
15.2283
13.8239
13.2039
13.2039
13.8239
15.2283
17.8451
22.6787
32.3006
54.5512
119.966
354.761
960.074
957.789
355.615
121.399
55.3853
32.8038
23.0099
18.0798
15.4067
13.9702
13.3355
13.3355
13.9702
15.4067
18.0799
23.0099
32.8037
55.3845
121.397
355.618
957.788
955.381
356.175
122.736
56.186
33.293
23.3347
18.3118
15.5842
14.1168
13.468
13.468
14.1168
15.5842
18.3118
23.3346
33.2931
56.1866
122.737
356.171
955.382
952.87
356.557
124.016
56.9676
33.7724
23.6544
18.5414
15.761
14.2636
13.6011
13.6011
14.2636
15.761
18.5415
23.6544
33.7723
56.9667
124.013
356.559
952.868
950.286
356.613
125.204
57.7167
34.238
23.9676
18.7681
15.9367
14.4103
13.7346
13.7346
14.4103
15.9366
18.768
23.9676
34.2381
57.7173
125.206
356.611
950.287
947.636
356.52
126.342
58.4494
34.6947
24.2759
18.9922
16.1114
14.557
13.8684
13.8684
14.557
16.1114
18.9923
24.276
34.6946
58.4485
126.338
356.519
947.634
944.957
356.291
127.392
59.1511
35.1381
24.5779
19.2134
16.2848
14.7033
14.0024
14.0024
14.7033
16.2848
19.2133
24.5778
35.138
59.1518
127.395
356.29
944.959
942.244
355.82
128.406
59.8395
35.5733
24.8751
19.4319
16.4571
14.8493
14.1364
14.1364
14.8494
16.4572
19.432
24.8753
35.5733
59.8385
128.402
355.826
942.242
939.539
355.244
129.335
60.4986
35.9959
25.1662
19.6474
16.628
14.9948
14.2703
14.2703
14.9947
16.6279
19.6473
25.1659
35.9957
60.4995
129.339
355.236
939.541
936.821
354.505
130.251
61.149
36.4113
25.4527
19.8603
16.7975
15.1397
14.404
14.404
15.1398
16.7976
19.8605
25.453
36.4115
61.1479
130.246
354.511
936.818
934.145
353.722
131.099
61.7743
36.8149
25.7334
20.0701
16.9655
15.2839
14.5373
14.5373
15.2838
16.9653
20.0699
25.7329
36.8145
61.7751
131.104
353.714
934.147
931.466
352.872
131.987
62.3994
37.2125
26.0097
20.2774
17.132
15.4273
14.6702
14.6703
15.4274
17.1321
20.2777
26.0102
37.213
62.3985
131.98
352.877
931.463
928.859
352.024
132.869
63.0126
37.5999
26.2805
20.4816
17.2969
15.5699
14.8026
14.8025
15.5698
17.2967
20.4813
26.2799
37.5991
63.0133
132.875
352.019
928.862
926.333
351.164
133.826
63.6387
37.9833
26.5474
20.6833
17.4603
15.7116
14.9344
14.9344
15.7117
17.4605
20.6837
26.5481
37.9843
63.6383
133.819
351.166
926.33
923.871
350.422
134.84
64.2638
38.3588
26.8093
20.882
17.622
15.8522
15.0654
15.0654
15.8521
17.6217
20.8816
26.8085
38.3576
64.264
134.847
350.42
923.875
921.484
349.753
135.976
64.912
38.7329
27.0679
21.0783
17.7821
15.9919
15.1958
15.1959
15.992
17.7824
21.0789
27.0689
38.7345
64.9124
135.97
349.755
921.481
919.155
349.293
137.189
65.565
39.1016
27.3221
21.2718
17.9404
16.1304
15.3253
15.3252
16.1303
17.9402
21.2712
27.321
39.0999
65.5646
137.196
349.292
919.158
916.897
348.942
138.533
66.246
39.4712
27.5738
21.4631
18.0973
16.2679
15.4541
15.4541
16.2681
18.0977
21.4638
27.5752
39.4735
66.2475
138.527
348.943
916.893
914.693
348.851
139.937
66.9331
39.8374
27.8218
21.6517
18.2523
16.4041
15.5817
15.5816
16.404
18.252
21.651
27.8204
39.8351
66.9319
139.944
348.853
914.696
912.56
348.916
141.463
67.6495
40.2064
28.0679
21.8384
18.4059
16.5394
15.7086
15.7087
16.5396
18.4064
21.8394
28.0699
40.2097
67.6525
141.459
348.918
912.554
910.479
349.098
143.022
68.3711
40.5735
28.3112
22.0226
18.5577
16.6731
15.8342
15.8342
16.6729
18.5573
22.0217
28.3094
40.5706
68.3689
143.029
349.101
910.482
908.471
349.471
144.676
69.1203
40.9447
28.5532
22.2052
18.7081
16.806
15.9592
15.9593
16.8063
18.7088
22.2066
28.5558
40.9492
69.1254
144.675
349.481
908.463
906.512
349.99
146.342
69.873
41.315
28.793
22.3855
18.8567
16.9373
16.0827
16.0826
16.937
18.8562
22.3844
28.7908
41.3114
69.87
146.347
349.989
906.516
904.629
350.63
148.077
70.6511
41.6902
29.0321
22.5644
19.0041
17.0677
16.2056
16.2058
17.0682
19.0051
22.5663
29.0357
41.6964
70.6589
148.081
350.645
904.62
902.794
351.376
149.806
71.4301
42.065
29.2695
22.7414
19.1497
17.1965
16.3268
16.3268
17.1962
19.1491
22.74
29.2669
42.0608
71.4266
149.811
351.379
902.796
901.035
352.209
151.58
72.2317
42.4452
29.5067
22.9171
19.2942
17.3245
16.4477
16.4479
17.3252
19.2956
22.9198
29.5116
42.4536
72.2435
151.592
352.231
901.021
899.321
353.116
153.335
73.0313
42.8251
29.7426
23.0911
19.437
17.4508
16.5666
16.5665
17.4504
19.4362
23.0895
29.7397
42.8206
73.0282
153.339
353.127
899.32
897.684
354.081
155.115
73.8509
43.2104
29.9786
23.264
19.5787
17.5764
16.6853
16.6856
17.5774
19.5808
23.2679
29.9855
43.2222
73.8685
155.138
354.116
897.665
896.089
355.096
156.864
74.6654
43.5954
30.2137
23.4356
19.7188
17.7001
16.8017
16.8017
17.6998
19.7181
23.434
30.2107
43.5913
74.6644
156.873
355.121
896.082
894.571
356.143
158.624
75.4974
43.9856
30.4488
23.6061
19.858
17.8234
16.9184
16.9188
17.8249
19.861
23.6117
30.4589
44.0027
75.5236
158.662
356.199
894.542
893.092
357.219
160.343
76.3209
44.3755
30.6836
23.7754
19.9955
17.9447
17.0324
17.0324
17.9445
19.995
23.7741
30.681