/*--------------------------------*- C++ -*----------------------------------*\
| =========                 |                                                 |
| \\      /  F ield         | OpenFOAM: The Open Source CFD Toolbox           |
|  \\    /   O peration     | Version:  2.1.0                                 |
|   \\  /    A nd           | Web:      www.OpenFOAM.org                      |
|    \\/     M anipulation  |                                                 |
\*---------------------------------------------------------------------------*/
FoamFile
{
    version     2.0;
    format      ascii;
    class       volScalarField;
    location    "0.51";
    object      p;
}
// * * * * * * * * * * * * * * * * * * * * * * * * * * * * * * * * * * * * * //

dimensions      [1 -1 -2 0 0 0 0];

internalField   nonuniform List<scalar> 
6400
(
99998.2
99995.6
99993.7
99992.1
99990.7
99989.3
99988
99986.6
99985.2
99983.7
99982.2
99980.7
99979
99977.4
99975.6
99973.8
99971.9
99969.9
99967.9
99965.8
99963.6
99961.3
99958.9
99956.5
99954
99951.4
99948.7
99945.9
99943
99940
99937
99933.8
99930.6
99927.2
99923.8
99920.2
99916.5
99912.7
99908.8
99904.8
99900.6
99896.3
99891.9
99887.3
99882.6
99877.7
99872.7
99867.5
99862.2
99856.6
99850.9
99844.9
99838.8
99832.5
99825.9
99819.2
99812.1
99804.9
99797.4
99789.7
99781.7
99773.5
99764.9
99756.1
99746.9
99737.5
99727.6
99717.5
99706.9
99696
99684.7
99672.9
99660.7
99648
99634.8
99621.1
99606.8
99592
99576.6
99560.5
99543.7
99526.1
99507.6
99488.1
99467.4
99445.3
99421.4
99395.5
99367.1
99336.1
99302.6
99267.8
99233.8
99201.6
99169
99136.2
99079.2
98963.9
98592.7
96984.4
99996.6
99994.9
99993.2
99991.7
99990.3
99988.9
99987.6
99986.2
99984.8
99983.3
99981.8
99980.3
99978.6
99976.9
99975.2
99973.4
99971.5
99969.5
99967.4
99965.3
99963.1
99960.8
99958.5
99956
99953.5
99950.9
99948.2
99945.4
99942.5
99939.5
99936.5
99933.3
99930.1
99926.7
99923.2
99919.7
99916
99912.2
99908.3
99904.2
99900.1
99895.8
99891.3
99886.8
99882
99877.2
99872.1
99866.9
99861.6
99856
99850.3
99844.4
99838.2
99831.9
99825.4
99818.6
99811.7
99804.4
99797
99789.3
99781.3
99773.1
99764.5
99755.7
99746.6
99737.1
99727.3
99717.2
99706.7
99695.8
99684.5
99672.7
99660.6
99647.9
99634.8
99621.1
99606.9
99592.1
99576.7
99560.6
99543.8
99526.2
99507.8
99488.3
99467.6
99445.5
99421.7
99395.9
99367.7
99337
99303.8
99269.2
99235.1
99203.3
99175.9
99146.8
99095.2
98994.2
98693.3
98138.7
99995
99994.1
99992.7
99991.3
99990
99988.7
99987.4
99986
99984.6
99983.1
99981.6
99980.1
99978.5
99976.8
99975
99973.2
99971.3
99969.3
99967.3
99965.1
99962.9
99960.7
99958.3
99955.8
99953.3
99950.7
99948
99945.2
99942.3
99939.4
99936.3
99933.1
99929.9
99926.5
99923.1
99919.5
99915.8
99912.1
99908.1
99904.1
99900
99895.7
99891.3
99886.7
99882
99877.1
99872.1
99867
99861.6
99856.1
99850.4
99844.5
99838.4
99832.2
99825.7
99819
99812
99804.9
99797.5
99789.8
99781.9
99773.7
99765.2
99756.4
99747.3
99737.9
99728.2
99718.1
99707.7
99696.9
99685.7
99674
99661.9
99649.4
99636.4
99622.8
99608.7
99594.1
99578.8
99562.9
99546.2
99528.7
99510.4
99491
99470.4
99448.5
99424.8
99399.3
99371.5
99341.4
99309.4
99276.6
99244.9
99216.7
99193.4
99165.7
99130.1
99068
98911.6
99001.4
99993.1
99993.2
99992.3
99991.1
99989.9
99988.6
99987.4
99986
99984.7
99983.2
99981.7
99980.2
99978.5
99976.9
99975.1
99973.3
99971.4
99969.4
99967.4
99965.3
99963.1
99960.8
99958.5
99956.1
99953.6
99951
99948.3
99945.5
99942.7
99939.7
99936.7
99933.5
99930.3
99927
99923.5
99920
99916.3
99912.5
99908.7
99904.7
99900.5
99896.3
99891.9
99887.3
99882.7
99877.9
99872.9
99867.8
99862.5
99857
99851.3
99845.5
99839.5
99833.3
99826.8
99820.2
99813.3
99806.1
99798.8
99791.2
99783.3
99775.1
99766.7
99758
99749
99739.7
99730
99720
99709.6
99698.8
99687.7
99676.1
99664
99651.5
99638.5
99624.9
99610.8
99596.1
99580.8
99564.7
99548
99530.4
99511.9
99492.3
99471.5
99449.4
99425.7
99400.2
99372.7
99343.5
99313
99282.8
99254.9
99231.8
99214.8
99202.2
99196.8
99201.4
99227.8
99648
99991
99992.1
99991.8
99991
99989.9
99988.8
99987.6
99986.3
99985
99983.6
99982.1
99980.5
99978.9
99977.3
99975.5
99973.7
99971.8
99969.9
99967.9
99965.8
99963.6
99961.4
99959.1
99956.7
99954.2
99951.6
99949
99946.2
99943.4
99940.4
99937.4
99934.3
99931.1
99927.8
99924.4
99920.8
99917.2
99913.5
99909.6
99905.6
99901.5
99897.3
99892.9
99888.4
99883.8
99879
99874
99868.9
99863.6
99858.2
99852.6
99846.7
99840.7
99834.5
99828.1
99821.5
99814.6
99807.5
99800.1
99792.5
99784.7
99776.5
99768.1
99759.4
99750.4
99741
99731.3
99721.3
99710.8
99700
99688.8
99677.2
99665
99652.4
99639.3
99625.7
99611.5
99596.7
99581.2
99565
99548.1
99530.4
99511.7
99491.9
99471
99448.7
99424.9
99399.6
99372.7
99344.6
99316.2
99289.4
99266.7
99250.5
99244.7
99254.8
99291.8
99383.8
99582
100158
99988.9
99991.1
99991.4
99990.9
99990.1
99989.1
99988
99986.8
99985.5
99984.1
99982.6
99981.1
99979.5
99977.9
99976.1
99974.4
99972.5
99970.6
99968.6
99966.5
99964.3
99962.1
99959.8
99957.4
99954.9
99952.4
99949.7
99947
99944.2
99941.3
99938.2
99935.1
99931.9
99928.6
99925.2
99921.7
99918.1
99914.4
99910.5
99906.5
99902.4
99898.2
99893.8
99889.3
99884.7
99879.9
99874.9
99869.8
99864.5
99859
99853.4
99847.5
99841.5
99835.3
99828.8
99822.1
99815.3
99808.1
99800.8
99793.1
99785.2
99777.1
99768.6
99759.9
99750.8
99741.4
99731.7
99721.6
99711.2
99700.4
99689.1
99677.4
99665.3
99652.6
99639.5
99625.8
99611.5
99596.6
99581
99564.7
99547.6
99529.6
99510.8
99490.8
99469.7
99447.2
99423.5
99398.3
99372
99345.2
99319
99296
99278.9
99270.9
99279.4
99316.6
99403.1
99587.9
99922.5
100558
99987
99990.2
99991
99990.9
99990.3
99989.5
99988.4
99987.3
99986
99984.6
99983.2
99981.7
99980.1
99978.4
99976.7
99974.9
99973.1
99971.1
99969.1
99967
99964.9
99962.6
99960.3
99957.9
99955.5
99952.9
99950.2
99947.5
99944.7
99941.8
99938.7
99935.6
99932.4
99929.1
99925.7
99922.2
99918.5
99914.8
99910.9
99906.9
99902.8
99898.5
99894.2
99889.6
99885
99880.1
99875.1
99870
99864.7
99859.2
99853.5
99847.7
99841.6
99835.4
99828.9
99822.2
99815.3
99808.2
99800.8
99793.2
99785.3
99777.1
99768.6
99759.9
99750.8
99741.5
99731.7
99721.7
99711.2
99700.4
99689.1
99677.4
99665.2
99652.5
99639.3
99625.6
99611.2
99596.3
99580.6
99564.2
99546.9
99528.8
99509.7
99489.5
99468.1
99445.5
99421.7
99396.8
99371.1
99345.5
99321.4
99301.8
99290
99290.6
99314.2
99378.9
99515
99783.9
100216
100861
99985.4
99989.3
99990.6
99990.8
99990.4
99989.6
99988.7
99987.5
99986.3
99984.9
99983.5
99982
99980.4
99978.7
99977
99975.2
99973.3
99971.4
99969.4
99967.3
99965.1
99962.9
99960.6
99958.2
99955.7
99953.1
99950.4
99947.7
99944.8
99941.9
99938.8
99935.7
99932.5
99929.2
99925.7
99922.2
99918.5
99914.7
99910.9
99906.8
99902.7
99898.4
99894
99889.5
99884.8
99880
99875
99869.8
99864.5
99859
99853.3
99847.5
99841.4
99835.2
99828.7
99822
99815.2
99808
99800.7
99793
99785.2
99777
99768.6
99759.8
99750.8
99741.4
99731.7
99721.6
99711.2
99700.4
99689.1
99677.4
99665.2
99652.5
99639.3
99625.5
99611.1
99596
99580.2
99563.7
99546.3
99527.9
99508.6
99488.2
99466.6
99443.9
99420
99395.2
99370
99345.4
99323.1
99306.1
99298.8
99307
99344
99432.8
99611.6
99947.7
100442
101077
99984.4
99988.6
99990.2
99990.6
99990.3
99989.7
99988.7
99987.6
99986.4
99985
99983.6
99982
99980.4
99978.8
99977
99975.2
99973.3
99971.4
99969.3
99967.2
99965.1
99962.8
99960.5
99958.1
99955.6
99953
99950.3
99947.5
99944.6
99941.7
99938.6
99935.5
99932.3
99928.9
99925.5
99921.9
99918.2
99914.5
99910.6
99906.6
99902.4
99898.1
99893.7
99889.2
99884.5
99879.7
99874.7
99869.5
99864.2
99858.7
99853
99847.2
99841.2
99834.9
99828.5
99821.8
99815
99807.9
99800.5
99792.9
99785.1
99776.9
99768.5
99759.8
99750.8
99741.4
99731.7
99721.7
99711.3
99700.4
99689.2
99677.5
99665.3
99652.6
99639.3
99625.5
99611
99595.9
99580
99563.3
99545.7
99527.2
99507.7
99487.1
99465.3
99442.3
99418.2
99393.5
99368.7
99344.7
99323.7
99308.6
99304.3
99318.2
99364.8
99471.1
99680.6
100062
100593
101214
99983.9
99988.3
99990
99990.4
99990.2
99989.6
99988.7
99987.6
99986.3
99985
99983.5
99982
99980.4
99978.7
99976.9
99975.1
99973.2
99971.2
99969.2
99967.1
99964.9
99962.6
99960.3
99957.9
99955.3
99952.7
99950.1
99947.3
99944.4
99941.5
99938.4
99935.3
99932
99928.7
99925.2
99921.7
99918
99914.3
99910.4
99906.4
99902.2
99898
99893.6
99889
99884.4
99879.5
99874.5
99869.4
99864.1
99858.6
99852.9
99847.1
99841.1
99834.8
99828.4
99821.8
99815
99807.9
99800.5
99793
99785.1
99777
99768.6
99759.9
99750.9
99741.6
99731.9
99721.9
99711.5
99700.7
99689.4
99677.7
99665.5
99652.8
99639.5
99625.7
99611.1
99595.9
99579.9
99563.1
99545.4
99526.7
99507
99486.1
99464.1
99440.9
99416.6
99391.9
99367.1
99343.6
99323.1
99308.9
99306.1
99323
99374.9
99489.8
99714.7
100119
100666
101282
99983.8
99988.2
99990
99990.5
99990.3
99989.7
99988.8
99987.7
99986.4
99985.1
99983.6
99982.1
99980.5
99978.8
99977.1
99975.3
99973.4
99971.4
99969.4
99967.3
99965.1
99962.8
99960.5
99958.1
99955.6
99953
99950.3
99947.6
99944.7
99941.8
99938.7
99935.6
99932.3
99929
99925.5
99922
99918.3
99914.5
99910.6
99906.6
99902.4
99898.2
99893.8
99889.2
99884.5
99879.7
99874.7
99869.6
99864.3
99858.8
99853.2
99847.4
99841.3
99835.1
99828.7
99822
99815.2
99808.1
99800.7
99793.1
99785.3
99777.2
99768.8
99760.1
99751.2
99741.9
99732.2
99722.2
99711.8
99701
99689.8
99678.1
99665.9
99653.2
99639.9
99626
99611.4
99596.1
99580.1
99563.1
99545.3
99526.4
99506.5
99485.4
99463.2
99439.8
99415.5
99390.4
99365.5
99341.8
99321.4
99307.2
99304.2
99321.1
99373.2
99487.9
99712.1
100115
100662
101278
99984.2
99988.6
99990.2
99990.6
99990.4
99989.7
99988.8
99987.7
99986.5
99985.1
99983.7
99982.2
99980.6
99978.9
99977.2
99975.4
99973.5
99971.6
99969.6
99967.5
99965.3
99963
99960.7
99958.3
99955.8
99953.2
99950.6
99947.8
99945
99942
99939
99935.8
99932.6
99929.3
99925.8
99922.3
99918.6
99914.8
99910.9
99906.9
99902.7
99898.4
99894
99889.5
99884.8
99879.9
99875
99869.8
99864.5
99859.1
99853.4
99847.6
99841.6
99835.3
99828.9
99822.3
99815.4
99808.3
99801
99793.4
99785.6
99777.5
99769.1
99760.5
99751.5
99742.2
99732.6
99722.6
99712.2
99701.4
99690.2
99678.5
99666.3
99653.6
99640.3
99626.3
99611.7
99596.4
99580.2
99563.2
99545.2
99526.2
99506.1
99484.8
99462.3
99438.6
99413.9
99388.4
99363.1
99339
99317.9
99302.6
99297.9
99311.9
99358.7
99463.7
99670.7
100049
100578
101200
99985.2
99989.2
99990.5
99990.7
99990.4
99989.7
99988.7
99987.6
99986.3
99985
99983.6
99982.1
99980.5
99978.8
99977.1
99975.3
99973.5
99971.5
99969.5
99967.5
99965.3
99963.1
99960.8
99958.4
99955.9
99953.3
99950.7
99947.9
99945.1
99942.2
99939.2
99936
99932.8
99929.5
99926
99922.5
99918.8
99915
99911.1
99907.1
99903
99898.7
99894.3
99889.7
99885.1
99880.2
99875.2
99870.1
99864.8
99859.3
99853.7
99847.8
99841.8
99835.6
99829.2
99822.5
99815.7
99808.6
99801.3
99793.7
99785.9
99777.8
99769.5
99760.8
99751.8
99742.6
99732.9
99722.9
99712.6
99701.8
99690.6
99678.9
99666.7
99654
99640.7
99626.7
99612.1
99596.6
99580.4
99563.3
99545.2
99526
99505.7
99484.2
99461.5
99437.5
99412.3
99386.4
99360.4
99335.5
99313.3
99296.2
99288.1
99296.6
99333.5
99420.4
99595.3
99925.7
100417
101053
99986.7
99990
99990.9
99990.8
99990.3
99989.4
99988.4
99987.2
99986
99984.6
99983.2
99981.7
99980.1
99978.5
99976.8
99975
99973.2
99971.2
99969.2
99967.2
99965
99962.8
99960.5
99958.1
99955.7
99953.1
99950.5
99947.7
99944.9
99942
99939
99935.9
99932.7
99929.3
99925.9
99922.4
99918.7
99915
99911.1
99907.1
99902.9
99898.7
99894.3
99889.8
99885.1
99880.3
99875.3
99870.2
99864.9
99859.4
99853.8
99848
99842
99835.8
99829.4
99822.7
99815.9
99808.8
99801.5
99794
99786.2
99778.1
99769.7
99761.1
99752.2
99742.9
99733.3
99723.3
99713
99702.2
99691
99679.4
99667.2
99654.5
99641.1
99627.2
99612.5
99597
99580.8
99563.6
99545.4
99526.1
99505.6
99483.9
99460.9
99436.6
99411.1
99384.6
99357.8
99331.6
99307.9
99288.3
99276
99277.1
99300.5
99362.7
99494
99755.6
100182
100827
99988.7
99991
99991.3
99990.9
99990.1
99989.1
99988
99986.8
99985.5
99984.1
99982.6
99981.1
99979.5
99977.9
99976.2
99974.4
99972.5
99970.6
99968.6
99966.5
99964.4
99962.2
99959.9
99957.5
99955
99952.5
99949.8
99947.1
99944.3
99941.4
99938.4
99935.3
99932
99928.7
99925.3
99921.8
99918.2
99914.4
99910.5
99906.5
99902.4
99898.2
99893.8
99889.3
99884.7
99879.9
99874.9
99869.8
99864.6
99859.1
99853.5
99847.7
99841.8
99835.6
99829.2
99822.6
99815.8
99808.8
99801.5
99794
99786.2
99778.2
99769.9
99761.3
99752.4
99743.2
99733.6
99723.7
99713.3
99702.6
99691.5
99679.8
99667.7
99655
99641.6
99627.7
99613
99597.5
99581.2
99564
99545.7
99526.3
99505.7
99483.9
99460.7
99436.1
99410.1
99383
99355.2
99327.6
99301.8
99279.3
99262.6
99255.4
99263.7
99298.3
99379.5
99556
99882.7
100515
99990.8
99992
99991.7
99990.9
99989.9
99988.8
99987.6
99986.3
99984.9
99983.5
99982.1
99980.5
99978.9
99977.3
99975.5
99973.7
99971.9
99969.9
99967.9
99965.8
99963.7
99961.4
99959.1
99956.7
99954.2
99951.7
99949
99946.3
99943.5
99940.5
99937.5
99934.4
99931.2
99927.8
99924.4
99920.9
99917.2
99913.5
99909.6
99905.6
99901.5
99897.2
99892.9
99888.4
99883.7
99878.9
99874
99868.9
99863.6
99858.2
99852.6
99846.9
99840.9
99834.8
99828.4
99821.9
99815.1
99808.1
99800.9
99793.4
99785.7
99777.7
99769.5
99760.9
99752.1
99742.9
99733.4
99723.5
99713.2
99702.6
99691.5
99679.9
99667.8
99655.1
99641.8
99627.9
99613.2
99597.8
99581.4
99564.2
99545.9
99526.4
99505.8
99483.8
99460.4
99435.6
99409.2
99381.5
99352.7
99323.7
99295.6
99270.2
99249.1
99234.2
99228.1
99235.8
99267.5
99351
99538.9
100108
99992.9
99993
99992.2
99991
99989.8
99988.6
99987.3
99986
99984.6
99983.2
99981.7
99980.2
99978.6
99976.9
99975.1
99973.3
99971.4
99969.5
99967.5
99965.4
99963.2
99960.9
99958.6
99956.2
99953.7
99951.1
99948.4
99945.6
99942.8
99939.8
99936.8
99933.6
99930.4
99927
99923.6
99920
99916.3
99912.6
99908.7
99904.6
99900.5
99896.2
99891.8
99887.3
99882.6
99877.8
99872.8
99867.7
99862.5
99857
99851.4
99845.6
99839.7
99833.5
99827.2
99820.6
99813.8
99806.8
99799.6
99792.1
99784.4
99776.4
99768.2
99759.6
99750.8
99741.7
99732.2
99722.3
99712.1
99701.5
99690.4
99678.9
99666.9
99654.3
99641.1
99627.2
99612.6
99597.2
99580.9
99563.7
99545.4
99526
99505.3
99483.3
99459.8
99434.7
99408.1
99379.8
99350.2
99319.8
99289.6
99261.4
99236.6
99216.1
99198.5
99183.8
99173.4
99169.7
99184.4
99591.3
99994.9
99994
99992.6
99991.3
99989.9
99988.6
99987.3
99986
99984.6
99983.1
99981.6
99980.1
99978.5
99976.8
99975
99973.2
99971.3
99969.4
99967.3
99965.2
99963
99960.8
99958.4
99956
99953.5
99950.9
99948.2
99945.4
99942.5
99939.5
99936.4
99933.3
99930
99926.7
99923.2
99919.6
99915.9
99912.1
99908.2
99904.2
99900
99895.7
99891.3
99886.7
99882
99877.2
99872.2
99867
99861.7
99856.2
99850.6
99844.8
99838.7
99832.5
99826.1
99819.5
99812.7
99805.6
99798.4
99790.8
99783.1
99775.1
99766.8
99758.2
99749.3
99740.1
99730.6
99720.7
99710.4
99699.8
99688.7
99677.1
99665
99652.4
99639.2
99625.3
99610.7
99595.2
99579
99561.7
99543.4
99524
99503.3
99481.2
99457.7
99432.6
99405.8
99377.2
99347
99315.6
99284
99253.7
99226.2
99202.7
99178.1
99148.3
99108.2
99038.4
98869.6
98936.5
99996.4
99994.8
99993.1
99991.6
99990.2
99988.9
99987.6
99986.2
99984.8
99983.4
99981.9
99980.3
99978.7
99977
99975.2
99973.4
99971.5
99969.6
99967.5
99965.4
99963.2
99961
99958.6
99956.2
99953.7
99951.1
99948.4
99945.6
99942.7
99939.7
99936.6
99933.5
99930.2
99926.8
99923.4
99919.8
99916.1
99912.3
99908.4
99904.3
99900.1
99895.8
99891.4
99886.8
99882.1
99877.3
99872.3
99867.1
99861.8
99856.3
99850.6
99844.7
99838.7
99832.5
99826
99819.3
99812.5
99805.4
99798.1
99790.5
99782.7
99774.7
99766.3
99757.7
99748.8
99739.5
99729.9
99720
99709.7
99698.9
99687.8
99676.1
99664
99651.3
99637.9
99623.9
99609.2
99593.6
99577.2
99559.8
99541.3
99521.6
99500.7
99478.4
99454.6
99429.2
99402
99372.9
99342.1
99309.7
99276.7
99244.6
99214.9
99188.4
99163.8
99130.3
99074.4
98965.9
98652.7
98060.1
99998.1
99995.5
99993.6
99992
99990.6
99989.3
99987.9
99986.6
99985.2
99983.8
99982.3
99980.7
99979.1
99977.4
99975.7
99973.8
99972
99970
99968
99965.9
99963.7
99961.4
99959.1
99956.7
99954.1
99951.5
99948.9
99946.1
99943.2
99940.2
99937.2
99934
99930.7
99927.4
99923.9
99920.3
99916.6
99912.8
99908.9
99904.9
99900.7
99896.4
99892
99887.4
99882.7
99877.9
99872.9
99867.7
99862.4
99856.9
99851.2
99845.4
99839.4
99833.1
99826.7
99820
99813.1
99806.1
99798.8
99791.2
99783.4
99775.3
99766.9
99758.3
99749.3
99740.1
99730.5
99720.5
99710.2
99699.5
99688.3
99676.7
99664.5
99651.8
99638.4
99624.4
99609.6
99594
99577.5
99560.1
99541.6
99521.9
99501
99478.7
99454.8
99429.3
99402
99372.8
99341.7
99309.1
99276.1
99244.1
99214.2
99187
99152.4
99114.2
99054
98933.8
98552.1
96886.3
100564
101840
102382
102692
102903
103062
103187
103287
103369
103436
103492
103537
103573
103602
103625
103641
103652
103658
103660
103656
100518
101544
102178
102577
102845
103036
103181
103294
103384
103456
103514
103561
103597
103626
103647
103662
103671
103675
103674
103667
100806
101576
102120
102518
102804
103014
103173
103296
103393
103469
103529
103577
103614
103642
103662
103676
103683
103686
103684
103673
101082
101709
102170
102531
102808
103020
103183
103311
103410
103489
103550
103597
103633
103660
103678
103690
103695
103696
103693
103677
101318
101850
102254
102580
102839
103045
103206
103334
103434
103512
103573
103619
103653
103678
103694
103703
103707
103706
103701
103680
101517
101981
102344
102642
102885
103081
103238
103363
103461
103538
103597
103642
103674
103696
103709
103716
103717
103714
103707
103682
101679
102094
102427
102705
102934
103121
103272
103393
103489
103564
103622
103664
103694
103713
103724
103728
103727
103722
103711
103684
101800
102182
102495
102758
102977
103157
103303
103422
103516
103589
103645
103685
103713
103729
103737
103738
103735
103728
103714
103685
101881
102243
102543
102797
103010
103186
103330
103447
103540
103612
103666
103704
103730
103743
103748
103747
103742
103733
103717
103688
101925
102277
102572
102822
103032
103206
103349
103465
103557
103628
103681
103718
103742
103754
103757
103754
103748
103738
103717
103693
101923
102275
102570
102819
103029
103203
103347
103462
103554
103626
103679
103716
103740
103753
103756
103753
103747
103736
103718
103692
101870
102233
102533
102788
103001
103178
103323
103440
103533
103606
103661
103700
103726
103740
103746
103745
103740
103732
103716
103691
101782
102165
102479
102743
102963
103145
103292
103412
103507
103582
103638
103680
103708
103725
103734
103736
103733
103726
103713
103690
101652
102070
102405
102684
102915
103104
103258
103380
103478
103555
103613
103657
103688
103708
103720
103725
103724
103720
103709
103687
101484
101951
102316
102617
102863
103061
103221
103348
103448
103527
103588
103634
103667
103690
103705
103712
103714
103712
103705
103683
101279
101814
102221
102551
102814
103022
103187
103317
103419
103500
103562
103610
103646
103672
103689
103699
103704
103703
103699
103680
101037
101668
102134
102499
102780
102996
103163
103293
103395
103475
103538
103588
103625
103653
103673
103685
103692
103693
103691
103677
100756
101530
102081
102484
102775
102989
103152
103277
103376
103455
103517
103567
103605
103635
103656
103671
103680
103683
103681
103672
100462
101496
102138
102544
102816
103011
103159
103275
103367
103442
103502
103550
103589
103619
103641
103658
103668
103672
103671
103665
100506
101794
102344
102659
102875
103037
103165
103268
103352
103422
103479
103526
103564
103595
103618
103636
103648
103655
103656
103653
103499
103496
103496
103495
103494
103494
103493
103493
103493
103492
103492
103493
103493
103493
103494
103494
103495
103496
103496
103499
103496
103493
103493
103493
103492
103492
103492
103492
103492
103491
103491
103492
103492
103492
103492
103492
103493
103493
103493
103496
103495
103492
103492
103492
103492
103492
103492
103492
103492
103492
103492
103492
103492
103492
103492
103492
103492
103492
103492
103495
103495
103493
103493
103493
103493
103493
103493
103493
103493
103493
103493
103493
103493
103493
103493
103493
103493
103493
103493
103495
103494
103493
103492
103492
103492
103492
103492
103492
103492
103492
103492
103492
103492
103492
103492
103492
103492
103492
103493
103494
103494
103492
103492
103492
103492
103492
103492
103492
103492
103492
103492
103492
103492
103492
103492
103492
103492
103492
103492
103494
103493
103491
103491
103491
103491
103491
103491
103491
103491
103491
103491
103491
103491
103491
103491
103491
103491
103491
103491
103493
103492
103491
103491
103491
103490
103490
103490
103490
103490
103490
103490
103490
103490
103490
103490
103490
103491
103491
103491
103492
103492
103490
103490
103490
103490
103490
103490
103490
103490
103490
103490
103490
103490
103490
103490
103490
103490
103490
103490
103492
103491
103489
103489
103489
103489
103489
103489
103489
103489
103489
103489
103489
103489
103489
103489
103489
103489
103489
103489
103491
103490
103489
103489
103489
103488
103488
103488
103488
103488
103488
103488
103488
103488
103488
103488
103488
103489
103489
103489
103490
103490
103488
103488
103488
103488
103488
103488
103488
103488
103488
103488
103488
103488
103488
103488
103488
103488
103488
103488
103490
103489
103487
103487
103487
103487
103487
103487
103487
103487
103487
103487
103487
103487
103487
103487
103487
103487
103487
103487
103489
103488
103487
103486
103486
103486
103486
103486
103486
103486
103486
103486
103486
103486
103486
103486
103486
103486
103486
103487
103488
103487
103486
103486
103486
103486
103485
103485
103485
103485
103485
103485
103485
103485
103485
103485
103486
103486
103486
103486
103487
103487
103485
103485
103485
103485
103485
103485
103485
103485
103485
103485
103485
103485
103485
103485
103485
103485
103485
103485
103487
103486
103484
103484
103484
103484
103484
103484
103484
103484
103484
103484
103484
103484
103484
103484
103484
103484
103484
103484
103486
103485
103484
103483
103483
103483
103483
103483
103483
103483
103483
103483
103483
103483
103483
103483
103483
103483
103483
103484
103485
103484
103483
103483
103483
103482
103482
103482
103482
103482
103482
103482
103482
103482
103482
103482
103482
103483
103483
103483
103484
103483
103482
103482
103482
103482
103482
103482
103482
103482
103482
103482
103482
103482
103482
103482
103482
103482
103482
103482
103483
103483
103481
103481
103481
103481
103481
103481
103481
103481
103481
103481
103481
103481
103481
103481
103481
103481
103481
103481
103483
103482
103480
103480
103480
103480
103480
103480
103480
103480
103480
103480
103480
103480
103480
103480
103480
103480
103480
103480
103482
103481
103480
103479
103479
103479
103479
103479
103479
103479
103479
103479
103479
103479
103479
103479
103479
103479
103479
103480
103481
103480
103479
103479
103479
103479
103478
103478
103478
103478
103478
103478
103478
103478
103478
103478
103479
103479
103479
103479
103480
103479
103478
103478
103478
103478
103478
103478
103478
103478
103478
103478
103478
103478
103478
103478
103478
103478
103478
103478
103479
103478
103477
103477
103477
103477
103477
103477
103477
103477
103477
103477
103477
103477
103477
103477
103477
103477
103477
103477
103478
103477
103476
103476
103476
103476
103476
103476
103476
103476
103476
103476
103476
103476
103476
103476
103476
103476
103476
103476
103477
103477
103476
103475
103475
103475
103475
103475
103475
103475
103475
103475
103475
103475
103475
103475
103475
103475
103475
103476
103477
103476
103475
103475
103475
103475
103474
103474
103474
103474
103474
103474
103474
103474
103474
103474
103475
103475
103475
103475
103476
103475
103474
103474
103474
103474
103474
103474
103474
103474
103474
103474
103474
103474
103474
103474
103474
103474
103474
103474
103475
103474
103473
103473
103473
103473
103473
103473
103473
103473
103473
103473
103473
103473
103473
103473
103473
103473
103473
103473
103474
103473
103472
103472
103472
103472
103472
103472
103472
103472
103472
103472
103472
103472
103472
103472
103472
103472
103472
103472
103473
103472
103472
103471
103471
103471
103471
103471
103471
103471
103471
103471
103471
103471
103471
103471
103471
103471
103471
103472
103472
103472
103471
103471
103471
103471
103470
103470
103470
103470
103470
103470
103470
103470
103470
103470
103471
103471
103471
103471
103472
103471
103470
103470
103470
103470
103470
103470
103470
103470
103470
103470
103470
103470
103470
103470
103470
103470
103470
103470
103471
103470
103469
103469
103469
103469
103469
103469
103469
103469
103469
103469
103469
103469
103469
103469
103469
103469
103469
103469
103470
103469
103468
103468
103468
103468
103468
103468
103468
103468
103468
103468
103468
103468
103468
103468
103468
103468
103468
103468
103469
103468
103468
103467
103467
103467
103467
103467
103467
103467
103467
103467
103467
103467
103467
103467
103467
103467
103467
103468
103468
103467
103467
103467
103467
103467
103467
103467
103467
103466
103466
103466
103466
103467
103467
103467
103467
103467
103467
103467
103467
103467
103466
103466
103466
103466
103466
103466
103466
103466
103466
103466
103466
103466
103466
103466
103466
103466
103466
103466
103467
103466
103465
103465
103465
103465
103465
103465
103465
103465
103465
103465
103465
103465
103465
103465
103465
103465
103465
103465
103466
103465
103465
103464
103464
103464
103464
103464
103464
103464
103464
103464
103464
103464
103464
103464
103464
103464
103464
103465
103465
103464
103464
103464
103464
103464
103464
103464
103463
103463
103463
103463
103463
103463
103464
103464
103464
103464
103464
103464
103464
103463
103463
103463
103463
103463
103463
103463
103463
103463
103463
103463
103463
103463
103463
103463
103463
103463
103463
103463
103463
103463
103462
103462
103462
103462
103462
103462
103462
103462
103462
103462
103462
103462
103462
103462
103462
103462
103462
103462
103463
103462
103462
103461
103461
103461
103461
103461
103461
103461
103461
103461
103461
103461
103461
103461
103461
103461
103461
103462
103462
103461
103461
103461
103461
103461
103461
103461
103461
103461
103460
103460
103461
103461
103461
103461
103461
103461
103461
103461
103461
103460
103460
103460
103460
103460
103460
103460
103460
103460
103460
103460
103460
103460
103460
103460
103460
103460
103460
103460
103460
103460
103459
103459
103459
103459
103459
103459
103459
103459
103459
103459
103459
103459
103459
103459
103459
103459
103459
103459
103460
103459
103459
103459
103458
103458
103458
103458
103458
103458
103458
103458
103458
103458
103458
103458
103458
103458
103459
103459
103459
103458
103458
103458
103458
103458
103458
103458
103458
103458
103458
103458
103458
103458
103458
103458
103458
103458
103458
103458
103458
103457
103457
103457
103457
103457
103457
103457
103457
103457
103457
103457
103457
103457
103457
103457
103457
103457
103457
103457
103457
103457
103457
103456
103456
103456
103456
103456
103456
103456
103456
103456
103456
103456
103456
103456
103456
103456
103456
103457
103457
103456
103456
103456
103456
103456
103456
103456
103456
103456
103456
103456
103456
103456
103456
103456
103456
103456
103456
103456
103456
103455
103455
103455
103455
103455
103455
103455
103455
103455
103455
103455
103455
103455
103455
103455
103455
103455
103455
103455
103455
103455
103454
103454
103454
103454
103454
103454
103454
103454
103454
103454
103454
103454
103454
103454
103454
103454
103454
103454
103455
103454
103454
103454
103454
103454
103454
103453
103453
103453
103453
103453
103453
103453
103453
103454
103454
103454
103454
103454
103454
103453
103453
103453
103453
103453
103453
103453
103453
103453
103453
103453
103453
103453
103453
103453
103453
103453
103453
103453
103453
103452
103452
103452
103452
103452
103452
103452
103452
103452
103452
103452
103452
103452
103452
103452
103452
103452
103452
103452
103452
103452
103452
103452
103452
103451
103451
103451
103451
103451
103451
103451
103451
103451
103451
103451
103452
103452
103452
103452
103452
103451
103451
103451
103451
103451
103451
103451
103451
103451
103451
103451
103451
103451
103451
103451
103451
103451
103451
103451
103451
103450
103450
103450
103450
103450
103450
103450
103450
103450
103450
103450
103450
103450
103450
103450
103450
103450
103450
103450
103450
103450
103450
103450
103450
103449
103449
103449
103449
103449
103449
103449
103449
103449
103449
103449
103450
103450
103450
103450
103450
103449
103449
103449
103449
103449
103449
103449
103449
103449
103449
103449
103449
103449
103449
103449
103449
103449
103449
103449
103449
103448
103448
103448
103448
103448
103448
103448
103448
103448
103448
103448
103448
103448
103448
103448
103448
103448
103448
103448
103448
103448
103448
103448
103448
103447
103447
103447
103447
103447
103447
103447
103447
103447
103448
103448
103448
103448
103448
103448
103448
103447
103447
103447
103447
103447
103447
103447
103447
103447
103447
103447
103447
103447
103447
103447
103447
103447
103447
103447
103447
103446
103446
103446
103446
103446
103446
103446
103446
103446
103446
103446
103446
103446
103446
103446
103446
103446
103446
103446
103446
103446
103446
103446
103446
103446
103446
103446
103445
103446
103446
103446
103446
103446
103446
103446
103446
103446
103446
103446
103446
103445
103445
103445
103445
103445
103445
103445
103445
103445
103445
103445
103445
103445
103445
103445
103445
103445
103445
103445
103445
103444
103444
103444
103444
103444
103444
103444
103444
103444
103444
103444
103444
103444
103444
103444
103444
103445
103445
103445
103445
103444
103444
103444
103444
103444
103444
103444
103444
103444
103444
103444
103444
103444
103444
103444
103444
103444
103444
103444
103444
103443
103443
103443
103443
103443
103443
103443
103443
103443
103443
103443
103443
103443
103443
103443
103443
103443
103443
103444
103443
103442
103442
103442
103442
103442
103442
103442
103442
103442
103442
103442
103442
103443
103443
103443
103443
103443
103443
103443
103443
103441
103441
103441
103441
103441
103441
103442
103442
103442
103442
103442
103442
103442
103442
103442
103442
103442
103442
103442
103442
103441
103441
103441
103441
103441
103441
103441
103441
103441
103441
103441
103441
103441
103442
103442
103442
103442
103442
103442
103442
103440
103440
103440
103440
103440
103440
103440
103440
103440
103440
103441
103441
103441
103441
103441
103441