/*--------------------------------*- C++ -*----------------------------------*\
| =========                 |                                                 |
| \\      /  F ield         | OpenFOAM: The Open Source CFD Toolbox           |
|  \\    /   O peration     | Version:  2.1.0                                 |
|   \\  /    A nd           | Web:      www.OpenFOAM.org                      |
|    \\/     M anipulation  |                                                 |
\*---------------------------------------------------------------------------*/
FoamFile
{
    version     2.0;
    format      ascii;
    class       surfaceScalarField;
    location    "0.51";
    object      phi;
}
// * * * * * * * * * * * * * * * * * * * * * * * * * * * * * * * * * * * * * //

dimensions      [0 3 -1 0 0 0 0];

internalField   nonuniform List<scalar> 
12460
(
-2.5994e-05
-3.22738e-09
-2.59559e-05
-3.91364e-08
-2.58949e-05
-6.20543e-08
-2.58222e-05
-7.36899e-08
-2.57427e-05
-8.0549e-08
-2.56585e-05
-8.5146e-08
-2.55709e-05
-8.84583e-08
-2.54808e-05
-9.10639e-08
-2.53884e-05
-9.32671e-08
-2.5294e-05
-9.52582e-08
-2.51977e-05
-9.71393e-08
-2.50995e-05
-9.89739e-08
-2.49995e-05
-1.00799e-07
-2.48977e-05
-1.0263e-07
-2.47939e-05
-1.04487e-07
-2.46883e-05
-1.06368e-07
-2.45807e-05
-1.08287e-07
-2.44711e-05
-1.10237e-07
-2.43595e-05
-1.12225e-07
-2.42459e-05
-1.14243e-07
-2.41302e-05
-1.16298e-07
-2.40124e-05
-1.18375e-07
-2.38924e-05
-1.20485e-07
-2.37703e-05
-1.22635e-07
-2.3646e-05
-1.24802e-07
-2.35195e-05
-1.27004e-07
-2.33906e-05
-1.2933e-07
-2.32593e-05
-1.31761e-07
-2.31254e-05
-1.34274e-07
-2.2989e-05
-1.36859e-07
-2.28498e-05
-1.39528e-07
-2.27079e-05
-1.4228e-07
-2.25631e-05
-1.45128e-07
-2.24153e-05
-1.48077e-07
-2.22645e-05
-1.51135e-07
-2.21105e-05
-1.543e-07
-2.19531e-05
-1.57581e-07
-2.17924e-05
-1.60981e-07
-2.16281e-05
-1.6451e-07
-2.14602e-05
-1.68178e-07
-2.12884e-05
-1.72013e-07
-2.11125e-05
-1.76014e-07
-2.09325e-05
-1.80187e-07
-2.07481e-05
-1.84543e-07
-2.05592e-05
-1.89088e-07
-2.03655e-05
-1.93824e-07
-2.01669e-05
-1.98757e-07
-1.99631e-05
-2.03883e-07
-1.9754e-05
-2.09196e-07
-1.95394e-05
-2.14703e-07
-1.93191e-05
-2.20385e-07
-1.90931e-05
-2.26061e-07
-1.88612e-05
-2.32023e-07
-1.86227e-05
-2.38506e-07
-1.83774e-05
-2.45319e-07
-1.81251e-05
-2.52368e-07
-1.78659e-05
-2.59294e-07
-1.76e-05
-2.65926e-07
-1.73276e-05
-2.72402e-07
-1.70487e-05
-2.78932e-07
-1.67631e-05
-2.85605e-07
-1.64707e-05
-2.92431e-07
-1.61712e-05
-2.99461e-07
-1.58645e-05
-3.0676e-07
-1.55501e-05
-3.14337e-07
-1.52279e-05
-3.22239e-07
-1.48974e-05
-3.30489e-07
-1.45583e-05
-3.3915e-07
-1.421e-05
-3.48258e-07
-1.38521e-05
-3.57847e-07
-1.34842e-05
-3.67941e-07
-1.31056e-05
-3.78592e-07
-1.27157e-05
-3.89838e-07
-1.2314e-05
-4.01744e-07
-1.18996e-05
-4.14383e-07
-1.14717e-05
-4.27847e-07
-1.10294e-05
-4.42261e-07
-1.05716e-05
-4.57778e-07
-1.0097e-05
-4.74621e-07
-9.60386e-06
-4.93121e-07
-9.09014e-06
-5.1369e-07
-8.55328e-06
-5.36833e-07
-7.99005e-06
-5.63204e-07
-7.39649e-06
-5.93535e-07
-6.76806e-06
-6.28398e-07
-6.10004e-06
-6.6799e-07
-5.38806e-06
-7.11941e-07
-4.6294e-06
-7.58625e-07
-3.82536e-06
-8.03987e-07
-2.98606e-06
-8.39248e-07
-2.13944e-06
-8.46554e-07
-1.34851e-06
-7.90853e-07
-7.16261e-07
-6.32173e-07
-3.44076e-07
-3.72152e-07
-2.73866e-07
-7.03278e-08
-5.29027e-07
2.54945e-07
-1.42245e-06
8.93291e-07
-3.71626e-06
2.29379e-06
-9.28739e-06
5.57113e-06
1.54963e-05
-2.47837e-05
-3.13052e-05
-2.16922e-08
-3.12546e-05
-9.12672e-08
-3.11894e-05
-1.28847e-07
-3.11153e-05
-1.49325e-07
-3.10356e-05
-1.61851e-07
-3.0952e-05
-1.70299e-07
-3.08655e-05
-1.76398e-07
-3.07768e-05
-1.81186e-07
-3.06863e-05
-1.85234e-07
-3.05941e-05
-1.88884e-07
-3.05002e-05
-1.92337e-07
-3.04048e-05
-1.957e-07
-3.03079e-05
-1.99052e-07
-3.02094e-05
-2.02419e-07
-3.01092e-05
-2.05841e-07
-3.00075e-05
-2.09315e-07
-2.99041e-05
-2.12867e-07
-2.9799e-05
-2.16483e-07
-2.96921e-05
-2.20184e-07
-2.95835e-05
-2.23949e-07
-2.9473e-05
-2.27794e-07
-2.93607e-05
-2.31688e-07
-2.92466e-05
-2.35635e-07
-2.91305e-05
-2.39655e-07
-2.90125e-05
-2.43677e-07
-2.88927e-05
-2.47687e-07
-2.8771e-05
-2.51888e-07
-2.86473e-05
-2.56241e-07
-2.85217e-05
-2.60698e-07
-2.83941e-05
-2.6526e-07
-2.82643e-05
-2.69945e-07
-2.81326e-05
-2.74759e-07
-2.79986e-05
-2.7972e-07
-2.78625e-05
-2.84836e-07
-2.77241e-05
-2.90121e-07
-2.75834e-05
-2.95576e-07
-2.74403e-05
-3.01214e-07
-2.72947e-05
-3.07046e-07
-2.71466e-05
-3.13082e-07
-2.69959e-05
-3.19314e-07
-2.68426e-05
-3.25791e-07
-2.66865e-05
-3.32523e-07
-2.65275e-05
-3.39523e-07
-2.63656e-05
-3.46815e-07
-2.62006e-05
-3.54412e-07
-2.60324e-05
-3.62331e-07
-2.58609e-05
-3.7059e-07
-2.56858e-05
-3.79206e-07
-2.55071e-05
-3.88183e-07
-2.53245e-05
-3.9755e-07
-2.51377e-05
-4.07304e-07
-2.49468e-05
-4.17173e-07
-2.4752e-05
-4.2707e-07
-2.45536e-05
-4.37067e-07
-2.43519e-05
-4.4715e-07
-2.4147e-05
-4.57361e-07
-2.39388e-05
-4.67636e-07
-2.3727e-05
-4.77818e-07
-2.35117e-05
-4.87901e-07
-2.32926e-05
-4.98059e-07
-2.30699e-05
-5.08401e-07
-2.28435e-05
-5.18975e-07
-2.26132e-05
-5.29817e-07
-2.2379e-05
-5.40966e-07
-2.2141e-05
-5.52456e-07
-2.18989e-05
-5.64336e-07
-2.16528e-05
-5.76653e-07
-2.14026e-05
-5.89476e-07
-2.1148e-05
-6.02875e-07
-2.0889e-05
-6.16929e-07
-2.06253e-05
-6.31711e-07
-2.03566e-05
-6.47327e-07
-2.00826e-05
-6.63874e-07
-1.98029e-05
-6.81498e-07
-1.95169e-05
-7.00365e-07
-1.92242e-05
-7.2067e-07
-1.89238e-05
-7.42664e-07
-1.8615e-05
-7.66635e-07
-1.82967e-05
-7.92957e-07
-1.79677e-05
-8.22163e-07
-1.76266e-05
-8.54876e-07
-1.72717e-05
-8.91785e-07
-1.69013e-05
-9.33722e-07
-1.65133e-05
-9.8159e-07
-1.61057e-05
-1.0361e-06
-1.56763e-05
-1.09745e-06
-1.52236e-05
-1.16478e-06
-1.47471e-05
-1.23525e-06
-1.42488e-05
-1.30239e-06
-1.37348e-05
-1.35337e-06
-1.32174e-05
-1.36416e-06
-1.27149e-05
-1.29371e-06
-1.22629e-05
-1.08458e-06
-1.19418e-05
-6.93658e-07
-1.20132e-05
5.25603e-10
-1.2559e-05
8.00519e-07
-1.39369e-05
2.27104e-06
-1.66696e-05
5.02644e-06
-2.17967e-05
1.06983e-05
2.65673e-05
-3.28677e-05
-3.42781e-05
-4.79494e-08
-3.42346e-05
-1.36868e-07
-3.41793e-05
-1.86199e-07
-3.41167e-05
-2.14039e-07
-3.40494e-05
-2.31236e-07
-3.39789e-05
-2.42808e-07
-3.39062e-05
-2.51069e-07
-3.38319e-05
-2.57521e-07
-3.37561e-05
-2.62897e-07
-3.36792e-05
-2.67728e-07
-3.36012e-05
-2.72248e-07
-3.35221e-05
-2.7665e-07
-3.34419e-05
-2.8101e-07
-3.33607e-05
-2.85399e-07
-3.32784e-05
-2.89845e-07
-3.3195e-05
-2.94376e-07
-3.31106e-05
-2.99007e-07
-3.30249e-05
-3.03745e-07
-3.29381e-05
-3.08601e-07
-3.285e-05
-3.13577e-07
-3.27606e-05
-3.18686e-07
-3.26699e-05
-3.23915e-07
-3.25777e-05
-3.29262e-07
-3.2484e-05
-3.34766e-07
-3.23886e-05
-3.40384e-07
-3.22917e-05
-3.45986e-07
-3.21932e-05
-3.51591e-07
-3.20935e-05
-3.57209e-07
-3.19925e-05
-3.62876e-07
-3.18903e-05
-3.68634e-07
-3.17869e-05
-3.74511e-07
-3.16822e-05
-3.80519e-07
-3.15763e-05
-3.86675e-07
-3.14691e-05
-3.92988e-07
-3.13607e-05
-3.99469e-07
-3.12511e-05
-4.0612e-07
-3.11403e-05
-4.12942e-07
-3.10282e-05
-4.19948e-07
-3.09149e-05
-4.27159e-07
-3.08005e-05
-4.34537e-07
-3.06849e-05
-4.42128e-07
-3.05681e-05
-4.49946e-07
-3.04503e-05
-4.57994e-07
-3.03314e-05
-4.66299e-07
-3.02116e-05
-4.74864e-07
-3.00907e-05
-4.83704e-07
-2.9969e-05
-4.92831e-07
-2.98464e-05
-5.02261e-07
-2.97231e-05
-5.11995e-07
-2.9599e-05
-5.22027e-07
-2.94744e-05
-5.32298e-07
-2.93493e-05
-5.42731e-07
-2.92235e-05
-5.53184e-07
-2.90974e-05
-5.63454e-07
-2.89713e-05
-5.73535e-07
-2.88455e-05
-5.83501e-07
-2.87198e-05
-5.93527e-07
-2.85943e-05
-6.03601e-07
-2.84688e-05
-6.13592e-07
-2.83435e-05
-6.23542e-07
-2.82186e-05
-6.33495e-07
-2.80943e-05
-6.43495e-07
-2.79707e-05
-6.53554e-07
-2.78482e-05
-6.63666e-07
-2.77269e-05
-6.73846e-07
-2.76073e-05
-6.84111e-07
-2.74896e-05
-6.94483e-07
-2.73742e-05
-7.04985e-07
-2.72615e-05
-7.15661e-07
-2.7152e-05
-7.26577e-07
-2.7046e-05
-7.37802e-07
-2.6944e-05
-7.49442e-07
-2.68464e-05
-7.61593e-07
-2.67535e-05
-7.74427e-07
-2.66659e-05
-7.88157e-07
-2.65836e-05
-8.03034e-07
-2.6507e-05
-8.19404e-07
-2.6436e-05
-8.37662e-07
-2.63708e-05
-8.58291e-07
-2.63111e-05
-8.81999e-07
-2.62565e-05
-9.0961e-07
-2.62064e-05
-9.41962e-07
-2.61603e-05
-9.79989e-07
-2.61174e-05
-1.02464e-06
-2.6077e-05
-1.07665e-06
-2.60384e-05
-1.13619e-06
-2.60012e-05
-1.20206e-06
-2.5966e-05
-1.27059e-06
-2.59346e-05
-1.33393e-06
-2.5911e-05
-1.37714e-06
-2.59013e-05
-1.37409e-06
-2.59129e-05
-1.2822e-06
-2.59578e-05
-1.0398e-06
-2.60801e-05
-5.71467e-07
-2.62679e-05
1.88271e-07
-2.67828e-05
1.31545e-06
-2.78149e-05
3.30309e-06
-2.97459e-05
6.95748e-06
-3.32985e-05
1.42509e-05
3.11966e-05
-3.79279e-05
-3.69607e-05
-7.40655e-08
-3.69295e-05
-1.70635e-07
-3.68912e-05
-2.27102e-07
-3.68476e-05
-2.60353e-07
-3.68003e-05
-2.811e-07
-3.67508e-05
-2.94912e-07
-3.66999e-05
-3.04608e-07
-3.6648e-05
-3.12032e-07
-3.65953e-05
-3.18078e-07
-3.65421e-05
-3.2342e-07
-3.64885e-05
-3.28329e-07
-3.64345e-05
-3.33065e-07
-3.63802e-05
-3.377e-07
-3.63257e-05
-3.42345e-07
-3.62708e-05
-3.47014e-07
-3.62157e-05
-3.51758e-07
-3.61604e-05
-3.56577e-07
-3.61049e-05
-3.61496e-07
-3.60492e-05
-3.66514e-07
-3.59933e-05
-3.7164e-07
-3.59372e-05
-3.76889e-07
-3.58809e-05
-3.82252e-07
-3.58245e-05
-3.8771e-07
-3.5768e-05
-3.93229e-07
-3.57114e-05
-3.98872e-07
-3.56547e-05
-4.04621e-07
-3.55978e-05
-4.10347e-07
-3.55408e-05
-4.16011e-07
-3.54838e-05
-4.21662e-07
-3.54268e-05
-4.27354e-07
-3.53699e-05
-4.33111e-07
-3.53131e-05
-4.38949e-07
-3.52565e-05
-4.44878e-07
-3.52001e-05
-4.50903e-07
-3.51441e-05
-4.57026e-07
-3.50884e-05
-4.63244e-07
-3.50332e-05
-4.69546e-07
-3.49786e-05
-4.75924e-07
-3.49246e-05
-4.82392e-07
-3.48715e-05
-4.88931e-07
-3.48193e-05
-4.95558e-07
-3.47681e-05
-5.02262e-07
-3.47182e-05
-5.09037e-07
-3.46697e-05
-5.1589e-07
-3.46228e-05
-5.22814e-07
-3.45776e-05
-5.29797e-07
-3.45346e-05
-5.36835e-07
-3.44938e-05
-5.43915e-07
-3.44556e-05
-5.51023e-07
-3.44203e-05
-5.58128e-07
-3.43882e-05
-5.6513e-07
-3.43596e-05
-5.72068e-07
-3.43343e-05
-5.79162e-07
-3.43121e-05
-5.86267e-07
-3.42931e-05
-5.93139e-07
-3.42774e-05
-5.9975e-07
-3.42653e-05
-6.06155e-07
-3.4257e-05
-6.12331e-07
-3.42529e-05
-6.18191e-07
-3.42531e-05
-6.23749e-07
-3.4258e-05
-6.28998e-07
-3.42679e-05
-6.33936e-07
-3.42832e-05
-6.38591e-07
-3.43042e-05
-6.42967e-07
-3.43313e-05
-6.47071e-07
-3.43648e-05
-6.50921e-07
-3.44049e-05
-6.54543e-07
-3.44522e-05
-6.57978e-07
-3.45068e-05
-6.61293e-07
-3.4569e-05
-6.64581e-07
-3.4639e-05
-6.67955e-07
-3.4717e-05
-6.71586e-07
-3.48031e-05
-6.75665e-07
-3.48972e-05
-6.80457e-07
-3.49992e-05
-6.86285e-07
-3.51088e-05
-6.9354e-07
-3.52256e-05
-7.02721e-07
-3.5349e-05
-7.14405e-07
-3.54782e-05
-7.29175e-07
-3.56124e-05
-7.4791e-07
-3.57504e-05
-7.7163e-07
-3.58912e-05
-8.01237e-07
-3.60336e-05
-8.37688e-07
-3.61764e-05
-8.81877e-07
-3.63188e-05
-9.34379e-07
-3.646e-05
-9.95028e-07
-3.65999e-05
-1.06216e-06
-3.67391e-05
-1.13142e-06
-3.6879e-05
-1.19406e-06
-3.70217e-05
-1.2345e-06
-3.7169e-05
-1.22681e-06
-3.73201e-05
-1.13106e-06
-3.74747e-05
-8.85232e-07
-3.76304e-05
-4.15779e-07
-3.77947e-05
3.52633e-07
-3.80989e-05
1.6196e-06
-3.86627e-05
3.86687e-06
-3.96584e-05
7.95317e-06
-4.12697e-05
1.58623e-05
3.12619e-05
-4.1335e-05
-3.96602e-05
-9.3391e-08
-3.96465e-05
-1.87332e-07
-3.96318e-05
-2.44998e-07
-3.96152e-05
-2.80207e-07
-3.95971e-05
-3.02421e-07
-3.95783e-05
-3.16928e-07
-3.95592e-05
-3.2691e-07
-3.95401e-05
-3.34248e-07
-3.95213e-05
-3.40038e-07
-3.9503e-05
-3.44946e-07
-3.94851e-05
-3.49338e-07
-3.94678e-05
-3.5345e-07
-3.94511e-05
-3.57406e-07
-3.94352e-05
-3.61289e-07
-3.94201e-05
-3.65142e-07
-3.94059e-05
-3.68992e-07
-3.93925e-05
-3.72853e-07
-3.93802e-05
-3.76729e-07
-3.9369e-05
-3.80626e-07
-3.9359e-05
-3.84535e-07
-3.93502e-05
-3.88469e-07
-3.93428e-05
-3.92423e-07
-3.9337e-05
-3.96314e-07
-3.93328e-05
-4.00111e-07
-3.93304e-05
-4.03923e-07
-3.93298e-05
-4.07852e-07
-3.93309e-05
-4.11904e-07
-3.93335e-05
-4.15955e-07
-3.93377e-05
-4.19958e-07
-3.93436e-05
-4.23926e-07
-3.93513e-05
-4.27876e-07
-3.93609e-05
-4.31813e-07
-3.93724e-05
-4.35745e-07
-3.93859e-05
-4.39671e-07
-3.94017e-05
-4.43587e-07
-3.94197e-05
-4.47481e-07
-3.94401e-05
-4.51347e-07
-3.9463e-05
-4.5517e-07
-3.94885e-05
-4.58925e-07
-3.95169e-05
-4.62615e-07
-3.95482e-05
-4.66259e-07
-3.95826e-05
-4.69829e-07
-3.96202e-05
-4.73328e-07
-3.96612e-05
-4.76755e-07
-3.97057e-05
-4.80109e-07
-3.97539e-05
-4.8338e-07
-3.98059e-05
-4.86569e-07
-3.98618e-05
-4.89674e-07
-3.99217e-05
-4.92695e-07
-3.99857e-05
-4.9563e-07
-4.00539e-05
-4.98445e-07
-4.01262e-05
-5.01167e-07
-4.02028e-05
-5.03901e-07
-4.02838e-05
-5.06549e-07
-4.03692e-05
-5.08956e-07
-4.04591e-05
-5.11047e-07
-4.05536e-05
-5.1281e-07
-4.06527e-05
-5.14242e-07
-4.07566e-05
-5.15321e-07
-4.08652e-05
-5.16076e-07
-4.09786e-05
-5.16528e-07
-4.10967e-05
-5.16709e-07
-4.12194e-05
-5.16652e-07
-4.13467e-05
-5.16388e-07
-4.14785e-05
-5.15958e-07
-4.16146e-05
-5.154e-07
-4.1755e-05
-5.14766e-07
-4.18994e-05
-5.1412e-07
-4.20476e-05
-5.13549e-07
-4.21995e-05
-5.13161e-07
-4.23548e-05
-5.13092e-07
-4.25132e-05
-5.1351e-07
-4.26746e-05
-5.14626e-07
-4.28386e-05
-5.16713e-07
-4.30051e-05
-5.201e-07
-4.31737e-05
-5.25177e-07
-4.33442e-05
-5.32424e-07
-4.35162e-05
-5.42507e-07
-4.36897e-05
-5.55881e-07
-4.38643e-05
-5.73434e-07
-4.40397e-05
-5.96328e-07
-4.42157e-05
-6.2537e-07
-4.4392e-05
-6.6145e-07
-4.45686e-05
-7.05377e-07
-4.47454e-05
-7.57582e-07
-4.49227e-05
-8.17771e-07
-4.51008e-05
-8.84175e-07
-4.52799e-05
-9.52322e-07
-4.54604e-05
-1.01355e-06
-4.56419e-05
-1.05302e-06
-4.58218e-05
-1.047e-06
-4.59928e-05
-9.59977e-07
-4.61403e-05
-7.37807e-07
-4.62445e-05
-3.11556e-07
-4.63097e-05
4.17807e-07
-4.63735e-05
1.68341e-06
-4.6452e-05
3.94537e-06
-4.6545e-05
8.04614e-06
-4.63281e-05
1.56454e-05
2.84374e-05
-4.35036e-05
-4.25124e-05
-9.91551e-08
-4.25211e-05
-1.82137e-07
-4.25355e-05
-2.34307e-07
-4.25525e-05
-2.66862e-07
-4.25712e-05
-2.87395e-07
-4.25914e-05
-3.00445e-07
-4.26129e-05
-3.09079e-07
-4.26359e-05
-3.15016e-07
-4.26602e-05
-3.19386e-07
-4.2686e-05
-3.22795e-07
-4.27134e-05
-3.25646e-07
-4.27424e-05
-3.28139e-07
-4.2773e-05
-3.30425e-07
-4.28054e-05
-3.32561e-07
-4.28395e-05
-3.34608e-07
-4.28756e-05
-3.36575e-07
-4.29136e-05
-3.38487e-07
-4.29536e-05
-3.40335e-07
-4.29957e-05
-3.4213e-07
-4.30399e-05
-3.4386e-07
-4.30865e-05
-3.45526e-07
-4.31352e-05
-3.47199e-07
-4.31864e-05
-3.48659e-07
-4.32402e-05
-3.49943e-07
-4.32963e-05
-3.51288e-07
-4.3355e-05
-3.5267e-07
-4.34163e-05
-3.54094e-07
-4.34803e-05
-3.55481e-07
-4.35469e-05
-3.56794e-07
-4.36162e-05
-3.58029e-07
-4.36883e-05
-3.592e-07
-4.37633e-05
-3.60313e-07
-4.3841e-05
-3.61383e-07
-4.39217e-05
-3.62408e-07
-4.40052e-05
-3.63395e-07
-4.40917e-05
-3.64333e-07
-4.41811e-05
-3.6523e-07
-4.42735e-05
-3.66075e-07
-4.43689e-05
-3.66838e-07
-4.44673e-05
-3.67513e-07
-4.45686e-05
-3.68142e-07
-4.46729e-05
-3.68724e-07
-4.47802e-05
-3.6926e-07
-4.48903e-05
-3.69761e-07
-4.50033e-05
-3.70236e-07
-4.5119e-05
-3.70686e-07
-4.52375e-05
-3.71117e-07
-4.53586e-05
-3.71542e-07
-4.54823e-05
-3.71971e-07
-4.56084e-05
-3.72415e-07
-4.57369e-05
-3.7288e-07
-4.58674e-05
-3.73376e-07
-4.60001e-05
-3.73947e-07
-4.61349e-05
-3.74522e-07
-4.62714e-05
-3.75014e-07
-4.64097e-05
-3.75337e-07
-4.65496e-05
-3.7543e-07
-4.6691e-05
-3.75278e-07
-4.68338e-05
-3.74892e-07
-4.69778e-05
-3.743e-07
-4.7123e-05
-3.73521e-07
-4.72693e-05
-3.72583e-07
-4.74164e-05
-3.71503e-07
-4.75645e-05
-3.70296e-07
-4.77133e-05
-3.69003e-07
-4.78628e-05
-3.67637e-07
-4.80131e-05
-3.66235e-07
-4.81639e-05
-3.64856e-07
-4.83154e-05
-3.63566e-07
-4.84676e-05
-3.62458e-07
-4.86203e-05
-3.61658e-07
-4.87738e-05
-3.61314e-07
-4.8928e-05
-3.61618e-07
-4.9083e-05
-3.6284e-07
-4.92388e-05
-3.65314e-07
-4.93955e-05
-3.69422e-07
-4.95531e-05
-3.75631e-07
-4.97118e-05
-3.84599e-07
-4.98716e-05
-3.96823e-07
-5.00327e-05
-4.12956e-07
-5.01956e-05
-4.34043e-07
-5.03605e-05
-4.61055e-07
-5.05275e-05
-4.94869e-07
-5.0697e-05
-5.36262e-07
-5.08694e-05
-5.85608e-07
-5.10449e-05
-6.42592e-07
-5.12237e-05
-7.05611e-07
-5.14058e-05
-7.70512e-07
-5.15903e-05
-8.29275e-07
-5.17747e-05
-8.68736e-07
-5.19534e-05
-8.68472e-07
-5.21147e-05
-7.9872e-07
-5.22348e-05
-6.17834e-07
-5.22857e-05
-2.60653e-07
-5.225e-05
3.8212e-07
-5.20976e-05
1.53093e-06
-5.1748e-05
3.59575e-06
-5.10309e-05
7.32899e-06
-4.93299e-05
1.39444e-05
2.38469e-05
-4.47394e-05
-4.5459e-05
-8.95614e-08
-4.54918e-05
-1.53171e-07
-4.55356e-05
-1.94326e-07
-4.5586e-05
-2.20408e-07
-4.56407e-05
-2.3662e-07
-4.56986e-05
-2.46471e-07
-4.57591e-05
-2.52524e-07
-4.58218e-05
-2.56189e-07
-4.58867e-05
-2.58456e-07
-4.59536e-05
-2.59853e-07
-4.60224e-05
-2.60731e-07
-4.60932e-05
-2.61267e-07
-4.6166e-05
-2.61601e-07
-4.62407e-05
-2.61785e-07
-4.63174e-05
-2.61883e-07
-4.63961e-05
-2.619e-07
-4.64767e-05
-2.6187e-07
-4.65593e-05
-2.61785e-07
-4.66438e-05
-2.61663e-07
-4.67302e-05
-2.61496e-07
-4.68186e-05
-2.61292e-07
-4.69088e-05
-2.61111e-07
-4.70008e-05
-2.6078e-07
-4.70948e-05
-2.60187e-07
-4.71908e-05
-2.59482e-07
-4.7289e-05
-2.58734e-07
-4.73893e-05
-2.57997e-07
-4.74918e-05
-2.57244e-07
-4.75964e-05
-2.56453e-07
-4.77031e-05
-2.5562e-07
-4.78118e-05
-2.54772e-07
-4.79225e-05
-2.5391e-07
-4.80352e-05
-2.5307e-07
-4.81497e-05
-2.52252e-07
-4.8266e-05
-2.5148e-07
-4.83839e-05
-2.50739e-07
-4.85035e-05
-2.50066e-07
-4.86246e-05
-2.49425e-07
-4.87471e-05
-2.48802e-07
-4.88709e-05
-2.48199e-07
-4.89959e-05
-2.47656e-07
-4.9122e-05
-2.47177e-07
-4.92491e-05
-2.46773e-07
-4.9377e-05
-2.4645e-07
-4.95056e-05
-2.46217e-07
-4.96349e-05
-2.4607e-07
-4.97647e-05
-2.46015e-07
-4.98949e-05
-2.46052e-07
-5.00254e-05
-2.46203e-07
-5.01561e-05
-2.46467e-07
-5.02868e-05
-2.4688e-07
-5.04176e-05
-2.47414e-07
-5.05483e-05
-2.4807e-07
-5.06789e-05
-2.48784e-07
-5.08092e-05
-2.49479e-07
-5.09394e-05
-2.50057e-07
-5.10692e-05
-2.50396e-07
-5.11989e-05
-2.5047e-07
-5.13283e-05
-2.50297e-07
-5.14576e-05
-2.49905e-07
-5.15866e-05
-2.49298e-07
-5.17155e-05
-2.48486e-07
-5.18442e-05
-2.4747e-07
-5.1973e-05
-2.46245e-07
-5.21018e-05
-2.44835e-07
-5.22308e-05
-2.43247e-07
-5.236e-05
-2.41499e-07
-5.24897e-05
-2.39631e-07
-5.26199e-05
-2.37701e-07
-5.27509e-05
-2.35787e-07
-5.28827e-05
-2.34e-07
-5.30156e-05
-2.32476e-07
-5.31498e-05
-2.31393e-07
-5.32855e-05
-2.3101e-07
-5.34229e-05
-2.31661e-07
-5.35623e-05
-2.33715e-07
-5.37038e-05
-2.37616e-07
-5.38479e-05
-2.43851e-07
-5.39948e-05
-2.53129e-07
-5.41446e-05
-2.66258e-07
-5.42975e-05
-2.84088e-07
-5.44538e-05
-3.0751e-07
-5.46141e-05
-3.37256e-07
-5.47787e-05
-3.74109e-07
-5.49482e-05
-4.18429e-07
-5.5123e-05
-4.69958e-07
-5.53031e-05
-5.2754e-07
-5.54877e-05
-5.87745e-07
-5.56751e-05
-6.43573e-07
-5.58612e-05
-6.84161e-07
-5.60376e-05
-6.93315e-07
-5.61897e-05
-6.47782e-07
-5.6289e-05
-5.19412e-07
-5.62986e-05
-2.51795e-07
-5.61744e-05
2.57379e-07
-5.58362e-05
1.19231e-06
-5.51221e-05
2.88101e-06
-5.37224e-05
5.92853e-06
-5.09128e-05
1.11339e-05
1.82317e-05
-4.52988e-05
-4.81371e-05
-6.74831e-08
-4.81868e-05
-1.07193e-07
-4.825e-05
-1.34829e-07
-4.83218e-05
-1.52311e-07
-4.83992e-05
-1.62884e-07
-4.84804e-05
-1.68926e-07
-4.85643e-05
-1.72198e-07
-4.86504e-05
-1.73737e-07
-4.87383e-05
-1.74232e-07
-4.88276e-05
-1.74082e-07
-4.89184e-05
-1.73545e-07
-4.90105e-05
-1.72758e-07
-4.91039e-05
-1.71822e-07
-4.91985e-05
-1.70782e-07
-4.92943e-05
-1.69687e-07
-4.93912e-05
-1.68546e-07
-4.94893e-05
-1.67386e-07
-4.95885e-05
-1.66201e-07
-4.96888e-05
-1.65012e-07
-4.97901e-05
-1.63808e-07
-4.98924e-05
-1.62603e-07
-4.99959e-05
-1.61296e-07
-5.01005e-05
-1.5996e-07
-5.02058e-05
-1.58632e-07
-5.03118e-05
-1.5726e-07
-5.04184e-05
-1.55873e-07
-5.05257e-05
-1.54552e-07
-5.06335e-05
-1.53284e-07
-5.07418e-05
-1.52062e-07
-5.08504e-05
-1.5087e-07
-5.09594e-05
-1.49752e-07
-5.10686e-05
-1.48685e-07
-5.11781e-05
-1.47725e-07
-5.12876e-05
-1.46851e-07
-5.13971e-05
-1.46105e-07
-5.15067e-05
-1.45442e-07
-5.16161e-05
-1.44934e-07
-5.17254e-05
-1.44515e-07
-5.18345e-05
-1.44143e-07
-5.19434e-05
-1.43832e-07
-5.20521e-05
-1.43614e-07
-5.21605e-05
-1.43491e-07
-5.22687e-05
-1.43465e-07
-5.23765e-05
-1.43538e-07
-5.24841e-05
-1.43707e-07
-5.25914e-05
-1.43964e-07
-5.26984e-05
-1.44302e-07
-5.28051e-05
-1.44716e-07
-5.29116e-05
-1.45214e-07
-5.3018e-05
-1.45806e-07
-5.31241e-05
-1.46542e-07
-5.32301e-05
-1.4738e-07
-5.3336e-05
-1.48263e-07
-5.34418e-05
-1.49138e-07
-5.35478e-05
-1.49957e-07
-5.36537e-05
-1.50613e-07
-5.37599e-05
-1.50905e-07
-5.38664e-05
-1.50812e-07
-5.39734e-05
-1.50385e-07
-5.40808e-05
-1.49658e-07
-5.41888e-05
-1.48632e-07
-5.42975e-05
-1.47305e-07
-5.4407e-05
-1.45671e-07
-5.45174e-05
-1.43722e-07
-5.46287e-05
-1.41455e-07
-5.47413e-05
-1.38869e-07
-5.48551e-05
-1.35983e-07
-5.49704e-05
-1.32817e-07
-5.50873e-05
-1.29414e-07
-5.5206e-05
-1.25844e-07
-5.53266e-05
-1.22198e-07
-5.54495e-05
-1.18609e-07
-5.55748e-05
-1.15229e-07
-5.57027e-05
-1.12306e-07
-5.58335e-05
-1.10179e-07
-5.59675e-05
-1.09191e-07
-5.61048e-05
-1.09753e-07
-5.62459e-05
-1.12315e-07
-5.6391e-05
-1.17642e-07
-5.65404e-05
-1.2651e-07
-5.66944e-05
-1.39798e-07
-5.68532e-05
-1.58453e-07
-5.70173e-05
-1.82855e-07
-5.71873e-05
-2.13887e-07
-5.73636e-05
-2.51965e-07
-5.75464e-05
-2.96887e-07
-5.77355e-05
-3.48171e-07
-5.79293e-05
-4.0361e-07
-5.81251e-05
-4.57289e-07
-5.83175e-05
-5.01123e-07
-5.84962e-05
-5.23591e-07
-5.86437e-05
-5.09009e-07
-5.8732e-05
-4.39155e-07
-5.8713e-05
-2.78111e-07
-5.85185e-05
5.64461e-08
-5.80351e-05
7.02653e-07
-5.70362e-05
1.87516e-06
-5.5115e-05
3.99869e-06
-5.15356e-05
7.54331e-06
1.20573e-05
-4.53748e-05
-5.01817e-05
-3.38506e-08
-5.02387e-05
-5.28527e-08
-5.03095e-05
-6.66564e-08
-5.03891e-05
-7.52811e-08
-5.04741e-05
-8.02984e-08
-5.05625e-05
-8.29937e-08
-5.06528e-05
-8.42172e-08
-5.07444e-05
-8.45432e-08
-5.08366e-05
-8.43273e-08
-5.09292e-05
-8.37662e-08
-5.10219e-05
-8.30097e-08
-5.11147e-05
-8.21247e-08
-5.12075e-05
-8.11725e-08
-5.13003e-05
-8.01758e-08
-5.13929e-05
-7.91646e-08
-5.14853e-05
-7.81434e-08
-5.15776e-05
-7.71287e-08
-5.16697e-05
-7.6118e-08
-5.17615e-05
-7.51234e-08
-5.18531e-05
-7.41377e-08
-5.19444e-05
-7.31692e-08
-5.20355e-05
-7.21102e-08
-5.21262e-05
-7.10773e-08
-5.22165e-05
-7.02062e-08
-5.23062e-05
-6.94264e-08
-5.23953e-05
-6.86961e-08
-5.24837e-05
-6.80554e-08
-5.25715e-05
-6.74926e-08
-5.26587e-05
-6.69766e-08
-5.27452e-05
-6.6497e-08
-5.2831e-05
-6.60867e-08
-5.29162e-05
-6.57269e-08
-5.30009e-05
-6.54545e-08
-5.30849e-05
-6.52543e-08
-5.31683e-05
-6.51532e-08
-5.32513e-05
-6.51128e-08
-5.33337e-05
-6.51929e-08
-5.34157e-05
-6.53681e-08
-5.34972e-05
-6.5494e-08
-5.35785e-05
-6.56069e-08
-5.36595e-05
-6.57743e-08
-5.37402e-05
-6.59819e-08
-5.38209e-05
-6.62222e-08
-5.39014e-05
-6.65058e-08
-5.39819e-05
-6.6817e-08
-5.40625e-05
-6.71478e-08
-5.41432e-05
-6.74877e-08
-5.42242e-05
-6.78444e-08
-5.43054e-05
-6.81901e-08
-5.4387e-05
-6.85529e-08
-5.44691e-05
-6.90001e-08
-5.45516e-05
-6.9543e-08
-5.46347e-05
-7.00256e-08
-5.47184e-05
-7.0398e-08
-5.4803e-05
-7.06593e-08
-5.48882e-05
-7.07435e-08
-5.49745e-05
-7.03037e-08
-5.50618e-05
-6.93252e-08
-5.51503e-05
-6.79267e-08
-5.52401e-05
-6.61587e-08
-5.53313e-05
-6.40191e-08
-5.5424e-05
-6.14937e-08
-5.55182e-05
-5.85723e-08
-5.5614e-05
-5.52401e-08
-5.57117e-05
-5.14825e-08
-5.58113e-05
-4.72918e-08
-5.5913e-05
-4.26781e-08
-5.60169e-05
-3.7653e-08
-5.61232e-05
-3.22477e-08
-5.62321e-05
-2.65178e-08
-5.63436e-05
-2.05457e-08
-5.64582e-05
-1.44445e-08
-5.65758e-05
-8.37817e-09
-5.66969e-05
-2.56301e-09
-5.68216e-05
2.7567e-09
-5.69504e-05
7.16015e-09
-5.70834e-05
1.02702e-08
-5.7221e-05
1.16424e-08
-5.73635e-05
1.06078e-08
-5.75113e-05
6.41118e-09
-5.76651e-05
-1.5379e-09
-5.78251e-05
-1.46179e-08
-5.79922e-05
-3.28183e-08
-5.81668e-05
-5.71993e-08
-5.83492e-05
-8.83416e-08
-5.854e-05
-1.2599e-07
-5.87388e-05
-1.70385e-07
-5.89432e-05
-2.21472e-07
-5.91503e-05
-2.73875e-07
-5.9354e-05
-3.22726e-07
-5.9543e-05
-3.61411e-07
-5.96986e-05
-3.82032e-07
-5.97928e-05
-3.75229e-07
-5.97757e-05
-3.27072e-07
-5.95616e-05
-1.9081e-07
-5.89995e-05
1.06931e-07
-5.78338e-05
6.73617e-07
-5.55914e-05
1.71454e-06
-5.15471e-05
3.44798e-06
5.58191e-06
-4.51314e-05
-5.11846e-05
5.60949e-09
-5.12408e-05
2.66527e-09
-5.131e-05
1.96186e-09
-5.13875e-05
1.68538e-09
-5.14698e-05
1.5221e-09
-5.15547e-05
1.39782e-09
-5.16407e-05
1.31369e-09
-5.17269e-05
1.25703e-09
-5.18128e-05
1.20444e-09
-5.18982e-05
1.17483e-09
-5.19827e-05
1.1448e-09
-5.20663e-05
1.12344e-09
-5.21489e-05
1.10836e-09
-5.22304e-05
1.09052e-09
-5.2311e-05
1.07549e-09
-5.23905e-05
1.05893e-09
-5.2469e-05
1.04512e-09
-5.25464e-05
1.03129e-09
-5.26229e-05
1.02111e-09
-5.26984e-05
1.01435e-09
-5.27729e-05
1.0223e-09
-5.28465e-05
1.07512e-09
-5.29191e-05
1.12901e-09
-5.29908e-05
1.12239e-09
-5.30618e-05
1.08012e-09
-5.3132e-05
1.01471e-09
-5.32014e-05
8.94269e-10
-5.32702e-05
7.19216e-10
-5.33383e-05
5.75095e-10
-5.34059e-05
4.40746e-10
-5.34729e-05
3.11373e-10
-5.35395e-05
1.6161e-10
-5.36057e-05
-5.05623e-12
-5.36715e-05
-1.99141e-10
-5.3737e-05
-4.07272e-10
-5.38023e-05
-6.46945e-10
-5.38675e-05
-8.96868e-10
-5.39324e-05
-1.34158e-09
-5.39973e-05
-1.52359e-09
-5.40622e-05
-1.63863e-09
-5.41273e-05
-1.74713e-09
-5.41924e-05
-1.84058e-09
-5.42578e-05
-1.90753e-09
-5.43234e-05
-1.94609e-09
-5.43894e-05
-1.94944e-09
-5.44558e-05
-1.90313e-09
-5.45226e-05
-1.79855e-09
-5.459e-05
-1.64034e-09
-5.4658e-05
-1.39556e-09
-5.47268e-05
-1.07687e-09
-5.47963e-05
-7.9004e-10
-5.48665e-05
-6.32877e-10
-5.49375e-05
-3.05011e-10
-5.50095e-05
2.20844e-10
-5.50825e-05
9.47895e-10
-5.51565e-05
1.71877e-09
-5.52315e-05
3.2401e-09
-5.53079e-05
5.48595e-09
-5.53857e-05
8.21191e-09
-5.5465e-05
1.13533e-08
-5.55457e-05
1.4927e-08
-5.56281e-05
1.8958e-08
-5.57122e-05
2.34681e-08
-5.57981e-05
2.84835e-08
-5.58859e-05
3.40209e-08
-5.59758e-05
4.00932e-08
-5.60678e-05
4.67062e-08
-5.61622e-05
5.38566e-08
-5.6259e-05
6.15227e-08
-5.63585e-05
6.96625e-08
-5.64608e-05
7.82079e-08
-5.65662e-05
8.70664e-08
-5.66748e-05
9.60655e-08
-5.6787e-05
1.05039e-07
-5.6903e-05
1.13805e-07
-5.70231e-05
1.21989e-07
-5.71477e-05
1.29185e-07
-5.72771e-05
1.34944e-07
-5.74117e-05
1.38655e-07
-5.7552e-05
1.39573e-07
-5.76983e-05
1.37098e-07
-5.78515e-05
1.30412e-07
-5.8012e-05
1.18921e-07
-5.81803e-05
1.01805e-07
-5.83568e-05
7.84289e-08
-5.85412e-05
4.815e-08
-5.87337e-05
1.14997e-08
-5.89314e-05
-3.51644e-08
-5.91316e-05
-8.62496e-08
-5.93281e-05
-1.40652e-07
-5.95093e-05
-1.96672e-07
-5.96575e-05
-2.53175e-07
-5.97434e-05
-3.12146e-07
-5.97213e-05
-3.76398e-07
-5.95014e-05
-4.43968e-07
-5.89229e-05
-5.12195e-07
-5.77055e-05
-5.90623e-07
-5.53494e-05
-6.92412e-07
-5.11228e-05
-8.30823e-07
-9.56995e-07
-4.46311e-05
-5.0781e-05
4.35563e-08
-5.08354e-05
5.84363e-08
-5.09034e-05
7.11843e-08
-5.09798e-05
7.93682e-08
-5.10613e-05
8.41969e-08
-5.11456e-05
8.67864e-08
-5.12312e-05
8.79907e-08
-5.13173e-05
8.83457e-08
-5.14032e-05
8.81798e-08
-5.14888e-05
8.76982e-08
-5.15738e-05
8.70251e-08
-5.1658e-05
8.62251e-08
-5.17414e-05
8.53671e-08
-5.18239e-05
8.44517e-08
-5.19056e-05
8.35224e-08
-5.19863e-05
8.2574e-08
-5.20661e-05
8.16332e-08
-5.2145e-05
8.06922e-08
-5.2223e-05
7.97715e-08
-5.23001e-05
7.88647e-08
-5.23763e-05
7.79987e-08
-5.24516e-05
7.71753e-08
-5.25261e-05
7.63783e-08
-5.25997e-05
7.55637e-08
-5.26726e-05
7.47555e-08
-5.27447e-05
7.39426e-08
-5.28161e-05
7.31248e-08
-5.28868e-05
7.23142e-08
-5.29569e-05
7.1574e-08
-5.30264e-05
7.08808e-08
-5.30953e-05
7.02451e-08
-5.31637e-05
6.96218e-08
-5.32317e-05
6.90391e-08
-5.32992e-05
6.84719e-08
-5.33664e-05
6.79517e-08
-5.34333e-05
6.74427e-08
-5.34998e-05
6.69678e-08
-5.35663e-05
6.64658e-08
-5.36326e-05
6.61815e-08
-5.36987e-05
6.59856e-08
-5.37648e-05
6.58883e-08
-5.38309e-05
6.58657e-08
-5.38971e-05
6.5918e-08
-5.39634e-05
6.60718e-08
-5.40298e-05
6.63236e-08
-5.40965e-05
6.66882e-08
-5.41636e-05
6.71719e-08
-5.42309e-05
6.77796e-08
-5.42988e-05
6.85233e-08
-5.4367e-05
6.93859e-08
-5.44359e-05
7.02963e-08
-5.45054e-05
7.12585e-08
-5.45756e-05
7.24166e-08
-5.46467e-05
7.38312e-08
-5.47186e-05
7.55147e-08
-5.47916e-05
7.7488e-08
-5.48656e-05
8.01396e-08
-5.49407e-05
8.35157e-08
-5.50168e-05
8.7461e-08
-5.50941e-05
9.19214e-08
-5.51726e-05
9.6915e-08
-5.52525e-05
1.02466e-07
-5.53339e-05
1.086e-07
-5.54168e-05
1.15348e-07
-5.55014e-05
1.22734e-07
-5.55877e-05
1.30776e-07
-5.56758e-05
1.39493e-07
-5.5766e-05
1.48903e-07
-5.58583e-05
1.58992e-07
-5.5953e-05
1.69733e-07
-5.60501e-05
1.81082e-07
-5.61498e-05
1.9296e-07
-5.62525e-05
2.0524e-07
-5.63582e-05
2.17775e-07
-5.64674e-05
2.30373e-07
-5.65801e-05
2.42727e-07
-5.66968e-05
2.54471e-07
-5.68179e-05
2.65171e-07
-5.69435e-05
2.74271e-07
-5.70744e-05
2.81147e-07
-5.72108e-05
2.8517e-07
-5.73534e-05
2.85619e-07
-5.75026e-05
2.81768e-07
-5.76587e-05
2.72853e-07
-5.78222e-05
2.58112e-07
-5.79928e-05
2.36362e-07
-5.81688e-05
2.06689e-07
-5.83502e-05
1.6752e-07
-5.85315e-05
1.19071e-07
-5.87042e-05
5.92237e-08
-5.88571e-05
-1.27519e-08
-5.89748e-05
-1.00757e-07
-5.90282e-05
-2.19949e-07
-5.89696e-05
-3.91726e-07
-5.87149e-05
-6.50359e-07
-5.81089e-05
-1.0644e-06
-5.68728e-05
-1.76696e-06
-5.45191e-05
-2.98036e-06
-5.03451e-05
-4.93418e-06
-7.27329e-06
-4.39597e-05
-4.92079e-05
7.26348e-08
-4.9259e-05
1.12474e-07
-4.93243e-05
1.39278e-07
-4.93986e-05
1.56534e-07
-4.94787e-05
1.67063e-07
-4.95624e-05
1.73181e-07
-4.96483e-05
1.76626e-07
-4.97356e-05
1.7838e-07
-4.9824e-05
1.79157e-07
-4.99129e-05
1.79273e-07
-5.00023e-05
1.79038e-07
-5.0092e-05
1.78523e-07
-5.01819e-05
1.77867e-07
-5.0272e-05
1.77093e-07
-5.03622e-05
1.76252e-07
-5.04524e-05
1.75348e-07
-5.05426e-05
1.74412e-07
-5.06328e-05
1.7344e-07
-5.0723e-05
1.72453e-07
-5.0813e-05
1.71445e-07
-5.09029e-05
1.70441e-07
-5.09926e-05
1.69436e-07
-5.10821e-05
1.68425e-07
-5.11713e-05
1.67373e-07
-5.12602e-05
1.66298e-07
-5.13488e-05
1.65186e-07
-5.1437e-05
1.64047e-07
-5.15249e-05
1.62909e-07
-5.16124e-05
1.61825e-07
-5.16994e-05
1.60778e-07
-5.17861e-05
1.59764e-07
-5.18723e-05
1.58758e-07
-5.19581e-05
1.5778e-07
-5.20433e-05
1.56822e-07
-5.21282e-05
1.55906e-07
-5.22126e-05
1.5502e-07
-5.22965e-05
1.54172e-07
-5.238e-05
1.53362e-07
-5.24631e-05
1.52732e-07
-5.25458e-05
1.52188e-07
-5.2628e-05
1.51783e-07