/*--------------------------------*- C++ -*----------------------------------*\
| =========                 |                                                 |
| \\      /  F ield         | OpenFOAM: The Open Source CFD Toolbox           |
|  \\    /   O peration     | Version:  2.1.0                                 |
|   \\  /    A nd           | Web:      www.OpenFOAM.org                      |
|    \\/     M anipulation  |                                                 |
\*---------------------------------------------------------------------------*/
FoamFile
{
    version     2.0;
    format      ascii;
    class       volScalarField;
    location    "0.51";
    object      rho;
}
// * * * * * * * * * * * * * * * * * * * * * * * * * * * * * * * * * * * * * //

dimensions      [1 -3 0 0 0 0 0];

internalField   nonuniform List<scalar> 
6400
(
945.768
945.73
945.692
945.655
945.617
945.581
945.546
945.511
945.477
945.444
945.411
945.38
945.349
945.319
945.29
945.262
945.235
945.208
945.182
945.157
945.133
945.11
945.088
945.066
945.045
945.025
945.006
944.987
944.97
944.953
944.937
944.921
944.907
944.893
944.88
944.867
944.855
944.844
944.833
944.824
944.814
944.805
944.797
944.79
944.783
944.776
944.77
944.765
944.76
944.755
944.751
944.747
944.744
944.741
944.738
944.736
944.734
944.732
944.731
944.73
944.729
944.728
944.728
944.728
944.728
944.729
944.729
944.73
944.731
944.732
944.734
944.736
944.737
944.74
944.742
944.745
944.748
944.752
944.756
944.76
944.765
944.771
944.777
944.785
944.794
944.805
944.818
944.836
944.861
944.896
944.952
945.048
945.23
945.593
946.05
945.028
944.568
944.555
944.555
944.555
946.229
946.181
946.131
946.082
946.032
945.984
945.936
945.889
945.843
945.797
945.753
945.709
945.666
945.624
945.583
945.543
945.504
945.466
945.428
945.392
945.357
945.322
945.288
945.256
945.224
945.194
945.164
945.135
945.108
945.081
945.056
945.031
945.007
944.985
944.963
944.942
944.923
944.904
944.886
944.869
944.853
944.837
944.823
944.81
944.797
944.785
944.774
944.763
944.754
944.745
944.736
944.728
944.721
944.715
944.709
944.703
944.698
944.694
944.69
944.686
944.683
944.68
944.677
944.675
944.673
944.671
944.669
944.668
944.666
944.665
944.664
944.663
944.663
944.662
944.661
944.661
944.66
944.66
944.66
944.66
944.66
944.66
944.66
944.66
944.66
944.661
944.661
944.662
944.662
944.663
944.662
944.66
944.653
944.639
944.611
944.574
944.556
944.555
944.555
944.555
946.781
946.723
946.663
946.602
946.541
946.48
946.42
946.361
946.302
946.244
946.187
946.131
946.076
946.022
945.968
945.916
945.864
945.814
945.764
945.716
945.668
945.622
945.576
945.532
945.488
945.446
945.404
945.364
945.325
945.287
945.25
945.215
945.18
945.147
945.115
945.084
945.055
945.026
944.999
944.973
944.948
944.924
944.902
944.88
944.86
944.841
944.822
944.805
944.789
944.774
944.76
944.747
944.734
944.723
944.712
944.702
944.693
944.684
944.677
944.669
944.663
944.657
944.651
944.646
944.641
944.637
944.633
944.629
944.626
944.623
944.62
944.617
944.614
944.612
944.609
944.606
944.604
944.601
944.599
944.596
944.594
944.591
944.588
944.586
944.583
944.58
944.577
944.574
944.572
944.569
944.566
944.563
944.561
944.558
944.557
944.556
944.555
944.555
944.555
944.555
947.562
947.495
947.423
947.349
947.275
947.201
947.127
947.053
946.981
946.908
946.837
946.766
946.697
946.628
946.559
946.492
946.426
946.36
946.296
946.232
946.17
946.108
946.048
945.988
945.93
945.873
945.816
945.761
945.707
945.655
945.603
945.553
945.504
945.456
945.41
945.365
945.321
945.279
945.238
945.198
945.16
945.123
945.088
945.054
945.021
944.99
944.96
944.931
944.904
944.879
944.854
944.831
944.81
944.789
944.77
944.752
944.735
944.72
944.705
944.691
944.679
944.667
944.656
944.647
944.637
944.629
944.622
944.615
944.608
944.602
944.597
944.592
944.588
944.584
944.58
944.577
944.574
944.571
944.569
944.567
944.565
944.563
944.562
944.56
944.559
944.558
944.557
944.557
944.556
944.556
944.555
944.555
944.555
944.555
944.555
944.555
944.555
944.555
944.555
944.555
948.698
948.621
948.538
948.452
948.365
948.278
948.19
948.102
948.015
947.928
947.842
947.756
947.671
947.586
947.502
947.419
947.336
947.254
947.173
947.092
947.013
946.934
946.856
946.779
946.703
946.628
946.554
946.481
946.409
946.337
946.267
946.198
946.13
946.064
945.998
945.933
945.87
945.808
945.748
945.688
945.63
945.574
945.519
945.465
945.413
945.363
945.314
945.266
945.221
945.177
945.134
945.094
945.055
945.017
944.982
944.948
944.916
944.886
944.857
944.83
944.804
944.781
944.759
944.738
944.719
944.701
944.685
944.67
944.656
944.644
944.633
944.623
944.613
944.605
944.598
944.592
944.586
944.581
944.576
944.573
944.569
944.567
944.564
944.562
944.56
944.559
944.558
944.557
944.556
944.556
944.555
944.555
944.555
944.555
944.555
944.555
944.555
944.555
944.555
944.555
950.415
950.329
950.238
950.143
950.046
949.948
949.85
949.751
949.653
949.555
949.456
949.358
949.26
949.163
949.065
948.968
948.871
948.775
948.678
948.582
948.486
948.391
948.296
948.201
948.107
948.013
947.92
947.827
947.735
947.644
947.553
947.462
947.372
947.283
947.194
947.107
947.019
946.933
946.847
946.763
946.679
946.596
946.514
946.433
946.353
946.275
946.197
946.121
946.046
945.973
945.901
945.83
945.761
945.694
945.629
945.565
945.503
945.443
945.385
945.33
945.276
945.224
945.175
945.127
945.082
945.039
944.999
944.96
944.924
944.89
944.858
944.828
944.8
944.774
944.75
944.728
944.707
944.689
944.671
944.656
944.641
944.628
944.617
944.606
944.597
944.589
944.581
944.575
944.57
944.565
944.561
944.559
944.557
944.556
944.555
944.555
944.555
944.555
944.555
944.555
953.045
952.956
952.861
952.763
952.664
952.563
952.462
952.36
952.259
952.157
952.055
951.953
951.851
951.749
951.647
951.545
951.442
951.339
951.236
951.133
951.029
950.925
950.82
950.714
950.609
950.503
950.398
950.292
950.186
950.081
949.975
949.869
949.764
949.658
949.552
949.446
949.34
949.234
949.127
949.021
948.914
948.807
948.7
948.593
948.486
948.379
948.271
948.164
948.056
947.948
947.84
947.733
947.625
947.518
947.411
947.304
947.197
947.091
946.986
946.881
946.777
946.675
946.573
946.473
946.375
946.278
946.183
946.089
945.998
945.909
945.823
945.738
945.657
945.577
945.501
945.427
945.356
945.287
945.221
945.158
945.098
945.04
944.985
944.933
944.884
944.837
944.792
944.751
944.713
944.678
944.647
944.621
944.6
944.584
944.574
944.569
944.564
944.561
944.559
944.558
956.888
956.804
956.716
956.626
956.536
956.444
956.352
956.26
956.169
956.077
955.986
955.895
955.805
955.714
955.624
955.533
955.443
955.353
955.263
955.172
955.082
954.991
954.9
954.808
954.716
954.624
954.532
954.439
954.346
954.253
954.159
954.064
953.969
953.873
953.776
953.678
953.579
953.479
953.377
953.275
953.171
953.065
952.959
952.85
952.739
952.627
952.513
952.397
952.279
952.158
952.036
951.911
951.783
951.654
951.522
951.387
951.25
951.11
950.968
950.823
950.676
950.527
950.375
950.221
950.065
949.907
949.746
949.584
949.42
949.255
949.088
948.919
948.75
948.579
948.408
948.235
948.062
947.888
947.714
947.539
947.363
947.186
947.007
946.827
946.645
946.462
946.277
946.092
945.906
945.722
945.543
945.371
945.213
945.072
944.955
944.869
944.799
944.743
944.701
944.674
962.323
962.263
962.202
962.139
962.077
962.015
961.954
961.893
961.833
961.773
961.715
961.657
961.601
961.545
961.49
961.435
961.382
961.329
961.277
961.226
961.175
961.125
961.076
961.027
960.978
960.928
960.878
960.826
960.775
960.722
960.668
960.613
960.557
960.499
960.44
960.379
960.317
960.253
960.187
960.119
960.049
959.977
959.903
959.827
959.748
959.668
959.584
959.498
959.41
959.319
959.225
959.129
959.029
958.926
958.82
958.711
958.598
958.481
958.361
958.238
958.11
957.978
957.842
957.702
957.557
957.408
957.254
957.094
956.93
956.759
956.583
956.401
956.213
956.018
955.816
955.606
955.387
955.159
954.92
954.671
954.411
954.14
953.853
953.55
953.228
952.885
952.518
952.125
951.703
951.25
950.768
950.256
949.721
949.169
948.61
948.071
947.598
947.164
946.793
946.516
969.573
969.557
969.541
969.525
969.509
969.494
969.48
969.465
969.452
969.438
969.425
969.413
969.401
969.389
969.377
969.365
969.354
969.342
969.331
969.319
969.308
969.296
969.283
969.271
969.258
969.244
969.229
969.214
969.199
969.183
969.166
969.149
969.131
969.112
969.093
969.073
969.052
969.031
969.009
968.986
968.963
968.94
968.915
968.891
968.866
968.84
968.813
968.787
968.759
968.731
968.703
968.674
968.645
968.615
968.584
968.552
968.52
968.487
968.453
968.419
968.383
968.346
968.308
968.269
968.228
968.185
968.141
968.095
968.047
967.996
967.943
967.887
967.827
967.763
967.695
967.622
967.546
967.463
967.374
967.278
967.172
967.055
966.928
966.788
966.635
966.466
966.282
966.079
965.845
965.572
965.253
964.88
964.445
963.936
963.338
962.632
961.82
960.974
960.157
959.486
977.388
977.419
977.449
977.478
977.506
977.534
977.56
977.587
977.611
977.636
977.659
977.683
977.705
977.727
977.748
977.769
977.789
977.809
977.829
977.849
977.869
977.888
977.908
977.928
977.948
977.969
977.989
978.011
978.033
978.055
978.078
978.102
978.126
978.152
978.178
978.205
978.233
978.262
978.293
978.324
978.356
978.39
978.424
978.46
978.497
978.536
978.575
978.616
978.659
978.703
978.749
978.796
978.845
978.896
978.948
979.003
979.06
979.12
979.182
979.248
979.317
979.389
979.466
979.546
979.632
979.722
979.817
979.919
980.027
980.141
980.263
980.393
980.532
980.681
980.84
981.009
981.191
981.385
981.593
981.815
982.053
982.306
982.575
982.861
983.165
983.486
983.824
984.18
984.564
984.983
985.444
985.951
986.499
987.091
987.73
988.418
989.149
989.909
990.657
991.315
983.799
983.866
983.934
984.004
984.072
984.142
984.21
984.279
984.346
984.414
984.48
984.547
984.612
984.678
984.743
984.808
984.872
984.936
985
985.064
985.128
985.192
985.256
985.321
985.385
985.451
985.516
985.582
985.649
985.716
985.784
985.854
985.923
985.995
986.067
986.141
986.215
986.292
986.37
986.449
986.53
986.614
986.699
986.786
986.875
986.967
987.061
987.158
987.257
987.359
987.463
987.571
987.682
987.795
987.912
988.033
988.157
988.285
988.416
988.553
988.694
988.841
988.993
989.15
989.314
989.484
989.661
989.846
990.038
990.238
990.446
990.664
990.891
991.127
991.374
991.632
991.899
992.178
992.467
992.767
993.077
993.397
993.726
994.063
994.407
994.757
995.11
995.465
995.818
996.169
996.512
996.846
997.181
997.511
997.829
998.132
998.414
998.668
998.881
999.04
988.633
988.718
988.806
988.897
988.989
989.082
989.175
989.268
989.361
989.454
989.547
989.64
989.733
989.826
989.919
990.013
990.106
990.199
990.292
990.386
990.479
990.574
990.668
990.762
990.857
990.953
991.049
991.146
991.243
991.34
991.439
991.538
991.638
991.739
991.841
991.944
992.048
992.153
992.259
992.367
992.476
992.586
992.697
992.81
992.925
993.041
993.159
993.278
993.399
993.522
993.647
993.774
993.903
994.033
994.166
994.301
994.437
994.577
994.718
994.861
995.007
995.155
995.306
995.458
995.613
995.77
995.929
996.091
996.254
996.419
996.586
996.754
996.923
997.094
997.265
997.436
997.607
997.778
997.947
998.114
998.278
998.439
998.595
998.747
998.891
999.029
999.159
999.28
999.392
999.492
999.581
999.658
999.721
999.776
999.823
999.863
999.895
999.921
999.94
999.952
992.167
992.254
992.346
992.441
992.538
992.636
992.735
992.834
992.933
993.032
993.131
993.23
993.33
993.429
993.528
993.628
993.727
993.827
993.926
994.026
994.126
994.226
994.326
994.427
994.528
994.629
994.73
994.831
994.933
995.035
995.137
995.24
995.342
995.445
995.549
995.652
995.756
995.86
995.963
996.068
996.172
996.276
996.38
996.484
996.589
996.693
996.796
996.9
997.003
997.107
997.209
997.312
997.413
997.515
997.615
997.715
997.815
997.913
998.011
998.107
998.203
998.297
998.389
998.481
998.57
998.658
998.745
998.829
998.911
998.991
999.068
999.144
999.216
999.287
999.354
999.418
999.48
999.538
999.593
999.644
999.692
999.737
999.778
999.815
999.848
999.877
999.903
999.924
999.943
999.958
999.969
999.978
999.985
999.989
999.992
999.994
999.996
999.997
999.998
999.999
994.574
994.656
994.743
994.834
994.926
995.02
995.113
995.207
995.301
995.395
995.489
995.582
995.675
995.768
995.861
995.954
996.046
996.138
996.23
996.322
996.413
996.504
996.594
996.684
996.774
996.864
996.953
997.041
997.129
997.217
997.304
997.391
997.477
997.562
997.647
997.73
997.813
997.896
997.977
998.057
998.136
998.214
998.291
998.367
998.442
998.515
998.587
998.657
998.726
998.793
998.859
998.923
998.985
999.045
999.104
999.161
999.216
999.269
999.32
999.369
999.416
999.461
999.504
999.544
999.583
999.62
999.655
999.688
999.719
999.748
999.775
999.801
999.824
999.846
999.866
999.884
999.901
999.916
999.929
999.941
999.952
999.961
999.969
999.976
999.982
999.986
999.99
999.993
999.995
999.997
999.998
999.999
999.999
1000
1000
1000
1000
1000
1000
1000
996.169
996.241
996.32
996.401
996.483
996.566
996.649
996.732
996.815
996.898
996.979
997.061
997.142
997.222
997.302
997.381
997.459
997.537
997.614
997.691
997.766
997.841
997.915
997.988
998.061
998.132
998.202
998.272
998.34
998.407
998.474
998.539
998.603
998.665
998.727
998.787
998.846
998.904
998.96
999.015
999.069
999.121
999.171
999.22
999.268
999.313
999.357
999.4
999.441
999.48
999.518
999.553
999.588
999.62
999.651
999.68
999.708
999.734
999.758
999.781
999.802
999.822
999.841
999.858
999.874
999.888
999.901
999.914
999.925
999.935
999.944
999.952
999.959
999.965
999.971
999.976
999.98
999.984
999.987
999.99
999.992
999.994
999.996
999.997
999.998
999.998
999.999
999.999
1000
1000
1000
1000
1000
1000
1000
1000
1000
1000
1000
1000
997.252
997.315
997.383
997.452
997.522
997.592
997.662
997.731
997.8
997.868
997.936
998.002
998.068
998.133
998.198
998.261
998.324
998.386
998.447
998.507
998.566
998.624
998.681
998.737
998.792
998.846
998.898
998.95
999.001
999.05
999.098
999.145
999.191
999.235
999.278
999.32
999.36
999.399
999.437
999.473
999.508
999.541
999.573
999.604
999.633
999.661
999.687
999.712
999.736
999.758
999.779
999.799
999.818
999.835
999.851
999.866
999.88
999.893
999.905
999.915
999.925
999.934
999.942
999.95
999.957
999.963
999.968
999.973
999.977
999.981
999.984
999.987
999.989
999.991
999.993
999.994
999.995
999.996
999.997
999.998
999.999
999.999
999.999
999.999
1000
1000
1000
1000
1000
1000
1000
1000
1000
1000
1000
1000
1000
1000
1000
1000
998.022
998.075
998.132
998.189
998.246
998.302
998.358
998.414
998.469
998.523
998.576
998.628
998.68
998.731
998.781
998.83
998.878
998.925
998.971
999.017
999.061
999.105
999.147
999.188
999.229
999.268
999.306
999.344
999.38
999.415
999.449
999.482
999.513
999.544
999.573
999.601
999.628
999.654
999.679
999.702
999.724
999.746
999.766
999.785
999.803
999.82
999.836
999.851
999.864
999.877
999.89
999.901
999.911
999.921
999.929
999.937
999.945
999.951
999.958
999.963
999.968
999.972
999.976
999.98
999.983
999.985
999.988
999.99
999.992
999.993
999.994
999.995
999.996
999.997
999.998
999.998
999.999
999.999
999.999
999.999
1000
1000
1000
1000
1000
1000
1000
1000
1000
1000
1000
1000
1000
1000
1000
1000
1000
1000
1000
1000
998.588
998.632
998.677
998.722
998.767
998.812
998.855
998.899
998.941
998.983
999.024
999.064
999.103
999.141
999.179
999.216
999.252
999.287
999.321
999.354
999.387
999.418
999.449
999.478
999.507
999.535
999.562
999.588
999.613
999.637
999.66
999.682
999.704
999.724
999.743
999.762
999.779
999.796
999.812
999.827
999.841
999.854
999.867
999.879
999.89
999.9
999.909
999.918
999.926
999.934
999.941
999.948
999.953
999.959
999.964
999.968
999.972
999.976
999.979
999.982
999.985
999.987
999.989
999.991
999.992
999.993
999.995
999.996
999.996
999.997
999.998
999.998
999.999
999.999
999.999
999.999
1000
1000
1000
1000
1000
1000
1000
1000
1000
1000
1000
1000
1000
1000
1000
1000
1000
1000
1000
1000
1000
1000
1000
1000
999.092
999.125
999.158
999.19
999.223
999.254
999.285
999.316
999.345
999.374
999.403
999.43
999.457
999.483
999.509
999.533
999.557
999.58
999.603
999.624
999.645
999.666
999.685
999.704
999.722
999.739
999.756
999.772
999.787
999.802
999.815
999.828
999.841
999.853
999.864
999.875
999.885
999.894
999.903
999.911
999.919
999.926
999.933
999.939
999.945
999.951
999.956
999.96
999.965
999.968
999.972
999.975
999.978
999.981
999.983
999.985
999.987
999.989
999.991
999.992
999.993
999.994
999.995
999.996
999.997
999.997
999.998
999.998
999.998
999.999
999.999
999.999
999.999
1000
1000
1000
1000
1000
1000
1000
1000
1000
1000
1000
1000
1000
1000
1000
1000
1000
1000
1000
1000
1000
1000
1000
1000
1000
1000
1000
944.555
944.555
944.555
944.555
944.555
944.555
944.555
944.555
944.555
944.555
944.555
944.555
944.555
944.555
944.555
944.555
944.555
944.555
944.555
944.555
944.555
944.555
944.555
944.555
944.555
944.555
944.555
944.555
944.555
944.555
944.555
944.555
944.555
944.555
944.555
944.555
944.555
944.555
944.555
944.555
944.555
944.555
944.555
944.555
944.555
944.555
944.555
944.555
944.555
944.555
944.555
944.555
944.555
944.555
944.555
944.555
944.555
944.555
944.555
944.555
944.555
944.555
944.555
944.555
944.555
944.555
944.555
944.555
944.555
944.555
944.555
944.555
944.555
944.555
944.555
944.555
944.555
944.555
944.555
944.555
944.555
944.555
944.555
944.555
944.555
944.555
944.555
944.555
944.555
944.555
944.555
944.555
944.555
944.555
944.555
944.555
944.555
944.556
944.558
944.567
944.555
944.555
944.555
944.555
944.555
944.555
944.555
944.555
944.555
944.555
944.555
944.556
944.556
944.556
944.557
944.559
944.564
944.574
944.605
944.75
944.558
944.559
944.56
944.561
944.562
944.564
944.565
944.566
944.567
944.567
944.567
944.568
944.569
944.572
944.579
944.594
944.628
944.718
945.029
946.783
944.673
944.686
944.7
944.715
944.73
944.741
944.747
944.745
944.737
944.727
944.717
944.709
944.706
944.712
944.738
944.808
944.976
945.433
947.086
957.956
946.448
946.529
946.604
946.673
946.723
946.718
946.676
946.594
946.509
946.412
946.309
946.193
946.078
945.971
945.956
946.105
946.598
947.805
951.06
976.639
959.245
959.41
959.564
959.694
959.765
959.699
959.581
959.449
959.28
959.039
958.744
958.337
957.863
957.211
956.636
956.28
956.757
958.43
962.558
977.474
991.612
991.51
991.434
991.381
991.385
991.54
991.742
991.95
992.167
992.42
992.693
993.029
993.392
993.855
994.13
994.101
993.431
992.2
990.331
987.151
999.085
999.044
999.007
998.973
998.951
998.96
998.989
999.043
999.097
999.157
999.216
999.285
999.348
999.419
999.458
999.453
999.365
999.164
998.621
992.906
999.953
999.947
999.942
999.935
999.928
999.923
999.921
999.922
999.926
999.933
999.939
999.945
999.95
999.954
999.954
999.948
999.928
999.866
999.581
996.89
999.999
999.999
999.998
999.998
999.997
999.997
999.996
999.996
999.996
999.996
999.996
999.997
999.997
999.997
999.996
999.994
999.99
999.977
999.916
999.393
1000
1000
1000
1000
1000
1000
1000
1000
1000
1000
1000
1000
1000
1000
1000
1000
999.999
999.998
999.996
999.988
1000
1000
1000
1000
1000
1000
1000
1000
1000
1000
1000
1000
1000
1000
1000
1000
1000
1000
1000
1000
1000
1000
1000
1000
1000
1000
1000
1000
1000
1000
1000
1000
1000
1000
1000
1000
1000
1000
1000
1000
1000
1000
1000
1000
1000
1000
1000
1000
1000
1000
1000
1000
1000
1000
1000
1000
1000
1000
1000
1000
1000
1000
1000
1000
1000
1000
1000
1000
1000
1000
1000
1000
1000
1000
1000
1000
1000
1000
1000
1000
1000
1000
1000
1000
1000
1000
1000
1000
1000
1000
1000
1000
1000
1000
1000
1000
1000
1000
1000
1000
944.555
944.555
944.555
944.555
944.555
944.555
944.555
944.555
944.555
944.555
944.555
944.555
944.555
944.555
944.555
944.555
944.555
944.555
944.555
944.555
944.555
944.555
944.555
944.555
944.555
944.555
944.555
944.555
944.555
944.555
944.555
944.555
944.555
944.555
944.555
944.555
944.555
944.555
944.555
944.555
944.555
944.555
944.555
944.555
944.555
944.555
944.555
944.555
944.555
944.555
944.555
944.555
944.555
944.555
944.555
944.555
944.555
944.555
944.555
944.555
944.555
944.555
944.555
944.555
944.555
944.555
944.555
944.555
944.555
944.555
944.555
944.555
944.555
944.555
944.555
944.555
944.555
944.555
944.555
944.555
944.555
944.555
944.555
944.555
944.555
944.555
944.555
944.555
944.555
944.555
944.555
944.555
944.555
944.555
944.555
944.555
944.555
944.555
944.555
944.555
944.555
944.555
944.555
944.555
944.555
944.555
944.555
944.555
944.555
944.555
944.555
944.555
944.555
944.555
944.555
944.555
944.555
944.555
944.555
944.555
944.555
944.555
944.555
944.555
944.555
944.555
944.555
944.555
944.555
944.555
944.555
944.555
944.555
944.555
944.555
944.555
944.555
944.555
944.555
944.555
944.555
944.555
944.555
944.555
944.555
944.555
944.555
944.555
944.555
944.555
944.555
944.555
944.555
944.555
944.555
944.555
944.555
944.555
944.555
944.555
944.555
944.555
944.555
944.555
944.555
944.555
944.555
944.555
944.555
944.555
944.555
944.555
944.555
944.555
944.555
944.555
944.555
944.555
944.555
944.555
944.555
944.555
944.555
944.555
944.555
944.555
944.555
944.555
944.555
944.555
944.555
944.555
944.555
944.555
944.555
944.555
944.555
944.555
944.555
944.555
944.555
944.555
944.555
944.555
944.555
944.555
944.555
944.555
944.555
944.555
944.555
944.555
944.555
944.555
944.555
944.555
944.555
944.555
944.555
944.555
944.555
944.555
944.555
944.555
944.555
944.555
944.555
944.555
944.555
944.555
944.555
944.555
944.555
944.555
944.555
944.555
944.555
944.555
944.555
944.555
944.555
944.555
944.555
944.555
944.555
944.555
944.555
944.555
944.555
944.555
944.555
944.555
944.555
944.555
944.555
944.555
944.555
944.555
944.555
944.555
944.555
944.555
944.555
944.555
944.555
944.555
944.555
944.555
944.555
944.555
944.555
944.555
944.555
944.555
944.555
944.555
944.555
944.555
944.555
944.555
944.555
944.555
944.555
944.555
944.555
944.555
944.555
944.555
944.555
944.555
944.555
944.555
944.555
944.555
944.555
944.555
944.555
944.555
944.555
944.555
944.555
944.555
944.555
944.555
944.555
944.555
944.555
944.555
944.555
944.555
944.555
944.555
944.555
944.555
944.555
944.555
944.555
944.555
944.555
944.555
944.555
944.555
944.555
944.555
944.555
944.555
944.555
944.555
944.555
944.555
944.555
944.555
944.555
944.555
944.555
944.555
944.555
944.555
944.555
944.555
944.555
944.555
944.555
944.555
944.555
944.555
944.555
944.555
944.555
944.555
944.555
944.555
944.555
944.555
944.555
944.555
944.555
944.555
944.555
944.555
944.555
944.555
944.555
944.555
944.555
944.555
944.555
944.555
944.555
944.555
944.555
944.555
944.555
944.555
944.555
944.555
944.555
944.555
944.555
944.555
944.555
944.555
944.555
944.555
944.555
944.555
944.555
944.555
944.555
944.555
944.555
944.555
944.555
944.555
944.555
944.555
944.555
944.555
944.555
944.555
944.555
944.555
944.555
944.555
944.555
944.555
944.555
944.555
944.555
944.555
944.555
944.555
944.555
944.555
944.555
944.555
944.555
944.555
944.555
944.555
944.555
944.555
944.555
944.555
944.555
944.555
944.555
944.555
944.555
944.555
944.555
944.555
944.555
944.555
944.555
944.555
944.555
944.555
944.555
944.555
944.555
944.555
944.555
944.555
944.555
944.555
944.555
944.555
944.555
944.555
944.555
944.555
944.555
944.555
944.555
944.555
944.555
944.555
944.555
944.555
944.555
944.555
944.555
944.555
944.555
944.555
944.555
944.555
944.555
944.555
944.555
944.555
944.555
944.555
944.555
944.555
944.555
944.555
944.555
944.555
944.555
944.555
944.555
944.555
944.555
944.555
944.555
944.555
944.555
944.555
944.555
944.555
944.555
944.555
944.555
944.555
944.555
944.555
944.555
944.555
944.555
944.555
944.555
944.555
944.555
944.555
944.555
944.555
944.555
944.555
944.555
944.555
944.555
944.555
944.555
944.555
944.555
944.555
944.555
944.555
944.555
944.555
944.555
944.555
944.555
944.555
944.555
944.555
944.555
944.555
944.555
944.555
944.555
944.555
944.555
944.555
944.555
944.555
944.555
944.555
944.555
944.555
944.555
944.555
944.555
944.555
944.555
944.555
944.555
944.555
944.555
944.555
944.555
944.555
944.555
944.555
944.555
944.555
944.555
944.555
944.555
944.555
944.555
944.555
944.555
944.555
944.555
944.555
944.555
944.555
944.555
944.555
944.555
944.555
944.555
944.555
944.555
944.555
944.555
944.555
944.555
944.555
944.555
944.555
944.555
944.555
944.555
944.555
944.555
944.555
944.555
944.555
944.555
944.555
944.555
944.555
944.555
944.555
944.555
944.555
944.555
944.555
944.555
944.555
944.555
944.555
944.555
944.555
944.555
944.555
944.555
944.555
944.555
944.555
944.555
944.555
944.555
944.555
944.555
944.555
944.555
944.555
944.555
944.555
944.555
944.555
944.555
944.555
944.555
944.555
944.555
944.555
944.555
944.555
944.555
944.555
944.555
944.555
944.555
944.555
944.555
944.555
944.555
944.555
944.555
944.555
944.555
944.555
944.555
944.555
944.555
944.555
944.555
944.555
944.555
944.555
944.555
944.555
944.555
944.555
944.555
944.555
944.555
944.555
944.555
944.555
944.555
944.555
944.555
944.555
944.555
944.555
944.555
944.555
944.555
944.555
944.555
944.555
944.555
944.555
944.555
944.555
944.555
944.555
944.555
944.555
944.555
944.555
944.555
944.555
944.555
944.555
944.555
944.555
944.555
944.555
944.555
944.555
944.555
944.555
944.555
944.555
944.555
944.555
944.555
944.555
944.555
944.555
944.555
944.555
944.555
944.555
944.555
944.555
944.555
944.555
944.555
944.555
944.555
944.555
944.555
944.555
944.555
944.555
944.555
944.555
944.555
944.555
944.555
944.555
944.555
944.555
944.555
944.555
944.555
944.555
944.555
944.555
944.555
944.555
944.555
944.555
944.555
944.555
944.555
944.555
944.555
944.555
944.555
944.555
944.555
944.555
944.555
944.555
944.555
944.555
944.555
944.555
944.555
944.555
944.555
944.555
944.555
944.555
944.555
944.555
944.555
944.555
944.555
944.555
944.555
944.555
944.555
944.555
944.555
944.555
944.555
944.555
944.555
944.555
944.555
944.555
944.555
944.555
944.555
944.555
944.555
944.555
944.555
944.555
944.555
944.555
944.555
944.555
944.555
944.555
944.555
944.555
944.555
944.555
944.555
944.555
944.555
944.555
944.555
944.555
944.555
944.555
944.555
944.555
944.555
944.555
944.555
944.555
944.555
944.555
944.555
944.555
944.555
944.555
944.555
944.555
944.555
944.555
944.555
944.555
944.555
944.555
944.555
944.555
944.555
944.555
944.555
944.555
944.555
944.555
944.555
944.555
944.555
944.555
944.555
944.555
944.555
944.555
944.555
944.555
944.555
944.555
944.555
944.555
944.555
944.555
944.555
944.555
944.555
944.555
944.555
944.555
944.555
944.555
944.555
944.555
944.555
944.555
944.555
944.555
944.555
944.555
944.555
944.555
944.555
944.555
944.555
944.555
944.555
944.555
944.555
944.555
944.555
944.555
944.555
944.555
944.555
944.555
944.555
944.555
944.555
944.555
944.555
944.555
944.555
944.555
944.555
944.555
944.555
944.555
944.555
944.555
944.555
944.555
944.555
944.555
944.555
944.555
944.555
944.555
944.555
944.555
944.555
944.555
944.555
944.555
944.555
944.555
944.555
944.555
944.555
944.555
944.555
944.555
944.555
944.555
944.555
944.555
944.555
944.555
944.555
944.555
944.555
944.555
944.555
944.555
944.555
944.555
944.555
944.555
944.555
944.555
944.555
944.555
944.555
944.555
944.555
944.555
944.555
944.555
944.555
944.555
944.555
944.555
944.555
944.555
944.555
944.555
944.555
944.555
944.555
944.555
944.555
944.555
944.555
944.555
944.555
944.555
944.555
944.555
944.555
944.555
944.555
944.555
944.555
944.555
944.555
944.555
944.555
944.555
944.555
944.555
944.555
944.555
944.555
944.555
944.555
944.555
944.555
944.555
944.555
944.555
944.555
944.555
944.555
944.555
944.555
944.555
944.555
944.555
944.555
944.555
944.555
944.555
944.555
944.555
944.555
944.555
944.555
944.555
944.555
944.555
944.555
944.555
944.555
944.555
944.555
944.555
944.555
944.555
944.555
944.555
944.555
944.555
944.555
944.555
944.555
944.555
944.555
944.555
944.555
944.555
944.555
944.555
944.555
944.555
944.555
944.555
944.555
944.555
944.555
944.555
944.555
944.555
944.555
944.555
944.555
944.555
944.555
944.555
944.555
944.555
944.555
944.555
944.555
944.555
944.555
944.555
944.555
944.555
944.555
944.555
944.555
944.555
944.555
944.555
944.555
944.555
944.555
944.555
944.555
944.555
944.555
944.555
944.555
944.555
944.555
944.555
944.555
944.555
944.555
944.555
944.555
944.555
944.555
944.555
944.555
944.555
944.555
944.555
944.555
944.555
944.555
944.555
944.555
944.555
944.555
944.555
944.555
944.555
944.555
944.555
944.555
944.555
944.555
944.555
944.555
944.555
944.555
944.555
944.555
944.555
944.555
944.555
944.555
944.555
944.555
944.555
944.555
944.555
944.555
944.555
944.555
944.555
944.555
944.555
944.555
944.555
944.555
944.555
944.555
944.555
944.555
944.555
944.555
944.555
944.555
944.555
944.555
944.555
944.555
944.555
944.555
944.555
944.555
944.555
944.555
944.555
944.555
944.555
944.555
944.555
944.555
944.555
944.555
944.555
944.555
944.555
944.555
944.555
944.555
944.555
944.555
944.555
944.555
944.555
944.555
944.555
944.555
944.555
944.555
944.555
944.555
944.555
944.555
944.555
944.555
944.555
944.555
944.555
944.555
944.555
944.555
944.555
944.555
944.555
944.555
944.555
944.555
944.555
944.555
944.555
944.555
944.555
944.555
944.555
944.555
944.555
944.555
944.555
944.555
944.555
944.555
944.555
944.555
944.555
944.555
944.555
944.555
944.555
944.555
944.555
944.555
944.555
944.555
944.555
944.555
944.555
944.555
944.555
944.555
944.555
944.555
944.555
944.555
944.555
944.555
944.555
944.555
944.555
944.555
944.555
944.555
944.555
944.555
944.555
944.555
944.555
944.555
944.555
944.555
944.555
944.555
944.555
944.555
944.555
944.555
944.555
944.555
944.555
944.555
944.555
944.555
944.555
944.555
944.555
944.555
944.555
944.555
944.555
944.555
944.555
944.555
944.555
944.555
944.555
944.555
944.555
944.555
944.555
944.555
944.555
944.555
944.555
944.555
944.555
944.555
944.555
944.555
944.555
944.555
944.555
944.555
944.555
944.555
944.555
944.555
944.555
944.555
944.555
944.555
944.555
944.555
944.555
944.555
944.555
944.555
944.555
944.555
944.555
944.555
944.555
944.555
944.555
944.555
944.555
944.555
944.555
944.555
944.555
944.555
944.555
944.555
944.555
944.555
944.555
944.555
944.555
944.555
944.555
944.555
944.555
944.555
944.555
944.555
944.555
944.555
944.555
944.555
944.555
944.555
944.555
944.555
944.555
944.555
944.555
944.555
944.555
944.555
944.555
944.555
944.555
944.555
944.555
944.555
944.555
944.555
944.555
944.555
944.555
944.555
944.555
944.555
944.555