/*--------------------------------*- C++ -*----------------------------------*\
| =========                 |                                                 |
| \\      /  F ield         | OpenFOAM: The Open Source CFD Toolbox           |
|  \\    /   O peration     | Version:  2.1.0                                 |
|   \\  /    A nd           | Web:      www.OpenFOAM.org                      |
|    \\/     M anipulation  |                                                 |
\*---------------------------------------------------------------------------*/
FoamFile
{
    version     2.0;
    format      ascii;
    class       volScalarField;
    location    "0.51";
    object      T;
}
// * * * * * * * * * * * * * * * * * * * * * * * * * * * * * * * * * * * * * //

dimensions      [0 0 0 1 0 0 0];

internalField   nonuniform List<scalar> 
6400
(
390.835
390.908
390.98
391.052
391.123
391.192
391.26
391.326
391.391
391.454
391.516
391.576
391.634
391.691
391.747
391.8
391.853
391.903
391.952
392
392.046
392.09
392.133
392.174
392.214
392.252
392.289
392.324
392.358
392.39
392.421
392.45
392.478
392.504
392.53
392.554
392.576
392.598
392.618
392.637
392.654
392.671
392.687
392.701
392.715
392.727
392.739
392.749
392.759
392.768
392.776
392.783
392.789
392.795
392.8
392.804
392.808
392.811
392.814
392.816
392.817
392.818
392.819
392.819
392.819
392.818
392.817
392.815
392.813
392.811
392.808
392.805
392.801
392.797
392.792
392.787
392.781
392.774
392.766
392.758
392.749
392.738
392.725
392.711
392.694
392.673
392.646
392.612
392.565
392.497
392.392
392.209
391.862
391.169
390.299
392.246
393.125
393.15
393.15
393.15
389.959
390.05
390.145
390.239
390.333
390.425
390.516
390.606
390.694
390.78
390.865
390.949
391.03
391.11
391.188
391.264
391.339
391.412
391.483
391.553
391.62
391.686
391.75
391.812
391.872
391.931
391.987
392.042
392.094
392.145
392.194
392.241
392.286
392.329
392.37
392.41
392.448
392.484
392.518
392.55
392.581
392.61
392.638
392.663
392.688
392.71
392.732
392.752
392.77
392.787
392.803
392.818
392.832
392.844
392.856
392.866
392.876
392.884
392.892
392.899
392.905
392.911
392.916
392.921
392.925
392.928
392.931
392.934
392.937
392.939
392.941
392.942
392.944
392.945
392.946
392.947
392.948
392.949
392.949
392.949
392.95
392.95
392.949
392.949
392.949
392.948
392.947
392.946
392.944
392.944
392.945
392.949
392.961
392.989
393.042
393.113
393.148
393.15
393.15
393.15
388.909
389.018
389.133
389.25
389.366
389.481
389.595
389.708
389.82
389.93
390.038
390.145
390.25
390.353
390.455
390.554
390.652
390.749
390.843
390.935
391.026
391.115
391.202
391.286
391.369
391.45
391.529
391.606
391.68
391.753
391.823
391.891
391.956
392.019
392.08
392.139
392.196
392.25
392.302
392.352
392.399
392.444
392.488
392.528
392.567
392.604
392.639
392.672
392.702
392.731
392.758
392.784
392.807
392.829
392.85
392.869
392.886
392.902
392.917
392.931
392.944
392.955
392.966
392.975
392.984
392.993
393
393.007
393.014
393.02
393.026
393.031
393.036
393.041
393.046
393.051
393.056
393.061
393.066
393.07
393.075
393.081
393.086
393.091
393.096
393.102
393.107
393.112
393.118
393.123
393.128
393.134
393.138
393.143
393.146
393.148
393.15
393.15
393.15
393.15
387.425
387.553
387.69
387.829
387.97
388.111
388.252
388.391
388.53
388.667
388.802
388.937
389.069
389.201
389.33
389.458
389.584
389.709
389.831
389.952
390.071
390.188
390.303
390.416
390.528
390.637
390.744
390.849
390.951
391.052
391.15
391.246
391.339
391.43
391.518
391.604
391.688
391.768
391.847
391.922
391.995
392.065
392.133
392.198
392.26
392.32
392.377
392.431
392.482
392.531
392.578
392.622
392.663
392.702
392.739
392.773
392.805
392.835
392.863
392.889
392.913
392.935
392.956
392.975
392.992
393.008
393.022
393.036
393.048
393.059
393.069
393.078
393.086
393.094
393.101
393.107
393.113
393.118
393.123
393.127
393.13
393.134
393.137
393.139
393.141
393.143
393.145
393.146
393.147
393.148
393.149
393.149
393.149
393.15
393.15
393.15
393.15
393.15
393.15
393.15
385.273
385.418
385.576
385.738
385.903
386.069
386.235
386.401
386.567
386.731
386.895
387.058
387.219
387.38
387.54
387.698
387.855
388.01
388.165
388.318
388.469
388.619
388.767
388.913
389.057
389.2
389.341
389.48
389.617
389.752
389.886
390.017
390.146
390.273
390.398
390.521
390.642
390.76
390.875
390.988
391.098
391.206
391.311
391.413
391.512
391.609
391.702
391.792
391.879
391.963
392.044
392.121
392.196
392.267
392.335
392.399
392.46
392.518
392.573
392.625
392.673
392.718
392.761
392.8
392.836
392.87
392.901
392.93
392.956
392.979
393.001
393.02
393.038
393.053
393.067
393.08
393.091
393.1
393.108
393.116
393.122
393.127
393.132
393.136
393.139
393.142
393.144
393.146
393.147
393.148
393.149
393.149
393.15
393.15
393.15
393.15
393.15
393.15
393.15
393.15
382.029
382.19
382.363
382.543
382.725
382.91
383.095
383.281
383.467
383.653
383.839
384.024
384.209
384.394
384.578
384.762
384.945
385.128
385.311
385.493
385.674
385.855
386.035
386.214
386.393
386.57
386.747
386.923
387.097
387.271
387.444
387.615
387.786
387.955
388.123
388.29
388.456
388.62
388.783
388.944
389.103
389.261
389.417
389.57
389.722
389.872
390.019
390.164
390.307
390.446
390.583
390.718
390.849
390.977
391.101
391.223
391.34
391.455
391.565
391.671
391.774
391.872
391.967
392.057
392.143
392.225
392.302
392.376
392.445
392.51
392.571
392.628
392.682
392.731
392.777
392.819
392.858
392.894
392.927
392.957
392.984
393.009
393.031
393.051
393.069
393.085
393.099
393.111
393.121
393.13
393.137
393.142
393.146
393.148
393.149
393.149
393.149
393.15
393.15
393.15
377.083
377.25
377.427
377.611
377.797
377.987
378.177
378.368
378.559
378.75
378.941
379.133
379.324
379.516
379.708
379.901
380.094
380.287
380.481
380.676
380.872
381.068
381.266
381.465
381.664
381.863
382.062
382.261
382.46
382.66
382.859
383.059
383.258
383.458
383.658
383.859
384.059
384.26
384.461
384.662
384.864
385.066
385.269
385.471
385.674
385.878
386.081
386.285
386.489
386.693
386.898
387.102
387.306
387.51
387.713
387.916
388.118
388.32
388.52
388.719
388.916
389.111
389.304
389.494
389.681
389.866
390.047
390.224
390.398
390.567
390.732
390.892
391.048
391.199
391.345
391.486
391.622
391.752
391.878
391.998
392.114
392.223
392.328
392.428
392.522
392.612
392.696
392.775
392.848
392.915
392.973
393.023
393.063
393.093
393.112
393.123
393.131
393.137
393.141
393.143
369.904
370.06
370.223
370.391
370.56
370.731
370.901
371.073
371.243
371.414
371.583
371.753
371.922
372.091
372.259
372.428
372.596
372.765
372.933
373.102
373.271
373.441
373.611
373.782
373.953
374.126
374.298
374.471
374.645
374.82
374.996
375.173
375.352
375.532
375.713
375.897
376.082
376.269
376.459
376.651
376.846
377.044
377.245
377.449
377.656
377.867
378.081
378.299
378.521
378.747
378.978
379.213
379.452
379.696
379.944
380.198
380.456
380.719
380.987
381.259
381.536
381.818
382.104
382.395
382.69
382.988
383.291
383.597
383.907
384.22
384.536
384.854
385.175
385.498
385.823
386.149
386.477
386.807
387.138
387.47
387.804
388.14
388.479
388.821
389.167
389.515
389.867
390.22
390.573
390.923
391.265
391.592
391.895
392.164
392.386
392.549
392.683
392.79
392.871
392.923
359.848
359.959
360.072
360.187
360.301
360.416
360.528
360.641
360.751
360.86
360.967
361.074
361.178
361.282
361.383
361.483
361.581
361.679
361.775
361.87
361.963
362.056
362.146
362.237
362.327
362.419
362.512
362.606
362.701
362.799
362.898
363
363.103
363.21
363.319
363.431
363.546
363.665
363.787
363.912
364.042
364.175
364.311
364.452
364.598
364.747
364.901
365.06
365.224
365.392
365.566
365.745
365.929
366.12
366.316
366.519
366.728
366.944
367.167
367.396
367.633
367.878
368.13
368.39
368.659
368.937
369.224
369.52
369.826
370.143
370.471
370.81
371.16
371.524
371.9
372.291
372.7
373.127
373.572
374.037
374.524
375.032
375.568
376.136
376.74
377.383
378.071
378.81
379.603
380.455
381.364
382.328
383.339
384.383
385.44
386.461
387.358
388.181
388.887
389.413
346.611
346.641
346.67
346.699
346.727
346.754
346.781
346.807
346.831
346.856
346.879
346.902
346.924
346.946
346.967
346.988
347.009
347.029
347.05
347.071
347.092
347.114
347.136
347.159
347.183
347.208
347.234
347.261
347.289
347.319
347.349
347.381
347.413
347.447
347.482
347.519
347.556
347.595
347.634
347.675
347.717
347.76
347.804
347.849
347.894
347.941
347.989
348.038
348.087
348.138
348.189
348.242
348.295
348.35
348.406
348.463
348.521
348.581
348.643
348.706
348.771
348.838
348.907
348.978
349.053
349.13
349.21
349.293
349.381
349.473
349.57
349.673
349.782
349.898
350.022
350.153
350.293
350.443
350.605
350.78
350.973
351.186
351.418
351.673
351.953
352.259
352.596
352.966
353.393
353.891
354.475
355.157
355.954
356.887
357.983
359.28
360.774
362.334
363.843
365.083
332.562
332.507
332.454
332.402
332.352
332.302
332.255
332.208
332.164
332.12
332.078
332.037
331.998
331.958
331.921
331.883
331.847
331.811
331.776
331.741
331.706
331.67
331.636
331.6
331.564
331.528
331.491
331.452
331.414
331.374
331.333
331.29
331.247
331.201
331.155
331.106
331.056
331.004
330.951
330.895
330.838
330.778
330.716
330.653
330.587
330.518
330.448
330.375
330.299
330.221
330.139
330.055
329.968
329.878
329.784
329.687
329.585
329.479
329.368
329.252
329.13
329.001
328.865
328.722
328.571
328.41
328.241
328.061
327.87
327.666
327.45
327.219
326.973
326.71
326.429
326.128
325.807
325.463
325.095
324.703
324.284
323.837
323.361
322.856
322.321
321.756
321.16
320.534
319.859
319.122
318.313
317.424
316.464
315.429
314.312
313.113
311.838
310.517
309.217
308.075
321.205
321.086
320.966
320.844
320.723
320.601
320.481
320.36
320.242
320.123
320.006
319.889
319.774
319.658
319.545
319.43
319.318
319.204
319.092
318.98
318.868
318.755
318.643
318.529
318.416
318.302
318.187
318.071
317.955
317.836
317.717
317.595
317.473
317.348
317.221
317.092
316.961
316.827
316.691
316.552
316.41
316.264
316.115
315.963
315.806
315.646
315.482
315.313
315.139
314.961
314.778
314.59
314.397
314.198
313.994
313.784
313.568
313.345
313.115
312.877
312.63
312.375
312.11
311.836
311.551
311.255
310.947
310.626
310.293
309.945
309.583
309.205
308.811
308.4
307.972
307.527
307.063
306.581
306.08
305.561
305.025
304.473
303.905
303.324
302.731
302.129
301.522
300.912
300.303
299.702
299.114
298.54
297.966
297.402
296.856
296.338
295.855
295.422
295.058
294.787
312.736
312.589
312.435
312.276
312.117
311.955
311.794
311.631
311.47
311.307
311.145
310.983
310.822
310.66
310.498
310.336
310.174
310.012
309.85
309.688
309.525
309.362
309.198
309.034
308.869
308.703
308.537
308.369
308.201
308.031
307.861
307.689
307.515
307.34
307.164
306.986
306.806
306.624
306.44
306.254
306.066
305.875
305.682
305.487
305.289
305.088
304.885
304.679
304.469
304.257
304.042
303.823
303.601
303.376
303.147
302.915
302.679
302.44
302.196
301.949
301.698
301.443
301.185
300.922
300.656
300.386
300.113
299.836
299.556
299.272
298.986
298.698
298.407
298.115
297.822
297.529
297.236
296.944
296.655
296.369
296.088
295.813
295.546
295.288
295.041
294.805
294.583
294.377
294.187
294.016
293.864
293.733
293.625
293.532
293.452
293.384
293.329
293.285
293.253
293.232
306.599
306.449
306.29
306.125
305.958
305.788
305.618
305.447
305.275
305.104
304.933
304.761
304.59
304.418
304.247
304.075
303.904
303.732
303.56
303.388
303.216
303.043
302.871
302.697
302.524
302.35
302.176
302.001
301.826
301.65
301.475
301.298
301.122
300.945
300.767
300.589
300.411
300.233
300.054
299.876
299.697
299.518
299.339
299.16
298.981
298.803
298.625
298.447
298.27
298.094
297.918
297.742
297.568
297.395
297.222
297.051
296.881
296.713
296.546
296.381
296.218
296.057
295.898
295.742
295.589
295.439
295.291
295.148
295.007
294.871
294.738
294.61
294.486
294.366
294.252
294.142
294.037
293.938
293.844
293.756
293.674
293.598
293.529
293.466
293.409
293.359
293.316
293.279
293.248
293.222
293.202
293.187
293.176
293.169
293.164
293.159
293.156
293.154
293.153
293.152
302.443
302.303
302.153
301.997
301.838
301.677
301.516
301.354
301.193
301.031
300.87
300.709
300.549
300.389
300.23
300.071
299.912
299.754
299.597
299.44
299.283
299.127
298.972
298.817
298.663
298.51
298.357
298.205
298.054
297.904
297.755
297.607
297.459
297.313
297.169
297.025
296.883
296.743
296.604
296.466
296.331
296.197
296.066
295.936
295.809
295.684
295.561
295.441
295.324
295.209
295.097
294.987
294.881
294.778
294.678
294.581
294.487
294.397
294.31
294.226
294.146
294.069
293.996
293.926
293.86
293.797
293.738
293.681
293.629
293.579
293.533
293.49
293.45
293.413
293.379
293.348
293.319
293.294
293.27
293.25
293.232
293.216
293.202
293.191
293.181
293.173
293.167
293.162
293.158
293.155
293.153
293.152
293.151
293.151
293.15
293.15
293.15
293.15
293.15
293.15
299.702
299.578
299.443
299.304
299.162
299.02
298.877
298.735
298.593
298.452
298.311
298.172
298.033
297.896
297.759
297.624
297.489
297.356
297.224
297.093
296.964
296.836
296.709
296.584
296.46
296.338
296.218
296.099
295.983
295.868
295.754
295.643
295.534
295.427
295.321
295.218
295.117
295.019
294.923
294.829
294.738
294.649
294.563
294.479
294.399
294.321
294.245
294.173
294.103
294.036
293.972
293.911
293.853
293.798
293.745
293.695
293.648
293.604
293.562
293.523
293.487
293.453
293.422
293.392
293.366
293.341
293.318
293.297
293.279
293.261
293.246
293.232
293.22
293.209
293.199
293.191
293.183
293.177
293.172
293.167
293.163
293.16
293.157
293.155
293.154
293.153
293.152
293.151
293.151
293.15
293.15
293.15
293.15
293.15
293.15
293.15
293.15
293.15
293.15
293.15
297.844
297.736
297.62
297.502
297.382
297.262
297.143
297.024
296.906
296.79
296.674
296.56
296.447
296.336
296.226
296.117
296.01
295.904
295.8
295.698
295.597
295.498
295.4
295.305
295.211
295.119
295.029
294.94
294.854
294.77
294.688
294.608
294.53
294.454
294.381
294.31
294.241
294.175
294.11
294.049
293.989
293.932
293.878
293.826
293.776
293.728
293.683
293.641
293.6
293.562
293.526
293.492
293.461
293.431
293.404
293.378
293.355
293.333
293.313
293.294
293.277
293.262
293.248
293.235
293.224
293.214
293.205
293.197
293.189
293.183
293.178
293.173
293.169
293.165
293.162
293.16
293.158
293.156
293.155
293.153
293.153
293.152
293.151
293.151
293.151
293.15
293.15
293.15
293.15
293.15
293.15
293.15
293.15
293.15
293.15
293.15
293.15
293.15
293.15
293.15
296.526
296.435
296.339
296.241
296.144
296.047
295.951
295.856
295.763
295.67
295.579
295.49
295.402
295.315
295.23
295.146
295.064
294.983
294.904
294.827
294.751
294.677
294.604
294.534
294.465
294.398
294.332
294.269
294.207
294.147
294.089
294.033
293.979
293.927
293.877
293.829
293.784
293.74
293.698
293.658
293.62
293.583
293.549
293.517
293.486
293.457
293.43
293.405
293.381
293.359
293.338
293.319
293.302
293.285
293.27
293.257
293.244
293.233
293.222
293.213
293.205
293.197
293.191
293.185
293.179
293.175
293.171
293.167
293.164
293.162
293.16
293.158
293.156
293.155
293.154
293.153
293.152
293.152
293.151
293.151
293.151
293.15
293.15
293.15
293.15
293.15
293.15
293.15
293.15
293.15
293.15
293.15
293.15
293.15
293.15
293.15
293.15
293.15
293.15
293.15
295.558
295.484
295.407
295.33
295.253
295.177
295.102
295.028
294.956
294.885
294.815
294.747
294.68
294.614
294.55
294.487
294.426
294.366
294.308
294.251
294.196
294.142
294.09
294.039
293.99
293.943
293.897
293.852
293.81
293.769
293.729
293.691
293.655
293.62
293.587
293.556
293.526
293.498
293.471
293.445
293.421
293.398
293.377
293.357
293.338
293.321
293.304
293.289
293.275
293.262
293.25
293.239
293.229
293.22
293.212
293.204
293.197
293.191
293.186
293.181
293.176
293.172
293.169
293.166
293.163
293.161
293.159
293.158
293.156
293.155
293.154
293.153
293.152
293.152
293.151
293.151
293.151
293.151
293.15
293.15
293.15
293.15
293.15
293.15
293.15
293.15
293.15
293.15
293.15
293.15
293.15
293.15
293.15
293.15
293.15
293.15
293.15
293.15
293.15
293.15
294.698
294.642
294.586
294.53
294.475
294.421
294.368
294.316
294.266
294.216
294.168
294.121
294.075
294.031
293.988
293.946
293.905
293.865
293.827
293.79
293.754
293.72
293.687
293.655
293.624
293.594
293.566
293.539
293.513
293.488
293.465
293.442
293.421
293.401
293.382
293.364
293.347
293.33
293.315
293.301
293.288
293.276
293.264
293.253
293.243
293.234
293.225
293.218
293.21
293.204
293.198
293.192
293.187
293.183
293.178
293.175
293.171
293.169
293.166
293.164
293.162
293.16
293.158
293.157
293.156
293.155
293.154
293.153
293.153
293.152
293.152
293.151
293.151
293.151
293.151
293.15
293.15
293.15
293.15
293.15
293.15
293.15
293.15
293.15
293.15
293.15
293.15
293.15
293.15
293.15
293.15
293.15
293.15
293.15
293.15
293.15
293.15
293.15
293.15
293.15
393.15
393.15
393.15
393.15
393.15
393.15
393.15
393.15
393.15
393.15
393.15
393.15
393.15
393.15
393.15
393.15
393.15
393.15
393.15
393.15
393.15
393.15
393.15
393.15
393.15
393.15
393.15
393.15
393.15
393.15
393.15
393.15
393.15
393.15
393.15
393.15
393.15
393.15
393.15
393.15
393.15
393.15
393.15
393.15
393.15
393.15
393.15
393.15
393.15
393.15
393.15
393.15
393.15
393.15
393.15
393.15
393.15
393.15
393.15
393.15
393.15
393.15
393.15
393.15
393.15
393.15
393.15
393.15
393.15
393.15
393.15
393.15
393.15
393.15
393.15
393.15
393.15
393.15
393.15
393.149
393.15
393.15
393.15
393.15
393.15
393.15
393.15
393.15
393.15
393.15
393.15
393.15
393.15
393.15
393.15
393.149
393.149
393.147
393.143
393.126
393.15
393.15
393.15
393.15
393.15
393.149
393.149
393.149
393.149
393.149
393.148
393.148
393.148
393.147
393.145
393.141
393.133
393.113
393.054
392.777
393.143
393.142
393.14
393.138
393.135
393.132
393.13
393.127
393.126
393.126
393.126
393.125
393.122
393.116
393.103
393.074
393.009
392.837
392.244
388.904
392.925
392.9
392.873
392.844
392.816
392.794
392.782
392.787
392.803
392.822
392.84
392.855
392.862
392.85
392.799
392.667
392.345
391.475
388.328
367.917
389.542
389.388
389.246
389.113
389.019
389.03
389.109
389.264
389.425
389.61
389.807
390.027
390.245
390.45
390.478
390.195
389.257
386.964
380.812
333.899
365.529
365.223
364.938
364.698
364.567
364.69
364.908
365.152
365.465
365.91
366.457
367.213
368.091
369.304
370.372
371.035
370.147
367.038
359.415
332.409
307.561
307.736
307.868
307.961
307.954
307.686
307.335
306.975
306.6
306.162
305.69
305.11
304.481
303.683
303.208
303.258
304.414
306.542
309.782
315.324
294.711
294.781
294.843
294.901
294.939
294.924
294.874
294.782
294.689
294.587
294.486
294.369
294.261
294.14
294.073
294.082
294.232
294.576
295.502
305.321
293.23
293.239
293.25
293.261
293.272
293.281
293.285
293.282
293.275
293.265
293.255
293.244
293.236
293.229
293.229
293.239
293.273
293.379
293.864
298.465
293.152
293.152
293.153
293.154
293.154
293.155
293.156
293.157
293.157
293.157
293.156
293.156
293.156
293.156
293.157
293.159
293.167
293.189
293.293
294.184
293.15
293.15
293.15
293.15
293.15
293.15
293.15
293.15
293.15
293.15
293.15
293.15
293.15
293.15
293.15
293.151
293.151
293.153
293.157
293.171
293.15
293.15
293.15
293.15
293.15
293.15
293.15
293.15
293.15
293.15
293.15
293.15
293.15
293.15
293.15
293.15
293.15
293.15
293.15
293.151
293.15
293.15
293.15
293.15
293.15
293.15
293.15
293.15
293.15
293.15
293.15
293.15
293.15
293.15
293.15
293.15
293.15
293.15
293.15
293.15
293.15
293.15
293.15
293.15
293.15
293.15
293.15
293.15
293.15
293.15
293.15
293.15
293.15
293.15
293.15
293.15
293.15
293.15
293.15
293.15
293.15
293.15
293.15
293.15
293.15
293.15
293.15
293.15
293.15
293.15
293.15
293.15
293.15
293.15
293.15
293.15
293.15
293.15
293.15
293.15
293.15
293.15
293.15
293.15
293.15
293.15
293.15
293.15
293.15
293.15
293.15
293.15
293.15
293.15
293.15
293.15
293.15
293.15
293.15
293.15
393.15
393.15
393.15
393.15
393.15
393.15
393.15
393.15
393.15
393.15
393.15
393.15
393.15
393.15
393.15
393.15
393.15
393.15
393.15
393.15
393.15
393.15
393.15
393.15
393.15
393.15
393.15
393.15
393.15
393.15
393.15
393.15
393.15
393.15
393.15
393.15
393.15
393.15
393.15
393.15
393.15
393.15
393.15
393.15
393.15
393.15
393.15
393.15
393.15
393.15
393.15
393.15
393.15
393.15
393.15
393.15
393.15
393.15
393.15
393.15
393.15
393.15
393.15
393.15
393.15
393.15
393.15
393.15
393.15
393.15
393.15
393.15
393.15
393.15
393.15
393.15
393.15
393.15
393.15
393.15
393.15
393.15
393.15
393.15
393.15
393.15
393.15
393.15
393.15
393.15
393.15
393.15
393.15
393.15
393.15
393.15
393.15
393.15
393.15
393.15
393.15
393.15
393.15
393.15
393.15
393.15
393.15
393.15
393.15
393.15
393.15
393.15
393.15
393.15
393.15
393.15
393.15
393.15
393.15
393.15
393.15
393.15
393.15
393.15
393.15
393.15
393.15
393.15
393.15
393.15
393.15
393.15
393.15
393.15
393.15
393.15
393.15
393.15
393.15
393.15
393.15
393.15
393.15
393.15
393.15
393.15
393.15
393.15
393.15
393.15
393.15
393.15
393.15
393.15
393.15
393.15
393.15
393.15
393.15
393.15
393.15
393.15
393.15
393.15
393.15
393.15
393.15
393.15
393.15
393.15
393.15
393.15
393.15
393.15
393.15
393.15
393.15
393.15
393.15
393.15
393.15
393.15
393.15
393.15
393.15
393.15
393.15
393.15
393.15
393.15
393.15
393.15
393.15
393.15
393.15
393.15
393.15
393.15
393.15
393.15
393.15
393.15
393.15
393.15
393.15
393.15
393.15
393.15
393.15
393.15
393.15
393.15
393.15
393.15
393.15
393.15
393.15
393.15
393.15
393.15
393.15
393.15
393.15
393.15
393.15
393.15
393.15
393.15
393.15
393.15
393.15
393.15
393.15
393.15
393.15
393.15
393.15
393.15
393.15
393.15
393.15
393.15
393.15
393.15
393.15
393.15
393.15
393.15
393.15
393.15
393.15
393.15
393.15
393.15
393.15
393.15
393.15
393.15
393.15
393.15
393.15
393.15
393.15
393.15
393.15
393.15
393.15
393.15
393.15
393.15
393.15
393.15
393.15
393.15
393.15
393.15
393.15
393.15
393.15
393.15
393.15
393.15
393.15
393.15
393.15
393.15
393.15
393.15
393.15
393.15
393.15
393.15
393.15
393.15
393.15
393.15
393.15
393.15
393.15
393.15
393.15
393.15
393.15
393.15
393.15
393.15
393.15
393.15
393.15
393.15
393.15
393.15
393.15
393.15
393.15
393.15
393.15
393.15
393.15
393.15
393.15
393.15
393.15
393.15
393.15
393.15
393.15
393.15
393.15
393.15
393.15
393.15
393.15
393.15
393.15
393.15
393.15
393.15
393.15
393.15
393.15
393.15
393.15
393.15
393.15
393.15
393.15
393.15
393.15
393.15
393.15
393.15
393.15
393.15
393.15
393.15
393.15
393.15
393.15
393.15
393.15
393.15
393.15
393.15
393.15
393.15
393.15
393.15
393.15
393.15
393.15
393.15
393.15
393.15
393.15
393.15
393.15
393.15
393.15
393.15
393.15
393.15
393.15
393.15
393.15
393.15
393.15
393.15
393.15
393.15
393.15
393.15
393.15
393.15
393.15
393.15
393.15
393.15
393.15
393.15
393.15
393.15
393.15
393.15
393.15
393.15
393.15
393.15
393.15
393.15
393.15
393.15
393.15
393.15
393.15
393.15
393.15
393.15
393.15
393.15
393.15
393.15
393.15
393.15
393.15
393.15
393.15
393.15
393.15
393.15
393.15
393.15
393.15
393.15
393.15
393.15
393.15
393.15
393.15
393.15
393.15
393.15
393.15
393.15
393.15
393.15
393.15
393.15
393.15
393.15
393.15
393.15
393.15
393.15
393.15
393.15
393.15
393.15
393.15
393.15
393.15
393.15
393.15
393.15
393.15
393.15
393.15
393.15
393.15
393.15
393.15
393.15
393.15
393.15
393.15
393.15
393.15
393.15
393.15
393.15
393.15
393.15
393.15
393.15
393.15
393.15
393.15
393.15
393.15
393.15
393.15
393.15
393.15
393.15
393.15
393.15
393.15
393.15
393.15
393.15
393.15
393.15
393.15
393.15
393.15
393.15
393.15
393.15
393.15
393.15
393.15
393.15
393.15
393.15
393.15
393.15
393.15
393.15
393.15
393.15
393.15
393.15
393.15
393.15
393.15
393.15
393.15
393.15
393.15
393.15
393.15
393.15
393.15
393.15
393.15
393.15
393.15
393.15
393.15
393.15
393.15
393.15
393.15
393.15
393.15
393.15
393.15
393.15
393.15
393.15
393.15
393.15
393.15
393.15
393.15
393.15
393.15
393.15
393.15
393.15
393.15
393.15
393.15
393.15
393.15
393.15
393.15
393.15
393.15
393.15
393.15
393.15
393.15
393.15
393.15
393.15
393.15
393.15
393.15
393.15
393.15
393.15
393.15
393.15
393.15
393.15
393.15
393.15
393.15
393.15
393.15
393.15
393.15
393.15
393.15
393.15
393.15
393.15
393.15
393.15
393.15
393.15
393.15
393.15
393.15
393.15
393.15
393.15
393.15
393.15
393.15
393.15
393.15
393.15
393.15
393.15
393.15
393.15
393.15
393.15
393.15
393.15
393.15
393.15
393.15
393.15
393.15
393.15
393.15
393.15
393.15
393.15
393.15
393.15
393.15
393.15
393.15
393.15
393.15
393.15
393.15
393.15
393.15
393.15
393.15
393.15
393.15
393.15
393.15
393.15
393.15
393.15
393.15
393.15
393.15
393.15
393.15
393.15
393.15
393.15
393.15
393.15
393.15
393.15
393.15
393.15
393.15
393.15
393.15
393.15
393.15
393.15
393.15
393.15
393.15
393.15
393.15
393.15
393.15
393.15
393.15
393.15
393.15
393.15
393.15
393.15
393.15
393.15
393.15
393.15
393.15
393.15
393.15
393.15
393.15
393.15
393.15
393.15
393.15
393.15
393.15
393.15
393.15
393.15
393.15
393.15
393.15
393.15
393.15
393.15
393.15
393.15
393.15
393.15
393.15
393.15
393.15
393.15
393.15
393.15
393.15
393.15
393.15
393.15
393.15
393.15
393.15
393.15
393.15
393.15
393.15
393.15
393.15
393.15
393.15
393.15
393.15
393.15
393.15
393.15
393.15
393.15
393.15
393.15
393.15
393.15
393.15
393.15
393.15
393.15
393.15
393.15
393.15
393.15
393.15
393.15
393.15
393.15
393.15
393.15
393.15
393.15
393.15
393.15
393.15
393.15
393.15
393.15
393.15
393.15
393.15
393.15
393.15
393.15
393.15
393.15
393.15
393.15
393.15
393.15
393.15
393.15
393.15
393.15
393.15
393.15
393.15
393.15
393.15
393.15
393.15
393.15
393.15
393.15
393.15
393.15
393.15
393.15
393.15
393.15
393.15
393.15
393.15
393.15
393.15
393.15
393.15
393.15
393.15
393.15
393.15
393.15
393.15
393.15
393.15
393.15
393.15
393.15
393.15
393.15
393.15
393.15
393.15
393.15
393.15
393.15
393.15
393.15
393.15
393.15
393.15
393.15
393.15
393.15
393.15
393.15
393.15
393.15
393.15
393.15
393.15
393.15
393.15
393.15
393.15
393.15
393.15
393.15
393.15
393.15
393.15
393.15
393.15
393.15
393.15
393.15
393.15
393.15
393.15
393.15
393.15
393.15
393.15
393.15
393.15
393.15
393.15
393.15
393.15
393.15
393.15
393.15
393.15
393.15
393.15
393.15
393.15
393.15
393.15
393.15
393.15
393.15
393.15
393.15
393.15
393.15
393.15
393.15
393.15
393.15
393.15
393.15
393.15
393.15
393.15
393.15
393.15
393.15
393.15
393.15
393.15
393.15
393.15
393.15
393.15
393.15
393.15
393.15
393.15
393.15
393.15
393.15
393.15
393.15
393.15
393.15
393.15
393.15
393.15
393.15
393.15
393.15
393.15
393.15
393.15
393.15
393.15
393.15
393.15
393.15
393.15
393.15
393.15
393.15
393.15
393.15
393.15
393.15
393.15
393.15
393.15
393.15
393.15
393.15
393.15
393.15
393.15
393.15
393.15
393.15
393.15
393.15
393.15
393.15
393.15
393.15
393.15
393.15
393.15
393.15
393.15
393.15
393.15
393.15
393.15
393.15
393.15
393.15
393.15
393.15
393.15
393.15
393.15
393.15
393.15
393.15
393.15
393.15
393.15
393.15
393.15
393.15
393.15
393.15
393.15
393.15
393.15
393.15
393.15
393.15
393.15
393.15
393.15
393.15
393.15
393.15
393.15
393.15
393.15
393.15
393.15
393.15
393.15
393.15
393.15
393.15
393.15
393.15
393.15
393.15
393.15
393.15
393.15
393.15
393.15
393.15
393.15
393.15
393.15
393.15
393.15
393.15
393.15
393.15
393.15
393.15
393.15
393.15
393.15
393.15
393.15
393.15
393.15
393.15
393.15
393.15
393.15
393.15
393.15
393.15
393.15
393.15
393.15
393.15
393.15
393.15
393.15
393.15
393.15
393.15
393.15
393.15
393.15
393.15
393.15
393.15
393.15
393.15
393.15
393.15
393.15
393.15
393.15
393.15
393.15
393.15
393.15
393.15
393.15
393.15
393.15
393.15
393.15
393.15
393.15
393.15
393.15
393.15
393.15
393.15
393.15
393.15
393.15
393.15
393.15
393.15
393.15
393.15
393.15
393.15
393.15
393.15
393.15
393.15
393.15
393.15
393.15
393.15
393.15
393.15
393.15
393.15
393.15
393.15
393.15
393.15
393.15
393.15
393.15
393.15
393.15
393.15
393.15
393.15
393.15
393.15
393.15
393.15
393.15
393.15
393.15
393.15
393.15
393.15
393.15
393.15
393.15
393.15
393.15
393.15
393.15
393.15
393.15
393.15
393.15
393.15
393.15
393.15
393.15
393.15
393.15
393.15
393.15
393.15
393.15
393.15
393.15
393.15
393.15
393.15
393.15
393.15
393.15
393.15
393.15
393.15
393.15
393.15
393.15
393.15
393.15
393.15
393.15
393.15
393.15
393.15
393.15
393.15
393.15
393.15
393.15
393.15
393.15
393.15
393.15
393.15
393.15
393.15
393.15
393.15
393.15
393.15
393.15
393.15
393.15
393.15
393.15
393.15
393.15
393.15
393.15
393.15
393.15
393.15
393.15
393.15
393.15
393.15
393.15
393.15
393.15
393.15
393.15
393.15
393.15
393.15
393.15
393.15
393.15
393.15
393.15
393.15
393.15
393.15
393.15
393.15
393.15
393.15
393.15
393.15
393.15
393.15
393.15
393.15
393.15
393.15
393.15
393.15
393.15
393.15
393.15
393.15
393.15
393.15
393.15
393.15
393.15
393.15
393.15
393.15
393.15
393.15
393.15
393.15
393.15
393.15
393.15
393.15
393.15
393.15
393.15
393.15
393.15
393.15
393.15
393.15
393.15
393.15
393.15
393.15
393.15
393.15
393.15
393.15
393.15
393.15
393.15
393.15
393.15
393.15
393.15
393.15
393.15
393.15
393.15
393.15
393.15
393.15
393.15
393.15
393.15
393.15
393.15
393.15
393.15
393.15
393.15
393.15
393.15
393.15
393.15
393.15
393.15
393.15
393.15
393.15
393.15
393.15
393.15
393.15
393.15
393.15
393.15
393.15
393.15
393.15
393.15
393.15
393.15
393.15
393.15
393.15
393.15
393.15
393.15
393.15
393.15
393.15
393.15
393.15
393.15
393.15
393.15
393.15
393.15
393.15
393.15
393.15
393.15
393.15
393.15
393.15
393.15
393.15
393.15
393.15
393.15
393.15
393.15
393.15
393.15
393.15
393.15
393.15
393.15
393.15
393.15
393.15
393.15
393.15
393.15
393.15
393.15
393.15
393.15
393.15
393.15
393.15
393.15
393.15
393.15
393.15
393.15
393.15
393.15
393.15
393.15
393.15
393.15
393.15
393.15
393.15
393.15
393.15
393.15
393.15
393.15
393.15
393.15
393.15
393.15
393.15
393.15
393.15
393.15
393.15
393.15
393.15
393.15
393.15
393.15
393.15
393.15
393.15
393.15
393.15
393.15
393.15
393.15
393.15
393.15
393.15
393.15
393.15
393.15
393.15
393.15
393.15
393.15
393.15
393.15
393.15
393.15
393.15
393.15
393.15
393.15
393.15
393.15
393.15
393.15
393.15
393.15
393.15
393.15
393.15
393.15
393.15
393.15
393.15
393.15
393.15
393.15
393.15
393.15
393.15
393.15
393.15
393.15
393.15
393.15
393.15
393.15
393.15
393.15
393.15
393.15
393.15
393.15
393.15
393.15
393.15
393.15
393.15
393.15
393.15
393.15
393.15
393.15
393.15
393.15
393.15
393.15
393.15
393.15
393.15
393.15
393.15
393.15
393.15
393.15
393.15
393.15
393.15
393.15
393.15
393.15
393.15
393.15
393.15
393.15
393.15
393.15
393.15
393.15
393.15
393.15
393.15
393.15
393.15
393.15
393.15
393.15
393.15
393.15
393.15
393.15
393.15
393.15
393.15
393.15
393.15