/*--------------------------------*- C++ -*----------------------------------*\
| =========                 |                                                 |
| \\      /  F ield         | OpenFOAM: The Open Source CFD Toolbox           |
|  \\    /   O peration     | Version:  2.1.0                                 |
|   \\  /    A nd           | Web:      www.OpenFOAM.org                      |
|    \\/     M anipulation  |                                                 |
\*---------------------------------------------------------------------------*/
FoamFile
{
    version     2.0;
    format      ascii;
    class       volVectorField;
    location    "0.51";
    object      U;
}
// * * * * * * * * * * * * * * * * * * * * * * * * * * * * * * * * * * * * * //

dimensions      [0 1 -1 0 0 0 0];

internalField   nonuniform List<vector> 
6400
(
(-1.29982 -4.08002e-05 0)
(-1.29865 -0.000495159 0)
(-1.29626 -0.000785134 0)
(-1.29292 -0.000932367 0)
(-1.28912 -0.00101916 0)
(-1.28502 -0.00107734 0)
(-1.28073 -0.00111926 0)
(-1.27629 -0.00115224 0)
(-1.27173 -0.00118013 0)
(-1.26706 -0.00120533 0)
(-1.26229 -0.00122915 0)
(-1.25743 -0.00125237 0)
(-1.25248 -0.00127548 0)
(-1.24743 -0.00129866 0)
(-1.24229 -0.00132217 0)
(-1.23705 -0.00134598 0)
(-1.23172 -0.00137028 0)
(-1.22629 -0.00139496 0)
(-1.22076 -0.00142014 0)
(-1.21513 -0.00144568 0)
(-1.2094 -0.0014717 0)
(-1.20356 -0.00149799 0)
(-1.19762 -0.00152471 0)
(-1.19157 -0.00155192 0)
(-1.18541 -0.00157937 0)
(-1.17914 -0.00160724 0)
(-1.17275 -0.00163669 0)
(-1.16625 -0.00166746 0)
(-1.15962 -0.00169928 0)
(-1.15286 -0.00173201 0)
(-1.14597 -0.0017658 0)
(-1.13894 -0.00180065 0)
(-1.13177 -0.00183671 0)
(-1.12446 -0.00187405 0)
(-1.11699 -0.00191277 0)
(-1.10937 -0.00195285 0)
(-1.10159 -0.0019944 0)
(-1.09364 -0.00203746 0)
(-1.08551 -0.00208214 0)
(-1.07721 -0.00212859 0)
(-1.06871 -0.00217716 0)
(-1.06002 -0.00222783 0)
(-1.05112 -0.00228068 0)
(-1.04201 -0.00233586 0)
(-1.03268 -0.00239342 0)
(-1.02312 -0.00245342 0)
(-1.01331 -0.0025159 0)
(-1.00325 -0.00258083 0)
(-0.992925 -0.00264812 0)
(-0.982333 -0.00271789 0)
(-0.97146 -0.00278986 0)
(-0.960303 -0.00286175 0)
(-0.948854 -0.00293724 0)
(-0.937094 -0.00301932 0)
(-0.925001 -0.0031056 0)
(-0.912558 -0.00319486 0)
(-0.899772 -0.00328254 0)
(-0.886644 -0.00336649 0)
(-0.873188 -0.00344848 0)
(-0.859405 -0.00353116 0)
(-0.845293 -0.00361565 0)
(-0.830843 -0.00370208 0)
(-0.816047 -0.00379111 0)
(-0.800892 -0.00388354 0)
(-0.785365 -0.0039795 0)
(-0.76945 -0.00407959 0)
(-0.753133 -0.00418409 0)
(-0.736391 -0.00429382 0)
(-0.719206 -0.00440924 0)
(-0.701553 -0.00453074 0)
(-0.683408 -0.00465867 0)
(-0.664745 -0.00479368 0)
(-0.645533 -0.00493625 0)
(-0.625743 -0.00508722 0)
(-0.605339 -0.00524749 0)
(-0.584283 -0.00541826 0)
(-0.56253 -0.0056011 0)
(-0.540028 -0.00579797 0)
(-0.516718 -0.00601169 0)
(-0.492523 -0.00624648 0)
(-0.467352 -0.00650756 0)
(-0.441088 -0.00680136 0)
(-0.413587 -0.00713622 0)
(-0.384667 -0.00752145 0)
(-0.354118 -0.00796436 0)
(-0.321709 -0.00846753 0)
(-0.28721 -0.00902633 0)
(-0.250447 -0.00962023 0)
(-0.211383 -0.0101978 0)
(-0.170304 -0.0106477 0)
(-0.12816 -0.0107429 0)
(-0.0872233 -0.0100375 0)
(-0.05164 -0.00802316 0)
(-0.0265186 -0.00472136 0)
(-0.0154492 -0.000891669 0)
(-0.0200864 0.00323608 0)
(-0.048879 0.0113546 0)
(-0.129003 0.0292125 0)
(-0.328794 0.0711592 0)
(-0.94835 0.198978 0)
(-1.56641 -0.000313213 0)
(-1.56325 -0.00163376 0)
(-1.56108 -0.00239049 0)
(-1.5576 -0.0027923 0)
(-1.55377 -0.0030349 0)
(-1.54968 -0.00319815 0)
(-1.54544 -0.00331593 0)
(-1.54105 -0.00340845 0)
(-1.53658 -0.00348669 0)
(-1.53201 -0.00355728 0)
(-1.52736 -0.00362403 0)
(-1.52263 -0.00368906 0)
(-1.51782 -0.00375384 0)
(-1.51293 -0.00381888 0)
(-1.50796 -0.00388493 0)
(-1.50292 -0.00395194 0)
(-1.49779 -0.0040204 0)
(-1.49258 -0.00409005 0)
(-1.48728 -0.00416123 0)
(-1.48189 -0.00423359 0)
(-1.47641 -0.00430742 0)
(-1.47084 -0.00438213 0)
(-1.46518 -0.00445792 0)
(-1.45943 -0.00453511 0)
(-1.45357 -0.00461255 0)
(-1.44763 -0.00469024 0)
(-1.44159 -0.00477184 0)
(-1.43546 -0.00485666 0)
(-1.42922 -0.00494381 0)
(-1.42289 -0.00503316 0)
(-1.41646 -0.00512509 0)
(-1.40992 -0.00521968 0)
(-1.40328 -0.0053173 0)
(-1.39653 -0.00541811 0)
(-1.38966 -0.00552239 0)
(-1.38269 -0.00563015 0)
(-1.37559 -0.00574164 0)
(-1.36837 -0.00585703 0)
(-1.36103 -0.00597657 0)
(-1.35356 -0.00610032 0)
(-1.34596 -0.0062292 0)
(-1.33823 -0.00636333 0)
(-1.33035 -0.00650298 0)
(-1.32233 -0.00664857 0)
(-1.31415 -0.00680032 0)
(-1.30582 -0.0069585 0)
(-1.29733 -0.00712339 0)
(-1.28866 -0.00729515 0)
(-1.27982 -0.00747379 0)
(-1.27078 -0.00765975 0)
(-1.26155 -0.00785274 0)
(-1.25211 -0.0080471 0)
(-1.24247 -0.00824531 0)
(-1.23263 -0.00845121 0)
(-1.22263 -0.00866227 0)
(-1.21246 -0.00887787 0)
(-1.20214 -0.00909287 0)
(-1.19164 -0.0093031 0)
(-1.18096 -0.0095102 0)
(-1.1701 -0.00971894 0)
(-1.15906 -0.00993181 0)
(-1.14783 -0.0101495 0)
(-1.13641 -0.0103731 0)
(-1.1248 -0.010604 0)
(-1.113 -0.0108426 0)
(-1.101 -0.0110902 0)
(-1.08879 -0.0113477 0)
(-1.07638 -0.0116167 0)
(-1.06376 -0.0118985 0)
(-1.05092 -0.0121947 0)
(-1.03785 -0.0125063 0)
(-1.02454 -0.0128354 0)
(-1.01098 -0.0131837 0)
(-0.997133 -0.0135539 0)
(-0.982992 -0.013949 0)
(-0.968525 -0.0143726 0)
(-0.953697 -0.0148294 0)
(-0.938468 -0.0153251 0)
(-0.922791 -0.015867 0)
(-0.906609 -0.0164661 0)
(-0.889857 -0.0171354 0)
(-0.872457 -0.0178899 0)
(-0.854323 -0.0187481 0)
(-0.835362 -0.0197307 0)
(-0.815471 -0.0208538 0)
(-0.794546 -0.0221224 0)
(-0.772492 -0.0235212 0)
(-0.74926 -0.0249943 0)
(-0.724888 -0.0264101 0)
(-0.699579 -0.0274976 0)
(-0.673787 -0.0277321 0)
(-0.648282 -0.0261608 0)
(-0.624432 -0.0215609 0)
(-0.605155 -0.0133998 0)
(-0.599404 -0.000859822 0)
(-0.614799 0.0133229 0)
(-0.663383 0.0398861 0)
(-0.767581 0.0921399 0)
(-0.970675 0.204436 0)
(-1.45946 0.526483 0)
(-1.7157 -0.000871733 0)
(-1.71163 -0.00285208 0)
(-1.71032 -0.00393808 0)
(-1.70738 -0.00454192 0)
(-1.70414 -0.00491333 0)
(-1.7007 -0.00516349 0)
(-1.69712 -0.00534289 0)
(-1.69345 -0.00548329 0)
(-1.6897 -0.00560099 0)
(-1.68589 -0.00570691 0)
(-1.682 -0.00580646 0)
(-1.67808 -0.00590342 0)
(-1.67409 -0.0059997 0)
(-1.67007 -0.00609654 0)
(-1.66597 -0.00619477 0)
(-1.66184 -0.00629473 0)
(-1.65764 -0.00639689 0)
(-1.65339 -0.00650122 0)
(-1.64907 -0.00660806 0)
(-1.6447 -0.00671721 0)
(-1.64026 -0.00682902 0)
(-1.63576 -0.00694296 0)
(-1.63119 -0.00705903 0)
(-1.62654 -0.00717799 0)
(-1.62181 -0.00729841 0)
(-1.617 -0.00741846 0)
(-1.61212 -0.00754089 0)
(-1.60717 -0.00766537 0)
(-1.60215 -0.00779175 0)
(-1.59707 -0.0079206 0)
(-1.59193 -0.00805244 0)
(-1.58673 -0.00818756 0)
(-1.58146 -0.00832634 0)
(-1.57613 -0.00846903 0)
(-1.57074 -0.00861591 0)
(-1.56529 -0.00876706 0)
(-1.55978 -0.00892263 0)
(-1.55421 -0.00908291 0)
(-1.54858 -0.00924831 0)
(-1.54288 -0.00941825 0)
(-1.53713 -0.00959391 0)
(-1.53132 -0.00977559 0)
(-1.52546 -0.0099635 0)
(-1.51954 -0.0101583 0)
(-1.51357 -0.0103601 0)
(-1.50755 -0.0105694 0)
(-1.50149 -0.0107865 0)
(-1.49538 -0.0110119 0)
(-1.48924 -0.0112457 0)
(-1.48305 -0.011488 0)
(-1.47683 -0.0117382 0)
(-1.47057 -0.0119919 0)
(-1.46432 -0.0122465 0)
(-1.45802 -0.0125 0)
(-1.45172 -0.0127523 0)
(-1.44541 -0.0130048 0)
(-1.43913 -0.0132589 0)
(-1.43285 -0.0135124 0)
(-1.42658 -0.0137637 0)
(-1.42031 -0.0140154 0)
(-1.41405 -0.0142696 0)
(-1.40782 -0.0145272 0)
(-1.40163 -0.0147889 0)
(-1.39547 -0.0150551 0)
(-1.38938 -0.0153265 0)
(-1.38335 -0.0156038 0)
(-1.37742 -0.0158879 0)
(-1.37159 -0.01618 0)
(-1.36589 -0.0164814 0)
(-1.36034 -0.016794 0)
(-1.35495 -0.0171194 0)
(-1.34975 -0.0174605 0)
(-1.34476 -0.0178195 0)
(-1.34 -0.0182004 0)
(-1.33549 -0.0186079 0)
(-1.33124 -0.0190477 0)
(-1.32727 -0.0195271 0)
(-1.32358 -0.0200546 0)
(-1.32018 -0.020641 0)
(-1.31705 -0.0213018 0)
(-1.3142 -0.022055 0)
(-1.31158 -0.0229196 0)
(-1.30918 -0.0239177 0)
(-1.30695 -0.0250724 0)
(-1.30487 -0.0264015 0)
(-1.30289 -0.0279095 0)
(-1.30099 -0.0295706 0)
(-1.29918 -0.0313031 0)
(-1.29751 -0.0329277 0)
(-1.29612 -0.0340972 0)
(-1.29526 -0.0341853 0)
(-1.29527 -0.0321485 0)
(-1.29665 -0.0265012 0)
(-1.30092 -0.015761 0)
(-1.31 0.0023917 0)
(-1.32723 0.0264957 0)
(-1.36679 0.0697225 0)
(-1.44316 0.149808 0)
(-1.5872 0.31161 0)
(-1.85829 0.719501 0)
(-1.85011 -0.00152549 0)
(-1.84577 -0.0038423 0)
(-1.84548 -0.00516401 0)
(-1.84345 -0.00592732 0)
(-1.84118 -0.00640137 0)
(-1.83877 -0.00671851 0)
(-1.83626 -0.0069428 0)
(-1.8337 -0.00711612 0)
(-1.83107 -0.00725875 0)
(-1.82844 -0.00738581 0)
(-1.82576 -0.00750351 0)
(-1.82308 -0.00761762 0)
(-1.82036 -0.00772992 0)
(-1.81765 -0.00784272 0)
(-1.81491 -0.00795651 0)
(-1.81217 -0.00807233 0)
(-1.8094 -0.00819032 0)
(-1.80664 -0.00831091 0)
(-1.80385 -0.00843419 0)
(-1.80106 -0.00856034 0)
(-1.79826 -0.00868968 0)
(-1.79545 -0.00882196 0)
(-1.79263 -0.00895688 0)
(-1.78981 -0.00909455 0)
(-1.78697 -0.00923521 0)
(-1.78414 -0.0093771 0)
(-1.78131 -0.00951883 0)
(-1.77847 -0.00965995 0)
(-1.77561 -0.00980154 0)
(-1.77277 -0.00994479 0)
(-1.76992 -0.0100903 0)
(-1.76707 -0.0102386 0)
(-1.76424 -0.0103898 0)
(-1.76142 -0.0105442 0)
(-1.7586 -0.0107019 0)
(-1.75581 -0.0108629 0)
(-1.75304 -0.0110272 0)
(-1.75029 -0.0111947 0)
(-1.74758 -0.0113659 0)
(-1.7449 -0.0115401 0)
(-1.74227 -0.011718 0)
(-1.73968 -0.0118998 0)
(-1.73716 -0.0120853 0)
(-1.7347 -0.0122751 0)
(-1.73231 -0.0124689 0)
(-1.73001 -0.012667 0)
(-1.72781 -0.0128693 0)
(-1.72571 -0.0130759 0)
(-1.72374 -0.0132867 0)
(-1.7219 -0.0135011 0)
(-1.72021 -0.0137172 0)
(-1.71869 -0.0139345 0)
(-1.71735 -0.0141539 0)
(-1.71616 -0.0143712 0)
(-1.71513 -0.0145832 0)
(-1.71426 -0.0147904 0)
(-1.71357 -0.0149958 0)
(-1.71306 -0.0151988 0)
(-1.71275 -0.0153968 0)
(-1.71265 -0.0155905 0)
(-1.71278 -0.0157803 0)
(-1.71315 -0.0159667 0)
(-1.71378 -0.0161502 0)
(-1.71469 -0.0163308 0)
(-1.71589 -0.0165088 0)
(-1.71741 -0.0166846 0)
(-1.71925 -0.0168587 0)
(-1.72143 -0.017032 0)
(-1.72398 -0.0172058 0)
(-1.7269 -0.0173821 0)
(-1.73021 -0.0175632 0)
(-1.73391 -0.0177526 0)
(-1.73801 -0.0179537 0)
(-1.74252 -0.0181722 0)
(-1.74742 -0.0184146 0)
(-1.75271 -0.018689 0)
(-1.75837 -0.019006 0)
(-1.76438 -0.0193778 0)
(-1.77069 -0.0198175 0)
(-1.77728 -0.0203452 0)
(-1.78408 -0.0209839 0)
(-1.79105 -0.0217552 0)
(-1.79813 -0.0226827 0)
(-1.80526 -0.0237896 0)
(-1.81239 -0.0250921 0)
(-1.81948 -0.02659 0)
(-1.8265 -0.0282479 0)
(-1.83347 -0.0299652 0)
(-1.84043 -0.0315347 0)
(-1.84747 -0.0325752 0)
(-1.85468 -0.0324378 0)
(-1.86207 -0.0300933 0)
(-1.86963 -0.0239988 0)
(-1.87789 -0.0122966 0)
(-1.88724 0.00677269 0)
(-1.89859 0.0366608 0)
(-1.92144 0.0895196 0)
(-1.96288 0.186095 0)
(-2.03228 0.375571 0)
(-2.13327 0.778285 0)
(-1.98504 -0.00209309 0)
(-1.98106 -0.00447277 0)
(-1.98193 -0.00589866 0)
(-1.98112 -0.00675397 0)
(-1.9803 -0.00729084 0)
(-1.97936 -0.00764473 0)
(-1.97843 -0.00789071 0)
(-1.97747 -0.00807525 0)
(-1.97654 -0.00822328 0)
(-1.9756 -0.00835146 0)
(-1.9747 -0.00846781 0)
(-1.97382 -0.00857849 0)
(-1.97297 -0.00868599 0)
(-1.97216 -0.00879269 0)
(-1.97138 -0.00889932 0)
(-1.97065 -0.00900686 0)
(-1.96996 -0.00911548 0)
(-1.96932 -0.00922555 0)
(-1.96873 -0.0093371 0)
(-1.9682 -0.00945018 0)
(-1.96773 -0.00956509 0)
(-1.96733 -0.00968169 0)
(-1.96699 -0.00979867 0)
(-1.96674 -0.00991526 0)
(-1.96657 -0.0100336 0)
(-1.9665 -0.0101546 0)
(-1.96652 -0.0102769 0)
(-1.96661 -0.0103985 0)
(-1.96678 -0.0105193 0)
(-1.96703 -0.0106401 0)
(-1.96737 -0.0107615 0)
(-1.96781 -0.0108838 0)
(-1.96833 -0.0110071 0)
(-1.96896 -0.0111316 0)
(-1.96969 -0.0112571 0)
(-1.97053 -0.0113836 0)
(-1.97149 -0.0115107 0)
(-1.97258 -0.0116382 0)
(-1.97379 -0.0117661 0)
(-1.97514 -0.0118939 0)
(-1.97663 -0.0120222 0)
(-1.97827 -0.0121506 0)
(-1.98008 -0.0122789 0)
(-1.98204 -0.0124073 0)
(-1.98418 -0.0125357 0)
(-1.98649 -0.0126637 0)
(-1.989 -0.0127913 0)
(-1.99169 -0.0129184 0)
(-1.99459 -0.0130447 0)
(-1.99769 -0.0131698 0)
(-2.00099 -0.0132922 0)
(-2.00451 -0.0134125 0)
(-2.00823 -0.0135348 0)
(-2.01217 -0.0136561 0)
(-2.01633 -0.0137714 0)
(-2.02071 -0.0138795 0)
(-2.02532 -0.0139808 0)
(-2.03016 -0.0140751 0)
(-2.03524 -0.0141609 0)
(-2.04055 -0.0142389 0)
(-2.0461 -0.0143091 0)
(-2.05189 -0.014372 0)
(-2.05791 -0.0144284 0)
(-2.06416 -0.0144786 0)
(-2.07064 -0.0145234 0)
(-2.07733 -0.0145633 0)
(-2.08425 -0.0145994 0)
(-2.09137 -0.014633 0)
(-2.09868 -0.014666 0)
(-2.10618 -0.014701 0)
(-2.11386 -0.014741 0)
(-2.12171 -0.0147904 0)
(-2.1297 -0.0148541 0)
(-2.13784 -0.0149388 0)
(-2.1461 -0.0150528 0)
(-2.15448 -0.0152058 0)
(-2.16295 -0.01541 0)
(-2.17152 -0.0156809 0)
(-2.18016 -0.0160314 0)
(-2.18886 -0.0164837 0)
(-2.19761 -0.0170649 0)
(-2.2064 -0.0177964 0)
(-2.2152 -0.0187012 0)
(-2.22403 -0.0198007 0)
(-2.23286 -0.0211072 0)
(-2.24172 -0.0226151 0)
(-2.25059 -0.0242815 0)
(-2.25951 -0.025996 0)
(-2.26849 -0.0275414 0)
(-2.2775 -0.0285381 0)
(-2.28648 -0.0283664 0)
(-2.29517 -0.0260853 0)
(-2.30301 -0.0202454 0)
(-2.31018 -0.00906873 0)
(-2.31547 0.00962342 0)
(-2.3184 0.0412316 0)
(-2.32313 0.0975001 0)
(-2.3293 0.199624 0)
(-2.32745 0.392987 0)
(-2.30999 0.744701 0)
(-2.12722 -0.00240725 0)
(-2.12431 -0.00461844 0)
(-2.12638 -0.00599127 0)
(-2.12715 -0.00683825 0)
(-2.12808 -0.00737264 0)
(-2.12904 -0.00771711 0)
(-2.13011 -0.00794989 0)
(-2.13121 -0.00811586 0)
(-2.1324 -0.00824294 0)
(-2.13365 -0.00834693 0)
(-2.13499 -0.00843755 0)
(-2.13639 -0.00852015 0)
(-2.13788 -0.00859824 0)
(-2.13946 -0.00867352 0)
(-2.14112 -0.00874732 0)
(-2.14288 -0.00882007 0)
(-2.14473 -0.00889226 0)
(-2.14668 -0.00896383 0)
(-2.14873 -0.00903499 0)
(-2.15089 -0.00910548 0)
(-2.15316 -0.00917548 0)
(-2.15555 -0.0092458 0)
(-2.15804 -0.00931265 0)
(-2.16067 -0.00937607 0)
(-2.16341 -0.00944043 0)
(-2.16629 -0.00950669 0)
(-2.16928 -0.00957497 0)
(-2.17242 -0.00964277 0)
(-2.17568 -0.00970902 0)
(-2.17908 -0.00977385 0)
(-2.18262 -0.00983765 0)
(-2.18629 -0.00990054 0)
(-2.19011 -0.00996281 0)
(-2.19407 -0.0100244 0)
(-2.19817 -0.0100855 0)
(-2.20243 -0.0101456 0)
(-2.20682 -0.0102048 0)
(-2.21137 -0.0102628 0)
(-2.21606 -0.0103189 0)
(-2.22091 -0.0103731 0)
(-2.2259 -0.0104261 0)
(-2.23104 -0.0104776 0)
(-2.23633 -0.0105276 0)
(-2.24176 -0.0105763 0)
(-2.24734 -0.0106237 0)
(-2.25306 -0.0106698 0)
(-2.25892 -0.0107145 0)
(-2.26491 -0.0107582 0)
(-2.27103 -0.0108008 0)
(-2.27727 -0.0108425 0)
(-2.28364 -0.010883 0)
(-2.29011 -0.0109227 0)
(-2.29669 -0.0109634 0)
(-2.30338 -0.0110032 0)
(-2.31016 -0.0110389 0)
(-2.31703 -0.0110685 0)
(-2.32399 -0.0110912 0)
(-2.33102 -0.0111067 0)
(-2.33812 -0.0111148 0)
(-2.34529 -0.0111164 0)
(-2.35252 -0.0111118 0)
(-2.35981 -0.0111018 0)
(-2.36715 -0.0110872 0)
(-2.37453 -0.0110684 0)
(-2.38195 -0.0110464 0)
(-2.38941 -0.011022 0)
(-2.3969 -0.0109961 0)
(-2.40443 -0.0109705 0)
(-2.41199 -0.0109469 0)
(-2.41958 -0.0109279 0)
(-2.4272 -0.0109167 0)
(-2.43486 -0.0109174 0)
(-2.44255 -0.0109349 0)
(-2.45028 -0.0109759 0)
(-2.45805 -0.0110489 0)
(-2.46586 -0.0111634 0)
(-2.47372 -0.0113313 0)
(-2.48163 -0.011569 0)
(-2.48959 -0.0118885 0)
(-2.49762 -0.012309 0)
(-2.50572 -0.0128581 0)
(-2.51392 -0.0135579 0)
(-2.52222 -0.0144305 0)
(-2.53063 -0.0154957 0)
(-2.53918 -0.0167635 0)
(-2.54787 -0.0182264 0)
(-2.55673 -0.0198421 0)
(-2.56574 -0.0215031 0)
(-2.57488 -0.0230009 0)
(-2.58407 -0.0239861 0)
(-2.59309 -0.0239074 0)
(-2.6015 -0.0219504 0)
(-2.6084 -0.0169198 0)
(-2.61365 -0.0071416 0)
(-2.61485 0.00998522 0)
(-2.6098 0.0401202 0)
(-2.59826 0.0941215 0)
(-2.57279 0.191888 0)
(-2.51137 0.36929 0)
(-2.41535 0.652925 0)
(-2.27401 -0.002359 0)
(-2.2724 -0.00419111 0)
(-2.27564 -0.00535745 0)
(-2.27802 -0.0060903 0)
(-2.28064 -0.00654951 0)
(-2.28348 -0.00683567 0)
(-2.28643 -0.00701917 0)
(-2.28953 -0.00713909 0)
(-2.29271 -0.00722195 0)
(-2.29601 -0.0072819 0)
(-2.29939 -0.00732841 0)
(-2.3029 -0.00736614 0)
(-2.30648 -0.00739877 0)
(-2.31018 -0.00742764 0)
(-2.31395 -0.00745431 0)
(-2.31784 -0.00747898 0)
(-2.32182 -0.00750236 0)
(-2.32591 -0.00752423 0)
(-2.33008 -0.00754499 0)
(-2.33436 -0.00756437 0)
(-2.33872 -0.0075825 0)
(-2.34319 -0.00760098 0)
(-2.34773 -0.00761492 0)
(-2.3524 -0.00762337 0)
(-2.35714 -0.00763118 0)
(-2.362 -0.00763889 0)
(-2.36696 -0.00764728 0)
(-2.37203 -0.00765497 0)
(-2.37721 -0.00766127 0)
(-2.38249 -0.00766607 0)
(-2.38787 -0.00766987 0)
(-2.39336 -0.00767277 0)
(-2.39894 -0.0076754 0)
(-2.40463 -0.00767776 0)
(-2.41039 -0.00768022 0)
(-2.41625 -0.00768245 0)
(-2.42219 -0.00768501 0)
(-2.42821 -0.00768733 0)
(-2.43429 -0.00768887 0)
(-2.44045 -0.00768955 0)
(-2.44667 -0.00769042 0)
(-2.45295 -0.0076915 0)
(-2.45928 -0.00769297 0)
(-2.46565 -0.00769502 0)
(-2.47207 -0.00769788 0)
(-2.47851 -0.00770152 0)
(-2.48499 -0.00770609 0)
(-2.49149 -0.00771172 0)
(-2.49801 -0.00771887 0)
(-2.50454 -0.00772763 0)
(-2.51107 -0.00773854 0)
(-2.51761 -0.00775135 0)
(-2.52415 -0.00776664 0)
(-2.53068 -0.00778272 0)
(-2.5372 -0.00779753 0)
(-2.54372 -0.00780879 0)
(-2.55022 -0.00781419 0)
(-2.5567 -0.00781323 0)
(-2.56318 -0.00780626 0)
(-2.56965 -0.00779398 0)
(-2.5761 -0.00777669 0)
(-2.58255 -0.00775486 0)
(-2.58899 -0.0077287 0)
(-2.59543 -0.00769833 0)
(-2.60187 -0.00766457 0)
(-2.60832 -0.00762766 0)
(-2.61477 -0.0075883 0)
(-2.62125 -0.00754773 0)
(-2.62775 -0.00750745 0)
(-2.63428 -0.00746965 0)
(-2.64085 -0.00743727 0)
(-2.64747 -0.00741384 0)
(-2.65414 -0.007404 0)
(-2.66089 -0.00741438 0)
(-2.66772 -0.00745329 0)
(-2.67464 -0.00753014 0)
(-2.68166 -0.00765629 0)
(-2.6888 -0.00784607 0)
(-2.69605 -0.00811454 0)
(-2.7035 -0.00848007 0)
(-2.71107 -0.00896627 0)
(-2.7188 -0.00959634 0)
(-2.72672 -0.0103904 0)
(-2.73484 -0.011368 0)
(-2.74319 -0.0125381 0)
(-2.7518 -0.0138937 0)
(-2.76067 -0.0154003 0)
(-2.76977 -0.0169632 0)
(-2.77905 -0.0183946 0)
(-2.78835 -0.0193945 0)
(-2.79736 -0.0195056 0)
(-2.80549 -0.0180659 0)
(-2.81163 -0.0142042 0)
(-2.81512 -0.00640229 0)
(-2.81309 0.00798307 0)
(-2.80107 0.034005 0)
(-2.77544 0.0808804 0)
(-2.72317 0.16557 0)
(-2.61568 0.313255 0)
(-2.46993 0.526043 0)
(-2.40746 -0.00196213 0)
(-2.40687 -0.00325265 0)
(-2.41086 -0.00411196 0)
(-2.41432 -0.00465617 0)
(-2.41798 -0.00499071 0)
(-2.42201 -0.00518918 0)
(-2.42609 -0.00530557 0)
(-2.43039 -0.00537049 0)
(-2.4347 -0.00540488 0)
(-2.43917 -0.00542034 0)
(-2.44364 -0.00542448 0)
(-2.44824 -0.0054212 0)
(-2.45285 -0.00541357 0)
(-2.45758 -0.00540273 0)
(-2.46231 -0.00539014 0)
(-2.46715 -0.00537597 0)
(-2.472 -0.00536097 0)
(-2.47696 -0.00534496 0)
(-2.48192 -0.00532844 0)
(-2.48698 -0.00531117 0)
(-2.49206 -0.00529345 0)
(-2.49722 -0.00527472 0)
(-2.50238 -0.00525376 0)
(-2.50767 -0.00522971 0)
(-2.51293 -0.00520373 0)
(-2.51827 -0.00517701 0)
(-2.5236 -0.00515127 0)
(-2.52899 -0.005126 0)
(-2.53438 -0.00510081 0)
(-2.53982 -0.00507549 0)
(-2.54524 -0.0050509 0)
(-2.55071 -0.00502678 0)
(-2.55616 -0.00500428 0)
(-2.56165 -0.00498312 0)
(-2.56711 -0.00496415 0)
(-2.5726 -0.00494662 0)
(-2.57807 -0.00493186 0)
(-2.58355 -0.00491863 0)
(-2.589 -0.0049062 0)
(-2.59446 -0.0048948 0)
(-2.59989 -0.00488529 0)
(-2.60532 -0.00487779 0)
(-2.61073 -0.00487244 0)
(-2.61614 -0.00486934 0)
(-2.62151 -0.00486856 0)
(-2.62689 -0.00486997 0)
(-2.63224 -0.00487355 0)
(-2.63759 -0.0048792 0)
(-2.64292 -0.00488735 0)
(-2.64824 -0.0048981 0)
(-2.65355 -0.0049125 0)
(-2.65885 -0.00492969 0)
(-2.66415 -0.00494897 0)
(-2.66945 -0.00496887 0)
(-2.67474 -0.00498783 0)
(-2.68004 -0.00500331 0)
(-2.68534 -0.00501124 0)
(-2.69066 -0.00501104 0)
(-2.69599 -0.00500356 0)
(-2.70135 -0.0049896 0)
(-2.70674 -0.00496922 0)
(-2.71216 -0.00494252 0)
(-2.71761 -0.00490941 0)
(-2.72311 -0.00486976 0)
(-2.72865 -0.00482381 0)
(-2.73425 -0.00477164 0)
(-2.73991 -0.0047137 0)
(-2.74564 -0.00465079 0)
(-2.75144 -0.00458409 0)
(-2.75733 -0.00451551 0)
(-2.76332 -0.00444756 0)
(-2.76941 -0.00438358 0)
(-2.77561 -0.00432773 0)
(-2.78194 -0.00428633 0)
(-2.78841 -0.0042678 0)
(-2.79503 -0.00428107 0)
(-2.80182 -0.0043368 0)
(-2.80878 -0.00444672 0)
(-2.81592 -0.00462928 0)
(-2.8233 -0.00490425 0)
(-2.83088 -0.00529332 0)
(-2.8387 -0.00581949 0)
(-2.84678 -0.00649663 0)
(-2.85513 -0.00734563 0)
(-2.86379 -0.00837617 0)
(-2.87277 -0.00958252 0)
(-2.88206 -0.0109442 0)
(-2.89162 -0.0123908 0)
(-2.90134 -0.0137608 0)
(-2.91101 -0.0148171 0)
(-2.92024 -0.0152135 0)
(-2.92833 -0.0144632 0)
(-2.93409 -0.0119866 0)
(-2.9361 -0.00663025 0)
(-2.93189 0.00391482 0)
(-2.91424 0.0236779 0)
(-2.8775 0.0594452 0)
(-2.80449 0.124105 0)
(-2.66443 0.233588 0)
(-2.48904 0.379163 0)
(-2.5092 -0.0012653 0)
(-2.50948 -0.00199857 0)
(-2.51364 -0.00251607 0)
(-2.51753 -0.00284213 0)
(-2.52152 -0.00303681 0)
(-2.52597 -0.00314591 0)
(-2.53034 -0.003202 0)
(-2.53498 -0.00322525 0)
(-2.53949 -0.00322868 0)
(-2.54419 -0.00321976 0)
(-2.54874 -0.00320355 0)
(-2.55346 -0.00318261 0)
(-2.55803 -0.00315897 0)
(-2.56273 -0.00313349 0)
(-2.5673 -0.00310712 0)
(-2.57199 -0.00308007 0)
(-2.57655 -0.00305285 0)
(-2.58121 -0.00302539 0)
(-2.58576 -0.00299805 0)
(-2.59039 -0.00297066 0)
(-2.59492 -0.00294345 0)
(-2.59952 -0.00291386 0)
(-2.60401 -0.00288419 0)
(-2.60859 -0.00285667 0)
(-2.61305 -0.00282973 0)
(-2.61756 -0.00280322 0)
(-2.62196 -0.00277866 0)
(-2.6264 -0.00275576 0)
(-2.63074 -0.00273399 0)
(-2.63511 -0.00271308 0)
(-2.63939 -0.00269395 0)
(-2.6437 -0.00267609 0)
(-2.64792 -0.00266066 0)
(-2.65216 -0.00264721 0)
(-2.65632 -0.0026366 0)
(-2.6605 -0.00262779 0)
(-2.66462 -0.00262243 0)
(-2.66874 -0.00261937 0)
(-2.67282 -0.00261628 0)
(-2.6769 -0.00261378 0)
(-2.68095 -0.00261313 0)
(-2.685 -0.00261417 0)
(-2.68902 -0.00261682 0)
(-2.69306 -0.00262125 0)
(-2.69708 -0.00262723 0)
(-2.70112 -0.00263455 0)
(-2.70514 -0.002643 0)
(-2.70919 -0.0026526 0)
(-2.71324 -0.00266311 0)
(-2.71731 -0.00267501 0)
(-2.7214 -0.00268976 0)
(-2.72551 -0.00270699 0)
(-2.72966 -0.00272402 0)
(-2.73383 -0.00273956 0)
(-2.73804 -0.00275301 0)
(-2.74228 -0.00276221 0)
(-2.74657 -0.0027603 0)
(-2.75091 -0.00274683 0)
(-2.7553 -0.00272392 0)
(-2.75976 -0.00269265 0)
(-2.76429 -0.00265298 0)
(-2.76888 -0.00260472 0)
(-2.77355 -0.00254765 0)
(-2.7783 -0.0024815 0)
(-2.78315 -0.00240605 0)
(-2.78808 -0.00232118 0)
(-2.79311 -0.00222726 0)
(-2.79825 -0.00212469 0)
(-2.8035 -0.00201437 0)
(-2.80888 -0.00189788 0)
(-2.81439 -0.00177741 0)
(-2.82005 -0.001656 0)
(-2.82585 -0.00153762 0)
(-2.83182 -0.00142807 0)
(-2.83797 -0.00133464 0)
(-2.8443 -0.0012669 0)
(-2.85085 -0.00123469 0)
(-2.85761 -0.00124921 0)
(-2.86461 -0.00132841 0)
(-2.87187 -0.00149144 0)
(-2.87943 -0.00175668 0)
(-2.88726 -0.00215327 0)
(-2.89544 -0.00268582 0)
(-2.90398 -0.0033787 0)
(-2.9129 -0.00424443 0)
(-2.92223 -0.00527732 0)
(-2.93196 -0.00647447 0)
(-2.94203 -0.00780791 0)
(-2.9523 -0.00913645 0)
(-2.96254 -0.0102982 0)
(-2.97232 -0.0110665 0)
(-2.98088 -0.0111467 0)
(-2.98702 -0.0101939 0)
(-2.98884 -0.00758527 0)
(-2.98376 -0.00170655 0)
(-2.96429 0.0100947 0)
(-2.92072 0.0318543 0)
(-2.83508 0.0714815 0)
(-2.67572 0.137673 0)
(-2.48532 0.22125 0)
(-2.5591 -0.000351049 0)
(-2.55973 -0.000624647 0)
(-2.56371 -0.000805345 0)
(-2.56752 -0.000916194 0)
(-2.57137 -0.000980689 0)
(-2.57569 -0.00101579 0)
(-2.57983 -0.00103204 0)
(-2.58425 -0.00103679 0)
(-2.58844 -0.00103472 0)
(-2.59283 -0.00102808 0)
(-2.59697 -0.001019 0)
(-2.60128 -0.00100823 0)
(-2.60533 -0.000996528 0)
(-2.60953 -0.00098432 0)
(-2.6135 -0.000971889 0)
(-2.61758 -0.000959362 0)
(-2.62145 -0.000946874 0)
(-2.62543 -0.000934445 0)
(-2.6292 -0.000922165 0)
(-2.63307 -0.000909961 0)
(-2.63675 -0.000897781 0)
(-2.64052 -0.000883918 -1.03904e-41)
(-2.64411 -0.000870362 0)
(-2.64778 -0.00085958 0)
(-2.65129 -0.000850377 0)
(-2.65487 -0.000842085 0)
(-2.65831 -0.000835596 0)
(-2.66182 -0.000830768 0)
(-2.66519 -0.00082613 0)
(-2.66863 -0.000821827 0)
(-2.67195 -0.000818321 0)
(-2.67533 -0.000815703 0)
(-2.67862 -0.000814382 0)
(-2.68194 -0.000814306 0)
(-2.6852 -0.000815638 0)
(-2.6885 -0.000818124 0)
(-2.69174 -0.000822235 0)
(-2.695 -0.000829977 0)
(-2.69824 -0.000833806 0)
(-2.70149 -0.000836632 0)
(-2.70474 -0.000840054 0)
(-2.70799 -0.000843786 0)
(-2.71126 -0.000847593 0)
(-2.71453 -0.000851579 0)
(-2.71782 -0.000855468 0)
(-2.72113 -0.000858974 0)
(-2.72446 -0.000861861 0)
(-2.72782 -0.000864281 0)
(-2.7312 -0.000865476 0)
(-2.73462 -0.000865953 0)
(-2.73808 -0.00086788 0)
(-2.74157 -0.000872621 0)
(-2.7451 -0.000874466 0)
(-2.74868 -0.000872453 0)
(-2.7523 -0.000866526 0)
(-2.75598 -0.000857846 0)
(-2.7597 -0.000833219 0)
(-2.76349 -0.000792789 0)
(-2.76734 -0.000741102 0)
(-2.77127 -0.000679601 0)
(-2.77527 -0.000608044 0)
(-2.77935 -0.000525943 0)
(-2.78351 -0.000432895 0)
(-2.78776 -0.000328388 0)
(-2.7921 -0.000212031 0)
(-2.79655 -8.35638e-05 0)
(-2.80109 5.69617e-05 0)
(-2.80575 0.000209358 0)
(-2.81053 0.000372969 0)
(-2.81544 0.000546574 0)
(-2.82049 0.000728298 0)
(-2.82568 0.000915572 0)
(-2.83103 0.0011042 0)
(-2.83656 0.0012894 0)
(-2.84226 0.00146585 0)
(-2.84816 0.00162362 0)
(-2.85427 0.00175294 0)
(-2.86062 0.00184263 0)
(-2.86722 0.00187671 0)
(-2.87409 0.00183644 0)
(-2.88127 0.00170694 0)
(-2.88875 0.00146077 0)
(-2.8966 0.00109061 1.282e-41)
(-2.90481 0.000572935 0)
(-2.91343 -0.000107447 0)
(-2.92245 -0.000955512 0)
(-2.93193 -0.00196756 0)
(-2.94164 -0.00318877 -3.74838e-41)
(-2.95155 -0.00448206 0)
(-2.96144 -0.00577326 0)
(-2.97085 -0.00695914 0)
(-2.97903 -0.00792795 0)
(-2.98481 -0.00858904 0)
(-2.98625 -0.00880599 -5.1757e-41)
(-2.9801 -0.00797647 0)
(-2.96029 -0.00515917 0)
(-2.91473 0.000864797 1.01656e-41)
(-2.82465 0.0124936 0)
(-2.65852 0.032331 0)
(-2.46337 0.0574507 0)
(-2.53906 0.000615837 0)
(-2.53946 0.000765872 0)
(-2.54341 0.000916978 0)
(-2.54717 0.00101618 0)
(-2.55096 0.0010747 0)
(-2.55525 0.00110565 0)
(-2.55936 0.00111971 0)
(-2.56378 0.00112347 0)
(-2.56796 0.00112074 0)
(-2.57236 0.00111434 0)
(-2.57652 0.00110553 0)
(-2.58084 0.00109525 0)
(-2.58494 0.0010843 0)
(-2.58918 0.00107261 0)
(-2.5932 0.00106077 0)
(-2.59734 0.00104868 0)
(-2.60128 0.00103672 0)
(-2.60531 0.00102475 0)
(-2.60917 0.00101308 0)
(-2.61311 0.00100164 0)
(-2.61688 0.000990878 0)
(-2.62073 0.00098122 1.15342e-41)
(-2.62442 0.000971899 0)
(-2.62817 0.000961609 0)
(-2.63179 0.000950951 0)
(-2.63546 0.000939952 0)
(-2.639 0.0009282 0)
(-2.6426 0.000915865 0)
(-2.64608 0.000904793 0)
(-2.6496 0.000894436 0)
(-2.65303 0.00088486 0)
(-2.6565 0.000875188 0)
(-2.65987 0.000865813 0)
(-2.66329 0.000856293 0)
(-2.66663 0.000847186 0)
(-2.67001 0.00083783 0)
(-2.67332 0.000828772 0)
(-2.67666 0.000816951 0)
(-2.67997 0.000811131 0)
(-2.68329 0.000807252 0)
(-2.68659 0.000804693 0)
(-2.6899 0.000803256 0)
(-2.6932 0.000803091 0)
(-2.69652 0.000804551 0)
(-2.69983 0.00080768 0)
(-2.70316 0.000812841 0)
(-2.7065 0.000820222 0)
(-2.70987 0.000829825 0)
(-2.71324 0.000842212 0)
(-2.71665 0.00085701 0)
(-2.72007 0.000872012 0)
(-2.72354 0.00088605 0)
(-2.72703 0.00090467 0)
(-2.73056 0.000928971 0)
(-2.73414 0.000959147 0)
(-2.73776 0.000993503 0)
(-2.74144 0.0010457 0)
(-2.74516 0.001116 0)
(-2.74894 0.0011994 0)
(-2.75278 0.00129444 0)
(-2.75668 0.00140153 0)
(-2.76064 0.0015213 0)
(-2.76467 0.00165433 0)
(-2.76878 0.00180135 0)
(-2.77296 0.00196285 0)
(-2.77724 0.00213922 0)
(-2.7816 0.00233078 0)
(-2.78606 0.00253769 0)
(-2.79062 0.00275952 0)
(-2.79529 0.00299539 0)
(-2.80009 0.00324392 0)
(-2.80501 0.00350295 0)
(-2.81007 0.00376875 0)
(-2.81528 0.00403739 0)
(-2.82066 0.00430422 0)
(-2.8262 0.00456071 0)
(-2.83194 0.00479725 0)
(-2.83788 0.00500279 0)
(-2.84405 0.00516278 0)
(-2.85047 0.00526015 0)
(-2.85715 0.00527959 0)
(-2.86412 0.0052019 0)
(-2.87142 0.00501065 5.88999e-41)
(-2.87905 0.0046861 0)
(-2.88704 0.00421087 0)
(-2.89539 0.00356218 0)
(-2.90411 0.00273526 0)
(-2.91302 0.0016652 1.95744e-41)
(-2.92206 0.00042428 0)
(-2.93092 -0.00100017 0)
(-2.93914 -0.00259597 0)
(-2.94578 -0.00439736 0)
(-2.95002 -0.00661876 0)
(-2.94982 -0.00956287 -5.62055e-41)
(-2.94185 -0.0136344 0)
(-2.92011 -0.0196605 0)
(-2.87365 -0.0294353 -3.4601e-40)
(-2.78313 -0.0459308 0)
(-2.61827 -0.0722601 0)
(-2.42447 -0.103446 0)
(-2.4609 0.00145179 0)
(-2.46051 0.00213583 0)
(-2.46452 0.00263017 0)
(-2.46814 0.00294817 0)
(-2.47188 0.00314013 0)
(-2.47608 0.00324901 0)
(-2.48022 0.00330712 0)
(-2.48465 0.00333351 0)
(-2.48895 0.00334115 0)
(-2.49346 0.00333661 0)
(-2.49785 0.00332528 0)
(-2.50239 0.00330888 0)
(-2.50683 0.00328998 0)
(-2.51138 0.00326889 0)
(-2.51583 0.00324678 0)
(-2.52039 0.00322365 0)
(-2.52486 0.00320022 0)
(-2.52941 0.00317634 0)
(-2.53388 0.00315252 0)
(-2.53842 0.00312862 0)
(-2.54288 0.00310526 0)
(-2.54741 0.00308243 0)
(-2.55185 0.00305985 0)
(-2.55635 0.00303654 0)
(-2.56078 0.00301302 0)
(-2.56524 0.00298898 0)
(-2.56963 0.00296454 0)
(-2.57406 0.0029402 0)
(-2.57842 0.00291741 0)
(-2.58281 0.00289567 0)
(-2.58713 0.00287505 0)
(-2.59147 0.0028547 0)
(-2.59575 0.00283519 0)
(-2.60005 0.00281613 0)
(-2.60428 0.00279818 0)
(-2.60853 0.00278075 0)
(-2.61272 0.00276421 0)
(-2.61692 0.0027478 0)
(-2.62108 0.00273636 0)
(-2.62523 0.0027271 0)
(-2.62934 0.0027208 0)
(-2.63345 0.00271671 0)
(-2.63753 0.00271501 0)
(-2.6416 0.00271635 0)
(-2.64565 0.00272076 0)
(-2.6497 0.00272858 0)
(-2.65372 0.0027401 0)
(-2.65775 0.00275546 0)
(-2.66176 0.00277493 0)
(-2.66578 0.00279814 0)
(-2.6698 0.00282377 0)
(-2.67383 0.00285213 0)
(-2.67786 0.00288631 0)
(-2.68191 0.00292775 0)
(-2.68598 0.00297717 0)
(-2.69008 0.00303599 0)
(-2.6942 0.00311173 0)
(-2.69836 0.0032055 0)
(-2.70254 0.00331447 0)
(-2.70675 0.00343724 0)
(-2.71101 0.00357452 0)
(-2.7153 0.00372714 0)
(-2.71964 0.00389569 0)
(-2.72403 0.00408096 0)
(-2.72848 0.00428357 0)
(-2.73299 0.0045041 0)
(-2.73756 0.00474318 0)
(-2.74221 0.00500138 0)
(-2.74694 0.00527858 0)
(-2.75176 0.0055743 0)
(-2.75667 0.0058877 0)
(-2.76169 0.00621707 0)
(-2.76683 0.00655961 0)
(-2.77209 0.0069119 0)
(-2.7775 0.00726929 0)
(-2.78306 0.00762466 0)
(-2.7888 0.00796936 0)
(-2.79473 0.00829295 0)
(-2.80087 0.00858225 0)
(-2.80724 0.00882246 0)
(-2.81388 0.00899818 0)
(-2.8208 0.00909196 0)
(-2.82804 0.00908399 0)
(-2.83562 0.00895593 0)
(-2.84356 0.00868735 0)
(-2.85187 0.00824504 0)
(-2.86054 0.00759503 0)
(-2.86952 0.0066896 0)
(-2.87864 0.00549738 0)
(-2.88763 0.00392282 0)