/*--------------------------------*- C++ -*----------------------------------*\
| =========                 |                                                 |
| \\      /  F ield         | OpenFOAM: The Open Source CFD Toolbox           |
|  \\    /   O peration     | Version:  2.1.0                                 |
|   \\  /    A nd           | Web:      www.OpenFOAM.org                      |
|    \\/     M anipulation  |                                                 |
\*---------------------------------------------------------------------------*/
FoamFile
{
    version     2.0;
    format      ascii;
    class       volScalarField;
    location    "0.43";
    object      C1;
}
// * * * * * * * * * * * * * * * * * * * * * * * * * * * * * * * * * * * * * //

dimensions      [0 0 0 0 0 0 0];

internalField   nonuniform List<scalar> 
6400
(
5.16793e-05
5.07044e-05
4.96843e-05
4.86583e-05
4.76319e-05
4.66075e-05
4.55862e-05
4.45689e-05
4.35562e-05
4.25485e-05
4.15461e-05
4.05495e-05
3.95588e-05
3.85745e-05
3.75967e-05
3.66258e-05
3.5662e-05
3.47057e-05
3.3757e-05
3.28164e-05
3.1884e-05
3.09603e-05
3.00455e-05
2.91399e-05
2.82438e-05
2.73575e-05
2.64814e-05
2.56158e-05
2.47609e-05
2.39171e-05
2.30846e-05
2.22638e-05
2.14549e-05
2.06583e-05
1.98742e-05
1.91029e-05
1.83448e-05
1.76e-05
1.6869e-05
1.61518e-05
1.54489e-05
1.47605e-05
1.40868e-05
1.3428e-05
1.27845e-05
1.21563e-05
1.15438e-05
1.09471e-05
1.03664e-05
9.80194e-06
9.25386e-06
8.72233e-06
8.20756e-06
7.70968e-06
7.22877e-06
6.76491e-06
6.31818e-06
5.88863e-06
5.47635e-06
5.08136e-06
4.70364e-06
4.34315e-06
3.9998e-06
3.67347e-06
3.36401e-06
3.07125e-06
2.79496e-06
2.53489e-06
2.29075e-06
2.06224e-06
1.84899e-06
1.65063e-06
1.46674e-06
1.29688e-06
1.14059e-06
9.9738e-07
8.66731e-07
7.48108e-07
6.4096e-07
5.44719e-07
4.58801e-07
3.82611e-07
3.15547e-07
2.57e-07
2.06356e-07
1.63003e-07
1.26336e-07
9.57593e-08
7.06887e-08
5.05505e-08
3.4779e-08
2.28155e-08
1.41173e-08
8.1545e-09
4.37154e-09
2.17531e-09
9.08279e-10
2.85235e-10
6.38936e-11
1.15281e-11
5.84653e-05
5.74718e-05
5.64167e-05
5.53447e-05
5.42657e-05
5.31843e-05
5.21028e-05
5.1023e-05
4.99456e-05
4.88715e-05
4.7801e-05
4.67347e-05
4.56728e-05
4.46157e-05
4.35637e-05
4.2517e-05
4.14759e-05
4.04407e-05
3.94118e-05
3.83892e-05
3.73735e-05
3.63648e-05
3.53634e-05
3.43698e-05
3.33841e-05
3.24068e-05
3.14383e-05
3.04788e-05
2.95287e-05
2.85883e-05
2.76579e-05
2.6738e-05
2.58288e-05
2.49308e-05
2.40441e-05
2.31693e-05
2.23066e-05
2.14564e-05
2.06191e-05
1.97949e-05
1.89843e-05
1.81876e-05
1.74051e-05
1.66372e-05
1.58842e-05
1.51464e-05
1.44242e-05
1.37179e-05
1.30278e-05
1.23542e-05
1.16973e-05
1.10576e-05
1.04352e-05
9.83058e-06
9.24397e-06
8.67567e-06
8.12596e-06
7.59507e-06
7.08324e-06
6.5907e-06
6.1176e-06
5.66407e-06
5.23017e-06
4.81595e-06
4.4214e-06
4.04649e-06
3.69112e-06
3.35516e-06
3.03843e-06
2.74072e-06
2.46176e-06
2.20122e-06
1.95875e-06
1.73393e-06
1.52632e-06
1.33542e-06
1.16068e-06
1.00155e-06
8.5739e-07
7.27567e-07
6.11399e-07
5.08179e-07
4.17183e-07
3.37669e-07
2.68885e-07
2.10075e-07
1.60487e-07
1.19375e-07
8.59968e-08
5.96075e-08
3.94432e-08
2.47041e-08
1.45347e-08
8.01304e-09
4.16614e-09
2.13007e-09
9.77999e-10
3.93685e-10
1.44055e-10
5.55193e-11
7.33864e-05
7.23429e-05
7.12106e-05
7.00437e-05
6.88583e-05
6.76627e-05
6.64612e-05
6.52564e-05
6.40501e-05
6.28433e-05
6.16367e-05
6.04308e-05
5.9226e-05
5.80227e-05
5.68212e-05
5.56216e-05
5.44244e-05
5.32298e-05
5.20381e-05
5.08495e-05
4.96643e-05
4.84828e-05
4.73053e-05
4.61321e-05
4.49635e-05
4.37998e-05
4.26414e-05
4.14887e-05
4.03422e-05
3.92022e-05
3.80693e-05
3.69437e-05
3.58259e-05
3.47164e-05
3.36155e-05
3.25237e-05
3.14415e-05
3.03693e-05
2.93077e-05
2.8257e-05
2.72178e-05
2.61906e-05
2.51759e-05
2.41743e-05
2.31862e-05
2.22123e-05
2.1253e-05
2.0309e-05
1.93808e-05
1.84689e-05
1.7574e-05
1.66967e-05
1.58376e-05
1.49972e-05
1.41764e-05
1.33759e-05
1.25962e-05
1.18379e-05
1.11017e-05
1.03881e-05
9.69767e-06
9.03088e-06
8.3882e-06
7.77002e-06
7.17671e-06
6.60856e-06
6.06583e-06
5.54869e-06
5.05727e-06
4.59162e-06
4.15174e-06
3.73752e-06
3.3488e-06
2.98533e-06
2.64678e-06
2.33276e-06
2.04276e-06
1.77623e-06
1.53252e-06
1.31092e-06
1.11066e-06
9.30875e-07
7.70689e-07
6.29169e-07
5.05357e-07
3.98272e-07
3.06922e-07
2.30303e-07
1.67394e-07
1.1713e-07
7.83554e-08
4.97805e-08
2.99324e-08
1.71487e-08
9.65033e-09
5.49699e-09
2.96652e-09
1.52506e-09
7.79756e-10
4.46224e-10
9.7382e-05
9.62591e-05
9.50195e-05
9.37249e-05
9.23976e-05
9.10496e-05
8.96876e-05
8.83156e-05
8.6936e-05
8.55504e-05
8.41596e-05
8.27643e-05
8.1365e-05
7.9962e-05
7.85556e-05
7.7146e-05
7.57335e-05
7.43183e-05
7.29006e-05
7.14808e-05
7.00589e-05
6.86354e-05
6.72104e-05
6.57843e-05
6.43572e-05
6.29296e-05
6.15016e-05
6.00739e-05
5.86467e-05
5.72207e-05
5.57962e-05
5.43737e-05
5.29537e-05
5.15365e-05
5.01228e-05
4.8713e-05
4.73077e-05
4.59074e-05
4.45128e-05
4.31245e-05
4.17431e-05
4.03693e-05
3.90038e-05
3.76474e-05
3.63008e-05
3.49647e-05
3.36402e-05
3.2328e-05
3.1029e-05
2.97442e-05
2.84747e-05
2.72215e-05
2.59856e-05
2.47682e-05
2.35702e-05
2.23928e-05
2.12372e-05
2.01045e-05
1.89956e-05
1.79119e-05
1.68544e-05
1.58242e-05
1.48225e-05
1.38502e-05
1.29084e-05
1.19979e-05
1.11196e-05
1.02743e-05
9.4628e-06
8.68563e-06
7.94336e-06
7.23642e-06
6.56514e-06
5.92972e-06
5.33023e-06
4.76664e-06
4.23876e-06
3.74626e-06
3.28872e-06
2.86557e-06
2.47614e-06
2.11964e-06
1.79521e-06
1.50195e-06
1.23893e-06
1.0052e-06
7.9982e-07
6.21879e-07
4.70461e-07
3.44587e-07
2.43088e-07
1.64433e-07
1.0655e-07
6.6739e-08
4.16378e-08
2.6111e-08
1.58576e-08
9.45968e-09
5.79719e-09
4.0504e-09
0.000131516
0.000130305
0.000128955
0.000127532
0.000126063
0.000124561
0.000123037
0.000121494
0.000119937
0.000118367
0.000116785
0.000115193
0.000113589
0.000111976
0.000110352
0.000108719
0.000107075
0.000105423
0.00010376
0.000102089
0.000100408
9.87186e-05
9.70203e-05
9.53136e-05
9.35988e-05
9.1876e-05
9.01455e-05
8.84075e-05
8.66624e-05
8.49104e-05
8.31521e-05
8.13877e-05
7.96176e-05
7.78424e-05
7.60625e-05
7.42783e-05
7.24904e-05
7.06994e-05
6.89059e-05
6.71104e-05
6.53138e-05
6.35167e-05
6.172e-05
5.99245e-05
5.8131e-05
5.63405e-05
5.45541e-05
5.27727e-05
5.09976e-05
4.92299e-05
4.74709e-05
4.57219e-05
4.39843e-05
4.22592e-05
4.05483e-05
3.88529e-05
3.71748e-05
3.55154e-05
3.38765e-05
3.22597e-05
3.06668e-05
2.90997e-05
2.75601e-05
2.60497e-05
2.45703e-05
2.31236e-05
2.17112e-05
2.03348e-05
1.89958e-05
1.76957e-05
1.6436e-05
1.52179e-05
1.40426e-05
1.29112e-05
1.18246e-05
1.07838e-05
9.7893e-06
8.84175e-06
7.94155e-06
7.08903e-06
6.2844e-06
5.52775e-06
4.81914e-06
4.15869e-06
3.54655e-06
2.98307e-06
2.46877e-06
2.00445e-06
1.5912e-06
1.23034e-06
9.23051e-07
6.69933e-07
4.70332e-07
3.21806e-07
2.19612e-07
1.49972e-07
1.0036e-07
6.68879e-08
4.62806e-08
3.63416e-08
0.000176955
0.000175685
0.000174267
0.000172766
0.000171208
0.00016961
0.000167981
0.000166327
0.000164651
0.000162957
0.000161245
0.000159515
0.000157768
0.000156005
0.000154225
0.000152428
0.000150615
0.000148786
0.000146939
0.000145077
0.000143198
0.000141302
0.00013939
0.000137462
0.000135518
0.000133558
0.000131582
0.00012959
0.000127581
0.000125557
0.000123518
0.000121463
0.000119393
0.000117307
0.000115207
0.000113093
0.000110964
0.000108821
0.000106665
0.000104496
0.000102313
0.000100119
9.79125e-05
9.5695e-05
9.34669e-05
9.12289e-05
8.89817e-05
8.67261e-05
8.44628e-05
8.21928e-05
7.99171e-05
7.76367e-05
7.53527e-05
7.30662e-05
7.07785e-05
6.84908e-05
6.62048e-05
6.39218e-05
6.16435e-05
5.93715e-05
5.71078e-05
5.48544e-05
5.26132e-05
5.03864e-05
4.8176e-05
4.59841e-05
4.38129e-05
4.16645e-05
3.95413e-05
3.74455e-05
3.53792e-05
3.33449e-05
3.13446e-05
2.93808e-05
2.74555e-05
2.55708e-05
2.37289e-05
2.19317e-05
2.01811e-05
1.84788e-05
1.6827e-05
1.52274e-05
1.36823e-05
1.21939e-05
1.07653e-05
9.39999e-06
8.10276e-06
6.87956e-06
5.73828e-06
4.68886e-06
3.74282e-06
2.91239e-06
2.20894e-06
1.64069e-06
1.21191e-06
8.94616e-07
6.51633e-07
4.75405e-07
3.60029e-07
3.04277e-07
0.00023474
0.000233497
0.000232116
0.000230655
0.000229135
0.000227572
0.000225975
0.00022435
0.000222701
0.000221029
0.000219335
0.000217621
0.000215886
0.00021413
0.000212354
0.000210557
0.00020874
0.000206902
0.000205043
0.000203162
0.00020126
0.000199337
0.000197391
0.000195424
0.000193435
0.000191424
0.00018939
0.000187334
0.000185255
0.000183154
0.000181029
0.000178881
0.00017671
0.000174515
0.000172296
0.000170053
0.000167786
0.000165494
0.000163177
0.000160835
0.000158467
0.000156074
0.000153655
0.00015121
0.000148738
0.000146239
0.000143714
0.000141161
0.000138581
0.000135974
0.000133339
0.000130677
0.000127987
0.000125269
0.000122524
0.000119751
0.000116952
0.000114125
0.000111273
0.000108394
0.000105491
0.000102564
9.96143e-05
9.66433e-05
9.36521e-05
9.06419e-05
8.76143e-05
8.45708e-05
8.1513e-05
7.84428e-05
7.53618e-05
7.2272e-05
6.91754e-05
6.60739e-05
6.29695e-05
5.98641e-05
5.67595e-05
5.36573e-05
5.05593e-05
4.7467e-05
4.43816e-05
4.13045e-05
3.82377e-05
3.51837e-05
3.21463e-05
2.9131e-05
2.61465e-05
2.32051e-05
2.03249e-05
1.75334e-05
1.48662e-05
1.23679e-05
1.00911e-05
8.09004e-06
6.42563e-06
5.10026e-06
4.01139e-06
3.16393e-06
2.57511e-06
2.28645e-06
0.000305216
0.00030415
0.000302978
0.00030174
0.000300453
0.000299128
0.000297773
0.000296393
0.00029499
0.000293566
0.000292121
0.000290657
0.000289173
0.00028767
0.000286147
0.000284604
0.000283041
0.000281458
0.000279854
0.00027823
0.000276585
0.000274918
0.00027323
0.000271519
0.000269786
0.000268031
0.000266253
0.00026445
0.000262624
0.000260773
0.000258898
0.000256996
0.000255068
0.000253113
0.00025113
0.000249119
0.000247078
0.000245006
0.000242904
0.000240769
0.000238601
0.000236398
0.00023416
0.000231885
0.000229573
0.000227221
0.000224829
0.000222394
0.000219917
0.000217395
0.000214827
0.000212211
0.000209546
0.00020683
0.000204062
0.00020124
0.000198362
0.000195428
0.000192435
0.000189381
0.000186266
0.000183088
0.000179846
0.00017654
0.000173167
0.000169727
0.000166218
0.000162638
0.000158988
0.000155264
0.000151467
0.000147594
0.000143643
0.000139612
0.0001355
0.000131303
0.000127017
0.000122638
0.000118161
0.000113581
0.000108889
0.000104075
9.91289e-05
9.40405e-05
8.87988e-05
8.33944e-05
7.78214e-05
7.20772e-05
6.61687e-05
6.01254e-05
5.39965e-05
4.78587e-05
4.18212e-05
3.60246e-05
3.0659e-05
2.60549e-05
2.20117e-05
1.86262e-05
1.61166e-05
1.48344e-05
0.000387064
0.00038636
0.000385594
0.000384787
0.000383949
0.000383088
0.000382206
0.000381308
0.000380393
0.000379465
0.000378522
0.000377565
0.000376595
0.000375611
0.000374613
0.000373602
0.000372577
0.000371537
0.000370484
0.000369415
0.000368332
0.000367235
0.000366122
0.000364994
0.000363849
0.000362688
0.000361509
0.000360313
0.000359099
0.000357867
0.000356615
0.000355343
0.00035405
0.000352737
0.000351401
0.000350041
0.000348658
0.00034725
0.000345816
0.000344355
0.000342866
0.000341348
0.000339798
0.000338217
0.000336603
0.000334953
0.000333268
0.000331545
0.000329783
0.000327979
0.000326133
0.000324242
0.000322304
0.000320318
0.000318281
0.000316191
0.000314045
0.000311842
0.000309577
0.000307248
0.000304851
0.000302384
0.000299846
0.000297231
0.000294538
0.000291761
0.000288898
0.000285943
0.000282893
0.000279743
0.000276487
0.000273119
0.000269634
0.000266024
0.000262281
0.000258395
0.000254356
0.000250141
0.000245739
0.000241139
0.000236322
0.000231254
0.000225904
0.000220235
0.000214202
0.000207756
0.000200842
0.000193396
0.000185338
0.00017663
0.000167243
0.000157171
0.000146444
0.000135138
0.00012339
0.000111611
0.000100962
9.12782e-05
8.35027e-05
7.91819e-05
0.000476614
0.000476425
0.00047622
0.000476004
0.000475779
0.000475547
0.000475309
0.000475065
0.000474816
0.000474562
0.000474304
0.00047404
0.000473772
0.0004735
0.000473223
0.000472942
0.000472656
0.000472366
0.000472072
0.000471773
0.00047147
0.000471162
0.00047085
0.000470534
0.000470212
0.000469886
0.000469555
0.000469218
0.000468876
0.000468528
0.000468175
0.000467815
0.00046745
0.000467078
0.0004667
0.000466315
0.000465923
0.000465524
0.000465117
0.000464701
0.000464278
0.000463846
0.000463404
0.000462954
0.000462493
0.000462023
0.000461542
0.000461051
0.000460549
0.000460035
0.000459511
0.000458975
0.000458427
0.000457868
0.000457298
0.000456718
0.000456127
0.000455529
0.000454921
0.0004543
0.000453665
0.000453016
0.000452352
0.000451672
0.000450975
0.000450258
0.000449521
0.000448761
0.000447974
0.000447159
0.00044631
0.000445424
0.000444494
0.000443515
0.000442478
0.000441375
0.000440197
0.00043894
0.000437588
0.00043612
0.000434515
0.000432763
0.000430847
0.000428746
0.000426443
0.000423919
0.000421155
0.000418136
0.000414613
0.000410521
0.000405753
0.000400193
0.000393707
0.000386126
0.000377215
0.000366676
0.000354499
0.00034206
0.000330806
0.000323397
0.000568088
0.00056851
0.000568944
0.000569382
0.000569825
0.000570273
0.000570724
0.000571179
0.000571639
0.000572102
0.00057257
0.000573043
0.000573521
0.000574003
0.000574491
0.000574985
0.000575485
0.00057599
0.000576503
0.000577021
0.000577547
0.00057808
0.00057862
0.000579168
0.000579724
0.000580289
0.000580862
0.000581444
0.000582036
0.000582637
0.000583249
0.000583872
0.000584505
0.00058515
0.000585808
0.000586477
0.000587161
0.000587858
0.000588569
0.000589296
0.000590038
0.000590798
0.000591574
0.00059237
0.000593184
0.000594019
0.000594876
0.000595755
0.000596658
0.000597586
0.00059854
0.000599522
0.000600533
0.000601574
0.000602647
0.000603753
0.000604893
0.000606069
0.000607283
0.000608539
0.000609842
0.000611198
0.000612609
0.000614081
0.000615618
0.000617226
0.00061891
0.000620676
0.00062253
0.000624481
0.000626537
0.000628706
0.000630997
0.000633421
0.000635989
0.000638712
0.000641602
0.000644672
0.000647932
0.000651395
0.000655069
0.000658967
0.000663095
0.000667459
0.000672062
0.000676906
0.000681987
0.000687309
0.000693058
0.000699316
0.000706177
0.000713675
0.000721755
0.000730452
0.000739777
0.000749683
0.000759991
0.000770188
0.000779043
0.000784246
0.000653807
0.000654725
0.000655694
0.000656693
0.000657716
0.000658757
0.000659813
0.000660882
0.000661963
0.000663055
0.000664159
0.000665274
0.000666401
0.00066754
0.000668692
0.000669856
0.000671033
0.000672224
0.000673429
0.000674648
0.000675882
0.000677132
0.000678397
0.000679678
0.000680976
0.000682292
0.000683625
0.000684976
0.000686346
0.000687735
0.000689145
0.000690576
0.000692028
0.000693503
0.000695001
0.000696523
0.00069807
0.000699642
0.000701242
0.000702869
0.000704525
0.00070621
0.000707927
0.000709677
0.00071146
0.000713279
0.000715134
0.000717028
0.000718961
0.000720937
0.000722957
0.000725023
0.000727138
0.000729303
0.000731522
0.000733797
0.000736133
0.000738532
0.000740998
0.000743534
0.000746146
0.000748839
0.000751619
0.00075449
0.000757459
0.000760532
0.000763715
0.000767015
0.00077044
0.000773997
0.000777695
0.000781542
0.000785547
0.000789718
0.000794066
0.000798598
0.000803323
0.000808249
0.000813383
0.00081873
0.000824294
0.000830076
0.000836076
0.000842291
0.000848715
0.00085534
0.000862154
0.000869141
0.000876275
0.000883526
0.000890847
0.000898269
0.000905917
0.000913631
0.000921294
0.00092877
0.000935841
0.000942141
0.00094704
0.000949508
0.000728961
0.000730206
0.000731546
0.000732937
0.000734366
0.000735821
0.000737298
0.000738792
0.000740301
0.000741825
0.000743363
0.000744915
0.000746481
0.000748062
0.000749657
0.000751268
0.000752894
0.000754536
0.000756195
0.00075787
0.000759563
0.000761274
0.000763003
0.000764751
0.000766518
0.000768304
0.000770109
0.000771936
0.000773782
0.00077565
0.00077754
0.000779452
0.000781387
0.000783345
0.000785327
0.000787333
0.000789365
0.000791422
0.000793506
0.000795617
0.000797755
0.000799922
0.000802118
0.000804345
0.000806603
0.000808893
0.000811216
0.000813574
0.000815967
0.000818397
0.000820866
0.000823375
0.000825924
0.000828517
0.000831155
0.000833839
0.000836573
0.000839357
0.000842194
0.000845085
0.000848034
0.000851044
0.000854116
0.000857254
0.00086046
0.000863736
0.000867086
0.000870512
0.000874016
0.0008776
0.000881267
0.000885018
0.000888854
0.000892776
0.000896784
0.000900878
0.000905055
0.000909311
0.000913643
0.000918043
0.000922503
0.000927012
0.000931557
0.000936123
0.000940692
0.000945244
0.000949758
0.000954205
0.000958557
0.000962782
0.000966842
0.000970696
0.000974294
0.00097771
0.000980879
0.000983757
0.00098628
0.000988362
0.000989868
0.000990566
0.000791181
0.000792611
0.000794159
0.000795769
0.000797418
0.000799096
0.000800793
0.000802505
0.00080423
0.000805967
0.000807715
0.000809474
0.000811245
0.000813026
0.000814819
0.000816625
0.000818443
0.000820274
0.000822118
0.000823976
0.000825848
0.000827735
0.000829636
0.000831553
0.000833484
0.000835431
0.000837394
0.000839373
0.000841368
0.000843379
0.000845407
0.000847453
0.000849515
0.000851594
0.00085369
0.000855804
0.000857936
0.000860085
0.000862251
0.000864436
0.000866639
0.000868859
0.000871097
0.000873354
0.000875629
0.000877922
0.000880233
0.000882564
0.000884913
0.000887281
0.000889668
0.000892074
0.000894499
0.000896944
0.000899409
0.000901894
0.000904399
0.000906924
0.00090947
0.000912036
0.000914622
0.000917229
0.000919857
0.000922505
0.000925173
0.00092786
0.000930566
0.00093329
0.00093603
0.000938784
0.000941552
0.000944331
0.000947117
0.000949908
0.000952699
0.000955486
0.000958264
0.000961026
0.000963766
0.000966474
0.000969143
0.000971761
0.00097432
0.000976807
0.00097921
0.000981518
0.000983718
0.000985797
0.000987743
0.000989542
0.000991181
0.000992648
0.000993929
0.000995034
0.000995998
0.000996816
0.000997486
0.000998002
0.000998353
0.000998511
0.000840147
0.000841673
0.000843322
0.000845025
0.000846762
0.000848518
0.000850286
0.000852062
0.000853842
0.000855626
0.000857413
0.000859204
0.000860998
0.000862796
0.000864598
0.000866404
0.000868216
0.000870032
0.000871854
0.000873683
0.000875517
0.000877359
0.000879207
0.000881062
0.000882924
0.000884794
0.000886671
0.000888555
0.000890448
0.000892347
0.000894255
0.00089617
0.000898092
0.000900022
0.00090196
0.000903905
0.000905856
0.000907815
0.000909779
0.00091175
0.000913727
0.000915709
0.000917696
0.000919687
0.000921683
0.000923682
0.000925684
0.000927689
0.000929695
0.000931703
0.000933711
0.000935719
0.000937726
0.000939731
0.000941733
0.000943732
0.000945726
0.000947715
0.000949697
0.000951672
0.000953638
0.000955594
0.000957539
0.000959471
0.00096139
0.000963293
0.000965179
0.000967045
0.00096889
0.000970712
0.000972508
0.000974276
0.000976012
0.000977715
0.00097938
0.000981005
0.000982585
0.000984117
0.000985597
0.00098702
0.000988382
0.000989678
0.000990906
0.000992059
0.000993135
0.000994131
0.000995043
0.000995869
0.000996607
0.000997258
0.00099782
0.000998293
0.000998681
0.000998986
0.000999234
0.000999431
0.000999582
0.000999691
0.000999761
0.000999793
0.00087673
0.000878327
0.000880032
0.000881776
0.000883537
0.000885303
0.000887069
0.00088883
0.000890586
0.000892335
0.000894076
0.000895811
0.000897539
0.00089926
0.000900976
0.000902686
0.000904391
0.000906091
0.000907787
0.000909479
0.000911167
0.000912852
0.000914534
0.000916213
0.000917889
0.000919563
0.000921234
0.000922903
0.000924569
0.000926232
0.000927893
0.000929552
0.000931207
0.00093286
0.00093451
0.000936157
0.000937799
0.000939439
0.000941073
0.000942704
0.000944329
0.000945949
0.000947563
0.00094917
0.000950771
0.000952364
0.000953949
0.000955524
0.00095709
0.000958646
0.00096019
0.000961722
0.000963241
0.000964746
0.000966235
0.000967708
0.000969164
0.000970602
0.00097202
0.000973418
0.000974793
0.000976146
0.000977474
0.000978776
0.000980051
0.000981298
0.000982516
0.000983702
0.000984855
0.000985974
0.000987058
0.000988104
0.000989112
0.00099008
0.000991007
0.00099189
0.00099273
0.000993524
0.000994272
0.000994971
0.000995623
0.000996224
0.000996776
0.000997278
0.000997731
0.000998134
0.000998489
0.000998798
0.000999062
0.000999283
0.000999463
0.000999607
0.000999717
0.000999797
0.000999857
0.000999901
0.000999933
0.000999955
0.000999968
0.000999974
0.000902288
0.000903969
0.000905736
0.000907517
0.000909295
0.000911064
0.000912817
0.000914554
0.000916273
0.000917974
0.000919657
0.000921323
0.000922971
0.000924603
0.000926218
0.000927817
0.000929401
0.000930971
0.000932526
0.000934067
0.000935594
0.000937108
0.000938609
0.000940098
0.000941574
0.000943038
0.000944489
0.00094593
0.000947358
0.000948775
0.00095018
0.000951573
0.000952955
0.000954325
0.000955682
0.000957028
0.000958362
0.000959683
0.000960992
0.000962288
0.000963571
0.000964841
0.000966097
0.00096734
0.000968567
0.00096978
0.000970978
0.000972161
0.000973327
0.000974476
0.000975608
0.000976723
0.000977819
0.000978896
0.000979953
0.00098099
0.000982005
0.000982999
0.00098397
0.000984917
0.000985841
0.000986739
0.000987612
0.000988459
0.000989278
0.00099007
0.000990833
0.000991567
0.000992271
0.000992945
0.000993587
0.000994198
0.000994777
0.000995323
0.000995837
0.000996318
0.000996765
0.000997179
0.000997561
0.000997909
0.000998226
0.000998511
0.000998765
0.000998989
0.000999185
0.000999354
0.000999498
0.000999617
0.000999716
0.000999794
0.000999855
0.000999901
0.000999934
0.000999957
0.000999972
0.000999982
0.000999989
0.000999993
0.000999996
0.000999997
0.000918391
0.000920181
0.000922031
0.00092387
0.000925689
0.000927482
0.000929248
0.000930985
0.000932694
0.000934375
0.000936028
0.000937654
0.000939254
0.000940827
0.000942375
0.000943898
0.000945397
0.000946872
0.000948324
0.000949753
0.000951161
0.000952546
0.000953911
0.000955254
0.000956577
0.00095788
0.000959164
0.000960427
0.000961672
0.000962897
0.000964104
0.000965292
0.000966461
0.000967611
0.000968743
0.000969857
0.000970952
0.00097203
0.000973088
0.000974129
0.000975151
0.000976155
0.00097714
0.000978106
0.000979054
0.000979983
0.000980893
0.000981784
0.000982656
0.000983508
0.000984341
0.000985154
0.000985946
0.000986719
0.00098747
0.000988201
0.000988911
0.0009896
0.000990267
0.000990912
0.000991535
0.000992135
0.000992713
0.000993268
0.0009938
0.000994308
0.000994794
0.000995255
0.000995693
0.000996108
0.000996498
0.000996866
0.00099721
0.00099753
0.000997827
0.000998102
0.000998354
0.000998585
0.000998794
0.000998982
0.00099915
0.000999298
0.000999428
0.000999541
0.000999638
0.000999719
0.000999787
0.000999842
0.000999887
0.000999921
0.000999947
0.000999965
0.000999978
0.000999987
0.000999992
0.000999996
0.000999998
0.000999999
0.000999999
0.001
0.000926792
0.0009287
0.000930648
0.000932565
0.000934447
0.000936291
0.000938099
0.000939868
0.000941602
0.000943299
0.000944961
0.000946588
0.000948181
0.000949741
0.000951268
0.000952764
0.000954229
0.000955663
0.000957068
0.000958444
0.000959791
0.00096111
0.000962402
0.000963667
0.000964905
0.000966118
0.000967305
0.000968467
0.000969604
0.000970717
0.000971806
0.000972871
0.000973913
0.000974931
0.000975927
0.0009769
0.000977851
0.000978779
0.000979686
0.00098057
0.000981433
0.000982275
0.000983095
0.000983894
0.000984671
0.000985428
0.000986164
0.000986879
0.000987573
0.000988246
0.000988899
0.000989532
0.000990144
0.000990736
0.000991307
0.000991859
0.00099239
0.000992901
0.000993392
0.000993863
0.000994314
0.000994746
0.000995157
0.00099555
0.000995922
0.000996276
0.000996611
0.000996926
0.000997223
0.000997502
0.000997762
0.000998005
0.00099823
0.000998439
0.000998631
0.000998807
0.000998967
0.000999112
0.000999244
0.000999361
0.000999465
0.000999557
0.000999637
0.000999706
0.000999766
0.000999816
0.000999857
0.000999892
0.000999919
0.000999941
0.000999959
0.000999972
0.000999981
0.000999989
0.000999994
0.000999997
0.000999999
0.001
0.001
0.001
0.000929474
0.00093147
0.000933501
0.000935491
0.000937436
0.000939338
0.000941196
0.000943011
0.000944785
0.000946518
0.000948211
0.000949865
0.00095148
0.000953059
0.0009546
0.000956106
0.000957577
0.000959014
0.000960416
0.000961786
0.000963124
0.00096443
0.000965706
0.000966951
0.000968166
0.000969351
0.000970508
0.000971637
0.000972738
0.000973812
0.000974858
0.000975878
0.000976872
0.000977841
0.000978784
0.000979702
0.000980595
0.000981465
0.00098231
0.000983131
0.000983929
0.000984704
0.000985456
0.000986186
0.000986893
0.000987578
0.000988241
0.000988882
0.000989502
0.000990101
0.000990678
0.000991235
0.000991772
0.000992288
0.000992784
0.000993261
0.000993717
0.000994154
0.000994572
0.00099497
0.00099535
0.000995712
0.000996055
0.000996381
0.000996689
0.00099698
0.000997253
0.00099751
0.000997751
0.000997976
0.000998186
0.00099838
0.00099856
0.000998726
0.000998878
0.000999018
0.000999145
0.000999259
0.000999363
0.000999456
0.000999538
0.000999611
0.000999676
0.000999732
0.00099978
0.000999821
0.000999857
0.000999886
0.000999911
0.000999931
0.000999947
0.000999961
0.000999972
0.000999981
0.000999989
0.000999995
0.000999998
0.001
0.001
0.001
2.81418e-12
5.78496e-12
1.18539e-11
2.2466e-11
4.02798e-11
6.95589e-11
1.1722e-10
1.9473e-10
3.21567e-10
5.31716e-10
8.86134e-10
1.49744e-09
2.5802e-09
4.55653e-09
8.28366e-09
1.55531e-08
3.01839e-08
6.02555e-08
1.21043e-07
2.24551e-07
3.24073e-11
5.48445e-11
9.64654e-11
1.65087e-10
2.73854e-10
4.43022e-10
7.04545e-10
1.11016e-09
1.74605e-09
2.75995e-09
4.41271e-09
7.17881e-09
1.19478e-08
2.04399e-08
3.60808e-08
6.58647e-08
1.24288e-07
2.40819e-07
4.67599e-07
8.31687e-07
3.75267e-10
5.612e-10
8.63887e-10
1.3246e-09
2.00744e-09
3.00495e-09
4.45775e-09
6.58728e-09
9.75333e-09
1.45581e-08
2.20388e-08
3.40344e-08
5.38993e-08
8.79333e-08
1.48301e-07
2.59055e-07
4.68319e-07
8.69642e-07
1.61607e-06
2.72962e-06
3.95897e-09
5.38703e-09
7.49633e-09
1.04519e-08
1.45334e-08
2.01223e-08
2.77745e-08
3.83419e-08
5.31786e-08
7.44997e-08
1.06024e-07
1.54164e-07
2.30253e-07
3.5487e-07
5.66409e-07
9.38049e-07
1.60994e-06
2.83967e-06
5.00325e-06
7.92157e-06
3.76355e-08
4.74125e-08
6.08007e-08
7.82526e-08
1.00773e-07
1.29697e-07
1.66922e-07
2.15309e-07
2.79342e-07
3.66229e-07
4.87831e-07
6.64031e-07
9.28774e-07
1.34163e-06
2.00964e-06
3.12779e-06
5.04976e-06
8.3769e-06
1.38347e-05
2.03138e-05
3.19748e-07
3.77896e-07
4.52879e-07
5.44774e-07
6.56287e-07
7.91069e-07
9.54396e-07
1.15434e-06
1.40362e-06
1.72252e-06
2.1444e-06
2.72318e-06
3.54809e-06
4.77052e-06
6.65053e-06
9.63673e-06
1.44865e-05
2.23413e-05
3.40718e-05
4.60954e-05
2.38817e-06
2.67787e-06
3.03434e-06
3.44892e-06
3.92511e-06
4.46913e-06
5.09154e-06
5.81016e-06
6.65445e-06
7.67396e-06
8.94904e-06
1.06047e-05
1.28429e-05
1.59951e-05
2.06016e-05
2.75319e-05
3.81011e-05
5.38867e-05
7.46306e-05
9.28503e-05
1.52651e-05
1.64014e-05
1.7751e-05
1.92513e-05
2.089e-05
2.2664e-05
2.45831e-05
2.66736e-05
2.89953e-05
3.16526e-05
3.47955e-05
3.86584e-05
4.36202e-05
5.02849e-05
5.95816e-05
7.28474e-05
9.1741e-05
0.000117137
0.000145423
0.000166756
8.01388e-05
8.32151e-05
8.67795e-05
9.05766e-05
9.45182e-05
9.85404e-05
0.00010264
0.000106855
0.00011131
0.000116125
0.000121474
0.000127663
0.000135233
0.00014498
0.000158143
0.00017613
0.000199887
0.000227613
0.000252806
0.000269253
0.00032321
0.000326812
0.000330949
0.000335119
0.000339127
0.000342804
0.000346195
0.000349347
0.000352252
0.000354853
0.000357258
0.000359524
0.000362065
0.000365117
0.000369543
0.000375829
0.000383796
0.00039104
0.000394269
0.000395064
0.000783126
0.000779502
0.000775283
0.000770781
0.000766074
0.000761207
0.000756041
0.000750414
0.000744199
0.000737225
0.000729268
0.000719903
0.000708488
0.000694052
0.000675096
0.000650342
0.000619935
0.000586356
0.000554298
0.000531146
0.000948301
0.000945843
0.000942958
0.00093978
0.000936332
0.000932611
0.000928573
0.000924131
0.000919114
0.000913308
0.000906437
0.000898048
0.000887404
0.000873406
0.000854374
0.00082813
0.000792437
0.000747444
0.000699754
0.000662171
0.000990119
0.000989249
0.000988201
0.000986999
0.000985637
0.000984095
0.000982341
0.000980322
0.000977951
0.000975092
0.00097154
0.000966984
0.000960922
0.000952564
0.000940654
0.000923276
0.000897725
0.000861379
0.000816579
0.00077705
0.000998406
0.000998182
0.000997901
0.000997565
0.000997163
0.000996685
0.00099611
0.000995413
0.000994549
0.000993454
0.00099202
0.00099008
0.000987364
0.000983424
0.000977511
0.000968371
0.000953989
0.000931556
0.000899876
0.00086843
0.000999775
0.000999728
0.000999667
0.000999589
0.00099949
0.000999366
0.000999208
0.000999005
0.000998739
0.000998382
0.000997889
0.000997186
0.000996147
0.000994561
0.000992053
0.00098796
0.000981124
0.000969679
0.000951772
0.000931986
0.000999972
0.000999963
0.000999952
0.000999936
0.000999915
0.000999886
0.000999848
0.000999796
0.000999723
0.00099962
0.00099947
0.000999245
0.000998894
0.000998332
0.000997398
0.000995795
0.000992973
0.000987962
0.000979491
0.000968889
0.000999997
0.000999995
0.000999994
0.000999991
0.000999987
0.000999981
0.000999972
0.00099996
0.000999942
0.000999915
0.000999874
0.000999809
0.000999703
0.000999525
0.000999216
0.000998661
0.000997636
0.000995724
0.000992293
0.000987493
0.001
0.000999999
0.000999999
0.000999999
0.000999998
0.000999997
0.000999995
0.000999992
0.000999988
0.000999982
0.000999972
0.000999955
0.000999926
0.000999875
0.000999783
0.000999612
0.000999283
0.000998642
0.000997433
0.00099559
0.001
0.001
0.001
0.001
0.001
0.000999999
0.000999999
0.000999999
0.000999998
0.000999996
0.000999994
0.00099999
0.000999983
0.00099997
0.000999945
0.000999897
0.000999803
0.000999613
0.000999239
0.000998634
0.001
0.001
0.001
0.001
0.001
0.001
0.001
0.001
0.001
0.000999999
0.000999999
0.000999998
0.000999996
0.000999993
0.000999987
0.000999975
0.000999951
0.000999901
0.0009998
0.000999626
3.25992e-141
3.71249e-141
5.41084e-141
9.90548e-141
2.0342e-140
4.31674e-140
9.14006e-140
1.90666e-139
3.89875e-139
7.79142e-139
1.51772e-138
2.87044e-138
5.25664e-138
9.28785e-138
1.57611e-137
2.55351e-137
3.91789e-137
5.62793e-137
7.43852e-137
8.79063e-137
8.31037e-140
9.2187e-140
1.31329e-139
2.38124e-139
4.88868e-139
1.04074e-138
2.21317e-138
4.63915e-138
9.5358e-138
1.9164e-137
3.75584e-137
7.14877e-137
1.31802e-136
2.34561e-136
4.01147e-136
6.55479e-136
1.01527e-135
1.47394e-135
1.97166e-135
2.36307e-135
1.96686e-138
2.11795e-138
2.93762e-138
5.26486e-138
1.0802e-137
2.30772e-137
4.93086e-137
1.03906e-136
2.148e-136
4.34334e-136
8.56856e-136
1.6424e-135
3.05089e-135
5.47343e-135
9.44233e-135
1.55752e-134