/*--------------------------------*- C++ -*----------------------------------*\
| =========                 |                                                 |
| \\      /  F ield         | OpenFOAM: The Open Source CFD Toolbox           |
|  \\    /   O peration     | Version:  2.1.0                                 |
|   \\  /    A nd           | Web:      www.OpenFOAM.org                      |
|    \\/     M anipulation  |                                                 |
\*---------------------------------------------------------------------------*/
FoamFile
{
    version     2.0;
    format      ascii;
    class       volScalarField;
    location    "0.43";
    object      C2;
}
// * * * * * * * * * * * * * * * * * * * * * * * * * * * * * * * * * * * * * //

dimensions      [0 0 0 0 0 0 0];

internalField   nonuniform List<scalar> 
6400
(
0.00242338
0.00242072
0.00241728
0.00241353
0.0024096
0.0024055
0.00240123
0.00239681
0.00239222
0.00238747
0.00238254
0.00237744
0.00237215
0.00236669
0.00236103
0.00235518
0.00234913
0.00234288
0.00233642
0.00232974
0.00232283
0.0023157
0.00230834
0.00230073
0.00229287
0.00228476
0.00227638
0.00226773
0.0022588
0.00224958
0.00224006
0.00223023
0.00222009
0.00220962
0.00219881
0.00218765
0.00217613
0.00216423
0.00215196
0.00213929
0.0021262
0.0021127
0.00209876
0.00208437
0.00206951
0.00205417
0.00203833
0.00202198
0.00200509
0.00198766
0.00196966
0.00195107
0.00193187
0.00191204
0.00189157
0.00187042
0.00184857
0.00182601
0.00180271
0.00177863
0.00175376
0.00172808
0.00170154
0.00167412
0.0016458
0.00161655
0.00158632
0.0015551
0.00152285
0.00148953
0.00145512
0.00141958
0.00138287
0.00134497
0.00130583
0.00126543
0.00122373
0.00118071
0.00113633
0.00109056
0.0010434
0.000994815
0.00094481
0.000893384
0.000840553
0.000786347
0.000730817
0.000674038
0.000616112
0.000557179
0.000497422
0.000437081
0.000376501
0.000316244
0.000257184
0.000200422
0.000146854
9.80583e-05
5.65665e-05
2.58197e-05
0.00242623
0.00242358
0.00242019
0.00241651
0.00241265
0.00240862
0.00240443
0.00240009
0.00239558
0.00239091
0.00238606
0.00238105
0.00237585
0.00237048
0.00236491
0.00235916
0.00235321
0.00234706
0.0023407
0.00233413
0.00232734
0.00232032
0.00231307
0.00230558
0.00229785
0.00228986
0.00228161
0.00227309
0.00226429
0.0022552
0.00224582
0.00223614
0.00222614
0.00221581
0.00220515
0.00219415
0.00218279
0.00217105
0.00215894
0.00214643
0.00213352
0.00212019
0.00210642
0.0020922
0.00207752
0.00206236
0.0020467
0.00203053
0.00201383
0.00199658
0.00197877
0.00196036
0.00194135
0.00192171
0.00190142
0.00188046
0.00185879
0.00183641
0.00181328
0.00178938
0.00176469
0.00173916
0.00171278
0.00168552
0.00165735
0.00162823
0.00159813
0.00156702
0.00153487
0.00150165
0.0014673
0.00143181
0.00139513
0.00135723
0.00131808
0.00127762
0.00123583
0.00119268
0.00114812
0.00110213
0.00105468
0.00100576
0.000955328
0.000903395
0.000849959
0.000795039
0.000738675
0.000680932
0.000621915
0.000561778
0.00050075
0.000439165
0.000377508
0.000316477
0.000256991
0.000200298
0.000147383
0.000100087
6.10197e-05
3.30911e-05
0.00243227
0.0024297
0.00242644
0.00242292
0.00241921
0.00241535
0.00241133
0.00240716
0.00240283
0.00239834
0.00239369
0.00238886
0.00238387
0.0023787
0.00237335
0.00236781
0.00236209
0.00235616
0.00235004
0.00234371
0.00233717
0.0023304
0.00232342
0.0023162
0.00230874
0.00230103
0.00229307
0.00228484
0.00227635
0.00226757
0.00225851
0.00224915
0.00223949
0.0022295
0.00221919
0.00220854
0.00219754
0.00218618
0.00217445
0.00216233
0.00214981
0.00213688
0.00212353
0.00210973
0.00209547
0.00208075
0.00206553
0.00204981
0.00203356
0.00201677
0.00199942
0.00198149
0.00196296
0.0019438
0.00192399
0.00190352
0.00188235
0.00186047
0.00183784
0.00181444
0.00179025
0.00176523
0.00173935
0.00171259
0.00168491
0.00165628
0.00162666
0.00159603
0.00156434
0.00153156
0.00149764
0.00146256
0.00142626
0.00138871
0.00134987
0.0013097
0.00126814
0.00122516
0.00118071
0.00113476
0.00108726
0.00103818
0.00098747
0.000935116
0.000881095
0.0008254
0.000768047
0.00070908
0.000648594
0.00058675
0.000523816
0.000460214
0.000396574
0.000333799
0.000273135
0.000215848
0.000163003
0.000116459
7.85285e-05
5.16563e-05
0.00244158
0.00243917
0.00243613
0.00243285
0.0024294
0.0024258
0.00242206
0.00241817
0.00241412
0.00240993
0.00240558
0.00240107
0.0023964
0.00239156
0.00238655
0.00238136
0.00237599
0.00237044
0.0023647
0.00235876
0.00235262
0.00234626
0.0023397
0.00233291
0.0023259
0.00231865
0.00231116
0.00230342
0.00229542
0.00228715
0.00227861
0.00226978
0.00226067
0.00225124
0.00224151
0.00223145
0.00222106
0.00221032
0.00219922
0.00218775
0.0021759
0.00216365
0.00215098
0.0021379
0.00212437
0.00211039
0.00209593
0.00208098
0.00206553
0.00204955
0.00203303
0.00201594
0.00199826
0.00197998
0.00196107
0.00194151
0.00192127
0.00190033
0.00187866
0.00185624
0.00183303
0.00180902
0.00178416
0.00175844
0.00173181
0.00170424
0.0016757
0.00164615
0.00161555
0.00158387
0.00155106
0.00151708
0.00148189
0.00144545
0.0014077
0.00136861
0.00132811
0.00128616
0.0012427
0.00119769
0.00115106
0.00110275
0.00105272
0.00100089
0.000947224
0.000891671
0.000834204
0.000774821
0.000713572
0.000650587
0.000586113
0.000520579
0.000454658
0.000389356
0.00032607
0.000265991
0.000210304
0.000160945
0.000120327
9.14861e-05
0.00245411
0.00245194
0.00244922
0.00244628
0.00244319
0.00243996
0.00243659
0.00243308
0.00242944
0.00242566
0.00242173
0.00241766
0.00241344
0.00240906
0.00240453
0.00239983
0.00239497
0.00238993
0.00238472
0.00237933
0.00237376
0.00236799
0.00236202
0.00235585
0.00234946
0.00234286
0.00233604
0.00232898
0.00232169
0.00231415
0.00230635
0.0022983
0.00228997
0.00228135
0.00227245
0.00226325
0.00225373
0.00224389
0.00223372
0.0022232
0.00221233
0.00220108
0.00218946
0.00217743
0.00216499
0.00215212
0.00213882
0.00212505
0.00211081
0.00209607
0.00208082
0.00206504
0.00204872
0.00203182
0.00201432
0.00199622
0.00197748
0.00195807
0.00193798
0.00191718
0.00189564
0.00187333
0.00185023
0.0018263
0.00180151
0.00177584
0.00174924
0.00172168
0.00169312
0.00166353
0.00163286
0.00160108
0.00156813
0.00153398
0.00149856
0.00146183
0.00142374
0.00138422
0.00134321
0.00130064
0.00125644
0.00121053
0.00116282
0.00111321
0.00106161
0.00100793
0.000952053
0.000893917
0.000833475
0.000770752
0.000705883
0.000639173
0.000571168
0.00050275
0.000435219
0.000369727
0.00030764
0.000251253
0.000203828
0.000170419
0.00246971
0.00246785
0.00246554
0.00246303
0.00246039
0.00245763
0.00245475
0.00245175
0.00244862
0.00244537
0.00244199
0.00243848
0.00243484
0.00243106
0.00242714
0.00242308
0.00241887
0.00241451
0.00240999
0.00240531
0.00240047
0.00239546
0.00239027
0.0023849
0.00237935
0.0023736
0.00236766
0.00236151
0.00235515
0.00234857
0.00234176
0.00233472
0.00232744
0.00231991
0.00231212
0.00230407
0.00229574
0.00228712
0.0022782
0.00226898
0.00225944
0.00224957
0.00223936
0.00222879
0.00221786
0.00220655
0.00219484
0.00218272
0.00217018
0.0021572
0.00214377
0.00212986
0.00211545
0.00210054
0.00208511
0.00206912
0.00205256
0.00203542
0.00201765
0.00199926
0.0019802
0.00196045
0.00194
0.0019188
0.00189684
0.00187408
0.00185049
0.00182603
0.00180068
0.0017744
0.00174715
0.00171888
0.00168956
0.00165913
0.00162756
0.00159478
0.00156073
0.00152536
0.00148858
0.00145033
0.0014105
0.00136901
0.00132573
0.00128055
0.00123331
0.00118385
0.00113201
0.0010776
0.00102045
0.000960426
0.000897462
0.000831607
0.000763102
0.000692461
0.000620625
0.000548777
0.000478432
0.000412453
0.000355626
0.000316276
0.00248805
0.00248659
0.00248477
0.00248279
0.00248071
0.00247852
0.00247622
0.00247383
0.00247133
0.00246872
0.00246601
0.00246318
0.00246025
0.0024572
0.00245404
0.00245075
0.00244735
0.00244381
0.00244015
0.00243635
0.00243242
0.00242834
0.00242412
0.00241975
0.00241522
0.00241053
0.00240568
0.00240066
0.00239547
0.00239009
0.00238452
0.00237876
0.00237281
0.00236664
0.00236026
0.00235366
0.00234683
0.00233976
0.00233244
0.00232487
0.00231704
0.00230894
0.00230055
0.00229186
0.00228288
0.00227358
0.00226395
0.00225398
0.00224366
0.00223298
0.00222191
0.00221046
0.0021986
0.00218631
0.00217359
0.00216042
0.00214677
0.00213263
0.00211799
0.00210281
0.00208709
0.0020708
0.00205392
0.00203643
0.00201829
0.0019995
0.00198002
0.00195982
0.00193887
0.00191714
0.00189461
0.00187122
0.00184695
0.00182175
0.00179558
0.00176838
0.0017401
0.00171067
0.00168002
0.00164808
0.00161474
0.0015799
0.00154342
0.00150517
0.00146496
0.00142259
0.00137783
0.00133042
0.00128006
0.00122644
0.00116928
0.00110831
0.00104338
0.000974432
0.000901769
0.000826567
0.000750302
0.000676265
0.000610937
0.0005664
0.00250871
0.00250771
0.00250646
0.0025051
0.00250365
0.00250212
0.00250051
0.00249882
0.00249705
0.00249519
0.00249325
0.00249123
0.00248912
0.00248693
0.00248464
0.00248227
0.0024798
0.00247723
0.00247456
0.0024718
0.00246893
0.00246595
0.00246286
0.00245966
0.00245635
0.00245291
0.00244935
0.00244566
0.00244185
0.00243789
0.0024338
0.00242956
0.00242517
0.00242063
0.00241592
0.00241105
0.00240602
0.0024008
0.0023954
0.00238981
0.00238403
0.00237804
0.00237184
0.00236543
0.00235878
0.00235191
0.00234479
0.00233742
0.00232979
0.00232189
0.0023137
0.00230523
0.00229646
0.00228737
0.00227796
0.00226821
0.00225812
0.00224766
0.00223683
0.0022256
0.00221398
0.00220193
0.00218945
0.00217651
0.00216311
0.00214922
0.00213483
0.0021199
0.00210443
0.00208838
0.00207173
0.00205446
0.00203653
0.00201792
0.00199857
0.00197846
0.00195753
0.00193574
0.001913
0.00188927
0.00186445
0.00183844
0.00181111
0.00178233
0.00175194
0.00171971
0.00168543
0.00164878
0.00160943
0.00156699
0.00152102
0.00147105
0.00141655
0.00135694
0.00129167
0.00122157
0.00114797
0.00107389
0.00100667
0.000960967
0.00253106
0.00253058
0.00252997
0.00252929
0.00252855
0.00252775
0.0025269
0.00252599
0.00252503
0.00252401
0.00252293
0.0025218
0.00252061
0.00251936
0.00251805
0.00251669
0.00251526
0.00251377
0.00251222
0.0025106
0.00250892
0.00250717
0.00250535
0.00250346
0.00250149
0.00249945
0.00249734
0.00249514
0.00249286
0.0024905
0.00248806
0.00248552
0.00248289
0.00248017
0.00247735
0.00247443
0.0024714
0.00246827
0.00246502
0.00246166
0.00245818
0.00245458
0.00245085
0.00244698
0.00244298
0.00243884
0.00243455
0.00243012
0.00242552
0.00242076
0.00241583
0.00241073
0.00240545
0.00239998
0.00239432
0.00238846
0.00238239
0.00237611
0.00236961
0.00236287
0.0023559
0.00234868
0.00234121
0.00233348
0.00232548
0.00231719
0.00230861
0.00229973
0.00229054
0.00228101
0.00227114
0.00226092
0.00225032
0.00223933
0.00222792
0.00221606
0.00220374
0.0021909
0.00217751
0.00216351
0.00214886
0.00213347
0.00211726
0.00210012
0.00208194
0.00206255
0.0020418
0.00201947
0.00199524
0.00196881
0.0019398
0.00190774
0.00187207
0.00183202
0.00178661
0.00173495
0.00167906
0.0016205
0.00156531
0.00152693
0.00255433
0.00255442
0.00255449
0.00255453
0.00255454
0.00255452
0.00255447
0.00255439
0.00255429
0.00255415
0.00255399
0.0025538
0.00255359
0.00255334
0.00255308
0.00255278
0.00255246
0.00255211
0.00255174
0.00255134
0.00255092
0.00255047
0.00254999
0.00254949
0.00254896
0.0025484
0.00254782
0.0025472
0.00254656
0.00254589
0.00254519
0.00254447
0.00254371
0.00254292
0.00254209
0.00254124
0.00254035
0.00253942
0.00253847
0.00253747
0.00253644
0.00253537
0.00253426
0.00253311
0.00253191
0.00253068
0.0025294
0.00252808
0.00252671
0.00252529
0.00252382
0.00252231
0.00252074
0.00251912
0.00251744
0.00251572
0.00251393
0.00251209
0.0025102
0.00250824
0.00250623
0.00250416
0.00250203
0.00249984
0.00249759
0.00249528
0.00249291
0.00249048
0.00248799
0.00248544
0.00248283
0.00248016
0.00247742
0.00247462
0.00247174
0.00246878
0.00246574
0.0024626
0.00245935
0.00245598
0.00245243
0.0024487
0.00244474
0.0024405
0.00243594
0.00243099
0.0024256
0.00241977
0.00241328
0.00240605
0.00239797
0.00238886
0.00237847
0.00236642
0.00235221
0.00233509
0.00231459
0.00229173
0.00226869
0.0022513
0.00257768
0.00257834
0.0025791
0.00257988
0.00258066
0.00258143
0.0025822
0.00258296
0.00258373
0.00258449
0.00258526
0.00258602
0.00258679
0.00258757
0.00258835
0.00258914
0.00258994
0.00259076
0.00259158
0.00259241
0.00259326
0.00259413
0.00259501
0.00259591
0.00259683
0.00259777
0.00259874
0.00259972
0.00260074
0.00260177
0.00260284
0.00260394
0.00260507
0.00260623
0.00260742
0.00260865
0.00260992
0.00261123
0.00261258
0.00261397
0.00261541
0.0026169
0.00261843
0.00262002
0.00262166
0.00262336
0.00262511
0.00262693
0.00262881
0.00263076
0.00263278
0.00263488
0.00263706
0.00263931
0.00264165
0.00264409
0.00264662
0.00264924
0.00265198
0.00265482
0.00265778
0.00266087
0.00266408
0.00266744
0.00267095
0.00267462
0.00267845
0.00268246
0.00268667
0.00269107
0.00269569
0.00270054
0.00270563
0.00271098
0.0027166
0.00272252
0.00272874
0.00273529
0.00274218
0.00274944
0.00275707
0.0027651
0.00277354
0.00278241
0.00279174
0.00280154
0.00281182
0.00282257
0.00283394
0.00284607
0.00285919
0.00287355
0.00288931
0.00290664
0.00292572
0.00294681
0.00297011
0.00299533
0.0030201
0.003038
0.00260025
0.00260146
0.0026029
0.0026044
0.00260592
0.00260746
0.00260902
0.00261061
0.00261221
0.00261385
0.00261552
0.00261721
0.00261894
0.0026207
0.00262251
0.00262435
0.00262623
0.00262816
0.00263014
0.00263217
0.00263425
0.00263639
0.00263858
0.00264084
0.00264316
0.00264555
0.00264801
0.00265054
0.00265314
0.00265583
0.0026586
0.00266146
0.00266441
0.00266745
0.00267059
0.00267383
0.00267717
0.00268063
0.0026842
0.00268789
0.0026917
0.00269564
0.00269972
0.00270394
0.0027083
0.00271281
0.00271748
0.00272231
0.00272731
0.00273249
0.00273785
0.00274341
0.00274916
0.00275512
0.00276131
0.00276771
0.00277436
0.00278125
0.0027884
0.00279582
0.00280353
0.00281153
0.00281984
0.00282848
0.00283747
0.00284681
0.00285654
0.00286667
0.00287721
0.00288821
0.00289967
0.00291163
0.00292411
0.00293716
0.00295079
0.00296504
0.00297996
0.00299558
0.00301196
0.00302913
0.00304714
0.00306607
0.00308596
0.00310688
0.00312893
0.00315218
0.00317674
0.00320276
0.00323041
0.00325992
0.00329152
0.00332565
0.00336312
0.00340425
0.00344931
0.00349854
0.00355158
0.00360646
0.0036575
0.00369234
0.00262134
0.00262306
0.00262512
0.00262729
0.0026295
0.00263176
0.00263407
0.00263642
0.00263882
0.00264126
0.00264377
0.00264632
0.00264894
0.00265162
0.00265437
0.00265719
0.00266008
0.00266305
0.0026661
0.00266923
0.00267245
0.00267576
0.00267917
0.00268268
0.00268629
0.00269002
0.00269385
0.00269781
0.00270189
0.00270609
0.00271043
0.0027149
0.00271953
0.00272429
0.00272922
0.00273431
0.00273956
0.00274499
0.0027506
0.00275639
0.00276238
0.00276858
0.00277498
0.00278161
0.00278846
0.00279554
0.00280288
0.00281046
0.00281831
0.00282644
0.00283485
0.00284357
0.00285259
0.00286193
0.00287161
0.00288164
0.00289203
0.0029028
0.00291397
0.00292555
0.00293756
0.00295002
0.00296295
0.00297637
0.00299031
0.00300479
0.00301984
0.00303548
0.00305175
0.00306867
0.00308628
0.00310462
0.00312373
0.00314364
0.00316441
0.00318609
0.00320872
0.00323236
0.00325708
0.00328295
0.00331002
0.00333839
0.00336815
0.00339937
0.00343218
0.00346669
0.00350306
0.00354144
0.00358202
0.00362504
0.00367076
0.00371948
0.00377157
0.0038278
0.00388804
0.00395204
0.00401876
0.00408528
0.00414508
0.00418532
0.00264037
0.00264253
0.00264516
0.00264793
0.00265077
0.00265368
0.00265665
0.00265969
0.00266279
0.00266597
0.00266922
0.00267255
0.00267596
0.00267946
0.00268305
0.00268674
0.00269052
0.00269441
0.00269841
0.00270252
0.00270675
0.0027111
0.00271558
0.00272019
0.00272495
0.00272985
0.0027349
0.0027401
0.00274547
0.00275101
0.00275673
0.00276262
0.00276871
0.00277499
0.00278148
0.00278818
0.0027951
0.00280225
0.00280964
0.00281727
0.00282516
0.00283332
0.00284175
0.00285046
0.00285948
0.0028688
0.00287844
0.00288842
0.00289874
0.00290942
0.00292048
0.00293192
0.00294376
0.00295603
0.00296872
0.00298187
0.0029955
0.00300961
0.00302423
0.00303939
0.0030551
0.00307139
0.00308828
0.0031058
0.00312398
0.00314285
0.00316244
0.00318278
0.0032039
0.00322586
0.00324868
0.00327241
0.0032971
0.00332279
0.00334954
0.0033774
0.00340644
0.00343672
0.0034683
0.00350125
0.00353567
0.00357162
0.00360919
0.00364849
0.00368961
0.00373266
0.00377776
0.00382503
0.00387461
0.00392662
0.00398117
0.00403834
0.00409817
0.00416086
0.00422625
0.00429358
0.00436138
0.00442669
0.00448389
0.00452262
0.00265692
0.00265947
0.00266258
0.00266587
0.00266926
0.00267273
0.00267628
0.00267991
0.00268362
0.00268743
0.00269132
0.00269531
0.00269941
0.0027036
0.00270791
0.00271234
0.00271689
0.00272156
0.00272636
0.0027313
0.00273639
0.00274162
0.00274701
0.00275256
0.00275827
0.00276416
0.00277023
0.00277649
0.00278294
0.00278959
0.00279646
0.00280354
0.00281085
0.00281839
0.00282617
0.00283421
0.00284251
0.00285109
0.00285994
0.00286909
0.00287854
0.00288831
0.00289841
0.00290884
0.00291963
0.00293078
0.00294231
0.00295424
0.00296657
0.00297933
0.00299254
0.00300619
0.00302033
0.00303496
0.0030501
0.00306577
0.003082
0.00309881
0.00311622
0.00313425
0.00315292
0.00317228
0.00319234
0.00321313
0.00323469
0.00325705
0.00328024
0.0033043
0.00332927
0.00335519
0.0033821
0.00341005
0.00343908
0.00346925
0.00350061
0.00353322
0.00356714
0.00360243
0.00363915
0.00367738
0.00371718
0.00375863
0.0038018
0.00384675
0.00389357
0.00394232
0.00399307
0.00404585
0.0041007
0.00415759
0.00421645
0.00427711
0.00433925
0.00440242
0.00446646
0.00453032
0.00459246
0.00465033
0.00469984
0.00473396
0.00267073
0.00267358
0.0026771
0.00268083
0.00268468
0.00268861
0.00269264
0.00269676
0.00270098
0.0027053
0.00270973
0.00271426
0.00271892
0.00272369
0.00272859
0.00273362
0.00273879
0.0027441
0.00274956
0.00275518
0.00276096
0.0027669
0.00277302
0.00277932
0.00278581
0.0027925
0.00279939
0.00280648
0.0028138
0.00282134
0.00282912
0.00283715
0.00284542
0.00285396
0.00286277
0.00287187
0.00288125
0.00289094
0.00290095
0.00291128
0.00292194
0.00293296
0.00294435
0.00295611
0.00296826
0.00298082
0.00299379
0.00300721
0.00302108
0.00303542
0.00305024
0.00306558
0.00308143
0.00309784
0.00311481
0.00313237
0.00315054
0.00316934
0.00318881
0.00320896
0.00322982
0.00325142
0.0032738
0.00329697
0.00332098
0.00334586
0.00337165
0.00339837
0.00342608
0.00345481
0.0034846
0.0035155
0.00354757
0.00358084
0.00361537
0.00365121
0.00368842
0.00372705
0.00376717
0.00380882
0.00385206
0.00389696
0.00394355
0.00399188
0.004042
0.00409392
0.00414764
0.00420313
0.00426033
0.00431909
0.00437917
0.00444019
0.00450161
0.00456264
0.00462282
0.00468115
0.00473615
0.00478579
0.00482726
0.00485634
0.00268164
0.00268472
0.00268856
0.00269263
0.00269684
0.00270115
0.00270555
0.00271006
0.00271468
0.00271941
0.00272425
0.00272921
0.0027343
0.00273952
0.00274488
0.00275039
0.00275604
0.00276185
0.00276782
0.00277395
0.00278027
0.00278676
0.00279344
0.00280032
0.0028074
0.0028147
0.00282221
0.00282995
0.00283792
0.00284614
0.00285461
0.00286334
0.00287234
0.00288163
0.00289121
0.00290109
0.00291128
0.0029218
0.00293265
0.00294385
0.00295541
0.00296735
0.00297967
0.00299239
0.00300553
0.0030191
0.00303312
0.0030476
0.00306255
0.00307801
0.00309398
0.00311049
0.00312755
0.00314518
0.00316342
0.00318227
0.00320176
0.00322192
0.00324276
0.00326433
0.00328664
0.00330972
0.00333361
0.00335833
0.00338392
0.0034104
0.00343782
0.00346622
0.00349562
0.00352607
0.00355761
0.00359029
0.00362415
0.00365922
0.00369557
0.00373324
0.00377227
0.00381271
0.00385462
0.00389802
0.00394298
0.00398952
0.00403767
0.00408746
0.00413889
0.00419194
0.00424658
0.00430274
0.00436027
0.00441898
0.00447855
0.00453852
0.00459824
0.00465686
0.00471355
0.00476748
0.00481727
0.00486116
0.00489704
0.00492236
0.00268958
0.00269282
0.00269689
0.00270122
0.00270569
0.00271027
0.00271495
0.00271974
0.00272465
0.00272967
0.00273482
0.00274009
0.0027455
0.00275105
0.00275674
0.00276258
0.00276858
0.00277475
0.00278108
0.00278759
0.00279429
0.00280117
0.00280826
0.00281555
0.00282305
0.00283077
0.00283873
0.00284692
0.00285535
0.00286405
0.002873
0.00288223
0.00289174
0.00290155
0.00291166
0.00292209
0.00293284
0.00294392
0.00295536
0.00296716
0.00297933
0.00299188
0.00300484
0.00301822
0.00303202
0.00304627
0.00306097
0.00307616
0.00309183
0.00310802
0.00312473
0.003142
0.00315983
0.00317825
0.00319727
0.00321693
0.00323724
0.00325823
0.00327992
0.00330234
0.00332551
0.00334946
0.00337422
0.00339982
0.00342629
0.00345366
0.00348197
0.00351124
0.00354152
0.00357285
0.00360524
0.00363876
0.00367343
0.0037093
0.00374641
0.0037848
0.0038245
0.00386556
0.00390802
0.0039519
0.00399725
0.00404407
0.00409239
0.00414221
0.00419352
0.00424628
0.00430045
0.00435592
0.00441255
0.00447013
0.00452836
0.0045868
0.00464485
0.00470175
0.00475654
0.00480842
0.00485615
0.00489797
0.00493184
0.00495567
0.00269462
0.00269794
0.00270214
0.00270664
0.00271128
0.00271603
0.00272089
0.00272587
0.00273096
0.00273617
0.00274151
0.00274698
0.00275259
0.00275834
0.00276424
0.0027703
0.00277652
0.00278291
0.00278947
0.00279622
0.00280315
0.00281028
0.00281762
0.00282516
0.00283293
0.00284092
0.00284915
0.00285762
0.00286634
0.00287532
0.00288458
0.00289411
0.00290393
0.00291406
0.00292449
0.00293525
0.00294634
0.00295777
0.00296956
0.00298171
0.00299425
0.00300718
0.00302051
0.00303427
0.00304846
0.00306311
0.00307822
0.00309381
0.0031099
0.00312651
0.00314365
0.00316134
0.0031796
0.00319845
0.00321792
0.00323802
0.00325877
0.0032802
0.00330233
0.00332519
0.00334879
0.00337318
0.00339836
0.00342439
0.00345127
0.00347904
0.00350773
0.00353738
0.00356801
0.00359965
0.00363235
0.00366614
0.00370104
0.0037371
0.00377435
0.00381282
0.00385255
0.00389357
0.0039359
0.00397957
0.0040246
0.004071
0.00411878
0.00416793
0.00421843
0.00427023
0.00432328
0.00437748
0.0044327
0.00448877
0.00454543
0.00460232
0.00465898
0.00471478
0.00476889
0.00482053
0.00486855
0.00491126
0.00494633
0.00497123
0.00269693
0.00270025
0.00270451
0.00270908
0.0027138
0.00271863
0.00272358
0.00272864
0.00273381
0.00273911
0.00274454
0.0027501
0.0027558
0.00276165
0.00276765
0.0027738
0.00278012
0.00278661
0.00279328
0.00280013
0.00280717
0.00281442
0.00282186
0.00282952
0.00283741
0.00284552
0.00285387
0.00286246
0.00287131
0.00288042
0.00288981
0.00289948
0.00290944
0.0029197
0.00293028
0.00294118
0.00295242
0.002964
0.00297594
0.00298825
0.00300094
0.00301403
0.00302752
0.00304144
0.0030558
0.00307061
0.00308589
0.00310165
0.00311791
0.00313469
0.003152
0.00316986
0.00318829
0.00320732
0.00322695
0.00324722
0.00326814
0.00328973
0.00331202
0.00333504
0.00335879
0.00338332
0.00340865
0.00343479
0.00346179
0.00348967
0.00351846
0.00354819
0.00357889
0.00361058
0.00364331
0.00367709
0.00371197
0.00374798
0.00378514
0.00382349
0.00386305
0.00390386
0.00394593
0.00398928
0.00403393
0.00407989
0.00412716
0.00417572
0.00422554
0.00427659
0.0043288
0.00438209
0.00443633
0.0044914
0.00454709
0.00460315
0.00465918
0.00471456
0.00476851
0.00482025
0.00486882
0.0049128
0.00494996
0.00497734
1.0123e-05
1.01248e-05
1.26256e-05
1.6138e-05
2.02865e-05
2.49609e-05
3.01396e-05
3.58471e-05
4.21457e-05
4.91371e-05
5.6967e-05
6.58297e-05
7.59692e-05
8.76711e-05
0.000101236
0.000116915
0.00013476
0.000154317
0.000173927
0.000189181
1.97073e-05
2.05476e-05
2.49467e-05
3.09213e-05
3.78312e-05
4.5456e-05
5.37339e-05
6.2686e-05
7.2397e-05
8.30142e-05
9.47517e-05
0.000107894
0.000122793
0.000139851
0.000159473
0.000181964
0.000207301
0.00023466
0.000261446
0.000281387
3.94428e-05
4.24642e-05
4.99488e-05
5.95848e-05
7.05011e-05
8.23383e-05
9.49659e-05
0.000108387
0.000122707
0.00013813
0.000154954
0.000173576
0.000194477
0.000218195
0.000245246
0.000275979
0.000310253
0.000346786
0.00038191
0.000407256
8.03272e-05
8.68078e-05
9.88097e-05
0.000113482
0.000129735
0.000147071
0.000165277
0.000184327
0.000204345
0.000225593
0.00024847
0.000273507
0.00030133
0.000332621
0.000368016
0.000407892
0.000451926
0.000498266
0.000541998
0.000572466
0.000160853
0.000171882
0.000189627
0.000210485
0.00023309
0.000256812
0.000281358
0.000306672
0.000332895
0.000360353
0.000389554
0.000421169
0.000455975
0.000494806
0.000538412
0.000587162
0.000640478
0.000695822
0.00074693
0.000781167
0.000309095
0.00032506
0.000348859
0.000376059
0.000404989
0.000434878
0.000465368
0.000496379
0.00052807
0.000560824
0.000595269
0.000632195
0.000672516
0.000717208
0.000767111
0.000822542
0.000882601
0.000944
0.000999209
0.00103487
0.000561954
0.000581781
0.000610108
0.000641866
0.000675121
0.000708983
0.000743046
0.000777217
0.000811668
0.000846854
0.000883481
0.000922398
0.000964602
0.00101117
0.00106299
0.00112028
0.00118181
0.00124358
0.00129732
0.00133108
0.000958484
0.000979026
0.00100779
0.00103961
0.0010725
0.0011055
0.00113821
0.00117053
0.0012027
0.00123522
0.00126874
0.00130402
0.00134206
0.00138391
0.00143048
0.00148188
0.00153657
0.00159017
0.00163482
0.00166194
0.00152472
0.00154087
0.00156345
0.0015882
0.00161342
0.00163828
0.00166247
0.00168597
0.00170908
0.00173213
0.00175554
0.00177986
0.00180587
0.00183442
0.00186631
0.00190158
0.00193873
0.00197387
0.00200135
0.00201653
0.00224881
0.0022549
0.00226364
0.0022731
0.00228248
0.00229134
0.0022996
0.0023073
0.00231448
0.00232117
0.00232753
0.00233371
0.00234005
0.00234682
0.00235446
0.00236298
0.00237183
0.00237947
0.00238398
0.00238481
0.00303953
0.00303253
0.00302259
0.00301157
0.00300014
0.00298863
0.002977
0.0029651
0.00295275
0.00293977
0.00292596
0.00291104
0.00289462
0.0028763
0.00285565
0.00283285
0.00280908
0.00278644
0.00276732
0.00275457
0.0036935
0.00367803
0.0036564
0.00363238
0.00360744
0.00358223
0.00355696
0.00353159
0.00350575
0.00347901
0.00345092
0.00342089
0.0033881
0.00335178
0.00331126
0.00326668
0.00321977
0.00317462
0.00313732
0.00311407
0.00418702
0.0041684
0.00414222
0.00411297
0.00408235
0.00405111
0.00401955
0.00398766
0.00395519
0.00392163
0.0038863
0.00384845
0.00380713
0.00376138
0.00371044
0.00365432
0.00359462
0.00353574
0.00348577
0.00345455
0.00452635
0.00450894
0.00448389
0.00445554
0.00442554
0.0043946
0.004363
0.00433077
0.0042977
0.00426333
0.00422697
0.00418782
0.00414494
0.00409736
0.00404429
0.00398558
0.00392248
0.0038589
0.00380304
0.00376746
0.00474025
0.00472655
0.00470589
0.00468207
0.00465649
0.00462976
0.00460214
0.00457366
0.00454412
0.00451314
0.00448012
0.00444431
0.00440488
0.00436091
0.00431166
0.00425686
0.00419736
0.00413634
0.00408107
0.00404495
0.00486478
0.00485549
0.0048403
0.00482226
0.00480253
0.00478161
0.00475972
0.00473686
0.00471287
0.00468743
0.00466006
0.00463012
0.00459689
0.00455961
0.00451759
0.00447048
0.00441883
0.00436504
0.00431508
0.00428117
0.00493222
0.00492687
0.00491669
0.00490411
0.00489005
0.0048749
0.00485882
0.00484181
0.00482373
0.00480431
0.00478319
0.00475986
0.00473373
0.00470419
0.00467063
0.00463271
0.00459073
0.00454641
0.00450441
0.00447482
0.00496647
0.00496407
0.00495777
0.00494955
0.00494015
0.00492986
0.00491879
0.00490689
0.00489406
0.0048801
0.00486473
0.00484757
0.00482817
0.00480605
0.00478071
0.00475183
0.00471954
0.00468505
0.00465177
0.0046276
0.00498307
0.0049825
0.00497882
0.00497374
0.0049678
0.0049612
0.00495396
0.00494606
0.00493741
0.00492786
0.00491721
0.0049052
0.0048915
0.00487573
0.00485752
0.00483658
0.00481295
0.00478737
0.00476228
0.00474355
0.00499122
0.00499132
0.00498923
0.00498624
0.00498268
0.00497863
0.00497411
0.00496909
0.00496349
0.00495723
0.00495017
0.00494212
0.00493286
0.00492212
0.00490962
0.00489514
0.00487862
0.0048605
0.0048423
0.00482815
1.94375e-52
1.94027e-52
1.93622e-52
1.93345e-52
1.93346e-52
1.93746e-52
1.94632e-52
1.96055e-52
1.98037e-52
2.00568e-52
2.0361e-52
2.07095e-52
2.10927e-52
2.14985e-52
2.19122e-52
2.23162e-52
2.26901e-52
2.30113e-52
2.32548e-52
2.3393e-52
9.91625e-52
9.88867e-52
9.86053e-52
9.84024e-52
9.83539e-52
9.85211e-52
9.89486e-52
9.96623e-52
1.00672e-51
1.01973e-51
1.03545e-51
1.05353e-51
1.07348e-51
1.0947e-51
1.11642e-51
1.13776e-51
1.15769e-51
1.17502e-51
1.1885e-51
1.19686e-51
3.4816e-51
3.46716e-51
3.45312e-51
3.44265e-51
3.43834e-51
3.44225e-51
3.45589e-51
3.48019e-51
3.51553e-51
3.56173e-51
3.61807e-51
3.68334e-51
3.75581e-51
3.8333e-51
3.91313e-51
3.99215e-51
4.06673e-51
4.13283e-51
4.18609e-51
4.22175e-51
1.1287e-50
1.12224e-50
1.1161e-50
1.11142e-50
1.10901e-50
1.1095e-50
1.11339e-50
1.12097e-50
1.13238e-50
1.14756e-50
1.1663e-50
1.18819e-50
1.21267e-50
1.23902e-50
1.26634e-50
1.2936e-50
1.31961e-50
1.34309e-50
1.36265e-50
1.3766e-50
3.57582e-50
3.54971e-50
3.52474e-50
3.50538e-50
3.49417e-50
3.49307e-50
3.50353e-50
3.52656e-50
3.56259e-50
3.61148e-50
3.67253e-50
3.74446e-50
3.82546e-50
3.91319e-50
4.00479e-50
4.09691e-50
4.18584e-50
4.26754e-50
4.33759e-50
4.38946e-50
1.12415e-49
1.11413e-49
1.1045e-49
1.0969e-49
1.09218e-49
1.09094e-49
1.09364e-49
1.10056e-49
1.11187e-49
1.1275e-49
1.14725e-49
1.17072e-49
1.19732e-49
1.2263e-49
1.25677e-49
1.28766e-49
1.31782e-49
1.34597e-49
1.37063e-49
1.38945e-49
3.52258e-49
3.48541e-49
3.44955e-49
3.42087e-49
3.4022e-49
3.39544e-49
3.40198e-49
3.42273e-49
3.45811e-49
3.50799e-49
3.5717e-49
3.64796e-49
3.73495e-49
3.83033e-49
3.93123e-49
4.03434e-49
4.13604e-49
4.23225e-49
4.31811e-49
4.38518e-49
1.1017e-48
1.08826e-48
1.07524e-48
1.06473e-48
1.05765e-48
1.05462e-48
1.05607e-48
1.06225e-48
1.07332e-48
1.08921e-48
1.10972e-48
1.13444e-48
1.16281e-48
1.19409e-48
1.22739e-48
1.26168e-48
1.29581e-48
1.32848e-48
1.35808e-48
1.38166e-48
3.44035e-48
3.39268e-48
3.34638e-48
3.30869e-48
3.28269e-48
3.27033e-48
3.27294e-48
3.29134e-48
3.3259e-48
3.37647e-48
3.44238e-48
3.52237e-48
3.61467e-48
3.71698e-48
3.82653e-48
3.94012e-48
4.05414e-48
4.16443e-48
4.26567e-48
4.34759e-48
1.07283e-47
1.05618e-47
1.03997e-47
1.02669e-47
1.01736e-47
1.01261e-47
1.01283e-47
1.01829e-47
1.02908e-47
1.04515e-47
1.0663e-47
1.09213e-47
1.12209e-47
1.15546e-47
1.19139e-47
1.22889e-47
1.26681e-47
1.30384e-47
1.33821e-47
1.3664e-47
3.34087e-47
3.28345e-47
3.22744e-47
3.18135e-47
3.14851e-47
3.13088e-47
3.12976e-47
3.14589e-47
3.17958e-47
3.23063e-47
3.29838e-47
3.38161e-47
3.47861e-47
3.5872e-47
3.70471e-47
3.82806e-47
3.95368e-47
4.07733e-47
4.1933e-47
4.28944e-47
1.03894e-46
1.01936e-46
1.00022e-46
9.84412e-47
9.73024e-47
9.66677e-47
9.65769e-47
9.70529e-47
9.8104e-47
9.97238e-47
1.01891e-46