/*--------------------------------*- C++ -*----------------------------------*\
| =========                 |                                                 |
| \\      /  F ield         | OpenFOAM: The Open Source CFD Toolbox           |
|  \\    /   O peration     | Version:  2.1.0                                 |
|   \\  /    A nd           | Web:      www.OpenFOAM.org                      |
|    \\/     M anipulation  |                                                 |
\*---------------------------------------------------------------------------*/
FoamFile
{
    version     2.0;
    format      ascii;
    class       volScalarField;
    location    "0.43";
    object      k;
}
// * * * * * * * * * * * * * * * * * * * * * * * * * * * * * * * * * * * * * //

dimensions      [0 2 -2 0 0 0 0];

internalField   nonuniform List<scalar> 
6400
(
0.0328026
0.032842
0.0328454
0.0328393
0.0328167
0.0328057
0.0327752
0.0327605
0.0327264
0.0327094
0.0326733
0.032653
0.032616
0.0325917
0.0325539
0.0325253
0.0324866
0.0324538
0.0324137
0.032377
0.0323354
0.0322952
0.032252
0.0322089
0.0321642
0.0321186
0.0320723
0.0320243
0.0319759
0.0319255
0.0318748
0.0318217
0.0317684
0.0317125
0.0316562
0.0315971
0.0315373
0.0314746
0.0314107
0.0313434
0.031274
0.0312002
0.0311234
0.0310413
0.0309548
0.0308621
0.0307634
0.0306573
0.0305438
0.0304217
0.0302908
0.0301501
0.0299991
0.0298344
0.029654
0.0294555
0.0292408
0.0290212
0.0287865
0.0285455
0.0282909
0.0280296
0.0277564
0.0274751
0.027181
0.0268778
0.026561
0.0262337
0.0258895
0.0255298
0.0251539
0.0247588
0.0243456
0.0239117
0.0234581
0.0229838
0.0224901
0.0219779
0.0214493
0.020907
0.0203531
0.019789
0.0192101
0.0185976
0.0179249
0.0172297
0.0164797
0.0156563
0.0147246
0.0136331
0.0123089
0.010642
0.00854917
0.00606587
0.00340841
0.00235738
0.00274654
0.00552359
0.00876189
0.00991662
0.051893
0.0522283
0.052382
0.0526637
0.0528377
0.0531173
0.0533102
0.0535837
0.0537942
0.0540624
0.054288
0.0545523
0.0547901
0.0550523
0.0552994
0.0555605
0.0558144
0.0560752
0.0563339
0.0565945
0.0568563
0.0571174
0.0573819
0.0576449
0.0579129
0.0581803
0.0584538
0.058727
0.059007
0.0592868
0.0595736
0.0598605
0.0601542
0.0604485
0.0607493
0.0610515
0.0613599
0.0616706
0.0619878
0.0623082
0.0626344
0.0629617
0.063293
0.0636246
0.0639577
0.0642892
0.0646189
0.064944
0.0652633
0.0655745
0.0658758
0.0661666
0.0664505
0.0667246
0.0669808
0.0672153
0.0674239
0.0676342
0.0678213
0.0679982
0.0681495
0.0682887
0.0684039
0.0685085
0.0685845
0.0686432
0.0686707
0.0686801
0.0686558
0.0685852
0.0684737
0.0683066
0.0680808
0.0677852
0.0674118
0.0669516
0.0663946
0.0657339
0.0649599
0.0640689
0.0630545
0.0619186
0.0606632
0.0592857
0.0577466
0.0559768
0.0539593
0.0516259
0.0489197
0.0457668
0.0421124
0.0379168
0.0332401
0.0283529
0.0233627
0.0186245
0.0149771
0.0123971
0.0107875
0.00922068
0.0575965
0.0580951
0.0583222
0.058735
0.0590157
0.0594135
0.0597272
0.0601152
0.0604525
0.0608355
0.0611904
0.0615719
0.0619402
0.0623225
0.0627011
0.0630853
0.0634716
0.0638582
0.0642498
0.0646381
0.0650324
0.0654207
0.0658145
0.0662024
0.0665965
0.0669861
0.0673845
0.0677781
0.0681802
0.0685781
0.0689833
0.0693849
0.0697925
0.0701972
0.0706064
0.071013
0.0714224
0.0718288
0.0722355
0.0726383
0.0730402
0.0734382
0.0738331
0.0742225
0.0746053
0.0749797
0.0753428
0.075692
0.0760225
0.0763298
0.0766074
0.0768454
0.0770508
0.0772444
0.0774069
0.077552
0.0776682
0.0777645
0.0778308
0.0778703
0.0778864
0.0778869
0.0778226
0.0777381
0.0775936
0.077416
0.0771777
0.0768958
0.0765493
0.0761477
0.075673
0.0751278
0.0744956
0.073774
0.0729463
0.0720071
0.0709396
0.0697375
0.0683851
0.0668775
0.0652022
0.0633574
0.0613341
0.059133
0.0567542
0.0542255
0.0515265
0.048674
0.0456363
0.0424113
0.0389493
0.0352271
0.0312149
0.0269168
0.0224448
0.0180948
0.0144245
0.0114648
0.00928243
0.00710628
0.0618167
0.0623742
0.062628
0.0631058
0.0634375
0.0638954
0.0642695
0.0647141
0.0651143
0.0655518
0.0659693
0.0664039
0.0668332
0.0672675
0.067705
0.0681403
0.0685832
0.0690198
0.0694656
0.0699028
0.0703489
0.0707848
0.0712279
0.0716558
0.0720843
0.0724935
0.072915
0.0733224
0.0737357
0.0741371
0.0745402
0.0749319
0.075322
0.0757001
0.0760737
0.076434
0.0767867
0.0771245
0.077453
0.0777641
0.0780591
0.078338
0.0785954
0.0788343
0.0790475
0.079238
0.079399
0.0795326
0.0796326
0.0796936
0.0797204
0.0797257
0.0796781
0.0795982
0.079467
0.0792953
0.0790673
0.0787892
0.0784473
0.0780442
0.0775678
0.0770223
0.0763958
0.0756937
0.0749008
0.0740246
0.0730501
0.0719857
0.0708188
0.0695582
0.0681941
0.0667357
0.0651766
0.0635268
0.0617817
0.0599522
0.0580347
0.0560406
0.0539667
0.0518237
0.0496085
0.0473308
0.0449874
0.0425871
0.0401283
0.0376188
0.0350582
0.0324726
0.0298569
0.0272304
0.0245938
0.0219645
0.0193472
0.016764
0.0142463
0.0118748
0.00969781
0.00786089
0.00658637
0.00598995
0.0629532
0.0634848
0.063722
0.0641835
0.0644912
0.0649309
0.0652758
0.0656955
0.0660602
0.0664638
0.066838
0.0672285
0.0676052
0.0679839
0.0683579
0.0687249
0.0690917
0.0694459
0.0698014
0.0701405
0.0704806
0.0708024
0.0711231
0.071425
0.0717226
0.0720032
0.0722787
0.0725355
0.072784
0.0730117
0.0732276
0.0734202
0.0735972
0.0737482
0.0738794
0.0739815
0.0740587
0.0740969
0.0741116
0.0741038
0.074039
0.0739514
0.0738101
0.073635
0.0734059
0.0731348
0.0728078
0.0724322
0.0719982
0.0715107
0.0709635
0.0703588
0.0696905
0.0689638
0.0681713
0.0673187
0.0664034
0.0654272
0.0643874
0.0632872
0.062124
0.0609022
0.0596195
0.0582815
0.0568858
0.0554394
0.0539402
0.0523959
0.0508047
0.0491749
0.047505
0.0458033
0.0440696
0.0423121
0.0405345
0.0387449
0.0369445
0.0351413
0.0333376
0.0315415
0.0297562
0.0279908
0.0262499
0.0245422
0.0228728
0.0212493
0.0196773
0.0181475
0.016672
0.0152443
0.0138736
0.0125536
0.0112948
0.010095
0.00897182
0.00794158
0.00703028
0.00639842
0.00612458
0.00612142
0.0594378
0.0597668
0.0599139
0.0602118
0.0604052
0.0606838
0.0608932
0.0611459
0.0613552
0.0615807
0.0617801
0.0619778
0.0621599
0.0623287
0.0624876
0.0626254
0.0627558
0.0628597
0.0629565
0.0630232
0.0630779
0.0631033
0.0631132
0.0631038
0.0630606
0.0629968
0.0629032
0.0627845
0.0626414
0.0624683
0.0622688
0.0620356
0.0617733
0.0614743
0.0611436
0.0607736
0.0603695
0.0599243
0.059444
0.0589207
0.0583584
0.0577556
0.0571114
0.0564274
0.0557015
0.0549367
0.054131
0.0532874
0.0524049
0.0514864
0.0505316
0.0495432
0.0485217
0.0474699
0.0463887
0.0452813
0.0441484
0.0429933
0.0418179
0.0406289
0.0394255
0.0382136
0.0369932
0.0357697
0.0345437
0.0333203
0.0321005
0.0308889
0.0296871
0.0284994
0.0273274
0.0261752
0.0250443
0.0239381
0.0228553
0.0217987
0.0207703
0.0197721
0.0188069
0.0178759
0.0169793
0.016113
0.0152819
0.0144808
0.0137138
0.012975
0.0122673
0.0115846
0.010929
0.0102931
0.00967898
0.00907934
0.00849821
0.0079324
0.00739605
0.00689905
0.0065355
0.00637746
0.00635098
0.00656806
0.0502887
0.0502581
0.0502481
0.0502426
0.0502351
0.050215
0.0501909
0.0501438
0.0500936
0.0500138
0.049932
0.0498164
0.0496992
0.0495457
0.0493904
0.0491974
0.0490019
0.0487684
0.0485313
0.0482567
0.0479774
0.0476623
0.0473415
0.0469823
0.0466121
0.0462075
0.0457883
0.0453373
0.0448697
0.0443718
0.0438561
0.0433114
0.0427487
0.0421583
0.0415505
0.0409167
0.0402666
0.0395927
0.038904
0.0381941
0.0374714
0.0367316
0.0359828
0.0352205
0.0344519
0.0336738
0.0328926
0.0321059
0.0313195
0.0305315
0.0297473
0.0289655
0.028191
0.0274226
0.0266648
0.0259158
0.0251775
0.0244516
0.0237398
0.0230398
0.0223557
0.0216855
0.0210325
0.0203948
0.0197748
0.0191705
0.0185857
0.0180153
0.0174624
0.0169236
0.0164009
0.0158912
0.0153959
0.0149119
0.0144402
0.0139778
0.0135253
0.0130797
0.0126405
0.0122046
0.0117876
0.0113803
0.0109897
0.0106074
0.0102398
0.00987905
0.00953123
0.00918934
0.00886016
0.0085383
0.00823211
0.00793896
0.00766999
0.00742676
0.00723055
0.00710041
0.00704707
0.00709115
0.00743161
0.00762369
0.037413
0.0370646
0.0369178
0.0366426
0.0364682
0.0361874
0.0359797
0.0356823
0.0354399
0.0351205
0.0348436
0.0345002
0.0341899
0.0338212
0.0334783
0.0330838
0.0327095
0.0322891
0.0318846
0.0314385
0.0310049
0.0305335
0.0300714
0.029584
0.0291065
0.0286084
0.0281207
0.0276135
0.0271139
0.0265982
0.0260925
0.0255742
0.025068
0.0245526
0.0240514
0.0235441
0.0230529
0.0225585
0.0220819
0.0216047
0.0211468
0.0206898
0.020252
0.0198171
0.0194021
0.0189917
0.0186016
0.0182175
0.0178536
0.0174968
0.0171596
0.0168299
0.0165198
0.0162188
0.015936
0.0156632
0.015407
0.0151615
0.0149306
0.0147102
0.0145033
0.0143063
0.0141218
0.0139465
0.0137829
0.013628
0.0134819
0.0133455
0.013218
0.0130992
0.0129879
0.0128841
0.0127865
0.012695
0.0126082
0.0125261
0.0124471
0.0123712
0.0122967
0.0122232
0.0121491
0.0120714
0.0119896
0.0119002
0.0118027
0.0116933
0.0115714
0.0114336
0.0112802
0.0111102
0.010927
0.0107341
0.0105411
0.0103588
0.01023
0.0101741
0.010168
0.0104143
0.0107766
0.0109547
0.0246068
0.0240827
0.0238651
0.0234527
0.0232154
0.022813
0.022556
0.0221597
0.0218855
0.0214942
0.0212065
0.0208191
0.0205217
0.0201386
0.019835
0.0194575
0.0191511
0.0187807
0.0184747
0.0181134
0.017811
0.0174609
0.0171652
0.0168321
0.0165495
0.0162353
0.015968
0.0156739
0.0154239
0.0151515
0.0149207
0.0146712
0.0144608
0.0142355
0.0140463
0.0138459
0.0136782
0.013503
0.0133572
0.0132073
0.0130834
0.0129581
0.0128563
0.0127552
0.0126757
0.0125983
0.0125409
0.0124868
0.0124516
0.0124227
0.0124092
0.0124041
0.0124064
0.0124271
0.0124523
0.0124936
0.012541
0.0126031
0.0126732
0.0127571
0.0128502
0.0129563
0.0130724
0.0132011
0.0133404
0.0134922
0.0136551
0.0138302
0.0140167
0.0142155
0.0144262
0.0146496
0.0148855
0.0151344
0.0153963
0.0156715
0.0159601
0.0162619
0.0165771
0.0169052
0.0172459
0.0175978
0.0179602
0.0183307
0.0187074
0.0190865
0.0194648
0.0198365
0.0201965
0.0205396
0.0208611
0.0211579
0.0214302
0.0216824
0.02193
0.0222213
0.022667
0.0232793
0.0241049
0.0250084
0.0176366
0.0171057
0.0168908
0.0164812
0.0162663
0.0158761
0.015663
0.0152939
0.015085
0.0147382
0.014536
0.0142124
0.0140195
0.0137198
0.0135383
0.013263
0.0130946
0.0128441
0.0126904
0.0124648
0.012327
0.0121263
0.0120055
0.0118296
0.0117262
0.0115745
0.0114885
0.0113604
0.011292
0.0111875
0.0111355
0.0110559
0.0110173
0.0109635
0.010938
0.01091
0.010898
0.010893
0.0108933
0.0109093
0.0109301
0.0109629
0.0110026
0.0110527
0.0111115
0.0111789
0.0112564
0.0113415
0.0114378
0.0115411
0.0116562
0.0117783
0.0119124
0.0120542
0.0122076
0.0123696
0.0125433
0.0127264
0.0129214
0.0131266
0.0133442
0.0135728
0.0138146
0.0140686
0.0143369
0.0146183
0.0149152
0.0152267
0.015555
0.0158995
0.0162626
0.016644
0.017046
0.0174685
0.0179144
0.0183837
0.0188794
0.0194022
0.0199552
0.0205395
0.0211587
0.0218147
0.0225115
0.0232519
0.0240409
0.0248822
0.0257821
0.026746
0.0277831
0.0289006
0.0301104
0.0314235
0.0328559
0.0344235
0.0361455
0.0380323
0.0400882
0.0422763
0.0438032
0.0444258
0.0206801
0.0201172
0.0198862
0.0194451
0.0192061
0.0187817
0.018537
0.01813
0.0178827
0.0174939
0.0172469
0.0168776
0.0166342
0.016286
0.0160496
0.0157232
0.0154969
0.0151931
0.0149794
0.0146987
0.0144995
0.0142424
0.0140594
0.0138261
0.0136602
0.0134509
0.0133031
0.0131176
0.0129884
0.0128266
0.0127164
0.0125781
0.0124868
0.0123719
0.0122993
0.0122078
0.0121539
0.0120855
0.0120506
0.012008
0.0119879
0.0119742
0.0119697
0.0119719
0.011992
0.0120148
0.0120547
0.0120982
0.012158
0.012222
0.0123019
0.0123867
0.0124869
0.0125928
0.0127139
0.0128412
0.0129833
0.0131324
0.0132962
0.0134676
0.0136536
0.0138485
0.0140581
0.0142777
0.0145125
0.0147583
0.01502
0.015294
0.0155847
0.015889
0.0162114
0.0165487
0.0169055
0.0172792
0.0176742
0.0180885
0.0185263
0.0189862
0.0194725
0.0199844
0.0205261
0.0210977
0.0217036
0.0223446
0.0230256
0.0237482
0.0245178
0.0253372
0.0262123
0.0271464
0.0281477
0.0292243
0.0303938
0.0316672
0.0330717
0.0346312
0.0363858
0.0383061
0.0398566
0.0405381
0.0312339
0.03069
0.0304606
0.0300235
0.0297648
0.0293332
0.0290455
0.0286143
0.028301
0.0278691
0.0275302
0.0270917
0.0267298
0.0262864
0.0259075
0.0254604
0.0250699
0.0246217
0.0242244
0.0237782
0.0233785
0.0229373
0.0225394
0.0221065
0.0217141
0.0212925
0.0209094
0.020502
0.0201313
0.0197409
0.0193856
0.0190147
0.0186774
0.0183279
0.0180103
0.0176832
0.0173867
0.0170835
0.0168098
0.0165318
0.0162817
0.0160301
0.015805
0.0155811
0.0153819
0.0151856
0.0150126
0.0148437
0.0146968
0.0145547
0.0144336
0.0143181
0.0142224
0.0141333
0.014063
0.0139991
0.013953
0.0139131
0.0138906
0.0138788
0.013875
0.0138818
0.0139036
0.0139325
0.013976
0.0140264
0.0140905
0.014161
0.0142445
0.0143327
0.0144321
0.0145355
0.0146484
0.0147643
0.0148878
0.0150127
0.015143
0.015273
0.015406
0.0155366
0.0156676
0.0157938
0.0159176
0.0160341
0.0161455
0.0162473
0.0163419
0.0164256
0.0165024
0.0165684
0.01663
0.0166824
0.0167309
0.0167951
0.0168937
0.0170716
0.0173854
0.017912
0.018642
0.0196867
0.0442388
0.0439067
0.0437666
0.0434993
0.0433298
0.0430532
0.0428463
0.042549
0.0423035
0.04198
0.0416965
0.0413442
0.0410231
0.0406404
0.0402822
0.0398689
0.0394743
0.0390304
0.0386009
0.0381272
0.0376644
0.0371621
0.0366683
0.0361394
0.0356171
0.035064
0.0345164
0.0339421
0.0333732
0.0327814
0.0321955
0.0315906
0.0309925
0.0303792
0.0297744
0.0291586
0.0285486
0.0279294
0.0273191
0.0267038
0.0261001
0.0254952
0.0249045
0.0243158
0.0237435
0.0231761
0.0226269
0.0220852
0.0215629
0.0210485
0.0205539
0.0200684
0.0196025
0.0191463
0.0187086
0.0182814
0.0178723
0.017473
0.0170925
0.0167229
0.0163705
0.0160289
0.0157035
0.0153868
0.0150844
0.0147892
0.0145065
0.0142281
0.0139594
0.013698
0.0134458
0.0131987
0.01296
0.0127241
0.0124956
0.012268
0.0120466
0.0118247
0.0116081
0.01139
0.0111765
0.0109614
0.0107509
0.0105392
0.0103329
0.0101271
0.00992545
0.00972584
0.0095329
0.00934589
0.00917109
0.00900992
0.00887068
0.00875526
0.00869827
0.00867953
0.0087886
0.00904818
0.00945068
0.00962907
0.0557991
0.0557979
0.0558082
0.0558207
0.0558281
0.0558293
0.0558192
0.0557871
0.0557495
0.0556796
0.0556118
0.0555078
0.0554068
0.0552658
0.055127
0.0549465
0.054766
0.0545431
0.0543173
0.0540493
0.0537753
0.0534595
0.0531348
0.0527704
0.0523928
0.0519755
0.0515444
0.0510736
0.0505876
0.0500626
0.049521
0.0489417
0.0483449
0.047712
0.0470614
0.0463768
0.0456746
0.0449407
0.0441896
0.0434094
0.0426131
0.0417907
0.0409543
0.040095
0.0392246
0.0383351
0.0374377
0.0365254
0.0356088
0.0346836
0.0337587
0.0328299
0.0319059
0.0309829
0.0300693
0.0291616
0.0282677
0.0273847
0.026519
0.0256677
0.0248343
0.0240138
0.0232143
0.0224311
0.0216712
0.0209298
0.0202132
0.0195178
0.0188483
0.018197
0.0175696
0.0169599
0.0163722
0.0158009
0.0152493
0.0147119
0.0141914
0.0136827
0.013188
0.0127024
0.0122275
0.0117586
0.0112971
0.0108385
0.0103843
0.00995172
0.00953146
0.00913426
0.00875004
0.00838948
0.00804445
0.00772637
0.00742774
0.00716758
0.00692818
0.00677029
0.00670049
0.00669936
0.00703112
0.00721949
0.0623875
0.062707
0.0628505
0.0631358
0.0633271
0.063593
0.0638004
0.0640424
0.0642511
0.0644694
0.0646708
0.0648655
0.0650526
0.0652229
0.0653901
0.0655341
0.0656764
0.0657915
0.065904
0.0659869
0.0660651
0.0661118
0.0661422
0.0661526
0.0661524
0.0661094
0.0660587
0.0659674
0.0658622
0.0657172
0.065553
0.0653481
0.065119
0.0648476
0.0645472
0.0642025
0.0638297
0.0634137
0.0629649
0.0624722
0.0619424
0.0613651
0.0607503
0.0600858
0.0593827
0.0586296
0.057837
0.0569954
0.0561144
0.0551865
0.0542203
0.0532101
0.0521641
0.0510778
0.0499588
0.0488041
0.047621
0.0464073
0.0451703
0.0439082
0.0426326
0.0413397
0.0400398
0.0387298
0.0374195
0.0361061
0.0347989
0.0334956
0.0322045
0.0309238
0.0296613
0.0284154
0.0271932
0.025993
0.0248213
0.023676
0.0225594
0.0214669
0.0204047
0.0193696
0.0183659
0.0173919
0.0164501
0.0155398
0.0146624
0.013816
0.0129946
0.0122012
0.0114306
0.0106866
0.00996475
0.0092687
0.00859662
0.0079564
0.00736151
0.00681285
0.00640038
0.00621247
0.00617389
0.0063605
0.0638422
0.0643243
0.0645406
0.0649581
0.0652416
0.0656383
0.0659565
0.0663355
0.0666721
0.0670375
0.067383
0.0677378
0.0680858
0.0684314
0.0687772
0.0691137
0.0694537
0.0697803
0.0701112
0.0704262
0.0707447
0.0710459
0.0713487
0.0716348
0.0719185
0.0721834
0.0724456
0.0726875
0.0729252
0.0731438
0.0733549
0.0735451
0.0737246
0.073881
0.0740227
0.0741391
0.0742386
0.0743103
0.0743531
0.0743705
0.0743725
0.0743234
0.0742535
0.0741358
0.0739879
0.0737903
0.0735549
0.0732665
0.0729333
0.0725431
0.072102
0.0716002
0.0710422
0.070422
0.0697413
0.0689935
0.0681863
0.0673087
0.066371
0.0653618
0.0642928
0.063157
0.0619634
0.0607048
0.0593916
0.0580174
0.0565924
0.0551122
0.053586
0.0520113
0.0503966
0.0487407
0.047051
0.0453275
0.0435759
0.041798
0.0400015
0.0381922
0.0363706
0.0345429
0.0327087
0.0308752
0.029042
0.0272176
0.0254022
0.0236058
0.0218305
0.0200869
0.0183801
0.0167004
0.0150727
0.0134945
0.011992
0.0105698
0.00927511
0.00808058
0.00708205
0.00635306
0.00603075
0.0060037
0.0613822
0.0618819
0.0621103
0.062533
0.0628309
0.0632345
0.0635698
0.0639612
0.0643191
0.0647043
0.0650768
0.0654597
0.0658418
0.0662247
0.0666134
0.0669975
0.0673905
0.0677761
0.0681716
0.0685583
0.0689546
0.0693414
0.0697364
0.0701214
0.0705116
0.0708906
0.0712708
0.0716359
0.0719951
0.0723495
0.0727047
0.0730537
0.0734033
0.0737469
0.0740915
0.0744294
0.0747627
0.0750872
0.0754058
0.0757152
0.076016
0.0763027
0.076581
0.0768417
0.0770911
0.0773198
0.0775333
0.0777232
0.0778934
0.0780369
0.0781558
0.0782434
0.0782919
0.0783113
0.0783122
0.0782494
0.078168
0.0780233
0.0778457
0.0776013
0.0773107
0.0769469
0.0765226
0.0760151
0.0754337
0.074767
0.0740135
0.0731685
0.072226
0.0711852
0.0700396
0.0687921
0.0674371
0.0659808
0.0644187
0.0627597
0.0610009
0.0591507
0.0572075
0.0551783
0.0530615
0.0508614
0.048575
0.0462039
0.0437428
0.0411918
0.0385478
0.0358093
0.0329819
0.0300884
0.0271285
0.0241234
0.0210982
0.0180991
0.0152327
0.0125134
0.0101227
0.00808843
0.00662586
0.00592601
0.0562907
0.0567231
0.0569215
0.0572787
0.0575253
0.057869
0.0581444
0.0584793
0.0587748
0.0591053
0.0594156
0.059745
0.0600667
0.0603974
0.0607281
0.0610613
0.0613991
0.0617356
0.0620789
0.0624187
0.0627661
0.0631087
0.0634585
0.0638029
0.0641537
0.0644988
0.0648493
0.0651947
0.0655462
0.0658968
0.0662534
0.06661
0.0669719
0.0673334
0.0676985
0.0680631
0.0684331
0.0688031
0.0691769
0.069551
0.0699275
0.070304
0.0706821
0.071059
0.0714365
0.0718112
0.0721856
0.072557
0.0729256
0.0732866
0.0736401
0.0739799
0.0743036
0.074605
0.0748738
0.0750937
0.0753183
0.0755029
0.0756792
0.075817
0.0759392
0.0760259
0.0760973
0.0761358
0.0761521
0.0761416
0.0760646
0.0759581
0.0757857
0.0755687
0.0752824
0.074938
0.0745081
0.0740028
0.0733935
0.0726839
0.0718457
0.0708768
0.0697499
0.0684593
0.0669809
0.0653084
0.0634228
0.0613201
0.0589891
0.0564302
0.0536366
0.0506119
0.0473671
0.0438889
0.040154
0.0361299
0.0318157
0.0272252
0.022528
0.018221
0.0144572
0.0116247
0.00943599
0.00727312
0.0498909
0.0501788
0.0503111
0.0505502
0.0506995
0.0509367
0.0511019
0.0513338
0.0515143
0.0517417
0.0519354
0.05216
0.0523647
0.0525882
0.0528016
0.0530254
0.0532455
0.0534702
0.0536953
0.0539212
0.0541497
0.0543768
0.0546076
0.0548358
0.0550683
0.0552981
0.0555327
0.0557656
0.0560046
0.0562432
0.0564881
0.0567337
0.0569852
0.0572381
0.0574965
0.0577572
0.0580237
0.0582929
0.0585684
0.0588471
0.059132
0.0594211
0.0597166
0.0600172
0.0603249
0.0606386
0.0609581
0.0612799
0.061605
0.0619301
0.0622555
0.0625779
0.0628971
0.0632101
0.0635172
0.063821
0.0641315
0.0644333
0.0647383
0.0650266
0.0653049
0.0655489
0.0657616
0.0659664
0.0661413
0.0663108
0.0664493
0.0665775
0.0666703
0.0667344
0.0667615
0.0667657
0.0666966
0.06658
0.0663812
0.0661068
0.065728
0.0652432
0.0646267
0.0638725
0.0629577
0.0618752
0.0606057
0.059144
0.0574787
0.0556046
0.0534815
0.051101
0.0482941
0.0450556
0.0412828
0.03695
0.0322287
0.027356
0.0224816
0.0180657
0.0146145
0.0122386
0.0107425
0.00922548
0.0310631
0.0310907
0.0310891
0.0310705
0.0310454
0.0310248
0.0309902
0.0309685
0.0309302
0.0309066
0.0308669
0.0308405
0.0308004
0.0307706
0.0307302
0.0306968
0.0306556
0.0306187
0.0305763
0.0305359
0.0304919
0.0304481
0.0304022
0.0303554
0.0303076
0.0302583
0.0302088
0.0301575
0.0301065
0.0300536
0.030001
0.0299463
0.0298918
0.0298354
0.0297789
0.0297206
0.0296621
0.0296019
0.0295415
0.0294793
0.0294167
0.0293523
0.0292871
0.02922
0.0291514
0.0290803
0.0290064
0.0289288
0.0288475
0.0287614
0.0286707
0.0285743
0.0284727
0.0283652
0.0282523
0.0281344
0.0280102
0.027876
0.0277322
0.0275722
0.0273961
0.0271956
0.0269745
0.0267486
0.0265053
0.0262579
0.025994
0.0257237
0.0254355
0.0251374
0.0248224
0.0244931
0.0241382
0.0237673
0.0233675
0.0229457
0.0224921
0.0220111
0.0214956
0.0209488
0.0203662
0.0197504
0.0190988
0.0184139
0.0176927
0.016929
0.0160962
0.015141
0.0140424
0.0127641
0.0112057
0.00929215
0.00709557
0.00497498
0.00301704
0.00232236
0.00260789
0.00527993
0.00862423
0.00984814
0.00947213
0.00467545
0.00403037
0.00390132
0.00387301
0.00389706
0.00381775
0.00378068
0.00376598
0.00376304
0.00378543
0.00385672
0.00413375
0.00471671
0.0054737
0.00655156
0.0069199
0.00690153
0.00576422
0.00340323
0.00777605
0.00468051
0.00428943
0.00419008
0.00416618
0.00404594
0.00396683
0.00393219
0.00392034
0.00392277
0.00397611
0.0041637
0.00455781
0.00514174
0.00621989
0.0068684
0.00700432
0.00675931
0.00519341
0.0027832
0.00621324
0.00478474
0.00460504
0.0045412
0.00436894
0.00426776
0.00420001
0.0041729
0.00416487
0.0041778
0.00430536
0.00456688
0.00505135
0.00599195
0.00679644
0.00704953
0.0070385
0.00647833
0.00456299
0.00215123
0.00579518
0.00511614
0.00503436
0.00479459
0.00463721
0.00452196
0.0044646
0.00444046
0.00443823
0.00454007
0.00476571
0.00519777
0.00606588
0.00686926
0.00719465
0.00725462
0.00697766
0.00602627
0.00378323
0.0015454
0.00591787
0.00548174
0.00534365
0.00505443
0.00493989
0.00486753
0.00484965
0.00488373
0.00500285
0.00528663
0.00568686
0.00651149
0.00718442
0.00748882
0.00757517
0.00739534
0.00678083
0.00540365
0.00293326
0.00101638
0.00628488
0.00593543
0.00580195
0.00561783
0.0055859
0.00559521
0.0057222
0.0059547
0.00637544
0.00689945
0.00752001
0.00800119
0.00820636
0.00824952
0.00796248
0.00732535
0.00637013
0.00458466
0.00189365
0.000562878
0.00721761
0.00709194
0.00707653
0.00710606
0.00738146
0.00770532
0.00825429
0.00895555
0.00962943
0.00982977
0.00989448
0.00975131
0.0094239
0.00883846
0.00801761
0.00707632
0.00563912
0.00347239
0.00114961
0.000252219
0.0108617
0.0113017
0.0118068
0.0124663
0.0134253
0.0144111
0.0148911
0.0150413
0.0140098
0.0134135
0.012321
0.0115315
0.0103084
0.00917525
0.00784201
0.006444
0.00445287
0.00224984
0.000647201
9.16456e-05
0.0252632
0.0257433
0.0259459
0.0259455
0.0252493
0.023888
0.0222294
0.0199606
0.0182184
0.0162751
0.014473
0.0126659
0.0107297
0.00894322
0.00708462
0.00503932
0.00296872
0.00131758
0.000391281
3.98155e-05
0.0411695
0.0393881
0.0374165
0.0346229
0.0320825
0.0284926
0.025869
0.0226973
0.0203151
0.0174339
0.0151802
0.0124481
0.0101199
0.00733056
0.005141
0.00311555
0.00187162
0.000877934
0.000346769
6.4112e-05
0.0379903
0.0364541
0.0348557
0.0323783
0.0302113
0.0269061
0.0244903
0.0215848
0.019423
0.0167668
0.0147773
0.0121848
0.0102328
0.00743986
0.00539227
0.00309958
0.00179659
0.000745059
0.000255924
5.13833e-05
0.0200758
0.0209993
0.0215111
0.0217646
0.0218474
0.0211285
0.0199251
0.018058
0.0167583
0.0149662
0.0137683
0.011943
0.0106076
0.00878953
0.00721118
0.00517143
0.00295896
0.00116434
0.000287105
3.53859e-05
0.00946999
0.00966843
0.0100754
0.0105416
0.0113334
0.0122482
0.0130366
0.0133472
0.0131648
0.0122417
0.0117936
0.0108632
0.010032
0.00897719
0.00781871
0.00648776
0.00455695
0.00224212
0.000567486
4.65328e-05
0.00684761
0.00666602
0.00661115
0.00658471
0.00675581
0.00699599
0.00742323
0.00801619
0.00879527
0.00916543
0.00934201
0.00940928
0.009149
0.00870828
0.00794764
0.00707108
0.00567291
0.00352817
0.00107272
0.000127879
0.00610507
0.00576915
0.00563756
0.00543529
0.00538523
0.00537134
0.00545266
0.00562647
0.00598695
0.0064413
0.00713041
0.00772816
0.00801548
0.00809399
0.00792641
0.00731048
0.00639033
0.00465251
0.00191427
0.000436139
0.00578564
0.00538262
0.00525296
0.0049686
0.00485187
0.00476939
0.00474346
0.00475522
0.00485443
0.00509666
0.0054756
0.00624622
0.00702856
0.00738821
0.00749133
0.00738726
0.00679469
0.00545483
0.00300721
0.000935797
0.00568085
0.00502059
0.00494869
0.00474273
0.00458539
0.00447319
0.00440746
0.00437786
0.00436929
0.00445249
0.00466672
0.005066
0.00588489
0.00677832
0.00715348
0.00722412
0.00698923
0.00607147
0.00385893
0.00151288
0.00618018
0.00473047
0.00453173
0.0044642
0.00432369
0.00421885
0.00415385
0.00412714
0.00411922
0.00412818
0.00424281
0.00449706
0.00495678
0.00585765
0.00674295
0.007038
0.00704405
0.00651474
0.00463964
0.00215786
0.00780346
0.00465337
0.00425641
0.00414801
0.00411537
0.00402161
0.00393534
0.00389768
0.00388549
0.00388758
0.00393702
0.0041096
0.00449906
0.00507885
0.00613663
0.00684602
0.00700242
0.00678693
0.00525771
0.00281711
0.00947298
0.0046527
0.00399495
0.00386835
0.00383855
0.00385234
0.00379699
0.00375411
0.00373921
0.00373611
0.00375848
0.00382616
0.00407898
0.00464052
0.00541974
0.00652194
0.00691888
0.00692007
0.00582752
0.00344987
0.00397117
0.00375019
0.00374679
0.0037468
0.00374652
0.00374628
0.00374612
0.00374604
0.003746
0.00374598
0.00374598
0.003746
0.00374604
0.00374612
0.00374628
0.00374652
0.0037468
0.00374679
0.00375019
0.00397118
0.00441489
0.00375346
0.00374141
0.00374096
0.00374056
0.00374012
0.00373987
0.00373975
0.00373969
0.00373966
0.00373966
0.00373969
0.00373975
0.00373987
0.00374012
0.00374056
0.00374096
0.00374141
0.00375346
0.00441489
0.0048594
0.00376059
0.00373287
0.00373264
0.00373284
0.00373273
0.00373256
0.00373242
0.00373235
0.00373231
0.00373231
0.00373235
0.00373242
0.00373256
0.00373273
0.00373284
0.00373264
0.00373287
0.00376058
0.0048594
0.00530178
0.00377206
0.0037243
0.00372396
0.00372492
0.00372524
0.00372525
0.00372519
0.00372514
0.00372512
0.00372512
0.00372514
0.00372519
0.00372525
0.00372524
0.00372492
0.00372396
0.0037243
0.00377206
0.00530178
0.00573924
0.00378544
0.00371551
0.00371483
0.00371665
0.00371758
0.00371789
0.00371795
0.00371795
0.00371795
0.00371795
0.00371795
0.00371795
0.00371789
0.00371758
0.00371665
0.00371483
0.0037155
0.00378544
0.00573925
0.00617058
0.00379767
0.00370577
0.0037051
0.003708
0.00370969
0.00371043
0.0037107
0.00371078
0.0037108
0.0037108
0.00371078
0.0037107
0.00371043
0.00370969
0.003708
0.0037051
0.00370577
0.00379767
0.00617058
0.00659185
0.00380847
0.00369498
0.00369474
0.00369894
0.00370155
0.00370284
0.0037034
0.00370361
0.00370368
0.00370368
0.00370361
0.0037034
0.00370284
0.00370155
0.00369894
0.00369474
0.00369498
0.00380847
0.00659185
0.00700084
0.00381671
0.00368272
0.00368362
0.00368941
0.00369311
0.00369508
0.00369602
0.00369642
0.00369656
0.00369656
0.00369642
0.00369602
0.00369508
0.00369311
0.00368941
0.00368362
0.00368272
0.00381671
0.00700084
0.00739336
0.00382333
0.00366915
0.00367174
0.00367942
0.00368437
0.00368714
0.00368854
0.00368919
0.00368943
0.00368943
0.00368919
0.00368854
0.00368714
0.00368437
0.00367942
0.00367174
0.00366915
0.00382334
0.00739336
0.00776768
0.00382735
0.00365405
0.00365903
0.00366893
0.00367532
0.00367898
0.00368095
0.0036819
0.00368228
0.00368228
0.0036819
0.00368095
0.00367898
0.00367532
0.00366893
0.00365903
0.00365405
0.00382735
0.00776768
0.00812024
0.00383021
0.00363764
0.00364552
0.00365794
0.00366592
0.00367061
0.00367321
0.00367453
0.00367507
0.00367507
0.00367453
0.00367321
0.00367061
0.00366592
0.00365794
0.00364552
0.00363765
0.00383021
0.00812023
0.00845034
0.00383068
0.00361989
0.00363122
0.00364645
0.0036562
0.00366201
0.00366531
0.00366705
0.00366779
0.00366779
0.00366705
0.00366531
0.00366201
0.0036562
0.00364645
0.00363122
0.00361989
0.00383069
0.00845034
0.00875525
0.00383018
0.0036009
0.00361613
0.00363446
0.00364613
0.00365316
0.00365725
0.00365946
0.00366041
0.00366041
0.00365946
0.00365725
0.00365316
0.00364613
0.00363446
0.00361613
0.0036009
0.00383019
0.00875524
0.00903545
0.00382886
0.00358085
0.00360032
0.00362199
0.00363573
0.00364408
0.00364901
0.00365173
0.00365292
0.00365292
0.00365173
0.00364901
0.00364408
0.00363573
0.00362199
0.00360032
0.00358085
0.00382886
0.00903544
0.00928895
0.00382647
0.00355981
0.0035838
0.00360904
0.003625
0.00363475
0.00364059
0.00364385
0.00364531
0.00364531
0.00364385
0.00364059
0.00363475
0.003625
0.00360904
0.0035838
0.00355981
0.00382648
0.00928894
0.00951739
0.0038234
0.00353794
0.00356664
0.00359565
0.00361394
0.00362518
0.00363197
0.00363582
0.00363755
0.00363755
0.00363582
0.00363197
0.00362518
0.00361394
0.00359565
0.00356664
0.00353793
0.00382339
0.00951738
0.00971929
0.00382011
0.00351531
0.00354885
0.00358181
0.00360255
0.00361535
0.00362316
0.00362762
0.00362964
0.00362964
0.00362762
0.00362316
0.00361535
0.00360255
0.00358181
0.00354885
0.00351532
0.00382011
0.00971928
0.00989731
0.00381663
0.00349216
0.00353055
0.00356758
0.00359087
0.00360529
0.00361414
0.00361924
0.00362157
0.00362157
0.00361924
0.00361414
0.00360529
0.00359087
0.00356757
0.00353054
0.00349215
0.00381662
0.0098973
0.0100502
0.00381347
0.00346849
0.0035117
0.00355293
0.00357887
0.00359499
0.00360492
0.00361068
0.00361332
0.00361332
0.00361068
0.00360492
0.00359499
0.00357888
0.00355293
0.00351171
0.0034685
0.00381348
0.0100502
0.0101815
0.00381057
0.00344463
0.00349248
0.00353795
0.0035666
0.00358445
0.0035955
0.00360193
0.0036049
0.0036049
0.00360193
0.0035955
0.00358445
0.0035666
0.00353795
0.00349247
0.00344462
0.00381057
0.0101815
0.0102898
0.00380853
0.00342045
0.00347279
0.0035226
0.00355404
0.00357367
0.00358587
0.003593
0.0035963
0.0035963
0.003593
0.00358587
0.00357367
0.00355404
0.0035226
0.0034728
0.00342047
0.00380854
0.0102897
0.0103794
0.00380714
0.00339644
0.00345288
0.00350698
0.00354123
0.00356267
0.00357603
0.00358387
0.00358751
0.00358751
0.00358387
0.00357603
0.00356267
0.00354123
0.00350697
0.00345287
0.00339642
0.00380714
0.0103794
0.0104486
0.00380736
0.00337228
0.00343258
0.00349103
0.00352816
0.00355145
0.003566
0.00357455
0.00357853
0.00357853
0.00357455
0.003566
0.00355145
0.00352816
0.00349103