/*--------------------------------*- C++ -*----------------------------------*\
| =========                 |                                                 |
| \\      /  F ield         | OpenFOAM: The Open Source CFD Toolbox           |
|  \\    /   O peration     | Version:  2.1.0                                 |
|   \\  /    A nd           | Web:      www.OpenFOAM.org                      |
|    \\/     M anipulation  |                                                 |
\*---------------------------------------------------------------------------*/
FoamFile
{
    version     2.0;
    format      ascii;
    class       volScalarField;
    location    "0.43";
    object      nut;
}
// * * * * * * * * * * * * * * * * * * * * * * * * * * * * * * * * * * * * * //

dimensions      [0 2 -1 0 0 0 0];

internalField   nonuniform List<scalar> 
6400
(
7.08422e-06
7.10286e-06
7.11511e-06
7.13087e-06
7.14502e-06
7.16317e-06
7.178e-06
7.19716e-06
7.21271e-06
7.23267e-06
7.249e-06
7.26942e-06
7.2867e-06
7.30741e-06
7.32571e-06
7.34669e-06
7.36602e-06
7.38734e-06
7.4077e-06
7.42948e-06
7.45088e-06
7.47331e-06
7.49583e-06
7.5191e-06
7.54282e-06
7.56711e-06
7.59207e-06
7.61751e-06
7.64378e-06
7.67047e-06
7.6981e-06
7.72615e-06
7.7552e-06
7.78472e-06
7.81527e-06
7.84636e-06
7.87851e-06
7.91126e-06
7.94508e-06
7.9795e-06
8.01486e-06
8.05072e-06
8.08744e-06
8.12456e-06
8.16236e-06
8.20044e-06
8.23897e-06
8.27765e-06
8.31656e-06
8.35548e-06
8.39443e-06
8.43321e-06
8.47161e-06
8.50884e-06
8.54427e-06
8.57721e-06
8.6081e-06
8.64037e-06
8.67093e-06
8.70244e-06
8.73276e-06
8.76408e-06
8.79482e-06
8.82634e-06
8.85716e-06
8.88867e-06
8.91947e-06
8.95074e-06
8.98045e-06
9.00922e-06
9.03694e-06
9.06274e-06
9.08716e-06
9.10945e-06
9.13023e-06
9.14946e-06
9.168e-06
9.18685e-06
9.2076e-06
9.23254e-06
9.2641e-06
9.30507e-06
9.35592e-06
9.41061e-06
9.45833e-06
9.52214e-06
9.58912e-06
9.65131e-06
9.68592e-06
9.64741e-06
9.44884e-06
8.9209e-06
7.82466e-06
5.96834e-06
3.45534e-06
2.31956e-06
2.40668e-06
3.78149e-06
3.87711e-06
4.18294e-06
7.53532e-05
7.58193e-05
7.59112e-05
7.62155e-05
7.63193e-05
7.65742e-05
7.66985e-05
7.69202e-05
7.70615e-05
7.72598e-05
7.74124e-05
7.75933e-05
7.77512e-05
7.79185e-05
7.80767e-05
7.82324e-05
7.83869e-05
7.85319e-05
7.86795e-05
7.88139e-05
7.89521e-05
7.90758e-05
7.92037e-05
7.93175e-05
7.94352e-05
7.95408e-05
7.96496e-05
7.97464e-05
7.98453e-05
7.99325e-05
8.00202e-05
8.00965e-05
8.01712e-05
8.02346e-05
8.02943e-05
8.03423e-05
8.03841e-05
8.04133e-05
8.04378e-05
8.04513e-05
8.04574e-05
8.04489e-05
8.04291e-05
8.03927e-05
8.03405e-05
8.02685e-05
8.01754e-05
8.00579e-05
7.99136e-05
7.97397e-05
7.95336e-05
7.92942e-05
7.90265e-05
7.87289e-05
7.83906e-05
7.79513e-05
7.72506e-05
7.65218e-05
7.57403e-05
7.49235e-05
7.40556e-05
7.31532e-05
7.22034e-05
7.12221e-05
7.01906e-05
6.91217e-05
6.8002e-05
6.68456e-05
6.5638e-05
6.43691e-05
6.30462e-05
6.16588e-05
6.02075e-05
5.86871e-05
5.70958e-05
5.54322e-05
5.36946e-05
5.18853e-05
5.00049e-05
4.80589e-05
4.60514e-05
4.39921e-05
4.18903e-05
3.97514e-05
3.75571e-05
3.52742e-05
3.29084e-05
3.04385e-05
2.78586e-05
2.51635e-05
2.23714e-05
1.95185e-05
1.66867e-05
1.40189e-05
1.1506e-05
9.23556e-06
7.49571e-06
6.29074e-06
5.67934e-06
6.86454e-06
0.000115297
0.00011557
0.000115678
0.000115799
0.000115893
0.000115973
0.000116058
0.000116109
0.000116181
0.000116207
0.000116264
0.000116266
0.000116302
0.000116282
0.000116292
0.000116246
0.000116227
0.000116154
0.000116102
0.000115999
0.000115911
0.000115774
0.000115644
0.000115472
0.000115302
0.000115095
0.000114893
0.000114656
0.00011442
0.000114151
0.000113879
0.000113577
0.000113266
0.000112928
0.000112577
0.000112201
0.000111809
0.000111391
0.000110946
0.00011047
0.000109972
0.000109444
0.000108886
0.000108295
0.00010767
0.000107008
0.000106304
0.000105557
0.00010476
0.000103908
0.000102995
0.000101834
0.000100328
9.879e-05
9.7202e-05
9.55874e-05
9.39365e-05
9.22582e-05
9.05437e-05
8.87998e-05
8.70332e-05
8.52548e-05
8.34132e-05
8.15609e-05
7.96593e-05
7.77406e-05
7.57807e-05
7.38014e-05
7.17866e-05
6.97506e-05
6.76815e-05
6.55876e-05
6.34601e-05
6.13036e-05
5.91111e-05
5.68858e-05
5.46226e-05
5.23252e-05
4.99912e-05
4.76263e-05
4.52317e-05
4.28169e-05
4.03868e-05
3.79537e-05
3.55304e-05
3.31462e-05
3.08026e-05
2.85231e-05
2.63051e-05
2.41615e-05
2.20625e-05
2.00297e-05
1.80343e-05
1.59914e-05
1.3946e-05
1.19372e-05
1.01369e-05
8.62519e-06
8.12508e-06
1.13143e-05
0.000137291
0.000137019
0.000136916
0.000136652
0.000136548
0.000136257
0.000136127
0.000135816
0.00013565
0.00013532
0.000135113
0.000134763
0.000134513
0.000134139
0.000133845
0.000133444
0.000133104
0.000132673
0.000132284
0.000131815
0.000131375
0.000130864
0.000130369
0.000129804
0.000129214
0.000128188
0.000127156
0.000126078
0.00012499
0.000123866
0.000122727
0.000121554
0.000120364
0.000119141
0.000117899
0.000116623
0.000115326
0.000113997
0.000112645
0.000111262
0.000109849
0.00010841
0.000106939
0.000105443
0.000103914
0.000102359
0.000100772
9.91594e-05
9.75158e-05
9.58392e-05
9.41382e-05
9.24337e-05
9.06931e-05
8.89402e-05
8.71597e-05
8.5368e-05
8.35522e-05
8.17203e-05
7.98613e-05
7.79817e-05
7.60743e-05
7.41477e-05
7.21963e-05
7.02296e-05
6.82395e-05
6.62377e-05
6.42168e-05
6.21892e-05
6.01499e-05
5.81112e-05
5.60703e-05
5.40392e-05
5.20175e-05
5.00163e-05
4.8036e-05
4.60866e-05
4.41682e-05
4.22892e-05
4.04479e-05
3.86495e-05
3.68901e-05
3.51715e-05
3.34822e-05
3.18229e-05
3.02011e-05
2.85845e-05
2.69795e-05
2.53781e-05
2.37737e-05
2.2159e-05
2.05295e-05
1.88814e-05
1.72046e-05
1.54777e-05
1.371e-05
1.19837e-05
1.05111e-05
9.77597e-06
1.19118e-05
1.20611e-05
0.000139726
0.000139832
0.000139576
0.000139429
0.000138671
0.000138079
0.000137176
0.000136392
0.000135439
0.00013455
0.000133567
0.000132608
0.000131597
0.000130581
0.000129536
0.00012847
0.000127388
0.000126273
0.000125148
0.000123986
0.000122815
0.000121606
0.000120385
0.000119129
0.000117857
0.000116566
0.000115259
0.000113923
0.000112575
0.0001112
0.000109814
0.000108401
0.000106976
0.000105526
0.000104063
0.000102576
0.000101074
9.95421e-05
9.80035e-05
9.64621e-05
9.48768e-05
9.32949e-05
9.16812e-05
9.00642e-05
8.84231e-05
8.67762e-05
8.51109e-05
8.34399e-05
8.17557e-05
8.00681e-05
7.83734e-05
7.66773e-05
7.49761e-05
7.32735e-05
7.15641e-05
6.98553e-05
6.81475e-05
6.64449e-05
6.47475e-05
6.30594e-05
6.13804e-05
5.97153e-05
5.8064e-05
5.64313e-05
5.48161e-05
5.32232e-05
5.16508e-05
5.01032e-05
4.85774e-05
4.7077e-05
4.55936e-05
4.41356e-05
4.27068e-05
4.12844e-05
3.98887e-05
3.85009e-05
3.71301e-05
3.57621e-05
3.44022e-05
3.3038e-05
3.16723e-05
3.02978e-05
2.89157e-05
2.7526e-05
2.61309e-05
2.47297e-05
2.33358e-05
2.19422e-05
2.05681e-05
1.92125e-05
1.78925e-05
1.66081e-05
1.53799e-05
1.4192e-05
1.31017e-05
1.22697e-05
1.20804e-05
1.37498e-05
1.37875e-05
1.41363e-05
0.000126726
0.000126107
0.000125703
0.00012517
0.000124254
0.00012336
0.000122279
0.00012123
0.00012009
0.000118963
0.000117794
0.000116619
0.000115428
0.000114219
0.000113009
0.000111772
0.000110542
0.000109282
0.000108033
0.000106754
0.000105481
0.00010419
0.000102898
0.000101606
0.000100289
9.89729e-05
9.7639e-05
9.62945e-05
9.49438e-05
9.35789e-05
9.22092e-05
9.08247e-05
8.94363e-05
8.8034e-05
8.66289e-05
8.52116e-05
8.37929e-05
8.23648e-05
8.09383e-05
7.95038e-05
7.80713e-05
7.66379e-05
7.5206e-05
7.37778e-05
7.23531e-05
7.09354e-05
6.95236e-05
6.81212e-05
6.67271e-05
6.53443e-05
6.39712e-05
6.26094e-05
6.12584e-05
5.99199e-05
5.85926e-05
5.72782e-05
5.59753e-05
5.46909e-05
5.3422e-05
5.21633e-05
5.09213e-05
4.96886e-05
4.84693e-05
4.72581e-05
4.60573e-05
4.48636e-05
4.36779e-05
4.2498e-05
4.13244e-05
4.0156e-05
3.89931e-05
3.78374e-05
3.66896e-05
3.55488e-05
3.44168e-05
3.32908e-05
3.21768e-05
3.10713e-05
2.99851e-05
2.89104e-05
2.78561e-05
2.68179e-05
2.58029e-05
2.48076e-05
2.38381e-05
2.28907e-05
2.19651e-05
2.10644e-05
2.02008e-05
1.93741e-05
1.86009e-05
1.78882e-05
1.72647e-05
1.67646e-05
1.65192e-05
1.66371e-05
1.60618e-05
1.5818e-05
1.57932e-05
1.321e-05
0.000111234
0.000110064
0.000109521
0.000108661
0.000107734
0.000106655
0.000105582
0.000104421
0.000103291
0.000102099
0.000100947
9.97421e-05
9.85799e-05
9.73703e-05
9.62023e-05
9.49922e-05
9.38219e-05
9.26145e-05
9.14451e-05
9.02439e-05
8.90792e-05
8.78926e-05
8.67322e-05
8.55495e-05
8.43961e-05
8.32246e-05
8.20766e-05
8.09179e-05
7.97795e-05
7.86332e-05
7.75047e-05
7.63706e-05
7.52525e-05
7.41305e-05
7.3023e-05
7.1913e-05
7.08162e-05
6.97179e-05
6.86313e-05
6.75398e-05
6.64626e-05
6.53912e-05
6.43225e-05
6.32615e-05
6.22047e-05
6.11545e-05
6.01086e-05
5.90686e-05
5.80331e-05
5.70039e-05
5.59787e-05
5.49604e-05
5.39471e-05
5.29424e-05
5.19461e-05
5.09593e-05
4.99737e-05
4.90001e-05
4.80331e-05
4.70768e-05
4.61307e-05
4.51963e-05
4.42759e-05
4.33693e-05
4.24784e-05
4.16023e-05
4.0752e-05
3.99184e-05
3.91115e-05
3.83239e-05
3.75647e-05
3.68254e-05
3.61113e-05
3.54172e-05
3.47473e-05
3.40958e-05
3.34658e-05
3.28491e-05
3.22517e-05
3.12929e-05
3.034e-05
2.93925e-05
2.84651e-05
2.75442e-05
2.66444e-05
2.57527e-05
2.48839e-05
2.40258e-05
2.31956e-05
2.23835e-05
2.16094e-05
2.08675e-05
2.01771e-05
1.95433e-05
1.90026e-05
1.85984e-05
1.83379e-05
1.82346e-05
1.89301e-05
1.49388e-05
0.000100336
9.8587e-05
9.80295e-05
9.69513e-05
9.61039e-05
9.49385e-05
9.3985e-05
9.28179e-05
9.18332e-05
9.06942e-05
8.97112e-05
8.86093e-05
8.76386e-05
8.6573e-05
8.56172e-05
8.45839e-05
8.36425e-05
8.26361e-05
8.17065e-05
8.07209e-05
7.97994e-05
7.88247e-05
7.75897e-05
7.63008e-05
7.50614e-05
7.37978e-05
7.26009e-05
7.13739e-05
7.0217e-05
6.90352e-05
6.79259e-05
6.67972e-05
6.57422e-05
6.46727e-05
6.36764e-05
6.26689e-05
6.1734e-05
6.07918e-05
5.99208e-05
5.90457e-05
5.82383e-05
5.74279e-05
5.66809e-05
5.593e-05
5.52396e-05
5.45451e-05
5.3907e-05
5.32644e-05
5.26735e-05
5.20772e-05
5.15264e-05
5.0972e-05
5.04525e-05
4.99286e-05
4.94322e-05
4.89338e-05
4.84543e-05
4.79715e-05
4.7498e-05
4.70186e-05
4.65429e-05
4.60585e-05
4.55731e-05
4.50686e-05
4.4566e-05
4.40693e-05
4.3545e-05
4.30331e-05
4.25048e-05
4.1986e-05
4.14527e-05
4.0927e-05
4.03887e-05
3.9856e-05
3.93122e-05
3.87722e-05
3.8222e-05
3.76739e-05
3.71172e-05
3.65577e-05
3.59878e-05
3.5406e-05
3.48096e-05
3.4196e-05
3.35626e-05
3.29058e-05
3.22236e-05
3.15125e-05
3.07733e-05
3.00072e-05
2.92214e-05
2.84262e-05
2.76414e-05
2.68926e-05
2.62729e-05
2.58126e-05
2.54351e-05
2.56041e-05
2.61375e-05
2.05163e-05
8.34256e-05
8.13464e-05
8.05024e-05
7.89322e-05
7.8053e-05
7.65911e-05
7.56835e-05
7.43229e-05
7.33985e-05
7.21047e-05
7.12111e-05
6.99753e-05
6.91099e-05
6.79355e-05
6.71023e-05
6.59919e-05
6.51951e-05
6.41511e-05
6.33954e-05
6.24197e-05
6.17097e-05
6.08045e-05
6.01438e-05
5.93198e-05
5.87168e-05
5.79748e-05
5.74331e-05
5.67692e-05
5.62893e-05
5.57002e-05
5.528e-05
5.47615e-05
5.43967e-05
5.39446e-05
5.36303e-05
5.32414e-05
5.29723e-05
5.26407e-05
5.24101e-05
5.21296e-05
5.1931e-05
5.16923e-05
5.15208e-05
5.13155e-05
5.11658e-05
5.09867e-05
5.08539e-05
5.06844e-05
5.05616e-05
5.04425e-05
5.03095e-05
5.01944e-05
5.00489e-05
4.99593e-05
4.98338e-05
4.97499e-05
4.96415e-05
4.95646e-05
4.94748e-05
4.94102e-05
4.93392e-05
4.92888e-05
4.92364e-05
4.92007e-05
4.91668e-05
4.91458e-05
4.91312e-05
4.91284e-05
4.9131e-05
4.9145e-05
4.91648e-05
4.9195e-05
4.92308e-05
4.92761e-05
4.93266e-05
4.93851e-05
4.94475e-05
4.95151e-05
4.95844e-05
4.96562e-05
4.97257e-05
4.97915e-05
4.98487e-05
4.98934e-05
4.99196e-05
4.99214e-05
4.98913e-05
4.98204e-05
4.96998e-05
4.95239e-05
4.92863e-05
4.89866e-05
4.86286e-05
4.82245e-05
4.78026e-05
4.74451e-05
4.73134e-05
4.74391e-05
4.79798e-05
3.97761e-05
7.41661e-05
7.23059e-05
7.1561e-05
7.01629e-05
6.94607e-05
6.81436e-05
6.74803e-05
6.62509e-05
6.56252e-05
6.44872e-05
6.39027e-05
6.28542e-05
6.2314e-05
6.13537e-05
6.08599e-05
5.99859e-05
5.95395e-05
5.87493e-05
5.83507e-05
5.7641e-05
5.72898e-05
5.6657e-05
5.63519e-05
5.57919e-05
5.55299e-05
5.50375e-05
5.48149e-05
5.43845e-05
5.41978e-05
5.38265e-05
5.3667e-05
5.33565e-05
5.32051e-05
5.29587e-05
5.28318e-05
5.26406e-05
5.25162e-05
5.2378e-05
5.22503e-05
5.21537e-05
5.206e-05
5.19845e-05
5.1919e-05
5.18664e-05
5.1829e-05
5.17982e-05
5.17871e-05
5.17787e-05
5.17935e-05
5.18083e-05
5.18455e-05
5.18842e-05
5.19453e-05
5.20121e-05
5.20977e-05
5.21922e-05
5.23036e-05
5.24259e-05
5.25637e-05
5.27131e-05
5.28781e-05
5.30552e-05
5.32485e-05
5.34549e-05
5.36781e-05
5.39146e-05
5.41686e-05
5.44363e-05
5.47222e-05
5.50225e-05
5.53416e-05
5.5676e-05
5.60306e-05
5.64016e-05
5.6794e-05
5.72047e-05
5.76383e-05
5.80925e-05
5.85715e-05
5.90735e-05
5.96024e-05
6.01578e-05
6.07437e-05
6.136e-05
6.20113e-05
6.26984e-05
6.34265e-05
6.41974e-05
6.50196e-05
6.5895e-05
6.68331e-05
6.78384e-05
6.89209e-05
7.00867e-05
7.13436e-05
7.2684e-05
7.40994e-05
7.55612e-05
7.62856e-05
6.62028e-05
7.92474e-05
7.72556e-05
7.64578e-05
7.49469e-05
7.41752e-05
7.27513e-05
7.20064e-05
7.06743e-05
6.99598e-05
6.87227e-05
6.8042e-05
6.69027e-05
6.62589e-05
6.52182e-05
6.46183e-05
6.36703e-05
6.31198e-05
6.22602e-05
6.17619e-05
6.09866e-05
6.0541e-05
5.98458e-05
5.9452e-05
5.88321e-05
5.84875e-05
5.79376e-05
5.76391e-05
5.71539e-05
5.6897e-05
5.64705e-05
5.62508e-05
5.58772e-05
5.5689e-05
5.53637e-05
5.52011e-05
5.49183e-05
5.47757e-05
5.45249e-05
5.43929e-05
5.42056e-05
5.40633e-05
5.3927e-05
5.37891e-05
5.36549e-05
5.35596e-05
5.34488e-05
5.3375e-05
5.32873e-05
5.32348e-05
5.31703e-05
5.31394e-05
5.30986e-05
5.30901e-05
5.30743e-05
5.30873e-05
5.30962e-05
5.31348e-05
5.31703e-05
5.32347e-05
5.32969e-05
5.33858e-05
5.34759e-05
5.3591e-05
5.37094e-05
5.38523e-05
5.39997e-05
5.41708e-05
5.43478e-05
5.45478e-05
5.47549e-05
5.49845e-05
5.52221e-05
5.54819e-05
5.57511e-05
5.6042e-05
5.63439e-05
5.66682e-05
5.70057e-05
5.73665e-05
5.77428e-05
5.81441e-05
5.85639e-05
5.90108e-05
5.94797e-05
5.99788e-05
6.05041e-05
6.10637e-05
6.16546e-05
6.22839e-05
6.29491e-05
6.36585e-05
6.44163e-05
6.52415e-05
6.6138e-05
6.71319e-05
6.8239e-05
6.95057e-05
7.09025e-05
7.19404e-05
6.30769e-05
9.74998e-05
9.53071e-05
9.4405e-05
9.27116e-05
9.17496e-05
9.0146e-05
8.91322e-05
8.76074e-05
8.65549e-05
8.51086e-05
8.40211e-05
8.26539e-05
8.15466e-05
8.02292e-05
7.91546e-05
7.78814e-05
7.68399e-05
7.5618e-05
7.46142e-05
7.34491e-05
7.2488e-05
7.13839e-05
7.04702e-05
6.94303e-05
6.85679e-05
6.75946e-05
6.67844e-05
6.58805e-05
6.51275e-05
6.42916e-05
6.3597e-05
6.28288e-05
6.21929e-05
6.14913e-05
6.09118e-05
6.02727e-05
5.97468e-05
5.91672e-05
5.86916e-05
5.81675e-05
5.77367e-05
5.7263e-05
5.68662e-05
5.64352e-05
5.60693e-05
5.56734e-05
5.53328e-05
5.49646e-05
5.4643e-05
5.42954e-05
5.39871e-05
5.36527e-05
5.33421e-05
5.30247e-05
5.27413e-05
5.24205e-05
5.21453e-05
5.18387e-05
5.15723e-05
5.12953e-05
5.10226e-05
5.07431e-05
5.04925e-05
5.02265e-05
4.99871e-05
4.97341e-05
4.95047e-05
4.92661e-05
4.90488e-05
4.88197e-05
4.86059e-05
4.83802e-05
4.8166e-05
4.7937e-05
4.77142e-05
4.74737e-05
4.72341e-05
4.69734e-05
4.67084e-05
4.64188e-05
4.61223e-05
4.57995e-05
4.54653e-05
4.5103e-05
4.47257e-05
4.43197e-05
4.38972e-05
4.3448e-05
4.29864e-05
4.25027e-05
4.20149e-05
4.15109e-05
4.10039e-05
4.05244e-05
4.01044e-05
3.98077e-05
3.97311e-05
3.99954e-05
4.06377e-05
3.43496e-05
0.000105261
0.000103714
0.000103065
0.000101952
0.000101049
9.98378e-05
9.88217e-05
9.75956e-05
9.65385e-05
9.5331e-05
9.42657e-05
9.30878e-05
9.2028e-05
9.08791e-05
8.98316e-05
8.87105e-05
8.76766e-05
8.65819e-05
8.55623e-05
8.44924e-05
8.34877e-05
8.24413e-05
8.14519e-05
8.04269e-05
7.94513e-05
7.84411e-05
7.74839e-05
7.64979e-05
7.55493e-05
7.45812e-05
7.36478e-05
7.26986e-05
7.17807e-05
7.08501e-05
6.99491e-05
6.90394e-05
6.8144e-05
6.72356e-05
6.63431e-05
6.54422e-05
6.45576e-05
6.36699e-05
6.27996e-05
6.19303e-05
6.10808e-05
6.02356e-05
5.94146e-05
5.86004e-05
5.78138e-05
5.70345e-05
5.62843e-05
5.55443e-05
5.48335e-05
5.41338e-05
5.34619e-05
5.28056e-05
5.21824e-05
5.14894e-05
5.07534e-05
5.00077e-05
4.92769e-05
4.85353e-05
4.78033e-05
4.70536e-05
4.63087e-05
4.55441e-05
4.47827e-05
4.3996e-05
4.32006e-05
4.24043e-05
4.16167e-05
4.07994e-05
4.00013e-05
3.9178e-05
3.83738e-05
3.75481e-05
3.6741e-05
3.59168e-05
3.51117e-05
3.4294e-05
3.349e-05
3.26757e-05
3.18778e-05
3.10747e-05
3.0292e-05
2.95099e-05
2.87457e-05
2.79876e-05
2.72542e-05
2.65373e-05
2.58571e-05
2.52107e-05
2.46212e-05
2.40875e-05
2.37057e-05
2.33936e-05
2.33647e-05
2.36392e-05
2.43813e-05
1.8917e-05
0.000119215
0.000118065
0.000117529
0.000116637
0.000115662
0.000114539
0.000113402
0.000112172
0.000110966
0.000109688
0.000108455
0.000107163
0.000105916
0.000104615
0.000103358
0.00010205
0.000100783
9.94688e-05
9.8191e-05
9.68723e-05
9.55859e-05
9.42639e-05
9.29712e-05
9.16498e-05
9.03515e-05
8.90295e-05
8.77305e-05
8.64098e-05
8.51099e-05
8.37924e-05
8.24954e-05
8.11843e-05
7.98923e-05
7.859e-05
7.73062e-05
7.6016e-05
7.47463e-05
7.34739e-05
7.22206e-05
7.09665e-05
6.97293e-05
6.84924e-05
6.72692e-05
6.60508e-05
6.48501e-05
6.36445e-05
6.2458e-05
6.1269e-05
6.00964e-05
5.89248e-05
5.77684e-05
5.66141e-05
5.5474e-05
5.43373e-05
5.32144e-05
5.20965e-05
5.09945e-05
4.99002e-05
4.88226e-05
4.77558e-05
4.67044e-05
4.56574e-05
4.46272e-05
4.36066e-05
4.26046e-05
4.16153e-05
4.0647e-05
3.97014e-05
3.87808e-05
3.78824e-05
3.70113e-05
3.61649e-05
3.53474e-05
3.45557e-05
3.37877e-05
3.30452e-05
3.23257e-05
3.16309e-05
3.09571e-05
3.03052e-05
2.96667e-05
2.9048e-05
2.84398e-05
2.7848e-05
2.68372e-05
2.58606e-05
2.49061e-05
2.39968e-05
2.31143e-05
2.22814e-05
2.14826e-05
2.07417e-05
2.00421e-05
1.9416e-05
1.88197e-05
1.84099e-05
1.81789e-05
1.79923e-05
1.8726e-05
1.44605e-05
0.000135665
0.000135023
0.000134606
0.000134019
0.000133042
0.000132059
0.000130898
0.000129747
0.000128518
0.000127286
0.000126024
0.000124743
0.000123456
0.000122138
0.000120825
0.000119477
0.000118139
0.000116762
0.000115398
0.000113997
0.000112608
0.000111184
0.000109757
0.000108321
0.000106896
0.00010543
0.000103985
0.000102508
0.000101049
9.95631e-05
9.80834e-05
9.65784e-05
9.50759e-05
9.35512e-05
9.20275e-05
9.04852e-05
8.89504e-05
8.74041e-05
8.58637e-05
8.43156e-05
8.27716e-05
8.12207e-05
7.9677e-05
7.81279e-05
7.65885e-05
7.50464e-05
7.35162e-05
7.19871e-05
7.0472e-05
6.89619e-05
6.74677e-05
6.5982e-05
6.45139e-05
6.30568e-05
6.16172e-05
6.019e-05
5.87817e-05
5.7384e-05
5.60033e-05
5.46413e-05
5.32934e-05
5.19675e-05
5.06586e-05
4.93677e-05
4.80921e-05
4.68305e-05
4.55816e-05
4.43433e-05
4.31151e-05
4.18946e-05
4.06823e-05
3.94757e-05
3.82761e-05
3.70826e-05
3.59009e-05
3.4726e-05
3.35601e-05
3.24014e-05
3.12516e-05
3.0113e-05
2.89854e-05
2.78747e-05
2.6778e-05
2.57033e-05
2.46437e-05
2.36066e-05
2.25869e-05
2.15914e-05
2.06132e-05
1.96616e-05
1.87475e-05
1.78735e-05
1.70536e-05
1.63909e-05
1.59603e-05
1.61301e-05
1.60762e-05
1.58673e-05
1.58835e-05
1.31645e-05
0.000147402
0.000147517
0.00014724
0.000147031
0.000146215
0.000145529
0.00014455
0.000143666
0.000142632
0.000141645
0.00014058
0.000139526
0.000138432
0.000137325
0.000136199
0.000135046
0.000133885
0.000132688
0.000131489
0.000130251
0.00012901
0.000127731
0.000126447
0.00012513
0.000123803
0.000122441
0.000121073
0.000119668
0.000118266
0.000116834
0.000115393
0.000113924
0.000112448
0.000110946
0.000109434
0.000107898
0.000106354
0.000104787
0.0001032
0.000101599
0.0001
9.83597e-05
9.67204e-05
9.50499e-05
9.33752e-05
9.16745e-05
8.9967e-05
8.82375e-05
8.65005e-05
8.47455e-05
8.2984e-05
8.12091e-05
7.94307e-05
7.76458e-05
7.58592e-05
7.407e-05
7.22835e-05
7.04903e-05
6.87023e-05
6.69114e-05
6.51311e-05
6.33579e-05
6.16008e-05
5.98557e-05
5.81323e-05
5.64257e-05
5.47447e-05
5.30852e-05
5.14539e-05
4.98476e-05
4.82707e-05
4.67198e-05
4.51972e-05
4.36937e-05
4.22185e-05
4.07745e-05
3.93337e-05
3.79251e-05
3.65166e-05
3.51262e-05
3.37293e-05
3.23368e-05
3.09297e-05
2.95161e-05
2.80801e-05
2.66313e-05
2.5164e-05
2.36809e-05
2.21924e-05
2.06927e-05
1.92009e-05
1.77111e-05
1.6222e-05
1.47962e-05
1.34805e-05
1.24372e-05
1.20865e-05
1.36419e-05
1.38505e-05
1.43365e-05
0.000141296
0.00014097
0.000140841
0.000140515
0.000140374
0.000140024
0.000139852
0.000139487
0.000139279
0.000138901
0.000138652
0.000138258
0.000137968
0.000137554
0.00013722
0.000136783
0.000136406
0.000135941
0.000135518
0.000135021
0.000134552
0.000134018
0.0001335
0.000132924
0.000132351
0.000131724
0.000131089
0.000130398
0.000129379
0.000128228
0.000127058
0.00012586
0.000124648
0.000123412
0.000122163
0.000120889
0.000119595
0.000118272
0.000116928
0.000115558
0.000114165
0.000112739
0.000111293
0.000109813
0.000108311
0.000106774
0.000105213
0.000103619
0.000101999
0.000100347
9.86691e-05
9.69591e-05
9.52118e-05
9.34435e-05
9.16683e-05
8.98442e-05
8.80198e-05
8.61515e-05
8.42784e-05
8.23699e-05
8.04534e-05
7.85061e-05
7.65466e-05
7.45542e-05
7.2543e-05
7.05063e-05
6.84499e-05
6.63744e-05
6.42815e-05
6.21761e-05
6.00593e-05
5.79394e-05
5.58179e-05
5.37051e-05
5.16031e-05
4.95234e-05
4.74676e-05
4.54462e-05
4.34603e-05
4.15173e-05
3.96163e-05
3.77608e-05
3.59465e-05
3.41722e-05
3.24205e-05
3.06947e-05
2.90083e-05
2.72964e-05
2.55998e-05
2.38766e-05
2.21355e-05
2.03392e-05
1.84747e-05
1.65413e-05
1.46189e-05
1.27007e-05
1.10414e-05
1.00814e-05
1.19767e-05
1.21315e-05
0.000116826
0.000117053
0.00011714
0.000117216
0.000117284
0.000117322
0.000117378
0.000117389
0.000117432
0.00011742
0.000117446
0.000117414
0.000117418
0.000117366
0.000117348
0.000117276
0.000117233
0.00011714
0.00011707
0.000116953
0.000116851
0.000116707
0.000116572
0.000116398
0.000116226
0.000116018
0.000115807
0.000115563
0.000115315
0.000115043
0.000114765
0.000114466
0.000114157
0.000113826
0.000113483
0.000113118
0.000112743
0.000112348
0.000111933
0.000111494
0.000111032
0.000110544
0.00011003
0.000109484
0.000108907
0.000108299
0.000107663
0.000106998
0.000106304
0.000105569
0.000104796
0.000103973
0.0001031
0.00010217
0.00010117
9.96411e-05
9.80624e-05
9.64119e-05
9.47378e-05
9.30057e-05
9.12491e-05
8.94471e-05
8.76296e-05
8.57731e-05
8.38937e-05
8.19888e-05
8.00206e-05
7.80338e-05
7.59958e-05
7.39336e-05
7.18285e-05
6.96971e-05
6.75205e-05
6.53148e-05
6.30621e-05
6.07742e-05
5.84361e-05
5.60563e-05
5.36239e-05
5.11464e-05
4.86184e-05
4.60491e-05
4.344e-05
4.08046e-05
3.81527e-05
3.55043e-05
3.28768e-05
3.02947e-05
2.77879e-05
2.53682e-05
2.30204e-05
2.07439e-05
1.85389e-05
1.62998e-05
1.41355e-05
1.2132e-05
1.03199e-05
8.92179e-06
8.37982e-06
1.15384e-05
7.49728e-05
7.54118e-05
7.5495e-05
7.57681e-05
7.58591e-05
7.6084e-05
7.61932e-05
7.63867e-05
7.65116e-05
7.66837e-05
7.68191e-05
7.69762e-05
7.71171e-05
7.72632e-05
7.74052e-05
7.75425e-05
7.76821e-05
7.78114e-05
7.79457e-05
7.8067e-05
7.81936e-05
7.83061e-05
7.84232e-05
7.85263e-05
7.86326e-05
7.87259e-05
7.88214e-05
7.89055e-05
7.89918e-05
7.90685e-05
7.91454e-05
7.92136e-05
7.92798e-05
7.93373e-05
7.93911e-05
7.94358e-05
7.9475e-05
7.95037e-05
7.95283e-05
7.95429e-05
7.95516e-05
7.95505e-05
7.95421e-05
7.9524e-05
7.94982e-05
7.94633e-05
7.94176e-05
7.93567e-05
7.92802e-05
7.91834e-05
7.9066e-05
7.89231e-05
7.87538e-05
7.8554e-05
7.83229e-05
7.80627e-05
7.77883e-05
7.7478e-05
7.71468e-05
7.67711e-05
7.63584e-05
7.58465e-05
7.50124e-05
7.41316e-05
7.31846e-05
7.22023e-05
7.11579e-05
7.00758e-05
6.89294e-05
6.77278e-05
6.64635e-05
6.51523e-05
6.37472e-05
6.22769e-05
6.07136e-05
5.90693e-05
5.73254e-05
5.54896e-05
5.355e-05
5.15136e-05
4.93747e-05
4.71421e-05
4.48162e-05
4.24092e-05
3.99288e-05
3.73883e-05
3.47793e-05
3.21189e-05
2.9332e-05
2.64604e-05
2.3495e-05
2.04687e-05
1.74908e-05
1.46376e-05
1.19479e-05
9.59362e-06
7.77191e-06
6.54297e-06
5.87363e-06
6.77671e-06
6.9789e-06
6.99572e-06
7.00766e-06
7.02131e-06
7.03543e-06
7.05198e-06
7.0663e-06
7.08435e-06
7.09921e-06
7.11807e-06
7.13377e-06
7.15309e-06
7.16978e-06
7.18945e-06
7.20718e-06
7.22718e-06
7.24593e-06
7.26632e-06
7.28605e-06
7.30692e-06
7.32762e-06
7.34908e-06
7.37076e-06
7.39297e-06
7.41571e-06
7.43888e-06
7.4628e-06
7.48713e-06
7.51237e-06
7.53801e-06
7.56465e-06
7.59174e-06
7.61987e-06
7.64855e-06
7.6783e-06
7.70873e-06
7.74028e-06
7.77264e-06
7.80623e-06
7.84072e-06
7.87655e-06
7.91341e-06
7.95166e-06
7.99106e-06
8.03188e-06
8.07385e-06
8.11708e-06
8.16138e-06
8.20691e-06
8.25347e-06
8.30128e-06
8.35017e-06
8.40043e-06
8.45204e-06
8.50539e-06
8.56058e-06
8.61751e-06
8.67518e-06
8.73391e-06
8.7918e-06
8.84912e-06
8.90339e-06
8.95583e-06
9.01197e-06
9.06781e-06
9.12823e-06
9.18926e-06
9.25499e-06
9.32181e-06
9.3932e-06
9.46722e-06
9.54562e-06
9.62474e-06
9.7093e-06
9.79487e-06
9.88539e-06
9.97762e-06
1.00746e-05
1.01745e-05
1.02798e-05
1.039e-05
1.05079e-05
1.0634e-05
1.0772e-05
1.09225e-05
1.10843e-05
1.12406e-05
1.13481e-05
1.13718e-05
1.12424e-05
1.07877e-05
9.77447e-06
8.05984e-06
5.93543e-06
3.62028e-06
2.63683e-06
2.55667e-06
3.91783e-06
4.0185e-06
4.33084e-06
1.09393e-05
2.07732e-06
2.6006e-06
3.51743e-06
4.54833e-06
5.62309e-06
6.48743e-06
7.33704e-06
8.15033e-06
8.90644e-06
9.61994e-06
1.03379e-05
1.14564e-05
1.33351e-05
1.54696e-05
1.78506e-05
1.75969e-05
1.5542e-05
1.02875e-05
3.99568e-06
5.87962e-06
2.18614e-06
2.47513e-06
3.1843e-06
4.05635e-06
4.86402e-06
5.69331e-06
6.55239e-06
7.41577e-06
8.29944e-06
9.27493e-06
1.03723e-05
1.20255e-05
1.4099e-05
1.70531e-05
1.83238e-05
1.74933e-05
1.47075e-05
9.53332e-06
3.96701e-06
4.94591e-06
2.69537e-06
2.9012e-06
3.41679e-06
4.01108e-06
4.71743e-06
5.48172e-06
6.31637e-06
7.22223e-06
8.3898e-06
9.51007e-06
1.10213e-05
1.29393e-05
1.58363e-05
1.80262e-05
1.83048e-05
1.7151e-05
1.40021e-05
8.87049e-06
3.8396e-06
5.05641e-06
3.43951e-06
3.63821e-06
3.87597e-06
4.3689e-06
4.92963e-06
5.67444e-06
6.58285e-06
7.71567e-06
9.48913e-06
1.12191e-05
1.29537e-05
1.57407e-05
1.82203e-05
1.91977e-05
1.88213e-05
1.70299e-05
1.32343e-05
7.97838e-06
3.25815e-06
5.68867e-06
4.47721e-06
4.61699e-06
4.63446e-06
5.19478e-06
5.69387e-06
6.58671e-06
7.84445e-06
9.60092e-06
1.31099e-05
1.47773e-05
1.70902e-05
1.9352e-05
2.04375e-05
2.04396e-05
1.92205e-05
1.65366e-05
1.24898e-05
6.87925e-06
2.37579e-06
6.8955e-06
5.9772e-06
6.04862e-06
6.02778e-06
6.77357e-06
7.77013e-06
9.3534e-06
1.16084e-05
1.61265e-05
1.9522e-05
2.09964e-05
2.23885e-05
2.30789e-05
2.28779e-05
2.16778e-05
1.91006e-05
1.596e-05
1.15546e-05
5.14704e-06
1.46787e-06
9.04387e-06
8.6279e-06
8.85952e-06
9.46598e-06
1.11855e-05
1.36766e-05
1.70886e-05
2.20426e-05
2.87879e-05
2.94384e-05
2.91191e-05
2.83271e-05
2.69226e-05
2.47839e-05
2.16801e-05
1.8528e-05
1.48189e-05
1.01041e-05
3.82338e-06
7.20902e-07
1.46606e-05
1.61406e-05
1.73692e-05
1.96676e-05
2.3199e-05
2.75256e-05
3.31e-05
4.00663e-05
3.99379e-05
3.77744e-05
3.42826e-05
3.16656e-05
2.81049e-05
2.49259e-05
2.08577e-05
1.7083e-05
1.29176e-05
8.10438e-06
2.78137e-06
2.76738e-07
3.25345e-05
3.54913e-05
3.67178e-05
3.91794e-05
4.36334e-05
4.7977e-05
5.20296e-05
4.78023e-05
4.41792e-05
4.02532e-05
3.63782e-05
3.2587e-05
2.83739e-05
2.33266e-05
1.85626e-05
1.40683e-05
1.01867e-05
6.45639e-06
2.41959e-06
1.22548e-07
5.2825e-05
5.57091e-05
5.59628e-05
5.74666e-05
6.23176e-05
5.94227e-05
5.51334e-05
5.01743e-05
4.60864e-05
4.11285e-05
3.70496e-05
3.18775e-05
2.70261e-05
1.97584e-05
1.40387e-05
9.63963e-06
7.58947e-06
6.12327e-06
2.97363e-06
1.95553e-07
5.03402e-05
5.30727e-05
5.34391e-05
5.50221e-05
5.98178e-05
5.77773e-05
5.36644e-05
4.89024e-05
4.50456e-05
4.02549e-05
3.65772e-05
3.14493e-05
2.76204e-05
2.04795e-05
1.4819e-05
9.78288e-06
7.21698e-06
5.17577e-06
2.25099e-06
1.57469e-07
2.80211e-05
3.09172e-05
3.22749e-05
3.47486e-05
3.91472e-05
4.36872e-05
4.96418e-05
4.56354e-05
4.2653e-05
3.84286e-05
3.56715e-05
3.13223e-05
2.83429e-05
2.39312e-05
1.93655e-05
1.46105e-05
1.00111e-05
5.48879e-06
1.68096e-06
1.09096e-07
1.3102e-05
1.40448e-05
1.50218e-05
1.70675e-05
2.02307e-05
2.42789e-05
2.95409e-05
3.64282e-05
3.97675e-05
3.61568e-05
3.4028e-05
3.06161e-05
2.76757e-05
2.45079e-05
2.1267e-05
1.73746e-05
1.2977e-05
7.81294e-06
2.37069e-06
1.42863e-07
8.63814e-06
8.11643e-06
8.26375e-06
8.65899e-06
1.00776e-05
1.22208e-05
1.52221e-05
1.98427e-05
2.63228e-05
2.74877e-05
2.77823e-05
2.7593e-05
2.66698e-05
2.4732e-05
2.14468e-05
1.86198e-05
1.48281e-05
1.0014e-05
3.48638e-06
3.81189e-07
6.73712e-06
5.8049e-06
5.8693e-06
5.83199e-06
6.51323e-06
7.3734e-06
8.75946e-06
1.07492e-05
1.48385e-05
1.81958e-05
1.99854e-05
2.17341e-05
2.2753e-05
2.27858e-05
2.18407e-05
1.89567e-05
1.58304e-05
1.14935e-05
5.11319e-06
1.17835e-06
5.62044e-06
4.42672e-06
4.56437e-06
4.60688e-06
5.15438e-06
5.64448e-06
6.48873e-06
7.64114e-06
9.2472e-06
1.23725e-05
1.41514e-05
1.65271e-05
1.90593e-05
2.03544e-05
2.04614e-05
1.93542e-05
1.64125e-05
1.24344e-05
6.93338e-06
2.22667e-06
5.04235e-06
3.43515e-06
3.63725e-06
3.91541e-06
4.41443e-06
4.9945e-06
5.72906e-06
6.6109e-06
7.68803e-06
9.33988e-06
1.09288e-05
1.26838e-05
1.5431e-05
1.81292e-05
1.92555e-05
1.88989e-05
1.70965e-05
1.31894e-05
8.03088e-06
3.20804e-06
5.04772e-06
2.73346e-06
2.93262e-06
3.4632e-06
4.09235e-06
4.80661e-06
5.58383e-06
6.42153e-06
7.31348e-06
8.42211e-06
9.50538e-06
1.09536e-05
1.28388e-05
1.56643e-05
1.80424e-05
1.83941e-05
1.72084e-05
1.39482e-05
8.94578e-06
3.79919e-06
6.12032e-06
2.24196e-06
2.53626e-06
3.25414e-06
4.13365e-06
4.98466e-06
5.81956e-06
6.68665e-06
7.55679e-06
8.4309e-06
9.36939e-06
1.0431e-05
1.20463e-05
1.40902e-05
1.69975e-05
1.83779e-05
1.75188e-05
1.47193e-05
9.58535e-06
3.95302e-06
1.0972e-05
2.13815e-06
2.66042e-06
3.59589e-06
4.64395e-06
5.72233e-06
6.63764e-06
7.48923e-06
8.31094e-06
9.06863e-06
9.77595e-06
1.04652e-05
1.1508e-05
1.33029e-05
1.54673e-05
1.78815e-05
1.76245e-05
1.55205e-05
1.03484e-05
3.99022e-06
1.23421e-06
0.000116558
0.000294184
0.000330906
0.00033481
0.000335356
0.000335357
0.000335342
0.000335343
0.000335345
0.000335345
0.000335343
0.000335342
0.000335357
0.000335356
0.00033481
0.000330906
0.000294184
0.000116558
1.23421e-06
1.36973e-06
6.81669e-05
0.000219584
0.000309504
0.000330909
0.000334527
0.000335273
0.000335315
0.000335296
0.000335287
0.000335287
0.000335296
0.000335315
0.000335273
0.000334527
0.000330909
0.000309504
0.000219584
6.81671e-05
1.36973e-06
1.51338e-06
5.28962e-05
0.00017646
0.00028058
0.000322148
0.000332504
0.000334604
0.0003351
0.000335168
0.000335172
0.000335172