/*--------------------------------*- C++ -*----------------------------------*\
| =========                 |                                                 |
| \\      /  F ield         | OpenFOAM: The Open Source CFD Toolbox           |
|  \\    /   O peration     | Version:  2.1.0                                 |
|   \\  /    A nd           | Web:      www.OpenFOAM.org                      |
|    \\/     M anipulation  |                                                 |
\*---------------------------------------------------------------------------*/
FoamFile
{
    version     2.0;
    format      ascii;
    class       surfaceScalarField;
    location    "0.43";
    object      phi;
}
// * * * * * * * * * * * * * * * * * * * * * * * * * * * * * * * * * * * * * //

dimensions      [0 3 -1 0 0 0 0];

internalField   nonuniform List<scalar> 
12460
(
-2.60315e-05
-3.88189e-09
-2.59942e-05
-3.98782e-08
-2.59339e-05
-6.27967e-08
-2.58618e-05
-7.44586e-08
-2.57828e-05
-8.13562e-08
-2.56991e-05
-8.59876e-08
-2.56119e-05
-8.93272e-08
-2.55221e-05
-9.19523e-08
-2.543e-05
-9.41682e-08
-2.53358e-05
-9.61661e-08
-2.52397e-05
-9.80488e-08
-2.51416e-05
-9.98811e-08
-2.50417e-05
-1.017e-07
-2.49399e-05
-1.03522e-07
-2.48362e-05
-1.05367e-07
-2.47306e-05
-1.07234e-07
-2.4623e-05
-1.09135e-07
-2.45134e-05
-1.11065e-07
-2.44018e-05
-1.13033e-07
-2.42882e-05
-1.15029e-07
-2.41724e-05
-1.17058e-07
-2.40546e-05
-1.19108e-07
-2.39346e-05
-1.21204e-07
-2.38124e-05
-1.23343e-07
-2.36881e-05
-1.25481e-07
-2.35614e-05
-1.27682e-07
-2.34324e-05
-1.30027e-07
-2.3301e-05
-1.32453e-07
-2.3167e-05
-1.34954e-07
-2.30303e-05
-1.37527e-07
-2.2891e-05
-1.40184e-07
-2.27489e-05
-1.42925e-07
-2.26039e-05
-1.45762e-07
-2.24559e-05
-1.48701e-07
-2.23049e-05
-1.5175e-07
-2.21506e-05
-1.54908e-07
-2.19931e-05
-1.58186e-07
-2.18321e-05
-1.61586e-07
-2.16675e-05
-1.65122e-07
-2.14993e-05
-1.68805e-07
-2.13271e-05
-1.72656e-07
-2.11509e-05
-1.76674e-07
-2.09705e-05
-1.80867e-07
-2.07857e-05
-1.85243e-07
-2.05962e-05
-1.89806e-07
-2.0402e-05
-1.94559e-07
-2.02029e-05
-1.99502e-07
-1.99986e-05
-2.0463e-07
-1.97889e-05
-2.09932e-07
-1.95738e-05
-2.15423e-07
-1.9353e-05
-2.21028e-07
-1.91266e-05
-2.26666e-07
-1.88942e-05
-2.32647e-07
-1.86553e-05
-2.39097e-07
-1.84096e-05
-2.45859e-07
-1.8157e-05
-2.52772e-07
-1.78976e-05
-2.59517e-07
-1.76318e-05
-2.6602e-07
-1.73595e-05
-2.72441e-07
-1.70806e-05
-2.78945e-07
-1.67951e-05
-2.85598e-07
-1.65028e-05
-2.92405e-07
-1.62035e-05
-2.99423e-07
-1.58969e-05
-3.06711e-07
-1.55826e-05
-3.14279e-07
-1.52605e-05
-3.22175e-07
-1.49302e-05
-3.30422e-07
-1.45911e-05
-3.39084e-07
-1.4243e-05
-3.48195e-07
-1.38852e-05
-3.57788e-07
-1.35173e-05
-3.6789e-07
-1.31388e-05
-3.78552e-07
-1.2749e-05
-3.89812e-07
-1.23472e-05
-4.01736e-07
-1.19328e-05
-4.14397e-07
-1.15049e-05
-4.2789e-07
-1.10626e-05
-4.42343e-07
-1.06046e-05
-4.57913e-07
-1.01298e-05
-4.74825e-07
-9.63631e-06
-4.93414e-07
-9.12218e-06
-5.14091e-07
-8.58476e-06
-5.3737e-07
-8.0208e-06
-5.63911e-07
-7.42629e-06
-5.94448e-07
-6.79667e-06
-6.29551e-07
-6.12717e-06
-6.6943e-07
-5.41337e-06
-7.13704e-07
-4.65254e-06
-7.60724e-07
-3.84599e-06
-8.06432e-07
-3.00377e-06
-8.42064e-07
-2.15379e-06
-8.49791e-07
-1.35906e-06
-7.94517e-07
-7.2294e-07
-6.35885e-07
-3.48026e-07
-3.74779e-07
-2.75527e-07
-7.27859e-08
-5.30056e-07
2.53854e-07
-1.42337e-06
8.92759e-07
-3.71704e-06
2.29362e-06
-9.28814e-06
5.57109e-06
1.54965e-05
-2.47846e-05
-3.1356e-05
-2.29988e-08
-3.13063e-05
-9.2647e-08
-3.12417e-05
-1.30277e-07
-3.11682e-05
-1.50846e-07
-3.10889e-05
-1.63459e-07
-3.10057e-05
-1.71981e-07
-3.09196e-05
-1.78136e-07
-3.08311e-05
-1.82967e-07
-3.07408e-05
-1.87044e-07
-3.06487e-05
-1.90712e-07
-3.0555e-05
-1.94173e-07
-3.04596e-05
-1.97537e-07
-3.03627e-05
-2.00884e-07
-3.02641e-05
-2.04239e-07
-3.0164e-05
-2.07645e-07
-3.00622e-05
-2.11099e-07
-2.99587e-05
-2.14627e-07
-2.98534e-05
-2.18215e-07
-2.97465e-05
-2.21884e-07
-2.96377e-05
-2.25616e-07
-2.95271e-05
-2.29418e-07
-2.94146e-05
-2.33262e-07
-2.93002e-05
-2.37174e-07
-2.9184e-05
-2.41177e-07
-2.90659e-05
-2.45118e-07
-2.89459e-05
-2.491e-07
-2.8824e-05
-2.53331e-07
-2.87001e-05
-2.57655e-07
-2.85743e-05
-2.62083e-07
-2.84465e-05
-2.66616e-07
-2.83166e-05
-2.71275e-07
-2.81846e-05
-2.76064e-07
-2.80504e-05
-2.81001e-07
-2.79141e-05
-2.86093e-07
-2.77755e-05
-2.91355e-07
-2.76346e-05
-2.96789e-07
-2.74913e-05
-3.02411e-07
-2.73455e-05
-3.08235e-07
-2.71972e-05
-3.1427e-07
-2.70462e-05
-3.20515e-07
-2.68926e-05
-3.27013e-07
-2.67362e-05
-3.33769e-07
-2.6577e-05
-3.40797e-07
-2.64148e-05
-3.48118e-07
-2.62494e-05
-3.55743e-07
-2.60809e-05
-3.63687e-07
-2.5909e-05
-3.71963e-07
-2.57335e-05
-3.80582e-07
-2.55544e-05
-3.89541e-07
-2.53714e-05
-3.98872e-07
-2.51844e-05
-4.08516e-07
-2.49932e-05
-4.18229e-07
-2.47983e-05
-4.27977e-07
-2.45999e-05
-4.37813e-07
-2.43984e-05
-4.47754e-07
-2.41936e-05
-4.57833e-07
-2.39855e-05
-4.67975e-07
-2.37737e-05
-4.78052e-07
-2.35584e-05
-4.88088e-07
-2.33393e-05
-4.98228e-07
-2.31166e-05
-5.08558e-07
-2.28902e-05
-5.19114e-07
-2.26599e-05
-5.29938e-07
-2.24257e-05
-5.41073e-07
-2.21877e-05
-5.5255e-07
-2.19456e-05
-5.64425e-07
-2.16995e-05
-5.76742e-07
-2.14492e-05
-5.89575e-07
-2.11946e-05
-6.02992e-07
-2.09355e-05
-6.17073e-07
-2.06717e-05
-6.31892e-07
-2.04029e-05
-6.47557e-07
-2.01287e-05
-6.64162e-07
-1.98488e-05
-6.81854e-07
-1.95626e-05
-7.00801e-07
-1.92695e-05
-7.21201e-07
-1.89687e-05
-7.43311e-07
-1.86594e-05
-7.67423e-07
-1.83405e-05
-7.93914e-07
-1.80108e-05
-8.23322e-07
-1.76688e-05
-8.56268e-07
-1.7313e-05
-8.93451e-07
-1.69414e-05
-9.35716e-07
-1.65521e-05
-9.83977e-07
-1.6143e-05
-1.03896e-06
-1.57119e-05
-1.10087e-06
-1.52571e-05
-1.16883e-06
-1.47782e-05
-1.23996e-06
-1.42773e-05
-1.30778e-06
-1.37604e-05
-1.35944e-06
-1.32399e-05
-1.37093e-06
-1.27342e-05
-1.30113e-06
-1.22788e-05
-1.09236e-06
-1.19543e-05
-7.00785e-07
-1.20233e-05
-5.25456e-09
-1.25655e-05
7.95193e-07
-1.39416e-05
2.26832e-06
-1.66728e-05
5.02473e-06
-2.17988e-05
1.06972e-05
2.65667e-05
-3.28691e-05
-3.43366e-05
-4.98274e-08
-3.42938e-05
-1.38786e-07
-3.42392e-05
-1.88231e-07
-3.41771e-05
-2.16225e-07
-3.41102e-05
-2.33561e-07
-3.40401e-05
-2.45246e-07
-3.39677e-05
-2.53595e-07
-3.38935e-05
-2.60112e-07
-3.3818e-05
-2.65536e-07
-3.37412e-05
-2.70398e-07
-3.36632e-05
-2.74935e-07
-3.35842e-05
-2.79345e-07
-3.3504e-05
-2.83702e-07
-3.34228e-05
-2.88082e-07
-3.33404e-05
-2.92513e-07
-3.3257e-05
-2.97025e-07
-3.31724e-05
-3.0163e-07
-3.30866e-05
-3.0634e-07
-3.29996e-05
-3.11166e-07
-3.29114e-05
-3.16113e-07
-3.28218e-05
-3.21186e-07
-3.27308e-05
-3.26368e-07
-3.26383e-05
-3.31693e-07
-3.25443e-05
-3.37205e-07
-3.24485e-05
-3.42757e-07
-3.23512e-05
-3.48262e-07
-3.22526e-05
-3.53794e-07
-3.21527e-05
-3.59331e-07
-3.20515e-05
-3.6494e-07
-3.19491e-05
-3.70651e-07
-3.18455e-05
-3.76485e-07
-3.17406e-05
-3.82452e-07
-3.16345e-05
-3.88568e-07
-3.15272e-05
-3.94841e-07
-3.14186e-05
-4.01282e-07
-3.13088e-05
-4.07893e-07
-3.11978e-05
-4.14681e-07
-3.10856e-05
-4.21664e-07
-3.09721e-05
-4.28862e-07
-3.08575e-05
-4.36242e-07
-3.07417e-05
-4.43846e-07
-3.06248e-05
-4.51684e-07
-3.05068e-05
-4.59757e-07
-3.03877e-05
-4.68087e-07
-3.02677e-05
-4.76676e-07
-3.01467e-05
-4.85536e-07
-3.00248e-05
-4.94673e-07
-2.9902e-05
-5.04095e-07
-2.97785e-05
-5.13792e-07
-2.96543e-05
-5.23737e-07
-2.95296e-05
-5.33876e-07
-2.94043e-05
-5.44126e-07
-2.92785e-05
-5.54334e-07
-2.91525e-05
-5.64351e-07
-2.90266e-05
-5.74213e-07
-2.89009e-05
-5.84049e-07
-2.87753e-05
-5.94026e-07
-2.86497e-05
-6.04077e-07
-2.85242e-05
-6.14069e-07
-2.83988e-05
-6.24028e-07
-2.82738e-05
-6.33986e-07
-2.81493e-05
-6.43978e-07
-2.80256e-05
-6.54025e-07
-2.79029e-05
-6.64126e-07
-2.77815e-05
-6.743e-07
-2.76617e-05
-6.84565e-07
-2.75438e-05
-6.94948e-07
-2.74282e-05
-7.05475e-07
-2.73154e-05
-7.16191e-07
-2.72056e-05
-7.27164e-07
-2.70993e-05
-7.38466e-07
-2.6997e-05
-7.50205e-07
-2.6899e-05
-7.62474e-07
-2.68058e-05
-7.75448e-07
-2.67175e-05
-7.89341e-07
-2.66347e-05
-8.04409e-07
-2.65573e-05
-8.21005e-07
-2.64855e-05
-8.3953e-07
-2.64193e-05
-8.60471e-07
-2.63585e-05
-8.84542e-07
-2.63026e-05
-9.12561e-07
-2.6251e-05
-9.45371e-07
-2.62032e-05
-9.83922e-07
-2.61584e-05
-1.02917e-06
-2.61159e-05
-1.08189e-06
-2.6075e-05
-1.14225e-06
-2.60352e-05
-1.20905e-06
-2.59971e-05
-1.27853e-06
-2.59626e-05
-1.34278e-06
-2.59356e-05
-1.38685e-06
-2.59225e-05
-1.38458e-06
-2.59307e-05
-1.29332e-06
-2.59723e-05
-1.05122e-06
-2.60913e-05
-5.82066e-07
-2.62768e-05
1.80106e-07
-2.67907e-05
1.30905e-06
-2.78206e-05
3.29822e-06
-2.97499e-05
6.95401e-06
-3.33012e-05
1.42484e-05
3.11949e-05
-3.79295e-05
-3.70268e-05
-7.64033e-08
-3.69962e-05
-1.73003e-07
-3.69586e-05
-2.29652e-07
-3.69154e-05
-2.63113e-07
-3.68686e-05
-2.84048e-07
-3.68195e-05
-2.98011e-07
-3.67688e-05
-3.07825e-07
-3.67171e-05
-3.15337e-07
-3.66646e-05
-3.21447e-07
-3.66116e-05
-3.26832e-07
-3.6558e-05
-3.31766e-07
-3.65041e-05
-3.36513e-07
-3.64499e-05
-3.41147e-07
-3.63953e-05
-3.45782e-07
-3.63405e-05
-3.50432e-07
-3.62854e-05
-3.55152e-07
-3.623e-05
-3.5994e-07
-3.61744e-05
-3.64825e-07
-3.61186e-05
-3.69805e-07
-3.60626e-05
-3.749e-07
-3.60064e-05
-3.80114e-07
-3.595e-05
-3.8541e-07
-3.58935e-05
-3.90831e-07
-3.58369e-05
-3.96343e-07
-3.57801e-05
-4.01958e-07
-3.57232e-05
-4.0765e-07
-3.56661e-05
-4.13265e-07
-3.56089e-05
-4.18824e-07
-3.55517e-05
-4.24399e-07
-3.54945e-05
-4.30026e-07
-3.54374e-05
-4.35725e-07
-3.53804e-05
-4.41508e-07
-3.53236e-05
-4.47381e-07
-3.5267e-05
-4.53349e-07
-3.52108e-05
-4.59415e-07
-3.51549e-05
-4.65575e-07
-3.50995e-05
-4.71823e-07
-3.50448e-05
-4.78161e-07
-3.49907e-05
-4.84607e-07
-3.49374e-05
-4.91141e-07
-3.4885e-05
-4.97774e-07
-3.48337e-05
-5.04493e-07
-3.47836e-05
-5.11289e-07
-3.47349e-05
-5.18167e-07
-3.46878e-05
-5.25112e-07
-3.46425e-05
-5.32113e-07
-3.45992e-05
-5.39156e-07
-3.45582e-05
-5.46222e-07
-3.45199e-05
-5.5328e-07
-3.44844e-05
-5.60275e-07
-3.44522e-05
-5.67119e-07
-3.44234e-05
-5.73916e-07
-3.43978e-05
-5.80824e-07
-3.43753e-05
-5.87678e-07
-3.43561e-05
-5.94314e-07
-3.43402e-05
-6.00767e-07
-3.43278e-05
-6.07116e-07
-3.43193e-05
-6.13313e-07
-3.43149e-05
-6.19234e-07
-3.43147e-05
-6.24847e-07
-3.43192e-05
-6.30131e-07
-3.43286e-05
-6.35089e-07
-3.43435e-05
-6.39757e-07
-3.4364e-05
-6.44147e-07
-3.43905e-05
-6.48272e-07
-3.44234e-05
-6.52153e-07
-3.4463e-05
-6.55823e-07
-3.45096e-05
-6.59324e-07
-3.45635e-05
-6.62727e-07
-3.46249e-05
-6.66127e-07
-3.46941e-05
-6.6964e-07
-3.47712e-05
-6.73439e-07
-3.48563e-05
-6.77715e-07
-3.49494e-05
-6.82728e-07
-3.50502e-05
-6.88806e-07
-3.51586e-05
-6.96346e-07
-3.5274e-05
-7.05852e-07
-3.53959e-05
-7.17907e-07
-3.55235e-05
-7.33095e-07
-3.5656e-05
-7.52308e-07
-3.57922e-05
-7.76548e-07
-3.59311e-05
-8.06714e-07
-3.60714e-05
-8.43788e-07
-3.62121e-05
-8.88672e-07
-3.63522e-05
-9.41957e-07
-3.64911e-05
-1.00352e-06
-3.66285e-05
-1.0717e-06
-3.67652e-05
-1.142e-06
-3.69025e-05
-1.20558e-06
-3.70425e-05
-1.24685e-06
-3.71873e-05
-1.23985e-06
-3.73361e-05
-1.14457e-06
-3.74885e-05
-8.98889e-07
-3.76422e-05
-4.28363e-07
-3.78042e-05
3.42118e-07
-3.81064e-05
1.6112e-06
-3.86684e-05
3.86022e-06
-3.96625e-05
7.94809e-06
-4.12725e-05
1.58585e-05
3.12591e-05
-4.13367e-05
-3.9736e-05
-9.60011e-08
-3.9723e-05
-1.90083e-07
-3.97088e-05
-2.48017e-07
-3.96926e-05
-2.83502e-07
-3.96748e-05
-3.05953e-07
-3.96563e-05
-3.20651e-07
-3.96374e-05
-3.30781e-07
-3.96186e-05
-3.3823e-07
-3.95999e-05
-3.441e-07
-3.95816e-05
-3.49058e-07
-3.95638e-05
-3.5348e-07
-3.95465e-05
-3.57602e-07
-3.95299e-05
-3.61553e-07
-3.9514e-05
-3.65419e-07
-3.94989e-05
-3.69244e-07
-3.94846e-05
-3.73057e-07
-3.94712e-05
-3.76873e-07
-3.94589e-05
-3.80697e-07
-3.94476e-05
-3.84536e-07
-3.94376e-05
-3.88394e-07
-3.94288e-05
-3.92288e-07
-3.94214e-05
-3.96124e-07
-3.94156e-05
-3.9994e-07
-3.94114e-05
-4.03731e-07
-3.9409e-05
-4.0752e-07
-3.94083e-05
-4.11469e-07
-3.94092e-05
-4.15497e-07
-3.94115e-05
-4.1947e-07
-3.94155e-05
-4.23399e-07
-3.94211e-05
-4.27301e-07
-3.94285e-05
-4.31188e-07
-3.94378e-05
-4.35066e-07
-3.9449e-05
-4.38938e-07
-3.94623e-05
-4.42802e-07
-3.94777e-05
-4.46656e-07
-3.94954e-05
-4.50487e-07
-3.95155e-05
-4.54292e-07
-3.95381e-05
-4.58069e-07
-3.95633e-05
-4.61806e-07
-3.95913e-05
-4.65503e-07
-3.96223e-05
-4.69171e-07
-3.96563e-05
-4.72778e-07
-3.96935e-05
-4.76324e-07
-3.9734e-05
-4.79804e-07
-3.9778e-05
-4.83214e-07
-3.98256e-05
-4.8654e-07
-3.98769e-05
-4.89773e-07
-3.99322e-05
-4.92905e-07
-3.99914e-05
-4.95916e-07
-4.00546e-05
-4.98781e-07
-4.0122e-05
-5.01469e-07
-4.01936e-05
-5.04037e-07
-4.02694e-05
-5.06565e-07
-4.03497e-05
-5.08954e-07
-4.04343e-05
-5.11101e-07
-4.05235e-05
-5.13003e-07
-4.06172e-05
-5.14706e-07
-4.07156e-05
-5.16212e-07
-4.08186e-05
-5.17433e-07
-4.09263e-05
-5.18316e-07
-4.10386e-05
-5.1886e-07
-4.11556e-05
-5.19105e-07
-4.12772e-05
-5.19097e-07
-4.14034e-05
-5.1888e-07
-4.1534e-05
-5.18503e-07
-4.16689e-05
-5.18006e-07
-4.1808e-05
-5.17447e-07
-4.19511e-05
-5.16896e-07
-4.2098e-05
-5.16438e-07
-4.22485e-05
-5.16189e-07
-4.24023e-05
-5.16282e-07
-4.25593e-05
-5.16892e-07
-4.27192e-05
-5.18229e-07
-4.28818e-05
-5.2056e-07
-4.30467e-05
-5.24212e-07
-4.32138e-05
-5.29591e-07
-4.33827e-05
-5.3718e-07
-4.35532e-05
-5.47654e-07
-4.3725e-05
-5.61467e-07
-4.3898e-05
-5.7953e-07
-4.40717e-05
-6.0298e-07
-4.42459e-05
-6.32601e-07
-4.44205e-05
-6.69328e-07
-4.45953e-05
-7.13971e-07
-4.47704e-05
-7.66968e-07
-4.49459e-05
-8.28086e-07
-4.5122e-05
-8.95589e-07
-4.52992e-05
-9.64833e-07
-4.54778e-05
-1.02698e-06
-4.56575e-05
-1.06722e-06
-4.58356e-05
-1.06176e-06
-4.60052e-05
-9.75033e-07
-4.61512e-05
-7.5282e-07
-4.62541e-05
-3.255e-07
-4.63176e-05
4.0565e-07
-4.63799e-05
1.67348e-06
-4.6457e-05
3.9373e-06
-4.65487e-05
8.03974e-06
-4.63306e-05
1.56405e-05
2.84335e-05
-4.35051e-05
-4.2599e-05
-1.01961e-07
-4.26082e-05
-1.85259e-07
-4.26229e-05
-2.37832e-07
-4.26402e-05
-2.70747e-07
-4.2659e-05
-2.91581e-07
-4.26793e-05
-3.04871e-07
-4.27009e-05
-3.13692e-07
-4.27238e-05
-3.19769e-07
-4.2748e-05
-3.2424e-07
-4.27737e-05
-3.27717e-07
-4.28009e-05
-3.30609e-07
-4.28297e-05
-3.3312e-07
-4.28602e-05
-3.35405e-07
-4.28923e-05
-3.37526e-07
-4.29262e-05
-3.39545e-07
-4.2962e-05
-3.41473e-07
-4.29997e-05
-3.43335e-07
-4.30394e-05
-3.45124e-07
-4.30812e-05
-3.46852e-07
-4.31252e-05
-3.48513e-07
-4.31714e-05
-3.50181e-07
-4.32198e-05
-3.51675e-07
-4.32708e-05
-3.53025e-07
-4.33241e-05
-3.54387e-07
-4.33798e-05
-3.55733e-07
-4.34381e-05
-3.57136e-07
-4.34989e-05
-3.58548e-07
-4.35624e-05
-3.59889e-07
-4.36285e-05
-3.6115e-07
-4.36973e-05
-3.62338e-07
-4.37688e-05
-3.63466e-07
-4.38431e-05
-3.64539e-07
-4.39202e-05
-3.65567e-07
-4.40001e-05
-3.66551e-07
-4.4083e-05
-3.67495e-07
-4.41687e-05
-3.6839e-07
-4.42574e-05
-3.69241e-07
-4.4349e-05
-3.70056e-07
-4.44435e-05
-3.70828e-07
-4.4541e-05
-3.71546e-07
-4.46415e-05
-3.7224e-07
-4.47448e-05
-3.72903e-07
-4.4851e-05
-3.73529e-07
-4.49601e-05
-3.7413e-07
-4.50719e-05
-3.74706e-07
-4.51865e-05
-3.75255e-07
-4.53038e-05
-3.75774e-07
-4.54236e-05
-3.76264e-07
-4.5546e-05
-3.76723e-07
-4.56707e-05
-3.77124e-07
-4.57978e-05
-3.77469e-07
-4.5927e-05
-3.77784e-07
-4.60584e-05
-3.78117e-07
-4.61918e-05
-3.78403e-07
-4.63271e-05
-3.7859e-07
-4.64641e-05
-3.78668e-07
-4.66028e-05
-3.78673e-07
-4.6743e-05
-3.78631e-07
-4.68844e-05
-3.78453e-07
-4.70271e-05
-3.78035e-07
-4.71709e-05
-3.77364e-07
-4.73158e-05
-3.7649e-07
-4.74616e-05
-3.7545e-07
-4.76082e-05
-3.74277e-07
-4.77557e-05
-3.73025e-07
-4.79038e-05
-3.717e-07
-4.80527e-05
-3.70359e-07
-4.82022e-05
-3.69058e-07
-4.83524e-05
-3.67864e-07
-4.85032e-05
-3.66878e-07
-4.86546e-05
-3.66225e-07
-4.88068e-05
-3.66057e-07
-4.89597e-05
-3.66571e-07
-4.91134e-05
-3.68025e-07
-4.92679e-05
-3.70748e-07
-4.94233e-05
-3.75143e-07
-4.95797e-05
-3.81686e-07
-4.97372e-05
-3.91033e-07
-4.98957e-05
-4.03689e-07
-5.00556e-05
-4.20342e-07
-5.02172e-05
-4.41982e-07
-5.03808e-05
-4.69551e-07
-5.05466e-05
-5.0401e-07
-5.07149e-05
-5.46117e-07
-5.0886e-05
-5.96227e-07
-5.10604e-05
-6.541e-07
-5.1238e-05
-7.18265e-07
-5.14187e-05
-7.84333e-07
-5.1602e-05
-8.43964e-07
-5.17853e-05
-8.84089e-07
-5.19629e-05
-8.84269e-07
-5.21234e-05
-8.1465e-07
-5.22427e-05
-6.33551e-07
-5.22928e-05
-2.75447e-07
-5.2256e-05
3.68844e-07
-5.21026e-05
1.52001e-06
-5.1752e-05
3.58666e-06
-5.10339e-05
7.32161e-06
-4.9332e-05
1.39385e-05
2.38422e-05
-4.47406e-05
-4.55494e-05
-9.25445e-08
-4.55824e-05
-1.56774e-07
-4.56263e-05
-1.98508e-07
-4.56765e-05
-2.2507e-07
-4.5731e-05
-2.41666e-07
-4.57886e-05
-2.51826e-07
-4.58488e-05
-2.58121e-07
-4.59111e-05
-2.61975e-07
-4.59755e-05
-2.64389e-07
-4.60418e-05
-2.65893e-07
-4.611e-05
-2.66847e-07
-4.61802e-05
-2.67436e-07
-4.62522e-05
-2.67804e-07
-4.63262e-05
-2.68007e-07
-4.64021e-05
-2.68109e-07
-4.64799e-05
-2.68121e-07
-4.65596e-05
-2.68075e-07
-4.66412e-05
-2.67964e-07
-4.67247e-05
-2.67809e-07
-4.68101e-05
-2.67601e-07
-4.68973e-05
-2.67419e-07
-4.69864e-05
-2.67116e-07
-4.70774e-05
-2.66596e-07
-4.71704e-05
-2.65928e-07
-4.72654e-05
-2.65193e-07
-4.73626e-05
-2.64459e-07
-4.7462e-05
-2.63726e-07
-4.75635e-05
-2.62951e-07
-4.7667e-05
-2.62135e-07
-4.77726e-05
-2.6128e-07
-4.78802e-05
-2.60411e-07
-4.79898e-05
-2.59532e-07
-4.81013e-05
-2.58675e-07
-4.82146e-05
-2.57838e-07
-4.83296e-05
-2.57043e-07
-4.84463e-05
-2.56278e-07
-4.85646e-05
-2.55568e-07
-4.86844e-05
-2.54902e-07
-4.88056e-05
-2.54308e-07
-4.89281e-05
-2.53774e-07
-4.90517e-05
-2.53322e-07
-4.91764e-05
-2.52948e-07
-4.9302e-05
-2.52655e-07
-4.94284e-05
-2.52447e-07
-4.95556e-05
-2.52329e-07
-4.96834e-05
-2.52293e-07
-4.98117e-05
-2.52332e-07
-4.99404e-05
-2.52436e-07
-5.00693e-05
-2.52621e-07
-5.01985e-05
-2.52835e-07
-5.03278e-05
-2.53094e-07
-5.04571e-05
-2.53387e-07
-5.05865e-05
-2.53743e-07
-5.07157e-05
-2.54101e-07
-5.08449e-05
-2.54404e-07
-5.09739e-05
-2.54636e-07
-5.11027e-05
-2.54816e-07
-5.12313e-05
-2.55012e-07
-5.13596e-05
-2.55115e-07
-5.14876e-05
-2.54918e-07
-5.16155e-05
-2.54397e-07
-5.17433e-05
-2.53612e-07
-5.1871e-05
-2.52594e-07
-5.19987e-05
-2.51361e-07
-5.21265e-05
-2.49952e-07
-5.22545e-05
-2.48371e-07
-5.23829e-05
-2.46647e-07
-5.25116e-05
-2.44823e-07
-5.2641e-05
-2.42958e-07
-5.27711e-05
-2.41135e-07
-5.29022e-05
-2.39466e-07
-5.30343e-05
-2.3809e-07
-5.31678e-05
-2.37198e-07
-5.33027e-05
-2.37032e-07
-5.34394e-05
-2.37902e-07
-5.3578e-05
-2.40218e-07
-5.37189e-05
-2.44445e-07
-5.38623e-05
-2.51033e-07
-5.40086e-05
-2.60724e-07
-5.41577e-05
-2.74415e-07
-5.43099e-05
-2.92829e-07
-5.44655e-05
-3.16764e-07
-5.46251e-05
-3.47149e-07
-5.4789e-05
-3.84716e-07
-5.49579e-05
-4.29769e-07
-5.51321e-05
-4.82093e-07
-5.53116e-05
-5.40868e-07
-5.54954e-05
-6.02412e-07
-5.56821e-05
-6.59028e-07
-5.58676e-05
-7.00173e-07
-5.60435e-05
-7.09667e-07
-5.61952e-05
-6.64143e-07
-5.62943e-05
-5.35388e-07
-5.63034e-05
-2.67067e-07
-5.61783e-05
2.43199e-07
-5.58397e-05
1.18089e-06
-5.51249e-05
2.87127e-06
-5.37245e-05
5.92043e-06
-5.09142e-05
1.11273e-05
1.82263e-05
-4.52997e-05
-4.82137e-05
-7.069e-08
-4.82633e-05
-1.1136e-07
-4.83262e-05
-1.39811e-07
-4.83976e-05
-1.57896e-07
-4.84745e-05
-1.68942e-07
-4.8555e-05
-1.75363e-07
-4.86383e-05
-1.78937e-07
-4.87236e-05
-1.80718e-07
-4.88106e-05
-1.81407e-07
-4.88991e-05
-1.81409e-07
-4.8989e-05
-1.8099e-07
-4.90801e-05
-1.80291e-07
-4.91724e-05
-1.7942e-07
-4.92659e-05
-1.78427e-07
-4.93606e-05
-1.77362e-07
-4.94564e-05
-1.76237e-07
-4.95533e-05
-1.7508e-07
-4.96513e-05
-1.73885e-07
-4.97503e-05
-1.72672e-07
-4.98504e-05
-1.71431e-07
-4.99517e-05
-1.70111e-07
-5.00539e-05
-1.68764e-07
-5.0157e-05
-1.67449e-07
-5.02609e-05
-1.66062e-07
-5.03654e-05
-1.64657e-07
-5.04706e-05
-1.63284e-07
-5.05763e-05
-1.61968e-07
-5.06826e-05
-1.60681e-07
-5.07894e-05
-1.59436e-07
-5.08966e-05
-1.5822e-07
-5.1004e-05
-1.57078e-07
-5.11118e-05
-1.55985e-07
-5.12197e-05
-1.54997e-07
-5.13277e-05
-1.54088e-07
-5.14358e-05
-1.53301e-07
-5.15438e-05
-1.52594e-07
-5.16519e-05
-1.52015e-07
-5.17598e-05
-1.51518e-07
-5.18675e-05
-1.51151e-07
-5.19751e-05
-1.50892e-07
-5.20824e-05
-1.50745e-07
-5.21895e-05
-1.50705e-07
-5.22964e-05
-1.50764e-07
-5.2403e-05
-1.50925e-07
-5.25093e-05
-1.5118e-07
-5.26153e-05
-1.51518e-07
-5.27211e-05
-1.51921e-07
-5.28267e-05
-1.52374e-07
-5.29321e-05
-1.5288e-07
-5.30373e-05
-1.53401e-07
-5.31424e-05
-1.53932e-07
-5.32474e-05
-1.54448e-07
-5.33523e-05
-1.54953e-07
-5.34574e-05
-1.554e-07
-5.35625e-05
-1.55732e-07
-5.36679e-05
-1.55911e-07
-5.37735e-05
-1.55941e-07
-5.38795e-05
-1.55981e-07
-5.39858e-05
-1.55953e-07
-5.40925e-05
-1.55457e-07
-5.41999e-05
-1.54488e-07
-5.4308e-05
-1.5314e-07
-5.44169e-05
-1.51463e-07
-5.45267e-05
-1.49473e-07
-5.46376e-05
-1.47167e-07
-5.47497e-05
-1.44561e-07
-5.4863e-05
-1.41671e-07
-5.49779e-05
-1.38522e-07
-5.50944e-05
-1.3516e-07
-5.52128e-05
-1.31656e-07
-5.53331e-05
-1.28107e-07
-5.54557e-05
-1.24641e-07
-5.55807e-05
-1.2144e-07
-5.57083e-05
-1.18735e-07
-5.58388e-05
-1.16796e-07
-5.59725e-05
-1.16048e-07
-5.61096e-05
-1.16942e-07
-5.62505e-05
-1.19852e-07
-5.63954e-05
-1.25544e-07
-5.65446e-05
-1.3502e-07
-5.66983e-05
-1.48991e-07
-5.68569e-05
-1.68059e-07
-5.70208e-05
-1.93109e-07
-5.71906e-05
-2.24864e-07
-5.73667e-05
-2.6367e-07
-5.75495e-05
-3.09212e-07
-5.77386e-05
-3.61673e-07
-5.79319e-05
-4.1887e-07
-5.81275e-05
-4.73175e-07
-5.83197e-05
-5.17445e-07
-5.84985e-05
-5.40164e-07
-5.86459e-05
-5.2554e-07
-5.87345e-05
-4.55084e-07
-5.87156e-05
-2.9349e-07
-5.85202e-05
4.12516e-08
-5.80368e-05
6.91205e-07
-5.70376e-05
1.86501e-06
-5.5116e-05
3.99004e-06
-5.15362e-05
7.536e-06
1.20512e-05
-4.5375e-05
-5.02286e-05
-3.7112e-08
-5.02853e-05
-5.76496e-08
-5.03557e-05
-7.24448e-08
-5.04347e-05
-8.17758e-08
-5.05191e-05
-8.7338e-08
-5.06068e-05
-9.04687e-08
-5.06964e-05
-9.20442e-08
-5.07871e-05
-9.26571e-08
-5.08784e-05
-9.26722e-08
-5.09701e-05
-9.22929e-08
-5.10619e-05
-9.16826e-08
-5.11537e-05
-9.09087e-08
-5.12455e-05
-9.00397e-08
-5.13372e-05
-8.91044e-08
-5.14287e-05
-8.81342e-08
-5.152e-05
-8.71365e-08
-5.16112e-05
-8.61272e-08
-5.17022e-05
-8.5106e-08
-5.17929e-05
-8.40822e-08
-5.18834e-05
-8.30486e-08
-5.19736e-05
-8.19364e-08
-5.20636e-05
-8.08581e-08
-5.21531e-05
-7.99503e-08
-5.22421e-05
-7.91189e-08
-5.23305e-05
-7.83344e-08
-5.24182e-05
-7.76017e-08
-5.25054e-05
-7.69338e-08
-5.2592e-05
-7.63088e-08
-5.26779e-05
-7.57311e-08
-5.27632e-05
-7.51886e-08
-5.28479e-05
-7.47115e-08
-5.29321e-05
-7.42828e-08
-5.30156e-05
-7.39369e-08
-5.30986e-05
-7.36567e-08
-5.31811e-05
-7.34671e-08
-5.32631e-05
-7.33379e-08
-5.33447e-05
-7.32935e-08
-5.34258e-05
-7.32913e-08
-5.35067e-05
-7.33813e-08
-5.35872e-05
-7.35193e-08
-5.36675e-05
-7.37282e-08
-5.37475e-05
-7.39888e-08
-5.38275e-05
-7.42805e-08
-5.39074e-05
-7.46209e-08
-5.39874e-05
-7.49903e-08
-5.40674e-05
-7.53734e-08
-5.41476e-05
-7.57584e-08
-5.42279e-05
-7.61405e-08
-5.43086e-05
-7.64723e-08
-5.43897e-05
-7.67606e-08
-5.44713e-05
-7.69829e-08
-5.45534e-05
-7.71307e-08
-5.46361e-05
-7.7173e-08
-5.47195e-05
-7.70681e-08
-5.48038e-05
-7.67721e-08
-5.48889e-05
-7.62311e-08
-5.49751e-05
-7.53998e-08
-5.50625e-05
-7.45559e-08
-5.51507e-05
-7.3811e-08
-5.52402e-05
-7.23452e-08
-5.53311e-05
-7.02252e-08
-5.54234e-05
-6.76339e-08
-5.55174e-05
-6.46393e-08
-5.56131e-05
-6.12421e-08
-5.57106e-05
-5.74276e-08
-5.581e-05
-5.32014e-08
-5.59115e-05
-4.85716e-08
-5.60153e-05
-4.35514e-08
-5.61214e-05
-3.81757e-08
-5.62302e-05
-3.25023e-08
-5.63416e-05
-2.66159e-08
-5.6456e-05
-2.06303e-08
-5.65736e-05
-1.47133e-08
-5.66947e-05
-9.07749e-09
-5.68193e-05
-3.9983e-09
-5.69479e-05
1.72988e-10
-5.70809e-05
3.0406e-09
-5.72184e-05
4.06904e-09
-5.73607e-05
2.63406e-09
-5.75085e-05
-2.04566e-09
-5.76622e-05
-1.08412e-08
-5.78223e-05
-2.42267e-08
-5.79893e-05
-4.31362e-08
-5.81639e-05
-6.8237e-08
-5.83463e-05
-1.00161e-07
-5.85373e-05
-1.38198e-07
-5.87366e-05
-1.83429e-07
-5.89406e-05
-2.37308e-07
-5.91477e-05
-2.89925e-07
-5.93515e-05
-3.39076e-07
-5.95408e-05
-3.7795e-07
-5.96966e-05
-3.98503e-07
-5.97911e-05
-3.91079e-07
-5.97743e-05
-3.42433e-07
-5.95611e-05
-2.05446e-07
-5.89985e-05
9.46586e-08
-5.78326e-05
6.63147e-07
-5.55901e-05
1.70555e-06
-5.15458e-05
3.44023e-06
5.57529e-06
-4.513e-05
-5.11841e-05
2.24316e-09
-5.12404e-05
-2.32417e-09
-5.13096e-05
-4.09374e-09
-5.13872e-05
-5.10637e-09
-5.14695e-05
-5.83586e-09
-5.15543e-05
-6.41589e-09
-5.16402e-05
-6.871e-09
-5.17263e-05
-7.22988e-09
-5.18122e-05
-7.53057e-09
-5.18973e-05
-7.75096e-09
-5.19817e-05
-7.93893e-09
-5.20651e-05
-8.08055e-09
-5.21476e-05
-8.18547e-09
-5.2229e-05
-8.2716e-09
-5.23093e-05
-8.33248e-09
-5.23886e-05
-8.37664e-09
-5.24669e-05
-8.39758e-09
-5.25441e-05
-8.40149e-09
-5.26204e-05
-8.38081e-09
-5.26956e-05
-8.33009e-09
-5.27699e-05
-8.2229e-09
-5.28432e-05
-8.13955e-09
-5.29156e-05
-8.13616e-09
-5.29871e-05
-8.17889e-09
-5.30578e-05
-8.23113e-09
-5.31278e-05
-8.29923e-09
-5.3197e-05
-8.3778e-09
-5.32656e-05
-8.45614e-09
-5.33336e-05
-8.51666e-09
-5.34009e-05
-8.57167e-09
-5.34678e-05
-8.61655e-09
-5.35343e-05
-8.68281e-09
-5.36003e-05
-8.75744e-09
-5.3666e-05
-8.8551e-09
-5.37314e-05
-8.95933e-09
-5.37966e-05
-9.09333e-09
-5.38617e-05
-9.22384e-09
-5.39266e-05
-9.3651e-09
-5.39915e-05
-9.52235e-09
-5.40565e-05
-9.66869e-09
-5.41215e-05
-9.82059e-09
-5.41866e-05
-9.96298e-09
-5.4252e-05
-1.00783e-08
-5.43176e-05
-1.01698e-08
-5.43836e-05
-1.02294e-08
-5.44499e-05
-1.0236e-08
-5.45168e-05
-1.01815e-08
-5.45841e-05
-1.00582e-08
-5.46521e-05
-9.81694e-09
-5.47207e-05
-9.46644e-09
-5.47901e-05
-8.98623e-09
-5.48603e-05
-8.36279e-09
-5.49313e-05
-7.55579e-09
-5.50033e-05
-6.53549e-09
-5.50763e-05
-5.24192e-09
-5.51505e-05
-3.63678e-09
-5.52259e-05
-1.596e-09
-5.53027e-05
6.33636e-10
-5.53804e-05
2.2177e-09
-5.54595e-05
4.98095e-09
-5.55401e-05
8.61462e-09
-5.56225e-05
1.27641e-08
-5.57065e-05
1.73728e-08
-5.57924e-05
2.24695e-08
-5.58802e-05
2.80715e-08
-5.59701e-05
3.41896e-08
-5.60621e-05
4.08267e-08
-5.61565e-05
4.79801e-08
-5.62533e-05
5.56256e-08
-5.63528e-05
6.37172e-08
-5.64551e-05
7.21868e-08
-5.65605e-05
8.09378e-08
-5.66692e-05
8.98212e-08
-5.67814e-05
9.86466e-08
-5.68973e-05
1.07134e-07
-5.70174e-05
1.15029e-07
-5.7142e-05
1.21964e-07
-5.72714e-05
1.27369e-07
-5.74059e-05
1.30622e-07
-5.75461e-05
1.31083e-07
-5.76925e-05
1.2807e-07
-5.78457e-05
1.20899e-07
-5.80061e-05
1.08761e-07
-5.81743e-05
9.09321e-08
-5.83508e-05
6.68792e-08
-5.85347e-05
3.57997e-08
-5.87285e-05
1.25281e-10
-5.89251e-05
-5.1729e-08
-5.91254e-05
-1.02092e-07
-5.93219e-05
-1.56699e-07
-5.95033e-05
-2.12872e-07
-5.96516e-05
-2.69221e-07
-5.97374e-05
-3.2779e-07
-5.97156e-05
-3.91259e-07
-5.94962e-05
-4.5777e-07
-5.89176e-05
-5.24282e-07
-5.77003e-05
-6.00866e-07
-5.53443e-05
-7.01005e-07
-5.11179e-05
-8.37965e-07
-9.62731e-07
-4.46264e-05
-5.07292e-05
4.02886e-08
-5.07845e-05
5.40179e-08
-5.08535e-05
6.5895e-08
-5.0931e-05
7.34179e-08
-5.10137e-05
7.7727e-08
-5.10991e-05
7.98932e-08
-5.11859e-05
8.07503e-08
-5.12732e-05
8.08188e-08
-5.13603e-05
8.04194e-08
-5.14471e-05
7.97515e-08
-5.15333e-05
7.89276e-08
-5.16187e-05
7.80067e-08
-5.17033e-05
7.70546e-08
-5.1787e-05
7.60655e-08
-5.18698e-05
7.50808e-08
-5.19517e-05
7.4094e-08
-5.20326e-05
7.31318e-08
-5.21126e-05
7.21857e-08
-5.21917e-05
7.12781e-08
-5.22699e-05
7.04067e-08
-5.23471e-05
6.95873e-08
-5.24234e-05
6.87654e-08
-5.24989e-05
6.79252e-08
-5.25735e-05
6.70702e-08
-5.26473e-05
6.62362e-08
-5.27203e-05
6.54142e-08
-5.27926e-05
6.46186e-08
-5.28642e-05
6.38592e-08
-5.29351e-05
6.31698e-08
-5.30054e-05
6.25288e-08
-5.30751e-05
6.19505e-08
-5.31442e-05
6.13886e-08
-5.32129e-05
6.08741e-08
-5.32811e-05
6.03803e-08
-5.33489e-05
5.99387e-08
-5.34164e-05
5.95137e-08
-5.34836e-05
5.91535e-08
-5.35505e-05
5.88145e-08
-5.36172e-05
5.85523e-08
-5.36839e-05
5.833e-08
-5.37504e-05
5.81827e-08
-5.38169e-05
5.8105e-08
-5.38835e-05
5.80934e-08
-5.39502e-05
5.8182e-08
-5.4017e-05
5.83697e-08
-5.40841e-05
5.86733e-08
-5.41515e-05
5.9106e-08
-5.42192e-05
5.96827e-08
-5.42874e-05
6.04323e-08
-5.4356e-05
6.13642e-08
-5.44253e-05
6.24928e-08
-5.44951e-05
6.38404e-08
-5.45657e-05
6.54414e-08
-5.4637e-05
6.73235e-08
-5.47091e-05
6.95506e-08
-5.47821e-05
7.21451e-08
-5.4856e-05
7.5144e-08
-5.49308e-05
7.83548e-08
-5.50071e-05
8.16602e-08
-5.50847e-05
8.58298e-08
-5.51635e-05
9.08118e-08
-5.52436e-05
9.64313e-08
-5.53252e-05
1.02642e-07
-5.54082e-05
1.09462e-07
-5.5493e-05
1.16907e-07
-5.55794e-05
1.24992e-07
-5.56677e-05
1.33732e-07
-5.5758e-05
1.43142e-07
-5.58505e-05
1.53211e-07
-5.59453e-05
1.63901e-07
-5.60425e-05
1.75171e-07
-5.61424e-05
1.86944e-07
-5.62452e-05
1.99099e-07
-5.6351e-05
2.11461e-07
-5.64603e-05
2.23808e-07
-5.65732e-05
2.35888e-07
-5.669e-05
2.47344e-07
-5.68111e-05
2.57689e-07
-5.6937e-05
2.66364e-07
-5.70679e-05
2.72775e-07
-5.72046e-05
2.7629e-07
-5.73473e-05
2.76205e-07
-5.74966e-05
2.71706e-07
-5.76529e-05
2.62089e-07
-5.78164e-05
2.46591e-07
-5.79872e-05
2.24177e-07
-5.81618e-05
1.93862e-07
-5.83445e-05
1.52252e-07
-5.85258e-05
1.03358e-07
-5.86983e-05
4.32318e-08
-5.88516e-05
-2.84993e-08
-5.89695e-05
-1.16504e-07
-5.90231e-05
-2.35456e-07
-5.89647e-05
-4.06381e-07
-5.87104e-05
-6.63783e-07
-5.81047e-05
-1.07616e-06
-5.68689e-05
-1.77694e-06
-5.45156e-05
-2.98863e-06
-5.03421e-05
-4.94087e-06
-7.27853e-06
-4.3957e-05
-4.91208e-05
6.95106e-08
-4.91729e-05
1.08803e-07
-4.92393e-05
1.34975e-07
-4.93149e-05
1.5171e-07
-4.93964e-05
1.61811e-07
-4.94815e-05
1.67574e-07
-4.95689e-05
1.70729e-07
-4.96578e-05
1.72243e-07
-4.97477e-05
1.72826e-07
-4.98383e-05
1.72789e-07
-4.99293e-05
1.72434e-07
-5.00207e-05
1.71825e-07
-5.01123e-05
1.71095e-07
-5.0204e-05
1.70264e-07
-5.02959e-05
1.69381e-07
-5.03878e-05
1.68448e-07
-5.04798e-05
1.67498e-07
-5.05717e-05
1.66524e-07
-5.06635e-05
1.65548e-07
-5.07553e-05
1.64566e-07
-5.08468e-05
1.63585e-07
-5.09382e-05
1.62572e-07
-5.10293e-05
1.61524e-07
-5.11202e-05
1.60433e-07
-5.12107e-05
1.59326e-07
-5.1301e-05
1.58198e-07
-5.13908e-05
1.57062e-07
-5.14803e-05
1.5594e-07
-5.15693e-05
1.5487e-07
-5.16579e-05
1.53843e-07
-5.1746e-05
1.52855e-07
-5.18337e-05
1.51879e-07
-5.19208e-05
1.50935e-07
-5.20075e-05
1.50013e-07
-5.20937e-05
1.49139e-07
-5.21793e-05
1.48299e-07
-5.22645e-05
1.47521e-07
-5.23492e-05
1.46783e-07