/*--------------------------------*- C++ -*----------------------------------*\
| =========                 |                                                 |
| \\      /  F ield         | OpenFOAM: The Open Source CFD Toolbox           |
|  \\    /   O peration     | Version:  2.1.0                                 |
|   \\  /    A nd           | Web:      www.OpenFOAM.org                      |
|    \\/     M anipulation  |                                                 |
\*---------------------------------------------------------------------------*/
FoamFile
{
    version     2.0;
    format      ascii;
    class       volScalarField;
    location    "0.43";
    object      rho;
}
// * * * * * * * * * * * * * * * * * * * * * * * * * * * * * * * * * * * * * //

dimensions      [1 -3 0 0 0 0 0];

internalField   nonuniform List<scalar> 
6400
(
947.571
947.477
947.385
947.296
947.209
947.125
947.043
946.963
946.886
946.811
946.738
946.668
946.6
946.534
946.469
946.407
946.347
946.289
946.233
946.179
946.127
946.076
946.028
945.981
945.935
945.892
945.85
945.81
945.771
945.734
945.699
945.665
945.632
945.601
945.571
945.543
945.516
945.49
945.465
945.442
945.42
945.399
945.379
945.36
945.343
945.326
945.31
945.296
945.282
945.269
945.257
945.246
945.236
945.227
945.218
945.21
945.203
945.197
945.191
945.186
945.181
945.177
945.174
945.172
945.169
945.168
945.167
945.167
945.167
945.169
945.17
945.173
945.176
945.18
945.185
945.191
945.198
945.207
945.216
945.227
945.24
945.254
945.272
945.292
945.317
945.348
945.387
945.439
945.51
945.614
945.778
946.06
946.603
947.708
949.244
946.517
944.627
944.555
944.555
944.555
947.575
947.485
947.394
947.305
947.217
947.132
947.049
946.968
946.888
946.811
946.736
946.662
946.591
946.521
946.453
946.387
946.323
946.261
946.2
946.141
946.084
946.029
945.975
945.924
945.873
945.825
945.778
945.732
945.689
945.646
945.606
945.567
945.529
945.493
945.459
945.426
945.394
945.364
945.335
945.307
945.281
945.255
945.232
945.209
945.187
945.167
945.148
945.13
945.113
945.096
945.081
945.067
945.054
945.041
945.029
945.018
945.008
944.998
944.989
944.981
944.973
944.966
944.959
944.953
944.947
944.941
944.936
944.931
944.926
944.922
944.918
944.914
944.911
944.908
944.905
944.902
944.899
944.897
944.895
944.893
944.892
944.891
944.89
944.89
944.89
944.891
944.892
944.894
944.896
944.898
944.897
944.892
944.875
944.834
944.752
944.637
944.561
944.555
944.555
944.555
947.857
947.765
947.67
947.577
947.484
947.393
947.304
947.217
947.131
947.047
946.965
946.884
946.806
946.728
946.653
946.579
946.507
946.437
946.368
946.301
946.236
946.172
946.11
946.049
945.99
945.933
945.877
945.823
945.77
945.719
945.67
945.622
945.576
945.532
945.489
945.448
945.408
945.37
945.333
945.298
945.264
945.231
945.201
945.171
945.143
945.116
945.091
945.066
945.043
945.022
945.001
944.981
944.963
944.945
944.929
944.913
944.898
944.884
944.871
944.859
944.847
944.836
944.826
944.816
944.806
944.797
944.788
944.78
944.772
944.764
944.756
944.748
944.741
944.733
944.726
944.718
944.71
944.703
944.695
944.687
944.679
944.67
944.662
944.653
944.645
944.636
944.627
944.618
944.609
944.601
944.592
944.584
944.576
944.568
944.563
944.559
944.555
944.555
944.555
944.555
948.424
948.328
948.228
948.127
948.027
947.928
947.83
947.733
947.638
947.544
947.451
947.36
947.271
947.183
947.096
947.011
946.928
946.846
946.765
946.686
946.609
946.533
946.458
946.385
946.313
946.243
946.175
946.108
946.042
945.978
945.916
945.855
945.796
945.739
945.683
945.629
945.576
945.525
945.475
945.427
945.381
945.337
945.294
945.252
945.213
945.174
945.138
945.103
945.069
945.037
945.007
944.978
944.95
944.924
944.899
944.876
944.854
944.832
944.813
944.794
944.776
944.76
944.744
944.73
944.716
944.703
944.691
944.679
944.669
944.659
944.649
944.64
944.632
944.624
944.617
944.61
944.603
944.597
944.592
944.587
944.582
944.578
944.574
944.571
944.568
944.565
944.563
944.561
944.559
944.558
944.557
944.556
944.556
944.555
944.555
944.555
944.555
944.555
944.555
944.555
949.386
949.286
949.179
949.071
948.963
948.854
948.746
948.639
948.533
948.428
948.324
948.222
948.12
948.019
947.92
947.822
947.724
947.629
947.534
947.44
947.348
947.257
947.167
947.079
946.991
946.905
946.821
946.738
946.655
946.575
946.495
946.417
946.34
946.265
946.191
946.118
946.047
945.978
945.91
945.843
945.778
945.715
945.653
945.593
945.535
945.478
945.423
945.37
945.319
945.269
945.222
945.176
945.132
945.09
945.05
945.011
944.975
944.94
944.908
944.877
944.848
944.82
944.795
944.771
944.749
944.728
944.709
944.692
944.676
944.661
944.648
944.636
944.625
944.615
944.606
944.599
944.592
944.586
944.581
944.576
944.572
944.569
944.566
944.563
944.561
944.56
944.558
944.557
944.556
944.556
944.555
944.555
944.555
944.555
944.555
944.555
944.555
944.555
944.555
944.555
950.968
950.864
950.753
950.64
950.525
950.41
950.296
950.181
950.067
949.954
949.841
949.729
949.618
949.507
949.397
949.287
949.178
949.07
948.963
948.856
948.75
948.644
948.539
948.435
948.332
948.229
948.128
948.027
947.927
947.827
947.728
947.631
947.534
947.437
947.342
947.248
947.154
947.062
946.97
946.879
946.79
946.702
946.614
946.528
946.443
946.36
946.278
946.197
946.118
946.04
945.964
945.89
945.818
945.747
945.678
945.611
945.546
945.483
945.423
945.364
945.308
945.254
945.202
945.152
945.105
945.061
945.018
944.978
944.94
944.904
944.871
944.84
944.811
944.784
944.759
944.736
944.714
944.695
944.677
944.66
944.645
944.632
944.62
944.609
944.599
944.59
944.583
944.576
944.57
944.566
944.562
944.559
944.557
944.556
944.555
944.555
944.555
944.555
944.555
944.555
953.509
953.405
953.296
953.184
953.071
952.956
952.842
952.728
952.614
952.501
952.388
952.275
952.162
952.05
951.938
951.826
951.714
951.602
951.49
951.378
951.266
951.153
951.041
950.928
950.816
950.704
950.592
950.48
950.369
950.257
950.146
950.035
949.924
949.813
949.702
949.592
949.481
949.37
949.26
949.149
949.038
948.927
948.817
948.706
948.595
948.484
948.373
948.262
948.151
948.04
947.929
947.818
947.708
947.597
947.487
947.378
947.269
947.16
947.052
946.945
946.839
946.734
946.63
946.527
946.427
946.327
946.23
946.135
946.041
945.95
945.861
945.775
945.691
945.61
945.531
945.455
945.382
945.312
945.244
945.179
945.117
945.057
945.001
944.947
944.896
944.847
944.802
944.759
944.719
944.683
944.651
944.624
944.602
944.586
944.575
944.569
944.565
944.562
944.56
944.559
957.313
957.218
957.12
957.02
956.919
956.817
956.716
956.615
956.514
956.414
956.315
956.216
956.118
956.019
955.922
955.825
955.728
955.631
955.534
955.438
955.341
955.245
955.148
955.051
954.955
954.858
954.761
954.664
954.566
954.469
954.371
954.272
954.173
954.073
953.972
953.871
953.768
953.665
953.56
953.454
953.347
953.238
953.128
953.017
952.903
952.788
952.671
952.552
952.43
952.307
952.182
952.054
951.924
951.792
951.657
951.52
951.38
951.238
951.094
950.947
950.797
950.646
950.491
950.335
950.176
950.015
949.853
949.688
949.521
949.353
949.184
949.013
948.841
948.667
948.493
948.318
948.142
947.965
947.788
947.61
947.43
947.25
947.068
946.884
946.698
946.511
946.322
946.132
945.942
945.754
945.57
945.395
945.232
945.087
944.967
944.88
944.809
944.751
944.709
944.682
962.756
962.689
962.619
962.549
962.479
962.41
962.341
962.273
962.207
962.141
962.076
962.012
961.95
961.888
961.828
961.768
961.709
961.651
961.595
961.539
961.484
961.429
961.376
961.322
961.268
961.214
961.159
961.104
961.048
960.99
960.933
960.873
960.813
960.751
960.689
960.624
960.558
960.49
960.421
960.349
960.276
960.201
960.124
960.044
959.962
959.878
959.792
959.703
959.612
959.518
959.421
959.322
959.22
959.115
959.006
958.895
958.78
958.662
958.54
958.414
958.285
958.151
958.013
957.871
957.725
957.574
957.417
957.256
957.09
956.918
956.74
956.556
956.366
956.169
955.965
955.753
955.533
955.304
955.065
954.816
954.555
954.28
953.991
953.685
953.36
953.013
952.643
952.245
951.818
951.359
950.87
950.353
949.811
949.251
948.685
948.138
947.661
947.224
946.851
946.577
970.021
969.998
969.975
969.952
969.93
969.908
969.887
969.866
969.846
969.826
969.807
969.788
969.77
969.751
969.734
969.716
969.699
969.682
969.665
969.648
969.631
969.614
969.597
969.579
969.561
969.542
969.524
969.504
969.484
969.464
969.443
969.421
969.399
969.377
969.354
969.33
969.306
969.281
969.256
969.23
969.204
969.177
969.149
969.121
969.093
969.064
969.035
969.005
968.975
968.944
968.912
968.88
968.848
968.815
968.781
968.747
968.713
968.678
968.642
968.606
968.569
968.531
968.491
968.451
968.409
968.365
968.32
968.273
968.224
968.173
968.119
968.062
968.002
967.938
967.87
967.797
967.719
967.636
967.546
967.448
967.341
967.225
967.098
966.96
966.808
966.641
966.459
966.259
966.024
965.75
965.43
965.056
964.62
964.11
963.512
962.808
961.994
961.149
960.338
959.679
977.787
977.812
977.835
977.858
977.881
977.902
977.923
977.943
977.963
977.982
978
978.017
978.034
978.051
978.067
978.083
978.098
978.113
978.128
978.143
978.158
978.174
978.189
978.204
978.22
978.236
978.253
978.27
978.288
978.307
978.326
978.346
978.367
978.389
978.412
978.436
978.461
978.488
978.515
978.543
978.573
978.604
978.636
978.669
978.704
978.74
978.778
978.817
978.857
978.899
978.943
978.989
979.037
979.086
979.138
979.191
979.247
979.305
979.366
979.43
979.497
979.568
979.642
979.721
979.805
979.893
979.987
980.087
980.193
980.306
980.427
980.555
980.692
980.839
980.996
981.164
981.344
981.536
981.742
981.962
982.197
982.447
982.714
982.997
983.297
983.614
983.948
984.299
984.682
985.1
985.56
986.063
986.607
987.196
987.831
988.515
989.244
990.002
990.751
991.413
984.116
984.179
984.243
984.309
984.373
984.439
984.503
984.568
984.631
984.695
984.758
984.821
984.883
984.945
985.006
985.068
985.128
985.19
985.25
985.311
985.372
985.433
985.494
985.555
985.616
985.679
985.741
985.804
985.868
985.933
985.998
986.064
986.131
986.2
986.269
986.34
986.413
986.486
986.562
986.639
986.717
986.798
986.881
986.965
987.052
987.141
987.233
987.327
987.423
987.523
987.625
987.73
987.838
987.95
988.065
988.183
988.305
988.43
988.56
988.695
988.834
988.978
989.127
989.283
989.444
989.612
989.787
989.968
990.158
990.356
990.562
990.777
991.001
991.235
991.479
991.733
991.998
992.273
992.559
992.856
993.162
993.478
993.803
994.136
994.476
994.821
995.169
995.519
995.868
996.212
996.549
996.881
997.214
997.54
997.855
998.156
998.436
998.687
998.899
999.057
988.874
988.956
989.041
989.128
989.217
989.306
989.396
989.486
989.575
989.666
989.756
989.846
989.936
990.026
990.116
990.207
990.297
990.388
990.478
990.569
990.66
990.752
990.844
990.936
991.028
991.121
991.215
991.309
991.404
991.499
991.595
991.692
991.79
991.888
991.988
992.088
992.19
992.293
992.397
992.502
992.608
992.716
992.825
992.936
993.048
993.162
993.277
993.394
993.513
993.633
993.756
993.88
994.006
994.134
994.264
994.397
994.531
994.668
994.807
994.948
995.091
995.237
995.385
995.535
995.687
995.842
995.999
996.158
996.318
996.481
996.645
996.811
996.977
997.145
997.314
997.482
997.651
997.818
997.985
998.149
998.31
998.469
998.622
998.771
998.913
999.048
999.176
999.294
999.403
999.502
999.588
999.663
999.725
999.779
999.826
999.865
999.897
999.922
999.941
999.953
992.346
992.43
992.519
992.611
992.705
992.8
992.895
992.991
993.088
993.184
993.28
993.377
993.473
993.57
993.667
993.763
993.86
993.957
994.054
994.152
994.249
994.347
994.445
994.543
994.641
994.74
994.839
994.938
995.037
995.137
995.237
995.337
995.438
995.538
995.639
995.741
995.842
995.944
996.046
996.148
996.25
996.352
996.454
996.556
996.658
996.76
996.862
996.963
997.065
997.166
997.266
997.367
997.466
997.566
997.664
997.762
997.86
997.956
998.052
998.147
998.241
998.333
998.424
998.513
998.601
998.688
998.772
998.855
998.935
999.014
999.09
999.163
999.235
999.303
999.369
999.432
999.492
999.549
999.603
999.653
999.7
999.744
999.783
999.819
999.852
999.88
999.905
999.926
999.944
999.959
999.97
999.979
999.985
999.989
999.992
999.995
999.996
999.998
999.998
999.999
994.705
994.783
994.868
994.956
995.045
995.136
995.227
995.318
995.409
995.5
995.591
995.682
995.773
995.863
995.954
996.044
996.134
996.224
996.313
996.402
996.491
996.58
996.668
996.757
996.844
996.932
997.019
997.105
997.191
997.277
997.362
997.447
997.531
997.615
997.697
997.779
997.861
997.941
998.021
998.099
998.177
998.253
998.329
998.403
998.476
998.547
998.618
998.686
998.754
998.82
998.884
998.947
999.008
999.067
999.124
999.18
999.234
999.286
999.336
999.383
999.43
999.474
999.516
999.556
999.594
999.63
999.664
999.696
999.726
999.755
999.781
999.806
999.829
999.85
999.87
999.887
999.904
999.918
999.931
999.943
999.953
999.962
999.97
999.977
999.982
999.987
999.991
999.993
999.996
999.997
999.998
999.999
999.999
1000
1000
1000
1000
1000
1000
1000
996.265
996.334
996.41
996.489
996.569
996.649
996.73
996.81
996.891
996.971
997.05
997.129
997.208
997.286
997.364
997.441
997.517
997.593
997.668
997.743
997.816
997.889
997.962
998.033
998.104
998.174
998.242
998.31
998.377
998.443
998.507
998.571
998.633
998.695
998.755
998.814
998.872
998.928
998.984
999.037
999.09
999.14
999.19
999.238
999.284
999.329
999.372
999.414
999.454
999.492
999.529
999.564
999.597
999.629
999.659
999.688
999.715
999.74
999.764
999.786
999.807
999.827
999.845
999.861
999.877
999.891
999.904
999.916
999.927
999.936
999.945
999.953
999.96
999.967
999.972
999.977
999.981
999.985
999.988
999.99
999.993
999.994
999.996
999.997
999.998
999.999
999.999
999.999
1000
1000
1000
1000
1000
1000
1000
1000
1000
1000
1000
1000
997.325
997.385
997.451
997.518
997.585
997.653
997.721
997.788
997.854
997.921
997.986
998.051
998.115
998.178
998.241
998.303
998.364
998.424
998.483
998.541
998.599
998.656
998.711
998.766
998.819
998.872
998.924
998.974
999.023
999.072
999.119
999.164
999.209
999.252
999.294
999.335
999.374
999.413
999.449
999.485
999.519
999.551
999.583
999.613
999.641
999.668
999.694
999.719
999.742
999.764
999.785
999.804
999.822
999.839
999.855
999.869
999.883
999.896
999.907
999.918
999.927
999.936
999.944
999.951
999.958
999.964
999.969
999.973
999.978
999.981
999.984
999.987
999.989
999.991
999.993
999.994
999.996
999.997
999.997
999.998
999.999
999.999
999.999
1000
1000
1000
1000
1000
1000
1000
1000
1000
1000
1000
1000
1000
1000
1000
1000
1000
998.079
998.13
998.184
998.239
998.294
998.349
998.403
998.456
998.509
998.562
998.613
998.664
998.714
998.763
998.812
998.859
998.906
998.952
998.997
999.041
999.084
999.126
999.168
999.208
999.247
999.286
999.323
999.359
999.395
999.429
999.462
999.494
999.525
999.555
999.583
999.611
999.637
999.662
999.686
999.709
999.731
999.752
999.771
999.79
999.808
999.824
999.84
999.854
999.868
999.88
999.892
999.903
999.913
999.923
999.931
999.939
999.946
999.953
999.959
999.964
999.969
999.973
999.977
999.98
999.983
999.986
999.988
999.99
999.992
999.993
999.995
999.996
999.996
999.997
999.998
999.998
999.999
999.999
999.999
1000
1000
1000
1000
1000
1000
1000
1000
1000
1000
1000
1000
1000
1000
1000
1000
1000
1000
1000
1000
1000
998.633
998.675
998.718
998.762
998.805
998.848
998.89
998.931
998.972
999.012
999.052
999.09
999.128
999.165
999.202
999.237
999.272
999.306
999.339
999.371
999.403
999.433
999.463
999.492
999.52
999.547
999.573
999.599
999.623
999.646
999.669
999.69
999.711
999.731
999.75
999.768
999.785
999.801
999.817
999.831
999.845
999.858
999.87
999.882
999.892
999.902
999.912
999.92
999.928
999.936
999.943
999.949
999.955
999.96
999.965
999.969
999.973
999.977
999.98
999.983
999.985
999.987
999.989
999.991
999.992
999.994
999.995
999.996
999.997
999.997
999.998
999.998
999.999
999.999
999.999
999.999
1000
1000
1000
1000
1000
1000
1000
1000
1000
1000
1000
1000
1000
1000
1000
1000
1000
1000
1000
1000
1000
1000
1000
1000
999.127
999.158
999.19
999.221
999.251
999.282
999.311
999.34
999.369
999.396
999.423
999.45
999.475
999.5
999.525
999.549
999.572
999.594
999.615
999.636
999.657
999.676
999.695
999.713
999.73
999.747
999.763
999.779
999.793
999.807
999.821
999.834
999.846
999.857
999.868
999.878
999.888
999.897
999.906
999.914
999.921
999.929
999.935
999.941
999.947
999.952
999.957
999.962
999.966
999.969
999.973
999.976
999.979
999.981
999.984
999.986
999.988
999.989
999.991
999.992
999.993
999.994
999.995
999.996
999.997
999.997
999.998
999.998
999.999
999.999
999.999
999.999
999.999
1000
1000
1000
1000
1000
1000
1000
1000
1000
1000
1000
1000
1000
1000
1000
1000
1000
1000
1000
1000
1000
1000
1000
1000
1000
1000
1000
944.555
944.555
944.555
944.555
944.555
944.555
944.555
944.555
944.555
944.555
944.555
944.555
944.555
944.555
944.555
944.555
944.555
944.555
944.555
944.555
944.555
944.555
944.555
944.555
944.555
944.555
944.555
944.555
944.555
944.555
944.555
944.555
944.555
944.555
944.555
944.555
944.555
944.555
944.555
944.555
944.555
944.555
944.555
944.555
944.555
944.555
944.555
944.555
944.555
944.555
944.555
944.555
944.555
944.555
944.555
944.555
944.555
944.555
944.555
944.555
944.555
944.555
944.555
944.555
944.555
944.555
944.555
944.555
944.555
944.555
944.555
944.555
944.555
944.555
944.555
944.555
944.555
944.556
944.558
944.567
944.555
944.555
944.555
944.555
944.555
944.555
944.555
944.555
944.555
944.555
944.555
944.555
944.555
944.556
944.556
944.558
944.561
944.569
944.594
944.704
944.555
944.555
944.555
944.555
944.555
944.555
944.555
944.556
944.556
944.556
944.557
944.558
944.559
944.562
944.568
944.578
944.603
944.668
944.883
945.959
944.559
944.56
944.561
944.563
944.564
944.567
944.569
944.571
944.573
944.575
944.578
944.583
944.591
944.606
944.635
944.694
944.827
945.178
946.399
953.093
944.682
944.697
944.713
944.731
944.75
944.765
944.776
944.779
944.777
944.776
944.778
944.788
944.811
944.86
944.961
945.172
945.638
946.817
950.676
971.5
946.517
946.605
946.69
946.77
946.832
946.841
946.815
946.753
946.692
946.626
946.564
946.503
946.467
946.478
946.659
947.153
948.322
950.974
957.57
988.054
959.46
959.641
959.814
959.965
960.062
960.028
959.948
959.864
959.753
959.585
959.383
959.099
958.797
958.397
958.215
958.517
960.134
963.914
972.2
988.046
991.718
991.624
991.556
991.512
991.527
991.693
991.908
992.132
992.367
992.643
992.944
993.315
993.726
994.254
994.635
994.794
994.498
994.066
994.301
994.627
999.103
999.064
999.029
998.998
998.978
998.989
999.02
999.076
999.133
999.196
999.26
999.333
999.403
999.484
999.54
999.568
999.547
999.507
999.479
997.738
999.954
999.949
999.943
999.937
999.931
999.926
999.924
999.926
999.931
999.937
999.944
999.951
999.957
999.963
999.967
999.968
999.966
999.958
999.908
999.262
999.999
999.999
999.998
999.998
999.998
999.997
999.997
999.996
999.996
999.996
999.997
999.997
999.997
999.998
999.998
999.998
999.997
999.995
999.986
999.893
1000
1000
1000
1000
1000
1000
1000
1000
1000
1000
1000
1000
1000
1000
1000
1000
1000
1000
999.999
999.998
1000
1000
1000
1000
1000
1000
1000
1000
1000
1000
1000
1000
1000
1000
1000
1000
1000
1000
1000
1000
1000
1000
1000
1000
1000
1000
1000
1000
1000
1000
1000
1000
1000
1000
1000
1000
1000
1000
1000
1000
1000
1000
1000
1000
1000
1000
1000
1000
1000
1000
1000
1000
1000
1000
1000
1000
1000
1000
1000
1000
1000
1000
1000
1000
1000
1000
1000
1000
1000
1000
1000
1000
1000
1000
1000
1000
1000
1000
1000
1000
1000
1000
1000
1000
1000
1000
1000
1000
1000
1000
1000
1000
1000
1000
1000
1000
1000
1000
1000
1000
944.555
944.555
944.555
944.555
944.555
944.555
944.555
944.555
944.555
944.555
944.555
944.555
944.555
944.555
944.555
944.555
944.555
944.555
944.555
944.555
944.555
944.555
944.555
944.555
944.555
944.555
944.555
944.555
944.555
944.555
944.555
944.555
944.555
944.555
944.555
944.555
944.555
944.555
944.555
944.555
944.555
944.555
944.555
944.555
944.555
944.555
944.555
944.555
944.555
944.555
944.555
944.555
944.555
944.555
944.555
944.555
944.555
944.555
944.555
944.555
944.555
944.555
944.555
944.555
944.555
944.555
944.555
944.555
944.555
944.555
944.555
944.555
944.555
944.555
944.555
944.555
944.555
944.555
944.555
944.555
944.555
944.555
944.555
944.555
944.555
944.555
944.555
944.555
944.555
944.555
944.555
944.555
944.555
944.555
944.555
944.555
944.555
944.555
944.555
944.555
944.555
944.555
944.555
944.555
944.555
944.555
944.555
944.555
944.555
944.555
944.555
944.555
944.555
944.555
944.555
944.555
944.555
944.555
944.555
944.555
944.555
944.555
944.555
944.555
944.555
944.555
944.555
944.555
944.555
944.555
944.555
944.555
944.555
944.555
944.555
944.555
944.555
944.555
944.555
944.555
944.555
944.555
944.555
944.555
944.555
944.555
944.555
944.555
944.555
944.555
944.555
944.555
944.555
944.555
944.555
944.555
944.555
944.555
944.555
944.555
944.555
944.555
944.555
944.555
944.555
944.555
944.555
944.555
944.555
944.555
944.555
944.555
944.555
944.555
944.555
944.555
944.555
944.555
944.555
944.555
944.555
944.555
944.555
944.555
944.555
944.555
944.555
944.555
944.555
944.555
944.555
944.555
944.555
944.555
944.555
944.555
944.555
944.555
944.555
944.555
944.555
944.555
944.555
944.555
944.555
944.555
944.555
944.555
944.555
944.555
944.555
944.555
944.555
944.555
944.555
944.555
944.555
944.555
944.555
944.555
944.555
944.555
944.555
944.555
944.555
944.555
944.555
944.555
944.555
944.555
944.555
944.555
944.555
944.555
944.555
944.555
944.555
944.555
944.555
944.555
944.555
944.555
944.555
944.555
944.555
944.555
944.555
944.555
944.555
944.555
944.555
944.555
944.555
944.555
944.555
944.555
944.555
944.555
944.555
944.555
944.555
944.555
944.555
944.555
944.555
944.555
944.555
944.555
944.555
944.555
944.555
944.555
944.555
944.555
944.555
944.555
944.555
944.555
944.555
944.555
944.555
944.555
944.555
944.555
944.555
944.555
944.555
944.555
944.555
944.555
944.555
944.555
944.555
944.555
944.555
944.555
944.555
944.555
944.555
944.555
944.555
944.555
944.555
944.555
944.555
944.555
944.555
944.555
944.555
944.555
944.555
944.555
944.555
944.555
944.555
944.555
944.555
944.555
944.555
944.555
944.555
944.555
944.555
944.555
944.555
944.555
944.555
944.555
944.555
944.555
944.555
944.555
944.555
944.555
944.555
944.555
944.555
944.555
944.555
944.555
944.555
944.555
944.555
944.555
944.555
944.555
944.555
944.555
944.555
944.555
944.555
944.555
944.555
944.555
944.555
944.555
944.555
944.555
944.555
944.555
944.555
944.555
944.555
944.555
944.555
944.555
944.555
944.555
944.555
944.555
944.555
944.555
944.555
944.555
944.555
944.555
944.555
944.555
944.555
944.555
944.555
944.555
944.555
944.555
944.555
944.555
944.555
944.555
944.555
944.555
944.555
944.555
944.555
944.555
944.555
944.555
944.555
944.555
944.555
944.555
944.555
944.555
944.555
944.555
944.555
944.555
944.555
944.555
944.555
944.555
944.555
944.555
944.555
944.555
944.555
944.555
944.555
944.555
944.555
944.555
944.555
944.555
944.555
944.555
944.555
944.555
944.555
944.555
944.555
944.555
944.555
944.555
944.555
944.555
944.555
944.555
944.555
944.555
944.555
944.555
944.555
944.555
944.555
944.555
944.555
944.555
944.555
944.555
944.555
944.555
944.555
944.555
944.555
944.555
944.555
944.555
944.555
944.555
944.555
944.555
944.555
944.555
944.555
944.555
944.555
944.555
944.555
944.555
944.555
944.555
944.555
944.555
944.555
944.555
944.555
944.555
944.555
944.555
944.555
944.555
944.555
944.555
944.555
944.555
944.555
944.555
944.555
944.555
944.555
944.555
944.555
944.555
944.555
944.555
944.555
944.555
944.555
944.555
944.555
944.555
944.555
944.555
944.555
944.555
944.555
944.555
944.555
944.555
944.555
944.555
944.555
944.555
944.555
944.555
944.555
944.555
944.555
944.555
944.555
944.555
944.555
944.555
944.555
944.555
944.555
944.555
944.555
944.555
944.555
944.555
944.555
944.555
944.555
944.555
944.555
944.555
944.555
944.555
944.555
944.555
944.555
944.555
944.555
944.555
944.555
944.555
944.555
944.555
944.555
944.555
944.555
944.555
944.555
944.555
944.555
944.555
944.555
944.555
944.555
944.555
944.555
944.555
944.555
944.555
944.555
944.555
944.555
944.555
944.555
944.555
944.555
944.555
944.555
944.555
944.555
944.555
944.555
944.555
944.555
944.555
944.555
944.555
944.555
944.555
944.555
944.555
944.555
944.555
944.555
944.555
944.555
944.555
944.555
944.555
944.555
944.555
944.555
944.555
944.555
944.555
944.555
944.555
944.555
944.555
944.555
944.555
944.555
944.555
944.555
944.555
944.555
944.555
944.555
944.555
944.555
944.555
944.555
944.555
944.555
944.555
944.555
944.555
944.555
944.555
944.555
944.555
944.555
944.555
944.555
944.555
944.555
944.555
944.555
944.555
944.555
944.555
944.555
944.555
944.555
944.555
944.555
944.555
944.555
944.555
944.555
944.555
944.555
944.555
944.555
944.555
944.555
944.555
944.555
944.555
944.555
944.555
944.555
944.555
944.555
944.555
944.555
944.555
944.555
944.555
944.555
944.555
944.555
944.555
944.555
944.555
944.555
944.555
944.555
944.555
944.555
944.555
944.555
944.555
944.555
944.555
944.555
944.555
944.555
944.555
944.555
944.555
944.555
944.555
944.555
944.555
944.555
944.555
944.555
944.555
944.555
944.555
944.555
944.555
944.555
944.555
944.555
944.555
944.555
944.555
944.555
944.555
944.555
944.555
944.555
944.555
944.555
944.555
944.555
944.555
944.555
944.555
944.555
944.555
944.555
944.555
944.555
944.555
944.555
944.555
944.555
944.555
944.555
944.555
944.555
944.555
944.555
944.555
944.555
944.555
944.555
944.555
944.555
944.555
944.555
944.555
944.555
944.555
944.555
944.555
944.555
944.555
944.555
944.555
944.555
944.555
944.555
944.555
944.555
944.555
944.555
944.555
944.555
944.555
944.555
944.555
944.555
944.555
944.555
944.555
944.555
944.555
944.555
944.555
944.555
944.555
944.555
944.555
944.555
944.555
944.555
944.555
944.555
944.555
944.555
944.555
944.555
944.555
944.555
944.555
944.555
944.555
944.555
944.555
944.555
944.555
944.555
944.555
944.555
944.555
944.555
944.555
944.555
944.555
944.555
944.555
944.555
944.555
944.555
944.555
944.555
944.555
944.555
944.555
944.555
944.555
944.555
944.555
944.555
944.555
944.555
944.555
944.555
944.555
944.555
944.555
944.555
944.555
944.555
944.555
944.555
944.555
944.555
944.555
944.555
944.555
944.555
944.555
944.555
944.555
944.555
944.555
944.555
944.555
944.555
944.555
944.555
944.555
944.555
944.555
944.555
944.555
944.555
944.555
944.555
944.555
944.555
944.555
944.555
944.555
944.555
944.555
944.555
944.555
944.555
944.555
944.555
944.555
944.555
944.555
944.555
944.555
944.555
944.555
944.555
944.555
944.555
944.555
944.555
944.555
944.555
944.555
944.555
944.555
944.555
944.555
944.555
944.555
944.555
944.555
944.555
944.555
944.555
944.555
944.555
944.555
944.555
944.555
944.555
944.555
944.555
944.555
944.555
944.555
944.555
944.555
944.555
944.555
944.555
944.555
944.555
944.555
944.555
944.555
944.555
944.555
944.555
944.555
944.555
944.555
944.555
944.555
944.555
944.555
944.555
944.555
944.555
944.555
944.555
944.555
944.555
944.555
944.555
944.555
944.555
944.555
944.555
944.555
944.555
944.555
944.555
944.555
944.555
944.555
944.555
944.555
944.555
944.555
944.555
944.555
944.555
944.555
944.555
944.555
944.555
944.555
944.555
944.555
944.555
944.555
944.555
944.555
944.555
944.555
944.555
944.555
944.555
944.555
944.555
944.555
944.555
944.555
944.555
944.555
944.555
944.555
944.555
944.555
944.555
944.555
944.555
944.555
944.555
944.555
944.555
944.555
944.555
944.555
944.555
944.555
944.555
944.555
944.555
944.555
944.555
944.555
944.555
944.555
944.555
944.555
944.555
944.555
944.555
944.555
944.555
944.555
944.555
944.555
944.555
944.555
944.555
944.555
944.555
944.555
944.555
944.555
944.555
944.555
944.555
944.555
944.555
944.555
944.555
944.555
944.555
944.555
944.555
944.555
944.555
944.555
944.555
944.555
944.555
944.555
944.555
944.555
944.555
944.555
944.555
944.555
944.555
944.555
944.555
944.555
944.555
944.555
944.555
944.555
944.555
944.555
944.555
944.555
944.555
944.555
944.555
944.555
944.555
944.555
944.555
944.555
944.555
944.555
944.555
944.555
944.555
944.555
944.555
944.555
944.555
944.555
944.555
944.555
944.555
944.555
944.555
944.555
944.555
944.555
944.555
944.555
944.555
944.555
944.555
944.555
944.555
944.555
944.555
944.555
944.555
944.555
944.555
944.555
944.555
944.555
944.555
944.555
944.555
944.555
944.555
944.555
944.555
944.555
944.555
944.555
944.555
944.555
944.555
944.555
944.555
944.555
944.555
944.555
944.555
944.555
944.555
944.555
944.555
944.555
944.555
944.555
944.555
944.555
944.555
944.555
944.555
944.555
944.555
944.555
944.555
944.555
944.555
944.555
944.555
944.555
944.555
944.555
944.555
944.555
944.555
944.555
944.555
944.555
944.555
944.555
944.555
944.555
944.555
944.555
944.555
944.555
944.555
944.555
944.555
944.555
944.555
944.555
944.555
944.555
944.555
944.555
944.555
944.555
944.555
944.555
944.555
944.555
944.555
944.555
944.555
944.555
944.555
944.555
944.555
944.555
944.555
944.555
944.555
944.555
944.555
944.555
944.555
944.555
944.555
944.555
944.555
944.555
944.555
944.555
944.555
944.555
944.555
944.555
944.555
944.555
944.555
944.555
944.555
944.555
944.555
944.555
944.555
944.555
944.555
944.555
944.555
944.555
944.555
944.555
944.555
944.555
944.555
944.555
944.555
944.555
944.555
944.555
944.555
944.555
944.555
944.555
944.555
944.555
944.555
944.555
944.555
944.555
944.555
944.555
944.555
944.555
944.555
944.555
944.555
944.555
944.555
944.555
944.555
944.555
944.555
944.555
944.555
944.555
944.555
944.555
944.555
944.555
944.555
944.555
944.555
944.555
944.555
944.555
944.555
944.555
944.555
944.555
944.555
944.555
944.555
944.555
944.555
944.555
944.555
944.555
944.555
944.555
944.555
944.555
944.555
944.555
944.555
944.555
944.555
944.555
944.555
944.555
944.555
944.555
944.555
944.555
944.555
944.555
944.555
944.555
944.555
944.555
944.555
944.555
944.555
944.555
944.555
944.555
944.555
944.555
944.555
944.555
944.555
944.555
944.555
944.555
944.555
944.555
944.555
944.555
944.555
944.555
944.555
944.555
944.555
944.555
944.555
944.555
944.555
944.555
944.555
944.555
944.555
944.555
944.555
944.555
944.555
944.555
944.555
944.555
944.555
944.555
944.555
944.555
944.555
944.555
944.555
944.555
944.555
944.555
944.555
944.555
944.555
944.555
944.555
944.555
944.555
944.555
944.555
944.555
944.555
944.555
944.555
944.555
944.555
944.555
944.555
944.555
944.555
944.555
944.555
944.555
944.555
944.555
944.555