/*--------------------------------*- C++ -*----------------------------------*\
| =========                 |                                                 |
| \\      /  F ield         | OpenFOAM: The Open Source CFD Toolbox           |
|  \\    /   O peration     | Version:  2.1.0                                 |
|   \\  /    A nd           | Web:      www.OpenFOAM.org                      |
|    \\/     M anipulation  |                                                 |
\*---------------------------------------------------------------------------*/
FoamFile
{
    version     2.0;
    format      ascii;
    class       volScalarField;
    location    "0.43";
    object      T;
}
// * * * * * * * * * * * * * * * * * * * * * * * * * * * * * * * * * * * * * //

dimensions      [0 0 0 1 0 0 0];

internalField   nonuniform List<scalar> 
6400
(
387.408
387.586
387.761
387.931
388.095
388.256
388.411
388.562
388.709
388.851
388.989
389.123
389.253
389.379
389.501
389.619
389.733
389.843
389.95
390.053
390.153
390.249
390.342
390.431
390.517
390.6
390.679
390.756
390.83
390.9
390.968
391.033
391.095
391.154
391.211
391.265
391.316
391.366
391.412
391.457
391.499
391.539
391.577
391.613
391.646
391.678
391.708
391.736
391.762
391.786
391.809
391.83
391.85
391.868
391.884
391.899
391.913
391.925
391.936
391.946
391.954
391.962
391.968
391.973
391.977
391.979
391.981
391.981
391.98
391.978
391.975
391.97
391.964
391.956
391.946
391.935
391.922
391.906
391.888
391.867
391.843
391.815
391.782
391.743
391.695
391.636
391.562
391.463
391.327
391.129
390.818
390.28
389.247
387.148
384.24
389.411
393.013
393.148
393.15
393.15
387.401
387.572
387.745
387.914
388.08
388.242
388.4
388.554
388.705
388.852
388.995
389.134
389.27
389.403
389.532
389.657
389.779
389.898
390.013
390.125
390.233
390.339
390.441
390.54
390.635
390.728
390.817
390.904
390.987
391.067
391.145
391.219
391.291
391.359
391.425
391.488
391.549
391.607
391.662
391.715
391.765
391.813
391.858
391.901
391.942
391.981
392.018
392.053
392.085
392.116
392.145
392.172
392.198
392.222
392.244
392.265
392.285
392.303
392.32
392.336
392.351
392.365
392.378
392.39
392.402
392.412
392.422
392.432
392.44
392.449
392.456
392.463
392.47
392.476
392.482
392.487
392.492
392.497
392.5
392.504
392.506
392.508
392.51
392.51
392.51
392.508
392.506
392.502
392.498
392.495
392.496
392.506
392.539
392.617
392.773
392.994
393.138
393.15
393.15
393.15
386.867
387.041
387.22
387.398
387.573
387.745
387.915
388.081
388.243
388.403
388.559
388.712
388.862
389.009
389.152
389.292
389.429
389.563
389.694
389.821
389.946
390.067
390.186
390.301
390.413
390.523
390.629
390.732
390.832
390.929
391.023
391.114
391.201
391.286
391.368
391.447
391.522
391.595
391.665
391.733
391.797
391.859
391.917
391.974
392.027
392.078
392.127
392.173
392.217
392.259
392.298
392.336
392.371
392.404
392.436
392.466
392.494
392.52
392.546
392.569
392.592
392.613
392.633
392.652
392.67
392.687
392.704
392.72
392.736
392.751
392.766
392.78
392.795
392.809
392.824
392.838
392.853
392.868
392.883
392.898
392.913
392.929
392.945
392.962
392.978
392.995
393.012
393.029
393.045
393.062
393.079
393.095
393.11
393.124
393.135
393.142
393.149
393.15
393.15
393.15
385.792
385.973
386.163
386.354
386.543
386.732
386.918
387.101
387.282
387.46
387.636
387.808
387.978
388.145
388.31
388.471
388.63
388.786
388.939
389.089
389.236
389.381
389.523
389.662
389.798
389.931
390.062
390.189
390.314
390.435
390.554
390.67
390.782
390.892
390.998
391.102
391.202
391.299
391.394
391.485
391.573
391.658
391.74
391.819
391.894
391.967
392.037
392.104
392.168
392.229
392.287
392.342
392.395
392.445
392.492
392.537
392.579
392.62
392.657
392.693
392.727
392.758
392.788
392.816
392.842
392.867
392.89
392.912
392.932
392.951
392.969
392.986
393.002
393.017
393.031
393.045
393.057
393.068
393.079
393.089
393.097
393.106
393.113
393.119
393.125
393.13
393.135
393.138
393.141
393.144
393.146
393.147
393.148
393.149
393.149
393.15
393.15
393.15
393.15
393.15
383.971
384.161
384.362
384.566
384.772
384.977
385.181
385.384
385.585
385.783
385.98
386.175
386.368
386.558
386.747
386.933
387.118
387.3
387.479
387.657
387.832
388.005
388.175
388.344
388.509
388.672
388.833
388.991
389.147
389.301
389.452
389.601
389.747
389.89
390.031
390.169
390.304
390.437
390.566
390.693
390.817
390.937
391.055
391.169
391.28
391.388
391.493
391.594
391.692
391.786
391.877
391.965
392.048
392.129
392.205
392.278
392.348
392.414
392.476
392.535
392.591
392.643
392.692
392.737
392.779
392.819
392.855
392.888
392.919
392.947
392.972
392.995
393.016
393.035
393.051
393.066
393.079
393.091
393.101
393.109
393.117
393.123
393.129
393.133
393.137
393.14
393.143
393.145
393.147
393.148
393.149
393.149
393.15
393.15
393.15
393.15
393.15
393.15
393.15
393.15
380.986
381.183
381.392
381.605
381.821
382.038
382.254
382.47
382.685
382.899
383.112
383.323
383.534
383.743
383.951
384.158
384.364
384.569
384.772
384.974
385.175
385.375
385.573
385.77
385.966
386.16
386.353
386.544
386.734
386.923
387.11
387.296
387.48
387.662
387.843
388.022
388.2
388.376
388.55
388.722
388.892
389.06
389.226
389.389
389.551
389.709
389.866
390.019
390.17
390.317
390.462
390.604
390.742
390.877
391.008
391.135
391.259
391.379
391.494
391.606
391.713
391.816
391.915
392.009
392.099
392.185
392.266
392.342
392.414
392.482
392.546
392.605
392.661
392.713
392.76
392.805
392.845
392.883
392.917
392.948
392.977
393.002
393.026
393.046
393.065
393.082
393.096
393.109
393.12
393.129
393.136
393.142
393.145
393.148
393.149
393.149
393.149
393.15
393.15
393.15
376.212
376.407
376.611
376.822
377.034
377.249
377.463
377.677
377.891
378.104
378.316
378.529
378.74
378.951
379.162
379.372
379.583
379.793
380.004
380.215
380.426
380.637
380.85
381.062
381.273
381.484
381.695
381.906
382.116
382.326
382.536
382.746
382.955
383.165
383.374
383.583
383.792
384.001
384.21
384.42
384.629
384.839
385.048
385.258
385.468
385.678
385.889
386.099
386.309
386.519
386.73
386.94
387.149
387.359
387.567
387.776
387.983
388.189
388.394
388.597
388.799
388.999
389.196
389.391
389.583
389.771
389.957
390.138
390.316
390.489
390.658
390.823
390.983
391.137
391.287
391.432
391.571
391.706
391.835
391.959
392.077
392.191
392.299
392.401
392.499
392.591
392.679
392.76
392.836
392.905
392.966
393.018
393.06
393.09
393.11
393.122
393.13
393.136
393.14
393.142
369.113
369.289
369.471
369.659
369.846
370.036
370.224
370.412
370.599
370.785
370.97
371.155
371.338
371.521
371.703
371.884
372.065
372.246
372.425
372.606
372.786
372.966
373.147
373.327
373.508
373.689
373.87
374.052
374.233
374.416
374.6
374.784
374.97
375.157
375.345
375.535
375.727
375.921
376.117
376.315
376.516
376.72
376.926
377.136
377.349
377.565
377.785
378.009
378.236
378.467
378.703
378.943
379.187
379.436
379.69
379.947
380.21
380.477
380.75
381.026
381.308
381.594
381.885
382.18
382.48
382.783
383.09
383.401
383.716
384.033
384.354
384.677
385.003
385.331
385.661
385.993
386.326
386.661
386.997
387.335
387.675
388.018
388.364
388.714
389.066
389.422
389.781
390.143
390.504
390.863
391.213
391.548
391.858
392.134
392.363
392.529
392.665
392.774
392.855
392.908
359.052
359.176
359.304
359.433
359.561
359.689
359.815
359.94
360.062
360.184
360.302
360.42
360.535
360.649
360.76
360.871
360.978
361.085
361.189
361.293
361.394
361.495
361.593
361.692
361.791
361.892
361.992
362.095
362.198
362.304
362.41
362.52
362.631
362.744
362.86
362.98
363.102
363.227
363.355
363.487
363.622
363.761
363.904
364.051
364.202
364.357
364.517
364.681
364.85
365.024
365.202
365.386
365.576
365.771
365.971
366.178
366.391
366.61
366.836
367.069
367.309
367.557
367.812
368.076
368.348
368.629
368.919
369.219
369.528
369.848
370.179
370.522
370.876
371.243
371.623
372.018
372.428
372.855
373.302
373.768
374.256
374.768
375.31
375.883
376.492
377.142
377.837
378.584
379.387
380.249
381.17
382.146
383.17
384.227
385.298
386.334
387.239
388.067
388.775
389.297
345.8
345.841
345.883
345.924
345.964
346.004
346.043
346.081
346.117
346.153
346.188
346.222
346.255
346.288
346.32
346.351
346.382
346.413
346.444
346.475
346.506
346.537
346.568
346.6
346.633
346.667
346.701
346.736
346.772
346.809
346.847
346.886
346.926
346.967
347.009
347.052
347.096
347.141
347.186
347.233
347.281
347.33
347.379
347.43
347.482
347.534
347.587
347.641
347.697
347.753
347.81
347.868
347.926
347.986
348.047
348.109
348.172
348.235
348.299
348.365
348.433
348.502
348.574
348.647
348.724
348.802
348.884
348.97
349.059
349.152
349.25
349.353
349.463
349.579
349.703
349.835
349.977
350.129
350.293
350.471
350.665
350.877
351.108
351.36
351.637
351.94
352.272
352.637
353.066
353.566
354.152
354.836
355.634
356.567
357.664
358.958
360.453
362.01
363.508
364.726
331.851
331.807
331.765
331.724
331.685
331.646
331.609
331.572
331.538
331.504
331.472
331.441
331.411
331.381
331.353
331.324
331.297
331.27
331.243
331.216
331.19
331.163
331.136
331.108
331.08
331.051
331.021
330.99
330.959
330.925
330.891
330.855
330.818
330.778
330.738
330.695
330.65
330.604
330.555
330.505
330.452
330.397
330.34
330.281
330.219
330.155
330.088
330.019
329.946
329.871
329.793
329.712
329.628
329.54
329.448
329.353
329.253
329.15
329.042
328.929
328.81
328.684
328.552
328.412
328.263
328.106
327.94
327.763
327.574
327.374
327.16
326.933
326.69
326.43
326.152
325.855
325.537
325.197
324.833
324.444
324.029
323.587
323.117
322.617
322.089
321.53
320.942
320.324
319.651
318.917
318.11
317.228
316.275
315.246
314.136
312.942
311.673
310.354
309.054
307.905
320.646
320.535
320.422
320.307
320.194
320.079
319.966
319.852
319.741
319.628
319.518
319.408
319.299
319.19
319.082
318.974
318.867
318.76
318.654
318.547
318.441
318.333
318.227
318.119
318.011
317.902
317.793
317.682
317.57
317.457
317.343
317.226
317.109
316.989
316.867
316.743
316.616
316.487
316.355
316.221
316.083
315.942
315.797
315.649
315.497
315.341
315.181
315.017
314.848
314.674
314.496
314.312
314.123
313.929
313.728
313.522
313.309
313.09
312.864
312.63
312.388
312.137
311.876
311.606
311.325
311.033
310.729
310.413
310.083
309.74
309.382
309.009
308.62
308.214
307.791
307.351
306.892
306.416
305.921
305.408
304.879
304.333
303.772
303.198
302.613
302.019
301.42
300.818
300.219
299.627
299.049
298.48
297.91
297.351
296.811
296.298
295.819
295.39
295.027
294.757
312.317
312.175
312.027
311.874
311.721
311.565
311.409
311.252
311.096
310.939
310.783
310.626
310.469
310.312
310.156
309.999
309.842
309.684
309.527
309.369
309.211
309.052
308.893
308.733
308.572
308.411
308.249
308.086
307.922
307.756
307.59
307.422
307.253
307.082
306.91
306.736
306.56
306.382
306.202
306.02
305.836
305.65
305.461
305.27
305.076
304.88
304.681
304.479
304.274
304.066
303.855
303.641
303.423
303.202
302.978
302.75
302.518
302.282
302.043
301.8
301.553
301.303
301.049
300.79
300.529
300.263
299.994
299.721
299.445
299.166
298.885
298.601
298.315
298.027
297.739
297.45
297.162
296.875
296.59
296.309
296.033
295.763
295.5
295.247
295.004
294.773
294.556
294.353
294.167
294
293.851
293.724
293.618
293.526
293.447
293.38
293.325
293.282
293.251
293.23
306.289
306.145
305.991
305.832
305.67
305.505
305.34
305.174
305.008
304.841
304.675
304.508
304.342
304.175
304.008
303.841
303.674
303.507
303.34
303.172
303.004
302.835
302.667
302.498
302.328
302.159
301.988
301.818
301.647
301.475
301.303
301.131
300.958
300.785
300.611
300.437
300.263
300.088
299.913
299.738
299.563
299.388
299.212
299.037
298.862
298.687
298.513
298.339
298.165
297.992
297.82
297.648
297.477
297.307
297.138
296.971
296.804
296.638
296.475
296.313
296.153
295.995
295.839
295.686
295.536
295.389
295.244
295.103
294.966
294.832
294.702
294.576
294.455
294.338
294.225
294.118
294.015
293.918
293.827
293.741
293.661
293.587
293.519
293.458
293.402
293.354
293.311
293.275
293.245
293.22
293.201
293.186
293.176
293.169
293.163
293.159
293.156
293.154
293.153
293.152
302.219
302.084
301.938
301.787
301.633
301.477
301.321
301.164
301.007
300.85
300.694
300.538
300.382
300.226
300.071
299.916
299.762
299.608
299.454
299.301
299.148
298.996
298.845
298.694
298.543
298.393
298.244
298.096
297.948
297.801
297.655
297.51
297.366
297.224
297.082
296.941
296.802
296.665
296.529
296.394
296.262
296.131
296.002
295.875
295.751
295.628
295.508
295.391
295.276
295.163
295.053
294.946
294.842
294.741
294.643
294.548
294.456
294.368
294.283
294.201
294.122
294.047
293.976
293.907
293.842
293.781
293.723
293.668
293.616
293.568
293.522
293.48
293.441
293.405
293.372
293.342
293.314
293.289
293.267
293.247
293.229
293.214
293.201
293.189
293.18
293.172
293.166
293.161
293.158
293.155
293.153
293.152
293.151
293.151
293.15
293.15
293.15
293.15
293.15
293.15
299.537
299.418
299.287
299.153
299.016
298.878
298.739
298.601
298.463
298.326
298.19
298.054
297.92
297.786
297.653
297.521
297.39
297.26
297.132
297.004
296.878
296.753
296.629
296.507
296.386
296.267
296.15
296.034
295.92
295.807
295.697
295.588
295.481
295.376
295.273
295.173
295.074
294.978
294.883
294.792
294.702
294.616
294.531
294.45
294.371
294.294
294.22
294.149
294.081
294.016
293.953
293.893
293.836
293.782
293.731
293.682
293.636
293.593
293.552
293.514
293.478
293.445
293.415
293.386
293.36
293.336
293.313
293.293
293.275
293.258
293.243
293.23
293.218
293.207
293.198
293.189
293.182
293.176
293.171
293.166
293.163
293.16
293.157
293.155
293.154
293.153
293.152
293.151
293.151
293.15
293.15
293.15
293.15
293.15
293.15
293.15
293.15
293.15
293.15
293.15
297.72
297.616
297.504
297.389
297.274
297.158
297.042
296.927
296.813
296.7
296.588
296.477
296.368
296.259
296.152
296.047
295.942
295.839
295.738
295.638
295.54
295.443
295.348
295.255
295.164
295.074
294.986
294.9
294.815
294.733
294.653
294.575
294.499
294.425
294.353
294.284
294.216
294.151
294.089
294.028
293.97
293.915
293.861
293.81
293.761
293.715
293.671
293.629
293.59
293.552
293.517
293.484
293.453
293.424
293.397
293.372
293.349
293.328
293.308
293.29
293.274
293.259
293.245
293.233
293.222
293.212
293.203
293.195
293.188
293.182
293.177
293.172
293.168
293.165
293.162
293.159
293.157
293.156
293.154
293.153
293.152
293.152
293.151
293.151
293.151
293.15
293.15
293.15
293.15
293.15
293.15
293.15
293.15
293.15
293.15
293.15
293.15
293.15
293.15
293.15
296.429
296.342
296.249
296.155
296.061
295.968
295.875
295.784
295.693
295.604
295.516
295.429
295.343
295.259
295.177
295.095
295.016
294.937
294.861
294.785
294.712
294.64
294.569
294.5
294.433
294.368
294.304
294.242
294.182
294.123
294.067
294.012
293.96
293.909
293.86
293.813
293.769
293.726
293.685
293.646
293.608
293.573
293.54
293.508
293.478
293.45
293.423
293.398
293.375
293.354
293.334
293.315
293.298
293.282
293.267
293.254
293.242
293.23
293.22
293.211
293.203
293.196
293.189
293.184
293.179
293.174
293.17
293.167
293.164
293.161
293.159
293.157
293.156
293.155
293.154
293.153
293.152
293.152
293.151
293.151
293.151
293.15
293.15
293.15
293.15
293.15
293.15
293.15
293.15
293.15
293.15
293.15
293.15
293.15
293.15
293.15
293.15
293.15
293.15
293.15
295.481
295.411
295.337
295.262
295.189
295.116
295.044
294.973
294.903
294.834
294.767
294.701
294.636
294.573
294.511
294.45
294.391
294.333
294.276
294.221
294.168
294.116
294.065
294.016
293.968
293.922
293.877
293.834
293.793
293.753
293.714
293.677
293.642
293.608
293.576
293.546
293.516
293.489
293.462
293.438
293.414
293.392
293.371
293.352
293.333
293.316
293.3
293.286
293.272
293.259
293.248
293.237
293.227
293.218
293.21
293.203
293.196
293.19
293.184
293.18
293.175
293.172
293.168
293.165
293.163
293.161
293.159
293.157
293.156
293.155
293.154
293.153
293.152
293.152
293.151
293.151
293.151
293.151
293.15
293.15
293.15
293.15
293.15
293.15
293.15
293.15
293.15
293.15
293.15
293.15
293.15
293.15
293.15
293.15
293.15
293.15
293.15
293.15
293.15
293.15
294.638
294.585
294.532
294.479
294.426
294.375
294.324
294.275
294.226
294.179
294.133
294.088
294.044
294.001
293.96
293.919
293.88
293.842
293.805
293.77
293.735
293.702
293.67
293.639
293.609
293.581
293.553
293.527
293.502
293.478
293.455
293.434
293.413
293.393
293.375
293.357
293.341
293.325
293.31
293.297
293.284
293.272
293.261
293.25
293.24
293.231
293.223
293.216
293.209
293.202
293.196
293.191
293.186
293.182
293.178
293.174
293.171
293.168
293.165
293.163
293.161
293.159
293.158
293.157
293.156
293.155
293.154
293.153
293.152
293.152
293.152
293.151
293.151
293.151
293.151
293.15
293.15
293.15
293.15
293.15
293.15
293.15
293.15
293.15
293.15
293.15
293.15
293.15
293.15
293.15
293.15
293.15
293.15
293.15
293.15
293.15
293.15
293.15
293.15
293.15
393.15
393.15
393.15
393.15
393.15
393.15
393.15
393.15
393.15
393.15
393.15
393.15
393.15
393.15
393.15
393.15
393.15
393.15
393.15
393.15
393.15
393.15
393.15
393.15
393.15
393.15
393.15
393.15
393.15
393.15
393.15
393.15
393.15
393.15
393.15
393.15
393.15
393.15
393.15
393.15
393.15
393.15
393.15
393.15
393.15
393.15
393.15
393.15
393.15
393.15
393.15
393.15
393.15
393.15
393.15
393.15
393.15
393.15
393.15
393.148
393.15
393.15
393.15
393.15
393.15
393.15
393.15
393.15
393.15
393.15
393.15
393.15
393.15
393.15
393.15
393.149
393.149
393.147
393.143
393.127
393.15
393.15
393.15
393.15
393.15
393.15
393.15
393.15
393.15
393.15
393.15
393.149
393.149
393.148
393.147
393.144
393.138
393.123
393.076
392.865
393.15
393.15
393.15
393.15
393.149
393.149
393.149
393.148
393.148
393.147
393.146
393.144
393.141
393.135
393.125
393.104
393.057
392.933
392.524
390.473
393.142
393.14
393.138
393.135
393.131
393.127
393.123
393.118
393.114
393.111
393.105
393.096
393.08
393.051
392.997
392.884
392.631
391.96
389.635
376.99
392.907
392.878
392.847
392.813
392.778
392.748
392.727
392.722
392.725
392.727
392.723
392.704
392.66
392.567
392.374
391.971
391.084
388.84
381.536
343.126
389.411
389.242
389.083
388.929
388.812
388.795
388.844
388.962
389.077
389.203
389.322
389.438
389.506
389.484
389.141
388.202
385.985
380.976
368.635
313.747
365.131
364.797
364.477
364.196
364.017
364.081
364.228
364.384
364.59
364.9
365.273
365.799
366.36
367.101
367.439
366.878
363.885
356.926
341.864
313.761
307.377
307.539
307.657
307.734
307.708
307.421
307.047
306.661
306.253
305.776
305.256
304.615
303.906
302.996
302.34
302.066
302.574
303.319
302.914
302.353
294.679
294.746
294.805
294.859
294.893
294.875
294.821
294.725
294.628
294.52
294.412
294.287
294.167
294.029
293.933
293.887
293.921
293.99
294.038
297.012
293.228
293.237
293.246
293.257
293.268
293.275
293.279
293.276
293.268
293.257
293.246
293.234
293.224
293.214
293.207
293.204
293.208
293.222
293.306
294.408
293.152
293.152
293.153
293.153
293.154
293.155
293.156
293.156
293.157
293.156
293.155
293.155
293.154
293.154
293.154
293.154
293.155
293.158
293.174
293.332
293.15
293.15
293.15
293.15
293.15
293.15
293.15
293.15
293.15
293.15
293.15
293.15
293.15
293.15
293.15
293.15
293.15
293.15
293.151
293.153
293.15
293.15
293.15
293.15
293.15
293.15
293.15
293.15
293.15
293.15
293.15
293.15
293.15
293.15
293.15
293.15
293.15
293.15
293.15
293.15
293.15
293.15
293.15
293.15
293.15
293.15
293.15
293.15
293.15
293.15
293.15
293.15
293.15
293.15
293.15
293.15
293.15
293.15
293.15
293.15
293.15
293.15
293.15
293.15
293.15
293.15
293.15
293.15
293.15
293.15
293.15
293.15
293.15
293.15
293.15
293.15
293.15
293.15
293.15
293.15
293.15
293.15
293.15
293.15
293.15
293.15
293.15
293.15
293.15
293.15
293.15
293.15
293.15
293.15
293.15
293.15
293.15
293.15
293.15
293.15
293.15
293.15
293.15
293.15
293.15
293.15
293.15
293.15
293.15
293.15
293.15
293.15
293.15
293.15
293.15
293.15
293.15
293.15
293.15
293.15
393.15
393.15
393.15
393.15
393.15
393.15
393.15
393.15
393.15
393.15
393.15
393.15
393.15
393.15
393.15
393.15
393.15
393.15
393.15
393.15
393.15
393.15
393.15
393.15
393.15
393.15
393.15
393.15
393.15
393.15
393.15
393.15
393.15
393.15
393.15
393.15
393.15
393.15
393.15
393.15
393.15
393.15
393.15
393.15
393.15
393.15
393.15
393.15
393.15
393.15
393.15
393.15
393.15
393.15
393.15
393.15
393.15
393.15
393.15
393.15
393.15
393.15
393.15
393.15
393.15
393.15
393.15
393.15
393.15
393.15
393.15
393.15
393.15
393.15
393.15
393.15
393.15
393.15
393.15
393.15
393.15
393.15
393.15
393.15
393.15
393.15
393.15
393.15
393.15
393.15
393.15
393.15
393.15
393.15
393.15
393.15
393.15
393.15
393.15
393.15
393.15
393.15
393.15
393.15
393.15
393.15
393.15
393.15
393.15
393.15
393.15
393.15
393.15
393.15
393.15
393.15
393.15
393.15
393.15
393.15
393.15
393.15
393.15
393.15
393.15
393.15
393.15
393.15
393.15
393.15
393.15
393.15
393.15
393.15
393.15
393.15
393.15
393.15
393.15
393.15
393.15
393.15
393.15
393.15
393.15
393.15
393.15
393.15
393.15
393.15
393.15
393.15
393.15
393.15
393.15
393.15
393.15
393.15
393.15
393.15
393.15
393.15
393.15
393.15
393.15
393.15
393.15
393.15
393.15
393.15
393.15
393.15
393.15
393.15
393.15
393.15
393.15
393.15
393.15
393.15
393.15
393.15
393.15
393.15
393.15
393.15
393.15
393.15
393.15
393.15
393.15
393.15
393.15
393.15
393.15
393.15
393.15
393.15
393.15
393.15
393.15
393.15
393.15
393.15
393.15
393.15
393.15
393.15
393.15
393.15
393.15
393.15
393.15
393.15
393.15
393.15
393.15
393.15
393.15
393.15
393.15
393.15
393.15
393.15
393.15
393.15
393.15
393.15
393.15
393.15
393.15
393.15
393.15
393.15
393.15
393.15
393.15
393.15
393.15
393.15
393.15
393.15
393.15
393.15
393.15
393.15
393.15
393.15
393.15
393.15
393.15
393.15
393.15
393.15
393.15
393.15
393.15
393.15
393.15
393.15
393.15
393.15
393.15
393.15
393.15
393.15
393.15
393.15
393.15
393.15
393.15
393.15
393.15
393.15
393.15
393.15
393.15
393.15
393.15
393.15
393.15
393.15
393.15
393.15
393.15
393.15
393.15
393.15
393.15
393.15
393.15
393.15
393.15
393.15
393.15
393.15
393.15
393.15
393.15
393.15
393.15
393.15
393.15
393.15
393.15
393.15
393.15
393.15
393.15
393.15
393.15
393.15
393.15
393.15
393.15
393.15
393.15
393.15
393.15
393.15
393.15
393.15
393.15
393.15
393.15
393.15
393.15
393.15
393.15
393.15
393.15
393.15
393.15
393.15
393.15
393.15
393.15
393.15
393.15
393.15
393.15
393.15
393.15
393.15
393.15
393.15
393.15
393.15
393.15
393.15
393.15
393.15
393.15
393.15
393.15
393.15
393.15
393.15
393.15
393.15
393.15
393.15
393.15
393.15
393.15
393.15
393.15
393.15
393.15
393.15
393.15
393.15
393.15
393.15
393.15
393.15
393.15
393.15
393.15
393.15
393.15
393.15
393.15
393.15
393.15
393.15
393.15
393.15
393.15
393.15
393.15
393.15
393.15
393.15
393.15
393.15
393.15
393.15
393.15
393.15
393.15
393.15
393.15
393.15
393.15
393.15
393.15
393.15
393.15
393.15
393.15
393.15
393.15
393.15
393.15
393.15
393.15
393.15
393.15
393.15
393.15
393.15
393.15
393.15
393.15
393.15
393.15
393.15
393.15
393.15
393.15
393.15
393.15
393.15
393.15
393.15
393.15
393.15
393.15
393.15
393.15
393.15
393.15
393.15
393.15
393.15
393.15
393.15
393.15
393.15
393.15
393.15
393.15
393.15
393.15
393.15
393.15
393.15
393.15
393.15
393.15
393.15
393.15
393.15
393.15
393.15
393.15
393.15
393.15
393.15
393.15
393.15
393.15
393.15
393.15
393.15
393.15
393.15
393.15
393.15
393.15
393.15
393.15
393.15
393.15
393.15
393.15
393.15
393.15
393.15
393.15
393.15
393.15
393.15
393.15
393.15
393.15
393.15
393.15
393.15
393.15
393.15
393.15
393.15
393.15
393.15
393.15
393.15
393.15
393.15
393.15
393.15
393.15
393.15
393.15
393.15
393.15
393.15
393.15
393.15
393.15
393.15
393.15
393.15
393.15
393.15
393.15
393.15
393.15
393.15
393.15
393.15
393.15
393.15
393.15
393.15
393.15
393.15
393.15
393.15
393.15
393.15
393.15
393.15
393.15
393.15
393.15
393.15
393.15
393.15
393.15
393.15
393.15
393.15
393.15
393.15
393.15
393.15
393.15
393.15
393.15
393.15
393.15
393.15
393.15
393.15
393.15
393.15
393.15
393.15
393.15
393.15
393.15
393.15
393.15
393.15
393.15
393.15
393.15
393.15
393.15
393.15
393.15
393.15
393.15
393.15
393.15
393.15
393.15
393.15
393.15
393.15
393.15
393.15
393.15
393.15
393.15
393.15
393.15
393.15
393.15
393.15
393.15
393.15
393.15
393.15
393.15
393.15
393.15
393.15
393.15
393.15
393.15
393.15
393.15
393.15
393.15
393.15
393.15
393.15
393.15
393.15
393.15
393.15
393.15
393.15
393.15
393.15
393.15
393.15
393.15
393.15
393.15
393.15
393.15
393.15
393.15
393.15
393.15
393.15
393.15
393.15
393.15
393.15
393.15
393.15
393.15
393.15
393.15
393.15
393.15
393.15
393.15
393.15
393.15
393.15
393.15
393.15
393.15
393.15
393.15
393.15
393.15
393.15
393.15
393.15
393.15
393.15
393.15
393.15
393.15
393.15
393.15
393.15
393.15
393.15
393.15
393.15
393.15
393.15
393.15
393.15
393.15
393.15
393.15
393.15
393.15
393.15
393.15
393.15
393.15
393.15
393.15
393.15
393.15
393.15
393.15
393.15
393.15
393.15
393.15
393.15
393.15
393.15
393.15
393.15
393.15
393.15
393.15
393.15
393.15
393.15
393.15
393.15
393.15
393.15
393.15
393.15
393.15
393.15
393.15
393.15
393.15
393.15
393.15
393.15
393.15
393.15
393.15
393.15
393.15
393.15
393.15
393.15
393.15
393.15
393.15
393.15
393.15
393.15
393.15
393.15
393.15
393.15
393.15
393.15
393.15
393.15
393.15
393.15
393.15
393.15
393.15
393.15
393.15
393.15
393.15
393.15
393.15
393.15
393.15
393.15
393.15
393.15
393.15
393.15
393.15
393.15
393.15
393.15
393.15
393.15
393.15
393.15
393.15
393.15
393.15
393.15
393.15
393.15
393.15
393.15
393.15
393.15
393.15
393.15
393.15
393.15
393.15
393.15
393.15
393.15
393.15
393.15
393.15
393.15
393.15
393.15
393.15
393.15
393.15
393.15
393.15
393.15
393.15
393.15
393.15
393.15
393.15
393.15
393.15
393.15
393.15
393.15
393.15
393.15
393.15
393.15
393.15
393.15
393.15
393.15
393.15
393.15
393.15
393.15
393.15
393.15
393.15
393.15
393.15
393.15
393.15
393.15
393.15
393.15
393.15
393.15
393.15
393.15
393.15
393.15
393.15
393.15
393.15
393.15
393.15
393.15
393.15
393.15
393.15
393.15
393.15
393.15
393.15
393.15
393.15
393.15
393.15
393.15
393.15
393.15
393.15
393.15
393.15
393.15
393.15
393.15
393.15
393.15
393.15
393.15
393.15
393.15
393.15
393.15
393.15
393.15
393.15
393.15
393.15
393.15
393.15
393.15
393.15
393.15
393.15
393.15
393.15
393.15
393.15
393.15
393.15
393.15
393.15
393.15
393.15
393.15
393.15
393.15
393.15
393.15
393.15
393.15
393.15
393.15
393.15
393.15
393.15
393.15
393.15
393.15
393.15
393.15
393.15
393.15
393.15
393.15
393.15
393.15
393.15
393.15
393.15
393.15
393.15
393.15
393.15
393.15
393.15
393.15
393.15
393.15
393.15
393.15
393.15
393.15
393.15
393.15
393.15
393.15
393.15
393.15
393.15
393.15
393.15
393.15
393.15
393.15
393.15
393.15
393.15
393.15
393.15
393.15
393.15
393.15
393.15
393.15
393.15
393.15
393.15
393.15
393.15
393.15
393.15
393.15
393.15
393.15
393.15
393.15
393.15
393.15
393.15
393.15
393.15
393.15
393.15
393.15
393.15
393.15
393.15
393.15
393.15
393.15
393.15
393.15
393.15
393.15
393.15
393.15
393.15
393.15
393.15
393.15
393.15
393.15
393.15
393.15
393.15
393.15
393.15
393.15
393.15
393.15
393.15
393.15
393.15
393.15
393.15
393.15
393.15
393.15
393.15
393.15
393.15
393.15
393.15
393.15
393.15
393.15
393.15
393.15
393.15
393.15
393.15
393.15
393.15
393.15
393.15
393.15
393.15
393.15
393.15
393.15
393.15
393.15
393.15
393.15
393.15
393.15
393.15
393.15
393.15
393.15
393.15
393.15
393.15
393.15
393.15
393.15
393.15
393.15
393.15
393.15
393.15
393.15
393.15
393.15
393.15
393.15
393.15
393.15
393.15
393.15
393.15
393.15
393.15
393.15
393.15
393.15
393.15
393.15
393.15
393.15
393.15
393.15
393.15
393.15
393.15
393.15
393.15
393.15
393.15
393.15
393.15
393.15
393.15
393.15
393.15
393.15
393.15
393.15
393.15
393.15
393.15
393.15
393.15
393.15
393.15
393.15
393.15
393.15
393.15
393.15
393.15
393.15
393.15
393.15
393.15
393.15
393.15
393.15
393.15
393.15
393.15
393.15
393.15
393.15
393.15
393.15
393.15
393.15
393.15
393.15
393.15
393.15
393.15
393.15
393.15
393.15
393.15
393.15
393.15
393.15
393.15
393.15
393.15
393.15
393.15
393.15
393.15
393.15
393.15
393.15
393.15
393.15
393.15
393.15
393.15
393.15
393.15
393.15
393.15
393.15
393.15
393.15
393.15
393.15
393.15
393.15
393.15
393.15
393.15
393.15
393.15
393.15
393.15
393.15
393.15
393.15
393.15
393.15
393.15
393.15
393.15
393.15
393.15
393.15
393.15
393.15
393.15
393.15
393.15
393.15
393.15
393.15
393.15
393.15
393.15
393.15
393.15
393.15
393.15
393.15
393.15
393.15
393.15
393.15
393.15
393.15
393.15
393.15
393.15
393.15
393.15
393.15
393.15
393.15
393.15
393.15
393.15
393.15
393.15
393.15
393.15
393.15
393.15
393.15
393.15
393.15
393.15
393.15
393.15
393.15
393.15
393.15
393.15
393.15
393.15
393.15
393.15
393.15
393.15
393.15
393.15
393.15
393.15
393.15
393.15
393.15
393.15
393.15
393.15
393.15
393.15
393.15
393.15
393.15
393.15
393.15
393.15
393.15
393.15
393.15
393.15
393.15
393.15
393.15
393.15
393.15
393.15
393.15
393.15
393.15
393.15
393.15
393.15
393.15
393.15
393.15
393.15
393.15
393.15
393.15
393.15
393.15
393.15
393.15
393.15
393.15
393.15
393.15
393.15
393.15
393.15
393.15
393.15
393.15
393.15
393.15
393.15
393.15
393.15
393.15
393.15
393.15
393.15
393.15
393.15
393.15
393.15
393.15
393.15
393.15
393.15
393.15
393.15
393.15
393.15
393.15
393.15
393.15
393.15
393.15
393.15
393.15
393.15
393.15
393.15
393.15
393.15
393.15
393.15
393.15
393.15
393.15
393.15
393.15
393.15
393.15
393.15
393.15
393.15
393.15
393.15
393.15
393.15
393.15
393.15
393.15
393.15
393.15
393.15
393.15
393.15
393.15
393.15
393.15
393.15
393.15
393.15
393.15
393.15
393.15
393.15
393.15
393.15
393.15
393.15
393.15
393.15
393.15
393.15
393.15
393.15
393.15
393.15
393.15
393.15
393.15
393.15
393.15
393.15
393.15
393.15
393.15
393.15
393.15
393.15
393.15
393.15
393.15
393.15
393.15
393.15
393.15
393.15
393.15
393.15
393.15
393.15
393.15
393.15
393.15
393.15
393.15
393.15
393.15
393.15
393.15
393.15
393.15
393.15
393.15
393.15
393.15
393.15
393.15
393.15
393.15
393.15
393.15
393.15
393.15
393.15
393.15
393.15
393.15
393.15
393.15
393.15
393.15
393.15
393.15
393.15
393.15
393.15
393.15
393.15
393.15
393.15
393.15
393.15
393.15
393.15
393.15
393.15
393.15
393.15
393.15
393.15
393.15
393.15
393.15
393.15
393.15
393.15
393.15
393.15
393.15
393.15
393.15
393.15
393.15
393.15
393.15
393.15
393.15
393.15
393.15
393.15
393.15
393.15
393.15
393.15
393.15
393.15
393.15
393.15
393.15
393.15
393.15
393.15
393.15
393.15
393.15
393.15
393.15
393.15
393.15
393.15
393.15
393.15
393.15
393.15
393.15
393.15
393.15
393.15
393.15
393.15
393.15
393.15
393.15
393.15
393.15
393.15
393.15
393.15