/*--------------------------------*- C++ -*----------------------------------*\
| =========                 |                                                 |
| \\      /  F ield         | OpenFOAM: The Open Source CFD Toolbox           |
|  \\    /   O peration     | Version:  2.1.0                                 |
|   \\  /    A nd           | Web:      www.OpenFOAM.org                      |
|    \\/     M anipulation  |                                                 |
\*---------------------------------------------------------------------------*/
FoamFile
{
    version     2.0;
    format      ascii;
    class       volVectorField;
    location    "0.43";
    object      U;
}
// * * * * * * * * * * * * * * * * * * * * * * * * * * * * * * * * * * * * * //

dimensions      [0 1 -1 0 0 0 0];

internalField   nonuniform List<vector> 
6400
(
(-1.30167 -4.90628e-05 0)
(-1.30055 -0.000504428 0)
(-1.29819 -0.000794347 0)
(-1.29488 -0.000941886 0)
(-1.29111 -0.00102916 0)
(-1.28704 -0.00108776 0)
(-1.28277 -0.00113003 0)
(-1.27835 -0.00116325 0)
(-1.2738 -0.0011913 0)
(-1.26914 -0.00121659 0)
(-1.26439 -0.00124043 0)
(-1.25953 -0.00126363 0)
(-1.25458 -0.00128665 0)
(-1.24954 -0.00130973 0)
(-1.2444 -0.00133308 0)
(-1.23917 -0.00135672 0)
(-1.23384 -0.00138079 0)
(-1.22841 -0.00140523 0)
(-1.22288 -0.00143015 0)
(-1.21725 -0.00145542 0)
(-1.21151 -0.00148111 0)
(-1.20567 -0.00150706 0)
(-1.19973 -0.0015336 0)
(-1.19367 -0.00156068 0)
(-1.18751 -0.00158775 0)
(-1.18124 -0.00161561 0)
(-1.17485 -0.00164531 0)
(-1.16833 -0.00167602 0)
(-1.1617 -0.00170769 0)
(-1.15493 -0.00174026 0)
(-1.14803 -0.0017739 0)
(-1.141 -0.00180861 0)
(-1.13382 -0.00184454 0)
(-1.12649 -0.00188175 0)
(-1.11902 -0.00192035 0)
(-1.11139 -0.00196034 0)
(-1.10359 -0.00200185 0)
(-1.09563 -0.00204491 0)
(-1.08749 -0.00208968 0)
(-1.07917 -0.00213632 0)
(-1.07066 -0.0021851 0)
(-1.06195 -0.00223598 0)
(-1.05303 -0.00228908 0)
(-1.0439 -0.0023445 0)
(-1.03455 -0.0024023 0)
(-1.02496 -0.00246249 0)
(-1.01512 -0.00252511 0)
(-1.00503 -0.00259006 0)
(-0.994686 -0.00265721 0)
(-0.984067 -0.00272677 0)
(-0.973169 -0.00279775 0)
(-0.961989 -0.00286916 0)
(-0.950518 -0.00294489 0)
(-0.938734 -0.00302655 0)
(-0.926619 -0.00311216 0)
(-0.914161 -0.00319969 0)
(-0.901365 -0.00328508 0)
(-0.888234 -0.0033674 0)
(-0.874779 -0.00344868 0)
(-0.861001 -0.00353101 0)
(-0.846893 -0.00361525 0)
(-0.832448 -0.00370143 0)
(-0.817657 -0.00379029 0)
(-0.802508 -0.00388258 0)
(-0.786987 -0.00397842 0)
(-0.771079 -0.00407842 0)
(-0.754767 -0.00418288 0)
(-0.738031 -0.0042926 0)
(-0.720851 -0.00440803 0)
(-0.703203 -0.00452958 0)
(-0.685062 -0.00465759 0)
(-0.666402 -0.00479273 0)
(-0.647193 -0.00493545 0)
(-0.627405 -0.00508661 0)
(-0.607001 -0.00524713 0)
(-0.585944 -0.00541825 0)
(-0.564188 -0.00560155 0)
(-0.54168 -0.00579904 0)
(-0.518361 -0.00601359 0)
(-0.494154 -0.00624945 0)
(-0.468964 -0.00651185 0)
(-0.442676 -0.00680731 0)
(-0.415142 -0.00714424 0)
(-0.386181 -0.00753197 0)
(-0.355579 -0.0079778 0)
(-0.323102 -0.00848444 0)
(-0.288522 -0.00904714 0)
(-0.251659 -0.00964506 0)
(-0.212478 -0.0102267 0)
(-0.171263 -0.0106808 0)
(-0.128963 -0.0107807 0)
(-0.0878473 -0.01008 0)
(-0.0520715 -0.00806547 0)
(-0.0267824 -0.00474994 0)
(-0.0155784 -0.000921363 0)
(-0.0201499 0.00321982 0)
(-0.0489367 0.0113476 0)
(-0.129047 0.0292103 0)
(-0.328832 0.0711589 0)
(-0.948395 0.19898 0)
(-1.56893 -0.000337731 0)
(-1.56582 -0.00166025 0)
(-1.56368 -0.00241761 0)
(-1.56023 -0.00282088 0)
(-1.55643 -0.00306507 0)
(-1.55236 -0.00322966 0)
(-1.54813 -0.00334849 0)
(-1.54376 -0.00344178 0)
(-1.5393 -0.00352054 0)
(-1.53474 -0.00359143 0)
(-1.53009 -0.00365831 0)
(-1.52536 -0.00372332 0)
(-1.52056 -0.00378797 0)
(-1.51567 -0.00385276 0)
(-1.5107 -0.00391845 0)
(-1.50565 -0.00398503 0)
(-1.50052 -0.00405297 0)
(-1.4953 -0.00412202 0)
(-1.49 -0.00419255 0)
(-1.4846 -0.00426422 0)
(-1.47912 -0.00433719 0)
(-1.47354 -0.00441094 0)
(-1.46787 -0.00448611 0)
(-1.46211 -0.00456295 0)
(-1.45624 -0.004639 0)
(-1.45029 -0.00471631 0)
(-1.44425 -0.00479855 0)
(-1.4381 -0.00488294 0)
(-1.43186 -0.00496957 0)
(-1.42552 -0.0050584 0)
(-1.41907 -0.00514985 0)
(-1.41253 -0.00524399 0)
(-1.40587 -0.00534118 0)
(-1.39911 -0.00544156 0)
(-1.39224 -0.00554544 0)
(-1.38525 -0.00565284 0)
(-1.37814 -0.00576408 0)
(-1.37092 -0.00587938 0)
(-1.36356 -0.005999 0)
(-1.35608 -0.0061231 0)
(-1.34847 -0.00625244 0)
(-1.34072 -0.0063871 0)
(-1.33283 -0.00652733 0)
(-1.32479 -0.00667353 0)
(-1.3166 -0.00682586 0)
(-1.30826 -0.00698455 0)
(-1.29974 -0.00714979 0)
(-1.29106 -0.00732163 0)
(-1.28219 -0.0074999 0)
(-1.27314 -0.00768521 0)
(-1.26389 -0.00787585 0)
(-1.25443 -0.00806777 0)
(-1.24478 -0.00826434 0)
(-1.23495 -0.0084678 0)
(-1.22495 -0.00867643 0)
(-1.21479 -0.00888873 0)
(-1.20447 -0.00909983 0)
(-1.19398 -0.00930716 0)
(-1.1833 -0.00951299 0)
(-1.17244 -0.00972117 0)
(-1.1614 -0.00993363 0)
(-1.15017 -0.0101509 0)
(-1.13875 -0.0103741 0)
(-1.12714 -0.0106047 0)
(-1.11533 -0.0108431 0)
(-1.10333 -0.0110905 0)
(-1.09113 -0.011348 0)
(-1.07872 -0.0116171 0)
(-1.06609 -0.0118992 0)
(-1.05325 -0.0121957 0)
(-1.04018 -0.0125079 0)
(-1.02686 -0.0128378 0)
(-1.01329 -0.013187 0)
(-0.999436 -0.0135583 0)
(-0.985283 -0.0139546 0)
(-0.970799 -0.0143798 0)
(-0.955952 -0.0148386 0)
(-0.9407 -0.0153366 0)
(-0.924995 -0.0158816 0)
(-0.90878 -0.0164844 0)
(-0.891989 -0.0171579 0)
(-0.874544 -0.0179175 0)
(-0.856358 -0.018782 0)
(-0.837337 -0.0197721 0)
(-0.817376 -0.0209041 0)
(-0.796368 -0.0221834 0)
(-0.774218 -0.0235943 0)
(-0.750875 -0.0250801 0)
(-0.726379 -0.0265088 0)
(-0.700931 -0.02761 0)
(-0.674989 -0.027859 0)
(-0.649325 -0.0263022 0)
(-0.625312 -0.0217086 0)
(-0.605862 -0.0135265 0)
(-0.599963 -0.000965042 0)
(-0.615221 0.0132437 0)
(-0.663673 0.0398451 0)
(-0.767781 0.0921157 0)
(-0.97081 0.204421 0)
(-1.45955 0.526476 0)
(-1.7186 -0.000911502 0)
(-1.71458 -0.00289324 0)
(-1.7133 -0.00398129 0)
(-1.71039 -0.00458818 0)
(-1.70717 -0.00496243 0)
(-1.70375 -0.00521491 0)
(-1.70019 -0.00539612 0)
(-1.69653 -0.00553787 0)
(-1.69278 -0.00565652 0)
(-1.68898 -0.00576305 0)
(-1.68511 -0.00586292 0)
(-1.68119 -0.00595998 0)
(-1.6772 -0.00605617 0)
(-1.67317 -0.00615277 0)
(-1.66908 -0.00625061 0)
(-1.66494 -0.00635007 0)
(-1.66073 -0.00645162 0)
(-1.65648 -0.00655524 0)
(-1.65215 -0.00666131 0)
(-1.64778 -0.00676969 0)
(-1.64332 -0.00688053 0)
(-1.63881 -0.00699325 0)
(-1.63422 -0.00710861 0)
(-1.62956 -0.00722746 0)
(-1.62481 -0.00734604 0)
(-1.61999 -0.00746451 0)
(-1.61509 -0.0075864 0)
(-1.61013 -0.00770951 0)
(-1.6051 -0.00783481 0)
(-1.60001 -0.00796269 0)
(-1.59486 -0.00809368 0)
(-1.58965 -0.00822797 0)
(-1.58438 -0.00836596 0)
(-1.57904 -0.00850785 0)
(-1.57364 -0.00865395 0)
(-1.56818 -0.00880434 0)
(-1.56266 -0.00895928 0)
(-1.55708 -0.00911916 0)
(-1.55144 -0.0092844 0)
(-1.54574 -0.00945453 0)
(-1.53998 -0.0096306 0)
(-1.53416 -0.00981284 0)
(-1.52829 -0.0100014 0)
(-1.52236 -0.0101969 0)
(-1.51638 -0.0103994 0)
(-1.51036 -0.0106092 0)
(-1.50428 -0.0108267 0)
(-1.49817 -0.011052 0)
(-1.49201 -0.0112851 0)
(-1.48581 -0.0115259 0)
(-1.47958 -0.011773 0)
(-1.47333 -0.0120226 0)
(-1.46707 -0.0122722 0)
(-1.46077 -0.0125206 0)
(-1.45448 -0.0127684 0)
(-1.44818 -0.0130176 0)
(-1.4419 -0.0132694 0)
(-1.43562 -0.0135213 0)
(-1.42935 -0.013772 0)
(-1.42307 -0.0140237 0)
(-1.41681 -0.0142777 0)
(-1.41058 -0.014535 0)
(-1.40437 -0.0147964 0)
(-1.39821 -0.0150623 0)
(-1.39211 -0.0153334 0)
(-1.38608 -0.0156107 0)
(-1.38014 -0.0158949 0)
(-1.3743 -0.0161874 0)
(-1.36859 -0.0164896 0)
(-1.36303 -0.0168032 0)
(-1.35763 -0.0171301 0)
(-1.35241 -0.017473 0)
(-1.3474 -0.0178342 0)
(-1.34262 -0.0182178 0)
(-1.33809 -0.0186284 0)
(-1.33381 -0.0190718 0)
(-1.3298 -0.0195555 0)
(-1.32608 -0.0200882 0)
(-1.32263 -0.0206806 0)
(-1.31945 -0.0213485 0)
(-1.31653 -0.0221098 0)
(-1.31385 -0.0229837 0)
(-1.31136 -0.0239925 0)
(-1.30905 -0.0251597 0)
(-1.30687 -0.0265036 0)
(-1.30478 -0.0280291 0)
(-1.30276 -0.0297099 0)
(-1.30081 -0.0314627 0)
(-1.29898 -0.0331073 0)
(-1.29743 -0.0342963 0)
(-1.2964 -0.0344031 0)
(-1.29624 -0.0323822 0)
(-1.29746 -0.026743 0)
(-1.30155 -0.0159836 0)
(-1.31051 0.00221722 0)
(-1.32765 0.0263495 0)
(-1.36713 0.0696273 0)
(-1.44341 0.149743 0)
(-1.58737 0.311564 0)
(-1.8584 0.719471 0)
(-1.85339 -0.00157815 0)
(-1.8491 -0.00389583 0)
(-1.84884 -0.00522124 0)
(-1.84683 -0.0059891 0)
(-1.84459 -0.00646724 0)
(-1.8422 -0.00678767 0)
(-1.8397 -0.00701455 0)
(-1.83715 -0.00718979 0)
(-1.83454 -0.00733381 0)
(-1.83191 -0.00746179 0)
(-1.82923 -0.00758003 0)
(-1.82656 -0.00769437 0)
(-1.82384 -0.00780663 0)
(-1.82113 -0.00791919 0)
(-1.81839 -0.00803258 0)
(-1.81565 -0.00814784 0)
(-1.81288 -0.00826513 0)
(-1.81011 -0.00838493 0)
(-1.80732 -0.00850738 0)
(-1.80453 -0.00863277 0)
(-1.80172 -0.00876123 0)
(-1.79891 -0.00889208 0)
(-1.79608 -0.00902628 0)
(-1.79326 -0.00916398 0)
(-1.7904 -0.00930348 0)
(-1.78758 -0.0094435 0)
(-1.78473 -0.00958292 0)
(-1.78187 -0.00972173 0)
(-1.77901 -0.00986164 0)
(-1.77615 -0.0100035 0)
(-1.77329 -0.0101478 0)
(-1.77044 -0.0102948 0)
(-1.7676 -0.0104448 0)
(-1.76476 -0.010598 0)
(-1.76194 -0.0107545 0)
(-1.75914 -0.0109144 0)
(-1.75636 -0.0110775 0)
(-1.75361 -0.0112442 0)
(-1.75089 -0.011415 0)
(-1.7482 -0.0115891 0)
(-1.74556 -0.0117673 0)
(-1.74297 -0.0119495 0)
(-1.74043 -0.0121357 0)
(-1.73796 -0.012326 0)
(-1.73557 -0.0125205 0)
(-1.73326 -0.012719 0)
(-1.73104 -0.0129215 0)
(-1.72894 -0.0131278 0)
(-1.72695 -0.0133375 0)
(-1.72511 -0.0135495 0)
(-1.72341 -0.0137619 0)
(-1.72188 -0.0139752 0)
(-1.72053 -0.0141892 0)
(-1.71933 -0.0144002 0)
(-1.71829 -0.0146065 0)
(-1.71741 -0.0148101 0)
(-1.7167 -0.0150141 0)
(-1.71618 -0.0152172 0)
(-1.71586 -0.015416 0)
(-1.71574 -0.0156104 0)
(-1.71585 -0.0158007 0)
(-1.7162 -0.0159873 0)
(-1.71681 -0.0161709 0)
(-1.71769 -0.0163515 0)
(-1.71887 -0.0165297 0)
(-1.72035 -0.0167059 0)
(-1.72217 -0.0168807 0)
(-1.72432 -0.0170551 0)
(-1.72683 -0.0172306 0)
(-1.72972 -0.017409 0)
(-1.73298 -0.0175929 0)
(-1.73664 -0.0177856 0)
(-1.7407 -0.0179907 0)
(-1.74515 -0.0182137 0)
(-1.75 -0.0184612 0)
(-1.75523 -0.0187417 0)
(-1.76083 -0.0190656 0)
(-1.76676 -0.0194453 0)
(-1.773 -0.0198942 0)
(-1.7795 -0.0204324 0)
(-1.78622 -0.0210827 0)
(-1.79309 -0.0218667 0)
(-1.80007 -0.0228086 0)
(-1.8071 -0.0239316 0)
(-1.81412 -0.0252526 0)
(-1.82109 -0.0267724 0)
(-1.82799 -0.0284548 0)
(-1.83484 -0.030197 0)
(-1.84167 -0.0317895 0)
(-1.84858 -0.0328512 0)
(-1.85566 -0.0327321 0)
(-1.86293 -0.0304011 0)
(-1.87037 -0.0243122 0)
(-1.87851 -0.0125861 0)
(-1.8878 0.00653928 0)
(-1.89901 0.0364759 0)
(-1.92177 0.0893756 0)
(-1.96312 0.185988 0)
(-2.03245 0.375492 0)
(-2.13339 0.778228 0)
(-1.98881 -0.00215495 0)
(-1.98488 -0.00453683 0)
(-1.98576 -0.00596837 0)
(-1.98498 -0.00682977 0)
(-1.98418 -0.00737196 0)
(-1.98326 -0.00773013 0)
(-1.98234 -0.00797944 0)
(-1.98139 -0.00816648 0)
(-1.98046 -0.0083163 0)
(-1.97954 -0.00844566 0)
(-1.97863 -0.00856269 0)
(-1.97776 -0.00867364 0)
(-1.97691 -0.00878107 0)
(-1.9761 -0.00888743 0)
(-1.97532 -0.00899349 0)
(-1.97459 -0.00910026 0)
(-1.97389 -0.00920793 0)
(-1.97326 -0.00931691 0)
(-1.97266 -0.00942728 0)
(-1.97213 -0.00953931 0)
(-1.97166 -0.0096533 0)
(-1.97126 -0.00976758 0)
(-1.97092 -0.00988317 0)
(-1.97067 -0.0099996 0)
(-1.9705 -0.0101173 0)
(-1.97043 -0.0102379 0)
(-1.97044 -0.0103585 0)
(-1.97052 -0.0104777 0)
(-1.97068 -0.0105966 0)
(-1.97092 -0.0107158 0)
(-1.97124 -0.0108358 0)
(-1.97166 -0.0109566 0)
(-1.97217 -0.0110785 0)
(-1.97278 -0.0112014 0)
(-1.9735 -0.0113255 0)
(-1.97433 -0.0114504 0)
(-1.97527 -0.0115762 0)
(-1.97634 -0.0117026 0)
(-1.97754 -0.0118299 0)
(-1.97887 -0.0119578 0)
(-1.98034 -0.0120865 0)
(-1.98197 -0.0122155 0)
(-1.98375 -0.0123447 0)
(-1.98569 -0.0124741 0)
(-1.9878 -0.0126034 0)
(-1.99009 -0.0127323 0)
(-1.99257 -0.0128605 0)
(-1.99523 -0.0129878 0)
(-1.99809 -0.0131134 0)
(-2.00115 -0.0132362 0)
(-2.00442 -0.013355 0)
(-2.00789 -0.0134716 0)
(-2.01158 -0.013589 0)
(-2.01548 -0.013704 0)
(-2.01961 -0.0138131 0)
(-2.02395 -0.0139168 0)
(-2.02852 -0.0140167 0)
(-2.03333 -0.0141122 0)
(-2.03836 -0.0142005 0)
(-2.04363 -0.0142808 0)
(-2.04913 -0.0143526 0)
(-2.05486 -0.0144166 0)
(-2.06083 -0.0144737 0)
(-2.06702 -0.0145247 0)
(-2.07344 -0.0145704 0)
(-2.08008 -0.0146115 0)
(-2.08693 -0.0146491 0)
(-2.09398 -0.0146847 0)
(-2.10123 -0.0147203 0)
(-2.10867 -0.0147584 0)
(-2.11628 -0.0148022 0)
(-2.12405 -0.014856 0)
(-2.13197 -0.0149249 0)
(-2.14003 -0.0150155 0)
(-2.14822 -0.015136 0)
(-2.15652 -0.0152962 0)
(-2.16492 -0.0155087 0)
(-2.17341 -0.0157891 0)
(-2.18196 -0.0161504 0)
(-2.19058 -0.016615 0)
(-2.19925 -0.0172096 0)
(-2.20795 -0.0179553 0)
(-2.21667 -0.018876 0)
(-2.22541 -0.0199931 0)
(-2.23415 -0.0213193 0)
(-2.24292 -0.0228502 0)
(-2.2517 -0.0245432 0)
(-2.26053 -0.0262845 0)
(-2.2694 -0.0278532 0)
(-2.27833 -0.0288698 0)
(-2.28722 -0.0287138 0)
(-2.29582 -0.0264421 0)
(-2.3036 -0.0206034 0)
(-2.31067 -0.00940001 0)
(-2.31594 0.00934024 0)
(-2.31876 0.0410028 0)
(-2.32342 0.097316 0)
(-2.32952 0.199481 0)
(-2.32761 0.392878 0)
(-2.3101 0.744618 0)
(-2.13153 -0.00247502 0)
(-2.12867 -0.00469197 0)
(-2.13074 -0.00607323 0)
(-2.13152 -0.00692819 0)
(-2.13247 -0.00746931 0)
(-2.13344 -0.00781919 0)
(-2.1345 -0.00805615 0)
(-2.13561 -0.00822526 0)
(-2.1368 -0.0083546 0)
(-2.13804 -0.00846009 0)
(-2.13937 -0.00855157 0)
(-2.14077 -0.00863453 0)
(-2.14225 -0.00871255 0)
(-2.14381 -0.00878743 0)
(-2.14546 -0.00886052 0)
(-2.14721 -0.00893231 0)
(-2.14904 -0.00900331 0)
(-2.15098 -0.0090735 0)
(-2.15302 -0.0091431 0)
(-2.15516 -0.00921208 0)
(-2.15741 -0.00928159 0)
(-2.15978 -0.0093482 0)
(-2.16227 -0.0094127 0)
(-2.16487 -0.00947701 0)
(-2.1676 -0.00954112 0)
(-2.17045 -0.00960785 0)
(-2.17343 -0.00967568 0)
(-2.17654 -0.00974194 0)
(-2.17977 -0.00980662 0)
(-2.18315 -0.00987005 0)
(-2.18665 -0.00993252 0)
(-2.1903 -0.00999416 0)
(-2.19408 -0.0100552 0)
(-2.19801 -0.0101155 0)
(-2.20208 -0.0101752 0)
(-2.2063 -0.010234 0)
(-2.21066 -0.0102919 0)
(-2.21516 -0.0103489 0)
(-2.21982 -0.010405 0)
(-2.22462 -0.0104598 0)
(-2.22957 -0.0105139 0)
(-2.23466 -0.0105669 0)
(-2.2399 -0.0106186 0)
(-2.24528 -0.0106692 0)
(-2.2508 -0.0107186 0)
(-2.25647 -0.0107665 0)
(-2.26226 -0.010813 0)
(-2.26819 -0.0108578 0)
(-2.27424 -0.0109006 0)
(-2.28042 -0.0109409 0)
(-2.28672 -0.0109783 0)
(-2.29312 -0.0110138 0)
(-2.29964 -0.0110491 0)
(-2.30626 -0.0110819 0)
(-2.31298 -0.0111106 0)
(-2.31978 -0.0111348 0)
(-2.32668 -0.0111556 0)
(-2.33365 -0.0111734 0)
(-2.34069 -0.0111859 0)
(-2.34779 -0.0111912 0)
(-2.35495 -0.0111891 0)
(-2.36217 -0.0111808 0)
(-2.36944 -0.0111672 0)
(-2.37675 -0.0111494 0)
(-2.3841 -0.0111286 0)
(-2.39149 -0.0111055 0)
(-2.39892 -0.0110814 0)
(-2.40638 -0.0110579 0)
(-2.41387 -0.0110369 0)
(-2.42139 -0.0110211 0)
(-2.42895 -0.0110138 0)
(-2.43654 -0.0110191 0)
(-2.44417 -0.0110419 0)
(-2.45183 -0.011089 0)
(-2.45954 -0.0111683 0)
(-2.46729 -0.0112902 0)
(-2.47508 -0.0114665 0)
(-2.48293 -0.0117138 0)
(-2.49082 -0.0120442 0)
(-2.49879 -0.0124776 0)
(-2.50683 -0.0130405 0)
(-2.51497 -0.0137545 0)
(-2.5232 -0.0146432 0)
(-2.53156 -0.0157263 0)
(-2.54004 -0.0170135 0)
(-2.54868 -0.0184991 0)
(-2.55747 -0.0201429 0)
(-2.56642 -0.0218321 0)
(-2.57549 -0.0233522 0)
(-2.58462 -0.0243552 0)
(-2.59359 -0.0242892 0)
(-2.60195 -0.0223374 0)
(-2.60881 -0.0173036 0)
(-2.61399 -0.00750052 0)
(-2.61522 0.00966758 0)
(-2.61007 0.0398599 0)
(-2.59848 0.0939072 0)
(-2.57297 0.191716 0)
(-2.5115 0.369155 0)
(-2.41543 0.652818 0)
(-2.2785 -0.00243141 0)
(-2.27694 -0.00427524 0)
(-2.28017 -0.00545389 0)
(-2.28255 -0.00619725 0)
(-2.28517 -0.00666503 0)
(-2.28799 -0.00695807 0)
(-2.29093 -0.00714692 0)
(-2.294 -0.00727096 0)
(-2.29716 -0.00735692 0)
(-2.30044 -0.00741907 0)
(-2.30379 -0.00746704 0)
(-2.30726 -0.00750567 0)
(-2.31081 -0.00753871 0)
(-2.31447 -0.00756762 0)
(-2.3182 -0.007594 0)
(-2.32206 -0.0076181 0)
(-2.32598 -0.00764066 0)
(-2.33003 -0.00766148 0)
(-2.33415 -0.007681 0)
(-2.33838 -0.00769901 0)
(-2.34268 -0.00771742 0)
(-2.34709 -0.00773214 0)
(-2.35159 -0.00774235 0)
(-2.3562 -0.00775082 0)
(-2.3609 -0.00775826 0)
(-2.36571 -0.00776641 0)
(-2.37062 -0.00777468 0)
(-2.37564 -0.00778153 0)
(-2.38076 -0.00778687 0)
(-2.386 -0.0077908 0)
(-2.39132 -0.00779381 0)
(-2.39676 -0.00779599 0)
(-2.40228 -0.0077979 0)
(-2.4079 -0.0077995 0)
(-2.41361 -0.00780112 0)
(-2.4194 -0.0078025 0)
(-2.42528 -0.00780405 0)
(-2.43123 -0.00780568 0)
(-2.43725 -0.00780768 0)
(-2.44335 -0.00780978 0)
(-2.4495 -0.00781259 0)
(-2.45571 -0.007816 0)
(-2.46196 -0.00781999 0)
(-2.46826 -0.00782472 0)
(-2.4746 -0.00783028 0)
(-2.48098 -0.00783654 0)
(-2.48738 -0.00784337 0)
(-2.4938 -0.00785068 0)
(-2.50024 -0.00785863 0)
(-2.5067 -0.00786622 0)
(-2.51316 -0.00787369 0)
(-2.51963 -0.00788123 0)
(-2.52609 -0.00788979 0)
(-2.53256 -0.0078978 0)
(-2.53902 -0.0079039 0)
(-2.54547 -0.00790777 0)
(-2.55192 -0.00791008 0)
(-2.55835 -0.00791201 0)
(-2.56477 -0.0079111 0)
(-2.57118 -0.00790344 0)
(-2.57758 -0.00788858 0)
(-2.58397 -0.00786788 0)
(-2.59036 -0.00784218 0)
(-2.59674 -0.00781213 0)
(-2.60313 -0.0077789 0)
(-2.60953 -0.0077426 0)
(-2.61594 -0.00770429 0)
(-2.62237 -0.00766523 0)
(-2.62882 -0.00762698 0)
(-2.63531 -0.00759183 0)
(-2.64184 -0.00756274 0)
(-2.64842 -0.00754338 0)
(-2.65506 -0.00753855 0)
(-2.66177 -0.00755454 0)
(-2.66856 -0.00759929 0)
(-2.67545 -0.00768301 0)
(-2.68243 -0.00781741 0)
(-2.68954 -0.00801632 0)
(-2.69676 -0.00829537 0)
(-2.70417 -0.00867442 0)
(-2.71171 -0.00917483 0)
(-2.7194 -0.00981829 0)
(-2.72729 -0.0106284 0)
(-2.73538 -0.0116238 0)
(-2.74369 -0.0128127 0)
(-2.75227 -0.0141893 0)
(-2.76111 -0.0157251 0)
(-2.77018 -0.0173193 0)
(-2.77942 -0.0187714 0)
(-2.78869 -0.0197865 0)
(-2.79766 -0.0199074 0)
(-2.80577 -0.0184695 0)
(-2.8119 -0.0146003 0)
(-2.81533 -0.00677799 0)
(-2.81335 0.00764003 0)
(-2.80125 0.0337261 0)
(-2.77559 0.0806455 0)
(-2.72329 0.165377 0)
(-2.61577 0.313099 0)
(-2.46999 0.525917 0)
(-2.41128 -0.00203952 0)
(-2.4107 -0.0033498 0)
(-2.41468 -0.00422656 0)
(-2.41812 -0.00478428 0)
(-2.42176 -0.00512954 0)
(-2.42576 -0.00533662 0)
(-2.42981 -0.00545982 0)
(-2.43407 -0.00553011 0)
(-2.43834 -0.00556877 0)
(-2.44277 -0.00558747 0)
(-2.44719 -0.00559404 0)
(-2.45175 -0.00559253 0)
(-2.4563 -0.00558613 0)
(-2.46098 -0.00557612 0)
(-2.46565 -0.00556396 0)
(-2.47044 -0.00554992 0)
(-2.47523 -0.00553475 0)
(-2.48013 -0.00551829 0)
(-2.48503 -0.00550107 0)
(-2.49003 -0.00548284 0)
(-2.49504 -0.00546393 0)
(-2.50013 -0.00544318 0)
(-2.50527 -0.00542021 0)
(-2.51046 -0.00539449 0)
(-2.51565 -0.00536771 0)
(-2.52091 -0.00534135 0)
(-2.52617 -0.0053157 0)
(-2.53149 -0.00528992 0)
(-2.5368 -0.00526413 0)
(-2.54216 -0.00523824 0)
(-2.54751 -0.00521308 0)
(-2.55291 -0.00518842 0)
(-2.55828 -0.00516535 0)
(-2.56369 -0.00514353 0)
(-2.56908 -0.00512375 0)
(-2.5745 -0.00510536 0)
(-2.57989 -0.00508926 0)
(-2.5853 -0.00507472 0)
(-2.59068 -0.00506271 0)
(-2.59607 -0.00505283 0)
(-2.60144 -0.00504535 0)
(-2.6068 -0.00504019 0)
(-2.61215 -0.00503729 0)
(-2.61749 -0.00503673 0)
(-2.6228 -0.00503846 0)
(-2.62812 -0.00504227 0)
(-2.63341 -0.00504782 0)
(-2.6387 -0.00505482 0)
(-2.64397 -0.00506349 0)
(-2.64924 -0.00507271 0)
(-2.65449 -0.00508262 0)
(-2.65974 -0.00509276 0)
(-2.66499 -0.00510357 0)
(-2.67024 -0.00511367 0)
(-2.6755 -0.00512164 0)
(-2.68076 -0.00512681 0)
(-2.68604 -0.00512947 0)
(-2.69133 -0.00513246 0)
(-2.69663 -0.00513343 0)
(-2.70196 -0.00512481 0)
(-2.70731 -0.00510622 0)
(-2.7127 -0.00507959 0)
(-2.71812 -0.00504592 0)
(-2.72359 -0.00500565 0)
(-2.72911 -0.00495923 0)
(-2.73468 -0.0049069 0)
(-2.74032 -0.00484923 0)
(-2.74602 -0.00478706 0)
(-2.75181 -0.0047217 0)
(-2.75768 -0.00465508 0)
(-2.76365 -0.0045898 0)
(-2.76972 -0.00452923 0)
(-2.77591 -0.00447801 0)
(-2.78223 -0.00444205 0)
(-2.78868 -0.00442861 0)
(-2.79529 -0.00444816 0)
(-2.80206 -0.00451213 0)
(-2.80901 -0.00463082 0)
(-2.81615 -0.00482311 0)
(-2.82351 -0.00511273 0)
(-2.83109 -0.00551767 0)
(-2.83889 -0.00605542 0)
(-2.84696 -0.00674869 0)
(-2.8553 -0.00761566 0)
(-2.86395 -0.0086645 0)
(-2.87292 -0.00988856 0)
(-2.88221 -0.0112799 0)
(-2.89176 -0.0127653 0)
(-2.90146 -0.014153 0)
(-2.91113 -0.0152218 0)
(-2.92035 -0.0156256 0)
(-2.92844 -0.0148748 0)
(-2.93421 -0.0123859 0)
(-2.93618 -0.00701377 0)
(-2.93205 0.00354732 0)
(-2.91432 0.0233921 0)
(-2.87758 0.059197 0)
(-2.80455 0.123896 0)
(-2.66447 0.233416 0)
(-2.48906 0.379021 0)
(-2.51152 -0.00134619 0)
(-2.51183 -0.0021107 0)
(-2.51596 -0.00265081 0)
(-2.51982 -0.00299324 0)
(-2.52379 -0.00320064 0)
(-2.5282 -0.00331993 0)
(-2.53253 -0.0033842 0)
(-2.53713 -0.00341407 0)
(-2.5416 -0.00342281 0)
(-2.54626 -0.00341806 0)
(-2.55076 -0.00340514 0)
(-2.55543 -0.0033867 0)
(-2.55995 -0.00336491 0)
(-2.5646 -0.00334078 0)
(-2.56912 -0.00331531 0)
(-2.57375 -0.00328875 0)
(-2.57826 -0.00326163 0)
(-2.58287 -0.0032339 0)
(-2.58735 -0.0032059 0)
(-2.59194 -0.00317744 0)
(-2.59641 -0.00314699 0)
(-2.60095 -0.00311665 0)
(-2.6054 -0.00308881 0)
(-2.6099 -0.00306104 0)
(-2.6143 -0.00303363 0)
(-2.61874 -0.00300727 0)
(-2.62308 -0.00298242 0)
(-2.62745 -0.00295849 0)
(-2.63173 -0.00293567 0)
(-2.63605 -0.00291367 0)
(-2.64027 -0.0028934 0)
(-2.64451 -0.00287436 0)
(-2.64868 -0.00285765 0)
(-2.65287 -0.00284278 0)
(-2.65699 -0.00283054 0)
(-2.66112 -0.00282007 0)
(-2.66519 -0.00281226 0)
(-2.66927 -0.00280599 0)
(-2.67331 -0.00280251 0)
(-2.67735 -0.00280098 0)
(-2.68136 -0.00280174 0)
(-2.68538 -0.00280447 0)
(-2.68937 -0.00280883 0)
(-2.69338 -0.00281507 0)
(-2.69737 -0.00282285 0)
(-2.70137 -0.00283184 0)
(-2.70537 -0.00284167 0)
(-2.70939 -0.00285207 0)
(-2.71341 -0.0028625 0)
(-2.71746 -0.00287258 0)
(-2.72152 -0.00288196 0)
(-2.72561 -0.00289021 0)
(-2.72974 -0.00289701 0)
(-2.73389 -0.00290123 0)
(-2.73808 -0.00290162 0)
(-2.74232 -0.00289703 0)
(-2.7466 -0.00288694 0)
(-2.75094 -0.00287681 0)
(-2.75533 -0.00286709 0)
(-2.75977 -0.00284249 0)
(-2.76428 -0.00280377 0)
(-2.76886 -0.00275442 0)
(-2.77352 -0.00269591 0)
(-2.77826 -0.00262843 0)
(-2.78309 -0.00255179 0)
(-2.78801 -0.00246623 0)
(-2.79304 -0.00237206 0)
(-2.79817 -0.00226976 0)
(-2.80342 -0.00216033 0)
(-2.80879 -0.00204538 0)
(-2.8143 -0.00192718 0)
(-2.81994 -0.00180877 0)
(-2.82574 -0.00169451 0)
(-2.83171 -0.00158993 0)
(-2.83785 -0.00150187 0)
(-2.84419 -0.00144004 0)
(-2.85072 -0.00141502 0)
(-2.85748 -0.0014382 0)
(-2.86448 -0.00152699 0)
(-2.87174 -0.00170366 0)
(-2.87928 -0.00198804 0)
(-2.88712 -0.00239361 0)
(-2.8953 -0.00294315 0)
(-2.90384 -0.00365408 0)
(-2.91276 -0.0045387 0)
(-2.92209 -0.00558419 0)
(-2.93184 -0.00680651 0)
(-2.94191 -0.00819705 0)
(-2.95217 -0.00953611 0)
(-2.96241 -0.0107071 0)
(-2.9722 -0.011481 0)
(-2.98077 -0.0115599 0)
(-2.98693 -0.0105919 0)
(-2.98874 -0.00797038 0)
(-2.98372 -0.00208044 0)
(-2.96427 0.00979723 0)
(-2.92066 0.0315958 0)
(-2.83502 0.0712605 0)
(-2.67566 0.137484 0)
(-2.48525 0.221091 0)
(-2.55907 -0.0004339 0)
(-2.55971 -0.000746987 0)
(-2.56369 -0.00095341 0)
(-2.56751 -0.00108229 0)
(-2.57135 -0.00116067 0)
(-2.57567 -0.00120691 0)
(-2.5798 -0.0012322 0)
(-2.58423 -0.00124431 0)
(-2.58841 -0.00124824 0)
(-2.5928 -0.00124626 0)
(-2.59693 -0.00124098 0)
(-2.60122 -0.0012331 0)
(-2.60527 -0.00122356 0)
(-2.60946 -0.00121297 0)
(-2.61342 -0.00120163 0)
(-2.61749 -0.00118974 0)
(-2.62135 -0.00117741 0)
(-2.62532 -0.00116472 0)
(-2.62908 -0.00115169 0)
(-2.63294 -0.00113817 0)
(-2.63661 -0.00112295 0)
(-2.64036 -0.00110847 -1.30299e-41)
(-2.64394 -0.00109709 0)
(-2.6476 -0.00108726 0)
(-2.6511 -0.00107812 0)
(-2.65467 -0.00106983 0)
(-2.6581 -0.00106248 0)
(-2.66159 -0.00105566 0)
(-2.66496 -0.0010492 0)
(-2.66839 -0.00104312 0)
(-2.6717 -0.00103772 0)
(-2.67507 -0.0010332 0)
(-2.67835 -0.0010298 0)
(-2.68167 -0.00102752 0)
(-2.68493 -0.00102645 0)
(-2.68821 -0.0010265 0)
(-2.69145 -0.00102756 0)
(-2.69472 -0.00102929 0)
(-2.69795 -0.00103236 0)
(-2.7012 -0.00103589 0)
(-2.70445 -0.00104037 0)
(-2.70771 -0.00104538 0)
(-2.71097 -0.00105043 0)
(-2.71424 -0.00105579 0)
(-2.71753 -0.0010611 0)
(-2.72084 -0.00106593 0)
(-2.72417 -0.00107 0)
(-2.72753 -0.00107318 0)
(-2.73091 -0.00107424 0)
(-2.73432 -0.00107339 0)
(-2.73777 -0.00107009 0)
(-2.74126 -0.00106407 0)
(-2.74479 -0.00105442 0)
(-2.74837 -0.00104026 0)
(-2.75199 -0.00102029 0)
(-2.75567 -0.000993352 0)
(-2.75941 -0.000957334 0)
(-2.76322 -0.000918782 0)
(-2.76708 -0.000889568 0)
(-2.771 -0.000836573 0)
(-2.77499 -0.000764506 0)
(-2.77907 -0.000680098 0)
(-2.78323 -0.000584899 0)
(-2.78748 -0.000478563 0)
(-2.79182 -0.000360685 0)
(-2.79626 -0.000231202 0)
(-2.80081 -9.01748e-05 0)
(-2.80547 6.21986e-05 0)
(-2.81025 0.000225181 0)
(-2.81516 0.000397479 0)
(-2.8202 0.000577183 0)
(-2.8254 0.000761666 0)
(-2.83075 0.000946979 0)
(-2.83627 0.00112809 0)
(-2.84197 0.00129805 0)
(-2.84788 0.00144931 0)
(-2.85399 0.00157232 0)
(-2.86034 0.0016533 0)
(-2.86694 0.00167664 0)
(-2.87381 0.00162461 0)
(-2.88097 0.00147781 0)
(-2.88846 0.00122174 0)
(-2.8963 0.000834624 9.81096e-42)
(-2.90452 0.000299048 0)
(-2.91313 -0.000399552 0)
(-2.92215 -0.00126251 0)
(-2.93166 -0.00227263 0)
(-2.94132 -0.00359378 -4.22447e-41)
(-2.95124 -0.00488058 0)
(-2.96113 -0.00617802 0)
(-2.97054 -0.0073682 0)
(-2.97874 -0.00833422 0)
(-2.98451 -0.00898257 0)
(-2.98596 -0.00918361 -5.39764e-41)
(-2.97981 -0.0083318 0)
(-2.96005 -0.005464 0)
(-2.91447 0.000605031 7.1121e-42)
(-2.82439 0.0122721 0)
(-2.65828 0.0321415 0)
(-2.46312 0.0572909 0)
(-2.53647 0.000532944 0)
(-2.53688 0.000648334 0)
(-2.54088 0.00077524 0)
(-2.5447 0.000856982 0)
(-2.54855 0.000901944 0)
(-2.55289 0.000921903 0)
(-2.55706 0.000926992 0)
(-2.56154 0.000923399 0)
(-2.56578 0.000914652 0)
(-2.57024 0.000903548 0)
(-2.57446 0.000890879 0)
(-2.57885 0.000877584 0)
(-2.58301 0.00086434 0)
(-2.5873 0.000850878 0)
(-2.59138 0.000837774 0)
(-2.59558 0.000824863 0)
(-2.59957 0.000812538 0)
(-2.60367 0.000800637 0)
(-2.60758 0.000789517 0)
(-2.61157 0.000779231 0)
(-2.6154 0.000770293 0)
(-2.61929 0.000761034 8.94591e-42)
(-2.62303 0.000750544 0)
(-2.62684 0.000739301 0)
(-2.6305 0.000728196 0)
(-2.63422 0.000717049 0)
(-2.63781 0.000706098 0)
(-2.64145 0.00069561 0)
(-2.64497 0.000686217 0)
(-2.64853 0.000677503 0)
(-2.652 0.000669698 0)
(-2.6555 0.000661837 0)
(-2.65892 0.000654463 0)
(-2.66237 0.000647066 0)
(-2.66574 0.000640239 0)
(-2.66915 0.000633252 0)
(-2.67249 0.00062712 0)
(-2.67586 0.000621121 0)
(-2.67919 0.000615886 0)
(-2.68253 0.000611289 0)
(-2.68586 0.000607563 0)
(-2.68919 0.000604828 0)
(-2.69251 0.00060326 0)
(-2.69585 0.000603244 0)
(-2.69918 0.000604872 0)
(-2.70253 0.00060861 0)
(-2.70589 0.00061473 0)
(-2.70927 0.000623511 0)
(-2.71267 0.00063593 0)
(-2.71609 0.000651994 0)
(-2.71953 0.000672139 0)
(-2.72302 0.000696814 0)
(-2.72652 0.00072695 0)
(-2.73007 0.000763266 0)
(-2.73365 0.000807311 0)
(-2.73729 0.000859838 0)
(-2.74096 0.000922858 0)
(-2.74468 0.000990881 0)
(-2.74845 0.00105206 0)
(-2.7523 0.00113874 0)
(-2.75621 0.00124644 0)
(-2.76019 0.00136854 0)
(-2.76423 0.00150377 0)
(-2.76835 0.0016527 0)
(-2.77254 0.00181575 0)
(-2.77682 0.00199323 0)
(-2.78119 0.00218537 0)
(-2.78566 0.00239232 0)
(-2.79022 0.00261365 0)
(-2.79491 0.00284829 0)
(-2.79971 0.00309489 0)
(-2.80464 0.00335127 0)
(-2.8097 0.00361406 0)
(-2.81492 0.0038787 0)
(-2.8203 0.00413892 0)
(-2.82585 0.00438838 0)
(-2.8316 0.00461807 0)
(-2.83755 0.00481478 0)
(-2.84372 0.00496375 0)
(-2.85014 0.00504964 0)
(-2.85683 0.00505605 0)
(-2.86381 0.00496567 0)
(-2.87111 0.00475828 5.59333e-41)
(-2.87875 0.0044161 0)
(-2.88675 0.00392299 0)
(-2.89511 0.00325608 0)
(-2.90381 0.00243324 0)
(-2.91269 0.00126823 1.4908e-41)
(-2.92178 3.0751e-05 0)
(-2.93066 -0.00139965 0)
(-2.93883 -0.00299412 0)
(-2.94552 -0.00479341 0)
(-2.94977 -0.0070067 0)
(-2.94957 -0.00993026 -5.83648e-41)
(-2.94162 -0.013973 0)
(-2.9199 -0.0199568 0)
(-2.87346 -0.0296861 -3.48959e-40)
(-2.78294 -0.0461393 0)
(-2.6181 -0.0724302 0)
(-2.42432 -0.10358 0)
(-2.45654 0.00137194 0)
(-2.45616 0.00203477 0)
(-2.46024 0.00251033 0)
(-2.46392 0.00281357 0)
(-2.46773 0.00299369 0)
(-2.472 0.00309284 0)
(-2.47621 0.003143 0)
(-2.48072 0.00316282 0)
(-2.4851 0.00316513 0)
(-2.48969 0.00315636 0)
(-2.49416 0.00314164 0)
(-2.49878 0.00312256 0)
(-2.5033 0.00310155 0)
(-2.50794 0.00307884 0)
(-2.51248 0.00305552 0)
(-2.51712 0.00303156 0)
(-2.52167 0.00300768 0)
(-2.52631 0.00298371 0)
(-2.53086 0.0029602 0)
(-2.53549 0.00293706 0)
(-2.54004 0.00291458 0)
(-2.54465 0.00289167 0)
(-2.54917 0.00286809 0)
(-2.55376 0.00284378 0)
(-2.55826 0.00281955 0)
(-2.56281 0.00279519 0)
(-2.56728 0.00277107 0)
(-2.57179 0.00274756 0)
(-2.57623 0.00272558 0)
(-2.58069 0.00270474 0)
(-2.58509 0.00268517 0)
(-2.58951 0.00266597 0)
(-2.59386 0.00264773 0)
(-2.59822 0.00263004 0)
(-2.60252 0.00261359 0)
(-2.60684 0.00259779 0)
(-2.61109 0.00258355 0)
(-2.61535 0.00257009 0)
(-2.61956 0.00255879 0)
(-2.62377 0.00254861 0)
(-2.62794 0.00254074 0)
(-2.6321 0.00253492 0)
(-2.63623 0.00253125 0)
(-2.64036 0.00253059 0)
(-2.64445 0.00253302 0)
(-2.64854 0.00253897 0)
(-2.65261 0.00254889 0)
(-2.65669 0.00256319 0)
(-2.66074 0.00258257 0)
(-2.66481 0.00260737 0)
(-2.66886 0.00263806 0)
(-2.67293 0.00267508 0)
(-2.677 0.0027193 0)
(-2.68108 0.0027717 0)
(-2.68518 0.00283363 0)
(-2.6893 0.00290586 0)
(-2.69343 0.00298877 0)
(-2.6976 0.00307846 0)
(-2.7018 0.00317454 0)
(-2.70604 0.00329097 0)
(-2.71032 0.00342739 0)
(-2.71464 0.0035811 0)
(-2.71899 0.00375116 0)
(-2.72341 0.00393792 0)
(-2.72787 0.0041418 0)
(-2.7324 0.00436322 0)
(-2.73699 0.0046027 0)
(-2.74166 0.00486074 0)
(-2.74641 0.00513727 0)
(-2.75124 0.0054316 0)
(-2.75617 0.00574291 0)
(-2.76121 0.00606953 0)
(-2.76635 0.00640873 0)
(-2.77164 0.0067565 0)
(-2.77705 0.00710771 0)
(-2.78264 0.00745625 0)
(-2.78838 0.00779361 0)
(-2.79433 0.00810828 0)
(-2.80048 0.00838706 0)
(-2.80687 0.00861569 0)
(-2.81352 0.00877873 0)
(-2.82046 0.00885886 0)
(-2.82771 0.00883473 0)
(-2.8353 0.00868895 0)
(-2.84325 0.00840127 0)
(-2.85158 0.00794151 0)
(-2.86025 0.00727023 0)
(-2.86924 0.00631456 0)
(-2.87838 0.0051059 0)
(-2.88741 0.00352386 0)
(-2.89578 0.00149631 0)