/*--------------------------------*- C++ -*----------------------------------*\
| =========                 |                                                 |
| \\      /  F ield         | OpenFOAM: The Open Source CFD Toolbox           |
|  \\    /   O peration     | Version:  2.1.0                                 |
|   \\  /    A nd           | Web:      www.OpenFOAM.org                      |
|    \\/     M anipulation  |                                                 |
\*---------------------------------------------------------------------------*/
FoamFile
{
    version     2.0;
    format      ascii;
    class       volScalarField;
    location    "0.11";
    object      C0;
}
// * * * * * * * * * * * * * * * * * * * * * * * * * * * * * * * * * * * * * //

dimensions      [0 0 0 0 0 0 0];

internalField   nonuniform List<scalar> 
6400
(
1.04782e-24
1.59441e-24
2.55683e-24
4.10385e-24
6.56121e-24
1.04464e-23
1.6565e-23
2.61639e-23
4.11661e-23
6.45266e-23
1.00769e-22
1.56794e-22
2.43092e-22
3.75555e-22
5.78174e-22
8.87048e-22
1.35631e-21
2.06688e-21
3.13932e-21
4.7527e-21
7.17218e-21
1.07892e-20
1.618e-20
2.41902e-20
3.60573e-20
5.35873e-20
7.94086e-20
1.17336e-19
1.7289e-19
2.54043e-19
3.7227e-19
5.44054e-19
7.93005e-19
1.15286e-18
1.67169e-18
2.41786e-18
3.48832e-18
5.02026e-18
7.20729e-18
1.03221e-17
1.47478e-17
2.10213e-17
2.98939e-17
4.24136e-17
6.00402e-17
8.48021e-17
1.19512e-16
1.68063e-16
2.35832e-16
3.30231e-16
4.6146e-16
6.43529e-16
8.95647e-16
1.24411e-15
1.72486e-15
2.38693e-15
3.29716e-15
4.54649e-15
6.25852e-15
8.60107e-15
1.18017e-14
1.61687e-14
2.21193e-14
3.0218e-14
4.12278e-14
5.61791e-14
7.64637e-14
1.0396e-13
1.41204e-13
1.91616e-13
2.59815e-13
3.52033e-13
4.76688e-13
6.4515e-13
8.72791e-13
1.18041e-12
1.59618e-12
2.15829e-12
2.91862e-12
3.94774e-12
5.34186e-12
7.23247e-12
9.79986e-12
1.32921e-11
1.80526e-11
2.45591e-11
3.34825e-11
4.57759e-11
6.2814e-11
8.66231e-11
1.20279e-10
1.68648e-10
2.39846e-10
3.48263e-10
5.20814e-10
8.10123e-10
1.32008e-09
2.26109e-09
4.01421e-09
7.00029e-09
1.34913e-24
2.06694e-24
3.31951e-24
5.33103e-24
8.52705e-24
1.35822e-23
2.15462e-23
3.40446e-23
5.35846e-23
8.4019e-23
1.31246e-22
2.04266e-22
3.16758e-22
4.89445e-22
7.53613e-22
1.15633e-21
1.76817e-21
2.69462e-21
4.09281e-21
6.19605e-21
9.34975e-21
1.40636e-20
2.10877e-20
3.15222e-20
4.69764e-20
6.97979e-20
1.03401e-19
1.52739e-19
2.24975e-19
3.30447e-19
4.84028e-19
7.07063e-19
1.03011e-18
1.4968e-18
2.16927e-18
3.13582e-18
4.52158e-18
6.5035e-18
9.33113e-18
1.33557e-17
1.90703e-17
2.71657e-17
3.86074e-17
5.47419e-17
7.74431e-17
1.09313e-16
1.53959e-16
2.16368e-16
3.03426e-16
4.24619e-16
5.92992e-16
8.26455e-16
1.14955e-15
1.59585e-15
2.21121e-15
3.0582e-15
4.22198e-15
5.81844e-15
8.00494e-15
1.0995e-14
1.50782e-14
2.06463e-14
2.82295e-14
3.85446e-14
5.256e-14
7.1583e-14
9.73783e-14
1.32327e-13
1.7964e-13
2.43651e-13
3.30205e-13
4.47187e-13
6.05241e-13
8.18743e-13
1.10712e-12
1.49664e-12
2.02289e-12
2.73409e-12
3.69574e-12
4.99695e-12
6.75921e-12
9.14867e-12
1.23933e-11
1.6807e-11
2.28248e-11
3.10528e-11
4.23433e-11
5.79073e-11
7.94914e-11
1.09663e-10
1.52291e-10
2.13409e-10
3.02832e-10
4.37388e-10
6.47396e-10
9.89085e-10
1.56239e-09
2.53867e-09
4.14646e-09
6.46494e-09
1.89261e-24
2.91773e-24
4.69995e-24
7.56578e-24
1.21286e-23
1.93605e-23
3.07765e-23
4.87258e-23
7.6837e-23
1.20693e-22
1.88852e-22
2.94382e-22
4.5717e-22
7.07365e-22
1.09051e-21
1.67519e-21
2.56427e-21
3.91157e-21
5.94633e-21
9.00901e-21
1.36037e-20
2.04745e-20
3.0716e-20
4.59341e-20
6.84775e-20
1.01771e-19
1.50795e-19
2.22771e-19
3.2814e-19
4.81962e-19
7.05893e-19
1.031e-18
1.50171e-18
2.18146e-18
3.16051e-18
4.56702e-18
6.58249e-18
9.4634e-18
1.35712e-17
1.94142e-17
2.77055e-17
3.94431e-17
5.60209e-17
7.93814e-17
1.12225e-16
1.583e-16
2.22795e-16
3.1288e-16
4.38444e-16
6.13099e-16
8.55545e-16
1.19143e-15
1.65587e-15
2.29685e-15
3.17985e-15
4.39409e-15
6.06095e-15
8.34531e-15
1.14709e-14
1.57409e-14
2.15657e-14
2.95004e-14
4.02949e-14
5.49614e-14
7.48657e-14
1.01849e-13
1.38393e-13
1.87841e-13
2.54694e-13
3.45017e-13
4.66976e-13
6.3157e-13
8.53619e-13
1.1531e-12
1.55696e-12
2.10155e-12
2.83604e-12
3.82689e-12
5.16421e-12
6.97027e-12
9.41144e-12
1.27147e-11
1.71906e-11
2.3266e-11
3.15301e-11
4.28018e-11
5.82268e-11
7.9424e-11
1.08709e-10
1.49442e-10
2.06596e-10
2.87702e-10
4.04486e-10
5.75732e-10
8.32103e-10
1.22323e-09
1.82432e-09
2.73666e-09
4.04498e-09
5.66649e-09
2.67934e-24
4.15323e-24
6.71343e-24
1.08406e-23
1.74307e-23
2.79058e-23
4.44865e-23
7.06241e-23
1.1166e-22
1.75828e-22
2.75771e-22
4.30828e-22
6.70469e-22
1.03943e-21
1.60538e-21
2.4703e-21
3.78735e-21
5.7857e-21
8.80716e-21
1.33597e-20
2.01959e-20
3.04269e-20
4.56881e-20
6.83792e-20
1.0201e-19
1.517e-19
2.24892e-19
3.32378e-19
4.89759e-19
7.19528e-19
1.05402e-18
1.53961e-18
2.24259e-18
3.25752e-18
4.71893e-18
6.81769e-18
9.82392e-18
1.4119e-17
2.02402e-17
2.89421e-17
4.12825e-17
5.87408e-17
8.33809e-17
1.18076e-16
1.66816e-16
2.35134e-16
3.30678e-16
4.64007e-16
6.49663e-16
9.07639e-16
1.26536e-15
1.7604e-15
2.4441e-15
3.38654e-15
4.68316e-15
6.46382e-15
8.90483e-15
1.22453e-14
1.68089e-14
2.30336e-14
3.15107e-14
4.30382e-14
5.86915e-14
7.99188e-14
1.08669e-13
1.47561e-13
2.00114e-13
2.71057e-13
3.66734e-13
4.95661e-13
6.69266e-13
9.0288e-13
1.21708e-12
1.63946e-12
2.2071e-12
2.96977e-12
3.99439e-12
5.37096e-12
7.22072e-12
9.70717e-12
1.30512e-11
1.75518e-11
2.3615e-11
3.17934e-11
4.28426e-11
5.77997e-11
7.80973e-11
1.05726e-10
1.43475e-10
1.95289e-10
2.66801e-10
3.66147e-10
5.05184e-10
7.01243e-10
9.79325e-10
1.37381e-09
1.92916e-09
2.68891e-09
3.66101e-09
4.73033e-09
3.70347e-24
5.76833e-24
9.35558e-24
1.51547e-23
2.44433e-23
3.92521e-23
6.276e-23
9.99194e-23
1.58412e-22
2.50103e-22
3.93247e-22
6.15817e-22
9.60504e-22
1.49222e-21
2.30928e-21
3.56002e-21
5.46749e-21
8.36575e-21
1.27535e-20
1.93724e-20
2.93221e-20
4.42268e-20
6.64784e-20
9.95876e-20
1.48691e-19
2.2128e-19
3.28248e-19
4.85388e-19
7.15531e-19
1.05158e-18
1.54082e-18
2.25103e-18
3.27908e-18
4.76305e-18
6.89921e-18
9.96587e-18
1.43566e-17
2.06265e-17
2.95566e-17
4.22433e-17
6.02213e-17
8.56344e-17
1.21469e-16
1.71879e-16
2.42622e-16
3.41669e-16
4.80024e-16
6.72849e-16
9.40992e-16
1.31305e-15
1.8282e-15
2.53994e-15
3.52129e-15
4.87163e-15
6.726e-15
9.26762e-15
1.27446e-14
1.74924e-14
2.39638e-14
3.27695e-14
4.47311e-14
6.09533e-14
8.29196e-14
1.12619e-13
1.52718e-13
2.06782e-13
2.79583e-13
3.77494e-13
5.09027e-13
6.8554e-13
9.22188e-13
1.23917e-12
1.66343e-12
2.23084e-12
2.98924e-12
4.00234e-12
5.35509e-12
7.16071e-12
9.57024e-12
1.27853e-11
1.70751e-11
2.27997e-11
3.04416e-11
4.06473e-11
5.42865e-11
7.25304e-11
9.69608e-11
1.2972e-10
1.73718e-10
2.32914e-10
3.127e-10
4.20404e-10
5.65901e-10
7.62244e-10
1.02598e-09
1.37657e-09
1.83451e-09
2.41083e-09
3.0843e-09
3.74884e-09
4.92114e-24
7.69663e-24
1.25205e-23
2.03398e-23
3.29008e-23
5.29832e-23
8.49486e-23
1.35607e-22
2.15543e-22
3.41139e-22
5.37645e-22
8.43815e-22
1.31889e-21
2.05307e-21
3.18313e-21
4.91573e-21
7.56183e-21
1.15877e-20
1.76898e-20
2.69049e-20
4.07706e-20
6.15594e-20
9.26189e-20
1.38863e-19
2.07484e-19
3.08969e-19
4.58568e-19
6.78383e-19
1.00035e-18
1.4705e-18
2.15491e-18
3.14825e-18
4.58575e-18
6.65994e-18
9.64431e-18
1.39262e-17
2.00527e-17
2.87946e-17
4.1235e-17
5.88915e-17
8.38858e-17
1.19176e-16
1.68878e-16
2.387e-16
3.36545e-16
4.73326e-16
6.64077e-16
9.29464e-16
1.29783e-15
1.80794e-15
2.51277e-15
3.48447e-15
4.82116e-15
6.65598e-15
9.16927e-15
1.26048e-14
1.72915e-14
2.36724e-14
3.2343e-14
4.41028e-14
6.00232e-14
8.15377e-14
1.10561e-13
1.4965e-13
2.02208e-13
2.72767e-13
3.67349e-13
4.9395e-13
6.63175e-13
8.89076e-13
1.19025e-12
1.59131e-12
2.12477e-12
2.83358e-12
3.7744e-12
5.02199e-12
6.67489e-12
8.8629e-12
1.1757e-11
1.55822e-11
2.06347e-11
2.73039e-11
3.61021e-11
4.77026e-11
6.29901e-11
8.31266e-11
1.09636e-10
1.44515e-10
1.9037e-10
2.50585e-10
3.2952e-10
4.32709e-10
5.67014e-10
7.4062e-10
9.62638e-10
1.24194e-09
1.58497e-09
1.98844e-09
2.42438e-09
2.8062e-09
6.22942e-24
9.776e-24
1.59428e-23
2.59624e-23
4.20983e-23
6.79585e-23
1.09216e-22
1.74744e-22
2.78359e-22
4.41483e-22
6.97179e-22
1.09627e-21
1.71653e-21
2.67654e-21
4.15626e-21
6.42785e-21
9.90117e-21
1.51911e-20
2.32168e-20
3.53467e-20
5.36112e-20
8.10116e-20
1.21969e-19
1.82974e-19
2.73522e-19
4.07458e-19
6.04904e-19
8.9501e-19
1.31987e-18
1.94009e-18
2.84263e-18
4.15196e-18
6.0456e-18
8.77611e-18
1.27017e-17
1.8329e-17
2.63725e-17
3.78371e-17
5.41324e-17
7.72302e-17
1.09881e-16
1.55913e-16
2.20638e-16
3.1141e-16
4.38383e-16
6.15542e-16
8.62105e-16
1.20441e-15
1.67847e-15
2.33343e-15
3.23616e-15
4.47746e-15
6.18038e-15
8.51128e-15
1.16946e-14
1.60325e-14
2.1931e-14
2.99344e-14
4.07712e-14
5.54144e-14
7.51614e-14
1.01739e-13
1.3744e-13
1.85307e-13
2.49368e-13
3.34947e-13
4.49074e-13
6.0101e-13
8.02943e-13
1.07089e-12
1.42586e-12
1.89539e-12
2.51551e-12
3.33329e-12
4.41014e-12
5.82605e-12
7.68512e-12
1.01225e-11
1.33135e-11
1.7485e-11
2.29301e-11
3.00266e-11
3.92603e-11
5.12543e-11
6.68042e-11
8.69235e-11
1.12895e-10
1.46332e-10
1.89245e-10
2.44109e-10
3.13914e-10
4.02179e-10
5.1289e-10
6.50294e-10
8.18476e-10
1.0202e-09
1.25508e-09
1.51527e-09
1.7754e-09
1.9714e-09
7.46453e-24
1.17448e-23
1.919e-23
3.13086e-23
5.08625e-23
8.22593e-23
1.32439e-22
2.12273e-22
3.38712e-22
5.38067e-22
8.50997e-22
1.34006e-21
2.10108e-21
3.28025e-21
5.09963e-21
7.89516e-21
1.2173e-20
1.86928e-20
2.85902e-20
4.35562e-20
6.60996e-20
9.99286e-20
1.50504e-19
2.2584e-19
3.37655e-19
5.03025e-19
7.46752e-19
1.10473e-18
1.62877e-18
2.39333e-18
3.50522e-18
5.11702e-18
7.44615e-18
1.08014e-17
1.56202e-17
2.25199e-17
3.23699e-17
4.63907e-17
6.62908e-17
9.44551e-17
1.34204e-16
1.90146e-16
2.68663e-16
3.78568e-16
5.31998e-16
7.45622e-16
1.04228e-15
1.45319e-15
2.0209e-15
2.80328e-15
3.8788e-15
5.35366e-15
7.37124e-15
1.01246e-14
1.38733e-14
1.89649e-14
2.58649e-14
3.51941e-14
4.77792e-14
6.47192e-14
8.74707e-14
1.17962e-13
1.58738e-13
2.13154e-13
2.85621e-13
3.8193e-13
5.09666e-13
6.78744e-13
9.02097e-13
1.19657e-12
1.58404e-12
2.09289e-12
2.75981e-12
3.63221e-12
4.77107e-12
6.25479e-12
8.18377e-12
1.06863e-11
1.39258e-11
1.81096e-11
2.34998e-11
3.04267e-11
3.93035e-11
5.06447e-11
6.50854e-11
8.3405e-11
1.06548e-10
1.35645e-10
1.7203e-10
2.17236e-10
2.72976e-10
3.41075e-10
4.23356e-10
5.21436e-10
6.36458e-10
7.68574e-10
9.14463e-10
1.06636e-09
1.20522e-09
1.28917e-09
8.43064e-24
1.32883e-23
2.17396e-23
3.55123e-23
5.77636e-23
9.35355e-23
1.50775e-22
2.41941e-22
3.86477e-22
6.14586e-22
9.7297e-22
1.53353e-21
2.40644e-21
3.75986e-21
5.84929e-21
9.06131e-21
1.39784e-20
2.14749e-20
3.28575e-20
5.00716e-20
7.60027e-20
1.14914e-19
1.7308e-19
2.59705e-19
3.88236e-19
5.78257e-19
8.58182e-19
1.2691e-18
1.87025e-18
2.74669e-18
4.02024e-18
5.86477e-18
8.52761e-18
1.23596e-17
1.78568e-17
2.57184e-17
3.69273e-17
5.28607e-17
7.54428e-17
1.07355e-16
1.5232e-16
2.15499e-16
3.04019e-16
4.27698e-16
6.00025e-16
8.39482e-16
1.17132e-15
1.62996e-15
2.26217e-15
3.13137e-15
4.32328e-15
5.95354e-15
8.17769e-15
1.12044e-14
1.5313e-14
2.08764e-14
2.83911e-14
3.85168e-14
5.21278e-14
7.03794e-14
9.47957e-14
1.27381e-13
1.70766e-13
2.28394e-13
3.04762e-13
4.05726e-13
5.38897e-13
7.14137e-13
9.44193e-13
1.2455e-12
1.63917e-12
2.15229e-12
2.81945e-12
3.6847e-12
4.80396e-12
6.24795e-12
8.1057e-12
1.04888e-11
1.35366e-11
1.74217e-11
2.23571e-11
2.86034e-11
3.64771e-11
4.63586e-11
5.87003e-11
7.40302e-11
9.29534e-11
1.16145e-10
1.44346e-10
1.78326e-10
2.18838e-10
2.6654e-10
3.21892e-10
3.85013e-10
4.55537e-10
5.32418e-10
6.12533e-10
6.89489e-10
7.51481e-10
7.75544e-10
8.94501e-24
1.41116e-23
2.31007e-23
3.7758e-23
6.14526e-23
9.95662e-23
1.60584e-22
2.57817e-22
4.12039e-22
6.55531e-22
1.03822e-21
1.63697e-21
2.56961e-21
4.01592e-21
6.24908e-21
9.68241e-21
1.49386e-20
2.29519e-20
3.51184e-20
5.35159e-20
8.12249e-20
1.22794e-19
1.84917e-19
2.77403e-19
4.14576e-19
6.17283e-19
9.15749e-19
1.35365e-18
1.99386e-18
2.92666e-18
4.28114e-18
6.24138e-18
9.06896e-18
1.31345e-17
1.89613e-17
2.72862e-17
3.91434e-17
5.59799e-17
7.98147e-17
1.13456e-16
1.60799e-16
2.27229e-16
3.20173e-16
4.49843e-16
6.30238e-16
8.80497e-16
1.22671e-15
1.70436e-15
2.36153e-15
3.26323e-15
4.49711e-15
6.18102e-15
8.47296e-15
1.15842e-14
1.57964e-14
2.14842e-14
2.91444e-14
3.94337e-14
5.32186e-14
7.16382e-14
9.61865e-14
1.28817e-13
1.72078e-13
2.2928e-13
3.04716e-13
4.03935e-13
5.34085e-13
7.04344e-13
9.26461e-13
1.21542e-12
1.59026e-12
2.07508e-12
2.70026e-12
3.50391e-12
4.53366e-12
5.84863e-12
7.52185e-12
9.64292e-12
1.2321e-11
1.56878e-11
1.99012e-11
2.51478e-11
3.16454e-11
3.96448e-11
4.94284e-11
6.13067e-11
7.56109e-11
9.26794e-11
1.1282e-10
1.36278e-10
1.63215e-10
1.93623e-10
2.27253e-10
2.63529e-10
3.01434e-10
3.39393e-10
3.75106e-10
4.05031e-10
4.23102e-10
4.20097e-10
8.89512e-24
1.40316e-23
2.29681e-23
3.75385e-23
6.10904e-23
9.89707e-23
1.59609e-22
2.56225e-22
4.09452e-22
6.51342e-22
1.03146e-21
1.62611e-21
2.55222e-21
3.98819e-21
6.20503e-21
9.61267e-21
1.48286e-20
2.2779e-20
3.48476e-20
5.30931e-20
8.05671e-20
1.21774e-19
1.8334e-19
2.74971e-19
4.1084e-19
6.11558e-19
9.07e-19
1.34031e-18
1.9736e-18
2.89595e-18
4.2347e-18
6.17132e-18
8.96354e-18
1.29762e-17
1.87242e-17
2.69318e-17
3.86148e-17
5.51931e-17
7.86459e-17
1.11723e-16
1.58235e-16
2.23442e-16
3.14591e-16
4.41629e-16
6.18174e-16
8.6281e-16
1.20083e-15
1.66654e-15
2.30637e-15
3.18292e-15
4.3804e-15
6.01171e-15
8.22777e-15
1.12298e-14
1.52851e-14
2.07478e-14
2.80858e-14
3.7915e-14
5.10441e-14
6.8531e-14
9.17555e-14
1.22512e-13
1.63124e-13
2.16593e-13
2.8678e-13
3.78635e-13
4.9848e-13
6.54355e-13
8.56445e-13
1.1176e-12
1.45393e-12
1.88558e-12
2.43756e-12
3.14075e-12
4.03301e-12
5.16048e-12
6.57888e-12
8.3549e-12
1.05676e-11
1.33093e-11
1.66868e-11
2.08211e-11
2.58466e-11
3.19086e-11
3.91587e-11
4.77474e-11
5.78135e-11
6.94677e-11
8.27709e-11
9.77138e-11
1.14145e-10
1.31764e-10
1.50095e-10
1.68421e-10
1.85735e-10
2.00719e-10
2.11743e-10
2.1691e-10
2.14269e-10
2.0249e-10
8.29411e-24
1.30698e-23
2.13779e-23
3.4914e-23
5.67772e-23
9.19148e-23
1.48122e-22
2.37614e-22
3.79446e-22
6.03205e-22
9.54615e-22
1.50403e-21
2.35922e-21
3.68455e-21
5.72959e-21
8.87174e-21
1.36793e-20
2.10045e-20
3.21202e-20
4.89198e-20
7.42093e-20
1.1213e-19
1.68773e-19
2.53059e-19
3.78013e-19
5.62576e-19
8.34197e-19
1.23252e-18
1.81459e-18
2.66222e-18
3.89239e-18
5.67172e-18
8.23683e-18
1.19226e-17
1.72016e-17
2.47382e-17
3.5464e-17
5.06808e-17
7.22021e-17
1.02547e-16
1.45201e-16
2.04979e-16
2.88501e-16
4.04851e-16
5.6645e-16
7.90232e-16
1.09921e-15
1.52456e-15
2.1084e-15
2.90741e-15
3.9977e-15
5.48107e-15
7.49329e-15
1.02148e-14
1.38848e-14
1.8819e-14
2.54329e-14
3.42717e-14
4.60477e-14
6.16887e-14
8.23985e-14
1.09733e-13
1.45697e-13
1.9286e-13
2.54504e-13
3.34804e-13
4.39042e-13
5.73876e-13
7.47646e-13
9.70751e-13
1.25608e-12
1.61948e-12
2.08037e-12
2.66226e-12
3.39347e-12
4.30771e-12
5.44471e-12
6.8507e-12
8.57865e-12
1.06882e-11
1.32452e-11
1.632e-11
1.99853e-11
2.43128e-11
2.93671e-11
3.51989e-11
4.18351e-11
4.92667e-11
5.74346e-11
6.62128e-11
7.5388e-11
8.46317e-11
9.34688e-11
1.0134e-10
1.07553e-10
1.11329e-10
1.11905e-10
1.08725e-10
1.01777e-10
9.19968e-11
7.27143e-24
1.14365e-23
1.86804e-23
3.04668e-23
4.94765e-23
7.99851e-23
1.28721e-22
2.06217e-22
3.28883e-22
5.22173e-22
8.25388e-22
1.29894e-21
2.03531e-21
3.1754e-21
4.93305e-21
7.63141e-21
1.17568e-20
1.80383e-20
2.75641e-20
4.19526e-20
6.36014e-20
9.60485e-20
1.44496e-19
2.16562e-19
3.23369e-19
4.8109e-19
7.13163e-19
1.05344e-18
1.55063e-18
2.27461e-18
3.32528e-18
4.84497e-18
7.03581e-18
1.01839e-17
1.4693e-17
2.1131e-17
3.02938e-17
4.32941e-17
6.16816e-17
8.76088e-17
1.24055e-16
1.75132e-16
2.46495e-16
3.45899e-16
4.83945e-16
6.75074e-16
9.38901e-16
1.30198e-15
1.80013e-15
2.48152e-15
3.41074e-15
4.67402e-15
6.38619e-15
8.69953e-15
1.18154e-14
1.59988e-14
2.15978e-14
2.9067e-14
3.89988e-14
5.21611e-14
6.95459e-14
9.2429e-14
1.22444e-13
1.61673e-13
2.12756e-13
2.79025e-13
3.64663e-13
4.74886e-13
6.16167e-13
7.96479e-13
1.02557e-12
1.31528e-12
1.67983e-12
2.13617e-12
2.70426e-12
3.40732e-12
4.27193e-12
5.32803e-12
6.6086e-12
8.14901e-12
9.98588e-12
1.21553e-11
1.46904e-11
1.76175e-11
2.09522e-11
2.46932e-11
2.88158e-11
3.32643e-11
3.79444e-11
4.27155e-11
4.73848e-11
5.17039e-11
5.53463e-11
5.7946e-11
5.91383e-11
5.8584e-11
5.60709e-11
5.16506e-11
4.58137e-11
3.96089e-11
6.01461e-24
9.43406e-24
1.53787e-23
2.50324e-23
4.057e-23
6.54559e-23
1.05132e-22
1.68105e-22
2.67604e-22
4.24122e-22
6.69252e-22
1.0515e-21
1.64502e-21
2.56267e-21
3.97556e-21
6.14202e-21
9.45049e-21
1.44827e-20
2.21067e-20
3.36124e-20
5.09096e-20
7.68154e-20
1.1547e-19
1.72936e-19
2.58061e-19
3.83707e-19
5.68513e-19
8.39396e-19
1.23509e-18
1.81116e-18
2.64705e-18
3.85596e-18
5.59866e-18
8.10278e-18
1.16896e-17
1.68109e-17
2.41006e-17
3.44442e-17
4.90761e-17
6.97103e-17
9.87203e-17
1.39381e-16
1.96199e-16
2.75351e-16
3.85283e-16
5.37496e-16
7.47609e-16
1.03675e-15
1.43343e-15
1.97595e-15
2.71559e-15
3.72082e-15
5.08264e-15
6.92162e-15
9.39684e-15
1.27175e-14
1.71573e-14
2.30734e-14
3.09293e-14
4.13241e-14
5.5029e-14
7.30313e-14
9.65891e-14
1.27297e-13
1.67166e-13
2.18714e-13
2.85079e-13
3.70142e-13
4.78668e-13
6.16464e-13
7.90543e-13
1.00929e-12
1.28263e-12
1.62216e-12
2.04123e-12
2.55499e-12
3.18026e-12
3.93525e-12
4.83908e-12
5.91099e-12
7.16916e-12
8.6291e-12
1.03016e-11
1.21898e-11
1.42866e-11
1.65702e-11
1.9001e-11
2.15171e-11
2.40319e-11
2.64324e-11
2.858e-11
3.03151e-11
3.14649e-11
3.1822e-11
3.12385e-11
2.96194e-11
2.69894e-11
2.35537e-11
1.9751e-11
1.62587e-11
4.71473e-24
7.36928e-24
1.19818e-23
1.94538e-23
3.14485e-23
5.06109e-23
8.10873e-23
1.29344e-22
2.0542e-22
3.24833e-22
5.11469e-22
8.01934e-22
1.2521e-21
1.9469e-21
3.0149e-21
4.64997e-21
7.14329e-21
1.09305e-20
1.6661e-20
2.52989e-20
3.82707e-20
5.76789e-20
8.66118e-20
1.29589e-19
1.93202e-19
2.87033e-19
4.24959e-19
6.27017e-19
9.22036e-19
1.35136e-18
1.97411e-18
2.8745e-18
4.17216e-18
6.03647e-18
8.70647e-18
1.25185e-17
1.79442e-17
2.56431e-17
3.65339e-17
5.18933e-17
7.3489e-17
1.03761e-16
1.46065e-16
2.05006e-16
2.86875e-16
4.00244e-16
5.56748e-16
7.72133e-16
1.06763e-15
1.47175e-15
2.02268e-15
2.77133e-15
3.78536e-15
5.15431e-15
6.99622e-15
9.46607e-15
1.27664e-14
1.7161e-14
2.29913e-14
3.06979e-14
4.08457e-14
5.41561e-14
7.15444e-14
9.41659e-14
1.2347e-13
1.61261e-13
2.09772e-13
2.71747e-13
3.50521e-13
4.50124e-13
5.75362e-13
7.3191e-13
9.26379e-13
1.16636e-12
1.4604e-12
1.81794e-12
2.24912e-12
2.76447e-12
3.37438e-12
4.08847e-12
4.91454e-12
5.85743e-12
6.91741e-12
8.08842e-12
9.3561e-12
1.06957e-11
1.20701e-11
1.34286e-11
1.47065e-11
1.58263e-11
1.67017e-11
1.72441e-11
1.73714e-11
1.69972e-11
1.60723e-11
1.46029e-11
1.26743e-11
1.04682e-11
8.26378e-12
6.41719e-12
3.52473e-24
5.48608e-24
8.89232e-24
1.43948e-23
2.32012e-23
3.72287e-23
5.94754e-23
9.46058e-23
1.49845e-22
2.36337e-22
3.71199e-22
5.80616e-22
9.04484e-22
1.40334e-21
2.16869e-21
3.33831e-21
5.11886e-21
7.81914e-21
1.18989e-20
1.804e-20
2.72504e-20
4.10143e-20
6.15099e-20
9.19228e-20
1.36896e-19
2.03174e-19
3.00521e-19
4.43027e-19
6.5096e-19
9.53375e-19
1.3918e-18
2.02538e-18
2.93815e-18
4.249e-18
6.12579e-18
8.80461e-18
1.26165e-17
1.80245e-17
2.56734e-17
3.64594e-17
5.16233e-17
7.28778e-17
1.02579e-16
1.43959e-16
2.01434e-16
2.81019e-16
3.90883e-16
5.42073e-16
7.49485e-16
1.03312e-15
1.41976e-15
1.9451e-15
2.65652e-15
3.61673e-15
4.90832e-15
6.63958e-15
8.95195e-15
1.20292e-14
1.61092e-14
2.14978e-14
2.85868e-14
3.78746e-14
4.99925e-14
6.57338e-14
8.60898e-14
1.1229e-13
1.45847e-13
1.88606e-13
2.428e-13
3.11096e-13
3.96653e-13
5.03154e-13
6.34836e-13
7.96479e-13
9.93369e-13
1.23119e-12
1.51584e-12
1.85319e-12
2.24863e-12
2.70659e-12
3.22982e-12
3.81854e-12
4.46942e-12
5.17449e-12
5.91998e-12
6.68524e-12
7.44198e-12
8.15404e-12
8.77819e-12
9.26617e-12
9.56846e-12
9.63989e-12
9.44634e-12
8.97144e-12
8.19618e-12
7.15495e-12
5.92484e-12
4.6282e-12
3.42017e-12
2.46899e-12
2.53602e-24
3.92794e-24
6.3447e-24
1.02373e-23
1.64473e-23
2.63081e-23
4.18996e-23
6.64497e-23
1.04946e-22
1.65064e-22
2.5857e-22
4.03425e-22
6.26943e-22
9.70503e-22
1.49655e-21
2.29895e-21
3.51833e-21
5.36454e-21
8.1496e-21
1.23359e-20
1.86059e-20
2.79641e-20
4.1883e-20
6.25146e-20
9.29932e-20
1.37869e-19
2.03725e-19
3.00056e-19
4.40515e-19
6.44664e-19
9.40453e-19
1.36769e-18
1.98287e-18
2.86599e-18
4.12987e-18
5.93324e-18
8.49861e-18
1.2137e-17
1.72818e-17
2.4535e-17
3.47299e-17
4.90168e-17
6.89776e-17
9.67815e-17
1.35393e-16
1.88847e-16
2.62624e-16
3.64132e-16
5.03353e-16
6.93693e-16
9.53077e-16
1.30539e-15
1.78234e-15
2.42581e-15
3.29094e-15
4.44996e-15
5.99708e-15
8.05456e-15
1.07803e-14
1.43772e-14
1.91045e-14
2.52912e-14
3.3353e-14
4.3811e-14
5.73138e-14
7.46632e-14
9.68412e-14
1.25041e-13
1.60695e-13
2.05508e-13
2.6148e-13
3.30924e-13
4.1647e-13
5.21047e-13
6.47838e-13
8.00194e-13
9.81494e-13
1.19495e-12
1.4433e-12
1.72849e-12
2.05116e-12
2.41013e-12
2.80176e-12
3.21931e-12
3.65224e-12
4.08576e-12
4.50053e-12
4.87288e-12
5.17564e-12
5.38005e-12
5.45883e-12
5.39016e-12
5.16249e-12
4.77939e-12
4.24203e-12
3.57716e-12
2.83811e-12
2.09907e-12
1.4435e-12
9.48719e-13
1.78342e-24
2.74697e-24
4.42117e-24
7.11073e-24
1.13883e-23
1.81604e-23
2.88376e-23
4.56034e-23
7.18248e-23
1.12672e-22
1.76056e-22
2.7403e-22
4.24894e-22
6.56328e-22
1.01004e-21
1.54866e-21
2.36587e-21
3.60133e-21
5.46249e-21
8.25644e-21
1.24362e-20
1.86676e-20
2.79266e-20
4.16382e-20
6.18769e-20
9.16523e-20
1.35318e-19
1.99149e-19
2.92166e-19
4.27291e-19
6.22982e-19
9.05517e-19
1.3122e-18
1.8958e-18
2.7308e-18
3.92188e-18
5.61584e-18
8.01781e-18
1.14136e-17
1.62e-17
2.29264e-17
3.23507e-17
4.55153e-17
6.38488e-17
8.93029e-17
1.24534e-16
1.73147e-16
2.40013e-16
3.31694e-16
4.56992e-16
6.27673e-16
8.59402e-16
1.17295e-15
1.59573e-15
2.1638e-15
2.92432e-15
3.93871e-15
5.28658e-15
7.07057e-15
9.42227e-15
1.25095e-14
1.65448e-14
2.17958e-14
2.85974e-14
3.73648e-14
4.86097e-14
6.29561e-14
8.11589e-14
1.04121e-13
1.32909e-13
1.68767e-13
2.13124e-13
2.67589e-13
3.33936e-13
4.14067e-13
5.09949e-13
6.23522e-13
7.56557e-13
9.10478e-13
1.08612e-12
1.28346e-12
1.50125e-12
1.73665e-12
1.98487e-12
2.23878e-12
2.48868e-12
2.72218e-12
2.92445e-12
3.07886e-12
3.16834e-12
3.17756e-12
3.09564e-12
2.9189e-12
2.65263e-12
2.30916e-12
1.89956e-12
1.45755e-12
1.02685e-12
6.54868e-13
3.81207e-13
1.26703e-24
1.9393e-24
3.11155e-24
4.99205e-24
7.9763e-24
1.26904e-23
2.0107e-23
3.17295e-23
4.98719e-23
7.80832e-23
1.21785e-22
1.89229e-22
2.92928e-22
4.5179e-22
6.94279e-22
1.06309e-21
1.62207e-21
2.46628e-21
3.73687e-21
5.64268e-21
8.49159e-21
1.27361e-20
1.90389e-20
2.83677e-20
4.21307e-20
6.2371e-20
9.20428e-20
1.35405e-19
1.9858e-19
2.90335e-19
4.23198e-19
6.15002e-19
8.91062e-19
1.2872e-18
1.85397e-18
2.66242e-18
3.81221e-18
5.44259e-18
7.74755e-18
1.09965e-17
1.55623e-17
2.19593e-17
3.08949e-17
4.33385e-17
6.06137e-17
8.45222e-17
1.17507e-16
1.62869e-16
2.25051e-16
3.10011e-16
4.25706e-16
5.82722e-16
7.95082e-16
1.08128e-15
1.4656e-15
1.97977e-15
2.66508e-15
3.57492e-15
4.77803e-15
6.36238e-15
8.43988e-15
1.1152e-14
1.46765e-14
1.92349e-14
2.51015e-14
3.26125e-14
4.21773e-14
5.42885e-14
6.95326e-14
8.85994e-14
1.12289e-13
1.41513e-13
1.77293e-13
2.20743e-13
2.73045e-13
3.35408e-13
4.08999e-13
4.94857e-13
5.93773e-13
7.06139e-13
8.31771e-13
9.69695e-13
1.11793e-12
1.27325e-12
1.43099e-12
1.58489e-12
1.72708e-12
1.84821e-12
1.93788e-12
1.98549e-12
1.98168e-12
1.9202e-12
1.79961e-12
1.62323e-12
1.40172e-12
1.14167e-12
8.61246e-13
5.87123e-13
3.49586e-13
1.7479e-13
9.82212e-25
1.49308e-24
2.39189e-24
3.83498e-24
6.1243e-24
9.73886e-24
1.54228e-23
2.4326e-23
3.82179e-23
5.98114e-23
9.32503e-23
1.4484e-22
2.24143e-22
3.45601e-22
5.30959e-22
8.12832e-22
1.23997e-21
1.885e-21
2.85573e-21
4.31166e-21
6.488e-21
9.73047e-21
1.45455e-20
2.16728e-20
3.21888e-20
4.76561e-20
7.03345e-20
1.03483e-19
1.51788e-19
2.21963e-19
3.23604e-19
4.70375e-19
6.81684e-19
9.84998e-19
1.41909e-18
2.03848e-18
2.91966e-18
4.16954e-18
5.9371e-18
8.42925e-18
1.19325e-17
1.68421e-17
2.37016e-17
3.3256e-17
4.65228e-17
6.48866e-17
9.02248e-17
1.25074e-16
1.72847e-16
2.38121e-16
3.27004e-16
4.47622e-16
6.10731e-16
8.3051e-16
1.12556e-15
1.52019e-15
2.04595e-15
2.74366e-15
3.66578e-15
4.87938e-15
6.46965e-15
8.54416e-15
1.12378e-14
1.47183e-14
1.91932e-14
2.4916e-14
3.21949e-14
4.13994e-14
5.29685e-14
6.74168e-14
8.53386e-14
1.07409e-13
1.3438e-13
1.67068e-13
2.06336e-13
2.53056e-13
3.08064e-13
3.72095e-13
4.4569e-13
5.29094e-13
6.22123e-13
7.24016e-13
8.33278e-13
9.47519e-13
1.06331e-12
1.17611e-12
1.2802e-12
1.36882e-12
1.43444e-12
1.46932e-12
1.46648e-12
1.42118e-12
1.33251e-12
1.203e-12
1.03952e-12
8.47529e-13
6.38853e-13
4.31476e-13
2.46891e-13
1.06322e-13
1.04347e-08
1.02965e-08
9.70336e-09
9.02796e-09
8.36376e-09
7.74254e-09
7.17734e-09
6.67217e-09
6.22538e-09
5.83149e-09
5.48253e-09
5.16885e-09
4.87962e-09
4.60339e-09
4.32858e-09
4.04467e-09
3.74457e-09
3.42966e-09
3.12046e-09
2.88073e-09
8.60787e-09
8.5038e-09
7.94021e-09
7.29015e-09
6.66491e-09
6.0968e-09
5.59339e-09
5.15311e-09
4.77027e-09
4.43711e-09
4.1448e-09
3.88388e-09
3.64465e-09
3.41736e-09
3.19269e-09
2.96271e-09
2.72281e-09
2.47569e-09
2.23938e-09
2.06355e-09
6.94856e-09
6.80683e-09
6.30939e-09
5.73701e-09
5.19016e-09
4.70009e-09
4.2726e-09
3.90417e-09
3.58776e-09
3.31512e-09
3.07766e-09
2.86685e-09
2.67436e-09
2.49224e-09
2.31325e-09
2.1316e-09
1.94448e-09
1.755e-09
1.57787e-09
1.44984e-09
5.43355e-09
5.25875e-09
4.84076e-09
4.37078e-09
3.92427e-09
3.5266e-09
3.18244e-09
2.88828e-09
2.63757e-09
2.42287e-09
2.23676e-09
2.07205e-09
1.92205e-09
1.78055e-09
1.64212e-09
1.50271e-09
1.36072e-09
1.21919e-09
1.08956e-09
9.98374e-10
4.07933e-09
3.89951e-09
3.5676e-09
3.20535e-09
2.86356e-09
2.56015e-09
2.29842e-09
2.07548e-09
1.8861e-09
1.72436e-09
1.58438e-09
1.46063e-09
1.34801e-09
1.24194e-09
1.13853e-09
1.03504e-09
9.3068e-10
8.28135e-10
7.36082e-10
6.7332e-10
2.91756e-09
2.7583e-09
2.51152e-09
2.24987e-09
2.0047e-09
1.7874e-09
1.6e-09
1.44038e-09
1.30475e-09
1.18887e-09
1.08848e-09
9.99604e-10
9.18646e-10
8.42404e-10
7.68221e-10
6.94327e-10
6.20448e-10
5.48829e-10
4.85865e-10
4.44498e-10
1.97252e-09
1.84816e-09
1.67781e-09
1.5017e-09
1.33762e-09
1.19218e-09
1.06651e-09
9.59168e-10
8.67677e-10
7.89253e-10
7.21079e-10
6.60533e-10
6.05232e-10
5.53069e-10
5.02339e-10
4.51975e-10
4.01983e-10
3.54151e-10
3.13054e-10
2.87146e-10
1.24941e-09
1.16293e-09
1.05482e-09
9.45361e-10
8.43783e-10
7.53558e-10
6.75275e-10
6.08083e-10
5.50486e-10
5.00798e-10
4.57351e-10
4.18579e-10
3.83025e-10
3.494e-10
3.16681e-10
2.84265e-10
2.52284e-10
2.22085e-10
1.96797e-10
1.81504e-10
7.32167e-10
6.78739e-10
6.16603e-10
5.54769e-10
4.97495e-10
4.46407e-10
4.0176e-10
3.63114e-10
3.29703e-10
3.00633e-10
2.75018e-10
2.52009e-10
2.30804e-10
2.10694e-10
1.91113e-10
1.71751e-10
1.52759e-10
1.35073e-10
1.20649e-10
1.12242e-10
3.87857e-10
3.59173e-10
3.27892e-10
2.9718e-10
2.68665e-10
2.43032e-10
2.20385e-10
2.00543e-10
1.83175e-10
1.67887e-10
1.54273e-10
1.41941e-10
1.30513e-10
1.19661e-10
1.09116e-10
9.87508e-11
8.86757e-11
7.94299e-11
7.2044e-11
6.78535e-11
1.82756e-10
1.69656e-10
1.5641e-10
1.43563e-10
1.31549e-10
1.2058e-10
1.10704e-10
1.01869e-10
9.39712e-11
8.68734e-11
8.04329e-11
7.45073e-11
6.8964e-11
6.36905e-11
5.86109e-11
5.37103e-11
4.90781e-11
4.49537e-11
4.17543e-11
4.0018e-11
8.16731e-11
7.61919e-11
7.10721e-11
6.61739e-11
6.1546e-11
5.72361e-11
5.32625e-11
4.96168e-11
4.62732e-11
4.31948e-11
4.0341e-11
3.76712e-11
3.51504e-11
3.2754e-11
3.04759e-11
2.83379e-11
2.64023e-11
2.47758e-11
2.35967e-11
2.30004e-11
3.46313e-11
3.25458e-11
3.07943e-11
2.91503e-11
2.7573e-11
2.60615e-11
2.46197e-11
2.32484e-11
2.19461e-11
2.07091e-11
1.95316e-11
1.84088e-11
1.73387e-11
1.63251e-11
1.53811e-11
1.4532e-11
1.38181e-11
1.32894e-11
1.29837e-11
1.28847e-11
1.39492e-11
1.32343e-11
1.27404e-11
1.22965e-11
1.18585e-11
1.14156e-11
1.09669e-11
1.05141e-11
1.006e-11
9.60797e-12
9.1616e-12
8.72519e-12
8.30506e-12
7.9105e-12
7.55533e-12
7.25895e-12
7.04602e-12
6.94113e-12
6.95109e-12
7.02516e-12
5.34967e-12
5.13094e-12
5.04298e-12
4.97992e-12
4.91099e-12
4.82674e-12
4.72492e-12
4.60626e-12
4.47315e-12
4.32895e-12
4.17782e-12
4.02457e-12
3.87526e-12
3.73752e-12
3.62135e-12
3.53934e-12
3.50593e-12
3.53359e-12
3.62113e-12
3.72498e-12
1.96243e-12
1.90182e-12
1.91527e-12
1.94285e-12
1.96594e-12
1.97798e-12
1.97688e-12
1.96268e-12
1.9367e-12
1.90105e-12
1.8585e-12
1.81237e-12
1.7667e-12
1.72642e-12
1.69763e-12
1.68772e-12
1.70478e-12
1.75523e-12
1.83673e-12
1.92042e-12
6.95079e-13
6.77257e-13
7.01023e-13
7.33692e-13
7.64524e-13
7.89419e-13
8.06893e-13
8.16766e-13
8.1963e-13
8.16589e-13
8.09155e-13
7.99215e-13
7.89061e-13
7.81498e-13
7.79937e-13
7.88404e-13
8.11229e-13
8.51688e-13
9.08009e-13
9.63087e-13
2.42534e-13
2.33836e-13
2.49068e-13
2.70072e-13
2.90686e-13
3.08567e-13
3.22847e-13
3.33353e-13
3.40311e-13
3.44222e-13
3.45818e-13
3.46046e-13
3.46093e-13
3.47421e-13
3.51812e-13
3.61355e-13
3.78271e-13
4.04207e-13
4.38079e-13
4.70403e-13
8.66896e-14
7.95708e-14
8.69492e-14
9.78454e-14
1.08856e-13
1.18784e-13
1.2718e-13
1.33917e-13
1.39053e-13
1.42786e-13
1.45435e-13
1.47439e-13
1.4937e-13
1.51943e-13
1.56043e-13
1.62711e-13
1.73058e-13
1.87906e-13
2.06682e-13
2.24393e-13
3.26905e-14
2.72623e-14
3.02764e-14
3.51944e-14
4.03457e-14
4.51682e-14
4.94311e-14
5.30437e-14
5.60013e-14
5.83676e-14
6.02688e-14
6.18952e-14
6.35058e-14
6.54359e-14
6.81064e-14
7.20228e-14
7.7739e-14
8.56999e-14
9.57144e-14
1.05347e-13
0.001
0.001
0.001
0.001
0.001
0.001
0.001
0.001
0.001
0.001
0.001
0.001
0.001
0.001
0.001
0.001
0.001
0.001
0.001
0.001
0.001
0.001
0.001
0.001
0.001
0.001
0.001
0.001
0.001
0.001
0.001
0.001
0.001
0.001
0.001
0.001
0.001
0.001
0.001
0.001
0.001
0.001
0.001
0.001
0.001
0.001
0.001
0.001
0.001
0.001
0.001
0.001
0.001
0.001
0.001
0.001
0.001
0.001
0.001
0.001
0.001
0.001
0.001
0.001
0.001
0.001
0.001
0.001
0.001
0.001
0.001
0.001
0.001
0.001
0.001
0.001
0.001
0.001
0.001
0.001
0.001
0.001
0.001
0.001
0.001
0.001
0.001
0.001
0.001
0.001
0.001
0.001
0.001
0.001
0.001
0.001
0.001
0.001
0.001
0.001
0.001
0.001
0.001