/*--------------------------------*- C++ -*----------------------------------*\
| =========                 |                                                 |
| \\      /  F ield         | OpenFOAM: The Open Source CFD Toolbox           |
|  \\    /   O peration     | Version:  2.1.0                                 |
|   \\  /    A nd           | Web:      www.OpenFOAM.org                      |
|    \\/     M anipulation  |                                                 |
\*---------------------------------------------------------------------------*/
FoamFile
{
    version     2.0;
    format      ascii;
    class       volScalarField;
    location    "0.11";
    object      k;
}
// * * * * * * * * * * * * * * * * * * * * * * * * * * * * * * * * * * * * * //

dimensions      [0 2 -2 0 0 0 0];

internalField   nonuniform List<scalar> 
6400
(
0.0229846
0.0226803
0.0225496
0.0222931
0.0221505
0.0219132
0.0217698
0.0215613
0.0214281
0.0212574
0.0211465
0.0210219
0.020946
0.0208683
0.0208234
0.020782
0.0207678
0.0207685
0.0207847
0.0208187
0.0208704
0.0209416
0.0210318
0.0211423
0.021272
0.0214206
0.0215865
0.0217682
0.0219629
0.0221678
0.0223799
0.0225959
0.0228127
0.0230271
0.0232365
0.0234396
0.0236353
0.0238219
0.0239978
0.0241616
0.0243126
0.0244501
0.0245736
0.0246825
0.0247767
0.024856
0.0249208
0.0249732
0.0250029
0.0250096
0.0250065
0.0249906
0.024959
0.0249108
0.0248454
0.0247617
0.0246596
0.0245402
0.0244064
0.0242574
0.0240939
0.0239152
0.0237207
0.0235068
0.0232738
0.0230246
0.0227622
0.022484
0.022177
0.0218476
0.0215056
0.0211404
0.0207493
0.0203394
0.0199112
0.0194636
0.0190001
0.0185238
0.0180368
0.0175405
0.017034
0.0165088
0.0159437
0.0153722
0.014782
0.0141601
0.0134967
0.0127679
0.0119467
0.011
0.00987588
0.00850154
0.00679597
0.00473168
0.00253404
0.00166579
0.00211129
0.00426743
0.00626508
0.00689465
0.0143737
0.0149488
0.0152509
0.0158493
0.0163985
0.0170993
0.0177987
0.0186301
0.0194727
0.0204296
0.021387
0.0224222
0.0234383
0.0245083
0.0255507
0.0266344
0.0276911
0.0287821
0.0298554
0.030962
0.032065
0.0331967
0.0343294
0.0354792
0.0366267
0.0377775
0.0389176
0.0400467
0.0411545
0.0422382
0.0432924
0.0443152
0.0453042
0.0462575
0.0471737
0.0480543
0.0488993
0.0497078
0.0504798
0.0512162
0.0519183
0.0525871
0.0532237
0.0538292
0.0544056
0.0549537
0.055474
0.0559661
0.0564301
0.0568679
0.0572837
0.0576792
0.0580533
0.0584047
0.0587331
0.0590339
0.0593047
0.0595493
0.0597799
0.059985
0.0601647
0.060327
0.0604665
0.060567
0.0606386
0.0606776
0.06069
0.0606765
0.0605937
0.0604753
0.0603112
0.0600666
0.0597573
0.0593845
0.0589263
0.0583787
0.0577427
0.0570106
0.056178
0.0552478
0.0542258
0.0531107
0.0518974
0.0505148
0.0489732
0.0472091
0.0452063
0.042911
0.0402939
0.0373269
0.0339918
0.0302809
0.0262219
0.0220617
0.0179088
0.0139668
0.0108731
0.00868997
0.00729985
0.00603017
0.00936552
0.010681
0.0112521
0.0124673
0.0132142
0.0145134
0.0154508
0.0168191
0.0179323
0.0193435
0.020591
0.0220306
0.0233675
0.0248344
0.0262298
0.0277166
0.0291397
0.0306247
0.0320611
0.0335477
0.0350049
0.0364957
0.0379632
0.0394447
0.0409019
0.0423548
0.0437785
0.0451811
0.046547
0.0478793
0.0491701
0.0504199
0.0516253
0.0527864
0.0539024
0.054972
0.0559957
0.0569733
0.0579046
0.0587907
0.0596321
0.0604284
0.0611799
0.0618886
0.0625567
0.0631852
0.0637739
0.0643202
0.0648224
0.065285
0.0657154
0.0661099
0.0664621
0.0667794
0.0670693
0.0673193
0.0675205
0.0676993
0.0678491
0.067941
0.0679842
0.0679993
0.0679868
0.0678904
0.06775
0.0675804
0.0673365
0.0670312
0.0666755
0.0662526
0.0657459
0.0651581
0.0644902
0.0637225
0.0628426
0.0618521
0.0607394
0.0594927
0.0581097
0.0565893
0.0549267
0.0531209
0.051174
0.0491106
0.0469217
0.0446199
0.0422066
0.0396825
0.037021
0.0341971
0.0311848
0.0279665
0.0245008
0.0208129
0.0169822
0.0132619
0.0101284
0.00762681
0.00575004
0.00387068
0.00927926
0.0109546
0.0116722
0.013155
0.0140165
0.0155138
0.0165158
0.0180189
0.0191675
0.0206829
0.0219767
0.023508
0.0249146
0.0264628
0.0279471
0.0295162
0.0310486
0.0326356
0.0341918
0.035783
0.0373484
0.0389408
0.0405032
0.0420735
0.0436084
0.0451354
0.0466226
0.048085
0.0495022
0.0508822
0.052214
0.0535003
0.0547353
0.055919
0.0570487
0.0581234
0.0591422
0.060105
0.0610117
0.061863
0.0626579
0.0633936
0.0640691
0.0646883
0.065253
0.065764
0.0662257
0.0666302
0.0669647
0.0672441
0.0674836
0.0676627
0.0677599
0.0678038
0.067815
0.0677684
0.0676083
0.0674059
0.0671507
0.066789
0.0663623
0.065876
0.0652882
0.0646104
0.0638634
0.0630232
0.0620796
0.0610576
0.059949
0.0587399
0.0574452
0.0560716
0.0546097
0.0530675
0.0514519
0.0497607
0.0479939
0.0461634
0.0442709
0.0423207
0.0403173
0.0382589
0.0361437
0.0339794
0.0317755
0.0295438
0.027283
0.0250022
0.0226995
0.0204083
0.0181592
0.0159448
0.0137456
0.0115999
0.00954692
0.00762665
0.00585299
0.00436744
0.00333021
0.00284832
0.00987176
0.0115797
0.0122997
0.0137635
0.0145971
0.0160743
0.017031
0.0185189
0.0196125
0.0211076
0.0223351
0.0238331
0.0251707
0.0266681
0.0280863
0.0295832
0.031049
0.0325456
0.0340284
0.0355241
0.0370024
0.0384839
0.0399361
0.041381
0.0427847
0.0441698
0.0455062
0.0468098
0.0480587
0.0492626
0.0504076
0.0514975
0.0525241
0.0534881
0.054385
0.0552129
0.0559689
0.056652
0.0572623
0.0578029
0.0582731
0.0586621
0.0589635
0.0591931
0.0593274
0.0593829
0.0593971
0.0593529
0.0591707
0.0589176
0.0586267
0.0582371
0.0577542
0.0572216
0.0566187
0.0559237
0.0551614
0.0543479
0.0534592
0.0524975
0.0514889
0.0504196
0.0492803
0.0480954
0.0468635
0.0455741
0.0442429
0.0428771
0.0414639
0.0400137
0.0385278
0.0370066
0.0354527
0.0338711
0.0322599
0.0306188
0.0289685
0.0273126
0.0256685
0.0240221
0.0223784
0.0207273
0.0190985
0.0175095
0.0159991
0.0145693
0.0132237
0.0118642
0.0106255
0.00947197
0.00845475
0.00743465
0.00644755
0.00558725
0.00483612
0.00406945
0.00342335
0.00303394
0.0028555
0.00282401
0.00973906
0.0112241
0.011839
0.0130699
0.0137633
0.0150181
0.0157997
0.0170754
0.0179552
0.0192345
0.0202154
0.0214844
0.022556
0.0238092
0.024948
0.0261816
0.0273584
0.0285696
0.0297534
0.0309386
0.0320995
0.0332458
0.0343574
0.0354448
0.036485
0.0374919
0.0384414
0.0393463
0.0401875
0.0409743
0.041692
0.0423453
0.0429256
0.0434358
0.0438743
0.0442388
0.0445202
0.0447195
0.0448192
0.0448576
0.0448611
0.0447793
0.0445705
0.0443122
0.044008
0.043612
0.0431475
0.0426355
0.0420518
0.0414049
0.0407183
0.0399734
0.039167
0.0383226
0.0374314
0.0364891
0.0355121
0.0345037
0.033456
0.0323794
0.0312796
0.0301533
0.0290035
0.0278431
0.0266652
0.0254708
0.0242695
0.023059
0.021844
0.020633
0.0194695
0.0183245
0.0172303
0.01616
0.0151405
0.0141523
0.01323
0.0123327
0.0115034
0.0106933
0.00994373
0.00921997
0.00856524
0.00794057
0.00738043
0.00684437
0.00634935
0.00588113
0.00545814
0.00505656
0.00468436
0.00432512
0.00399167
0.00369291
0.00341355
0.00317964
0.0030064
0.00293027
0.0029149
0.00298451
0.00854411
0.00964289
0.0100901
0.0109743
0.0114653
0.0123687
0.0128997
0.013817
0.0143917
0.0153084
0.0159401
0.0168412
0.0175337
0.0184065
0.0191418
0.0199796
0.0207325
0.0215324
0.0222775
0.0230331
0.0237438
0.0244435
0.0250969
0.0257263
0.0263037
0.0268472
0.0273328
0.0277752
0.0281565
0.0284886
0.0287565
0.0289652
0.0291011
0.0291619
0.0291817
0.0291719
0.0290637
0.0288729
0.0286548
0.0283783
0.0280295
0.0276342
0.0271886
0.0266908
0.0261555
0.0255747
0.0249504
0.0242969
0.0236102
0.0228906
0.0221495
0.0213937
0.0206317
0.01987
0.0191142
0.0183567
0.0176112
0.0168746
0.0161416
0.0154275
0.0147252
0.0140444
0.013379
0.0127392
0.0121186
0.0115204
0.0109469
0.0103997
0.00987569
0.00938214
0.00891649
0.00847352
0.00806244
0.00767199
0.0073099
0.00696927
0.00665391
0.00635411
0.00607938
0.00581517
0.00557508
0.00534405
0.00513476
0.00493022
0.00474563
0.00456186
0.00439385
0.00422871
0.00407332
0.00392213
0.00377962
0.00364316
0.0035195
0.0034089
0.00331732
0.00326338
0.00323967
0.00325678
0.00340475
0.00348788
0.00682598
0.00754071
0.00782494
0.00837469
0.0086616
0.00920471
0.00949482
0.0100226
0.0103128
0.0108363
0.011139
0.0116449
0.011968
0.0124332
0.0127687
0.0131865
0.0135263
0.0138989
0.0142244
0.0145469
0.0148382
0.0151055
0.0153471
0.015555
0.0157345
0.0158792
0.0159898
0.0160524
0.0160789
0.016086
0.0160677
0.0159857
0.0158686
0.0157385
0.0155721
0.0153668
0.015138
0.0148873
0.0146159
0.0143235
0.0140118
0.0136896
0.0133551
0.0130095
0.0126616
0.0123115
0.0119575
0.0116085
0.0112648
0.0109257
0.0105956
0.0102779
0.00997129
0.00967879
0.00940058
0.00913416
0.00888264
0.00864505
0.0084192
0.0082094
0.00801057
0.0078265
0.00765213
0.00749211
0.00734099
0.00720159
0.00707423
0.0069568
0.00684878
0.0067511
0.00666103
0.0065781
0.0065045
0.0064346
0.00637241
0.00631361
0.00625953
0.00620773
0.00615957
0.0061115
0.00606654
0.00602016
0.00597503
0.00592668
0.00587787
0.00582166
0.00576213
0.00569247
0.00561601
0.00552899
0.00543398
0.00533184
0.00522747
0.00512705
0.0050497
0.00501492
0.00501026
0.0051419
0.00535416
0.0054915
0.00509128
0.00549981
0.00565561
0.00593712
0.00607463
0.00631713
0.00643537
0.00664797
0.00675408
0.00695227
0.0070529
0.00723686
0.00732776
0.00749131
0.0075754
0.00771193
0.0077979
0.00790678
0.00798641
0.00806632
0.00813089
0.00818328
0.00822679
0.00825135
0.0082627
0.00826595
0.00826369
0.00824252
0.00820671
0.00816744
0.00811925
0.00805497
0.00798511
0.00791589
0.00783859
0.00775424
0.00767137
0.00758815
0.007502
0.00741742
0.00733601
0.00725678
0.00718104
0.00711075
0.00704644
0.0069882
0.00693647
0.00689256
0.00685627
0.00682761
0.00680696
0.00679636
0.00679196
0.00679171
0.00680609
0.00682179
0.0068504
0.00688155
0.00692347
0.0069698
0.00702457
0.00708538
0.00715286
0.00722731
0.00730776
0.00739515
0.0074887
0.00758868
0.007695
0.00780827
0.00792771
0.00805432
0.00818797
0.00832873
0.00847751
0.00863364
0.0087979
0.00896988
0.00915004
0.00933743
0.00953227
0.00973355
0.00994105
0.0101535
0.0103701
0.0105899
0.0108112
0.0110313
0.0112442
0.0114493
0.0116418
0.011822
0.0119881
0.0121449
0.0122982
0.0124767
0.0127408
0.0131425
0.0136419
0.0139624
0.0040883
0.00434718
0.00443981
0.00458372
0.00464963
0.00474419
0.00478727
0.00485165
0.0048825
0.00493209
0.00495543
0.00499071
0.00500686
0.00503209
0.00504432
0.005066
0.0050779
0.00509789
0.00510902
0.00512448
0.0051357
0.00514774
0.00515847
0.00516755
0.00517711
0.00518635
0.00519654
0.00520593
0.00521506
0.00522677
0.00523882
0.00525231
0.00526703
0.00528568
0.0053057
0.0053281
0.00535377
0.00538243
0.00541324
0.00544735
0.00548512
0.0055259
0.00557036
0.00561918
0.00567208
0.00572921
0.00579105
0.00585752
0.00592865
0.00600475
0.00608576
0.00617176
0.00626286
0.00635922
0.00646094
0.00656792
0.00668055
0.00679819
0.00692183
0.00705075
0.00718553
0.00732618
0.00747283
0.00762588
0.00778545
0.00795205
0.00812597
0.00830756
0.00849741
0.00869592
0.00890366
0.00912126
0.00934939
0.00958864
0.00983983
0.0101036
0.0103808
0.0106723
0.010979
0.0113019
0.0116422
0.0120012
0.0123802
0.0127806
0.0132041
0.0136522
0.0141264
0.0146289
0.0151656
0.0157373
0.0163531
0.0170148
0.0177322
0.01851
0.0193588
0.020281
0.0212632
0.0222508
0.0228231
0.0230246
0.00414473
0.00441068
0.00450645
0.00465768
0.00472745
0.00482991
0.00487693
0.00494834
0.00498265
0.00503864
0.00506527
0.005107
0.00512644
0.00515794
0.00517335
0.00520072
0.00521587
0.0052411
0.00525497
0.00527461
0.0052879
0.00530298
0.00531502
0.00532573
0.00533513
0.00534351
0.00535201
0.00536031
0.00536674
0.00537404
0.00538175
0.00539118
0.00539952
0.00541057
0.00542389
0.00543878
0.00545528
0.00547507
0.00549698
0.00552095
0.00554852
0.00557911
0.00561255
0.00565023
0.00569193
0.00573725
0.00578745
0.00584209
0.00590089
0.00596499
0.00603393
0.00610732
0.00618622
0.00627012
0.00635889
0.00645326
0.00655273
0.00665725
0.00676703
0.00688174
0.00700156
0.00712678
0.00725734
0.00739338
0.00753539
0.00768317
0.00783731
0.00799768
0.00816493
0.00833876
0.00852017
0.00870873
0.00890545
0.00911021
0.00932361
0.00954597
0.00977748
0.0100187
0.0102699
0.0105317
0.0108046
0.0110894
0.011387
0.0116984
0.0120249
0.0123678
0.0127292
0.013111
0.0135161
0.013947
0.0144051
0.0148974
0.0154336
0.0160221
0.0166789
0.0174209
0.0182663
0.0192007
0.0199311
0.0202454
0.0051771
0.00559722
0.00575804
0.00605185
0.00619626
0.0064557
0.00658291
0.00681304
0.00692792
0.00714222
0.00725195
0.00745445
0.00755645
0.0077387
0.00783815
0.00799467
0.00809688
0.00822726
0.00832267
0.00842488
0.00850387
0.00857823
0.00863634
0.0086827
0.00871146
0.00872386
0.00872788
0.00872521
0.00870194
0.00866079
0.0086165
0.00856218
0.00848934
0.00840792
0.00832603
0.00823493
0.0081341
0.00803327
0.00792954
0.00782048
0.00771354
0.00760717
0.0074991
0.00739598
0.00729672
0.00719928
0.00710946
0.00702565
0.00694565
0.00687508
0.00681176
0.00675391
0.00670529
0.00666422
0.00662888
0.00660253
0.0065829
0.00657019
0.00656438
0.00656271
0.0065684
0.00657952
0.00659631
0.00661686
0.00664348
0.00667285
0.00670744
0.00674412
0.00678446
0.00682498
0.00686886
0.00691147
0.00695571
0.00699871
0.00704078
0.00708125
0.00711882
0.00715343
0.00718367
0.00720966
0.00723026
0.00724585
0.00725474
0.00725872
0.00725963
0.00725455
0.00724617
0.00723717
0.00722767
0.00722319
0.00722184
0.00723
0.00724794
0.00729041
0.00736129
0.00748835
0.00769928
0.00803683
0.00850572
0.0088251
0.00682462
0.00754622
0.00783346
0.00839039
0.00868414
0.00924056
0.00954464
0.0100906
0.0103971
0.01094
0.0112616
0.0117901
0.0121385
0.0126337
0.0130013
0.0134571
0.0138295
0.0142459
0.0146043
0.014977
0.0153023
0.0156229
0.0159046
0.0161675
0.0163927
0.0165895
0.0167492
0.0168765
0.0169572
0.0169937
0.0170057
0.0170008
0.0169375
0.0168223
0.0166938
0.0165308
0.0163234
0.0160926
0.0158324
0.0155405
0.0152344
0.0149053
0.0145497
0.0141855
0.0138066
0.0134108
0.0130144
0.0126126
0.0122029
0.0118008
0.0114016
0.0110044
0.0106197
0.0102475
0.00988325
0.00953891
0.00920686
0.0088878
0.0085857
0.00830086
0.00802244
0.00776792
0.00752095
0.00728734
0.00706952
0.0068597
0.0066618
0.00647467
0.00629948
0.00613143
0.00597728
0.00582678
0.00568685
0.00555221
0.00542317
0.00529932
0.00517972
0.00506393
0.0049512
0.00484206
0.00473452
0.00463032
0.00452831
0.00442952
0.00433334
0.00424109
0.00415172
0.00406762
0.00398859
0.00391688
0.00385191
0.00379661
0.0037495
0.00371658
0.00370213
0.00370079
0.00377429
0.00390068
0.00410162
0.0041933
0.00837688
0.00946828
0.00991302
0.0107938
0.0112846
0.012189
0.0127253
0.0136447
0.014229
0.0151481
0.0157912
0.0166967
0.0174035
0.0182867
0.0190419
0.0198987
0.0206801
0.021509
0.0222934
0.0230896
0.023851
0.0246042
0.0253186
0.0260138
0.0266625
0.0272827
0.0278498
0.0283788
0.0288499
0.0292746
0.0296407
0.0299533
0.0302013
0.0303899
0.0305002
0.030547
0.0305597
0.0305274
0.0303842
0.0301829
0.02995
0.0296406
0.0292666
0.0288485
0.0283672
0.0278351
0.0272637
0.0266356
0.0259628
0.0252585
0.0245097
0.0237237
0.0229162
0.0220946
0.0212576
0.020432
0.0196023
0.0187749
0.0179601
0.0171681
0.0163684
0.0156062
0.014853
0.0141213
0.0134193
0.0127405
0.0120881
0.0114659
0.0108717
0.0103025
0.0097662
0.00926223
0.00878706
0.00834569
0.00792747
0.00753715
0.00716549
0.00682143
0.00649116
0.00618867
0.0058958
0.00562462
0.00535967
0.00511669
0.00487835
0.00466195
0.00444717
0.00424605
0.00404641
0.00386519
0.00369105
0.00353727
0.00338637
0.00325374
0.0031317
0.00304693
0.00300718
0.00299828
0.00311444
0.00319204
0.00938226
0.0108276
0.011427
0.0126289
0.013307
0.0145353
0.0153062
0.0165581
0.0174326
0.0186922
0.0196704
0.0209251
0.0219968
0.0232436
0.024387
0.0256242
0.026813
0.0280386
0.0292436
0.0304545
0.031648
0.0328333
0.0339913
0.0351324
0.0362332
0.037308
0.0383325
0.0393198
0.0402494
0.0411303
0.0419479
0.0427068
0.0433979
0.0440231
0.044578
0.0450632
0.0454794
0.0458197
0.0460775
0.0462551
0.0463368
0.0463646
0.0463597
0.046248
0.0460229
0.0457603
0.0454378
0.0450195
0.0445425
0.0440148
0.0434073
0.0427408
0.042036
0.0412637
0.0404294
0.0395569
0.0386317
0.0376483
0.0366287
0.0355682
0.0344664
0.0333343
0.0321795
0.030993
0.0297869
0.0285644
0.0273257
0.0260691
0.024808
0.0235356
0.0222544
0.021018
0.0198158
0.0186689
0.0175623
0.016514
0.0154809
0.0145083
0.0135481
0.0126583
0.0117922
0.0109979
0.0102053
0.00947039
0.00873983
0.00808579
0.00747288
0.00691093
0.00631559
0.00574815
0.00523037
0.00479396
0.00437284
0.00393824
0.00352122
0.00318763
0.00297371
0.00285743
0.00282784
0.00286923
0.00937904
0.0110083
0.0116979
0.013106
0.0139129
0.0153346
0.0162658
0.0177034
0.0187726
0.0202233
0.0214273
0.0228898
0.0242072
0.0256784
0.0270797
0.0285598
0.0300145
0.0315044
0.0329833
0.0344798
0.0359619
0.0374537
0.0389217
0.0403904
0.0418242
0.0432459
0.0446256
0.0459795
0.0472859
0.048553
0.0497674
0.0509327
0.0520413
0.0530927
0.0540831
0.055011
0.055874
0.0566694
0.0573952
0.0580516
0.0586387
0.0591597
0.0596124
0.0599836
0.0602726
0.0604971
0.0606267
0.0606807
0.0606948
0.0606522
0.0604748
0.0602302
0.0599488
0.0595679
0.0590972
0.0585769
0.057985
0.0573064
0.056562
0.0557531
0.0548737
0.0539239
0.052916
0.0518537
0.0507255
0.0495475
0.0483276
0.0470527
0.0457334
0.0443809
0.042986
0.0415469
0.0400723
0.0385535
0.0369979
0.0354203
0.0338271
0.0322118
0.0305671
0.0288831
0.0271723
0.0254712
0.02379
0.0220999
0.0203234
0.0184521
0.016719
0.0152687
0.0138957
0.01221
0.010497
0.00903584
0.0080267
0.00693676
0.00559475
0.0044
0.0038066
0.00313205
0.00285783
0.00277113
0.00875911
0.0103383
0.0110169
0.0124247
0.0132486
0.0146759
0.0156417
0.01708
0.0181909
0.0196438
0.0208964
0.0223755
0.0237444
0.0252504
0.0266988
0.0282329
0.0297326
0.0312887
0.0328181
0.0343893
0.0359386
0.0375194
0.0390762
0.0406476
0.0421915
0.0437317
0.0452377
0.0467266
0.0481768
0.0495942
0.0509683
0.0523012
0.0535874
0.0548261
0.0560146
0.0571519
0.0582367
0.0592681
0.0602458
0.0611703
0.0620413
0.0628591
0.0636228
0.0643303
0.0649824
0.0655835
0.0661345
0.0666362
0.0670943
0.0675007
0.0678426
0.0681365
0.0683971
0.0686033
0.0687467
0.0688315
0.068867
0.0688735
0.0688146
0.068662
0.068477
0.0682167
0.0678644
0.0674603
0.0669774
0.0663986
0.0657496
0.0650157
0.06418
0.0632638
0.0622593
0.0611562
0.0599682
0.0586892
0.0573227
0.0558722
0.0543408
0.0527362
0.0510564
0.0492982
0.0474585
0.0455363
0.0435365
0.041468
0.0393074
0.0370237
0.0346014
0.032077
0.029495
0.0267749
0.0238795
0.0209146
0.0179465
0.0149596
0.0120895
0.00941564
0.00708091
0.00507953
0.00366925
0.00301091
0.00888608
0.0101112
0.0106429
0.011775
0.0124702
0.013683
0.0145619
0.0158438
0.0168966
0.0182339
0.019427
0.0208067
0.0220948
0.0235126
0.024868
0.0263196
0.027715
0.0291776
0.0305933
0.0320566
0.0334905
0.0349581
0.0364097
0.0378814
0.0393344
0.0407877
0.0422181
0.0436341
0.0450201
0.0463769
0.047697
0.0489797
0.0502216
0.0514215
0.0525776
0.0536892
0.0547558
0.0557778
0.0567545
0.057687
0.0585753
0.0594204
0.0602228
0.0609825
0.061701
0.062381
0.0630248
0.0636335
0.0642075
0.0647452
0.0652448
0.0657121
0.0661544
0.0665676
0.0669453
0.0672923
0.0676166
0.0679189
0.0681863
0.06842
0.0686472
0.0688489
0.0690017
0.0691252
0.0692133
0.0692536
0.0692677
0.0692515
0.0691527
0.0690251
0.0688417
0.0685822
0.0682663
0.0678605
0.0673569
0.0667566
0.0660338
0.0651794
0.0641741
0.0630116
0.0616708
0.060133
0.0583959
0.0564476
0.0542802
0.0518886
0.0492665
0.0464137
0.0433397
0.0400123
0.0364082
0.0324791
0.0282295
0.0236936
0.0191116
0.0149386
0.0113481
0.00868326
0.00655596
0.00432553
0.0139288
0.0144327
0.0147182
0.0152508
0.015756
0.016398
0.0170394
0.0178032
0.0185787
0.0194669
0.0203633
0.0213435
0.0223114
0.0233366
0.0243399
0.0253873
0.0264114
0.027471
0.0285139
0.0295877
0.0306586
0.0317585
0.0328653
0.0339941
0.035126
0.0362657
0.0374006
0.0385303
0.0396451
0.0407405
0.0418106
0.042852
0.0438619
0.0448388
0.0457813
0.0466891
0.0475611
0.0483967
0.0491969
0.0499604
0.0506882
0.0513822
0.0520437
0.0526734
0.0532727
0.0538434
0.0543878
0.0549072
0.0554022
0.0558734
0.0563216
0.0567497
0.0571613
0.0575584
0.0579401
0.0583067
0.0586602
0.0589992
0.0593192
0.0596213
0.0599113
0.0601913
0.060452
0.0606952
0.0609271
0.0611449
0.0613489
0.0615297
0.0616767
0.0618029
0.0618868
0.0619243
0.0619337
0.0618696
0.061723
0.0615042
0.0611715
0.0607425
0.0601773
0.0594678
0.0586082
0.0575724
0.0563509
0.0549351
0.0533193
0.0514568
0.0493463
0.0469184
0.0440458
0.0407224
0.0367823
0.0323832
0.0277542
0.0230514
0.0186567
0.0146383
0.0115245
0.00941504
0.00797881
0.00662945
0.0229115
0.0225962
0.0224603
0.0221923
0.0220419
0.0217916
0.0216368
0.021413
0.0212643
0.021075
0.0209444
0.0207963
0.0206968
0.0205953
0.0205285
0.0204653
0.0204253
0.0203991
0.0203953
0.0204055
0.020433
0.0204795
0.0205455
0.0206323
0.0207394
0.0208669
0.0210135
0.021178
0.0213583
0.0215519
0.0217559
0.0219673
0.0221829
0.0224
0.0226158
0.0228278
0.023034
0.0232331
0.0234242
0.0236055
0.0237756
0.0239337
0.0240794
0.0242122
0.0243316
0.0244374
0.0245295
0.024608
0.0246729
0.0247242
0.024764
0.0247846
0.0247884
0.0247837
0.0247675
0.0247386
0.0246965
0.0246405
0.0245694
0.0244836
0.0243852
0.0242763
0.0241547
0.0240202
0.023873
0.0237147
0.0235439
0.0233569
0.0231519
0.0229309
0.022693
0.0224367
0.0221628
0.0218577
0.0215249
0.0211727
0.0207794
0.0203571
0.0199019
0.0194068
0.0188749
0.0183043
0.0176922
0.0170376
0.0163361
0.0155714
0.0147173
0.0137166
0.0125531
0.0111675
0.00944699
0.00741292
0.00540641
0.00360915
0.0023654
0.00177293
0.00206789
0.00431568
0.0067029
0.00748821
0.00637661
0.00172124
0.00157308
0.00150505
0.00142827
0.00136342
0.00133929
0.00133539
0.00133852
0.00135187
0.00136047
0.00136084
0.00134055
0.00132956
0.00133737
0.00149081
0.00208846
0.00342794
0.00481856
0.00484935
0.00439733
0.00178667
0.00165488
0.00159349
0.00147273
0.00142915
0.00141508
0.00140984
0.00140952
0.00141666
0.00141877
0.00140828
0.00138675
0.0013822
0.00143384
0.00171423
0.00240846
0.00378793
0.00471391
0.00431924
0.00305423
0.00192
0.00180179
0.00163402
0.00155118
0.00151896
0.00150483
0.00150001
0.00149972
0.00150195
0.001487
0.00146196
0.00145282
0.0014752
0.00161954
0.00202621
0.00288877
0.00410088
0.00451829
0.0037443
0.00264557
0.0020099
0.00188033
0.00173392
0.00168674
0.00164995
0.00163294
0.0016244
0.00161625
0.00160226
0.00156715
0.00155663
0.00157291
0.00166059
0.00192846
0.00249552
0.00341905
0.00413532
0.00423403
0.00313676
0.00260322
0.00214991
0.00204151
0.00192121
0.00187788
0.00183387
0.00181833
0.00180278
0.00179547
0.00176584
0.00174317
0.00176366
0.00183912
0.00204095
0.00247615
0.00313016
0.00384866
0.00409309
0.0038575
0.00252518
0.00267192
0.00239168
0.00230464
0.00221069
0.00217942
0.00215984
0.00215853
0.00216416
0.00216941
0.00216926
0.00219092
0.00228599
0.00249415
0.00282462
0.00329152
0.00376818
0.00397436
0.00397991
0.00332888
0.00193374
0.00308688
0.002987
0.00294224
0.00291944
0.00294953
0.00299956
0.00307671
0.00316232
0.00326629
0.00331287
0.00328733
0.00342726
0.00356369
0.00379989
0.00400151
0.00409239
0.00401385
0.00370475
0.00262507
0.00139143
0.00526513
0.00538289
0.00552417
0.0056723
0.0058755
0.00595029
0.00585913
0.0055362
0.00538598
0.00510711
0.00499527
0.00490164
0.00485306
0.00475516
0.00465117
0.00426954
0.0038952
0.00314203
0.00182406
0.000928854
0.0135131
0.0132588
0.0128591
0.011933
0.0110039
0.010133
0.00933562
0.00867951
0.00805419
0.0075556
0.00703848
0.00661948
0.00605467
0.00561087
0.00486371
0.00418699
0.00345317
0.00223916
0.00107936
0.000541385
0.0202242
0.0185996
0.0173523
0.0154313
0.0144547
0.012867
0.0120917
0.0108084
0.0101789
0.00907345
0.00852112
0.00744832
0.0068277
0.00562912
0.00479452
0.00336744
0.00226402
0.00107609
0.000493494
0.000234089
0.0183437
0.0167367
0.0159516
0.014167
0.0133373
0.011976
0.0113147
0.0102492
0.00972985
0.00884466
0.00840404
0.00754921
0.00707017
0.00609515
0.00542462
0.00422022
0.00288646
0.0015687
0.00063598
0.000253692
0.00880298
0.00897204
0.00902951
0.00891419
0.00852843
0.00813188
0.00767325
0.00726587
0.00694747
0.00668262
0.00649702
0.00629943
0.00610898
0.00582285
0.00540167
0.00482129
0.00408991
0.00296439
0.00133398
0.000578633
0.00386517
0.00385763
0.00388927
0.0039466
0.00406892
0.00420582
0.00437202
0.00443872
0.00439931
0.00438292
0.00437701
0.00451976
0.00470793
0.00484384
0.00491265
0.00486603
0.00445644
0.00378261
0.00225324
0.00101768
0.00276672
0.0026454
0.002586
0.00253663
0.00252729
0.00252619
0.00256813
0.00261311
0.00269092
0.00279648
0.00291792
0.00301805
0.00340279
0.0037574
0.0042447
0.00449466
0.00456118
0.00429781
0.00315531
0.00154796
0.00254033
0.0022531
0.00216382
0.00207072
0.0020394
0.00201043
0.00200207
0.0019963
0.00199534
0.0019906
0.00201499
0.00210792
0.00231469
0.00274559
0.00331432
0.00410916
0.00448229
0.00454997
0.00391762
0.00216389
0.00251448
0.00207414
0.00196279
0.00184437
0.00180777
0.00177102
0.00175738
0.00173954
0.00172864
0.00169904
0.00167873
0.0016997
0.00178148
0.00200519
0.00251512
0.00326245
0.00428772
0.00465728
0.00446511
0.00282861
0.00260425
0.00196713
0.001842
0.00168395
0.00162151
0.00159404
0.0015823
0.00157893
0.00157787
0.00157144
0.0015394
0.00152969
0.00154859
0.00164379
0.00195234
0.00264275
0.00373908
0.00469769
0.00483781
0.00350927
0.00316879
0.00186932
0.00175491
0.00161602
0.00152649
0.00149063
0.00147379
0.00146837
0.00146834
0.00147297
0.00147167
0.00144959
0.00144187
0.00146711
0.00162449
0.00209981
0.00315527
0.00462564
0.00513227
0.00417874
0.0048162
0.00176301
0.00162539
0.00156318
0.00145121
0.00140321
0.00138719
0.00138292
0.00138603
0.00139334
0.00139517
0.00139398
0.00138023
0.0013799
0.00145408
0.0017778
0.00259246
0.00426653
0.00531328
0.0048061
0.00699679
0.00170683
0.00154797
0.00148551
0.00141885
0.00135542
0.00132704
0.00131875
0.00131741
0.00133206
0.00134304
0.00134285
0.00132635
0.00131849
0.00133794
0.0015272
0.00223118
0.00383928
0.0054199
0.00538117
0.00397232
0.00375022
0.00374679
0.0037468
0.00374652
0.00374627
0.00374612
0.00374604
0.003746
0.00374598
0.00374598
0.003746
0.00374604
0.00374612
0.00374627
0.00374652
0.0037468
0.00374679
0.00375021
0.00397232
0.00441309
0.00375345
0.00374139
0.00374094
0.00374056
0.00374012
0.00373987
0.00373975
0.00373968
0.00373965
0.00373965
0.00373968
0.00373975
0.00373987
0.00374012
0.00374056
0.00374094
0.00374139
0.00375345
0.00441309
0.00485732
0.00376049
0.00373289
0.00373266
0.00373286
0.00373274
0.00373256
0.00373243
0.00373235
0.00373231
0.00373231
0.00373235
0.00373243
0.00373256
0.00373274
0.00373286
0.00373266
0.00373289
0.00376049
0.00485733
0.00530538
0.00377226
0.00372435
0.00372398
0.00372493
0.00372525
0.00372525
0.00372519
0.00372514
0.00372512
0.00372512
0.00372514
0.00372519
0.00372525
0.00372525
0.00372493
0.00372398
0.00372434
0.00377226
0.00530538
0.00574255
0.00378523
0.00371535
0.00371475
0.00371661
0.00371756
0.00371788
0.00371795
0.00371795
0.00371795
0.00371795
0.00371795
0.00371795
0.00371788
0.00371756
0.00371661
0.00371475
0.00371535
0.00378523
0.00574255
0.00616599
0.00379769
0.00370583
0.00370512
0.003708
0.00370969
0.00371043
0.0037107
0.00371078
0.0037108
0.0037108
0.00371078
0.0037107
0.00371043
0.00370969
0.003708
0.00370512
0.00370583
0.00379769
0.006166
0.00658782
0.00380899
0.00369529
0.00369489
0.00369901
0.00370158
0.00370286
0.00370341
0.00370362
0.00370368
0.00370368
0.00370362
0.00370341
0.00370286
0.00370158
0.00369901
0.00369489
0.00369529
0.00380899
0.00658781
0.00700461
0.00381659
0.00368262
0.00368359
0.0036894
0.00369311
0.00369508
0.00369602
0.00369642
0.00369656
0.00369656
0.00369642
0.00369602
0.00369508
0.00369311
0.0036894
0.00368359
0.00368262
0.00381659
0.00700461
0.00739832
0.00382245
0.00366869
0.00367153
0.00367932
0.00368433
0.00368711
0.00368853
0.00368918
0.00368943
0.00368943
0.00368918
0.00368853
0.00368711
0.00368433
0.00367932
0.00367153
0.00366869
0.00382245
0.00739832
0.00776497
0.00382754
0.00365407
0.00365901
0.00366891
0.0036753
0.00367897
0.00368094
0.0036819
0.00368227
0.00368227
0.0036819
0.00368094
0.00367897
0.0036753
0.00366891
0.00365901
0.00365407
0.00382754
0.00776497
0.00811546
0.00383086
0.00363808
0.00364572
0.00365804
0.00366597
0.00367064
0.00367322
0.00367454
0.00367507
0.00367507
0.00367454
0.00367322
0.00367064
0.00366597
0.00365804
0.00364572
0.00363808
0.00383086
0.00811547
0.00845114
0.00383087
0.00362012
0.00363136
0.00364653
0.00365625
0.00366203
0.00366533
0.00366706
0.00366779
0.00366779
0.00366706
0.00366533
0.00366204
0.00365625
0.00364653
0.00363136
0.00362012
0.00383087
0.00845114
0.00875996
0.00383013
0.00360067
0.00361602
0.00363441
0.00364611
0.00365315
0.00365724
0.00365945
0.0036604
0.0036604
0.00365945
0.00365724
0.00365315
0.00364611
0.00363441
0.00361602
0.00360067
0.00383012
0.00875997
0.00903578
0.00382821
0.00358038
0.00360007
0.00362186
0.00363566
0.00364403
0.00364898
0.00365171
0.0036529
0.0036529
0.00365171
0.00364898
0.00364403
0.00363566
0.00362186
0.00360007
0.00358038
0.00382821
0.00903579
0.00928545
0.00382603
0.00355972
0.00358375
0.00360901
0.00362497
0.00363473
0.00364057
0.00364384
0.00364529
0.00364529
0.00364384
0.00364057
0.00363473
0.00362497
0.00360901
0.00358375
0.00355971
0.00382602
0.00928547
0.00951543
0.00382403
0.0035384
0.00356688
0.00359577
0.003614
0.0036252
0.00363198
0.00363582
0.00363755
0.00363755
0.00363582
0.00363198
0.00362521
0.003614
0.00359577
0.00356688
0.00353841
0.00382402
0.00951544
0.00972216
0.00382079
0.00351575
0.0035491
0.00358195
0.00360263
0.00361539
0.00362317
0.00362762
0.00362964
0.00362964
0.00362762
0.00362317
0.0036154
0.00360263
0.00358195
0.0035491
0.00351575
0.00382079
0.00972217
0.00989964
0.00381639
0.00349193
0.00353046
0.00356754
0.00359085
0.00360528
0.00361412
0.00361921
0.00362154
0.00362154
0.00361921
0.00361412
0.00360528
0.00359085
0.00356754
0.00353045
0.00349192
0.00381637
0.00989965
0.0100494
0.00381222
0.0034678
0.00351135
0.00355274
0.00357876
0.0035949
0.00360484
0.0036106
0.00361325
0.00361325
0.0036106
0.00360484
0.0035949
0.00357876
0.00355274
0.00351135
0.0034678
0.00381223
0.0100495
0.0101784
0.00381007
0.0034442
0.00349221
0.00353778
0.00356648
0.00358435
0.0035954
0.00360183
0.0036048
0.0036048
0.00360183
0.0035954
0.00358435
0.00356649
0.00353779
0.00349222
0.0034442
0.00381003
0.0101784
0.0102899
0.00380936
0.00342101
0.00347305
0.00352271
0.00355408
0.00357365