/*--------------------------------*- C++ -*----------------------------------*\
| =========                 |                                                 |
| \\      /  F ield         | OpenFOAM: The Open Source CFD Toolbox           |
|  \\    /   O peration     | Version:  2.1.0                                 |
|   \\  /    A nd           | Web:      www.OpenFOAM.org                      |
|    \\/     M anipulation  |                                                 |
\*---------------------------------------------------------------------------*/
FoamFile
{
    version     2.0;
    format      ascii;
    class       volScalarField;
    location    "0.11";
    object      nut;
}
// * * * * * * * * * * * * * * * * * * * * * * * * * * * * * * * * * * * * * //

dimensions      [0 2 -1 0 0 0 0];

internalField   nonuniform List<scalar> 
6400
(
4.99859e-06
4.94577e-06
4.93651e-06
4.9046e-06
4.9001e-06
4.87638e-06
4.87431e-06
4.85829e-06
4.85933e-06
4.85203e-06
4.85823e-06
4.8613e-06
4.87545e-06
4.8892e-06
4.91055e-06
4.93276e-06
4.96141e-06
4.99378e-06
5.02998e-06
5.07067e-06
5.11588e-06
5.16617e-06
5.22143e-06
5.28211e-06
5.34796e-06
5.41908e-06
5.49508e-06
5.57569e-06
5.66028e-06
5.74826e-06
5.83887e-06
5.93137e-06
6.02501e-06
6.119e-06
6.21274e-06
6.30595e-06
6.39838e-06
6.48967e-06
6.57941e-06
6.66735e-06
6.75333e-06
6.83723e-06
6.91896e-06
6.99845e-06
7.07573e-06
7.15083e-06
7.22393e-06
7.29574e-06
7.36324e-06
7.4264e-06
7.48919e-06
7.55075e-06
7.6103e-06
7.6676e-06
7.72247e-06
7.77466e-06
7.82406e-06
7.87105e-06
7.91654e-06
7.96029e-06
8.00247e-06
8.04288e-06
8.08131e-06
8.11648e-06
8.14837e-06
8.17795e-06
8.2062e-06
8.23218e-06
8.25095e-06
8.26467e-06
8.2769e-06
8.28344e-06
8.28297e-06
8.27806e-06
8.26875e-06
8.25458e-06
8.23688e-06
8.21718e-06
8.19677e-06
8.17697e-06
8.15831e-06
8.13805e-06
8.10684e-06
8.08331e-06
8.06407e-06
8.04509e-06
8.02383e-06
7.98768e-06
7.91766e-06
7.78196e-06
7.51796e-06
7.01185e-06
6.08256e-06
4.54138e-06
2.51783e-06
1.62008e-06
1.84765e-06
2.96489e-06
2.87591e-06
3.07103e-06
1.73194e-05
1.80762e-05
1.85399e-05
1.93984e-05
2.01865e-05
2.11729e-05
2.21454e-05
2.32929e-05
2.44477e-05
2.57566e-05
2.70635e-05
2.8477e-05
2.98641e-05
3.13236e-05
3.2744e-05
3.42165e-05
3.56474e-05
3.71181e-05
3.85572e-05
4.00329e-05
4.14947e-05
4.29865e-05
4.44708e-05
4.59703e-05
4.74586e-05
4.89444e-05
5.04086e-05
5.18511e-05
5.32576e-05
5.46245e-05
5.59433e-05
5.72109e-05
5.8423e-05
5.95757e-05
6.06659e-05
6.16944e-05
6.26593e-05
6.35582e-05
6.43893e-05
6.51525e-05
6.58479e-05
6.64751e-05
6.7034e-05
6.75249e-05
6.79487e-05
6.83051e-05
6.85935e-05
6.88126e-05
6.89616e-05
6.90423e-05
6.90595e-05
6.90148e-05
6.89061e-05
6.87322e-05
6.84926e-05
6.81825e-05
6.77994e-05
6.73501e-05
6.68494e-05
6.62849e-05
6.56584e-05
6.49804e-05
6.42457e-05
6.34383e-05
6.25717e-05
6.16441e-05
6.06634e-05
5.96331e-05
5.85133e-05
5.73404e-05
5.61089e-05
5.47909e-05
5.34073e-05
5.19645e-05
5.04497e-05
4.88666e-05
4.72233e-05
4.55208e-05
4.37631e-05
4.19597e-05
4.01215e-05
3.82535e-05
3.63574e-05
3.43907e-05
3.23702e-05
3.02652e-05
2.80806e-05
2.58014e-05
2.3434e-05
2.09915e-05
1.85007e-05
1.60014e-05
1.35543e-05
1.12933e-05
9.21569e-06
7.31852e-06
5.80272e-06
4.70632e-06
4.08224e-06
4.87777e-06
2.20597e-05
2.49752e-05
2.60437e-05
2.85098e-05
2.9753e-05
3.22e-05
3.37283e-05
3.61666e-05
3.79605e-05
4.03534e-05
4.23273e-05
4.46623e-05
4.6728e-05
4.90191e-05
5.11203e-05
5.33651e-05
5.54467e-05
5.76136e-05
5.96534e-05
6.17562e-05
6.37725e-05
6.58216e-05
6.77981e-05
6.9772e-05
7.16733e-05
7.35399e-05
7.53266e-05
7.7049e-05
7.86794e-05
8.02236e-05
8.16679e-05
8.30132e-05
8.42529e-05
8.53869e-05
8.64132e-05
8.73292e-05
8.81342e-05
8.88271e-05
8.94066e-05
8.98739e-05
9.02294e-05
9.04721e-05
9.0602e-05
9.06229e-05
9.0538e-05
9.03487e-05
9.00562e-05
8.96587e-05
8.91544e-05
8.85537e-05
8.78693e-05
8.70976e-05
8.62328e-05
8.52897e-05
8.42808e-05
8.31931e-05
8.20186e-05
8.07955e-05
7.95184e-05
7.81566e-05
7.67276e-05
7.52595e-05
7.37559e-05
7.21611e-05
7.05241e-05
6.88647e-05
6.71413e-05
6.53741e-05
6.35799e-05
6.1747e-05
5.98668e-05
5.79499e-05
5.60036e-05
5.4018e-05
5.19909e-05
4.99322e-05
4.78406e-05
4.57153e-05
4.35637e-05
4.13935e-05
3.92099e-05
3.70214e-05
3.48386e-05
3.26867e-05
3.05683e-05
2.84995e-05
2.649e-05
2.45485e-05
2.26686e-05
2.0837e-05
1.90449e-05
1.7321e-05
1.55635e-05
1.37882e-05
1.19328e-05
1.00799e-05
8.30798e-06
6.74713e-06
5.93677e-06
7.02729e-06
2.6384e-05
3.06499e-05
3.21361e-05
3.54587e-05
3.68379e-05
3.97585e-05
4.1224e-05
4.3854e-05
4.54749e-05
4.78962e-05
4.96858e-05
5.1949e-05
5.38424e-05
5.59819e-05
5.79125e-05
5.99612e-05
6.18759e-05
6.38455e-05
6.57032e-05
6.75778e-05
6.93558e-05
7.11372e-05
7.28181e-05
7.44694e-05
7.60148e-05
7.75058e-05
7.88878e-05
8.01899e-05
8.13791e-05
8.24717e-05
8.34515e-05
8.43253e-05
8.50852e-05
8.57332e-05
8.62668e-05
8.66866e-05
8.69926e-05
8.71863e-05
8.72692e-05
8.72439e-05
8.71113e-05
8.68694e-05
8.65189e-05
8.60694e-05
8.55255e-05
8.48909e-05
8.41755e-05
8.33725e-05
8.24677e-05
8.14862e-05
8.0451e-05
7.93395e-05
7.81326e-05
7.68708e-05
7.5581e-05
7.42392e-05
7.27909e-05
7.13197e-05
6.98188e-05
6.82387e-05
6.66289e-05
6.50002e-05
6.33168e-05
6.15976e-05
5.98676e-05
5.81091e-05
5.63196e-05
5.45273e-05
5.27304e-05
5.09194e-05
4.91119e-05
4.73163e-05
4.55281e-05
4.37573e-05
4.20132e-05
4.02961e-05
3.86086e-05
3.69587e-05
3.53474e-05
3.37746e-05
3.22403e-05
3.07327e-05
2.92492e-05
2.78015e-05
2.63542e-05
2.49234e-05
2.34817e-05
2.20375e-05
2.05678e-05
1.90844e-05
1.75835e-05
1.60636e-05
1.4509e-05
1.29196e-05
1.12953e-05
9.71438e-06
8.33016e-06
7.50806e-06
6.75469e-06
6.30775e-06
3.01503e-05
3.45927e-05
3.61111e-05
3.94114e-05
4.06042e-05
4.3384e-05
4.45655e-05
4.7014e-05
4.83094e-05
5.05062e-05
5.19345e-05
5.39223e-05
5.54391e-05
5.72474e-05
5.87968e-05
6.04552e-05
6.19776e-05
6.35103e-05
6.49563e-05
6.6379e-05
6.77178e-05
6.90182e-05
7.02216e-05
7.13729e-05
7.24151e-05
7.33922e-05
7.42573e-05
7.50416e-05
7.57133e-05
7.62931e-05
7.67637e-05
7.71354e-05
7.73998e-05
7.75621e-05
7.76206e-05
7.75773e-05
7.74314e-05
7.71867e-05
7.68483e-05
7.64244e-05
7.5919e-05
7.53216e-05
7.46279e-05
7.38647e-05
7.30078e-05
7.20818e-05
7.11359e-05
7.01532e-05
6.90455e-05
6.78964e-05
6.67456e-05
6.5526e-05
6.42501e-05
6.29665e-05
6.16557e-05
6.02988e-05
5.89268e-05
5.75575e-05
5.61698e-05
5.47696e-05
5.33827e-05
5.19984e-05
5.06089e-05
4.92385e-05
4.7885e-05
4.65387e-05
4.52131e-05
4.39118e-05
4.26242e-05
4.13503e-05
4.00888e-05
3.8847e-05
3.76154e-05
3.63818e-05
3.51565e-05
3.39174e-05
3.26853e-05
3.14421e-05
3.0203e-05
2.89422e-05
2.76708e-05
2.63696e-05
2.50561e-05
2.37318e-05
2.24048e-05
2.0851e-05
1.93843e-05
1.78498e-05
1.6446e-05
1.51138e-05
1.39432e-05
1.271e-05
1.14724e-05
1.03988e-05
9.47973e-06
8.45379e-06
7.57706e-06
7.12912e-06
6.97452e-06
7.02877e-06
3.23681e-05
3.63294e-05
3.76215e-05
4.04255e-05
4.12785e-05
4.35919e-05
4.43676e-05
4.64066e-05
4.72443e-05
4.90598e-05
4.99994e-05
5.16088e-05
5.26373e-05
5.40634e-05
5.51364e-05
5.63996e-05
5.74612e-05
5.85831e-05
5.95826e-05
6.05754e-05
6.1472e-05
6.23306e-05
6.30939e-05
6.38038e-05
6.44135e-05
6.49602e-05
6.54047e-05
6.57761e-05
6.60482e-05
6.62422e-05
6.63408e-05
6.63561e-05
6.6281e-05
6.61252e-05
6.58916e-05
6.55824e-05
6.51881e-05
6.47153e-05
6.41482e-05
6.35397e-05
6.2925e-05
6.2244e-05
6.145e-05
6.06404e-05
5.98213e-05
5.89409e-05
5.80285e-05
5.71082e-05
5.61542e-05
5.51793e-05
5.42059e-05
5.32109e-05
5.21971e-05
5.11856e-05
5.01644e-05
4.91284e-05
4.8091e-05
4.7054e-05
4.60172e-05
4.49846e-05
4.39371e-05
4.28981e-05
4.18398e-05
4.07887e-05
3.9726e-05
3.86483e-05
3.75673e-05
3.64674e-05
3.53595e-05
3.3881e-05
3.23018e-05
3.07484e-05
2.92752e-05
2.78277e-05
2.64531e-05
2.51112e-05
2.38593e-05
2.26242e-05
2.14795e-05
2.03389e-05
1.92758e-05
1.82253e-05
1.72678e-05
1.63272e-05
1.54745e-05
1.46306e-05
1.38353e-05
1.30654e-05
1.23566e-05
1.16656e-05
1.10115e-05
1.03663e-05
9.7593e-06
9.2151e-06
8.70003e-06
8.27979e-06
7.96879e-06
7.83515e-06
7.81629e-06
8.01268e-06
3.36029e-05
3.68389e-05
3.78296e-05
4.00438e-05
4.05719e-05
4.23467e-05
4.2741e-05
4.42932e-05
4.46901e-05
4.60764e-05
4.65474e-05
4.77772e-05
4.83398e-05
4.94116e-05
5.00336e-05
5.0957e-05
5.15862e-05
5.23881e-05
5.29789e-05
5.36658e-05
5.41859e-05
5.47507e-05
5.5179e-05
5.56135e-05
5.59343e-05
5.62331e-05
5.64352e-05
5.65949e-05
5.66724e-05
5.6702e-05
5.66574e-05
5.65524e-05
5.63689e-05
5.61099e-05
5.58237e-05
5.55277e-05
5.51285e-05
5.46494e-05
5.41652e-05
5.36354e-05
5.30415e-05
5.24132e-05
5.17462e-05
5.10396e-05
5.02981e-05
4.95195e-05
4.87178e-05
4.78929e-05
4.70141e-05
4.61249e-05
4.51023e-05
4.37564e-05
4.24111e-05
4.10957e-05
3.9804e-05
3.8516e-05
3.72642e-05
3.60304e-05
3.48048e-05
3.36182e-05
3.24456e-05
3.13091e-05
3.01926e-05
2.91116e-05
2.80552e-05
2.70266e-05
2.60277e-05
2.50646e-05
2.41233e-05
2.32249e-05
2.23592e-05
2.15177e-05
2.07232e-05
1.99506e-05
1.92205e-05
1.85169e-05
1.78504e-05
1.72017e-05
1.65933e-05
1.59954e-05
1.54396e-05
1.4892e-05
1.43846e-05
1.38767e-05
1.34098e-05
1.29349e-05
1.24951e-05
1.20558e-05
1.16376e-05
1.12273e-05
1.08374e-05
1.0462e-05
1.01168e-05
9.80299e-06
9.53631e-06
9.34841e-06
9.23333e-06
9.18022e-06
9.54172e-06
9.76819e-06
3.58363e-05
3.83329e-05
3.90513e-05
4.07295e-05
4.09627e-05
4.22228e-05
4.2308e-05
4.33427e-05
4.33947e-05
4.4335e-05
4.44267e-05
4.52747e-05
4.54385e-05
4.60406e-05
4.62829e-05
4.65275e-05
4.67976e-05
4.69317e-05
4.71879e-05
4.72148e-05
4.74064e-05
4.73425e-05
4.74274e-05
4.72907e-05
4.72428e-05
4.70397e-05
4.68609e-05
4.654e-05
4.6207e-05
4.58515e-05
4.54955e-05
4.50034e-05
4.44746e-05
4.39636e-05
4.34168e-05
4.28094e-05
4.21638e-05
4.14982e-05
4.08475e-05
4.01599e-05
3.94458e-05
3.87492e-05
3.80368e-05
3.73084e-05
3.65986e-05
3.58935e-05
3.51805e-05
3.44898e-05
3.38155e-05
3.31452e-05
3.24953e-05
3.18692e-05
3.12554e-05
3.06679e-05
3.00985e-05
2.95448e-05
2.90134e-05
2.84964e-05
2.79927e-05
2.75106e-05
2.70341e-05
2.65778e-05
2.61249e-05
2.56893e-05
2.5259e-05
2.4841e-05
2.44341e-05
2.40419e-05
2.367e-05
2.32974e-05
2.29454e-05
2.25902e-05
2.22615e-05
2.19228e-05
2.16065e-05
2.12828e-05
2.09733e-05
2.0657e-05
2.03521e-05
2.00374e-05
1.97334e-05
1.94187e-05
1.91096e-05
1.87877e-05
1.84673e-05
1.81248e-05
1.7777e-05
1.74026e-05
1.70138e-05
1.66002e-05
1.61691e-05
1.57235e-05
1.52747e-05
1.48393e-05
1.44651e-05
1.41948e-05
1.39943e-05
1.41469e-05
1.4624e-05
1.49795e-05
3.37933e-05
3.49503e-05
3.53295e-05
3.58793e-05
3.60659e-05
3.62842e-05
3.62863e-05
3.63561e-05
3.62721e-05
3.63148e-05
3.62002e-05
3.62123e-05
3.60638e-05
3.60261e-05
3.58846e-05
3.57933e-05
3.57092e-05
3.55695e-05
3.55131e-05
3.53273e-05
3.5273e-05
3.50572e-05
3.49828e-05
3.47433e-05
3.45994e-05
3.43691e-05
3.42297e-05
3.39967e-05
3.37846e-05
3.35854e-05
3.3376e-05
3.31124e-05
3.28556e-05
3.26374e-05
3.24071e-05
3.21604e-05
3.19294e-05
3.17089e-05
3.14856e-05
3.12672e-05
3.10593e-05
3.08593e-05
3.06637e-05
3.04782e-05
3.03066e-05
3.0144e-05
2.99904e-05
2.985e-05
2.97169e-05
2.9601e-05
2.94963e-05
2.94091e-05
2.93217e-05
2.92324e-05
2.91791e-05
2.91116e-05
2.90754e-05
2.90279e-05
2.90053e-05
2.89791e-05
2.89678e-05
2.89612e-05
2.89626e-05
2.89719e-05
2.89877e-05
2.9011e-05
2.90399e-05
2.90758e-05
2.91173e-05
2.91663e-05
2.92208e-05
2.92822e-05
2.93512e-05
2.94263e-05
2.95114e-05
2.96017e-05
2.97015e-05
2.98058e-05
2.99181e-05
3.003e-05
3.01465e-05
3.02605e-05
3.03743e-05
3.0482e-05
3.05838e-05
3.06762e-05
3.07566e-05
3.08192e-05
3.08525e-05
3.08575e-05
3.08256e-05
3.07612e-05
3.0662e-05
3.05409e-05
3.04088e-05
3.03198e-05
3.03782e-05
3.06857e-05
3.12315e-05
3.04086e-05
3.09446e-05
3.1874e-05
3.21612e-05
3.24625e-05
3.25525e-05
3.24991e-05
3.24265e-05
3.2221e-05
3.2109e-05
3.1875e-05
3.17315e-05
3.14587e-05
3.12916e-05
3.10076e-05
3.08502e-05
3.06019e-05
3.04705e-05
3.02554e-05
3.01453e-05
2.99475e-05
2.98646e-05
2.96861e-05
2.96238e-05
2.94593e-05
2.9408e-05
2.92735e-05
2.92321e-05
2.91264e-05
2.90792e-05
2.90076e-05
2.89688e-05
2.8915e-05
2.88801e-05
2.8854e-05
2.88374e-05
2.88233e-05
2.88198e-05
2.88223e-05
2.8828e-05
2.88392e-05
2.88578e-05
2.88803e-05
2.89085e-05
2.89453e-05
2.89894e-05
2.90405e-05
2.91003e-05
2.91685e-05
2.92447e-05
2.93296e-05
2.94227e-05
2.95241e-05
2.96332e-05
2.9751e-05
2.98768e-05
3.00102e-05
3.01518e-05
3.02985e-05
3.04536e-05
3.06134e-05
3.07796e-05
3.09512e-05
3.11283e-05
3.13111e-05
3.14996e-05
3.16942e-05
3.18955e-05
3.2103e-05
3.23181e-05
3.25404e-05
3.27705e-05
3.30089e-05
3.32562e-05
3.35124e-05
3.37783e-05
3.40534e-05
3.43385e-05
3.46333e-05
3.49386e-05
3.52558e-05
3.55837e-05
3.59232e-05
3.62746e-05
3.66384e-05
3.70149e-05
3.74038e-05
3.78054e-05
3.82194e-05
3.86535e-05
3.91036e-05
3.95805e-05
4.00806e-05
4.06126e-05
4.11755e-05
4.17752e-05
4.24052e-05
4.30384e-05
4.36054e-05
4.36229e-05
4.35297e-05
3.10808e-05
3.20254e-05
3.232e-05
3.26437e-05
3.27429e-05
3.27118e-05
3.26425e-05
3.24505e-05
3.23356e-05
3.21134e-05
3.1967e-05
3.17067e-05
3.15365e-05
3.12633e-05
3.11017e-05
3.08614e-05
3.07271e-05
3.05178e-05
3.04035e-05
3.02078e-05
3.01202e-05
2.99411e-05
2.9874e-05
2.97059e-05
2.96465e-05
2.95017e-05
2.94487e-05
2.9336e-05
2.92758e-05
2.91859e-05
2.91328e-05
2.90691e-05
2.90139e-05
2.89613e-05
2.89242e-05
2.88895e-05
2.88595e-05
2.88364e-05
2.88174e-05
2.88006e-05
2.87917e-05
2.87864e-05
2.87845e-05
2.87913e-05
2.88048e-05
2.88231e-05
2.88513e-05
2.88866e-05
2.89282e-05
2.89803e-05
2.90403e-05
2.91066e-05
2.91833e-05
2.92679e-05
2.93592e-05
2.94596e-05
2.95674e-05
2.96811e-05
2.98015e-05
2.99262e-05
3.00562e-05
3.01908e-05
3.03304e-05
3.04741e-05
3.06232e-05
3.07765e-05
3.09349e-05
3.10971e-05
3.12648e-05
3.14355e-05
3.16128e-05
3.17938e-05
3.19807e-05
3.21719e-05
3.23682e-05
3.25692e-05
3.27743e-05
3.29841e-05
3.31977e-05
3.3416e-05
3.36383e-05
3.38661e-05
3.40994e-05
3.43399e-05
3.45884e-05
3.48466e-05
3.51166e-05
3.54003e-05
3.5701e-05
3.60206e-05
3.63581e-05
3.67224e-05
3.71238e-05
3.75713e-05
3.80806e-05
3.8668e-05
3.93444e-05
4.00829e-05
4.05047e-05
4.06384e-05
3.39599e-05
3.51506e-05
3.55454e-05
3.61415e-05
3.63584e-05
3.6642e-05
3.66583e-05
3.6774e-05
3.66928e-05
3.67699e-05
3.66579e-05
3.67091e-05
3.65669e-05
3.65599e-05
3.64374e-05
3.63758e-05
3.6312e-05
3.6204e-05
3.61633e-05
3.60083e-05
3.59618e-05
3.57735e-05
3.57051e-05
3.54931e-05
3.53668e-05
3.51172e-05
3.49526e-05
3.47393e-05
3.45279e-05
3.42553e-05
3.40322e-05
3.37962e-05
3.35035e-05
3.31938e-05
3.29215e-05
3.26422e-05
3.2339e-05
3.20462e-05
3.1754e-05
3.14526e-05
3.11669e-05
3.08822e-05
3.05905e-05
3.03164e-05
3.0049e-05
2.97782e-05
2.9527e-05
2.92842e-05
2.90399e-05
2.88161e-05
2.8601e-05
2.8383e-05
2.81877e-05
2.80048e-05
2.78185e-05
2.76467e-05
2.74862e-05
2.73307e-05
2.71863e-05
2.70382e-05
2.69055e-05
2.67745e-05
2.66528e-05
2.65309e-05
2.64183e-05
2.63045e-05
2.61989e-05
2.60897e-05
2.59849e-05
2.58716e-05
2.576e-05
2.56372e-05
2.55112e-05
2.5375e-05
2.52294e-05
2.50736e-05
2.49035e-05
2.47208e-05
2.45207e-05
2.43059e-05
2.40728e-05
2.38246e-05
2.35561e-05
2.32749e-05
2.29872e-05
2.26862e-05
2.23789e-05
2.2075e-05
2.17723e-05
2.14879e-05
2.12125e-05
2.09662e-05
2.07454e-05
2.05866e-05
2.04903e-05
2.05187e-05
2.07261e-05
2.12145e-05
2.21111e-05
2.2787e-05
3.46436e-05
3.71209e-05
3.78413e-05
3.95192e-05
3.97823e-05
4.10684e-05
4.12069e-05
4.22821e-05
4.23908e-05
4.33728e-05
4.35221e-05
4.44167e-05
4.46457e-05
4.54321e-05
4.57238e-05
4.64007e-05
4.67184e-05
4.73021e-05
4.76025e-05
4.80567e-05
4.82828e-05
4.83102e-05
4.84377e-05
4.83858e-05
4.83878e-05
4.82496e-05
4.81226e-05
4.78977e-05
4.7625e-05
4.72542e-05
4.68847e-05
4.65103e-05
4.60317e-05
4.54624e-05
4.49153e-05
4.4325e-05
4.36727e-05
4.30135e-05
4.2305e-05
4.15383e-05
4.08046e-05
4.00403e-05
3.92242e-05
3.84305e-05
3.76201e-05
3.67775e-05
3.59583e-05
3.51377e-05
3.42978e-05
3.34856e-05
3.26844e-05
3.18804e-05
3.11014e-05
3.03484e-05
2.95973e-05
2.88828e-05
2.81848e-05
2.74965e-05
2.68367e-05
2.61988e-05
2.55571e-05
2.49566e-05
2.43526e-05
2.37627e-05
2.31937e-05
2.26236e-05
2.20676e-05
2.15204e-05
2.09907e-05
2.04625e-05
1.99622e-05
1.94634e-05
1.8982e-05
1.85063e-05
1.80391e-05
1.75826e-05
1.71329e-05
1.66931e-05
1.6259e-05
1.5837e-05
1.54184e-05
1.50135e-05
1.46153e-05
1.42315e-05
1.38558e-05
1.34932e-05
1.31404e-05
1.28043e-05
1.24841e-05
1.21852e-05
1.19062e-05
1.16534e-05
1.14217e-05
1.12298e-05
1.1085e-05
1.09631e-05
1.10372e-05
1.12509e-05
1.17561e-05
1.20277e-05
3.25541e-05
3.57426e-05
3.67348e-05
3.89431e-05
3.94962e-05
4.12877e-05
4.17237e-05
4.32945e-05
4.37401e-05
4.51449e-05
4.56636e-05
4.69147e-05
4.75239e-05
4.86294e-05
4.92989e-05
5.02737e-05
5.09567e-05
5.18211e-05
5.24768e-05
5.32366e-05
5.38352e-05
5.44776e-05
5.49945e-05
5.55175e-05
5.59323e-05
5.63263e-05
5.66258e-05
5.68855e-05
5.70609e-05
5.71839e-05
5.72351e-05
5.72304e-05
5.71533e-05
5.70171e-05
5.67999e-05
5.65244e-05
5.62321e-05
5.59094e-05
5.54722e-05
5.49907e-05
5.44981e-05
5.39403e-05
5.33319e-05
5.26942e-05
5.20063e-05
5.12845e-05
5.05357e-05
4.97315e-05
4.88955e-05
4.80534e-05
4.71585e-05
4.62215e-05
4.50167e-05
4.35727e-05
4.21127e-05
4.06995e-05
3.93027e-05
3.79169e-05
3.65689e-05
3.52702e-05
3.39511e-05
3.27117e-05
3.14779e-05
3.02805e-05
2.9129e-05
2.80084e-05
2.69223e-05
2.58798e-05
2.48699e-05
2.38897e-05
2.29535e-05
2.20559e-05
2.11939e-05
2.03754e-05
1.95818e-05
1.88233e-05
1.80862e-05
1.73901e-05
1.67069e-05
1.60692e-05
1.5437e-05
1.48414e-05
1.42494e-05
1.36996e-05
1.3153e-05
1.26526e-05
1.21496e-05
1.16777e-05
1.12083e-05
1.07845e-05
1.0376e-05
1.00192e-05
9.66741e-06
9.35576e-06
9.06968e-06
8.85542e-06
8.75084e-06
8.67517e-06
8.96785e-06
9.19119e-06
3.12477e-05
3.51147e-05
3.63893e-05
3.9153e-05
4.00109e-05
4.23063e-05
4.3107e-05
4.51405e-05
4.60185e-05
4.78402e-05
4.88249e-05
5.04521e-05
5.15281e-05
5.29876e-05
5.41112e-05
5.54278e-05
5.65498e-05
5.77431e-05
5.88176e-05
5.98993e-05
6.08904e-05
6.18537e-05
6.27307e-05
6.35619e-05
6.42994e-05
6.49799e-05
6.55628e-05
6.60779e-05
6.64953e-05
6.68349e-05
6.70791e-05
6.7241e-05
6.73109e-05
6.72967e-05
6.71979e-05
6.70193e-05
6.67666e-05
6.64358e-05
6.60203e-05
6.55291e-05
6.49482e-05
6.43338e-05
6.37138e-05
6.30011e-05
6.21925e-05
6.13811e-05
6.05432e-05
5.96397e-05
5.87154e-05
5.77804e-05
5.68045e-05
5.58128e-05
5.48242e-05
5.38077e-05
5.27743e-05
5.17448e-05
5.07021e-05
4.96408e-05
4.85799e-05
4.7509e-05
4.64294e-05
4.53602e-05
4.42928e-05
4.32084e-05
4.21327e-05
4.10415e-05
3.99538e-05
3.8845e-05
3.77346e-05
3.66095e-05
3.5138e-05
3.34533e-05
3.18266e-05
3.02844e-05
2.88019e-05
2.74025e-05
2.60128e-05
2.47079e-05
2.34021e-05
2.2197e-05
2.10033e-05
1.99084e-05
1.87861e-05
1.77461e-05
1.6689e-05
1.57487e-05
1.48468e-05
1.40108e-05
1.30868e-05
1.22094e-05
1.1403e-05
1.07413e-05
1.00878e-05
9.38058e-06
8.68916e-06
8.14167e-06
7.83094e-06
7.68536e-06
7.68097e-06
7.8577e-06
2.89826e-05
3.32603e-05
3.47323e-05
3.79498e-05
3.9132e-05
4.18478e-05
4.30359e-05
4.54443e-05
4.67577e-05
4.89353e-05
5.03894e-05
5.2382e-05
5.39356e-05
5.57709e-05
5.7366e-05
5.90722e-05
6.06534e-05
6.22545e-05
6.37739e-05
6.52798e-05
6.67077e-05
6.81085e-05
6.94218e-05
7.06959e-05
7.18695e-05
7.29869e-05
7.39997e-05
7.49401e-05
7.57748e-05
7.65221e-05
7.71638e-05
7.77105e-05
7.81535e-05
7.84959e-05
7.87358e-05
7.88747e-05
7.89129e-05
7.88508e-05
7.86883e-05
7.8431e-05
7.80826e-05
7.76516e-05
7.71392e-05
7.65313e-05
7.58314e-05
7.5068e-05
7.42081e-05
7.32792e-05
7.23286e-05
7.13397e-05
7.02264e-05
6.90727e-05
6.79135e-05
6.66821e-05
6.53937e-05
6.40942e-05
6.27633e-05
6.1389e-05
5.9998e-05
5.85951e-05
5.71766e-05
5.57477e-05
5.43217e-05
5.29037e-05
5.1486e-05
5.00832e-05
4.87034e-05
4.73344e-05
4.59856e-05
4.46651e-05
4.33614e-05
4.20717e-05
4.08015e-05
3.95396e-05
3.82829e-05
3.70495e-05
3.58374e-05
3.46164e-05
3.34038e-05
3.21637e-05
3.09187e-05
2.96614e-05
2.84088e-05
2.71301e-05
2.57919e-05
2.3944e-05
2.20918e-05
2.06126e-05
1.92303e-05
1.74e-05
1.54823e-05
1.38751e-05
1.292e-05
1.18026e-05
1.0149e-05
8.59505e-06
8.05078e-06
7.17166e-06
6.93785e-06
6.96465e-06
2.53785e-05
2.94575e-05
3.08787e-05
3.40804e-05
3.54194e-05
3.82447e-05
3.9687e-05
4.22427e-05
4.38461e-05
4.62036e-05
4.79748e-05
5.02026e-05
5.20916e-05
5.42214e-05
5.61559e-05
5.82145e-05
6.01448e-05
6.21374e-05
6.40283e-05
6.59536e-05
6.77919e-05
6.96457e-05
7.1412e-05
7.31635e-05
7.48247e-05
7.64407e-05
7.79585e-05
7.94107e-05
8.07614e-05
8.20233e-05
8.31802e-05
8.4238e-05
8.5189e-05
8.60333e-05
8.67681e-05
8.73928e-05
8.79067e-05
8.831e-05
8.86029e-05
8.87873e-05
8.88638e-05
8.8834e-05
8.86985e-05
8.84554e-05
8.81078e-05
8.76656e-05
8.71308e-05
8.65067e-05
8.58045e-05
8.50164e-05
8.41275e-05
8.3164e-05
8.21478e-05
8.1055e-05
7.98813e-05
7.86382e-05
7.7341e-05
7.60167e-05
7.46301e-05
7.31568e-05
7.16678e-05
7.01238e-05
6.85147e-05
6.68873e-05
6.52206e-05
6.35047e-05
6.17708e-05
6.00102e-05
5.8215e-05
5.64101e-05
5.45919e-05
5.27563e-05
5.09191e-05
4.90797e-05
4.72462e-05
4.54271e-05
4.36292e-05
4.18622e-05
4.01284e-05
3.84278e-05
3.67611e-05
3.51282e-05
3.35317e-05
3.19741e-05
3.04412e-05
2.88965e-05
2.73569e-05
2.58157e-05
2.42538e-05
2.2654e-05
2.09642e-05
1.92004e-05
1.73179e-05
1.53436e-05
1.33337e-05
1.1343e-05
9.53773e-06
8.29863e-06
7.1022e-06
6.57124e-06
2.1351e-05
2.41078e-05
2.51126e-05
2.74424e-05
2.86068e-05
3.09181e-05
3.23629e-05
3.46716e-05
3.63868e-05
3.86816e-05
4.05958e-05
4.28651e-05
4.48864e-05
4.71369e-05
4.92154e-05
5.14511e-05
5.35381e-05
5.5724e-05
5.77867e-05
5.99111e-05
6.19502e-05
6.40261e-05
6.60449e-05
6.80761e-05
7.00479e-05
7.1997e-05
7.3881e-05
7.57164e-05
7.74754e-05
7.916e-05
8.07568e-05
8.22647e-05
8.36775e-05
8.49926e-05
8.6206e-05
8.73157e-05
8.83202e-05
8.92188e-05
9.00091e-05
9.06913e-05
9.12643e-05
9.17284e-05
9.20839e-05
9.23297e-05
9.24673e-05
9.25011e-05
9.24337e-05
9.22659e-05
9.1999e-05
9.16316e-05
9.11611e-05
9.05984e-05
8.99554e-05
8.92265e-05
8.84059e-05
8.75031e-05
8.65308e-05
8.54923e-05
8.4374e-05
8.318e-05
8.19478e-05
8.0656e-05
7.92808e-05
7.78501e-05
7.6361e-05
7.48045e-05
7.32097e-05
7.15759e-05
6.98543e-05
6.81065e-05
6.63101e-05
6.44523e-05
6.25599e-05
6.06093e-05
5.86024e-05
5.65492e-05
5.44375e-05
5.22704e-05
5.00443e-05
4.77665e-05
4.5434e-05
4.30474e-05
4.06207e-05
3.81627e-05
3.56873e-05
3.32101e-05
3.07502e-05
2.83317e-05
2.59841e-05
2.37101e-05
2.1486e-05
1.93064e-05
1.71659e-05
1.49895e-05
1.28755e-05
1.08969e-05
9.05088e-06
7.52645e-06
6.59153e-06
7.452e-06
1.69456e-05
1.76212e-05
1.80704e-05
1.8857e-05
1.95999e-05
2.05235e-05
2.14345e-05
2.25084e-05
2.35905e-05
2.48249e-05
2.60673e-05
2.74245e-05
2.87643e-05
3.01821e-05
3.15684e-05
3.30118e-05
3.4419e-05
3.5869e-05
3.72892e-05
3.87442e-05
4.01868e-05
4.16614e-05
4.31374e-05
4.4637e-05
4.61341e-05
4.76367e-05
4.91278e-05
5.06075e-05
5.20627e-05
5.34873e-05
5.48731e-05
5.6215e-05
5.75084e-05
5.87501e-05
5.99375e-05
6.10686e-05
6.21409e-05
6.31523e-05
6.41021e-05
6.49873e-05
6.58076e-05
6.65639e-05
6.72564e-05
6.78844e-05
6.84477e-05
6.89476e-05
6.93849e-05
6.976e-05
7.00721e-05
7.03208e-05
7.05059e-05
7.06299e-05
7.06965e-05
7.0707e-05
7.06593e-05
7.05531e-05
7.03897e-05
7.01669e-05
6.98786e-05
6.95261e-05
6.91174e-05
6.86544e-05
6.81263e-05
6.75364e-05
6.68918e-05
6.61894e-05
6.54304e-05
6.46051e-05
6.3703e-05
6.27402e-05
6.16961e-05
6.05697e-05
5.9383e-05
5.80959e-05
5.67061e-05
5.52306e-05
5.36394e-05
5.19585e-05
5.01638e-05
4.82618e-05
4.62614e-05
4.41563e-05
4.19554e-05
3.96687e-05
3.73089e-05
3.48612e-05
3.23474e-05
2.97494e-05
2.70251e-05
2.42198e-05
2.12852e-05
1.83406e-05
1.54932e-05
1.27596e-05
1.03119e-05
8.13521e-06
6.4401e-06
5.26693e-06
4.50931e-06
4.94469e-06
4.99425e-06
4.93935e-06
4.92942e-06
4.89541e-06
4.88978e-06
4.86377e-06
4.85987e-06
4.84114e-06
4.83952e-06
4.82881e-06
4.83143e-06
4.82998e-06
4.83964e-06
4.84877e-06
4.86597e-06
4.884e-06
4.90751e-06
4.93441e-06
4.96678e-06
5.00274e-06
5.04307e-06
5.08834e-06
5.13871e-06
5.19462e-06
5.25601e-06
5.32302e-06
5.39539e-06
5.47295e-06
5.55524e-06
5.64171e-06
5.73168e-06
5.82444e-06
5.91927e-06
6.01548e-06
6.11239e-06
6.20943e-06
6.30608e-06
6.40205e-06
6.49717e-06
6.59099e-06
6.68317e-06
6.77359e-06
6.86219e-06
6.94886e-06
7.03355e-06
7.11626e-06
7.19706e-06
7.27603e-06
7.35327e-06
7.42888e-06
7.50358e-06
7.57513e-06
7.64435e-06
7.7139e-06
7.78304e-06
7.85151e-06
7.91936e-06
7.98651e-06
8.05281e-06
8.11853e-06
8.18461e-06
8.25203e-06
8.32038e-06
8.38995e-06
8.46119e-06
8.53513e-06
8.61181e-06
8.69052e-06
8.77107e-06
8.85504e-06
8.94288e-06
9.03494e-06
9.13269e-06
9.23161e-06
9.33426e-06
9.44549e-06
9.55714e-06
9.67603e-06
9.80204e-06
9.9333e-06
1.00732e-05
1.02227e-05
1.03822e-05
1.05532e-05
1.07348e-05
1.09165e-05
1.10763e-05
1.11569e-05
1.11107e-05
1.08191e-05
1.00418e-05
8.59417e-06
6.71561e-06
4.64692e-06
3.02571e-06
2.12294e-06
2.11237e-06
3.30239e-06
3.19855e-06
3.37784e-06
8.47814e-06
8.09274e-07
1.0377e-06
1.38285e-06
1.71109e-06
2.0142e-06
2.34804e-06
2.70521e-06
3.06838e-06
3.44694e-06
3.79042e-06
4.06893e-06
4.21934e-06
4.31784e-06
4.46637e-06
5.31628e-06
7.19645e-06
8.64161e-06
8.48534e-06
4.28652e-06
3.76213e-06
1.03605e-06
1.05147e-06
1.27647e-06
1.4949e-06
1.77946e-06
2.11215e-06
2.45672e-06
2.81541e-06
3.2013e-06
3.52855e-06
3.79061e-06
3.99426e-06
4.23079e-06
4.8321e-06
6.28959e-06
8.15621e-06
9.03767e-06
8.33012e-06
4.40304e-06
3.39919e-06
1.50531e-06
1.52912e-06
1.49144e-06
1.63861e-06
1.86901e-06
2.13845e-06
2.45534e-06
2.82827e-06
3.27343e-06
3.48613e-06
3.70096e-06
4.01978e-06
4.57806e-06
5.73438e-06
7.55316e-06
8.79841e-06
9.40623e-06
8.08516e-06
4.5232e-06
3.77451e-06
2.13379e-06
2.15307e-06
1.96972e-06
2.11376e-06
2.20245e-06
2.48038e-06
2.82416e-06
3.30918e-06
3.94688e-06
3.89109e-06
4.23119e-06
4.86883e-06
5.88864e-06
7.60564e-06
9.00317e-06
9.48901e-06
9.209e-06
7.8001e-06
4.65213e-06
4.4362e-06
3.0395e-06
3.05353e-06
2.75299e-06
3.02783e-06
3.0146e-06
3.39219e-06
3.80163e-06
4.51903e-06
5.13957e-06
5.21082e-06
6.04612e-06
7.00376e-06
8.56452e-06
9.73296e-06
9.876e-06
1.00358e-05
9.14342e-06
7.48726e-06
4.58798e-06
5.38503e-06
4.28642e-06
4.26974e-06
3.88185e-06
4.25904e-06
4.4094e-06
5.01068e-06
5.89179e-06
7.23613e-06
8.2279e-06
8.98081e-06
1.01278e-05
1.12931e-05
1.09824e-05
1.08789e-05
1.07494e-05
1.00103e-05
9.0733e-06
6.99932e-06
3.82195e-06
6.97827e-06
6.26985e-06
6.27922e-06
6.10437e-06
6.8473e-06
7.7582e-06
9.46315e-06
1.16612e-05
1.56243e-05
1.54658e-05
1.40773e-05
1.34203e-05
1.26295e-05
1.21484e-05
1.16932e-05
1.10175e-05
1.01704e-05
8.91367e-06
6.22576e-06
3.01534e-06
1.07426e-05
1.11214e-05
1.16576e-05
1.28972e-05
1.52409e-05
1.84393e-05
2.06527e-05
1.92492e-05
1.82822e-05
1.68096e-05
1.58377e-05
1.49748e-05
1.42228e-05
1.34356e-05
1.27477e-05
1.14555e-05
1.02888e-05
8.41557e-06
5.081e-06
2.21279e-06
2.43626e-05
2.68608e-05
2.81369e-05
2.96296e-05
2.77362e-05
2.60654e-05
2.4251e-05
2.27705e-05
2.1231e-05
2.00042e-05
1.86752e-05
1.762e-05
1.61743e-05
1.51271e-05
1.32963e-05
1.16292e-05
1.01095e-05
7.21093e-06
3.71767e-06
1.41969e-06
3.93537e-05
3.74394e-05
3.54717e-05
3.27877e-05
3.12914e-05
2.87815e-05
2.75021e-05
2.52955e-05
2.41874e-05
2.21277e-05
2.11262e-05
1.89779e-05
1.78314e-05
1.52908e-05
1.3681e-05
1.04146e-05
7.15914e-06
4.34817e-06
2.13889e-06
6.72958e-07
3.76052e-05
3.54585e-05
3.42644e-05
3.14874e-05
3.01253e-05
2.7749e-05
2.65539e-05
2.45139e-05
2.34975e-05
2.16799e-05
2.07992e-05
1.89642e-05
1.80243e-05
1.58915e-05
1.45643e-05
1.20665e-05
8.52404e-06
5.8048e-06
2.56637e-06
7.24625e-07
1.77089e-05
1.97574e-05
2.08754e-05
2.32694e-05
2.44811e-05
2.34627e-05
2.21715e-05
2.07926e-05
1.96486e-05
1.85427e-05
1.77202e-05
1.68206e-05
1.60531e-05
1.51328e-05
1.39747e-05
1.24485e-05
1.08572e-05
8.57205e-06
4.17924e-06
1.50205e-06
9.26328e-06
9.04476e-06
9.20173e-06
9.57232e-06
1.10305e-05
1.32279e-05
1.63242e-05
1.78939e-05
1.70397e-05
1.59604e-05
1.49654e-05
1.43879e-05
1.39618e-05
1.34533e-05
1.29084e-05
1.22489e-05
1.09323e-05
9.29221e-06
5.7651e-06
2.37713e-06
6.61474e-06
5.79418e-06
5.72555e-06
5.36428e-06
5.89207e-06
6.37226e-06
7.56304e-06
9.14651e-06
1.1952e-05
1.30215e-05
1.37842e-05
1.26694e-05
1.24635e-05
1.20523e-05
1.20784e-05
1.15346e-05
1.08233e-05
9.5796e-06
6.93067e-06
3.26057e-06
5.21996e-06
4.067e-06
4.02811e-06
3.63776e-06
3.96491e-06
4.03512e-06
4.52962e-06
5.18796e-06
6.27701e-06
6.82506e-06
7.68804e-06
8.85117e-06
1.03401e-05
1.08215e-05
1.07787e-05
1.12475e-05
1.06269e-05
9.66859e-06
7.71455e-06
4.13173e-06
4.33617e-06
2.9075e-06
2.89033e-06
2.57411e-06
2.80899e-06
2.78821e-06
3.1217e-06
3.50485e-06
4.14583e-06
4.70051e-06
4.66136e-06
5.50227e-06
6.49103e-06
8.19227e-06
9.80829e-06
9.9682e-06
1.06256e-05
9.73997e-06
8.17006e-06
4.94621e-06
3.75332e-06
2.07711e-06
2.08217e-06
1.90339e-06
2.02568e-06
2.1072e-06
2.35296e-06
2.67419e-06
3.11708e-06
3.69216e-06
3.70149e-06
3.96766e-06
4.62762e-06
5.68828e-06
7.55817e-06
9.25158e-06
9.89099e-06
9.84611e-06
8.4013e-06
4.83657e-06
3.50787e-06
1.46017e-06
1.46022e-06
1.45461e-06
1.5976e-06
1.82555e-06
2.08616e-06
2.39447e-06
2.74645e-06
3.16101e-06
3.39494e-06
3.61686e-06
3.88647e-06
4.44779e-06
5.66844e-06
7.68743e-06
9.17579e-06
1.00432e-05
8.67411e-06
4.70457e-06
4.14717e-06
1.02354e-06
1.03257e-06
1.25184e-06
1.47642e-06
1.75122e-06
2.07125e-06
2.41015e-06
2.76577e-06
3.13811e-06
3.45603e-06
3.72947e-06
3.9354e-06
4.1507e-06
4.7955e-06
6.38799e-06
8.39067e-06
9.63947e-06
8.88449e-06
4.58097e-06
8.95003e-06
8.07542e-07
1.02502e-06
1.36914e-06
1.703e-06
2.0039e-06
2.32472e-06
2.66484e-06
3.00757e-06
3.3762e-06
3.71301e-06
3.9757e-06
4.12004e-06
4.20693e-06
4.37168e-06
5.33382e-06
7.42099e-06
9.16317e-06
9.03844e-06
4.4615e-06
1.23457e-06
0.00011654
0.000294106
0.000330899
0.00033481
0.000335356
0.000335357
0.000335342
0.000335343
0.000335345
0.000335345
0.000335343
0.000335342
0.000335357
0.000335356
0.00033481
0.000330899
0.000294107
0.00011654
1.23457e-06
1.36917e-06
6.81878e-05
0.000219642
0.000309526
0.000330913
0.000334528
0.000335273
0.000335315
0.000335296
0.000335287
0.000335287
0.000335296
0.000335315
0.000335273
0.000334528
0.000330913
0.000309526
0.000219642
6.81878e-05
1.36917e-06
1.51274e-06
5.29418e-05
0.000176581
0.000280665
0.000322185
0.000332508
0.000334605
0.000335101
0.000335168
0.000335172