/*--------------------------------*- C++ -*----------------------------------*\
| =========                 |                                                 |
| \\      /  F ield         | OpenFOAM: The Open Source CFD Toolbox           |
|  \\    /   O peration     | Version:  2.1.0                                 |
|   \\  /    A nd           | Web:      www.OpenFOAM.org                      |
|    \\/     M anipulation  |                                                 |
\*---------------------------------------------------------------------------*/
FoamFile
{
    version     2.0;
    format      ascii;
    class       volScalarField;
    location    "0.11";
    object      omega;
}
// * * * * * * * * * * * * * * * * * * * * * * * * * * * * * * * * * * * * * //

dimensions      [0 0 -1 0 0 0 0];

internalField   nonuniform List<scalar> 
6400
(
1388.25
1379.51
1375.73
1368.29
1364.12
1357.17
1352.93
1346.76
1342.77
1337.66
1334.3
1330.51
1328.17
1325.78
1324.38
1323.07
1322.56
1322.53
1322.95
1323.9
1325.39
1327.45
1330.08
1333.31
1337.1
1341.44
1346.29
1351.59
1357.25
1363.21
1369.35
1375.58
1381.82
1387.96
1393.95
1399.73
1405.28
1410.56
1415.52
1420.13
1424.37
1428.23
1431.68
1434.73
1437.36
1439.57
1441.39
1442.85
1443.72
1443.93
1443.86
1443.45
1442.61
1441.31
1439.53
1437.25
1434.45
1431.16
1427.47
1423.34
1418.79
1413.8
1408.35
1402.33
1395.74
1388.65
1381.14
1373.14
1364.26
1354.65
1344.61
1333.81
1322.13
1309.78
1296.76
1283
1268.6
1253.62
1238.12
1222.13
1205.58
1188.18
1169.17
1149.62
1129.08
1107.02
1083
1055.98
1024.67
987.347
941.109
881.289
800.869
691.125
550.764
484.266
519.476
664.002
774.191
805.803
668.486
659.564
656.449
652.628
650.979
649.444
648.89
648.66
648.649
648.896
649.759
650.914
652.423
654.089
656.115
658.264
660.736
663.325
666.206
669.215
672.465
675.848
679.422
683.114
686.952
690.882
694.917
699.021
703.194
707.411
711.669
715.952
720.256
724.575
728.91
733.265
737.644
742.051
746.493
750.991
755.558
760.184
764.874
769.644
774.508
779.48
784.578
789.814
795.2
800.741
806.467
812.414
818.603
825.043
831.745
838.732
846.029
853.663
861.668
870.072
878.903
888.191
897.976
908.244
918.991
930.22
941.905
954.262
967.209
980.87
995.288
1010.48
1026.5
1043.44
1061.35
1080.33
1100.46
1121.86
1144.67
1169.09
1194.82
1221.33
1249.14
1277.82
1307.06
1336.17
1364.42
1390.91
1414.78
1435.17
1449.91
1456.55
1457.58
1442.65
1404.82
1319.37
1198.13
1049.63
888.795
730.243
344.898
356.348
364.95
373.884
382.958
392.49
401.562
411.09
420.042
429.543
438.094
447.363
455.566
464.397
472.402
480.75
488.543
496.445
504.038
511.61
519.009
526.326
533.532
540.632
547.645
554.552
561.381
568.116
574.782
581.371
587.906
594.388
600.836
607.262
613.681
620.108
626.561
633.054
639.602
646.22
652.925
659.743
666.693
673.79
681.054
688.503
696.155
704.025
712.132
720.492
729.123
738.047
747.282
756.844
766.747
777.008
787.646
798.68
810.125
821.987
834.28
847.016
860.193
873.829
887.946
902.557
917.672
933.083
948.863
964.903
981.178
997.624
1014.21
1030.87
1047.56
1064.27
1080.99
1097.7
1114.42
1131.17
1147.96
1164.81
1181.78
1198.82
1215.8
1232.6
1248.84
1264.14
1277.67
1287.33
1291.64
1292.34
1278.99
1251.08
1198.81
1117.41
1003.66
859.695
699.88
550.806
276.692
294.221
301.573
316.335
324.25
338.355
346.881
360.323
369.138
382.102
390.874
403.391
412.06
423.929
432.576
443.646
452.423
462.67
471.527
481.112
489.971
499.081
507.831
516.601
525.183
533.701
542.102
550.421
558.656
566.818
574.922
582.975
590.993
598.986
606.97
614.956
622.958
630.986
639.049
647.153
655.313
663.558
671.898
680.332
688.868
697.515
706.275
715.147
724.133
733.237
742.456
751.782
761.207
770.732
780.352
790.047
799.799
809.628
819.513
829.408
839.328
849.268
859.17
869.046
878.917
888.745
898.497
908.183
917.787
927.263
936.605
945.799
954.756
963.436
971.786
979.712
987.138
993.928
999.978
1005.11
1009.22
1011.81
1012.96
1013.17
1010.59
1006.04
998.4
988.043
973.957
955.956
933.091
904.914
870.207
827.661
775.102
711.605
639.327
562.043
493.023
451.558
254.921
272.283
279.473
293.943
301.801
315.887
324.227
337.826
346.435
359.648
368.392
381.149
389.942
402.252
410.972
422.837
431.568
442.808
451.719
462.245
471.354
481.262
490.426
499.877
508.953
518.069
526.974
535.817
544.516
553.121
561.608
569.995
578.278
586.464
594.553
602.552
610.465
618.295
626.039
633.701
641.284
648.791
656.226
663.585
670.862
678.064
685.201
692.247
699.185
706.045
712.831
719.498
726.047
732.498
738.817
744.974
750.966
756.819
762.485
767.921
773.128
778.092
782.723
787.046
791.013
794.567
797.69
800.339
802.464
803.94
804.645
804.874
804.344
802.732
800.432
796.944
792.574
786.938
780.272
772.269
763.199
752.813
741.203
728.289
714.095
698.733
682.188
664.665
646.084
626.709
606.372
584.946
562.003
537.296
510.153
481.376
451.805
425.571
409.419
401.779
234.388
250.087
256.631
269.853
277.087
289.946
297.757
310.246
318.457
330.63
339.006
350.863
359.287
370.754
379.169
390.302
398.604
409.369
417.638
427.856
436.22
445.802
454.23
463.236
471.596
480.127
488.289
496.413
504.306
512.08
519.663
527.093
534.342
541.416
548.297
554.994
561.509
567.833
573.943
579.85
585.562
591.042
596.284
601.308
606.094
610.626
614.918
618.93
622.631
626.066
629.207
631.988
634.411
636.478
638.14
639.389
640.196
640.588
640.723
640.515
639.591
638.443
636.589
634.345
631.537
628.141
624.268
619.731
614.676
608.985
602.737
595.952
588.563
580.715
572.353
563.584
554.499
545.111
535.551
525.753
515.865
505.889
496.023
486.341
476.94
467.812
458.922
450.13
441.719
433.458
425.405
417.23
409.012
400.745
392.361
384.025
377.271
373.99
372.926
372.473
208.126
221.348
226.864
237.993
244.036
254.987
261.767
272.563
279.859
290.439
297.956
308.288
315.82
325.89
333.416
343.16
350.537
359.956
367.095
376.093
383.076
391.479
398.36
406.084
412.804
419.867
426.299
432.747
438.795
444.684
450.247
455.596
460.637
465.373
469.793
473.925
477.721
481.159
484.24
486.992
489.389
491.369
492.945
494.165
494.887
495.208
495.292
494.972
493.969
492.793
491.096
488.928
486.469
483.504
480.208
476.598
472.604
468.343
463.776
458.905
453.844
448.572
443.121
437.6
431.955
426.261
420.586
414.917
409.384
403.969
398.785
393.793
389.054
384.549
380.317
376.374
372.759
369.389
366.376
363.552
361.09
358.853
356.963
355.289
353.893
352.677
351.646
350.761
350.013
349.34
348.756
348.229
347.886
347.741
347.862
349.084
350.867
354.76
356.828
357.065
178.872
188.923
193.078
201.407
205.963
214.499
219.754
228.256
233.958
242.276
248.153
256.25
262.163
270.048
275.883
283.414
289.039
296.152
301.441
308.102
313.001
319.069
323.591
328.923
333.055
337.569
341.219
344.917
347.976
350.828
353.172
355.212
356.801
357.989
358.665
358.958
359.028
358.746
357.816
356.663
355.216
353.288
351.111
348.701
345.96
343
339.888
336.578
333.125
329.63
326.065
322.504
319.027
315.6
312.327
309.162
306.156
303.373
300.765
298.408
296.314
294.475
292.906
291.643
290.629
289.907
289.523
289.362
289.345
289.779
290.3
291.193
292.186
293.512
294.931
296.653
298.452
300.515
302.65
305.004
307.425
310.019
312.672
315.455
318.286
321.199
324.135
327.104
330.085
333.067
336.072
339.1
342.23
345.505
349.096
353.293
358.022
363.465
366.122
366.601
150.659
157.361
160.082
165.475
168.432
174.102
177.35
182.857
186.206
191.444
194.83
199.845
203.189
207.941
211.105
215.457
218.373
222.291
224.886
228.331
230.513
233.426
235.167
237.495
238.81
240.505
241.419
242.45
242.913
243.185
243.266
243.261
243.036
242.541
241.879
241.112
240.261
239.307
238.267
237.227
236.193
235.157
234.187
233.306
232.505
231.827
231.289
230.906
230.72
230.655
230.773
231.097
231.635
232.335
233.252
234.332
235.608
237.067
238.697
240.511
242.496
244.651
246.968
249.459
252.099
254.908
257.876
260.996
264.276
267.715
271.304
275.059
278.966
283.037
287.262
291.66
296.211
300.944
305.836
310.936
316.198
321.659
327.285
333.098
339.07
345.216
351.507
357.934
364.45
371.037
377.667
384.314
390.976
397.661
404.428
411.504
419.407
428.293
436.798
440.99
132.117
136.386
138.048
141.2
142.835
145.979
147.634
150.574
152.06
154.732
156.168
158.643
160.006
162.286
163.51
165.545
166.65
168.495
169.48
171.115
171.966
173.405
174.132
175.413
176.044
177.169
177.768
178.736
179.34
180.186
180.843
181.647
182.376
183.187
183.987
184.854
185.767
186.745
187.777
188.887
190.074
191.338
192.689
194.131
195.66
197.284
199.003
200.816
202.726
204.734
206.839
209.041
211.346
213.748
216.253
218.857
221.564
224.374
227.291
230.316
233.451
236.701
240.065
243.552
247.16
250.899
254.769
258.778
262.931
267.234
271.697
276.328
281.132
286.122
291.307
296.698
302.308
308.151
314.236
320.569
327.179
334.078
341.29
348.831
356.725
364.993
373.662
382.761
392.348
402.45
413.16
424.513
436.619
449.54
463.403
478.266
494.052
510.276
523.191
528.939
133.354
137.725
139.432
142.682
144.381
147.65
149.404
152.489
154.091
156.901
158.453
161.07
162.556
164.984
166.336
168.518
169.748
171.739
172.841
174.611
175.56
177.114
177.914
179.282
179.958
181.125
181.74
182.721
183.317
184.131
184.732
185.461
186.101
186.821
187.521
188.261
189.029
189.867
190.752
191.696
192.712
193.811
194.985
196.248
197.604
199.05
200.596
202.242
203.984
205.829
207.778
209.826
211.978
214.232
216.589
219.055
221.62
224.292
227.07
229.957
232.949
236.058
239.276
242.612
246.068
249.644
253.348
257.184
261.154
265.265
269.516
273.913
278.463
283.173
288.049
293.098
298.328
303.744
309.356
315.17
321.199
327.449
333.935
340.664
347.656
354.922
362.484
370.363
378.593
387.196
396.2
405.676
415.734
426.446
437.991
450.525
464.266
479.025
492.069
498.183
152.448
159.235
161.991
167.449
170.421
176.183
179.575
185.268
188.809
194.241
197.828
203.068
206.647
211.672
215.112
219.78
222.981
227.247
230.141
233.971
236.47
239.793
241.88
244.631
246.318
248.422
249.706
251.162
252.027
252.831
253.187
253.348
253.387
253.298
252.905
252.278
251.526
250.677
249.718
248.643
247.492
246.328
245.145
243.959
242.827
241.763
240.778
239.913
239.176
238.585
238.165
237.956
237.88
237.967
238.291
238.818
239.498
240.396
241.459
242.72
244.129
245.738
247.49
249.401
251.473
253.677
256.02
258.498
261.093
263.802
266.648
269.587
272.653
275.811
279.07
282.418
285.856
289.369
292.963
296.622
300.35
304.133
307.977
311.869
315.812
319.778
323.795
327.845
331.967
336.151
340.452
344.84
349.376
354.134
359.258
364.953
371.477
378.838
384.68
387.286
179.815
189.934
194.124
202.536
207.11
215.661
220.948
229.477
235.263
243.673
249.675
257.905
263.965
272.02
278.048
285.801
291.671
299.064
304.66
311.653
316.93
323.387
328.352
334.137
338.778
343.827
348.052
352.344
356.057
359.622
362.713
365.527
367.952
370.026
371.672
372.946
373.767
374.13
374.243
374.125
373.351
372.257
370.937
369.12
367
364.648
361.932
358.947
355.793
352.416
348.839
345.177
341.453
337.662
333.924
330.262
326.661
323.234
319.924
316.842
313.903
311.258
308.835
306.672
304.803
303.21
301.881
300.862
300.109
299.643
299.429
299.37
299.592
300.017
300.634
301.396
302.326
303.354
304.52
305.743
307.07
308.411
309.833
311.247
312.745
314.313
315.951
317.677
319.493
321.446
323.522
325.793
328.28
330.957
333.976
337.568
341.961
346.701
348.893
348.636
207.63
220.83
226.349
237.514
243.601
254.537
261.298
272.02
279.284
289.841
297.363
307.713
315.264
325.361
332.928
342.719
350.18
359.673
366.953
376.045
383.223
391.757
398.868
406.777
413.758
421.079
427.816
434.592
440.984
447.245
453.197
458.933
464.422
469.688
474.679
479.403
483.873
488.055
491.939
495.528
498.776
501.716
504.343
506.57
508.418
509.948
511.07
511.682
511.942
511.979
511.428
510.36
509.059
507.074
504.778
502.021
498.752
495.158
491.131
486.761
482.116
477.083
471.853
466.349
460.684
454.882
448.998
443.043
437.141
431.253
425.477
419.942
414.603
409.596
404.838
400.417
396.186
392.259
388.532
385.125
381.927
378.981
376.134
373.492
370.893
368.459
366.035
363.605
361.018
358.401
355.731
353.048
350.287
347.78
345.294
344.075
343.644
345.617
347.289
347.293
231.925
247.472
253.954
267.07
274.27
287.017
294.766
307.146
315.269
327.359
335.656
347.457
355.819
367.239
375.59
386.681
394.925
405.637
413.869
424.022
432.363
441.887
450.302
459.271
467.626
476.151
484.328
492.48
500.406
508.218
515.851
523.338
530.668
537.85
544.876
551.744
558.449
564.992
571.38
577.602
583.637
589.506
595.206
600.697
605.99
611.104
616.002
620.674
625.144
629.37
633.312
637.012
640.458
643.538
646.308
648.733
650.77
652.417
653.667
654.411
654.751
654.849
654.506
653.56
652.319
650.392
648.132
645.209
641.821
637.88
633.343
628.28
622.616
616.451
609.762
602.648
595.128
587.192
578.927
570.269
561.445
552.423
543.239
533.659
523.688
513.425
503.332
493.256
482.591
470.798
458.685
446.31
433.477
419.83
405.243
391.521
379.739
371.802
368.161
365.149
250.285
267.435
274.533
288.826
296.603
310.536
318.784
332.252
340.744
353.837
362.468
375.12
383.799
396.019
404.615
416.369
424.981
436.082
444.873
455.234
464.205
473.942
482.955
492.232
501.143
510.083
518.814
527.48
536.003
544.428
552.738
560.949
569.06
577.078
585.006
592.851
600.615
608.306
615.927
623.485
630.98
638.42
645.807
653.14
660.427
667.666
674.853
681.996
689.104
696.154
703.133
710.072
716.975
723.796
730.548
737.242
743.85
750.351
756.743
762.999
769.128
775.107
780.888
786.483
791.84
796.915
801.727
806.2
810.317
814.058
817.374
820.164
822.404
824
824.786
825.071
824.768
823.244
821.156
817.745
813.458
807.682
800.801
792.418
782.517
770.637
756.794
740.747
722.591
701.721
678.003
651.227
621.263
587.731
551.259
511.922
472.824
436.726
411.918
397.884
270.189
287.393
294.633
309.212
317.066
330.973
339.42
352.716
361.425
374.285
382.943
395.376
403.952
415.734
424.339
435.275
443.967
454.082
462.823
472.231
480.925
489.837
498.39
506.937
515.288
523.553
531.688
539.724
547.661
555.505
563.274
570.971
578.615
586.214
593.785
601.338
608.886
616.441
624.013
631.61
639.26
646.993
654.813
662.728
670.754
678.899
687.171
695.582
704.137
712.836
721.686
730.695
739.861
749.176
758.639
768.248
778.002
787.892
797.902
808.025
818.277
828.626
839.045
849.565
860.151
870.767
881.429
892.098
902.812
913.551
924.323
935.097
945.876
956.631
967.343
977.97
988.446
998.708
1008.71
1018.32
1027.46
1035.88
1043.41
1049.76
1054.74
1057.22
1058.04
1055.7
1048.47
1037.03
1019.42
994.356
958.757
911.645
852.599
779.022
692.294
598.502
516.636
458.195
337.306
347.325
356.306
365.073
373.957
383.311
392.292
401.727
410.595
420.059
428.598
437.849
446.067
454.881
462.842
471.146
478.92
486.747
494.27
501.733
509.023
516.202
523.27
530.208
537.049
543.764
550.386
556.894
563.315
569.637
575.882
582.05
588.159
594.217
600.239
606.238
612.23
618.228
624.247
630.301
636.411
642.602
648.891
655.293
661.829
668.517
675.379
682.434
689.701
697.2
704.95
712.974
721.29
729.921
738.889
748.216
757.925
768.037
778.572
789.557
801.017
812.97
825.433
838.434
851.989
866.111
880.817
896.121
912.102
928.703
945.781
963.346
981.329
999.667
1018.38
1037.4
1056.66
1076.15
1095.82
1115.65
1135.61
1155.75
1176.12
1196.71
1217.49
1238.44
1259.38
1279.8
1298.95
1315.64
1325.36
1328.92
1321.38
1290.01
1235.16
1154.89
1045.38
909.132
744.384
580.452
661.83
652.28
648.897
644.531
642.609
640.631
639.858
639.466
639.393
639.454
640.045
641.038
642.419
643.959
645.843
647.867
650.216
652.671
655.408
658.27
661.369
664.592
668.003
671.525
675.187
678.935
682.781
686.688
690.656
694.66
698.697
702.749
706.811
710.876
714.941
719.004
723.067
727.138
731.229
735.354
739.516
743.697
747.909
752.166
756.482
760.868
765.341
769.917
774.61
779.437
784.417
789.565
794.894
800.434
806.217
812.262
818.588
825.214
832.164
839.47
847.165
855.285
863.855
872.907
882.479
892.615
903.349
914.729
926.615
939.11
952.378
966.41
981.27
996.994
1013.69
1031.41
1050.18
1070.14
1091.34
1113.88
1137.86
1163.43
1190.74
1220.05
1249.6
1280.32
1310.6
1339.27
1364.27
1380.9
1387.86
1388.7
1377.68
1358.87
1325.02
1265.69
1175.05
1056.54
919.294
764.569
1386.17
1377.11
1373.18
1365.39
1360.99
1353.64
1349.06
1342.43
1337.97
1332.3
1328.34
1323.84
1320.78
1317.66
1315.58
1313.61
1312.35
1311.47
1311.29
1311.54
1312.31
1313.65
1315.57
1318.12
1321.27
1325.03
1329.35
1334.2
1339.51
1345.2
1351.18
1357.35
1363.63
1369.93
1376.16
1382.27
1388.19
1393.89
1399.34
1404.49
1409.31
1413.78
1417.9
1421.64
1424.99
1427.96
1430.55
1432.76
1434.58
1436.03
1437.15
1437.76
1437.89
1437.77
1437.35
1436.57
1435.43
1433.9
1431.96
1429.6
1426.88
1423.86
1420.49
1416.74
1412.63
1408.19
1403.38
1398.1
1392.28
1385.97
1379.16
1371.78
1363.84
1354.95
1345.18
1334.76
1323.03
1310.31
1296.47
1281.24
1264.67
1246.65
1227.03
1205.69
1182.39
1156.46
1126.79
1091
1047.85
994.037
922.852
830.86
728.826
623.41
538.517
492.966
516.156
666.879
796.304
834.505
752.124
298.459
165.856
112.773
88.5356
69.7366
56.7733
50.9823
45.5896
43.2485
42.6447
44.489
53.4702
70.9467
102.691
162.98
261.295
396.678
567.869
698.057
610.058
301.732
199.568
142.321
108.22
85.1835
72.9389
62.5811
56.0479
53.3863
52.8846
56.9246
69.2261
89.9299
129.705
196.522
295.292
419.127
565.887
667.265
495.214
295.409
224.992
163.66
128.271
104.119
86.1565
74.6824
69.0441
67.051
67.3292
74.1276
89.3202
116.51
162.809
234.386
328.328
435.975
558.838
632.174
414.733
282.948
235.11
173.88
145.585
117.333
102.38
91.9664
87.2058
85.5382
86.0623
97.3525
118.69
152.038
205.657
277.182
360.317
449.052
542.817
592.835
362.988
274.957
240.33
187.541
164.382
136.992
124.342
113.42
108.994
107.529
113.398
133.328
159.11
199.804
254.409
316.946
383.493
447.654
515.208
550.39
329.654
269.745
243.467
199.162
180.263
157.195
147.248
141.186
139.577
145.632
161.833
185.888
215.592
257.195
302.56
350.548
397.028
438.64
475.6
505.956
314.687
274.037
254.819
222.893
209.443
197.192
193.497
193.048
201.74
214.206
233.52
255.379
282.172
312.789
342.208
371.445
394.661
415.625
421.646
461.45
330.747
310.586
301.797
289.516
285.451
283.908
283.698
287.606
294.602
303.821
315.404
327.327
341.216
353.923
364.864
372.707
378.586
373.359
358.997
419.766
429.167
419.897
415.601
402.738
396.736
388.753
384.958
381.174
379.36
377.701
376.89
375.68
374.338
370.915
365.793
360.041
340.811
310.523
290.333
381.34
513.909
496.793
489.186
470.644
461.937
447.057
439.665
427.287
420.835
410.05
403.343
392.473
382.903
368.137
350.45
322.613
285.251
247.481
230.724
347.85
487.798
472.008
465.544
449.926
442.726
431.581
426.103
418.098
414.08
407.966
404.056
398.077
392.258
383.547
372.46
349.747
314.602
270.242
247.813
350.101
367.844
361.538
358.442
351.256
348.368
346.588
346.086
349.445
353.586
360.392
366.646
374.507
380.549
384.783
386.531
387.3
376.7
345.821
319.192
385.23
308.511
281.573
269.25
249.656
242.583
239.679
239.99
248.057
258.18
274.613
292.475
314.137
337.2
360.049
380.576
397.262
407.638
407.073
390.84
428.112
305.564
263.398
243.141
208.387
193.545
177.518
171.605
169.568
175.035
189.588
211.687
238.215
273.02
311.757
351.429
389.669
421.423
448.642
455.267
474.753
322.525
262.033
235.799
192.079
173.097
149.306
138.818
131.069
128.611
130.824
148.199
172.582
206.074
253.716
307.489
365.342
421.787
470.592
507.822
523.724
355.529
267.475
232.509
179.739
156.557
129.572
117.084
106.993
102.778
101.409
105.042
125.651
152.364
195.911
256.428
327.286
403.528
478.162
546.521
571.875
408.661
277.212
229.563
169.766
141.548
113.284
97.4481
87.1023
82.3338
80.7689
82.0256
91.6353
114.541
149.755
207.219
285.654
378.029
477.111
575.841
617.289
495.243
288.378
216.917
158.824
124.27
101.109
83.3511
72.2059
66.2959
64.1805
64.1599
71.5117
85.5391
114.698
164.064
241.416
343.87
460.576
591.677
658.898
629.189
297.304
195.188
137.428
105.655
82.8508
69.9068
60.3293
54.1737
51.6213
51.1457
54.7348
67.5918
88.3984
130.419
202.196
308.969
442.61
598.04
695.63
781.761
297.452
162.314
109.8
85.5733
69.4052
55.6401
49.0893
44.1019
41.883
41.3589
43.542
51.6604
70.4417
103.595
167.868
273.643
418.991
599.65
727.672
646.123
32.1796
12.7396
11.3231
11.19
11.171
11.1705
11.1708
11.1706
11.1705
11.1705
11.1706
11.1708
11.1705
11.171
11.19
11.3231
12.7396
32.1797
646.123
672.63
55.0457
17.034
12.086
11.3037
11.1803
11.1547
11.1529
11.1534
11.1536
11.1536
11.1534
11.1529
11.1547
11.1803
11.3037
12.086
17.034
55.0457
672.63
698.343
71.0307
21.1399
13.2994
11.5861
11.226
11.1551
11.1382
11.1358
11.1355
11.1355
11.1358
11.1382
11.1551
11.226
11.5861
13.2994
21.1399
71.031
698.343
723.341
85.971
25.1597
14.6525
12.0453
11.3377
11.1684
11.1265
11.1183
11.1171
11.1171
11.1183
11.1265
11.1684
11.3377
12.0453
14.6525
25.1596
85.9709
723.341
746.908
101.991
29.2329
16.0735
12.5912
11.5244
11.2066
11.1273
11.105
11.1004
11.1004
11.105
11.1273
11.2066
11.5244
12.5912
16.0735
29.2329
101.991
746.908
769.064
118.26
33.3331
17.5314
13.1937
11.761
11.2826
11.1365
11.0944
11.0843
11.0843
11.0944
11.1365
11.2826
11.761
13.1937
17.5314
33.3332
118.26
769.064
790.536
134.794
37.5268
19.0385
13.8452
12.041
11.3863
11.1597
11.0918
11.0718
11.0718
11.0918
11.1597
11.3863
12.041
13.8452
19.0384
37.5267
134.793
790.536
811.177
151.381
41.8027
20.5906
14.5371
12.3579
11.5182
11.2032
11.0956
11.0625
11.0625
11.0956
11.2032
11.5182
12.3579
14.5371
20.5906
41.8026
151.381
811.177
830.185
167.294
46.0208
22.1465
15.2487
12.6998
11.6722
11.261
11.1067
11.0594
11.0594
11.1067
11.261
11.6722
12.6998
15.2487
22.1465
46.021
167.294
830.185
847.515
182.325
50.1153
23.6806
15.9658
13.0574
11.8434
11.3326
11.1292
11.062
11.062
11.1292
11.3326
11.8434
13.0574
15.9657
23.6806
50.1151
182.324
847.515
863.775
196.891
54.1607
25.2095
16.6907
13.4293
12.0301
11.4172
11.1606
11.0697
11.0697
11.1606
11.4172
12.0301
13.4293
16.6907
25.2094
54.1606
196.891
863.775
879.058
211.139
58.2131
26.7528
17.4302
13.8169
12.2323
11.5149
11.2017
11.086
11.086
11.2017
11.5149
12.2323
13.8169
17.4302
26.7528
58.2131
211.139
879.059
892.873
224.671
62.2056
28.2953
18.1783
14.2165
12.4474
11.6246
11.253
11.1114
11.1114
11.253
11.6246
12.4474
14.2165
18.1782
28.2952
62.2053
224.67
892.873
905.033
237.191
66.0425
29.8043
18.9203
14.6201
12.6708
11.7436
11.3131
11.1449
11.1449
11.3131
11.7436
12.6708
14.6201
18.9202
29.8042
66.0423
237.191
905.033
915.913
248.861
69.726
31.2722
19.6503
15.0233
12.8993
11.87
11.3811
11.1862
11.1862
11.3811
11.87
12.8993
15.0233
19.6503
31.2722
69.7261
248.861
915.914
925.826
259.958
73.3316
32.7215
20.3762
15.4286
13.1335
12.0038
11.4569
11.2352
11.2352
11.4569
12.0038
13.1334
15.4286
20.376
32.7212
73.3309
259.957
925.827
934.639
270.463
76.8822
34.1661
21.1045
15.8392
13.3746
12.1456
11.5411
11.2926
11.2926
11.5411
12.1456
13.3746
15.8392
21.1045
34.166
76.882
270.463
934.639
942.132
280.141
80.3174
35.5902
21.8301
16.2528
13.6215
12.2946
11.6332
11.358
11.358
11.6332
12.2946
13.6215
16.2528
21.8301
35.5902
80.3174
280.141
942.132
948.414
288.915
83.5818
36.9713
22.5428
16.6638
13.8707
12.4486
11.7316
11.4304
11.4304
11.7316
12.4485
13.8707
16.6637
22.5426
36.9709
83.5807
288.913
948.415
953.797
296.937
86.6841
38.3039
23.2373
17.0686
14.1196
12.6055
11.8349
11.5086
11.5086
11.8349
12.6055
14.1195
17.0684
23.237
38.303
86.6821
296.934
953.798
958.429
304.381
89.6673
39.5991
23.9173
17.4683
14.3685
12.7656
11.9433
11.5927
11.5927
11.9433
12.7656
14.3685
17.4683
23.9174
39.5991
89.6669
304.38
958.43
962.236
311.295
92.5744
40.8799
24.594
17.8685
14.6202
12.9301
12.0571
11.6828
11.6828
12.0571
12.9301
14.62
17.8682
24.5936
40.879
92.5719
311.289
962.237
965.059
317.498
95.3774
42.1434
25.2681
18.2701
14.8751
13.0992
12.1765
11.7789
11.7789
12.1764
13.0991
14.8748
18.2695
25.267
42.1407
95.3708
317.49
965.065
967.203
323.06
98.0136
43.3573
25.9251
18.666
15.1297
13.2709
12.3001
11.8801
11.8801
12.3
13.2708
15.1295
18.6657
25.9244
43.3558
98.009
323.052
967.208
968.589
327.894
100.444
44.5031
26.5549
19.0508
15.3808
13.4434
12.427
11.9859
11.9858
12.427
13.4432
15.3806
19.0503
26.554
44.5011
100.438
327.886
968.598
969.711
332.308
102.747
45.6042
27.165
19.4263
15.6281
13.6152
12.5553
12.0938
12.0937
12.5552
13.615
15.6277
19.4255
27.1634
45.6
102.735
332.291
969.719
970.274
336.31
104.957
46.6765
27.7637
19.7968
15.8735
13.787
12.6845
12.2032
12.2032
12.6843
13.7866
15.8727
19.7952
27.7604
46.6689
104.938
336.286
970.293
970.194
339.765
107.026
47.7039
28.3453
20.1608
16.1174
13.9602
12.8169
12.3167
12.3166
12.8167
13.9597
16.1164
20.1591
28.3421
47.697
107.009
339.745
970.216
969.867
342.745
108.915
48.6704
28.9026
20.515
16.3589
14.1353
12.9538
12.4359
12.4358
12.9535
14.1348
16.358
20.5134
28.8994
48.6626
108.894
342.717
969.896
969.111
345.203
110.616
49.5752
29.4364
20.8591
16.5963
14.3096
13.0918
12.5571
12.557
13.0916
14.3091
16.5953
20.857
29.4317
49.5632
110.585
345.17
969.149
968.16
347.263
112.147
50.4141
29.9433
21.1919
16.829
14.482
13.2289
12.6778
12.6777
13.2286
14.4813
16.8277
21.1891
29.9369
50.3988
112.108
347.229
968.212
967.128
348.954
113.463
51.1621
30.4101
21.5062
17.0526
14.6495
13.3632
12.7963
12.796
13.3624
14.6481
17.0502
21.5022
30.4026
51.1449
113.421
348.92
967.196
965.995
350.303
114.524
51.7981
30.8238
21.7925
17.2609
14.8091
13.4938
12.9134
12.9132
13.4932
14.8077
17.2582
21.787
30.8127
51.7744
114.469
350.262
966.083
964.74
351.394
115.383
52.3343
31.1837
22.048
17.4521
14.9603
13.6217
13.0304
13.0301
13.6208
14.9586
17.4492
22.0429
31.1733
52.3097
115.324
351.36
964.848
963.339
352.31
116.123
52.8066
31.5094
22.2843
17.6335
15.1085
13.7507
13.1505
13.1503
13.7501
15.1076
17.6319
22.2811
31.5018
52.7862
116.069
352.296
963.47
961.913
353.03
116.735
53.2214
31.8146
22.5176
17.8196
15.2638
13.8872
13.2783
13.2782
13.887
15.2634
17.8188
22.5159
31.8098
53.2052
116.687
353.044
962.07
960.613
353.485
117.137
53.5616
32.1036
22.7558
18.0175
15.4316
14.035
13.4162
13.4162
14.0351
15.4315
18.0169
22.7539
32.0981
53.5462
117.095
353.53
960.794
959.432
353.648
117.297
53.8232
32.371
22.996
18.2254
15.6104
14.1927
13.563
13.5629
14.1923
15.6094
18.2233
22.9923
32.3646
53.8097
117.276
353.758
959.625
958.273
353.643
117.317
54.0358
32.6183
23.229
18.4323
15.7917
14.3546
13.7146
13.7143
14.3537
15.7903
18.4303
23.2265
32.6153
54.034
117.336
353.831
958.46
957.099
353.642
117.342
54.2334
32.8538
23.4592
18.6425
15.9798
14.5253
13.876
13.8753
14.5235
15.9772
18.64
23.4595
32.8606
54.2536
117.405
353.881
957.274
955.947
353.748
117.433
54.443
33.1019
23.7087
18.8755
16.1916
14.7201
14.062
14.0611
14.7179
16.1881
18.8723
23.7096
33.1129
54.4748
117.528
354.041
956.111
954.784
354.108
117.635
54.6919
33.3971
24.0073
19.1542
16.446
14.9557
14.288
14.2874
14.9543
16.4434
19.1514
24.0071
33.4054
54.7182
117.707
354.463
954.931
953.425
354.986
117.958
55.0259
33.7757
24.3829
19.4984
16.7551
15.2393
14.5595
14.5602
15.2412
16.7561
19.4974
24.3834
33.7848
55.0479
118.009
355.375
953.536
951.607
355.629
118.437
55.5014
34.2701
24.8504
19.9123
17.1163
15.5637
14.8666
14.8688
15.5699
17.1227
19.9165
24.8561
34.2888
55.5398
118.513
356.055
951.657
949.154
355.684
119.092
56.138
34.8756
25.3889
20.3691
17.5017
15.8997
15.1783
15.1813
15.9082
17.5119
20.3798
25.407
34.9173
56.2228
119.257
356.12
949.111
946.02
355.487
119.85
56.8831
35.5345
25.941
20.8139
17.8593
16.1976
15.447
15.4501
16.2066
17.8712
20.8302
25.9737
35.6088
57.0334
120.14
355.928
945.856
942.268
354.7
120.577
57.6242
36.1599
26.4396
21.189
18.1336
16.4076
15.6284
15.6315
16.417
18.1462
21.2085
26.4847
36.2672
57.8364
120.977
355.206
941.97
938.069
353.531
121.199
58.2333
36.6661
26.8335
21.4547
18.2904
16.5066
15.707
15.7103
16.5169
18.3036
21.4735
26.8843
36.7973
58.4828
121.649
354.013
937.632
933.597
353.111
121.705
58.6107
36.985
27.0939
21.5945
18.3321
16.5177
15.7122
15.7156
16.529
18.3459
21.607
27.1404
37.1244
58.8667
122.119
353.471
933.035
929.061
353.211
121.922
58.7376
37.0972
27.2038
21.6215
18.3041
16.469
15.6607
15.6639
16.4803
18.3167
21.6274
27.2427
37.2342
58.9833
122.27
353.495
928.406
924.57
354.064
122.034
58.7202
37.0829
27.1939
21.561
18.1384
16.2494
15.4288
15.4289
16.2528
18.1393
21.5564
27.2286
37.2158
58.9568
122.304
354.216
923.846
920.175
357.529
122.307
58.4897
36.873
26.9714
21.2098
17.5938
15.5877
14.7141
14.7038
15.559
17.5507
21.1715
26.9904
36.9895
58.6931
122.449
357.459
919.425
915.997
365.934
123.082
57.5256
35.9701
26.0339
20.013
16.1089
14.0039
13.109
13.0868
13.9348
15.9784
19.8781
25.9979
36.0379
57.6308
123.06
365.775
915.263
912.216
373.778
124.924
55.5013
33.6374
23.7658
17.7949
14.0871
12.1376
11.2985
11.2685
12.0385
13.9158
17.6153
23.6563
33.6175
55.5053
124.677
373.603
911.52
908.9
380.031
128.425
53.5105
31.1094
21.3328
15.5632
12.1057
10.3014
9.53741
9.5057
10.1992
11.9264
15.3672
21.1917
31.041
53.4145
128.051
379.739
908.266
906.055
384.644
131.319
51.4984
28.7892
19.1229
13.5258
10.301
8.66671
7.96724
7.93223
8.55492
10.1087
13.2885
18.9508
28.6816
51.3147
130.736
384.212
905.508
903.676
387.688
132.899
49.5266
26.7504
17.2152
11.7899
8.7951
7.30413
6.6678
6.63454
7.18267
8.57347
11.533
17.0131
26.6031
49.2625
132.026
387.146
903.242
901.746
389.395
133.378
47.7254
25.0552
15.6581
10.4177
7.61154
6.24715
5.67093
5.63282
6.11956
7.37778
10.117
15.4285
24.8686
47.3628
132.279
388.756
901.427
900.213
390.124
133.376
46.1913
23.7216
14.4673
9.37108
6.7548
5.49697
4.96936
4.93505
5.37211
6.52301
9.08135
14.2068
23.4803
45.7268
132.183
389.377
899.995
899.007
390.279
133.17
44.9713
22.6902
13.5804
8.64565
6.13551
4.97372
4.48892
4.46075
4.86894
5.94693
8.36054
13.3245
22.4306
44.4443
131.694
389.459
898.867
898.048
390.197
132.5
44.0504
21.9735
12.9691
8.12687
5.72306
4.61939
4.16495
4.14521
4.53897
5.56335
7.88642
12.7164
21.7046
43.5321
130.88
389.305
898.004
897.285
389.779
131.681
43.4016
21.4889
12.5638
7.78452
5.44076
4.385
3.95091
3.93692
4.321
5.30355
7.58868
12.3189
21.2204
42.932
130.224
388.766
897.364
896.682
389.163
130.985
42.9597
21.1524
12.2793
7.56467
5.27985
4.25306
3.83741
3.81521
4.20064
5.17522
7.3812
12.0698
20.9165
42.5681
129.738
388.239
896.891
896.199
388.586
130.451
42.6844
20.9128
12.089
7.44301
5.19108
4.1829
3.77688
3.75776
4.1335
5.09895
7.27272
11.8966
20.7198
42.3705
129.397
387.888
896.535
895.811
388.137
130.115
42.5313
20.7739
11.9632
7.34284
5.14132
4.12494
3.72434
3.70844
4.07745
5.03106
7.18009
11.7966