/*--------------------------------*- C++ -*----------------------------------*\
| =========                 |                                                 |
| \\      /  F ield         | OpenFOAM: The Open Source CFD Toolbox           |
|  \\    /   O peration     | Version:  2.1.0                                 |
|   \\  /    A nd           | Web:      www.OpenFOAM.org                      |
|    \\/     M anipulation  |                                                 |
\*---------------------------------------------------------------------------*/
FoamFile
{
    version     2.0;
    format      ascii;
    class       volScalarField;
    location    "0.11";
    object      p;
}
// * * * * * * * * * * * * * * * * * * * * * * * * * * * * * * * * * * * * * //

dimensions      [1 -1 -2 0 0 0 0];

internalField   nonuniform List<scalar> 
6400
(
100007
100002
99996.9
99992.5
99988.3
99984.2
99980.3
99976.3
99972.2
99968.1
99963.9
99959.7
99955.3
99950.8
99946.3
99941.7
99937.1
99932.4
99927.7
99922.9
99918.1
99913.3
99908.5
99903.6
99898.8
99894
99889.2
99884.4
99879.6
99874.8
99870
99865.3
99860.6
99855.8
99851.1
99846.4
99841.7
99837
99832.3
99827.5
99822.7
99817.9
99813
99808.1
99803.1
99798
99792.8
99787.5
99782.1
99776.7
99771
99765.3
99759.3
99753.3
99747
99740.6
99734
99727.1
99720.1
99712.8
99705.3
99697.5
99689.4
99681.1
99672.5
99663.5
99654.2
99644.6
99634.6
99624.3
99613.5
99602.4
99590.8
99578.8
99566.4
99553.6
99540.3
99526.5
99512.3
99497.6
99482.3
99466.5
99449.9
99432.7
99414.4
99395.1
99374.3
99351.7
99326.9
99299.7
99269.9
99238.4
99207
99177.4
99149.2
99117.9
99066.6
98960.4
98613
97094.9
100007
99999.7
99994.5
99990.2
99986.3
99982.5
99978.6
99974.8
99970.8
99966.7
99962.6
99958.4
99954
99949.6
99945.2
99940.6
99936
99931.4
99926.7
99922
99917.2
99912.4
99907.6
99902.8
99898
99893.2
99888.4
99883.6
99878.8
99874
99869.3
99864.5
99859.8
99855.1
99850.4
99845.7
99841
99836.3
99831.6
99826.8
99822.1
99817.2
99812.4
99807.4
99802.4
99797.4
99792.2
99786.9
99781.6
99776.1
99770.5
99764.7
99758.8
99752.7
99746.5
99740.1
99733.5
99726.7
99719.6
99712.4
99704.9
99697.1
99689.1
99680.8
99672.2
99663.3
99654.1
99644.5
99634.5
99624.2
99613.5
99602.4
99590.9
99579
99566.7
99553.9
99540.6
99526.9
99512.7
99498
99482.8
99467
99450.5
99433.3
99415.1
99395.8
99375
99352.5
99328
99301
99271.5
99240.3
99208.9
99179.3
99153.6
99126.1
99080.3
98988.6
98708.5
98193.4
100004
99998.3
99993.6
99989.5
99985.7
99982
99978.2
99974.3
99970.3
99966.3
99962.1
99957.9
99953.5
99949.1
99944.7
99940.1
99935.5
99930.9
99926.2
99921.4
99916.7
99911.9
99907.1
99902.3
99897.4
99892.6
99887.8
99883
99878.3
99873.5
99868.8
99864.1
99859.4
99854.7
99850
99845.3
99840.6
99836
99831.3
99826.5
99821.8
99817
99812.1
99807.2
99802.3
99797.2
99792.1
99786.9
99781.5
99776.1
99770.5
99764.8
99758.9
99752.9
99746.7
99740.4
99733.8
99727
99720.1
99712.9
99705.4
99697.7
99689.8
99681.5
99673
99664.2
99655
99645.5
99635.7
99625.5
99614.9
99603.9
99592.5
99580.7
99568.5
99555.9
99542.8
99529.2
99515.2
99500.6
99485.5
99469.8
99453.4
99436.2
99418.1
99398.8
99378.1
99355.7
99331.4
99304.9
99276.3
99246.6
99217.5
99190.8
99168.4
99144.6
99113.8
99059.2
98917.5
99018.2
100000
99996.3
99992.4
99988.9
99985.3
99981.7
99978
99974.2
99970.3
99966.2
99962
99957.8
99953.4
99949
99944.5
99940
99935.4
99930.7
99926
99921.3
99916.5
99911.7
99906.9
99902.1
99897.3
99892.5
99887.7
99882.9
99878.2
99873.5
99868.7
99864
99859.4
99854.7
99850.1
99845.4
99840.8
99836.1
99831.5
99826.8
99822.1
99817.3
99812.5
99807.6
99802.7
99797.7
99792.6
99787.5
99782.2
99776.8
99771.2
99765.6
99759.8
99753.8
99747.7
99741.4
99734.9
99728.2
99721.3
99714.1
99706.8
99699.1
99691.2
99683.1
99674.6
99665.9
99656.8
99647.3
99637.6
99627.4
99616.9
99606
99594.7
99582.9
99570.7
99558
99544.9
99531.3
99517.2
99502.5
99487.2
99471.3
99454.7
99437.2
99418.8
99399.3
99378.5
99356.1
99331.9
99306.1
99279
99251.7
99226.5
99205
99189.2
99179.6
99177.9
99187.1
99220.6
99636.4
99995.7
99993.7
99991.1
99988.2
99985
99981.7
99978.1
99974.4
99970.5
99966.4
99962.3
99958
99953.7
99949.3
99944.8
99940.2
99935.6
99930.9
99926.2
99921.5
99916.7
99911.9
99907.2
99902.4
99897.6
99892.8
99888
99883.2
99878.5
99873.8
99869.1
99864.4
99859.8
99855.1
99850.5
99845.9
99841.3
99836.7
99832
99827.4
99822.7
99818
99813.2
99808.4
99803.5
99798.5
99793.5
99788.3
99783.1
99777.7
99772.2
99766.6
99760.8
99754.9
99748.8
99742.5
99736
99729.4
99722.5
99715.3
99708
99700.4
99692.5
99684.3
99675.9
99667.1
99658
99648.5
99638.7
99628.5
99618
99607
99595.7
99583.9
99571.6
99558.9
99545.7
99532
99517.7
99502.9
99487.4
99471.3
99454.4
99436.7
99418.1
99398.3
99377.3
99354.9
99331.1
99306.2
99280.8
99256.8
99236.6
99222.3
99217.7
99229.7
99268.6
99361.1
99558.4
100121
99990.5
99991
99989.7
99987.6
99984.9
99981.8
99978.4
99974.7
99970.9
99966.9
99962.8
99958.5
99954.2
99949.8
99945.3
99940.7
99936.1
99931.4
99926.7
99922
99917.2
99912.5
99907.7
99902.9
99898.1
99893.3
99888.6
99883.8
99879.1
99874.4
99869.7
99865.1
99860.4
99855.8
99851.2
99846.6
99842
99837.4
99832.8
99828.1
99823.4
99818.7
99813.9
99809.1
99804.2
99799.2
99794.2
99789
99783.8
99778.4
99772.9
99767.2
99761.4
99755.5
99749.4
99743.1
99736.6
99729.9
99723
99715.9
99708.5
99700.9
99693
99684.8
99676.3
99667.5
99658.4
99649
99639.2
99629.1
99618.5
99607.5
99596.1
99584.3
99572
99559.2
99545.9
99532.1
99517.7
99502.7
99487
99470.6
99453.4
99435.4
99416.4
99396.4
99375.1
99352.7
99329.3
99305.4
99282
99261.4
99246.7
99240.6
99250.2
99287.9
99373.9
99554.3
99880.7
100497
99985.6
99988.3
99988.4
99987.1
99984.8
99982
99978.8
99975.2
99971.4
99967.5
99963.4
99959.1
99954.8
99950.4
99945.9
99941.3
99936.7
99932
99927.3
99922.6
99917.8
99913
99908.3
99903.5
99898.7
99893.9
99889.2
99884.4
99879.7
99875
99870.3
99865.6
99861
99856.4
99851.7
99847.1
99842.5
99837.9
99833.2
99828.6
99823.9
99819.1
99814.3
99809.5
99804.6
99799.6
99794.5
99789.3
99784
99778.7
99773.1
99767.5
99761.7
99755.7
99749.6
99743.2
99736.7
99730
99723.1
99716
99708.6
99701
99693.1
99684.9
99676.5
99667.7
99658.6
99649.2
99639.4
99629.3
99618.7
99607.7
99596.3
99584.4
99572.1
99559.2
99545.8
99531.8
99517.3
99502.1
99486.2
99469.6
99452.1
99433.7
99414.3
99393.9
99372.5
99350.1
99327
99304
99282.5
99265
99255.5
99257.7
99282.1
99345.7
99478.6
99738.5
100156
100779
99981.4
99986.1
99987.3
99986.6
99984.8
99982.2
99979.1
99975.7
99972
99968
99963.9
99959.7
99955.4
99951
99946.4
99941.9
99937.3
99932.6
99927.9
99923.1
99918.4
99913.6
99908.8
99904
99899.2
99894.4
99889.6
99884.8
99880.1
99875.4
99870.7
99866
99861.3
99856.6
99852
99847.3
99842.7
99838
99833.4
99828.7
99824
99819.2
99814.4
99809.5
99804.6
99799.6
99794.4
99789.3
99784
99778.5
99773
99767.4
99761.5
99755.5
99749.4
99743.1
99736.6
99729.9
99723
99715.8
99708.5
99700.8
99693
99684.8
99676.4
99667.7
99658.6
99649.2
99639.4
99629.3
99618.8
99607.9
99596.5
99584.6
99572.2
99559.3
99545.8
99531.7
99517
99501.7
99485.6
99468.6
99450.8
99432
99412.3
99391.5
99369.8
99347.3
99324.5
99302.2
99282.2
99267.2
99261.8
99271.2
99307
99394.7
99568.2
99891.1
100365
100978
99978.4
99984.4
99986.5
99986.3
99984.8
99982.4
99979.4
99976
99972.3
99968.4
99964.3
99960.1
99955.8
99951.4
99946.8
99942.3
99937.6
99932.9
99928.2
99923.4
99918.6
99913.8
99909
99904.2
99899.4
99894.6
99889.8
99885
99880.2
99875.4
99870.7
99866
99861.3
99856.6
99851.9
99847.3
99842.6
99837.9
99833.2
99828.5
99823.7
99819
99814.1
99809.2
99804.3
99799.2
99794.1
99788.9
99783.6
99778.2
99772.6
99767
99761.2
99755.2
99749.1
99742.8
99736.3
99729.6
99722.8
99715.7
99708.3
99700.8
99692.9
99684.9
99676.5
99667.8
99658.7
99649.4
99639.7
99629.6
99619.1
99608.1
99596.7
99584.9
99572.6
99559.6
99546.1
99532
99517.1
99501.6
99485.2
99468
99449.8
99430.7
99410.5
99389.3
99367.2
99344.5
99321.8
99300
99280.9
99267.6
99264.9
99279.6
99325.7
99429.1
99631.4
99997.1
100504
101102
99977
99983.6
99986.1
99986.2
99984.8
99982.5
99979.5
99976.2
99972.5
99968.6
99964.5
99960.3
99955.9
99951.5
99947
99942.4
99937.7
99933
99928.3
99923.5
99918.7
99913.9
99909
99904.2
99899.4
99894.5
99889.7
99884.9
99880.1
99875.4
99870.6
99865.9
99861.2
99856.5
99851.8
99847.1
99842.4
99837.7
99833
99828.3
99823.5
99818.7
99813.9
99809
99804
99799
99793.9
99788.7
99783.4
99778
99772.5
99766.8
99761
99755.1
99749
99742.7
99736.2
99729.6
99722.7
99715.7
99708.4
99700.8
99693.1
99685
99676.6
99668
99659
99649.7
99640.1
99630.1
99619.6
99608.7
99597.3
99585.5
99573.1
99560.2
99546.6
99532.3
99517.4
99501.6
99485
99467.5
99449
99429.4
99408.9
99387.2
99364.7
99341.6
99318.7
99297.1
99278.5
99265.9
99264.4
99281.8
99333
99444.5
99660.9
100047
100568
101160
99977.1
99983.7
99986.1
99986.2
99984.8
99982.5
99979.6
99976.2
99972.5
99968.6
99964.5
99960.3
99955.9
99951.5
99947
99942.4
99937.7
99933
99928.3
99923.5
99918.7
99913.9
99909
99904.2
99899.4
99894.5
99889.7
99884.9
99880.1
99875.4
99870.6
99865.9
99861.2
99856.5
99851.8
99847.1
99842.4
99837.7
99833
99828.3
99823.5
99818.7
99813.9
99809
99804
99799
99793.9
99788.7
99783.4
99778
99772.4
99766.8
99761
99755.1
99749
99742.7
99736.3
99729.7
99722.9
99715.8
99708.6
99701.1
99693.3
99685.2
99676.9
99668.4
99659.4
99650.2
99640.6
99630.6
99620.2
99609.3
99598
99586.2
99573.8
99560.8
99547.1
99532.8
99517.7
99501.7
99484.9
99467.1
99448.2
99428.3
99407.2
99385.1
99362.1
99338.6
99315.3
99293.4
99274.6
99261.9
99260.1
99277.4
99328.3
99438.9
99653.6
100038
100557
101148
99978.8
99984.7
99986.6
99986.4
99984.9
99982.5
99979.5
99976.1
99972.3
99968.4
99964.3
99960.1
99955.8
99951.3
99946.8
99942.2
99937.6
99932.9
99928.2
99923.4
99918.6
99913.8
99909
99904.2
99899.4
99894.6
99889.8
99885
99880.2
99875.4
99870.7
99866
99861.3
99856.6
99851.9
99847.2
99842.5
99837.8
99833.1
99828.4
99823.6
99818.8
99814
99809.1
99804.1
99799.1
99794
99788.8
99783.5
99778.1
99772.6
99766.9
99761.2
99755.2
99749.2
99742.9
99736.5
99729.9
99723.1
99716.1
99708.8
99701.3
99693.6
99685.6
99677.3
99668.8
99659.9
99650.7
99641.2
99631.2
99620.9
99610
99598.7
99586.9
99574.5
99561.5
99547.8
99533.3
99518.1
99502
99484.9
99466.8
99447.6
99427.3
99405.8
99383.1
99359.6
99335.4
99311.6
99289.1
99269.5
99255.6
99252.1
99266.5
99312
99412.7
99610.2
99969.4
100471
101070
99981.9
99986.4
99987.5
99986.8
99985
99982.3
99979.2
99975.7
99972
99968
99963.9
99959.7
99955.4
99950.9
99946.4
99941.9
99937.2
99932.6
99927.8
99923.1
99918.3
99913.5
99908.7
99903.9
99899.1
99894.3
99889.5
99884.8
99880
99875.3
99870.6
99865.9
99861.2
99856.5
99851.8
99847.2
99842.5
99837.8
99833.1
99828.4
99823.7
99818.9
99814.1
99809.2
99804.3
99799.3
99794.2
99789
99783.7
99778.3
99772.8
99767.2
99761.5
99755.5
99749.5
99743.2
99736.8
99730.2
99723.4
99716.4
99709.2
99701.8
99694.1
99686.1
99677.9
99669.4
99660.5
99651.4
99641.8
99631.9
99621.6
99610.8
99599.5
99587.7
99575.3
99562.3
99548.5
99534
99518.7
99502.4
99485.1
99466.8
99447.3
99426.5
99404.6
99381.4
99357.2
99332.3
99307.6
99284.2
99263.4
99247.6
99241.1
99250.1
99285.8
99368.6
99534.8
99848
100315
100927
99986.3
99988.8
99988.8
99987.3
99985
99982.2
99978.9
99975.3
99971.5
99967.5
99963.4
99959.2
99954.8
99950.4
99945.9
99941.3
99936.7
99932
99927.3
99922.6
99917.8
99913
99908.2
99903.4
99898.6
99893.9
99889.1
99884.3
99879.6
99874.9
99870.2
99865.5
99860.8
99856.1
99851.5
99846.8
99842.2
99837.5
99832.9
99828.2
99823.5
99818.7
99813.9
99809
99804.1
99799.1
99794.1
99788.9
99783.7
99778.3
99772.8
99767.2
99761.5
99755.6
99749.6
99743.4
99737
99730.5
99723.7
99716.8
99709.6
99702.2
99694.5
99686.6
99678.4
99670
99661.2
99652.1
99642.6
99632.8
99622.5
99611.8
99600.5
99588.7
99576.3
99563.2
99549.5
99534.9
99519.4
99503
99485.6
99467
99447.2
99426.1
99403.7
99380
99355.2
99329.5
99303.7
99279.1
99256.7
99238.6
99227.8
99229.8
99252.4
99311.4
99435.5
99683.1
100089
100712
99991.3
99991.5
99990.1
99987.9
99985.2
99982
99978.6
99974.9
99971
99967
99962.9
99958.6
99954.3
99949.8
99945.3
99940.8
99936.1
99931.5
99926.8
99922
99917.3
99912.5
99907.7
99902.9
99898.1
99893.3
99888.5
99883.8
99879
99874.3
99869.6
99864.9
99860.3
99855.6
99851
99846.3
99841.7
99837
99832.4
99827.7
99823
99818.2
99813.4
99808.6
99803.7
99798.7
99793.7
99788.5
99783.3
99778
99772.5
99766.9
99761.2
99755.3
99749.4
99743.2
99736.9
99730.4
99723.7
99716.8
99709.6
99702.3
99694.7
99686.9
99678.7
99670.3
99661.6
99652.6
99643.2
99633.4
99623.1
99612.4
99601.2
99589.5
99577.1
99564.1
99550.3
99535.7
99520.2
99503.8
99486.2
99467.4
99447.4
99426
99403.2
99379
99353.5
99326.9
99300
99273.8
99249.6
99228.8
99213.5
99207.9
99216
99248.4
99324.6
99490.9
99802.3
100414
99996.5
99994.4
99991.6
99988.6
99985.4
99982
99978.4
99974.6
99970.7
99966.6
99962.4
99958.2
99953.8
99949.4
99944.9
99940.3
99935.7
99931
99926.3
99921.6
99916.8
99912
99907.2
99902.4
99897.6
99892.8
99888.1
99883.3
99878.5
99873.8
99869.1
99864.4
99859.7
99855
99850.4
99845.7
99841
99836.4
99831.7
99827
99822.3
99817.5
99812.7
99807.9
99803
99798
99793
99787.8
99782.6
99777.3
99771.8
99766.3
99760.6
99754.7
99748.8
99742.6
99736.3
99729.9
99723.2
99716.3
99709.3
99702
99694.4
99686.6
99678.6
99670.2
99661.6
99652.6
99643.2
99633.5
99623.3
99612.6
99601.5
99589.8
99577.5
99564.5
99550.8
99536.2
99520.7
99504.1
99486.5
99467.6
99447.4
99425.8
99402.6
99378
99351.9
99324.5
99296.4
99268.6
99242.4
99219.2
99200.8
99187.4
99181.2
99187.8
99216.6
99294.1
99472.6
100023
100001
99996.9
99993
99989.3
99985.7
99982.1
99978.3
99974.5
99970.5
99966.4
99962.2
99958
99953.6
99949.2
99944.7
99940.1
99935.5
99930.9
99926.2
99921.4
99916.7
99911.9
99907.1
99902.3
99897.5
99892.7
99887.9
99883.1
99878.3
99873.5
99868.8
99864.1
99859.4
99854.7
99850
99845.3
99840.6
99835.9
99831.2
99826.5
99821.7
99817
99812.1
99807.2
99802.3
99797.3
99792.2
99787
99781.8
99776.4
99770.9
99765.3
99759.6
99753.8
99747.8
99741.6
99735.3
99728.8
99722.1
99715.3
99708.2
99700.9
99693.4
99685.6
99677.6
99669.3
99660.7
99651.7
99642.4
99632.8
99622.7
99612.1
99601
99589.4
99577.1
99564.2
99550.5
99535.9
99520.4
99503.8
99486.1
99467.2
99446.9
99425.1
99401.7
99376.7
99350.1
99322
99292.9
99263.6
99235.6
99210
99188.3
99169.8
99152.3
99137.7
99126.2
99120.4
99132.1
99525.7
100005
99998.9
99994.1
99990
99986.1
99982.3
99978.5
99974.6
99970.6
99966.5
99962.3
99958.1
99953.7
99949.3
99944.8
99940.3
99935.7
99931
99926.3
99921.6
99916.9
99912.1
99907.3
99902.5
99897.6
99892.8
99888
99883.2
99878.5
99873.7
99868.9
99864.2
99859.5
99854.7
99850
99845.3
99840.6
99835.9
99831.1
99826.4
99821.6
99816.8
99811.9
99807
99802
99796.9
99791.8
99786.6
99781.3
99775.9
99770.4
99764.7
99759
99753
99747
99740.8
99734.4
99727.9
99721.2
99714.3
99707.2
99699.8
99692.3
99684.4
99676.4
99668
99659.4
99650.4
99641
99631.3
99621.2
99610.6
99599.5
99587.9
99575.6
99562.6
99548.9
99534.3
99518.8
99502.2
99484.5
99465.5
99445.1
99423.2
99399.7
99374.5
99347.6
99319
99289.1
99258.7
99229.2
99202
99178
99157.3
99132.8
99103.7
99063.9
98994.6
98829.5
98892.6
100007
100000
99995.1
99990.7
99986.7
99982.8
99978.9
99975
99971
99967
99962.8
99958.6
99954.2
99949.8
99945.4
99940.8
99936.2
99931.6
99926.9
99922.2
99917.4
99912.6
99907.9
99903
99898.2
99893.4
99888.6
99883.8
99879
99874.2
99869.5
99864.7
99860
99855.3
99850.5
99845.8
99841.1
99836.3
99831.6
99826.8
99822
99817.1
99812.2
99807.3
99802.3
99797.2
99792
99786.8
99781.4
99776
99770.4
99764.8
99759
99753
99747
99740.7
99734.3
99727.8
99721
99714.1
99706.9
99699.5
99691.9
99684.1
99675.9
99667.5
99658.8
99649.8
99640.4
99630.6
99620.4
99609.8
99598.6
99586.9
99574.5
99561.4
99547.6
99532.9
99517.2
99500.5
99482.5
99463.3
99442.7
99420.6
99396.8
99371.2
99343.8
99314.7
99284
99252.5
99221.5
99192.6
99165.8
99142.3
99120.2
99086.7
99031.6
98925.3
98621
98041.8
100008
100003
99997.5
99992.9
99988.7
99984.6
99980.6
99976.6
99972.5
99968.4
99964.2
99959.9
99955.5
99951
99946.5
99941.9
99937.3
99932.6
99927.9
99923.1
99918.3
99913.5
99908.7
99903.9
99899.1
99894.2
99889.4
99884.6
99879.8
99875
99870.3
99865.5
99860.8
99856
99851.3
99846.5
99841.8
99837
99832.3
99827.5
99822.7
99817.8
99812.9
99807.9
99802.9
99797.8
99792.7
99787.4
99782.1
99776.7
99771.1
99765.4
99759.6
99753.7
99747.6
99741.4
99735
99728.4
99721.6
99714.7
99707.5
99700.1
99692.5
99684.6
99676.5
99668.1
99659.4
99650.4
99641
99631.2
99621
99610.3
99599.1
99587.4
99575
99561.9
99548.1
99533.4
99517.7
99500.9
99483
99463.7
99443.1
99420.9
99397
99371.4
99343.9
99314.6
99283.7
99252.2
99221.4
99192.5
99166.5
99141.1
99109.4
99068.1
99009.9
98893.6
98524.2
96902.4
100547
101768
102286
102579
102778
102927
103044
103138
103215
103279
103333
103378
103415
103446
103471
103491
103506
103515
103519
103518
100499
101484
102088
102467
102719
102899
103035
103142
103227
103297
103354
103401
103440
103471
103496
103516
103529
103538
103540
103536
100768
101508
102028
102405
102676
102875
103025
103141
103234
103309
103369
103418
103458
103490
103515
103533
103546
103553
103554
103549
101023
101625
102066
102409
102672
102874
103029
103151
103248
103326
103389
103439
103479
103511
103534
103552
103563
103568
103568
103559
101240
101749
102135
102446
102694
102889
103045
103168
103267
103347
103410
103461
103501
103532
103554
103569
103578
103582
103580
103567
101419
101863
102210
102495
102728
102916
103068
103190
103290
103369
103433
103484
103523
103552
103573
103586
103593
103594
103590
103573
101563
101960
102279
102545
102765
102945
103093
103214
103313
103392
103456
103506
103544
103572
103591
103602
103606
103605
103599
103577
101670
102035
102334
102586
102797
102973
103118
103237
103335
103414
103477
103526
103564
103590
103607
103615
103617
103614
103606
103580
101741
102086
102374
102618
102823
102995
103139
103257
103354
103432
103495
103544
103580
103605
103620
103626
103626
103621
103610
103582
101776
102112
102395
102636
102839
103009
103151
103268
103364
103443
103505
103554
103590
103614
103628
103633
103632
103626
103614
103583
101765
102102
102385
102626
102830
103001
103143
103261
103358
103437
103500
103549
103585
103610
103625
103630
103629
103623
103609
103583
101713
102060
102349
102595
102802
102976
103120
103240
103338
103418
103483
103533
103571
103597
103613
103621
103621
103616
103605
103575
101628
101997
102299
102554
102767
102945
103093
103214
103314
103395
103461
103512
103551
103580
103598
103608
103611
103608
103599
103572
101508
101910
102232
102502
102726
102911
103062
103186
103288
103370
103436
103489
103529
103560
103580
103593
103598
103597
103592
103568
101353
101803
102155
102444
102682
102875
103031
103158
103261
103344
103411
103464
103506
103538
103561
103576
103584
103585
103582
103564
101163
101679
102072
102388
102642
102843
103004
103132
103235
103318
103385
103439
103482
103515
103540
103557
103568
103572
103570
103557
100936
101546
101995
102346
102616
102824
102985
103112
103214
103295
103362
103415
103458
103493
103519
103538
103550
103557
103557
103548
100669
101420
101951
102338
102617
102822
102979
103100
103198
103276
103340
103393
103436
103470
103497
103518
103532
103540
103542
103537
100387
101391
102010
102399
102659
102846
102988
103100
103190
103263
103324
103374
103416
103450
103478
103499
103515
103524
103527
103523
100427
101677
102209
102512
102719
102874
102996
103095
103176
103244
103301
103349
103389
103423
103450
103472
103488
103499
103504
103502
103343
103341
103340
103339
103339
103338
103338
103337
103337
103337
103337
103337
103337
103338
103338
103339
103339
103340
103341
103343
103340
103338
103337
103337
103337
103336
103336
103336
103336
103336
103336
103336
103336
103336
103336
103337
103337
103337
103338
103340
103339
103337
103337
103337
103337
103337
103337
103337
103337
103337
103337
103337
103337
103337
103337
103337
103337
103337
103337
103339
103339
103338
103337
103337
103337
103337
103337
103337
103337
103337
103337
103337
103337
103337
103337
103337
103337
103337
103338
103339
103339
103337
103337
103337
103337
103337
103337
103337
103337
103337
103337
103337
103337
103337
103337
103337
103337
103337
103337
103339
103338
103337
103336
103336
103336
103336
103336
103336
103336
103336
103336
103336
103336
103336
103336
103336
103336
103336
103337
103338
103338
103336
103336
103336
103336
103335
103335
103335
103335
103335
103335
103335
103335
103335
103335
103336
103336
103336
103336
103338
103337
103335
103335
103335
103335
103335
103335
103335
103335
103335
103335
103335
103335
103335
103335
103335
103335
103335
103335
103337
103336
103335
103334
103334
103334
103334
103334
103334
103334
103334
103334
103334
103334
103334
103334
103334
103334
103334
103335
103336
103336
103334
103334
103334
103334
103334
103333
103333
103333
103333
103333
103333
103333
103333
103334
103334
103334
103334
103334
103336
103335
103333
103333
103333
103333
103333
103333
103333
103333
103333
103333
103333
103333
103333
103333
103333
103333
103333
103333
103335
103334
103333
103332
103332
103332
103332
103332
103332
103332
103332
103332
103332
103332
103332
103332
103332
103332
103332
103333
103334
103333
103332
103332
103332
103331
103331
103331
103331
103331
103331
103331
103331
103331
103331
103331
103331
103332
103332
103332
103333
103333
103331
103331
103331
103331
103331
103331
103331
103331
103331
103331
103331
103331
103331
103331
103331
103331
103331
103331
103333
103332
103330
103330
103330
103330
103330
103330
103330
103330
103330
103330
103330
103330
103330
103330
103330
103330
103330
103330
103332
103331
103330
103329
103329
103329
103329
103329
103329
103329
103329
103329
103329
103329
103329
103329
103329
103329
103329
103330
103331
103330
103329
103329
103329
103328
103328
103328
103328
103328
103328
103328
103328
103328
103328
103328
103328
103329
103329
103329
103330
103329
103328
103328
103328
103328
103328
103328
103328
103328
103328
103328
103328
103328
103328
103328
103328
103328
103328
103328
103329
103329
103327
103327
103327
103327
103327
103327
103327
103327
103327
103327
103327
103327
103327
103327
103327
103327
103327
103327
103329
103328
103326
103326
103326
103326
103326
103326
103326
103326
103326
103326
103326
103326
103326
103326
103326
103326
103326
103326
103328
103327
103326
103325
103325
103325
103325
103325
103325
103325
103325
103325
103325
103325
103325
103325
103325
103325
103325
103326
103327
103326
103325
103325
103325
103325
103324
103324
103324
103324
103324
103324
103324
103324
103324
103324
103325
103325
103325
103325
103326
103325
103324
103324
103324
103324
103324
103324
103324
103324
103324
103324
103324
103324
103324
103324
103324
103324
103324
103324
103325
103324
103323
103323
103323
103323
103323
103323
103323
103323
103323
103323
103323
103323
103323
103323
103323
103323
103323
103323
103324
103324
103322
103322
103322
103322
103322
103322
103322
103322
103322
103322
103322
103322
103322
103322
103322
103322
103322
103322
103324
103323
103322
103321
103321
103321
103321
103321
103321
103321
103321
103321
103321
103321
103321
103321
103321
103321
103321
103322
103323
103322
103321
103321
103321
103320
103320
103320
103320
103320
103320
103320
103320
103320
103320
103320
103320
103321
103321
103321
103322
103321
103320
103320
103320
103320
103320
103320
103320
103320
103320
103320
103320
103320
103320
103320
103320
103320
103320
103320
103321
103320
103319
103319
103319
103319
103319
103319
103319
103319
103319
103319
103319
103319
103319
103319
103319
103319
103319
103319
103320
103319
103318
103318
103318
103318
103318
103318
103318
103318
103318
103318
103318
103318
103318
103318
103318
103318
103318
103318
103319
103318
103317
103317
103317
103317
103317
103317
103317
103317
103317
103317
103317
103317
103317
103317
103317
103317
103317
103317
103318
103318
103317
103316
103316
103316
103316
103316
103316
103316
103316
103316
103316
103316
103316
103316
103316
103316
103316
103317
103318
103317
103316
103316
103316
103316
103316
103316
103316
103316
103316
103316
103316
103316
103316
103316
103316
103316
103316
103316
103317
103316
103315
103315
103315
103315
103315
103315
103315
103315
103315
103315
103315
103315
103315
103315
103315
103315
103315
103315
103316
103315
103314
103314
103314
103314
103314
103314
103314
103314
103314
103314
103314
103314
103314
103314
103314
103314
103314
103314
103315
103314
103313
103313
103313
103313
103313
103313
103313
103314
103314
103314
103314
103313
103313
103313
103313
103313
103313
103313
103314
103314
103313
103312
103312
103313
103313
103313
103313
103313
103313
103313
103313
103313
103313
103313
103313
103312
103312
103313
103314
103313
103312
103312
103312
103312
103312
103312
103312
103312
103312
103312
103312
103312
103312
103312
103312
103312
103312
103312
103313
103312
103311
103311
103311
103311
103311
103311
103311
103311
103311
103311
103311
103311
103311
103311
103311
103311
103311
103311
103312
103312
103310
103310
103310
103310
103311
103311
103311
103311
103311
103311
103311
103311
103311
103311
103310
103310
103310
103310
103312
103311
103310
103310
103310
103310
103310
103310
103310
103310
103310
103310
103310
103310
103310
103310
103310
103310
103310
103310
103311
103310
103309
103309
103309
103309
103309
103309
103309
103309
103309
103309
103309
103309
103309
103309
103309
103309
103309
103309
103310
103310
103308
103308
103308
103308
103308
103309
103309
103309
103309
103309
103309
103309
103309
103308
103308
103308
103308
103308
103310
103309
103308
103308
103308
103308
103308
103308
103308
103308
103308
103308
103308
103308
103308
103308
103308
103308
103308
103308
103309
103308
103307
103307
103307
103307
103307
103307
103307
103307
103307
103307
103307
103307
103307
103307
103307
103307
103307
103307
103308
103308
103306
103306
103306
103306
103306
103307
103307
103307
103307
103307
103307
103307
103306
103306
103306
103306
103306
103307
103308
103307
103306
103306
103306
103306
103306
103306
103306
103306
103306
103306
103306
103306
103306
103306
103306
103306
103306
103306
103307
103306
103305
103305
103305
103305
103305
103305
103305
103306
103306
103306
103306
103305
103305
103305
103305
103305
103305
103305
103306
103306
103304
103304
103304
103304
103304
103305
103305
103305
103305
103305
103305
103305
103305
103304
103304
103304
103304
103304
103306
103305
103304
103303
103303
103303
103303
103304
103304
103304
103304
103304
103304
103304
103304
103303
103303
103303
103303
103304
103305
103304
103303
103303
103303
103303
103303
103303
103303
103303
103303
103303
103303
103303
103303
103302
103302
103302
103302
103303
103304
103303
103302
103302
103302
103302
103302
103302
103302
103302
103303
103303
103302
103302
103302
103302
103302
103302
103301
103302
103303
103302
103301
103301
103301
103301
103301
103301
103302
103302
103301
103301
103302
103302
103301
103301
103301
103301
103300
103301
103302
103301
103300
103300
103300
103300
103300
103300
103301
103302
103302
103302
103301
103301
103300
103300
103299
103299
103299
103299
103301
103300
103298
103298
103298
103299
103299
103299
103300
103301
103301
103301
103300
103299
103299
103298
103298
103298
103298
103298
103299
103298
103297
103297
103297
103297
103297
103297
103297
103296
103295
103295
103296
103296
103297
103297
103297
103297
103297
103297
103298
103297
103296
103296
103296
103296
103295
103295
103295
103295
103295
103294
103294
103295
103295
103296
103296
103296
103296
103296
103297
103296
103295
103295
103295
103295
103295
103295
103295
103295
103295
103296
103296
103296
103296
103295
103295
103295
103295
103295
103296
103295
103294
103294
103294
103294
103294
103294
103293
103294
103294
103294
103294
103294
103294
103294
103294
103294
103294
103294
103295
103294
103293
103293
103293
103293
103293
103293
103294
103294
103294
103294
103293
103293
103293
103293
103293
103293
103293
103293
103294
103293
103292
103292
103293
103293
103293
103293
103292
103292
103292
103292
103293
103293
103293
103293
103293
103293
103292
103292
103293
103292
103292
103292
103292
103292
103292
103292
103293
103293
103293
103293
103293
103292
103292
103292
103292
103292
103292
103292
103292
103291
103291
103291
103291
103291
103291
103292
103292
103293
103293
103293
103292
103292
103292
103291
103291
103291
103291
103291
103291
103290
103290
103290
103290
103290
103290
103290
103290
103289
103289
103289
103289
103290
103290
103290
103290
103290
103290
103290
103290
103289
103289
103289
103289
103289
103289
103289
103289
103289
103290
103290
103289
103289
103289
103289
103289
103289
103289
103289
103289
103288
103288
103288
103288
103288
103288
103288
103287
103288
103288
103288
103288
103288
103288
103288
103288
103288
103288
103288
103288
103287
103287
103287
103287
103287
103287
103286
103285
103285
103285
103285
103285
103286
103286
103287
103287
103287
103287
103287
103287
103286
103286
103286
103286
103286
103286
103286
103286
103285
103285
103285
103285
103286
103286
103286
103286
103286
103286
103286
103287
103286
103285
103285
103286
103286
103286
103285
103285
103285
103285
103285
103285
103285
103286
103286
103286
103286
103286
103286
103286
103285
103285
103285
103285
103285
103285
103286
103285
103285
103285
103285
103286
103286
103286
103285
103285
103285
103285
103285
103285
103284
103284
103284
103284
103284
103284
103284
103284
103285
103285
103284
103284
103284
103284
103284
103284
103284
103284
103284
103284
103283
103283
103283
103283
103283
103283
103282
103283
103283
103283
103283
103283
103282
103283
103283
103283
103284
103284
103284
103284
103283
103283
103283
103283
103283
103283
103283
103283
103283
103283
103283
103283
103284
103284
103283
103283
103283
103283
103283
103283
103282
103282
103282
103282
103282
103282
103282
103283
103283
103283
103283
103284
103283
103283
103283
103282
103282
103282
103282
103282
103281
103281
103281
103281
103281
103281
103281
103281
103282
103282
103282
103282
103282
103282
103282
103282
103282
103282
103282
103282
103280
103280
103280
103280
103280
103280
103281
103281
103281
103281
103281
103281
103281
103281
103281
103281
103281
103281
103281
103281
103279
103279
103279
103279
103279
103279
103279
103280
103280
103280
103279
103280
103280
103280
103280
103280
103280
103280
103280
103280
103278
103278
103278
103278
103278