/*--------------------------------*- C++ -*----------------------------------*\
| =========                 |                                                 |
| \\      /  F ield         | OpenFOAM: The Open Source CFD Toolbox           |
|  \\    /   O peration     | Version:  2.1.0                                 |
|   \\  /    A nd           | Web:      www.OpenFOAM.org                      |
|    \\/     M anipulation  |                                                 |
\*---------------------------------------------------------------------------*/
FoamFile
{
    version     2.0;
    format      ascii;
    class       surfaceScalarField;
    location    "0.11";
    object      phi;
}
// * * * * * * * * * * * * * * * * * * * * * * * * * * * * * * * * * * * * * //

dimensions      [0 3 -1 0 0 0 0];

internalField   nonuniform List<scalar> 
12460
(
-2.48389e-05
-4.08748e-08
-2.47746e-05
-6.42277e-08
-2.46884e-05
-8.62524e-08
-2.45843e-05
-1.04053e-07
-2.4467e-05
-1.17337e-07
-2.43398e-05
-1.27156e-07
-2.42062e-05
-1.33612e-07
-2.40682e-05
-1.3804e-07
-2.39276e-05
-1.40604e-07
-2.37852e-05
-1.42327e-07
-2.3642e-05
-1.43232e-07
-2.34981e-05
-1.43927e-07
-2.33537e-05
-1.44339e-07
-2.3209e-05
-1.44771e-07
-2.30639e-05
-1.45121e-07
-2.29183e-05
-1.45523e-07
-2.27725e-05
-1.45868e-07
-2.26263e-05
-1.46186e-07
-2.24799e-05
-1.46359e-07
-2.23335e-05
-1.46402e-07
-2.21873e-05
-1.46239e-07
-2.20414e-05
-1.459e-07
-2.1896e-05
-1.45353e-07
-2.17514e-05
-1.44649e-07
-2.16076e-05
-1.43803e-07
-2.14647e-05
-1.42881e-07
-2.13228e-05
-1.41917e-07
-2.11818e-05
-1.40979e-07
-2.10417e-05
-1.40113e-07
-2.09023e-05
-1.3938e-07
-2.07635e-05
-1.38816e-07
-2.0625e-05
-1.38458e-07
-2.04867e-05
-1.38342e-07
-2.03482e-05
-1.38503e-07
-2.02092e-05
-1.38958e-07
-2.00695e-05
-1.39714e-07
-1.99287e-05
-1.40784e-07
-1.97865e-05
-1.42186e-07
-1.96426e-05
-1.43934e-07
-1.94966e-05
-1.46038e-07
-1.93481e-05
-1.48488e-07
-1.91968e-05
-1.51267e-07
-1.90425e-05
-1.54361e-07
-1.88847e-05
-1.57791e-07
-1.87231e-05
-1.61559e-07
-1.85574e-05
-1.65664e-07
-1.83873e-05
-1.70104e-07
-1.82125e-05
-1.74822e-07
-1.80327e-05
-1.79777e-07
-1.78477e-05
-1.85005e-07
-1.76572e-05
-1.90508e-07
-1.7461e-05
-1.96232e-07
-1.72588e-05
-2.02184e-07
-1.70504e-05
-2.08404e-07
-1.68355e-05
-2.14859e-07
-1.66141e-05
-2.21449e-07
-1.63859e-05
-2.28162e-07
-1.61509e-05
-2.35028e-07
-1.59089e-05
-2.41982e-07
-1.56599e-05
-2.49003e-07
-1.54038e-05
-2.56172e-07
-1.51402e-05
-2.63512e-07
-1.48693e-05
-2.70959e-07
-1.45908e-05
-2.78504e-07
-1.43046e-05
-2.86192e-07
-1.40106e-05
-2.93988e-07
-1.37087e-05
-3.01896e-07
-1.33987e-05
-3.09983e-07
-1.30805e-05
-3.18214e-07
-1.27539e-05
-3.26592e-07
-1.24188e-05
-3.35149e-07
-1.20749e-05
-3.4386e-07
-1.17222e-05
-3.52729e-07
-1.13603e-05
-3.6183e-07
-1.09891e-05
-3.71258e-07
-1.0608e-05
-3.81126e-07
-1.02164e-05
-3.91596e-07
-9.81344e-06
-4.02926e-07
-9.39796e-06
-4.15479e-07
-8.96824e-06
-4.29718e-07
-8.52202e-06
-4.46225e-07
-8.05629e-06
-4.65726e-07
-7.56726e-06
-4.89029e-07
-7.05045e-06
-5.16814e-07
-6.5007e-06
-5.4975e-07
-5.91224e-06
-5.88458e-07
-5.27945e-06
-6.32786e-07
-4.59808e-06
-6.81369e-07
-3.86721e-06
-7.30873e-07
-3.09313e-06
-7.74078e-07
-2.29681e-06
-7.96321e-07
-1.52948e-06
-7.67333e-07
-8.85334e-07
-6.44146e-07
-4.77856e-07
-4.07478e-07
-3.67356e-07
-1.105e-07
-6.14875e-07
2.47519e-07
-1.49434e-06
8.79464e-07
-3.7002e-06
2.20586e-06
-8.95798e-06
5.25778e-06
1.45503e-05
-2.35083e-05
-3.21247e-05
-9.24499e-08
-3.19917e-05
-1.9719e-07
-3.18193e-05
-2.58647e-07
-3.1626e-05
-2.97444e-07
-3.14218e-05
-3.2153e-07
-3.12119e-05
-3.3702e-07
-3.09996e-05
-3.45891e-07
-3.07866e-05
-3.51076e-07
-3.05742e-05
-3.53014e-07
-3.03631e-05
-3.53411e-07
-3.01541e-05
-3.52211e-07
-2.99476e-05
-3.50414e-07
-2.97441e-05
-3.47868e-07
-2.95437e-05
-3.45138e-07
-2.93467e-05
-3.42105e-07
-2.91532e-05
-3.39079e-07
-2.89631e-05
-3.35959e-07
-2.87764e-05
-3.32855e-07
-2.85931e-05
-3.29652e-07
-2.84131e-05
-3.26392e-07
-2.82364e-05
-3.23011e-07
-2.80627e-05
-3.19557e-07
-2.78921e-05
-3.15998e-07
-2.77243e-05
-3.12405e-07
-2.75593e-05
-3.08794e-07
-2.7397e-05
-3.05255e-07
-2.7237e-05
-3.01821e-07
-2.70795e-05
-2.98577e-07
-2.6924e-05
-2.95578e-07
-2.67705e-05
-2.92906e-07
-2.66187e-05
-2.90601e-07
-2.64684e-05
-2.88713e-07
-2.63195e-05
-2.87291e-07
-2.61716e-05
-2.86395e-07
-2.60245e-05
-2.86059e-07
-2.58779e-05
-2.86293e-07
-2.57316e-05
-2.87108e-07
-2.55852e-05
-2.8853e-07
-2.54386e-05
-2.90582e-07
-2.52913e-05
-2.93272e-07
-2.51433e-05
-2.96581e-07
-2.49941e-05
-3.00461e-07
-2.48435e-05
-3.04902e-07
-2.46914e-05
-3.09932e-07
-2.45374e-05
-3.15532e-07
-2.43814e-05
-3.21693e-07
-2.42231e-05
-3.28413e-07
-2.40623e-05
-3.35583e-07
-2.3899e-05
-3.43129e-07
-2.37328e-05
-3.51115e-07
-2.35638e-05
-3.5952e-07
-2.33918e-05
-3.68244e-07
-2.32167e-05
-3.77301e-07
-2.30384e-05
-3.86732e-07
-2.28568e-05
-3.96477e-07
-2.26718e-05
-4.06389e-07
-2.24835e-05
-4.16467e-07
-2.22918e-05
-4.26764e-07
-2.20966e-05
-4.37142e-07
-2.18981e-05
-4.47552e-07
-2.16962e-05
-4.58087e-07
-2.14909e-05
-4.68716e-07
-2.12825e-05
-4.79379e-07
-2.10709e-05
-4.90101e-07
-2.08563e-05
-5.00868e-07
-2.06386e-05
-5.11644e-07
-2.0418e-05
-5.22485e-07
-2.01946e-05
-5.33421e-07
-1.99684e-05
-5.44402e-07
-1.97394e-05
-5.55523e-07
-1.95077e-05
-5.66861e-07
-1.92732e-05
-5.78372e-07
-1.90358e-05
-5.90108e-07
-1.87954e-05
-6.02256e-07
-1.85517e-05
-6.14994e-07
-1.83043e-05
-6.28529e-07
-1.80527e-05
-6.43165e-07
-1.77963e-05
-6.59343e-07
-1.75341e-05
-6.77627e-07
-1.72651e-05
-6.98727e-07
-1.69879e-05
-7.23509e-07
-1.67006e-05
-7.53014e-07
-1.64011e-05
-7.88468e-07
-1.6087e-05
-8.30957e-07
-1.57553e-05
-8.81422e-07
-1.5403e-05
-9.40719e-07
-1.50274e-05
-1.00843e-06
-1.46266e-05
-1.08217e-06
-1.42009e-05
-1.15659e-06
-1.37543e-05
-1.2207e-06
-1.3297e-05
-1.25359e-06
-1.28466e-05
-1.21772e-06
-1.24334e-05
-1.0574e-06
-1.21298e-05
-7.11006e-07
-1.213e-05
-1.1035e-07
-1.25882e-05
7.0578e-07
-1.38077e-05
2.09892e-06
-1.62874e-05
4.68558e-06
-2.10147e-05
9.98502e-06
2.48867e-05
-3.13511e-05
-3.50982e-05
-1.43246e-07
-3.49825e-05
-3.12861e-07
-3.48343e-05
-4.06843e-07
-3.46693e-05
-4.62412e-07
-3.44955e-05
-4.95351e-07
-3.43172e-05
-5.15319e-07
-3.41367e-05
-5.26414e-07
-3.39554e-05
-5.32352e-07
-3.37743e-05
-5.34151e-07
-3.3594e-05
-5.33709e-07
-3.3415e-05
-5.31126e-07
-3.32379e-05
-5.27528e-07
-3.3063e-05
-5.22804e-07
-3.28905e-05
-5.17642e-07
-3.27207e-05
-5.11942e-07
-3.25536e-05
-5.0612e-07
-3.23894e-05
-5.00137e-07
-3.22281e-05
-4.94162e-07
-3.20696e-05
-4.88152e-07
-3.19139e-05
-4.82141e-07
-3.17608e-05
-4.76097e-07
-3.16103e-05
-4.70048e-07
-3.14623e-05
-4.6399e-07
-3.13167e-05
-4.5797e-07
-3.11735e-05
-4.52013e-07
-3.10326e-05
-4.46196e-07
-3.08939e-05
-4.40551e-07
-3.07573e-05
-4.35154e-07
-3.06228e-05
-4.3007e-07
-3.04903e-05
-4.25394e-07
-3.03597e-05
-4.21165e-07
-3.0231e-05
-4.17442e-07
-3.0104e-05
-4.1429e-07
-2.99786e-05
-4.11788e-07
-2.98547e-05
-4.09982e-07
-2.97321e-05
-4.08879e-07
-2.96107e-05
-4.08484e-07
-2.94904e-05
-4.08831e-07
-2.93711e-05
-4.09948e-07
-2.92525e-05
-4.11847e-07
-2.91346e-05
-4.14503e-07
-2.90172e-05
-4.17837e-07
-2.89003e-05
-4.21832e-07
-2.87837e-05
-4.26528e-07
-2.86673e-05
-4.31868e-07
-2.85512e-05
-4.37832e-07
-2.84352e-05
-4.44445e-07
-2.83192e-05
-4.51562e-07
-2.82032e-05
-4.59079e-07
-2.80873e-05
-4.67067e-07
-2.79713e-05
-4.75462e-07
-2.78554e-05
-4.84152e-07
-2.77396e-05
-4.93153e-07
-2.76239e-05
-5.02445e-07
-2.75084e-05
-5.11926e-07
-2.73933e-05
-5.21509e-07
-2.72786e-05
-5.31187e-07
-2.71644e-05
-5.40907e-07
-2.7051e-05
-5.50522e-07
-2.69386e-05
-5.59985e-07
-2.68274e-05
-5.69321e-07
-2.67177e-05
-5.78426e-07
-2.66098e-05
-5.87235e-07
-2.65042e-05
-5.95759e-07
-2.64011e-05
-6.03902e-07
-2.63011e-05
-6.11631e-07
-2.62046e-05
-6.19004e-07
-2.61121e-05
-6.25971e-07
-2.60241e-05
-6.32411e-07
-2.59411e-05
-6.38477e-07
-2.58637e-05
-6.44278e-07
-2.57923e-05
-6.49724e-07
-2.57276e-05
-6.54869e-07
-2.56699e-05
-6.59957e-07
-2.56196e-05
-6.65219e-07
-2.55772e-05
-6.70963e-07
-2.55428e-05
-6.77612e-07
-2.55163e-05
-6.85764e-07
-2.54978e-05
-6.96196e-07
-2.54866e-05
-7.09875e-07
-2.54822e-05
-7.27948e-07
-2.54835e-05
-7.51736e-07
-2.54892e-05
-7.82743e-07
-2.54976e-05
-8.22516e-07
-2.55069e-05
-8.72185e-07
-2.55147e-05
-9.32861e-07
-2.55191e-05
-1.00405e-06
-2.55186e-05
-1.08267e-06
-2.55131e-05
-1.16211e-06
-2.55045e-05
-1.22928e-06
-2.54976e-05
-1.26054e-06
-2.54991e-05
-1.21615e-06
-2.55202e-05
-1.03633e-06
-2.55903e-05
-6.40851e-07
-2.57504e-05
4.97501e-08
-2.61763e-05
1.13164e-06
-2.70651e-05
2.98774e-06
-2.87827e-05
6.40312e-06
-3.20188e-05
1.32211e-05
2.91343e-05
-3.62663e-05
-3.73477e-05
-1.83983e-07
-3.72714e-05
-3.89131e-07
-3.71741e-05
-5.04185e-07
-3.70652e-05
-5.71324e-07
-3.69496e-05
-6.10928e-07
-3.68305e-05
-6.34391e-07
-3.67094e-05
-6.47599e-07
-3.65873e-05
-6.54461e-07
-3.64647e-05
-6.56708e-07
-3.63423e-05
-6.56122e-07
-3.62203e-05
-6.53113e-07
-3.60991e-05
-6.48744e-07
-3.59789e-05
-6.43016e-07
-3.58599e-05
-6.36634e-07
-3.57423e-05
-6.29501e-07
-3.56263e-05
-6.22097e-07
-3.55121e-05
-6.14388e-07
-3.53996e-05
-6.06604e-07
-3.52891e-05
-5.98729e-07
-3.51804e-05
-5.9084e-07
-3.50736e-05
-5.82907e-07
-3.49687e-05
-5.74955e-07
-3.48657e-05
-5.66984e-07
-3.47646e-05
-5.59025e-07
-3.46655e-05
-5.51109e-07
-3.45684e-05
-5.43296e-07
-3.44733e-05
-5.35618e-07
-3.43804e-05
-5.28137e-07
-3.42895e-05
-5.20929e-07
-3.42008e-05
-5.14097e-07
-3.41143e-05
-5.07679e-07
-3.403e-05
-5.01725e-07
-3.3948e-05
-4.96312e-07
-3.38682e-05
-4.91531e-07
-3.37908e-05
-4.87432e-07
-3.37157e-05
-4.84009e-07
-3.36429e-05
-4.81254e-07
-3.35725e-05
-4.79206e-07
-3.35046e-05
-4.77895e-07
-3.34391e-05
-4.77329e-07
-3.33761e-05
-4.775e-07
-3.33156e-05
-4.78306e-07
-3.32577e-05
-4.79708e-07
-3.32025e-05
-4.81763e-07
-3.315e-05
-4.84384e-07
-3.31003e-05
-4.87487e-07
-3.30537e-05
-4.91119e-07
-3.301e-05
-4.95217e-07
-3.29694e-05
-4.9968e-07
-3.2932e-05
-5.04474e-07
-3.2898e-05
-5.09483e-07
-3.28675e-05
-5.14676e-07
-3.28405e-05
-5.20076e-07
-3.28174e-05
-5.25578e-07
-3.27983e-05
-5.31024e-07
-3.27835e-05
-5.3635e-07
-3.27731e-05
-5.41557e-07
-3.27675e-05
-5.46516e-07
-3.27669e-05
-5.51083e-07
-3.27717e-05
-5.55211e-07
-3.27821e-05
-5.58888e-07
-3.27986e-05
-5.61992e-07
-3.28214e-05
-5.64416e-07
-3.2851e-05
-5.66153e-07
-3.28878e-05
-5.67105e-07
-3.29322e-05
-5.67243e-07
-3.29845e-05
-5.66636e-07
-3.30452e-05
-5.65345e-07
-3.31145e-05
-5.63119e-07
-3.31928e-05
-5.60146e-07
-3.32803e-05
-5.56796e-07
-3.3377e-05
-5.53017e-07
-3.34829e-05
-5.48904e-07
-3.3598e-05
-5.4486e-07
-3.37219e-05
-5.4131e-07
-3.38542e-05
-5.38703e-07
-3.39942e-05
-5.37591e-07
-3.41412e-05
-5.38765e-07
-3.42942e-05
-5.43207e-07
-3.4452e-05
-5.52093e-07
-3.46132e-05
-5.66762e-07
-3.47762e-05
-5.88677e-07
-3.49396e-05
-6.19394e-07
-3.51016e-05
-6.60481e-07
-3.52609e-05
-7.12944e-07
-3.54165e-05
-7.77252e-07
-3.55678e-05
-8.52693e-07
-3.57146e-05
-9.35893e-07
-3.58574e-05
-1.01937e-06
-3.59974e-05
-1.08925e-06
-3.61361e-05
-1.12184e-06
-3.6273e-05
-1.07927e-06
-3.64064e-05
-9.02928e-07
-3.6535e-05
-5.12177e-07
-3.66626e-05
1.77273e-07
-3.68936e-05
1.3627e-06
-3.73569e-05
3.45103e-06
-3.82125e-05
7.25868e-06
-3.96314e-05
1.464e-05
2.90485e-05
-3.95455e-05
-3.94172e-05
-2.06534e-07
-3.93859e-05
-4.20433e-07
-3.93469e-05
-5.43176e-07
-3.93031e-05
-6.1508e-07
-3.92565e-05
-6.57607e-07
-3.92083e-05
-6.82539e-07
-3.91592e-05
-6.96688e-07
-3.91098e-05
-7.03914e-07
-3.906e-05
-7.06466e-07
-3.90102e-05
-7.05908e-07
-3.89604e-05
-7.02913e-07
-3.89108e-05
-6.98361e-07
-3.88615e-05
-6.92358e-07
-3.88126e-05
-6.8555e-07
-3.87642e-05
-6.77831e-07
-3.87166e-05
-6.69709e-07
-3.86699e-05
-6.61131e-07
-3.86241e-05
-6.52353e-07
-3.85795e-05
-6.4333e-07
-3.85362e-05
-6.3419e-07
-3.84942e-05
-6.24887e-07
-3.84537e-05
-6.15471e-07
-3.84147e-05
-6.05926e-07
-3.83775e-05
-5.96285e-07
-3.8342e-05
-5.86579e-07
-3.83084e-05
-5.76869e-07
-3.82769e-05
-5.67186e-07
-3.82474e-05
-5.5757e-07
-3.82202e-05
-5.48109e-07
-3.81954e-05
-5.38918e-07
-3.81731e-05
-5.30022e-07
-3.81534e-05
-5.21443e-07
-3.81364e-05
-5.13266e-07
-3.81224e-05
-5.05591e-07
-3.81113e-05
-4.98478e-07
-3.81034e-05
-4.91917e-07
-3.80988e-05
-4.85876e-07
-3.80976e-05
-4.80409e-07
-3.80999e-05
-4.75541e-07
-3.8106e-05
-4.71219e-07
-3.81161e-05
-4.67476e-07
-3.81301e-05
-4.64308e-07
-3.81481e-05
-4.61637e-07
-3.81705e-05
-4.59441e-07
-3.81971e-05
-4.57698e-07
-3.82283e-05
-4.56351e-07
-3.8264e-05
-4.55356e-07
-3.83046e-05
-4.54659e-07
-3.835e-05
-4.54286e-07
-3.84003e-05
-4.54186e-07
-3.84557e-05
-4.54096e-07
-3.85162e-05
-4.54114e-07
-3.85819e-05
-4.54367e-07
-3.86528e-05
-4.54679e-07
-3.8729e-05
-4.54881e-07
-3.88104e-05
-4.5491e-07
-3.88972e-05
-4.54817e-07
-3.89892e-05
-4.54501e-07
-3.90864e-05
-4.53845e-07
-3.91888e-05
-4.5283e-07
-3.92962e-05
-4.51431e-07
-3.94087e-05
-4.49526e-07
-3.95261e-05
-4.4705e-07
-3.96482e-05
-4.43994e-07
-3.97751e-05
-4.40205e-07
-3.99067e-05
-4.35685e-07
-4.00427e-05
-4.30601e-07
-4.01831e-05
-4.24977e-07
-4.03277e-05
-4.18557e-07
-4.04766e-05
-4.11173e-07
-4.06305e-05
-4.02933e-07
-4.07895e-05
-3.94067e-07
-4.09534e-05
-3.84934e-07
-4.11222e-05
-3.76127e-07
-4.12953e-05
-3.68167e-07
-4.14725e-05
-3.61492e-07
-4.16534e-05
-3.56717e-07
-4.18375e-05
-3.54693e-07
-4.20242e-05
-3.56449e-07
-4.22131e-05
-3.63217e-07
-4.24035e-05
-3.76387e-07
-4.25947e-05
-3.97452e-07
-4.27861e-05
-4.27963e-07
-4.29771e-05
-4.6954e-07
-4.31667e-05
-5.23312e-07
-4.33544e-05
-5.89522e-07
-4.35399e-05
-6.67238e-07
-4.37228e-05
-7.52967e-07
-4.39029e-05
-8.39285e-07
-4.40794e-05
-9.12743e-07
-4.42502e-05
-9.51045e-07
-4.44093e-05
-9.20137e-07
-4.45432e-05
-7.69088e-07
-4.46315e-05
-4.23804e-07
-4.46726e-05
2.18341e-07
-4.46967e-05
1.38683e-06
-4.4719e-05
3.47324e-06
-4.47367e-05
7.27639e-06
-4.44369e-05
1.43402e-05
2.62302e-05
-4.16186e-05
-4.13759e-05
-2.05773e-07
-4.13915e-05
-4.04807e-07
-4.14133e-05
-5.21353e-07
-4.14381e-05
-5.90304e-07
-4.14645e-05
-6.31275e-07
-4.14917e-05
-6.55271e-07
-4.15195e-05
-6.68924e-07
-4.15476e-05
-6.75808e-07
-4.15758e-05
-6.78293e-07
-4.1604e-05
-6.77666e-07
-4.16322e-05
-6.74753e-07
-4.16603e-05
-6.70221e-07
-4.16885e-05
-6.64217e-07
-4.17166e-05
-6.57355e-07
-4.1745e-05
-6.49428e-07
-4.17738e-05
-6.41008e-07
-4.18029e-05
-6.31994e-07
-4.18326e-05
-6.22648e-07
-4.1863e-05
-6.12901e-07
-4.18943e-05
-6.02885e-07
-4.19266e-05
-5.92563e-07
-4.19601e-05
-5.81972e-07
-4.19949e-05
-5.71143e-07
-4.20312e-05
-5.60057e-07
-4.20689e-05
-5.48802e-07
-4.21084e-05
-5.37399e-07
-4.21497e-05
-5.25931e-07
-4.21929e-05
-5.14373e-07
-4.22381e-05
-5.02844e-07
-4.22856e-05
-4.91478e-07
-4.23353e-05
-4.80297e-07
-4.23875e-05
-4.69273e-07
-4.24422e-05
-4.58532e-07
-4.24996e-05
-4.4818e-07
-4.25598e-05
-4.38244e-07
-4.2623e-05
-4.28765e-07
-4.26891e-05
-4.19757e-07
-4.27583e-05
-4.11265e-07
-4.28305e-05
-4.03324e-07
-4.29058e-05
-3.95882e-07
-4.29844e-05
-3.88933e-07
-4.30661e-05
-3.82532e-07
-4.31511e-05
-3.76685e-07
-4.32392e-05
-3.71352e-07
-4.33303e-05
-3.66519e-07
-4.34245e-05
-3.62182e-07
-4.35216e-05
-3.58271e-07
-4.36216e-05
-3.54702e-07
-4.37243e-05
-3.51543e-07
-4.38297e-05
-3.48796e-07
-4.39377e-05
-3.46131e-07
-4.40484e-05
-3.43411e-07
-4.4162e-05
-3.40754e-07
-4.42785e-05
-3.38162e-07
-4.43978e-05
-3.35559e-07
-4.45198e-05
-3.32943e-07
-4.46443e-05
-3.30328e-07
-4.47712e-05
-3.27583e-07
-4.49004e-05
-3.24612e-07
-4.50319e-05
-3.21387e-07
-4.51655e-05
-3.17835e-07
-4.53011e-05
-3.13843e-07
-4.54388e-05
-3.09361e-07
-4.55785e-05
-3.04325e-07
-4.57202e-05
-2.98496e-07
-4.5864e-05
-2.91859e-07
-4.60099e-05
-2.8471e-07
-4.61581e-05
-2.76845e-07
-4.63084e-05
-2.68167e-07
-4.64609e-05
-2.58755e-07
-4.66152e-05
-2.4858e-07
-4.67716e-05
-2.37697e-07
-4.69302e-05
-2.26356e-07
-4.7091e-05
-2.15272e-07
-4.7254e-05
-2.05195e-07
-4.7419e-05
-1.96458e-07
-4.7586e-05
-1.89698e-07
-4.7755e-05
-1.85774e-07
-4.79257e-05
-1.85738e-07
-4.8098e-05
-1.90855e-07
-4.82718e-05
-2.02592e-07
-4.84468e-05
-2.22467e-07
-4.86229e-05
-2.51919e-07
-4.87997e-05
-2.92715e-07
-4.89769e-05
-3.46045e-07
-4.91546e-05
-4.11881e-07
-4.93323e-05
-4.895e-07
-4.95097e-05
-5.75567e-07
-4.96859e-05
-6.63137e-07
-4.98585e-05
-7.40076e-07
-5.00227e-05
-7.8687e-07
-5.01685e-05
-7.744e-07
-5.02745e-05
-6.63048e-07
-5.03104e-05
-3.87876e-07
-5.02518e-05
1.59758e-07
-5.00751e-05
1.21005e-06
-4.96968e-05
3.09497e-06
-4.89559e-05
6.53547e-06
-4.72662e-05
1.26505e-05
2.17718e-05
-4.28078e-05
-4.31422e-05
-1.80435e-07
-4.32031e-05
-3.43949e-07
-4.32829e-05
-4.41512e-07
-4.33732e-05
-5.00017e-07
-4.34695e-05
-5.34943e-07
-4.35693e-05
-5.55492e-07
-4.36711e-05
-5.67148e-07
-4.37739e-05
-5.72976e-07
-4.38772e-05
-5.75011e-07
-4.39806e-05
-5.74281e-07
-4.40837e-05
-5.71583e-07
-4.41866e-05
-5.67363e-07
-4.4289e-05
-5.6183e-07
-4.4391e-05
-5.55387e-07
-4.44925e-05
-5.47922e-07
-4.45936e-05
-5.39827e-07
-4.46946e-05
-5.31045e-07
-4.47954e-05
-5.21821e-07
-4.48962e-05
-5.12094e-07
-4.49971e-05
-5.01987e-07
-4.50982e-05
-4.91473e-07
-4.51996e-05
-4.80597e-07
-4.53013e-05
-4.69409e-07
-4.54035e-05
-4.57879e-07
-4.55062e-05
-4.46112e-07
-4.56095e-05
-4.34132e-07
-4.57133e-05
-4.2205e-07
-4.58179e-05
-4.09805e-07
-4.59232e-05
-3.9751e-07
-4.60294e-05
-3.85298e-07
-4.61365e-05
-3.7325e-07
-4.62444e-05
-3.61322e-07
-4.63533e-05
-3.49623e-07
-4.64632e-05
-3.38297e-07
-4.65741e-05
-3.27352e-07
-4.66861e-05
-3.16797e-07
-4.67991e-05
-3.06718e-07
-4.69132e-05
-2.97188e-07
-4.70283e-05
-2.8822e-07
-4.71444e-05
-2.79795e-07
-4.72614e-05
-2.71882e-07
-4.73795e-05
-2.64503e-07
-4.74984e-05
-2.57737e-07
-4.76182e-05
-2.51575e-07
-4.77387e-05
-2.45964e-07
-4.786e-05
-2.40895e-07
-4.7982e-05
-2.36315e-07
-4.81045e-05
-2.32171e-07
-4.82276e-05
-2.28463e-07
-4.83513e-05
-2.25112e-07
-4.84753e-05
-2.22057e-07
-4.85995e-05
-2.19242e-07
-4.87237e-05
-2.16559e-07
-4.88479e-05
-2.13959e-07
-4.89721e-05
-2.114e-07
-4.90961e-05
-2.08881e-07
-4.92201e-05
-2.06356e-07
-4.9344e-05
-2.03703e-07
-4.94678e-05
-2.00832e-07
-4.95915e-05
-1.97668e-07
-4.97152e-05
-1.94134e-07
-4.98389e-05
-1.90126e-07
-4.99627e-05
-1.85581e-07
-5.00866e-05
-1.80425e-07
-5.02107e-05
-1.74344e-07
-5.03354e-05
-1.67147e-07
-5.04606e-05
-1.59522e-07
-5.05864e-05
-1.51064e-07
-5.07129e-05
-1.41732e-07
-5.08398e-05
-1.31767e-07
-5.09672e-05
-1.21169e-07
-5.10951e-05
-1.09856e-07
-5.12237e-05
-9.77632e-08
-5.13534e-05
-8.55363e-08
-5.14842e-05
-7.44e-08
-5.16163e-05
-6.43662e-08
-5.175e-05
-5.60411e-08
-5.18854e-05
-5.02858e-08
-5.2023e-05
-4.8168e-08
-5.21629e-05
-5.0973e-08
-5.23053e-05
-6.01814e-08
-5.24504e-05
-7.74235e-08
-5.25985e-05
-1.03761e-07
-5.275e-05
-1.41262e-07
-5.29045e-05
-1.91482e-07
-5.30628e-05
-2.53566e-07
-5.32246e-05
-3.27718e-07
-5.3389e-05
-4.11235e-07
-5.35542e-05
-4.9787e-07
-5.37167e-05
-5.77636e-07
-5.38688e-05
-6.3477e-07
-5.39968e-05
-6.46385e-07
-5.40772e-05
-5.82671e-07
-5.40703e-05
-3.94734e-07
-5.39202e-05
9.61093e-09
-5.35715e-05
8.6136e-07
-5.28542e-05
2.3777e-06
-5.14795e-05
5.16078e-06
-4.87643e-05
9.93537e-06
1.63946e-05
-4.33871e-05
-4.45712e-05
-1.32996e-07
-4.46689e-05
-2.46291e-07
-4.47952e-05
-3.15236e-07
-4.49383e-05
-3.56934e-07
-4.50914e-05
-3.81825e-07
-4.52504e-05
-3.96486e-07
-4.54129e-05
-4.04607e-07
-4.55774e-05
-4.08535e-07
-4.57428e-05
-4.09604e-07
-4.59084e-05
-4.08622e-07
-4.60739e-05
-4.06129e-07
-4.62389e-05
-4.02392e-07
-4.6403e-05
-3.97667e-07
-4.65664e-05
-3.92028e-07
-4.67286e-05
-3.85675e-07
-4.68897e-05
-3.78704e-07
-4.70496e-05
-3.7115e-07
-4.72083e-05
-3.63132e-07
-4.73658e-05
-3.54656e-07
-4.7522e-05
-3.45795e-07
-4.76769e-05
-3.36532e-07
-4.78306e-05
-3.26938e-07
-4.79829e-05
-3.17035e-07
-4.8134e-05
-3.06851e-07
-4.82836e-05
-2.96432e-07
-4.84319e-05
-2.85825e-07
-4.85789e-05
-2.75143e-07
-4.87243e-05
-2.64392e-07
-4.88681e-05
-2.53655e-07
-4.90105e-05
-2.42963e-07
-4.91513e-05
-2.32418e-07
-4.92905e-05
-2.2209e-07
-4.94281e-05
-2.12047e-07
-4.9564e-05
-2.02356e-07
-4.96983e-05
-1.93053e-07
-4.9831e-05
-1.84152e-07
-4.99619e-05
-1.75765e-07
-5.00912e-05
-1.67961e-07
-5.02187e-05
-1.60687e-07
-5.03445e-05
-1.53943e-07
-5.04687e-05
-1.47751e-07
-5.05911e-05
-1.42102e-07
-5.07118e-05
-1.37039e-07
-5.08308e-05
-1.32565e-07
-5.09481e-05
-1.28619e-07
-5.10638e-05
-1.25179e-07
-5.1178e-05
-1.22202e-07
-5.12905e-05
-1.19633e-07
-5.14015e-05
-1.1744e-07
-5.15111e-05
-1.15547e-07
-5.16192e-05
-1.13993e-07
-5.17256e-05
-1.12802e-07
-5.18304e-05
-1.11791e-07
-5.19335e-05
-1.1079e-07
-5.20352e-05
-1.09727e-07
-5.21355e-05
-1.08578e-07
-5.22346e-05
-1.0726e-07
-5.23326e-05
-1.05669e-07
-5.24298e-05
-1.03718e-07
-5.25261e-05
-1.01312e-07
-5.26219e-05
-9.83659e-08
-5.27172e-05
-9.47871e-08
-5.28123e-05
-9.04984e-08
-5.29073e-05
-8.54337e-08
-5.30023e-05
-7.937e-08
-5.3098e-05
-7.14049e-08
-5.31942e-05
-6.32768e-08
-5.32912e-05
-5.4149e-08
-5.33889e-05
-4.39482e-08
-5.34879e-05
-3.27775e-08
-5.35884e-05
-2.06838e-08
-5.36904e-05
-7.85722e-09
-5.37944e-05
6.21701e-09
-5.39012e-05
2.12478e-08
-5.401e-05
3.43732e-08
-5.41211e-05
4.67575e-08
-5.42349e-05
5.77608e-08
-5.43517e-05
6.64958e-08
-5.44717e-05
7.18981e-08
-5.45954e-05
7.27202e-08
-5.47231e-05
6.75323e-08
-5.48554e-05
5.48383e-08
-5.49922e-05
3.30661e-08
-5.51346e-05
1.12778e-09
-5.52825e-05
-4.36236e-08
-5.54361e-05
-9.99258e-08
-5.55948e-05
-1.6906e-07
-5.57568e-05
-2.49245e-07
-5.59199e-05
-3.34754e-07
-5.60789e-05
-4.18592e-07
-5.62248e-05
-4.8887e-07
-5.6341e-05
-5.30173e-07
-5.64034e-05
-5.20264e-07
-5.63641e-05
-4.34041e-07
-5.61655e-05
-1.89067e-07
-5.5667e-05
3.62916e-07
-5.46863e-05
1.39696e-06
-5.28302e-05
3.30474e-06
-4.94142e-05
6.51931e-06
1.05595e-05
-4.35791e-05
-4.56076e-05
-6.64198e-08
-4.57315e-05
-1.22375e-07
-4.58901e-05
-1.56606e-07
-4.60699e-05
-1.77158e-07
-4.62626e-05
-1.89164e-07
-4.6463e-05
-1.9601e-07
-4.66682e-05
-1.99444e-07
-4.6876e-05
-2.00753e-07
-4.70851e-05
-2.00532e-07
-4.72944e-05
-1.99259e-07
-4.75034e-05
-1.97143e-07
-4.77115e-05
-1.94331e-07
-4.79181e-05
-1.90987e-07
-4.81231e-05
-1.87067e-07
-4.8326e-05
-1.82827e-07
-4.85264e-05
-1.78228e-07
-4.87242e-05
-1.73343e-07
-4.89192e-05
-1.68164e-07
-4.91111e-05
-1.62737e-07
-4.92998e-05
-1.57073e-07
-4.94852e-05
-1.51157e-07
-4.96671e-05
-1.45049e-07
-4.98454e-05
-1.38759e-07
-5.00199e-05
-1.32353e-07
-5.01905e-05
-1.25846e-07
-5.0357e-05
-1.19259e-07
-5.05195e-05
-1.12662e-07
-5.06778e-05
-1.06135e-07
-5.08317e-05
-9.97066e-08
-5.09814e-05
-9.33116e-08
-5.11267e-05
-8.70539e-08
-5.12677e-05
-8.10895e-08
-5.14044e-05
-7.54217e-08
-5.15367e-05
-7.00029e-08
-5.16649e-05
-6.48944e-08
-5.17889e-05
-6.01542e-08
-5.19088e-05
-5.58439e-08
-5.20248e-05
-5.19779e-08
-5.2137e-05
-4.84936e-08
-5.22455e-05
-4.53965e-08
-5.23506e-05
-4.27118e-08
-5.24522e-05
-4.04134e-08
-5.25508e-05
-3.8518e-08
-5.26463e-05
-3.7024e-08
-5.27391e-05
-3.58612e-08
-5.28292e-05
-3.49983e-08
-5.2917e-05
-3.44127e-08
-5.30026e-05
-3.40438e-08
-5.30862e-05
-3.38448e-08
-5.3168e-05
-3.37907e-08
-5.32481e-05
-3.3863e-08
-5.33269e-05
-3.40152e-08
-5.34045e-05
-3.4135e-08
-5.34813e-05
-3.40605e-08
-5.35573e-05
-3.37257e-08
-5.36328e-05
-3.31031e-08
-5.37079e-05
-3.21042e-08
-5.37829e-05
-3.06408e-08
-5.3858e-05
-2.86192e-08
-5.39334e-05
-2.59534e-08
-5.40092e-05
-2.25548e-08
-5.40857e-05
-1.83417e-08
-5.41629e-05
-1.32612e-08
-5.42411e-05
-7.18423e-09
-5.43198e-05
-6.72216e-10
-5.4401e-05
9.78648e-09
-5.44835e-05
1.9182e-08
-5.45675e-05
2.98581e-08
-5.46533e-05
4.18406e-08
-5.47411e-05
5.50571e-08
-5.48312e-05
6.9396e-08
-5.49238e-05
8.4769e-08
-5.50192e-05
1.01588e-07
-5.5117e-05
1.19103e-07
-5.52186e-05
1.3594e-07
-5.5324e-05
1.52139e-07
-5.54334e-05
1.67147e-07
-5.5547e-05
1.80132e-07
-5.56652e-05
1.90051e-07
-5.57881e-05
1.95674e-07
-5.59162e-05
1.95587e-07
-5.60497e-05
1.88322e-07
-5.61885e-05
1.71908e-07
-5.63327e-05
1.45285e-07
-5.64835e-05
1.07221e-07
-5.66401e-05
5.66913e-08
-5.68026e-05
-6.56054e-09
-5.69697e-05
-8.21267e-08
-5.71381e-05
-1.66408e-07
-5.73012e-05
-2.55436e-07
-5.74492e-05
-3.40893e-07
-5.75648e-05
-4.14639e-07
-5.76193e-05
-4.65728e-07
-5.75722e-05
-4.81134e-07
-5.73422e-05
-4.19094e-07
-5.67723e-05
-2.07004e-07
-5.56257e-05
2.504e-07
-5.3464e-05
1.14302e-06
-4.96158e-05
2.67112e-06
4.52064e-06
-4.35769e-05
-4.61709e-05
1.14159e-08
-4.6309e-05
1.57918e-08
-4.64846e-05
1.89717e-08
-4.66832e-05
2.14282e-08
-4.68958e-05
2.34061e-08
-4.71168e-05
2.5077e-08
-4.73428e-05
2.65328e-08
-4.75714e-05
2.78461e-08
-4.7801e-05
2.90612e-08
-4.80305e-05
3.02081e-08
-4.82589e-05
3.13068e-08
-4.84856e-05
3.23675e-08
-4.871e-05
3.3382e-08
-4.89314e-05
3.43667e-08
-4.91495e-05
3.52688e-08
-4.93639e-05
3.61209e-08
-4.95741e-05
3.69323e-08
-4.97801e-05
3.77387e-08
-4.99813e-05
3.8534e-08
-5.01777e-05
3.93361e-08
-5.03691e-05
4.02067e-08
-5.05553e-05
4.11299e-08
-5.07361e-05
4.20716e-08
-5.09115e-05
4.29972e-08
-5.10812e-05
4.39166e-08
-5.12453e-05
4.48542e-08
-5.14038e-05
4.57744e-08
-5.15565e-05
4.65911e-08
-5.17036e-05
4.73622e-08
-5.1845e-05
4.81731e-08
-5.1981e-05
4.89006e-08
-5.21115e-05
4.94058e-08
-5.22367e-05
4.97797e-08
-5.23568e-05
5.00986e-08
-5.2472e-05
5.02713e-08
-5.25824e-05
5.02539e-08
-5.26883e-05
5.00444e-08
-5.27899e-05
4.96348e-08
-5.28874e-05
4.90824e-08
-5.29812e-05
4.84035e-08
-5.30715e-05
4.75583e-08
-5.31585e-05
4.65634e-08
-5.32424e-05
4.54285e-08
-5.33236e-05
4.41553e-08
-5.34023e-05
4.28064e-08
-5.34787e-05
4.1417e-08
-5.35531e-05
3.99928e-08
-5.36257e-05
3.85874e-08
-5.36968e-05
3.72458e-08
-5.37666e-05
3.59637e-08
-5.38352e-05
3.47797e-08
-5.3903e-05
3.37757e-08
-5.39702e-05
3.30377e-08
-5.4037e-05
3.27041e-08
-5.41035e-05
3.28253e-08
-5.417e-05
3.34186e-08
-5.42367e-05
3.45659e-08
-5.43037e-05
3.6356e-08
-5.43712e-05
3.88802e-08
-5.44394e-05
4.22211e-08
-5.45084e-05
4.64687e-08
-5.45784e-05
5.16856e-08
-5.46497e-05
5.79795e-08
-5.47221e-05
6.52465e-08
-5.47967e-05
7.39585e-08
-5.4872e-05
8.50452e-08
-5.49494e-05
9.66165e-08
-5.5029e-05
1.09458e-07
-5.51109e-05
1.23723e-07
-5.51953e-05
1.39424e-07
-5.52824e-05
1.56515e-07
-5.53726e-05
1.75005e-07
-5.5466e-05
1.94916e-07
-5.55624e-05
2.15579e-07
-5.56627e-05
2.36208e-07
-5.5767e-05
2.56484e-07
-5.58757e-05
2.75839e-07
-5.59891e-05
2.93478e-07
-5.61074e-05
3.08396e-07
-5.62311e-05
3.19395e-07
-5.63607e-05
3.25105e-07
-5.64963e-05
3.23973e-07
-5.66387e-05
3.14299e-07
-5.67881e-05
2.94664e-07
-5.69445e-05
2.63661e-07
-5.71071e-05
2.19299e-07
-5.72751e-05
1.61428e-07
-5.74471e-05
8.98168e-08
-5.76189e-05
5.43117e-09
-5.77859e-05
-8.8468e-08
-5.79372e-05
-1.8955e-07
-5.8055e-05
-2.96846e-07
-5.81105e-05
-4.10212e-07
-5.80611e-05
-5.30598e-07
-5.78236e-05
-6.5655e-07
-5.7238e-05
-7.92606e-07
-5.60368e-05
-9.5084e-07
-5.37506e-05
-1.14318e-06
-4.96993e-05
-1.38011e-06
-1.60071e-06
-4.3578e-05
-4.61114e-05
8.84933e-08
-4.62483e-05
1.5277e-07
-4.64225e-05
1.93152e-07
-4.66196e-05
2.18462e-07
-4.68305e-05
2.34319e-07
-4.70498e-05
2.4443e-07
-4.7274e-05
2.50731e-07
-4.75008e-05
2.54638e-07
-4.77286e-05
2.56835e-07
-4.79562e-05
2.57852e-07
-4.81829e-05
2.5794e-07
-4.84078e-05
2.57286e-07
-4.86304e-05
2.55989e-07
-4.88501e-05
2.54115e-07
-4.90666e-05
2.51731e-07
-4.92794e-05
2.4891e-07
-4.94882e-05
2.45725e-07
-4.96927e-05
2.42245e-07
-4.98927e-05
2.38509e-07
-5.00878e-05
2.34516e-07
-5.02781e-05
2.30441e-07
-5.04632e-05
2.26283e-07
-5.06431e-05
2.21974e-07
-5.08177e-05
2.17532e-07
-5.09867e-05
2.12986e-07
-5.11503e-05
2.08376e-07
-5.13082e-05
2.03711e-07
-5.14605e-05
1.98937e-07
-5.16073e-05
1.94161e-07
-5.17486e-05
1.8946e-07
-5.18845e-05
1.84754e-07
-5.2015e-05
1.79924e-07
-5.21403e-05
1.75102e-07
-5.22606e-05
1.70383e-07
-5.2376e-05
1.65689e-07
-5.24868e-05
1.60997e-07
-5.2593e-05
1.56329e-07
-5.26951e-05
1.51676e-07
-5.27931e-05
1.4712e-07
-5.28874e-05
1.42703e-07
-5.29782e-05
1.38357e-07
-5.30657e-05
1.3409e-07
-5.31503e-05
1.29939e-07
-5.3232e-05
1.259e-07
-5.33112e-05
1.22035e-07
-5.33882e-05
1.18384e-07
-5.34631e-05
1.14935e-07
-5.35363e-05
1.11737e-07
-5.36079e-05
1.08831e-07
-5.36781e-05
1.06195e-07
-5.37472e-05
1.03859e-07
-5.38153e-05
1.01929e-07
-5.38828e-05
1.00519e-07
-5.39498e-05
9.97316e-08
-5.40166e-05
9.95949e-08
-5.40833e-05
1.00104e-07
-5.41501e-05
1.01333e-07
-5.42171e-05
1.03393e-07
-5.42846e-05
1.06352e-07
-5.43527e-05
1.10301e-07
-5.44215e-05
1.15334e-07
-5.44913e-05
1.21504e-07
-5.45623e-05
1.28898e-07
-5.46346e-05
1.37561e-07
-5.47085e-05
1.47905e-07
-5.47836e-05
1.60137e-07
-5.48605e-05
1.73542e-07
-5.49395e-05
1.8839e-07
-5.50206e-05
2.04804e-07
-5.5104e-05
2.22847e-07
-5.519e-05
2.42553e-07
-5.52789e-05
2.63938e-07
-5.53709e-05
2.86829e-07
-5.5466e-05
3.10682e-07
-5.55647e-05
3.3494e-07
-5.56674e-05
3.59183e-07
-5.57744e-05
3.82836e-07
-5.58861e-05
4.05138e-07
-5.60028e-05
4.25128e-07
-5.6125e-05
4.4165e-07
-5.62533e-05
4.53361e-07
-5.6388e-05
4.58728e-07
-5.65299e-05
4.56105e-07
-5.66791e-05
4.43905e-07
-5.68358e-05
4.20397e-07
-5.70002e-05
3.83675e-07
-5.71712e-05
3.32429e-07
-5.73455e-05
2.64132e-07
-5.75189e-05
1.78819e-07
-5.76847e-05
7.72836e-08
-5.78336e-05
-4.06609e-08
-5.79499e-05
-1.80527e-07
-5.80054e-05
-3.54692e-07
-5.79552e-05
-5.80784e-07
-5.77179e-05
-8.93844e-07
-5.71452e-05
-1.36532e-06
-5.59685e-05
-2.12757e-06
-5.37156e-05
-3.39601e-06
-4.97111e-05
-5.38468e-06
-7.68258e-06
-4.36292e-05
-4.54636e-05
1.53261e-07
-4.55851e-05
2.74231e-07
-4.57406e-05
3.48673e-07
-4.59167e-05
3.94627e-07
-4.61054e-05
4.2298e-07
-4.63015e-05
4.40567e-07
-4.65021e-05
4.51274e-07
-4.6705e-05
4.57551e-07
-4.6909e-05
4.60822e-07
-4.71131e-05
4.61938e-07
-4.73166e-05
4.61474e-07
-4.7519e-05
4.59735e-07
-4.772e-05
4.56925e-07
-4.79191e-05
4.53219e-07
-4.8116e-05
4.48692e-07
-4.83107e-05
4.43532e-07
-4.85027e-05
4.37784e-07
-4.86921e-05
4.316e-07
-4.88786e-05
4.24987e-07
-4.9062e-05
4.17998e-07
-4.92423e-05
4.10742e-07
-4.94193e-05
4.03225e-07
-4.95927e-05
3.95414e-07
-4.97626e-05
3.87358e-07
-4.99287e-05
3.79098e-07
-5.00909e-05
3.70645e-07
-5.02493e-05
3.62076e-07
-5.04037e-05
3.53378e-07
-5.05542e-05
3.44615e-07
-5.07006e-05
3.35822e-07
-5.08428e-05
3.27043e-07
-5.09811e-05
3.18226e-07
-5.11155e-05
3.0942e-07
-5.12458e-05
3.00699e-07
-5.13722e-05
2.92081e-07
-5.14948e-05
2.8358e-07
-5.16136e-05
2.7518e-07
-5.17288e-05
2.66891e-07
-5.18405e-05
2.58823e-07
-5.19489e-05
2.51024e-07
-5.20539e-05
2.4345e-07
-5.2156e-05