/*--------------------------------*- C++ -*----------------------------------*\
| =========                 |                                                 |
| \\      /  F ield         | OpenFOAM: The Open Source CFD Toolbox           |
|  \\    /   O peration     | Version:  2.1.0                                 |
|   \\  /    A nd           | Web:      www.OpenFOAM.org                      |
|    \\/     M anipulation  |                                                 |
\*---------------------------------------------------------------------------*/
FoamFile
{
    version     2.0;
    format      ascii;
    class       volVectorField;
    location    "0.11";
    object      U;
}
// * * * * * * * * * * * * * * * * * * * * * * * * * * * * * * * * * * * * * //

dimensions      [0 1 -1 0 0 0 0];

internalField   nonuniform List<vector> 
6400
(
(-1.24299 -0.00051573 0)
(-1.24027 -0.000810585 0)
(-1.23656 -0.00108854 0)
(-1.2318 -0.00131322 0)
(-1.22628 -0.00148085 0)
(-1.22016 -0.00160479 0)
(-1.21365 -0.00168626 0)
(-1.20686 -0.00174219 0)
(-1.19989 -0.00177457 0)
(-1.19282 -0.00179639 0)
(-1.18568 -0.00180787 0)
(-1.1785 -0.00181671 0)
(-1.1713 -0.001822 0)
(-1.16407 -0.00182754 0)
(-1.15682 -0.00183206 0)
(-1.14955 -0.00183725 0)
(-1.14227 -0.00184172 0)
(-1.13497 -0.00184585 0)
(-1.12766 -0.00184817 0)
(-1.12034 -0.00184886 0)
(-1.11302 -0.00184694 0)
(-1.10572 -0.0018428 0)
(-1.09844 -0.00183604 0)
(-1.09119 -0.00182731 0)
(-1.08397 -0.00181677 0)
(-1.07681 -0.00180528 0)
(-1.06969 -0.00179325 0)
(-1.06261 -0.00178155 0)
(-1.05559 -0.00177075 0)
(-1.0486 -0.00176162 0)
(-1.04164 -0.00175463 0)
(-1.03471 -0.00175024 0)
(-1.02779 -0.00174889 0)
(-1.02087 -0.00175105 0)
(-1.01393 -0.00175691 0)
(-1.00697 -0.00176657 0)
(-0.999955 -0.0017802 0)
(-0.992881 -0.00179803 0)
(-0.985727 -0.00182022 0)
(-0.978478 -0.00184691 0)
(-0.971115 -0.00187798 0)
(-0.96362 -0.0019132 0)
(-0.95598 -0.0019524 0)
(-0.948176 -0.00199585 0)
(-0.940192 -0.00204357 0)
(-0.932011 -0.00209555 0)
(-0.923617 -0.00215177 0)
(-0.914994 -0.00221151 0)
(-0.906129 -0.00227423 0)
(-0.897009 -0.00234041 0)
(-0.887621 -0.00241006 0)
(-0.877953 -0.00248252 0)
(-0.867992 -0.00255786 0)
(-0.857728 -0.00263657 0)
(-0.847146 -0.00271828 0)
(-0.836238 -0.00280168 0)
(-0.824998 -0.00288664 0)
(-0.813419 -0.00297355 0)
(-0.801493 -0.00306157 0)
(-0.789219 -0.00315043 0)
(-0.77659 -0.00324117 0)
(-0.763598 -0.00333408 0)
(-0.750236 -0.00342836 0)
(-0.7365 -0.00352388 0)
(-0.722383 -0.00362122 0)
(-0.707878 -0.00371994 0)
(-0.692981 -0.00382009 0)
(-0.677684 -0.0039225 0)
(-0.66198 -0.00402677 0)
(-0.64586 -0.00413292 0)
(-0.629316 -0.00424135 0)
(-0.612341 -0.00435175 0)
(-0.594927 -0.00446418 0)
(-0.577063 -0.00457956 0)
(-0.558736 -0.00469912 0)
(-0.539927 -0.00482428 0)
(-0.520609 -0.00495709 0)
(-0.500746 -0.00510084 0)
(-0.480286 -0.00526012 0)
(-0.459157 -0.00544082 0)
(-0.437258 -0.00565031 0)
(-0.414459 -0.00589784 0)
(-0.390591 -0.00619367 0)
(-0.365445 -0.00654644 0)
(-0.338781 -0.00696471 0)
(-0.310327 -0.00745643 0)
(-0.279797 -0.00801976 0)
(-0.246945 -0.00863753 0)
(-0.211642 -0.00926754 0)
(-0.174022 -0.00981824 0)
(-0.134767 -0.0101034 0)
(-0.0956785 -0.00973817 0)
(-0.0603903 -0.00817599 0)
(-0.0340928 -0.00517166 0)
(-0.021139 -0.00140205 0)
(-0.0245717 0.00314199 0)
(-0.0528179 0.011175 0)
(-0.130358 0.0280754 0)
(-0.319789 0.067094 0)
(-0.89885 0.186583 0)
(-1.60776 -0.00166653 0)
(-1.60262 -0.00327094 0)
(-1.59528 -0.00431568 0)
(-1.58609 -0.00502392 0)
(-1.57621 -0.00549136 0)
(-1.56582 -0.00580815 0)
(-1.55531 -0.006 0)
(-1.54464 -0.00612058 0)
(-1.53404 -0.00617712 0)
(-1.52343 -0.00620398 0)
(-1.51294 -0.00620053 0)
(-1.50254 -0.00618699 0)
(-1.4923 -0.00616048 0)
(-1.48219 -0.00613189 0)
(-1.47227 -0.00609843 0)
(-1.4625 -0.0060657 0)
(-1.45291 -0.00603104 0)
(-1.44349 -0.00599622 0)
(-1.43424 -0.00595834 0)
(-1.42516 -0.00591813 0)
(-1.41624 -0.00587379 0)
(-1.40748 -0.00582633 0)
(-1.39887 -0.00577495 0)
(-1.39041 -0.00572119 0)
(-1.38209 -0.00566541 0)
(-1.37391 -0.00560959 0)
(-1.36585 -0.00555454 0)
(-1.35791 -0.00550219 0)
(-1.35008 -0.00545378 0)
(-1.34236 -0.00541114 0)
(-1.33473 -0.00537518 0)
(-1.32717 -0.00534702 0)
(-1.31969 -0.0053277 0)
(-1.31227 -0.00531843 0)
(-1.3049 -0.00531983 0)
(-1.29756 -0.00533211 0)
(-1.29023 -0.00535559 0)
(-1.28292 -0.00539081 0)
(-1.27559 -0.00543824 0)
(-1.26824 -0.00549808 0)
(-1.26086 -0.00557002 0)
(-1.25343 -0.00565318 0)
(-1.24593 -0.00574731 0)
(-1.23837 -0.00585301 0)
(-1.23071 -0.00597005 0)
(-1.22296 -0.00609833 0)
(-1.21511 -0.00623779 0)
(-1.20713 -0.00638635 0)
(-1.19903 -0.00654257 0)
(-1.19079 -0.00670771 0)
(-1.18241 -0.00688154 0)
(-1.17389 -0.00706214 0)
(-1.16521 -0.00724972 0)
(-1.15637 -0.00744534 0)
(-1.14737 -0.00764785 0)
(-1.13821 -0.00785414 0)
(-1.12888 -0.00806405 0)
(-1.11938 -0.00827865 0)
(-1.10971 -0.00849537 0)
(-1.09986 -0.00871333 0)
(-1.08985 -0.00893473 0)
(-1.07967 -0.00915946 0)
(-1.06933 -0.00938598 0)
(-1.05883 -0.00961448 0)
(-1.04818 -0.00984537 0)
(-1.03737 -0.0100778 0)
(-1.02641 -0.0103124 0)
(-1.01531 -0.0105505 0)
(-1.00407 -0.010791 0)
(-0.992694 -0.0110351 0)
(-0.981177 -0.0112843 0)
(-0.969522 -0.0115377 0)
(-0.957725 -0.0117959 0)
(-0.94578 -0.0120624 0)
(-0.933676 -0.0123404 0)
(-0.921398 -0.0126341 0)
(-0.908923 -0.0129492 0)
(-0.896224 -0.0132946 0)
(-0.88326 -0.0136818 0)
(-0.869982 -0.0141256 0)
(-0.856324 -0.0146442 0)
(-0.84221 -0.0152596 0)
(-0.82754 -0.0159974 0)
(-0.812201 -0.0168798 0)
(-0.796054 -0.0179271 0)
(-0.778955 -0.0191578 0)
(-0.760756 -0.0205648 0)
(-0.741344 -0.0221014 0)
(-0.720679 -0.0236587 0)
(-0.698867 -0.0250086 0)
(-0.676263 -0.0257051 0)
(-0.653563 -0.024899 0)
(-0.631979 -0.0213539 0)
(-0.614105 -0.0140471 0)
(-0.606946 -0.00276246 0)
(-0.618455 0.0120183 0)
(-0.660785 0.0375044 0)
(-0.754554 0.0866807 0)
(-0.940683 0.191444 0)
(-1.39383 0.493527 0)
(-1.75671 -0.00294689 0)
(-1.75155 -0.00637761 0)
(-1.74546 -0.00832129 0)
(-1.73747 -0.00950127 0)
(-1.72919 -0.0102143 0)
(-1.72024 -0.0106576 0)
(-1.7114 -0.0109072 0)
(-1.70225 -0.0110462 0)
(-1.69328 -0.0110929 0)
(-1.68418 -0.0110922 0)
(-1.67525 -0.0110448 0)
(-1.66631 -0.0109772 0)
(-1.65754 -0.0108862 0)
(-1.64883 -0.0107873 0)
(-1.64029 -0.010678 0)
(-1.63185 -0.0105671 0)
(-1.62358 -0.0104531 0)
(-1.61543 -0.0103394 0)
(-1.60745 -0.010224 0)
(-1.59958 -0.0101079 0)
(-1.59187 -0.00998989 0)
(-1.58427 -0.00987087 0)
(-1.57682 -0.00975045 0)
(-1.56947 -0.00963006 0)
(-1.56226 -0.00951024 0)
(-1.55515 -0.00939308 0)
(-1.54816 -0.00927938 0)
(-1.54127 -0.00917117 0)
(-1.5345 -0.00906994 0)
(-1.52782 -0.00897789 0)
(-1.52124 -0.00889604 0)
(-1.51476 -0.00882572 0)
(-1.50837 -0.00876836 0)
(-1.50206 -0.00872572 0)
(-1.49583 -0.00869876 0)
(-1.48966 -0.00868773 0)
(-1.48356 -0.00869281 0)
(-1.47752 -0.00871475 0)
(-1.47153 -0.0087542 0)
(-1.46558 -0.0088114 0)
(-1.45967 -0.00888583 0)
(-1.45379 -0.00897585 0)
(-1.44793 -0.00908115 0)
(-1.44209 -0.0092026 0)
(-1.43627 -0.00933923 0)
(-1.43046 -0.00949068 0)
(-1.42465 -0.00965725 0)
(-1.41885 -0.00983576 0)
(-1.41305 -0.010024 0)
(-1.40726 -0.0102236 0)
(-1.40146 -0.0104336 0)
(-1.39566 -0.0106513 0)
(-1.38987 -0.0108771 0)
(-1.38408 -0.0111112 0)
(-1.3783 -0.0113516 0)
(-1.37254 -0.0115954 0)
(-1.36679 -0.0118424 0)
(-1.36107 -0.0120928 0)
(-1.35538 -0.0123429 0)
(-1.34974 -0.0125915 0)
(-1.34415 -0.0128402 0)
(-1.33862 -0.0130871 0)
(-1.33318 -0.0133307 0)
(-1.32785 -0.0135716 0)
(-1.32263 -0.0138082 0)
(-1.31756 -0.0140398 0)
(-1.31264 -0.0142677 0)
(-1.30792 -0.0144917 0)
(-1.3034 -0.0147096 0)
(-1.29913 -0.0149246 0)
(-1.29512 -0.0151389 0)
(-1.2914 -0.0153508 0)
(-1.288 -0.0155617 0)
(-1.28494 -0.0157769 0)
(-1.28224 -0.0160015 0)
(-1.27993 -0.016242 0)
(-1.278 -0.0165074 0)
(-1.27648 -0.0168107 0)
(-1.27536 -0.0171687 0)
(-1.27462 -0.0176023 0)
(-1.27423 -0.0181366 0)
(-1.27415 -0.0188012 0)
(-1.27433 -0.0196302 0)
(-1.27468 -0.0206564 0)
(-1.27512 -0.0219057 0)
(-1.27555 -0.0234024 0)
(-1.27585 -0.0251352 0)
(-1.27594 -0.0270354 0)
(-1.27578 -0.0289536 0)
(-1.27541 -0.0305887 0)
(-1.275 -0.0313841 0)
(-1.27483 -0.0303754 0)
(-1.27536 -0.0261223 0)
(-1.27764 -0.0168536 0)
(-1.28473 -0.000726984 0)
(-1.29907 0.0229997 0)
(-1.33269 0.0636077 0)
(-1.39987 0.13859 0)
(-1.53008 0.289812 0)
(-1.77857 0.672948 0)
(-1.86922 -0.00409118 0)
(-1.86486 -0.00877583 0)
(-1.86121 -0.0113889 0)
(-1.85579 -0.0129224 0)
(-1.85047 -0.0138291 0)
(-1.84438 -0.0143717 0)
(-1.83858 -0.0146754 0)
(-1.83233 -0.0148352 0)
(-1.82636 -0.0148858 0)
(-1.82012 -0.0148728 0)
(-1.8141 -0.0148029 0)
(-1.80795 -0.0147032 0)
(-1.80197 -0.0145725 0)
(-1.79595 -0.0144282 0)
(-1.79007 -0.0142677 0)
(-1.78421 -0.0141023 0)
(-1.77847 -0.0139311 0)
(-1.77279 -0.0137591 0)
(-1.76722 -0.0135855 0)
(-1.76173 -0.0134116 0)
(-1.75635 -0.0132369 0)
(-1.75105 -0.0130618 0)
(-1.74586 -0.0128864 0)
(-1.74075 -0.0127117 0)
(-1.73575 -0.0125382 0)
(-1.73084 -0.0123678 0)
(-1.72604 -0.0122013 0)
(-1.72133 -0.0120403 0)
(-1.71674 -0.0118867 0)
(-1.71225 -0.0117428 0)
(-1.70787 -0.0116097 0)
(-1.7036 -0.0114888 0)
(-1.69944 -0.0113817 0)
(-1.6954 -0.0112907 0)
(-1.69147 -0.0112169 0)
(-1.68765 -0.0111603 0)
(-1.68396 -0.011121 0)
(-1.68038 -0.0110997 0)
(-1.67692 -0.0110973 0)
(-1.67358 -0.011114 0)
(-1.67037 -0.0111494 0)
(-1.66729 -0.0112011 0)
(-1.66433 -0.0112686 0)
(-1.6615 -0.011353 0)
(-1.65881 -0.0114526 0)
(-1.65625 -0.0115659 0)
(-1.65385 -0.011694 0)
(-1.65159 -0.0118342 0)
(-1.64948 -0.011984 0)
(-1.64753 -0.0121437 0)
(-1.64575 -0.0123113 0)
(-1.64413 -0.0124848 0)
(-1.6427 -0.0126648 0)
(-1.64145 -0.0128497 0)
(-1.64039 -0.0130362 0)
(-1.63954 -0.0132225 0)
(-1.63892 -0.0134084 0)
(-1.63852 -0.0135918 0)
(-1.63836 -0.0137688 0)
(-1.63847 -0.0139384 0)
(-1.63885 -0.0141007 0)
(-1.63952 -0.0142529 0)
(-1.6405 -0.0143928 0)
(-1.64181 -0.0145205 0)
(-1.64347 -0.0146335 0)
(-1.6455 -0.0147309 0)
(-1.64792 -0.0148146 0)
(-1.65075 -0.0148844 0)
(-1.654 -0.0149358 0)
(-1.65769 -0.014973 0)
(-1.66183 -0.0150021 0)
(-1.66644 -0.0150212 0)
(-1.67151 -0.0150322 0)
(-1.67703 -0.0150434 0)
(-1.68301 -0.0150627 0)
(-1.68941 -0.0150998 0)
(-1.69622 -0.0151669 0)
(-1.7034 -0.0152813 0)
(-1.7109 -0.015465 0)
(-1.71867 -0.0157447 0)
(-1.72664 -0.0161517 0)
(-1.73475 -0.0167206 0)
(-1.74291 -0.0174896 0)
(-1.75104 -0.0184977 0)
(-1.75907 -0.0197713 0)
(-1.76694 -0.0213302 0)
(-1.77461 -0.0231592 0)
(-1.78206 -0.0251776 0)
(-1.78928 -0.0272094 0)
(-1.79633 -0.0289181 0)
(-1.80326 -0.0297127 0)
(-1.81008 -0.0286258 0)
(-1.81676 -0.0241803 0)
(-1.82346 -0.0143699 0)
(-1.83166 0.00284998 0)
(-1.83998 0.0311501 0)
(-1.85838 0.0803811 0)
(-1.89352 0.170498 0)
(-1.9544 0.347505 0)
(-2.04252 0.725115 0)
(-1.97241 -0.00488149 0)
(-1.96937 -0.0101186 0)
(-1.9684 -0.0130904 0)
(-1.96603 -0.0148278 0)
(-1.9641 -0.0158542 0)
(-1.96147 -0.0164588 0)
(-1.95929 -0.0168006 0)
(-1.95662 -0.0169765 0)
(-1.95432 -0.0170365 0)
(-1.95169 -0.0170221 0)
(-1.94931 -0.0169471 0)
(-1.94674 -0.0168356 0)
(-1.94433 -0.0166889 0)
(-1.94183 -0.0165241 0)
(-1.93943 -0.0163385 0)
(-1.93701 -0.0161445 0)
(-1.93466 -0.015941 0)
(-1.93234 -0.0157341 0)
(-1.93009 -0.0155229 0)
(-1.92788 -0.0153102 0)
(-1.92576 -0.0150948 0)
(-1.92369 -0.0148778 0)
(-1.92171 -0.0146589 0)
(-1.9198 -0.014439 0)
(-1.91798 -0.0142189 0)
(-1.91625 -0.0139999 0)
(-1.91463 -0.013783 0)
(-1.9131 -0.0135694 0)
(-1.91168 -0.0133611 0)
(-1.91038 -0.0131609 0)
(-1.90921 -0.0129696 0)
(-1.90815 -0.012788 0)
(-1.90724 -0.0126182 0)
(-1.90646 -0.0124625 0)
(-1.90583 -0.0123224 0)
(-1.90536 -0.0121976 0)
(-1.90505 -0.0120876 0)
(-1.9049 -0.0119937 0)
(-1.90493 -0.0119164 0)
(-1.90515 -0.0118552 0)
(-1.90555 -0.0118105 0)
(-1.90615 -0.0117809 0)
(-1.90695 -0.0117649 0)
(-1.90796 -0.0117629 0)
(-1.90919 -0.0117737 0)
(-1.91064 -0.0117955 0)
(-1.91231 -0.0118281 0)
(-1.91421 -0.0118703 0)
(-1.91636 -0.0119211 0)
(-1.91876 -0.0119794 0)
(-1.9214 -0.0120404 0)
(-1.9243 -0.012105 0)
(-1.92746 -0.0121751 0)
(-1.93087 -0.0122471 0)
(-1.93455 -0.012317 0)
(-1.93849 -0.0123832 0)
(-1.94269 -0.0124464 0)
(-1.94716 -0.0125036 0)
(-1.95189 -0.0125517 0)
(-1.95688 -0.0125897 0)
(-1.96213 -0.0126172 0)
(-1.96763 -0.0126313 0)
(-1.97337 -0.0126297 0)
(-1.97936 -0.0126122 0)
(-1.98559 -0.0125757 0)
(-1.99205 -0.01252 0)
(-1.99874 -0.0124478 0)
(-2.00565 -0.0123604 0)
(-2.01277 -0.0122514 0)
(-2.02011 -0.012121 0)
(-2.02769 -0.0119752 0)
(-2.03551 -0.0118162 0)
(-2.04358 -0.0116497 0)
(-2.0519 -0.0114882 0)
(-2.06044 -0.0113435 0)
(-2.0692 -0.0112267 0)
(-2.07816 -0.0111523 0)
(-2.08728 -0.011141 0)
(-2.09655 -0.0112176 0)
(-2.10594 -0.0114125 0)
(-2.11542 -0.0117595 0)
(-2.12497 -0.0122956 0)
(-2.13453 -0.0130596 0)
(-2.14409 -0.0140913 0)
(-2.1536 -0.0154173 0)
(-2.16304 -0.0170466 0)
(-2.17236 -0.0189585 0)
(-2.18157 -0.0210673 0)
(-2.19063 -0.0231868 0)
(-2.19952 -0.0249761 0)
(-2.20814 -0.025861 0)
(-2.21631 -0.0249444 0)
(-2.22352 -0.0208597 0)
(-2.22944 -0.0116758 0)
(-2.23437 0.00494202 0)
(-2.23537 0.0343202 0)
(-2.23755 0.086418 0)
(-2.24035 0.181372 0)
(-2.23452 0.361506 0)
(-2.21091 0.689669 0)
(-2.06983 -0.00515299 0)
(-2.06847 -0.0103131 0)
(-2.0702 -0.0133032 0)
(-2.07107 -0.0150633 0)
(-2.07268 -0.0161066 0)
(-2.07375 -0.0167179 0)
(-2.07539 -0.0170653 0)
(-2.07656 -0.0172414 0)
(-2.07817 -0.0173043 0)
(-2.07941 -0.0172894 0)
(-2.08096 -0.0172156 0)
(-2.08226 -0.017102 0)
(-2.08375 -0.0169519 0)
(-2.08509 -0.016781 0)
(-2.08656 -0.0165854 0)
(-2.08795 -0.0163786 0)
(-2.08942 -0.0161587 0)
(-2.09087 -0.0159322 0)
(-2.09239 -0.0156976 0)
(-2.09392 -0.0154581 0)
(-2.09552 -0.0152128 0)
(-2.09716 -0.0149627 0)
(-2.09887 -0.014708 0)
(-2.10064 -0.0144489 0)
(-2.1025 -0.0141869 0)
(-2.10442 -0.013923 0)
(-2.10645 -0.0136586 0)
(-2.10855 -0.0133939 0)
(-2.11077 -0.0131315 0)
(-2.11308 -0.0128745 0)
(-2.11551 -0.0126235 0)
(-2.11806 -0.0123783 0)
(-2.12073 -0.0121418 0)
(-2.12354 -0.0119163 0)
(-2.12648 -0.0117031 0)
(-2.12956 -0.0115025 0)
(-2.1328 -0.0113142 0)
(-2.13618 -0.0111395 0)
(-2.13972 -0.0109792 0)
(-2.14341 -0.010832 0)
(-2.14725 -0.0106981 0)
(-2.15126 -0.0105782 0)
(-2.15543 -0.0104714 0)
(-2.15976 -0.010377 0)
(-2.16424 -0.0102945 0)
(-2.16887 -0.0102231 0)
(-2.17365 -0.0101615 0)
(-2.17858 -0.0101078 0)
(-2.18365 -0.0100633 0)
(-2.18885 -0.0100274 0)
(-2.19418 -0.00999255 0)
(-2.19965 -0.00995837 0)
(-2.20526 -0.00992791 0)
(-2.21101 -0.00989897 0)
(-2.21691 -0.00986854 0)
(-2.22294 -0.00983578 0)
(-2.2291 -0.00980151 0)
(-2.23539 -0.00976283 0)
(-2.24179 -0.00971711 0)
(-2.24831 -0.00966373 0)
(-2.25494 -0.00960149 0)
(-2.26167 -0.00952743 0)
(-2.2685 -0.00944015 0)
(-2.27544 -0.00933873 0)
(-2.28247 -0.00921824 0)
(-2.28961 -0.00907855 0)
(-2.29685 -0.00892546 0)
(-2.3042 -0.00875667 0)
(-2.31164 -0.00856782 0)
(-2.31923 -0.00835792 0)
(-2.32691 -0.00812785 0)
(-2.33468 -0.00788112 0)
(-2.34255 -0.00762533 0)
(-2.35054 -0.00737678 0)
(-2.35863 -0.00715141 0)
(-2.36684 -0.00695882 0)
(-2.37514 -0.00681464 0)
(-2.38354 -0.00674023 0)
(-2.39203 -0.00676159 0)
(-2.40061 -0.00690992 0)
(-2.40926 -0.00722088 0)
(-2.41799 -0.0077321 0)
(-2.42676 -0.00848088 0)
(-2.43559 -0.00950956 0)
(-2.44443 -0.010847 0)
(-2.45331 -0.012496 0)
(-2.46219 -0.0144358 0)
(-2.47106 -0.0165811 0)
(-2.47988 -0.0187525 0)
(-2.48857 -0.0206306 0)
(-2.49692 -0.0216935 0)
(-2.50459 -0.0211526 0)
(-2.51076 -0.017878 0)
(-2.51465 -0.0101341 0)
(-2.51576 0.00471759 0)
(-2.50917 0.0324151 0)
(-2.49614 0.0819863 0)
(-2.46932 0.172395 0)
(-2.40784 0.33688 0)
(-2.31068 0.599495 0)
(-2.15752 -0.00482587 0)
(-2.15794 -0.00935572 0)
(-2.16222 -0.0120308 0)
(-2.16621 -0.0136232 0)
(-2.17117 -0.0145714 0)
(-2.17583 -0.0151277 0)
(-2.18111 -0.0154438 0)
(-2.18601 -0.0156024 0)
(-2.19137 -0.0156588 0)
(-2.19635 -0.0156416 0)
(-2.20168 -0.0155714 0)
(-2.20669 -0.0154619 0)
(-2.21193 -0.0153176 0)
(-2.21696 -0.0151512 0)
(-2.2221 -0.0149587 0)
(-2.22713 -0.0147522 0)
(-2.23221 -0.0145297 0)
(-2.23724 -0.0142975 0)
(-2.24229 -0.0140541 0)
(-2.24733 -0.0138024 0)
(-2.25238 -0.013542 0)
(-2.25744 -0.0132736 0)
(-2.26252 -0.0129984 0)
(-2.26761 -0.0127156 0)
(-2.27273 -0.0124278 0)
(-2.27788 -0.0121355 0)
(-2.28306 -0.0118411 0)
(-2.28827 -0.0115435 0)
(-2.29352 -0.0112457 0)
(-2.29881 -0.010951 0)
(-2.30414 -0.0106606 0)
(-2.30951 -0.0103737 0)
(-2.31494 -0.0100931 0)
(-2.32041 -0.00982212 0)
(-2.32593 -0.00956108 0)
(-2.3315 -0.00931059 0)
(-2.33712 -0.00907195 0)
(-2.34281 -0.00884662 0)
(-2.34853 -0.0086352 0)
(-2.35431 -0.0084368 0)
(-2.36014 -0.00825097 0)
(-2.36602 -0.00807864 0)
(-2.37194 -0.0079209 0)
(-2.37791 -0.00777715 0)
(-2.38392 -0.00764652 0)
(-2.38997 -0.00752887 0)
(-2.39605 -0.00742266 0)
(-2.40216 -0.00732618 0)
(-2.4083 -0.00724028 0)
(-2.41446 -0.00716398 0)
(-2.42064 -0.00709246 0)
(-2.42687 -0.00702336 0)
(-2.43308 -0.0069567 0)
(-2.43929 -0.00689189 0)
(-2.4455 -0.00682744 0)
(-2.45171 -0.00676335 0)
(-2.45791 -0.00669918 0)
(-2.4641 -0.00663179 0)
(-2.4703 -0.00655886 0)
(-2.47648 -0.00647908 0)
(-2.48267 -0.00639061 0)
(-2.48885 -0.00629072 0)
(-2.49504 -0.00617798 0)
(-2.50123 -0.00605071 0)
(-2.50743 -0.00590194 0)
(-2.51366 -0.00572913 0)
(-2.5199 -0.0055446 0)
(-2.52618 -0.00534068 0)
(-2.53247 -0.00511568 0)
(-2.53882 -0.00487357 0)
(-2.54518 -0.00461402 0)
(-2.55157 -0.00433668 0)
(-2.55797 -0.00404389 0)
(-2.56444 -0.00375262 0)
(-2.57095 -0.00348756 0)
(-2.57752 -0.003253 0)
(-2.58417 -0.00306447 0)
(-2.5909 -0.00294346 0)
(-2.59772 -0.00291647 0)
(-2.60467 -0.00301535 0)
(-2.61172 -0.00327692 0)
(-2.61892 -0.00374054 0)
(-2.62624 -0.00443739 0)
(-2.63374 -0.00541544 0)
(-2.64139 -0.00670902 0)
(-2.64921 -0.00830701 0)
(-2.65721 -0.010203 0)
(-2.66535 -0.0123216 0)
(-2.67357 -0.0144979 0)
(-2.68173 -0.0164557 0)
(-2.68953 -0.0177545 0)
(-2.69646 -0.0177448 0)
(-2.70154 -0.0155597 0)
(-2.70341 -0.00977788 0)
(-2.70138 0.00210926 0)
(-2.68798 0.0258628 0)
(-2.66193 0.0683397 0)
(-2.61015 0.146071 0)
(-2.50627 0.282132 0)
(-2.36345 0.477141 0)
(-2.22837 -0.00391575 0)
(-2.23036 -0.00737371 0)
(-2.23666 -0.00945376 0)
(-2.2432 -0.0107055 0)
(-2.25082 -0.0114526 0)
(-2.25844 -0.0118923 0)
(-2.26666 -0.0121393 0)
(-2.27467 -0.012261 0)
(-2.28308 -0.0122996 0)
(-2.29121 -0.0122781 0)
(-2.29962 -0.0122131 0)
(-2.30776 -0.0121135 0)
(-2.31608 -0.0119853 0)
(-2.3242 -0.0118342 0)
(-2.33238 -0.0116615 0)
(-2.34045 -0.0114732 0)
(-2.34848 -0.0112691 0)
(-2.35645 -0.0110536 0)
(-2.36434 -0.0108261 0)
(-2.3722 -0.0105892 0)
(-2.37995 -0.010342 0)
(-2.38769 -0.0100863 0)
(-2.39532 -0.00982277 0)
(-2.40292 -0.0095515 0)
(-2.41043 -0.0092743 0)
(-2.41789 -0.00899212 0)
(-2.42526 -0.00870771 0)
(-2.43257 -0.00842043 0)
(-2.43981 -0.00813271 0)
(-2.44696 -0.00784655 0)
(-2.45403 -0.00756428 0)
(-2.46104 -0.00728625 0)
(-2.46796 -0.00701465 0)
(-2.4748 -0.00675207 0)
(-2.48155 -0.00649912 0)
(-2.48823 -0.00625606 0)
(-2.49482 -0.00602538 0)
(-2.50133 -0.00580884 0)
(-2.50774 -0.00560593 0)
(-2.51408 -0.00541644 0)
(-2.52033 -0.00524023 0)
(-2.52649 -0.00507749 0)
(-2.53257 -0.00492971 0)
(-2.53856 -0.00479686 0)
(-2.54447 -0.00467747 0)
(-2.5503 -0.00457118 0)
(-2.55605 -0.00447679 0)
(-2.56171 -0.00439294 0)
(-2.5673 -0.00431922 0)
(-2.57281 -0.00425373 0)
(-2.57825 -0.00419613 0)
(-2.58362 -0.00414608 0)
(-2.5889 -0.00409991 0)
(-2.5941 -0.00405491 0)
(-2.59922 -0.00400965 0)
(-2.60427 -0.00396382 0)
(-2.60925 -0.0039158 0)
(-2.61418 -0.00386277 0)
(-2.61906 -0.00380251 0)
(-2.6239 -0.00373292 0)
(-2.6287 -0.00365194 0)
(-2.63348 -0.00355716 0)
(-2.63824 -0.00344677 0)
(-2.64299 -0.00331908 0)
(-2.64774 -0.00316733 0)
(-2.65251 -0.00297787 0)
(-2.65731 -0.00278104 0)
(-2.66214 -0.0025613 0)
(-2.66701 -0.00231723 0)
(-2.67193 -0.00205309 0)
(-2.67691 -0.00176951 0)
(-2.68198 -0.00146781 0)
(-2.68714 -0.00114077 0)
(-2.6924 -0.000800059 0)
(-2.69778 -0.0004968 0)
(-2.70328 -0.000216566 0)
(-2.7089 2.50777e-05 0)
(-2.71467 0.000206282 0)
(-2.72059 0.000300402 0)
(-2.72669 0.000275789 0)
(-2.73297 9.60704e-05 0)
(-2.73947 -0.000277822 0)
(-2.7462 -0.000878827 0)
(-2.75325 -0.00174637 0)
(-2.76045 -0.0029329 0)
(-2.76799 -0.00441195 0)
(-2.77579 -0.0062021 0)
(-2.7838 -0.00824752 0)
(-2.79191 -0.0103986 0)
(-2.79993 -0.0124432 0)
(-2.8075 -0.0140359 0)
(-2.81399 -0.0146984 0)
(-2.81834 -0.0137806 0)
(-2.81872 -0.0103585 0)
(-2.81417 -0.00225047 0)
(-2.79639 0.0152859 0)
(-2.75944 0.0471508 0)
(-2.68852 0.10578 0)
(-2.55497 0.205705 0)
(-2.386 0.337279 0)
(-2.27955 -0.00249142 0)
(-2.28295 -0.00460625 0)
(-2.29058 -0.00589548 0)
(-2.29894 -0.00667346 0)
(-2.30834 -0.00713446 0)
(-2.3181 -0.00740332 0)
(-2.32831 -0.00754763 0)
(-2.33857 -0.00761315 0)
(-2.34905 -0.00762369 0)
(-2.35946 -0.00759557 0)
(-2.36997 -0.00753793 0)
(-2.38035 -0.00745614 0)
(-2.39075 -0.00735527 0)
(-2.40102 -0.00723584 0)
(-2.41122 -0.00710345 0)
(-2.42131 -0.00695885 0)
(-2.43125 -0.00680337 0)
(-2.44109 -0.00663845 0)
(-2.45074 -0.00646467 0)
(-2.46028 -0.00628316 0)
(-2.4696 -0.00609345 0)
(-2.47882 -0.00589722 0)
(-2.48779 -0.00569483 0)
(-2.49664 -0.0054875 0)
(-2.50524 -0.00527597 0)
(-2.51369 -0.0050611 0)
(-2.5219 -0.00484514 0)
(-2.52993 -0.00462922 0)
(-2.53773 -0.00441471 0)
(-2.54532 -0.00420116 0)
(-2.55269 -0.00399118 0)
(-2.55986 -0.00378758 0)
(-2.5668 -0.00359125 0)
(-2.57352 -0.00340243 0)
(-2.58003 -0.00322234 0)
(-2.58634 -0.00305188 0)
(-2.59244 -0.00289322 0)
(-2.59834 -0.00274739 0)
(-2.60404 -0.00261295 0)
(-2.60956 -0.00248999 0)
(-2.6149 -0.00237907 0)
(-2.62007 -0.00227976 0)
(-2.62507 -0.00219281 0)
(-2.62993 -0.00211825 0)
(-2.63463 -0.00205441 0)
(-2.63921 -0.00200064 0)
(-2.64366 -0.00195613 0)
(-2.64799 -0.00191942 0)
(-2.65222 -0.00188953 0)
(-2.65635 -0.0018652 0)
(-2.6604 -0.00184668 0)
(-2.66437 -0.00183368 0)
(-2.66829 -0.00182252 0)
(-2.67215 -0.00180907 0)
(-2.67596 -0.00179158 0)
(-2.67975 -0.00176943 0)
(-2.68352 -0.00174045 0)
(-2.68727 -0.00170226 0)
(-2.69102 -0.00165258 0)
(-2.69479 -0.00158919 0)
(-2.69857 -0.00150987 0)
(-2.70237 -0.00141248 0)
(-2.70622 -0.00129537 0)
(-2.7101 -0.00115612 0)
(-2.71404 -0.000998951 0)
(-2.71803 -0.000768678 0)
(-2.72212 -0.000549671 0)
(-2.72628 -0.000302171 0)
(-2.73052 -2.49377e-05 0)
(-2.73486 0.000279837 0)
(-2.73931 0.000610169 0)
(-2.74389 0.000962584 0)
(-2.74859 0.00134864 0)
(-2.75341 0.00175534 0)
(-2.7584 0.00212977 0)
(-2.76357 0.00248697 0)
(-2.76894 0.00281204 0)
(-2.77451 0.0030835 0)
(-2.78031 0.00327502 0)
(-2.78633 0.00335567 0)
(-2.7926 0.00328992 0)
(-2.79914 0.00304074 0)
(-2.80595 0.00256385 0)
(-2.81309 0.00183241 0)
(-2.82041 0.000797896 0)
(-2.82811 -0.00053671 0)
(-2.83618 -0.00219059 0)
(-2.84432 -0.00413618 0)
(-2.85269 -0.00625703 0)
(-2.86095 -0.00841648 0)
(-2.86869 -0.0103622 0)
(-2.87522 -0.0118001 0)
(-2.87939 -0.012316 0)
(-2.87938 -0.0114341 0)
(-2.87267 -0.00760446 0)
(-2.85304 0.00193378 0)
(-2.81009 0.0205717 0)
(-2.7267 0.0555959 0)
(-2.57518 0.114997 0)
(-2.39332 0.188942 0)
(-2.3073 -0.000687265 0)
(-2.31156 -0.00133195 0)
(-2.31987 -0.00172006 0)
(-2.32918 -0.0019463 0)
(-2.33947 -0.00207163 0)
(-2.35031 -0.00213635 0)
(-2.36149 -0.00216105 0)
(-2.37286 -0.00216103 0)
(-2.38431 -0.00214305 0)
(-2.39579 -0.00211282 0)
(-2.40723 -0.00207262 0)
(-2.41862 -0.00202424 0)
(-2.42988 -0.00196973 0)
(-2.44104 -0.00190844 0)
(-2.45201 -0.00184416 0)
(-2.46284 -0.00177601 0)
(-2.47344 -0.0017048 0)
(-2.48386 -0.00162998 0)
(-2.49402 -0.0015522 0)
(-2.50398 -0.00147137 0)
(-2.51365 -0.00138654 0)
(-2.52312 -0.00129865 -1.52656e-41)
(-2.53226 -0.00120825 0)
(-2.54119 -0.0011166 0)
(-2.5498 -0.00102378 0)
(-2.55817 -0.000929723 0)
(-2.56621 -0.000835765 0)
(-2.574 -0.000743973 0)
(-2.58149 -0.000653987 0)
(-2.58871 -0.000563923 0)
(-2.59564 -0.000476621 0)
(-2.60231 -0.000395758 0)
(-2.6087 -0.000320245 0)
(-2.61483 -0.000248537 0)
(-2.62071 -0.000182535 0)
(-2.62635 -0.000123512 0)
(-2.63176 -7.22629e-05 0)
(-2.63695 -2.90685e-05 0)
(-2.64193 7.56911e-06 0)
(-2.64671 3.77865e-05 0)
(-2.65132 6.07716e-05 0)
(-2.65575 7.70573e-05 0)
(-2.66002 8.65577e-05 0)
(-2.66415 8.9314e-05 0)
(-2.66815 8.69849e-05 0)
(-2.67202 8.04026e-05 0)
(-2.67579 6.99201e-05 0)
(-2.67947 5.6966e-05 0)
(-2.68306 4.26855e-05 0)
(-2.68659 2.73402e-05 0)
(-2.69005 1.16406e-05 0)
(-2.69346 -2.80698e-06 0)
(-2.69683 -1.35253e-05 0)
(-2.70018 -1.67601e-05 0)
(-2.70351 -1.10578e-05 0)
(-2.70684 4.13941e-06 0)
(-2.71017 3.09622e-05 0)
(-2.71351 7.1622e-05 0)
(-2.71687 0.000128431 0)
(-2.72027 0.000203493 0)
(-2.7237 0.000299041 0)
(-2.72717 0.000416879 0)
(-2.7307 0.000559011 0)
(-2.7343 0.00072575 0)
(-2.73799 0.000915983 0)
(-2.74172 0.00118518 0)
(-2.74554 0.00144715 0)
(-2.74947 0.00174098 0)
(-2.7535 0.00206891 0)
(-2.75766 0.00243019 0)
(-2.76195 0.00282284 0)
(-2.76638 0.00324588 0)
(-2.77097 0.00370471 0)
(-2.77572 0.00418165 0)
(-2.78063 0.00464967 0)
(-2.78575 0.00510531 0)
(-2.79107 0.00553455 0)
(-2.79662 0.00591706 0)
(-2.80242 0.00622727 0)
(-2.80847 0.00643484 0)
(-2.8148 0.00650503 0)
(-2.82142 0.00640008 0)
(-2.82837 0.00607415 7.14013e-41)
(-2.83566 0.00549631 0)
(-2.84331 0.00463363 0)
(-2.85129 0.00344839 0)
(-2.85965 0.00193546 0)
(-2.86806 9.6933e-05 1.13944e-42)
(-2.87678 -0.00200999 0)
(-2.88512 -0.00429461 0)
(-2.89304 -0.00662403 0)
(-2.89972 -0.0088848 0)
(-2.90399 -0.0109385 0)
(-2.90401 -0.0126346 -7.42593e-41)
(-2.89659 -0.0134343 0)
(-2.87602 -0.0124919 0)
(-2.83127 -0.00876634 -1.03048e-40)
(-2.74312 -1.82511e-05 0)
(-2.58417 0.0161678 0)
(-2.39768 0.0366769 0)
(-2.30435 0.00124837 0)
(-2.30855 0.0021064 0)
(-2.3168 0.00265085 0)
(-2.32604 0.00299795 0)
(-2.33625 0.00322085 0)
(-2.347 0.00336816 0)
(-2.35809 0.00346508 0)
(-2.36937 0.00353037 0)
(-2.38073 0.00357297 0)
(-2.39212 0.00360005 0)
(-2.40347 0.00361483 0)
(-2.41477 0.00361995 0)
(-2.42595 0.00361638 0)
(-2.43702 0.00360529 0)
(-2.44791 0.00358674 0)
(-2.45865 0.00356215 0)
(-2.46918 0.00353245 0)
(-2.47953 0.00349905 0)
(-2.48962 0.00346227 0)
(-2.49952 0.0034224 0)
(-2.50913 0.00338234 0)
(-2.51854 0.00334188 3.92837e-41)
(-2.52764 0.00329978 0)
(-2.53652 0.00325582 0)
(-2.54509 0.00321047 0)
(-2.55343 0.00316456 0)
(-2.56145 0.00311774 0)
(-2.56922 0.00306826 0)
(-2.57669 0.00301818 0)
(-2.5839 0.00296956 0)
(-2.59082 0.00291981 0)
(-2.59748 0.00286574 0)
(-2.60388 0.00281013 0)
(-2.61002 0.00275513 0)
(-2.61591 0.0026986 0)
(-2.62156 0.00263973 0)
(-2.62699 0.00257876 0)
(-2.6322 0.00251547 0)
(-2.6372 0.00245161 0)
(-2.64201 0.00238791 0)
(-2.64664 0.00232302 0)
(-2.65109 0.00225725 0)
(-2.6554 0.00219118 0)
(-2.65955 0.00212478 0)
(-2.66358 0.00205961 0)
(-2.66748 0.00199661 0)
(-2.67128 0.00193569 0)
(-2.67498 0.00187815 0)
(-2.6786 0.00182505 0)
(-2.68215 0.00177607 0)
(-2.68563 0.00173207 0)
(-2.68906 0.0016954 0)
(-2.69246 0.00166853 0)
(-2.69582 0.0016545 0)
(-2.69916 0.00165429 0)
(-2.7025 0.00166804 0)
(-2.70584 0.00169771 0)
(-2.70918 0.00174579 0)
(-2.71254 0.00181428 0)
(-2.71593 0.00190533 0)
(-2.71936 0.00202125 0)
(-2.72283 0.00216349 0)
(-2.72634 0.00233447 0)
(-2.72993 0.00253347 0)
(-2.73358 0.0027715 0)
(-2.73731 0.0030628 0)
(-2.74111 0.0033748 0)
(-2.74501 0.00372069 0)
(-2.74901 0.00410391 0)
(-2.75312 0.00452542 0)
(-2.75736 0.00498505 0)
(-2.76173 0.00548313 0)
(-2.76625 0.00601776 0)
(-2.77093 0.00657379 0)
(-2.77577 0.00713442 0)
(-2.78081 0.00769045 0)
(-2.78605 0.00822757 0)
(-2.79152 0.00872637 0)
(-2.79722 0.00916226 0)
(-2.8032 0.00950584 0)
(-2.80946 0.00972325 0)
(-2.81603 0.00977592 0)
(-2.82294 0.00962205 1.13107e-40)
(-2.83022 0.00922415 0)
(-2.83787 0.00854296 0)
(-2.84589 0.00752987 0)
(-2.85427 0.00616667 0)
(-2.8629 0.00441903 5.19454e-41)
(-2.87173 0.0022992 0)
(-2.88014 -0.000142257 0)
(-2.88806 -0.00287804 0)
(-2.89455 -0.00596437 0)
(-2.8988 -0.00955433 0)
(-2.89887 -0.0138798 -8.15778e-41)
(-2.89156 -0.0193601 0)
(-2.87111 -0.0269453 0)
(-2.827 -0.038449 -4.51966e-40)
(-2.74062 -0.0567425 0)
(-2.58358 -0.0847058 0)
(-2.39897 -0.116489 0)
(-2.2724 0.00302037 0)
(-2.27568 0.00533491 0)
(-2.28318 0.0067696 0)
(-2.29137 0.00766015 0)
(-2.30058 0.00821249 0)
(-2.31013 0.00855867 0)
(-2.32012 0.0087711 0)
(-2.33014 0.00889844 0)
(-2.34038 0.0089667 0)
(-2.35052 0.00899342 0)
(-2.36077 0.00898868 0)
(-2.37086 0.00895883 0)
(-2.38099 0.00890748 0)
(-2.39096 0.0088378 0)
(-2.40089 0.00875144 0)
(-2.41066 0.00865175 0)
(-2.42033 0.0085401 0)
(-2.42987 0.00841938 0)
(-2.43926 0.00829004 0)
(-2.44851 0.00815283 0)
(-2.45759 0.00801122 0)
(-2.46655 0.00786531 0)
(-2.47528 0.00771381 0)
(-2.48389 0.00755762 0)
(-2.49226 0.00739757 0)
(-2.50049 0.00723432 0)
(-2.50849 0.00706892 0)
(-2.51632 0.00690055 0)
(-2.52394 0.00673134 0)
(-2.53137 0.00656271 0)
(-2.53858 0.00639416 0)
(-2.54559 0.00622362 0)
(-2.55241 0.00605332 0)
(-2.55903 0.00588536 0)
(-2.56544 0.005719 0)
(-2.57166 0.00555413 0)
(-2.5777 0.00539083 0)
(-2.58356 0.00522911 0)
(-2.58923 0.00507135 0)
(-2.59473 0.00491871 0)
(-2.60007 0.00476976 0)
(-2.60524 0.00462461 0)
(-2.61027 0.00448393 0)
(-2.61515 0.00434809 0)
(-2.6199 0.00421882 0)
(-2.62452 0.00409687 0)
(-2.62903 0.00398205 0)
(-2.63342 0.0038757 0)
(-2.63771 0.00377857 0)
(-2.64191 0.00369028 0)
(-2.64601 0.00361129 0)
(-2.65005 0.00354435 0)
(-2.65401 0.00349332 0)
(-2.65792 0.00346068 0)
(-2.66178 0.00344641 0)
(-2.66559 0.00345024 0)
(-2.66938 0.00347403 0)
(-2.67314 0.0035209 0)
(-2.67689 0.00359234 0)
(-2.68064 0.00369058 0)
(-2.68439 0.00381821 0)
(-2.68814 0.0039764 0)
(-2.69192 0.00416728 0)
(-2.69574 0.00439301 0)
(-2.69958 0.00466199 0)
(-2.70348 0.00497734 0)
(-2.70741 0.00532669 0)
(-2.71142 0.00571468 0)
(-2.71549 0.00614376 0)
(-2.71965 0.00661587 0)
(-2.72389 0.0071332 0)
(-2.72825 0.00769601 0)
(-2.73272 0.00829868 0)
(-2.73732 0.00892864 0)
(-2.74207 0.00957341 0)
(-2.74698 0.0102224 0)
(-2.75208 0.0108615 0)
(-2.75738 0.0114722 0)
(-2.7629 0.012031 0)
(-2.76867 0.0125097 0)
(-2.77473 0.0128753 0)
(-2.78109 0.0130899 0)
(-2.78778 0.0131125 0)
(-2.79485 0.0129016 0)
(-2.80229 0.0124118 0)
(-2.81013 0.0115934 0)
(-2.81834 0.0103988 0)
(-2.82684 0.00875548 0)
(-2.83548 0.00662823 0)
(-2.84397 0.00398024 0)
(-2.85188 0.00080033 0)
(-2.85837 -0.00309133 0)
(-2.86249 -0.00814661 0)
(-2.8629 -0.0150226 0)
(-2.85655 -0.0250011 0)
(-2.83815 -0.0406438 0)