/*--------------------------------*- C++ -*----------------------------------*\
| =========                 |                                                 |
| \\      /  F ield         | OpenFOAM: The Open Source CFD Toolbox           |
|  \\    /   O peration     | Version:  2.1.0                                 |
|   \\  /    A nd           | Web:      www.OpenFOAM.org                      |
|    \\/     M anipulation  |                                                 |
\*---------------------------------------------------------------------------*/
FoamFile
{
    version     2.0;
    format      ascii;
    class       volScalarField;
    location    "0.12";
    object      C0;
}
// * * * * * * * * * * * * * * * * * * * * * * * * * * * * * * * * * * * * * //

dimensions      [0 0 0 0 0 0 0];

internalField   nonuniform List<scalar> 
6400
(
1.22348e-21
1.75039e-21
2.6356e-21
3.97762e-21
5.98472e-21
8.97364e-21
1.34101e-20
1.99746e-20
2.96578e-20
4.38983e-20
6.47777e-20
9.53005e-20
1.3979e-19
2.04451e-19
2.98159e-19
4.33586e-19
6.28763e-19
9.09283e-19
1.31138e-18
1.88622e-18
2.70585e-18
3.8715e-18
5.525e-18
7.8646e-18
1.11667e-17
1.58157e-17
2.23449e-17
3.14925e-17
4.42776e-17
6.2104e-17
8.69005e-17
1.21311e-16
1.68954e-16
2.34762e-16
3.25457e-16
4.50163e-16
6.21253e-16
8.55455e-16
1.17535e-15
1.61132e-15
2.20424e-15
3.00886e-15
4.0985e-15
5.57106e-15
7.55704e-15
1.02301e-14
1.38208e-14
1.86348e-14
2.50767e-14
3.36811e-14
4.51528e-14
6.04204e-14
8.07047e-14
1.07609e-13
1.43236e-13
1.90338e-13
2.52517e-13
3.3448e-13
4.42369e-13
5.84195e-13
7.70395e-13
1.01456e-12
1.33436e-12
1.75278e-12
2.29971e-12
3.01394e-12
3.94588e-12
5.16097e-12
6.74419e-12
8.80585e-12
1.14893e-11
1.49805e-11
1.95214e-11
2.54264e-11
3.31046e-11
4.30887e-11
5.60731e-11
7.29641e-11
9.49463e-11
1.23571e-10
1.60871e-10
2.09525e-10
2.73061e-10
3.56153e-10
4.65024e-10
6.08009e-10
7.96372e-10
1.04552e-09
1.37685e-09
1.8208e-09
2.4219e-09
3.24821e-09
4.4094e-09
6.09281e-09
8.6338e-09
1.26546e-08
1.93049e-08
3.07496e-08
5.05579e-08
8.19386e-08
1.54636e-21
2.22519e-21
3.35355e-21
5.06072e-21
7.61248e-21
1.14111e-20
1.70475e-20
2.53844e-20
3.76773e-20
5.57482e-20
8.2232e-20
1.2093e-19
1.77308e-19
2.59206e-19
3.77833e-19
5.49177e-19
7.95974e-19
1.15048e-18
1.65831e-18
2.38385e-18
3.41768e-18
4.88699e-18
6.96983e-18
9.91488e-18
1.40686e-17
1.99124e-17
2.81139e-17
3.95962e-17
5.56327e-17
7.79763e-17
1.09034e-16
1.52103e-16
2.11689e-16
2.93938e-16
4.07209e-16
5.6285e-16
7.76232e-16
1.06813e-15
1.46655e-15
2.0092e-15
2.74671e-15
3.7469e-15
5.10053e-15
6.9287e-15
9.39277e-15
1.27073e-14
1.7157e-14
2.31191e-14
3.10929e-14
4.1737e-14
5.59204e-14
7.47863e-14
9.98376e-14
1.33046e-13
1.76998e-13
2.35075e-13
3.11703e-13
4.12657e-13
5.45475e-13
7.19979e-13
9.48962e-13
1.24907e-12
1.64194e-12
2.1557e-12
2.82689e-12
3.70296e-12
4.84547e-12
6.33436e-12
8.27336e-12
1.07971e-11
1.40803e-11
1.83499e-11
2.39006e-11
3.11155e-11
4.04929e-11
5.26813e-11
6.85262e-11
8.91308e-11
1.15937e-10
1.50833e-10
1.96297e-10
2.5559e-10
3.3302e-10
4.34294e-10
5.67022e-10
7.41413e-10
9.71281e-10
1.27553e-09
1.68042e-09
2.22314e-09
2.95776e-09
3.96557e-09
5.37417e-09
7.39436e-09
1.03906e-08
1.50061e-08
2.23091e-08
3.3998e-08
5.2072e-08
7.65977e-08
2.14796e-21
3.10691e-21
4.69044e-21
7.08474e-21
1.06652e-20
1.59979e-20
2.39143e-20
3.5628e-20
5.29056e-20
7.831e-20
1.15548e-19
1.69965e-19
2.49246e-19
3.64409e-19
5.31205e-19
7.72087e-19
1.11897e-18
1.61711e-18
2.33048e-18
3.3493e-18
4.80045e-18
6.86194e-18
9.78281e-18
1.39107e-17
1.97294e-17
2.7911e-17
3.93865e-17
5.54422e-17
7.78517e-17
1.09054e-16
1.52394e-16
2.12454e-16
2.95488e-16
4.10018e-16
5.67628e-16
7.84032e-16
1.08049e-15
1.48572e-15
2.03842e-15
2.79059e-15
3.81206e-15
5.19627e-15
7.06814e-15
9.59422e-15
1.29962e-14
1.75688e-14
2.37024e-14
3.19141e-14
4.28873e-14
5.75232e-14
7.7009e-14
1.02906e-13
1.37263e-13
1.82768e-13
2.4294e-13
3.22377e-13
4.27087e-13
5.64908e-13
7.46049e-13
9.83802e-13
1.29545e-12
1.70347e-12
2.23701e-12
2.93394e-12
3.84337e-12
5.02894e-12
6.57318e-12
8.58302e-12
1.1197e-11
1.45946e-11
1.90086e-11
2.47405e-11
3.21814e-11
4.18386e-11
5.43709e-11
7.06342e-11
9.1742e-11
1.19144e-10
1.54733e-10
2.00981e-10
2.61127e-10
3.39425e-10
4.41478e-10
5.74702e-10
7.48951e-10
9.77409e-10
1.27784e-09
1.67443e-09
2.20046e-09
2.90253e-09
3.84705e-09
5.13094e-09
6.8996e-09
9.37713e-09
1.29143e-08
1.80508e-08
2.55501e-08
3.6351e-08
5.10498e-08
6.83689e-08
3.03798e-21
4.41364e-21
6.6766e-21
1.00999e-20
1.5225e-20
2.28672e-20
3.4224e-20
5.10446e-20
7.58758e-20
1.12414e-19
1.66008e-19
2.4437e-19
3.58594e-19
5.2458e-19
7.65063e-19
1.11245e-18
1.61278e-18
2.33136e-18
3.36044e-18
4.83011e-18
6.92323e-18
9.89624e-18
1.41077e-17
2.0058e-17
2.84431e-17
4.0229e-17
5.67532e-17
7.98627e-17
1.12102e-16
1.56967e-16
2.19252e-16
3.05514e-16
4.24699e-16
5.88986e-16
8.14918e-16
1.12491e-15
1.54927e-15
2.12889e-15
2.91881e-15
3.99296e-15
5.45046e-15
7.42384e-15
1.00901e-14
1.36849e-14
1.85216e-14
2.50162e-14
3.37193e-14
4.53592e-14
6.08967e-14
8.15977e-14
1.09127e-13
1.4567e-13
1.94093e-13
2.58146e-13
3.42731e-13
4.54247e-13
6.01033e-13
7.93947e-13
1.04711e-12
1.37885e-12
1.81298e-12
2.38033e-12
3.12088e-12
4.08634e-12
5.34361e-12
6.9792e-12
9.10486e-12
1.1865e-11
1.5446e-11
2.00886e-11
2.61038e-11
3.38928e-11
4.39742e-11
5.70176e-11
7.38885e-11
9.5706e-11
1.23919e-10
1.60403e-10
2.07591e-10
2.68646e-10
3.4768e-10
4.50055e-10
5.82782e-10
7.55057e-10
9.78985e-10
1.27058e-09
1.65114e-09
2.14919e-09
2.80323e-09
3.6657e-09
4.8088e-09
6.33285e-09
8.3785e-09
1.11429e-08
1.48975e-08
1.99929e-08
2.68526e-08
3.58254e-08
4.68081e-08
5.83782e-08
4.21837e-21
6.15205e-21
9.32495e-21
1.41296e-20
2.13335e-20
3.20912e-20
4.8099e-20
7.18372e-20
1.0692e-19
1.58594e-19
2.34458e-19
3.45473e-19
5.07407e-19
7.42874e-19
1.0842e-18
1.57749e-18
2.28823e-18
3.30929e-18
4.77189e-18
6.86098e-18
9.8365e-18
1.40628e-17
2.00494e-17
2.85065e-17
4.04217e-17
5.71654e-17
8.0633e-17
1.13441e-16
1.5919e-16
2.22827e-16
3.11125e-16
4.33343e-16
6.02101e-16
8.34565e-16
1.15402e-15
1.59201e-15
2.19109e-15
3.00865e-15
4.12183e-15
5.63412e-15
7.68403e-15
1.04566e-14
1.41984e-14
1.92376e-14
2.60094e-14
3.50907e-14
4.72441e-14
6.34757e-14
8.5111e-14
1.13892e-13
1.52106e-13
2.02747e-13
2.69735e-13
3.58183e-13
4.74762e-13
6.2815e-13
8.2963e-13
1.09385e-12
1.43978e-12
1.892e-12
2.48228e-12
3.25166e-12
4.25309e-12
5.55483e-12
7.24478e-12
9.43608e-12
1.22742e-11
1.59461e-11
2.0692e-11
2.68202e-11
3.47266e-11
4.49192e-11
5.80499e-11
7.49547e-11
9.67065e-11
1.24682e-10
1.60647e-10
2.06872e-10
2.6627e-10
3.42589e-10
4.40652e-10
5.66673e-10
7.28669e-10
9.37002e-10
1.20509e-09
1.55036e-09
1.99548e-09
2.57005e-09
3.31278e-09
4.27443e-09
5.52152e-09
7.14093e-09
9.2449e-09
1.19749e-08
1.55001e-08
2.00039e-08
2.56594e-08
3.25048e-08
4.02025e-08
4.75086e-08
5.64768e-21
8.26396e-21
1.25488e-20
1.90449e-20
2.87999e-20
4.33887e-20
6.5127e-20
9.74034e-20
1.45159e-19
2.15573e-19
3.19046e-19
4.7059e-19
6.91808e-19
1.01369e-18
1.48055e-18
2.15556e-18
3.12854e-18
4.52675e-18
6.53004e-18
9.39182e-18
1.34682e-17
1.9258e-17
2.74585e-17
3.90411e-17
5.53561e-17
7.82752e-17
1.10386e-16
1.55256e-16
2.17794e-16
3.04731e-16
4.25281e-16
5.92019e-16
8.2207e-16
1.13869e-15
1.57341e-15
2.16882e-15
2.9824e-15
4.09143e-15
5.59969e-15
7.64614e-15
1.04165e-14
1.41582e-14
1.92006e-14
2.59808e-14
3.50776e-14
4.72562e-14
6.35255e-14
8.52139e-14
1.14066e-13
1.52369e-13
2.03117e-13
2.70218e-13
3.58769e-13
4.75404e-13
6.28739e-13
8.2995e-13
1.09351e-12
1.43812e-12
1.88793e-12
2.47407e-12
3.2366e-12
4.22701e-12
5.51142e-12
7.1746e-12
9.32513e-12
1.21019e-11
1.56825e-11
2.02936e-11
2.62245e-11
3.38439e-11
4.36214e-11
5.61549e-11
7.22052e-11
9.27394e-11
1.18986e-10
1.52506e-10
1.95281e-10
2.49826e-10
3.19329e-10
4.07838e-10
5.20481e-10
6.63758e-10
8.45906e-10
1.07736e-09
1.37132e-09
1.74452e-09
2.21807e-09
2.81865e-09
3.57977e-09
4.54331e-09
5.76111e-09
7.29619e-09
9.22307e-09
1.16257e-08
1.45903e-08
1.81896e-08
2.24586e-08
2.73107e-08
3.23777e-08
3.66502e-08
7.21225e-21
1.05827e-20
1.60947e-20
2.44603e-20
3.70402e-20
5.58784e-20
8.39825e-20
1.25757e-19
1.87627e-19
2.78935e-19
4.13218e-19
6.10025e-19
8.97493e-19
1.31599e-18
1.92324e-18
2.80155e-18
4.06786e-18
5.88792e-18
8.49581e-18
1.22213e-17
1.75273e-17
2.50625e-17
3.57321e-17
5.07972e-17
7.20086e-17
1.01791e-16
1.43493e-16
2.01728e-16
2.82832e-16
3.95487e-16
5.5156e-16
7.67222e-16
1.06446e-15
1.47311e-15
2.03349e-15
2.80006e-15
3.8461e-15
5.27e-15
7.2036e-15
9.82305e-15
1.33632e-14
1.81366e-14
2.45577e-14
3.31755e-14
4.47152e-14
6.01327e-14
8.06853e-14
1.08023e-13
1.44307e-13
1.9236e-13
2.55867e-13
3.3962e-13
4.49846e-13
5.94618e-13
7.84382e-13
1.03263e-12
1.35675e-12
1.77914e-12
2.32854e-12
3.04185e-12
3.96627e-12
5.1622e-12
6.70667e-12
8.6979e-12
1.12609e-11
1.45544e-11
1.87801e-11
2.41933e-11
3.11174e-11
3.99611e-11
5.12401e-11
6.56051e-11
8.38752e-11
1.07081e-10
1.36515e-10
1.73803e-10
2.20976e-10
2.8058e-10
3.55789e-10
4.50566e-10
5.69839e-10
7.19726e-10
9.07807e-10
1.14344e-09
1.43813e-09
1.806e-09
2.26424e-09
2.83367e-09
3.5392e-09
4.41027e-09
5.48091e-09
6.78924e-09
8.37597e-09
1.02812e-08
1.2539e-08
1.51629e-08
1.8125e-08
2.13084e-08
2.43938e-08
2.66225e-08
8.7165e-21
1.28178e-20
1.95174e-20
2.96945e-20
4.50153e-20
6.79811e-20
1.02275e-19
1.53291e-19
2.28906e-19
3.40569e-19
5.0488e-19
7.45808e-19
1.09785e-18
1.61051e-18
2.35455e-18
3.43084e-18
4.98265e-18
7.21295e-18
1.04082e-17
1.49718e-17
2.14698e-17
3.06939e-17
4.37493e-17
6.21729e-17
8.8097e-17
1.24471e-16
1.75364e-16
2.46372e-16
3.45173e-16
4.82274e-16
6.72008e-16
9.33883e-16
1.29438e-15
1.78934e-15
2.46717e-15
3.39307e-15
4.65461e-15
6.36916e-15
8.69361e-15
1.18372e-14
1.60781e-14
2.17856e-14
2.94484e-14
3.97122e-14
5.34273e-14
7.17115e-14
9.60309e-14
1.28303e-13
1.71033e-13
2.27482e-13
3.01889e-13
3.9975e-13
5.28181e-13
6.96367e-13
9.16147e-13
1.20274e-12
1.57569e-12
2.06002e-12
2.6877e-12
3.49955e-12
4.54752e-12
5.89763e-12
7.63364e-12
9.86158e-12
1.27155e-11
1.63643e-11
2.1021e-11
2.6953e-11
3.44959e-11
4.40699e-11
5.62e-11
7.15413e-11
9.09093e-11
1.15316e-10
1.46017e-10
1.84564e-10
2.32868e-10
2.93285e-10
3.68697e-10
4.62628e-10
5.79365e-10
7.24104e-10
9.03098e-10
1.12383e-09
1.39518e-09
1.72761e-09
2.13328e-09
2.62613e-09
3.22189e-09
3.93776e-09
4.79189e-09
5.80234e-09
6.9854e-09
8.35323e-09
9.91088e-09
1.16508e-08
1.35199e-08
1.5414e-08
1.70946e-08
1.80535e-08
9.91302e-21
1.45996e-20
2.2249e-20
3.38757e-20
5.13912e-20
7.76639e-20
1.16918e-19
1.75343e-19
2.61973e-19
3.89949e-19
5.78313e-19
8.54563e-19
1.25827e-18
1.84618e-18
2.69942e-18
3.93353e-18
5.7126e-18
8.26888e-18
1.193e-17
1.7157e-17
2.4596e-17
3.51506e-17
5.00801e-17
7.11345e-17
1.00739e-16
1.42244e-16
2.00266e-16
2.81147e-16
3.93576e-16
5.49424e-16
7.64865e-16
1.06188e-15
1.47025e-15
2.03022e-15
2.79607e-15
3.84074e-15
5.26205e-15
7.19085e-15
9.80167e-15
1.33268e-14
1.80745e-14
2.44528e-14
3.3001e-14
4.4429e-14
5.96701e-14
7.99478e-14
1.06862e-13
1.42501e-13
1.8958e-13
2.51629e-13
3.33216e-13
4.40248e-13
5.8034e-13
7.63287e-13
1.00166e-12
1.31156e-12
1.71354e-12
2.23383e-12
2.90574e-12
3.77159e-12
4.8849e-12
6.31331e-12
8.14204e-12
1.04782e-11
1.34564e-11
1.72446e-11
2.2053e-11
2.8143e-11
3.58397e-11
4.55457e-11
5.77586e-11
7.30915e-11
9.22975e-11
1.163e-10
1.46224e-10
1.83438e-10
2.29602e-10
2.86711e-10
3.57162e-10
4.43811e-10
5.50037e-10
6.79813e-10
8.37764e-10
1.02922e-09
1.26024e-09
1.53756e-09
1.8685e-09
2.26077e-09
2.72232e-09
3.26074e-09
3.88263e-09
4.59259e-09
5.392e-09
6.27762e-09
7.24013e-09
8.26256e-09
9.30234e-09
1.02752e-08
1.1033e-08
1.12894e-08
1.05604e-20
1.55651e-20
2.373e-20
3.6143e-20
5.48484e-20
8.29132e-20
1.24853e-19
1.87285e-19
2.79867e-19
4.16643e-19
6.1796e-19
9.13194e-19
1.34461e-18
1.97278e-18
2.88429e-18
4.20237e-18
6.10198e-18
8.83056e-18
1.27371e-17
1.83121e-17
2.62428e-17
3.74895e-17
5.33896e-17
7.57998e-17
1.07291e-16
1.51413e-16
2.1305e-16
2.98907e-16
4.1816e-16
5.83335e-16
8.11475e-16
1.12572e-15
1.55737e-15
2.1487e-15
2.95662e-15
4.05752e-15
5.55369e-15
7.58176e-15
1.03237e-14
1.40212e-14
1.89946e-14
2.56672e-14
3.45969e-14
4.65174e-14
6.23907e-14
8.34751e-14
1.11412e-13
1.48339e-13
1.97029e-13
2.61072e-13
3.45105e-13
4.55104e-13
5.98744e-13
7.85862e-13
1.02904e-12
1.3443e-12
1.75206e-12
2.27817e-12
2.95538e-12
3.82498e-12
4.93898e-12
6.3626e-12
8.17754e-12
1.04857e-11
1.3414e-11
1.712e-11
2.17984e-11
2.76895e-11
3.50888e-11
4.43581e-11
5.59393e-11
7.03693e-11
8.82983e-11
1.1051e-10
1.37945e-10
1.71723e-10
2.13172e-10
2.63856e-10
3.25601e-10
4.00517e-10
4.9102e-10
5.99842e-10
7.30019e-10
8.84866e-10
1.06791e-09
1.28279e-09
1.53308e-09
1.82207e-09
2.15216e-09
2.52448e-09
2.93877e-09
3.3922e-09
3.87874e-09
4.38817e-09
4.90511e-09
5.40785e-09
5.86661e-09
6.23756e-09
6.44389e-09
6.36937e-09
1.05043e-20
1.54808e-20
2.35993e-20
3.59408e-20
5.45364e-20
8.24332e-20
1.24117e-19
1.8616e-19
2.78153e-19
4.14038e-19
6.14016e-19
9.07242e-19
1.33565e-18
1.95935e-18
2.8642e-18
4.17242e-18
6.05745e-18
8.76457e-18
1.26395e-17
1.81683e-17
2.60314e-17
3.71796e-17
5.29362e-17
7.51385e-17
1.06329e-16
1.50015e-16
2.11025e-16
2.9598e-16
4.13938e-16
5.77257e-16
8.02743e-16
1.11319e-15
1.53945e-15
2.1231e-15
2.92011e-15
4.00553e-15
5.47978e-15
7.47685e-15
1.0175e-14
1.38108e-14
1.86973e-14
2.52477e-14
3.40058e-14
4.56856e-14
6.12218e-14
8.18348e-14
1.09114e-13
1.45122e-13
1.92533e-13
2.54798e-13
3.36363e-13
4.42939e-13
5.81841e-13
7.62413e-13
9.96555e-13
1.29938e-12
1.69004e-12
2.19269e-12
2.83777e-12
3.66346e-12
4.71753e-12
6.05959e-12
7.76371e-12
9.92168e-12
1.26468e-11
1.60785e-11
2.03876e-11
2.57826e-11
3.25171e-11
4.08978e-11
5.12941e-11
6.41483e-11
7.99877e-11
9.94358e-11
1.23226e-10
1.52213e-10
1.87384e-10
2.2987e-10
2.80947e-10
3.42037e-10
4.14695e-10
5.00586e-10
6.01442e-10
7.19e-10
8.54899e-10
1.01056e-09
1.187e-09
1.38463e-09
1.60293e-09
1.84024e-09
2.09268e-09
2.35449e-09
2.61772e-09
2.87148e-09
3.10153e-09
3.29023e-09
3.41677e-09
3.45797e-09
3.39102e-09
3.20299e-09
9.76077e-21
1.4371e-20
2.18953e-20
3.33287e-20
5.05473e-20
7.6366e-20
1.14928e-19
1.723e-19
2.57336e-19
3.82903e-19
5.67638e-19
8.38442e-19
1.234e-18
1.80974e-18
2.64487e-18
3.85212e-18
5.59144e-18
8.08907e-18
1.16639e-17
1.67642e-17
2.40178e-17
3.43016e-17
4.88367e-17
6.93181e-17
9.80918e-17
1.38395e-16
1.94682e-16
2.73064e-16
3.81901e-16
5.32596e-16
7.4066e-16
1.02713e-15
1.42046e-15
1.95902e-15
2.69441e-15
3.69586e-15
5.05593e-15
6.89806e-15
9.38644e-15
1.27388e-14
1.72431e-14
2.32791e-14
3.13463e-14
4.20995e-14
5.63954e-14
7.53507e-14
1.00418e-13
1.33479e-13
1.7697e-13
2.34026e-13
3.08681e-13
4.06101e-13
5.32885e-13
6.9744e-13
9.10435e-13
1.18538e-12
1.53929e-12
1.9936e-12
2.57514e-12
3.31741e-12
4.26208e-12
5.46082e-12
6.97742e-12
8.89032e-12
1.12956e-11
1.43104e-11
1.80768e-11
2.27664e-11
2.85856e-11
3.57804e-11
4.4643e-11
5.5518e-11
6.88081e-11
8.49804e-11
1.04572e-10
1.28191e-10
1.56523e-10
1.9032e-10
2.304e-10
2.77627e-10
3.32887e-10
3.97053e-10
4.70927e-10
5.55178e-10
6.50246e-10
7.56234e-10
8.72771e-10
9.98854e-10
1.13268e-09
1.27147e-09
1.41124e-09
1.54635e-09
1.66949e-09
1.77257e-09
1.84606e-09
1.87981e-09
1.86456e-09
1.79471e-09
1.67304e-09
1.51641e-09
8.50349e-21
1.24989e-20
1.90245e-20
2.8933e-20
4.38416e-20
6.61774e-20
9.95106e-20
1.49068e-19
2.22471e-19
3.30794e-19
4.90074e-19
7.23446e-19
1.06418e-18
1.55994e-18
2.27881e-18
3.31772e-18
4.81417e-18
6.96267e-18
1.00374e-17
1.44239e-17
2.0662e-17
2.95062e-17
4.20071e-17
5.96235e-17
8.43749e-17
1.19049e-16
1.67484e-16
2.34945e-16
3.28637e-16
4.58395e-16
6.37597e-16
8.84395e-16
1.22335e-15
1.68758e-15
2.32165e-15
3.18536e-15
4.35865e-15
5.94817e-15
8.09577e-15
1.09896e-14
1.48782e-14
2.00898e-14
2.70555e-14
3.63404e-14
4.86833e-14
6.50468e-14
8.66815e-14
1.15207e-13
1.52715e-13
2.01898e-13
2.66209e-13
3.50067e-13
4.59103e-13
6.00472e-13
7.83232e-13
1.01881e-12
1.32158e-12
1.70952e-12
2.2051e-12
2.83622e-12
3.6374e-12
4.65121e-12
5.92985e-12
7.53706e-12
9.55032e-12
1.20632e-11
1.51882e-11
1.90598e-11
2.38373e-11
2.97087e-11
3.68935e-11
4.5646e-11
5.6258e-11
6.90602e-11
8.44225e-11
1.02752e-10
1.2449e-10
1.501e-10
1.80058e-10
2.14827e-10
2.54838e-10
3.00444e-10
3.5188e-10
4.09201e-10
4.72216e-10
5.40411e-10
6.12864e-10
6.88155e-10
7.64294e-10
8.38654e-10
9.07944e-10
9.6822e-10
1.01446e-09
1.04156e-09
1.04474e-09
1.01988e-09
9.65119e-10
8.82731e-10
7.81706e-10
6.79472e-10
6.9781e-21
1.02332e-20
1.55553e-20
2.36281e-20
3.57594e-20
5.39125e-20
8.09732e-20
1.21163e-19
1.80635e-19
2.68321e-19
3.97152e-19
5.85772e-19
8.6098e-19
1.26116e-18
1.84114e-18
2.67892e-18
3.88519e-18
5.61645e-18
8.0934e-18
1.16262e-17
1.66495e-17
2.37704e-17
3.38349e-17
4.80176e-17
6.79453e-17
9.58643e-17
1.34867e-16
1.892e-16
2.64675e-16
3.69227e-16
5.13655e-16
7.1262e-16
9.85962e-16
1.36046e-15
1.87215e-15
2.56939e-15
3.51689e-15
4.80099e-15
6.53655e-15
8.87594e-15
1.20207e-14
1.62365e-14
2.18728e-14
2.93876e-14
3.93794e-14
5.2628e-14
7.01458e-14
9.32439e-14
1.23614e-13
1.63431e-13
2.15484e-13
2.83335e-13
3.71518e-13
4.85784e-13
6.33399e-13
8.2351e-13
1.06759e-12
1.37995e-12
1.7784e-12
2.285e-12
2.92689e-12
3.73738e-12
4.7571e-12
6.03535e-12
7.63159e-12
9.61711e-12
1.20768e-11
1.5111e-11
1.88375e-11
2.3393e-11
2.8935e-11
3.56426e-11
4.37172e-11
5.33812e-11
6.48765e-11
7.84602e-11
9.43973e-11
1.12951e-10
1.34369e-10
1.58864e-10
1.8659e-10
2.17613e-10
2.51873e-10
2.89149e-10
3.29007e-10
3.70764e-10
4.13436e-10
4.55714e-10
4.95942e-10
5.3213e-10
5.62012e-10
5.83148e-10
5.93059e-10
5.8882e-10
5.68761e-10
5.32121e-10
4.80103e-10
4.16717e-10
3.49552e-10
2.89903e-10
5.42522e-21
7.93296e-21
1.2039e-20
1.82594e-20
2.75929e-20
4.15387e-20
6.22989e-20
9.30919e-20
1.38604e-19
2.05633e-19
3.04012e-19
4.47913e-19
6.57689e-19
9.62487e-19
1.4039e-18
2.04112e-18
2.95807e-18
4.27343e-18
6.15449e-18
8.83636e-18
1.26485e-17
1.80511e-17
2.56853e-17
3.64417e-17
5.15536e-17
7.27246e-17
1.023e-16
1.43503e-16
2.00742e-16
2.80043e-16
3.89608e-16
5.40573e-16
7.48017e-16
1.0323e-15
1.42083e-15
1.95041e-15
2.67028e-15
3.6462e-15
4.96566e-15
6.74475e-15
9.13709e-15
1.23453e-14
1.66357e-14
2.23578e-14
2.99679e-14
4.00607e-14
5.34087e-14
7.10112e-14
9.41577e-14
1.24506e-13
1.64179e-13
2.15887e-13
2.83077e-13
3.70116e-13
4.82514e-13
6.27197e-13
8.12833e-13
1.05022e-12
1.35274e-12
1.73693e-12
2.22308e-12
2.83596e-12
3.60566e-12
4.5685e-12
5.76801e-12
7.25602e-12
9.09374e-12
1.13529e-11
1.41167e-11
1.74806e-11
2.1553e-11
2.6455e-11
3.232e-11
3.92916e-11
4.75213e-11
5.71635e-11
6.83685e-11
8.12741e-11
9.59933e-11
1.12599e-10
1.31106e-10
1.51449e-10
1.7346e-10
1.9684e-10
2.21139e-10
2.45726e-10
2.69784e-10
2.92299e-10
3.12084e-10
3.27819e-10
3.38135e-10
3.41743e-10
3.37577e-10
3.24483e-10
3.0214e-10
2.71095e-10
2.33189e-10
1.91759e-10
1.5162e-10
1.18802e-10
4.02723e-21
5.8687e-21
8.88926e-21
1.34594e-20
2.03051e-20
3.05173e-20
4.56965e-20
6.81795e-20
1.01365e-19
1.50181e-19
2.21748e-19
3.26318e-19
4.78613e-19
6.99696e-19
1.01961e-18
1.48109e-18
2.14471e-18
3.0961e-18
4.45591e-18
6.3937e-18
9.147e-18
1.30476e-17
1.85577e-17
2.63194e-17
3.72217e-17
5.24928e-17
7.3824e-17
1.03538e-16
1.44817e-16
2.02005e-16
2.81019e-16
3.89896e-16
5.39519e-16
7.44582e-16
1.02488e-15
1.40698e-15
1.92646e-15
2.63083e-15
3.58331e-15
4.86781e-15
6.59538e-15
8.91248e-15
1.20118e-14
1.61458e-14
2.16448e-14
2.89388e-14
3.85861e-14
5.13094e-14
6.80408e-14
8.9978e-14
1.18655e-13
1.56027e-13
2.04583e-13
2.67469e-13
3.48654e-13
4.53119e-13
5.87088e-13
7.58301e-13
9.7634e-13
1.253e-12
1.60272e-12
2.04309e-12
2.59538e-12
3.28515e-12
4.1429e-12
5.20471e-12
6.51295e-12
8.11684e-12
1.0073e-11
1.24456e-11
1.53068e-11
1.87357e-11
2.2818e-11
2.76438e-11
3.33049e-11
3.9891e-11
4.74839e-11
5.61506e-11
6.59341e-11
7.68425e-11
8.88362e-11
1.01814e-10
1.15596e-10
1.29912e-10
1.44388e-10
1.58532e-10
1.71744e-10
1.83314e-10
1.92462e-10
1.98378e-10
2.00302e-10
1.97619e-10
1.89967e-10
1.77308e-10
1.59567e-10
1.37603e-10
1.1296e-10
8.78769e-11
6.5067e-11
4.74267e-11
2.88498e-21
4.1877e-21
6.32975e-21
9.56703e-21
1.44084e-20
2.1619e-20
3.2321e-20
4.81505e-20
7.14858e-20
1.05772e-19
1.55981e-19
2.29273e-19
3.35916e-19
4.90599e-19
7.14262e-19
1.03667e-18
1.50002e-18
2.16393e-18
3.11237e-18
4.46336e-18
6.38218e-18
9.09969e-18
1.29375e-17
1.83422e-17
2.59324e-17
3.65627e-17
5.14097e-17
7.20899e-17
1.00817e-16
1.40615e-16
1.95602e-16
2.71371e-16
3.75498e-16
5.18215e-16
7.13299e-16
9.79255e-16
1.34086e-15
1.83118e-15
2.49425e-15
3.3885e-15
4.59126e-15
6.20452e-15
8.36242e-15
1.12408e-14
1.50694e-14
2.01476e-14
2.68638e-14
3.57206e-14
4.73658e-14
6.26318e-14
8.25834e-14
1.08579e-13
1.42341e-13
1.86052e-13
2.42456e-13
3.14997e-13
4.07968e-13
5.26704e-13
6.77792e-13
8.69328e-13
1.1112e-12
1.41542e-12
1.79645e-12
2.27165e-12
2.86161e-12
3.5906e-12
4.48697e-12
5.58342e-12
6.91732e-12
8.53073e-12
1.04702e-11
1.27866e-11
1.55336e-11
1.87667e-11
2.2541e-11
2.69078e-11
3.1911e-11
3.75815e-11
4.39316e-11
5.09466e-11
5.85772e-11
6.673e-11
7.52584e-11
8.39545e-11
9.25427e-11
1.00677e-10
1.07946e-10
1.13883e-10
1.17994e-10
1.19799e-10
1.18888e-10
1.14996e-10
1.0807e-10
9.83463e-11
8.59883e-11
7.16202e-11
5.63112e-11
4.14488e-11
2.85311e-11
1.89168e-11
2.03062e-21
2.93435e-21
4.42584e-21
6.67858e-21
1.00432e-20
1.50479e-20
2.24667e-20
3.34281e-20
4.95706e-20
7.32665e-20
1.07939e-19
1.58514e-19
2.32053e-19
3.38657e-19
4.92719e-19
7.14702e-19
1.03359e-18
1.49036e-18
2.14272e-18
3.07174e-18
4.39101e-18
6.25916e-18
8.8972e-18
1.26121e-17
1.78292e-17
2.51357e-17
3.5341e-17
4.95564e-17
6.93047e-17
9.66657e-17
1.34473e-16
1.86574e-16
2.58183e-16
3.56341e-16
4.90532e-16
6.7349e-16
9.22269e-16
1.25964e-15
1.71589e-15
2.33127e-15
3.15896e-15
4.26916e-15
5.75415e-15
7.73487e-15
1.03693e-14
1.38631e-14
1.84832e-14
2.45747e-14
3.25821e-14
4.3076e-14
5.67862e-14
7.4642e-14
9.78225e-14
1.27817e-13
1.66499e-13
2.16213e-13
2.79881e-13
3.61122e-13
4.64403e-13
5.95197e-13
7.60174e-13
9.67412e-13
1.22662e-12
1.5494e-12
1.94946e-12
2.44291e-12
3.04845e-12
3.78757e-12
4.68464e-12
5.76691e-12
7.06433e-12
8.60913e-12
1.04351e-11
1.25764e-11
1.50661e-11
1.79342e-11
2.12045e-11
2.48913e-11
2.89953e-11
3.34988e-11
3.83601e-11
4.35082e-11
4.88372e-11
5.42016e-11
5.94132e-11
6.4241e-11
6.84147e-11
7.16342e-11
7.35894e-11
7.39895e-11
7.26043e-11
6.93137e-11
6.41506e-11
5.73246e-11
4.91546e-11
3.99271e-11
3.03374e-11
2.12375e-11
1.35195e-11
7.90989e-12
1.45669e-21
2.09393e-21
3.15243e-21
4.75199e-21
7.13966e-21
1.06889e-20
1.5947e-20
2.37117e-20
3.51413e-20
5.19127e-20
7.64453e-20
1.1222e-19
1.6423e-19
2.39613e-19
3.48548e-19
5.05502e-19
7.30982e-19
1.05397e-18
1.51531e-18
2.17241e-18
3.10568e-18
4.42753e-18
6.29458e-18
8.92447e-18
1.26188e-17
1.77943e-17
2.50252e-17
3.51007e-17
4.91023e-17
6.85076e-17
9.53303e-17
1.32306e-16
1.83143e-16
2.52849e-16
3.48171e-16
4.78171e-16
6.54987e-16
8.94823e-16
1.21925e-15
1.6569e-15
2.24565e-15
3.03546e-15
4.09199e-15
5.50129e-15
7.37575e-15
9.86159e-15
1.31485e-14
1.74816e-14
2.31765e-14
3.06381e-14
4.03835e-14
5.30711e-14
6.9535e-14
9.0828e-14
1.18272e-13
1.5352e-13
1.98628e-13
2.5614e-13
3.29188e-13
4.216e-13
5.38037e-13
6.84122e-13
8.66601e-13
1.0935e-12
1.37429e-12
1.72004e-12
2.14355e-12
2.65947e-12
3.2843e-12
4.03641e-12
4.93581e-12
6.00386e-12
7.26271e-12
8.73451e-12
1.04403e-11
1.23984e-11
1.46228e-11
1.71206e-11
1.98892e-11
2.29135e-11
2.6162e-11
2.95835e-11
3.31038e-11
3.66229e-11
4.00137e-11
4.31216e-11
4.57674e-11
4.77539e-11
4.88783e-11
4.8952e-11
4.78284e-11
4.5439e-11
4.18211e-11
3.71078e-11
3.15719e-11
2.53871e-11
1.89524e-11
1.28177e-11
7.59053e-12
3.78894e-12
1.15019e-21
1.64369e-21
2.47215e-21
3.72654e-21
5.59986e-21
8.38525e-21
1.25128e-20
1.86098e-20
2.75872e-20
4.07643e-20
6.00461e-20
8.8174e-20
1.29082e-19
1.88398e-19
2.7415e-19
3.97757e-19
5.75412e-19
8.30013e-19
1.19385e-18
1.71233e-18
2.4491e-18
3.49319e-18
4.96869e-18
7.04817e-18
9.97088e-18
1.40676e-17
1.97945e-17
2.77786e-17
3.88797e-17
5.42733e-17
7.55618e-17
1.04924e-16
1.45312e-16
2.00718e-16
2.76519e-16
3.79942e-16
5.20669e-16
7.11629e-16
9.70039e-16
1.31875e-15
1.788e-15
2.41768e-15
3.26022e-15
4.38432e-15
5.87971e-15
7.86314e-15
1.0486e-14
1.3944e-14
1.84888e-14
2.44433e-14
3.222e-14
4.23434e-14
5.54778e-14
7.24611e-14
9.43446e-14
1.22442e-13
1.58384e-13
2.04191e-13
2.6234e-13
3.35863e-13
4.28439e-13
5.44505e-13
6.89372e-13
8.69347e-13
1.09186e-12
1.36556e-12
1.70044e-12
2.1079e-12
2.60073e-12
3.19312e-12
3.90047e-12
4.7391e-12
5.72588e-12
6.87751e-12
8.20969e-12
9.73597e-12
1.14663e-11
1.34052e-11
1.55498e-11
1.78873e-11
2.03927e-11
2.30259e-11
2.57297e-11
2.84275e-11
3.10225e-11
3.33978e-11
3.54185e-11
3.69358e-11
3.77963e-11
3.78552e-11
3.69965e-11
3.51626e-11
3.23836e-11
2.87636e-11
2.44907e-11
1.97127e-11
1.47016e-11
9.84395e-12
5.5921e-12
2.39411e-12
1.15771e-07
1.14526e-07
1.08698e-07
1.0196e-07
9.52588e-08
8.89268e-08
8.31059e-08
7.7846e-08
7.31374e-08
6.89304e-08
6.51476e-08
6.16923e-08
5.84539e-08
5.53137e-08
5.21522e-08
4.88634e-08
4.53824e-08
4.17425e-08
3.81955e-08
3.54741e-08
9.80513e-08
9.70582e-08
9.13698e-08
8.47098e-08
7.82212e-08
7.22541e-08
6.69033e-08
6.21657e-08
5.79919e-08
5.43077e-08
5.10247e-08
4.80453e-08
4.52672e-08
4.25864e-08
3.99039e-08
3.71378e-08
3.42467e-08
3.12771e-08
2.84565e-08
2.63782e-08
8.14178e-08
7.99376e-08
7.47478e-08
6.87032e-08
6.28529e-08
5.7541e-08
5.28465e-08
4.87459e-08
4.51743e-08
4.20499e-08
3.92841e-08
3.67861e-08
3.44655e-08
3.22348e-08
3.00149e-08
2.77447e-08
2.54003e-08
2.30318e-08
2.0831e-08
1.92557e-08
6.56345e-08
6.37125e-08
5.91904e-08
5.40589e-08
4.91225e-08
4.46665e-08
4.07562e-08
3.73658e-08
3.44324e-08
3.18802e-08
2.96298e-08
2.76025e-08
2.57233e-08
2.39218e-08
2.2137e-08
2.03251e-08
1.84745e-08
1.66332e-08
1.49566e-08
1.37901e-08
5.09262e-08
4.88697e-08
4.51397e-08
4.10402e-08
3.71265e-08
3.3605e-08
3.05233e-08
2.78586e-08
2.55591e-08
2.35623e-08
2.18034e-08
2.02196e-08
1.87521e-08
1.73473e-08
1.596e-08
1.45603e-08
1.31445e-08
1.17557e-08
1.05164e-08
9.68256e-09
3.77398e-08
3.58505e-08
3.29664e-08
2.98913e-08
2.69777e-08
2.43605e-08
2.20702e-08
2.00888e-08
1.83777e-08
1.68902e-08
1.55779e-08
1.43942e-08
1.32962e-08
1.22449e-08
1.12087e-08
1.01681e-08
9.12449e-09
8.1145e-09
7.23255e-09
6.66182e-09
2.65049e-08
2.49745e-08
2.29026e-08
2.07498e-08
1.87228e-08
1.69021e-08
1.53055e-08
1.39201e-08
1.27194e-08
1.16718e-08
1.07442e-08
9.90452e-09
9.12334e-09
8.37423e-09
7.63623e-09
6.89754e-09
6.16208e-09
5.45984e-09
4.86133e-09
4.48995e-09
1.74797e-08
1.63752e-08
1.50062e-08
1.36133e-08
1.23073e-08
1.11322e-08
1.00975e-08
9.19509e-09
8.40837e-09
7.71741e-09
7.10188e-09
6.54203e-09
6.01906e-09
5.51627e-09
5.02067e-09
4.52562e-09
4.0358e-09
3.57454e-09
3.19193e-09
2.96396e-09
1.06852e-08
9.97705e-09
9.15827e-09
8.33936e-09
7.57314e-09
6.88087e-09
6.26693e-09
5.72701e-09
5.25225e-09
4.83168e-09
4.45414e-09
4.10859e-09
3.78426e-09
3.47164e-09
3.16329e-09
2.85586e-09
2.55346e-09
2.2729e-09
2.04632e-09
1.91588e-09
5.91397e-09
5.51996e-09
5.09202e-09
4.66969e-09
4.27367e-09
3.91306e-09
3.58977e-09
3.302e-09
3.0458e-09
2.81622e-09
2.60799e-09
2.4159e-09
2.23474e-09
2.06e-09
1.88808e-09
1.71765e-09
1.55153e-09
1.39962e-09
1.27927e-09
1.21152e-09
2.9156e-09
2.72964e-09
2.5427e-09
2.36057e-09
2.18855e-09
2.02942e-09
1.88394e-09
1.75164e-09
1.63126e-09
1.52109e-09
1.41929e-09
1.32397e-09
1.23337e-09
1.14602e-09
1.06105e-09
9.78565e-10
9.00443e-10
8.30976e-10
7.77282e-10
7.47992e-10
1.36083e-09
1.281e-09
1.20735e-09
1.13666e-09
1.06917e-09
1.0054e-09
9.45607e-10
8.89733e-10
8.37497e-10
7.88475e-10
7.42188e-10
6.9816e-10
6.56011e-10
6.15538e-10
5.76845e-10
5.40497e-10
5.07705e-10
4.80289e-10
4.60449e-10
4.50295e-10
6.01618e-10
5.70799e-10
5.45715e-10
5.22223e-10
4.99405e-10
4.77123e-10
4.5539e-10
4.3423e-10
4.13659e-10
3.93687e-10
3.74306e-10
3.55528e-10
3.37433e-10
3.20214e-10
3.04216e-10
2.89998e-10
2.7833e-10
2.70037e-10
2.65541e-10
2.64228e-10
2.52258e-10
2.41735e-10
2.35164e-10
2.29422e-10
2.23633e-10
2.17548e-10
2.11109e-10
2.04337e-10
1.97293e-10
1.90062e-10
1.82749e-10
1.75485e-10
1.68445e-10
1.61867e-10
1.56074e-10
1.51481e-10
1.48574e-10
1.47755e-10
1.4896e-10
1.50906e-10
1.00569e-10
9.74702e-11
9.68225e-11
9.66419e-11
9.63202e-11
9.56496e-11
9.45657e-11
9.3071e-11
9.12092e-11
8.90517e-11
8.66948e-11
8.42557e-11
8.18803e-11
7.97514e-11
7.80997e-11
7.72005e-11
7.7348e-11
7.8755e-11
8.12774e-11
8.38077e-11
3.83079e-11
3.75287e-11
3.82051e-11
3.91756e-11
4.00634e-11
4.0725e-11
4.11072e-11
4.1203e-11
4.10354e-11
4.06484e-11
4.01043e-11
3.94812e-11
3.88749e-11
3.84031e-11
3.82094e-11
3.84611e-11
3.93312e-11
4.09352e-11
4.3158e-11
4.52454e-11
1.4081e-11
1.38705e-11
1.45157e-11
1.5359e-11
1.61761e-11
1.68761e-11
1.74223e-11
1.78064e-11
1.80387e-11
1.81423e-11
1.81517e-11
1.81115e-11
1.80773e-11
1.81174e-11
1.83142e-11
1.87631e-11
1.95616e-11
2.07727e-11
2.23229e-11
2.37522e-11
5.10074e-12
4.96831e-12
5.35022e-12
5.8659e-12
6.38208e-12
6.84558e-12
7.23486e-12
7.54401e-12
7.77672e-12
7.94383e-12
8.06241e-12
8.1556e-12
8.25294e-12
8.39124e-12
8.61517e-12
8.97636e-12
9.52777e-12
1.03035e-11
1.12611e-11
1.21369e-11
1.89451e-12
1.75381e-12
1.93697e-12
2.20398e-12
2.47871e-12
2.7333e-12
2.95646e-12
3.14437e-12
3.29781e-12
3.42119e-12
3.52225e-12
3.61212e-12
3.70551e-12
3.82116e-12
3.98215e-12
4.21544e-12
4.54902e-12
5.00137e-12
5.55024e-12
6.05103e-12
7.40548e-13
6.23152e-13
6.99448e-13
8.21945e-13
9.52348e-13
1.07731e-12
1.19105e-12
1.29109e-12
1.37709e-12
1.45054e-12
1.51467e-12
1.57448e-12
1.63693e-12
1.71112e-12
1.80851e-12
1.9428e-12
2.12875e-12
2.37735e-12
2.68015e-12
2.96351e-12
0.001
0.001
0.001
0.001
0.001
0.001
0.001
0.001
0.001
0.001
0.001
0.001
0.001
0.001
0.001
0.001
0.001
0.001
0.001
0.001
0.001
0.001
0.001
0.001
0.001
0.001
0.001
0.001
0.001
0.001
0.001
0.001
0.001
0.001
0.001
0.001
0.001
0.001
0.001
0.001
0.001
0.001
0.001
0.001
0.001
0.001
0.001
0.001
0.001
0.001
0.001
0.001
0.001
0.001
0.001
0.001
0.001
0.001
0.001
0.001
0.001
0.001
0.001
0.001
0.001
0.001
0.001
0.001
0.001
0.001
0.001
0.001
0.001
0.001
0.001
0.001
0.001
0.001
0.001
0.001
0.001
0.001
0.001
0.001
0.001
0.001
0.001
0.001
0.001
0.001
0.001
0.001
0.001
0.001
0.001
0.001
0.001
0.001
0.001
0.001
0.001
0.001
0.001
0.001
0.001
0.001
0.001
0.001