/*--------------------------------*- C++ -*----------------------------------*\
| =========                 |                                                 |
| \\      /  F ield         | OpenFOAM: The Open Source CFD Toolbox           |
|  \\    /   O peration     | Version:  2.1.0                                 |
|   \\  /    A nd           | Web:      www.OpenFOAM.org                      |
|    \\/     M anipulation  |                                                 |
\*---------------------------------------------------------------------------*/
FoamFile
{
    version     2.0;
    format      ascii;
    class       volScalarField;
    location    "0.12";
    object      C1;
}
// * * * * * * * * * * * * * * * * * * * * * * * * * * * * * * * * * * * * * //

dimensions      [0 0 0 0 0 0 0];

internalField   nonuniform List<scalar> 
6400
(
3.65382e-29
5.88278e-29
9.46421e-29
1.51135e-28
2.39826e-28
3.78495e-28
5.94423e-28
9.29395e-28
1.44707e-27
2.24421e-27
3.46716e-27
5.33673e-27
8.18445e-27
1.25071e-26
1.90454e-26
2.89018e-26
4.371e-26
6.58848e-26
9.89822e-26
1.48225e-25
2.21257e-25
3.2923e-25
4.88365e-25
7.22173e-25
1.06462e-24
1.56463e-24
2.29238e-24
3.34823e-24
4.87518e-24
7.07618e-24
1.02382e-23
1.47657e-23
2.12257e-23
3.0411e-23
4.34244e-23
6.17936e-23
8.76255e-23
1.23814e-22
1.74312e-22
2.44497e-22
3.41645e-22
4.7555e-22
6.59326e-22
9.10436e-22
1.25201e-21
1.71452e-21
2.33783e-21
3.17386e-21
4.28973e-21
5.77166e-21
7.72971e-21
1.03033e-20
1.36678e-20
1.8042e-20
2.36972e-20
3.09666e-20
4.02558e-20
5.20551e-20
6.69505e-20
8.56362e-20
1.08926e-19
1.37761e-19
1.73222e-19
2.16527e-19
2.69035e-19
3.32234e-19
4.07721e-19
4.97167e-19
6.02274e-19
7.24711e-19
8.66025e-19
1.02751e-18
1.21009e-18
1.41413e-18
1.63919e-18
1.88387e-18
2.14545e-18
2.41964e-18
2.70026e-18
2.97893e-18
3.24477e-18
3.48422e-18
3.681e-18
3.81633e-18
3.87009e-18
3.82262e-18
3.65748e-18
3.36541e-18
2.94971e-18
2.43151e-18
1.85314e-18
1.27625e-18
7.73479e-19
4.06697e-19
1.93639e-19
1.00565e-19
4.80967e-20
1.88008e-20
5.50587e-21
1.09745e-21
1.90863e-28
3.08841e-28
4.97477e-28
7.94602e-28
1.26064e-27
1.9888e-27
3.12198e-27
4.87889e-27
7.59253e-27
1.17688e-26
1.81721e-26
2.79554e-26
4.28488e-26
6.54427e-26
9.95982e-26
1.51057e-25
2.28322e-25
3.43952e-25
5.16429e-25
7.72876e-25
1.15295e-24
1.71446e-24
2.54144e-24
3.75555e-24
5.53242e-24
8.1247e-24
1.18946e-23
1.73594e-23
2.52555e-23
3.66271e-23
5.29494e-23
7.62985e-23
1.09585e-22
1.56872e-22
2.23807e-22
3.18208e-22
4.50851e-22
6.36523e-22
8.95416e-22
1.25497e-21
1.75232e-21
2.4374e-21
3.37709e-21
4.66036e-21
6.4051e-21
8.76646e-21
1.19475e-20
1.62123e-20
2.19028e-20
2.94578e-20
3.94378e-20
5.25527e-20
6.96955e-20
9.19811e-20
1.20791e-19
1.57821e-19
2.05139e-19
2.65242e-19
3.41112e-19
4.36284e-19
5.54897e-19
7.01744e-19
8.82306e-19
1.10277e-18
1.37002e-18
1.69158e-18
2.0755e-18
2.5302e-18
3.06422e-18
3.68591e-18
4.40296e-18
5.22176e-18
6.14674e-18
7.17948e-18
8.31751e-18
9.55315e-18
1.08721e-17
1.2252e-17
1.36605e-17
1.50536e-17
1.63744e-17
1.75522e-17
1.85023e-17
1.9128e-17
1.93269e-17
1.90011e-17
1.80731e-17
1.65075e-17
1.43391e-17
1.16982e-17
8.82191e-18
6.03203e-18
3.66773e-18
1.96986e-18
9.7416e-19
5.24583e-19
2.56181e-19
1.06167e-19
3.62578e-20
1.04174e-20
9.22716e-28
1.50084e-27
2.4275e-27
3.89187e-27
6.19623e-27
9.8079e-27
1.54455e-26
2.42111e-26
3.77867e-26
5.87317e-26
9.09232e-26
1.40217e-25
2.15417e-25
3.29723e-25
5.02845e-25
7.6412e-25
1.15705e-24
1.74597e-24
2.62562e-24
3.93514e-24
5.87811e-24
8.75156e-24
1.29872e-23
1.92106e-23
2.83248e-23
4.16296e-23
6.09882e-23
8.90629e-23
1.29643e-22
1.88101e-22
2.72027e-22
3.92103e-22
5.63302e-22
8.06522e-22
1.15081e-21
1.63637e-21
2.31861e-21
3.27353e-21
4.60492e-21
6.45385e-21
9.0111e-21
1.25335e-20
1.73647e-20
2.39623e-20
3.29327e-20
4.50742e-20
6.14318e-20
8.33658e-20
1.12637e-19
1.51507e-19
2.02867e-19
2.70381e-19
3.58665e-19
4.73484e-19
6.21985e-19
8.1296e-19
1.05713e-18
1.36747e-18
1.75948e-18
2.25157e-18
2.86532e-18
3.62574e-18
4.5615e-18
5.705e-18
7.09233e-18
8.76298e-18
1.07593e-17
1.31259e-17
1.59078e-17
1.91496e-17
2.2893e-17
2.71731e-17
3.20155e-17
3.74317e-17
4.34125e-17
4.99224e-17
5.68917e-17
6.42084e-17
7.17083e-17
7.91658e-17
8.62848e-17
9.26936e-17
9.79456e-17
1.0153e-16
1.029e-16
1.01531e-16
9.70031e-17
8.9117e-17
7.80334e-17
6.44067e-17
4.9433e-17
3.47394e-17
2.20437e-17
1.26222e-17
6.82168e-18
3.93196e-18
2.04843e-18
9.40905e-19
3.80808e-19
1.46268e-19
3.87125e-27
6.32297e-27
1.02725e-26
1.65467e-26
2.64699e-26
4.20972e-26
6.6603e-26
1.04872e-25
1.64386e-25
2.56568e-25
3.98779e-25
6.17311e-25
9.5182e-25
1.4619e-24
2.23678e-24
3.40956e-24
5.17805e-24
7.8353e-24
1.18137e-23
1.77493e-23
2.65741e-23
3.96495e-23
5.89566e-23
8.73689e-23
1.29039e-22
1.89948e-22
2.78677e-22
4.07495e-22
5.93875e-22
8.62604e-22
1.24872e-21
1.80153e-21
2.5902e-21
3.71128e-21
5.29903e-21
7.53932e-21
1.06883e-20
1.50977e-20
2.12476e-20
2.97909e-20
4.16111e-20
5.78976e-20
8.02437e-20
1.10772e-19
1.52297e-19
2.08527e-19
2.84324e-19
3.86022e-19
5.21827e-19
7.023e-19
9.40949e-19
1.25494e-18
1.66595e-18
2.20108e-18
2.89404e-18
3.78642e-18
4.92908e-18
6.38371e-18
8.22444e-18
1.05395e-17
1.3433e-17
1.70261e-17
2.14585e-17
2.68891e-17
3.34964e-17
4.14774e-17
5.10457e-17
6.24285e-17
7.58609e-17
9.15799e-17
1.09816e-16
1.30777e-16
1.54635e-16
1.81504e-16
2.11409e-16
2.44263e-16
2.79821e-16
3.17642e-16
3.57038e-16
3.97012e-16
4.36208e-16
4.72863e-16
5.04786e-16
5.29378e-16
5.43734e-16
5.44884e-16
5.30188e-16
4.97888e-16
4.47823e-16
3.8219e-16
3.06042e-16
2.27136e-16
1.54651e-16
9.68166e-17
5.81371e-17
3.58463e-17
2.03106e-17
1.04275e-17
4.91769e-18
2.33408e-18
1.4175e-26
2.32266e-26
3.78955e-26
6.13417e-26
9.86421e-26
1.57714e-25
2.50845e-25
3.97027e-25
6.25485e-25
9.81005e-25
1.53193e-24
2.38215e-24
3.68889e-24
5.68924e-24
8.73927e-24
1.33717e-23
2.03805e-23
3.09447e-23
4.68085e-23
7.05429e-23
1.05923e-22
1.58474e-22
2.36249e-22
3.50948e-22
5.195e-22
7.66323e-22
1.12649e-21
1.65021e-21
2.40903e-21
3.50461e-21
5.08071e-21
7.33989e-21
1.05664e-20
1.51576e-20
2.16662e-20
3.08583e-20
4.37908e-20
6.19152e-20
8.72162e-20
1.22395e-19
1.7111e-19
2.38293e-19
3.3056e-19
4.56739e-19
6.28549e-19
8.61467e-19
1.17582e-18
1.59814e-18
2.16291e-18
2.91461e-18
3.9103e-18
5.22278e-18
6.94424e-18
9.19067e-18
1.21069e-17
1.58725e-17
2.07086e-17
2.68851e-17
3.47288e-17
4.46321e-17
5.70615e-17
7.25667e-17
9.17883e-17
1.15465e-16
1.44438e-16
1.79655e-16
2.2216e-16
2.73094e-16
3.33671e-16
4.05157e-16
4.88843e-16
5.85992e-16
6.97794e-16
8.25266e-16
9.69118e-16
1.12964e-15
1.30652e-15
1.49865e-15
1.70383e-15
1.91848e-15
2.13726e-15
2.35273e-15
2.555e-15
2.73157e-15
2.8674e-15
2.94566e-15
2.94925e-15
2.86309e-15
2.67784e-15
2.39436e-15
2.02797e-15
1.611e-15
1.19049e-15
8.19157e-16
5.41183e-16
3.60298e-16
2.23371e-16
1.27895e-16
6.88724e-17
3.80302e-17
4.4973e-26
7.38884e-26
1.21035e-25
1.96872e-25
3.18254e-25
5.11608e-25
8.1816e-25
1.30193e-24
2.06191e-24
3.25044e-24
5.10103e-24
7.96996e-24
1.23987e-23
1.92064e-23
2.9628e-23
4.55169e-23
6.9644e-23
1.06136e-22
1.61116e-22
2.43628e-22
3.66992e-22
5.50736e-22
8.23394e-22
1.22649e-21
1.82024e-21
2.69162e-21
3.96578e-21
5.82211e-21
8.51675e-21
1.2414e-20
1.80299e-20
2.60926e-20
3.76253e-20
5.406e-20
7.73923e-20
1.10392e-19
1.56887e-19
2.22143e-19
3.13373e-19
4.40413e-19
6.16616e-19
8.6002e-19
1.19488e-18
1.65365e-18
2.27956e-18
3.12985e-18
4.27996e-18
5.82884e-18
7.90544e-18
1.0677e-17
1.43592e-17
1.92283e-17
2.56368e-17
3.40311e-17
4.4973e-17
5.91651e-17
7.74799e-17
1.00994e-16
1.31024e-16
1.69171e-16
2.17366e-16
2.77915e-16
3.53552e-16
4.47489e-16
5.63459e-16
7.05759e-16
8.7927e-16
1.08946e-15
1.3424e-15
1.64467e-15
2.00329e-15
2.42561e-15
2.91912e-15
3.49122e-15
4.14861e-15
4.8969e-15
5.73999e-15
6.67907e-15
7.71146e-15
8.82908e-15
1.00165e-14
1.12485e-14
1.24877e-14
1.36816e-14
1.47606e-14
1.56375e-14
1.62128e-14
1.63804e-14
1.60438e-14
1.51383e-14
1.36585e-14
1.16884e-14
9.41816e-15
7.13038e-15
5.15724e-15
3.71862e-15
2.52804e-15
1.60797e-15
9.72355e-16
5.99665e-16
1.2175e-25
2.0055e-25
3.29788e-25
5.38939e-25
8.75677e-25
1.41513e-24
2.27508e-24
3.63936e-24
5.79344e-24
9.17871e-24
1.44745e-23
2.27215e-23
3.55074e-23
5.52437e-23
8.55774e-23
1.32001e-22
2.02753e-22
3.10138e-22
4.72463e-22
7.16856e-22
1.08335e-21
1.6308e-21
2.4454e-21
3.65286e-21
5.43587e-21
8.05881e-21
1.19029e-20
1.75157e-20
2.56804e-20
3.75131e-20
5.4598e-20
7.91749e-20
1.14397e-19
1.64689e-19
2.36227e-19
3.37608e-19
4.80738e-19
6.82047e-19
9.64101e-19
1.35777e-18
1.90511e-18
2.66314e-18
3.70884e-18
5.14566e-18
7.11203e-18
9.79223e-18
1.34305e-17
1.8349e-17
2.49706e-17
3.38472e-17
4.56963e-17
6.14451e-17
8.22855e-17
1.09742e-16
1.45754e-16
1.92773e-16
2.53882e-16
3.32932e-16
4.34708e-16
5.65111e-16
7.31375e-16
9.42308e-16
1.20855e-15
1.54286e-15
1.96044e-15
2.47923e-15
3.12018e-15
3.90758e-15
4.86928e-15
6.03683e-15
7.44545e-15
9.1338e-15
1.11436e-14
1.35193e-14
1.63061e-14
1.95492e-14
2.32913e-14
2.757e-14
3.2413e-14
3.78326e-14
4.3818e-14
5.03249e-14
5.72614e-14
6.44717e-14
7.1709e-14
7.86021e-14
8.46846e-14
8.93754e-14
9.20195e-14
9.1972e-14
8.87169e-14
8.20464e-14
7.22577e-14
6.02984e-14
4.78287e-14
3.736e-14
2.78878e-14
1.96587e-14
1.3203e-14
8.87181e-15
2.75437e-25
4.5501e-25
7.511e-25
1.23295e-24
2.01295e-24
3.26906e-24
5.28163e-24
8.49016e-24
1.35802e-23
2.16163e-23
3.42431e-23
5.39909e-23
8.47338e-23
1.32377e-22
2.05884e-22
3.188e-22
4.91506e-22
7.54541e-22
1.15348e-21
1.75604e-21
2.66247e-21
4.02053e-21
6.0472e-21
9.05983e-21
1.35208e-20
2.01009e-20
2.97703e-20
4.39255e-20
6.457e-20
9.45667e-20
1.37991e-19
2.00622e-19
2.90622e-19
4.19476e-19
6.03284e-19
8.64524e-19
1.23446e-18
1.75639e-18
2.4901e-18
3.5177e-18
4.95163e-18
6.9452e-18
9.70655e-18
1.35172e-17
1.87561e-17
2.59316e-17
3.57224e-17
4.90309e-17
6.70516e-17
9.13588e-17
1.24018e-16
1.67726e-16
2.25991e-16
3.03347e-16
4.05638e-16
5.40351e-16
7.17031e-16
9.47791e-16
1.24792e-15
1.63659e-15
2.13778e-15
2.78122e-15
3.60361e-15
4.64994e-15
5.97508e-15
7.64546e-15
9.7409e-15
1.23567e-14
1.56061e-14
1.96223e-14
2.45608e-14
3.06018e-14
3.79517e-14
4.68315e-14
5.74871e-14
7.01849e-14
8.5205e-14
1.02832e-13
1.23344e-13
1.46994e-13
1.73994e-13
2.04484e-13
2.38511e-13
2.75998e-13
3.16718e-13
3.59513e-13
4.0294e-13
4.4479e-13
4.81993e-13
5.10893e-13
5.27388e-13
5.2755e-13
5.08437e-13
4.69346e-13
4.13002e-13
3.49051e-13
2.86524e-13
2.24048e-13
1.66426e-13
1.20474e-13
5.09817e-25
8.44973e-25
1.40024e-24
2.30836e-24
3.78551e-24
6.17557e-24
1.00226e-23
1.61833e-23
2.59995e-23
4.15629e-23
6.61187e-23
1.04678e-22
1.64943e-22
2.58698e-22
4.03894e-22
6.27753e-22
9.71384e-22
1.4966e-21
2.29595e-21
3.50747e-21
5.33614e-21
8.0852e-21
1.22014e-20
1.83406e-20
2.74615e-20
4.09607e-20
6.08643e-20
9.01015e-20
1.32891e-19
1.95285e-19
2.85938e-19
4.17175e-19
6.06487e-19
8.78608e-19
1.26838e-18
1.82473e-18
2.61608e-18
3.73776e-18
5.32219e-18
7.55252e-18
1.06812e-17
1.50551e-17
2.11485e-17
2.96082e-17
4.13124e-17
5.74496e-17
7.9621e-17
1.09977e-16
1.51393e-16
2.077e-16
2.83981e-16
3.86953e-16
5.25458e-16
7.11085e-16
9.58963e-16
1.28876e-15
1.72592e-15
2.30328e-15
3.06292e-15
4.05864e-15
5.3589e-15
7.05036e-15
9.24231e-15
1.2072e-14
1.57107e-14
2.03702e-14
2.6311e-14
3.3853e-14
4.33854e-14
5.53791e-14
7.03992e-14
8.91185e-14
1.1233e-13
1.40983e-13
1.76165e-13
2.19129e-13
2.71294e-13
3.34248e-13
4.09727e-13
4.9959e-13
6.05762e-13
7.30151e-13
8.74523e-13
1.04033e-12
1.2285e-12
1.43981e-12
1.67402e-12
1.9288e-12
2.19512e-12
2.46171e-12
2.71185e-12
2.92473e-12
3.07535e-12
3.13639e-12
3.08145e-12
2.8968e-12
2.61638e-12
2.28286e-12
1.8838e-12
1.47182e-12
7.51323e-25
1.24978e-24
2.07911e-24
3.4414e-24
5.667e-24
9.28368e-24
1.51302e-23
2.4533e-23
3.95789e-23
6.35353e-23
1.01494e-22
1.61351e-22
2.55299e-22
4.02075e-22
6.30351e-22
9.83807e-22
1.52871e-21
2.36519e-21
3.64387e-21
5.5905e-21
8.54204e-21
1.29995e-20
1.9705e-20
2.97537e-20
4.47556e-20
6.70689e-20
1.00136e-19
1.48962e-19
2.208e-19
3.26127e-19
4.80014e-19
7.04078e-19
1.02921e-18
1.4994e-18
2.1771e-18
3.15063e-18
4.54452e-18
6.53369e-18
9.36311e-18
1.33746e-17
1.90434e-17
2.70284e-17
3.82396e-17
5.39293e-17
7.58159e-17
1.06248e-16
1.48425e-16
2.06689e-16
2.86916e-16
3.97024e-16
5.47647e-16
7.53015e-16
1.0321e-15
1.41011e-15
1.9204e-15
2.60693e-15
3.52747e-15
4.75757e-15
6.39569e-15
8.5696e-15
1.14445e-14
1.52329e-14
2.02073e-14
2.67151e-14
3.51979e-14
4.62158e-14
6.04744e-14
7.88583e-14
1.02472e-13
1.32688e-13
1.71203e-13
2.20102e-13
2.8194e-13
3.59826e-13
4.5751e-13
5.79498e-13
7.31156e-13
9.18826e-13
1.14993e-12
1.43307e-12
1.77806e-12
2.19597e-12
2.69901e-12
3.30034e-12
4.01371e-12
4.8529e-12
5.83083e-12
6.95941e-12
8.25242e-12
9.71712e-12
1.13264e-11
1.3046e-11
1.48171e-11
1.65507e-11
1.81161e-11
1.93323e-11
1.99504e-11
1.96979e-11
1.83717e-11
1.57927e-11
8.53198e-25
1.42439e-24
2.37851e-24
3.95238e-24
6.53476e-24
1.075e-23
1.75956e-23
2.86576e-23
4.64452e-23
7.491e-23
1.20246e-22
1.9212e-22
3.05547e-22
4.83754e-22
7.62516e-22
1.1967e-21
1.87013e-21
2.91032e-21
4.51052e-21
6.96247e-21
1.07049e-20
1.63952e-20
2.50145e-20
3.80224e-20
5.7582e-20
8.68882e-20
1.30643e-19
1.95742e-19
2.92266e-19
4.34902e-19
6.44971e-19
9.53331e-19
1.40449e-18
2.06243e-18
3.01883e-18
4.40467e-18
6.40635e-18
9.28845e-18
1.34251e-17
1.9344e-17
2.77865e-17
3.9791e-17
5.68076e-17
8.08541e-17
1.14729e-16
1.62303e-16
2.28907e-16
3.21865e-16
4.51202e-16
6.30593e-16
8.78634e-16
1.22052e-15
1.69028e-15
2.33371e-15
3.21222e-15
4.40789e-15
6.03004e-15
8.22376e-15
1.11809e-14
1.51542e-14
2.04756e-14
2.75793e-14
3.70311e-14
4.95659e-14
6.61344e-14
8.79625e-14
1.16624e-13
1.54131e-13
2.0305e-13
2.66635e-13
3.49002e-13
4.55331e-13
5.92118e-13
7.67478e-13
9.9149e-13
1.27662e-12
1.63822e-12
2.09507e-12
2.67007e-12
3.39088e-12
4.2908e-12
5.4095e-12
6.7939e-12
8.49898e-12
1.05884e-11
1.3135e-11
1.62209e-11
1.99374e-11
2.43845e-11
2.96712e-11
3.5943e-11
4.33035e-11
5.17907e-11
6.14157e-11
7.20961e-11
8.35591e-11
9.51381e-11
1.05344e-10
1.1102e-10
1.06341e-10
7.3975e-25
1.23861e-24
2.07474e-24
3.45894e-24
5.73901e-24
9.47644e-24
1.55735e-23
2.54733e-23
4.14735e-23
6.7217e-23
1.08453e-22
1.7422e-22
2.78663e-22
4.43834e-22
7.03977e-22
1.11205e-21
1.74965e-21
2.74203e-21
4.28072e-21
6.65755e-21
1.03156e-20
1.59251e-20
2.44966e-20
3.7548e-20
5.73525e-20
8.73016e-20
1.3244e-19
2.00245e-19
3.01764e-19
4.5327e-19
6.78648e-19
1.01285e-18
1.50686e-18
2.2348e-18
3.30412e-18
4.87005e-18
7.15618e-18
1.04835e-17
1.53116e-17
2.2296e-17
3.23692e-17
4.68534e-17
6.76174e-17
9.72943e-17
1.39582e-16
1.9966e-16
2.84754e-16
4.04919e-16
5.74099e-16
8.11569e-16
1.14389e-15
1.60754e-15
2.25247e-15
3.14682e-15
4.38329e-15
6.08754e-15
8.42937e-15
1.16374e-14
1.60187e-14
2.19836e-14
3.00797e-14
4.10341e-14
5.581e-14
7.56783e-14
1.0231e-13
1.37897e-13
1.85299e-13
2.4824e-13
3.31548e-13
4.41465e-13
5.86024e-13
7.75534e-13
1.02318e-12
1.34573e-12
1.76451e-12
2.30639e-12
3.00526e-12
3.90352e-12
5.05412e-12
6.52276e-12
8.39057e-12
1.07572e-11
1.37444e-11
1.74995e-11
2.22001e-11
2.80583e-11
3.53249e-11
4.42945e-11
5.5309e-11
6.87622e-11
8.51054e-11
1.04897e-10
1.28707e-10
1.56917e-10
1.89835e-10
2.27348e-10
2.68273e-10
3.08916e-10
3.39929e-10
3.41456e-10
4.99929e-25
8.38858e-25
1.40797e-24
2.35195e-24
3.91038e-24
6.47161e-24
1.06622e-23
1.74889e-23
2.85629e-23
4.64515e-23
7.5231e-23
1.21347e-22
1.94953e-22
3.11989e-22
4.97379e-22
7.89965e-22
1.25006e-21
1.97102e-21
3.09681e-21
4.84874e-21
7.56591e-21
1.17662e-20
1.82381e-20
2.8178e-20
4.33964e-20
6.66233e-20
1.01964e-19
1.55574e-19
2.36649e-19
3.58897e-19
5.4268e-19
8.18159e-19
1.22988e-18
1.84343e-18
2.75509e-18
4.10583e-18
6.10134e-18
9.04095e-18
1.33589e-17
1.96834e-17
2.89202e-17
4.2372e-17
6.1906e-17
9.01909e-17
1.3103e-16
1.89824e-16
2.74226e-16
3.95038e-16
5.67467e-16
8.12852e-16
1.16104e-15
1.65367e-15
2.3486e-15
3.32604e-15
4.69677e-15
6.61338e-15
9.28532e-15
1.29992e-14
1.81461e-14
2.52574e-14
3.50538e-14
4.85084e-14
6.69318e-14
9.20828e-14
1.26314e-13
1.72762e-13
2.35596e-13
3.20336e-13
4.34268e-13
5.86978e-13
7.91032e-13
1.06285e-12
1.4238e-12
1.90163e-12
2.53218e-12
3.3616e-12
4.44913e-12
5.87043e-12
7.72179e-12
1.01252e-11
1.32344e-11
1.72424e-11
2.239e-11
2.89759e-11
3.73684e-11
4.80184e-11
6.14736e-11
7.83948e-11
9.95713e-11
1.25938e-10
1.58592e-10
1.98815e-10
2.48216e-10
3.08281e-10
3.80356e-10
4.6526e-10
5.61974e-10
6.6472e-10
7.56079e-10
7.93562e-10
2.68923e-25
4.51857e-25
7.59038e-25
1.26856e-24
2.11001e-24
3.49379e-24
5.76009e-24
9.45692e-24
1.54636e-23
2.51862e-23
4.08648e-23
6.60556e-23
1.06385e-22
1.70728e-22
2.73029e-22
4.3514e-22
6.91191e-22
1.09432e-21
1.72703e-21
2.71701e-21
4.26132e-21
6.66321e-21
1.03881e-20
1.6148e-20
2.50299e-20
3.86877e-20
5.9632e-20
9.16632e-20
1.40519e-19
2.14839e-19
3.27597e-19
4.98226e-19
7.55756e-19
1.14344e-18
1.72555e-18
2.59736e-18
3.89966e-18
5.84006e-18
8.72379e-18
1.29985e-17
1.93187e-17
2.86393e-17
4.23492e-17
6.2463e-17
9.18954e-17
1.34852e-16
1.97381e-16
2.88164e-16
4.19617e-16
6.09454e-16
8.82878e-16
1.27563e-15
1.83828e-15
2.64211e-15
3.78738e-15
5.41466e-15
7.72044e-15
1.09786e-14
1.55695e-14
2.20205e-14
3.10593e-14
4.36884e-14
6.12834e-14
8.57267e-14
1.19586e-13
1.66352e-13
2.30756e-13
3.19192e-13
4.40266e-13
6.05533e-13
8.3045e-13
1.13562e-12
1.54845e-12
2.10519e-12
2.85374e-12
3.85707e-12
5.19768e-12
6.98329e-12
9.35392e-12
1.24909e-11
1.66279e-11
2.20648e-11
2.91842e-11
3.84721e-11
5.05415e-11
6.61608e-11
8.62866e-11
1.121e-10
1.45049e-10
1.86889e-10
2.39726e-10
3.06063e-10
3.88845e-10
4.9176e-10
6.18294e-10
7.71671e-10
9.52953e-10
1.15663e-09
1.35941e-09
1.4938e-09
1.17639e-25
1.97773e-25
3.3211e-25
5.54538e-25
9.21323e-25
1.5238e-24
2.50965e-24
4.11692e-24
6.72785e-24
1.09544e-23
1.77729e-23
2.87364e-23
4.63075e-23
7.43796e-23
1.1909e-22
1.90085e-22
3.02486e-22
4.79932e-22
7.59276e-22
1.19783e-21
1.88448e-21
2.95676e-21
4.62691e-21
7.22176e-21
1.12432e-20
1.74604e-20
2.70491e-20
4.18025e-20
6.44493e-20
9.91322e-20
1.52126e-19
2.32914e-19
3.55796e-19
5.42281e-19
8.24661e-19
1.25129e-18
1.89443e-18
2.86179e-18
4.31361e-18
6.48766e-18
9.73598e-18
1.45786e-17
2.1782e-17
3.24729e-17
4.83044e-17
7.16955e-17
1.06178e-16
1.56894e-16
2.31319e-16
3.40283e-16
4.99449e-16
7.31407e-16
1.06866e-15
1.55786e-15
2.2658e-15
3.28786e-15
4.75987e-15
6.8748e-15
9.90601e-15
1.42398e-14
2.04204e-14
2.92128e-14
4.16891e-14
5.93473e-14
8.42756e-14
1.19376e-13
1.68669e-13
2.37714e-13
3.34166e-13
4.68547e-13
6.55267e-13
9.14008e-13
1.27157e-12
1.76436e-12
2.44161e-12
3.36978e-12
4.63825e-12
6.36679e-12
8.7154e-12
1.1897e-11
1.61938e-11
2.19785e-11
2.97407e-11
4.01209e-11
5.39521e-11
7.23116e-11
9.65829e-11
1.28529e-10
1.70381e-10
2.24932e-10
2.95644e-10
3.8675e-10
5.03368e-10
6.51841e-10
8.39811e-10
1.07524e-09
1.36474e-09
1.70811e-09
2.08325e-09
2.40552e-09
4.28839e-26
7.20744e-26
1.20869e-25
2.01417e-25
3.33876e-25
5.50921e-25
9.05321e-25
1.48204e-24
2.41746e-24
3.92981e-24
6.36735e-24
1.02842e-23
1.65595e-23
2.65848e-23
4.2556e-23
6.79304e-23
1.08138e-22
1.71684e-22
2.71864e-22
4.2941e-22
6.76579e-22
1.06345e-21
1.66759e-21
2.60893e-21
4.07243e-21
6.34285e-21
9.85766e-21
1.52876e-20
2.36588e-20
3.65383e-20
5.63144e-20
8.66195e-20
1.32967e-19
2.03712e-19
3.11484e-19
4.75348e-19
7.24016e-19
1.10065e-18
1.67001e-18
2.52908e-18
3.82278e-18
5.76731e-18
8.68456e-18
1.30528e-17
1.95814e-17
2.93203e-17
4.38206e-17
6.53692e-17
9.73313e-17
1.4465e-16
2.14569e-16
3.17688e-16
4.69479e-16
6.92486e-16
1.01949e-15
1.49805e-15
2.19703e-15
3.21592e-15
4.69818e-15
6.85017e-15
9.96817e-15
1.44765e-14
2.09818e-14
3.03488e-14
4.38082e-14
6.31072e-14
9.07204e-14
1.30146e-13
1.86315e-13
2.6617e-13
3.79451e-13
5.39809e-13
7.66321e-13
1.08559e-12
1.53463e-12
2.16484e-12
3.04739e-12
4.28067e-12
6.00038e-12
8.39326e-12
1.17156e-11
1.63186e-11
2.26817e-11
3.1458e-11
4.3534e-11
6.01082e-11
8.27943e-11
1.13752e-10
1.55857e-10
2.12906e-10
2.89867e-10
3.93165e-10
5.30971e-10
7.13508e-10
9.54372e-10
1.27014e-09
1.67851e-09
2.19273e-09
2.80283e-09
3.42169e-09
1.32789e-26
2.2288e-26
3.7295e-26
6.19775e-26
1.02432e-25
1.68517e-25
2.76124e-25
4.50803e-25
7.33505e-25
1.18971e-24
1.92381e-24
3.10187e-24
4.98732e-24
7.99714e-24
1.27896e-23
2.0402e-23
3.24645e-23
5.15345e-23
8.16145e-23
1.28958e-22
2.03313e-22
3.19848e-22
5.02119e-22
7.86647e-22
1.22993e-21
1.91925e-21
2.98914e-21
4.64669e-21
7.21e-21
1.11669e-20
1.72641e-20
2.66428e-20
4.10436e-20
6.31175e-20
9.68946e-20
1.48491e-19
2.27171e-19
3.46948e-19
5.28979e-19
8.05151e-19
1.22345e-18
1.85596e-18
2.81077e-18
4.24975e-18
6.4148e-18
9.66689e-18
1.45438e-17
2.18452e-17
3.27586e-17
4.90439e-17
7.3306e-17
1.09392e-16
1.62977e-16
2.42416e-16
3.59993e-16
5.33726e-16
7.90019e-16
1.16748e-15
1.72249e-15
2.53723e-15
3.7313e-15
5.47849e-15
8.0309e-15
1.17536e-14
1.71747e-14
2.50564e-14
3.64976e-14
5.30804e-14
7.70785e-14
1.11755e-13
1.61788e-13
2.33872e-13
3.37573e-13
4.86542e-13
7.00245e-13
1.0064e-12
1.44446e-12
2.07052e-12
2.96433e-12
4.23919e-12
6.05619e-12
8.64433e-12
1.23295e-11
1.75759e-11
2.50456e-11
3.56844e-11
5.08449e-11
7.2465e-11
1.03327e-10
1.47428e-10
2.1051e-10
3.00783e-10
4.29877e-10
6.13915e-10
8.74262e-10
1.24197e-09
1.75554e-09
2.45581e-09
3.36118e-09
4.3922e-09
3.52638e-27
5.90391e-27
9.85154e-27
1.63222e-26
2.6894e-26
4.41142e-26
7.20806e-26
1.17372e-25
1.9052e-25
3.08348e-25
4.97659e-25
8.01072e-25
1.28617e-24
2.05993e-24
3.2913e-24
5.24657e-24
8.34457e-24
1.3243e-23
2.09723e-23
3.31448e-23
5.22778e-23
8.22959e-23
1.29306e-22
2.02799e-22
3.17494e-22
4.96185e-22
7.74116e-22
1.20569e-21
1.87474e-21
2.91028e-21
4.51048e-21
6.9793e-21
1.07822e-20
1.6631e-20
2.56122e-20
3.93819e-20
6.04604e-20
9.26771e-20
1.41841e-19
2.16754e-19
3.30725e-19
5.03853e-19
7.66446e-19
1.16413e-18
1.7655e-18
2.67347e-18
4.0423e-18
6.10279e-18
9.19972e-18
1.38473e-17
2.08117e-17
3.12316e-17
4.67987e-17
7.00213e-17
1.04613e-16
1.56063e-16
2.32474e-16
3.45792e-16
5.13599e-16
7.61747e-16
1.12818e-15
1.66853e-15
2.46426e-15
3.63447e-15
5.35313e-15
7.87399e-15
1.15668e-14
1.69697e-14
2.48651e-14
3.63893e-14
5.31907e-14
7.76592e-14
1.13254e-13
1.64981e-13
2.40078e-13
3.49011e-13
5.06905e-13
7.35633e-13
1.06683e-12
1.54632e-12
2.24053e-12
3.24608e-12
4.70383e-12
6.82014e-12
9.89894e-12
1.43912e-11
2.09722e-11
3.06661e-11
4.50575e-11
6.66552e-11
9.95439e-11
1.50574e-10
2.31457e-10
3.62147e-10
5.75502e-10
9.19589e-10
1.47298e-09
2.33584e-09
3.59222e-09
5.17028e-09
7.98485e-28
1.33195e-27
2.21662e-27
3.6639e-27
6.02405e-27
9.86199e-27
1.60855e-26
2.61514e-26
4.23905e-26
6.85264e-26
1.1049e-25
1.77714e-25
2.85162e-25
4.56534e-25
7.29274e-25
1.16247e-24
1.84914e-24
2.93555e-24
4.65118e-24
7.35567e-24
1.16115e-23
1.82974e-23
2.87838e-23
4.52046e-23
7.08781e-23
1.10956e-22
1.73423e-22
2.70642e-22
4.21718e-22
6.56139e-22
1.01935e-21
1.58128e-21
2.44938e-21
3.78853e-21
5.85135e-21
9.02431e-21
1.38977e-20
2.1372e-20
3.28187e-20
5.03236e-20
7.70548e-20
1.17816e-19
1.7988e-19
2.74244e-19
4.17507e-19
6.34689e-19
9.63448e-19
1.46038e-18
2.21038e-18
3.34069e-18
5.04164e-18
7.59762e-18
1.14329e-17
1.71796e-17
2.57781e-17
3.86249e-17
5.7792e-17
8.63492e-17
1.28838e-16
1.91969e-16
2.85647e-16
4.24465e-16
6.29912e-16
9.33579e-16
1.38186e-15
2.04283e-15
3.01622e-15
4.44804e-15
6.55179e-15
9.63935e-15
1.41659e-14
2.07951e-14
3.04933e-14
4.46667e-14
6.53608e-14
9.55495e-14
1.39556e-13
2.03664e-13
2.97013e-13
4.32904e-13
6.30721e-13
9.18765e-13
1.33846e-12
1.95063e-12
2.84498e-12
4.15436e-12
6.07613e-12
8.9055e-12
1.30909e-11
1.93333e-11
2.87968e-11
4.36411e-11
6.84357e-11
1.13731e-10
2.06837e-10
4.04901e-10
8.31575e-10
1.71641e-09
3.33399e-09
5.65408e-09
1.63791e-28
2.72298e-28
4.53261e-28
7.50045e-28
1.23504e-27
2.02522e-27
3.30895e-27
5.38918e-27
8.75164e-27
1.4174e-26
2.28976e-26
3.69013e-26
5.9331e-26
9.51813e-26
1.52362e-25
2.43386e-25
3.88002e-25
6.17342e-25
9.80392e-25
1.55413e-24
2.45931e-24
3.88513e-24
6.12754e-24
9.64888e-24
1.51703e-23
2.38152e-23
3.73309e-23
5.84313e-23
9.13264e-23
1.42536e-22
2.22145e-22
3.45729e-22
5.37307e-22
8.33875e-22
1.29232e-21
2e-21
3.09086e-21
4.76997e-21
7.35082e-21
1.13121e-20
1.73832e-20
2.66746e-20
4.08735e-20
6.25403e-20
9.55529e-20
1.45777e-19
2.22074e-19
3.37803e-19
5.1308e-19
7.78146e-19
1.17841e-18
1.78193e-18
2.69057e-18
4.05654e-18
6.10698e-18
9.18024e-18
1.37798e-17
2.06537e-17
3.09115e-17
4.61973e-17
6.89435e-17
1.02743e-16
1.52899e-16
2.27223e-16
3.37215e-16
4.99773e-16
7.39702e-16
1.09337e-15
1.61401e-15
2.3795e-15
3.50354e-15
5.15202e-15
7.56653e-15
1.10987e-14
1.62595e-14
2.37919e-14
3.47741e-14
5.07717e-14
7.40572e-14
1.0793e-13
1.57185e-13
2.28798e-13
3.32934e-13
4.84434e-13
7.0502e-13
1.02655e-12
1.49563e-12
2.18013e-12
3.1788e-12
4.63648e-12
6.77656e-12
1.00182e-11
1.53969e-11
2.54102e-11
4.70162e-11
9.88323e-11
2.52144e-10
8.19343e-10
2.57483e-09
5.78497e-09
1.60335e-22
2.20019e-22
3.27816e-22
4.54268e-22
5.89666e-22
7.23905e-22
8.46113e-22
9.4602e-22
1.01547e-21
1.04956e-21
1.04728e-21
1.01158e-21
9.48927e-22
8.68516e-22
7.81412e-22
7.00241e-22
6.40597e-22
6.2652e-22
7.03895e-22
9.39315e-22
3.55035e-21
4.46451e-21
5.93699e-21
7.62328e-21
9.36746e-21
1.1023e-20
1.24512e-20
1.3534e-20
1.41869e-20
1.43686e-20
1.40853e-20
1.3388e-20
1.23649e-20
1.11316e-20
9.81905e-21
8.56701e-21
7.53169e-21
6.9251e-21
7.11807e-21
8.65054e-21
7.50176e-20
8.77425e-20
1.06051e-19
1.2618e-19
1.46246e-19
1.64411e-19
1.79045e-19
1.88883e-19
1.93129e-19
1.9152e-19
1.84334e-19
1.72323e-19
1.56607e-19
1.3857e-19
1.19712e-19
1.01555e-19
8.5661e-20
7.38696e-20
6.90581e-20
7.54779e-20
1.4692e-18
1.613e-18
1.81271e-18
2.01974e-18
2.2148e-18
2.37892e-18
2.49557e-18
2.55271e-18
2.54383e-18
2.4683e-18
2.33124e-18
2.1423e-18
1.91456e-18
1.66358e-18
1.40584e-18
1.15765e-18
9.3474e-19
7.53364e-19
6.35546e-19
6.14441e-19
2.65018e-17
2.75262e-17
2.9129e-17
3.06969e-17
3.20344e-17
3.29678e-17
3.33532e-17
3.30927e-17
3.21427e-17
3.05154e-17
2.82794e-17
2.5541e-17
2.24384e-17
1.91339e-17
1.58002e-17
1.2608e-17
9.71988e-18
7.29238e-18
5.50784e-18
4.63975e-18
4.37995e-16
4.33236e-16
4.35373e-16
4.37087e-16
4.36445e-16
4.3193e-16
4.22373e-16
4.07047e-16
3.85688e-16
3.58475e-16
3.26098e-16
2.89528e-16
2.50044e-16
2.09192e-16
1.68661e-16
1.30195e-16
9.55424e-17
6.64004e-17
4.45306e-17
3.23383e-17
6.59572e-15
6.24717e-15
5.99785e-15
5.76635e-15
5.53275e-15
5.28273e-15
5.00518e-15
4.69324e-15
4.34381e-15
3.95694e-15
3.53644e-15
3.08869e-15
2.62354e-15
2.15372e-15
1.6943e-15
1.2629e-15
8.79003e-16
5.62476e-16
3.32263e-16
2.07034e-16
8.99802e-14
8.19725e-14
7.55e-14
6.97485e-14
6.44886e-14
5.95457e-14
5.47708e-14
5.00513e-14
4.53133e-14
4.05116e-14
3.56158e-14
3.06326e-14
2.56118e-14
2.06371e-14
1.58335e-14
1.13744e-14
7.47636e-15
4.37385e-15
2.26272e-15
1.21152e-15
1.10506e-12
9.71749e-13
8.60606e-13
7.65207e-13
6.82633e-13
6.10216e-13
5.45556e-13
4.86506e-13
4.31365e-13
3.78873e-13
3.27994e-13
2.78138e-13
2.29156e-13
1.8136e-13
1.3568e-13
9.37549e-14
5.79181e-14
3.07707e-14
1.39273e-14
6.44813e-15
1.21253e-11
1.03257e-11
8.79876e-12
7.52893e-12
6.47789e-12
5.60347e-12
4.86727e-12
4.23492e-12
3.67828e-12
3.17598e-12
2.71022e-12
2.26907e-12
1.84463e-12
1.43555e-12
1.04732e-12
6.95046e-13
4.02034e-13
1.93434e-13
7.69261e-14
3.10395e-14
8.58277e-11
7.15131e-11
5.90189e-11
4.8791e-11
4.059e-11
3.40621e-11
2.88347e-11
2.45831e-11
2.10403e-11
1.80029e-11
1.53073e-11
1.28349e-11
1.04931e-11
8.23576e-12
6.05877e-12
4.03264e-12
2.29875e-12
1.05331e-12
3.79719e-13
1.33998e-13
2.8723e-10
2.38845e-10
1.95536e-10
1.59963e-10
1.31728e-10
1.09637e-10
9.23303e-11
7.85812e-11
6.73831e-11
5.79474e-11
4.96751e-11
4.21134e-11
3.4926e-11
2.7906e-11
2.10147e-11
1.44295e-11
8.58234e-12
4.10989e-12
1.49788e-12
5.07757e-13
7.03292e-10
5.88875e-10
4.82125e-10
3.92975e-10
3.22062e-10
2.67025e-10
2.24569e-10
1.91494e-10
1.65077e-10
1.43161e-10
1.24119e-10
1.0672e-10
9.00436e-11
7.348e-11
5.68324e-11
4.04342e-11
2.5279e-11
1.29417e-11
4.99766e-12
1.69567e-12
1.40931e-09
1.19783e-09
9.87207e-10
8.05613e-10
6.59401e-10
5.4613e-10
4.59667e-10
3.93336e-10
3.41282e-10
2.98841e-10
2.62376e-10
2.291e-10
1.96886e-10
1.64271e-10
1.30578e-10
9.6242e-11
6.31265e-11
3.45574e-11
1.44444e-11
5.06665e-12
2.4355e-09
2.11951e-09
1.77089e-09
1.45406e-09
1.19266e-09
9.88881e-10
8.34195e-10
7.17095e-10
6.26825e-10
5.54561e-10
4.93298e-10
4.37575e-10
3.83127e-10
3.26816e-10
2.66833e-10
2.03379e-10
1.39425e-10
8.11273e-11
3.6831e-11
1.36646e-11
3.73708e-09
3.36087e-09
2.86857e-09
2.38301e-09
1.96635e-09
1.63644e-09
1.38583e-09
1.1979e-09
1.05541e-09
9.4358e-10
8.50426e-10
7.66307e-10
6.83425e-10
5.95631e-10
4.98888e-10
3.92347e-10
2.79966e-10
1.71985e-10
8.42644e-11
3.35314e-11
5.18754e-09
4.86737e-09
4.27757e-09
3.61649e-09
3.01557e-09
2.52707e-09
2.15279e-09
1.87323e-09
1.66418e-09
1.50347e-09
1.37247e-09
1.25564e-09
1.13982e-09
1.01398e-09
8.69925e-10
7.04195e-10
5.2099e-10
3.35694e-10
1.75831e-10
7.5459e-11
6.60762e-09
6.52841e-09
5.95328e-09
5.15386e-09
4.36463e-09
3.69682e-09
3.1755e-09
2.7848e-09
2.49547e-09
2.27762e-09
2.10465e-09
1.9533e-09
1.80289e-09
1.63497e-09
1.43437e-09
1.19225e-09
9.11227e-10
6.12272e-10
3.39739e-10
1.56887e-10
7.82729e-09
8.20704e-09
7.82081e-09
6.97761e-09
6.0336e-09
5.18488e-09
4.50094e-09
3.98215e-09
3.59982e-09
3.31781e-09
3.10089e-09
2.91642e-09
2.73365e-09
2.52344e-09
2.25977e-09
1.92417e-09
1.51418e-09
1.05567e-09
6.15707e-10
3.03583e-10
8.76357e-09
9.79132e-09
9.81965e-09
9.0838e-09
8.05564e-09
7.04337e-09
6.1889e-09
5.52737e-09
5.03996e-09
4.68767e-09
4.42698e-09
4.21433e-09
4.00615e-09
3.75853e-09
3.42939e-09
2.98468e-09
2.41101e-09
1.7365e-09
1.057e-09
5.51281e-10
1.83572e-192
1.40157e-192
9.61644e-193
6.6115e-193
5.02006e-193
4.39973e-193
4.30722e-193
4.42455e-193
4.55404e-193
4.58631e-193
4.47525e-193
4.22432e-193
3.87943e-193
3.52837e-193
3.30753e-193
3.41279e-193
4.09612e-193
5.59078e-193
7.85733e-193
1.00655e-192
1.24592e-190
9.39545e-191
6.38913e-191
4.37115e-191
3.31826e-191
2.91713e-191
2.86609e-191
2.95217e-191
3.04391e-191
3.06879e-191
2.9963e-191
2.82893e-191
2.59758e-191
2.36128e-191
2.21203e-191
2.28313e-191
2.74905e-191
3.77849e-191
5.36442e-191
6.9618e-191
8.26068e-189
6.14898e-189
4.14261e-189
2.82041e-189
2.14123e-189
1.88876e-189
1.86274e-189
1.92402e-189
1.98734e-189