/*--------------------------------*- C++ -*----------------------------------*\
| =========                 |                                                 |
| \\      /  F ield         | OpenFOAM: The Open Source CFD Toolbox           |
|  \\    /   O peration     | Version:  2.1.0                                 |
|   \\  /    A nd           | Web:      www.OpenFOAM.org                      |
|    \\/     M anipulation  |                                                 |
\*---------------------------------------------------------------------------*/
FoamFile
{
    version     2.0;
    format      ascii;
    class       volScalarField;
    location    "0.12";
    object      k;
}
// * * * * * * * * * * * * * * * * * * * * * * * * * * * * * * * * * * * * * //

dimensions      [0 2 -2 0 0 0 0];

internalField   nonuniform List<scalar> 
6400
(
0.0214332
0.0213477
0.0213189
0.0213013
0.0213014
0.0213216
0.0213444
0.0213973
0.0214472
0.0215292
0.0216097
0.0217182
0.0218285
0.0219645
0.022104
0.0222677
0.0224356
0.0226244
0.0228161
0.0230244
0.0232329
0.023453
0.0236694
0.0238919
0.0241069
0.0243226
0.0245283
0.0247299
0.02492
0.0251024
0.0252723
0.0254322
0.0255795
0.0257153
0.025838
0.0259478
0.0260444
0.0261281
0.026199
0.0262573
0.0263041
0.0263399
0.0263536
0.0263547
0.0263474
0.0263283
0.0262972
0.0262538
0.0261981
0.02613
0.0260495
0.0259561
0.0258492
0.0257294
0.0255979
0.0254544
0.0252974
0.0251268
0.0249451
0.0247514
0.0245433
0.0243204
0.024086
0.023839
0.0235779
0.0233046
0.0230145
0.022702
0.0223784
0.0220348
0.0216689
0.0212873
0.0208851
0.0204624
0.020022
0.0195644
0.0190912
0.0186058
0.0181111
0.0176089
0.0170978
0.0165667
0.0159953
0.0154196
0.0148211
0.0141925
0.0135255
0.0127948
0.0119781
0.0110349
0.00991437
0.00854093
0.00684029
0.00479044
0.00259045
0.00167533
0.00211455
0.00424482
0.00621628
0.00683733
0.0219931
0.0234901
0.0241213
0.0254196
0.0261431
0.0274339
0.0282049
0.0294593
0.0303004
0.0314842
0.0323888
0.0335154
0.0344594
0.0355578
0.0365263
0.0376047
0.0385857
0.0396325
0.0406038
0.0416073
0.0425478
0.043497
0.0443883
0.045273
0.0461036
0.0469179
0.0476835
0.0484274
0.0491287
0.049806
0.0504463
0.0510622
0.0516462
0.0522061
0.0527383
0.053247
0.0537317
0.0541956
0.0546396
0.0550656
0.0554739
0.0558648
0.0562377
0.0565931
0.056933
0.0572605
0.0575766
0.05788
0.05817
0.0584491
0.0587182
0.0589751
0.0592175
0.0594483
0.0596709
0.0598795
0.0600661
0.0602332
0.0603854
0.0605244
0.060642
0.0607343
0.0608138
0.0608686
0.0608951
0.0609048
0.0608909
0.0608184
0.0607245
0.0605744
0.0603735
0.0601192
0.0597913
0.0593933
0.0589176
0.0583542
0.0577014
0.056957
0.056118
0.0551854
0.0541615
0.0530438
0.0518107
0.0504047
0.0488434
0.0470695
0.0450754
0.0427971
0.0402025
0.0372294
0.0338682
0.030135
0.0261304
0.0220404
0.0178631
0.0138709
0.0108123
0.00865577
0.00722112
0.00598564
0.0203618
0.0224699
0.0233507
0.0251035
0.0260838
0.0278065
0.0288751
0.0305507
0.0316824
0.0333003
0.0344734
0.0360319
0.0372392
0.0387415
0.0399767
0.0414161
0.0426635
0.0440273
0.0452604
0.0465432
0.0477362
0.0489351
0.0500649
0.0511761
0.0522248
0.0532419
0.0542048
0.0551345
0.0560154
0.0568639
0.0576679
0.058441
0.0591746
0.0598785
0.0605467
0.0611858
0.0617922
0.0623715
0.0629237
0.0634516
0.0639539
0.0644316
0.0648835
0.0653069
0.0657026
0.0660746
0.0664199
0.0667378
0.0670299
0.0673012
0.067552
0.0677809
0.0679791
0.0681483
0.0683034
0.06843
0.0685219
0.0685953
0.0686299
0.0686417
0.0686293
0.0685528
0.0684529
0.0683084
0.0681115
0.0678791
0.067588
0.06724
0.0668416
0.0663739
0.0658345
0.0652199
0.0645149
0.0637182
0.062815
0.0617984
0.0606624
0.059398
0.0579993
0.0564637
0.0547873
0.0529695
0.0510152
0.0489493
0.046763
0.0444702
0.0420633
0.0395456
0.0368924
0.0340833
0.0310845
0.0278759
0.0244211
0.0207448
0.0169202
0.013199
0.0100794
0.00757961
0.00568592
0.00386511
0.0214398
0.0236881
0.0246271
0.0264887
0.0275506
0.0293832
0.030542
0.0323344
0.0335657
0.0353114
0.0365914
0.0382855
0.0395989
0.041237
0.0425698
0.0441381
0.0454732
0.0469515
0.0482671
0.0496458
0.0509192
0.0521962
0.0534033
0.0545799
0.0557047
0.0567837
0.0578159
0.0587991
0.0597347
0.0606237
0.0614635
0.0622605
0.0630094
0.0637188
0.0643814
0.065003
0.065577
0.0661114
0.0666068
0.067064
0.0674794
0.0678615
0.0682083
0.0685078
0.0687651
0.0689979
0.0691936
0.0693391
0.0694486
0.0695118
0.0695371
0.069541
0.0694909
0.0693734
0.0692313
0.0690264
0.0687556
0.0684398
0.0680548
0.067602
0.0670883
0.0664973
0.0658303
0.0650888
0.0642644
0.0633571
0.062363
0.0612856
0.0601218
0.0588703
0.0575388
0.0561259
0.0546314
0.0530622
0.0514177
0.0497026
0.0479235
0.0460829
0.0441819
0.0422212
0.0402037
0.0381337
0.0360195
0.0338673
0.0316727
0.0294385
0.0271677
0.0248931
0.0226167
0.0203402
0.0180849
0.01587
0.0136967
0.0115641
0.00950848
0.00759079
0.00581983
0.00434628
0.00333236
0.00286403
0.0219616
0.0241375
0.0250501
0.026867
0.0279116
0.0297027
0.0308464
0.032599
0.0338141
0.0355208
0.0367804
0.0384351
0.0397153
0.0413099
0.0425887
0.0441065
0.0453659
0.0467872
0.0480108
0.0493212
0.0504912
0.0516825
0.0527797
0.0538495
0.0548565
0.0558068
0.0567088
0.0575434
0.0583313
0.0590515
0.059718
0.0603217
0.0608687
0.0613605
0.0617974
0.0621767
0.0624847
0.0627365
0.0629402
0.0630743
0.0631349
0.063156
0.0631498
0.0630487
0.0628705
0.0626684
0.0623957
0.0620405
0.0616418
0.061187
0.0606566
0.0600695
0.0594243
0.05871
0.0579374
0.0571054
0.0562114
0.0552642
0.0542582
0.0532009
0.052092
0.0509289
0.0497193
0.0484655
0.047163
0.0458215
0.0444412
0.043022
0.0415713
0.0400924
0.0385817
0.0370364
0.0354592
0.0338523
0.0322307
0.030599
0.0289604
0.0273097
0.0256486
0.0239803
0.0223288
0.0207079
0.0191295
0.0175783
0.0160546
0.0145715
0.0132094
0.0119266
0.0107013
0.00949445
0.0084626
0.007489
0.00657763
0.0056077
0.00479054
0.00408768
0.00350476
0.00306819
0.00289346
0.00286607
0.0204806
0.0223426
0.0231257
0.0246935
0.0255948
0.0271415
0.0281255
0.0296356
0.0306739
0.0321352
0.0332011
0.0346036
0.035668
0.0370029
0.0380386
0.0392918
0.0402785
0.0414305
0.042354
0.0433857
0.0442334
0.0451307
0.0458894
0.046644
0.0472979
0.0479065
0.0484414
0.0489081
0.0493178
0.0496505
0.0499184
0.0501087
0.0502202
0.0502654
0.0502761
0.0502353
0.0500803
0.0498641
0.0496165
0.0492938
0.0488963
0.0484599
0.0479708
0.0474082
0.0467971
0.046151
0.0454448
0.0446864
0.0438977
0.0430648
0.0421839
0.0412741
0.040328
0.0393396
0.0383204
0.0372734
0.0361921
0.0350881
0.0339641
0.0328194
0.0316568
0.0304794
0.0292889
0.0280847
0.0268728
0.0256557
0.0244355
0.0232145
0.0219949
0.0207761
0.01958
0.0184328
0.0173188
0.0162554
0.0152332
0.0142554
0.0133177
0.0124213
0.0115693
0.0107631
0.0100136
0.009304
0.00864785
0.00802313
0.00745122
0.00691036
0.00642535
0.00595072
0.00552715
0.00511144
0.00475357
0.00438533
0.00406308
0.00373164
0.00347032
0.00321822
0.00305323
0.00297557
0.00296038
0.00303443
0.0168437
0.0182046
0.018777
0.0199287
0.0205817
0.0217132
0.0224157
0.0235122
0.0242381
0.025285
0.0260112
0.0269945
0.0276957
0.0286059
0.029258
0.0300849
0.0306692
0.0313994
0.0319018
0.0325184
0.0329335
0.0334223
0.0337485
0.0341028
0.0343278
0.0345383
0.0346499
0.0347014
0.0347165
0.034698
0.034582
0.0343926
0.0341781
0.0339063
0.0335687
0.0331859
0.0327536
0.0322696
0.0317484
0.0311842
0.030575
0.0299361
0.0292653
0.0285573
0.0278237
0.0270693
0.0262866
0.0254822
0.024666
0.0238313
0.0229807
0.0221258
0.0212788
0.0204336
0.019608
0.0187917
0.0179946
0.0172071
0.0164466
0.0156932
0.0149693
0.0142617
0.0135789
0.0129186
0.012287
0.0116779
0.0110965
0.0105402
0.0100094
0.00950584
0.00902891
0.00858476
0.00816319
0.00777349
0.00740495
0.00706076
0.00673795
0.00643619
0.00615298
0.00589132
0.00564664
0.00541672
0.00520442
0.00500012
0.00481217
0.00462907
0.0044593
0.00429082
0.00413656
0.00398108
0.00384106
0.00369986
0.00357802
0.0034606
0.00337424
0.00331645
0.00329271
0.00331044
0.00346145
0.00354516
0.0122602
0.013084
0.0134285
0.0141197
0.0144977
0.0151688
0.0155614
0.0162012
0.0165882
0.0171824
0.0175459
0.0180809
0.0184033
0.0188707
0.0191376
0.0195284
0.0197274
0.0200158
0.0201524
0.0203252
0.0204008
0.0204528
0.0204659
0.02046
0.0203888
0.020257
0.0201075
0.0199241
0.0196977
0.0194333
0.0191449
0.0188171
0.0184723
0.0181043
0.017714
0.0173043
0.0168897
0.0164575
0.0160196
0.0155802
0.0151343
0.014688
0.0142465
0.0138047
0.0133692
0.0129436
0.0125241
0.0121147
0.0117203
0.0113369
0.0109667
0.0106143
0.0102786
0.00995801
0.00965788
0.00937266
0.00910484
0.00885229
0.00861851
0.00839511
0.00819108
0.00799755
0.00781909
0.00765253
0.00749934
0.00735585
0.00722664
0.00710543
0.00699589
0.00689404
0.00680194
0.00671713
0.00663933
0.00656852
0.00650219
0.00644081
0.00638374
0.00632902
0.00627773
0.00622816
0.0061803
0.00613261
0.00608558
0.00603552
0.00598484
0.00592634
0.00586402
0.005791
0.00571166
0.00561987
0.00552164
0.00541372
0.00530569
0.00519958
0.00511825
0.0050811
0.00507534
0.00520443
0.00541622
0.00554929
0.00788241
0.00822425
0.00836472
0.00864394
0.00878806
0.00905407
0.00919504
0.00944079
0.00956781
0.00978155
0.0098868
0.0100598
0.0101425
0.0102665
0.0103237
0.0103939
0.0104225
0.0104371
0.0104388
0.0104251
0.0103763
0.010312
0.0102401
0.0101523
0.0100404
0.00991737
0.00979262
0.00965357
0.00950279
0.00934778
0.00919541
0.00903252
0.00887287
0.00871479
0.00856038
0.00840536
0.00826076
0.00811901
0.00798457
0.00785806
0.00773952
0.00762875
0.00752789
0.00743508
0.00735181
0.0072785
0.00721358
0.00715829
0.00711305
0.00707647
0.00704891
0.0070316
0.00702337
0.00702085
0.00702791
0.00704382
0.00706758
0.00709862
0.00713864
0.00718408
0.00723963
0.00729971
0.00736964
0.00744406
0.00752802
0.00761597
0.00771326
0.00781442
0.00792466
0.00803941
0.0081627
0.00829149
0.00842815
0.00857215
0.00872347
0.00888291
0.00904999
0.00922524
0.00940848
0.00959947
0.00979763
0.0100028
0.010214
0.0104301
0.0106501
0.0108729
0.0110964
0.0113175
0.0115303
0.0117329
0.0119211
0.0120931
0.0122485
0.0123903
0.0125255
0.012683
0.0129253
0.013312
0.0138011
0.0141306
0.00532173
0.00542493
0.00546462
0.00553677
0.00557248
0.0056373
0.00566906
0.00572374
0.0057498
0.00579118
0.00581033
0.00583771
0.00584964
0.00586034
0.00586307
0.00586357
0.00586118
0.00585371
0.00584251
0.00582724
0.0058086
0.00578733
0.00576712
0.00574479
0.00572149
0.0056986
0.0056786
0.00565756
0.00563854
0.00562241
0.00561042
0.00560007
0.00559532
0.00559366
0.00559687
0.00560392
0.00561751
0.00563482
0.00565816
0.00568554
0.00571937
0.00575738
0.00580102
0.00584959
0.00590339
0.00596211
0.00602566
0.00609435
0.00616779
0.00624612
0.00632944
0.00641771
0.00651095
0.00660943
0.00671315
0.00682216
0.00693676
0.00705677
0.00718281
0.00731461
0.00745293
0.00759724
0.00774865
0.00790634
0.00807168
0.00824391
0.00842445
0.00861253
0.0088099
0.00901579
0.00923198
0.00945801
0.0096954
0.00994426
0.0102056
0.0104801
0.0107686
0.0110722
0.011392
0.0117292
0.0120851
0.0124613
0.0128591
0.0132802
0.0137262
0.0141985
0.0146992
0.0152311
0.0158002
0.0164083
0.0170654
0.0177736
0.0185441
0.0193816
0.020298
0.0212961
0.0223633
0.0234417
0.0241097
0.0243573
0.00545418
0.00556929
0.00561426
0.00569818
0.00573999
0.00581694
0.00585493
0.00592177
0.00595418
0.00600759
0.00603288
0.0060711
0.00608845
0.00610958
0.00611777
0.00612171
0.00612223
0.00612001
0.00611128
0.00609701
0.00607977
0.00605754
0.00603274
0.00600685
0.00598037
0.00595039
0.00592156
0.00589351
0.00586643
0.00583847
0.00581499
0.00579355
0.00577556
0.00575976
0.00575023
0.0057445
0.00574258
0.00574513
0.00575385
0.0057671
0.00578553
0.00580993
0.00583877
0.00587293
0.00591293
0.00595745
0.00600699
0.0060622
0.00612172
0.00618629
0.00625631
0.00633086
0.00641048
0.00649559
0.00658542
0.00668042
0.00678105
0.00688665
0.00699748
0.00711386
0.00723558
0.00736321
0.00749649
0.0076359
0.00778103
0.0079328
0.0080905
0.00825512
0.00842637
0.00860486
0.00879065
0.00898428
0.00918575
0.00939562
0.00961408
0.00984145
0.0100782
0.0103247
0.0105815
0.0108491
0.0111285
0.0114202
0.0117254
0.0120449
0.0123803
0.0127327
0.0131047
0.013498
0.0139163
0.0143617
0.0148362
0.0153481
0.015906
0.0165194
0.017204
0.0179787
0.0188643
0.01985
0.0206534
0.0210071
0.00809981
0.00846467
0.00861566
0.00891815
0.00907898
0.00937051
0.00953325
0.0098077
0.00996046
0.010209
0.0103414
0.0105545
0.0106593
0.0108262
0.0109054
0.0110188
0.0110707
0.0111267
0.0111463
0.0111532
0.0111476
0.0111106
0.011042
0.0109699
0.0108798
0.0107659
0.0106346
0.0104965
0.0103503
0.0101837
0.0100135
0.00983928
0.00966031
0.00947085
0.00928919
0.0091048
0.0089206
0.00873962
0.00856687
0.00839495
0.00823014
0.00807523
0.00792523
0.00778264
0.00765191
0.0075274
0.00741183
0.00730784
0.00721104
0.00712322
0.00704696
0.00697802
0.00691823
0.00686889
0.00682683
0.00679233
0.00676737
0.00674839
0.00673896
0.006735
0.00673464
0.00674556
0.0067574
0.00677925
0.00680098
0.00683173
0.00686234
0.00689914
0.00693597
0.00697641
0.00701636
0.00705872
0.00709932
0.00714051
0.00717964
0.00721682
0.00725137
0.00728221
0.00730935
0.00733152
0.00734939
0.00736109
0.00736692
0.00736903
0.00736756
0.00735904
0.00735066
0.00733821
0.00732951
0.00732369
0.00732205
0.00732849
0.00734786
0.00738816
0.0074601
0.00758417
0.00779584
0.0081296
0.00859635
0.00891164
0.0123373
0.0131847
0.01354
0.0142568
0.0146553
0.0153579
0.0157791
0.0164579
0.0168824
0.017523
0.0179338
0.0185231
0.0189011
0.0194298
0.019759
0.0202171
0.0204848
0.0208651
0.0210642
0.0213401
0.0214699
0.0216235
0.0216891
0.0217231
0.0217294
0.0216989
0.0215928
0.0214473
0.0212851
0.0210681
0.0208159
0.0205333
0.0202189
0.0198605
0.0194906
0.0190918
0.0186652
0.0182209
0.0177669
0.0172928
0.0168086
0.0163229
0.0158276
0.0153265
0.014831
0.0143303
0.0138336
0.0133469
0.0128637
0.012389
0.0119307
0.0114814
0.0110461
0.0106302
0.0102335
0.00985065
0.00949424
0.00915039
0.00882651
0.00851969
0.00823126
0.00795549
0.00769879
0.00745582
0.00722321
0.00700777
0.00680003
0.00660447
0.00642219
0.00624989
0.00608497
0.0059339
0.00578442
0.0056466
0.0055125
0.00538399
0.00526057
0.00514044
0.00502469
0.00491113
0.00480274
0.00469455
0.004592
0.0044897
0.00439242
0.00429783
0.00420835
0.00412368
0.00404424
0.00397193
0.00390635
0.00385112
0.00380321
0.00377043
0.00375593
0.00375478
0.00383041
0.0039584
0.00416226
0.00425466
0.0166533
0.0180213
0.0185972
0.0197588
0.0204229
0.0215714
0.0222928
0.0234148
0.0241688
0.0252498
0.026015
0.0270417
0.027792
0.0287556
0.0294665
0.030356
0.0310085
0.0318096
0.0323913
0.0330871
0.0335909
0.0341661
0.0345881
0.0350374
0.0353727
0.0356931
0.0359208
0.0361107
0.0362175
0.0362635
0.0362765
0.0362523
0.0361275
0.0359378
0.0357228
0.035445
0.0351009
0.034715
0.0342751
0.0337799
0.0332478
0.0326683
0.0320378
0.0313762
0.0306775
0.0299351
0.0291628
0.0283648
0.0275299
0.0266695
0.0257905
0.0248856
0.0239592
0.0230216
0.0221012
0.0211714
0.0202728
0.0193753
0.0185031
0.0176458
0.0168172
0.016
0.015214
0.0144555
0.0137187
0.0130172
0.012344
0.0116994
0.0110858
0.0105079
0.00995196
0.00944071
0.00895217
0.008499
0.00807198
0.00767225
0.0072966
0.00694325
0.00661022
0.00629504
0.00600013
0.00572174
0.00545933
0.00520976
0.00496872
0.00474023
0.00452032
0.00431843
0.0041202
0.00393601
0.00375138
0.00359133
0.00343677
0.00330865
0.00317792
0.00309307
0.0030518
0.00304331
0.00316333
0.00324441
0.0199131
0.0217574
0.0225333
0.0240895
0.024988
0.02653
0.0275179
0.0290315
0.0300821
0.0315558
0.0326438
0.0340691
0.0351659
0.0365349
0.0376148
0.0389134
0.0399568
0.0411651
0.0421579
0.0432569
0.0441857
0.0451618
0.046012
0.0468577
0.0476142
0.0483263
0.048972
0.0495514
0.0500743
0.0505243
0.0509218
0.0512463
0.0515005
0.0516848
0.051789
0.0518313
0.0518405
0.0517961
0.0516396
0.0514274
0.0511827
0.0508607
0.0504659
0.0500328
0.0495454
0.048985
0.0483732
0.0477241
0.0470144
0.0462481
0.0454501
0.0446062
0.0437105
0.0427854
0.0418181
0.0408051
0.039756
0.0386764
0.0375554
0.0364033
0.03523
0.0340274
0.032805
0.0315676
0.0303127
0.0290462
0.0277701
0.0264842
0.0251916
0.0238972
0.0226023
0.021331
0.020124
0.0189453
0.0178276
0.0167464
0.0157121
0.0147196
0.0137693
0.0128567
0.0119771
0.0111451
0.010359
0.00963031
0.00892605
0.00824581
0.00756439
0.00695112
0.00640809
0.00592463
0.00537119
0.00484306
0.0043515
0.0039821
0.00359186
0.00326577
0.00300753
0.0028969
0.00286725
0.00291105
0.0210713
0.0232024
0.0240968
0.0258813
0.0269107
0.0286769
0.0298109
0.0315456
0.0327567
0.0344541
0.035717
0.0373706
0.0386623
0.0402652
0.0415663
0.043103
0.0443963
0.0458474
0.047115
0.0484655
0.0496881
0.05093
0.0520875
0.053218
0.0542924
0.0553121
0.0562879
0.0571993
0.0580665
0.0588707
0.0596255
0.0603209
0.0609594
0.0615427
0.0620695
0.0625459
0.0629702
0.0633392
0.0636408
0.0638905
0.0640957
0.0642405
0.0643103
0.064339
0.0643414
0.0642706
0.0641128
0.063931
0.0636895
0.063364
0.0629941
0.0625732
0.0620751
0.0615187
0.0609108
0.0602332
0.0594886
0.0586943
0.0578344
0.0569087
0.0559325
0.0548968
0.0538032
0.0526622
0.0514673
0.0502257
0.0489415
0.0476127
0.0462482
0.0448466
0.0434096
0.0419401
0.0404328
0.0388958
0.0373289
0.0357291
0.0341073
0.0324571
0.0308005
0.0291334
0.027451
0.0257144
0.0239305
0.0221585
0.0204815
0.0188782
0.0171939
0.0152454
0.0135119
0.0122618
0.0110855
0.00952803
0.00779303
0.00649813
0.00574077
0.00473459
0.00368596
0.00316477
0.0028881
0.0028059
0.0203839
0.0225683
0.023481
0.0252945
0.0263335
0.0281275
0.0292689
0.0310297
0.0322484
0.0339707
0.0352434
0.0369204
0.038231
0.0398582
0.0411955
0.042761
0.04411
0.0455982
0.0469372
0.0483378
0.0496419
0.050952
0.052198
0.0534156
0.0545836
0.0557085
0.0567879
0.0578208
0.0588065
0.0597473
0.0606396
0.0614897
0.062291
0.0630525
0.0637686
0.0644465
0.0650814
0.0656766
0.066229
0.0667451
0.0672271
0.0676738
0.0680828
0.0684622
0.0688128
0.0691231
0.0693937
0.0696434
0.0698642
0.0700395
0.0701836
0.0703041
0.0703798
0.0704154
0.0704274
0.0704108
0.0703213
0.0702063
0.0700426
0.0698106
0.0695378
0.0691962
0.0687841
0.0683125
0.067765
0.067139
0.0664377
0.0656486
0.0647751
0.063814
0.0627677
0.0616283
0.0604034
0.0590942
0.0576973
0.0562245
0.0546722
0.0530401
0.0513341
0.0495524
0.0477017
0.0457741
0.0437563
0.0416441
0.0394444
0.037175
0.0348049
0.0322645
0.0295353
0.0267667
0.023971
0.0210174
0.0179515
0.0149597
0.0121086
0.00938426
0.0070491
0.00508256
0.00367319
0.00301745
0.0192401
0.0212546
0.0220996
0.0237919
0.024749
0.0264204
0.027472
0.0291087
0.0302306
0.0318213
0.0329888
0.0345271
0.0357306
0.0372181
0.0384543
0.0398877
0.0411446
0.042515
0.0437666
0.0450654
0.0462819
0.0475051
0.0486643
0.0498083
0.0508929
0.0519457
0.0529428
0.0539063
0.0548195
0.0556993
0.0565334
0.0573352
0.0580955
0.058825
0.0595181
0.0601819
0.0608134
0.0614164
0.06199
0.0625387
0.0630643
0.0635687
0.064052
0.0645158
0.0649603
0.0653835
0.0657861
0.0661739
0.0665446
0.0668886
0.0672043
0.0675081
0.0677961
0.0680667
0.0683236
0.0685614
0.0687746
0.0689768
0.0691609
0.0693172
0.0694664
0.0696047
0.0697026
0.0697761
0.069811
0.069823
0.0698052
0.0697258
0.0696197
0.0694473
0.0692341
0.0689555
0.0686053
0.0681792
0.0676603
0.067036
0.0663011
0.0654292
0.0644122
0.0632333
0.0618752
0.0603292
0.0585756
0.0566118
0.0544243
0.0520104
0.0493737
0.0465102
0.0434201
0.0400672
0.0364488
0.032507
0.0282388
0.0236789
0.0190858
0.0149003
0.0113056
0.00861063
0.00652993
0.00431934
0.0210199
0.0224157
0.0230076
0.0242353
0.0249335
0.0261712
0.0269273
0.0281337
0.0289671
0.0301144
0.0310129
0.0321128
0.0330477
0.0341256
0.035085
0.036149
0.0371266
0.0381711
0.0391487
0.0401595
0.0411128
0.0420773
0.0429882
0.0438953
0.0447501
0.0455888
0.0463793
0.0471472
0.0478717
0.0485704
0.0492306
0.0498641
0.0504636
0.0510368
0.0515805
0.0520993
0.0525926
0.0530638
0.0535141
0.0539453
0.0543587
0.0547566
0.0551396
0.0555069
0.0558593
0.0561981
0.0565261
0.0568464
0.0571602
0.0574659
0.0577632
0.0580559
0.0583454
0.0586303
0.0589081
0.0591797
0.0594476
0.0597141
0.0599745
0.0602225
0.0604621
0.0606909
0.0609116
0.061119
0.0613177
0.061506
0.0616771
0.0618292
0.0619675
0.0620703
0.0621312
0.0621554
0.0621557
0.0620624
0.06192
0.0616789
0.0613497
0.0609055
0.0603336
0.0596238
0.0587506
0.0577104
0.0564833
0.0550628
0.0534442
0.051578
0.049468
0.0470124
0.0441029
0.0407158
0.0367596
0.0323893
0.0277609
0.0230129
0.0185419
0.0145476
0.0115168
0.00931565
0.0079242
0.00658632
0.0212405
0.0211205
0.0210774
0.0210234
0.0210015
0.0209954
0.0209992
0.0210241
0.0210539
0.0211094
0.0211694
0.0212537
0.0213436
0.0214568
0.0215761
0.0217184
0.0218676
0.0220382
0.0222152
0.02241
0.0226082
0.0228199
0.0230311
0.0232508
0.0234662
0.0236841
0.0238945
0.0241025
0.024301
0.0244931
0.0246743
0.0248464
0.0250067
0.0251561
0.0252934
0.0254187
0.0255316
0.0256322
0.0257205
0.0257969
0.0258612
0.025914
0.0259558
0.0259882
0.0260034
0.0260054
0.0259997
0.0259848
0.0259603
0.0259266
0.0258837
0.0258316
0.0257705
0.0257
0.0256192
0.0255281
0.0254277
0.0253189
0.0252009
0.0250715
0.0249312
0.0247818
0.0246247
0.0244566
0.0242789
0.0240899
0.0238884
0.0236759
0.0234519
0.0232105
0.022951
0.0226773
0.022384
0.0220601
0.0217197
0.0213455
0.0209435
0.0205114
0.0200417
0.0195395
0.0189976
0.0184173
0.0177975
0.0171361
0.0164294
0.0156577
0.0148007
0.0137919
0.0126216
0.0112209
0.00948656
0.00744752
0.00543572
0.00363375
0.00237815
0.00177902
0.00206933
0.0042906
0.00665472
0.00743216
0.00632012
0.00172959
0.0015927
0.00153693
0.00146253
0.00139248
0.00136559
0.00136119
0.00136129
0.00136438
0.00136578
0.00136565
0.00133449
0.00132557
0.00135979
0.00157623
0.00224243
0.0036633
0.00487274
0.00454687
0.00436431
0.00180433
0.00168648
0.00163584
0.00150112
0.00145147
0.00143392
0.00142746
0.00142623
0.00143269
0.0014347
0.00140902
0.00138708
0.00138387
0.00146219
0.00177725
0.00261469
0.00407092
0.00473527
0.00400928
0.00305147
0.00195903
0.00184976
0.00166688
0.00157489
0.00154301
0.0015295
0.00152508
0.00152427
0.00151974
0.0014884
0.00146172
0.0014531
0.00148828
0.00166873
0.00218177
0.00312414
0.00427348
0.00451172
0.00343091
0.00267853
0.00205361
0.00192057
0.00176247
0.00171688
0.00167659
0.00165836
0.00164582
0.00162994
0.00160829
0.00157119
0.00156179
0.00158639
0.00170157
0.00203843
0.00265796
0.00375695
0.00425261
0.00423261
0.00283067
0.00265328
0.00218982
0.00207687
0.00195413
0.00190882
0.00185908
0.00184116
0.00181966
0.00180694
0.00177534
0.00175637
0.00178604
0.00188333
0.00212599
0.0026157
0.00343004
0.00404286
0.00418917
0.00380096
0.00223807
0.00272142
0.00243037
0.00233989
0.00224072
0.00220655
0.00218193
0.00217863
0.00217825
0.00219084
0.00219761
0.00223802
0.00235743
0.00261456
0.00297092
0.00353076
0.0039648
0.00412686
0.00403836
0.00320552
0.00167963
0.00312801
0.00302181
0.00297374
0.00294777
0.00297475
0.0030269
0.00310781
0.00320513
0.00332266
0.00336932
0.00337252
0.00356035
0.00370104
0.00398934
0.00418355
0.00425533
0.00410002
0.00372648
0.0024675
0.00118731
0.00530452
0.0054116
0.00554761
0.00567897
0.00586782
0.00594308
0.00582949
0.00557286
0.00543648
0.00521258
0.0051227
0.00507293
0.00500624
0.00495529
0.00476701
0.00437411
0.00393687
0.0031155
0.00166716
0.000776169
0.0136871
0.0134554
0.0130685
0.0121626
0.0113041
0.0103947
0.00967359
0.0089716
0.00840756
0.00784787
0.0073691
0.0068748
0.00632907
0.00578296
0.0050018
0.00428352
0.00345546
0.00216422
0.000985764
0.000447916
0.0215623
0.0198253
0.0186095
0.0165695
0.0155637
0.0138806
0.0130612
0.0116817
0.0110027
0.00978111
0.00916789
0.00795612
0.00726156
0.00591277
0.00499925
0.00343546
0.00225929
0.00105729
0.000457423
0.000194841
0.0192007
0.017553
0.0167597
0.0149463
0.014103
0.0127175
0.0120406
0.0109476
0.0104071
0.00947884
0.00897847
0.00806038
0.00745075
0.00639604
0.00557587
0.00425852
0.00285946
0.00150257
0.000568448
0.000200591
0.00887788
0.00904779
0.00911095
0.00900121
0.008584
0.00828612
0.00777785
0.00751303
0.00716257
0.00700066
0.00676802
0.00665773
0.00635881
0.00612103
0.00557187
0.00491935
0.00413165
0.00283137
0.00119463
0.000461059
0.00391542
0.0039076
0.00394382
0.00401025
0.00414612
0.004306
0.00447947
0.0045417
0.00450919
0.00450351
0.0045557
0.00473897
0.00494126
0.00506202
0.00512342
0.00498092
0.00455443
0.00374958
0.00205502
0.000836693
0.00280992
0.00268213
0.00261899
0.00256493
0.00255467
0.00255378
0.00260439
0.00266374
0.00276664
0.00290959
0.00302129
0.00322257
0.0036368
0.00403406
0.00448127
0.00466693
0.00468819
0.00435379
0.00298512
0.0013089
0.00258828
0.00229283
0.0022006
0.00210037
0.00206555
0.00203018
0.00201921
0.00201294
0.00201558
0.00201741
0.002061
0.00218293
0.00244645
0.00296567
0.00366162
0.00437616
0.00464561
0.00464531
0.00379967
0.00187015
0.00255948
0.00211439
0.00200117
0.00187758
0.00183796
0.0017937
0.00177595
0.00174963
0.00173629
0.00170742
0.00168985
0.00172101
0.00182823
0.0021046
0.00269283
0.00364783
0.00454108
0.00477229
0.00441327
0.00249669
0.00262873
0.00200221
0.00187597
0.00171445
0.00165224
0.00162368
0.00160932
0.00160333
0.00159151
0.00157599
0.00154167
0.00153279
0.00156134
0.00168853
0.00207053
0.00282135
0.0041539
0.00482365
0.00484315
0.00315536
0.00317217
0.0019027
0.00179315
0.00164363
0.00155259
0.00151658
0.00150002
0.00149411
0.00149315
0.00149212
0.00147197
0.00144775
0.00144121
0.00148239
0.00168722
0.00227888
0.00343198
0.00483579
0.00513642
0.00381852
0.00479198
0.00178443
0.0016541
0.00159978
0.00147929
0.00142991
0.00141382
0.00140968
0.00141014
0.00141478
0.00141557
0.00139556
0.00138214
0.00138195
0.00148574
0.00186099
0.00282771
0.00457418
0.00536242
0.00445072
0.00694224
0.0017262
0.00156727
0.0015128
0.00144732
0.00137907
0.00135062
0.00134415
0.00134511
0.00135543
0.00135908
0.00135327
0.00132939
0.00132229
0.00136125
0.00162739
0.00244892
0.00412837
0.00550145
0.00503555
0.00397106
0.00375018
0.00374678
0.00374679
0.00374652
0.00374627
0.00374612
0.00374604
0.003746
0.00374598
0.00374598
0.003746
0.00374604
0.00374612
0.00374627
0.00374652
0.00374679
0.00374678
0.00375018
0.00397106
0.00441345
0.00375343
0.00374142
0.00374097
0.00374057
0.00374013
0.00373988
0.00373975
0.00373969
0.00373966
0.00373966
0.00373969
0.00373975
0.00373988
0.00374013
0.00374057
0.00374097
0.00374142
0.00375343
0.00441346
0.00486173
0.00376068
0.00373289
0.00373265
0.00373285
0.00373274
0.00373256
0.00373242
0.00373235
0.00373231
0.00373231
0.00373235
0.00373242
0.00373256
0.00373274
0.00373285
0.00373265
0.00373289
0.00376068
0.00486173
0.00530373
0.00377204
0.00372425
0.00372392
0.00372489
0.00372523
0.00372524
0.00372518
0.00372514
0.00372512
0.00372512
0.00372514
0.00372518
0.00372524
0.00372523
0.00372489
0.00372392
0.00372425
0.00377204
0.00530374
0.00573607
0.00378534
0.0037155
0.00371482
0.00371665
0.00371758
0.00371789
0.00371795
0.00371795
0.00371795
0.00371795
0.00371795
0.00371795
0.00371789
0.00371758
0.00371665
0.00371482
0.0037155
0.00378534
0.00573607
0.00616766
0.00379797
0.00370595
0.00370518
0.00370804
0.00370971
0.00371044
0.0037107
0.00371078
0.0037108
0.0037108
0.00371078
0.0037107
0.00371044
0.00370971
0.00370804
0.00370519
0.00370595
0.00379797
0.00616765
0.0065953
0.00380839
0.00369491
0.00369472
0.00369893
0.00370154
0.00370284
0.0037034
0.00370361
0.00370367
0.00370367
0.00370361
0.0037034
0.00370284
0.00370154
0.00369893
0.00369472
0.00369491
0.00380839
0.0065953
0.00700407
0.00381616
0.00368242
0.00368348
0.00368935
0.00369308
0.00369506
0.00369601
0.00369641
0.00369655
0.00369655
0.00369641
0.00369601
0.00369506
0.00369308
0.00368935
0.00368348
0.00368242
0.00381616
0.00700407
0.00739096
0.00382347
0.00366922
0.00367175
0.00367942
0.00368437
0.00368713
0.00368854
0.00368919
0.00368943
0.00368943
0.00368919
0.00368854
0.00368713
0.00368437
0.00367942
0.00367176
0.00366922
0.00382347
0.00739096
0.00776399
0.00382801
0.0036544
0.00365919
0.00366901
0.00367535
0.003679
0.00368096
0.00368191
0.00368228
0.00368228
0.00368191
0.00368096
0.003679
0.00367535
0.00366901
0.00365919
0.0036544
0.00382801
0.00776398
0.00812185
0.00383013
0.0036377
0.00364557
0.00365798
0.00366595
0.00367062
0.00367321
0.00367453
0.00367507
0.00367507
0.00367453
0.00367321
0.00367062
0.00366595
0.00365798
0.00364557
0.0036377
0.00383013
0.00812185
0.00845353
0.00383038
0.00361962
0.00363109
0.00364639
0.00365617
0.00366199
0.0036653
0.00366704
0.00366778
0.00366778
0.00366704
0.0036653
0.00366199
0.00365617
0.00364639
0.00363109
0.00361962
0.00383038
0.00845352
0.00875506
0.0038299
0.00360064
0.00361599
0.00363438
0.00364609
0.00365313
0.00365723
0.00365944
0.0036604
0.0036604
0.00365944
0.00365723
0.00365313
0.00364609
0.00363438
0.00361599
0.00360064
0.00382989
0.00875506
0.00903243
0.00382871
0.00358092
0.00360035
0.003622
0.00363573
0.00364408
0.00364901
0.00365173
0.00365292
0.00365292
0.00365173
0.00364901
0.00364408
0.00363573
0.003622
0.00360035
0.00358092
0.0038287
0.00903242
0.00928873
0.00382692
0.00356018
0.003584
0.00360915
0.00362505
0.00363478
0.0036406
0.00364386
0.00364531
0.00364531
0.00364386
0.00364061
0.00363478
0.00362505
0.00360915
0.003584
0.00356019
0.00382693
0.00928874
0.00951946
0.00382372
0.00353807
0.00356672
0.0035957
0.00361397
0.0036252
0.00363198
0.00363582
0.00363755
0.00363755
0.00363582
0.00363198
0.0036252
0.00361397
0.0035957
0.00356672
0.00353807
0.00382371
0.00951946
0.00972051
0.00381974
0.00351504
0.00354872
0.00358174
0.00360252
0.00361533
0.00362314
0.0036276
0.00362963
0.00362963
0.0036276
0.00362314
0.00361533
0.00360252
0.00358174
0.00354872
0.00351504
0.00381973
0.00972053
0.00989582
0.0038159
0.00349171
0.00353031
0.00356745
0.0035908
0.00360525
0.00361411
0.00361921
0.00362154
0.00362154
0.00361921
0.00361411
0.00360525
0.0035908
0.00356745
0.00353031
0.00349171
0.00381591
0.00989582
0.0100487
0.00381354
0.00346855
0.00351171
0.00355292
0.00357886
0.00359497
0.0036049
0.00361066
0.0036133
0.0036133
0.00361066
0.0036049
0.00359497
0.00357886
0.00355292
0.00351171
0.00346856
0.00381352
0.0100487
0.0101826
0.00381159
0.00344509
0.0034927
0.00353807
0.00356666
0.00358447
0.0035955
0.00360193
0.00360489
0.00360489
0.00360193
0.0035955
0.00358447
0.00356666
0.00353806
0.0034927
0.00344508
0.00381158
0.0101826
0.0102912
0.0038085
0.00342076
0.003473
0.00352273
0.00355411
0.0035737
0.00358587
0.00359299
0.00359628
0.00359628
0.00359299
0.00358587