/*--------------------------------*- C++ -*----------------------------------*\
| =========                 |                                                 |
| \\      /  F ield         | OpenFOAM: The Open Source CFD Toolbox           |
|  \\    /   O peration     | Version:  2.1.0                                 |
|   \\  /    A nd           | Web:      www.OpenFOAM.org                      |
|    \\/     M anipulation  |                                                 |
\*---------------------------------------------------------------------------*/
FoamFile
{
    version     2.0;
    format      ascii;
    class       volScalarField;
    location    "0.12";
    object      nut;
}
// * * * * * * * * * * * * * * * * * * * * * * * * * * * * * * * * * * * * * //

dimensions      [0 2 -1 0 0 0 0];

internalField   nonuniform List<scalar> 
6400
(
4.9099e-06
4.90201e-06
4.91087e-06
4.92677e-06
4.94835e-06
4.97638e-06
5.00542e-06
5.04244e-06
5.07874e-06
5.12319e-06
5.16724e-06
5.21842e-06
5.27002e-06
5.32823e-06
5.38738e-06
5.45284e-06
5.51954e-06
5.59181e-06
5.66516e-06
5.7431e-06
5.82155e-06
5.90347e-06
5.98504e-06
6.06881e-06
6.1514e-06
6.23491e-06
6.31669e-06
6.39827e-06
6.4778e-06
6.55631e-06
6.6326e-06
6.70737e-06
6.77995e-06
6.85073e-06
6.9193e-06
6.98581e-06
7.05019e-06
7.11261e-06
7.17309e-06
7.23181e-06
7.2891e-06
7.34518e-06
7.39696e-06
7.44721e-06
7.4971e-06
7.54577e-06
7.59316e-06
7.63929e-06
7.68412e-06
7.72766e-06
7.76998e-06
7.81093e-06
7.85036e-06
7.88845e-06
7.9256e-06
7.96175e-06
7.99639e-06
8.02957e-06
8.062e-06
8.09345e-06
8.12313e-06
8.15082e-06
8.17764e-06
8.20318e-06
8.22687e-06
8.24937e-06
8.26897e-06
8.28358e-06
8.29719e-06
8.30635e-06
8.31013e-06
8.31078e-06
8.30627e-06
8.2965e-06
8.28239e-06
8.26408e-06
8.24226e-06
8.21851e-06
8.19449e-06
8.17175e-06
8.15063e-06
8.12719e-06
8.09257e-06
8.06671e-06
8.04286e-06
8.02011e-06
7.99676e-06
7.95982e-06
7.89393e-06
7.76317e-06
7.50643e-06
7.00885e-06
6.0957e-06
4.58254e-06
2.56893e-06
1.62815e-06
1.8502e-06
2.94932e-06
2.85339e-06
3.04455e-06
2.71781e-05
2.91742e-05
3.00947e-05
3.19222e-05
3.3012e-05
3.48456e-05
3.59945e-05
3.77812e-05
3.90159e-05
4.07098e-05
4.20236e-05
4.36403e-05
4.50025e-05
4.65779e-05
4.79691e-05
4.95124e-05
5.09163e-05
5.24111e-05
5.37969e-05
5.52256e-05
5.65626e-05
5.79077e-05
5.91679e-05
6.04112e-05
6.15723e-05
6.27014e-05
6.37541e-05
6.47648e-05
6.5704e-05
6.65954e-05
6.74201e-05
6.81936e-05
6.8904e-05
6.95609e-05
7.01574e-05
7.06983e-05
7.11811e-05
7.16088e-05
7.19813e-05
7.23e-05
7.25637e-05
7.27722e-05
7.29241e-05
7.30191e-05
7.30597e-05
7.3051e-05
7.29909e-05
7.28801e-05
7.27175e-05
7.25056e-05
7.22454e-05
7.19345e-05
7.15707e-05
7.11579e-05
7.07019e-05
7.01955e-05
6.96303e-05
6.90112e-05
6.83439e-05
6.76321e-05
6.68678e-05
6.60476e-05
6.51877e-05
6.42759e-05
6.33104e-05
6.23051e-05
6.12542e-05
6.0125e-05
5.89579e-05
5.77216e-05
5.64254e-05
5.50716e-05
5.36464e-05
5.21591e-05
5.06091e-05
4.89947e-05
4.73216e-05
4.55952e-05
4.38201e-05
4.2004e-05
4.01548e-05
3.82763e-05
3.63586e-05
3.43692e-05
3.23304e-05
3.02153e-05
2.80332e-05
2.57619e-05
2.34051e-05
2.09563e-05
1.84484e-05
1.59352e-05
1.35142e-05
1.12857e-05
9.19577e-06
7.27761e-06
5.77562e-06
4.68931e-06
4.04163e-06
4.83859e-06
4.21949e-05
4.64619e-05
4.80175e-05
5.13155e-05
5.28861e-05
5.59592e-05
5.7618e-05
6.04993e-05
6.22281e-05
6.49269e-05
6.66958e-05
6.9225e-05
7.10263e-05
7.34012e-05
7.52244e-05
7.74367e-05
7.92507e-05
8.12779e-05
8.303e-05
8.4862e-05
8.65002e-05
8.81289e-05
8.96038e-05
9.08522e-05
9.19284e-05
9.28966e-05
9.37832e-05
9.45766e-05
9.52848e-05
9.59122e-05
9.64543e-05
9.69239e-05
9.73125e-05
9.76334e-05
9.78774e-05
9.80543e-05
9.81584e-05
9.81973e-05
9.81706e-05
9.8083e-05
9.79314e-05
9.77172e-05
9.74395e-05
9.70941e-05
9.66825e-05
9.62112e-05
9.54513e-05
9.45797e-05
9.36349e-05
9.26267e-05
9.15583e-05
9.04311e-05
8.92362e-05
8.79791e-05
8.66841e-05
8.53345e-05
8.39265e-05
8.2484e-05
8.09854e-05
7.94536e-05
7.78908e-05
7.62552e-05
7.45977e-05
7.2899e-05
7.11554e-05
6.93895e-05
6.75823e-05
6.57413e-05
6.3878e-05
6.19793e-05
6.0049e-05
5.80906e-05
5.60971e-05
5.40747e-05
5.20186e-05
4.9931e-05
4.78152e-05
4.56724e-05
4.35064e-05
4.13237e-05
3.91303e-05
3.69342e-05
3.47478e-05
3.25962e-05
3.04817e-05
2.84211e-05
2.64177e-05
2.44819e-05
2.26079e-05
2.07846e-05
1.89994e-05
1.728e-05
1.55283e-05
1.37588e-05
1.19048e-05
1.00517e-05
8.28164e-06
6.719e-06
5.89566e-06
7.02417e-06
4.99145e-05
5.46287e-05
5.62722e-05
5.97686e-05
6.12339e-05
6.43152e-05
6.57986e-05
6.85994e-05
7.01266e-05
7.26987e-05
7.42473e-05
7.66137e-05
7.81625e-05
8.03327e-05
8.18565e-05
8.38143e-05
8.52803e-05
8.69952e-05
8.8363e-05
8.98243e-05
9.10538e-05
9.22634e-05
9.33119e-05
9.42802e-05
9.51265e-05
9.5862e-05
9.64855e-05
9.69934e-05
9.73903e-05
9.76771e-05
9.78521e-05
9.79256e-05
9.7891e-05
9.77623e-05
9.75305e-05
9.72058e-05
9.67793e-05
9.62665e-05
9.56712e-05
9.49954e-05
9.42362e-05
9.34099e-05
9.25165e-05
9.15406e-05
9.04935e-05
8.94024e-05
8.82565e-05
8.7038e-05
8.57715e-05
8.44482e-05
8.30821e-05
8.16967e-05
8.02572e-05
7.87533e-05
7.72387e-05
7.56749e-05
7.40642e-05
7.24344e-05
7.07651e-05
6.9063e-05
6.73409e-05
6.55881e-05
6.3811e-05
6.20166e-05
6.02023e-05
5.83733e-05
5.65317e-05
5.46858e-05
5.28381e-05
5.09911e-05
4.9154e-05
4.73293e-05
4.55186e-05
4.3731e-05
4.19693e-05
4.02395e-05
3.85475e-05
3.6895e-05
3.52817e-05
3.3706e-05
3.21663e-05
3.06533e-05
2.91722e-05
2.77328e-05
2.62875e-05
2.48586e-05
2.34129e-05
2.19707e-05
2.05085e-05
1.90324e-05
1.75308e-05
1.60122e-05
1.44632e-05
1.2884e-05
1.12663e-05
9.69047e-06
8.30359e-06
7.4912e-06
6.76333e-06
6.34117e-06
5.27445e-05
5.71314e-05
5.86466e-05
6.18901e-05
6.31019e-05
6.58315e-05
6.70018e-05
6.94031e-05
7.0583e-05
7.27282e-05
7.39016e-05
7.58226e-05
7.69574e-05
7.86648e-05
7.97266e-05
8.12077e-05
8.217e-05
8.34045e-05
8.42458e-05
8.52238e-05
8.59228e-05
8.66448e-05
8.7179e-05
8.76579e-05
8.8013e-05
8.82662e-05
8.84265e-05
8.84701e-05
8.84291e-05
8.82757e-05
8.80321e-05
8.76887e-05
8.72577e-05
8.67446e-05
8.61533e-05
8.54838e-05
8.47189e-05
8.38854e-05
8.29992e-05
8.20344e-05
8.09914e-05
7.99194e-05
7.88363e-05
7.76618e-05
7.64242e-05
7.51911e-05
7.39114e-05
7.25737e-05
7.12269e-05
6.98595e-05
6.84537e-05
6.70315e-05
6.55946e-05
6.41336e-05
6.26615e-05
6.11803e-05
5.96906e-05
5.8204e-05
5.67174e-05
5.52399e-05
5.37732e-05
5.2316e-05
5.08766e-05
4.94569e-05
4.80533e-05
4.6673e-05
4.53156e-05
4.39792e-05
4.26679e-05
4.13776e-05
4.01029e-05
3.8851e-05
3.75994e-05
3.63553e-05
3.51186e-05
3.38887e-05
3.26595e-05
3.14209e-05
3.01683e-05
2.88957e-05
2.76159e-05
2.63285e-05
2.5037e-05
2.37285e-05
2.2403e-05
2.09017e-05
1.94078e-05
1.79819e-05
1.65951e-05
1.51765e-05
1.39798e-05
1.28206e-05
1.17157e-05
1.04449e-05
9.3965e-06
8.49344e-06
7.75791e-06
7.20898e-06
7.06523e-06
7.13052e-06
5.15766e-05
5.5275e-05
5.65303e-05
5.92784e-05
6.01839e-05
6.24185e-05
6.32448e-05
6.51589e-05
6.59679e-05
6.76314e-05
6.84147e-05
6.98576e-05
7.05802e-05
7.18178e-05
7.24441e-05
7.3476e-05
7.39858e-05
7.47987e-05
7.51828e-05
7.57637e-05
7.60159e-05
7.63629e-05
7.64734e-05
7.65951e-05
7.6554e-05
7.64627e-05
7.62644e-05
7.59866e-05
7.56367e-05
7.52021e-05
7.46913e-05
7.41005e-05
7.34249e-05
7.26931e-05
7.19442e-05
7.1162e-05
7.02645e-05
6.9327e-05
6.83889e-05
6.7398e-05
6.63574e-05
6.53138e-05
6.42512e-05
6.31485e-05
6.20363e-05
6.09299e-05
5.98025e-05
5.86634e-05
5.75378e-05
5.64093e-05
5.52746e-05
5.41504e-05
5.30288e-05
5.19049e-05
5.07874e-05
4.96728e-05
4.8559e-05
4.74616e-05
4.63697e-05
4.5281e-05
4.41996e-05
4.3115e-05
4.20377e-05
4.09498e-05
3.98642e-05
3.87696e-05
3.76717e-05
3.65643e-05
3.54494e-05
3.41507e-05
3.25268e-05
3.09778e-05
2.9477e-05
2.80456e-05
2.66675e-05
2.5343e-05
2.40648e-05
2.28327e-05
2.165e-05
2.05179e-05
1.9454e-05
1.84268e-05
1.74639e-05
1.65236e-05
1.56501e-05
1.47985e-05
1.40234e-05
1.32355e-05
1.25268e-05
1.18061e-05
1.11842e-05
1.05161e-05
9.93531e-06
9.31576e-06
8.84688e-06
8.37969e-06
8.09218e-06
7.95541e-06
7.93739e-06
8.14601e-06
4.84041e-05
5.13066e-05
5.22659e-05
5.44396e-05
5.5047e-05
5.67656e-05
5.72723e-05
5.87177e-05
5.91887e-05
6.04204e-05
6.08556e-05
6.18938e-05
6.22666e-05
6.31257e-05
6.34087e-05
6.4095e-05
6.42731e-05
6.47815e-05
6.48473e-05
6.51712e-05
6.51319e-05
6.52728e-05
6.51373e-05
6.5108e-05
6.48671e-05
6.46659e-05
6.43148e-05
6.39385e-05
6.35132e-05
6.31045e-05
6.2566e-05
6.19865e-05
6.1389e-05
6.07689e-05
6.00818e-05
5.93808e-05
5.86406e-05
5.78735e-05
5.70862e-05
5.62747e-05
5.54315e-05
5.4572e-05
5.36947e-05
5.28029e-05
5.1892e-05
5.0958e-05
5.00155e-05
4.90405e-05
4.80633e-05
4.70651e-05
4.6041e-05
4.47585e-05
4.33288e-05
4.19118e-05
4.054e-05
3.91909e-05
3.78785e-05
3.65837e-05
3.53406e-05
3.41002e-05
3.29122e-05
3.17426e-05
3.06073e-05
2.95025e-05
2.84352e-05
2.73946e-05
2.63887e-05
2.54109e-05
2.44621e-05
2.35459e-05
2.26608e-05
2.18196e-05
2.10024e-05
2.02323e-05
1.94865e-05
1.87741e-05
1.80908e-05
1.74372e-05
1.68086e-05
1.6216e-05
1.56472e-05
1.51009e-05
1.45851e-05
1.40773e-05
1.36012e-05
1.31274e-05
1.26815e-05
1.22327e-05
1.18172e-05
1.13949e-05
1.10115e-05
1.06232e-05
1.02832e-05
9.94995e-06
9.69843e-06
9.49764e-06
9.38232e-06
9.32865e-06
9.69816e-06
9.9263e-06
4.59795e-05
4.81063e-05
4.8793e-05
5.0424e-05
5.07685e-05
5.20398e-05
5.22832e-05
5.33558e-05
5.356e-05
5.44714e-05
5.46423e-05
5.5402e-05
5.55199e-05
5.6138e-05
5.6186e-05
5.66627e-05
5.66278e-05
5.68081e-05
5.66292e-05
5.63803e-05
5.61081e-05
5.56448e-05
5.52915e-05
5.4796e-05
5.43062e-05
5.35954e-05
5.29994e-05
5.22742e-05
5.15643e-05
5.07604e-05
4.99671e-05
4.90991e-05
4.82231e-05
4.73625e-05
4.64698e-05
4.5554e-05
4.46794e-05
4.3771e-05
4.28759e-05
4.20044e-05
4.11274e-05
4.02623e-05
3.94235e-05
3.85851e-05
3.77685e-05
3.69784e-05
3.61965e-05
3.54375e-05
3.47054e-05
3.39899e-05
3.32953e-05
3.26269e-05
3.19847e-05
3.13591e-05
3.07639e-05
3.01886e-05
2.96326e-05
2.90956e-05
2.85833e-05
2.80738e-05
2.75939e-05
2.71164e-05
2.66574e-05
2.62076e-05
2.57716e-05
2.53425e-05
2.49299e-05
2.4525e-05
2.41481e-05
2.37592e-05
2.33992e-05
2.30334e-05
2.26879e-05
2.23414e-05
2.20073e-05
2.16713e-05
2.13474e-05
2.10176e-05
2.06982e-05
2.03743e-05
2.0057e-05
1.9734e-05
1.94155e-05
1.90846e-05
1.87557e-05
1.84031e-05
1.80453e-05
1.76586e-05
1.72608e-05
1.68318e-05
1.63921e-05
1.59293e-05
1.54717e-05
1.50203e-05
1.46362e-05
1.4359e-05
1.41545e-05
1.42968e-05
1.47699e-05
1.51116e-05
3.97692e-05
3.99046e-05
3.99619e-05
4.00793e-05
4.01459e-05
4.02525e-05
4.03252e-05
4.0406e-05
4.04548e-05
4.04822e-05
4.048e-05
4.04382e-05
4.03989e-05
4.0274e-05
4.0201e-05
3.99919e-05
3.98741e-05
3.95825e-05
3.9428e-05
3.91544e-05
3.88722e-05
3.85342e-05
3.82327e-05
3.78942e-05
3.74944e-05
3.71146e-05
3.67711e-05
3.63749e-05
3.59765e-05
3.55838e-05
3.52235e-05
3.4825e-05
3.44628e-05
3.41084e-05
3.37736e-05
3.34309e-05
3.31325e-05
3.28306e-05
3.25532e-05
3.22919e-05
3.20476e-05
3.18153e-05
3.16059e-05
3.1404e-05
3.12199e-05
3.10505e-05
3.08898e-05
3.07422e-05
3.06057e-05
3.04756e-05
3.03653e-05
3.02664e-05
3.01751e-05
3.00817e-05
3.00028e-05
2.99351e-05
2.98789e-05
2.98249e-05
2.97911e-05
2.97517e-05
2.9738e-05
2.97171e-05
2.97191e-05
2.9717e-05
2.97336e-05
2.97471e-05
2.97762e-05
2.9803e-05
2.98443e-05
2.98839e-05
2.99365e-05
2.99896e-05
3.00528e-05
3.01222e-05
3.01988e-05
3.02826e-05
3.03734e-05
3.04702e-05
3.05723e-05
3.06764e-05
3.07835e-05
3.08895e-05
3.09945e-05
3.10927e-05
3.11847e-05
3.12652e-05
3.13329e-05
3.13787e-05
3.13939e-05
3.13748e-05
3.13162e-05
3.12166e-05
3.10787e-05
3.091e-05
3.07264e-05
3.05802e-05
3.05818e-05
3.08432e-05
3.13463e-05
3.08315e-05
3.3966e-05
3.37548e-05
3.36686e-05
3.34993e-05
3.34184e-05
3.32639e-05
3.31885e-05
3.30387e-05
3.29642e-05
3.281e-05
3.27323e-05
3.25714e-05
3.24893e-05
3.23064e-05
3.22087e-05
3.20356e-05
3.19419e-05
3.17815e-05
3.16666e-05
3.15092e-05
3.13763e-05
3.12202e-05
3.1094e-05
3.09548e-05
3.08231e-05
3.06927e-05
3.05826e-05
3.04588e-05
3.0352e-05
3.02435e-05
3.01645e-05
3.00667e-05
3.00086e-05
2.99323e-05
2.98926e-05
2.98347e-05
2.98237e-05
2.97886e-05
2.97979e-05
2.97865e-05
2.98141e-05
2.98286e-05
2.98705e-05
2.99084e-05
2.99651e-05
3.00233e-05
3.00928e-05
3.01678e-05
3.02512e-05
3.034e-05
3.04367e-05
3.05392e-05
3.06484e-05
3.0764e-05
3.08869e-05
3.1016e-05
3.11528e-05
3.12948e-05
3.14458e-05
3.16016e-05
3.17671e-05
3.19369e-05
3.21165e-05
3.23004e-05
3.24934e-05
3.26917e-05
3.28988e-05
3.31114e-05
3.33339e-05
3.35624e-05
3.38011e-05
3.4047e-05
3.43035e-05
3.45686e-05
3.4844e-05
3.51289e-05
3.54245e-05
3.57306e-05
3.60495e-05
3.63812e-05
3.67256e-05
3.70845e-05
3.74573e-05
3.78453e-05
3.8248e-05
3.86654e-05
3.90975e-05
3.95458e-05
4.00175e-05
4.05104e-05
4.10363e-05
4.15913e-05
4.21858e-05
4.28175e-05
4.34938e-05
4.42065e-05
4.49294e-05
4.55903e-05
4.57174e-05
4.56775e-05
3.4285e-05
3.40852e-05
3.40035e-05
3.38429e-05
3.37669e-05
3.36237e-05
3.3555e-05
3.34187e-05
3.33515e-05
3.32102e-05
3.3139e-05
3.29874e-05
3.29095e-05
3.27376e-05
3.26468e-05
3.24536e-05
3.23573e-05
3.21964e-05
3.20827e-05
3.19125e-05
3.17804e-05
3.16142e-05
3.14646e-05
3.13117e-05
3.11705e-05
3.10155e-05
3.08728e-05
3.07372e-05
3.0607e-05
3.04709e-05
3.03531e-05
3.02403e-05
3.01429e-05
3.00371e-05
2.99662e-05
2.98863e-05
2.98321e-05
2.97639e-05
2.97341e-05
2.96907e-05
2.96771e-05
2.96596e-05
2.96626e-05
2.96641e-05
2.96855e-05
2.97065e-05
2.97393e-05
2.97794e-05
2.98255e-05
2.98778e-05
2.99396e-05
3.00057e-05
3.00792e-05
3.0161e-05
3.02478e-05
3.0341e-05
3.04425e-05
3.05491e-05
3.06615e-05
3.07803e-05
3.09042e-05
3.10353e-05
3.11705e-05
3.13134e-05
3.14588e-05
3.16117e-05
3.17669e-05
3.19282e-05
3.2093e-05
3.22628e-05
3.24376e-05
3.26172e-05
3.28016e-05
3.29899e-05
3.31829e-05
3.33793e-05
3.35802e-05
3.37845e-05
3.39935e-05
3.42064e-05
3.44249e-05
3.46485e-05
3.48794e-05
3.51173e-05
3.53644e-05
3.56215e-05
3.58915e-05
3.61763e-05
3.64803e-05
3.68049e-05
3.71501e-05
3.75261e-05
3.79413e-05
3.84055e-05
3.8934e-05
3.95449e-05
4.02538e-05
4.10385e-05
4.15494e-05
4.17333e-05
4.0382e-05
4.0562e-05
4.06397e-05
4.08025e-05
4.09038e-05
4.10559e-05
4.11713e-05
4.1298e-05
4.13919e-05
4.14846e-05
4.15224e-05
4.15625e-05
4.15402e-05
4.14904e-05
4.14324e-05
4.1276e-05
4.11865e-05
4.0943e-05
4.08005e-05
4.04998e-05
4.03277e-05
3.99875e-05
3.96486e-05
3.93048e-05
3.89537e-05
3.8538e-05
3.80931e-05
3.76831e-05
3.72732e-05
3.67965e-05
3.63518e-05
3.59091e-05
3.54695e-05
3.49985e-05
3.45757e-05
3.41438e-05
3.37239e-05
3.33083e-05
3.29255e-05
3.25385e-05
3.21702e-05
3.1827e-05
3.14914e-05
3.11648e-05
3.0868e-05
3.05739e-05
3.02919e-05
3.00322e-05
2.97755e-05
2.95288e-05
2.93016e-05
2.90752e-05
2.88551e-05
2.86593e-05
2.84689e-05
2.82757e-05
2.8103e-05
2.79291e-05
2.77745e-05
2.7621e-05
2.74614e-05
2.73331e-05
2.71856e-05
2.70684e-05
2.6931e-05
2.68187e-05
2.66913e-05
2.65775e-05
2.64528e-05
2.63318e-05
2.62001e-05
2.60678e-05
2.5923e-05
2.57729e-05
2.56107e-05
2.54371e-05
2.52508e-05
2.50495e-05
2.48341e-05
2.46017e-05
2.43553e-05
2.40905e-05
2.38087e-05
2.35184e-05
2.32213e-05
2.29071e-05
2.25982e-05
2.22815e-05
2.19799e-05
2.16895e-05
2.14114e-05
2.11583e-05
2.0939e-05
2.07716e-05
2.06744e-05
2.06899e-05
2.08911e-05
2.13564e-05
2.22198e-05
2.28666e-05
4.50259e-05
4.7187e-05
4.78967e-05
4.95753e-05
4.99755e-05
5.13065e-05
5.16174e-05
5.27577e-05
5.3039e-05
5.40244e-05
5.42806e-05
5.51208e-05
5.53278e-05
5.60298e-05
5.61699e-05
5.67315e-05
5.6793e-05
5.72154e-05
5.71936e-05
5.74424e-05
5.73431e-05
5.74061e-05
5.72399e-05
5.70629e-05
5.66711e-05
5.61171e-05
5.55209e-05
5.47845e-05
5.41419e-05
5.33257e-05
5.25423e-05
5.16805e-05
5.08216e-05
4.98826e-05
4.89448e-05
4.7975e-05
4.7006e-05
4.60031e-05
4.50213e-05
4.40254e-05
4.30156e-05
4.20364e-05
4.10516e-05
4.00593e-05
3.91018e-05
3.81365e-05
3.71822e-05
3.62583e-05
3.53406e-05
3.44344e-05
3.35653e-05
3.2704e-05
3.18625e-05
3.10559e-05
3.02724e-05
2.95061e-05
2.87806e-05
2.80637e-05
2.73737e-05
2.67024e-05
2.60548e-05
2.54148e-05
2.4799e-05
2.41967e-05
2.35951e-05
2.30196e-05
2.24405e-05
2.18756e-05
2.13298e-05
2.07931e-05
2.02611e-05
1.97632e-05
1.92559e-05
1.87708e-05
1.82914e-05
1.78197e-05
1.73613e-05
1.69077e-05
1.64673e-05
1.60318e-05
1.56135e-05
1.51962e-05
1.47992e-05
1.4405e-05
1.40271e-05
1.36581e-05
1.33054e-05
1.29678e-05
1.26465e-05
1.23462e-05
1.20652e-05
1.18126e-05
1.15774e-05
1.13862e-05
1.12401e-05
1.11182e-05
1.11967e-05
1.14128e-05
1.19249e-05
1.21964e-05
4.74637e-05
5.03722e-05
5.13533e-05
5.35626e-05
5.42197e-05
5.59922e-05
5.65625e-05
5.8075e-05
5.8621e-05
5.99296e-05
6.04509e-05
6.1575e-05
6.20416e-05
6.29941e-05
6.33773e-05
6.41609e-05
6.44419e-05
6.50527e-05
6.52249e-05
6.56541e-05
6.57204e-05
6.59642e-05
6.59318e-05
6.60009e-05
6.58745e-05
6.57803e-05
6.55395e-05
6.52983e-05
6.49372e-05
6.45437e-05
6.41122e-05
6.36818e-05
6.31254e-05
6.25316e-05
6.19279e-05
6.12859e-05
6.0587e-05
5.9875e-05
5.91252e-05
5.83433e-05
5.75475e-05
5.67239e-05
5.58674e-05
5.50031e-05
5.41141e-05
5.31927e-05
5.22649e-05
5.13328e-05
5.03502e-05
4.93667e-05
4.83587e-05
4.73282e-05
4.62787e-05
4.47836e-05
4.32383e-05
4.16955e-05
4.02229e-05
3.8758e-05
3.73486e-05
3.59623e-05
3.46301e-05
3.33133e-05
3.2047e-05
3.08237e-05
2.96246e-05
2.84799e-05
2.73714e-05
2.6297e-05
2.52636e-05
2.42775e-05
2.33084e-05
2.24083e-05
2.15227e-05
2.06894e-05
1.98827e-05
1.91116e-05
1.83693e-05
1.76571e-05
1.69705e-05
1.63079e-05
1.56769e-05
1.50684e-05
1.44848e-05
1.39192e-05
1.33682e-05
1.28416e-05
1.23328e-05
1.18628e-05
1.13973e-05
1.0966e-05
1.05343e-05
1.01655e-05
9.8071e-06
9.50846e-06
9.20078e-06
8.98808e-06
8.88017e-06
8.80608e-06
9.10937e-06
9.34336e-06
5.03172e-05
5.4008e-05
5.5278e-05
5.80497e-05
5.89975e-05
6.12779e-05
6.21626e-05
6.41381e-05
6.50203e-05
6.67592e-05
6.76307e-05
6.91634e-05
6.99876e-05
7.13293e-05
7.20715e-05
7.3219e-05
7.38562e-05
7.47953e-05
7.53166e-05
7.60339e-05
7.64318e-05
7.69245e-05
7.71904e-05
7.74658e-05
7.75881e-05
7.76569e-05
7.76208e-05
7.75005e-05
7.73016e-05
7.70125e-05
7.6659e-05
7.62226e-05
7.57021e-05
7.51083e-05
7.44286e-05
7.36936e-05
7.29427e-05
7.2152e-05
7.12484e-05
7.03092e-05
6.93659e-05
6.83655e-05
6.7317e-05
6.62649e-05
6.51915e-05
6.40777e-05
6.2952e-05
6.18306e-05
6.06875e-05
5.95311e-05
5.83868e-05
5.72401e-05
5.60875e-05
5.49443e-05
5.38029e-05
5.26585e-05
5.15182e-05
5.03859e-05
4.92447e-05
4.81047e-05
4.69806e-05
4.58581e-05
4.47351e-05
4.36235e-05
4.25038e-05
4.13914e-05
4.02688e-05
3.91462e-05
3.80108e-05
3.68704e-05
3.55919e-05
3.3866e-05
3.22408e-05
3.0658e-05
2.91654e-05
2.77234e-05
2.63419e-05
2.50112e-05
2.37276e-05
2.24858e-05
2.12772e-05
2.01296e-05
1.90339e-05
1.80094e-05
1.69947e-05
1.60001e-05
1.49846e-05
1.40815e-05
1.32721e-05
1.25478e-05
1.16666e-05
1.08291e-05
1.00416e-05
9.48407e-06
8.84821e-06
8.33012e-06
7.92281e-06
7.7906e-06
7.78815e-06
7.97356e-06
5.10829e-05
5.54311e-05
5.69481e-05
6.01936e-05
6.14347e-05
6.41923e-05
6.54102e-05
6.78563e-05
6.90985e-05
7.13065e-05
7.25588e-05
7.45597e-05
7.57912e-05
7.75973e-05
7.8778e-05
8.03776e-05
8.14803e-05
8.28519e-05
8.38508e-05
8.49811e-05
8.58497e-05
8.67376e-05
8.74506e-05
8.8104e-05
8.86421e-05
8.90787e-05
8.94257e-05
8.96573e-05
8.98041e-05
8.98393e-05
8.97854e-05
8.963e-05
8.93777e-05
8.9035e-05
8.86025e-05
8.80915e-05
8.75034e-05
8.68368e-05
8.60765e-05
8.52496e-05
8.43704e-05
8.34202e-05
8.23851e-05
8.13142e-05
8.02287e-05
7.90736e-05
7.78383e-05
7.66034e-05
7.53294e-05
7.39932e-05
7.26457e-05
7.12808e-05
6.98737e-05
6.84438e-05
6.70033e-05
6.55334e-05
6.40414e-05
6.25471e-05
6.10381e-05
5.95183e-05
5.80054e-05
5.64935e-05
5.49867e-05
5.34967e-05
5.20184e-05
5.056e-05
4.91242e-05
4.77101e-05
4.63235e-05
4.49628e-05
4.36269e-05
4.23127e-05
4.10172e-05
3.97413e-05
3.8476e-05
3.72271e-05
3.59948e-05
3.47529e-05
3.353e-05
3.23e-05
3.10686e-05
2.97961e-05
2.84908e-05
2.71743e-05
2.58769e-05
2.44505e-05
2.26698e-05
2.05365e-05
1.86681e-05
1.74481e-05
1.63187e-05
1.46028e-05
1.25265e-05
1.10463e-05
1.04048e-05
9.24247e-06
7.79335e-06
7.24502e-06
7.01068e-06
7.05259e-06
4.80643e-05
5.27017e-05
5.43236e-05
5.77821e-05
5.92491e-05
6.23216e-05
6.38264e-05
6.66368e-05
6.82009e-05
7.08028e-05
7.24046e-05
7.48175e-05
7.6435e-05
7.86692e-05
8.02831e-05
8.23266e-05
8.3908e-05
8.5738e-05
8.72456e-05
8.88484e-05
9.02365e-05
9.1612e-05
9.28385e-05
9.39855e-05
9.50183e-05
9.5947e-05
9.67665e-05
9.74748e-05
9.80729e-05
9.85628e-05
9.89409e-05
9.9217e-05
9.9382e-05
9.94505e-05
9.94143e-05
9.92858e-05
9.90586e-05
9.87394e-05
9.83239e-05
9.78249e-05
9.72482e-05
9.65925e-05
9.5856e-05
9.50547e-05
9.41909e-05
9.32494e-05
9.22336e-05
9.11737e-05
9.00599e-05
8.88726e-05
8.76376e-05
8.63659e-05
8.50333e-05
8.36502e-05
8.22416e-05
8.0805e-05
7.92936e-05
7.77667e-05
7.62026e-05
7.45856e-05
7.29508e-05
7.12737e-05
6.95591e-05
6.78237e-05
6.6057e-05
6.42625e-05
6.24489e-05
6.06107e-05
5.87562e-05
5.68893e-05
5.50164e-05
5.31331e-05
5.12515e-05
4.93759e-05
4.75079e-05
4.56623e-05
4.38405e-05
4.20463e-05
4.02879e-05
3.8566e-05
3.68871e-05
3.52468e-05
3.36378e-05
3.20561e-05
3.04963e-05
2.89564e-05
2.74397e-05
2.58909e-05
2.42835e-05
2.2669e-05
2.09976e-05
1.92236e-05
1.73287e-05
1.5374e-05
1.33503e-05
1.1319e-05
9.52413e-06
8.29352e-06
7.11386e-06
6.58682e-06
4.04205e-05
4.45394e-05
4.60442e-05
4.92624e-05
5.08145e-05
5.38305e-05
5.54888e-05
5.83407e-05
6.00885e-05
6.27841e-05
6.45853e-05
6.71287e-05
6.89717e-05
7.13762e-05
7.32575e-05
7.55221e-05
7.74184e-05
7.95289e-05
8.13889e-05
8.33294e-05
8.5094e-05
8.68561e-05
8.8478e-05
9.00497e-05
9.12955e-05
9.23989e-05
9.34177e-05
9.43445e-05
9.51833e-05
9.59412e-05
9.66116e-05
9.72084e-05
9.77217e-05
9.81659e-05
9.85337e-05
9.8836e-05
9.90693e-05
9.92372e-05
9.93347e-05
9.93703e-05
9.93462e-05
9.92646e-05
9.91253e-05
9.89305e-05
9.86797e-05
9.8369e-05
9.79992e-05
9.75786e-05
9.71037e-05
9.6561e-05
9.57823e-05
9.48379e-05
9.38298e-05
9.27586e-05
9.1634e-05
9.04508e-05
8.92028e-05
8.79123e-05
8.65718e-05
8.51721e-05
8.37425e-05
8.22796e-05
8.07512e-05
7.91808e-05
7.75558e-05
7.58981e-05
7.42039e-05
7.2444e-05
7.06604e-05
6.88178e-05
6.69473e-05
6.50303e-05
6.30683e-05
6.10657e-05
5.90143e-05
5.69124e-05
5.4765e-05
5.25606e-05
5.0304e-05
4.79941e-05
4.56312e-05
4.32227e-05
4.07703e-05
3.82889e-05
3.5788e-05
3.3287e-05
3.08109e-05
2.8381e-05
2.60211e-05
2.37318e-05
2.1498e-05
1.93117e-05
1.71646e-05
1.49812e-05
1.28634e-05
1.08798e-05
9.03131e-06
7.49219e-06
6.57082e-06
7.44658e-06
2.62182e-05
2.8096e-05
2.89716e-05
3.07188e-05
3.17804e-05
3.35558e-05
3.46911e-05
3.64269e-05
3.76599e-05
3.93188e-05
4.06361e-05
4.22322e-05
4.35968e-05
4.51621e-05
4.65587e-05
4.8103e-05
4.95236e-05
5.10392e-05
5.24595e-05
5.39269e-05
5.53128e-05
5.67137e-05
5.80379e-05
5.93548e-05
6.0594e-05
6.18052e-05
6.29442e-05
6.40442e-05
6.50754e-05
6.60605e-05
6.69805e-05
6.78507e-05
6.86592e-05
6.94153e-05
7.01128e-05
7.07569e-05
7.13452e-05
7.18812e-05
7.23645e-05
7.27967e-05
7.31781e-05
7.35099e-05
7.37457e-05
7.38839e-05
7.39897e-05
7.40645e-05
7.41099e-05
7.41283e-05
7.41204e-05
7.40828e-05
7.40146e-05
7.39207e-05
7.3802e-05
7.36558e-05
7.34409e-05
7.31199e-05
7.27554e-05
7.2351e-05
7.19004e-05
7.13957e-05
7.08427e-05
7.02386e-05
6.95868e-05
6.88821e-05
6.81299e-05
6.73288e-05
6.64717e-05
6.55571e-05
6.45918e-05
6.35539e-05
6.24391e-05
6.12554e-05
6.00185e-05
5.86648e-05
5.7243e-05
5.57133e-05
5.40937e-05
5.23697e-05
5.05413e-05
4.86125e-05
4.65758e-05
4.44433e-05
4.22153e-05
3.99035e-05
3.7521e-05
3.50515e-05
3.25197e-05
2.98864e-05
2.71231e-05
2.42663e-05
2.13126e-05
1.83763e-05
1.55215e-05
1.27565e-05
1.02648e-05
8.09841e-06
6.43993e-06
5.22086e-06
4.48009e-06
4.90515e-06
4.88709e-06
4.87173e-06
4.87795e-06
4.88614e-06
4.90344e-06
4.92621e-06
4.9517e-06
4.98308e-06
5.01564e-06
5.05484e-06
5.09507e-06
5.14153e-06
5.18935e-06
5.2432e-06
5.29867e-06
5.36015e-06
5.42357e-06
5.49271e-06
5.56378e-06
5.63983e-06
5.71718e-06
5.79854e-06
5.88033e-06
5.96501e-06
6.04927e-06
6.13499e-06
6.21961e-06
6.30449e-06
6.38781e-06
6.47045e-06
6.55122e-06
6.63067e-06
6.70809e-06
6.78379e-06
6.85743e-06
6.92916e-06
6.99883e-06
7.06655e-06
7.13236e-06
7.19639e-06
7.25868e-06
7.3194e-06
7.3788e-06
7.43735e-06
7.49295e-06
7.54672e-06
7.60037e-06
7.6535e-06
7.70615e-06
7.75849e-06
7.81058e-06
7.86254e-06
7.91453e-06
7.96658e-06
8.01849e-06
8.07044e-06
8.12286e-06
8.17625e-06
8.23054e-06
8.28527e-06
8.34076e-06
8.39796e-06
8.45765e-06
8.51909e-06
8.58315e-06
8.64975e-06
8.71891e-06
8.79183e-06
8.86899e-06
8.94889e-06
9.03213e-06
9.12111e-06
9.2149e-06
9.30997e-06
9.41348e-06
9.51933e-06
9.63152e-06
9.75054e-06
9.87442e-06
1.00074e-05
1.01478e-05
1.02981e-05
1.04598e-05
1.0634e-05
1.08201e-05
1.10058e-05
1.11733e-05
1.12577e-05
1.12154e-05
1.09184e-05
1.01325e-05
8.67866e-06
6.78661e-06
4.69975e-06
3.05342e-06
2.13659e-06
2.11815e-06
3.28672e-06
3.17604e-06
3.35078e-06
8.43172e-06
8.14044e-07
1.05134e-06
1.41286e-06
1.75358e-06
2.06002e-06
2.39952e-06
2.76623e-06
3.1334e-06
3.49569e-06
3.82441e-06
4.10088e-06
4.21199e-06
4.31672e-06
4.60977e-06
5.72585e-06
7.68142e-06
8.95966e-06
8.5504e-06
4.22126e-06
3.74175e-06
1.04402e-06
1.06871e-06
1.30821e-06
1.5229e-06
1.80809e-06
2.14312e-06
2.49363e-06
2.86006e-06
3.25417e-06
3.58723e-06
3.81722e-06
4.02425e-06
4.31347e-06
5.10381e-06
6.73925e-06
8.46342e-06
9.48478e-06
8.35566e-06
4.33172e-06
3.39771e-06
1.51997e-06
1.54897e-06
1.50793e-06
1.65245e-06
1.88904e-06
2.16897e-06
2.49746e-06
2.88096e-06
3.32715e-06
3.52494e-06
3.7547e-06
4.13561e-06
4.83387e-06
6.22305e-06
8.22288e-06
9.14892e-06
9.61145e-06
8.09445e-06
4.4372e-06
3.78459e-06
2.14716e-06
2.16499e-06
1.97878e-06
2.12632e-06
2.22194e-06
2.50497e-06
2.85486e-06
3.34257e-06
3.98604e-06
3.95816e-06
4.41154e-06
5.14012e-06
6.36995e-06
8.27334e-06
9.18964e-06
1.01333e-05
9.36241e-06
7.88289e-06
4.54773e-06
4.44546e-06
3.0455e-06
3.05622e-06
2.75427e-06
3.02651e-06
3.01385e-06
3.3908e-06
3.82041e-06
4.5602e-06
5.20781e-06
5.49262e-06
6.41013e-06
7.55584e-06
9.29488e-06
9.83855e-06
1.04538e-05
1.03155e-05
9.28743e-06
7.51933e-06
4.22854e-06
5.38623e-06
4.28475e-06
4.26482e-06
3.87286e-06
4.24477e-06
4.41495e-06
5.0326e-06
5.97778e-06
7.38153e-06
8.62263e-06
9.49496e-06
1.07701e-05
1.16861e-05
1.11539e-05
1.13302e-05
1.10869e-05
1.03094e-05
9.20589e-06
6.92643e-06
3.45884e-06
6.97415e-06
6.26363e-06
6.2712e-06
6.11037e-06
6.86672e-06
7.84279e-06
9.61866e-06
1.19022e-05
1.61401e-05
1.53813e-05
1.40834e-05
1.3593e-05
1.27828e-05
1.24674e-05
1.20113e-05
1.13432e-05
1.0348e-05
9.12696e-06
6.08523e-06
2.67691e-06
1.07786e-05
1.11834e-05
1.17424e-05
1.30667e-05
1.54908e-05
1.87952e-05
2.02858e-05
1.90724e-05
1.81599e-05
1.68677e-05
1.59784e-05
1.52561e-05
1.44674e-05
1.38534e-05
1.29937e-05
1.17201e-05
1.04462e-05
8.62531e-06
4.87958e-06
1.91616e-06
2.47714e-05
2.73393e-05
2.86639e-05
2.98515e-05
2.81568e-05
2.64195e-05
2.48277e-05
2.32667e-05
2.19159e-05
2.05713e-05
1.93751e-05
1.81714e-05
1.68255e-05
1.55746e-05
1.3703e-05
1.20114e-05
1.02142e-05
7.27991e-06
3.61102e-06
1.20576e-06
4.15786e-05
3.95393e-05
3.7686e-05
3.48687e-05
3.33675e-05
3.07524e-05
2.94269e-05
2.7093e-05
2.59261e-05
2.36758e-05
2.25936e-05
2.01935e-05
1.89531e-05
1.6127e-05
1.44344e-05
1.03589e-05
7.22623e-06
4.52669e-06
2.12495e-06
5.67484e-07
3.89111e-05
3.67489e-05
3.5564e-05
3.28013e-05
3.1448e-05
2.90947e-05
2.79031e-05
2.58722e-05
2.48524e-05
2.30048e-05
2.20345e-05
2.01222e-05
1.89338e-05
1.66872e-05
1.50974e-05
1.21158e-05
8.52779e-06
5.9069e-06
2.47336e-06
5.83085e-07
1.8025e-05
2.01674e-05
2.13618e-05
2.3924e-05
2.42162e-05
2.34791e-05
2.20591e-05
2.10861e-05
1.98774e-05
1.90808e-05
1.81575e-05
1.75287e-05
1.65432e-05
1.58384e-05
1.44034e-05
1.2741e-05
1.12348e-05
8.57418e-06
4.00209e-06
1.23642e-06
9.27455e-06
9.07075e-06
9.24086e-06
9.69558e-06
1.12419e-05
1.35565e-05
1.69494e-05
1.79238e-05
1.69964e-05
1.59865e-05
1.51483e-05
1.4714e-05
1.43213e-05
1.38001e-05
1.33003e-05
1.2502e-05
1.11973e-05
9.50278e-06
5.54106e-06
2.03592e-06
6.61171e-06
5.78669e-06
5.71425e-06
5.36047e-06
5.89291e-06
6.42988e-06
7.68838e-06
9.35982e-06
1.25513e-05
1.37566e-05
1.37958e-05
1.30475e-05
1.28796e-05
1.25553e-05
1.2456e-05
1.17838e-05
1.10531e-05
9.87234e-06
6.84517e-06
2.88113e-06
5.2249e-06
4.06767e-06
4.02556e-06
3.6288e-06
3.95159e-06
4.02672e-06
4.5262e-06
5.23206e-06
6.3606e-06
7.19378e-06
8.17398e-06
9.54574e-06
1.12247e-05
1.11907e-05
1.14939e-05
1.1695e-05
1.08945e-05
9.86096e-06
7.72137e-06
3.73321e-06
4.34691e-06
2.91671e-06
2.89828e-06
2.58309e-06
2.81868e-06
2.80192e-06
3.13752e-06
3.528e-06
4.18106e-06
4.74901e-06
4.89153e-06
5.83852e-06
7.02138e-06
8.96866e-06
9.99362e-06
1.07128e-05
1.0983e-05
9.89075e-06
8.26642e-06
4.55318e-06
3.75984e-06
2.08731e-06
2.09135e-06
1.91045e-06
2.03404e-06
2.12429e-06
2.37607e-06
2.71132e-06
3.15681e-06
3.73754e-06
3.75998e-06
4.127e-06
4.89164e-06
6.17044e-06
8.25114e-06
9.42219e-06
1.06461e-05
9.95604e-06
8.53965e-06
4.71465e-06
3.50916e-06
1.4737e-06
1.47879e-06
1.47264e-06
1.61761e-06
1.85102e-06
2.11855e-06
2.43558e-06
2.79807e-06
3.21398e-06
3.42358e-06
3.65539e-06
3.97909e-06
4.70114e-06
6.16206e-06
8.38717e-06
9.59028e-06
1.02725e-05
8.72543e-06
4.60647e-06
4.13344e-06
1.03296e-06
1.04745e-06
1.27888e-06
1.50397e-06
1.78552e-06
2.11412e-06
2.46294e-06
2.82408e-06
3.20059e-06
3.52159e-06
3.75053e-06
3.96234e-06
4.22892e-06
5.08535e-06
6.89479e-06
8.72393e-06
1.00901e-05
8.9564e-06
4.49947e-06
8.90889e-06
8.17181e-07
1.03853e-06
1.39472e-06
1.73821e-06
2.04141e-06
2.37116e-06
2.7246e-06
3.08278e-06
3.45037e-06
3.77297e-06
4.0185e-06
4.13267e-06
4.22193e-06
4.5096e-06
5.77775e-06
8.01289e-06
9.56038e-06
9.14438e-06
4.38785e-06
1.23417e-06
0.000116535
0.00029414
0.000330904
0.00033481
0.000335356
0.000335357
0.000335342
0.000335343
0.000335345
0.000335345
0.000335343
0.000335342
0.000335357
0.000335356
0.00033481
0.000330904
0.00029414
0.000116536
1.23417e-06
1.36929e-06
6.82084e-05
0.000219696
0.000309562
0.000330915
0.000334528
0.000335273
0.000335316
0.000335296
0.000335287
0.000335287
0.000335296
0.000335316
0.000335273
0.000334528
0.000330915
0.000309562
0.000219696
6.82083e-05
1.36929e-06
1.51411e-06
5.28589e-05
0.000176369
0.000280511
0.000322127
0.000332501
0.000334603
0.0003351
0.000335167
0.000335172
0.000335172