/*--------------------------------*- C++ -*----------------------------------*\
| =========                 |                                                 |
| \\      /  F ield         | OpenFOAM: The Open Source CFD Toolbox           |
|  \\    /   O peration     | Version:  2.1.0                                 |
|   \\  /    A nd           | Web:      www.OpenFOAM.org                      |
|    \\/     M anipulation  |                                                 |
\*---------------------------------------------------------------------------*/
FoamFile
{
    version     2.0;
    format      ascii;
    class       volScalarField;
    location    "0.12";
    object      omega;
}
// * * * * * * * * * * * * * * * * * * * * * * * * * * * * * * * * * * * * * //

dimensions      [0 0 -1 0 0 0 0];

internalField   nonuniform List<scalar> 
6400
(
1342.74
1340.1
1339.21
1338.57
1338.53
1339.05
1339.68
1341.18
1342.61
1344.96
1347.29
1350.42
1353.61
1357.54
1361.56
1366.27
1371.1
1376.51
1382
1387.93
1393.86
1400.1
1406.21
1412.47
1418.5
1424.53
1430.26
1435.86
1441.13
1446.16
1450.84
1455.23
1459.27
1462.98
1466.33
1469.33
1471.96
1474.25
1476.18
1477.77
1479.05
1480.04
1480.44
1480.49
1480.31
1479.82
1479
1477.86
1476.38
1474.57
1472.42
1469.92
1467.05
1463.82
1460.26
1456.37
1452.1
1447.44
1442.46
1437.14
1431.4
1425.21
1418.68
1411.77
1404.42
1396.69
1388.43
1379.48
1370.15
1360.17
1349.46
1338.2
1326.23
1313.54
1300.17
1286.14
1271.47
1256.24
1240.52
1224.37
1207.7
1190.13
1170.94
1151.28
1130.47
1108.2
1084.07
1057
1025.9
988.763
942.749
883.082
803.075
694.498
554.829
485.057
519.733
662.654
771.685
802.971
669.554
666.218
665.162
664.48
664.264
664.276
664.783
665.753
666.605
667.897
669.374
670.961
672.825
674.769
676.963
679.241
681.69
684.262
686.914
689.706
692.521
695.461
698.4
701.431
704.46
707.553
710.645
713.773
716.906
720.064
723.237
726.438
729.668
732.936
736.252
739.629
743.089
746.621
750.223
753.92
757.725
761.644
765.681
769.844
774.162
778.655
783.336
788.208
793.283
798.572
804.091
809.855
815.879
822.184
828.79
835.715
842.974
850.587
858.586
866.991
875.823
885.118
894.922
905.267
916.1
927.419
939.168
951.566
964.6
978.331
992.778
1008.03
1024.12
1041.11
1059.08
1078.1
1098.28
1119.72
1142.57
1167
1192.9
1219.49
1247.38
1276.13
1305.41
1334.56
1362.86
1389.41
1413.36
1433.74
1448.52
1455.3
1456.52
1442.17
1404.38
1318.94
1197.24
1048.37
886.644
728.198
427.576
437.991
442.36
451.13
455.786
464.278
468.777
476.808
481.53
488.648
493.716
500.155
505.306
511.346
516.466
522.25
527.267
532.871
537.779
543.223
548.058
553.343
558.151
563.289
568.103
573.131
577.979
582.962
587.873
592.874
597.878
602.958
608.088
613.3
618.597
623.999
629.516
635.165
640.962
646.917
653.048
659.368
665.886
672.615
679.571
686.766
694.213
701.927
709.918
718.199
726.785
735.689
744.923
754.506
764.452
774.772
785.48
796.593
808.124
820.081
832.478
845.32
858.613
872.353
886.566
901.265
916.468
931.989
947.861
963.975
980.325
996.828
1013.45
1030.14
1046.86
1063.58
1080.29
1096.99
1113.69
1130.42
1147.18
1164
1180.94
1197.94
1214.86
1231.63
1247.85
1263.11
1276.58
1286.22
1290.53
1291.25
1278
1250.21
1198.01
1116.56
1002.63
858.453
698.477
550.259
370.077
383.869
389.552
400.777
406.729
417.472
423.443
433.602
439.589
449.09
455.114
463.995
470.062
478.378
484.5
492.342
498.458
505.948
512.014
519.238
525.265
532.262
538.296
545.097
551.189
557.834
564.027
570.587
576.908
583.461
589.931
596.556
603.197
609.963
616.8
623.752
630.808
637.997
645.319
652.779
660.387
668.147
676.055
684.118
692.338
700.713
709.237
717.91
726.725
735.679
744.764
753.974
763.295
772.721
782.249
791.858
801.534
811.285
821.077
830.9
840.75
850.601
860.434
870.233
880.006
889.733
899.404
908.994
918.493
927.866
937.114
946.186
955.028
963.61
971.837
979.645
986.933
993.598
999.522
1004.57
1008.57
1010.97
1012
1012.13
1009.31
1004.81
997.157
986.731
972.525
954.637
931.865
903.774
868.966
826.702
774.461
711.031
638.574
561.628
492.711
451.657
347.22
361.748
367.751
379.64
386.088
397.531
404.175
415.069
421.811
432.153
438.927
448.749
455.552
464.862
471.71
480.543
487.401
495.828
502.66
510.747
517.528
525.331
532.053
539.615
546.289
553.632
560.291
567.432
574.101
581.075
587.762
594.617
601.312
608.085
614.778
621.501
628.182
634.874
641.541
648.198
654.835
661.463
668.066
674.632
681.166
687.68
694.146
700.555
706.925
713.241
719.481
725.655
731.744
737.737
743.624
749.385
755.001
760.492
765.791
770.905
775.796
780.422
784.773
788.804
792.488
795.773
798.633
801.014
802.877
804.071
804.611
804.732
803.834
802.172
799.551
795.989
791.399
785.718
778.9
770.849
761.646
751.21
739.571
726.671
712.493
697.142
680.625
663.257
644.85
625.6
605.345
584.138
561.436
536.885
509.822
481.275
451.766
425.606
409.535
401.944
321.884
335.889
341.692
353.22
359.533
370.681
377.248
387.887
394.598
404.712
411.467
421.092
427.845
436.982
443.72
452.368
459.069
467.26
473.872
481.656
488.137
495.549
501.868
508.937
515.072
521.829
527.771
534.204
539.959
546.059
551.664
557.476
562.91
568.416
573.669
578.897
583.903
588.833
593.6
598.226
602.68
606.992
611.129
615.077
618.829
622.395
625.746
628.851
631.745
634.385
636.74
638.833
640.587
642.004
643.062
643.671
643.934
643.996
643.604
642.794
641.618
639.899
637.827
635.155
632.062
628.381
624.21
619.468
614.19
608.366
601.965
595.033
587.538
579.607
571.229
562.499
553.41
544.012
534.377
524.571
514.732
504.917
495.183
485.556
476.113
466.963
458.189
449.602
441.228
432.948
425.024
417.009
408.953
400.573
392.265
384.05
377.306
374.031
372.966
372.504
287.558
300.431
305.76
316.358
322.127
332.394
338.351
348.138
354.196
363.438
369.511
378.242
384.238
392.465
398.343
406.049
411.79
418.968
424.516
431.194
436.486
442.675
447.646
453.33
457.959
463.179
467.409
472.103
475.925
480.116
483.557
487.232
490.283
493.386
496.005
498.545
500.62
502.534
504.108
505.383
506.313
506.888
507.137
507.194
506.856
506.05
505.072
503.574
501.821
499.7
497.151
494.338
491.101
487.537
483.672
479.492
475.062
470.349
465.375
460.209
454.826
449.294
443.651
437.882
432.104
426.284
420.5
414.791
409.179
403.715
398.437
393.443
388.68
384.213
380.004
376.091
372.452
369.107
366.061
363.302
360.872
358.702
356.832
355.191
353.804
352.626
351.639
350.768
350.046
349.374
348.823
348.282
347.947
347.8
347.917
349.187
350.949
354.868
356.918
357.148
245.716
256.843
261.427
270.511
275.355
284.105
288.986
297.281
302.122
309.851
314.614
321.754
326.311
332.88
337.141
343.108
347.026
352.34
355.865
360.502
363.598
367.56
370.145
373.385
375.442
377.963
379.391
381.147
382.002
382.843
383.15
383.247
383.059
382.251
381.193
379.863
378.02
375.99
373.627
370.919
367.987
364.807
361.372
357.772
353.976
350.032
346.003
341.862
337.709
333.538
329.377
325.323
321.361
317.548
313.936
310.47
307.258
304.248
301.522
299.037
296.844
294.934
293.318
291.997
290.992
290.258
289.879
289.722
289.708
290.162
290.691
291.626
292.637
294.006
295.456
297.205
299.04
301.13
303.299
305.687
308.137
310.763
313.439
316.251
319.095
322.029
324.961
327.942
330.903
333.884
336.848
339.858
342.93
346.171
349.697
353.861
358.566
364.027
366.707
367.22
198.204
206.098
209.317
215.671
218.903
224.932
228.022
233.648
236.506
241.626
244.239
248.769
251.059
254.917
256.803
259.9
261.384
263.68
264.757
266.256
266.933
267.606
267.836
267.911
267.784
267.209
266.313
265.391
264.139
262.697
261.059
259.368
257.462
255.503
253.464
251.425
249.325
247.3
245.278
243.345
241.501
239.782
238.18
236.756
235.485
234.408
233.527
232.849
232.41
232.201
232.137
232.324
232.754
233.393
234.241
235.303
236.541
238.01
239.623
241.468
243.447
245.64
247.976
250.498
253.183
256.024
259.041
262.203
265.534
269.021
272.668
276.479
280.445
284.579
288.868
293.334
297.958
302.763
307.745
312.926
318.275
323.826
329.543
335.452
341.518
347.762
354.146
360.673
367.279
373.961
380.669
387.394
394.112
400.849
407.647
414.745
422.646
431.604
440.279
444.586
156.678
160.716
162.306
165.28
166.749
169.472
170.814
173.244
174.426
176.506
177.51
179.228
180.048
181.399
182.034
183.033
183.495
184.186
184.501
184.937
185.127
185.371
185.474
185.586
185.624
185.667
185.681
185.745
185.772
185.904
185.994
186.255
186.457
186.877
187.233
187.832
188.357
189.16
189.885
190.876
191.834
193.016
194.206
195.584
197.008
198.583
200.236
202.015
203.886
205.871
207.954
210.147
212.44
214.843
217.346
219.956
222.669
225.494
228.419
231.464
234.611
237.883
241.267
244.775
248.41
252.171
256.071
260.107
264.292
268.628
273.126
277.793
282.636
287.667
292.894
298.331
303.987
309.881
316.011
322.397
329.066
336.024
343.3
350.907
358.873
367.214
375.964
385.151
394.832
405.039
415.861
427.34
439.581
452.655
466.686
481.741
497.742
514.183
527.364
533.246
159.083
163.393
165.108
168.371
169.988
173.001
174.487
177.199
178.528
180.896
182.047
184.043
185.006
186.623
187.393
188.63
189.207
190.084
190.485
191.054
191.305
191.608
191.731
191.84
191.86
191.852
191.805
191.738
191.67
191.608
191.578
191.584
191.606
191.755
191.89
192.212
192.496
193.024
193.51
194.24
194.949
195.887
196.84
197.981
199.186
200.544
201.988
203.57
205.251
207.053
208.964
210.989
213.12
215.364
217.716
220.178
222.75
225.429
228.217
231.118
234.129
237.253
240.499
243.854
247.34
250.945
254.683
258.552
262.561
266.712
271.002
275.446
280.04
284.803
289.73
294.837
300.124
305.604
311.281
317.167
323.27
329.6
336.17
342.989
350.077
357.446
365.119
373.118
381.474
390.212
399.357
408.998
419.226
430.13
441.876
454.64
468.634
483.692
497.082
503.366
200.58
208.685
212.001
218.569
221.959
228.238
231.551
237.486
240.638
246.091
249.055
253.942
256.602
260.932
263.209
266.954
268.794
271.76
273.191
275.389
276.426
277.853
278.497
279.098
279.301
279.358
279.173
278.546
277.688
276.758
275.461
274.005
272.356
270.607
268.663
266.661
264.518
262.385
260.19
258
255.831
253.723
251.663
249.725
247.892
246.204
244.68
243.333
242.18
241.229
240.497
239.999
239.758
239.674
239.8
240.218
240.806
241.626
242.631
243.836
245.24
246.791
248.565
250.449
252.533
254.738
257.1
259.586
262.202
264.943
267.799
270.783
273.862
277.055
280.338
283.713
287.174
290.713
294.327
298.009
301.757
305.559
309.422
313.33
317.276
321.256
325.277
329.34
333.464
337.66
341.97
346.365
350.918
355.686
360.838
366.564
373.165
380.662
386.879
389.723
246.586
257.751
262.357
271.512
276.417
285.271
290.261
298.689
303.691
311.586
316.552
323.908
328.714
335.549
340.122
346.413
350.714
356.413
360.396
365.486
369.103
373.598
376.821
380.688
383.43
386.672
388.913
391.484
393.135
395.085
396.174
397.312
397.841
398.144
398.217
397.952
397.081
396.08
394.634
392.791
390.756
388.305
385.555
382.596
379.292
375.763
372.05
368.104
363.991
359.785
355.449
351.071
346.681
342.291
338.047
333.852
329.883
326.057
322.445
319.061
315.921
313.027
310.448
308.134
306.131
304.426
303.025
301.91
301.09
300.575
300.328
300.249
300.397
300.819
301.371
302.137
303.005
304.03
305.132
306.338
307.602
308.929
310.287
311.676
313.138
314.673
316.288
317.995
319.792
321.713
323.771
326.018
328.504
331.14
334.154
337.715
342.101
346.839
349.039
348.846
286.765
299.577
304.884
315.452
321.208
331.454
337.429
347.21
353.305
362.57
368.688
377.471
383.534
391.835
397.814
405.618
411.492
418.796
424.523
431.359
436.889
443.291
448.582
454.556
459.548
465.108
469.791
474.945
479.262
483.966
487.958
492.172
495.785
499.509
502.79
506.028
508.936
511.713
514.146
516.377
518.354
520.023
521.385
522.498
523.222
523.572
523.694
523.578
522.837
521.931
520.534
518.776
516.659
514.065
511.148
507.761
504.011
499.905
495.416
490.675
485.624
480.288
474.74
468.974
463.083
457.066
450.982
444.895
438.807
432.824
426.969
421.304
415.941
410.791
405.98
401.444
397.217
393.228
389.512
386.011
382.738
379.717
376.9
374.287
371.682
369.129
366.529
364.031
361.505
358.929
356.111
353.284
350.437
347.969
345.397
344.13
343.665
345.592
347.261
347.242
318.799
332.708
338.468
349.917
356.182
367.253
373.777
384.345
391.008
401.064
407.767
417.337
424.041
433.123
439.823
448.42
455.087
463.238
469.823
477.578
484.045
491.44
497.763
504.836
510.992
517.773
523.77
530.266
536.115
542.318
548.033
553.945
559.52
565.18
570.607
576.032
581.314
586.536
591.613
596.609
601.493
606.25
610.87
615.375
619.73
623.923
627.96
631.831
635.504
638.981
642.249
645.298
648.098
650.639
652.864
654.777
656.324
657.547
658.3
658.647
658.738
658.469
657.693
656.606
654.95
652.945
650.34
647.337
643.746
639.668
635.04
629.866
624.177
617.957
611.257
604.052
596.467
588.521
580.308
571.77
562.906
553.67
544.236
534.738
525.227
515.359
504.812
493.635
482.825
472.165
460.389
447.226
433.349
419.873
405.941
392.043
379.604
371.846
368.155
365.088
342.031
356.465
362.422
374.223
380.61
391.967
398.536
409.337
415.987
426.229
432.892
442.596
449.275
458.445
465.15
473.831
480.527
488.792
495.443
503.356
509.943
517.561
524.077
531.443
537.907
545.041
551.486
558.408
564.861
571.61
578.077
584.707
591.192
597.763
604.268
610.816
617.346
623.899
630.451
637.022
643.601
650.189
656.78
663.383
669.992
676.592
683.185
689.784
696.369
702.926
709.47
716
722.491
728.952
735.376
741.75
748.052
754.292
760.429
766.456
772.357
778.129
783.724
789.144
794.322
799.267
803.917
808.265
812.263
815.892
819.099
821.826
823.973
825.521
826.278
826.547
826.19
824.68
822.509
819.149
814.871
809.217
802.264
793.835
783.832
772.098
758.452
742.356
723.794
702.757
679.312
652.479
622.121
588.264
551.743
512.265
472.962
436.819
411.957
397.854
363.122
376.891
382.558
393.75
399.671
410.386
416.311
426.412
432.342
441.758
447.694
456.463
462.41
470.581
476.543
484.219
490.139
497.438
503.273
510.271
516.038
522.77
528.513
535.008
540.776
547.073
552.899
559.065
564.977
571.092
577.107
583.25
589.391
595.636
601.938
608.346
614.858
621.491
628.244
635.127
642.156
649.343
656.695
664.221
671.918
679.793
687.853
696.096
704.524
713.136
721.931
730.908
740.06
749.382
758.869
768.512
778.298
788.231
798.293
808.469
818.765
829.159
839.638
850.205
860.831
871.508
882.223
892.947
903.668
914.441
925.217
936.014
946.802
957.584
968.306
978.96
989.47
999.776
1009.81
1019.45
1028.58
1037.06
1044.74
1051.29
1056.02
1058.35
1059.13
1056.94
1050.45
1038.94
1020.37
994.698
959.807
913.467
853.578
778.709
692.455
598.503
516.342
458.104
419.001
429.448
433.83
442.63
447.289
455.853
460.362
468.357
473.163
480.177
485.273
491.625
496.727
502.669
507.685
513.356
518.236
523.704
528.439
533.718
538.351
543.43
548.009
552.9
557.453
562.19
566.732
571.377
575.936
580.556
585.161
589.817
594.5
599.24
604.038
608.907
613.847
618.885
624.052
629.35
634.794
640.397
646.172
652.132
658.295
664.676
671.292
678.16
685.294
692.709
700.416
708.435
716.781
725.47
734.517
743.942
753.766
764.008
774.685
785.818
797.43
809.542
822.169
835.333
849.051
863.337
878.206
893.673
909.765
926.578
943.794
961.539
979.65
998.185
1017.06
1036.23
1055.66
1075.3
1095.13
1115.12
1135.25
1155.49
1175.98
1196.69
1217.61
1238.68
1259.72
1280.24
1299.56
1316.4
1326.11
1329.68
1322.07
1290.43
1235.33
1154.75
1045.05
908.259
743.763
580.043
661.425
657.837
656.684
655.841
655.538
655.489
655.782
656.692
657.505
658.615
660.001
661.468
663.2
665.001
667.048
669.174
671.465
673.879
676.364
678.992
681.633
684.396
687.154
689.995
692.83
695.717
698.601
701.509
704.414
707.328
710.244
713.166
716.099
719.049
722.025
725.036
728.099
731.208
734.357
737.572
740.86
744.231
747.699
751.272
754.959
758.772
762.733
766.864
771.181
775.698
780.43
785.381
790.567
796.004
801.701
807.684
813.978
820.604
827.581
834.926
842.668
850.843
859.482
868.601
878.244
888.442
899.235
910.671
922.743
935.252
948.603
962.674
977.583
993.354
1010.09
1027.81
1046.63
1066.61
1087.82
1110.39
1134.4
1159.97
1187.3
1216.58
1246.3
1277.23
1307.75
1336.7
1361.93
1378.8
1385.93
1386.89
1376.1
1357.23
1323.24
1264.29
1174.15
1054.89
917.621
762.793
1337.1
1333.43
1332.1
1330.4
1329.69
1329.42
1329.49
1330.17
1331.01
1332.6
1334.33
1336.78
1339.39
1342.68
1346.16
1350.29
1354.62
1359.56
1364.68
1370.3
1376
1382.07
1388.1
1394.36
1400.47
1406.64
1412.57
1418.41
1423.97
1429.33
1434.38
1439.16
1443.59
1447.72
1451.51
1454.96
1458.06
1460.82
1463.25
1465.34
1467.11
1468.56
1469.71
1470.61
1471.06
1471.13
1471
1470.61
1469.97
1469.08
1467.94
1466.54
1464.9
1463
1460.82
1458.36
1455.63
1452.67
1449.46
1445.92
1442.08
1437.97
1433.64
1428.99
1424.05
1418.79
1413.15
1407.17
1400.85
1394.01
1386.61
1378.76
1370.3
1360.9
1350.94
1339.92
1327.97
1315
1300.76
1285.36
1268.53
1250.26
1230.45
1208.94
1185.53
1159.43
1129.74
1093.76
1050.47
996.193
924.576
832.531
730.438
624.99
539.469
493.463
516.271
665.39
793.896
831.828
749.564
298.873
166.189
113.001
88.8143
69.6435
56.5276
50.7364
45.5759
43.5346
43.1677
46.1871
56.5865
75.4157
110.764
174.701
275.606
408.866
569.884
680.648
608.866
302.188
200.145
142.904
108.28
84.8692
72.5779
62.2795
56.2449
53.8723
53.5568
59.0472
71.9761
95.3658
138.41
208.926
308.941
429.205
566.714
648.572
495.014
295.759
225.274
163.466
127.738
103.57
85.8681
74.7405
69.385
67.5554
68.4758
76.3728
93.7681
123.686
173.771
247.651
341.476
444.624
557.385
612.188
414.875
283.061
235.112
173.646
145.282
117.195
102.292
92.0837
87.4987
85.9826
87.35
101.247
124.063
160.65
216.645
289.235
370.753
454.222
536.936
571.975
363.027
274.81
240.08
187.098
163.859
136.458
123.844
113.496
109.474
108.335
117.434
138.373
166.68
209.672
265.862
328.114
391.922
451.058
505.492
529.278
329.542
269.498
243.151
198.679
179.719
157.157
147.515
142.38
141.155
149.543
166.971
192.368
223.732
266.356
311.623
357.612
400.301
438.671
462.796
485.607
314.633
273.912
254.675
223.036
209.835
198.471
195.353
195.328
205.863
219.054
239.468
261.926
289.534
319.981
348.301
375.145
396.212
408.294
405.489
443.539
331.555
311.818
303.308
292.005
288.47
287.353
287.368
292.195
299.368
309.026
320.602
332.517
346.036
357.695
366.872
373.215
376.871
361.204
341.66
405.064
433.427
424.37
420.211
407.437
401.47
393.448
389.629
385.598
383.628
381.497
380.339
378.331
376.159
371.308
365.015
356.623
332.634
297.286
272.988
371.479
518.59
501.408
493.806
475.197
466.434
451.365
443.853
431.17
424.387
413.127
405.774
393.994
383.134
366.639
346.343
314.828
274.15
233.568
215.263
343.342
493.452
477.646
471.254
455.663
448.454
437.106
431.516
423.14
418.757
412.037
407.473
400.571
393.515
383.291
369.327
342.403
301.131
254.375
229.829
344.016
371.733
366.018
363.387
357.04
354.474
352.914
352.592
356.303
360.337
366.895
372.739
379.818
384.376
386.469
386.845
386.104
367.756
330.22
298.502
372.897
308.794
282.096
269.964
251.491
245.208
243.005
245.085
253.39
265.303
281.706
300.739
322.071
345.028
366.811
385.212
398.411
406.742
394.577
370.871
410.967
305.454
263.169
242.859
208.267
193.54
178.449
173.234
171.802
179.806
195.394
219.001
246.987
282.369
321.305
359.767
396.047
424.153
441.009
436.092
454.303
322.461
261.806
235.504
191.552
172.535
148.941
138.63
131.684
129.603
134.953
153.581
180.23
215.824
265.011
318.571
374.191
426.419
471.081
492.099
500.95
355.577
267.44
232.43
179.592
156.402
129.545
117.119
107.301
103.271
102.046
108.803
130.814
160.212
206.897
269.455
340.513
413.464
482.5
533.88
548.34
408.575
277.185
229.457
169.291
140.927
112.809
97.1427
87.361
82.8925
81.4938
83.405
95.7862
120.355
158.864
219.112
299.437
390.181
484.495
567.137
594.088
494.993
288.742
217.432
159.162
124.221
100.92
82.9816
72.0467
66.6068
64.6968
65.3191
73.7674
90.1286
122.347
175.214
255.425
357.86
470.75
588.672
636.828
628.319
297.792
195.299
137.571
105.611
82.7417
69.7388
60.2291
54.4667
52.1772
51.8779
56.9256
70.7404
94.5148
140.126
215.875
324.132
453.335
598.725
675.049
779.249
298.276
163.182
110.201
85.7427
69.3683
55.489
48.8586
44.2926
42.3765
42.0504
45.1404
54.4415
75.1914
111.826
180.374
289.002
431.821
601.621
708.571
646.044
32.1806
12.7381
11.3229
11.19
11.171
11.1705
11.1708
11.1706
11.1705
11.1705
11.1706
11.1708
11.1705
11.171
11.19
11.3229
12.7381
32.1806
646.044
672.659
55.0289
17.03
12.0847
11.3037
11.1803
11.1547
11.1529
11.1534
11.1536
11.1536
11.1534
11.1529
11.1547
11.1803
11.3037
12.0847
17.03
55.0289
672.659
698.591
71.1456
21.1653
13.3066
11.5881
11.2263
11.1552
11.1382
11.1358
11.1355
11.1355
11.1358
11.1382
11.1552
11.2262
11.5881
13.3066
21.1652
71.1454
698.59
723.236
85.912
25.1506
14.6502
12.0444
11.3376
11.1684
11.1265
11.1183
11.1171
11.1171
11.1183
11.1265
11.1684
11.3376
12.0444
14.6502
25.1506
85.9121
723.236
746.568
101.747
29.1832
16.0594
12.5861
11.5226
11.2063
11.1273
11.105
11.1003
11.1003
11.105
11.1273
11.2063
11.5226
12.5861
16.0595
29.1833
101.747
746.568
769.167
118.311
33.34
17.5326
13.1941
11.7612
11.2825
11.1365
11.0944
11.0843
11.0843
11.0944
11.1365
11.2825
11.7612
13.1941
17.5326
33.34
118.311
769.167
790.909
135.093
37.5914
19.0573
13.8525
12.0441
11.3875
11.1601
11.0919
11.0719
11.0719
11.0919
11.1601
11.3875
12.0441
13.8525
19.0574
37.5915
135.093
790.909
811.133
151.393
41.8143
20.5959
14.5395
12.359
11.5186
11.2034
11.0956
11.0625
11.0625
11.0956
11.2034
11.5186
12.359
14.5395
20.596
41.8144
151.393
811.133
829.832
167
45.958
22.1284
15.2418
12.6967
11.6707
11.2604
11.1066
11.0594
11.0594
11.1066
11.2604
11.6707
12.6967
15.2418
22.1284
45.958
167
829.832
847.484
182.239
50.0812
23.6673
15.9598
13.0545
11.8419
11.3319
11.1289
11.0619
11.0619
11.1289
11.3319
11.8419
13.0545
15.9598
23.6673
50.0811
182.239
847.484
864.072
197.129
54.2075
25.2214
16.6948
13.4311
12.0309
11.4176
11.1607
11.0697
11.0697
11.1607
11.4176
12.0309
13.4311
16.6949
25.2215
54.2076
197.129
864.072
879.155
211.288
58.2644
26.7714
17.4383
13.8209
12.2344
11.516
11.2023
11.0862
11.0862
11.2023
11.516
12.2344
13.8209
17.4383
26.7714
58.2641
211.287
879.155
892.648
224.521
62.1834
28.2924
18.1783
14.2169
12.4478
11.6248
11.2531
11.1115
11.1115
11.2531
11.6248
12.4478
14.2169
18.1783
28.2924
62.1833
224.521
892.648
904.893
237.007
65.9843
29.7846
18.9122
14.6163
12.6688
11.7425
11.3125
11.1445
11.1445
11.3125
11.7425
12.6688
14.6162
18.9122
29.7846
65.9842
237.007
904.893
916.063
248.913
69.7196
31.2651
19.6461
15.0208
12.8978
11.8691
11.3805
11.1858
11.1858
11.3805
11.8691
12.8978
15.0207
19.646
31.265
69.7194
248.912
916.063
925.995
260.144
73.3845
32.7374
20.3819
15.4311
13.1346
12.0044
11.4573
11.2355
11.2355
11.4573
12.0044
13.1346
15.431
20.3819
32.7372
73.3841
260.143
925.995
934.561
270.497
76.9165
34.1823
21.1124
15.8434
13.377
12.147
11.5421
11.2933
11.2933
11.5421
12.147
13.377
15.8434
21.1124
34.1823
76.9166
270.497
934.562
941.971
280.024
80.2954
35.5871
21.8304
16.2535
13.6221
12.295
11.6335
11.3583
11.3583
11.6335
12.295
13.6221
16.2535
21.8303
35.587
80.295
280.023
941.971
948.39
288.805
83.5375
36.9548
22.5357
16.6604
13.8689
12.4474
11.7309
11.4298
11.4298
11.7309
12.4474
13.8688
16.6603
22.5354
36.9543
83.5364
288.805
948.391
953.974
297.029
86.689
38.2985
23.2329
17.0658
14.1178
12.6044
11.8342
11.508
11.508
11.8342
12.6044
14.1178
17.0658
23.2331
38.2987
86.6893
297.029
953.974
958.476
304.53
89.7287
39.6199
23.9252
17.4716
14.37
12.7664
11.9437
11.593
11.593
11.9437
12.7664
14.37
17.4715
23.9251
39.6197
89.7284
304.53
958.478
962.123
311.358
92.6468
40.9134
24.6097
17.8764
14.6245
12.9327
12.0588
11.6841
11.6841
12.0588
12.9326
14.6245
17.8763
24.6094
40.9127
92.6451
311.356
962.123
964.942
317.489
95.4096
42.1616
25.2779
18.2756
14.8785
13.1014
12.1781
11.7803
11.7803
12.1781
13.1014
14.8784
18.2755
25.2776
42.1609
95.408
317.488
964.945
967.117
323.006
98.0145
43.3592
25.9261
18.6668
15.1304
13.2715
12.3008
11.8808
11.8808
12.3007
13.2715
15.1304
18.6668
25.9261
43.3592
98.0144
323.005
967.116
968.757
328.086
100.525
44.5272
26.5624
19.0532
15.3815
13.4433
12.4267
11.9854
11.9854
12.4267
13.4433
15.3814
19.053
26.562
44.5261
100.522
328.082
968.761
969.687
332.605
102.939
45.6744
27.1924
19.438
15.6333
13.6174
12.556
12.094
12.0939
12.556
13.6173
15.633
19.4376
27.1914
45.6721
102.933
332.598
969.69
970.02
336.614
105.231
46.7878
27.8112
19.8195
15.8854
13.794
12.6892
12.207
12.207
12.6891
13.7939
15.8852
19.819
27.8102
46.7856
105.226
336.608
970.026
969.892
340.115
107.367
47.8493
28.4099
20.1931
16.1355
13.9717
12.8253
12.3238
12.3238
12.8252
13.9715
16.1353
20.1927
28.4093
47.8479
107.362
340.107
969.899
969.509
343.167
109.355
48.8606
28.9881
20.5576
16.382
14.1489
12.9627
12.4429
12.4428
12.9627
14.1487
16.3817
20.5568
28.9862
48.8562
109.344
343.154
969.519
968.735
345.821
111.23
49.8315
29.5484
20.9136
16.6247
14.3249
13.1004
12.5628
12.5628
13.1002
14.3245
16.624
20.9124
29.5459
49.8256
111.215
345.807
968.748
967.672
348.112
112.988
50.7609
30.0909
21.2612
16.8636
14.4999
13.2386
12.6841
12.684
13.2384
14.4994
16.8628
21.2597
30.0879
50.7543
112.972
348.094
967.691
966.304
350.022
114.598
51.636
30.6104
21.5987
17.0986
14.6742
13.3781
12.8075
12.8074
13.3778
14.6735
17.0974
21.5966
30.6064
51.6271
114.576
350
966.329
964.684
351.565
116.057
52.4556
31.1066
21.9254
17.3291
14.8476
13.5188
12.9331
12.933
13.5185
14.847
17.328
21.9232
31.1018
52.4444
116.03
351.54
964.717
962.912
352.788
117.381
53.2246
31.5819
22.2434
17.5564
15.0207
13.6605
13.0603
13.0602
13.6602
15.0199
17.555
22.2409
31.5767
53.2119
117.348
352.765
962.956
961.098
353.699
118.543
53.9323
32.0323
22.5506
17.7789
15.1918
13.8018
13.1877
13.1876
13.8014
15.191
17.7773
22.5475
32.0258
53.9172
118.509
353.685
961.155
959.282
354.337
119.513
54.5547
32.4444
22.8395
17.9923
15.3583
13.9405
13.3134
13.3132
13.9398
15.357
17.9899
22.835
32.4354
54.534
119.462
354.303
959.355
957.428
354.652
120.265
55.0763
32.8071
23.1021
18.191
15.5162
14.074
13.4354
13.4351
14.0731
15.5143
18.1877
23.0961
32.7955
55.0516
120.212
354.647
957.518
955.535
354.864
120.838
55.5092
33.1216
23.3363
18.3724
15.6637
14.2012
13.553
13.5528
14.2003
15.6619
18.3692
23.3305
33.11
55.4842
120.789
354.843
955.643
953.674
354.975
121.334
55.8783
33.3982
23.5488
18.5416
15.805
14.3258
13.6698
13.6696
14.3251
15.8038
18.5395
23.5448
33.3896
55.856
121.274
355.008
953.805
951.914
354.941
121.694
56.1823
33.6466
23.7502
18.7085
15.9484
14.4548
13.7921
13.792
14.4545
15.9478
18.7072
23.7474
33.6397
56.1633
121.647
354.991
952.07
950.265
354.827
121.801
56.4078
33.8685
23.9458
18.8786
16.0987
14.5918
13.9226
13.9225
14.5917
16.0983
18.8776
23.9433
33.8621
56.392
121.788
354.908
950.436
948.69
354.605
121.785
56.556
34.0629
24.1355
19.0512
16.254
14.7345
14.0589
14.0589
14.7346
16.254
19.0507
24.1339
34.0591
56.5482
121.784
354.732
948.863
947.185
354.154
121.692
56.647
34.2358
24.3188
19.2233
16.4115
14.8807
14.1992
14.1992
14.8809
16.4118
19.2237
24.3196
34.2382
56.6547
121.72
354.381
947.35
945.785
353.57
121.441
56.7158
34.3967
24.4969
19.3959
16.5736
15.0337
14.3473
14.347
15.0334
16.5735
19.3969
24.5008
34.4063
56.739
121.521
353.858
945.937
944.465
353.117
121.263
56.7956
34.5582
24.6801
19.5794
16.7505
15.2035
14.5129
14.5124
15.2026
16.7496
19.5801
24.6851
34.572
56.8279
121.354
353.441
944.603
943.11
352.914
121.209
56.8969
34.7424
24.8927
19.7951
16.9595
15.4051
14.7101
14.7096
15.4043
16.9587
19.7954
24.8972
34.7564
56.931
121.309
353.305
943.228
941.549
352.832
121.221
57.0628
34.9924
25.1684
20.0674
17.2193
15.6533
14.9521
14.9521
15.6538
17.2201
20.0691
25.1734
35.0059
57.0952
121.327
353.291
941.617
939.624
352.743
121.337
57.3512
35.3446
25.5295
20.4102
17.538
15.9529
15.2419
15.2426
15.9554
17.5417
20.4153
25.5384
35.3631
57.3902
121.454
353.25
939.633
937.258
352.538
121.687
57.78
35.8033
25.9705
20.8126
17.902
16.2885
15.5632
15.5645
16.2931
17.9093
20.8235
25.9889
35.8381
57.8477
121.842
353.073
937.168
934.456
352.039
122.121
58.3308
36.3423
26.4585
21.24
18.2763
16.625
15.8806
15.8825
16.6317
18.2877
21.2586
26.4915
36.4042
58.4477
122.362
352.579
934.248
931.273
350.724
122.598
58.9562
36.9117
26.9464
21.6469
18.616
16.9177
16.1498
16.1522
16.9262
18.6315
21.6738
26.9959
37.0051
59.1276
122.916
351.241
930.941
927.804
349.113
123.101
59.5593
37.4411
27.3817
21.9882
18.8786
17.1261
16.3316
16.3341
17.1353
18.896
22.0204
27.4439
37.5601
59.7733
123.462
349.55
927.346
924.126
348.322
123.498
60.0307
37.8541
27.7134
22.2252
19.0335
17.2284
16.4108
16.4131
17.2371
19.0493
22.2558
27.7783
37.9852
60.2672
123.882
348.713
923.545
920.274
348.281
123.765
60.3298
38.0985
27.904
22.3373
19.0797
17.2434
16.4158
16.418
17.2514
19.0925
22.3607
27.9623
38.2288
60.5683
124.156
348.668
919.589
916.265
348.71
124.144
60.4995
38.1783
27.9588
22.3492
19.0598
17.2009
16.3624
16.3642
17.2077
19.0701
22.3674
28.0088
38.3023
60.7213
124.507
349.083
915.509
912.145
350.245
124.941
60.5791
38.1611
27.9346
22.2839
18.9033
16.9753
16.11
16.11
16.9771
18.9034
22.2898
27.977
38.2796
60.7721
125.215
350.505
911.351
908.01
354.495
126.8
60.5695
37.9683
27.7232
21.9477
18.3358
16.2378
15.304
15.2956
16.2151
18.3001
21.9177
27.7415
38.0659
60.7318
126.822
354.464
907.209
904.022
362.752
130.793
60.2875
37.2025
26.8899
20.8011
16.8073
14.5978
13.6563
13.6388
14.5423
16.7026
20.6868
26.8435
37.2336
60.3559
130.53
362.666
903.242
900.367
371.342
135.509
59.181
35.1865
24.8213
18.7024
14.8342
12.7466
11.8494
11.8255
12.6731
14.7047
18.5509
24.7097
35.1325
59.0909
135.219
371.206
899.641
897.145
379.027
139.743
57.4543
32.8938
22.6055
16.5891
12.8784
10.9098
10.0693
10.0412
10.8172
12.7135
16.3951
22.4534
32.8068
57.3044
139.326
378.828
896.503
894.394
385.098
142.682
55.5633
30.7467
20.5421
14.6214
11.0753
9.24491
8.48214
8.44778
9.13039
10.8693
14.3781
20.3519
30.6134
55.3172
141.995
384.817
893.846
892.108
389.36
144.187
53.5818
28.8049
18.7173
12.925
9.54696
7.86679
7.1749
7.13322
7.73691
9.32097
12.636
18.491
28.6273
53.2147
143.173
388.946
891.657
890.243
392.006
144.634
51.6928
27.1408
17.195
11.5414
8.3377
6.79952
6.16898
6.13074
6.6722
8.09743
11.2352
16.9308
26.907
51.209
143.403
391.429
889.899
888.749
393.392
144.624
50.0446
25.7923
15.9911
10.4719
7.41993
5.99158
5.41861
5.39296
5.89139
7.21503
10.1621
15.7073
25.5146
49.4662
143.306
392.696
888.523
887.565
393.921
144.354
48.6871
24.7654
15.0929
9.67251
6.76111
5.41698
4.8864
4.86872
5.3366
6.58224
9.38923
14.8073
24.4562
48.0656
142.778
393.18