/*--------------------------------*- C++ -*----------------------------------*\
| =========                 |                                                 |
| \\      /  F ield         | OpenFOAM: The Open Source CFD Toolbox           |
|  \\    /   O peration     | Version:  2.1.0                                 |
|   \\  /    A nd           | Web:      www.OpenFOAM.org                      |
|    \\/     M anipulation  |                                                 |
\*---------------------------------------------------------------------------*/
FoamFile
{
    version     2.0;
    format      ascii;
    class       volScalarField;
    location    "0.12";
    object      p;
}
// * * * * * * * * * * * * * * * * * * * * * * * * * * * * * * * * * * * * * //

dimensions      [1 -1 -2 0 0 0 0];

internalField   nonuniform List<scalar> 
6400
(
100004
99999.5
99994.9
99990.7
99986.7
99982.9
99979.2
99975.5
99971.9
99968.3
99964.7
99961.1
99957.5
99953.9
99950.4
99946.8
99943.3
99939.7
99936.2
99932.7
99929.2
99925.7
99922.3
99918.8
99915.4
99911.9
99908.5
99905
99901.6
99898.1
99894.6
99891.1
99887.6
99884
99880.4
99876.7
99873
99869.2
99865.3
99861.3
99857.3
99853.1
99848.9
99844.5
99840
99835.4
99830.7
99825.8
99820.7
99815.6
99810.2
99804.7
99799
99793.2
99787.1
99780.8
99774.4
99767.7
99760.7
99753.5
99746.1
99738.4
99730.4
99722.1
99713.6
99704.7
99695.4
99685.8
99675.9
99665.6
99654.8
99643.7
99632.2
99620.2
99607.8
99595
99581.7
99568
99553.7
99539
99523.8
99508
99491.5
99474.2
99456
99436.6
99415.8
99393.2
99368.4
99341.1
99311.2
99279.4
99247.7
99217.7
99189.4
99157.7
99106.4
99000.2
98652.5
97133
100003
99997.6
99992.9
99988.8
99985
99981.3
99977.7
99974.2
99970.6
99967.1
99963.6
99960
99956.5
99953
99949.4
99945.9
99942.4
99938.9
99935.4
99931.9
99928.4
99925
99921.5
99918.1
99914.7
99911.2
99907.8
99904.4
99900.9
99897.5
99894
99890.5
99887
99883.4
99879.8
99876.1
99872.4
99868.6
99864.7
99860.8
99856.7
99852.6
99848.3
99844
99839.5
99834.9
99830.1
99825.2
99820.2
99815.1
99809.7
99804.2
99798.6
99792.7
99786.6
99780.4
99773.9
99767.3
99760.3
99753.2
99745.8
99738.1
99730.1
99721.9
99713.3
99704.5
99695.3
99685.7
99675.8
99665.6
99654.9
99643.8
99632.4
99620.5
99608.1
99595.3
99582.1
99568.4
99554.2
99539.5
99524.3
99508.5
99492
99474.8
99456.6
99437.3
99416.6
99394.1
99369.5
99342.4
99312.8
99281.3
99249.5
99219.6
99193.6
99166
99120.1
99028.4
98748.1
98232.1
100001
99996.3
99991.8
99987.9
99984.2
99980.6
99977.1
99973.6
99970
99966.5
99963
99959.5
99955.9
99952.4
99948.9
99945.3
99941.8
99938.3
99934.8
99931.4
99927.9
99924.5
99921
99917.6
99914.2
99910.8
99907.4
99904
99900.6
99897.1
99893.7
99890.2
99886.7
99883.1
99879.5
99875.9
99872.2
99868.4
99864.5
99860.6
99856.6
99852.5
99848.2
99843.9
99839.4
99834.9
99830.2
99825.3
99820.3
99815.2
99809.9
99804.4
99798.8
99793
99787
99780.8
99774.3
99767.7
99760.8
99753.7
99746.4
99738.8
99730.9
99722.7
99714.2
99705.4
99696.3
99686.8
99677
99666.8
99656.3
99645.3
99634
99622.2
99610
99597.4
99584.3
99570.7
99556.7
99542.1
99527
99511.3
99494.9
99477.7
99459.6
99440.3
99419.6
99397.2
99372.8
99346.2
99317.5
99287.5
99258.1
99231.1
99208.4
99184.5
99153.7
99099
98957.2
99057.5
99998.3
99994.5
99990.7
99987.2
99983.7
99980.2
99976.8
99973.3
99969.8
99966.3
99962.7
99959.2
99955.7
99952.2
99948.6
99945.1
99941.6
99938.1
99934.7
99931.2
99927.8
99924.3
99920.9
99917.6
99914.2
99910.8
99907.4
99904
99900.6
99897.2
99893.8
99890.3
99886.9
99883.3
99879.8
99876.1
99872.5
99868.7
99864.9
99861
99857
99852.9
99848.7
99844.4
99840
99835.5
99830.8
99826.1
99821.1
99816
99810.8
99805.3
99799.8
99794
99788
99781.9
99775.5
99768.9
99762.1
99755.1
99747.8
99740.2
99732.4
99724.3
99715.9
99707.2
99698.1
99688.7
99679
99668.9
99658.4
99647.5
99636.1
99624.4
99612.2
99599.5
99586.4
99572.8
99558.7
99544
99528.7
99512.8
99496.2
99478.8
99460.4
99440.8
99419.9
99397.5
99373.3
99347.4
99320.1
99292.6
99267.1
99245.2
99229.1
99219.5
99217.8
99227
99260.6
99676.3
99994.3
99992.3
99989.6
99986.6
99983.4
99980.1
99976.7
99973.3
99969.9
99966.4
99962.9
99959.3
99955.8
99952.3
99948.8
99945.3
99941.8
99938.3
99934.8
99931.4
99928
99924.6
99921.2
99917.8
99914.5
99911.1
99907.7
99904.4
99901
99897.6
99894.2
99890.8
99887.4
99883.9
99880.3
99876.8
99873.1
99869.4
99865.6
99861.7
99857.8
99853.7
99849.6
99845.3
99840.9
99836.4
99831.8
99827
99822.1
99817.1
99811.8
99806.5
99800.9
99795.1
99789.2
99783.1
99776.7
99770.2
99763.4
99756.3
99749.1
99741.5
99733.7
99725.6
99717.1
99708.4
99699.3
99689.9
99680.1
99670
99659.5
99648.5
99637.2
99625.4
99613.1
99600.4
99587.2
99573.4
99559.2
99544.3
99528.9
99512.8
99495.9
99478.2
99459.5
99439.7
99418.7
99396.3
99372.4
99347.4
99321.9
99297.6
99277.3
99262.6
99257.7
99269.7
99308.6
99401.3
99598.8
100161
99990
99990
99988.3
99986
99983.2
99980.2
99976.9
99973.6
99970.2
99966.7
99963.2
99959.7
99956.2
99952.7
99949.2
99945.7
99942.2
99938.7
99935.3
99931.9
99928.4
99925.1
99921.7
99918.3
99915
99911.6
99908.3
99905
99901.6
99898.3
99894.9
99891.5
99888
99884.6
99881
99877.5
99873.8
99870.1
99866.3
99862.5
99858.5
99854.5
99850.3
99846
99841.7
99837.2
99832.5
99827.7
99822.8
99817.7
99812.5
99807.1
99801.5
99795.7
99789.8
99783.6
99777.3
99770.7
99763.9
99756.9
99749.6
99742
99734.2
99726
99717.6
99708.9
99699.8
99690.4
99680.6
99670.5
99660
99649
99637.6
99625.8
99613.5
99600.7
99587.4
99573.5
99559.1
99544.1
99528.4
99512.1
99494.9
99476.8
99457.8
99437.7
99416.5
99394
99370.6
99346.5
99323
99302.2
99287.3
99281
99290.3
99328
99414.1
99594.8
99921.6
100539
99985.6
99987.7
99987.2
99985.5
99983.2
99980.3
99977.3
99974
99970.6
99967.2
99963.7
99960.2
99956.7
99953.2
99949.7
99946.2
99942.7
99939.3
99935.8
99932.4
99929
99925.6
99922.2
99918.9
99915.5
99912.2
99908.8
99905.5
99902.1
99898.8
99895.4
99892
99888.5
99885
99881.5
99877.9
99874.3
99870.5
99866.7
99862.9
99858.9
99854.8
99850.6
99846.3
99841.9
99837.4
99832.8
99828
99823
99817.9
99812.7
99807.3
99801.7
99795.9
99790
99783.8
99777.4
99770.8
99764
99757
99749.7
99742.1
99734.3
99726.2
99717.7
99709
99699.9
99690.5
99680.8
99670.7
99660.2
99649.2
99637.8
99625.9
99613.5
99600.7
99587.3
99573.3
99558.7
99543.5
99527.6
99511
99493.5
99475
99455.7
99435.3
99413.8
99391.3
99368.2
99345.1
99323.4
99305.7
99296
99298.1
99322.2
99385.9
99519
99779.2
100197
100822
99981.9
99985.6
99986.2
99985.2
99983.2
99980.6
99977.6
99974.4
99971.1
99967.7
99964.2
99960.7
99957.2
99953.7
99950.2
99946.7
99943.2
99939.7
99936.3
99932.8
99929.4
99926
99922.6
99919.2
99915.9
99912.5
99909.2
99905.8
99902.4
99899
99895.6
99892.2
99888.7
99885.2
99881.6
99878
99874.3
99870.6
99866.8
99862.9
99858.9
99854.8
99850.6
99846.3
99841.8
99837.3
99832.6
99827.8
99822.9
99817.8
99812.5
99807.1
99801.5
99795.7
99789.8
99783.6
99777.2
99770.6
99763.8
99756.8
99749.5
99742
99734.2
99726.1
99717.7
99709
99699.9
99690.6
99680.8
99670.7
99660.3
99649.4
99637.9
99626
99613.6
99600.7
99587.2
99573.2
99558.5
99543.1
99526.9
99510
99492.2
99473.4
99453.6
99432.8
99411
99388.4
99365.5
99343.2
99323
99307.8
99302.3
99311.6
99347.4
99435
99608.8
99932.1
100407
101020
99979.1
99984.2
99985.6
99985
99983.2
99980.8
99977.9
99974.7
99971.4
99968
99964.5
99961
99957.5
99954
99950.4
99946.9
99943.4
99939.9
99936.4
99933
99929.5
99926.1
99922.7
99919.3
99915.9
99912.5
99909.2
99905.8
99902.4
99898.9
99895.5
99892
99888.5
99885
99881.4
99877.8
99874.1
99870.3
99866.4
99862.5
99858.5
99854.4
99850.2
99845.8
99841.4
99836.8
99832.2
99827.3
99822.4
99817.3
99812.1
99806.7
99801.1
99795.4
99789.4
99783.3
99777
99770.4
99763.6
99756.6
99749.4
99741.9
99734.1
99726.1
99717.7
99709.1
99700.1
99690.8
99681.1
99671
99660.5
99649.5
99638.2
99626.4
99614
99601.1
99587.5
99573.4
99558.5
99542.9
99526.6
99509.3
99491.1
99472
99451.7
99430.5
99408.3
99385.6
99362.7
99340.8
99321.7
99308.2
99305.3
99320
99366.1
99469.5
99672
100038
100546
101145
99977.8
99983.5
99985.3
99984.9
99983.2
99980.9
99978
99974.9
99971.5
99968.1
99964.6
99961.1
99957.6
99954
99950.5
99946.9
99943.4
99939.9
99936.4
99932.9
99929.5
99926
99922.6
99919.2
99915.8
99912.4
99909
99905.5
99902.1
99898.7
99895.2
99891.7
99888.2
99884.6
99881
99877.3
99873.6
99869.8
99866
99862.1
99858
99853.9
99849.7
99845.4
99841
99836.5
99831.8
99827.1
99822.1
99817.1
99811.8
99806.5
99800.9
99795.2
99789.3
99783.2
99776.9
99770.4
99763.6
99756.7
99749.4
99742
99734.2
99726.2
99717.9
99709.3
99700.4
99691.1
99681.5
99671.5
99661
99650.1
99638.8
99626.9
99614.6
99601.6
99588
99573.7
99558.7
99543
99526.3
99508.8
99490.2
99470.7
99450
99428.3
99405.7
99382.6
99359.6
99337.8
99319.1
99306.5
99304.8
99322.2
99373.4
99484.9
99701.4
100088
100610
101203
99977.9
99983.6
99985.3
99984.9
99983.3
99980.9
99978
99974.9
99971.5
99968.1
99964.6
99961.1
99957.6
99954
99950.5
99946.9
99943.4
99939.9
99936.4
99932.9
99929.5
99926
99922.6
99919.2
99915.8
99912.4
99909
99905.5
99902.1
99898.7
99895.2
99891.7
99888.2
99884.6
99881
99877.3
99873.6
99869.8
99866
99862
99858
99853.9
99849.7
99845.4
99841
99836.5
99831.8
99827
99822.1
99817.1
99811.8
99806.5
99801
99795.2
99789.3
99783.3
99777
99770.5
99763.8
99756.8
99749.6
99742.2
99734.5
99726.5
99718.3
99709.7
99700.8
99691.6
99682
99672
99661.6
99650.7
99639.4
99627.6
99615.2
99602.2
99588.5
99574.2
99559
99543.1
99526.2
99508.3
99489.4
99469.4
99448.3
99426.1
99403.1
99379.5
99356.1
99334.1
99315.1
99302.3
99300.5
99317.7
99368.6
99479.3
99694.2
100079
100598
101191
99979.5
99984.5
99985.7
99985.1
99983.3
99980.8
99977.9
99974.7
99971.4
99968
99964.5
99961
99957.5
99954
99950.4
99946.9
99943.4
99939.9
99936.4
99933
99929.5
99926.1
99922.7
99919.3
99915.9
99912.5
99909.1
99905.7
99902.3
99898.8
99895.4
99891.9
99888.4
99884.8
99881.2
99877.5
99873.8
99870
99866.2
99862.3
99858.2
99854.1
99849.9
99845.6
99841.2
99836.7
99832
99827.2
99822.3
99817.2
99812
99806.7
99801.1
99795.4
99789.5
99783.5
99777.2
99770.7
99764
99757.1
99749.9
99742.5
99734.9
99726.9
99718.7
99710.2
99701.3
99692.2
99682.6
99672.7
99662.3
99651.5
99640.2
99628.3
99615.9
99602.9
99589.2
99574.7
99559.4
99543.3
99526.2
99508
99488.8
99468.4
99446.8
99424.1
99400.4
99376.2
99352.2
99329.6
99309.9
99296
99292.4
99306.7
99352.3
99453.1
99650.8
100010
100513
101112
99982.4
99986
99986.5
99985.4
99983.3
99980.7
99977.7
99974.5
99971.1
99967.7
99964.2
99960.7
99957.2
99953.7
99950.1
99946.6
99943.2
99939.7
99936.2
99932.8
99929.4
99925.9
99922.5
99919.2
99915.8
99912.4
99909
99905.6
99902.2
99898.8
99895.4
99891.9
99888.4
99884.8
99881.3
99877.6
99873.9
99870.2
99866.3
99862.4
99858.4
99854.3
99850.1
99845.9
99841.5
99836.9
99832.3
99827.5
99822.6
99817.6
99812.4
99807
99801.5
99795.8
99789.9
99783.9
99777.6
99771.1
99764.4
99757.5
99750.4
99743
99735.3
99727.4
99719.2
99710.8
99701.9
99692.8
99683.3
99673.4
99663
99652.3
99641
99629.2
99616.7
99603.7
99589.9
99575.4
99560
99543.7
99526.3
99507.9
99488.4
99467.6
99445.5
99422.2
99398
99373
99348.2
99324.7
99303.8
99287.9
99281.3
99290.3
99326
99408.9
99575.3
99888.7
100356
100969
99986.4
99988.2
99987.6
99985.8
99983.4
99980.5
99977.4
99974.1
99970.7
99967.3
99963.8
99960.3
99956.7
99953.2
99949.7
99946.2
99942.7
99939.3
99935.8
99932.4
99928.9
99925.5
99922.1
99918.8
99915.4
99912
99908.6
99905.3
99901.9
99898.5
99895
99891.6
99888.1
99884.6
99881
99877.4
99873.7
99870
99866.1
99862.3
99858.3
99854.2
99850
99845.8
99841.4
99836.9
99832.3
99827.5
99822.6
99817.6
99812.4
99807.1
99801.6
99795.9
99790.1
99784.1
99777.8
99771.4
99764.7
99757.9
99750.8
99743.4
99735.9
99728
99719.8
99711.4
99702.6
99693.5
99684.1
99674.2
99664
99653.2
99641.9
99630.1
99617.7
99604.6
99590.8
99576.2
99560.7
99544.3
99526.8
99508.2
99488.3
99467.1
99444.6
99420.8
99395.9
99370.1
99344.2
99319.4
99297
99278.8
99267.9
99269.9
99292.6
99351.7
99475.8
99723.5
100130
100753
99990.8
99990.6
99988.8
99986.4
99983.5
99980.4
99977.1
99973.8
99970.3
99966.8
99963.3
99959.8
99956.3
99952.8
99949.2
99945.7
99942.2
99938.8
99935.3
99931.9
99928.4
99925
99921.6
99918.3
99914.9
99911.5
99908.1
99904.8
99901.4
99898
99894.5
99891.1
99887.6
99884.1
99880.5
99876.9
99873.2
99869.5
99865.7
99861.8
99857.8
99853.8
99849.6
99845.4
99841
99836.5
99831.9
99827.2
99822.3
99817.3
99812.2
99806.9
99801.4
99795.7
99789.9
99783.9
99777.7
99771.3
99764.7
99757.9
99750.9
99743.6
99736.1
99728.3
99720.2
99711.8
99703.1
99694
99684.6
99674.8
99664.6
99653.9
99642.7
99630.9
99618.6
99605.5
99591.7
99577.1
99561.5
99545
99527.4
99508.5
99488.4
99466.9
99444
99419.7
99394.1
99367.5
99340.4
99314.1
99289.9
99269.1
99253.5
99248
99256.1
99288.6
99364.8
99531.1
99842.6
100455
99995.2
99993
99990.1
99987
99983.8
99980.4
99977
99973.6
99970.1
99966.6
99963
99959.5
99956
99952.4
99948.9
99945.4
99941.9
99938.4
99934.9
99931.5
99928.1
99924.6
99921.2
99917.8
99914.4
99911
99907.6
99904.2
99900.8
99897.4
99894
99890.5
99887
99883.4
99879.9
99876.2
99872.5
99868.8
99865
99861.1
99857.1
99853
99848.9
99844.6
99840.3
99835.8
99831.2
99826.5
99821.6
99816.6
99811.5
99806.2
99800.7
99795.1
99789.3
99783.4
99777.2
99770.8
99764.3
99757.5
99750.5
99743.3
99735.8
99728
99720
99711.7
99703
99694.1
99684.7
99674.9
99664.8
99654.1
99643
99631.3
99618.9
99605.9
99592.1
99577.5
99561.9
99545.3
99527.6
99508.7
99488.4
99466.6
99443.4
99418.7
99392.4
99365
99336.8
99308.9
99282.7
99259.4
99241.1
99227.6
99221.4
99228
99256.7
99334.1
99512.5
100063
99999.2
99995.2
99991.3
99987.7
99984.1
99980.6
99977.1
99973.6
99970
99966.5
99963
99959.4
99955.9
99952.4
99948.8
99945.3
99941.8
99938.3
99934.8
99931.4
99927.9
99924.5
99921.1
99917.6
99914.2
99910.8
99907.4
99904
99900.5
99897.1
99893.6
99890.1
99886.6
99883
99879.4
99875.7
99872
99868.2
99864.4
99860.4
99856.4
99852.3
99848.1
99843.9
99839.5
99834.9
99830.3
99825.6
99820.7
99815.7
99810.5
99805.2
99799.7
99794.1
99788.3
99782.3
99776.1
99769.7
99763.2
99756.4
99749.4
99742.2
99734.7
99727
99719
99710.7
99702.1
99693.2
99683.9
99674.2
99664.1
99653.5
99642.5
99630.8
99618.5
99605.6
99591.8
99577.2
99561.6
99545
99527.3
99508.2
99487.8
99465.9
99442.4
99417.3
99390.6
99362.4
99333.2
99303.9
99275.8
99250.2
99228.5
99210.1
99192.6
99177.8
99166.2
99160.2
99171.7
99565
100002
99997
99992.5
99988.5
99984.7
99981
99977.4
99973.9
99970.3
99966.8
99963.2
99959.7
99956.2
99952.6
99949.1
99945.6
99942.1
99938.6
99935.1
99931.6
99928.1
99924.7
99921.2
99917.8
99914.4
99910.9
99907.5
99904
99900.6
99897.1
99893.6
99890.1
99886.5
99882.9
99879.3
99875.6
99871.8
99868
99864.1
99860.2
99856.1
99852
99847.8
99843.5
99839
99834.5
99829.8
99825
99820.1
99815
99809.8
99804.4
99798.9
99793.2
99787.4
99781.4
99775.1
99768.7
99762.1
99755.3
99748.3
99741
99733.5
99725.7
99717.7
99709.4
99700.8
99691.8
99682.5
99672.8
99662.6
99652
99640.9
99629.2
99617
99604
99590.2
99575.6
99560
99543.4
99525.6
99506.5
99486
99464
99440.4
99415.1
99388
99359.3
99329.4
99299
99269.4
99242.1
99218.1
99197.6
99173
99143.8
99103.9
99034.4
98868.9
98931.1
100004
99998.4
99993.5
99989.3
99985.4
99981.7
99978.1
99974.5
99970.9
99967.4
99963.8
99960.3
99956.7
99953.2
99949.7
99946.2
99942.6
99939.1
99935.7
99932.2
99928.7
99925.2
99921.8
99918.3
99914.9
99911.4
99907.9
99904.5
99901
99897.5
99894
99890.4
99886.9
99883.3
99879.6
99875.9
99872.1
99868.3
99864.4
99860.4
99856.3
99852.2
99848
99843.6
99839.2
99834.6
99829.9
99825.1
99820.1
99815
99809.8
99804.4
99798.8
99793.1
99787.2
99781.2
99774.9
99768.5
99761.9
99755
99748
99740.7
99733.1
99725.3
99717.2
99708.9
99700.2
99691.2
99681.8
99672
99661.8
99651.2
99640
99628.2
99615.8
99602.8
99588.9
99574.1
99558.4
99541.6
99523.6
99504.3
99483.6
99461.4
99437.5
99411.8
99384.3
99355
99324.2
99292.7
99261.6
99232.6
99205.8
99182.4
99160.4
99126.9
99071.6
98965.1
98660.2
98079.6
100005
100000
99995.6
99991.2
99987.2
99983.3
99979.5
99975.8
99972.2
99968.5
99964.9
99961.3
99957.8
99954.2
99950.6
99947.1
99943.5
99940
99936.5
99933
99929.5
99926
99922.5
99919.1
99915.6
99912.1
99908.7
99905.2
99901.7
99898.2
99894.7
99891.1
99887.5
99883.9
99880.2
99876.5
99872.7
99868.9
99865
99861
99856.9
99852.8
99848.5
99844.2
99839.7
99835.2
99830.5
99825.7
99820.7
99815.6
99810.4
99805
99799.4
99793.7
99787.8
99781.8
99775.5
99769.1
99762.4
99755.6
99748.5
99741.2
99733.7
99725.9
99717.8
99709.4
99700.7
99691.7
99682.3
99672.6
99662.4
99651.7
99640.5
99628.8
99616.4
99603.3
99589.4
99574.6
99558.9
99542.1
99524
99504.7
99484
99461.7
99437.7
99411.9
99384.3
99354.9
99323.9
99292.4
99261.5
99232.6
99206.5
99181.2
99149.3
99107.9
99049.7
98933.3
98563.4
96938.9
100586
101807
102326
102619
102819
102968
103084
103179
103256
103320
103373
103418
103455
103486
103511
103531
103545
103555
103558
103556
100537
101523
102128
102507
102760
102940
103076
103182
103268
103337
103395
103442
103480
103511
103536
103555
103569
103576
103578
103573
100807
101548
102069
102446
102717
102916
103066
103183
103275
103350
103410
103459
103498
103530
103554
103573
103585
103591
103591
103585
101064
101666
102108
102451
102714
102915
103071
103193
103290
103367
103430
103480
103520
103551
103574
103590
103601
103605
103604
103594
101281
101791
102177
102488
102736
102932
103087
103210
103309
103388
103452
103502
103541
103571
103593
103608
103616
103618
103616
103601
101462
101906
102253
102538
102771
102959
103111
103233
103332
103411
103475
103525
103563
103592
103612
103624
103630
103630
103626
103606
101606
102003
102322
102588
102808
102989
103137
103258
103356
103435
103498
103547
103585
103612
103630
103639
103643
103641
103634
103609
101714
102079
102379
102631
102842
103017
103162
103281
103379
103457
103520
103569
103605
103630
103645
103653
103653
103650
103640
103612
101784
102130
102418
102663
102869
103041
103184
103302
103398
103476
103539
103586
103622
103645
103659
103664
103662
103656
103645
103613
101819
102156
102440
102680
102884
103054
103196
103313
103409
103487
103549
103596
103631
103654
103667
103671
103668
103661
103648
103614
101809
102146
102430
102671
102875
103046
103188
103306
103403
103481
103544
103592
103627
103651
103664
103668
103666
103658
103643
103614
101756
102104
102394
102640
102847
103021
103165
103285
103383
103463
103526
103576
103612
103637
103652
103658
103658
103652
103639
103606
101672
102041
102343
102598
102812
102990
103137
103259
103358
103439
103504
103555
103593
103620
103637
103646
103647
103644
103634
103603
101551
101953
102276
102546
102770
102954
103106
103230
103331
103413
103479
103531
103571
103600
103620
103631
103635
103634
103627
103600
101395
101845
102197
102487
102725
102918
103074
103201
103303
103386
103453
103506
103547
103578
103600
103614
103621
103622
103618
103596
101203
101721
102113
102430
102684
102886
103046
103174
103277
103360
103427
103481
103523
103556
103580
103596
103606
103609
103607
103591
100976
101587
102036
102387
102658
102866
103027
103154
103256
103337
103403
103457
103499
103533
103559
103577
103589
103594
103594
103583
100708
101460
101991
102379
102658
102864
103020
103142
103239
103318
103382
103434
103477
103511
103538
103558
103572
103579
103580
103573
100425
101430
102050
102440
102700
102888
103030
103141
103231
103305
103365
103416
103457
103491
103518
103539
103554
103563
103565
103560
100465
101716
102249
102552
102759
102915
103037
103136
103218
103286
103342
103390
103430
103464
103491
103513
103529
103539
103543
103541
103385
103383
103382
103382
103381
103380
103380
103379
103379
103379
103379
103379
103379
103380
103380
103381
103382
103382
103383
103385
103382
103380
103380
103379
103379
103379
103378
103378
103378
103378
103378
103378
103378
103378
103379
103379
103379
103380
103380
103382
103381
103379
103379
103379
103379
103379
103379
103379
103379
103379
103379
103379
103379
103379
103379
103379
103379
103379
103379
103381
103381
103380
103380
103379
103379
103379
103379
103379
103379
103379
103379
103379
103379
103379
103379
103379
103379
103380
103380
103381
103381
103379
103379
103379
103379
103379
103379
103379
103379
103379
103379
103379
103379
103379
103379
103379
103379
103379
103379
103381
103380
103379
103379
103378
103378
103378
103378
103378
103378
103378
103378
103378
103378
103378
103378
103378
103378
103379
103379
103380
103380
103378
103378
103378
103378
103378
103378
103378
103378
103378
103378
103378
103378
103378
103378
103378
103378
103378
103378
103380
103379
103377
103377
103377
103377
103377
103377
103377
103377
103377
103377
103377
103377
103377
103377
103377
103377
103377
103377
103379
103378
103377
103377
103377
103376
103376
103376
103376
103376
103376
103376
103376
103376
103376
103376
103376
103377
103377
103377
103378
103378
103376
103376
103376
103376
103376
103376
103376
103376
103376
103376
103376
103376
103376
103376
103376
103376
103376
103376
103378
103377
103375
103375
103375
103375
103375
103375
103375
103375
103375
103375
103375
103375
103375
103375
103375
103375
103375
103375
103377
103376
103375
103375
103374
103374
103374
103374
103374
103374
103374
103374
103374
103374
103374
103374
103374
103375
103375
103375
103376
103376
103374
103374
103374
103374
103374
103374
103374
103374
103374
103374
103374
103374
103374
103374
103374
103374
103374
103374
103376
103375
103373
103373
103373
103373
103373
103373
103373
103373
103373
103373
103373
103373
103373
103373
103373
103373
103373
103373
103375
103374
103373
103372
103372
103372
103372
103372
103372
103372
103372
103372
103372
103372
103372
103372
103372
103372
103372
103373
103374
103373
103372
103372
103372
103371
103371
103371
103371
103371
103371
103371
103371
103371
103371
103371
103371
103372
103372
103372
103373
103372
103371
103371
103371
103371
103371
103371
103371
103371
103371
103371
103371
103371
103371
103371
103371
103371
103371
103371
103372
103372
103370
103370
103370
103370
103370
103370
103370
103370
103370
103370
103370
103370
103370
103370
103370
103370
103370
103370
103372
103371
103369
103369
103369
103369
103369
103369
103369
103369
103369
103369
103369
103369
103369
103369
103369
103369
103369
103369
103371
103370
103369
103368
103368
103368
103368
103368
103368
103368
103368
103368
103368
103368
103368
103368
103368
103368
103369
103369
103370
103369
103368
103368
103368
103368
103368
103367
103367
103367
103367
103367
103367
103367
103367
103368
103368
103368
103368
103368
103369
103368
103367
103367
103367
103367
103367
103367
103367
103367
103367
103367
103367
103367
103367
103367
103367
103367
103367
103367
103368
103367
103366
103366
103366
103366
103366
103366
103366
103366
103366
103366
103366
103366
103366
103366
103366
103366
103366
103366
103367
103367
103365
103365
103365
103365
103365
103365
103365
103365
103365
103365
103365
103365
103365
103365
103365
103365
103365
103365
103367
103366
103365
103364
103364
103364
103364
103364
103364
103364
103364
103364
103364
103364
103364
103364
103364
103364
103364
103365
103366
103365
103364
103364
103364
103364
103364
103363
103363
103363
103363
103363
103363
103363
103363
103364
103364
103364
103364
103364
103365
103364
103363
103363
103363
103363
103363
103363
103363
103363
103363
103363
103363
103363
103363
103363
103363
103363
103363
103363
103364
103363
103362
103362
103362
103362
103362
103362
103362
103362
103362
103362
103362
103362
103362
103362
103362
103362
103362
103362
103363
103362
103361
103361
103361
103361
103361
103361
103361
103361
103361
103361
103361
103361
103361
103361
103361
103361
103361
103361
103362
103362
103361
103360
103360
103360
103360
103360
103360
103360
103360
103360
103360
103360
103360
103360
103360
103360
103360
103361
103362
103361
103360
103360
103360
103360
103360
103359
103359
103359
103359
103359
103359
103359
103359
103360
103360
103360
103360
103360
103361
103360
103359
103359
103359
103359
103359
103359
103359
103359
103359
103359
103359
103359
103359
103359
103359
103359
103359
103359
103360
103359
103358
103358
103358
103358
103358
103358
103358
103358
103358
103358
103358
103358
103358
103358
103358
103358
103358
103358
103359
103358
103357
103357
103357
103357
103357
103357
103357
103357
103357
103357
103357
103357
103357
103357
103357
103357
103357
103357
103358
103357
103357
103356
103356
103356
103356
103356
103356
103356
103356
103356
103356
103356
103356
103356
103356
103356
103356
103357
103357
103357
103356
103356
103356
103356
103356
103356
103356
103356
103356
103356
103356
103356
103356
103356
103356
103356
103356
103356
103357
103356
103355
103355
103355
103355
103355
103355
103355
103355
103355
103355
103355
103355
103355
103355
103355
103355
103355
103355
103356
103355
103354
103354
103354
103354
103354
103354
103354
103354
103354
103354
103354
103354
103354
103354
103354
103354
103354
103354
103355
103354
103353
103353
103353
103353
103353
103353
103353
103353
103353
103353
103353
103353
103353
103353
103353
103353
103353
103353
103354
103354
103353
103353
103353
103353
103353
103353
103353
103353
103353
103353
103353
103353
103353
103353
103353
103353
103353
103353
103354
103353
103352
103352
103352
103352
103352
103352
103352
103352
103352
103352
103352
103352
103352
103352
103352
103352
103352
103352
103353
103352
103351
103351
103351
103351
103351
103351
103351
103351
103351
103351
103351
103351
103351
103351
103351
103351
103351
103351
103352
103351
103350
103350
103350
103351
103351
103351
103351
103351
103351
103351
103351
103351
103351
103351
103351
103350
103350
103350
103351
103351
103350
103350
103350
103350
103350
103350
103350
103350
103350
103350
103350
103350
103350
103350
103350
103350
103350
103350
103351
103350
103349
103349
103349
103349
103349
103349
103349
103349
103349
103349
103349
103349
103349
103349
103349
103349
103349
103349
103350
103350
103349
103348
103348
103349
103349
103349
103349
103349
103349
103349
103349
103349
103349
103349
103349
103348
103348
103349
103350
103349
103348
103348
103348
103348
103348
103348
103348
103348
103348
103348
103348
103348
103348
103348
103348
103348
103348
103348
103349
103348
103347
103347
103347
103347
103347
103347
103347
103347
103347
103347
103347
103347
103347
103347
103347
103347
103347
103347
103348
103348
103347
103347
103347
103347
103347
103347
103347
103347
103347
103347
103347
103347
103347
103347
103347
103347
103347
103347
103348
103347
103346
103346
103346
103346
103346
103346
103346
103346
103346
103346
103346
103346
103346
103346
103346
103346
103346
103346
103347
103347
103345
103345
103345
103345
103345
103345
103345
103346
103346
103346
103346
103345
103345
103345
103345
103345
103345
103345
103346
103346
103345
103345
103345
103345
103345
103345
103345
103345
103345
103345
103345
103345
103345
103345
103345
103345
103345
103345
103346
103345
103344
103344
103344
103344
103344
103344
103344
103344
103344
103344
103344
103344
103344
103344
103344
103344
103344
103344
103345
103345
103343
103343
103343
103343
103343
103344
103344
103344
103344
103344
103344
103344
103344
103343
103343
103343
103343
103343
103345
103344
103343
103342
103342
103342
103343
103343
103343
103343
103343
103343
103343
103343
103343
103343
103342
103342
103342
103343
103344
103343
103342
103342
103342
103342
103342
103342
103342
103342
103342
103342
103342
103342
103342
103342
103342
103342
103342
103342
103343
103342
103341
103341
103341
103341
103341
103341
103341
103341
103341
103341
103341
103341
103341
103341
103341
103341
103341
103341
103342
103341
103340
103340
103340
103340
103340
103340
103341
103342
103342
103342
103342
103341
103340
103340
103340
103340
103340
103340
103341
103340
103339
103339
103339
103339
103339
103339
103340
103340
103340
103340
103340
103340
103339
103339
103339
103339
103338
103339
103340
103339
103338
103337
103337
103337
103337
103337
103337
103336
103336
103336
103336
103337
103337
103337
103337
103337
103337
103337
103339
103337
103336
103336
103336
103336
103336
103336
103337
103337
103337
103337
103337
103337
103336
103336
103336
103336
103336
103336
103337
103336
103335
103335
103335
103336
103336
103337
103338
103339
103339
103339
103339
103338
103337
103336
103336
103335
103335
103335
103336
103335
103334
103334
103334
103334
103334
103334
103333
103333
103332
103332
103333
103333
103334
103334
103334
103334
103334
103334
103335
103334
103333
103333
103333
103333
103333
103332
103332
103332
103332
103332
103332
103332
103332
103333
103333
103333
103333
103333
103334
103333
103332
103332
103332
103332
103333
103333
103333
103333
103334
103333
103333
103333
103333
103332
103332
103332
103332
103332
103333
103332
103331
103331
103331
103331
103331
103332
103332
103331
103331
103330
103331
103332
103332
103331
103331
103331
103331
103331
103332
103330
103330
103330
103330
103330
103329
103329
103329
103328
103328
103328
103329
103329
103329
103330
103330
103330
103330
103330
103331
103329
103329
103329
103329
103329
103328
103328
103328
103328
103328
103328
103328
103328
103328
103329
103329
103329
103329
103329
103330
103329
103328
103328
103328
103328
103328
103328
103329
103329
103329
103329
103329
103329
103329
103329
103329
103329
103329
103328
103329
103328
103327
103327
103328
103328
103328
103328
103327
103327
103327
103327
103327
103328
103328
103328
103328
103328
103328
103328
103328
103327
103327
103327
103327
103327
103327
103327
103327
103327
103327
103327
103327
103327
103327
103327
103327
103327
103327
103327
103327
103326
103326
103326
103326
103326
103326
103327
103327
103327
103327
103328
103327
103327
103327
103327
103326
103326
103326
103326
103326
103325
103325
103325
103325
103325
103326
103326
103326
103326
103326
103326
103325
103326
103326
103326
103326
103326
103326
103326
103326
103324
103324
103324
103324
103325
103325
103325
103324
103325
103325
103324
103324
103325
103325
103325
103325
103325
103325
103325
103325
103323
103323
103323
103323
103324
103324
103324
103324
103324
103324
103324
103324
103324
103324
103324
103324
103324
103324
103324
103324
103322
103322
103322
103322
103323
103323
103323
103323
103323
103323
103323
103323
103323
103323
103323
103323
103323
103323
103323
103323
103321
103321
103321
103321
103321
103322
103322
103322
103323
103323
103324
103324
103323
103323
103322
103322
103322
103322
103322
103322
103320
103320
103320
103320
103320