/*--------------------------------*- C++ -*----------------------------------*\
| =========                 |                                                 |
| \\      /  F ield         | OpenFOAM: The Open Source CFD Toolbox           |
|  \\    /   O peration     | Version:  2.1.0                                 |
|   \\  /    A nd           | Web:      www.OpenFOAM.org                      |
|    \\/     M anipulation  |                                                 |
\*---------------------------------------------------------------------------*/
FoamFile
{
    version     2.0;
    format      ascii;
    class       surfaceScalarField;
    location    "0.12";
    object      phi;
}
// * * * * * * * * * * * * * * * * * * * * * * * * * * * * * * * * * * * * * //

dimensions      [0 3 -1 0 0 0 0];

internalField   nonuniform List<scalar> 
12460
(
-2.36673e-05
-2.83416e-08
-2.3617e-05
-5.02101e-08
-2.35508e-05
-6.62122e-08
-2.34721e-05
-7.87049e-08
-2.33846e-05
-8.75434e-08
-2.32907e-05
-9.38743e-08
-2.3193e-05
-9.77045e-08
-2.30928e-05
-1.00231e-07
-2.29913e-05
-1.01468e-07
-2.2889e-05
-1.0228e-07
-2.27866e-05
-1.02473e-07
-2.26839e-05
-1.02614e-07
-2.25815e-05
-1.02398e-07
-2.24793e-05
-1.02243e-07
-2.23775e-05
-1.01837e-07
-2.22759e-05
-1.01534e-07
-2.21749e-05
-1.01072e-07
-2.20741e-05
-1.00744e-07
-2.19737e-05
-1.00362e-07
-2.18736e-05
-1.00137e-07
-2.17737e-05
-9.99516e-08
-2.16737e-05
-9.99498e-08
-2.15736e-05
-1.0008e-07
-2.14732e-05
-1.00402e-07
-2.13724e-05
-1.00872e-07
-2.12708e-05
-1.01577e-07
-2.11683e-05
-1.02509e-07
-2.10646e-05
-1.03679e-07
-2.09595e-05
-1.05096e-07
-2.08527e-05
-1.06759e-07
-2.07441e-05
-1.08667e-07
-2.06332e-05
-1.10829e-07
-2.052e-05
-1.13254e-07
-2.0404e-05
-1.15947e-07
-2.02851e-05
-1.18898e-07
-2.01631e-05
-1.22091e-07
-2.00375e-05
-1.25511e-07
-1.99084e-05
-1.2918e-07
-1.97753e-05
-1.33098e-07
-1.9638e-05
-1.37237e-07
-1.94964e-05
-1.41585e-07
-1.93503e-05
-1.46161e-07
-1.91994e-05
-1.50924e-07
-1.90435e-05
-1.55839e-07
-1.88826e-05
-1.60922e-07
-1.87165e-05
-1.66125e-07
-1.8545e-05
-1.71477e-07
-1.8368e-05
-1.77027e-07
-1.81852e-05
-1.82727e-07
-1.79967e-05
-1.88562e-07
-1.78021e-05
-1.94535e-07
-1.76015e-05
-2.00648e-07
-1.73946e-05
-2.0686e-07
-1.71814e-05
-2.13186e-07
-1.69618e-05
-2.19645e-07
-1.67356e-05
-2.26187e-07
-1.65028e-05
-2.32823e-07
-1.62632e-05
-2.39544e-07
-1.60169e-05
-2.4633e-07
-1.57637e-05
-2.53229e-07
-1.55035e-05
-2.60204e-07
-1.52362e-05
-2.67245e-07
-1.49618e-05
-2.74392e-07
-1.46802e-05
-2.81614e-07
-1.43913e-05
-2.88943e-07
-1.40949e-05
-2.96433e-07
-1.37908e-05
-3.04086e-07
-1.34789e-05
-3.11907e-07
-1.3159e-05
-3.19864e-07
-1.2831e-05
-3.27956e-07
-1.24948e-05
-3.36246e-07
-1.21501e-05
-3.4472e-07
-1.17967e-05
-3.53406e-07
-1.14343e-05
-3.6239e-07
-1.10626e-05
-3.7172e-07
-1.06811e-05
-3.81504e-07
-1.02892e-05
-3.91908e-07
-9.88598e-06
-4.03176e-07
-9.4703e-06
-4.15674e-07
-9.0404e-06
-4.29898e-07
-8.59393e-06
-4.46475e-07
-8.12776e-06
-4.66169e-07
-7.63797e-06
-4.89788e-07
-7.12e-06
-5.17971e-07
-6.56869e-06
-5.51313e-07
-5.97833e-06
-5.90359e-07
-5.34321e-06
-6.35114e-07
-4.65883e-06
-6.84389e-07
-3.92395e-06
-7.34871e-07
-3.14452e-06
-7.79432e-07
-2.34108e-06
-8.03446e-07
-1.56441e-06
-7.76668e-07
-9.09501e-07
-6.54906e-07
-4.92176e-07
-4.17325e-07
-3.73389e-07
-1.18787e-07
-6.17451e-07
2.44062e-07
-1.49515e-06
8.77694e-07
-3.70026e-06
2.20512e-06
-8.9591e-06
5.25884e-06
1.45562e-05
-2.35153e-05
-3.04156e-05
-7.06236e-08
-3.03097e-05
-1.56042e-07
-3.01746e-05
-2.01332e-07
-3.0025e-05
-2.28258e-07
-2.98693e-05
-2.43288e-07
-2.97114e-05
-2.51731e-07
-2.95539e-05
-2.55227e-07
-2.93978e-05
-2.56307e-07
-2.92441e-05
-2.55243e-07
-2.90928e-05
-2.53526e-07
-2.89444e-05
-2.50886e-07
-2.87988e-05
-2.48251e-07
-2.8656e-05
-2.45194e-07
-2.85159e-05
-2.42354e-07
-2.83784e-05
-2.39303e-07
-2.82434e-05
-2.36553e-07
-2.81107e-05
-2.33724e-07
-2.79802e-05
-2.31258e-07
-2.78517e-05
-2.28858e-07
-2.7725e-05
-2.26849e-07
-2.75999e-05
-2.25035e-07
-2.74762e-05
-2.23653e-07
-2.73537e-05
-2.22631e-07
-2.7232e-05
-2.22081e-07
-2.7111e-05
-2.21908e-07
-2.69904e-05
-2.22158e-07
-2.68701e-05
-2.22806e-07
-2.67499e-05
-2.23872e-07
-2.66296e-05
-2.25373e-07
-2.65091e-05
-2.27304e-07
-2.63881e-05
-2.29665e-07
-2.62664e-05
-2.3247e-07
-2.61439e-05
-2.35738e-07
-2.60204e-05
-2.39476e-07
-2.58956e-05
-2.4367e-07
-2.57694e-05
-2.4829e-07
-2.56416e-05
-2.53313e-07
-2.5512e-05
-2.5878e-07
-2.53804e-05
-2.64688e-07
-2.52467e-05
-2.70987e-07
-2.51106e-05
-2.77683e-07
-2.49719e-05
-2.84817e-07
-2.48305e-05
-2.92321e-07
-2.46863e-05
-3.00133e-07
-2.45389e-05
-3.08311e-07
-2.43882e-05
-3.16781e-07
-2.42343e-05
-3.25401e-07
-2.40771e-05
-3.34183e-07
-2.39167e-05
-3.43154e-07
-2.3753e-05
-3.52291e-07
-2.35859e-05
-3.61601e-07
-2.34154e-05
-3.7111e-07
-2.32415e-05
-3.80751e-07
-2.30642e-05
-3.90535e-07
-2.28834e-05
-4.00471e-07
-2.26991e-05
-4.10476e-07
-2.25113e-05
-4.20574e-07
-2.23201e-05
-4.30758e-07
-2.21255e-05
-4.40965e-07
-2.19275e-05
-4.51233e-07
-2.17261e-05
-4.61541e-07
-2.15215e-05
-4.71856e-07
-2.13137e-05
-4.82181e-07
-2.11029e-05
-4.92491e-07
-2.0889e-05
-5.02827e-07
-2.06722e-05
-5.13232e-07
-2.04525e-05
-5.23721e-07
-2.02301e-05
-5.34327e-07
-2.0005e-05
-5.45003e-07
-1.97772e-05
-5.55778e-07
-1.95466e-05
-5.66788e-07
-1.93133e-05
-5.78023e-07
-1.90772e-05
-5.89562e-07
-1.8838e-05
-6.01603e-07
-1.85954e-05
-6.1426e-07
-1.83492e-05
-6.27744e-07
-1.80987e-05
-6.42357e-07
-1.78434e-05
-6.58517e-07
-1.75823e-05
-6.76799e-07
-1.73142e-05
-6.97962e-07
-1.70378e-05
-7.22912e-07
-1.67512e-05
-7.52748e-07
-1.64522e-05
-7.88721e-07
-1.61383e-05
-8.31899e-07
-1.58065e-05
-8.83141e-07
-1.54537e-05
-9.43183e-07
-1.50769e-05
-1.01187e-06
-1.46743e-05
-1.08705e-06
-1.42459e-05
-1.16324e-06
-1.37958e-05
-1.22952e-06
-1.33342e-05
-1.26503e-06
-1.28788e-05
-1.23208e-06
-1.24595e-05
-1.07419e-06
-1.21497e-05
-7.27184e-07
-1.21393e-05
-1.29187e-07
-1.25914e-05
6.96164e-07
-1.38077e-05
2.09403e-06
-1.62861e-05
4.68356e-06
-2.10146e-05
9.98735e-06
2.48982e-05
-3.13567e-05
-3.36638e-05
-1.17335e-07
-3.35672e-05
-2.52609e-07
-3.34442e-05
-3.24286e-07
-3.33083e-05
-3.64145e-07
-3.31665e-05
-3.85092e-07
-3.30228e-05
-3.95442e-07
-3.28792e-05
-3.98887e-07
-3.27369e-05
-3.98629e-07
-3.25964e-05
-3.95705e-07
-3.24582e-05
-3.91668e-07
-3.23225e-05
-3.86645e-07
-3.21893e-05
-3.81475e-07
-3.20585e-05
-3.75989e-07
-3.19301e-05
-3.70698e-07
-3.18041e-05
-3.65346e-07
-3.16803e-05
-3.60331e-07
-3.15587e-05
-3.5537e-07
-3.14391e-05
-3.50851e-07
-3.13214e-05
-3.4651e-07
-3.12056e-05
-3.42669e-07
-3.10915e-05
-3.39116e-07
-3.09791e-05
-3.36113e-07
-3.08681e-05
-3.33537e-07
-3.07587e-05
-3.31545e-07
-3.06505e-05
-3.30061e-07
-3.05435e-05
-3.29154e-07
-3.04376e-05
-3.28788e-07
-3.03324e-05
-3.2899e-07
-3.0228e-05
-3.29774e-07
-3.01242e-05
-3.31125e-07
-3.00208e-05
-3.33032e-07
-2.99178e-05
-3.35502e-07
-2.9815e-05
-3.38562e-07
-2.97123e-05
-3.42207e-07
-2.96095e-05
-3.46426e-07
-2.95066e-05
-3.5116e-07
-2.94036e-05
-3.56366e-07
-2.93003e-05
-3.62098e-07
-2.91966e-05
-3.68347e-07
-2.90926e-05
-3.75022e-07
-2.89881e-05
-3.8214e-07
-2.88832e-05
-3.89764e-07
-2.87777e-05
-3.97804e-07
-2.86717e-05
-4.06155e-07
-2.85651e-05
-4.14873e-07
-2.84579e-05
-4.23943e-07
-2.83501e-05
-4.33184e-07
-2.82418e-05
-4.42549e-07
-2.81329e-05
-4.52082e-07
-2.80234e-05
-4.61714e-07
-2.79136e-05
-4.71416e-07
-2.78035e-05
-4.81258e-07
-2.7693e-05
-4.91216e-07
-2.75823e-05
-5.01236e-07
-2.74715e-05
-5.11266e-07
-2.73608e-05
-5.21231e-07
-2.72502e-05
-5.31126e-07
-2.714e-05
-5.40922e-07
-2.70305e-05
-5.50549e-07
-2.69217e-05
-5.5998e-07
-2.68141e-05
-5.69179e-07
-2.67078e-05
-5.78108e-07
-2.66033e-05
-5.86703e-07
-2.65009e-05
-5.94905e-07
-2.6401e-05
-6.02736e-07
-2.6304e-05
-6.10197e-07
-2.62105e-05
-6.17264e-07
-2.61208e-05
-6.23961e-07
-2.60356e-05
-6.30211e-07
-2.59554e-05
-6.35991e-07
-2.58807e-05
-6.41506e-07
-2.5812e-05
-6.46723e-07
-2.57498e-05
-6.51707e-07
-2.56947e-05
-6.56763e-07
-2.56469e-05
-6.62047e-07
-2.56068e-05
-6.67849e-07
-2.55746e-05
-6.74593e-07
-2.55502e-05
-6.8287e-07
-2.55335e-05
-6.93466e-07
-2.55241e-05
-7.07401e-07
-2.55212e-05
-7.25856e-07
-2.55237e-05
-7.50205e-07
-2.55304e-05
-7.82016e-07
-2.55394e-05
-8.22904e-07
-2.55486e-05
-8.73976e-07
-2.55557e-05
-9.36082e-07
-2.55585e-05
-1.00901e-06
-2.55557e-05
-1.08989e-06
-2.55471e-05
-1.17179e-06
-2.55349e-05
-1.24176e-06
-2.55237e-05
-1.27625e-06
-2.55203e-05
-1.23545e-06
-2.5536e-05
-1.05848e-06
-2.56002e-05
-6.6303e-07
-2.57587e-05
2.94076e-08
-2.61836e-05
1.12099e-06
-2.70687e-05
2.97917e-06
-2.8784e-05
6.39886e-06
-3.202e-05
1.32233e-05
2.91492e-05
-3.62709e-05
-3.63591e-05
-1.57342e-07
-3.62883e-05
-3.23376e-07
-3.61991e-05
-4.13443e-07
-3.61004e-05
-4.62915e-07
-3.59968e-05
-4.88673e-07
-3.58914e-05
-5.0084e-07
-3.57856e-05
-5.04653e-07
-3.56805e-05
-5.03718e-07
-3.55765e-05
-4.9972e-07
-3.5474e-05
-4.94174e-07
-3.53731e-05
-4.87583e-07
-3.52739e-05
-4.8064e-07
-3.51765e-05
-4.73436e-07
-3.50808e-05
-4.66313e-07
-3.4987e-05
-4.59213e-07
-3.48949e-05
-4.52369e-07
-3.48047e-05
-4.45635e-07
-3.47162e-05
-4.39299e-07
-3.46296e-05
-4.33173e-07
-3.45447e-05
-4.27532e-07
-3.44617e-05
-4.22169e-07
-3.43804e-05
-4.17336e-07
-3.43011e-05
-4.12877e-07
-3.42237e-05
-4.08953e-07
-3.41482e-05
-4.05503e-07
-3.40747e-05
-4.02709e-07
-3.40029e-05
-4.00527e-07
-3.39329e-05
-3.98997e-07
-3.38646e-05
-3.98122e-07
-3.37978e-05
-3.97877e-07
-3.37326e-05
-3.98223e-07
-3.3669e-05
-3.99158e-07
-3.36068e-05
-4.00707e-07
-3.35462e-05
-4.02846e-07
-3.34871e-05
-4.05568e-07
-3.34294e-05
-4.088e-07
-3.33733e-05
-4.12463e-07
-3.33188e-05
-4.16611e-07
-3.32659e-05
-4.21225e-07
-3.32148e-05
-4.2618e-07
-3.31655e-05
-4.31464e-07
-3.31181e-05
-4.37125e-07
-3.30728e-05
-4.43093e-07
-3.30297e-05
-4.4928e-07
-3.29889e-05
-4.55666e-07
-3.29506e-05
-4.62216e-07
-3.29149e-05
-4.68911e-07
-3.28817e-05
-4.75738e-07
-3.28511e-05
-4.82645e-07
-3.28233e-05
-4.89545e-07
-3.27984e-05
-4.96344e-07
-3.27766e-05
-5.03073e-07
-3.2758e-05
-5.09785e-07
-3.27428e-05
-5.1641e-07
-3.27313e-05
-5.2281e-07
-3.27236e-05
-5.28897e-07
-3.27201e-05
-5.34647e-07
-3.2721e-05
-5.40004e-07
-3.27267e-05
-5.44888e-07
-3.27374e-05
-5.49248e-07
-3.27536e-05
-5.53007e-07
-3.27755e-05
-5.56132e-07
-3.28037e-05
-5.58553e-07
-3.28384e-05
-5.60173e-07
-3.28801e-05
-5.61021e-07
-3.29292e-05
-5.61114e-07
-3.29861e-05
-5.60439e-07
-3.3051e-05
-5.59047e-07
-3.31243e-05
-5.56876e-07
-3.32064e-05
-5.53848e-07
-3.32976e-05
-5.50377e-07
-3.33977e-05
-5.46549e-07
-3.3507e-05
-5.42438e-07
-3.36252e-05
-5.38595e-07
-3.37519e-05
-5.35288e-07
-3.38868e-05
-5.32956e-07
-3.40292e-05
-5.32196e-07
-3.41783e-05
-5.33793e-07
-3.43331e-05
-5.38722e-07
-3.44923e-05
-5.48191e-07
-3.46546e-05
-5.63549e-07
-3.48184e-05
-5.86332e-07
-3.49823e-05
-6.18196e-07
-3.51443e-05
-6.60831e-07
-3.53031e-05
-7.15245e-07
-3.54574e-05
-7.81726e-07
-3.5607e-05
-8.5946e-07
-3.57516e-05
-9.45277e-07
-3.58917e-05
-1.0317e-06
-3.60286e-05
-1.10486e-06
-3.6164e-05
-1.1408e-06
-3.62979e-05
-1.10158e-06
-3.64283e-05
-9.28073e-07
-3.65537e-05
-5.37687e-07
-3.66785e-05
1.54237e-07
-3.69046e-05
1.34714e-06
-3.73644e-05
3.43888e-06
-3.82169e-05
7.25142e-06
-3.96343e-05
1.46407e-05
2.90644e-05
-3.95496e-05
-3.89551e-05
-1.81875e-07
-3.89199e-05
-3.58564e-07
-3.88766e-05
-4.56666e-07
-3.88289e-05
-5.10671e-07
-3.87787e-05
-5.38854e-07
-3.87276e-05
-5.5195e-07
-3.86763e-05
-5.55983e-07
-3.86253e-05
-5.54697e-07
-3.85749e-05
-5.50129e-07
-3.85253e-05
-5.43731e-07
-3.84767e-05
-5.36203e-07
-3.84292e-05
-5.28142e-07
-3.83829e-05
-5.19768e-07
-3.83378e-05
-5.11325e-07
-3.82942e-05
-5.0287e-07
-3.8252e-05
-4.94532e-07
-3.82114e-05
-4.86251e-07
-3.81725e-05
-4.7825e-07
-3.81352e-05
-4.70407e-07
-3.80998e-05
-4.62946e-07
-3.80663e-05
-4.55686e-07
-3.80348e-05
-4.48849e-07
-3.80053e-05
-4.42328e-07
-3.7978e-05
-4.36273e-07
-3.79529e-05
-4.30578e-07
-3.79302e-05
-4.25435e-07
-3.79099e-05
-4.20811e-07
-3.78922e-05
-4.16758e-07
-3.7877e-05
-4.13288e-07
-3.78645e-05
-4.10394e-07
-3.78547e-05
-4.08006e-07
-3.78477e-05
-4.06124e-07
-3.78437e-05
-4.0478e-07
-3.78426e-05
-4.03908e-07
-3.78447e-05
-4.03482e-07
-3.785e-05
-4.03524e-07
-3.78585e-05
-4.03963e-07
-3.78703e-05
-4.04758e-07
-3.78857e-05
-4.05887e-07
-3.79045e-05
-4.07288e-07
-3.79271e-05
-4.08939e-07
-3.79534e-05
-4.10825e-07
-3.79836e-05
-4.12884e-07
-3.80178e-05
-4.15103e-07
-3.8056e-05
-4.17454e-07
-3.80983e-05
-4.19867e-07
-3.81449e-05
-4.22309e-07
-3.81959e-05
-4.24781e-07
-3.82513e-05
-4.27242e-07
-3.83112e-05
-4.29658e-07
-3.83756e-05
-4.3187e-07
-3.84449e-05
-4.33851e-07
-3.85189e-05
-4.35757e-07
-3.85977e-05
-4.37556e-07
-3.86815e-05
-4.39093e-07
-3.87701e-05
-4.40287e-07
-3.88636e-05
-4.41126e-07
-3.8962e-05
-4.41591e-07
-3.90653e-05
-4.41611e-07
-3.91734e-05
-4.41143e-07
-3.92862e-05
-4.40153e-07
-3.94038e-05
-4.38586e-07
-3.9526e-05
-4.36387e-07
-3.96527e-05
-4.33469e-07
-3.97838e-05
-4.29851e-07
-3.99193e-05
-4.25607e-07
-4.0059e-05
-4.2074e-07
-4.02028e-05
-4.15275e-07
-4.03505e-05
-4.09173e-07
-4.05021e-05
-4.02218e-07
-4.06581e-05
-3.94413e-07
-4.08189e-05
-3.8579e-07
-4.09845e-05
-3.768e-07
-4.11546e-05
-3.68453e-07
-4.13289e-05
-3.60988e-07
-4.1507e-05
-3.54852e-07
-4.16886e-05
-3.50678e-07
-4.18731e-05
-3.49289e-07
-4.20601e-05
-3.51717e-07
-4.2249e-05
-3.59241e-07
-4.24393e-05
-3.73303e-07
-4.26301e-05
-3.95486e-07
-4.28209e-05
-4.27401e-07
-4.3011e-05
-4.70752e-07
-4.31996e-05
-5.26608e-07
-4.33862e-05
-5.95169e-07
-4.35701e-05
-6.75498e-07
-4.37514e-05
-7.64061e-07
-4.39296e-05
-8.53424e-07
-4.41043e-05
-9.30245e-07
-4.4273e-05
-9.72047e-07
-4.44303e-05
-9.44317e-07
-4.45627e-05
-7.9559e-07
-4.46498e-05
-4.50653e-07
-4.4689e-05
1.93482e-07
-4.47097e-05
1.36779e-06
-4.47287e-05
3.45788e-06
-4.47435e-05
7.26621e-06
-4.44414e-05
1.43386e-05
2.6245e-05
-4.1622e-05
-4.14955e-05
-1.85576e-07
-4.15005e-05
-3.53619e-07
-4.15087e-05
-4.48447e-07
-4.15186e-05
-5.00784e-07
-4.15294e-05
-5.28051e-07
-4.15409e-05
-5.40447e-07
-4.15529e-05
-5.43968e-07
-4.15654e-05
-5.42167e-07
-4.15784e-05
-5.37131e-07
-4.1592e-05
-5.30179e-07
-4.16061e-05
-5.22052e-07
-4.1621e-05
-5.13269e-07
-4.16367e-05
-5.04075e-07
-4.16533e-05
-4.94675e-07
-4.16711e-05
-4.85141e-07
-4.169e-05
-4.75613e-07
-4.17103e-05
-4.65973e-07
-4.1732e-05
-4.56509e-07
-4.17553e-05
-4.4706e-07
-4.17804e-05
-4.37873e-07
-4.18073e-05
-4.28757e-07
-4.18363e-05
-4.19895e-07
-4.18674e-05
-4.11277e-07
-4.19006e-05
-4.02988e-07
-4.19363e-05
-3.94938e-07
-4.19744e-05
-3.87267e-07
-4.20152e-05
-3.80032e-07
-4.20588e-05
-3.73205e-07
-4.21052e-05
-3.6682e-07
-4.21547e-05
-3.60922e-07
-4.22072e-05
-3.55506e-07
-4.22629e-05
-3.50488e-07
-4.23217e-05
-3.45945e-07
-4.23837e-05
-3.41859e-07
-4.24491e-05
-3.38117e-07
-4.25179e-05
-3.34767e-07
-4.259e-05
-3.31858e-07
-4.26654e-05
-3.29316e-07
-4.27442e-05
-3.27096e-07
-4.28263e-05
-3.25195e-07
-4.29116e-05
-3.23628e-07
-4.30001e-05
-3.2235e-07
-4.30917e-05
-3.21274e-07
-4.31864e-05
-3.2043e-07
-4.3284e-05
-3.19857e-07
-4.33844e-05
-3.19457e-07
-4.34875e-05
-3.19179e-07
-4.35932e-05
-3.19059e-07
-4.37014e-05
-3.19048e-07
-4.3812e-05
-3.1911e-07
-4.39247e-05
-3.1911e-07
-4.40397e-05
-3.18851e-07
-4.41572e-05
-3.18303e-07
-4.42772e-05
-3.17537e-07
-4.43997e-05
-3.16571e-07
-4.45246e-05
-3.15394e-07
-4.46518e-05
-3.13977e-07
-4.47811e-05
-3.12283e-07
-4.49124e-05
-3.10242e-07
-4.50458e-05
-3.07795e-07
-4.5181e-05
-3.04892e-07
-4.53182e-05
-3.01463e-07
-4.54571e-05
-2.9743e-07
-4.55979e-05
-2.92659e-07
-4.57407e-05
-2.87129e-07
-4.58853e-05
-2.81e-07
-4.60318e-05
-2.74235e-07
-4.61803e-05
-2.66753e-07
-4.6331e-05
-2.5848e-07
-4.64837e-05
-2.49495e-07
-4.66382e-05
-2.39907e-07
-4.67946e-05
-2.29385e-07
-4.69534e-05
-2.18012e-07
-4.71143e-05
-2.07597e-07
-4.72771e-05
-1.98112e-07
-4.7442e-05
-1.89957e-07
-4.76089e-05
-1.83795e-07
-4.77777e-05
-1.80495e-07
-4.79483e-05
-1.8116e-07
-4.81204e-05
-1.87113e-07
-4.82938e-05
-1.99857e-07
-4.84684e-05
-2.20953e-07
-4.86439e-05
-2.5184e-07
-4.88203e-05
-2.94401e-07
-4.89971e-05
-3.4984e-07
-4.91742e-05
-4.18041e-07
-4.93513e-05
-4.98362e-07
-4.95281e-05
-5.87286e-07
-4.97036e-05
-6.77875e-07
-4.98757e-05
-7.58157e-07
-5.00393e-05
-8.0848e-07
-5.01846e-05
-7.99036e-07
-5.02908e-05
-6.89408e-07
-5.03266e-05
-4.14805e-07
-5.02674e-05
1.34276e-07
-5.00887e-05
1.18906e-06
-4.97079e-05
3.07713e-06
-4.89643e-05
6.52258e-06
-4.72716e-05
1.2646e-05
2.17832e-05
-4.28098e-05
-4.38736e-05
-1.66432e-07
-4.39194e-05
-3.07812e-07
-4.39795e-05
-3.88336e-07
-4.40476e-05
-4.32701e-07
-4.41201e-05
-4.55507e-07
-4.41951e-05
-4.65398e-07
-4.42716e-05
-4.67565e-07
-4.43487e-05
-4.6504e-07
-4.44261e-05
-4.59662e-07
-4.45038e-05
-4.52527e-07
-4.45816e-05
-4.44288e-07
-4.46594e-05
-4.35396e-07
-4.47375e-05
-4.26033e-07
-4.48157e-05
-4.16414e-07
-4.48943e-05
-4.06569e-07
-4.49733e-05
-3.96659e-07
-4.50527e-05
-3.86581e-07
-4.51327e-05
-3.76508e-07
-4.52133e-05
-3.664e-07
-4.52948e-05
-3.56356e-07
-4.53773e-05
-3.46319e-07
-4.54608e-05
-3.36349e-07
-4.55455e-05
-3.26565e-07
-4.56315e-05
-3.16994e-07
-4.57188e-05
-3.07615e-07
-4.58076e-05
-2.98511e-07
-4.58979e-05
-2.89765e-07
-4.59897e-05
-2.81389e-07
-4.60831e-05
-2.73377e-07
-4.61783e-05
-2.65764e-07
-4.62752e-05
-2.58619e-07
-4.63738e-05
-2.51896e-07
-4.64741e-05
-2.45615e-07
-4.65762e-05
-2.39804e-07
-4.66799e-05
-2.34375e-07
-4.67853e-05
-2.29314e-07
-4.68925e-05
-2.24725e-07
-4.70012e-05
-2.20595e-07
-4.71114e-05
-2.16855e-07
-4.72231e-05
-2.13502e-07
-4.73362e-05
-2.10577e-07
-4.74505e-05
-2.0803e-07
-4.7566e-05
-2.05795e-07
-4.76825e-05
-2.0389e-07
-4.78e-05
-2.02346e-07
-4.79184e-05
-2.0107e-07
-4.80376e-05
-2.00024e-07
-4.81574e-05
-1.99226e-07
-4.82779e-05
-1.98598e-07
-4.8399e-05
-1.98021e-07
-4.85206e-05
-1.97477e-07
-4.86425e-05
-1.96958e-07
-4.87644e-05
-1.96339e-07
-4.88864e-05
-1.95548e-07
-4.90084e-05
-1.94581e-07
-4.91304e-05
-1.9343e-07
-4.92523e-05
-1.92055e-07
-4.93742e-05
-1.90396e-07
-4.94961e-05
-1.88368e-07
-4.9618e-05
-1.85909e-07
-4.97399e-05
-1.82947e-07
-4.9862e-05
-1.79405e-07
-4.99842e-05
-1.75209e-07
-5.01067e-05
-1.7017e-07
-5.02296e-05
-1.64161e-07
-5.03531e-05
-1.57543e-07
-5.04771e-05
-1.5022e-07
-5.06018e-05
-1.42046e-07
-5.07273e-05
-1.3297e-07
-5.08536e-05
-1.2322e-07
-5.09804e-05
-1.13073e-07
-5.11075e-05
-1.02278e-07
-5.12361e-05
-8.94108e-08
-5.13656e-05
-7.81192e-08
-5.14962e-05
-6.75287e-08
-5.16282e-05
-5.79729e-08
-5.17618e-05
-5.01474e-08
-5.18974e-05
-4.49586e-08
-5.2035e-05
-4.35217e-08
-5.2175e-05
-4.7161e-08
-5.23174e-05
-5.73791e-08
-5.24625e-05
-7.58434e-08
-5.26108e-05
-1.0358e-07
-5.27624e-05
-1.42797e-07
-5.2917e-05
-1.95275e-07
-5.30752e-05
-2.59772e-07
-5.3237e-05
-3.3659e-07
-5.34015e-05
-4.22839e-07
-5.35668e-05
-5.12504e-07
-5.37294e-05
-5.95583e-07
-5.38818e-05
-6.56078e-07
-5.40103e-05
-6.70534e-07
-5.40914e-05
-6.08297e-07
-5.40848e-05
-4.21468e-07
-5.39356e-05
-1.49317e-08
-5.35849e-05
8.3844e-07
-5.28656e-05
2.35783e-06
-5.14882e-05
5.14512e-06
-4.87692e-05
9.92699e-06
1.63998e-05
-4.33859e-05
-4.58717e-05
-1.25239e-07
-4.59537e-05
-2.25772e-07
-4.6059e-05
-2.83095e-07
-4.61775e-05
-3.14169e-07
-4.63034e-05
-3.2957e-07
-4.64333e-05
-3.35572e-07
-4.65649e-05
-3.35895e-07
-4.66972e-05
-3.32771e-07
-4.68294e-05
-3.27505e-07
-4.6961e-05
-3.20912e-07
-4.70918e-05
-3.13431e-07
-4.72218e-05
-3.05422e-07
-4.73509e-05
-2.96981e-07
-4.7479e-05
-2.88296e-07
-4.76062e-05
-2.79355e-07
-4.77326e-05
-2.70237e-07
-4.78582e-05
-2.61027e-07
-4.7983e-05
-2.51703e-07
-4.8107e-05
-2.4241e-07
-4.82302e-05
-2.33114e-07
-4.83526e-05
-2.23887e-07
-4.84743e-05
-2.14701e-07
-4.85952e-05
-2.05642e-07
-4.87155e-05
-1.96709e-07
-4.88351e-05
-1.87971e-07
-4.89541e-05
-1.7953e-07
-4.90725e-05
-1.71421e-07
-4.91902e-05
-1.63692e-07
-4.93072e-05
-1.56325e-07
-4.94236e-05
-1.4934e-07
-4.95395e-05
-1.42798e-07
-4.96546e-05
-1.36767e-07
-4.9769e-05
-1.31192e-07
-4.98828e-05
-1.26037e-07
-4.99958e-05
-1.21317e-07
-5.01081e-05
-1.1703e-07
-5.02196e-05
-1.13204e-07
-5.03304e-05
-1.09851e-07
-5.04403e-05
-1.06923e-07
-5.05494e-05
-1.04391e-07
-5.06577e-05
-1.02299e-07
-5.07651e-05
-1.00597e-07
-5.08717e-05
-9.92318e-08
-5.09774e-05
-9.82091e-08
-5.10822e-05
-9.75281e-08
-5.11862e-05
-9.71111e-08
-5.12892e-05
-9.69351e-08
-5.13915e-05
-9.69849e-08
-5.14929e-05
-9.71751e-08
-5.15935e-05
-9.73878e-08
-5.16934e-05
-9.76464e-08
-5.17923e-05
-9.80335e-08
-5.18902e-05
-9.84448e-08
-5.1987e-05
-9.87086e-08
-5.20829e-05
-9.87224e-08
-5.21779e-05
-9.84409e-08
-5.22721e-05
-9.78231e-08
-5.23657e-05
-9.67896e-08
-5.24588e-05
-9.52584e-08
-5.25516e-05
-9.31615e-08
-5.26441e-05
-9.04171e-08
-5.27366e-05
-8.69512e-08
-5.28291e-05
-8.26888e-08
-5.29218e-05
-7.74696e-08
-5.30151e-05
-7.08039e-08
-5.31091e-05
-6.35429e-08
-5.32039e-05
-5.54559e-08
-5.32996e-05
-4.63224e-08
-5.33965e-05
-3.61333e-08
-5.34946e-05
-2.50859e-08
-5.35944e-05
-1.3229e-08
-5.36949e-05
-1.78307e-09
-5.37995e-05
1.5143e-08
-5.39058e-05
2.81615e-08
-5.40142e-05
4.08859e-08
-5.41251e-05
5.29338e-08
-5.42388e-05
6.35375e-08
-5.43555e-05
7.17739e-08
-5.44756e-05
7.65516e-08
-5.45993e-05
7.65997e-08
-5.47272e-05
7.04616e-08
-5.48596e-05
5.66222e-08
-5.49967e-05
3.34444e-08
-5.51395e-05
6.87049e-12
-5.52876e-05
-4.71755e-08
-5.54415e-05
-1.05821e-07
-5.56005e-05
-1.77608e-07
-5.5763e-05
-2.60304e-07
-5.59268e-05
-3.48774e-07
-5.60865e-05
-4.35805e-07
-5.62334e-05
-5.09246e-07
-5.63507e-05
-5.53194e-07
-5.64141e-05
-5.44877e-07
-5.63763e-05
-4.59316e-07
-5.61774e-05
-2.13829e-07
-5.56776e-05
3.38644e-07
-5.4695e-05
1.37527e-06
-5.2836e-05
3.28603e-06
-4.94148e-05
6.50584e-06
1.0556e-05
-4.3571e-05
-4.73703e-05
-6.27926e-08
-4.7483e-05
-1.13045e-07
-4.76249e-05
-1.4121e-07
-4.77833e-05
-1.55812e-07
-4.79505e-05
-1.6236e-07
-4.8122e-05
-1.64107e-07
-4.82949e-05
-1.62931e-07
-4.84677e-05
-1.6e-07
-4.86392e-05
-1.5595e-07
-4.88089e-05
-1.51222e-07
-4.89763e-05
-1.46024e-07
-4.91412e-05
-1.40535e-07
-4.93034e-05
-1.34812e-07
-4.94628e-05
-1.28938e-07
-4.96192e-05
-1.22909e-07
-4.97727e-05
-1.16718e-07
-4.99232e-05
-1.10533e-07
-5.00706e-05
-1.04317e-07
-5.02149e-05
-9.81539e-08
-5.03559e-05
-9.20408e-08
-5.04937e-05
-8.60903e-08
-5.06282e-05
-8.02619e-08
-5.07593e-05
-7.45067e-08
-5.08871e-05
-6.88571e-08
-5.10117e-05
-6.34631e-08
-5.11328e-05
-5.83537e-08
-5.12508e-05
-5.34979e-08
-5.13655e-05
-4.89733e-08
-5.1477e-05
-4.47963e-08
-5.15854e-05
-4.09448e-08
-5.16907e-05
-3.74563e-08
-5.17931e-05
-3.44256e-08
-5.18925e-05
-3.17647e-08
-5.19891e-05
-2.9402e-08
-5.20831e-05
-2.73826e-08
-5.21744e-05
-2.571e-08
-5.22632e-05
-2.43546e-08
-5.23498e-05
-2.33347e-08
-5.24341e-05
-2.2614e-08
-5.25163e-05
-2.21482e-08
-5.25966e-05
-2.19686e-08
-5.26752e-05
-2.20383e-08
-5.27521e-05
-2.23066e-08
-5.28276e-05
-2.27794e-08
-5.29016e-05
-2.34401e-08
-5.29745e-05
-2.42175e-08
-5.30464e-05
-2.51001e-08
-5.31173e-05
-2.60598e-08
-5.31875e-05
-2.70143e-08
-5.3257e-05
-2.78964e-08
-5.33259e-05
-2.87156e-08
-5.33944e-05
-2.94715e-08
-5.34628e-05
-3.0069e-08
-5.35312e-05
-3.03758e-08
-5.35996e-05
-3.02895e-08
-5.36683e-05
-2.97653e-08
-5.37373e-05
-2.8769e-08
-5.38069e-05
-2.72124e-08
-5.38771e-05
-2.50246e-08
-5.39482e-05
-2.21276e-08
-5.40201e-05
-1.84433e-08
-5.40932e-05
-1.39117e-08
-5.41674e-05
-8.44351e-09
-5.42426e-05
-2.25215e-09
-5.43199e-05
6.46269e-09
-5.43989e-05
1.5408e-08
-5.44795e-05
2.51714e-08
-5.4562e-05
3.61732e-08
-5.46465e-05
4.83725e-08
-5.47333e-05
6.16974e-08
-5.48223e-05
7.57636e-08
-5.49152e-05
9.11174e-08
-5.50091e-05
1.09081e-07
-5.51068e-05
1.25894e-07
-5.52083e-05
1.42391e-07
-5.53137e-05
1.58317e-07
-5.54232e-05
1.73002e-07
-5.5537e-05
1.85561e-07
-5.56553e-05
1.94924e-07
-5.57786e-05
1.99836e-07
-5.5907e-05
1.98862e-07
-5.60409e-05
1.90504e-07
-5.61802e-05
1.72743e-07
-5.63246e-05
1.44472e-07
-5.6476e-05
1.04212e-07
-5.66332e-05
5.13576e-08
-5.67962e-05
-1.45856e-08
-5.69642e-05
-9.23375e-08
-5.71334e-05
-1.79536e-07
-5.72976e-05
-2.71633e-07
-5.74467e-05
-3.60115e-07
-5.75635e-05
-4.36396e-07
-5.76191e-05
-4.89248e-07
-5.75732e-05
-5.05223e-07
-5.73438e-05
-4.43302e-07
-5.67734e-05
-2.31678e-07
-5.56248e-05
2.26632e-07
-5.34595e-05
1.12076e-06
-4.96053e-05
2.65155e-06
4.50716e-06
-4.35564e-05
-4.82109e-05
1.26254e-08
-4.83416e-05
1.76841e-08
-4.85041e-05
2.12889e-08
-4.8684e-05
2.40597e-08
-4.88727e-05
2.63204e-08
-4.9065e-05
2.82373e-08
-4.92578e-05
2.99095e-08
-4.94492e-05
3.14057e-08
-4.9638e-05
3.27626e-08
-4.98232e-05
3.4023e-08
-5.00044e-05
3.51964e-08
-5.01813e-05
3.63298e-08
-5.03535e-05
3.74295e-08
-5.0521e-05
3.85054e-08
-5.06835e-05
3.95931e-08
-5.08409e-05
4.07011e-08
-5.09932e-05
4.17884e-08
-5.11404e-05
4.28302e-08
-5.12824e-05
4.38723e-08
-5.14193e-05
4.4864e-08
-5.15511e-05
4.5714e-08
-5.16779e-05
4.64931e-08
-5.17997e-05
4.7316e-08
-5.19166e-05
4.81037e-08
-5.20288e-05
4.87156e-08
-5.21364e-05
4.92188e-08
-5.22396e-05
4.96744e-08
-5.23385e-05
4.99615e-08
-5.24333e-05
5.00447e-08
-5.25243e-05
5.00191e-08
-5.26116e-05
4.98311e-08
-5.26954e-05
4.93918e-08
-5.2776e-05
4.88004e-08
-5.28535e-05
4.81383e-08
-5.29282e-05
4.73436e-08
-5.30004e-05
4.64094e-08
-5.30701e-05
4.53719e-08
-5.31376e-05
4.4222e-08
-5.32032e-05
4.29786e-08
-5.32671e-05
4.16815e-08
-5.33293e-05
4.03169e-08
-5.33903e-05
3.88891e-08
-5.345e-05
3.74543e-08
-5.35088e-05
3.60035e-08
-5.35668e-05
3.45471e-08
-5.36242e-05
3.31493e-08
-5.36811e-05
3.18192e-08
-5.37377e-05
3.05717e-08
-5.37942e-05
2.94809e-08
-5.38507e-05
2.85872e-08
-5.39073e-05
2.78785e-08
-5.39642e-05
2.7384e-08
-5.40214e-05
2.72081e-08
-5.40793e-05
2.7469e-08
-5.41378e-05
2.82516e-08
-5.41972e-05
2.95824e-08
-5.42574e-05
3.14921e-08
-5.43187e-05
3.40694e-08
-5.43811e-05
3.73828e-08
-5.44448e-05
4.15289e-08
-5.45098e-05
4.65669e-08
-5.45763e-05
5.25915e-08
-5.46443e-05
5.95768e-08
-5.47144e-05
6.78016e-08
-5.47858e-05
7.78717e-08
-5.48592e-05
8.88369e-08
-5.49349e-05
1.00888e-07
-5.5013e-05
1.14253e-07
-5.50936e-05
1.28956e-07
-5.51768e-05
1.44934e-07
-5.52631e-05
1.62095e-07
-5.53529e-05
1.80913e-07
-5.54453e-05
2.01411e-07
-5.55413e-05
2.219e-07
-5.56413e-05
2.42365e-07
-5.57454e-05
2.62469e-07
-5.5854e-05
2.8159e-07
-5.59673e-05
2.98885e-07
-5.60857e-05
3.13326e-07
-5.62096e-05
3.23688e-07
-5.63393e-05
3.28581e-07
-5.64752e-05
3.26426e-07
-5.66179e-05
3.15477e-07
-5.67677e-05
2.94225e-07
-5.69246e-05
2.61084e-07
-5.70876e-05
2.1437e-07
-5.72562e-05
1.54055e-07
-5.74286e-05
8.00348e-08
-5.76013e-05
-6.83693e-09
-5.77693e-05
-1.03578e-07
-5.79217e-05
-2.07718e-07
-5.80406e-05
-3.1756e-07
-5.80971e-05
-4.32759e-07
-5.80482e-05
-5.54132e-07
-5.7811e-05
-6.80468e-07
-5.72254e-05
-8.17267e-07
-5.60228e-05
-9.7595e-07
-5.37338e-05
-1.16823e-06
-4.9677e-05
-1.4053e-06
-1.62549e-06
-4.35443e-05
-4.81352e-05
8.70657e-08
-4.82642e-05
1.46714e-07
-4.84248e-05
1.8185e-07
-4.86026e-05
2.01901e-07
-4.87893e-05
2.12939e-07
-4.89795e-05
2.18518e-07
-4.91703e-05
2.20709e-07
-4.93597e-05
2.20803e-07
-4.95465e-05
2.19518e-07
-4.97298e-05
2.17369e-07
-4.99093e-05
2.14604e-07
-5.00844e-05
2.11467e-07
-5.0255e-05
2.08046e-07
-5.0421e-05
2.0445e-07
-5.05821e-05
2.00719e-07
-5.07383e-05
1.96894e-07
-5.08895e-05
1.93006e-07
-5.10357e-05
1.89051e-07
-5.11769e-05
1.85095e-07
-5.13132e-05
1.81089e-07
-5.14445e-05
1.77027e-07
-5.15709e-05
1.7293e-07
-5.16925e-05
1.68943e-07
-5.18094e-05
1.64994e-07
-5.19217e-05
1.61034e-07
-5.20296e-05
1.57076e-07
-5.21331e-05
1.5321e-07
-5.22325e-05
1.4937e-07
-5.2328e-05
1.45499e-07
-5.24197e-05
1.41694e-07
-5.25078e-05
1.37909e-07
-5.25924e-05
1.34085e-07
-5.26739e-05
1.303e-07
-5.27525e-05
1.26654e-07
-5.28282e-05
1.23096e-07
-5.29014e-05
1.19597e-07
-5.29722e-05
1.16178e-07
-5.30408e-05
1.12857e-07
-5.31075e-05
1.09645e-07
-5.31724e-05
1.06573e-07
-5.32357e-05
1.0364e-07
-5.32977e-05
1.00825e-07
-5.33584e-05
9.81875e-08
-5.34181e-05
9.57202e-08
-5.3477e-05
9.34206e-08
-5.35352e-05
9.13495e-08
-5.35929e-05
8.95227e-08
-5.36502e-05
8.7931e-08
-5.37074e-05
8.66402e-08
-5.37645e-05
8.56866e-08
-5.38217e-05
8.5048e-08
-5.3879e-05
8.47305e-08
-5.39367e-05
8.48792e-08
-5.39949e-05
8.56463e-08
-5.40537e-05
8.70722e-08
-5.41133e-05
8.9147e-08
-5.41737e-05
9.19042e-08
-5.4235e-05
9.54311e-08
-5.42975e-05
9.9811e-08
-5.43611e-05
1.05134e-07
-5.4426e-05
1.11467e-07
-5.44923e-05
1.18898e-07
-5.45602e-05
1.27476e-07
-5.46298e-05
1.37473e-07
-5.4701e-05
1.49085e-07
-5.47741e-05
1.61927e-07
-5.48493e-05
1.76088e-07
-5.49268e-05
1.91699e-07
-5.50066e-05
2.08773e-07
-5.5089e-05
2.27306e-07
-5.51743e-05
2.47374e-07
-5.52626e-05
2.69236e-07
-5.53538e-05
2.9261e-07
-5.54484e-05
3.1657e-07
-5.55469e-05
3.40843e-07
-5.56495e-05
3.6504e-07
-5.57565e-05
3.88567e-07
-5.58682e-05
4.10627e-07
-5.59851e-05
4.30234e-07
-5.61076e-05
4.46208e-07
-5.62363e-05
4.5719e-07
-5.63714e-05
4.61624e-07
-5.65138e-05
4.5782e-07
-5.66637e-05
4.44086e-07
-5.68212e-05
4.1858e-07
-5.69863e-05
3.7952e-07
-5.7158e-05
3.25762e-07
-5.7333e-05
2.55072e-07
-5.75073e-05
1.67377e-07
-5.76742e-05
6.33224e-08
-5.78244e-05
-5.74298e-08
-5.7942e-05
-1.99971e-07
-5.79987e-05
-3.76117e-07
-5.79493e-05
-6.03472e-07
-5.77124e-05
-9.17448e-07
-5.71396e-05
-1.39001e-06
-5.59622e-05
-2.15332e-06
-5.37073e-05
-3.42321e-06
-4.96979e-05
-5.4147e-06
-7.71836e-06
-4.3605e-05
-4.71928e-05
1.47157e-07
-4.73018e-05
2.55677e-07
-4.7439e-05
3.1909e-07
-4.75923e-05
3.5512e-07
-4.7754e-05
3.74679e-07
-4.79197e-05
3.84267e-07
-4.80868e-05
3.87764e-07
-4.82535e-05
3.87497e-07
-4.84188e-05
3.84867e-07
-4.85822e-05
3.80737e-07
-4.87432e-05
3.75621e-07
-4.89017e-05
3.69902e-07
-4.90574e-05
3.63733e-07
-4.92102e-05
3.5733e-07
-4.93602e-05
3.50696e-07
-4.95073e-05
3.43954e-07
-4.96514e-05
3.37105e-07
-4.97925e-05
3.30207e-07
-4.99307e-05
3.23277e-07
-5.00659e-05
3.16317e-07
-5.01983e-05
3.09411e-07
-5.03278e-05
3.02458e-07
-5.04545e-05
2.95577e-07
-5.05782e-05
2.88736e-07
-5.06991e-05
2.81936e-07
-5.08172e-05
2.75116e-07
-5.09323e-05
2.68354e-07
-5.10446e-05
2.61697e-07
-5.11542e-05
2.55102e-07
-5.12612e-05
2.48609e-07
-5.13654e-05
2.42187e-07
-5.14672e-05
2.35818e-07
-5.15664e-05
2.29568e-07
-5.16633e-05
2.23524e-07
-5.17579e-05
2.17655e-07
-5.18502e-05
2.11929e-07
-5.19404e-05
2.06352e-07
-5.20285e-05
2.00948e-07
-5.21146e-05
1.95772e-07
-5.21989e-05
1.9084e-07
-5.22813e-05
1.86136e-07
-5.23622e-05
1.81666e-07
-5.24415e-05