/*--------------------------------*- C++ -*----------------------------------*\
| =========                 |                                                 |
| \\      /  F ield         | OpenFOAM: The Open Source CFD Toolbox           |
|  \\    /   O peration     | Version:  2.1.0                                 |
|   \\  /    A nd           | Web:      www.OpenFOAM.org                      |
|    \\/     M anipulation  |                                                 |
\*---------------------------------------------------------------------------*/
FoamFile
{
    version     2.0;
    format      ascii;
    class       volScalarField;
    location    "0.12";
    object      rho;
}
// * * * * * * * * * * * * * * * * * * * * * * * * * * * * * * * * * * * * * //

dimensions      [1 -3 0 0 0 0 0];

internalField   nonuniform List<scalar> 
6400
(
1000
1000
1000
1000
1000
1000
1000
1000
1000
1000
1000
1000
1000
1000
1000
1000
1000
1000
1000
1000
1000
1000
1000
1000
1000
1000
1000
1000
1000
1000
1000
1000
1000
1000
1000
1000
1000
1000
1000
1000
1000
1000
1000
1000
1000
1000
1000
1000
1000
1000
1000
1000
1000
1000
1000
1000
1000
1000
1000
1000
1000
1000
1000
1000
1000
1000
1000
1000
1000
1000
1000
1000
1000
1000
1000
1000
1000
1000
1000
1000
1000
1000
1000
1000
1000
1000
1000
1000
1000
1000
1000
1000
1000
1000
1000
1000
1000
1000
1000
1000
1000
1000
1000
1000
1000
1000
1000
1000
1000
1000
1000
1000
1000
1000
1000
1000
1000
1000
1000
1000
1000
1000
1000
1000
1000
1000
1000
1000
1000
1000
1000
1000
1000
1000
1000
1000
1000
1000
1000
1000
1000
1000
1000
1000
1000
1000
1000
1000
1000
1000
1000
1000
1000
1000
1000
1000
1000
1000
1000
1000
1000
1000
1000
1000
1000
1000
1000
1000
1000
1000
1000
1000
1000
1000
1000
1000
1000
1000
1000
1000
1000
1000
1000
1000
1000
1000
1000
1000
1000
1000
1000
1000
1000
1000
1000
1000
1000
1000
1000
1000
1000
1000
1000
1000
1000
1000
1000
1000
1000
1000
1000
1000
1000
1000
1000
1000
1000
1000
1000
1000
1000
1000
1000
1000
1000
1000
1000
1000
1000
1000
1000
1000
1000
1000
1000
1000
1000
1000
1000
1000
1000
1000
1000
1000
1000
1000
1000
1000
1000
1000
1000
1000
1000
1000
1000
1000
1000
1000
1000
1000
1000
1000
1000
1000
1000
1000
1000
1000
1000
1000
1000
1000
1000
1000
1000
1000
1000
1000
1000
1000
1000
1000
1000
1000
1000
1000
1000
1000
1000
1000
1000
1000
1000
1000
1000
1000
1000
1000
1000
1000
1000
1000
1000
1000
1000
1000
1000
1000
1000
1000
1000
1000
1000
1000
1000
1000
1000
1000
1000
1000
1000
1000
1000
1000
1000
1000
1000
1000
1000
1000
1000
1000
1000
1000
1000
1000
1000
1000
1000
1000
1000
1000
1000
1000
1000
1000
1000
1000
1000
1000
1000
1000
1000
1000
1000
1000
1000
1000
1000
1000
1000
1000
1000
1000
1000
1000
1000
1000
1000
1000
1000
1000
1000
1000
1000
1000
1000
1000
1000
1000
1000
1000
1000
1000
1000
1000
1000
1000
1000
1000
1000
1000
1000
1000
1000
1000
1000
1000
1000
1000
1000
1000
1000
1000
1000
1000
1000
1000
1000
1000
1000
1000
1000
1000
1000
1000
1000
1000
1000
1000
1000
1000
1000
1000
1000
1000
1000
1000
1000
1000
1000
1000
1000
1000
1000
1000
1000
1000
1000
1000
1000
1000
1000
1000
1000
1000
1000
1000
1000
1000
1000
1000
1000
1000
1000
1000
1000
1000
1000
1000
1000
1000
1000
1000
1000
1000
1000
1000
1000
1000
1000
1000
1000
1000
1000
1000
1000
1000
1000
1000
1000
1000
1000
1000
1000
1000
1000
1000
1000
1000
1000
1000
1000
1000
1000
1000
1000
1000
1000
1000
1000
1000
1000
1000
1000
1000
1000
1000
1000
1000
1000
1000
1000
1000
1000
1000
1000
1000
1000
1000
1000
1000
1000
1000
1000
1000
1000
1000
1000
1000
1000
1000
1000
1000
1000
1000
1000
1000
1000
1000
1000
1000
1000
1000
1000
1000
1000
1000
1000
1000
1000
1000
1000
1000
1000
1000
1000
1000
1000
1000
1000
1000
1000
1000
1000
1000
1000
1000
1000
1000
1000
1000
1000
1000
1000
1000
1000
1000
1000
1000
1000
1000
1000
1000
1000
1000
1000
1000
1000
1000
1000
1000
1000
1000
1000
1000
1000
1000
1000
1000
1000
1000
1000
1000
1000
1000
1000
1000
1000
1000
1000
1000
1000
1000
1000
1000
1000
1000
1000
1000
1000
1000
1000
1000
1000
1000
1000
1000
1000
1000
1000
1000
1000
1000
1000
1000
1000
1000
1000
1000
1000
1000
1000
1000
1000
1000
1000
1000
1000
1000
1000
1000
1000
1000
1000
1000
1000
1000
1000
1000
1000
1000
1000
1000
1000
1000
1000
1000
1000
1000
1000
1000
1000
1000
1000
1000
1000
1000
1000
1000
1000
1000
1000
1000
1000
1000
1000
1000
1000
1000
1000
1000
1000
1000
1000
1000
1000
1000
1000
1000
1000
1000
1000
1000
1000
1000
1000
1000
1000
1000
1000
1000
1000
1000
1000
1000
1000
1000
1000
1000
1000
1000
1000
1000
1000
1000
1000
1000
1000
1000
1000
1000
1000
1000
1000
1000
1000
1000
1000
1000
1000
1000
1000
1000
1000
1000
1000
1000
1000
1000
1000
1000
1000
1000
1000
1000
1000
1000
1000
1000
1000
1000
1000
1000
1000
1000
1000
1000
1000
1000
1000
1000
1000
1000
1000
1000
1000
1000
1000
1000
1000
1000
1000
1000
1000
1000
1000
1000
1000
1000
1000
1000
1000
1000
1000
1000
1000
1000
1000
1000
1000
1000
1000
1000
1000
1000
1000
1000
1000
1000
1000
1000
1000
1000
1000
1000
1000
1000
1000
1000
1000
1000
1000
1000
1000
1000
1000
1000
1000
1000
1000
1000
1000
1000
1000
1000
1000
1000
1000
1000
1000
1000
1000
1000
1000
1000
1000
1000
1000
1000
1000
1000
1000
1000
1000
1000
1000
1000
1000
1000
1000
1000
1000
1000
1000
1000
1000
1000
1000
1000
1000
1000
1000
1000
1000
1000
1000
1000
1000
1000
1000
1000
1000
1000
1000
1000
1000
1000
1000
1000
1000
1000
1000
1000
1000
1000
1000
1000
1000
1000
1000
1000
1000
1000
1000
1000
1000
1000
1000
1000
1000
1000
1000
1000
1000
1000
1000
1000
1000
1000
1000
1000
1000
1000
1000
1000
1000
1000
1000
1000
1000
1000
1000
1000
1000
1000
1000
1000
1000
1000
1000
1000
1000
1000
1000
1000
1000
1000
1000
1000
1000
1000
1000
1000
1000
1000
1000
1000
1000
1000
1000
1000
1000
1000
1000
1000
1000
1000
1000
1000
1000
1000
1000
1000
1000
1000
1000
1000
1000
1000
1000
1000
1000
1000
1000
1000
1000
1000
1000
1000
1000
1000
1000
1000
1000
1000
1000
1000
1000
1000
1000
1000
1000
1000
1000
1000
1000
1000
1000
1000
1000
1000
1000
1000
1000
1000
1000
1000
1000
1000
1000
1000
1000
1000
1000
1000
1000
1000
1000
1000
1000
1000
1000
1000
1000
1000
1000
1000
1000
1000
1000
1000
1000
1000
1000
1000
1000
1000
1000
1000
1000
1000
1000
1000
1000
1000
1000
1000
1000
1000
1000
1000
1000
1000
1000
1000
1000
1000
1000
1000
1000
1000
1000
1000
1000
1000
1000
1000
1000
1000
1000
1000
1000
1000
1000
1000
1000
1000
1000
1000
1000
1000
1000
1000
1000
1000
1000
1000
1000
1000
1000
1000
1000
1000
1000
1000
1000
1000
1000
1000
1000
1000
1000
1000
1000
1000
1000
1000
1000
1000
1000
1000
1000
1000
1000
1000
1000
1000
1000
1000
1000
1000
1000
1000
1000
1000
1000
1000
1000
1000
1000
1000
1000
1000
1000
1000
1000
1000
1000
1000
1000
1000
1000
1000
1000
1000
1000
1000
1000
1000
1000
1000
1000
1000
1000
1000
1000
1000
1000
1000
1000
1000
1000
1000
1000
1000
1000
1000
1000
1000
1000
1000
1000
1000
1000
1000
1000
1000
1000
1000
1000
1000
1000
1000
1000
1000
1000
1000
1000
1000
1000
1000
1000
1000
1000
1000
1000
1000
1000
1000
1000
1000
1000
1000
1000
1000
1000
1000
1000
1000
1000
1000
1000
1000
1000
1000
1000
1000
1000
1000
1000
1000
1000
1000
1000
1000
1000
1000
1000
1000
1000
1000
1000
1000
1000
1000
1000
1000
1000
1000
1000
1000
1000
1000
1000
1000
1000
1000
1000
1000
1000
1000
1000
1000
1000
1000
1000
1000
1000
1000
1000
1000
1000
1000
1000
1000
1000
1000
1000
1000
1000
1000
1000
1000
1000
1000
1000
1000
1000
1000
1000
1000
1000
1000
1000
1000
1000
1000
1000
1000
1000
1000
1000
1000
1000
1000
1000
1000
1000
1000
1000
1000
1000
1000
1000
1000
1000
1000
1000
1000
1000
1000
1000
1000
1000
1000
1000
1000
1000
1000
1000
1000
1000
1000
1000
1000
1000
1000
1000
1000
1000
1000
1000
1000
1000
1000
1000
1000
1000
1000
1000
1000
1000
1000
1000
1000
1000
1000
1000
1000
1000
1000
1000
1000
1000
1000
1000
1000
1000
1000
1000
1000
1000
1000
1000
1000
1000
1000
1000
1000
1000
1000
1000
1000
1000
1000
1000
1000
1000
1000
1000
1000
1000
1000
1000
1000
1000
1000
1000
1000
1000
1000
1000
1000
1000
1000
1000
1000
1000
1000
1000
1000
1000
1000
1000
1000
1000
1000
1000
1000
1000
1000
1000
1000
1000
1000
1000
1000
1000
1000
1000
1000
1000
1000
1000
1000
1000
1000
1000
1000
1000
1000
1000
1000
1000
1000
1000
1000
1000
1000
1000
1000
1000
1000
1000
1000
1000
1000
1000
1000
1000
1000
1000
1000
1000
1000
1000
1000
1000
1000
1000
1000
1000
1000
1000
1000
1000
1000
1000
1000
1000
1000
1000
1000
1000
1000
1000
1000
1000
1000
1000
1000
1000
1000
1000
1000
1000
1000
1000
1000
1000
1000
1000
1000
1000
1000
1000
1000
1000
1000
1000
1000
1000
1000
1000
1000
1000
1000
1000
1000
1000
1000
1000
1000
1000
1000
1000
1000
1000
1000
1000
1000
1000
1000
1000
1000
1000
1000
1000
1000
1000
1000
1000
1000
1000
1000
1000
1000
1000
1000
1000
1000
1000
1000
1000
1000
1000
1000
1000
1000
1000
1000
1000
1000
1000
1000
1000
1000
1000
1000
1000
1000
1000
1000
1000
1000
1000
1000
1000
1000
1000
1000
1000
1000
1000
1000
1000
1000
1000
1000
1000
1000
1000
1000
1000
1000
1000
1000
1000
1000
1000
1000
1000
1000
1000
1000
1000
1000
1000
1000
1000
1000
1000
1000
1000
1000
1000
1000
1000
1000
1000
1000
1000
1000
1000
1000
1000
1000
1000
1000
1000
1000
1000
1000
1000
1000
1000
1000
1000
1000
1000
1000
1000
1000
1000
1000
1000
1000
1000
1000
1000
1000
1000
1000
1000
1000
1000
1000
1000
1000
1000
1000
1000
1000
1000
1000
1000
1000
1000
1000
1000
1000
1000
1000
1000
1000
1000
1000
1000
1000
1000
1000
1000
1000
1000
1000
1000
1000
1000
1000
1000
1000
1000
1000
1000
1000
1000
1000
1000
1000
1000
1000
1000
1000
1000
1000
1000
1000
1000
1000
1000
1000
1000
1000
1000
1000
1000
1000
1000
1000
1000
1000
1000
1000
1000
1000
1000
1000
1000
1000
1000
1000
1000
1000
1000
1000
1000
1000
1000
1000
1000
1000
1000
1000
1000
1000
1000
1000
1000
1000
1000
1000
1000
1000
1000
1000
1000
1000
1000
1000
1000
1000
1000
1000
1000
1000
1000
1000
1000
1000
1000
1000
1000
1000
1000
1000
1000
1000
1000
1000
1000
1000
1000
1000
1000
1000
1000
1000
1000
1000
1000
1000
1000
1000
1000
1000
1000
1000
1000
1000
1000
1000
1000
1000
1000
1000
1000
1000
1000
1000
1000
1000
1000
1000
1000
1000
1000
1000
1000
1000
1000
1000
1000
1000
1000
1000
1000
1000
1000
1000
1000
1000
1000
1000
1000
1000
1000
1000
1000
1000
1000
1000
1000
1000
1000
1000
1000
1000
1000
1000
1000
1000
1000
1000
1000
1000
1000
1000
1000
1000
1000
1000
1000
1000
1000
1000
1000
1000
1000
1000
1000
1000
1000
1000
1000
1000
1000
1000
1000
1000
1000
1000
1000
1000
1000
1000
1000
1000
1000
1000
1000
1000
1000
1000
1000
1000
1000
1000
1000
1000
1000
1000
1000
1000
1000
1000
1000
1000
1000
1000
1000
1000
1000
1000
1000
1000
1000
1000
1000
1000
1000
1000
1000
1000
1000
1000
1000
1000
1000
1000
1000
1000
1000
1000
1000
1000
1000
1000
1000
1000
1000
1000
1000
1000
1000
1000
1000
1000
1000
1000
1000
1000
1000
1000
1000
1000
1000
1000
1000
1000
1000
1000
1000
1000
1000
1000
1000
1000
1000
1000
1000
1000
1000
1000
1000
1000
1000
1000
1000
1000
1000
1000
1000
1000
1000
1000
1000
1000
1000
1000
1000
1000
1000
1000
1000
1000
1000
1000
1000
1000
1000
1000
1000
1000
1000
1000
1000
1000
1000
1000
1000
1000
1000
1000
1000
1000
1000
1000
1000
1000
1000
1000
1000
1000
1000
1000
1000
1000
1000
1000
1000
1000
1000
1000
1000
1000
1000
1000
1000
1000
1000
1000
1000
1000
1000
1000
1000
1000
1000
1000
1000
1000
1000
1000
1000
1000
1000
1000
1000
1000
1000
1000
1000
1000
1000
1000
1000
1000
1000
1000
1000
1000
1000
1000
1000
1000
1000
1000
1000
1000
1000
1000
1000
1000
1000
1000
1000
1000
1000
1000
1000
1000
1000
1000
1000
1000
1000
1000
1000
1000
1000
1000
1000
1000
1000
1000
1000
1000
1000
1000
1000
1000
1000
1000
1000
1000
1000
1000
1000
1000
1000
1000
1000
1000
1000
1000
1000
1000
1000
1000
1000
1000
1000
1000
1000
1000
1000
1000
1000
1000
1000
1000
1000
1000
1000
1000
1000
1000
1000
1000
1000
1000
1000
1000
1000
1000
1000
1000
1000
1000
1000
1000
1000
1000
1000
1000
1000
1000
1000
1000
1000
1000
1000
1000
1000
1000
1000
1000
1000
1000
1000
1000
1000
1000
1000
1000
1000
1000
1000
1000
1000
1000
1000
1000
1000
1000
1000
1000
1000
1000
1000
1000
1000
1000
1000
1000
1000
1000
1000
1000
1000
1000
1000
1000
1000
1000
1000
1000
1000
1000
1000
1000
1000
1000
1000
1000
1000
1000
1000
1000
1000
1000
1000
1000
1000
1000
1000
1000
1000
1000
1000
1000
1000
1000
1000
1000
1000
1000
1000
1000
1000
1000
1000
1000
1000
1000
1000
1000
1000
1000
1000
1000
1000
1000
1000
1000
1000
1000
1000
1000
1000
1000
1000
1000
1000
1000
1000
1000
1000
1000
1000
1000
1000
1000
1000
1000
1000
1000
1000
1000
1000
1000
1000
1000
1000
1000
1000
1000
1000
1000
1000
1000
1000
1000
1000
1000
1000
1000
1000
1000
1000
1000
1000
1000
1000
1000
1000
1000
1000
1000
1000
1000
1000
1000
1000
1000
1000
1000
1000
1000
1000
1000
1000
1000
1000
1000
1000
1000
1000
1000
1000
1000
1000
1000
1000
1000
1000
1000
1000
1000
1000
1000
1000
1000
1000
1000
1000
1000
1000
1000
1000
1000
1000
1000
1000
1000
1000
1000
1000
1000
1000
1000
1000
1000
1000
1000
1000
1000
1000
1000
1000
1000
1000
1000
1000
1000
1000
1000
1000
1000
1000
1000
1000
1000
1000
1000
1000
1000
1000
1000
944.555
944.555
944.555
944.555
944.555
944.555
944.555
944.555
944.555
944.555
944.555
944.555
944.555
944.555
944.555
944.555
944.555
944.555
944.555
944.555
944.555
944.555
944.555
944.555
944.555
944.555
944.555
944.555
944.555
944.555
944.555
944.555
944.555
944.555
944.555
944.555
944.555
944.555
944.555
944.555
944.555
944.555
944.555
944.555
944.555
944.555
944.555
944.555
944.555
944.555
944.555
944.555
944.555
944.555
944.555
944.555
944.555
944.555
944.555
944.555
944.555
944.555
944.555
944.555
944.555
944.555
944.555
944.555
944.555
944.555
944.555
944.555
944.555
944.555
944.555
944.555
944.555
944.555
944.555
944.555
944.555
944.555
944.555
944.555
944.555
944.555
944.555
944.555
944.555
944.555
944.555
944.555
944.555
944.555
944.555
944.555
944.555
944.555
944.555
944.555
944.555
944.555
944.555
944.555
944.555
944.555
944.555
944.555
944.555
944.555
944.555
944.555
944.555
944.555
944.555
944.555
944.555
944.555
944.555
944.555
944.555
944.555
944.555
944.555
944.555
944.555
944.555
944.555
944.555
944.555
944.555
944.555
944.555
944.555
944.555
944.555
944.555
944.555
944.555
944.555
944.555
944.555
944.555
944.555
944.555
944.555
944.555
944.555
944.555
944.555
944.555
944.555
944.555
944.555
944.555
944.555
944.555
944.555
944.555
944.555
944.555
944.555
944.555
944.555
944.555
944.555
944.555
944.555
944.555
944.555
944.555
944.555
944.555
944.555
944.555
944.555
944.555
944.555
944.555
944.555
944.555
944.555
944.555
944.555
944.555
944.555
944.555
944.555
944.555
944.555
944.555
944.555
944.555
944.555
944.555
944.555
944.555
944.555
944.555
944.555
944.555
944.555
944.555
944.555
944.555
944.555
944.555
944.555
944.555
944.555
944.555
944.555
944.555
944.555
944.555
944.555
944.555
944.555
944.555
944.555
944.555
944.555
944.555
944.555
944.555
944.555
944.555
944.555
944.555
944.555
944.555
944.555
944.555
944.555
944.555
944.555
944.555
944.555
944.555
944.555
944.555
944.555
944.555
944.555
944.555
944.555
944.555
944.555
944.555
944.555
944.555
944.555
944.555
944.555
944.555
944.555
944.555
944.555
944.555
944.555
944.555
944.555
944.555
944.555
944.555
944.555
944.555
944.555
944.555
944.555
944.555
944.555
944.555
944.555
944.555
944.555
944.555
944.555
944.555
944.555
944.555
944.555
944.555
944.555
944.555
944.555
944.555
944.555
944.555
944.555
944.555
944.555
944.555
944.555
944.555
944.555
944.555
944.555
944.555
944.555
944.555
944.555
944.555
944.555
944.555
944.555
944.555
944.555
944.555
944.555
944.555
944.555
944.555
944.555
944.555
944.555
944.555
944.555
944.555
944.555
944.555
944.555
944.555
944.555
944.555
944.555
944.555
944.555
944.555
944.555
944.555
944.555
944.555
944.555
944.555
944.555
944.555
944.555
944.555
944.555
944.555
944.555
944.555
944.555
944.555
944.555
944.555
944.555
944.555
944.555
944.555
944.555
944.555
944.555
944.555
944.555
944.555
944.555
944.555
944.555
944.555
944.555
944.555
944.555
944.555
944.555
944.555
944.555
944.555
944.555
944.555
944.555
944.555
944.555
944.555
944.555
944.555
944.555
944.555
944.555
944.555
944.555
944.555
944.555
944.555
944.555
944.555
944.555
944.555
944.555
944.555
944.555
944.555
944.555
944.555
944.555
944.555
944.555
944.555
944.555
944.555
944.555
944.555
944.555
944.555
944.555
944.555
944.555
944.555
944.555
944.555
944.555
944.555
944.555
944.555
944.555
944.555
944.555
944.555
944.555
944.555
944.555
944.555
944.555
944.555
944.555
944.555
944.555
944.555
944.555
944.555
944.555
944.555
944.555
944.555
944.555
944.555
944.555
944.555
944.555
944.555
944.555
944.555
944.555
944.555
944.555
944.555
944.555
944.555
944.555
944.555
944.555
944.555
944.555
944.555
944.555
944.555
944.555
944.555
944.555
944.555
944.555
944.555
944.555
944.555
944.555
944.555
944.555
944.555
944.555
944.555
944.555
944.555
944.555
944.555
944.555
944.555
944.555
944.555
944.555
944.555
944.555
944.555
944.555
944.555
944.555
944.555
944.555
944.555
944.555
944.555
944.555
944.555
944.555
944.555
944.555
944.555
944.555
944.555
944.555
944.555
944.555
944.555
944.555
944.555
944.555
944.555
944.555
944.555
944.555
944.555
944.555
944.555
944.555
944.555
944.555
944.555
944.555
944.555
944.555
944.555
944.555
944.555
944.555
944.555
944.555
944.555
944.556
944.556
944.556
944.556
944.556
944.556
944.555
944.555
944.555
944.555
944.555
944.555
944.555
944.556
944.555
944.555
944.556
944.556
944.556
944.556
944.556
944.556
944.556
944.556
944.556
944.556
944.556
944.556
944.556
944.556
944.555
944.555
944.556
944.557
944.556
944.556
944.556
944.557
944.557
944.557
944.557
944.557
944.557
944.557
944.557
944.557
944.557
944.557
944.557
944.556
944.556
944.556
944.557
944.559
944.557
944.557
944.557
944.558
944.558
944.559
944.559
944.559
944.559
944.559
944.559
944.559
944.559
944.558
944.558
944.557
944.557
944.557
944.559
944.563
944.558
944.559
944.559
944.56
944.561
944.561
944.562
944.562
944.562
944.562
944.562
944.562
944.561
944.561
944.56
944.559
944.559
944.558
944.563
944.571
944.561
944.561
944.562
944.564
944.565
944.565
944.566
944.566
944.567
944.567
944.566
944.566
944.565
944.565
944.564
944.562
944.561
944.561
944.571
944.584
944.567
944.566
944.567
944.569
944.571
944.572
944.573
944.573
944.574
944.574
944.573
944.573
944.572
944.571
944.569
944.567
944.566
944.567
944.584
944.607
944.575
944.573
944.575
944.578
944.58
944.582
944.583
944.584
944.585
944.585
944.584
944.583
944.582
944.58
944.578
944.575
944.573
944.575
944.607
944.644
944.589
944.584
944.587
944.591
944.594
944.597
944.599
944.6
944.601
944.601
944.6
944.599
944.597
944.594
944.591
944.587
944.584
944.589
944.644
944.704
944.611
944.602
944.606
944.611
944.615
944.619
944.622
944.624
944.625
944.625
944.624
944.622
944.619
944.616
944.611
944.606
944.602
944.611
944.704
944.797
944.645
944.629
944.633
944.64
944.647
944.652
944.656
944.659
944.66
944.66
944.659
944.656
944.652
944.647
944.641
944.634
944.629
944.645
944.796
944.936
944.696
944.668
944.674
944.683
944.692
944.7
944.705
944.709
944.711
944.711
944.709
944.706
944.7
944.693
944.684
944.674
944.668
944.696
944.935
945.14
944.772
944.726
944.732
944.745
944.758
944.768
944.775
944.781
944.783
944.783
944.781
944.776
944.768
944.758
944.746
944.733
944.727
944.772
945.139
945.43
944.88
944.809
944.816
944.833
944.85
944.863
944.874
944.881
944.885
944.885
944.881
944.874
944.864
944.85
944.834
944.817
944.81
944.881
945.429
945.832
945.034
944.926
944.933
944.955
944.977
944.996
945.01
945.02
945.025
945.025
945.021
945.011
944.997
944.979
944.957
944.934
944.928
945.034
945.83
946.373
945.245
945.089
945.094
945.123
945.152
945.177
945.196
945.209
945.216
945.216
945.21
945.197
945.179
945.154
945.125
945.096
945.09
945.246
946.371
947.085
945.532
945.309
945.312
945.349
945.387
945.42
945.445
945.463
945.472
945.472
945.464
945.447
945.423
945.39
945.352
945.315
945.312
945.533
947.084
948
945.911
945.603
945.602
945.649
945.699
945.742
945.775
945.797
945.809
945.81
945.799
945.777
945.745
945.703
945.654
945.607
945.608
945.915
948
949.148
946.406
945.99
945.983
946.042
946.105
946.16
946.202
946.231
946.247
946.247
946.234
946.206
946.165
946.112
946.049
945.99
945.997
946.412
949.15
950.555
947.039
946.489
946.474
946.546
946.625
946.695
946.748
946.785
946.805
946.806
946.789
946.754
946.702
946.635
946.557
946.484
946.499
947.048
950.56
952.243
947.835
947.123
947.095
947.183
947.281
947.367
947.434
947.48
947.504
947.506
947.485
947.442
947.378
947.295
947.198
947.111
947.138
947.849
952.253
954.223
948.817
947.914
947.87
947.974
948.094
948.199
948.282
948.338
948.368
948.37
948.345
948.293
948.214
948.112
947.995
947.891
947.935
948.838
954.239
956.494
950.008
948.885
948.819
948.942
949.085
949.212
949.311
949.38
949.416
949.419
949.389
949.326
949.232
949.109
948.969
948.848
948.913
950.037
956.519
959.044
951.425
950.056
949.963
950.104
950.273
950.423
950.542
950.624
950.667
950.671
950.636
950.561
950.45
950.305
950.14
950.001
950.093
951.464
959.078
961.846
953.082
951.444
951.318
951.478
951.673
951.849
951.988
952.085
952.136
952.141
952.1
952.013
951.883
951.715
951.525
951.368
951.492
953.132
961.89
964.859
954.982
953.06
952.897
953.073
953.296
953.498
953.659
953.771
953.831
953.838
953.791
953.691
953.542
953.349
953.133
952.96
953.121
955.045
964.914
968.03
957.122
954.909
954.704
954.896
955.145
955.373
955.556
955.684
955.754
955.762
955.709
955.596
955.427
955.211
954.97
954.781
954.985
957.197
968.095
971.296
959.488
956.987
956.737
956.941
957.214
957.466
957.672
957.818
957.898
957.908
957.848
957.721
957.533
957.294
957.031
956.83
957.077
959.575
971.369
974.586
962.056
959.279
958.982
959.195
959.489
959.763
959.991
960.158
960.25
960.263
960.195
960.051
959.844
959.585
959.302
959.092
959.384
962.152
974.665
977.829
964.789
961.76
961.419
961.639
961.95
962.245
962.497
962.69
962.795
962.81
962.733
962.568
962.339
962.063
961.763
961.546
961.88
964.891
977.91
980.951
967.643
964.397
964.021
964.249
964.573
964.893
965.185
965.404
965.518
965.534
965.451
965.264
965.001
964.702
964.389
964.164
964.529
967.749
981.032
983.885
970.568
967.152
966.757
966.993
967.332
967.687
968.023
968.257
968.376
968.394
968.31
968.112
967.809
967.475
967.149
966.914
967.294
970.675
983.963
986.57
973.513
969.989
969.59
969.833
970.185
970.573
970.941
971.184
971.309
971.329
971.245
971.04
970.708
970.341
970.001
969.758
970.137
973.617
986.641
988.965
976.423
972.865
972.475
972.721
973.078
973.494
973.888
974.142
974.275
974.296
974.204
973.994
973.64
973.244
972.897
972.649
973.017
976.522
989.027
991.052
979.247
975.734
975.362
975.606
975.963
976.404
976.815
977.078
977.201
977.219
977.135
976.924
976.557
976.136
975.787
975.54
975.884
979.338
991.106
992.834
981.938
978.545
978.202
978.44
978.792
979.248
979.665
979.92
980.028
980.045
979.979
979.773
979.404
978.967
978.62
978.379
978.692
982.018
992.878
994.327
984.459
981.253
980.945
981.172
981.516
981.975
982.39
982.625
982.728
982.748
982.682
982.497
982.13
981.688
981.347
981.115
981.392
984.526
994.363
995.558
986.78
983.815
983.545
983.759
984.091
984.542
984.937
985.152
985.246
985.254
985.201
985.036
984.69
984.255
983.924
983.704
983.943
986.836
995.585
996.557
988.884
986.196
985.964
986.163
986.477
986.906
987.275
987.461
987.53
987.543
987.497
987.357
987.042
986.629
986.314
986.109
986.31
988.929
996.576
997.357
990.761
988.369
988.174
988.357
988.648
989.047
989.372
989.534
989.59
989.595
989.557
989.439
989.164
988.783
988.49
988.302
988.47
990.797
997.371
997.99
992.411
990.32
990.157
990.321
990.586
990.945
991.229
991.359
991.407
991.415
991.379
991.281
991.043
990.702
990.437
990.267
990.405
992.438
997.999
998.485
993.838
992.04
991.906
992.051
992.287
992.603
992.839
992.941
992.982
992.993
992.97
992.884
992.683
992.384
992.148
991.998
992.111
993.858
998.491
998.869
995.055
993.533
993.423
993.549
993.754
994.024
994.217
994.3
994.339
994.336
994.326
994.254
994.09
993.834
993.628
993.498
993.591
995.069
998.873
999.163
996.076
994.807
994.718
994.826
995.001
995.227
995.383
995.448
995.486
995.483
995.462
995.41
995.277
995.064
994.889
994.778
994.853
996.087
999.165
999.386
996.921
995.879
995.807
995.897
996.044
996.23
996.354
996.406
996.434
996.437
996.414
996.373
996.267
996.093
995.947
995.854
995.915
996.93
999.387
999.554
997.611
996.767
996.709
996.784
996.905
997.054
997.151
997.193
997.21
997.213
997.2
997.164
997.082
996.941
996.821
996.745
996.794
997.618
999.554
999.678
998.167
997.491
997.446
997.506
997.604
997.723
997.796
997.828
997.843
997.842
997.832
997.808
997.742
997.631
997.534
997.472
997.512
998.172
999.679
999.77
998.608
998.075
998.039
998.087
998.165
998.257
998.313
998.339
998.345
998.351
998.34
998.321
998.272
998.184
998.107
998.059
998.091
998.613
999.77
999.837
998.955
998.539
998.511
998.548
998.609
998.681
998.722
998.741
998.745
998.75
998.744
998.728
998.691
998.624
998.563
998.525
998.551
998.959
999.837
999.885
999.223
998.903
998.881
998.91
998.957
999.011
999.042
999.056
999.061
999.061
999.058
999.047
999.018
998.967
998.921
998.891
998.912
999.227
999.886
999.92
999.429
999.185
999.168
999.19
999.226
999.266
999.29
999.299
999.302
999.303
999.3
999.292
999.272
999.233
999.198
999.175
999.191
999.432
999.921
999.945
999.584
999.401
999.387
999.404
999.431
999.461
999.478
999.485
999.486
999.487
999.485
999.48
999.465
999.436
999.41
999.393
999.406
999.587
999.945
999.962
999.701
999.564
999.554
999.566
999.586
999.608
999.621
999.625
999.627
999.626
999.626
999.622
999.611
999.59
999.57
999.558
999.568
999.703
999.963
999.974
999.787
999.686
999.678
999.687
999.702
999.718
999.727
999.73
999.731
999.731
999.73
999.728
999.72
999.705
999.69
999.681
999.689
999.789
999.975
999.982
999.849
999.776
999.77
999.776
999.787
999.799
999.805
999.807
999.808
999.808
999.808
999.806
999.8
999.789
999.779
999.772
999.778
999.851
999.983
999.988
999.895
999.841
999.837
999.842
999.85
999.858
999.863
999.864
999.864
999.864
999.864
999.863
999.859
999.851
999.844
999.839
999.844
999.897
999.989
999.992
999.927
999.889
999.886
999.889
999.895
999.901
999.904
999.905
999.905
999.905
999.905
999.904
999.901
999.896
999.891
999.888
999.891
999.929
999.992
999.995
999.95
999.923
999.921
999.923
999.927
999.931
999.933
999.934
999.934
999.934
999.934
999.934
999.932
999.928
999.924
999.922
999.925
999.951
999.995
999.996
999.966
999.947
999.946
999.947
999.95
999.953
999.954
999.955
999.955
999.955
999.955
999.954
999.953
999.951
999.948
999.947
999.949
999.967
999.997
999.998
999.977
999.964
999.963
999.964
999.966
999.968
999.969
999.969
999.969
999.969
999.969
999.969
999.968
999.967
999.965
999.964
999.965
999.978
999.998
999.998
999.985
999.976
999.975
999.976
999.977
999.978
999.979
999.979
999.979
999.979
999.979
999.979
999.979
999.978
999.976
999.976
999.977
999.986
999.999
999.999
999.99
999.984
999.983
999.984
999.985
999.986
999.986
999.986
999.986
999.986
999.986
999.986
999.986
999.985
999.984
999.984
999.985
999.991
999.999
999.999
999.993
999.989
999.989
999.989
999.99
999.99
999.991
999.991
999.991
999.991
999.991
999.991
999.991
999.99
999.99
999.989
999.99
999.994
999.999
1000
999.996
999.993
999.993
999.993
999.993
999.994
999.994
999.994
999.994
999.994
999.994
999.994
999.994
999.994
999.993
999.993
999.994
999.996
1000
1000
999.997
999.995
999.995
999.995
999.996
999.996
999.996
999.996
999.996
999.996
999.996
999.996
999.996
999.996
999.996
999.996
999.996
999.998
1000
1000
999.998
999.997
999.997
999.997
999.997
999.997
999.997
999.998
999.998
999.998
999.998
999.998
999.997
999.997
999.997
999.997
999.997
999.999
1000
1000
999.999
999.998
999.998
999.998
999.998
999.998
999.998
999.998
999.998
999.998
999.998
999.998
999.998
999.998
999.998
999.998
999.998
999.999
1000
1000
999.999
999.999
999.999
999.999
999.999
999.999
999.999
999.999
999.999
999.999
999.999
999.999
999.999
999.999
999.999
999.999
999.999
999.999
1000
1000
999.999
999.999
999.999
999.999
999.999
999.999
999.999
999.999
999.999
999.999
999.999
999.999
999.999
999.999
999.999
999.999
999.999
1000
1000
1000
1000
999.999
999.999
999.999
1000
1000
1000
1000
1000
1000
1000
1000
1000
1000
1000
1000
1000
1000
1000
1000
1000
1000
1000
1000
1000
1000
1000
1000
1000
1000
1000
1000
1000
1000
1000
1000
1000
1000
1000
1000
1000
1000
1000
1000
1000
1000
1000
1000
1000
1000
1000
1000
1000
1000
1000
1000
1000
1000
1000
1000
1000
1000
1000
1000
1000
1000
1000
1000
1000
1000
1000
1000
1000
1000
1000
1000
1000
1000
1000
1000
1000
1000
1000
1000
1000
1000
1000
1000
1000
1000
1000
1000
1000
1000
1000
1000
1000
1000
1000
1000
1000
1000
1000
1000
1000
1000
1000
1000
1000
1000
1000
1000
1000
1000
1000
1000
1000
1000
1000
1000
1000
1000
1000
1000
1000
1000
1000
1000
1000
1000
1000
1000
1000
1000
1000
1000
1000
1000
1000
1000
1000
1000
1000
1000
1000
1000
1000
1000
1000
1000
1000
1000
1000
1000
1000
1000
1000
1000
1000
1000
1000
1000
1000
1000
1000
1000
1000
1000
1000
1000
1000
1000
1000
1000
1000
1000
1000
1000
1000
1000
1000
1000
1000
1000
1000
1000
1000
1000
1000
1000
1000
1000
1000
1000
1000
1000
1000
1000
1000
1000
1000
1000
1000
1000
1000
1000
1000
1000
1000
1000
1000
1000
1000
1000
1000
1000
1000
1000
1000
1000
1000
1000
1000
1000
1000
1000
1000
1000
1000
1000
1000
1000
1000
1000
1000
1000
1000
1000
1000
1000
1000
1000
1000
1000
1000
1000
1000
1000
1000
1000
1000
1000
1000
1000
1000
1000
1000
1000
1000
1000
1000
1000
1000
1000
1000
1000
1000
1000
1000
1000
1000
1000
1000
1000
1000
1000
1000
1000
1000
1000
1000
1000
1000
1000
1000
1000
1000
1000
1000
1000
1000
1000
1000
1000
1000
1000
1000
1000
1000
1000
1000
1000
1000
1000
1000
1000
1000
1000
1000
1000
1000
1000
1000
1000
1000
1000
1000
1000
1000
1000
1000
1000
1000
1000
1000
1000
1000
1000
1000
1000
1000
1000
1000
1000
1000
1000
1000
1000
1000
1000
1000
1000
1000
1000
1000
1000
1000
1000
1000
1000
1000
1000
1000
1000
1000
1000
1000
1000
1000
1000
1000
1000
1000
1000
1000
1000
1000
1000
1000
1000
1000
1000
1000
1000
1000
1000
1000
1000
1000
1000
1000
1000
1000
1000
1000
1000
1000
1000
1000
1000
1000
1000
1000
1000
1000
1000
1000
1000
1000
1000
1000
1000
1000
1000
1000
1000
1000
1000
1000
1000
1000
1000
1000
1000
1000
1000
1000
1000