/*--------------------------------*- C++ -*----------------------------------*\
| =========                 |                                                 |
| \\      /  F ield         | OpenFOAM: The Open Source CFD Toolbox           |
|  \\    /   O peration     | Version:  2.1.0                                 |
|   \\  /    A nd           | Web:      www.OpenFOAM.org                      |
|    \\/     M anipulation  |                                                 |
\*---------------------------------------------------------------------------*/
FoamFile
{
    version     2.0;
    format      ascii;
    class       volVectorField;
    location    "0.12";
    object      U;
}
// * * * * * * * * * * * * * * * * * * * * * * * * * * * * * * * * * * * * * //

dimensions      [0 1 -1 0 0 0 0];

internalField   nonuniform List<vector> 
6400
(
(-1.18412 -0.000357669 0)
(-1.18204 -0.000633921 0)
(-1.1792 -0.000835991 0)
(-1.17556 -0.000993807 0)
(-1.17142 -0.00110544 0)
(-1.16687 -0.00118547 0)
(-1.1621 -0.00123387 0)
(-1.15714 -0.00126588 0)
(-1.15211 -0.00128155 0)
(-1.147 -0.00129191 0)
(-1.14189 -0.00129441 0)
(-1.13676 -0.00129629 0)
(-1.13164 -0.00129362 0)
(-1.12652 -0.00129176 0)
(-1.12142 -0.00128672 0)
(-1.11633 -0.00128299 0)
(-1.11127 -0.00127724 0)
(-1.10622 -0.00127319 0)
(-1.1012 -0.00126845 0)
(-1.09618 -0.0012657 0)
(-1.09118 -0.00126344 0)
(-1.08618 -0.00126351 0)
(-1.08118 -0.00126524 0)
(-1.07617 -0.00126938 0)
(-1.07114 -0.00127539 0)
(-1.06608 -0.00128437 0)
(-1.06098 -0.00129621 0)
(-1.05582 -0.00131107 0)
(-1.0506 -0.00132904 0)
(-1.0453 -0.00135013 0)
(-1.03992 -0.00137431 0)
(-1.03443 -0.0014017 0)
(-1.02883 -0.00143241 0)
(-1.0231 -0.00146652 0)
(-1.01723 -0.00150389 0)
(-1.0112 -0.00154431 0)
(-1.00501 -0.00158761 0)
(-0.998645 -0.00163406 0)
(-0.992088 -0.00168366 0)
(-0.98533 -0.00173605 0)
(-0.978359 -0.00179109 0)
(-0.971165 -0.00184902 0)
(-0.963738 -0.0019093 0)
(-0.956069 -0.00197152 0)
(-0.94815 -0.00203585 0)
(-0.939974 -0.00210171 0)
(-0.931534 -0.00216942 0)
(-0.922821 -0.00223965 0)
(-0.913827 -0.00231178 0)
(-0.904545 -0.00238561 0)
(-0.894968 -0.00246118 0)
(-0.885088 -0.00253854 0)
(-0.874901 -0.00261714 0)
(-0.8644 -0.00269719 0)
(-0.853579 -0.00277891 0)
(-0.842433 -0.00286169 0)
(-0.830958 -0.00294566 0)
(-0.819149 -0.00303071 0)
(-0.807002 -0.00311658 0)
(-0.794513 -0.00320389 0)
(-0.781678 -0.00329217 0)
(-0.768492 -0.00338128 0)
(-0.754951 -0.00347174 0)
(-0.741051 -0.00356316 0)
(-0.726787 -0.00365595 0)
(-0.712153 -0.00375079 0)
(-0.69714 -0.0038477 0)
(-0.68174 -0.00394675 0)
(-0.665946 -0.00404754 0)
(-0.649751 -0.00415006 0)
(-0.633146 -0.00425511 0)
(-0.616122 -0.0043625 0)
(-0.598669 -0.0044726 0)
(-0.580774 -0.00458651 0)
(-0.562422 -0.00470482 0)
(-0.543592 -0.00482891 0)
(-0.524257 -0.00496088 0)
(-0.50438 -0.00510385 0)
(-0.483909 -0.00526243 0)
(-0.462769 -0.00544294 0)
(-0.44086 -0.00565332 0)
(-0.418044 -0.00590329 0)
(-0.394145 -0.00620311 0)
(-0.368951 -0.00656092 0)
(-0.34222 -0.00698434 0)
(-0.313679 -0.00748034 0)
(-0.283043 -0.0080491 0)
(-0.250058 -0.00867566 0)
(-0.214579 -0.00931809 0)
(-0.176726 -0.00988603 0)
(-0.137158 -0.0101937 0)
(-0.0976587 -0.00985662 0)
(-0.0618682 -0.00831261 0)
(-0.0350554 -0.00529669 0)
(-0.0216481 -0.00150723 0)
(-0.0247871 0.0030981 0)
(-0.0529025 0.0111524 0)
(-0.13038 0.0280659 0)
(-0.319821 0.0671074 0)
(-0.899105 0.186659 0)
(-1.52223 -0.00123838 0)
(-1.51774 -0.0025831 0)
(-1.51214 -0.00335077 0)
(-1.50492 -0.0038443 0)
(-1.4974 -0.00414292 0)
(-1.48947 -0.00432777 0)
(-1.48168 -0.00441935 0)
(-1.47376 -0.00446449 0)
(-1.46608 -0.00446659 0)
(-1.4584 -0.0044553 0)
(-1.45096 -0.00442462 0)
(-1.44356 -0.00439342 0)
(-1.43639 -0.00435241 0)
(-1.42928 -0.00431493 0)
(-1.42237 -0.00427163 0)
(-1.41554 -0.00423339 0)
(-1.40886 -0.00419218 0)
(-1.40227 -0.00415717 0)
(-1.3958 -0.00412232 0)
(-1.38941 -0.00409431 0)
(-1.38312 -0.00406924 0)
(-1.3769 -0.00405187 0)
(-1.37074 -0.00404064 0)
(-1.36464 -0.00403772 0)
(-1.35857 -0.00404136 0)
(-1.35253 -0.00405321 0)
(-1.34651 -0.00407288 0)
(-1.3405 -0.00410076 0)
(-1.33448 -0.00413716 0)
(-1.32846 -0.00418201 0)
(-1.32242 -0.0042353 0)
(-1.31636 -0.00429731 0)
(-1.31026 -0.0043684 0)
(-1.3041 -0.00444872 0)
(-1.2979 -0.00453798 0)
(-1.29162 -0.00463557 0)
(-1.28527 -0.00474105 0)
(-1.27884 -0.0048552 0)
(-1.27231 -0.00497797 0)
(-1.26567 -0.0051084 0)
(-1.25893 -0.00524643 0)
(-1.25206 -0.00539278 0)
(-1.24506 -0.00554609 0)
(-1.23792 -0.00570518 0)
(-1.23062 -0.00587094 0)
(-1.22317 -0.00604189 0)
(-1.21556 -0.00621654 0)
(-1.20778 -0.00639567 0)
(-1.19984 -0.00657904 0)
(-1.19174 -0.00676617 0)
(-1.18347 -0.00695719 0)
(-1.17503 -0.00715247 0)
(-1.16642 -0.00735064 0)
(-1.15764 -0.00755204 0)
(-1.14869 -0.00775698 0)
(-1.13956 -0.00796386 0)
(-1.13026 -0.00817309 0)
(-1.12078 -0.00838447 0)
(-1.11114 -0.00859696 0)
(-1.10132 -0.00881164 0)
(-1.09134 -0.0090278 0)
(-1.08119 -0.00924489 0)
(-1.07088 -0.00946346 0)
(-1.06041 -0.00968279 0)
(-1.04979 -0.00990382 0)
(-1.03903 -0.0101278 0)
(-1.02812 -0.0103548 0)
(-1.01707 -0.0105855 0)
(-1.00588 -0.0108188 0)
(-0.994552 -0.011055 0)
(-0.983093 -0.0112968 0)
(-0.971497 -0.0115438 0)
(-0.959761 -0.0117973 0)
(-0.947876 -0.0120609 0)
(-0.935833 -0.0123368 0)
(-0.923613 -0.0126287 0)
(-0.911196 -0.0129428 0)
(-0.898552 -0.0132872 0)
(-0.88564 -0.0136737 0)
(-0.872411 -0.0141182 0)
(-0.858798 -0.0146397 0)
(-0.844722 -0.0152617 0)
(-0.830084 -0.01601 0)
(-0.814762 -0.016906 0)
(-0.798617 -0.0179681 0)
(-0.7815 -0.0192124 0)
(-0.763259 -0.0206371 0)
(-0.743772 -0.0222004 0)
(-0.722994 -0.0237922 0)
(-0.70103 -0.0251863 0)
(-0.678232 -0.0259377 0)
(-0.655299 -0.0251961 0)
(-0.633437 -0.0216994 0)
(-0.615253 -0.0143737 0)
(-0.607666 -0.00310377 0)
(-0.618776 0.0118535 0)
(-0.660864 0.0374206 0)
(-0.754523 0.086646 0)
(-0.940657 0.191487 0)
(-1.39401 0.493747 0)
(-1.68515 -0.00235057 0)
(-1.68009 -0.00511007 0)
(-1.67536 -0.00657263 0)
(-1.66867 -0.00740751 0)
(-1.66196 -0.0078572 0)
(-1.65463 -0.00809191 0)
(-1.64763 -0.00817852 0)
(-1.64032 -0.00818856 0)
(-1.6334 -0.00813854 0)
(-1.62631 -0.00806638 0)
(-1.61957 -0.00797041 0)
(-1.61275 -0.00787262 0)
(-1.60623 -0.00776565 0)
(-1.59968 -0.0076638 0)
(-1.59338 -0.00755858 0)
(-1.58709 -0.00746131 0)
(-1.58099 -0.00736375 0)
(-1.57493 -0.00727624 0)
(-1.56902 -0.00719178 0)
(-1.56316 -0.00711847 0)
(-1.55743 -0.0070512 0)
(-1.55175 -0.00699619 0)
(-1.54617 -0.00695103 0)
(-1.54066 -0.0069191 0)
(-1.53522 -0.00689826 0)
(-1.52985 -0.00688993 0)
(-1.52452 -0.00689333 0)
(-1.51924 -0.00690906 0)
(-1.51401 -0.0069375 0)
(-1.5088 -0.00697839 0)
(-1.50362 -0.00703161 0)
(-1.49846 -0.00709739 0)
(-1.49331 -0.00717634 0)
(-1.48818 -0.00726847 0)
(-1.48304 -0.00737347 0)
(-1.4779 -0.00749024 0)
(-1.47275 -0.00761791 0)
(-1.46759 -0.00775772 0)
(-1.46242 -0.0079095 0)
(-1.45722 -0.00807147 0)
(-1.45201 -0.00824395 0)
(-1.44678 -0.00842822 0)
(-1.44152 -0.00862232 0)
(-1.43623 -0.00882418 0)
(-1.43091 -0.00903517 0)
(-1.42556 -0.00925425 0)
(-1.42019 -0.00947745 0)
(-1.41479 -0.00970425 0)
(-1.40936 -0.00993554 0)
(-1.4039 -0.0101702 0)
(-1.39842 -0.0104079 0)
(-1.39292 -0.0106498 0)
(-1.38741 -0.0108949 0)
(-1.38188 -0.0111426 0)
(-1.37634 -0.0113923 0)
(-1.3708 -0.0116421 0)
(-1.36527 -0.0118922 0)
(-1.35975 -0.0121422 0)
(-1.35426 -0.0123904 0)
(-1.3488 -0.0126369 0)
(-1.34339 -0.012881 0)
(-1.33805 -0.0131219 0)
(-1.33278 -0.0133587 0)
(-1.3276 -0.0135904 0)
(-1.32255 -0.0138178 0)
(-1.31762 -0.0140414 0)
(-1.31286 -0.0142612 0)
(-1.30828 -0.0144777 0)
(-1.30391 -0.0146895 0)
(-1.29978 -0.0148965 0)
(-1.29591 -0.0151032 0)
(-1.29232 -0.0153088 0)
(-1.28905 -0.0155152 0)
(-1.28612 -0.0157287 0)
(-1.28354 -0.0159526 0)
(-1.28135 -0.0161932 0)
(-1.27954 -0.0164595 0)
(-1.27813 -0.0167642 0)
(-1.2771 -0.0171242 0)
(-1.27645 -0.0175618 0)
(-1.27614 -0.018103 0)
(-1.27613 -0.0187788 0)
(-1.27636 -0.0196244 0)
(-1.27675 -0.0206732 0)
(-1.27721 -0.0219497 0)
(-1.27761 -0.0234738 0)
(-1.27786 -0.0252406 0)
(-1.27785 -0.0271872 0)
(-1.27756 -0.0291583 0)
(-1.27702 -0.0308555 0)
(-1.27642 -0.0317239 0)
(-1.27601 -0.0307967 0)
(-1.27628 -0.0266095 0)
(-1.27827 -0.0173334 0)
(-1.2852 -0.00121613 0)
(-1.29947 0.0227467 0)
(-1.33296 0.0634394 0)
(-1.4 0.138512 0)
(-1.53015 0.289869 0)
(-1.77875 0.673278 0)
(-1.82 -0.00343408 0)
(-1.81533 -0.00720005 0)
(-1.81227 -0.00922177 0)
(-1.8073 -0.0103382 0)
(-1.80254 -0.0109219 0)
(-1.79707 -0.0112032 0)
(-1.79202 -0.0112939 0)
(-1.78655 -0.0112788 0)
(-1.78151 -0.0111923 0)
(-1.77618 -0.0110724 0)
(-1.77124 -0.0109272 0)
(-1.76611 -0.0107757 0)
(-1.76131 -0.010617 0)
(-1.75638 -0.0104618 0)
(-1.75173 -0.0103061 0)
(-1.74701 -0.0101578 0)
(-1.74251 -0.0100116 0)
(-1.738 -0.00987583 0)
(-1.73365 -0.00974495 0)
(-1.72934 -0.00962639 0)
(-1.72516 -0.00951491 0)
(-1.72104 -0.00941693 0)
(-1.71703 -0.00932895 0)
(-1.71311 -0.00925497 0)
(-1.70929 -0.00919323 0)
(-1.70557 -0.00914692 0)
(-1.70193 -0.00911502 0)
(-1.69839 -0.00909837 0)
(-1.69493 -0.00909722 0)
(-1.69155 -0.00911101 0)
(-1.68826 -0.00913916 0)
(-1.68503 -0.0091817 0)
(-1.68189 -0.0092393 0)
(-1.67882 -0.0093116 0)
(-1.67583 -0.00939837 0)
(-1.67291 -0.00949798 0)
(-1.67006 -0.00960886 0)
(-1.6673 -0.0097324 0)
(-1.66461 -0.00986824 0)
(-1.66201 -0.0100137 0)
(-1.6595 -0.0101687 0)
(-1.65709 -0.0103349 0)
(-1.65477 -0.01051 0)
(-1.65256 -0.0106918 0)
(-1.65046 -0.0108807 0)
(-1.64848 -0.011076 0)
(-1.64663 -0.0112752 0)
(-1.64491 -0.0114777 0)
(-1.64332 -0.0116832 0)
(-1.64186 -0.0118899 0)
(-1.64054 -0.0120962 0)
(-1.63937 -0.0123034 0)
(-1.63836 -0.0125118 0)
(-1.63752 -0.0127198 0)
(-1.63685 -0.0129251 0)
(-1.63637 -0.0131257 0)
(-1.63609 -0.0133211 0)
(-1.63603 -0.0135104 0)
(-1.63619 -0.0136916 0)
(-1.6366 -0.0138637 0)
(-1.63728 -0.0140253 0)
(-1.63823 -0.0141756 0)
(-1.63948 -0.0143128 0)
(-1.64106 -0.0144349 0)
(-1.64297 -0.0145427 0)
(-1.64524 -0.0146363 0)
(-1.64789 -0.0147152 0)
(-1.65093 -0.0147804 0)
(-1.65439 -0.0148302 0)
(-1.65828 -0.0148631 0)
(-1.66261 -0.0148871 0)
(-1.66739 -0.0149027 0)
(-1.67263 -0.0149118 0)
(-1.67831 -0.014925 0)
(-1.68444 -0.0149477 0)
(-1.69098 -0.014989 0)
(-1.69791 -0.0150616 0)
(-1.7052 -0.0151828 0)
(-1.71279 -0.0153747 0)
(-1.72064 -0.015665 0)
(-1.72868 -0.0160853 0)
(-1.73684 -0.0166721 0)
(-1.74503 -0.0174655 0)
(-1.75317 -0.0185068 0)
(-1.76119 -0.0198225 0)
(-1.76902 -0.0214264 0)
(-1.77662 -0.0233058 0)
(-1.78396 -0.0253852 0)
(-1.79106 -0.0274845 0)
(-1.79797 -0.0292689 0)
(-1.80474 -0.0301458 0)
(-1.81141 -0.0291453 0)
(-1.81792 -0.0247708 0)
(-1.82443 -0.0149653 0)
(-1.83259 0.00230836 0)
(-1.84065 0.0308224 0)
(-1.85884 0.0801223 0)
(-1.89382 0.170354 0)
(-1.95459 0.347541 0)
(-2.04272 0.7255 0)
(-1.94954 -0.00424012 0)
(-1.94595 -0.00852308 0)
(-1.945 -0.0108747 0)
(-1.94243 -0.0121678 0)
(-1.9403 -0.0128419 0)
(-1.93751 -0.0131576 0)
(-1.93519 -0.0132557 0)
(-1.93243 -0.0132279 0)
(-1.93008 -0.0131209 0)
(-1.92742 -0.0129717 0)
(-1.92511 -0.0127953 0)
(-1.92258 -0.0126078 0)
(-1.92035 -0.0124131 0)
(-1.91796 -0.0122186 0)
(-1.91584 -0.0120243 0)
(-1.91361 -0.0118346 0)
(-1.91161 -0.011647 0)
(-1.90956 -0.0114678 0)
(-1.9077 -0.0112933 0)
(-1.90585 -0.0111296 0)
(-1.90416 -0.0109719 0)
(-1.90251 -0.0108261 0)
(-1.901 -0.0106889 0)
(-1.89957 -0.0105642 0)
(-1.89827 -0.0104499 0)
(-1.89707 -0.0103507 0)
(-1.896 -0.0102656 0)
(-1.89505 -0.0101959 0)
(-1.89422 -0.0101416 0)
(-1.89353 -0.0101023 0)
(-1.89297 -0.0100768 0)
(-1.89255 -0.010065 0)
(-1.89228 -0.0100675 0)
(-1.89215 -0.0100833 0)
(-1.89218 -0.010112 0)
(-1.89236 -0.0101529 0)
(-1.89271 -0.0102041 0)
(-1.89322 -0.0102658 0)
(-1.8939 -0.0103375 0)
(-1.89475 -0.0104169 0)
(-1.89579 -0.0105035 0)
(-1.89701 -0.0105977 0)
(-1.89842 -0.0106979 0)
(-1.90003 -0.0108028 0)
(-1.90185 -0.0109118 0)
(-1.90386 -0.0110237 0)
(-1.90608 -0.0111376 0)
(-1.90852 -0.0112535 0)
(-1.91118 -0.0113702 0)
(-1.91406 -0.0114862 0)
(-1.91717 -0.0115984 0)
(-1.92052 -0.0117067 0)
(-1.9241 -0.0118139 0)
(-1.92792 -0.0119185 0)
(-1.93198 -0.012017 0)
(-1.93629 -0.0121073 0)
(-1.94085 -0.0121889 0)
(-1.94564 -0.0122608 0)
(-1.95069 -0.0123212 0)
(-1.95597 -0.012369 0)
(-1.9615 -0.0124027 0)
(-1.96726 -0.0124212 0)
(-1.97325 -0.012423 0)
(-1.97947 -0.0124058 0)
(-1.98592 -0.0123702 0)
(-1.99258 -0.0123173 0)
(-1.99946 -0.012247 0)
(-2.00655 -0.0121603 0)
(-2.01383 -0.012056 0)
(-2.02131 -0.0119303 0)
(-2.02901 -0.0117884 0)
(-2.03693 -0.0116318 0)
(-2.04509 -0.0114672 0)
(-2.05349 -0.011314 0)
(-2.0621 -0.0111785 0)
(-2.07091 -0.0110719 0)
(-2.0799 -0.0110095 0)
(-2.08905 -0.0110113 0)
(-2.09834 -0.0111025 0)
(-2.10774 -0.0113141 0)
(-2.11722 -0.0116809 0)
(-2.12675 -0.0122418 0)
(-2.13629 -0.0130377 0)
(-2.14581 -0.0141109 0)
(-2.15527 -0.0154873 0)
(-2.16466 -0.017173 0)
(-2.17392 -0.0191462 0)
(-2.18304 -0.021323 0)
(-2.192 -0.0235173 0)
(-2.20081 -0.0253895 0)
(-2.20933 -0.02636 0)
(-2.21741 -0.0255248 0)
(-2.22451 -0.0215044 0)
(-2.23033 -0.0123295 0)
(-2.23532 0.00434403 0)
(-2.23611 0.033888 0)
(-2.2381 0.0860739 0)
(-2.24078 0.181154 0)
(-2.23481 0.361494 0)
(-2.21112 0.690051 0)
(-2.07607 -0.00459232 0)
(-2.07399 -0.00890008 0)
(-2.07531 -0.011311 0)
(-2.07548 -0.0126398 0)
(-2.0763 -0.0133327 0)
(-2.07661 -0.0136512 0)
(-2.07744 -0.0137456 0)
(-2.07785 -0.013707 0)
(-2.07867 -0.013587 0)
(-2.07918 -0.0134202 0)
(-2.08001 -0.0132245 0)
(-2.08061 -0.0130141 0)
(-2.08149 -0.0127945 0)
(-2.08219 -0.0125716 0)
(-2.08315 -0.0123468 0)
(-2.08398 -0.0121235 0)
(-2.08503 -0.0118996 0)
(-2.08602 -0.0116813 0)
(-2.0872 -0.0114652 0)
(-2.08836 -0.011257 0)
(-2.0897 -0.0110523 0)
(-2.09107 -0.0108561 0)
(-2.09259 -0.0106668 0)
(-2.09419 -0.0104874 0)
(-2.09592 -0.0103156 0)
(-2.09776 -0.0101553 0)
(-2.09974 -0.010007 0)
(-2.10185 -0.00987094 0)
(-2.1041 -0.00974763 0)
(-2.10649 -0.00963759 0)
(-2.10904 -0.0095399 0)
(-2.11175 -0.0094535 0)
(-2.11461 -0.00937973 0)
(-2.11763 -0.00931756 0)
(-2.12082 -0.00926524 0)
(-2.12417 -0.00922365 0)
(-2.12769 -0.00919253 0)
(-2.13139 -0.00917043 0)
(-2.13524 -0.0091565 0)
(-2.13926 -0.00914995 0)
(-2.14345 -0.00915069 0)
(-2.14779 -0.00915796 0)
(-2.15229 -0.00916993 0)
(-2.15695 -0.00918675 0)
(-2.16176 -0.0092086 0)
(-2.16671 -0.0092334 0)
(-2.1718 -0.00926007 0)
(-2.17702 -0.00928909 0)
(-2.18237 -0.00931932 0)
(-2.18783 -0.0093499 0)
(-2.19341 -0.00937714 0)
(-2.19911 -0.00939825 0)
(-2.20492 -0.0094148 0)
(-2.21086 -0.00942728 0)
(-2.21693 -0.00943397 0)
(-2.22311 -0.00943376 0)
(-2.22941 -0.00942612 0)
(-2.23582 -0.00941035 0)
(-2.24234 -0.00938469 0)
(-2.24896 -0.00934787 0)
(-2.25567 -0.00929885 0)
(-2.26248 -0.00923607 0)
(-2.26938 -0.00915788 0)
(-2.27638 -0.00906149 0)
(-2.28347 -0.0089469 0)
(-2.29065 -0.00881702 0)
(-2.29793 -0.00867144 0)
(-2.3053 -0.00850943 0)
(-2.31277 -0.00832964 0)
(-2.32035 -0.00813036 0)
(-2.32805 -0.00791307 0)
(-2.33583 -0.0076739 0)
(-2.34371 -0.00741947 0)
(-2.3517 -0.00718506 0)
(-2.35979 -0.00697327 0)
(-2.36799 -0.00679467 0)
(-2.37628 -0.00666547 0)
(-2.38468 -0.0066068 0)
(-2.39316 -0.00664532 0)
(-2.40173 -0.00681353 0)
(-2.41037 -0.00714823 0)
(-2.41908 -0.00768864 0)
(-2.42783 -0.00847288 0)
(-2.43663 -0.00954577 0)
(-2.44545 -0.0109356 0)
(-2.4543 -0.0126435 0)
(-2.46315 -0.0146496 0)
(-2.47199 -0.016866 0)
(-2.48077 -0.0191131 0)
(-2.48945 -0.021075 0)
(-2.49777 -0.0222257 0)
(-2.50541 -0.0217623 0)
(-2.51155 -0.0185381 0)
(-2.51539 -0.0108057 0)
(-2.51663 0.00408895 0)
(-2.5099 0.0319151 0)
(-2.49675 0.0815715 0)
(-2.46982 0.172107 0)
(-2.40819 0.336803 0)
(-2.31087 0.599819 0)
(-2.19436 -0.0043984 0)
(-2.19398 -0.00826434 0)
(-2.19755 -0.0104551 0)
(-2.2005 -0.0116632 0)
(-2.20429 -0.0122887 0)
(-2.20775 -0.012567 0)
(-2.21175 -0.0126379 0)
(-2.21541 -0.0125838 0)
(-2.21944 -0.0124536 0)
(-2.22317 -0.0122774 0)
(-2.22719 -0.0120729 0)
(-2.23096 -0.0118519 0)
(-2.23497 -0.01162 0)
(-2.23877 -0.0113823 0)
(-2.24279 -0.0111401 0)
(-2.24664 -0.0108971 0)
(-2.25068 -0.0106507 0)
(-2.25459 -0.0104064 0)
(-2.25867 -0.010162 0)
(-2.26268 -0.00992159 0)
(-2.26681 -0.0096822 0)
(-2.27094 -0.00944676 0)
(-2.27516 -0.00921674 0)
(-2.27941 -0.00899343 0)
(-2.28375 -0.00877554 0)
(-2.28815 -0.00856579 0)
(-2.29263 -0.00836598 0)
(-2.29719 -0.0081759 0)
(-2.30182 -0.00799584 0)
(-2.30653 -0.00782686 0)
(-2.31133 -0.00766976 0)
(-2.31622 -0.0075229 0)
(-2.3212 -0.00738748 0)
(-2.32625 -0.00726363 0)
(-2.3314 -0.00714888 0)
(-2.33663 -0.00704361 0)
(-2.34194 -0.00694975 0)
(-2.34734 -0.0068662 0)
(-2.35282 -0.00679157 0)
(-2.35836 -0.00672574 0)
(-2.36398 -0.00666944 0)
(-2.36967 -0.00662149 0)
(-2.37541 -0.00657996 0)
(-2.38121 -0.00654545 0)
(-2.38706 -0.00651884 0)
(-2.39296 -0.00649776 0)
(-2.3989 -0.00648108 0)
(-2.40488 -0.00646948 0)
(-2.41088 -0.00646138 0)
(-2.41692 -0.00645482 0)
(-2.42297 -0.00644793 0)
(-2.42907 -0.0064382 0)
(-2.43517 -0.00642365 0)
(-2.44128 -0.00640425 0)
(-2.44737 -0.00638015 0)
(-2.45347 -0.00635111 0)
(-2.45957 -0.00631628 0)
(-2.46567 -0.00627444 0)
(-2.47176 -0.00622366 0)
(-2.47785 -0.00616241 0)
(-2.48395 -0.00608919 0)
(-2.49005 -0.00600215 0)
(-2.49616 -0.00589939 0)
(-2.50227 -0.00577687 0)
(-2.50841 -0.00563276 0)
(-2.51457 -0.00547353 0)
(-2.52076 -0.00529754 0)
(-2.52698 -0.00510196 0)
(-2.53323 -0.00488522 0)
(-2.53952 -0.00465114 0)
(-2.54586 -0.00440455 0)
(-2.5522 -0.0041382 0)
(-2.5586 -0.00383531 0)
(-2.56505 -0.0035641 0)
(-2.57155 -0.00331325 0)
(-2.57812 -0.00309192 0)
(-2.58476 -0.00291709 0)
(-2.59149 -0.00281096 0)
(-2.59832 -0.00280123 0)
(-2.60527 -0.00292096 0)
(-2.61233 -0.00320775 0)
(-2.61952 -0.00370188 0)
(-2.62686 -0.00443416 0)
(-2.63436 -0.00545568 0)
(-2.64201 -0.00680384 0)
(-2.64983 -0.00846155 0)
(-2.65782 -0.0104246 0)
(-2.66597 -0.012613 0)
(-2.67419 -0.0148649 0)
(-2.68236 -0.0169059 0)
(-2.69018 -0.0182907 0)
(-2.69713 -0.0183543 0)
(-2.70223 -0.0162092 0)
(-2.70408 -0.0104483 0)
(-2.70216 0.00148424 0)
(-2.68872 0.0253141 0)
(-2.66256 0.0678685 0)
(-2.61066 0.145714 0)
(-2.50661 0.281969 0)
(-2.36352 0.477348 0)
(-2.2936 -0.00364374 0)
(-2.29489 -0.00666564 0)
(-2.30038 -0.00838752 0)
(-2.30579 -0.00932977 0)
(-2.31209 -0.00980691 0)
(-2.31833 -0.0100053 0)
(-2.32502 -0.0100363 0)
(-2.33148 -0.00996556 0)
(-2.33822 -0.00983248 0)
(-2.3447 -0.00966085 0)
(-2.35136 -0.00946437 0)
(-2.35779 -0.00925311 0)
(-2.36435 -0.00903059 0)
(-2.3707 -0.00880182 0)
(-2.37716 -0.00856705 0)
(-2.38343 -0.00832925 0)
(-2.38978 -0.00808821 0)
(-2.396 -0.00784586 0)
(-2.40224 -0.00760346 0)
(-2.40842 -0.00736187 0)
(-2.41456 -0.00712121 0)
(-2.42067 -0.00688194 0)
(-2.42673 -0.00664653 0)
(-2.43276 -0.00641537 0)
(-2.43875 -0.00618905 0)
(-2.44473 -0.00596989 0)
(-2.45065 -0.00575933 0)
(-2.45656 -0.00555815 0)
(-2.46243 -0.00536602 0)
(-2.46827 -0.00518368 0)
(-2.47407 -0.00501269 0)
(-2.47985 -0.00485337 0)
(-2.48559 -0.00470528 0)
(-2.49129 -0.00456828 0)
(-2.49696 -0.0044415 0)
(-2.5026 -0.00432474 0)
(-2.50819 -0.00421961 0)
(-2.51375 -0.00412614 0)
(-2.51927 -0.00404286 0)
(-2.52474 -0.00396933 0)
(-2.53018 -0.00390666 0)
(-2.53557 -0.00385359 0)
(-2.54092 -0.00380862 0)
(-2.54623 -0.00377206 0)
(-2.55149 -0.00374427 0)
(-2.55671 -0.00372313 0)
(-2.56189 -0.00370786 0)
(-2.56702 -0.00369852 0)
(-2.57211 -0.00369306 0)
(-2.57716 -0.00368851 0)
(-2.58217 -0.00368495 0)
(-2.58714 -0.00368329 0)
(-2.59206 -0.00368067 0)
(-2.59693 -0.00367406 0)
(-2.60175 -0.00366214 0)
(-2.60652 -0.00364422 0)
(-2.61125 -0.00361931 0)
(-2.61595 -0.00358566 0)
(-2.62061 -0.00354118 0)
(-2.62526 -0.00348424 0)
(-2.62989 -0.00341294 0)
(-2.63452 -0.00332537 0)
(-2.63914 -0.00321967 0)
(-2.64377 -0.00309149 0)
(-2.64842 -0.00293312 0)
(-2.65311 -0.00275969 0)
(-2.65783 -0.00256713 0)
(-2.66259 -0.00235086 0)
(-2.6674 -0.00211012 0)
(-2.67228 -0.00185022 0)
(-2.67723 -0.00157522 0)
(-2.68226 -0.00129727 0)
(-2.68737 -0.000924843 0)
(-2.69264 -0.000620991 0)
(-2.698 -0.000329559 0)
(-2.70349 -5.94938e-05 0)
(-2.7091 0.00017092 0)
(-2.71486 0.000338821 0)
(-2.72078 0.000416633 0)
(-2.72688 0.000371926 0)
(-2.73317 0.00016772 0)
(-2.73968 -0.000235757 0)
(-2.74642 -0.000871823 0)
(-2.75348 -0.00177954 0)
(-2.7607 -0.00302467 0)
(-2.76826 -0.00456316 0)
(-2.77607 -0.00641979 0)
(-2.7841 -0.00853075 0)
(-2.79223 -0.0107567 0)
(-2.80029 -0.0128826 0)
(-2.80791 -0.0145569 0)
(-2.81444 -0.015288 0)
(-2.81885 -0.0144085 0)
(-2.81928 -0.0110085 0)
(-2.81473 -0.0028668 0)
(-2.79701 0.0146963 0)
(-2.75992 0.046632 0)
(-2.68889 0.105352 0)
(-2.55514 0.205435 0)
(-2.38577 0.337307 0)
(-2.36776 -0.00234907 0)
(-2.37077 -0.00423323 0)
(-2.37773 -0.00530147 0)
(-2.38517 -0.00587239 0)
(-2.39337 -0.00614665 0)
(-2.40178 -0.0062436 0)
(-2.41044 -0.00623289 0)
(-2.41904 -0.00615731 0)
(-2.42769 -0.00604084 0)
(-2.43618 -0.00589942 0)
(-2.44464 -0.00574094 0)
(-2.45292 -0.00557231 0)
(-2.46112 -0.00539527 0)
(-2.46914 -0.00521339 0)
(-2.47705 -0.00502627 0)
(-2.48479 -0.00483502 0)
(-2.49239 -0.00464259 0)
(-2.49984 -0.00444843 0)
(-2.50712 -0.00425523 0)
(-2.51426 -0.00406266 0)
(-2.52123 -0.00387297 0)
(-2.52805 -0.00368532 0)
(-2.53468 -0.00350017 0)
(-2.54115 -0.00331793 0)
(-2.54746 -0.00314131 0)
(-2.55361 -0.00297197 0)
(-2.55958 -0.00280994 0)
(-2.5654 -0.0026568 0)
(-2.57106 -0.00251252 0)
(-2.57656 -0.0023771 0)
(-2.5819 -0.00225174 0)
(-2.5871 -0.00213849 0)
(-2.59214 -0.00203557 0)
(-2.59704 -0.00194163 0)
(-2.6018 -0.0018574 0)
(-2.60644 -0.00178293 0)
(-2.61094 -0.00171817 0)
(-2.61533 -0.00166354 0)
(-2.6196 -0.00161794 0)
(-2.62376 -0.00158047 0)
(-2.62782 -0.00155208 0)
(-2.6318 -0.00153168 0)
(-2.63568 -0.00151797 0)
(-2.63949 -0.0015111 0)
(-2.64323 -0.00151084 0)
(-2.6469 -0.00151534 0)
(-2.65052 -0.00152417 0)
(-2.65409 -0.00153677 0)
(-2.65762 -0.00155107 0)
(-2.66111 -0.00156474 0)
(-2.66457 -0.0015782 0)
(-2.66801 -0.00159246 0)
(-2.67143 -0.00160504 0)
(-2.67485 -0.00161215 0)
(-2.67827 -0.00161121 0)
(-2.6817 -0.00160112 0)
(-2.68514 -0.00158092 0)
(-2.68861 -0.00154852 0)
(-2.6921 -0.00150202 0)
(-2.69564 -0.00143958 0)
(-2.69921 -0.00135922 0)
(-2.70284 -0.00125925 0)
(-2.70652 -0.00113763 0)
(-2.71026 -0.000995013 0)
(-2.71407 -0.000802776 0)
(-2.71797 -0.000600224 0)
(-2.72196 -0.000377129 0)
(-2.72604 -0.000125484 0)
(-2.73022 0.000154314 0)
(-2.7345 0.000458906 0)
(-2.73889 0.00078287 0)
(-2.74346 0.00111782 0)
(-2.74811 0.00155377 0)
(-2.75291 0.00192657 0)
(-2.75789 0.00229175 0)
(-2.76306 0.00264134 0)
(-2.76843 0.00295737 0)
(-2.77401 0.00321728 0)
(-2.77981 0.00339405 0)
(-2.78585 0.00345616 0)
(-2.79214 0.00336746 0)
(-2.79869 0.00309033 0)
(-2.80552 0.00257905 0)
(-2.81268 0.0018083 0)
(-2.82002 0.000715977 0)
(-2.82776 -0.000676945 0)
(-2.83584 -0.00239758 0)
(-2.84403 -0.00440182 0)
(-2.85244 -0.00659608 0)
(-2.86074 -0.00883381 0)
(-2.86854 -0.0108569 0)
(-2.87512 -0.0123595 0)
(-2.87935 -0.0129174 0)
(-2.8794 -0.012051 0)
(-2.8727 -0.00821645 0)
(-2.85311 0.0013216 0)
(-2.81013 0.0200033 0)
(-2.72658 0.0550841 0)
(-2.57483 0.114585 0)
(-2.39248 0.188731 0)
(-2.40928 -0.000626777 0)
(-2.4134 -0.00119167 0)
(-2.42116 -0.00149866 0)
(-2.42972 -0.00164659 0)
(-2.43892 -0.00170017 0)
(-2.44845 -0.00169809 0)
(-2.45806 -0.00166247 0)
(-2.46768 -0.00160716 0)
(-2.47717 -0.00153956 0)
(-2.48653 -0.00146472 0)
(-2.49568 -0.00138507 0)
(-2.50464 -0.00130231 0)
(-2.51335 -0.00121702 0)
(-2.52186 -0.00113017 0)
(-2.53009 -0.0010412 0)
(-2.53811 -0.000949985 0)
(-2.54584 -0.000859078 0)
(-2.55334 -0.00076837 0)
(-2.56055 -0.000678303 0)
(-2.56754 -0.000589499 0)
(-2.57425 -0.000504495 0)
(-2.58072 -0.000421904 -4.95946e-42)
(-2.58693 -0.000339686 0)
(-2.5929 -0.000259227 0)
(-2.59863 -0.000184158 0)
(-2.60413 -0.000114008 0)
(-2.60939 -4.76257e-05 0)
(-2.61445 1.25126e-05 0)
(-2.61929 6.57566e-05 0)
(-2.62394 0.000113569 0)
(-2.62839 0.000154817 0)
(-2.63267 0.000187202 0)
(-2.63678 0.000213064 0)
(-2.64074 0.000234313 0)
(-2.64454 0.000249615 0)
(-2.64822 0.00025884 0)
(-2.65176 0.000262809 0)
(-2.6552 0.00026118 0)
(-2.65852 0.000254646 0)
(-2.66176 0.000244252 0)
(-2.66491 0.000229441 0)
(-2.66799 0.000210724 0)
(-2.67101 0.000189439 0)
(-2.67397 0.000165398 0)
(-2.67689 0.000138941 0)
(-2.67978 0.000111757 0)
(-2.68263 8.4107e-05 0)
(-2.68547 5.65259e-05 0)
(-2.6883 3.09696e-05 0)
(-2.69112 8.7812e-06 0)
(-2.69395 -1.03084e-05 0)
(-2.69679 -2.59317e-05 0)
(-2.69964 -3.55924e-05 0)
(-2.70252 -3.61598e-05 0)
(-2.70543 -2.52963e-05 0)
(-2.70838 -2.11052e-06 0)
(-2.71137 3.42091e-05 0)
(-2.71441 8.58717e-05 0)
(-2.7175 0.000154618 0)
(-2.72065 0.000242632 0)
(-2.72387 0.000351627 0)
(-2.72716 0.000483536 0)
(-2.73052 0.000639149 0)
(-2.73398 0.000819288 0)
(-2.73751 0.001054 0)
(-2.74113 0.00130277 0)
(-2.74486 0.00157532 0)
(-2.7487 0.00187977 0)
(-2.75267 0.00221586 0)
(-2.75677 0.00258194 0)
(-2.76101 0.00297207 0)
(-2.76541 0.00339895 0)
(-2.76996 0.00387941 0)
(-2.77467 0.0043454 0)
(-2.77957 0.00480712 0)
(-2.78467 0.00525718 0)
(-2.78999 0.00567944 0)
(-2.79554 0.00605233 0)
(-2.80133 0.00634962 0)
(-2.80738 0.00654035 0)
(-2.81372 0.00658923 0)
(-2.82036 0.00645785 0)
(-2.82733 0.00609917 7.16954e-41)
(-2.83464 0.00548055 0)
(-2.8423 0.00456376 0)
(-2.85032 0.00332014 0)
(-2.85868 0.00174307 0)
(-2.86713 -0.000152805 -1.79622e-42)
(-2.87588 -0.00232712 0)
(-2.88426 -0.00468545 0)
(-2.89224 -0.00709074 0)
(-2.89897 -0.00941485 0)
(-2.90329 -0.0115133 0)
(-2.90335 -0.0132287 -7.77513e-41)
(-2.89596 -0.0140347 0)
(-2.87535 -0.0131075 0)
(-2.83064 -0.00937728 -1.10229e-40)
(-2.74235 -0.00061109 0)
(-2.5832 0.0156041 0)
(-2.39628 0.0361919 0)
(-2.40553 0.00124559 0)
(-2.40956 0.00205436 0)
(-2.41725 0.00253856 0)
(-2.4257 0.00282386 0)
(-2.4348 0.00299007 0)
(-2.44423 0.00308382 0)
(-2.45374 0.00313208 0)
(-2.46325 0.00315198 0)
(-2.47265 0.00315286 0)
(-2.48191 0.00314179 0)
(-2.49097 0.00312186 0)
(-2.49984 0.00309685 0)
(-2.50847 0.00306781 0)
(-2.5169 0.00303633 0)
(-2.52506 0.00300328 0)
(-2.53301 0.00296934 0)
(-2.54068 0.00293431 0)
(-2.54813 0.00289791 0)
(-2.5553 0.00286147 0)
(-2.56225 0.0028238 0)
(-2.56893 0.00278365 0)
(-2.57538 0.00274219 3.22343e-41)
(-2.58158 0.00270264 0)
(-2.58754 0.00266312 0)
(-2.59327 0.00262126 0)
(-2.59878 0.00257806 0)
(-2.60406 0.00253542 0)
(-2.60914 0.00249099 0)
(-2.61401 0.00244364 0)
(-2.61869 0.00239575 0)
(-2.62318 0.00234607 0)
(-2.6275 0.00229278 0)
(-2.63165 0.00223806 0)
(-2.63566 0.00218421 0)
(-2.63951 0.00212979 0)
(-2.64324 0.00207437 0)
(-2.64684 0.00201866 0)
(-2.65033 0.00196277 0)
(-2.6537 0.00190709 0)
(-2.657 0.00185247 0)
(-2.6602 0.00179875 0)
(-2.66334 0.0017457 0)
(-2.6664 0.0016948 0)
(-2.66941 0.00164583 0)
(-2.67238 0.00159887 0)
(-2.67531 0.00155551 0)
(-2.6782 0.00151604 0)
(-2.68108 0.00148055 0)
(-2.68394 0.00145077 0)
(-2.6868 0.00142767 0)
(-2.68966 0.00141081 0)
(-2.69252 0.00140065 0)
(-2.6954 0.00140028 0)
(-2.69829 0.00141311 0)
(-2.70122 0.00144068 0)
(-2.70418 0.00148321 0)
(-2.70718 0.0015415 0)
(-2.71022 0.00161774 0)
(-2.71332 0.00171384 0)
(-2.71647 0.00183212 0)
(-2.71968 0.00197416 0)
(-2.72296 0.00214224 0)
(-2.72632 0.00233666 0)
(-2.72976 0.00256427 0)
(-2.73328 0.00283512 0)
(-2.73688 0.00313252 0)
(-2.74059 0.00345994 0)
(-2.74441 0.00382191 0)
(-2.74834 0.00421884 0)
(-2.7524 0.00464992 0)
(-2.75659 0.00511496 0)
(-2.76093 0.00562308 0)
(-2.76541 0.00617107 0)
(-2.77006 0.00672625 0)
(-2.77489 0.00728502 0)
(-2.77992 0.00783831 0)
(-2.78515 0.00837092 0)
(-2.79062 0.00886239 0)
(-2.79634 0.00928754 0)
(-2.80232 0.00961631 0)
(-2.8086 0.00981439 0)
(-2.81519 0.00984263 0)
(-2.82213 0.00965808 1.1353e-40)
(-2.82943 0.00922079 0)
(-2.83711 0.00848796 0)
(-2.84518 0.00741629 0)
(-2.85359 0.00599121 0)
(-2.86227 0.00418358 4.91777e-41)
(-2.87112 0.00200292 0)
(-2.8796 -0.000505516 0)
(-2.88755 -0.0033145 0)
(-2.89413 -0.00646598 0)
(-2.89844 -0.0101035 0)
(-2.89855 -0.0144569 -8.497e-41)
(-2.89128 -0.0199533 0)
(-2.87083 -0.0275611 0)
(-2.8267 -0.0390829 -4.59417e-40)
(-2.74026 -0.0573931 0)
(-2.58304 -0.0853926 0)
(-2.39803 -0.117242 0)
(-2.35896 0.00292612 0)
(-2.36179 0.00502734 0)
(-2.36855 0.0062587 0)
(-2.37575 0.00695959 0)
(-2.38368 0.0073419 0)
(-2.39181 0.00753154 0)
(-2.40018 0.00760257 0)
(-2.40848 0.00760049 0)
(-2.41682 0.00755153 0)
(-2.425 0.00747313 0)
(-2.43315 0.00737461 0)
(-2.4411 0.00726401 0)
(-2.44898 0.00714415 0)
(-2.45667 0.00701925 0)
(-2.46426 0.00688971 0)
(-2.47167 0.00675771 0)
(-2.47896 0.00662351 0)
(-2.48609 0.00648794 0)
(-2.49307 0.00635188 0)
(-2.49991 0.00621489 0)
(-2.5066 0.00607781 0)
(-2.51314 0.00593974 0)
(-2.51955 0.00580394 0)
(-2.52581 0.00566911 0)
(-2.53192 0.00553461 0)
(-2.5379 0.00539991 0)
(-2.54373 0.00526708 0)
(-2.54942 0.00513588 0)
(-2.55496 0.00500506 0)
(-2.56038 0.00487636 0)
(-2.56566 0.00474878 0)
(-2.57081 0.00462139 0)
(-2.57583 0.00449596 0)
(-2.58074 0.00437487 0)
(-2.58552 0.00425704 0)
(-2.5902 0.00414175 0)
(-2.59476 0.00402932 0)
(-2.59922 0.00392028 0)
(-2.60357 0.00381545 0)
(-2.60784 0.00371543 0)
(-2.61201 0.00361998 0)
(-2.61609 0.00352894 0)
(-2.62009 0.00344373 0)
(-2.62402 0.00336412 0)
(-2.62788 0.00329012 0)
(-2.63168 0.00322327 0)
(-2.63542 0.00316407 0)
(-2.63911 0.00311222 0)
(-2.64275 0.00306916 0)
(-2.64635 0.00303593 0)
(-2.64992 0.00301232 0)
(-2.65346 0.00299721 0)
(-2.65697 0.00299496 0)
(-2.66047 0.00301112 0)
(-2.66395 0.00304555 0)
(-2.66744 0.00309729 0)
(-2.67092 0.00316747 0)
(-2.67442 0.00325832 0)
(-2.67793 0.0033722 0)
(-2.68145 0.00351107 0)
(-2.68501 0.0036768 0)
(-2.6886 0.00387166 0)
(-2.69224 0.00409742 0)
(-2.69591 0.00435988 0)
(-2.69965 0.00466263 0)
(-2.70343 0.00499899 0)
(-2.70728 0.00537071 0)
(-2.71121 0.00578075 0)
(-2.71523 0.0062292 0)
(-2.71933 0.00671629 0)
(-2.72354 0.00724526 0)
(-2.72786 0.00782139 0)
(-2.73231 0.00843673 0)
(-2.73689 0.00907174 0)
(-2.74163 0.00971888 0)
(-2.74653 0.0103683 0)
(-2.75163 0.0110057 0)
(-2.75693 0.0116116 0)
(-2.76247 0.0121621 0)
(-2.76826 0.0126284 0)
(-2.77433 0.012977 0)
(-2.78072 0.0131696 0)
(-2.78745 0.0131641 0)
(-2.79455 0.0129167 0)
(-2.80204 0.0123787 0)
(-2.80993 0.0115018 0)
(-2.81819 0.0102437 0)
(-2.82674 0.00854216 0)
(-2.83543 0.0063564 0)
(-2.844 0.00364535 0)
(-2.85196 0.000397512 0)
(-2.85848 -0.00355942 0)
(-2.86269 -0.00866616 0)