/*--------------------------------*- C++ -*----------------------------------*\
| =========                 |                                                 |
| \\      /  F ield         | OpenFOAM: The Open Source CFD Toolbox           |
|  \\    /   O peration     | Version:  2.1.0                                 |
|   \\  /    A nd           | Web:      www.OpenFOAM.org                      |
|    \\/     M anipulation  |                                                 |
\*---------------------------------------------------------------------------*/
FoamFile
{
    version     2.0;
    format      ascii;
    class       volScalarField;
    location    "0.14";
    object      k;
}
// * * * * * * * * * * * * * * * * * * * * * * * * * * * * * * * * * * * * * //

dimensions      [0 2 -2 0 0 0 0];

internalField   nonuniform List<scalar> 
6400
(
0.0244243
0.0248386
0.0250009
0.0253125
0.0254669
0.0257619
0.025907
0.0261824
0.0263168
0.0265687
0.0266907
0.0269164
0.0270248
0.0272225
0.027317
0.0274867
0.0275676
0.0277089
0.0277738
0.0278794
0.0279267
0.0279996
0.0280315
0.0280771
0.0280961
0.0281206
0.0281292
0.0281333
0.0281306
0.0281244
0.0281108
0.0280938
0.0280706
0.0280439
0.0280122
0.0279763
0.0279362
0.0278918
0.0278433
0.0277892
0.0277307
0.0276668
0.0275973
0.0275212
0.0274383
0.0273483
0.0272502
0.0271435
0.0270274
0.026902
0.0267658
0.0266162
0.0264525
0.0262817
0.0261
0.0259096
0.0257093
0.0254986
0.0252781
0.0250485
0.0248083
0.024558
0.0242969
0.0240253
0.0237424
0.0234471
0.0231344
0.0228107
0.0224668
0.0221095
0.0217322
0.0213381
0.0209255
0.0204939
0.020046
0.0195809
0.0191024
0.0186118
0.0181122
0.0176052
0.0170889
0.0165529
0.0159808
0.0154052
0.0148059
0.0141791
0.0135124
0.0127835
0.0119696
0.0110297
0.00991768
0.00855478
0.00686804
0.00483794
0.00264203
0.00167508
0.00210219
0.00419961
0.00616154
0.00678435
0.0413252
0.0425722
0.0430637
0.0439611
0.0444068
0.0452339
0.0456439
0.0463983
0.0467729
0.047457
0.0477963
0.0484133
0.0487251
0.0492744
0.0495656
0.0500555
0.0503293
0.0507638
0.0510162
0.0513826
0.0516154
0.0519341
0.0521617
0.0524511
0.0526772
0.0529479
0.0531749
0.0534345
0.0536649
0.0539168
0.0541508
0.0543981
0.0546373
0.0548834
0.0551275
0.0553747
0.0556247
0.0558769
0.0561338
0.05639
0.0566508
0.0569117
0.0571733
0.0574327
0.0576915
0.0579468
0.0581965
0.0584382
0.0586703
0.0588948
0.0591143
0.0593154
0.0595006
0.0596819
0.0598526
0.0600167
0.0601661
0.0603007
0.0604174
0.0605217
0.0606099
0.0606824
0.0607354
0.0607639
0.0607747
0.0607719
0.0607214
0.0606513
0.0605297
0.0603717
0.0601569
0.0598867
0.0595499
0.0591417
0.0586548
0.0580825
0.0574232
0.0566699
0.0558244
0.0548853
0.0538565
0.052738
0.0515038
0.0501054
0.0485461
0.0467798
0.0447894
0.0425205
0.0399375
0.0369841
0.0336502
0.0299374
0.0259451
0.0218657
0.017732
0.0137667
0.0107092
0.00857876
0.00716561
0.00594799
0.0449209
0.0465015
0.0471445
0.0483016
0.0489215
0.0499808
0.0505675
0.0515291
0.0520812
0.0529489
0.0534658
0.0542465
0.0547309
0.0554314
0.0558868
0.0565173
0.0569454
0.057514
0.0579196
0.0584315
0.058818
0.0592807
0.0596501
0.0600739
0.0604289
0.0608235
0.061168
0.0615428
0.0618808
0.0622382
0.0625698
0.0629146
0.0632444
0.0635787
0.0639045
0.0642284
0.0645487
0.0648644
0.0651787
0.0654845
0.0657911
0.0660909
0.066384
0.0666681
0.0669456
0.0672086
0.0674563
0.0676845
0.067884
0.068048
0.0682088
0.0683386
0.0684621
0.0685596
0.0686397
0.0687014
0.0687366
0.068753
0.068757
0.0687203
0.0686546
0.0685526
0.0684129
0.0682356
0.0680132
0.0677483
0.0674298
0.0670658
0.0666374
0.0661524
0.0655931
0.0649587
0.0642381
0.0634235
0.0625062
0.0614778
0.0603315
0.0590588
0.0576569
0.0561195
0.0544472
0.0526382
0.0506976
0.0486466
0.0464774
0.0442043
0.0418201
0.0393239
0.0366916
0.0339028
0.0309255
0.0277372
0.0243003
0.0206418
0.0168285
0.0131121
0.0100032
0.00752155
0.00564591
0.00386206
0.0478178
0.049603
0.0503287
0.0516512
0.052362
0.0535688
0.0542495
0.0553414
0.0559858
0.0569685
0.0575737
0.0584564
0.0590229
0.0598147
0.060344
0.0610536
0.0615459
0.0621815
0.0626395
0.0632085
0.063638
0.0641496
0.0645535
0.0650149
0.0653927
0.0658094
0.0661627
0.0665453
0.0668778
0.0672244
0.0675326
0.0678508
0.0681385
0.0684243
0.0686902
0.0689468
0.0691833
0.0694069
0.0696181
0.0698043
0.0699798
0.0701333
0.0702637
0.0703738
0.0704632
0.0705222
0.0705511
0.0705609
0.0705456
0.0704856
0.0704108
0.0702858
0.0701376
0.0699417
0.069707
0.0694272
0.0690932
0.0687099
0.0682639
0.0677594
0.0671916
0.0665538
0.0658457
0.0650634
0.0642013
0.0632618
0.0622387
0.061135
0.0599461
0.0586774
0.0573247
0.0558951
0.0543888
0.0528084
0.0511595
0.0494413
0.047661
0.045818
0.0439189
0.0419651
0.0399616
0.037908
0.0358055
0.0336564
0.0314696
0.0292609
0.0270271
0.0247642
0.0224792
0.0202227
0.0180082
0.015817
0.0136321
0.0115169
0.00947704
0.00758443
0.00581361
0.00436219
0.00336824
0.00291334
0.0486372
0.0504015
0.0511183
0.0524391
0.0531422
0.0543459
0.0550144
0.0560973
0.056722
0.0576879
0.0582651
0.059122
0.0596514
0.0604078
0.0608897
0.0615521
0.0619856
0.0625591
0.0629429
0.0634352
0.0637771
0.0641956
0.0644957
0.064846
0.0651062
0.0653878
0.0655973
0.0658259
0.0659948
0.0661579
0.0662759
0.0663899
0.0664562
0.0664963
0.0665104
0.0665093
0.0664559
0.0663736
0.0662657
0.0661047
0.0659189
0.0656885
0.0654126
0.0650992
0.0647396
0.0643289
0.0638773
0.0633733
0.0628193
0.0622153
0.0615618
0.0608519
0.0600959
0.0592824
0.0584192
0.0575034
0.056535
0.0555203
0.0544535
0.0533417
0.052182
0.0509766
0.0497296
0.0484398
0.0471114
0.0457468
0.0443454
0.0429117
0.0414458
0.0399526
0.0384345
0.0368893
0.0353188
0.0337246
0.0321121
0.0304867
0.0288525
0.0272164
0.0255817
0.0239567
0.022338
0.0207335
0.0191468
0.0176096
0.0161403
0.0147413
0.0133667
0.0120168
0.0107376
0.00965374
0.00862353
0.00758986
0.00655587
0.00569891
0.0049152
0.00419715
0.00350185
0.00313088
0.00295893
0.00293547
0.0456861
0.0472088
0.0478246
0.0489643
0.0495526
0.0505791
0.0511167
0.0520201
0.0524977
0.0532774
0.0536917
0.0543509
0.0547012
0.0552454
0.0555321
0.0559683
0.0561949
0.0565131
0.0566675
0.0568809
0.0569814
0.0570842
0.0571225
0.0571359
0.0571269
0.0570542
0.0569317
0.0567964
0.0566074
0.0563722
0.056104
0.0558055
0.0554537
0.0550714
0.0546525
0.0541911
0.0536869
0.0531493
0.052572
0.0519497
0.0512971
0.0506024
0.0498704
0.0491045
0.0483024
0.0474644
0.046598
0.0456953
0.0447662
0.0438072
0.0428215
0.0418103
0.040778
0.0397166
0.0386347
0.037529
0.0364028
0.0352598
0.034102
0.0329312
0.0317496
0.0305595
0.0293621
0.0281588
0.0269514
0.0257411
0.02453
0.0233224
0.0221186
0.0209236
0.0197371
0.0185991
0.0174894
0.0164344
0.0154054
0.0144345
0.0134912
0.0126119
0.0117579
0.0109666
0.0101965
0.00949182
0.00881492
0.00820767
0.00762299
0.00709156
0.00657152
0.00610403
0.00566047
0.00526568
0.00486924
0.00450725
0.00415566
0.00385095
0.00355614
0.00331675
0.00313818
0.00306056
0.00304568
0.00313155
0.0382045
0.0392689
0.0396909
0.0404554
0.0408326
0.0414806
0.0417974
0.0423166
0.0425682
0.0429578
0.0431425
0.0433971
0.0435128
0.043636
0.0436792
0.0436948
0.0436843
0.0436138
0.0434696
0.0433156
0.0431157
0.0428796
0.0425912
0.0422888
0.0419379
0.0415496
0.0411207
0.0406737
0.0401793
0.0396543
0.0391023
0.0385225
0.0379032
0.0372652
0.0365985
0.0359039
0.0351843
0.0344464
0.0336822
0.0328982
0.032098
0.0312803
0.0304467
0.0296016
0.028744
0.0278755
0.0269998
0.0261158
0.0252278
0.024335
0.0234409
0.0225467
0.0216539
0.0207816
0.0199234
0.0190883
0.0182697
0.0174743
0.0166936
0.015941
0.0152052
0.0144986
0.0138106
0.0131524
0.0125142
0.0119055
0.0113193
0.0107626
0.0102298
0.00972666
0.00924717
0.00879916
0.00837541
0.00797923
0.00760598
0.00725842
0.00693032
0.00662646
0.00633835
0.00607241
0.00582079
0.00558824
0.00536812
0.0051634
0.0049664
0.00478209
0.00460247
0.00443474
0.00427028
0.00411525
0.00396356
0.00382357
0.00369083
0.00357679
0.00347783
0.00342281
0.00339825
0.00341821
0.00357659
0.00366221
0.0277608
0.0283149
0.0285229
0.0288666
0.0290275
0.0292583
0.0293611
0.0294708
0.0295079
0.0295212
0.0295061
0.0294313
0.0292915
0.0291429
0.0289426
0.0287065
0.0284262
0.0281217
0.0277639
0.0273885
0.0269766
0.0265381
0.0260575
0.0255666
0.0250465
0.0245127
0.0239619
0.0234082
0.0228354
0.0222605
0.0216795
0.0210974
0.020503
0.0199192
0.0193323
0.0187481
0.0181723
0.0176034
0.0170419
0.0164916
0.015953
0.0154242
0.0149093
0.0144068
0.0139206
0.0134465
0.012991
0.0125502
0.0121273
0.0117207
0.0113345
0.0109632
0.0106134
0.0102818
0.00997047
0.00967701
0.00940229
0.00914445
0.00890283
0.00867865
0.00846728
0.00827261
0.0080892
0.00792096
0.00776266
0.00761964
0.00748616
0.00736579
0.00725383
0.00715294
0.0070593
0.00697497
0.00689698
0.00682523
0.00675958
0.00669747
0.00664025
0.00658499
0.00653318
0.00648195
0.00643383
0.00638364
0.00633563
0.00628272
0.00622938
0.00616712
0.00610061
0.00602227
0.00593642
0.00583701
0.00572993
0.00561255
0.0054943
0.00537838
0.00528688
0.0052444
0.00523598
0.00535899
0.00557199
0.00569788
0.0167129
0.0168098
0.0168299
0.0168376
0.0168274
0.0167789
0.0166811
0.0165741
0.0164403
0.0162821
0.0160902
0.0158845
0.0156499
0.0154063
0.015139
0.0148619
0.0145652
0.0142688
0.0139518
0.0136372
0.0133136
0.01299
0.0126575
0.012337
0.0120131
0.0116974
0.011388
0.0110908
0.0107964
0.0105167
0.0102457
0.00998853
0.00973765
0.0095058
0.00928197
0.00907155
0.00887548
0.00869125
0.00851999
0.00836142
0.00821598
0.00808201
0.00796114
0.00785125
0.00775495
0.00766783
0.00759439
0.00753029
0.00747812
0.00743553
0.00740534
0.00738392
0.00737398
0.00737063
0.0073755
0.00739333
0.00741591
0.00745052
0.00748981
0.00754073
0.00759606
0.00766234
0.0077333
0.00781443
0.00790055
0.00799619
0.00809705
0.0082069
0.0083224
0.00844662
0.00857678
0.00871572
0.00886132
0.0090159
0.00917786
0.00934872
0.00952756
0.00971534
0.00991132
0.0101153
0.0103271
0.0105455
0.0107705
0.0109994
0.0112326
0.0114672
0.0117022
0.0119316
0.0121512
0.0123564
0.0125438
0.0127098
0.0128541
0.0129785
0.0130912
0.0132205
0.0134332
0.0138073
0.0142909
0.0146449
0.009264
0.00918984
0.00912488
0.00904979
0.00895477
0.00884784
0.0087279
0.00860583
0.008477
0.00833993
0.00819802
0.00805729
0.00791472
0.00777182
0.00762978
0.00749196
0.00735634
0.0072262
0.00709895
0.00697958
0.00686542
0.0067577
0.00665591
0.00656433
0.00647724
0.00639892
0.00632836
0.00626626
0.00620975
0.00616294
0.00612266
0.00609075
0.00606471
0.00604784
0.00603868
0.00603513
0.00603504
0.00604754
0.00606108
0.00608551
0.00611235
0.00614811
0.00618746
0.00623423
0.00628594
0.00634336
0.00640693
0.00647526
0.00655023
0.00662952
0.00671591
0.00680623
0.00690372
0.00700575
0.00711443
0.00722863
0.00734906
0.00747557
0.0076088
0.00774815
0.00789478
0.00804793
0.00820874
0.00837678
0.00855306
0.00873749
0.0089307
0.00913316
0.00934523
0.00956775
0.00980087
0.0100458
0.0103027
0.0105729
0.0108567
0.0111556
0.0114701
0.0118019
0.0121517
0.0125213
0.0129119
0.0133251
0.0137627
0.014226
0.0147173
0.0152379
0.0157907
0.0163794
0.01701
0.0176866
0.0184187
0.0192109
0.0200742
0.0210165
0.0220502
0.0231811
0.024397
0.0256339
0.0264646
0.0267898
0.00975702
0.00971973
0.00965718
0.00959638
0.00951697
0.00942602
0.00931959
0.00920387
0.00907938
0.00895021
0.00881369
0.00867071
0.00852596
0.00838081
0.00823254
0.00808495
0.00793994
0.00779723
0.00765525
0.00751967
0.00738754
0.00726022
0.00713829
0.00702388
0.00691323
0.00681208
0.00671658
0.00662911
0.00654895
0.00647792
0.0064123
0.00635703
0.00630812
0.00626739
0.0062331
0.006208
0.00618865
0.00617885
0.00617459
0.00617415
0.00618562
0.00619883
0.00622315
0.00624928
0.00628536
0.00632459
0.00637212
0.00642362
0.0064828
0.00654618
0.00661643
0.00669163
0.00677306
0.00685986
0.00695265
0.00705116
0.00715559
0.00726552
0.00738208
0.00750332
0.00763195
0.00776562
0.00790657
0.00805328
0.0082073
0.00836762
0.0085356
0.00871044
0.00889322
0.00908359
0.00928229
0.00948924
0.00970502
0.00992978
0.010164
0.010408
0.0106622
0.0109272
0.0112034
0.0114916
0.0117923
0.0121065
0.0124349
0.0127789
0.0131396
0.013519
0.0139192
0.0143431
0.0147941
0.0152749
0.015788
0.0163441
0.01695
0.0176187
0.018366
0.0192145
0.0201888
0.0212835
0.022229
0.0226579
0.0176264
0.0178026
0.0178585
0.0179209
0.0179401
0.0179462
0.0179297
0.0178694
0.0177673
0.0176594
0.0175191
0.0173528
0.0171592
0.0169518
0.0167126
0.0164635
0.0161939
0.0159128
0.0156086
0.0153041
0.0149799
0.0146523
0.0143147
0.0139773
0.0136253
0.0132824
0.0129314
0.0125843
0.0122378
0.0119046
0.0115694
0.0112508
0.0109381
0.0106386
0.010345
0.0100697
0.00980144
0.00954775
0.00930513
0.0090787
0.00886072
0.0086589
0.00846984
0.00829201
0.00812821
0.00797731
0.00783809
0.00771126
0.0075977
0.00749378
0.00740348
0.0073217
0.00725338
0.00719254
0.00714417
0.00710315
0.00707231
0.00704851
0.00703583
0.00702975
0.00702822
0.00703547
0.00704849
0.0070673
0.00709157
0.0071202
0.00715378
0.00719027
0.00722986
0.007271
0.0073143
0.00735758
0.00740167
0.00744449
0.00748637
0.00752567
0.00756258
0.00759548
0.00762455
0.00764857
0.00766731
0.00767987
0.00768592
0.00768801
0.00768557
0.00767578
0.00766549
0.00765056
0.00763861
0.00762952
0.00762596
0.00762541
0.00764256
0.007676
0.00774565
0.00786365
0.0080743
0.00840601
0.00887583
0.00919555
0.0284744
0.0291331
0.0293863
0.029828
0.0300406
0.0303834
0.0305438
0.0307725
0.0308749
0.0309881
0.031028
0.0310431
0.0310348
0.0309738
0.0308461
0.0307104
0.0305278
0.0303092
0.0300468
0.0297643
0.0294272
0.0290687
0.0286759
0.0282549
0.0277903
0.0273129
0.0267975
0.0262579
0.0256866
0.025113
0.0245108
0.0239049
0.0232862
0.0226659
0.0220296
0.0214003
0.0207621
0.0201251
0.019485
0.018856
0.0182241
0.0176025
0.0169907
0.0163862
0.0157912
0.0152104
0.0146401
0.0140841
0.0135452
0.0130203
0.0125152
0.0120252
0.0115578
0.0111064
0.0106782
0.0102733
0.00988882
0.00952716
0.00918499
0.00886309
0.00855773
0.00827304
0.00800098
0.00774739
0.00750562
0.00727871
0.00706172
0.00685913
0.00666746
0.00648692
0.00631742
0.00615549
0.00600346
0.00585713
0.00571894
0.00558359
0.00545626
0.00532914
0.00520989
0.00508996
0.00497739
0.00486263
0.00475615
0.00464661
0.00454603
0.00444511
0.00435203
0.00426154
0.00417846
0.00410064
0.00403311
0.00397354
0.00392302
0.00388743
0.00387164
0.00386991
0.00394653
0.00407759
0.00428413
0.00437671
0.0384852
0.0396533
0.0401203
0.0409822
0.0414109
0.0421694
0.042544
0.0431816
0.0434941
0.0440055
0.0442541
0.0446417
0.0448272
0.0450878
0.0452077
0.0453466
0.0454024
0.0454266
0.0454274
0.0453859
0.0452652
0.0451251
0.0449479
0.044732
0.0444617
0.0441755
0.043847
0.0434821
0.0430772
0.0426505
0.0421832
0.0416778
0.041143
0.0405814
0.0399771
0.039347
0.0386892
0.0379981
0.0372761
0.0365318
0.0357565
0.0349542
0.0341295
0.0332805
0.0324096
0.0315196
0.0306127
0.0296853
0.028746
0.0277909
0.0268243
0.0258467
0.0248603
0.0238661
0.0228672
0.0218974
0.0209333
0.020004
0.0190854
0.0182057
0.0173402
0.0165088
0.0156971
0.0149197
0.0141662
0.0134482
0.0127567
0.0121004
0.0114727
0.010877
0.0103127
0.00977844
0.00927891
0.0088084
0.00837122
0.00795535
0.00757036
0.00719979
0.00685801
0.00652652
0.00622613
0.00592964
0.00566327
0.00539327
0.00514753
0.00490217
0.00468236
0.00446565
0.00426729
0.00406215
0.00387866
0.00370688
0.00355503
0.0034126
0.00328162
0.00319049
0.00314804
0.00313943
0.00326511
0.00335083
0.0453415
0.0469484
0.0476004
0.0488127
0.0494468
0.05055
0.0511425
0.0521266
0.0526661
0.0535293
0.0540102
0.054755
0.0551748
0.0558057
0.056165
0.0566887
0.0569878
0.0574095
0.0576507
0.0579745
0.0581441
0.0583715
0.0584825
0.0586068
0.0586617
0.0586897
0.0586947
0.0586634
0.0585655
0.0584484
0.0582976
0.0580941
0.0578552
0.0575886
0.057271
0.0569131
0.0565243
0.0560934
0.0556208
0.0551089
0.0545603
0.0539658
0.0533331
0.0526624
0.0519487
0.0511954
0.0504081
0.0495763
0.0487129
0.0478118
0.0468766
0.0459094
0.0449118
0.0438832
0.04283
0.0417404
0.0406244
0.0394786
0.0383072
0.0371107
0.0358942
0.0346622
0.0334142
0.0321556
0.0308849
0.0296059
0.0283193
0.0270269
0.0257334
0.0244397
0.0231503
0.021865
0.0206296
0.0194333
0.018296
0.0171982
0.0161556
0.0151413
0.0141813
0.0132353
0.0123477
0.0114828
0.0107012
0.00993947
0.00922374
0.00847891
0.00779308
0.00716913
0.00667126
0.00611172
0.00550095
0.00494561
0.00452613
0.00412781
0.00370845
0.0033342
0.00309771
0.00298498
0.00295471
0.00300242
0.0478021
0.0496312
0.0503757
0.0517513
0.0524875
0.0537465
0.054454
0.0555928
0.056261
0.0572825
0.0579057
0.0588164
0.0593918
0.0601992
0.0607274
0.0614405
0.0619221
0.0625478
0.0629828
0.0635257
0.0639136
0.0643806
0.0647262
0.0651253
0.065429
0.0657673
0.0660347
0.066315
0.0665328
0.066759
0.0669426
0.0671139
0.0672469
0.0673739
0.0674652
0.0675342
0.0675698
0.0675832
0.0675828
0.0675334
0.0674609
0.0673564
0.0672086
0.0670344
0.0668157
0.0665545
0.0662586
0.06591
0.0655184
0.0650796
0.0645884
0.064047
0.063455
0.0628063
0.0621058
0.0613494
0.0605377
0.0596712
0.0587486
0.0577723
0.05674
0.0556604
0.0545276
0.0533499
0.0521248
0.0508561
0.0495461
0.0481954
0.0468081
0.0453855
0.043929
0.0424445
0.0409262
0.0393803
0.0378026
0.0361892
0.0345511
0.0328955
0.0312443
0.0295795
0.0278754
0.0260888
0.024285
0.0225596
0.0209746
0.0193243
0.0173546
0.0152566
0.0138234
0.0128644
0.0113352
0.00927954
0.00772521
0.00697659
0.00601337
0.00459042
0.00376339
0.00324561
0.00296107
0.00288603
0.0466956
0.0485365
0.0492855
0.0506536
0.05139
0.0526414
0.0533514
0.0544866
0.0551625
0.0561863
0.0568235
0.0577437
0.0583405
0.059165
0.0597224
0.0604614
0.0609804
0.0616412
0.0621233
0.0627116
0.063159
0.0636836
0.0641006
0.0645727
0.064962
0.0653905
0.065756
0.0661474
0.0664902
0.0668531
0.0671804
0.0675137
0.0678199
0.0681295
0.0684216
0.0687061
0.0689788
0.0692431
0.0694982
0.0697367
0.0699696
0.0701875
0.0703911
0.070584
0.0707607
0.0709179
0.0710635
0.0711865
0.0712886
0.0713707
0.0714254
0.0714517
0.07146
0.0714396
0.0713836
0.0712982
0.0711723
0.0710102
0.0707984
0.070544
0.07023
0.0698619
0.069427
0.068929
0.0683623
0.0677206
0.067002
0.0662024
0.0653174
0.0643484
0.0632885
0.0621421
0.0609053
0.0595834
0.058178
0.056691
0.0551243
0.0534763
0.0517544
0.0499599
0.0480972
0.0461454
0.0440966
0.0419501
0.0397442
0.0374695
0.0350615
0.0324323
0.0296747
0.0269696
0.0241592
0.0211043
0.0180124
0.0150373
0.0121366
0.00941528
0.00709445
0.00510199
0.0037063
0.00305658
0.0436788
0.0453107
0.0459735
0.0471692
0.0478081
0.0489063
0.0495146
0.0505128
0.0510878
0.0519882
0.0525278
0.0533358
0.0538407
0.0545632
0.0550353
0.0556832
0.0561251
0.0567049
0.0571207
0.0576369
0.0580278
0.0584897
0.0588595
0.0592801
0.0596328
0.060022
0.0603607
0.0607256
0.061054
0.0614006
0.0617239
0.0620569
0.0623757
0.0626997
0.063019
0.0633373
0.0636548
0.0639699
0.0642869
0.0646004
0.0649172
0.0652303
0.0655437
0.0658564
0.0661701
0.0664796
0.0667909
0.0670989
0.0674013
0.067697
0.0679824
0.0682522
0.0685017
0.0687209
0.0689349
0.0691292
0.0693135
0.0694805
0.0696294
0.0697658
0.0698837
0.069992
0.0700829
0.0701378
0.0701636
0.07017
0.0701304
0.070055
0.0699321
0.0697648
0.0695419
0.0692617
0.0689112
0.0684789
0.0679612
0.0673348
0.0665985
0.0657224
0.064706
0.0635175
0.062158
0.0605994
0.0588385
0.0568539
0.0546497
0.0522181
0.0495637
0.0466681
0.0435418
0.0401574
0.0365147
0.032536
0.0282398
0.0236566
0.0190594
0.0148578
0.0112727
0.00861011
0.00653557
0.00434283
0.0400805
0.0413619
0.0418682
0.0427977
0.0432598
0.0441195
0.0445462
0.045333
0.0457226
0.0464367
0.0467915
0.0474297
0.0477567
0.0483222
0.0486242
0.0491249
0.0494067
0.0498454
0.0501005
0.0504622
0.0506904
0.0509988
0.0512171
0.0514931
0.0517067
0.0519615
0.0521725
0.0524123
0.0526231
0.0528534
0.0530671
0.0532915
0.0535079
0.0537296
0.0539506
0.054174
0.0544002
0.0546275
0.0548601
0.0550948
0.0553359
0.05558
0.0558303
0.0560868
0.0563481
0.056612
0.0568803
0.0571522
0.0574259
0.0577005
0.0579753
0.0582485
0.0585193
0.0587906
0.0590682
0.0593421
0.0596192
0.0598904
0.0601525
0.060401
0.0606291
0.0608502
0.0610599
0.0612617
0.0614546
0.0616371
0.0618025
0.0619538
0.062082
0.0621884
0.0622496
0.0622753
0.0622768
0.0621855
0.0620482
0.0618084
0.0614875
0.0610416
0.0604805
0.0597668
0.0589017
0.0578567
0.0566263
0.0551904
0.0535466
0.0516513
0.0495016
0.0470298
0.0441054
0.0407067
0.03672
0.0322782
0.0275972
0.0228519
0.0184385
0.0144632
0.0114163
0.00928608
0.00790967
0.00657949
0.0238218
0.0242235
0.0243818
0.0246899
0.0248432
0.0251394
0.0252857
0.0255662
0.0257039
0.0259635
0.0260901
0.0263251
0.0264387
0.0266463
0.0267459
0.0269251
0.0270107
0.0271606
0.0272295
0.0273404
0.0273901
0.0274651
0.0274979
0.0275438
0.0275627
0.0275863
0.0275938
0.0275967
0.0275928
0.0275852
0.0275706
0.0275526
0.0275289
0.0275018
0.0274704
0.0274356
0.0273977
0.0273563
0.0273124
0.0272654
0.0272163
0.0271642
0.0271094
0.0270519
0.0269916
0.0269279
0.0268605
0.0267894
0.0267144
0.026635
0.0265512
0.0264627
0.0263691
0.0262713
0.0261684
0.0260578
0.0259396
0.0258107
0.0256689
0.0255134
0.025345
0.0251675
0.0249832
0.0247907
0.0245894
0.024379
0.0241589
0.0239283
0.0236852
0.0234287
0.023155
0.0228682
0.0225624
0.0222279
0.0218779
0.0214922
0.0210857
0.0206404
0.0201675
0.0196546
0.0191073
0.018519
0.0178909
0.0172191
0.0164987
0.0157129
0.014845
0.0138227
0.012638
0.0112221
0.00947453
0.00741797
0.00540454
0.00361556
0.0023756
0.00177765
0.00205584
0.00425024
0.00662313
0.00741119
0.00627861
0.001764
0.00162672
0.00159383
0.00153808
0.00144974
0.00141581
0.00140964
0.0014073
0.00140662
0.00140444
0.00136299
0.00132492
0.00133034
0.00141048
0.00177468
0.00266969
0.00430366
0.00495617
0.00400783
0.00435452
0.0018494
0.00174956
0.00171653
0.00156607
0.00150204
0.00148216
0.00147653
0.00147616
0.00147143
0.0014425
0.00139628
0.00138409
0.00140966
0.00157562
0.00205469
0.00321317
0.00449419
0.00475102
0.00346013
0.00307734
0.00202602
0.00192836
0.00174141
0.00163511
0.00160203
0.00158672
0.00157962
0.00156033
0.00153179
0.00148318
0.0014617
0.00146436
0.0015516
0.00184226
0.00259223
0.00380812
0.00448688
0.00450967
0.00288438
0.00274427
0.00213766
0.00200391
0.00183299
0.00178043
0.0017295
0.0017042
0.0016743
0.00164465
0.00160929
0.00157679
0.00157884
0.00163666
0.0018463
0.00237981
0.00320952
0.00418079
0.00445368
0.00416913
0.00231124
0.00275276
0.00227784
0.00215664
0.00201033
0.00195676
0.00189417
0.00187063
0.00183929
0.00181535
0.00179388
0.00179077
0.00185564
0.00203043
0.00245057
0.00307757
0.00395079
0.00432375
0.00436608
0.00367963
0.00176481
0.00282468
0.0025057
0.00240452
0.00228696
0.00224615
0.0022133
0.00220647
0.00220405
0.00222825
0.00228018
0.00235725
0.00253715
0.00289244
0.00338474
0.00399051
0.00429509
0.00437376
0.00415684
0.00299736
0.00127737
0.0032066
0.00308383
0.00302861
0.00299927
0.00302878
0.00309098
0.00318814
0.00332093
0.0034884
0.0035632
0.00363902
0.00390672
0.00410132
0.0044219
0.00456148
0.00458084
0.00430235
0.00371438
0.00218665
0.000864482
0.00542219
0.00552743
0.00567685
0.00581255
0.00600624
0.00609142
0.00599267
0.00586485
0.00570318
0.00558752
0.00553199
0.00550928
0.00542255
0.00536633
0.00503405
0.00464932
0.00404607
0.00301984
0.00139604
0.000538757
0.0142412
0.0140527
0.0137054
0.0128286
0.0120417
0.0110942
0.0104397
0.00967055
0.0091522
0.00850991
0.00804573
0.00742967
0.00687147
0.00616462
0.00531567
0.0044892
0.00341892
0.00204543
0.000838568
0.000303636
0.0239739
0.0220329
0.0208458
0.0185923
0.0175032
0.0156567
0.0147531
0.0132003
0.0124326
0.0110179
0.0102897
0.00884852
0.00800609
0.00637058
0.00524677
0.00344301
0.00222357
0.00105172
0.000415734
0.000134245
0.0209868
0.0192758
0.0184529
0.0165453
0.0156545
0.0141686
0.0134359
0.0122219
0.0116168
0.0105452
0.00994446
0.00886167
0.00808595
0.00684977
0.00580083
0.00429824
0.00279231
0.00136779
0.000465464
0.000129729
0.00916418
0.00934554
0.00943246
0.00939086
0.00898462
0.00880025
0.00832744
0.00810523
0.00778037
0.00763442
0.00739337
0.007274
0.00687821
0.00657865
0.00585812
0.00513164
0.00419068
0.00258356
0.000958933
0.000287139
0.00401502
0.00400784
0.00405755
0.00414211
0.00430239
0.00449908
0.00472473
0.00481993
0.00485783
0.00490611
0.00504496
0.0052996
0.00546018
0.00555066
0.00556616
0.00522605
0.00475247
0.00368671
0.00168425
0.000561752
0.00289136
0.0027501
0.00267988
0.00261867
0.0026073
0.00260732
0.00267698
0.00276776
0.0029413
0.00316411
0.00326521
0.00369677
0.00413822
0.00467979
0.00498038
0.00508759
0.00495376
0.00441974
0.0026675
0.000941686
0.00268401
0.00236956
0.00226984
0.00215612
0.00211528
0.00206748
0.0020514
0.00204169
0.00204955
0.00210223
0.0021829
0.00239008
0.00278799
0.0034854
0.00436368
0.00486296
0.00499062
0.00482656
0.00360202
0.00141422
0.00265226
0.00219599
0.00207608
0.00194008
0.00189641
0.00183772
0.00181228
0.00177489
0.00174577
0.00172883
0.00172828
0.00180103
0.00199946
0.00244234
0.0032125
0.00440506
0.0049383
0.00501841
0.00432097
0.00196445
0.00269888
0.00208136
0.00195407
0.00177847
0.00171306
0.00168391
0.00165958
0.00164812
0.00161138
0.00157676
0.00155073
0.00155629
0.00163088
0.00190741
0.00251746
0.00350003
0.00474278
0.0051019
0.00481483
0.00257018
0.00321176
0.00197098
0.00187271
0.00171133
0.00160352
0.00156543
0.00155059
0.00154488
0.00154307
0.00151026
0.00146845
0.00144976
0.00145765
0.00156651
0.00191689
0.00282669
0.00429887
0.00513244
0.0051769
0.00320556
0.00481563
0.0018363
0.00171678
0.00168243
0.00154579
0.0014824
0.00146033
0.00145448
0.00145405
0.00145816
0.00143101
0.0013893
0.00137918
0.00141747
0.00162371
0.00220222
0.00359513
0.00512624
0.00543301
0.00383839
0.00693635
0.00177464
0.00159841
0.00156578
0.00152104
0.00143766
0.00140354
0.00139531
0.0013948
0.00139537
0.00139772
0.00135766
0.00132317
0.0013332
0.00143854
0.00189042
0.00298875
0.0049034
0.00563458
0.00443638
0.00397144
0.0037502
0.0037468
0.0037468
0.00374652
0.00374628
0.00374612
0.00374604
0.003746
0.00374598
0.00374598
0.003746
0.00374604
0.00374612
0.00374628
0.00374652
0.0037468
0.0037468
0.0037502
0.00397144
0.00441555
0.00375349
0.00374141
0.00374095
0.00374056
0.00374012
0.00373987
0.00373975
0.00373968
0.00373965
0.00373965
0.00373968
0.00373975
0.00373987
0.00374012
0.00374056
0.00374095
0.00374141
0.00375349
0.00441555
0.00485814
0.00376053
0.00373284
0.00373262
0.00373284
0.00373273
0.00373256
0.00373242
0.00373235
0.00373231
0.00373231
0.00373235
0.00373242
0.00373256
0.00373273
0.00373284
0.00373262
0.00373284
0.00376053
0.00485814
0.00530043
0.0037721
0.00372434
0.00372398
0.00372493
0.00372525
0.00372525
0.00372519
0.00372514
0.00372512
0.00372512
0.00372514
0.00372519
0.00372525
0.00372525
0.00372493
0.00372398
0.00372434
0.0037721
0.00530043
0.00574136
0.00378549
0.0037155
0.00371483
0.00371666
0.00371758
0.00371789
0.00371795
0.00371795
0.00371795
0.00371795
0.00371795
0.00371795
0.00371789
0.00371758
0.00371666
0.00371483
0.0037155
0.00378549
0.00574137
0.00617209
0.0037975
0.00370567
0.00370505
0.00370797
0.00370968
0.00371043
0.0037107
0.00371078
0.0037108
0.0037108
0.00371078
0.0037107
0.00371043
0.00370968
0.00370797
0.00370505
0.00370567
0.0037975
0.00617209
0.00658993
0.00380852
0.00369503
0.00369476
0.00369894
0.00370155
0.00370284
0.0037034
0.00370361
0.00370368
0.00370368
0.00370361
0.0037034
0.00370284
0.00370155
0.00369894
0.00369476
0.00369503
0.00380852
0.00658993
0.00699892
0.00381705
0.0036829
0.0036837
0.00368945
0.00369313
0.00369509
0.00369603
0.00369642
0.00369656
0.00369656
0.00369642
0.00369603
0.00369509
0.00369313
0.00368945
0.0036837
0.0036829
0.00381705
0.00699891
0.00739488
0.00382324
0.00366911
0.00367173
0.00367942
0.00368438
0.00368714
0.00368855
0.00368919
0.00368943
0.00368943
0.00368919
0.00368855
0.00368714
0.00368438
0.00367942
0.00367173
0.00366911
0.00382324
0.0073949
0.0077696
0.00382697
0.00365384
0.00365893
0.00366888
0.00367529
0.00367897
0.00368094
0.0036819
0.00368227
0.00368227
0.0036819
0.00368094
0.00367897
0.00367529
0.00366888
0.00365893
0.00365384
0.00382696
0.00776959
0.00811927
0.00383027
0.00363762
0.00364549
0.00365792
0.00366591
0.0036706
0.0036732
0.00367452
0.00367506
0.00367506
0.00367452
0.0036732
0.0036706
0.00366591
0.00365792
0.00364549
0.00363763
0.00383027
0.00811928
0.00844871
0.00383085
0.00362004
0.00363129
0.00364649
0.00365622
0.00366201
0.00366532
0.00366705
0.00366779
0.00366779
0.00366705
0.00366532
0.00366201
0.00365622
0.00364649
0.00363129
0.00362004
0.00383085
0.0084487
0.00875563
0.00383033
0.00360104
0.00361621
0.00363451
0.00364616
0.00365318
0.00365726
0.00365946
0.00366041
0.00366041
0.00365946
0.00365726
0.00365318
0.00364616
0.00363451
0.00361621
0.00360105
0.00383033
0.00875564
0.00903668
0.00382885
0.00358078
0.00360029
0.00362198
0.00363573
0.00364408
0.00364901
0.00365173
0.00365292
0.00365292
0.00365173
0.00364901
0.00364408
0.00363573
0.00362198
0.00360029
0.00358078
0.00382885
0.00903667
0.00928922
0.00382625
0.00355964
0.0035837
0.00360899
0.00362497
0.00363473
0.00364058
0.00364384
0.0036453
0.0036453
0.00364384
0.00364058
0.00363473
0.00362497
0.00360899
0.0035837
0.00355964
0.00382626
0.00928924
0.00951602
0.00382312
0.00353782
0.00356658
0.00359562
0.00361392
0.00362516
0.00363196
0.00363581
0.00363754
0.00363754
0.00363581
0.00363196
0.00362516
0.00361392
0.00359562
0.00356658
0.00353782
0.00382312
0.00951601
0.0097195
0.00382035
0.00351549
0.00354894
0.00358185
0.00360258
0.00361536
0.00362316
0.00362762
0.00362964
0.00362964
0.00362762
0.00362316
0.00361536
0.00360258
0.00358186
0.00354894
0.0035155
0.00382035
0.00971951
0.00989782
0.00381699
0.00349234
0.00353064
0.00356763
0.0035909
0.00360531
0.00361415
0.00361924
0.00362157
0.00362157
0.00361924
0.00361415
0.00360531
0.0035909
0.00356763
0.00353064
0.00349234
0.00381699
0.00989781
0.0100506
0.00381314
0.00346841
0.00351168
0.00355293
0.00357887
0.00359498
0.00360492
0.00361067
0.00361332
0.00361332
0.00361067
0.00360492
0.00359498
0.00357887
0.00355293
0.00351168
0.0034684
0.00381314
0.0100507
0.0101812
0.00381007
0.00344431
0.00349232
0.00353787
0.00356656
0.00358442
0.00359548
0.00360192
0.00360489
0.00360489
0.00360192
0.00359548
0.00358442
0.00356656
0.00353787
0.00349232
0.00344431
0.00381007
0.0101812
0.0102893
0.00380865
0.00342045
0.00347275
0.00352257
0.00355402
0.00357365
0.00358585
0.00359298
0.00359628
0.00359628
0.00359298