/*--------------------------------*- C++ -*----------------------------------*\
| =========                 |                                                 |
| \\      /  F ield         | OpenFOAM: The Open Source CFD Toolbox           |
|  \\    /   O peration     | Version:  2.1.0                                 |
|   \\  /    A nd           | Web:      www.OpenFOAM.org                      |
|    \\/     M anipulation  |                                                 |
\*---------------------------------------------------------------------------*/
FoamFile
{
    version     2.0;
    format      ascii;
    class       volScalarField;
    location    "0.14";
    object      nut;
}
// * * * * * * * * * * * * * * * * * * * * * * * * * * * * * * * * * * * * * //

dimensions      [0 2 -1 0 0 0 0];

internalField   nonuniform List<scalar> 
6400
(
5.78768e-06
5.89341e-06
5.93925e-06
6.02448e-06
6.07341e-06
6.1574e-06
6.20614e-06
6.28722e-06
6.33482e-06
6.4117e-06
6.45759e-06
6.52952e-06
6.57342e-06
6.63997e-06
6.68185e-06
6.7431e-06
6.78316e-06
6.83909e-06
6.87687e-06
6.92576e-06
6.96101e-06
7.0037e-06
7.03703e-06
7.07487e-06
7.10696e-06
7.14154e-06
7.17308e-06
7.20457e-06
7.2354e-06
7.26645e-06
7.29675e-06
7.32732e-06
7.35748e-06
7.38793e-06
7.41836e-06
7.44901e-06
7.4799e-06
7.51103e-06
7.54253e-06
7.57405e-06
7.60594e-06
7.63798e-06
7.67023e-06
7.70244e-06
7.73462e-06
7.76674e-06
7.79862e-06
7.83015e-06
7.86117e-06
7.89169e-06
7.92132e-06
7.9493e-06
7.9753e-06
8.00149e-06
8.02667e-06
8.05154e-06
8.0757e-06
8.099e-06
8.12162e-06
8.14384e-06
8.1651e-06
8.18566e-06
8.20519e-06
8.22378e-06
8.2412e-06
8.257e-06
8.26936e-06
8.28055e-06
8.28711e-06
8.29137e-06
8.29079e-06
8.28639e-06
8.27742e-06
8.26357e-06
8.24577e-06
8.22355e-06
8.1986e-06
8.17166e-06
8.14445e-06
8.11849e-06
8.09389e-06
8.06711e-06
8.03132e-06
8.00473e-06
7.9799e-06
7.95774e-06
7.93441e-06
7.89882e-06
7.83552e-06
7.70894e-06
7.46224e-06
6.97991e-06
6.09001e-06
4.61039e-06
2.61516e-06
1.62737e-06
1.83981e-06
2.91896e-06
2.82826e-06
3.01925e-06
5.61458e-05
5.82523e-05
5.90791e-05
6.06114e-05
6.15005e-05
6.29399e-05
6.37646e-05
6.50807e-05
6.58297e-05
6.70204e-05
6.76928e-05
6.87612e-05
6.93667e-05
7.03091e-05
7.08553e-05
7.16792e-05
7.21649e-05
7.28004e-05
7.30258e-05
7.33564e-05
7.35467e-05
7.38089e-05
7.39754e-05
7.4189e-05
7.43334e-05
7.45087e-05
7.46328e-05
7.47774e-05
7.48838e-05
7.49995e-05
7.50871e-05
7.51745e-05
7.52434e-05
7.53033e-05
7.53502e-05
7.53851e-05
7.54116e-05
7.54248e-05
7.54308e-05
7.54191e-05
7.53984e-05
7.53607e-05
7.53072e-05
7.52328e-05
7.51401e-05
7.50241e-05
7.48822e-05
7.4711e-05
7.45084e-05
7.42762e-05
7.40205e-05
7.37233e-05
7.32255e-05
7.26412e-05
7.20157e-05
7.13557e-05
7.06529e-05
6.99081e-05
6.91192e-05
6.82934e-05
6.74279e-05
6.65239e-05
6.55785e-05
6.45874e-05
6.35591e-05
6.24991e-05
6.13735e-05
6.02135e-05
5.89897e-05
5.77199e-05
5.6388e-05
5.49996e-05
5.35494e-05
5.20387e-05
5.04672e-05
4.88357e-05
4.71497e-05
4.54105e-05
4.36266e-05
4.18033e-05
3.99498e-05
3.80713e-05
3.61548e-05
3.41737e-05
3.21402e-05
3.00347e-05
2.78602e-05
2.56e-05
2.32553e-05
2.08226e-05
1.83341e-05
1.5835e-05
1.34232e-05
1.12029e-05
9.13698e-06
7.23309e-06
5.73008e-06
4.65301e-06
4.01226e-06
4.80048e-06
9.07409e-05
9.31461e-05
9.40869e-05
9.57066e-05
9.65263e-05
9.79285e-05
9.86387e-05
9.98341e-05
0.00010044
0.000101443
0.000101949
0.000102773
0.000103188
0.000103842
0.000104171
0.00010468
0.000104927
0.000105306
0.000105482
0.000105744
0.000105856
0.000106011
0.000106054
0.000106114
0.000106087
0.000106066
0.000105974
0.000105882
0.000105732
0.000105571
0.000105363
0.000105139
0.000104882
0.000104599
0.000104289
0.000103941
0.000103569
0.000103156
0.000102719
0.000102237
0.000101736
0.000101197
0.000100626
0.000100015
9.9369e-05
9.8676e-05
9.79373e-05
9.71472e-05
9.62952e-05
9.50762e-05
9.37287e-05
9.23198e-05
9.0892e-05
8.94182e-05
8.7913e-05
8.6378e-05
8.48061e-05
8.321e-05
8.15994e-05
7.99433e-05
7.82592e-05
7.65424e-05
7.47947e-05
7.30205e-05
7.12156e-05
6.93871e-05
6.75283e-05
6.56517e-05
6.37441e-05
6.18178e-05
5.9861e-05
5.78793e-05
5.58693e-05
5.38314e-05
5.17653e-05
4.96717e-05
4.75526e-05
4.54094e-05
4.32479e-05
4.10715e-05
3.88887e-05
3.67065e-05
3.45371e-05
3.24026e-05
3.03054e-05
2.82633e-05
2.62793e-05
2.43614e-05
2.25036e-05
2.0695e-05
1.89232e-05
1.72154e-05
1.5474e-05
1.37135e-05
1.18635e-05
1.00138e-05
8.24338e-06
6.68679e-06
5.86859e-06
7.02042e-06
0.000101588
0.000105143
0.000106316
0.000108601
0.000109404
0.000111202
0.0001118
0.000113234
0.000113674
0.000114791
0.000115082
0.000115915
0.000116062
0.000116635
0.000116644
0.00011698
0.000116853
0.000116978
0.000116729
0.000116665
0.000116305
0.000116069
0.000115599
0.000115201
0.000114617
0.000114069
0.000113376
0.000112704
0.000111913
0.000111117
0.000110228
0.00010933
0.000108355
0.000107353
0.000106298
0.000105209
0.000104068
0.000102893
0.000101685
0.000100426
9.91427e-05
9.78196e-05
9.64582e-05
9.50662e-05
9.36449e-05
9.2185e-05
9.0691e-05
8.91801e-05
8.76468e-05
8.60748e-05
8.45005e-05
8.28847e-05
8.12641e-05
7.96124e-05
7.79433e-05
7.6253e-05
7.45359e-05
7.28019e-05
7.10411e-05
6.92634e-05
6.74683e-05
6.56541e-05
6.38255e-05
6.19836e-05
6.0128e-05
5.82662e-05
5.63975e-05
5.45291e-05
5.26617e-05
5.08045e-05
4.89557e-05
4.71245e-05
4.53128e-05
4.3526e-05
4.17699e-05
4.00467e-05
3.83617e-05
3.6715e-05
3.51091e-05
3.35428e-05
3.20151e-05
3.05145e-05
2.90422e-05
2.76066e-05
2.61645e-05
2.47481e-05
2.3317e-05
2.18822e-05
2.04206e-05
1.89519e-05
1.74641e-05
1.59564e-05
1.44131e-05
1.28411e-05
1.12288e-05
9.66836e-06
8.28874e-06
7.48619e-06
6.83615e-06
6.44424e-06
9.96329e-05
0.000102577
0.000103562
0.000105473
0.000105971
0.000107358
0.000107617
0.000108633
0.000108721
0.000109427
0.000109367
0.000109799
0.0001096
0.000109786
0.000109453
0.000109414
0.00010895
0.000108703
0.000108109
0.000107677
0.000106976
0.000106381
0.000105578
0.000104836
0.000103939
0.000103058
0.000102055
0.000101072
9.99909e-05
9.88946e-05
9.77306e-05
9.6561e-05
9.53249e-05
9.40586e-05
9.27653e-05
9.14634e-05
9.01047e-05
8.87265e-05
8.73354e-05
8.59001e-05
8.44609e-05
8.29962e-05
8.15092e-05
8.00137e-05
7.85028e-05
7.69747e-05
7.54453e-05
7.39047e-05
7.23582e-05
7.08105e-05
6.92609e-05
6.77044e-05
6.615e-05
6.45885e-05
6.30296e-05
6.14713e-05
5.99161e-05
5.83726e-05
5.68368e-05
5.53178e-05
5.38135e-05
5.23274e-05
5.08633e-05
4.94204e-05
4.80015e-05
4.66085e-05
4.52391e-05
4.38955e-05
4.25749e-05
4.12749e-05
3.99972e-05
3.87466e-05
3.74921e-05
3.62585e-05
3.50209e-05
3.37943e-05
3.25606e-05
3.13279e-05
3.00833e-05
2.88309e-05
2.75629e-05
2.6281e-05
2.49819e-05
2.3678e-05
2.2377e-05
2.10832e-05
1.97038e-05
1.81743e-05
1.66985e-05
1.5468e-05
1.42706e-05
1.30121e-05
1.16901e-05
1.06218e-05
9.6414e-06
8.71861e-06
7.74828e-06
7.3502e-06
7.21748e-06
7.29424e-06
9.18659e-05
9.40561e-05
9.47009e-05
9.60368e-05
9.61674e-05
9.70189e-05
9.6908e-05
9.74255e-05
9.71553e-05
9.74031e-05
9.70039e-05
9.70181e-05
9.65039e-05
9.6312e-05
9.56964e-05
9.53241e-05
9.46209e-05
9.40657e-05
9.32593e-05
9.25554e-05
9.16912e-05
9.08431e-05
8.99178e-05
8.89714e-05
8.80108e-05
8.69744e-05
8.58853e-05
8.48005e-05
8.36612e-05
8.24832e-05
8.12868e-05
8.00804e-05
7.88315e-05
7.75789e-05
7.63119e-05
7.50288e-05
7.37293e-05
7.24308e-05
7.11234e-05
6.9807e-05
6.84981e-05
6.71858e-05
6.58763e-05
6.45756e-05
6.32807e-05
6.19935e-05
6.07219e-05
5.94577e-05
5.82098e-05
5.69752e-05
5.57548e-05
5.45516e-05
5.33633e-05
5.2183e-05
5.10152e-05
4.98577e-05
4.87176e-05
4.75865e-05
4.64696e-05
4.53617e-05
4.42626e-05
4.31699e-05
4.20811e-05
4.09935e-05
3.99044e-05
3.88125e-05
3.77147e-05
3.66128e-05
3.55028e-05
3.43877e-05
3.29553e-05
3.14184e-05
2.99206e-05
2.84984e-05
2.71054e-05
2.57887e-05
2.44976e-05
2.32906e-05
2.20998e-05
2.09897e-05
1.98849e-05
1.8867e-05
1.78635e-05
1.69558e-05
1.60515e-05
1.52175e-05
1.4371e-05
1.36029e-05
1.28502e-05
1.21727e-05
1.1465e-05
1.08157e-05
1.01681e-05
9.61214e-06
9.0628e-06
8.6322e-06
8.31315e-06
8.17782e-06
8.161e-06
8.40144e-06
8.14396e-05
8.28711e-05
8.32481e-05
8.40431e-05
8.39581e-05
8.43279e-05
8.40358e-05
8.41171e-05
8.37049e-05
8.35611e-05
8.30611e-05
8.27142e-05
8.21356e-05
8.16098e-05
8.09626e-05
8.0312e-05
7.96334e-05
7.89035e-05
7.80678e-05
7.72687e-05
7.64139e-05
7.55552e-05
7.46357e-05
7.37458e-05
7.28001e-05
7.18559e-05
7.08773e-05
6.99232e-05
6.89268e-05
6.79367e-05
6.69355e-05
6.59456e-05
6.49291e-05
6.39335e-05
6.29249e-05
6.19205e-05
6.09067e-05
5.99042e-05
5.88868e-05
5.78722e-05
5.68679e-05
5.58488e-05
5.48339e-05
5.38143e-05
5.27919e-05
5.17647e-05
5.07325e-05
4.96955e-05
4.86496e-05
4.75995e-05
4.65379e-05
4.54736e-05
4.4131e-05
4.26902e-05
4.12791e-05
3.99114e-05
3.85722e-05
3.72768e-05
3.60001e-05
3.47727e-05
3.35631e-05
3.24e-05
3.12557e-05
3.01552e-05
2.90743e-05
2.80341e-05
2.70168e-05
2.60372e-05
2.50822e-05
2.41652e-05
2.32729e-05
2.24216e-05
2.15991e-05
2.08125e-05
2.00561e-05
1.93335e-05
1.86368e-05
1.79744e-05
1.73336e-05
1.67269e-05
1.61414e-05
1.55852e-05
1.50489e-05
1.45363e-05
1.40356e-05
1.35563e-05
1.30843e-05
1.26355e-05
1.21923e-05
1.17695e-05
1.13553e-05
1.09693e-05
1.05994e-05
1.02761e-05
9.98825e-06
9.79176e-06
9.67361e-06
9.62045e-06
1.00091e-05
1.02421e-05
7.14809e-05
7.22385e-05
7.24701e-05
7.28818e-05
7.27526e-05
7.28252e-05
7.25443e-05
7.2389e-05
7.20198e-05
7.17325e-05
7.13263e-05
7.09413e-05
7.03731e-05
6.99209e-05
6.93179e-05
6.8776e-05
6.81026e-05
6.74979e-05
6.6765e-05
6.60873e-05
6.53294e-05
6.45841e-05
6.37727e-05
6.27253e-05
6.14445e-05
6.01717e-05
5.89072e-05
5.76409e-05
5.6384e-05
5.51287e-05
5.38946e-05
5.26817e-05
5.14635e-05
5.02907e-05
4.91342e-05
4.79914e-05
4.68946e-05
4.58121e-05
4.47657e-05
4.37436e-05
4.27574e-05
4.17924e-05
4.08614e-05
3.99522e-05
3.90806e-05
3.8225e-05
3.74076e-05
3.66099e-05
3.58445e-05
3.50984e-05
3.43903e-05
3.36921e-05
3.30335e-05
3.23918e-05
3.17805e-05
3.11895e-05
3.06229e-05
3.00746e-05
2.95429e-05
2.90324e-05
2.8529e-05
2.80466e-05
2.75691e-05
2.71097e-05
2.66547e-05
2.62207e-05
2.5789e-05
2.53841e-05
2.499e-05
2.45981e-05
2.42249e-05
2.38533e-05
2.34988e-05
2.31406e-05
2.28001e-05
2.24517e-05
2.21188e-05
2.17766e-05
2.1447e-05
2.11077e-05
2.07815e-05
2.04409e-05
2.0112e-05
1.97632e-05
1.94198e-05
1.90483e-05
1.86728e-05
1.82645e-05
1.78442e-05
1.73895e-05
1.69226e-05
1.64313e-05
1.59445e-05
1.54651e-05
1.50528e-05
1.4759e-05
1.45432e-05
1.46586e-05
1.51266e-05
1.54422e-05
5.70345e-05
5.65425e-05
5.63006e-05
5.57846e-05
5.54929e-05
5.49111e-05
5.43946e-05
5.37516e-05
5.3184e-05
5.25018e-05
5.1812e-05
5.1106e-05
5.03436e-05
4.95782e-05
4.88224e-05
4.80358e-05
4.72438e-05
4.647e-05
4.56801e-05
4.48922e-05
4.41378e-05
4.33651e-05
4.26129e-05
4.18887e-05
4.11814e-05
4.04895e-05
3.98419e-05
3.9214e-05
3.86129e-05
3.80413e-05
3.75051e-05
3.69963e-05
3.65079e-05
3.60636e-05
3.56397e-05
3.52373e-05
3.48746e-05
3.45248e-05
3.42075e-05
3.39067e-05
3.36322e-05
3.3372e-05
3.31354e-05
3.29085e-05
3.27084e-05
3.25103e-05
3.23381e-05
3.21693e-05
3.20163e-05
3.1867e-05
3.17484e-05
3.16359e-05
3.15294e-05
3.14306e-05
3.13299e-05
3.12648e-05
3.11858e-05
3.11388e-05
3.10807e-05
3.10523e-05
3.10148e-05
3.10034e-05
3.09861e-05
3.0991e-05
3.09926e-05
3.10123e-05
3.10306e-05
3.10648e-05
3.10986e-05
3.11463e-05
3.11947e-05
3.12554e-05
3.13194e-05
3.13946e-05
3.14748e-05
3.15638e-05
3.16587e-05
3.176e-05
3.18647e-05
3.19724e-05
3.20815e-05
3.21878e-05
3.22924e-05
3.23867e-05
3.2474e-05
3.25454e-05
3.26018e-05
3.26284e-05
3.26201e-05
3.25681e-05
3.24695e-05
3.23194e-05
3.21214e-05
3.18812e-05
3.16171e-05
3.13811e-05
3.12908e-05
3.14875e-05
3.19303e-05
3.17824e-05
4.32501e-05
4.27064e-05
4.23497e-05
4.19654e-05
4.15189e-05
4.10342e-05
4.05518e-05
4.00811e-05
3.9601e-05
3.90912e-05
3.86006e-05
3.81132e-05
3.76393e-05
3.71639e-05
3.67134e-05
3.62715e-05
3.5852e-05
3.54493e-05
3.50641e-05
3.47002e-05
3.43658e-05
3.40391e-05
3.37415e-05
3.34693e-05
3.3213e-05
3.29754e-05
3.27687e-05
3.25738e-05
3.23992e-05
3.22445e-05
3.21098e-05
3.19885e-05
3.18751e-05
3.1794e-05
3.17293e-05
3.16675e-05
3.16047e-05
3.1584e-05
3.15479e-05
3.15479e-05
3.15364e-05
3.15548e-05
3.15663e-05
3.15996e-05
3.16356e-05
3.16818e-05
3.17396e-05
3.18011e-05
3.18772e-05
3.1955e-05
3.20488e-05
3.21422e-05
3.22508e-05
3.23617e-05
3.24849e-05
3.26139e-05
3.27524e-05
3.28976e-05
3.30538e-05
3.32144e-05
3.33876e-05
3.35644e-05
3.37538e-05
3.39474e-05
3.41538e-05
3.43657e-05
3.45895e-05
3.48207e-05
3.50631e-05
3.53149e-05
3.55769e-05
3.585e-05
3.61334e-05
3.64289e-05
3.67354e-05
3.70548e-05
3.73863e-05
3.77324e-05
3.80938e-05
3.84694e-05
3.88617e-05
3.92692e-05
3.96946e-05
4.01354e-05
4.05948e-05
4.10695e-05
4.15629e-05
4.20764e-05
4.26176e-05
4.31866e-05
4.37946e-05
4.44401e-05
4.51327e-05
4.58726e-05
4.66671e-05
4.75098e-05
4.83744e-05
4.91827e-05
4.94785e-05
4.95192e-05
4.40724e-05
4.35936e-05
4.32114e-05
4.28064e-05
4.23972e-05
4.19541e-05
4.14735e-05
4.09667e-05
4.04802e-05
3.99905e-05
3.9491e-05
3.89736e-05
3.84918e-05
3.80022e-05
3.75256e-05
3.70518e-05
3.66117e-05
3.61763e-05
3.57569e-05
3.53584e-05
3.49865e-05
3.46193e-05
3.42843e-05
3.39662e-05
3.36642e-05
3.3386e-05
3.31309e-05
3.28875e-05
3.26732e-05
3.24731e-05
3.22907e-05
3.21291e-05
3.19852e-05
3.18515e-05
3.17326e-05
3.16307e-05
3.15413e-05
3.14795e-05
3.14127e-05
3.13465e-05
3.13149e-05
3.12707e-05
3.12603e-05
3.12356e-05
3.12432e-05
3.12395e-05
3.12625e-05
3.12797e-05
3.13177e-05
3.13548e-05
3.14066e-05
3.14625e-05
3.15292e-05
3.16027e-05
3.16849e-05
3.17742e-05
3.1873e-05
3.1976e-05
3.2092e-05
3.22064e-05
3.23371e-05
3.24654e-05
3.26089e-05
3.2751e-05
3.29068e-05
3.30616e-05
3.32291e-05
3.33963e-05
3.35744e-05
3.37536e-05
3.39428e-05
3.41341e-05
3.43331e-05
3.45347e-05
3.47428e-05
3.49538e-05
3.51705e-05
3.53909e-05
3.56164e-05
3.58463e-05
3.60815e-05
3.6322e-05
3.65689e-05
3.68226e-05
3.70848e-05
3.73572e-05
3.76431e-05
3.7945e-05
3.8268e-05
3.86135e-05
3.89828e-05
3.93885e-05
3.98374e-05
4.03421e-05
4.09194e-05
4.15896e-05
4.23755e-05
4.32614e-05
4.39448e-05
4.42244e-05
5.92205e-05
5.88685e-05
5.86904e-05
5.82368e-05
5.7981e-05
5.745e-05
5.71329e-05
5.65065e-05
5.59787e-05
5.53226e-05
5.4736e-05
5.40128e-05
5.33203e-05
5.25895e-05
5.18178e-05
5.10359e-05
5.0234e-05
4.94468e-05
4.86174e-05
4.78045e-05
4.69946e-05
4.61616e-05
4.53581e-05
4.45516e-05
4.37421e-05
4.29549e-05
4.21818e-05
4.1407e-05
4.06663e-05
3.99512e-05
3.92482e-05
3.85819e-05
3.79451e-05
3.73285e-05
3.67384e-05
3.61847e-05
3.5649e-05
3.51421e-05
3.46585e-05
3.42056e-05
3.37679e-05
3.33566e-05
3.2973e-05
3.25969e-05
3.22511e-05
3.19176e-05
3.16028e-05
3.13009e-05
3.102e-05
3.07434e-05
3.04899e-05
3.02366e-05
2.99998e-05
2.97671e-05
2.95691e-05
2.935e-05
2.91639e-05
2.89644e-05
2.88018e-05
2.86293e-05
2.84675e-05
2.83089e-05
2.81669e-05
2.80203e-05
2.78893e-05
2.7752e-05
2.76288e-05
2.74968e-05
2.7373e-05
2.72373e-05
2.71058e-05
2.69602e-05
2.68142e-05
2.66531e-05
2.64865e-05
2.63033e-05
2.61108e-05
2.59001e-05
2.56765e-05
2.54347e-05
2.51771e-05
2.49005e-05
2.46062e-05
2.43035e-05
2.39923e-05
2.36634e-05
2.3339e-05
2.30056e-05
2.26857e-05
2.23768e-05
2.20849e-05
2.18042e-05
2.15703e-05
2.13749e-05
2.12605e-05
2.12455e-05
2.14233e-05
2.18507e-05
2.26588e-05
2.32754e-05
7.17208e-05
7.26621e-05
7.29517e-05
7.35156e-05
7.34454e-05
7.36754e-05
7.34535e-05
7.34499e-05
7.31367e-05
7.29524e-05
7.2573e-05
7.22621e-05
7.18549e-05
7.14686e-05
7.09115e-05
7.04557e-05
6.98692e-05
6.93309e-05
6.8675e-05
6.80834e-05
6.73669e-05
6.67042e-05
6.59556e-05
6.52379e-05
6.44285e-05
6.36555e-05
6.28203e-05
6.19699e-05
6.08405e-05
5.95119e-05
5.81628e-05
5.68163e-05
5.5489e-05
5.4166e-05
5.28437e-05
5.15535e-05
5.02673e-05
4.9006e-05
4.77552e-05
4.65452e-05
4.53432e-05
4.41696e-05
4.30317e-05
4.19079e-05
4.08116e-05
3.97451e-05
3.86994e-05
3.768e-05
3.66933e-05
3.57246e-05
3.47932e-05
3.38763e-05
3.3001e-05
3.21381e-05
3.13151e-05
3.05186e-05
2.97513e-05
2.90075e-05
2.82921e-05
2.75954e-05
2.69187e-05
2.62656e-05
2.56202e-05
2.49965e-05
2.43795e-05
2.37769e-05
2.31787e-05
2.25976e-05
2.20287e-05
2.14722e-05
2.09303e-05
2.04004e-05
1.98914e-05
1.93795e-05
1.88917e-05
1.83987e-05
1.79317e-05
1.74565e-05
1.70085e-05
1.65538e-05
1.61253e-05
1.56892e-05
1.52829e-05
1.48666e-05
1.44791e-05
1.40906e-05
1.37268e-05
1.33715e-05
1.30386e-05
1.27216e-05
1.24335e-05
1.2167e-05
1.19226e-05
1.17227e-05
1.15707e-05
1.14455e-05
1.15232e-05
1.1743e-05
1.2259e-05
1.25237e-05
8.17903e-05
8.34112e-05
8.38791e-05
8.4863e-05
8.48703e-05
8.54375e-05
8.52366e-05
8.55116e-05
8.51796e-05
8.52182e-05
8.47908e-05
8.4627e-05
8.41211e-05
8.37705e-05
8.31885e-05
8.26733e-05
8.20308e-05
8.13736e-05
8.06913e-05
7.99812e-05
7.91586e-05
7.83505e-05
7.75014e-05
7.66404e-05
7.57141e-05
7.48151e-05
7.38724e-05
7.29276e-05
7.19471e-05
7.09812e-05
6.99883e-05
6.89905e-05
6.79818e-05
6.69822e-05
6.59551e-05
6.49374e-05
6.3917e-05
6.2895e-05
6.18657e-05
6.08456e-05
5.98156e-05
5.87853e-05
5.77507e-05
5.67112e-05
5.56763e-05
5.46345e-05
5.35874e-05
5.25337e-05
5.14728e-05
5.04057e-05
4.9325e-05
4.82388e-05
4.71348e-05
4.60229e-05
4.44603e-05
4.2876e-05
4.13115e-05
3.9817e-05
3.83428e-05
3.69386e-05
3.55536e-05
3.42297e-05
3.29282e-05
3.16834e-05
3.04652e-05
2.93021e-05
2.81676e-05
2.70843e-05
2.60317e-05
2.50203e-05
2.40456e-05
2.31068e-05
2.22111e-05
2.13494e-05
2.05311e-05
1.97317e-05
1.89771e-05
1.82326e-05
1.75345e-05
1.68414e-05
1.62043e-05
1.5558e-05
1.49694e-05
1.43601e-05
1.38049e-05
1.32444e-05
1.27411e-05
1.22377e-05
1.1776e-05
1.12978e-05
1.08764e-05
1.04809e-05
1.01327e-05
9.80058e-06
9.49746e-06
9.26935e-06
9.15911e-06
9.08503e-06
9.40333e-06
9.65236e-06
9.18217e-05
9.42098e-05
9.49532e-05
9.64773e-05
9.67315e-05
9.7776e-05
9.78004e-05
9.85102e-05
9.83794e-05
9.8813e-05
9.85516e-05
9.87411e-05
9.83598e-05
9.83311e-05
9.7839e-05
9.76164e-05
9.70243e-05
9.6627e-05
9.59441e-05
9.53928e-05
9.46022e-05
9.39096e-05
9.30475e-05
9.22166e-05
9.12945e-05
9.0349e-05
8.93884e-05
8.83952e-05
8.73243e-05
8.6248e-05
8.51459e-05
8.39932e-05
8.28157e-05
8.16282e-05
8.03986e-05
7.91482e-05
7.78895e-05
7.66125e-05
7.53178e-05
7.40149e-05
7.27057e-05
7.13837e-05
7.00597e-05
6.87365e-05
6.74094e-05
6.60851e-05
6.477e-05
6.34549e-05
6.2154e-05
6.08619e-05
5.95817e-05
5.83166e-05
5.7066e-05
5.58315e-05
5.46105e-05
5.3397e-05
5.21985e-05
5.10075e-05
4.98212e-05
4.86453e-05
4.74879e-05
4.63309e-05
4.51932e-05
4.40558e-05
4.29291e-05
4.17986e-05
4.06721e-05
3.95374e-05
3.84023e-05
3.72579e-05
3.61097e-05
3.46314e-05
3.29671e-05
3.13623e-05
2.98467e-05
2.83847e-05
2.69986e-05
2.56383e-05
2.43477e-05
2.30601e-05
2.18535e-05
2.06617e-05
1.9585e-05
1.85058e-05
1.7482e-05
1.6389e-05
1.53943e-05
1.448e-05
1.37574e-05
1.2887e-05
1.19215e-05
1.10454e-05
1.04209e-05
9.79789e-06
9.12192e-06
8.50105e-06
8.15381e-06
8.02465e-06
8.02462e-06
8.22472e-06
9.882e-05
0.000101954
0.000103036
0.000105131
0.000105763
0.000107348
0.00010776
0.000108977
0.000109229
0.000110135
0.000110243
0.000110869
0.000110836
0.000111209
0.000111041
0.000111183
0.000110884
0.000110816
0.000110388
0.000110125
0.000109572
0.000109134
0.000108472
0.000107878
0.00010711
0.000106379
0.000105521
0.000104665
0.000103698
0.00010273
0.000101688
0.000100618
9.94854e-05
9.83412e-05
9.71434e-05
9.59157e-05
9.46456e-05
9.33522e-05
9.20495e-05
9.0694e-05
8.93231e-05
8.79291e-05
8.65011e-05
8.50645e-05
8.35998e-05
8.21141e-05
8.06203e-05
7.91009e-05
7.75718e-05
7.60317e-05
7.44787e-05
7.29196e-05
7.13566e-05
6.97886e-05
6.82161e-05
6.66376e-05
6.50533e-05
6.34657e-05
6.18763e-05
6.02905e-05
5.87085e-05
5.71414e-05
5.55857e-05
5.40505e-05
5.25345e-05
5.10416e-05
4.9574e-05
4.81315e-05
4.67171e-05
4.533e-05
4.39707e-05
4.26387e-05
4.13271e-05
4.00387e-05
3.87593e-05
3.74943e-05
3.62492e-05
3.49981e-05
3.37762e-05
3.25445e-05
3.12994e-05
2.99993e-05
2.86814e-05
2.73838e-05
2.61261e-05
2.48088e-05
2.28077e-05
2.04871e-05
1.9039e-05
1.82403e-05
1.66294e-05
1.41802e-05
1.23858e-05
1.18249e-05
1.08728e-05
8.94298e-06
7.94369e-06
7.41859e-06
7.18133e-06
7.24669e-06
0.000100101
0.000103834
0.000105105
0.000107569
0.000108507
0.000110498
0.000111248
0.000112878
0.00011348
0.000114793
0.000115251
0.000116275
0.000116591
0.000117349
0.000117525
0.000118042
0.000118083
0.000118382
0.0001183
0.000118402
0.000118197
0.000118116
0.000117793
0.000117544
0.000117103
0.0001167
0.000116148
0.000115608
0.000114945
0.000114286
0.000113534
0.00011276
0.000111911
0.00011104
0.000110112
0.000109147
0.000108137
0.000107092
0.00010601
0.000104882
0.000103727
0.000102532
0.0001013
0.000100038
9.8741e-05
9.74057e-05
9.6046e-05
9.46484e-05
9.32185e-05
9.17602e-05
9.02667e-05
8.87403e-05
8.71966e-05
8.56288e-05
8.40284e-05
8.24072e-05
8.0758e-05
7.90909e-05
7.73958e-05
7.5685e-05
7.39454e-05
7.21857e-05
7.03973e-05
6.85892e-05
6.67609e-05
6.49117e-05
6.30456e-05
6.11639e-05
5.92682e-05
5.7365e-05
5.54544e-05
5.35428e-05
5.16311e-05
4.97277e-05
4.78373e-05
4.59665e-05
4.4121e-05
4.23038e-05
4.05241e-05
3.87845e-05
3.70904e-05
3.5429e-05
3.37974e-05
3.21917e-05
3.06252e-05
2.90829e-05
2.75485e-05
2.59686e-05
2.43509e-05
2.27504e-05
2.10728e-05
1.92823e-05
1.73891e-05
1.54196e-05
1.3366e-05
1.13497e-05
9.55634e-06
8.30592e-06
7.169e-06
6.66482e-06
8.9347e-05
9.19286e-05
9.29416e-05
9.46993e-05
9.55991e-05
9.71358e-05
9.79321e-05
9.92565e-05
9.99534e-05
0.000101074
0.000101674
0.000102601
0.000103106
0.000103857
0.000104272
0.000104872
0.000105203
0.000105663
0.000105922
0.000106258
0.000106447
0.000106672
0.000106788
0.000106919
0.000106964
0.000107012
0.00010699
0.000106962
0.000106878
0.000106782
0.000106644
0.000106486
0.000106296
0.000106082
0.000105851
0.000105584
0.000105298
0.000104976
0.000104636
0.000104259
0.000103863
0.000103429
0.000102967
0.000102471
0.00010195
0.000101393
0.000100812
0.000100197
9.95497e-05
9.88607e-05
9.81289e-05
9.7346e-05
9.65076e-05
9.53415e-05
9.4001e-05
9.26069e-05
9.11778e-05
8.97079e-05
8.81991e-05
8.66616e-05
8.50913e-05
8.34976e-05
8.18733e-05
8.01998e-05
7.84893e-05
7.6756e-05
7.49747e-05
7.31606e-05
7.13061e-05
6.94198e-05
6.74953e-05
6.55362e-05
6.35362e-05
6.14928e-05
5.94101e-05
5.72763e-05
5.50997e-05
5.28657e-05
5.05852e-05
4.82455e-05
4.5861e-05
4.34247e-05
4.09502e-05
3.84397e-05
3.59152e-05
3.33936e-05
3.09e-05
2.84467e-05
2.60644e-05
2.37579e-05
2.15122e-05
1.93115e-05
1.71547e-05
1.49662e-05
1.28489e-05
1.08614e-05
9.01676e-06
7.49019e-06
6.57628e-06
7.47636e-06
5.47983e-05
5.69599e-05
5.78218e-05
5.94202e-05
6.03528e-05
6.18676e-05
6.27442e-05
6.4143e-05
6.49483e-05
6.62245e-05
6.69596e-05
6.81061e-05
6.87787e-05
6.97964e-05
7.04073e-05
7.13019e-05
7.18512e-05
7.25405e-05
7.27956e-05
7.31499e-05
7.3363e-05
7.36441e-05
7.38296e-05
7.40604e-05
7.42225e-05
7.44143e-05
7.45546e-05
7.47132e-05
7.48347e-05
7.49647e-05
7.50699e-05
7.51733e-05
7.526e-05
7.5338e-05
7.54057e-05
7.54618e-05
7.55115e-05
7.55474e-05
7.55785e-05
7.55965e-05
7.56095e-05
7.56099e-05
7.56032e-05
7.55875e-05
7.55615e-05
7.55208e-05
7.5468e-05
7.54007e-05
7.5316e-05
7.52118e-05
7.5087e-05
7.49383e-05
7.4764e-05
7.45668e-05
7.43553e-05
7.41153e-05
7.38557e-05
7.35645e-05
7.3238e-05
7.28379e-05
7.21861e-05
7.14891e-05
7.07441e-05
6.99567e-05
6.91267e-05
6.8253e-05
6.73277e-05
6.63551e-05
6.53257e-05
6.42422e-05
6.30817e-05
6.18566e-05
6.05805e-05
5.91906e-05
5.77375e-05
5.61745e-05
5.45296e-05
5.27726e-05
5.09233e-05
4.89619e-05
4.69035e-05
4.47398e-05
4.24831e-05
4.01348e-05
3.77113e-05
3.52012e-05
3.26252e-05
2.99666e-05
2.71827e-05
2.43113e-05
2.13347e-05
1.83538e-05
1.54659e-05
1.26981e-05
1.02319e-05
8.07018e-06
6.40003e-06
5.20996e-06
4.47216e-06
4.88441e-06
5.69377e-06
5.79793e-06
5.84374e-06
5.92936e-06
5.97901e-06
6.06465e-06
6.11475e-06
6.19856e-06
6.2482e-06
6.32856e-06
6.3769e-06
6.45278e-06
6.49938e-06
6.57006e-06
6.61467e-06
6.67994e-06
6.72263e-06
6.78233e-06
6.82249e-06
6.87422e-06
6.91137e-06
6.9559e-06
6.9906e-06
7.02964e-06
7.06272e-06
7.09798e-06
7.13009e-06
7.16201e-06
7.19316e-06
7.22441e-06
7.25488e-06
7.28558e-06
7.31588e-06
7.34641e-06
7.37701e-06
7.40792e-06
7.43923e-06
7.47089e-06
7.50322e-06
7.53612e-06
7.56989e-06
7.60434e-06
7.63962e-06
7.67579e-06
7.71293e-06
7.75091e-06
7.78979e-06
7.82966e-06
7.87053e-06
7.91245e-06
7.95549e-06
7.99976e-06
8.04529e-06
8.09238e-06
8.14103e-06
8.19049e-06
8.24105e-06
8.29187e-06
8.34245e-06
8.39279e-06
8.4432e-06
8.49532e-06
8.55014e-06
8.60756e-06
8.66782e-06
8.73129e-06
8.79824e-06
8.86909e-06
8.94374e-06
9.02269e-06
9.10532e-06
9.19413e-06
9.28805e-06
9.38416e-06
9.48927e-06
9.59605e-06
9.71255e-06
9.83216e-06
9.96175e-06
1.00972e-05
1.02431e-05
1.03981e-05
1.0565e-05
1.07435e-05
1.09324e-05
1.11209e-05
1.12928e-05
1.13781e-05
1.13333e-05
1.10278e-05
1.02246e-05
8.73318e-06
6.81327e-06
4.71526e-06
3.07106e-06
2.14674e-06
2.11256e-06
3.26289e-06
3.16223e-06
3.33841e-06
8.39851e-06
8.3107e-07
1.0755e-06
1.46681e-06
1.84695e-06
2.15018e-06
2.49753e-06
2.88017e-06
3.26098e-06
3.63043e-06
3.95927e-06
4.11124e-06
4.19144e-06
4.36002e-06
4.9667e-06
6.60624e-06
8.82191e-06
1.0062e-05
8.68091e-06
4.0714e-06
3.73924e-06
1.06237e-06
1.10234e-06
1.36832e-06
1.58745e-06
1.87332e-06
2.22078e-06
2.59019e-06
2.97806e-06
3.36732e-06
3.63592e-06
3.82716e-06
4.07746e-06
4.58373e-06
5.80988e-06
7.88161e-06
9.67499e-06
1.01274e-05
8.42863e-06
4.15727e-06
3.40924e-06
1.54475e-06
1.5817e-06
1.5506e-06
1.69427e-06
1.94396e-06
2.24021e-06
2.5865e-06
2.96135e-06
3.38734e-06
3.57981e-06
3.86157e-06
4.41728e-06
5.43559e-06
7.31609e-06
9.54704e-06
1.04979e-05
9.75822e-06
8.24612e-06
4.2194e-06
3.80658e-06
2.17519e-06
2.19402e-06
2.00756e-06
2.15726e-06
2.26194e-06
2.54748e-06
2.90107e-06
3.39613e-06
4.055e-06
4.10344e-06
4.82037e-06
5.75824e-06
7.47291e-06
9.77193e-06
1.03425e-05
1.08052e-05
9.66207e-06
8.03954e-06
4.28306e-06
4.4685e-06
3.06455e-06
3.07009e-06
2.75865e-06
3.02344e-06
3.00939e-06
3.3847e-06
3.86355e-06
4.65298e-06
5.36825e-06
6.08038e-06
7.1788e-06
8.71761e-06
1.07217e-05
1.07934e-05
1.14498e-05
1.07282e-05
9.61539e-06
7.62914e-06
3.58348e-06
5.39656e-06
4.2879e-06
4.26091e-06
3.85611e-06
4.21609e-06
4.43315e-06
5.10258e-06
6.16043e-06
7.70386e-06
9.45059e-06
1.06346e-05
1.20935e-05
1.20392e-05
1.19529e-05
1.22116e-05
1.1628e-05
1.07507e-05
9.6205e-06
6.90567e-06
2.82918e-06
6.97757e-06
6.26294e-06
6.26864e-06
6.14731e-06
6.94749e-06
8.0805e-06
1.00045e-05
1.27173e-05
1.62929e-05
1.54521e-05
1.44869e-05
1.41866e-05
1.3525e-05
1.33196e-05
1.27326e-05
1.20045e-05
1.09048e-05
9.42121e-06
5.8203e-06
2.09009e-06
1.09045e-05
1.13917e-05
1.20217e-05
1.35539e-05
1.61587e-05
1.96724e-05
2.02308e-05
1.94367e-05
1.84428e-05
1.74899e-05
1.67493e-05
1.60952e-05
1.53134e-05
1.4746e-05
1.35949e-05
1.24514e-05
1.1005e-05
8.91055e-06
4.50131e-06
1.41382e-06
2.56856e-05
2.83701e-05
2.97725e-05
3.08036e-05
2.93344e-05
2.75762e-05
2.6204e-05
2.45571e-05
2.33759e-05
2.19049e-05
2.08178e-05
1.93871e-05
1.81202e-05
1.65654e-05
1.46115e-05
1.29033e-05
1.04028e-05
7.50183e-06
3.44868e-06
8.53604e-07
4.54947e-05
4.32363e-05
4.15285e-05
3.84803e-05
3.69057e-05
3.41237e-05
3.2714e-05
3.01591e-05
2.88998e-05
2.63598e-05
2.51376e-05
2.23533e-05
2.09245e-05
1.75505e-05
1.50163e-05
1.01907e-05
7.4156e-06
5.01123e-06
2.22135e-06
3.99236e-07
4.15513e-05
3.95816e-05
3.83929e-05
3.55905e-05
3.42138e-05
3.17887e-05
3.05458e-05
2.83722e-05
2.72883e-05
2.52365e-05
2.41341e-05
2.19745e-05
2.05116e-05
1.79616e-05
1.60861e-05
1.19309e-05
8.66829e-06
6.01866e-06
2.34556e-06
3.86414e-07
1.87207e-05
2.1037e-05
2.23691e-05
2.52051e-05
2.45798e-05
2.41946e-05
2.29053e-05
2.20682e-05
2.09617e-05
2.02683e-05
1.93506e-05
1.88064e-05
1.76744e-05
1.68798e-05
1.51204e-05
1.36003e-05
1.17112e-05
8.57673e-06
3.65173e-06
8.11402e-07
9.31556e-06
9.15632e-06
9.36325e-06
1.00054e-05
1.17489e-05
1.43219e-05
1.82747e-05
1.82619e-05
1.74253e-05
1.6658e-05
1.59899e-05
1.58005e-05
1.52541e-05
1.47258e-05
1.42029e-05
1.31025e-05
1.19302e-05
9.96034e-06
5.01974e-06
1.46492e-06
6.60456e-06
5.77604e-06
5.7002e-06
5.37473e-06
5.92754e-06
6.59887e-06
8.01404e-06
9.88724e-06
1.38714e-05
1.52379e-05
1.39898e-05
1.40061e-05
1.38218e-05
1.38517e-05
1.33378e-05
1.25135e-05
1.16787e-05
1.03921e-05
6.60001e-06
2.23695e-06
5.22995e-06
4.06739e-06
4.01832e-06
3.61439e-06
3.93438e-06
4.03861e-06
4.56537e-06
5.39775e-06
6.63578e-06
8.05131e-06
9.30409e-06
1.10621e-05
1.18428e-05
1.22137e-05
1.29317e-05
1.25112e-05
1.14429e-05
1.04289e-05
7.78771e-06
3.05195e-06
4.36791e-06
2.93509e-06
2.91227e-06
2.59436e-06
2.82832e-06
2.81888e-06
3.15743e-06
3.58384e-06
4.27238e-06
4.89643e-06
5.48723e-06
6.64823e-06
8.32985e-06
1.06441e-05
1.09525e-05
1.21746e-05
1.1535e-05
1.03381e-05
8.49263e-06
3.86453e-06
3.78259e-06
2.11313e-06
2.11789e-06
1.93333e-06
2.05852e-06
2.16781e-06
2.42547e-06
2.78441e-06
3.22958e-06
3.82535e-06
3.91332e-06
4.55507e-06
5.55883e-06
7.42702e-06
9.98877e-06
1.07901e-05
1.15807e-05
1.03624e-05
8.803e-06
4.45272e-06
3.52999e-06
1.49938e-06
1.51455e-06
1.51597e-06
1.65532e-06
1.89774e-06
2.18063e-06
2.51897e-06
2.89951e-06
3.28222e-06
3.48067e-06
3.76878e-06
4.29441e-06
5.39719e-06
7.4316e-06
9.9925e-06
1.1239e-05
1.05144e-05
8.98557e-06
4.39036e-06
4.15724e-06
1.05445e-06
1.08057e-06
1.34131e-06
1.57079e-06
1.85397e-06
2.1896e-06
2.5515e-06
2.9282e-06
3.31968e-06
3.58192e-06
3.7666e-06
4.01107e-06
4.53464e-06
5.89647e-06
8.21072e-06
1.02458e-05
1.08946e-05
9.14355e-06
4.32648e-06
8.90737e-06
8.40442e-07
1.06114e-06
1.44517e-06
1.82947e-06
2.13329e-06
2.47294e-06
2.84178e-06
3.21476e-06
3.57328e-06
3.89982e-06
4.0409e-06
4.11175e-06
4.2835e-06
4.96251e-06
6.8297e-06
9.34184e-06
1.08522e-05
9.35888e-06
4.23787e-06
1.23429e-06
0.000116568
0.000294197
0.000330906
0.00033481
0.000335356
0.000335357
0.000335342
0.000335343
0.000335345
0.000335345
0.000335343
0.000335342
0.000335357
0.000335356
0.00033481
0.000330906
0.000294197
0.000116568
1.23429e-06
1.36993e-06
6.81494e-05
0.000219534
0.000309475
0.000330906
0.000334527
0.000335273
0.000335315
0.000335296
0.000335287
0.000335287
0.000335296
0.000335315
0.000335273
0.000334527
0.000330906
0.000309476
0.000219534
6.81494e-05
1.36993e-06
1.51299e-06
5.29151e-05
0.000176507
0.000280616
0.000322159
0.000332506
0.000334604
0.000335101
0.000335168
0.000335172