/*--------------------------------*- C++ -*----------------------------------*\
| =========                 |                                                 |
| \\      /  F ield         | OpenFOAM: The Open Source CFD Toolbox           |
|  \\    /   O peration     | Version:  2.1.0                                 |
|   \\  /    A nd           | Web:      www.OpenFOAM.org                      |
|    \\/     M anipulation  |                                                 |
\*---------------------------------------------------------------------------*/
FoamFile
{
    version     2.0;
    format      ascii;
    class       volScalarField;
    location    "0.14";
    object      omega;
}
// * * * * * * * * * * * * * * * * * * * * * * * * * * * * * * * * * * * * * //

dimensions      [0 0 -1 0 0 0 0];

internalField   nonuniform List<scalar> 
6400
(
1427.39
1438.85
1443.31
1451.86
1456.07
1464.11
1468.04
1475.49
1479.11
1485.88
1489.15
1495.18
1498.08
1503.34
1505.85
1510.34
1512.48
1516.22
1517.95
1520.75
1522
1523.94
1524.79
1526.01
1526.52
1527.18
1527.42
1527.54
1527.48
1527.33
1526.99
1526.56
1525.97
1525.28
1524.46
1523.54
1522.5
1521.35
1520.09
1518.68
1517.16
1515.49
1513.67
1511.68
1509.51
1507.14
1504.56
1501.75
1498.68
1495.36
1491.75
1487.77
1483.4
1478.83
1473.95
1468.82
1463.41
1457.69
1451.68
1445.39
1438.79
1431.88
1424.63
1417.05
1409.11
1400.77
1391.89
1382.64
1372.74
1362.38
1351.36
1339.74
1327.47
1314.51
1300.93
1286.67
1271.84
1256.45
1240.58
1224.27
1207.42
1189.69
1170.46
1150.79
1129.95
1107.73
1083.6
1056.58
1025.58
988.564
942.899
883.718
804.463
697.227
558.524
485.043
518.794
659.936
768.846
800.324
675.8
676.144
676.915
677.711
678.507
679.851
680.733
682.335
683.348
685.076
686.168
687.994
689.126
691.014
692.209
694.115
695.385
697.301
698.606
700.452
701.804
703.63
705.123
706.993
708.662
710.626
712.487
714.581
716.641
718.896
721.173
723.624
726.141
728.831
731.618
734.558
737.614
740.829
744.176
747.689
751.352
755.191
759.201
763.399
767.785
772.376
777.174
782.19
787.432
792.916
798.62
804.568
810.744
817.234
824.014
831.12
838.562
846.359
854.535
863.117
872.124
881.592
891.551
902.042
913.084
924.553
936.475
949.019
962.194
976.066
990.659
1006.04
1022.26
1039.38
1057.47
1076.61
1096.91
1118.46
1141.41
1165.95
1191.98
1218.63
1246.56
1275.32
1304.55
1333.61
1361.78
1388.2
1412.03
1432.37
1447.19
1454
1455.25
1441.01
1403.34
1318.26
1195.85
1046.52
884.718
726.58
495.045
499.231
501.074
504.684
506.82
510.381
512.654
516.147
518.528
521.956
524.435
527.83
530.401
533.808
536.492
539.907
542.716
546.163
549.093
552.575
555.64
559.192
562.451
566.123
569.615
573.45
577.199
581.24
585.262
589.54
593.852
598.395
603.007
607.833
612.763
617.934
623.245
628.8
634.533
640.517
646.687
653.094
659.707
666.584
673.707
681.104
688.77
696.721
704.957
713.485
722.322
731.469
740.944
750.767
760.948
771.502
782.442
793.78
805.532
817.705
830.312
843.357
856.843
870.768
885.132
899.985
915.317
930.972
946.931
963.135
979.539
996.082
1012.72
1029.41
1046.11
1062.8
1079.47
1096.13
1112.8
1129.48
1146.21
1163
1179.91
1196.89
1213.79
1230.53
1246.7
1261.94
1275.41
1285.05
1289.38
1290.11
1276.97
1249.3
1197.23
1115.8
1001.52
857.329
697.589
550.118
452.037
458.298
460.932
466.059
468.996
473.949
477.072
481.871
485.154
489.841
493.28
497.904
501.501
506.112
509.882
514.527
518.493
523.206
527.376
532.191
536.575
541.524
546.156
551.277
556.186
561.516
566.726
572.3
577.826
583.676
589.538
595.689
601.9
608.38
614.95
621.761
628.684
635.831
643.1
650.58
658.219
666.077
674.111
682.323
690.689
699.226
707.905
716.738
725.701
734.796
744.012
753.335
762.764
772.284
781.889
791.569
801.31
811.106
820.939
830.798
840.671
850.537
860.381
870.181
879.914
889.623
899.245
908.791
918.22
927.527
936.685
945.655
954.377
962.834
970.92
978.597
985.741
992.271
998.043
1002.93
1006.77
1009.05
1010.01
1010.11
1007.19
1002.66
994.95
984.715
970.768
952.92
930.218
902.357
868.041
825.894
773.713
710.463
638.297
561.387
492.71
452.084
442.453
450.063
453.24
459.454
462.991
468.975
472.731
478.496
482.428
488.022
492.113
497.586
501.831
507.23
511.636
517.02
521.597
526.996
531.748
537.193
542.119
547.631
552.737
558.338
563.624
569.324
574.796
580.607
586.252
592.177
597.989
604.027
609.988
616.127
622.213
628.437
634.62
640.905
647.163
653.482
659.777
666.105
672.389
678.696
684.958
691.206
697.408
703.577
709.684
715.745
721.741
727.668
733.523
739.283
744.942
750.482
755.883
761.153
766.247
771.15
775.825
780.244
784.377
788.189
791.644
794.715
797.348
799.514
801.157
802.085
802.47
802.497
801.264
799.564
796.708
793.109
788.35
782.629
775.706
767.66
758.457
748.093
736.524
723.716
709.71
694.601
678.381
661.196
643.029
624.111
604.285
583.294
560.806
536.529
509.802
481.401
451.952
425.959
409.968
402.436
427.201
435.297
438.673
445.267
448.983
455.283
459.168
465.165
469.149
474.875
478.927
484.424
488.529
493.834
497.98
503.13
507.314
512.331
516.551
521.459
525.704
530.513
534.787
539.511
543.796
548.438
552.726
557.293
561.565
566.039
570.271
574.677
578.88
583.196
587.329
591.522
595.537
599.566
603.428
607.251
610.913
614.485
617.889
621.176
624.274
627.22
629.963
632.522
634.849
636.968
638.822
640.43
641.755
642.751
643.344
643.602
643.65
643.271
642.585
641.488
640.001
638.073
635.704
632.866
629.547
625.737
621.409
616.572
611.2
605.312
598.904
591.983
584.527
576.68
568.354
559.72
550.715
541.5
532.038
522.473
512.775
503.09
493.46
484.061
474.907
466.013
457.275
448.73
440.495
432.581
424.706
416.733
408.694
400.634
392.389
384.23
377.496
374.251
373.2
372.74
396.176
403.783
406.928
413.048
416.396
422.202
425.599
431.054
434.427
439.539
442.859
447.653
450.911
455.396
458.561
462.765
465.844
469.763
472.727
476.387
479.233
482.625
485.345
488.473
491.019
493.838
496.158
498.675
500.739
502.909
504.694
506.568
508.103
509.643
510.845
512
512.802
513.491
513.825
513.967
513.978
513.566
512.973
512.057
510.871
509.404
507.62
505.571
503.179
500.533
497.526
494.271
490.674
486.801
482.652
478.267
473.651
468.77
463.71
458.435
453.034
447.487
441.859
436.156
430.422
424.678
418.973
413.354
407.85
402.507
397.337
392.441
387.766
383.387
379.235
375.432
371.861
368.661
365.669
363.034
360.611
358.561
356.711
355.207
353.844
352.758
351.755
350.975
350.243
349.655
349.05
348.568
348.212
348.068
348.192
349.561
351.291
355.307
357.335
357.565
352.391
358.873
361.493
366.514
369.069
373.735
376.156
380.4
382.608
386.403
388.407
391.745
393.504
396.373
397.858
400.265
401.474
403.356
404.282
405.636
406.281
407.064
407.412
407.596
407.627
407.379
406.773
406.103
404.998
403.792
402.258
400.47
398.4
396.081
393.46
390.654
387.514
384.252
380.691
377.006
373.106
369.068
364.875
360.6
356.202
351.774
347.283
342.81
338.331
333.939
329.585
325.393
321.293
317.421
313.729
310.265
307.035
304.059
301.352
298.93
296.795
294.959
293.416
292.181
291.23
290.596
290.285
290.174
290.269
290.792
291.407
292.411
293.504
294.946
296.471
298.305
300.209
302.388
304.62
307.09
309.593
312.298
315.018
317.9
320.774
323.763
326.711
329.725
332.68
335.663
338.595
341.577
344.589
347.776
351.223
355.336
360.029
365.586
368.357
368.981
293.032
297.294
298.93
301.832
303.236
305.564
306.669
308.346
309.121
310.125
310.55
310.815
310.862
310.747
310.083
309.391
308.298
307.054
305.425
303.777
301.636
299.55
297.034
294.519
291.712
288.899
285.829
282.828
279.606
276.456
273.182
269.987
266.727
263.584
260.439
257.442
254.497
251.739
249.068
246.601
244.289
242.179
240.261
238.578
237.093
235.859
234.844
234.083
233.572
233.33
233.251
233.403
233.876
234.505
235.414
236.474
237.798
239.268
240.979
242.84
244.918
247.145
249.573
252.152
254.917
257.839
260.938
264.187
267.613
271.192
274.943
278.855
282.934
287.18
291.594
296.185
300.946
305.898
311.043
316.377
321.903
327.624
333.531
339.628
345.895
352.346
358.943
365.682
372.506
379.403
386.325
393.256
400.171
407.09
414.053
421.288
429.3
438.502
447.564
452.173
214.196
215.187
215.465
215.649
215.679
215.621
215.228
214.711
214.06
213.345
212.381
211.404
210.278
209.123
207.82
206.552
205.186
203.846
202.456
201.14
199.775
198.528
197.262
196.13
195.021
194.051
193.122
192.371
191.663
191.131
190.679
190.404
190.265
190.22
190.319
190.578
190.954
191.475
192.123
192.897
193.819
194.839
196.015
197.288
198.698
200.221
201.859
203.618
205.483
207.464
209.553
211.754
214.063
216.483
219.007
221.643
224.382
227.237
230.195
233.277
236.459
239.776
243.194
246.757
250.428
254.25
258.191
262.291
266.526
270.926
275.484
280.219
285.13
290.235
295.538
301.057
306.799
312.778
318.993
325.487
332.252
339.328
346.714
354.45
362.541
371.027
379.922
389.278
399.131
409.539
420.569
432.287
444.782
458.149
472.5
487.922
504.336
521.197
534.872
540.999
221.386
222.962
223.487
224.181
224.472
224.675
224.712
224.667
224.292
223.809
223.182
222.476
221.5
220.535
219.385
218.207
216.869
215.534
214.092
212.67
211.154
209.716
208.209
206.791
205.359
204.04
202.728
201.569
200.438
199.486
198.58
197.859
197.22
196.769
196.426
196.265
196.208
196.282
196.564
196.965
197.53
198.231
199.075
200.069
201.175
202.455
203.826
205.361
207.001
208.777
210.67
212.686
214.819
217.066
219.431
221.914
224.503
227.218
230.029
232.976
236.012
239.197
242.466
245.894
249.411
253.092
256.871
260.82
264.881
269.114
273.469
277.999
282.672
287.531
292.549
297.763
303.157
308.757
314.558
320.58
326.825
333.311
340.042
347.04
354.312
361.884
369.769
377.997
386.592
395.585
404.999
414.945
425.48
436.732
448.834
462.003
476.426
491.974
505.84
512.34
297.64
302.414
304.283
307.725
309.413
312.38
313.825
316.236
317.393
319.207
320.066
321.273
321.814
322.342
322.526
322.587
322.369
321.817
321.05
320.14
318.758
317.413
315.593
313.734
311.493
309.217
306.563
303.916
300.931
297.978
294.775
291.609
288.262
285
281.586
278.287
274.943
271.69
268.48
265.416
262.4
259.586
256.872
254.38
252.029
249.934
248.019
246.359
244.929
243.752
242.817
242.147
241.781
241.627
241.609
242.015
242.502
243.351
244.284
245.544
246.886
248.525
250.24
252.22
254.276
256.566
258.924
261.495
264.124
266.95
269.843
272.906
276.035
279.311
282.648
286.111
289.635
293.261
296.946
300.714
304.535
308.423
312.358
316.333
320.336
324.373
328.441
332.552
336.715
340.956
345.301
349.723
354.31
359.113
364.321
370.133
376.894
384.703
391.716
395.075
353.885
360.564
363.279
368.528
371.256
376.185
378.822
383.39
385.91
390.081
392.428
396.212
398.398
401.78
403.778
406.769
408.55
411.126
412.687
414.859
416.112
417.876
418.844
420.147
420.79
421.584
421.946
422.151
422.196
421.983
421.417
420.741
419.655
418.452
416.882
415.109
413.033
410.665
408.019
405.112
401.914
398.52
394.84
391.006
386.929
382.698
378.303
373.781
369.148
364.463
359.702
354.975
350.227
345.582
340.993
336.623
332.383
328.437
324.649
321.18
317.911
314.976
312.292
309.939
307.866
306.125
304.665
303.534
302.672
302.108
301.832
301.734
301.812
302.233
302.722
303.477
304.281
305.281
306.311
307.48
308.669
309.935
311.208
312.554
313.972
315.465
317.046
318.704
320.467
322.337
324.375
326.584
329.041
331.616
334.607
338.116
342.484
347.234
349.468
349.475
395.282
402.917
406.078
412.242
415.636
421.502
424.975
430.517
434.003
439.231
442.693
447.632
451.058
455.734
459.125
463.555
466.882
471.082
474.355
478.332
481.517
485.286
488.379
491.926
494.912
498.248
501.106
504.213
506.922
509.763
512.261
514.817
517.051
519.301
521.242
523.13
524.808
526.397
527.761
528.979
529.947
530.732
531.21
531.437
531.498
531.228
530.642
529.787
528.573
527.087
525.206
523.051
520.477
517.61
514.329
510.713
506.718
502.398
497.758
492.863
487.719
482.296
476.708
470.898
464.995
458.949
452.886
446.769
440.722
434.726
428.881
423.184
417.76
412.582
407.734
403.177
398.921
394.885
391.115
387.528
384.226
381.132
378.322
375.574
372.878
370.131
367.501
364.91
362.371
359.554
356.613
353.679
350.846
348.204
345.527
344.198
343.706
345.56
347.229
347.151
423.851
431.861
435.197
441.71
445.374
451.596
455.425
461.348
465.277
470.935
474.934
480.369
484.43
489.689
493.808
498.924
503.094
508.097
512.317
517.228
521.497
526.337
530.644
535.414
539.762
544.479
548.854
553.522
557.918
562.54
566.951
571.525
575.925
580.448
584.82
589.262
593.602
597.982
602.262
606.539
610.713
614.85
618.865
622.819
626.636
630.347
633.911
637.335
640.585
643.675
646.554
649.249
651.706
653.938
655.909
657.555
658.898
659.877
660.409
660.621
660.63
660.053
659.303
657.992
656.388
654.229
651.697
648.609
645.084
641.01
636.456
631.364
625.763
619.639
612.999
605.895
598.388
590.574
582.45
573.949
565.018
555.751
546.4
537.099
527.612
517.353
506.23
495.104
484.922
474.253
461.432
447.755
434.333
421.296
406.543
392.211
379.91
371.976
368.206
365.048
437.62
445.058
448.153
454.188
457.592
463.385
466.974
472.533
476.268
481.637
485.503
490.73
494.726
499.874
504.021
509.137
513.44
518.56
523.025
528.182
532.816
538.034
542.841
548.141
553.134
558.541
563.723
569.252
574.629
580.295
585.861
591.667
597.416
603.365
609.287
615.371
621.451
627.663
633.884
640.205
646.541
652.957
659.382
665.87
672.362
678.887
685.413
691.941
698.447
704.956
711.432
717.891
724.314
730.703
737.054
743.356
749.605
755.778
761.868
767.855
773.713
779.446
785.023
790.408
795.588
800.513
805.176
809.523
813.539
817.179
820.407
823.189
825.419
827.068
827.887
828.197
827.98
826.511
824.463
821.207
817.025
811.448
804.515
796.137
786.241
774.643
760.91
744.69
726.059
705.274
681.634
654.401
623.714
589.993
553.063
513.298
473.758
437.497
412.329
398.254
446.518
452.604
455.149
460.083
462.87
467.618
470.552
475.126
478.183
482.624
485.801
490.151
493.45
497.763
501.208
505.521
509.129
513.477
517.253
521.666
525.622
530.129
534.298
538.939
543.356
548.177
552.866
557.905
562.889
568.182
573.478
579.056
584.686
590.58
596.566
602.799
609.145
615.726
622.442
629.385
636.478
643.786
651.254
658.922
666.779
674.85
683.128
691.631
700.364
709.271
718.374
727.652
737.104
746.72
756.494
766.408
776.457
786.627
796.912
807.304
817.792
828.377
839.043
849.783
860.587
871.437
882.323
893.219
904.098
914.997
925.903
936.824
947.733
958.629
969.47
980.248
990.881
1001.31
1011.46
1021.2
1030.45
1039.06
1046.85
1053.39
1058.12
1060.57
1061.48
1059.69
1053.07
1040.94
1022.33
997.369
962.645
915.345
854.851
780.526
694.003
599.302
516.99
458.615
488.867
492.89
494.649
498.094
500.089
503.484
505.601
508.912
511.116
514.356
516.632
519.836
522.189
525.371
527.804
530.962
533.494
536.655
539.271
542.424
545.135
548.314
551.182
554.439
557.504
560.89
564.173
567.728
571.25
575.008
578.783
582.771
586.811
591.047
595.357
599.877
604.522
609.376
614.387
619.615
625.029
630.677
636.549
642.681
649.041
655.663
662.532
669.669
677.062
684.771
692.787
701.13
709.807
718.825
728.206
737.953
748.09
758.626
769.586
780.989
792.859
805.223
818.101
831.507
845.462
859.981
875.08
890.772
907.07
924.053
941.519
959.457
977.808
996.587
1015.7
1035.12
1054.79
1074.67
1094.74
1114.97
1135.36
1155.88
1176.52
1197.44
1218.52
1239.74
1260.93
1281.62
1301.08
1317.96
1327.67
1331.23
1323.3
1291.24
1235.87
1155
1045.16
908.592
744.671
580.875
668.495
668.565
669.14
669.848
670.433
671.618
672.374
673.786
674.672
676.239
677.178
678.858
679.834
681.559
682.595
684.322
685.415
687.139
688.236
689.846
690.954
692.505
693.721
695.286
696.645
698.274
699.788
701.513
703.192
705.044
706.903
708.915
710.974
713.181
715.47
717.9
720.423
723.089
725.869
728.8
731.865
735.089
738.465
742.011
745.725
749.621
753.701
757.98
762.465
767.173
772.108
777.287
782.72
788.429
794.405
800.672
807.24
814.121
821.33
828.884
836.808
845.161
853.97
863.252
873.042
883.376
894.288
905.817
918.001
930.696
944.112
958.287
973.282
989.143
1005.96
1023.76
1042.66
1062.7
1084.01
1106.65
1130.74
1156.4
1183.75
1213.03
1243.03
1274.13
1304.91
1334.1
1359.56
1376.36
1383.34
1384.12
1372.95
1354.17
1320.61
1262.21
1172.34
1053.75
917.18
762.733
1410.57
1421.81
1426.21
1434.75
1438.99
1447.14
1451.15
1458.81
1462.57
1469.62
1473.05
1479.39
1482.45
1488.03
1490.71
1495.5
1497.79
1501.8
1503.64
1506.62
1507.95
1509.96
1510.84
1512.08
1512.59
1513.24
1513.46
1513.55
1513.46
1513.27
1512.9
1512.44
1511.83
1511.13
1510.31
1509.41
1508.42
1507.33
1506.18
1504.95
1503.66
1502.29
1500.84
1499.33
1497.73
1496.05
1494.26
1492.38
1490.38
1488.27
1486.03
1483.67
1481.17
1478.55
1475.79
1472.81
1469.62
1466.14
1462.3
1458.08
1453.49
1448.64
1443.59
1438.29
1432.73
1426.9
1420.77
1414.32
1407.48
1400.24
1392.47
1384.27
1375.49
1365.81
1355.61
1344.28
1332.23
1318.91
1304.61
1288.93
1271.98
1253.5
1233.47
1211.68
1187.87
1161.34
1131.31
1094.89
1051.1
996.254
924.079
831.151
728.768
623.852
539.286
493.359
515.238
662.968
792.289
830.796
747.587
300.111
166.881
113.263
88.9276
69.6552
56.4521
50.7318
46.0367
44.4308
44.3685
48.7174
61.8159
83.4956
125.73
196.42
301.166
427.714
570.928
648.447
608.48
302.901
200.816
143.6
108.735
84.7706
72.3077
62.02
56.7521
54.7948
54.7628
63.0119
77.5254
106.2
155.127
231.823
332.111
443.764
563.676
614.039
495.13
296.203
225.651
163.65
127.192
102.938
85.4183
74.9064
70.027
68.4926
70.6689
80.6304
102.309
136.963
193.938
271.521
362.752
459.805
546.884
575.651
415.287
283.436
235.396
173.5
144.912
117.025
102.07
92.4234
88.2513
87.0873
90.357
109.196
134.868
177.77
237.967
310.322
386.924
460.944
518.578
534.697
363.311
274.771
239.866
186.454
163.031
135.618
123.104
114.091
110.887
110.412
125.382
148.301
181.137
228.561
285.134
345.054
403.028
454.072
482.313
492.484
329.554
269.256
242.773
197.913
178.799
157.431
148.72
144.996
144.734
157.441
177.872
205.107
240.252
283.173
326.781
369.374
406.836
432.081
434.043
451.498
314.838
274.006
254.767
223.929
211.394
202.019
199.876
202.742
214.106
230.597
251.194
275.381
303.24
331.984
358.251
381.595
394.536
394.258
375.695
413.611
333.986
315.415
307.673
298.455
295.801
295.233
296.215
301.742
309.236
319.471
330.283
342.293
354.106
363.918
370.291
373.398
367.658
338.906
310.142
381.064
442.367
433.459
429.407
416.465
410.498
402.312
398.4
393.799
391.523
388.494
386.482
383.227
379.216
372.138
363.8
347.91
316.224
272.657
243.156
355.71
526.96
509.594
501.965
483.165
474.269
458.821
450.973
437.69
430.198
417.98
409.334
395.849
382.618
362.987
337.712
299.971
256.045
209.872
187.154
336.254
502.733
486.99
480.633
464.88
457.55
445.714
439.862
430.771
425.708
417.854
412.05
403.271
394.214
381.357
360.611
326.073
279.506
227.258
198.444
335.724
379.828
375.05
373.155
367.829
365.528
363.729
363.559
367.282
371.171
376.667
382.074
386.783
389.162
389.736
387.431
377.317
349.393
301.229
262.597
353.88
309.712
283.74
272.107
256.066
251.431
250.65
255.555
263.934
278.781
294.519
315.51
335.408
357.948
376.935
391.903
398.859
398.356
370.139
335.524
383.468
305.228
262.845
242.528
208.557
194.202
181.199
177.423
177.207
189.862
207.648
233.399
263.94
299.397
337.848
373.403
406.569
424.171
425.298
404.167
420.968
322.157
261.287
234.86
190.643
171.7
148.945
139.21
134.177
132.923
143.922
165.247
195.576
235.416
285.368
337.44
388.689
436.133
462.808
462.527
463.383
355.603
267.299
232.158
179.021
155.74
129.159
116.902
108.121
104.77
104.071
117.619
141.915
177.183
229.455
293.313
361.824
428.113
485.43
508.79
508.327
408.689
277.314
229.548
168.808
140.127
112.36
96.9261
88.1163
84.1691
83.1552
86.8628
104.912
132.395
178.064
243.626
324.373
409.543
492.349
546.954
553.59
495.257
289.068
217.97
159.782
123.838
100.308
82.1566
72.1585
67.3317
65.7978
68.0977
78.9115
100.622
137.903
198.52
282.882
382.497
488.135
576.134
597.386
629.177
298.613
195.494
138.157
106.154
82.9756
69.495
59.9987
55.0814
53.2018
53.1623
61.4049
77.2037
106.932
159.446
242.331
350.887
470.53
594.191
638.018
778.72
299.685
164.146
110.476
85.784
69.6005
55.553
48.7723
44.7779
43.314
43.3482
47.9179
61.1051
84.862
129.063
205.19
318.058
451.836
602.057
674.162
646.071
32.1718
12.7357
11.3229
11.19
11.171
11.1705
11.1708
11.1706
11.1705
11.1705
11.1706
11.1708
11.1705
11.171
11.19
11.3229
12.7357
32.1718
646.071
672.777
55.0774
17.0425
12.088
11.304
11.1803
11.1547
11.1529
11.1534
11.1536
11.1536
11.1534
11.1529
11.1547
11.1803
11.304
12.088
17.0425
55.0774
672.777
698.379
71.0672
21.1484
13.3015
11.5869
11.2261
11.1551
11.1382
11.1358
11.1355
11.1355
11.1358
11.1382
11.1551
11.2261
11.5869
13.3015
21.1485
71.0673
698.379
723.067
85.8059
25.1273
14.6434
12.0422
11.3368
11.1683
11.1265
11.1183
11.1171
11.1171
11.1183
11.1265
11.1683
11.3368
12.0422
14.6434
25.1272
85.8055
723.066
746.859
101.946
29.2217
16.07
12.59
11.5239
11.2065
11.1273
11.105
11.1003
11.1003
11.105
11.1273
11.2065
11.5239
12.59
16.07
29.2217
101.946
746.859
769.382
118.496
33.3812
17.5449
13.1988
11.7631
11.2832
11.1366
11.0944
11.0843
11.0843
11.0944
11.1366
11.2832
11.7631
13.1988
17.5449
33.3812
118.496
769.382
790.628
134.897
37.5539
19.0474
13.8488
12.0425
11.387
11.16
11.0918
11.0718
11.0718
11.0918
11.16
11.387
12.0425
13.8488
19.0474
37.5539
134.897
790.628
810.892
151.166
41.7596
20.5787
14.5326
12.3559
11.5173
11.2029
11.0955
11.0625
11.0625
11.0955
11.2029
11.5173
12.3559
14.5326
20.5787
41.7596
151.165
810.892
830.032
167.128
45.9762
22.1315
15.2425
12.6969
11.6708
11.2604
11.1065
11.0594
11.0594
11.1065
11.2604
11.6708
12.6969
15.2425
22.1315
45.9763
167.129
830.033
847.74
182.487
50.1424
23.6865
15.9675
13.0581
11.8437
11.3327
11.1292
11.0619
11.0619
11.1292
11.3327
11.8437
13.0581
15.9675
23.6865
50.1423
182.487
847.74
863.942
197.073
54.2109
25.2262
16.6977
13.4327
12.0318
11.4181
11.161
11.0698
11.0698
11.161
11.4181
12.0318
13.4327
16.6977
25.2262
54.2108
197.073
863.943
878.94
211.083
58.2137
26.7563
17.4325
13.8183
12.233
11.5153
11.202
11.0862
11.0862
11.202
11.5153
12.233
13.8183
17.4325
26.7563
58.2137
211.082
878.94
892.683
224.484
62.1575
28.2806
18.1726
14.2139
12.4461
11.6239
11.2526
11.1112
11.1112
11.2526
11.6239
12.4461
14.2139
18.1726
28.2806
62.1576
224.485
892.684
905.08
237.165
66.0191
29.7932
18.9149
14.6172
12.6692
11.7427
11.3126
11.1446
11.1446
11.3126
11.7427
12.6692
14.6172
18.9148
29.7932
66.019
237.165
905.08
916.077
249.001
69.7593
31.2807
19.6529
15.0242
12.8996
11.8702
11.3812
11.1862
11.1862
11.3812
11.8702
12.8996
15.0242
19.653
31.2807
69.7595
249.001
916.077
925.845
260.047
73.3687
32.7361
20.3827
15.432
13.1353
12.0049
11.4576
11.2357
11.2357
11.4576
12.0049
13.1353
15.432
20.3828
32.7361
73.3688
260.047
925.845
934.523
270.403
76.8798
34.1691
21.1069
15.8409
13.3757
12.1463
11.5416
11.2929
11.2929
11.5416
12.1463
13.3757
15.8408
21.1069
34.169
76.8796
270.403
934.524
942.059
280.038
80.2861
35.5802
21.8262
16.251
13.6206
12.2941
11.6328
11.3577
11.3577
11.6328
12.2941
13.6206
16.2511
21.8262
35.5802
80.2861
280.037
942.058
948.469
288.908
83.5665
36.9627
22.5381
16.6612
13.8691
12.4475
11.7309
11.4299
11.4299
11.7309
12.4475
13.8691
16.6612
22.5381
36.9627
83.5666
288.908
948.47
953.911
297.059
86.7161
38.3117
23.2394
17.0692
14.1198
12.6056
11.835
11.5087
11.5087
11.835
12.6056
14.1198
17.0692
23.2394
38.3117
86.7161
297.059
953.911
958.399
304.478
89.7288
39.6243
23.9284
17.4736
14.3713
12.7673
11.9443
11.5935
11.5935
11.9443
12.7673
14.3713
17.4736
23.9283
39.6241
89.7284
304.478
958.4
962.138
311.315
92.6234
40.904
24.6058
17.8746
14.6236
12.9322
12.0585
11.6839
11.6839
12.0585
12.9322
14.6236
17.8746
24.6057
40.904
92.6233
311.315
962.138
964.998
317.512
95.4036
42.1549
25.2736
18.2731
14.8769
13.1004
12.1774
11.7797
11.7797
12.1774
13.1004
14.8769
18.2731
25.2737
42.1551
95.4039
317.512
964.998
967.171
323.109
98.0623
43.3748
25.9316
18.6688
15.1311
13.2718
12.3008
11.8808
11.8808
12.3008
13.2717
15.1311
18.6687
25.9314
43.3743
98.0611
323.108
967.172
968.642
328.133
100.592
44.5577
26.5763
19.06
15.385
13.4453
12.4279
11.9863
11.9863
12.4279
13.4453
15.385
19.06
26.5762
44.5576
100.592
328.133
968.643
969.649
332.659
102.996
45.7011
27.2055
19.4451
15.6375
13.6201
12.558
12.0956
12.0956
12.558
13.6201
15.6374
19.4451
27.2055
45.701
102.995
332.657
969.649
969.987
336.684
105.283
46.8087
27.8206
19.8244
15.8884
13.796
12.6907
12.2084
12.2084
12.6907
13.796
15.8884
19.8244
27.8205
46.8085
105.283
336.686
969.988
969.851
340.232
107.467
47.8874
28.425
20.1997
16.1387
13.9733
12.8261
12.3244
12.3244
12.8261
13.9732
16.1386
20.1996
28.4246
47.8866
107.465
340.228
969.853
969.442
343.377
109.55
48.9368
29.0187
20.5711
16.3883
14.1519
12.9642
12.4437
12.4436
12.9641
14.1518
16.3882
20.5709
29.0184
48.9362
109.548
343.378
969.444
968.594
346.129
111.516
49.9482
29.5975
20.9365
16.6363
14.3313
13.1043
12.5657
12.5657
13.1043
14.3312
16.6362
20.9364
29.5973
49.9479
111.515
346.126
968.595
967.399
348.497
113.368
50.9203
30.1599
21.2947
16.8816
14.5105
13.2458
12.6899
12.6899
13.2458
14.5105
16.8815
21.2945
30.1594
50.9192
113.366
348.495
967.402
965.933
350.5
115.12
51.8586
30.7077
21.6462
17.1242
14.6894
13.3883
12.8156
12.8156
13.3883
14.6893
17.124
21.6458
30.707
51.857
115.116
350.497
965.936
964.22
352.187
116.78
52.7666
31.2429
21.9918
17.3644
14.8679
13.5317
12.9429
12.9428
13.5316
14.8678
17.3642
21.9914
31.2421
52.7651
116.776
352.183
964.225
962.283
353.56
118.345
53.643
31.7646
22.3315
17.6023
15.0461
13.6759
13.0715
13.0715
13.6758
15.0459
17.602
22.3309
31.7635
53.6403
118.339
353.556
962.288
960.166
354.614
119.808
54.4834
32.2712
22.6644
17.8375
15.2239
13.8211
13.2017
13.2017
13.8209
15.2237
17.837
22.6636
32.2696
54.4799
119.799
354.603
960.174
957.929
355.442
121.166
55.2846
32.7611
22.9898
18.0695
15.401
13.9667
13.3329
13.3329
13.9666
15.4007
18.069
22.9889
32.7593
55.2808
121.157
355.438
957.94
955.596
355.979
122.427
56.0512
33.2355
23.3078
18.2982
15.5768
14.1123
13.4647
13.4647
14.1122
15.5765
18.2976
23.3067
33.2333
56.046
122.415
355.971
955.611
953.181
356.258
123.598
56.7828
33.6936
23.6175
18.5227
15.7508
14.2574
13.5965
13.5964
14.2571
15.7503
18.5219
23.6159
33.6903
56.7751
123.579
356.248
953.2
950.696
356.22
124.64
57.4657
34.1297
23.9164
18.7417
15.922
14.4012
13.7277
13.7276
14.4009
15.9213
18.7405
23.9142
34.1255
57.4567
124.621
356.21
950.719
948.182
356.062
125.557
58.0975
34.5422
24.2031
18.9542
16.0898
14.5433
13.8579
13.8578
14.5428
16.0889
18.9527
24.2004
34.537
58.0866
125.534
356.05
948.213
945.688
355.718
126.397
58.6903
34.934
24.4789
19.1609
16.2547
14.684
13.9875
13.9874
14.6835
16.2538
19.1593
24.476
34.9282
58.6767
126.367
355.711
945.726
943.246
355.24
127.142
59.2404
35.3065
24.7455
19.3634
16.4179
14.8244
14.1174
14.1173
14.824
16.417
19.3618
24.7424
35.3001
59.2254
127.109
355.233
943.295
940.856
354.549
127.737
59.7349
35.6563
25.0022
19.5616
16.5796
14.9647
14.2477
14.2475
14.9641
16.5785
19.5595
24.9983
35.6487
59.7185
127.706
354.551
940.915
938.541
353.746
128.201
60.166
35.976
25.2439
19.752
16.7371
15.1026
14.3764
14.3761
15.1018
16.7356
19.7492
25.2389
35.9661
60.145
128.161
353.747
938.612
936.315
352.834
128.574
60.534
36.2593
25.4651
19.9302
16.887
15.2351
14.5007
14.5004
15.2342
16.8852
19.9271
25.4593
36.2479
60.5096
128.526
352.842
936.4
934.203
351.843
128.869
60.8377
36.5036
25.6633
20.094
17.0271
15.3605
14.6191
14.6188
15.3596
17.0252
20.0907
25.6574
36.4922
60.8131
128.818
351.876
934.306
932.225
350.819
129.089
61.0843
36.7115
25.8394
20.2439
17.1581
15.4796
14.7324
14.7321
15.4786
17.1562
20.2407
25.8335
36.6999
61.0591
129.041
350.872
932.341
930.372
349.825
129.274
61.2874
36.8875
25.9968
20.383
17.283
15.5952
14.8434
14.8432
15.5944
17.2813
20.38
25.991
36.8758
61.261
129.23
349.889
930.499
928.63
348.91
129.495
61.4556
37.0353
26.1393
20.5155
17.4058
15.7112
14.956
14.9559
15.7107
17.4048
20.5134
26.135
37.0261
61.4334
129.456
348.985
928.763
927.005
348.033
129.745
61.5836
37.1561
26.2698
20.6441
17.529
15.8295
15.0718
15.0718
15.8297
17.5292
20.644
26.2689
37.153
61.5725
129.716
348.148
927.134
925.503
347.122
129.965
61.6656
37.2508
26.3888
20.7688
17.6518
15.949
15.1894
15.1896
15.9498
17.6532
20.7709
26.392
37.2556
61.6694
129.96
347.296
925.621
924.102
346.162
130.148
61.7131
37.3231
26.4955
20.8874
17.7718
16.0676
15.3069
15.3072
16.069
17.7743
20.8916
26.5026
37.335
61.7299
130.176
346.375
924.206
922.742
345.209
130.313
61.7492
37.382
26.5927
21.0011
17.8907
16.1876
15.4271
15.4275
16.1894
17.8941
21.0071
26.6032
37.3997
61.7742
130.364
345.426
922.828
921.327
344.39
130.485
61.7865
37.4403
26.6917
21.1209
18.0194
16.3198
15.5604
15.5608
16.3217
18.0233
21.1281
26.7046
37.4622
61.818
130.543
344.613
921.387
919.772
343.736
130.621
61.8256
37.5157
26.8136
21.2672
18.1762
16.4805
15.7225
15.7229
16.4826
18.1803
21.2747
26.8275
37.5405
61.8665
130.712
344.102
919.786
918.032
343.398
130.735
61.8852
37.635
26.9842
21.4613
18.3785
16.6848
15.9271
15.9276
16.6872
18.3831
21.4694
26.9992
37.6629
61.9384
130.882
343.913
917.965
916.087
343.237
130.876
62.0039
37.8298
27.2242
21.7167
18.636
16.9403
16.1811
16.1819
16.9437
18.6422
21.7275
27.2434
37.8656
62.0799
131.08
343.856
915.912
913.937
342.845
131.111
62.2498
38.1229
27.5406
22.034
18.9461
17.2431
16.48
16.4814
17.2486
18.9561
22.0507
27.5691
38.1747
62.3617
131.388
343.657
913.638
911.59
342.768
131.614
62.6697
38.5136
27.9221
22.3983
19.2919
17.5746
16.8044
16.8068
17.5831
19.3074
22.4239
27.9643
38.5871
62.8213
132.039
343.521
911.165
909.051
342.88
132.633
63.2363
38.9645
28.3348
22.7772
19.6405
17.901
17.1196
17.1228
17.9124
19.6615
22.8121
28.3919
39.0603
63.4201
133.094
343.603
908.509
906.324
343.192
133.847
63.8294
39.4057
28.7271
23.1251
19.9483
18.1793
17.3827
17.3863
18.1921
19.9726
23.1665
28.796
39.5203
64.0357
134.307
343.858
905.682
903.413
343.847
134.935
64.3078
39.771
29.0474
23.3958
20.1734
18.3709
17.557
17.5603
18.3832
20.1975
23.4388
29.122
39.8982
64.5298
135.371
344.412
902.683
900.315
344.681
135.684
64.6295
40.0348
29.2618
23.5593
20.2929
18.4597
17.6308
17.6335
18.4704
20.3142
23.5989
29.3344
40.1648
64.8611
136.09
345.176
899.513
897.029
345.876
136.305
64.9201
40.2044
29.3616
23.6164
20.3205
18.4706
17.6351
17.6375
18.4802
20.3391
23.6515
29.4279
40.3262
65.1475
136.682
346.325
896.173
893.551
348.312
137.39
65.349
40.2831
29.3748
23.611
20.2975
18.4302
17.5838
17.5855
18.4379
20.3135
23.6432
29.4368
40.3908