/*--------------------------------*- C++ -*----------------------------------*\
| =========                 |                                                 |
| \\      /  F ield         | OpenFOAM: The Open Source CFD Toolbox           |
|  \\    /   O peration     | Version:  2.1.0                                 |
|   \\  /    A nd           | Web:      www.OpenFOAM.org                      |
|    \\/     M anipulation  |                                                 |
\*---------------------------------------------------------------------------*/
FoamFile
{
    version     2.0;
    format      ascii;
    class       volScalarField;
    location    "0.14";
    object      p;
}
// * * * * * * * * * * * * * * * * * * * * * * * * * * * * * * * * * * * * * //

dimensions      [1 -1 -2 0 0 0 0];

internalField   nonuniform List<scalar> 
6400
(
99998.3
99996.4
99994.5
99992.6
99990.9
99989.2
99987.6
99986
99984.4
99982.8
99981.1
99979.5
99977.9
99976.2
99974.5
99972.7
99970.9
99969.1
99967.2
99965.2
99963.2
99961.2
99959
99956.8
99954.6
99952.2
99949.8
99947.3
99944.7
99942
99939.2
99936.3
99933.3
99930.3
99927.1
99923.8
99920.4
99916.9
99913.3
99909.6
99905.7
99901.8
99897.7
99893.4
99889
99884.5
99879.8
99875
99870
99864.8
99859.5
99853.9
99848.2
99842.3
99836.2
99829.9
99823.3
99816.6
99809.6
99802.3
99794.8
99787.1
99779
99770.7
99762
99753.1
99743.8
99734.1
99724.1
99713.7
99702.9
99691.8
99680.2
99668.1
99655.7
99642.8
99629.5
99615.7
99601.4
99586.6
99571.3
99555.5
99538.9
99521.6
99503.3
99483.9
99463
99440.3
99415.4
99387.9
99357.8
99325.8
99293.8
99263.6
99235.2
99202.9
99151.6
99045.2
98696.9
97174.3
99996.7
99994.6
99992.7
99991
99989.4
99987.9
99986.4
99984.9
99983.4
99981.9
99980.4
99978.8
99977.2
99975.5
99973.9
99972.2
99970.4
99968.6
99966.7
99964.8
99962.8
99960.7
99958.6
99956.4
99954.1
99951.8
99949.4
99946.8
99944.2
99941.5
99938.7
99935.9
99932.9
99929.8
99926.6
99923.3
99919.9
99916.4
99912.8
99909.1
99905.2
99901.3
99897.2
99892.9
99888.6
99884
99879.3
99874.5
99869.5
99864.3
99859
99853.5
99847.8
99841.9
99835.8
99829.5
99823
99816.2
99809.2
99802
99794.6
99786.8
99778.8
99770.5
99761.9
99752.9
99743.7
99734.1
99724.1
99713.8
99703
99691.9
99680.4
99668.4
99656
99643.2
99629.9
99616.1
99601.9
99587.2
99571.9
99556
99539.5
99522.2
99503.9
99484.5
99463.7
99441.1
99416.4
99389.2
99359.4
99327.6
99295.6
99265.4
99239.1
99211.1
99165.2
99073.4
98792.6
98275
99995.4
99993.8
99992.1
99990.5
99989
99987.5
99986
99984.6
99983.1
99981.6
99980
99978.5
99976.9
99975.2
99973.6
99971.9
99970.1
99968.3
99966.5
99964.6
99962.6
99960.5
99958.4
99956.2
99954
99951.6
99949.2
99946.7
99944.1
99941.4
99938.6
99935.7
99932.8
99929.7
99926.5
99923.2
99919.9
99916.4
99912.8
99909
99905.2
99901.2
99897.2
99892.9
99888.6
99884.1
99879.4
99874.6
99869.7
99864.5
99859.2
99853.7
99848.1
99842.2
99836.2
99829.9
99823.4
99816.7
99809.8
99802.6
99795.2
99787.5
99779.6
99771.3
99762.8
99753.9
99744.7
99735.2
99725.3
99715.1
99704.5
99693.4
99682
99670.2
99657.9
99645.2
99632.1
99618.5
99604.4
99589.7
99574.6
99558.8
99542.4
99525.1
99506.9
99487.5
99466.7
99444.2
99419.6
99392.9
99364
99333.8
99304.1
99276.7
99253.8
99229.6
99198.8
99144.1
99002
99101.6
99993.7
99992.9
99991.5
99990.1
99988.7
99987.3
99985.9
99984.4
99983
99981.5
99980
99978.4
99976.9
99975.2
99973.6
99971.9
99970.2
99968.4
99966.6
99964.7
99962.7
99960.7
99958.6
99956.4
99954.2
99951.8
99949.4
99946.9
99944.3
99941.7
99938.9
99936.1
99933.1
99930.1
99926.9
99923.7
99920.3
99916.8
99913.3
99909.6
99905.8
99901.8
99897.8
99893.6
99889.3
99884.8
99880.2
99875.4
99870.5
99865.5
99860.2
99854.8
99849.1
99843.3
99837.3
99831.1
99824.7
99818
99811.2
99804.1
99796.7
99789.1
99781.2
99773
99764.5
99755.7
99746.6
99737.1
99727.3
99717.1
99706.6
99695.6
99684.2
99672.4
99660.1
99647.4
99634.2
99620.5
99606.3
99591.6
99576.3
99560.3
99543.6
99526.1
99507.6
99487.9
99467
99444.4
99420.1
99394
99366.5
99338.8
99313.1
99290.8
99274
99264.6
99263.1
99272.4
99306
99721.7
99991.7
99991.8
99990.9
99989.8
99988.5
99987.2
99985.9
99984.5
99983.1
99981.6
99980.1
99978.6
99977.1
99975.5
99973.9
99972.2
99970.5
99968.7
99966.9
99965
99963.1
99961.1
99959
99956.9
99954.7
99952.4
99950
99947.5
99945
99942.3
99939.6
99936.8
99933.8
99930.8
99927.7
99924.5
99921.1
99917.7
99914.2
99910.5
99906.7
99902.8
99898.8
99894.6
99890.3
99885.9
99881.3
99876.5
99871.6
99866.6
99861.3
99855.9
99850.3
99844.5
99838.6
99832.4
99826
99819.3
99812.5
99805.4
99798
99790.4
99782.5
99774.3
99765.8
99757
99747.8
99738.3
99728.5
99718.3
99707.7
99696.6
99685.2
99673.3
99661
99648.2
99634.9
99621.2
99606.8
99591.9
99576.4
99560.2
99543.2
99525.4
99506.7
99486.8
99465.6
99443.1
99419.1
99393.9
99368.2
99343.8
99323.2
99308.2
99302.8
99314.9
99354.1
99447.1
99645
100208
99989.4
99990.6
99990.3
99989.5
99988.5
99987.3
99986.1
99984.7
99983.4
99981.9
99980.5
99979
99977.5
99975.9
99974.3
99972.7
99971
99969.2
99967.4
99965.6
99963.7
99961.7
99959.6
99957.5
99955.3
99953
99950.7
99948.2
99945.7
99943.1
99940.4
99937.5
99934.6
99931.6
99928.5
99925.3
99922
99918.5
99915
99911.3
99907.5
99903.6
99899.6
99895.4
99891.1
99886.6
99882
99877.3
99872.3
99867.3
99862
99856.6
99850.9
99845.1
99839.1
99832.9
99826.5
99819.9
99813
99805.9
99798.5
99790.9
99783
99774.8
99766.3
99757.4
99748.3
99738.8
99729
99718.8
99708.2
99697.1
99685.7
99673.7
99661.4
99648.5
99635.1
99621.2
99606.7
99591.6
99575.9
99559.4
99542.2
99524
99504.9
99484.7
99463.3
99440.8
99417.2
99393
99369.3
99348.2
99333.2
99326.6
99335.5
99373.4
99459.9
99641.1
99968.8
100587
99987.1
99989.5
99989.8
99989.4
99988.6
99987.6
99986.4
99985.1
99983.8
99982.4
99980.9
99979.5
99977.9
99976.4
99974.8
99973.1
99971.5
99969.7
99967.9
99966.1
99964.2
99962.2
99960.1
99958
99955.8
99953.5
99951.1
99948.7
99946.2
99943.5
99940.8
99938
99935.1
99932
99928.9
99925.7
99922.3
99918.9
99915.3
99911.6
99907.8
99903.9
99899.8
99895.7
99891.3
99886.9
99882.2
99877.5
99872.5
99867.4
99862.2
99856.8
99851.1
99845.3
99839.3
99833.1
99826.6
99820
99813.1
99806
99798.6
99791
99783.1
99774.9
99766.4
99757.6
99748.4
99739
99729.1
99719
99708.4
99697.3
99685.8
99673.9
99661.4
99648.5
99635
99621
99606.3
99591
99575
99558.3
99540.7
99522.2
99502.7
99482.1
99460.5
99437.9
99414.7
99391.4
99369.6
99351.7
99341.9
99343.8
99367.2
99431.5
99565.1
99826.1
100245
100871
99985.2
99988.5
99989.4
99989.3
99988.7
99987.8
99986.7
99985.4
99984.1
99982.7
99981.3
99979.8
99978.3
99976.7
99975.1
99973.4
99971.7
99970
99968.2
99966.3
99964.4
99962.4
99960.4
99958.2
99956
99953.7
99951.3
99948.9
99946.3
99943.7
99940.9
99938.1
99935.1
99932.1
99929
99925.7
99922.3
99918.9
99915.3
99911.6
99907.7
99903.8
99899.7
99895.5
99891.2
99886.7
99882.1
99877.3
99872.3
99867.2
99862
99856.5
99850.9
99845.1
99839.1
99832.9
99826.5
99819.8
99813
99805.9
99798.5
99790.9
99783
99774.8
99766.4
99757.6
99748.5
99739
99729.2
99719
99708.5
99697.5
99685.9
99674
99661.5
99648.5
99635
99620.8
99606
99590.5
99574.3
99557.3
99539.3
99520.4
99500.5
99479.6
99457.6
99434.9
99411.9
99389.4
99369.1
99353.8
99348.1
99357.4
99393.7
99481
99655.2
99979.4
100456
101071
99983.9
99987.8
99989.1
99989.2
99988.8
99987.9
99986.8
99985.6
99984.2
99982.8
99981.4
99979.9
99978.3
99976.7
99975.1
99973.4
99971.7
99970
99968.1
99966.3
99964.3
99962.3
99960.3
99958.1
99955.9
99953.5
99951.1
99948.6
99946.1
99943.4
99940.6
99937.7
99934.8
99931.7
99928.5
99925.3
99921.9
99918.4
99914.8
99911.1
99907.2
99903.3
99899.2
99895
99890.6
99886.2
99881.5
99876.8
99871.8
99866.8
99861.5
99856.1
99850.5
99844.8
99838.8
99832.6
99826.2
99819.6
99812.8
99805.7
99798.4
99790.8
99783
99774.9
99766.4
99757.7
99748.6
99739.2
99729.4
99719.3
99708.7
99697.7
99686.3
99674.4
99661.9
99648.9
99635.3
99621
99606
99590.4
99573.9
99556.5
99538.2
99518.9
99498.5
99477.1
99454.9
99432
99409
99387
99367.7
99354.1
99351.1
99365.9
99412.2
99515.5
99718.5
100086
100595
101196
99983.4
99987.5
99988.9
99989.2
99988.7
99987.9
99986.8
99985.6
99984.2
99982.8
99981.3
99979.8
99978.2
99976.6
99974.9
99973.2
99971.4
99969.6
99967.7
99965.7
99963.7
99961.6
99959.5
99957.3
99955
99952.6
99950.2
99947.7
99945.1
99942.4
99939.6
99936.8
99933.8
99930.8
99927.7
99924.4
99921.1
99917.7
99914.1
99910.5
99906.7
99902.8
99898.7
99894.6
99890.3
99885.8
99881.2
99876.5
99871.6
99866.5
99861.3
99855.9
99850.4
99844.6
99838.7
99832.5
99826.2
99819.6
99812.8
99805.8
99798.5
99790.9
99783.1
99775
99766.7
99758
99749
99739.6
99729.9
99719.8
99709.2
99698.3
99686.9
99674.9
99662.4
99649.4
99635.7
99621.3
99606.2
99590.3
99573.6
99555.9
99537.2
99517.5
99496.7
99474.8
99452.1
99428.9
99405.7
99383.8
99365
99352.2
99350.6
99368
99419.3
99530.9
99747.8
100136
100659
101254
99983.6
99987.6
99989
99989.2
99988.8
99987.9
99986.8
99985.6
99984.2
99982.8
99981.3
99979.8
99978.2
99976.6
99974.9
99973.2
99971.4
99969.6
99967.7
99965.7
99963.7
99961.6
99959.5
99957.3
99955
99952.6
99950.2
99947.7
99945.1
99942.4
99939.7
99936.8
99933.9
99930.8
99927.7
99924.4
99921.1
99917.7
99914.1
99910.4
99906.7
99902.8
99898.7
99894.6
99890.2
99885.8
99881.2
99876.5
99871.6
99866.5
99861.3
99856
99850.4
99844.7
99838.8
99832.6
99826.3
99819.7
99813
99805.9
99798.7
99791.2
99783.4
99775.3
99767
99758.4
99749.4
99740.1
99730.4
99720.3
99709.8
99698.9
99687.5
99675.6
99663.1
99649.9
99636.2
99621.7
99606.4
99590.3
99573.3
99555.4
99536.3
99516.2
99494.9
99472.6
99449.4
99425.6
99402.1
99379.9
99360.9
99348
99346.1
99363.4
99414.4
99525.2
99740.5
100126
100647
101241
99984.4
99988.1
99989.3
99989.4
99988.9
99988
99986.9
99985.6
99984.2
99982.8
99981.3
99979.8
99978.3
99976.6
99975
99973.3
99971.5
99969.7
99967.8
99965.9
99963.9
99961.9
99959.7
99957.5
99955.3
99952.9
99950.5
99948
99945.5
99942.8
99940
99937.2
99934.2
99931.2
99928
99924.8
99921.5
99918
99914.4
99910.8
99907
99903
99899
99894.8
99890.5
99886.1
99881.5
99876.7
99871.8
99866.8
99861.6
99856.2
99850.6
99844.9
99839
99832.9
99826.5
99820
99813.2
99806.2
99799
99791.5
99783.8
99775.8
99767.5
99758.9
99749.9
99740.7
99731
99721
99710.5
99699.6
99688.2
99676.3
99663.8
99650.6
99636.8
99622.2
99606.8
99590.5
99573.3
99555
99535.6
99515
99493.2
99470.4
99446.6
99422.2
99398.1
99375.4
99355.6
99341.6
99338
99352.4
99398
99498.9
99697
100057
100562
101163
99986
99989
99989.7
99989.6
99988.9
99987.9
99986.7
99985.5
99984.1
99982.7
99981.2
99979.7
99978.1
99976.5
99974.9
99973.2
99971.4
99969.6
99967.8
99965.9
99963.9
99961.8
99959.7
99957.6
99955.3
99953
99950.6
99948.1
99945.5
99942.9
99940.1
99937.3
99934.4
99931.3
99928.2
99925
99921.7
99918.2
99914.7
99911
99907.3
99903.4
99899.3
99895.2
99890.9
99886.4
99881.8
99877.1
99872.2
99867.2
99862
99856.6
99851
99845.3
99839.4
99833.3
99827
99820.4
99813.7
99806.7
99799.5
99792
99784.3
99776.3
99768
99759.5
99750.6
99741.3
99731.7
99721.7
99711.3
99700.4
99689
99677.1
99664.6
99651.4
99637.5
99622.8
99607.3
99590.8
99573.4
99554.8
99535.1
99514.1
99491.8
99468.4
99444
99418.9
99394
99370.4
99349.4
99333.3
99326.7
99335.8
99371.6
99454.6
99621.3
99935.3
100404
101019
99988.1
99990.1
99990.3
99989.8
99988.9
99987.8
99986.5
99985.2
99983.8
99982.4
99980.9
99979.4
99977.8
99976.2
99974.6
99972.9
99971.1
99969.3
99967.5
99965.6
99963.6
99961.6
99959.5
99957.3
99955
99952.7
99950.3
99947.8
99945.3
99942.6
99939.9
99937.1
99934.2
99931.2
99928
99924.8
99921.5
99918.1
99914.6
99910.9
99907.2
99903.3
99899.3
99895.1
99890.9
99886.4
99881.9
99877.2
99872.3
99867.3
99862.1
99856.7
99851.2
99845.5
99839.6
99833.5
99827.2
99820.7
99814
99807.1
99799.9
99792.5
99784.8
99776.9
99768.7
99760.1
99751.3
99742.1
99732.5
99722.6
99712.2
99701.4
99690
99678.1
99665.5
99652.3
99638.4
99623.6
99608
99591.4
99573.8
99554.9
99534.9
99513.5
99490.9
99466.9
99441.8
99415.8
99389.8
99365
99342.6
99324.3
99313.3
99315.4
99338.2
99397.2
99521.5
99769.6
100177
100801
99990.4
99991.3
99990.9
99990
99988.9
99987.6
99986.3
99984.9
99983.5
99982
99980.5
99979
99977.4
99975.8
99974.1
99972.4
99970.6
99968.8
99967
99965.1
99963.1
99961.1
99958.9
99956.8
99954.5
99952.2
99949.8
99947.3
99944.8
99942.1
99939.4
99936.6
99933.7
99930.7
99927.6
99924.4
99921.1
99917.7
99914.1
99910.5
99906.8
99902.9
99898.9
99894.8
99890.5
99886.1
99881.6
99876.9
99872
99867
99861.8
99856.5
99851
99845.3
99839.5
99833.4
99827.2
99820.7
99814.1
99807.2
99800
99792.7
99785
99777.2
99769
99760.5
99751.7
99742.6
99733.1
99723.2
99712.9
99702.1
99690.7
99678.8
99666.3
99653.2
99639.2
99624.4
99608.7
99592
99574.2
99555.2
99534.9
99513.3
99490.2
99465.7
99439.9
99413.1
99385.9
99359.5
99335.3
99314.5
99298.7
99293.4
99301.6
99334
99410.2
99576.6
99888.4
100501
99992.8
99992.6
99991.6
99990.3
99989
99987.6
99986.2
99984.7
99983.3
99981.8
99980.2
99978.7
99977.1
99975.4
99973.7
99972
99970.2
99968.4
99966.5
99964.6
99962.6
99960.5
99958.4
99956.2
99953.9
99951.6
99949.2
99946.7
99944.1
99941.4
99938.7
99935.9
99932.9
99929.9
99926.8
99923.6
99920.3
99916.9
99913.3
99909.7
99905.9
99902
99898
99893.9
99889.7
99885.3
99880.7
99876.1
99871.2
99866.3
99861.1
99855.8
99850.4
99844.7
99838.9
99832.9
99826.6
99820.2
99813.6
99806.8
99799.7
99792.4
99784.8
99777
99768.8
99760.4
99751.7
99742.6
99733.2
99723.3
99713
99702.3
99691
99679.2
99666.7
99653.5
99639.6
99624.8
99609.1
99592.3
99574.5
99555.3
99534.8
99512.9
99489.5
99464.5
99438.1
99410.5
99382.1
99354.2
99328
99304.7
99286.6
99273.1
99266.8
99273.3
99301.9
99379.2
99557.4
100108
99994.8
99993.8
99992.3
99990.7
99989.2
99987.7
99986.2
99984.8
99983.2
99981.7
99980.1
99978.6
99976.9
99975.3
99973.6
99971.8
99970
99968.2
99966.3
99964.3
99962.3
99960.2
99958
99955.8
99953.5
99951.2
99948.7
99946.2
99943.6
99940.9
99938.1
99935.3
99932.3
99929.3
99926.1
99922.9
99919.5
99916.1
99912.5
99908.9
99905.1
99901.2
99897.1
99893
99888.7
99884.3
99879.7
99875
99870.2
99865.2
99860
99854.7
99849.2
99843.6
99837.8
99831.7
99825.5
99819.1
99812.5
99805.6
99798.6
99791.3
99783.7
99775.9
99767.8
99759.4
99750.8
99741.7
99732.3
99722.6
99712.4
99701.7
99690.5
99678.7
99666.3
99653.2
99639.3
99624.5
99608.8
99592
99574.1
99554.8
99534.2
99512.1
99488.4
99463.1
99436.1
99407.8
99378.6
99349.2
99321
99295.4
99274
99255.7
99238
99223.1
99211.3
99205
99215.9
99608.5
99996.5
99994.7
99992.9
99991.2
99989.6
99988
99986.5
99984.9
99983.4
99981.8
99980.3
99978.7
99977
99975.3
99973.6
99971.8
99970
99968.2
99966.3
99964.3
99962.2
99960.1
99958
99955.7
99953.4
99951
99948.6
99946
99943.4
99940.7
99937.9
99935
99932.1
99929
99925.8
99922.6
99919.2
99915.7
99912.1
99908.4
99904.6
99900.7
99896.6
99892.5
99888.2
99883.7
99879.1
99874.4
99869.5
99864.5
99859.3
99853.9
99848.4
99842.7
99836.8
99830.7
99824.5
99818
99811.3
99804.5
99797.4
99790
99782.4
99774.6
99766.5
99758.1
99749.3
99740.3
99730.9
99721.1
99710.8
99700.1
99688.9
99677.1
99664.7
99651.6
99637.7
99622.9
99607.1
99590.3
99572.3
99553.1
99532.4
99510.2
99486.4
99460.8
99433.5
99404.7
99374.6
99344.1
99314.6
99287.4
99263.6
99243.3
99218.4
99189.1
99148.9
99079.1
98912.6
98973.2
99997.8
99995.5
99993.5
99991.7
99990.1
99988.5
99986.9
99985.4
99983.8
99982.3
99980.7
99979
99977.4
99975.7
99973.9
99972.2
99970.3
99968.5
99966.5
99964.6
99962.5
99960.4
99958.2
99956
99953.7
99951.3
99948.8
99946.2
99943.6
99940.9
99938.1
99935.2
99932.2
99929.2
99926
99922.7
99919.4
99915.9
99912.3
99908.6
99904.8
99900.8
99896.8
99892.6
99888.2
99883.8
99879.2
99874.4
99869.5
99864.5
99859.2
99853.9
99848.3
99842.5
99836.6
99830.5
99824.2
99817.8
99811.1
99804.1
99797
99789.6
99782
99774.1
99766
99757.5
99748.7
99739.6
99730.2
99720.3
99710
99699.2
99688
99676.1
99663.6
99650.3
99636.3
99621.4
99605.5
99588.6
99570.4
99550.9
99530
99507.5
99483.4
99457.4
99429.7
99400.3
99369.4
99337.7
99306.7
99277.7
99251.1
99227.7
99205.9
99172.2
99116.7
99009.7
98703.6
98119.9
99999.2
99997.2
99995.3
99993.4
99991.6
99989.8
99988.1
99986.5
99984.8
99983.2
99981.5
99979.8
99978.1
99976.4
99974.6
99972.8
99971
99969
99967.1
99965.1
99963
99960.9
99958.7
99956.4
99954.1
99951.7
99949.2
99946.7
99944.1
99941.4
99938.6
99935.7
99932.7
99929.6
99926.5
99923.2
99919.8
99916.4
99912.8
99909.1
99905.3
99901.3
99897.3
99893.1
99888.8
99884.3
99879.7
99875
99870.1
99865
99859.8
99854.4
99848.9
99843.1
99837.2
99831.1
99824.8
99818.3
99811.6
99804.7
99797.6
99790.2
99782.5
99774.7
99766.5
99758.1
99749.3
99740.2
99730.7
99720.9
99710.6
99699.8
99688.5
99676.6
99664.1
99650.9
99636.8
99621.9
99606
99589
99570.8
99551.3
99530.3
99507.8
99483.6
99457.6
99429.7
99400.1
99369.1
99337.4
99306.6
99277.7
99251.9
99226.5
99194.3
99152.6
99094.4
98977.7
98606.6
96977
100629
101852
102372
102666
102866
103015
103132
103226
103303
103367
103421
103465
103502
103533
103557
103576
103590
103599
103601
103598
100580
101568
102174
102554
102807
102987
103124
103230
103316
103385
103442
103489
103527
103558
103582
103600
103612
103619
103619
103613
100852
101594
102115
102494
102765
102964
103114
103231
103323
103397
103457
103506
103545
103576
103599
103616
103627
103632
103632
103622
101110
101713
102156
102499
102763
102964
103120
103242
103339
103416
103478
103527
103566
103596
103618
103634
103643
103646
103644
103630
101329
101840
102227
102538
102786
102982
103137
103261
103359
103438
103500
103550
103588
103617
103637
103650
103657
103658
103655
103635
101511
101957
102304
102590
102822
103011
103162
103285
103383
103462
103524
103573
103610
103637
103656
103666
103670
103669
103663
103638
101657
102056
102375
102641
102862
103043
103190
103311
103408
103486
103548
103596
103632
103657
103673
103681
103682
103679
103670
103641
101766
102132
102433
102685
102897
103072
103217
103335
103432
103510
103571
103618
103652
103675
103688
103694
103693
103687
103675
103643
101838
102184
102473
102718
102924
103096
103239
103357
103453
103530
103590
103636
103669
103690
103701
103704
103701
103694
103679
103645
101872
102210
102494
102736
102939
103110
103251
103368
103464
103540
103601
103647
103679
103700
103709
103711
103707
103698
103680
103647
101861
102200
102484
102726
102930
103102
103244
103361
103457
103535
103596
103642
103675
103696
103707
103708
103704
103695
103680
103647
101809
102158
102448
102694
102902
103076
103220
103340
103437
103516
103578
103625
103660
103683
103695
103699
103697
103689
103675
103644
101723
102093
102396
102652
102866
103044
103191
103312
103411
103491
103555
103604
103641
103666
103680
103687
103687
103682
103670
103635
101601
102005
102328
102598
102822
103007
103159
103282
103383
103464
103529
103580
103618
103646
103663
103673
103676
103673
103665
103632
101443
101895
102247
102538
102776
102969
103126
103252
103354
103437
103502
103554
103594
103624
103645
103657
103662
103662
103657
103630
101250
101768
102162
102480
102734
102936
103096
103225
103327
103410
103476
103529
103570
103602
103625
103640
103648
103650
103646
103626
101021
101633
102083
102435
102706
102914
103076
103203
103305
103386
103452
103505
103547
103580
103604
103622
103632
103636
103635
103620
100751
101504
102037
102425
102706
102912
103068
103190
103288
103366
103430
103482
103524
103558
103584
103603
103616
103622
103621
103612
100466
101473
102095
102486
102748
102935
103078
103189
103279
103353
103414
103464
103505
103539
103565
103586
103600
103607
103608
103601
100506
101760
102294
102599
102806
102962
103085
103184
103266
103334
103391
103439
103479
103512
103539
103560
103575
103585
103588
103585
103430
103428
103427
103426
103426
103425
103425
103424
103424
103424
103424
103424
103424
103425
103425
103426
103426
103427
103428
103430
103427
103425
103424
103424
103424
103423
103423
103423
103423
103423
103423
103423
103423
103423
103423
103424
103424
103424
103425
103427
103426
103424
103424
103424
103424
103424
103424
103424
103424
103424
103424
103424
103424
103424
103424
103424
103424
103424
103424
103426
103426
103425
103424
103424
103424
103424
103424
103424
103424
103424
103424
103424
103424
103424
103424
103424
103424
103424
103425
103426
103426
103424
103424
103424
103424
103424
103424
103424
103424
103424
103424
103424
103424
103424
103424
103424
103424
103424
103424
103426
103425
103424
103423
103423
103423
103423
103423
103423
103423
103423
103423
103423
103423
103423
103423
103423
103423
103423
103424
103425
103425
103423
103423
103423
103423
103422
103422
103422
103422
103422
103422
103422
103422
103422
103422
103423
103423
103423
103423
103425
103424
103422
103422
103422
103422
103422
103422
103422
103422
103422
103422
103422
103422
103422
103422
103422
103422
103422
103422
103424
103423
103422
103421
103421
103421
103421
103421
103421
103421
103421
103421
103421
103421
103421
103421
103421
103421
103421
103422
103423
103423
103421
103421
103421
103421
103421
103420
103420
103420
103420
103420
103420
103420
103420
103421
103421
103421
103421
103421
103423
103422
103420
103420
103420
103420
103420
103420
103420
103420
103420
103420
103420
103420
103420
103420
103420
103420
103420
103420
103422
103421
103420
103419
103419
103419
103419
103419
103419
103419
103419
103419
103419
103419
103419
103419
103419
103419
103419
103420
103421
103420
103419
103419
103419
103419
103418
103418
103418
103418
103418
103418
103418
103418
103418
103418
103419
103419
103419
103419
103420
103420
103418
103418
103418
103418
103418
103418
103418
103418
103418
103418
103418
103418
103418
103418
103418
103418
103418
103418
103420
103419
103417
103417
103417
103417
103417
103417
103417
103417
103417
103417
103417
103417
103417
103417
103417
103417
103417
103417
103419
103418
103417
103416
103416
103416
103416
103416
103416
103416
103416
103416
103416
103416
103416
103416
103416
103416
103416
103417
103418
103417
103416
103416
103416
103416
103415
103415
103415
103415
103415
103415
103415
103415
103415
103415
103416
103416
103416
103416
103417
103416
103415
103415
103415
103415
103415
103415
103415
103415
103415
103415
103415
103415
103415
103415
103415
103415
103415
103415
103416
103416
103414
103414
103414
103414
103414
103414
103414
103414
103414
103414
103414
103414
103414
103414
103414
103414
103414
103414
103416
103415
103413
103413
103413
103413
103413
103413
103413
103413
103413
103413
103413
103413
103413
103413
103413
103413
103413
103413
103415
103414
103413
103413
103412
103412
103412
103412
103412
103412
103412
103412
103412
103412
103412
103412
103412
103412
103413
103413
103414
103413
103412
103412
103412
103412
103412
103411
103411
103411
103411
103411
103411
103411
103411
103412
103412
103412
103412
103412
103413
103412
103411
103411
103411
103411
103411
103411
103411
103411
103411
103411
103411
103411
103411
103411
103411
103411
103411
103411
103412
103411
103410
103410
103410
103410
103410
103410
103410
103410
103410
103410
103410
103410
103410
103410
103410
103410
103410
103410
103411
103411
103409
103409
103409
103409
103409
103409
103409
103409
103409
103409
103409
103409
103409
103409
103409
103409
103409
103409
103411
103410
103409
103408
103408
103408
103408
103408
103408
103408
103408
103408
103408
103408
103408
103408
103408
103408
103408
103409
103410
103409
103408
103408
103408
103408
103408
103407
103407
103407
103407
103407
103407
103407
103407
103408
103408
103408
103408
103408
103409
103408
103407
103407
103407
103407
103407
103407
103407
103407
103407
103407
103407
103407
103407
103407
103407
103407
103407
103407
103408
103407
103406
103406
103406
103406
103406
103406
103406
103406
103406
103406
103406
103406
103406
103406
103406
103406
103406
103406
103407
103406
103405
103405
103405
103405
103405
103405
103405
103405
103405
103405
103405
103405
103405
103405
103405
103405
103405
103405
103406
103406
103405
103404
103404
103404
103404
103404
103404
103404
103404
103404
103404
103404
103404
103404
103404
103404
103404
103405
103406
103405
103404
103404
103404
103404
103404
103403
103403
103403
103403
103403
103403
103403
103403
103404
103404
103404
103404
103404
103405
103404
103403
103403
103403
103403
103403
103403
103403
103403
103403
103403
103403
103403
103403
103403
103403
103403
103403
103403
103404
103403
103402
103402
103402
103402
103402
103402
103402
103402
103402
103402
103402
103402
103402
103402
103402
103402
103402
103402
103403
103402
103401
103401
103401
103401
103401
103401
103401
103401
103401
103401
103401
103401
103401
103401
103401
103401
103401
103401
103402
103401
103401
103400
103400
103400
103400
103400
103400
103400
103400
103400
103400
103400
103400
103400
103400
103400
103400
103401
103401
103400
103400
103400
103400
103400
103400
103400
103400
103400
103399
103399
103400
103400
103400
103400
103400
103400
103400
103400
103400
103400
103399
103399
103399
103399
103399
103399
103399
103399
103399
103399
103399
103399
103399
103399
103399
103399
103399
103399
103400
103399
103398
103398
103398
103398
103398
103398
103398
103398
103398
103398
103398
103398
103398
103398
103398
103398
103398
103398
103399
103398
103397
103397
103397
103397
103397
103397
103397
103397
103397
103397
103397
103397
103397
103397
103397
103397
103397
103397
103398
103397
103397
103397
103397
103397
103397
103396
103396
103396
103396
103396
103396
103396
103396
103397
103397
103397
103397
103397
103397
103396
103396
103396
103396
103396
103396
103396
103396
103396
103396
103396
103396
103396
103396
103396
103396
103396
103396
103396
103396
103396
103395
103395
103395
103395
103395
103395
103395
103395
103395
103395
103395
103395
103395
103395
103395
103395
103395
103395
103396
103395
103394
103394
103394
103394
103394
103394
103394
103394
103394
103394
103394
103394
103394
103394
103394
103394
103394
103394
103395
103394
103394
103394
103394
103394
103394
103394
103394
103394
103394
103394
103394
103394
103394
103394
103394
103394
103394
103394
103394
103393
103393
103393
103393
103393
103393
103393
103393
103393
103393
103393
103393
103393
103393
103393
103393
103393
103393
103393
103393
103393
103392
103392
103392
103392
103392
103392
103392
103392
103392
103392
103392
103392
103392
103392
103392
103392
103392
103392
103393
103392
103392
103391
103391
103391
103391
103391
103391
103391
103392
103392
103391
103391
103391
103391
103391
103391
103391
103392
103392
103391
103391
103391
103391
103391
103391
103391
103391
103391
103391
103391
103391
103391
103391
103391
103391
103391
103391
103391
103391
103391
103390
103390
103390
103390
103390
103390
103390
103390
103390
103390
103390
103390
103390
103390
103390
103390
103390
103390
103391
103390
103389
103389
103389
103389
103390
103390
103390
103390
103390
103390
103390
103390
103390
103390
103389
103389
103389
103389
103390
103389
103389
103389
103389
103389
103389
103389
103389
103389
103389
103389
103389
103389
103389
103389
103389
103389
103389
103389
103389
103389
103388
103388
103388
103388
103388
103388
103388
103388
103388
103388
103388
103388
103388
103388
103388
103388
103388
103388
103389
103388
103388
103388
103388
103388
103388
103388
103388
103388
103388
103388
103388
103388
103388
103388
103388
103388
103387
103388
103388
103388
103387
103387
103387
103387
103387
103387
103387
103387
103387
103387
103387
103387
103387
103387
103387
103387
103387
103387
103388
103387
103386
103386
103386
103386
103386
103386
103386
103386
103386
103386
103386
103386
103386
103386
103386
103386
103386
103386
103387
103387
103386
103386
103386
103386
103386
103386
103386
103386
103386
103386
103386
103386
103386
103386
103386
103386
103386
103386
103387
103386
103385
103385
103385
103385
103385
103385
103385
103385
103385
103385
103385
103385
103385
103385
103385
103385
103385
103385
103386
103386
103385
103384
103384
103385
103385
103385
103385
103385
103385
103385
103385
103385
103385
103385
103385
103384
103384
103385
103385
103385
103384
103384
103384
103384
103384
103384
103384
103384
103384
103384
103384
103384
103384
103384
103384
103384
103384
103384
103385
103385
103383
103383
103383
103383
103383
103383
103383
103383
103384
103384
103383
103383
103383
103383
103383
103383
103383
103383
103384
103384
103383
103383
103383
103383
103383
103383
103383
103383
103383
103383
103383
103383
103383
103383
103383
103383
103383
103383
103384
103384
103382
103382
103382
103382
103382
103382
103382
103382
103382
103382
103382
103382
103382
103382
103382
103382
103382
103382
103383
103383
103382
103381
103381
103381
103381
103382
103382
103382
103382
103382
103382
103382
103382
103381
103381
103381
103381
103382
103383
103383
103381
103381
103381
103381
103381
103381
103381
103381
103381
103381
103381
103381
103381
103381
103381
103381
103381
103381
103382
103382
103381
103380
103380
103380
103380
103380
103381
103381
103381
103381
103381
103381
103380
103380
103380
103380
103380
103380
103382
103381
103380
103379
103379
103379
103379
103380
103380
103380
103380
103380
103380
103380
103380
103379
103379
103379
103379
103380
103381
103380
103379
103378
103378
103378
103378
103378
103378
103379
103379
103379
103379
103379
103378
103378
103378
103378
103378
103379
103380
103379
103377
103377
103377
103377
103377
103377
103377
103377
103377
103377
103377
103377
103377
103377
103377
103377
103377
103377
103379
103378
103376
103376
103376
103376
103376
103377
103377
103378
103378
103378
103378
103377
103377
103377
103376
103376
103376
103376
103378
103376
103375
103375
103375
103375
103376
103376
103377
103378
103378
103378
103378
103377
103376
103376
103376
103375
103375
103375
103376
103375
103374
103374
103374
103374
103374
103374
103373
103373
103372
103372
103372
103373
103374
103374
103374
103374
103374
103374
103375
103374
103373
103373
103373
103373
103373
103373
103373
103373
103373
103373
103373
103373
103373
103373
103373
103373
103373
103373
103374
103373
103372
103372
103372
103372
103373
103373
103374
103375
103375
103375
103375
103374
103373
103373
103373
103373
103373
103373
103373
103372
103371
103371
103371
103371
103371
103371
103371
103370
103370
103370
103371
103371
103372
103372
103372
103372
103372
103372
103373
103371
103370
103370
103370
103370
103370
103370
103370
103370
103369
103370
103370
103371
103371
103371
103371
103371
103371
103371
103372
103370
103369
103369
103370
103370
103370
103370
103371
103372
103372
103372
103372
103371
103371
103371
103371