/*--------------------------------*- C++ -*----------------------------------*\
| =========                 |                                                 |
| \\      /  F ield         | OpenFOAM: The Open Source CFD Toolbox           |
|  \\    /   O peration     | Version:  2.1.0                                 |
|   \\  /    A nd           | Web:      www.OpenFOAM.org                      |
|    \\/     M anipulation  |                                                 |
\*---------------------------------------------------------------------------*/
FoamFile
{
    version     2.0;
    format      ascii;
    class       surfaceScalarField;
    location    "0.14";
    object      phi;
}
// * * * * * * * * * * * * * * * * * * * * * * * * * * * * * * * * * * * * * //

dimensions      [0 3 -1 0 0 0 0];

internalField   nonuniform List<scalar> 
12460
(
-2.32063e-05
-4.52877e-10
-2.31908e-05
-1.54664e-08
-2.31676e-05
-2.318e-08
-2.31386e-05
-2.90497e-08
-2.31048e-05
-3.37564e-08
-2.3067e-05
-3.786e-08
-2.30257e-05
-4.12467e-08
-2.29815e-05
-4.42666e-08
-2.29346e-05
-4.6854e-08
-2.28852e-05
-4.93492e-08
-2.28336e-05
-5.16545e-08
-2.27796e-05
-5.40353e-08
-2.27232e-05
-5.63595e-08
-2.26644e-05
-5.88386e-08
-2.2603e-05
-6.13439e-08
-2.25389e-05
-6.40665e-08
-2.2472e-05
-6.69299e-08
-2.24019e-05
-7.01337e-08
-2.23284e-05
-7.34904e-08
-2.22514e-05
-7.69884e-08
-2.2171e-05
-8.04327e-08
-2.20871e-05
-8.38924e-08
-2.19998e-05
-8.72789e-08
-2.19091e-05
-9.06836e-08
-2.18151e-05
-9.40447e-08
-2.17177e-05
-9.74191e-08
-2.16169e-05
-1.00776e-07
-2.15127e-05
-1.04172e-07
-2.14051e-05
-1.07564e-07
-2.12941e-05
-1.10995e-07
-2.11797e-05
-1.14448e-07
-2.10617e-05
-1.17954e-07
-2.09402e-05
-1.21499e-07
-2.08151e-05
-1.25121e-07
-2.06863e-05
-1.2881e-07
-2.05537e-05
-1.32575e-07
-2.04173e-05
-1.36431e-07
-2.02769e-05
-1.40409e-07
-2.01324e-05
-1.44507e-07
-1.99837e-05
-1.48736e-07
-1.98305e-05
-1.53118e-07
-1.96729e-05
-1.57643e-07
-1.95106e-05
-1.62323e-07
-1.93434e-05
-1.67166e-07
-1.91712e-05
-1.7217e-07
-1.89939e-05
-1.7733e-07
-1.88113e-05
-1.82648e-07
-1.86231e-05
-1.8814e-07
-1.84295e-05
-1.93617e-07
-1.82303e-05
-1.99233e-07
-1.8025e-05
-2.05262e-07
-1.78135e-05
-2.11492e-07
-1.75958e-05
-2.1768e-07
-1.73721e-05
-2.23688e-07
-1.71425e-05
-2.29623e-07
-1.69069e-05
-2.35584e-07
-1.66653e-05
-2.41613e-07
-1.64176e-05
-2.47735e-07
-1.61637e-05
-2.53919e-07
-1.59035e-05
-2.60174e-07
-1.5637e-05
-2.66531e-07
-1.5364e-05
-2.72985e-07
-1.50844e-05
-2.79554e-07
-1.47982e-05
-2.86245e-07
-1.45051e-05
-2.93098e-07
-1.4205e-05
-3.00137e-07
-1.38976e-05
-3.07361e-07
-1.35828e-05
-3.14757e-07
-1.32605e-05
-3.22306e-07
-1.29305e-05
-3.30007e-07
-1.25926e-05
-3.37911e-07
-1.22465e-05
-3.46092e-07
-1.1892e-05
-3.54566e-07
-1.15286e-05
-3.63362e-07
-1.1156e-05
-3.7254e-07
-1.07738e-05
-3.82219e-07
-1.03812e-05
-3.92584e-07
-9.97735e-06
-4.03898e-07
-9.56082e-06
-4.16533e-07
-9.12984e-06
-4.30978e-07
-8.68198e-06
-4.47855e-07
-8.21408e-06
-4.67907e-07
-7.72216e-06
-4.91919e-07
-7.20161e-06
-5.20549e-07
-6.64717e-06
-5.5444e-07
-6.05311e-06
-5.94054e-07
-5.41375e-06
-6.39367e-07
-4.72449e-06
-6.8926e-07
-3.98394e-06
-7.40548e-07
-3.19782e-06
-7.86119e-07
-2.38651e-06
-8.11314e-07
-1.60049e-06
-7.86021e-07
-9.35047e-07
-6.65438e-07
-5.07177e-07
-4.2787e-07
-3.78401e-07
-1.28776e-07
-6.19047e-07
2.40646e-07
-1.4947e-06
8.75653e-07
-3.69894e-06
2.20424e-06
-8.96044e-06
5.26147e-06
1.4569e-05
-2.35295e-05
-2.90982e-05
-1.68379e-08
-2.90481e-05
-6.56153e-08
-2.8983e-05
-8.82921e-08
-2.89102e-05
-1.01807e-07
-2.88336e-05
-1.10344e-07
-2.87549e-05
-1.1656e-07
-2.86751e-05
-1.2102e-07
-2.85946e-05
-1.24751e-07
-2.85137e-05
-1.2778e-07
-2.84323e-05
-1.30734e-07
-2.83505e-05
-1.33464e-07
-2.82682e-05
-1.36386e-07
-2.81852e-05
-1.39295e-07
-2.81016e-05
-1.4251e-07
-2.80171e-05
-1.45816e-07
-2.79317e-05
-1.4947e-07
-2.78453e-05
-1.53281e-07
-2.7758e-05
-1.57432e-07
-2.76698e-05
-1.61777e-07
-2.75803e-05
-1.66496e-07
-2.74894e-05
-1.71325e-07
-2.73969e-05
-1.76354e-07
-2.73028e-05
-1.81423e-07
-2.72068e-05
-1.86648e-07
-2.71089e-05
-1.91917e-07
-2.70091e-05
-1.97285e-07
-2.69071e-05
-2.02708e-07
-2.6803e-05
-2.08245e-07
-2.66968e-05
-2.13817e-07
-2.65883e-05
-2.19477e-07
-2.64775e-05
-2.25214e-07
-2.63644e-05
-2.31057e-07
-2.6249e-05
-2.36978e-07
-2.6131e-05
-2.43045e-07
-2.60106e-05
-2.49242e-07
-2.58876e-05
-2.55573e-07
-2.5762e-05
-2.62044e-07
-2.56337e-05
-2.68711e-07
-2.55026e-05
-2.75555e-07
-2.53688e-05
-2.82597e-07
-2.5232e-05
-2.89879e-07
-2.50923e-05
-2.97384e-07
-2.49495e-05
-3.05143e-07
-2.48035e-05
-3.13178e-07
-2.46541e-05
-3.21484e-07
-2.45014e-05
-3.30067e-07
-2.43451e-05
-3.38951e-07
-2.41851e-05
-3.48156e-07
-2.40212e-05
-3.57485e-07
-2.38536e-05
-3.66838e-07
-2.36827e-05
-3.76206e-07
-2.35086e-05
-3.85511e-07
-2.33315e-05
-3.94827e-07
-2.31511e-05
-4.0408e-07
-2.29675e-05
-4.13277e-07
-2.27806e-05
-4.2247e-07
-2.25905e-05
-4.31699e-07
-2.23972e-05
-4.40996e-07
-2.22008e-05
-4.50342e-07
-2.20012e-05
-4.59737e-07
-2.17986e-05
-4.69171e-07
-2.15929e-05
-4.78629e-07
-2.13844e-05
-4.88124e-07
-2.1173e-05
-4.9767e-07
-2.09587e-05
-5.07307e-07
-2.07418e-05
-5.1705e-07
-2.05223e-05
-5.26917e-07
-2.03001e-05
-5.36904e-07
-2.00754e-05
-5.47003e-07
-1.98482e-05
-5.57203e-07
-1.96185e-05
-5.67627e-07
-1.93862e-05
-5.78443e-07
-1.9151e-05
-5.89722e-07
-1.89128e-05
-6.01542e-07
-1.86713e-05
-6.14034e-07
-1.84261e-05
-6.27433e-07
-1.81766e-05
-6.42068e-07
-1.79221e-05
-6.58388e-07
-1.76617e-05
-6.76991e-07
-1.7394e-05
-6.98629e-07
-1.71177e-05
-7.24208e-07
-1.68308e-05
-7.54807e-07
-1.65311e-05
-7.91649e-07
-1.62158e-05
-8.35801e-07
-1.5882e-05
-8.88232e-07
-1.55265e-05
-9.4953e-07
-1.51465e-05
-1.01941e-06
-1.47399e-05
-1.09587e-06
-1.43067e-05
-1.1737e-06
-1.38509e-05
-1.24196e-06
-1.33827e-05
-1.27953e-06
-1.292e-05
-1.2487e-06
-1.24923e-05
-1.09311e-06
-1.21729e-05
-7.47298e-07
-1.21446e-05
-1.57058e-07
-1.25901e-05
6.86091e-07
-1.38031e-05
2.08867e-06
-1.62809e-05
4.68198e-06
-2.10134e-05
9.99396e-06
2.49239e-05
-3.13684e-05
-3.2292e-05
-4.32625e-08
-3.22421e-05
-1.15497e-07
-3.21784e-05
-1.51962e-07
-3.21076e-05
-1.72655e-07
-3.20331e-05
-1.84792e-07
-3.19571e-05
-1.92618e-07
-3.18804e-05
-1.97716e-07
-3.18035e-05
-2.01601e-07
-3.17267e-05
-2.04605e-07
-3.165e-05
-2.07464e-07
-3.15733e-05
-2.10134e-07
-3.14967e-05
-2.13031e-07
-3.142e-05
-2.16002e-07
-3.13431e-05
-2.1935e-07
-3.12661e-05
-2.22873e-07
-3.11888e-05
-2.26788e-07
-3.11112e-05
-2.30884e-07
-3.10333e-05
-2.35268e-07
-3.09552e-05
-2.39876e-07
-3.08767e-05
-2.44984e-07
-3.07977e-05
-2.50368e-07
-3.07179e-05
-2.56095e-07
-3.06374e-05
-2.61976e-07
-3.05559e-05
-2.68122e-07
-3.04734e-05
-2.74402e-07
-3.03899e-05
-2.80837e-07
-3.03052e-05
-2.87389e-07
-3.02193e-05
-2.94096e-07
-3.01323e-05
-3.00855e-07
-3.00441e-05
-3.07713e-07
-2.99546e-05
-3.14673e-07
-2.98639e-05
-3.21739e-07
-2.9772e-05
-3.28874e-07
-2.96789e-05
-3.36158e-07
-2.95846e-05
-3.4358e-07
-2.9489e-05
-3.51125e-07
-2.93923e-05
-3.58791e-07
-2.92944e-05
-3.66642e-07
-2.91953e-05
-3.74642e-07
-2.90951e-05
-3.8281e-07
-2.89938e-05
-3.91184e-07
-2.88914e-05
-3.99733e-07
-2.87881e-05
-4.08488e-07
-2.86838e-05
-4.17469e-07
-2.85786e-05
-4.26652e-07
-2.84726e-05
-4.36046e-07
-2.83659e-05
-4.45654e-07
-2.82587e-05
-4.55421e-07
-2.81508e-05
-4.65289e-07
-2.80425e-05
-4.75181e-07
-2.79338e-05
-4.84867e-07
-2.78251e-05
-4.9426e-07
-2.77163e-05
-5.03597e-07
-2.76075e-05
-5.12953e-07
-2.74985e-05
-5.2223e-07
-2.73896e-05
-5.31376e-07
-2.72809e-05
-5.40392e-07
-2.71726e-05
-5.49269e-07
-2.7065e-05
-5.57984e-07
-2.69582e-05
-5.66517e-07
-2.68526e-05
-5.74816e-07
-2.67484e-05
-5.82831e-07
-2.66459e-05
-5.90533e-07
-2.65457e-05
-5.97921e-07
-2.6448e-05
-6.05004e-07
-2.63533e-05
-6.1175e-07
-2.62621e-05
-6.18148e-07
-2.61748e-05
-6.24181e-07
-2.6092e-05
-6.29823e-07
-2.60142e-05
-6.34984e-07
-2.5942e-05
-6.39813e-07
-2.58759e-05
-6.44563e-07
-2.58163e-05
-6.49348e-07
-2.57635e-05
-6.54259e-07
-2.57181e-05
-6.5948e-07
-2.56802e-05
-6.65339e-07
-2.565e-05
-6.72307e-07
-2.56273e-05
-6.81013e-07
-2.5612e-05
-6.92279e-07
-2.56035e-05
-7.0712e-07
-2.5601e-05
-7.2673e-07
-2.56034e-05
-7.52468e-07
-2.56091e-05
-7.85892e-07
-2.56164e-05
-8.28542e-07
-2.56229e-05
-8.81704e-07
-2.56264e-05
-9.46015e-07
-2.56248e-05
-1.02099e-06
-2.56167e-05
-1.10397e-06
-2.5602e-05
-1.18849e-06
-2.55825e-05
-1.26138e-06
-2.55634e-05
-1.29865e-06
-2.55519e-05
-1.26023e-06
-2.55589e-05
-1.08611e-06
-2.56143e-05
-6.91948e-07
-2.57653e-05
-6.05234e-09
-2.61909e-05
1.11161e-06
-2.70718e-05
2.96954e-06
-2.87846e-05
6.3948e-06
-3.2022e-05
1.32313e-05
2.91831e-05
-3.62813e-05
-3.51517e-05
-7.02358e-08
-3.51112e-05
-1.56063e-07
-3.5061e-05
-2.02099e-07
-3.50056e-05
-2.28114e-07
-3.49475e-05
-2.42849e-07
-3.48886e-05
-2.51548e-07
-3.48296e-05
-2.56718e-07
-3.4771e-05
-2.6019e-07
-3.4713e-05
-2.62638e-07
-3.46556e-05
-2.64828e-07
-3.45989e-05
-2.66861e-07
-3.45428e-05
-2.69103e-07
-3.44873e-05
-2.71491e-07
-3.44324e-05
-2.74283e-07
-3.43779e-05
-2.77322e-07
-3.43239e-05
-2.80782e-07
-3.42703e-05
-2.84501e-07
-3.4217e-05
-2.8854e-07
-3.41641e-05
-2.92842e-07
-3.41114e-05
-2.97626e-07
-3.40591e-05
-3.02712e-07
-3.4007e-05
-3.08147e-07
-3.39553e-05
-3.13754e-07
-3.39038e-05
-3.19636e-07
-3.38524e-05
-3.25704e-07
-3.38014e-05
-3.31912e-07
-3.37505e-05
-3.38257e-07
-3.36999e-05
-3.44734e-07
-3.36495e-05
-3.51237e-07
-3.35994e-05
-3.57793e-07
-3.35496e-05
-3.6443e-07
-3.35003e-05
-3.71107e-07
-3.34514e-05
-3.77799e-07
-3.34029e-05
-3.84563e-07
-3.33551e-05
-3.91381e-07
-3.3308e-05
-3.98248e-07
-3.32616e-05
-4.05169e-07
-3.32161e-05
-4.12163e-07
-3.31716e-05
-4.19191e-07
-3.31281e-05
-4.26276e-07
-3.30859e-05
-4.33417e-07
-3.3045e-05
-4.40572e-07
-3.30058e-05
-4.47757e-07
-3.29683e-05
-4.54965e-07
-3.29328e-05
-4.62154e-07
-3.28995e-05
-4.69317e-07
-3.28687e-05
-4.76426e-07
-3.28408e-05
-4.83381e-07
-3.28159e-05
-4.90167e-07
-3.27941e-05
-4.96955e-07
-3.27753e-05
-5.03712e-07
-3.27593e-05
-5.10197e-07
-3.27465e-05
-5.16447e-07
-3.27369e-05
-5.22539e-07
-3.27308e-05
-5.28367e-07
-3.27283e-05
-5.33829e-07
-3.27298e-05
-5.38884e-07
-3.27356e-05
-5.43491e-07
-3.2746e-05
-5.47599e-07
-3.27613e-05
-5.51171e-07
-3.2782e-05
-5.54161e-07
-3.28083e-05
-5.56497e-07
-3.28407e-05
-5.58124e-07
-3.28796e-05
-5.59034e-07
-3.29254e-05
-5.59258e-07
-3.29783e-05
-5.58783e-07
-3.30389e-05
-5.57593e-07
-3.31074e-05
-5.55675e-07
-3.31841e-05
-5.531e-07
-3.32694e-05
-5.49682e-07
-3.33636e-05
-5.45626e-07
-3.34667e-05
-5.41471e-07
-3.35786e-05
-5.3746e-07
-3.36991e-05
-5.33764e-07
-3.38278e-05
-5.30712e-07
-3.39644e-05
-5.28773e-07
-3.41081e-05
-5.28601e-07
-3.42581e-05
-5.31002e-07
-3.44134e-05
-5.37e-07
-3.45727e-05
-5.478e-07
-3.47347e-05
-5.64789e-07
-3.48977e-05
-5.89463e-07
-3.50601e-05
-6.23449e-07
-3.52204e-05
-6.68285e-07
-3.53769e-05
-7.25157e-07
-3.55284e-05
-7.94505e-07
-3.56741e-05
-8.75351e-07
-3.58139e-05
-9.64181e-07
-3.59488e-05
-1.05359e-06
-3.60804e-05
-1.12979e-06
-3.62102e-05
-1.16886e-06
-3.6338e-05
-1.13246e-06
-3.64626e-05
-9.61439e-07
-3.6582e-05
-5.72653e-07
-3.67068e-05
1.1874e-07
-3.69224e-05
1.32718e-06
-3.73762e-05
3.42332e-06
-3.82248e-05
7.24339e-06
-3.9641e-05
1.46474e-05
2.91014e-05
-3.95594e-05
-3.8105e-05
-8.99719e-08
-3.80786e-05
-1.82453e-07
-3.80479e-05
-2.32768e-07
-3.8015e-05
-2.61006e-07
-3.79814e-05
-2.76459e-07
-3.79481e-05
-2.84821e-07
-3.79157e-05
-2.89131e-07
-3.78845e-05
-2.91404e-07
-3.78546e-05
-2.92523e-07
-3.78262e-05
-2.93275e-07
-3.77992e-05
-2.93857e-07
-3.77737e-05
-2.9459e-07
-3.77497e-05
-2.95472e-07
-3.77273e-05
-2.96739e-07
-3.77063e-05
-2.98264e-07
-3.76869e-05
-3.0018e-07
-3.7669e-05
-3.0242e-07
-3.76526e-05
-3.04945e-07
-3.76377e-05
-3.07749e-07
-3.76244e-05
-3.10953e-07
-3.76126e-05
-3.14442e-07
-3.76026e-05
-3.18191e-07
-3.75943e-05
-3.22073e-07
-3.75878e-05
-3.26131e-07
-3.75831e-05
-3.30368e-07
-3.75803e-05
-3.34741e-07
-3.75793e-05
-3.39205e-07
-3.75804e-05
-3.43709e-07
-3.75834e-05
-3.48176e-07
-3.75886e-05
-3.52622e-07
-3.7596e-05
-3.5707e-07
-3.76056e-05
-3.61463e-07
-3.76176e-05
-3.65802e-07
-3.7632e-05
-3.70132e-07
-3.7649e-05
-3.74405e-07
-3.76686e-05
-3.78629e-07
-3.7691e-05
-3.82828e-07
-3.77161e-05
-3.86986e-07
-3.77443e-05
-3.91064e-07
-3.77754e-05
-3.95101e-07
-3.78098e-05
-3.99064e-07
-3.78474e-05
-4.02923e-07
-3.78885e-05
-4.06698e-07
-3.79331e-05
-4.10368e-07
-3.79814e-05
-4.13902e-07
-3.80334e-05
-4.17296e-07
-3.80893e-05
-4.20528e-07
-3.81491e-05
-4.23531e-07
-3.8213e-05
-4.26315e-07
-3.8281e-05
-4.28968e-07
-3.83532e-05
-4.31509e-07
-3.84297e-05
-4.3368e-07
-3.85107e-05
-4.3548e-07
-3.85961e-05
-4.37094e-07
-3.86861e-05
-4.38408e-07
-3.87806e-05
-4.39306e-07
-3.88797e-05
-4.39771e-07
-3.89834e-05
-4.39773e-07
-3.90917e-05
-4.39298e-07
-3.92046e-05
-4.38315e-07
-3.93219e-05
-4.36792e-07
-3.94438e-05
-4.34672e-07
-3.957e-05
-4.31892e-07
-3.97006e-05
-4.28458e-07
-3.98354e-05
-4.24452e-07
-3.99743e-05
-4.19884e-07
-4.01171e-05
-4.14723e-07
-4.02639e-05
-4.0895e-07
-4.04143e-05
-4.02638e-07
-4.05684e-05
-3.95645e-07
-4.07262e-05
-3.87781e-07
-4.08884e-05
-3.79328e-07
-4.10549e-05
-3.70942e-07
-4.12255e-05
-3.63099e-07
-4.14001e-05
-3.5619e-07
-4.15781e-05
-3.5072e-07
-4.17593e-05
-3.47389e-07
-4.19433e-05
-3.47068e-07
-4.21294e-05
-3.50843e-07
-4.23172e-05
-3.59991e-07
-4.25061e-05
-3.75952e-07
-4.26953e-05
-4.00257e-07
-4.28842e-05
-4.34545e-07
-4.3072e-05
-4.80423e-07
-4.32582e-05
-5.38985e-07
-4.34423e-05
-6.10479e-07
-4.36237e-05
-6.93875e-07
-4.38023e-05
-7.85665e-07
-4.39775e-05
-8.78374e-07
-4.41489e-05
-9.584e-07
-4.43146e-05
-1.00318e-06
-4.44689e-05
-9.78106e-07
-4.45986e-05
-8.31781e-07
-4.46833e-05
-4.87987e-07
-4.47217e-05
1.57086e-07
-4.4735e-05
1.34045e-06
-4.47479e-05
3.4362e-06
-4.47578e-05
7.25328e-06
-4.44523e-05
1.43418e-05
2.62801e-05
-4.16311e-05
-4.11916e-05
-9.69538e-08
-4.11886e-05
-1.85438e-07
-4.11875e-05
-2.33859e-07
-4.11879e-05
-2.60611e-07
-4.11898e-05
-2.74576e-07
-4.11933e-05
-2.81277e-07
-4.11986e-05
-2.83821e-07
-4.12058e-05
-2.84219e-07
-4.12149e-05
-2.83423e-07
-4.1226e-05
-2.82162e-07
-4.12391e-05
-2.80742e-07
-4.12544e-05
-2.79355e-07
-4.12717e-05
-2.78103e-07
-4.12913e-05
-2.7715e-07
-4.13131e-05
-2.76438e-07
-4.13373e-05
-2.76005e-07
-4.13639e-05
-2.75885e-07
-4.13928e-05
-2.76045e-07
-4.14241e-05
-2.76446e-07
-4.14579e-05
-2.77135e-07
-4.14943e-05
-2.78045e-07
-4.15333e-05
-2.79163e-07
-4.1575e-05
-2.80333e-07
-4.16196e-05
-2.81526e-07
-4.16672e-05
-2.82822e-07
-4.17177e-05
-2.84262e-07
-4.17711e-05
-2.85755e-07
-4.18276e-05
-2.8722e-07
-4.18872e-05
-2.88618e-07
-4.19498e-05
-2.89975e-07
-4.20156e-05
-2.91309e-07
-4.20845e-05
-2.92571e-07
-4.21565e-05
-2.93785e-07
-4.22316e-05
-2.9502e-07
-4.23098e-05
-2.96208e-07
-4.23911e-05
-2.97367e-07
-4.24753e-05
-2.98541e-07
-4.25626e-05
-2.99722e-07
-4.26528e-05
-3.00885e-07
-4.27458e-05
-3.02066e-07
-4.28416e-05
-3.03252e-07
-4.29401e-05
-3.04423e-07
-4.30412e-05
-3.05594e-07
-4.31449e-05
-3.06753e-07
-4.32509e-05
-3.07877e-07
-4.33592e-05
-3.08962e-07
-4.34698e-05
-3.09986e-07
-4.35824e-05
-3.10907e-07
-4.3697e-05
-3.11733e-07
-4.38134e-05
-3.12497e-07
-4.39317e-05
-3.13217e-07
-4.40517e-05
-3.13696e-07
-4.41735e-05
-3.13737e-07
-4.42972e-05
-3.1335e-07
-4.4423e-05
-3.12583e-07
-4.45509e-05
-3.11454e-07
-4.46807e-05
-3.09976e-07
-4.48123e-05
-3.0812e-07
-4.49458e-05
-3.05862e-07
-4.50809e-05
-3.03157e-07
-4.52177e-05
-2.99962e-07
-4.53562e-05
-2.96208e-07
-4.54963e-05
-2.9178e-07
-4.56381e-05
-2.86646e-07
-4.57816e-05
-2.80943e-07
-4.59269e-05
-2.74676e-07
-4.60738e-05
-2.67768e-07
-4.62226e-05
-2.60183e-07
-4.63734e-05
-2.5185e-07
-4.65262e-05
-2.42811e-07
-4.66809e-05
-2.33045e-07
-4.68377e-05
-2.22574e-07
-4.69965e-05
-2.12169e-07
-4.71572e-05
-2.02357e-07
-4.73199e-05
-1.93467e-07
-4.74846e-05
-1.86036e-07
-4.76512e-05
-1.80786e-07
-4.78197e-05
-1.78633e-07
-4.79898e-05
-1.80692e-07
-4.81615e-05
-1.88302e-07
-4.83345e-05
-2.0296e-07
-4.85085e-05
-2.26205e-07
-4.86835e-05
-2.59586e-07
-4.88591e-05
-3.04837e-07
-4.90351e-05
-3.62934e-07
-4.92117e-05
-4.33948e-07
-4.93884e-05
-5.17113e-07
-4.95649e-05
-6.09263e-07
-4.97398e-05
-7.03407e-07
-4.99112e-05
-7.87003e-07
-5.00742e-05
-8.40183e-07
-5.02191e-05
-8.33305e-07
-5.03251e-05
-7.25784e-07
-5.03608e-05
-4.52282e-07
-5.03021e-05
9.83844e-08
-5.01181e-05
1.15643e-06
-4.97322e-05
3.05028e-06
-4.89835e-05
6.50451e-06
-4.72853e-05
1.26435e-05
2.18113e-05
-4.28166e-05
-4.4269e-05
-8.8812e-08
-4.42937e-05
-1.6077e-07
-4.4327e-05
-2.00553e-07
-4.43656e-05
-2.21977e-07
-4.44079e-05
-2.32322e-07
-4.4453e-05
-2.36174e-07
-4.45004e-05
-2.3637e-07
-4.45501e-05
-2.34584e-07
-4.46017e-05
-2.31781e-07
-4.46554e-05
-2.28472e-07
-4.47111e-05
-2.25075e-07
-4.47687e-05
-2.21691e-07
-4.48284e-05
-2.18451e-07
-4.48901e-05
-2.15443e-07
-4.49538e-05
-2.12707e-07
-4.50196e-05
-2.10221e-07
-4.50875e-05
-2.07991e-07
-4.51575e-05
-2.06078e-07
-4.52295e-05
-2.04453e-07
-4.53035e-05
-2.03125e-07
-4.53795e-05
-2.02018e-07
-4.54575e-05
-2.01139e-07
-4.55375e-05
-2.00367e-07
-4.56195e-05
-1.9953e-07
-4.57037e-05
-1.98566e-07
-4.57904e-05
-1.97611e-07
-4.58794e-05
-1.96711e-07
-4.59709e-05
-1.95796e-07
-4.60646e-05
-1.94852e-07
-4.61607e-05
-1.93923e-07
-4.6259e-05
-1.93022e-07
-4.63594e-05
-1.92119e-07
-4.6462e-05
-1.91256e-07
-4.65665e-05
-1.90491e-07
-4.66729e-05
-1.89781e-07
-4.67811e-05
-1.89158e-07
-4.6891e-05
-1.88667e-07
-4.70024e-05
-1.88295e-07
-4.71153e-05
-1.88046e-07
-4.72294e-05
-1.87934e-07
-4.73447e-05
-1.87947e-07
-4.7461e-05
-1.88079e-07
-4.75783e-05
-1.88319e-07
-4.76964e-05
-1.88657e-07
-4.78152e-05
-1.89066e-07
-4.79347e-05
-1.89527e-07
-4.80546e-05
-1.90013e-07
-4.8175e-05
-1.90491e-07
-4.82958e-05
-1.90947e-07
-4.84169e-05
-1.91379e-07
-4.85385e-05
-1.91702e-07
-4.86603e-05
-1.9185e-07
-4.87822e-05
-1.9183e-07
-4.8904e-05
-1.9152e-07
-4.90258e-05
-1.90849e-07
-4.91474e-05
-1.89814e-07
-4.9269e-05
-1.88414e-07
-4.93905e-05
-1.86624e-07
-4.95119e-05
-1.84404e-07
-4.96334e-05
-1.81696e-07
-4.97549e-05
-1.78444e-07
-4.98765e-05
-1.74577e-07
-4.99984e-05
-1.69936e-07
-5.01206e-05
-1.64388e-07
-5.02434e-05
-1.58212e-07
-5.03666e-05
-1.51439e-07
-5.04905e-05
-1.43917e-07
-5.06151e-05
-1.35598e-07
-5.07405e-05
-1.26398e-07
-5.08669e-05
-1.16414e-07
-5.09941e-05
-1.05846e-07
-5.11224e-05
-9.42889e-08
-5.12517e-05
-8.28813e-08
-5.13819e-05
-7.20915e-08
-5.15134e-05
-6.19884e-08
-5.16464e-05
-5.31002e-08
-5.1781e-05
-4.61567e-08
-5.19175e-05
-4.20814e-08
-5.20562e-05
-4.19939e-08
-5.21973e-05
-4.72529e-08
-5.23409e-05
-5.93911e-08
-5.24871e-05
-7.99837e-08
-5.26364e-05
-1.10292e-07
-5.27889e-05
-1.5235e-07
-5.29446e-05
-2.07214e-07
-5.31039e-05
-2.74678e-07
-5.32664e-05
-3.54586e-07
-5.34315e-05
-4.44166e-07
-5.35975e-05
-5.37356e-07
-5.37608e-05
-6.23748e-07
-5.39138e-05
-6.87183e-07
-5.40427e-05
-7.04397e-07
-5.41249e-05
-6.43608e-07
-5.41181e-05
-4.59088e-07
-5.39742e-05
-4.55121e-08
-5.36157e-05
7.9788e-07
-5.28917e-05
2.32619e-06
-5.15087e-05
5.12157e-06
-4.8782e-05
9.91677e-06
1.64156e-05
-4.33863e-05
-4.70479e-05
-6.58658e-08
-4.70961e-05
-1.12587e-07
-4.71577e-05
-1.38974e-07
-4.72274e-05
-1.52291e-07
-4.7302e-05
-1.57711e-07
-4.73797e-05
-1.58423e-07
-4.74596e-05
-1.56522e-07
-4.7541e-05
-1.53162e-07
-4.76237e-05
-1.49113e-07
-4.77074e-05
-1.44723e-07
-4.77922e-05
-1.40254e-07
-4.78781e-05
-1.35869e-07
-4.79648e-05
-1.31673e-07
-4.80526e-05
-1.27687e-07
-4.81413e-05
-1.23959e-07
-4.82311e-05
-1.205e-07
-4.83218e-05
-1.1728e-07
-4.84135e-05
-1.14355e-07
-4.85062e-05
-1.11757e-07
-4.85999e-05
-1.0946e-07
-4.86945e-05
-1.07378e-07
-4.87902e-05
-1.05411e-07
-4.8887e-05
-1.03569e-07
-4.89847e-05
-1.01841e-07
-4.90832e-05
-1.0013e-07
-4.91823e-05
-9.8462e-08
-4.92821e-05
-9.68893e-08
-4.93826e-05
-9.53669e-08
-4.94835e-05
-9.3891e-08
-4.95849e-05
-9.25048e-08
-4.96867e-05
-9.12094e-08
-4.97889e-05
-9.00019e-08
-4.98912e-05
-8.89332e-08
-4.99937e-05
-8.80244e-08
-5.00962e-05
-8.72625e-08
-5.01987e-05
-8.66679e-08
-5.0301e-05
-8.62789e-08
-5.04033e-05
-8.60823e-08
-5.05052e-05
-8.60812e-08
-5.06069e-05
-8.62769e-08
-5.07082e-05
-8.66448e-08
-5.08091e-05
-8.7182e-08
-5.09095e-05
-8.7861e-08
-5.10095e-05
-8.86641e-08
-5.1109e-05
-8.95556e-08
-5.12081e-05
-9.05122e-08
-5.13066e-05
-9.14982e-08
-5.14046e-05
-9.24795e-08
-5.15021e-05
-9.34335e-08
-5.15991e-05
-9.43332e-08
-5.16958e-05
-9.50789e-08
-5.17919e-05
-9.56692e-08
-5.18876e-05
-9.61996e-08
-5.19825e-05
-9.65497e-08
-5.20769e-05
-9.65428e-08
-5.21706e-05
-9.61044e-08
-5.22638e-05
-9.5197e-08
-5.23566e-05
-9.37946e-08
-5.24492e-05
-9.18476e-08
-5.25416e-05
-8.92924e-08
-5.26339e-05
-8.60698e-08
-5.27264e-05
-8.21088e-08
-5.28191e-05
-7.72621e-08
-5.29123e-05
-7.11318e-08
-5.30063e-05
-6.42781e-08
-5.31009e-05
-5.68049e-08
-5.31964e-05
-4.84053e-08
-5.3293e-05
-3.89883e-08
-5.33909e-05
-2.85626e-08
-5.34901e-05
-1.72091e-08
-5.35904e-05
-5.47886e-09
-5.36933e-05
8.62091e-09
-5.37986e-05
2.23888e-08
-5.39059e-05
3.51475e-08
-5.40154e-05
4.75275e-08
-5.41275e-05
5.89756e-08
-5.42423e-05
6.87391e-08
-5.43603e-05
7.59019e-08
-5.44817e-05
7.93611e-08
-5.46068e-05
7.78187e-08
-5.4736e-05
6.98099e-08
-5.48697e-05
5.37864e-08
-5.50082e-05
2.8206e-08
-5.51522e-05
-8.40326e-09
-5.53019e-05
-5.74837e-08
-5.54572e-05
-1.19377e-07
-5.56173e-05
-1.94451e-07
-5.57811e-05
-2.80415e-07
-5.59461e-05
-3.72405e-07
-5.61071e-05
-4.6273e-07
-5.6255e-05
-5.39221e-07
-5.63736e-05
-5.85797e-07
-5.64377e-05
-5.79597e-07
-5.64026e-05
-4.94171e-07
-5.61994e-05
-2.48671e-07
-5.57009e-05
2.99313e-07
-5.47154e-05
1.34073e-06
-5.28505e-05
3.25659e-06
-4.9419e-05
6.48533e-06
1.05536e-05
-4.35571e-05
-4.9287e-05
-2.7963e-08
-4.93526e-05
-4.70043e-08
-4.94337e-05
-5.78782e-08
-4.95236e-05
-6.23652e-08
-4.96183e-05
-6.29768e-08
-4.97154e-05
-6.13474e-08
-4.98134e-05
-5.85329e-08
-4.99115e-05
-5.50746e-08
-5.00093e-05
-5.13322e-08
-5.01064e-05
-4.75596e-08
-5.02029e-05
-4.38029e-08
-5.02985e-05
-4.02014e-08
-5.03933e-05
-3.6874e-08
-5.04872e-05
-3.37904e-08
-5.05803e-05
-3.09352e-08
-5.06724e-05
-2.83586e-08
-5.07636e-05
-2.60678e-08
-5.08539e-05
-2.40637e-08
-5.09433e-05
-2.23798e-08
-5.10318e-05
-2.09727e-08
-5.11194e-05
-1.97523e-08
-5.12062e-05
-1.86415e-08
-5.12921e-05
-1.7674e-08
-5.1377e-05
-1.68946e-08
-5.14609e-05
-1.62751e-08
-5.15435e-05
-1.57932e-08
-5.1625e-05
-1.54206e-08
-5.17053e-05
-1.51008e-08
-5.17843e-05
-1.48158e-08
-5.18623e-05
-1.45839e-08
-5.19391e-05
-1.44067e-08
-5.20148e-05
-1.43104e-08
-5.20894e-05
-1.43279e-08
-5.21629e-05
-1.44492e-08
-5.22355e-05
-1.46901e-08
-5.23071e-05
-1.50616e-08
-5.23778e-05
-1.55788e-08
-5.24477e-05
-1.62426e-08
-5.25167e-05
-1.70395e-08
-5.2585e-05
-1.79751e-08
-5.26526e-05
-1.90215e-08
-5.27196e-05
-2.01672e-08
-5.27861e-05
-2.1387e-08
-5.28521e-05
-2.26491e-08
-5.29178e-05
-2.39243e-08
-5.29831e-05
-2.5183e-08
-5.30482e-05
-2.63885e-08
-5.31132e-05
-2.7507e-08
-5.31781e-05
-2.85247e-08
-5.3243e-05
-2.93882e-08
-5.33081e-05
-3.00324e-08
-5.33733e-05
-3.04694e-08
-5.34388e-05
-3.07043e-08
-5.35047e-05
-3.0634e-08
-5.35711e-05
-3.00916e-08
-5.36382e-05
-2.90185e-08
-5.3706e-05
-2.73796e-08
-5.37747e-05
-2.51446e-08
-5.38443e-05
-2.22615e-08
-5.39149e-05
-1.86595e-08
-5.39867e-05
-1.42887e-08
-5.40597e-05
-9.07212e-09
-5.41338e-05
-3.13963e-09
-5.42098e-05
4.82789e-09
-5.42876e-05
1.35458e-08
-5.43671e-05
2.26385e-08
-5.44483e-05
3.28587e-08
-5.45316e-05
4.42689e-08
-5.4617e-05
5.68479e-08
-5.47046e-05
7.03851e-08
-5.47951e-05
8.49866e-08
-5.48877e-05
1.01301e-07
-5.49833e-05
1.17942e-07
-5.50825e-05
1.34307e-07
-5.51853e-05
1.50398e-07
-5.52921e-05
1.65734e-07
-5.54029e-05
1.79604e-07
-5.55182e-05
1.91115e-07
-5.5638e-05
1.99176e-07
-5.57627e-05
2.02516e-07
-5.58926e-05
1.99691e-07
-5.60279e-05
1.89115e-07
-5.61686e-05
1.68889e-07
-5.63149e-05
1.37976e-07
-5.64676e-05
9.51995e-08
-5.66263e-05
3.93097e-08
-5.6791e-05
-2.97796e-08
-5.69606e-05
-1.10838e-07
-5.71313e-05
-2.01661e-07
-5.72971e-05
-2.9699e-07
-5.74477e-05
-3.88597e-07
-5.75659e-05
-4.6758e-07
-5.76229e-05
-5.22617e-07
-5.75779e-05
-5.3918e-07
-5.73477e-05
-4.78803e-07
-5.67781e-05
-2.70304e-07
-5.56263e-05
1.8889e-07
-5.34546e-05
1.08484e-06
-4.95882e-05
2.61896e-06
4.48356e-06
-4.35181e-05
-5.06489e-05
1.94619e-08
-5.07214e-05
2.55144e-08
-5.08093e-05
3.0001e-08
-5.09051e-05
3.34591e-08
-5.10044e-05
3.63121e-08
-5.11044e-05
3.86557e-08
-5.12035e-05
4.05722e-08
-5.13009e-05
4.22542e-08
-5.1396e-05
4.37595e-08
-5.14885e-05
4.50114e-08
-5.15784e-05
4.60618e-08
-5.16655e-05
4.69291e-08
-5.17499e-05
4.75218e-08
-5.18316e-05
4.79027e-08
-5.19107e-05
4.8119e-08
-5.19872e-05
4.81424e-08
-5.20612e-05
4.79517e-08
-5.21328e-05
4.75636e-08
-5.22022e-05
4.69752e-08
-5.22694e-05
4.62304e-08
-5.23346e-05
4.54305e-08
-5.23978e-05
4.46037e-08
-5.24592e-05
4.37193e-08
-5.25189e-05
4.27943e-08
-5.2577e-05
4.18454e-08
-5.26337e-05
4.08551e-08
-5.26889e-05
3.98473e-08
-5.27429e-05
3.8895e-08
-5.27958e-05
3.80432e-08
-5.28476e-05
3.72752e-08
-5.28986e-05
3.65669e-08
-5.29488e-05
3.58608e-08
-5.29982e-05
3.51314e-08
-5.30471e-05
3.44152e-08
-5.30955e-05
3.36816e-08
-5.31434e-05
3.28948e-08
-5.31911e-05
3.20676e-08
-5.32385e-05
3.1194e-08
-5.32858e-05
3.02817e-08
-5.33331e-05
2.93228e-08
-5.33805e-05
2.83429e-08
-5.3428e-05
2.73539e-08
-5.34758e-05
2.63679e-08
-5.35239e-05
2.5428e-08
-5.35723e-05
2.45469e-08
-5.36213e-05
2.37583e-08
-5.36708e-05
2.30964e-08
-5.37208e-05
2.25891e-08
-5.37716e-05
2.22542e-08
-5.38232e-05
2.2143e-08
-5.38755e-05
2.23022e-08
-5.39287e-05
2.27193e-08
-5.39828e-05
2.34273e-08
-5.4038e-05
2.45318e-08
-5.40943e-05
2.62092e-08
-5.41518e-05
2.84964e-08
-5.42106e-05
3.14095e-08
-5.42707e-05
3.49897e-08
-5.43323e-05
3.92846e-08
-5.43953e-05
4.4381e-08
-5.44599e-05
5.03482e-08
-5.45262e-05
5.71867e-08
-5.45944e-05
6.51023e-08
-5.46643e-05
7.46392e-08
-5.47359e-05
8.51785e-08
-5.48098e-05
9.65555e-08
-5.48861e-05
1.09124e-07
-5.49648e-05
1.22988e-07
-5.50461e-05
1.38138e-07
-5.51302e-05
1.54489e-07
-5.52174e-05
1.72203e-07
-5.53075e-05
1.91389e-07
-5.54008e-05
2.11274e-07
-5.54979e-05
2.31372e-07
-5.55989e-05
2.51427e-07
-5.57041e-05
2.7096e-07
-5.58138e-05
2.89293e-07
-5.59283e-05
3.05573e-07
-5.60478e-05
3.18741e-07
-5.61729e-05
3.27561e-07
-5.63038e-05
3.30626e-07
-5.6441e-05
3.26333e-07
-5.65851e-05
3.1298e-07
-5.67363e-05
2.89174e-07
-5.68943e-05
2.53188e-07
-5.70585e-05
2.035e-07
-5.72284e-05
1.4014e-07
-5.7402e-05
6.27246e-08
-5.75762e-05
-2.74179e-08
-5.77457e-05
-1.27497e-07
-5.78994e-05
-2.34949e-07
-5.80194e-05
-3.47566e-07
-5.80769e-05
-4.65146e-07
-5.80279e-05
-5.88166e-07
-5.77905e-05
-7.16153e-07
-5.72054e-05
-8.55442e-07
-5.60007e-05
-1.01581e-06
-5.37064e-05
-1.20944e-06
-4.96383e-05
-1.44915e-06
-1.67206e-06
-4.34827e-05
-5.05274e-05
6.53888e-08
-5.0598e-05
9.60437e-08
-5.06837e-05
1.15742e-07
-5.07773e-05
1.27094e-07
-5.08744e-05
1.33413e-07
-5.09724e-05
1.3659e-07
-5.10696e-05
1.37839e-07
-5.11653e-05
1.37957e-07
-5.1259e-05
1.37397e-07
-5.13503e-05
1.36346e-07
-5.14392e-05
1.3496e-07
-5.15256e-05
1.33339e-07
-5.16096e-05
1.3146e-07
-5.16911e-05
1.29417e-07
-5.17702e-05
1.27264e-07
-5.18471e-05
1.24979e-07
-5.19217e-05
1.22561e-07
-5.19941e-05
1.20034e-07
-5.20645e-05
1.17394e-07
-5.2133e-05
1.14703e-07
-5.21997e-05
1.12061e-07
-5.22645e-05
1.09478e-07
-5.23277e-05
1.0693e-07
-5.23894e-05
1.04442e-07
-5.24496e-05
1.02036e-07
-5.25084e-05
9.96906e-08
-5.25659e-05
9.7361e-08
-5.26222e-05
9.51318e-08
-5.26773e-05
9.316e-08
-5.27314e-05
9.14007e-08
-5.27846e-05
8.97674e-08
-5.2837e-05
8.82253e-08
-5.28886e-05
8.67556e-08
-5.29396e-05
8.53764e-08
-5.29899e-05
8.40751e-08
-5.30399e-05
8.28146e-08
-5.30894e-05
8.16145e-08
-5.31387e-05
8.04704e-08
-5.31878e-05
7.93579e-08
-5.32367e-05
7.82934e-08
-5.32857e-05
7.72982e-08
-5.33347e-05
7.63821e-08
-5.33839e-05
7.55505e-08
-5.34333e-05
7.48434e-08
-5.3483e-05
7.42743e-08
-5.35332e-05
7.38696e-08
-5.35837e-05
7.36663e-08
-5.36348e-05
7.3686e-08
-5.36865e-05
7.39569e-08
-5.37389e-05
7.45159e-08
-5.3792e-05
7.54018e-08
-5.38459e-05
7.6608e-08
-5.39006e-05
7.81515e-08
-5.39563e-05
8.01864e-08
-5.4013e-05
8.29175e-08
-5.40708e-05
8.63567e-08
-5.41299e-05
9.04749e-08
-5.41902e-05
9.53264e-08
-5.42519e-05
1.00966e-07
-5.4315e-05
1.0749e-07
-5.43796e-05
1.14967e-07
-5.44459e-05
1.23456e-07
-5.4514e-05
1.33177e-07
-5.45837e-05
1.44341e-07
-5.46552e-05
1.56674e-07
-5.47288e-05
1.70137e-07
-5.48046e-05
1.84921e-07
-5.48827e-05
2.01114e-07
-5.49633e-05
2.18731e-07
-5.50466e-05
2.37756e-07
-5.51327e-05
2.58312e-07
-5.52216e-05
2.80372e-07
-5.53138e-05
3.03461e-07
-5.54096e-05
3.2714e-07
-5.55092e-05
3.51056e-07
-5.5613e-05
3.74731e-07
-5.57212e-05
3.97524e-07
-5.58343e-05
4.18622e-07
-5.59526e-05
4.37014e-07
-5.60765e-05
4.51502e-07
-5.62066e-05
4.6072e-07
-5.63434e-05
4.631e-07
-5.64874e-05
4.56987e-07
-5.66389e-05
4.40707e-07
-5.67981e-05
4.1236e-07
-5.69649e-05
3.70311e-07
-5.7138e-05
3.13232e-07
-5.73145e-05
2.3929e-07
-5.74901e-05
1.48158e-07
-5.76583e-05
4.07182e-08
-5.78103e-05
-8.29316e-08
-5.79295e-05
-2.2839e-07
-5.79873e-05
-4.07383e-07
-5.79385e-05
-6.36997e-07
-5.77015e-05
-9.53108e-07
-5.71288e-05
-1.42814e-06
-5.59503e-05
-2.19432e-06
-5.3691e-05
-3.46869e-06
-4.96719e-05
-5.46829e-06
-7.78699e-06
-4.3557e-05
-4.90179e-05
9.93728e-08
-4.90782e-05
1.56329e-07
-4.91529e-05
1.90401e-07
-4.92358e-05
2.10005e-07
-4.9323e-05
2.20685e-07
-4.94124e-05
2.2597e-07
-4.95027e-05
2.28127e-07
-4.95931e-05
2.2836e-07
-4.96832e-05
2.27504e-07
-4.97728e-05
2.25957e-07
-4.98619e-05
2.24017e-07
-4.99503e-05
2.21769e-07
-5.00382e-05
2.19339e-07
-5.01256e-05
2.16776e-07
-5.02124e-05
2.14129e-07
-5.02988e-05
2.11353e-07
-5.03847e-05
2.08502e-07
-5.04703e-05
2.05602e-07
-5.05555e-05
2.02591e-07
-5.06404e-05
1.99572e-07
-5.07249e-05
1.9663e-07
-5.08092e-05
1.93754e-07
-5.08932e-05
1.90929e-07
-5.09769e-05
1.88166e-07
-5.10604e-05
1.85481e-07
-5.11436e-05
1.8287e-07
-5.12265e-05
1.80247e-07
-5.1309e-05
1.77654e-07
-5.1391e-05
1.75198e-07
-5.14724e-05
1.72778e-07
-5.1553e-05
1.70333e-07
-5.16327e-05
1.67942e-07
-5.17115e-05
1.65621e-07
-5.17895e-05
1.6336e-07
-5.18666e-05
1.61177e-07
-5.19429e-05
1.59066e-07
-5.20183e-05
1.57025e-07
-5.20929e-05
1.55053e-07
-5.21667e-05
1.53144e-07
-5.22397e-05
1.51333e-07
-5.2312e-05
1.49623e-07
-5.23837e-05
1.48044e-07