/*--------------------------------*- C++ -*----------------------------------*\
| =========                 |                                                 |
| \\      /  F ield         | OpenFOAM: The Open Source CFD Toolbox           |
|  \\    /   O peration     | Version:  2.1.0                                 |
|   \\  /    A nd           | Web:      www.OpenFOAM.org                      |
|    \\/     M anipulation  |                                                 |
\*---------------------------------------------------------------------------*/
FoamFile
{
    version     2.0;
    format      ascii;
    class       volScalarField;
    location    "0.14";
    object      rho;
}
// * * * * * * * * * * * * * * * * * * * * * * * * * * * * * * * * * * * * * //

dimensions      [1 -3 0 0 0 0 0];

internalField   nonuniform List<scalar> 
6400
(
1000
1000
1000
1000
1000
1000
1000
1000
1000
1000
1000
1000
1000
1000
1000
1000
1000
1000
1000
1000
1000
1000
1000
1000
1000
1000
1000
1000
1000
1000
1000
1000
1000
1000
1000
1000
1000
1000
1000
1000
1000
1000
1000
1000
1000
1000
1000
1000
1000
1000
1000
1000
1000
1000
1000
1000
1000
1000
1000
1000
1000
1000
1000
1000
1000
1000
1000
1000
1000
1000
1000
1000
1000
1000
1000
1000
1000
1000
1000
1000
1000
1000
1000
1000
1000
1000
1000
1000
1000
1000
1000
1000
1000
1000
1000
1000
1000
999.999
999.995
999.99
1000
1000
1000
1000
1000
1000
1000
1000
1000
1000
1000
1000
1000
1000
1000
1000
1000
1000
1000
1000
1000
1000
1000
1000
1000
1000
1000
1000
1000
1000
1000
1000
1000
1000
1000
1000
1000
1000
1000
1000
1000
1000
1000
1000
1000
1000
1000
1000
1000
1000
1000
1000
1000
1000
1000
1000
1000
1000
1000
1000
1000
1000
1000
1000
1000
1000
1000
1000
1000
1000
1000
1000
1000
1000
1000
1000
1000
1000
1000
1000
1000
1000
1000
1000
1000
1000
1000
1000
1000
1000
1000
1000
1000
1000
999.999
999.999
999.998
999.996
999.993
999.989
1000
1000
1000
1000
1000
1000
1000
1000
1000
1000
1000
1000
1000
1000
1000
1000
1000
1000
1000
1000
1000
1000
1000
1000
1000
1000
1000
1000
1000
1000
1000
1000
1000
1000
1000
1000
1000
1000
1000
1000
1000
1000
1000
1000
1000
1000
1000
1000
1000
1000
1000
1000
1000
1000
1000
1000
1000
1000
1000
1000
1000
1000
1000
1000
1000
1000
1000
1000
1000
1000
1000
1000
1000
1000
1000
1000
1000
1000
1000
1000
1000
1000
1000
1000
1000
1000
1000
1000
1000
1000
999.999
999.999
999.999
999.999
999.998
999.997
999.996
999.994
999.992
999.99
1000
1000
1000
1000
1000
1000
1000
1000
1000
1000
1000
1000
1000
1000
1000
1000
1000
1000
1000
1000
1000
1000
1000
1000
1000
1000
1000
1000
1000
1000
1000
1000
1000
1000
1000
1000
1000
1000
1000
1000
1000
1000
1000
1000
1000
1000
1000
1000
1000
1000
1000
1000
1000
1000
1000
1000
1000
1000
1000
1000
1000
1000
1000
1000
1000
1000
1000
1000
1000
1000
1000
1000
1000
1000
1000
1000
1000
1000
1000
1000
1000
1000
1000
1000
1000
1000
1000
1000
999.999
999.999
999.999
999.999
999.998
999.998
999.997
999.996
999.995
999.994
999.993
999.991
1000
1000
1000
1000
1000
1000
1000
1000
1000
1000
1000
1000
1000
1000
1000
1000
1000
1000
1000
1000
1000
1000
1000
1000
1000
1000
1000
1000
1000
1000
1000
1000
1000
1000
1000
1000
1000
1000
1000
1000
1000
1000
1000
1000
1000
1000
1000
1000
1000
1000
1000
1000
1000
1000
1000
1000
1000
1000
1000
1000
1000
1000
1000
1000
1000
1000
1000
1000
1000
1000
1000
1000
1000
1000
1000
1000
1000
1000
1000
1000
1000
1000
1000
1000
1000
1000
1000
999.999
999.999
999.999
999.999
999.998
999.998
999.998
999.997
999.996
999.996
999.995
999.994
999.993
1000
1000
1000
1000
1000
1000
1000
1000
1000
1000
1000
1000
1000
1000
1000
1000
1000
1000
1000
1000
1000
1000
1000
1000
1000
1000
1000
1000
1000
1000
1000
1000
1000
1000
1000
1000
1000
1000
1000
1000
1000
1000
1000
1000
1000
1000
1000
1000
1000
1000
1000
1000
1000
1000
1000
1000
1000
1000
1000
1000
1000
1000
1000
1000
1000
1000
1000
1000
1000
1000
1000
1000
1000
1000
1000
1000
1000
1000
1000
1000
1000
1000
1000
1000
1000
1000
1000
999.999
999.999
999.999
999.999
999.999
999.998
999.998
999.998
999.997
999.997
999.996
999.995
999.995
1000
1000
1000
1000
1000
1000
1000
1000
1000
1000
1000
1000
1000
1000
1000
1000
1000
1000
1000
1000
1000
1000
1000
1000
1000
1000
1000
1000
1000
1000
1000
1000
1000
1000
1000
1000
1000
1000
1000
1000
1000
1000
1000
1000
1000
1000
1000
1000
1000
1000
1000
1000
1000
1000
1000
1000
1000
1000
1000
1000
1000
1000
1000
1000
1000
1000
1000
1000
1000
1000
1000
1000
1000
1000
1000
1000
1000
1000
1000
1000
1000
1000
1000
1000
1000
1000
1000
1000
999.999
999.999
999.999
999.999
999.999
999.999
999.998
999.998
999.998
999.997
999.997
999.997
1000
1000
1000
1000
1000
1000
1000
1000
1000
1000
1000
1000
1000
1000
1000
1000
1000
1000
1000
1000
1000
1000
1000
1000
1000
1000
1000
1000
1000
1000
1000
1000
1000
1000
1000
1000
1000
1000
1000
1000
1000
1000
1000
1000
1000
1000
1000
1000
1000
1000
1000
1000
1000
1000
1000
1000
1000
1000
1000
1000
1000
1000
1000
1000
1000
1000
1000
1000
1000
1000
1000
1000
1000
1000
1000
1000
1000
1000
1000
1000
1000
1000
1000
1000
1000
1000
1000
1000
1000
1000
1000
1000
999.999
999.999
999.999
999.999
999.999
999.999
999.998
999.998
1000
1000
1000
1000
1000
1000
1000
1000
1000
1000
1000
1000
1000
1000
1000
1000
1000
1000
1000
1000
1000
1000
1000
1000
1000
1000
1000
1000
1000
1000
1000
1000
1000
1000
1000
1000
1000
1000
1000
1000
1000
1000
1000
1000
1000
1000
1000
1000
1000
1000
1000
1000
1000
1000
1000
1000
1000
1000
1000
1000
1000
1000
1000
1000
1000
1000
1000
1000
1000
1000
1000
1000
1000
1000
1000
1000
1000
1000
1000
1000
1000
1000
1000
1000
1000
1000
1000
1000
1000
1000
1000
1000
1000
1000
1000
1000
1000
999.999
999.999
999.999
1000
1000
1000
1000
1000
1000
1000
1000
1000
1000
1000
1000
1000
1000
1000
1000
1000
1000
1000
1000
1000
1000
1000
1000
1000
1000
1000
1000
1000
1000
1000
1000
1000
1000
1000
1000
1000
1000
1000
1000
1000
1000
1000
1000
1000
1000
1000
1000
1000
1000
1000
1000
1000
1000
1000
1000
1000
1000
1000
1000
1000
1000
1000
1000
1000
1000
1000
1000
1000
1000
1000
1000
1000
1000
1000
1000
1000
1000
1000
1000
1000
1000
1000
1000
1000
1000
1000
1000
1000
1000
1000
1000
1000
1000
1000
1000
1000
1000
1000
1000
1000
1000
1000
1000
1000
1000
1000
1000
1000
1000
1000
1000
1000
1000
1000
1000
1000
1000
1000
1000
1000
1000
1000
1000
1000
1000
1000
1000
1000
1000
1000
1000
1000
1000
1000
1000
1000
1000
1000
1000
1000
1000
1000
1000
1000
1000
1000
1000
1000
1000
1000
1000
1000
1000
1000
1000
1000
1000
1000
1000
1000
1000
1000
1000
1000
1000
1000
1000
1000
1000
1000
1000
1000
1000
1000
1000
1000
1000
1000
1000
1000
1000
1000
1000
1000
1000
1000
1000
1000
1000
1000
1000
1000
1000
1000
1000
1000
1000
1000
1000
1000
1000
1000
1000
1000
1000
1000
1000
1000
1000
1000
1000
1000
1000
1000
1000
1000
1000
1000
1000
1000
1000
1000
1000
1000
1000
1000
1000
1000
1000
1000
1000
1000
1000
1000
1000
1000
1000
1000
1000
1000
1000
1000
1000
1000
1000
1000
1000
1000
1000
1000
1000
1000
1000
1000
1000
1000
1000
1000
1000
1000
1000
1000
1000
1000
1000
1000
1000
1000
1000
1000
1000
1000
1000
1000
1000
1000
1000
1000
1000
1000
1000
1000
1000
1000
1000
1000
1000
1000
1000
1000
1000
1000
1000
1000
1000
1000
1000
1000
1000
1000
1000
1000
1000
1000
1000
1000
1000
1000
1000
1000
1000
1000
1000
1000
1000
1000
1000
1000
1000
1000
1000
1000
1000
1000
1000
1000
1000
1000
1000
1000
1000
1000
1000
1000
1000
1000
1000
1000
1000
1000
1000
1000
1000
1000
1000
1000
1000
1000
1000
1000
1000
1000
1000
1000
1000
1000
1000
1000
1000
1000
1000
1000
1000
1000
1000
1000
1000
1000
1000
1000
1000
1000
1000
1000
1000
1000
1000
1000
1000
1000
1000
1000
1000
1000
1000
1000
1000
1000
1000
1000
1000
1000
1000
1000
1000
1000
1000
1000
1000
1000
1000
1000
1000
1000
1000
1000
1000
1000
1000
1000
1000
1000
1000
1000
1000
1000
1000
1000
1000
1000
1000
1000
1000
1000
1000
1000
1000
1000
1000
1000
1000
1000
1000
1000
1000
1000
1000
1000
1000
1000
1000
1000
1000
1000
1000
1000
1000
1000
1000
1000
1000
1000
1000
1000
1000
1000
1000
1000
1000
1000
1000
1000
1000
1000
1000
1000
1000
1000
1000
1000
1000
1000
1000
1000
1000
1000
1000
1000
1000
1000
1000
1000
1000
1000
1000
1000
1000
1000
1000
1000
1000
1000
1000
1000
1000
1000
1000
1000
1000
1000
1000
1000
1000
1000
1000
1000
1000
1000
1000
1000
1000
1000
1000
1000
1000
1000
1000
1000
1000
1000
1000
1000
1000
1000
1000
1000
1000
1000
1000
1000
1000
1000
1000
1000
1000
1000
1000
1000
1000
1000
1000
1000
1000
1000
1000
1000
1000
1000
1000
1000
1000
1000
1000
1000
1000
1000
1000
1000
1000
1000
1000
1000
1000
1000
1000
1000
1000
1000
1000
1000
1000
1000
1000
1000
1000
1000
1000
1000
1000
1000
1000
1000
1000
1000
1000
1000
1000
1000
1000
1000
1000
1000
1000
1000
1000
1000
1000
1000
1000
1000
1000
1000
1000
1000
1000
1000
1000
1000
1000
1000
1000
1000
1000
1000
1000
1000
1000
1000
1000
1000
1000
1000
1000
1000
1000
1000
1000
1000
1000
1000
1000
1000
1000
1000
1000
1000
1000
1000
1000
1000
1000
1000
1000
1000
1000
1000
1000
1000
1000
1000
1000
1000
1000
1000
1000
1000
1000
1000
1000
1000
1000
1000
1000
1000
1000
1000
1000
1000
1000
1000
1000
1000
1000
1000
1000
1000
1000
1000
1000
1000
1000
1000
1000
1000
1000
1000
1000
1000
1000
1000
1000
1000
1000
1000
1000
1000
1000
1000
1000
1000
1000
1000
1000
1000
1000
1000
1000
1000
1000
1000
1000
1000
1000
1000
1000
1000
1000
1000
1000
1000
1000
1000
1000
1000
1000
1000
1000
1000
1000
1000
1000
1000
1000
1000
1000
1000
1000
1000
1000
1000
1000
1000
1000
1000
1000
1000
1000
1000
1000
1000
1000
1000
1000
1000
1000
1000
1000
1000
1000
1000
1000
1000
1000
1000
1000
1000
1000
1000
1000
1000
1000
1000
1000
1000
1000
1000
1000
1000
1000
1000
1000
1000
1000
1000
1000
1000
1000
1000
1000
1000
1000
1000
1000
1000
1000
1000
1000
1000
1000
1000
1000
1000
1000
1000
1000
1000
1000
1000
1000
1000
1000
1000
1000
1000
1000
1000
1000
1000
1000
1000
1000
1000
1000
1000
1000
1000
1000
1000
1000
1000
1000
1000
1000
1000
1000
1000
1000
1000
1000
1000
1000
1000
1000
1000
1000
1000
1000
1000
1000
1000
1000
1000
1000
1000
1000
1000
1000
1000
1000
1000
1000
1000
1000
1000
1000
1000
1000
1000
1000
1000
1000
1000
1000
1000
1000
1000
1000
1000
1000
1000
1000
1000
1000
1000
1000
1000
1000
1000
1000
1000
1000
1000
1000
1000
1000
1000
1000
1000
1000
1000
1000
1000
1000
1000
1000
1000
1000
1000
1000
1000
1000
1000
1000
1000
1000
1000
1000
1000
1000
1000
1000
1000
1000
1000
1000
1000
1000
1000
1000
1000
1000
1000
1000
1000
1000
1000
1000
1000
1000
1000
1000
1000
1000
1000
1000
1000
1000
1000
1000
1000
1000
1000
1000
1000
1000
1000
1000
1000
1000
1000
1000
1000
1000
1000
1000
1000
1000
1000
1000
1000
1000
1000
1000
1000
1000
1000
1000
1000
1000
1000
1000
1000
1000
1000
1000
1000
1000
1000
1000
1000
1000
1000
1000
1000
1000
1000
1000
1000
1000
1000
1000
1000
1000
1000
1000
1000
1000
1000
1000
1000
1000
1000
1000
1000
1000
1000
1000
1000
1000
1000
1000
1000
1000
1000
1000
1000
1000
1000
1000
1000
1000
1000
1000
1000
1000
1000
1000
1000
1000
1000
1000
1000
1000
1000
1000
1000
1000
1000
1000
1000
1000
1000
1000
1000
1000
1000
1000
1000
1000
1000
1000
1000
1000
1000
1000
1000
1000
1000
1000
1000
1000
1000
1000
1000
1000
1000
1000
1000
1000
1000
1000
1000
1000
1000
1000
1000
1000
1000
1000
1000
1000
1000
1000
1000
1000
1000
1000
1000
1000
999.986
999.98
999.981
999.984
999.986
999.988
999.989
999.99
999.991
999.991
999.992
999.992
999.992
999.992
999.993
999.994
999.995
999.997
999.999
1000
999.986
999.983
999.985
999.987
999.989
999.991
999.992
999.993
999.993
999.994
999.994
999.994
999.994
999.995
999.995
999.996
999.997
999.998
999.999
1000
999.987
999.987
999.988
999.99
999.992
999.993
999.994
999.995
999.995
999.995
999.996
999.996
999.996
999.996
999.997
999.997
999.998
999.999
1000
1000
999.99
999.99
999.992
999.993
999.994
999.995
999.996
999.996
999.997
999.997
999.997
999.997
999.997
999.998
999.998
999.998
999.999
999.999
1000
1000
999.992
999.993
999.994
999.995
999.996
999.997
999.997
999.997
999.998
999.998
999.998
999.998
999.998
999.999
999.999
999.999
999.999
1000
1000
1000
999.995
999.996
999.996
999.997
999.998
999.998
999.998
999.998
999.999
999.999
999.999
999.999
999.999
999.999
999.999
1000
1000
1000
1000
1000
999.997
999.998
999.998
999.998
999.999
999.999
999.999
999.999
999.999
999.999
999.999
999.999
1000
1000
1000
1000
1000
1000
1000
1000
999.999
999.999
999.999
999.999
999.999
999.999
1000
1000
1000
1000
1000
1000
1000
1000
1000
1000
1000
1000
1000
1000
1000
1000
1000
1000
1000
1000
1000
1000
1000
1000
1000
1000
1000
1000
1000
1000
1000
1000
1000
1000
1000
1000
1000
1000
1000
1000
1000
1000
1000
1000
1000
1000
1000
1000
1000
1000
1000
1000
1000
1000
1000
1000
1000
1000
1000
1000
1000
1000
1000
1000
1000
1000
1000
1000
1000
1000
1000
1000
1000
1000
1000
1000
1000
1000
1000
1000
1000
1000
1000
1000
1000
1000
1000
1000
1000
1000
1000
1000
1000
1000
1000
1000
1000
1000
1000
1000
1000
1000
1000
1000
1000
1000
1000
1000
1000
1000
1000
1000
1000
1000
1000
1000
1000
1000
1000
1000
1000
1000
1000
1000
1000
1000
1000
1000
1000
1000
1000
1000
1000
1000
1000
1000
1000
1000
1000
1000
1000
1000
1000
1000
1000
1000
1000
1000
1000
1000
1000
1000
1000
1000
1000
1000
1000
1000
1000
1000
1000
1000
1000
1000
1000
1000
1000
1000
1000
1000
1000
1000
1000
1000
1000
1000
1000
1000
1000
1000
1000
1000
1000
1000
1000
1000
1000
1000
1000
1000
1000
1000
1000
1000
1000
1000
1000
1000
1000
1000
1000
1000
1000
1000
1000
1000
1000
1000
1000
1000
1000
1000
1000
1000
1000
1000
1000
1000
1000
1000
1000
1000
1000
1000
1000
1000
1000
1000
1000
1000
1000
1000
1000
1000
1000
1000
1000
1000
1000
1000
1000
1000
1000
1000
1000
1000
1000
1000
1000
1000
1000
1000
1000
1000
944.555
944.555
944.555
944.555
944.555
944.555
944.555
944.555
944.555
944.555
944.555
944.555
944.555
944.555
944.555
944.555
944.555
944.555
944.555
944.555
944.555
944.555
944.555
944.555
944.555
944.555
944.555
944.555
944.555
944.555
944.555
944.555
944.555
944.555
944.555
944.555
944.555
944.555
944.555
944.555
944.555
944.555
944.555
944.555
944.555
944.555
944.555
944.555
944.555
944.555
944.555
944.555
944.555
944.555
944.555
944.555
944.555
944.555
944.555
944.555
944.555
944.555
944.555
944.555
944.555
944.555
944.555
944.555
944.555
944.555
944.555
944.555
944.555
944.555
944.555
944.555
944.555
944.555
944.555
944.555
944.555
944.555
944.555
944.555
944.555
944.555
944.555
944.555
944.555
944.555
944.555
944.555
944.555
944.555
944.555
944.555
944.555
944.555
944.555
944.555
944.555
944.555
944.555
944.555
944.555
944.555
944.555
944.555
944.555
944.555
944.555
944.555
944.555
944.555
944.555
944.555
944.555
944.555
944.555
944.555
944.555
944.555
944.555
944.555
944.555
944.555
944.555
944.555
944.555
944.555
944.555
944.555
944.555
944.555
944.555
944.555
944.555
944.555
944.555
944.555
944.555
944.555
944.555
944.555
944.555
944.555
944.555
944.555
944.555
944.555
944.555
944.555
944.555
944.555
944.555
944.555
944.555
944.555
944.555
944.555
944.555
944.555
944.555
944.555
944.555
944.555
944.555
944.555
944.555
944.555
944.555
944.555
944.555
944.555
944.555
944.555
944.555
944.555
944.555
944.555
944.555
944.555
944.555
944.555
944.555
944.555
944.555
944.555
944.555
944.555
944.555
944.555
944.555
944.555
944.555
944.555
944.555
944.555
944.555
944.555
944.555
944.555
944.555
944.555
944.555
944.555
944.555
944.555
944.555
944.555
944.555
944.555
944.555
944.555
944.555
944.555
944.555
944.555
944.555
944.555
944.555
944.555
944.555
944.555
944.555
944.555
944.555
944.555
944.555
944.555
944.555
944.555
944.555
944.555
944.555
944.555
944.555
944.555
944.555
944.555
944.555
944.555
944.555
944.555
944.555
944.555
944.555
944.555
944.555
944.555
944.555
944.555
944.555
944.555
944.555
944.555
944.555
944.555
944.555
944.555
944.555
944.555
944.555
944.555
944.555
944.555
944.555
944.555
944.555
944.555
944.555
944.555
944.555
944.555
944.555
944.555
944.555
944.555
944.555
944.555
944.555
944.555
944.555
944.555
944.555
944.555
944.555
944.555
944.555
944.555
944.555
944.555
944.555
944.555
944.555
944.555
944.555
944.555
944.555
944.555
944.555
944.555
944.555
944.555
944.555
944.555
944.555
944.555
944.555
944.555
944.555
944.555
944.555
944.555
944.555
944.555
944.555
944.555
944.555
944.555
944.555
944.555
944.555
944.555
944.555
944.555
944.555
944.555
944.555
944.555
944.555
944.555
944.555
944.555
944.555
944.555
944.555
944.555
944.555
944.555
944.555
944.555
944.555
944.555
944.555
944.555
944.555
944.555
944.555
944.555
944.555
944.555
944.555
944.555
944.555
944.555
944.555
944.555
944.555
944.555
944.555
944.555
944.555
944.555
944.555
944.555
944.555
944.555
944.555
944.555
944.555
944.555
944.555
944.555
944.555
944.555
944.555
944.555
944.555
944.555
944.555
944.555
944.555
944.555
944.555
944.555
944.555
944.555
944.555
944.555
944.555
944.555
944.555
944.555
944.555
944.555
944.555
944.555
944.555
944.555
944.555
944.555
944.555
944.555
944.555
944.555
944.555
944.555
944.555
944.555
944.555
944.555
944.555
944.555
944.555
944.555
944.555
944.555
944.555
944.555
944.555
944.555
944.555
944.555
944.555
944.555
944.555
944.555
944.555
944.555
944.555
944.555
944.555
944.555
944.555
944.555
944.555
944.555
944.555
944.555
944.555
944.555
944.555
944.555
944.555
944.555
944.555
944.555
944.555
944.555
944.555
944.555
944.555
944.555
944.555
944.555
944.555
944.555
944.555
944.555
944.555
944.555
944.555
944.555
944.555
944.555
944.555
944.555
944.555
944.555
944.555
944.555
944.555
944.555
944.555
944.555
944.555
944.555
944.555
944.555
944.555
944.555
944.555
944.555
944.555
944.555
944.555
944.555
944.555
944.555
944.555
944.555
944.555
944.555
944.555
944.555
944.555
944.555
944.555
944.555
944.555
944.555
944.555
944.555
944.555
944.555
944.555
944.555
944.555
944.555
944.555
944.555
944.555
944.555
944.555
944.555
944.555
944.555
944.555
944.555
944.555
944.555
944.555
944.555
944.555
944.555
944.555
944.555
944.555
944.555
944.555
944.555
944.555
944.555
944.555
944.555
944.555
944.555
944.555
944.555
944.555
944.555
944.555
944.555
944.555
944.555
944.555
944.555
944.555
944.555
944.555
944.555
944.555
944.555
944.555
944.555
944.555
944.555
944.555
944.555
944.555
944.555
944.555
944.555
944.555
944.555
944.555
944.555
944.555
944.555
944.555
944.555
944.555
944.555
944.555
944.555
944.555
944.555
944.555
944.555
944.555
944.555
944.555
944.555
944.555
944.555
944.555
944.555
944.555
944.555
944.555
944.555
944.555
944.555
944.555
944.555
944.555
944.555
944.555
944.555
944.555
944.555
944.555
944.555
944.555
944.555
944.555
944.555
944.555
944.555
944.555
944.555
944.555
944.555
944.555
944.555
944.555
944.555
944.555
944.555
944.555
944.555
944.555
944.555
944.555
944.555
944.555
944.555
944.555
944.555
944.555
944.555
944.555
944.555
944.555
944.555
944.555
944.555
944.555
944.555
944.555
944.555
944.555
944.555
944.555
944.555
944.555
944.555
944.555
944.555
944.555
944.555
944.555
944.555
944.555
944.555
944.555
944.555
944.555
944.555
944.556
944.555
944.555
944.555
944.555
944.555
944.555
944.555
944.555
944.555
944.555
944.555
944.555
944.555
944.555
944.555
944.555
944.555
944.555
944.556
944.556
944.555
944.555
944.555
944.556
944.556
944.556
944.556
944.556
944.556
944.556
944.556
944.556
944.556
944.556
944.556
944.555
944.555
944.555
944.556
944.558
944.556
944.556
944.556
944.556
944.556
944.556
944.557
944.557
944.557
944.557
944.557
944.557
944.556
944.556
944.556
944.556
944.556
944.556
944.558
944.561
944.557
944.556
944.557
944.557
944.557
944.558
944.558
944.558
944.558
944.558
944.558
944.558
944.558
944.557
944.557
944.557
944.556
944.557
944.561
944.567
944.558
944.558
944.558
944.558
944.559
944.559
944.559
944.56
944.56
944.56
944.56
944.559
944.559
944.559
944.558
944.558
944.558
944.558
944.567
944.576
944.561
944.56
944.56
944.561
944.561
944.562
944.562
944.563
944.563
944.563
944.563
944.562
944.562
944.561
944.561
944.56
944.56
944.561
944.576
944.592
944.566
944.563
944.563
944.564
944.565
944.566
944.567
944.567
944.567
944.567
944.567
944.567
944.566
944.565
944.564
944.563
944.563
944.566
944.592
944.617
944.573
944.568
944.568
944.57
944.571
944.572
944.573
944.573
944.574
944.574
944.573
944.573
944.572
944.571
944.57
944.568
944.568
944.573
944.617
944.657
944.585
944.576
944.576
944.578
944.58
944.581
944.582
944.583
944.584
944.584
944.583
944.582
944.581
944.58
944.578
944.576
944.576
944.585
944.656
944.717
944.604
944.588
944.587
944.59
944.593
944.595
944.596
944.598
944.598
944.598
944.598
944.596
944.595
944.593
944.59
944.588
944.588
944.604
944.717
944.808
944.631
944.605
944.604
944.608
944.611
944.614
944.617
944.618
944.619
944.619
944.618
944.617
944.614
944.611
944.608
944.604
944.605
944.631
944.807
944.94
944.672
944.631
944.629
944.633
944.638
944.642
944.646
944.648
944.649
944.649
944.648
944.646
944.642
944.638
944.633
944.629
944.631
944.672
944.939
945.127
944.731
944.669
944.664
944.67
944.676
944.682
944.686
944.689
944.691
944.691
944.69
944.687
944.682
944.677
944.67
944.665
944.669
944.731
945.126
945.385
944.814
944.722
944.714
944.721
944.73
944.738
944.744
944.748
944.75
944.75
944.748
944.744
944.738
944.73
944.722
944.715
944.723
944.814
945.384
945.736
944.93
944.797
944.784
944.793
944.804
944.814
944.822
944.828
944.83
944.83
944.828
944.823
944.815
944.805
944.793
944.785
944.798
944.93
945.735
946.201
945.087
944.9
944.88
944.891
944.906
944.919
944.929
944.936
944.94
944.94
944.937
944.93
944.92
944.906
944.892
944.881
944.901
945.088
946.2
946.804
945.298
945.039
945.01
945.023
945.042
945.06
945.073
945.082
945.087
945.087
945.083
945.074
945.061
945.043
945.025
945.011
945.041
945.299
946.804
947.57
945.574
945.225
945.183
945.199
945.224
945.246
945.263
945.275
945.281
945.282
945.276
945.265
945.247
945.226
945.201
945.186
945.228
945.576
947.571
948.523
945.931
945.47
945.412
945.431
945.462
945.49
945.512
945.527
945.535
945.535
945.528
945.514
945.492
945.464
945.434
945.415
945.473
945.935
948.526
949.686
946.385
945.786
945.708
945.731
945.769
945.805
945.833
945.852
945.862
945.862
945.853
945.835
945.808
945.773
945.735
945.713
945.792
946.392
949.692
951.078
946.953
946.19
946.087
946.114
946.161
946.205
946.24
946.264
946.276
946.277
946.266
946.243
946.209
946.166
946.12
946.094
946.198
946.963
951.089
952.712
947.652
946.698
946.565
946.596
946.653
946.707
946.75
946.78
946.795
946.796
946.783
946.755
946.714
946.661
946.605
946.575
946.709
947.669
952.729
954.594
948.502
947.327
947.159
947.194
947.263
947.329
947.381
947.417
947.436
947.437
947.421
947.387
947.337
947.274
947.207
947.173
947.344
948.526
954.619
956.721
949.52
948.096
947.886
947.926
948.008
948.087
948.15
948.193
948.216
948.218
948.198
948.158
948.099
948.023
947.943
947.905
948.119
949.553
956.756
959.08
950.722
949.022
948.764
948.808
948.905
948.999
949.074
949.126
949.153
949.155
949.132
949.085
949.014
948.924
948.831
948.79
949.052
950.766
959.127
961.649
952.12
950.12
949.808
949.857
949.97
950.08
950.168
950.23
950.262
950.265
950.239
950.183
950.1
949.995
949.887
949.841
950.159
952.175
961.708
964.396
953.722
951.404
951.032
951.085
951.216
951.344
951.447
951.52
951.558
951.562
951.531
951.466
951.37
951.248
951.123
951.075
951.452
953.788
964.467
967.281
955.528
952.88
952.445
952.503
952.653
952.801
952.921
953.005
953.05
953.055
953.02
952.945
952.834
952.694
952.552
952.499
952.94
955.605
967.363
970.256
957.532
954.552
954.052
954.116
954.286
954.455
954.593
954.69
954.743
954.749
954.709
954.624
954.497
954.338
954.177
954.119
954.626
957.62
970.348
973.269
959.722
956.418
955.853
955.924
956.115
956.307
956.464
956.576
956.636
956.644
956.599
956.502
956.358
956.179
955.997
955.934
956.505
959.822
973.367
976.263
962.082
958.467
957.84
957.917
958.131
958.346
958.525
958.652
958.722
958.732
958.681
958.571
958.409
958.208
958.006
957.936
958.569
962.191
976.365
979.186
964.589
960.682
959.997
960.084
960.32
960.56
960.761
960.907
960.988
961
960.942
960.817
960.635
960.411
960.188
960.11
960.798
964.706
979.288
981.985
967.212
963.04
962.305
962.403
962.662
962.926
963.151
963.32
963.415
963.429
963.362
963.218
963.015
962.769
962.524
962.434
963.169
967.333
982.086
984.617
969.908
965.512
964.738
964.853
965.135
965.421
965.673
965.871
965.983
966
965.92
965.752
965.525
965.258
964.989
964.882
965.651
970.03
984.712
987.038
972.632
968.066
967.273
967.408
967.712
968.022
968.312
968.541
968.668
968.686
968.595
968.4
968.14
967.85
967.56
967.43
968.214
972.75
987.126
989.213
975.337
970.675
969.881
970.039
970.359
970.699
971.041
971.297
971.435
971.452
971.355
971.139
970.831
970.51
970.204
970.05
970.828
975.45
989.291
991.125
977.983
973.306
972.531
972.707
973.041
973.417
973.805
974.081
974.22
974.238
974.14
973.912
973.561
973.205
972.882
972.708
973.461
978.087
991.193
992.774
980.529
975.926
975.185
975.376
975.72
976.125
976.548
976.838
976.977
976.997
976.895
976.659
976.28
975.892
975.557
975.367
976.08
980.624
992.831
994.172
982.944
978.498
977.805
978.005
978.35
978.78
979.237
979.537
979.672
979.689
979.591
979.346
978.941
978.527
978.188
977.987
978.649
983.029
994.218
995.34
985.203
980.987
980.352
980.555
980.898
981.35
981.823
982.117
982.239
982.248
982.166
981.927
981.511
981.075
980.735
980.53
981.132
985.276
995.376
996.303
987.286
983.361
982.79
982.991
983.328
983.786
984.256
984.527
984.632
984.651
984.568
984.351
983.942
983.5
983.164
982.96
983.497
987.35
996.331
997.088
989.181
985.59
985.086
985.281
985.606
986.058
986.509
986.752
986.844
986.855
986.794
986.594
986.202
985.769
985.443
985.245
985.717
989.237
997.109
997.722
990.883
987.652
987.215
987.4
987.709
988.142
988.561
988.775
988.848
988.851
988.808
988.635
988.272
987.858
987.548
987.359
987.768
990.933
997.739
998.23
992.389
989.531
989.157
989.33
989.619
990.021
990.398
990.579
990.644
990.646
990.604
990.459
990.134
989.751
989.462
989.286
989.637
992.439
998.243
998.633
993.709
991.219
990.903
991.06
991.324
991.689
992.021
992.176
992.226
992.23
992.193
992.071
991.786
991.439
991.175
991.015
991.313
993.757
998.644
998.95
994.85
992.711
992.447
992.589
992.825
993.151
993.436
993.56
993.598
993.605
993.573
993.474
993.231
992.924
992.687
992.543
992.794
994.898
998.961
999.197
995.825
994.012
993.794
993.919
994.128
994.411
994.65
994.749
994.78
994.789
994.757
994.679
994.476
994.211
994.003
993.876
994.086
995.872
999.209
999.389
996.648
995.131
994.953
995.061
995.242
995.484
995.681
995.764
995.786
995.791
995.769
995.702
995.536
995.311
995.132
995.022
995.197
996.694
999.402
999.537
997.333
996.08
995.936
996.029
996.182
996.386
996.546
996.609
996.628
996.627
996.614
996.56
996.427
996.24
996.088
995.995
996.14
997.38
999.552
999.651
997.898
996.875
996.76
996.837
996.965
997.134
997.261
997.309
997.325
997.323
997.311
997.271
997.166
997.014
996.887
996.81
996.929
997.944
999.666
999.737
998.357
997.532
997.441
997.505
997.611
997.748
997.848
997.885
997.898
997.895
997.887
997.854
997.774
997.652
997.548
997.484
997.583
998.404
999.754
999.803
998.727
998.069
997.998
998.05
998.136
998.246
998.325
998.352
998.361
998.362
998.355
998.328
998.266
998.171
998.087
998.036
998.117
998.773
999.82
999.852
999.021
998.503
998.448
998.489
998.559
998.646
998.707
998.729
998.735
998.738
998.729
998.71
998.662
998.589
998.522
998.482
998.549
999.068
999.869
999.889
999.253
998.849
998.807
998.84
998.895
998.964
999.012
999.029
999.033
999.034
999.026
999.012
998.977
998.922
998.87
998.838
998.893
999.299
999.906
999.916
999.434
999.122
999.091
999.116
999.161
999.215
999.251
999.264
999.267
999.266
999.262
999.251
999.225
999.184
999.144
999.12
999.166
999.479
999.933
999.936
999.573
999.336
999.312
999.333
999.368
999.409
999.437
999.448
999.45
999.448
999.444
999.436
999.418
999.388
999.358
999.341
999.378
999.618
999.952
999.951
999.68
999.502
999.484
999.5
999.528
999.56
999.581
999.589
999.591
999.59
999.585
999.578
999.566
999.545
999.523
999.511
999.543
999.724
999.967
999.962
999.76
999.628
999.616
999.628
999.65
999.675
999.691
999.697
999.699
999.698
999.694
999.689
999.68
999.665
999.65
999.642
999.668
999.803
999.977
999.97
999.821
999.724
999.715
999.726
999.743
999.762
999.774
999.779
999.78
999.78
999.777
999.773
999.766
999.756
999.745
999.741
999.763
999.862
999.984
999.976
999.866
999.796
999.79
999.799
999.813
999.827
999.836
999.84
999.841
999.841
999.839
999.836
999.831
999.824
999.817
999.815
999.834
999.905
999.99
999.98
999.899
999.85
999.847
999.854
999.865
999.875
999.882
999.885
999.886
999.886
999.885
999.883
999.88
999.875
999.87
999.871
999.886
999.936
999.993
999.983
999.924
999.89
999.888
999.895
999.903
999.911
999.916
999.918
999.919
999.92
999.919
999.918
999.915
999.912
999.91
999.911
999.923
999.958
999.996
999.985
999.942
999.919
999.919
999.924
999.931
999.937
999.94
999.942
999.944
999.944
999.944
999.943
999.941
999.94
999.938
999.94
999.95
999.974
999.997
999.986
999.955
999.94
999.941
999.946
999.951
999.956
999.958
999.96
999.961
999.961
999.961
999.961
999.96
999.959
999.959
999.961
999.969
999.984
999.998
999.987
999.965
999.956
999.958
999.962
999.966
999.969
999.971
999.973
999.973
999.974
999.974
999.974
999.974
999.973
999.974
999.976
999.981
999.991
999.999
999.987
999.972
999.968
999.97
999.974
999.977
999.979
999.981
999.982
999.982
999.983
999.983
999.983
999.983
999.983
999.984
999.986
999.99
999.995
1000
999.987
999.978
999.977
999.98
999.982
999.985
999.986
999.987
999.988
999.989
999.989
999.989
999.989
999.99
999.99
999.991
999.992
999.995
999.998
1000
1000
1000
1000
1000
1000
1000
1000
1000
1000
1000
1000
1000
1000
1000
1000
1000
1000
1000
1000
1000
1000
1000
1000
1000
1000
1000
1000
1000
1000
1000
1000
1000
1000
1000
1000
1000
1000
1000
1000
1000
1000
1000
1000
1000
1000
1000
1000
1000
1000
1000
1000
1000
1000
1000
1000
1000
1000
1000
1000
1000
1000
1000
1000
1000
1000
1000
1000
1000
1000
1000
1000
1000
1000
1000
1000
1000
1000
1000
1000
1000
1000
1000
1000
1000
1000
1000
1000
1000
1000
1000
1000
1000
1000
1000
1000
1000
1000
1000
1000
1000
1000
1000
1000
1000
1000
1000
1000
1000
1000
1000
1000
1000
1000
1000
1000
1000
1000
1000
1000
1000
1000
1000
1000
1000
1000
1000
1000
1000
1000
1000
1000
1000
1000
1000
1000
1000
1000
1000
1000
1000
1000