/*--------------------------------*- C++ -*----------------------------------*\
| =========                 |                                                 |
| \\      /  F ield         | OpenFOAM: The Open Source CFD Toolbox           |
|  \\    /   O peration     | Version:  2.1.0                                 |
|   \\  /    A nd           | Web:      www.OpenFOAM.org                      |
|    \\/     M anipulation  |                                                 |
\*---------------------------------------------------------------------------*/
FoamFile
{
    version     2.0;
    format      ascii;
    class       volVectorField;
    location    "0.14";
    object      U;
}
// * * * * * * * * * * * * * * * * * * * * * * * * * * * * * * * * * * * * * //

dimensions      [0 1 -1 0 0 0 0];

internalField   nonuniform List<vector> 
6400
(
(-1.1604 -5.72137e-06 0)
(-1.15985 -0.00019553 0)
(-1.15897 -0.000293058 0)
(-1.15764 -0.000367286 0)
(-1.15609 -0.000426803 0)
(-1.15428 -0.000478709 0)
(-1.15232 -0.00052154 0)
(-1.15017 -0.000559746 0)
(-1.14791 -0.000592471 0)
(-1.14549 -0.000624044 0)
(-1.14298 -0.000653204 0)
(-1.14032 -0.000683331 0)
(-1.13757 -0.000712732 0)
(-1.13468 -0.000744101 0)
(-1.13169 -0.000775793 0)
(-1.12854 -0.000810241 0)
(-1.12528 -0.000846463 0)
(-1.12184 -0.000886996 0)
(-1.11826 -0.000929451 0)
(-1.11449 -0.000973697 0)
(-1.11056 -0.00101726 0)
(-1.10645 -0.00106103 0)
(-1.10217 -0.00110386 0)
(-1.09772 -0.00114693 0)
(-1.0931 -0.00118945 0)
(-1.08832 -0.00123214 0)
(-1.08336 -0.0012746 0)
(-1.07824 -0.00131757 0)
(-1.07294 -0.00136048 0)
(-1.06748 -0.00140389 0)
(-1.06184 -0.00144757 0)
(-1.05603 -0.00149193 0)
(-1.05005 -0.00153679 0)
(-1.04388 -0.00158262 0)
(-1.03753 -0.00162929 0)
(-1.031 -0.00167693 0)
(-1.02427 -0.00172573 0)
(-1.01735 -0.00177606 0)
(-1.01023 -0.00182793 0)
(-1.0029 -0.00188144 0)
(-0.995353 -0.0019369 0)
(-0.987584 -0.00199416 0)
(-0.979585 -0.00205339 0)
(-0.971347 -0.00211469 0)
(-0.962864 -0.00217803 0)
(-0.954126 -0.00224333 0)
(-0.945127 -0.00231065 0)
(-0.935857 -0.00238016 0)
(-0.926313 -0.00244948 0)
(-0.916492 -0.00252055 0)
(-0.906379 -0.00259684 0)
(-0.895959 -0.00267567 0)
(-0.885231 -0.00275397 0)
(-0.874197 -0.00282998 0)
(-0.862865 -0.00290506 0)
(-0.851235 -0.00298048 0)
(-0.839305 -0.00305676 0)
(-0.827071 -0.00313422 0)
(-0.81453 -0.00321247 0)
(-0.801678 -0.00329163 0)
(-0.78851 -0.00337208 0)
(-0.775023 -0.00345376 0)
(-0.761209 -0.0035369 0)
(-0.747065 -0.00362161 0)
(-0.732581 -0.00370836 0)
(-0.71775 -0.0037975 0)
(-0.702563 -0.00388897 0)
(-0.68701 -0.00398265 0)
(-0.671084 -0.00407828 0)
(-0.654776 -0.00417585 0)
(-0.638078 -0.004276 0)
(-0.620978 -0.00437969 0)
(-0.603462 -0.00448711 0)
(-0.585514 -0.00459864 0)
(-0.567117 -0.00471502 0)
(-0.548248 -0.00483779 0)
(-0.528878 -0.00496928 0)
(-0.508966 -0.00511282 0)
(-0.488456 -0.00527314 0)
(-0.467268 -0.00545646 0)
(-0.445297 -0.00567064 0)
(-0.422403 -0.00592515 0)
(-0.398407 -0.00622996 0)
(-0.373096 -0.00659345 0)
(-0.346222 -0.00702384 0)
(-0.31751 -0.00752707 0)
(-0.286676 -0.00810292 0)
(-0.253463 -0.00873735 0)
(-0.21772 -0.00939005 0)
(-0.179558 -0.00997084 0)
(-0.139627 -0.0102936 0)
(-0.0996967 -0.00997538 0)
(-0.0634093 -0.00844638 0)
(-0.0360695 -0.00543061 0)
(-0.0221487 -0.00163399 0)
(-0.0249525 0.00305469 0)
(-0.0529311 0.0111264 0)
(-0.130336 0.0280545 0)
(-0.319825 0.0671409 0)
(-0.899607 0.186825 0)
(-1.45593 -0.00021756 0)
(-1.45308 -0.00101752 0)
(-1.45079 -0.00139849 0)
(-1.44729 -0.0016413 0)
(-1.44362 -0.00180701 0)
(-1.43968 -0.00193606 0)
(-1.43577 -0.00203409 0)
(-1.43171 -0.00211842 0)
(-1.42773 -0.00218855 0)
(-1.42362 -0.00225661 0)
(-1.41959 -0.00231947 0)
(-1.41544 -0.00238571 0)
(-1.41135 -0.00245106 0)
(-1.40715 -0.00252218 0)
(-1.40298 -0.00259476 0)
(-1.3987 -0.00267443 0)
(-1.39443 -0.00275778 0)
(-1.39006 -0.00284965 0)
(-1.3857 -0.00294586 0)
(-1.38124 -0.00304852 0)
(-1.37674 -0.00315191 0)
(-1.37215 -0.003258 0)
(-1.36749 -0.00336369 0)
(-1.36273 -0.00347156 0)
(-1.35789 -0.00357945 0)
(-1.35294 -0.00368875 0)
(-1.3479 -0.00379852 0)
(-1.34275 -0.0039102 0)
(-1.33749 -0.00402227 0)
(-1.33212 -0.00413593 0)
(-1.32664 -0.00425082 0)
(-1.32105 -0.00436771 0)
(-1.31533 -0.00448605 0)
(-1.3095 -0.00460718 0)
(-1.30354 -0.00473077 0)
(-1.29745 -0.00485697 0)
(-1.29124 -0.00498608 0)
(-1.28489 -0.00511914 0)
(-1.27841 -0.00525592 0)
(-1.27178 -0.0053968 0)
(-1.26502 -0.0055426 0)
(-1.25811 -0.00569297 0)
(-1.25104 -0.00584845 0)
(-1.24382 -0.00600943 0)
(-1.23644 -0.0061758 0)
(-1.22889 -0.00634759 0)
(-1.22116 -0.00652513 0)
(-1.21325 -0.00670886 0)
(-1.20515 -0.00689398 0)
(-1.19687 -0.00708108 0)
(-1.1884 -0.00727347 0)
(-1.17977 -0.00746755 0)
(-1.171 -0.00766132 0)
(-1.16206 -0.00785209 0)
(-1.15296 -0.00804128 0)
(-1.1437 -0.00823076 0)
(-1.13427 -0.00842155 0)
(-1.12469 -0.00861438 0)
(-1.11495 -0.00880862 0)
(-1.10505 -0.00900437 0)
(-1.09499 -0.0092019 0)
(-1.08479 -0.00940097 0)
(-1.07443 -0.00960194 0)
(-1.06393 -0.00980512 0)
(-1.05329 -0.0100115 0)
(-1.04251 -0.0102215 0)
(-1.0316 -0.0104354 0)
(-1.02056 -0.0106531 0)
(-1.00939 -0.0108741 0)
(-0.99809 -0.0110983 0)
(-0.986667 -0.0113279 0)
(-0.975116 -0.011566 0)
(-0.963428 -0.0118136 0)
(-0.951595 -0.0120722 0)
(-0.939603 -0.0123441 0)
(-0.927435 -0.0126337 0)
(-0.915068 -0.0129475 0)
(-0.902469 -0.0132945 0)
(-0.889595 -0.0136868 0)
(-0.876393 -0.01414 0)
(-0.862793 -0.0146732 0)
(-0.848711 -0.0153092 0)
(-0.834044 -0.0160733 0)
(-0.818669 -0.0169872 0)
(-0.802442 -0.0180711 0)
(-0.78521 -0.0193383 0)
(-0.76682 -0.0207851 0)
(-0.747152 -0.0223722 0)
(-0.726156 -0.0239948 0)
(-0.703928 -0.0254263 0)
(-0.680821 -0.0262185 0)
(-0.65754 -0.025522 0)
(-0.635286 -0.0220691 0)
(-0.616655 -0.0147588 0)
(-0.608372 -0.00358076 0)
(-0.618891 0.0116835 0)
(-0.660717 0.0373276 0)
(-0.754279 0.0866157 0)
(-0.940505 0.191605 0)
(-1.39438 0.494232 0)
(-1.61634 -0.000752267 0)
(-1.61235 -0.00226466 0)
(-1.61055 -0.00300401 0)
(-1.60707 -0.00343162 0)
(-1.60356 -0.00368998 0)
(-1.59969 -0.00386541 0)
(-1.59598 -0.00398476 0)
(-1.59205 -0.00407985 0)
(-1.58829 -0.00415515 0)
(-1.58437 -0.0042277 0)
(-1.58061 -0.00429508 0)
(-1.57671 -0.00436772 0)
(-1.57294 -0.00444111 0)
(-1.56905 -0.00452303 0)
(-1.56525 -0.00460827 0)
(-1.56135 -0.00470277 0)
(-1.55751 -0.00480146 0)
(-1.55359 -0.004908 0)
(-1.54972 -0.00501976 0)
(-1.54578 -0.0051424 0)
(-1.54186 -0.0052699 0)
(-1.53788 -0.00540417 0)
(-1.53388 -0.00554088 0)
(-1.52982 -0.00568285 0)
(-1.52573 -0.00582705 0)
(-1.52158 -0.00597443 0)
(-1.51738 -0.00612394 0)
(-1.51311 -0.00627683 0)
(-1.50879 -0.0064308 0)
(-1.5044 -0.0065871 0)
(-1.49997 -0.00674563 0)
(-1.49546 -0.00690684 0)
(-1.4909 -0.00706986 0)
(-1.48627 -0.00723658 0)
(-1.48158 -0.00740663 0)
(-1.47684 -0.0075799 0)
(-1.47203 -0.00775644 0)
(-1.46716 -0.00793774 0)
(-1.46224 -0.0081231 0)
(-1.45726 -0.00831305 0)
(-1.45222 -0.00850857 0)
(-1.44713 -0.00870907 0)
(-1.44198 -0.00891531 0)
(-1.43679 -0.00912784 0)
(-1.43156 -0.00934626 0)
(-1.42628 -0.00957082 0)
(-1.42096 -0.0098018 0)
(-1.41561 -0.0100388 0)
(-1.41022 -0.0102786 0)
(-1.40483 -0.0105192 0)
(-1.3994 -0.0107575 0)
(-1.39397 -0.0109914 0)
(-1.38853 -0.0112247 0)
(-1.38309 -0.0114575 0)
(-1.37765 -0.0116887 0)
(-1.3722 -0.0119182 0)
(-1.36676 -0.0121465 0)
(-1.36134 -0.012374 0)
(-1.35594 -0.0126001 0)
(-1.35058 -0.0128245 0)
(-1.34527 -0.0130465 0)
(-1.34002 -0.0132653 0)
(-1.33486 -0.0134806 0)
(-1.32979 -0.0136926 0)
(-1.32484 -0.013902 0)
(-1.32003 -0.0141084 0)
(-1.31539 -0.014312 0)
(-1.31092 -0.0145126 0)
(-1.30667 -0.0147095 0)
(-1.30266 -0.0149017 0)
(-1.29891 -0.0150924 0)
(-1.29545 -0.015287 0)
(-1.29231 -0.0154877 0)
(-1.2895 -0.0156966 0)
(-1.28705 -0.0159177 0)
(-1.28496 -0.0161579 0)
(-1.28326 -0.0164273 0)
(-1.28194 -0.0167394 0)
(-1.28099 -0.0171118 0)
(-1.2804 -0.0175666 0)
(-1.28012 -0.0181302 0)
(-1.28012 -0.018833 0)
(-1.28032 -0.0197096 0)
(-1.28065 -0.0207927 0)
(-1.28099 -0.0221103 0)
(-1.28124 -0.0236778 0)
(-1.28128 -0.0254853 0)
(-1.28104 -0.0274741 0)
(-1.28046 -0.0294987 0)
(-1.27959 -0.0312571 0)
(-1.2786 -0.0321862 0)
(-1.2778 -0.0313151 0)
(-1.27764 -0.0271922 0)
(-1.27918 -0.017947 0)
(-1.28573 -0.0020077 0)
(-1.29982 0.0225045 0)
(-1.33322 0.0632517 0)
(-1.4001 0.138441 0)
(-1.53024 0.290052 0)
(-1.77915 0.674021 0)
(-1.75961 -0.00141912 0)
(-1.75535 -0.00339391 0)
(-1.75435 -0.00442478 0)
(-1.75155 -0.00500834 0)
(-1.74889 -0.00534404 0)
(-1.74581 -0.0055504 0)
(-1.74301 -0.0056786 0)
(-1.73994 -0.00577041 0)
(-1.73714 -0.00583844 0)
(-1.73416 -0.00590142 0)
(-1.7314 -0.0059601 0)
(-1.72849 -0.00602423 0)
(-1.72578 -0.00609112 0)
(-1.72295 -0.00616778 0)
(-1.72028 -0.00624972 0)
(-1.71751 -0.00634182 0)
(-1.71487 -0.00643944 0)
(-1.71216 -0.00654463 0)
(-1.70954 -0.00665593 0)
(-1.70687 -0.00677949 0)
(-1.70427 -0.00691029 0)
(-1.70164 -0.00704972 0)
(-1.69906 -0.00719327 0)
(-1.69646 -0.00734355 0)
(-1.69391 -0.00749788 0)
(-1.69134 -0.00765587 0)
(-1.6888 -0.00781706 0)
(-1.68625 -0.00798185 0)
(-1.68373 -0.00814764 0)
(-1.68122 -0.00831533 0)
(-1.67873 -0.00848532 0)
(-1.67624 -0.00865715 0)
(-1.67379 -0.00883005 0)
(-1.67135 -0.00900573 0)
(-1.66895 -0.0091838 0)
(-1.66658 -0.00936407 0)
(-1.66424 -0.00954652 0)
(-1.66194 -0.00973221 0)
(-1.65969 -0.00992019 0)
(-1.65749 -0.010111 0)
(-1.65535 -0.0103051 0)
(-1.65327 -0.0105016 0)
(-1.65127 -0.010701 0)
(-1.64935 -0.0109035 0)
(-1.64752 -0.0111083 0)
(-1.64581 -0.0113155 0)
(-1.64421 -0.0115246 0)
(-1.64274 -0.0117338 0)
(-1.64141 -0.0119421 0)
(-1.64025 -0.0121507 0)
(-1.63923 -0.0123563 0)
(-1.63837 -0.0125548 0)
(-1.63765 -0.0127497 0)
(-1.63709 -0.0129428 0)
(-1.63669 -0.0131315 0)
(-1.63648 -0.0133141 0)
(-1.63646 -0.0134899 0)
(-1.63664 -0.0136582 0)
(-1.63704 -0.0138183 0)
(-1.63769 -0.0139694 0)
(-1.63859 -0.0141101 0)
(-1.63976 -0.0142391 0)
(-1.64123 -0.0143552 0)
(-1.64301 -0.0144583 0)
(-1.64513 -0.0145489 0)
(-1.6476 -0.0146264 0)
(-1.65044 -0.0146905 0)
(-1.65366 -0.0147409 0)
(-1.65729 -0.0147779 0)
(-1.66135 -0.0147983 0)
(-1.66583 -0.0148064 0)
(-1.67077 -0.0148121 0)
(-1.67614 -0.0148199 0)
(-1.68195 -0.0148332 0)
(-1.68818 -0.0148583 0)
(-1.69482 -0.0149052 0)
(-1.70182 -0.014988 0)
(-1.70917 -0.0151247 0)
(-1.7168 -0.0153383 0)
(-1.72466 -0.0156566 0)
(-1.73269 -0.0161117 0)
(-1.74082 -0.0167395 0)
(-1.74896 -0.0175796 0)
(-1.75702 -0.0186705 0)
(-1.76494 -0.0200429 0)
(-1.77264 -0.0217102 0)
(-1.78006 -0.0236542 0)
(-1.7872 -0.0257973 0)
(-1.79405 -0.0279666 0)
(-1.80069 -0.0298255 0)
(-1.80718 -0.0307762 0)
(-1.81356 -0.0298405 0)
(-1.81978 -0.0255325 0)
(-1.82593 -0.0157631 0)
(-1.83408 0.00142301 0)
(-1.84178 0.0304549 0)
(-1.85959 0.0798075 0)
(-1.89433 0.170203 0)
(-1.95498 0.347722 0)
(-2.0432 0.72638 0)
(-1.90717 -0.00200279 0)
(-1.9033 -0.00423101 0)
(-1.90321 -0.00543512 0)
(-1.90144 -0.00611304 0)
(-1.89997 -0.0064903 0)
(-1.89814 -0.00670343 0)
(-1.89666 -0.00682186 0)
(-1.89493 -0.00689359 0)
(-1.89353 -0.00693816 0)
(-1.89196 -0.00697485 0)
(-1.89068 -0.00700752 0)
(-1.88927 -0.00704466 0)
(-1.88812 -0.00708551 0)
(-1.88688 -0.0071362 0)
(-1.88586 -0.00719325 0)
(-1.8848 -0.0072604 0)
(-1.88392 -0.00733489 0)
(-1.88301 -0.0074169 0)
(-1.88227 -0.00750573 0)
(-1.88153 -0.00760557 0)
(-1.88093 -0.00771276 0)
(-1.88037 -0.00782755 0)
(-1.87993 -0.00794616 0)
(-1.87954 -0.00807042 0)
(-1.87927 -0.00819925 0)
(-1.87908 -0.00833152 0)
(-1.87899 -0.00846666 0)
(-1.87899 -0.00860393 0)
(-1.87909 -0.00874107 0)
(-1.8793 -0.00887863 0)
(-1.87961 -0.0090172 0)
(-1.88004 -0.00915559 0)
(-1.88058 -0.00929349 0)
(-1.88124 -0.00943219 0)
(-1.88203 -0.00957083 0)
(-1.88294 -0.00970946 0)
(-1.88399 -0.00984845 0)
(-1.88518 -0.00998783 0)
(-1.88651 -0.0101266 0)
(-1.88799 -0.0102656 0)
(-1.88963 -0.0104043 0)
(-1.89143 -0.0105419 0)
(-1.8934 -0.0106787 0)
(-1.89554 -0.0108145 0)
(-1.89786 -0.0109484 0)
(-1.90037 -0.0110801 0)
(-1.90307 -0.0112092 0)
(-1.90596 -0.0113333 0)
(-1.90906 -0.0114526 0)
(-1.91235 -0.0115702 0)
(-1.91586 -0.011686 0)
(-1.91958 -0.0117936 0)
(-1.92351 -0.0118936 0)
(-1.92767 -0.0119893 0)
(-1.93206 -0.0120778 0)
(-1.93667 -0.0121566 0)
(-1.94151 -0.0122248 0)
(-1.94658 -0.0122815 0)
(-1.95188 -0.0123261 0)
(-1.95741 -0.0123575 0)
(-1.96317 -0.0123749 0)
(-1.96915 -0.0123766 0)
(-1.97535 -0.0123612 0)
(-1.98177 -0.0123287 0)
(-1.9884 -0.0122804 0)
(-1.99525 -0.0122164 0)
(-2.00229 -0.012136 0)
(-2.00953 -0.0120389 0)
(-2.01696 -0.0119269 0)
(-2.02457 -0.0117959 0)
(-2.03237 -0.011646 0)
(-2.04037 -0.0114875 0)
(-2.04859 -0.0113317 0)
(-2.05702 -0.0111867 0)
(-2.06565 -0.0110614 0)
(-2.07446 -0.010968 0)
(-2.08345 -0.0109235 0)
(-2.09257 -0.0109488 0)
(-2.10183 -0.0110702 0)
(-2.11118 -0.0113187 0)
(-2.12059 -0.0117296 0)
(-2.13005 -0.0123407 0)
(-2.1395 -0.0131927 0)
(-2.14892 -0.0143249 0)
(-2.15827 -0.0157658 0)
(-2.16752 -0.0175238 0)
(-2.17665 -0.019574 0)
(-2.18565 -0.0218288 0)
(-2.19449 -0.0241022 0)
(-2.20311 -0.0260523 0)
(-2.21148 -0.027099 0)
(-2.2194 -0.0263322 0)
(-2.2264 -0.0223729 0)
(-2.23196 -0.0132322 0)
(-2.23708 0.00344656 0)
(-2.23753 0.0332969 0)
(-2.23925 0.0856088 0)
(-2.24162 0.180891 0)
(-2.23546 0.361615 0)
(-2.21166 0.690947 0)
(-2.06114 -0.00233644 0)
(-2.05826 -0.00459794 0)
(-2.05943 -0.00583186 0)
(-2.05926 -0.00651909 0)
(-2.05949 -0.00688677 0)
(-2.05949 -0.00707501 0)
(-2.05985 -0.00716068 0)
(-2.06004 -0.00719405 0)
(-2.06056 -0.0071981 0)
(-2.06097 -0.00719172 0)
(-2.06166 -0.00718126 0)
(-2.06229 -0.00717308 0)
(-2.06318 -0.00716845 0)
(-2.06404 -0.00717235 0)
(-2.06513 -0.0071825 0)
(-2.06624 -0.00720101 0)
(-2.06754 -0.00722747 0)
(-2.06889 -0.00726099 0)
(-2.07043 -0.00730101 0)
(-2.07204 -0.00734961 0)
(-2.07381 -0.00740453 0)
(-2.07568 -0.0074653 0)
(-2.07771 -0.00752834 0)
(-2.07986 -0.00759387 0)
(-2.08217 -0.00766285 0)
(-2.08462 -0.00773536 0)
(-2.08722 -0.00780963 0)
(-2.08997 -0.00788405 0)
(-2.09287 -0.00795715 0)
(-2.09593 -0.00802949 0)
(-2.09914 -0.00810152 0)
(-2.1025 -0.00817197 0)
(-2.10603 -0.00824113 0)
(-2.1097 -0.00831042 0)
(-2.11354 -0.0083784 0)
(-2.11752 -0.00844538 0)
(-2.12166 -0.00851224 0)
(-2.12595 -0.00857865 0)
(-2.13039 -0.00864383 0)
(-2.13497 -0.00870871 0)
(-2.13969 -0.0087727 0)
(-2.14455 -0.00883522 0)
(-2.14954 -0.00889664 0)
(-2.15466 -0.00895662 0)
(-2.1599 -0.00901446 0)
(-2.16526 -0.00907003 0)
(-2.17073 -0.00912283 0)
(-2.17631 -0.00917147 0)
(-2.18199 -0.00921619 0)
(-2.18776 -0.00925849 0)
(-2.19363 -0.00929883 0)
(-2.19958 -0.00933155 0)
(-2.20563 -0.00935417 0)
(-2.21177 -0.00936906 0)
(-2.21801 -0.00937547 0)
(-2.22435 -0.00937217 0)
(-2.23079 -0.00935909 0)
(-2.23733 -0.00933553 0)
(-2.24396 -0.00930098 0)
(-2.25067 -0.00925454 0)
(-2.25747 -0.00919523 0)
(-2.26435 -0.00912149 0)
(-2.27132 -0.00903111 0)
(-2.27836 -0.00892376 0)
(-2.2855 -0.00880218 0)
(-2.29271 -0.00866653 0)
(-2.30002 -0.00851552 0)
(-2.30741 -0.00834841 0)
(-2.3149 -0.00816525 0)
(-2.32247 -0.00796477 0)
(-2.33017 -0.00774446 0)
(-2.33797 -0.00750803 0)
(-2.34586 -0.00727327 0)
(-2.35385 -0.00705269 0)
(-2.36194 -0.00685527 0)
(-2.37012 -0.00669406 0)
(-2.37841 -0.00658678 0)
(-2.38678 -0.00655578 0)
(-2.39525 -0.00662853 0)
(-2.4038 -0.00683772 0)
(-2.41242 -0.00722004 0)
(-2.42109 -0.00781383 0)
(-2.42983 -0.00865886 0)
(-2.43859 -0.00979689 0)
(-2.44738 -0.0112538 0)
(-2.45619 -0.0130334 0)
(-2.46502 -0.0151134 0)
(-2.47384 -0.0174103 0)
(-2.48261 -0.0197436 0)
(-2.49122 -0.0217869 0)
(-2.49953 -0.0230104 0)
(-2.50714 -0.0226122 0)
(-2.51329 -0.0194443 0)
(-2.51699 -0.0117399 0)
(-2.51847 0.00318635 0)
(-2.51149 0.0311659 0)
(-2.49811 0.080965 0)
(-2.47091 0.171719 0)
(-2.40903 0.33681 0)
(-2.31139 0.600605 0)
(-2.21454 -0.00232128 0)
(-2.21293 -0.0043259 0)
(-2.21554 -0.00542793 0)
(-2.21721 -0.00602982 0)
(-2.21938 -0.00633354 0)
(-2.22145 -0.00646532 0)
(-2.22387 -0.0064995 0)
(-2.22621 -0.00648209 0)
(-2.22882 -0.00643705 0)
(-2.23139 -0.00637988 0)
(-2.23418 -0.0063196 0)
(-2.23697 -0.00625991 0)
(-2.23994 -0.0062037 0)
(-2.24294 -0.00615411 0)
(-2.24611 -0.00611092 0)
(-2.24933 -0.00607437 0)
(-2.25268 -0.00604488 0)
(-2.25611 -0.00602287 0)
(-2.25968 -0.00600746 0)
(-2.26332 -0.00599936 0)
(-2.26708 -0.00599677 0)
(-2.27092 -0.00599963 0)
(-2.27487 -0.00600446 0)
(-2.27892 -0.00600877 0)
(-2.28308 -0.00601276 0)
(-2.28735 -0.00601865 0)
(-2.29175 -0.00602588 0)
(-2.29626 -0.00603256 0)
(-2.30089 -0.00603803 0)
(-2.30564 -0.00604319 0)
(-2.31049 -0.0060484 0)
(-2.31546 -0.00605268 0)
(-2.32054 -0.00605687 0)
(-2.32571 -0.00606253 0)
(-2.33099 -0.00606829 0)
(-2.33635 -0.00607479 0)
(-2.34181 -0.00608312 0)
(-2.34734 -0.00609301 0)
(-2.35294 -0.00610424 0)
(-2.35862 -0.00611742 0)
(-2.36435 -0.0061322 0)
(-2.37015 -0.00614831 0)
(-2.37599 -0.00616575 0)
(-2.38187 -0.00618429 0)
(-2.38779 -0.00620328 0)
(-2.39375 -0.00622245 0)
(-2.39973 -0.00624118 0)
(-2.40574 -0.00625853 0)
(-2.41177 -0.00627443 0)
(-2.41782 -0.00628927 0)
(-2.42388 -0.00630219 0)
(-2.42995 -0.00630995 0)
(-2.43606 -0.00631022 0)
(-2.44216 -0.00630154 0)
(-2.44825 -0.00628363 0)
(-2.45433 -0.00625666 0)
(-2.46041 -0.00622076 0)
(-2.46649 -0.00617526 0)
(-2.47256 -0.00611937 0)
(-2.47863 -0.0060518 0)
(-2.48471 -0.00597131 0)
(-2.49079 -0.00587616 0)
(-2.49688 -0.0057629 0)
(-2.50298 -0.00562949 0)
(-2.5091 -0.00548112 0)
(-2.51525 -0.00531824 0)
(-2.52143 -0.00513799 0)
(-2.52764 -0.00493931 0)
(-2.53389 -0.00472028 0)
(-2.54018 -0.0044826 0)
(-2.54653 -0.00422854 0)
(-2.55292 -0.00395329 0)
(-2.55936 -0.00368075 0)
(-2.56585 -0.00342333 0)
(-2.57239 -0.00318598 0)
(-2.579 -0.00298204 0)
(-2.5857 -0.00282962 0)
(-2.59247 -0.00275172 0)
(-2.59936 -0.00277625 0)
(-2.60635 -0.00293693 0)
(-2.61347 -0.00327161 0)
(-2.62072 -0.00381919 0)
(-2.62811 -0.00461477 0)
(-2.63566 -0.0057054 0)
(-2.64336 -0.00711657 0)
(-2.65123 -0.00884652 0)
(-2.65928 -0.0108838 0)
(-2.66746 -0.0131541 0)
(-2.67572 -0.0154944 0)
(-2.68391 -0.0176182 0)
(-2.69177 -0.0190755 0)
(-2.69873 -0.0192056 0)
(-2.70388 -0.0171048 0)
(-2.70568 -0.0113866 0)
(-2.70397 0.000653886 0)
(-2.69051 0.0243994 0)
(-2.66398 0.0671376 0)
(-2.61183 0.145194 0)
(-2.50746 0.281809 0)
(-2.36383 0.477896 0)
(-2.35296 -0.00193222 0)
(-2.3526 -0.00341464 0)
(-2.35635 -0.00424115 0)
(-2.35957 -0.00467507 0)
(-2.36324 -0.00487191 0)
(-2.36701 -0.00492885 0)
(-2.37099 -0.00490746 0)
(-2.37499 -0.00484311 0)
(-2.37913 -0.00475744 0)
(-2.38326 -0.00466119 0)
(-2.3875 -0.00456283 0)
(-2.39174 -0.0044657 0)
(-2.39608 -0.00437273 0)
(-2.40043 -0.00428529 0)
(-2.40485 -0.00420445 0)
(-2.4093 -0.00413012 0)
(-2.41383 -0.00406195 0)
(-2.41837 -0.00400144 0)
(-2.423 -0.0039486 0)
(-2.42765 -0.00390324 0)
(-2.43236 -0.00386333 0)
(-2.43711 -0.0038277 0)
(-2.44192 -0.00379498 0)
(-2.44678 -0.00376291 0)
(-2.4517 -0.00372949 0)
(-2.45664 -0.00369672 0)
(-2.46161 -0.00366584 0)
(-2.46662 -0.00363538 0)
(-2.47165 -0.00360515 0)
(-2.47671 -0.00357623 0)
(-2.4818 -0.0035488 0)
(-2.48689 -0.00352244 0)
(-2.49201 -0.0034983 0)
(-2.49712 -0.0034774 0)
(-2.50225 -0.00345902 0)
(-2.50738 -0.00344381 0)
(-2.5125 -0.00343282 0)
(-2.51761 -0.00342572 0)
(-2.52271 -0.0034226 0)
(-2.52781 -0.00342366 0)
(-2.53288 -0.00342841 0)
(-2.53793 -0.00343678 0)
(-2.54297 -0.00344827 0)
(-2.54798 -0.00346253 0)
(-2.55297 -0.00347878 0)
(-2.55793 -0.0034965 0)
(-2.56287 -0.0035149 0)
(-2.56778 -0.00353313 0)
(-2.57267 -0.00355074 0)
(-2.57753 -0.0035674 0)
(-2.58237 -0.00358074 0)
(-2.58719 -0.00358996 0)
(-2.59199 -0.00359632 0)
(-2.59675 -0.00359679 0)
(-2.60149 -0.0035883 0)
(-2.60619 -0.00356988 0)
(-2.61086 -0.00354103 0)
(-2.61551 -0.00350112 0)
(-2.62015 -0.00344903 0)
(-2.62477 -0.00338326 0)
(-2.62939 -0.00330235 0)
(-2.63401 -0.00320454 0)
(-2.63864 -0.00308597 0)
(-2.64329 -0.00294004 0)
(-2.64797 -0.00277723 0)
(-2.65268 -0.00259922 0)
(-2.65744 -0.00240027 0)
(-2.66224 -0.00217863 0)
(-2.6671 -0.00193337 0)
(-2.67203 -0.00166672 0)
(-2.67703 -0.00138806 0)
(-2.68211 -0.00106736 0)
(-2.6873 -0.000752679 0)
(-2.69262 -0.000458333 0)
(-2.69804 -0.000177284 0)
(-2.70358 7.69527e-05 0)
(-2.70925 0.000285853 0)
(-2.71507 0.00042643 0)
(-2.72106 0.00047091 0)
(-2.72722 0.000386094 0)
(-2.73357 0.000134519 0)
(-2.74015 -0.000322854 0)
(-2.74697 -0.00102109 0)
(-2.75408 -0.00200395 0)
(-2.76138 -0.00330261 0)
(-2.769 -0.00491877 0)
(-2.77688 -0.00685513 0)
(-2.78497 -0.00904858 0)
(-2.79317 -0.0113626 0)
(-2.80129 -0.0135712 0)
(-2.80896 -0.0153204 0)
(-2.81555 -0.0161188 0)
(-2.82001 -0.015284 0)
(-2.82051 -0.0119145 0)
(-2.81583 -0.00368481 0)
(-2.79827 0.0136982 0)
(-2.76101 0.0458057 0)
(-2.68976 0.104692 0)
(-2.55562 0.205057 0)
(-2.38546 0.337485 0)
(-2.46427 -0.0011721 0)
(-2.46522 -0.00199384 0)
(-2.46965 -0.0024594 0)
(-2.47393 -0.00268192 0)
(-2.47854 -0.00275726 0)
(-2.48333 -0.00274583 0)
(-2.48821 -0.0026869 0)
(-2.49312 -0.00260171 0)
(-2.49801 -0.00250435 0)
(-2.50289 -0.00240236 0)
(-2.50773 -0.00229957 0)
(-2.51253 -0.00219978 0)
(-2.5173 -0.00210577 0)
(-2.52201 -0.00201744 0)
(-2.52669 -0.00193516 0)
(-2.53131 -0.00185975 0)
(-2.5359 -0.00179089 0)
(-2.54043 -0.00172929 0)
(-2.54493 -0.00167578 0)
(-2.54938 -0.0016295 0)
(-2.55378 -0.00158823 0)
(-2.55814 -0.00154977 0)
(-2.56245 -0.00151465 0)
(-2.56672 -0.00148331 0)
(-2.57095 -0.00145416 0)
(-2.57511 -0.00142728 0)
(-2.57921 -0.00140295 0)
(-2.58326 -0.00137991 0)
(-2.58724 -0.00135789 0)
(-2.59117 -0.00133765 0)
(-2.59504 -0.00131923 0)
(-2.59885 -0.00130292 0)
(-2.60261 -0.00128977 0)
(-2.60631 -0.00127992 0)
(-2.60996 -0.0012734 0)
(-2.61357 -0.0012706 0)
(-2.61713 -0.00127219 0)
(-2.62064 -0.00127801 0)
(-2.62411 -0.00128795 0)
(-2.62754 -0.00130207 0)
(-2.63094 -0.00131974 0)
(-2.63431 -0.00134076 0)
(-2.63765 -0.00136447 0)
(-2.64096 -0.00139027 0)
(-2.64425 -0.00141733 0)
(-2.64752 -0.001445 0)
(-2.65078 -0.00147237 0)
(-2.65404 -0.0014986 0)
(-2.65728 -0.00152322 0)
(-2.66053 -0.00154524 0)
(-2.66378 -0.00156259 0)
(-2.66704 -0.00157541 0)
(-2.6703 -0.00158495 0)
(-2.67359 -0.00158841 0)
(-2.6769 -0.00158152 0)
(-2.68023 -0.0015626 0)
(-2.68361 -0.00153075 0)
(-2.68702 -0.00148526 0)
(-2.69048 -0.00142487 0)
(-2.69398 -0.0013479 0)
(-2.69754 -0.00125298 0)
(-2.70116 -0.00113827 0)
(-2.70485 -0.00100354 0)
(-2.7086 -0.000827334 0)
(-2.71244 -0.000632709 0)
(-2.71637 -0.000425664 0)
(-2.72039 -0.000192954 0)
(-2.7245 6.73376e-05 0)
(-2.72872 0.00035484 0)
(-2.73305 0.000665908 0)
(-2.73751 0.000994992 0)
(-2.74208 0.00137507 0)
(-2.74678 0.00175506 0)
(-2.75165 0.00211902 0)
(-2.7567 0.00247482 0)
(-2.76194 0.00280954 0)
(-2.76738 0.0031049 0)
(-2.77303 0.00333831 0)
(-2.7789 0.00348235 0)
(-2.78502 0.00350495 0)
(-2.79138 0.00336977 0)
(-2.79801 0.00303763 0)
(-2.80492 0.00246557 0)
(-2.81214 0.00162218 0)
(-2.81957 0.000474692 0)
(-2.8274 -0.000996735 0)
(-2.83552 -0.00279769 0)
(-2.8438 -0.00488402 0)
(-2.85229 -0.00716755 0)
(-2.86068 -0.00948682 0)
(-2.86854 -0.0115871 0)
(-2.8752 -0.0131564 0)
(-2.8795 -0.0137681 0)
(-2.87961 -0.0129109 0)
(-2.87286 -0.00909569 0)
(-2.85332 0.000346451 0)
(-2.81034 0.019099 0)
(-2.72649 0.0542672 0)
(-2.57431 0.113924 0)
(-2.39098 0.18841 0)
(-2.53191 -0.00010613 0)
(-2.53368 -0.000268504 0)
(-2.53827 -0.000348331 0)
(-2.54287 -0.000361191 0)
(-2.54773 -0.000333175 0)
(-2.55272 -0.00028352 0)
(-2.55769 -0.000224384 0)
(-2.56261 -0.000160138 0)
(-2.56741 -9.4547e-05 0)
(-2.57211 -3.17458e-05 0)
(-2.57667 2.83366e-05 0)
(-2.58109 8.41879e-05 0)
(-2.58538 0.000133185 0)
(-2.58954 0.000176485 0)
(-2.59355 0.000214874 0)
(-2.59745 0.000247368 0)
(-2.60121 0.000273614 0)
(-2.60485 0.000293808 0)
(-2.60837 0.0003075 0)
(-2.61179 0.000315773 0)
(-2.6151 0.000321027 0)
(-2.61831 0.000324572 3.81533e-42)
(-2.62143 0.000325609 0)
(-2.62445 0.000323788 0)
(-2.6274 0.00031967 0)
(-2.63027 0.000313315 0)
(-2.63306 0.000305375 0)
(-2.6358 0.000297468 0)
(-2.63847 0.000290383 0)
(-2.64109 0.000283682 0)
(-2.64366 0.000277045 0)
(-2.64619 0.000269421 0)
(-2.64868 0.000260087 0)
(-2.65114 0.000249619 0)
(-2.65357 0.000237439 0)
(-2.65597 0.000222963 0)
(-2.65837 0.000206163 0)
(-2.66074 0.000186949 0)
(-2.66311 0.000165589 0)
(-2.66548 0.000141914 0)
(-2.66784 0.000116592 0)
(-2.67022 8.9917e-05 0)
(-2.6726 6.23521e-05 0)
(-2.67499 3.48374e-05 0)
(-2.67741 7.89293e-06 0)
(-2.67984 -1.76873e-05 0)
(-2.6823 -4.10198e-05 0)
(-2.68479 -6.13322e-05 0)
(-2.68731 -7.82302e-05 0)
(-2.68987 -9.04055e-05 0)
(-2.69247 -9.64603e-05 0)
(-2.69511 -9.67031e-05 0)
(-2.69779 -9.07857e-05 0)
(-2.70052 -7.60984e-05 0)
(-2.70331 -4.83525e-05 0)
(-2.70615 -6.35706e-06 0)
(-2.70906 5.0532e-05 0)
(-2.71204 0.000123203 0)
(-2.71508 0.000212904 0)
(-2.71819 0.000321599 0)
(-2.72138 0.000450783 0)
(-2.72466 0.000601418 0)
(-2.72803 0.000774458 0)
(-2.73148 0.000993173 0)
(-2.73501 0.00123378 0)
(-2.73865 0.00148953 0)
(-2.7424 0.00177426 0)
(-2.74628 0.00209002 0)
(-2.75028 0.00243644 0)
(-2.75441 0.00280982 0)
(-2.7587 0.00321352 0)
(-2.76313 0.003657 0)
(-2.76771 0.00411327 0)
(-2.77247 0.00456876 0)
(-2.77743 0.00502026 0)
(-2.78258 0.0054558 0)
(-2.78795 0.00585803 0)
(-2.79356 0.00620511 0)
(-2.79941 0.00647022 0)
(-2.80552 0.00662203 0)
(-2.81192 0.00662496 0)
(-2.81862 0.00643915 0)
(-2.82565 0.00601966 7.07608e-41)
(-2.83303 0.00533616 0)
(-2.84076 0.00435243 0)
(-2.84886 0.00303379 0)
(-2.85724 0.00137942 0)
(-2.86581 -0.000600085 -7.05396e-42)
(-2.87456 -0.00286035 0)
(-2.88304 -0.00530051 0)
(-2.89109 -0.00778601 0)
(-2.89788 -0.0101783 0)
(-2.90225 -0.0123336 0)
(-2.90234 -0.0140767 -8.27356e-41)
(-2.89494 -0.0149225 0)
(-2.87428 -0.0140656 0)
(-2.82965 -0.0103472 -1.21631e-40)
(-2.74111 -0.00157783 0)
(-2.58157 0.0146412 0)
(-2.39375 0.0353023 0)
(-2.52589 0.00106025 0)
(-2.52754 0.00151917 0)
(-2.53204 0.00182145 0)
(-2.53653 0.00200658 0)
(-2.54128 0.00212122 0)
(-2.54617 0.00219023 0)
(-2.55104 0.00222979 0)
(-2.55587 0.00225229 0)
(-2.5606 0.00226409 0)
(-2.56523 0.00226661 0)
(-2.56973 0.0022624 0)
(-2.57412 0.00225297 0)
(-2.57837 0.0022369 0)
(-2.58251 0.00221612 0)
(-2.58653 0.0021919 0)
(-2.59043 0.00216362 0)
(-2.59422 0.00213101 0)
(-2.59789 0.00209457 0)
(-2.60147 0.00205421 0)
(-2.60494 0.00201126 0)
(-2.60831 0.00196823 0)
(-2.61161 0.00192561 2.26355e-41)
(-2.61481 0.0018827 0)
(-2.61793 0.00184004 0)
(-2.62098 0.00179811 0)
(-2.62395 0.00175641 0)
(-2.62686 0.00171469 0)
(-2.6297 0.00167492 0)
(-2.63249 0.00163962 0)
(-2.63522 0.00160801 0)
(-2.6379 0.00157873 0)
(-2.64054 0.00155061 0)
(-2.64314 0.00152312 0)
(-2.64571 0.00149691 0)
(-2.64824 0.00147146 0)
(-2.65075 0.00144586 0)
(-2.65324 0.00142051 0)
(-2.6557 0.00139528 0)
(-2.65816 0.00136996 0)
(-2.66062 0.00134466 0)
(-2.66306 0.00131996 0)
(-2.66551 0.00129614 0)
(-2.66797 0.00127341 0)
(-2.67043 0.00125281 0)
(-2.67291 0.00123467 0)
(-2.67541 0.00121974 0)
(-2.67792 0.00120891 0)
(-2.68047 0.0012028 0)
(-2.68304 0.00120198 0)
(-2.68564 0.00120756 0)
(-2.68827 0.0012206 0)
(-2.69095 0.00124086 0)
(-2.69367 0.00126897 0)
(-2.69643 0.00130818 0)
(-2.69923 0.00136324 0)
(-2.7021 0.00143476 0)
(-2.70502 0.00152259 0)
(-2.70801 0.00162792 0)
(-2.71106 0.00175201 0)
(-2.71418 0.00189717 0)
(-2.71737 0.00206512 0)
(-2.72065 0.00225658 0)
(-2.724 0.00247689 0)
(-2.72745 0.00273548 0)
(-2.73098 0.0030212 0)
(-2.73461 0.00333148 0)
(-2.73834 0.00367317 0)
(-2.74219 0.00404862 0)
(-2.74616 0.0044579 0)
(-2.75025 0.00489979 0)
(-2.75449 0.00537782 0)
(-2.75886 0.00589299 0)
(-2.76339 0.00642975 0)
(-2.76809 0.00697652 0)
(-2.77298 0.0075257 0)
(-2.77806 0.00806531 0)
(-2.78336 0.00857891 0)
(-2.78889 0.00904564 0)
(-2.79467 0.00943968 0)
(-2.80073 0.00973062 0)
(-2.80708 0.00988382 0)
(-2.81375 0.00985969 0)
(-2.82076 0.00961625 1.13039e-40)
(-2.82815 0.00911525 0)
(-2.83592 0.00831139 0)
(-2.84406 0.00716525 0)
(-2.85256 0.00566071 0)
(-2.86134 0.00377003 4.43165e-41)
(-2.87021 0.00150554 0)
(-2.87882 -0.00108682 0)
(-2.88677 -0.0039732 0)
(-2.89346 -0.00719566 0)
(-2.89784 -0.0108983 0)
(-2.89799 -0.0153003 -8.9927e-41)
(-2.89074 -0.0208436 0)
(-2.87029 -0.0285127 0)
(-2.82613 -0.0400899 -4.71255e-40)
(-2.73956 -0.0584716 0)
(-2.58199 -0.0866032 0)
(-2.39616 -0.118674 0)
(-2.45097 0.00205836 0)
(-2.45159 0.00315299 0)
(-2.45577 0.00382481 0)
(-2.45971 0.00421167 0)
(-2.46396 0.00442404 0)
(-2.46838 0.00452983 0)
(-2.47286 0.00457237 0)
(-2.47739 0.0045768 0)
(-2.4819 0.00455909 0)
(-2.4864 0.00452667 0)
(-2.49086 0.0044851 0)
(-2.4953 0.00443678 0)
(-2.49971 0.00438295 0)
(-2.50409 0.00432541 0)
(-2.50845 0.00426543 0)
(-2.51278 0.0042022 0)
(-2.51709 0.00413638 0)
(-2.52137 0.00406856 0)
(-2.52565 0.00399795 0)
(-2.52989 0.00392661 0)
(-2.53413 0.00385682 0)
(-2.53835 0.00378862 0)
(-2.54256 0.00372148 0)
(-2.54675 0.00365585 0)
(-2.55094 0.00359224 0)
(-2.5551 0.00353029 0)
(-2.55925 0.00346841 0)
(-2.56338 0.00340814 0)
(-2.5675 0.00335278 0)
(-2.57159 0.00330052 0)
(-2.57564 0.00324953 0)
(-2.57964 0.00320035 0)
(-2.58361 0.00315295 0)
(-2.58753 0.00310742 0)
(-2.59141 0.00306385 0)
(-2.59524 0.00302169 0)
(-2.59903 0.00298117 0)
(-2.60278 0.00294221 0)
(-2.60649 0.00290444 0)
(-2.61016 0.00286848 0)
(-2.61379 0.00283466 0)
(-2.6174 0.00280346 0)
(-2.62096 0.00277513 0)
(-2.6245 0.00275045 0)
(-2.62801 0.00272994 0)
(-2.6315 0.00271427 0)
(-2.63497 0.00270431 0)
(-2.63842 0.00270073 0)
(-2.64186 0.00270427 0)
(-2.64528 0.0027158 0)
(-2.6487 0.00273627 0)
(-2.65211 0.00276572 0)
(-2.65552 0.00280364 0)
(-2.65893 0.00285482 0)
(-2.66234 0.00292568 0)
(-2.66577 0.00301582 0)
(-2.66921 0.00312361 0)
(-2.67269 0.00325067 0)
(-2.67618 0.0033988 0)
(-2.6797 0.00357021 0)
(-2.68327 0.00376677 0)
(-2.68687 0.00399047 0)
(-2.69052 0.00424617 0)
(-2.69423 0.00453779 0)
(-2.69799 0.00486054 0)
(-2.70181 0.00521416 0)
(-2.70571 0.00560269 0)
(-2.70969 0.00602821 0)
(-2.71375 0.00649131 0)
(-2.71791 0.00699181 0)
(-2.72217 0.00753235 0)
(-2.72655 0.00811269 0)
(-2.73105 0.00872311 0)
(-2.7357 0.00935256 0)
(-2.7405 0.00999173 0)
(-2.74548 0.0106289 0)
(-2.75065 0.0112488 0)
(-2.75604 0.0118314 0)
(-2.76165 0.0123525 0)
(-2.76753 0.0127825 0)
(-2.77369 0.013088 0)
(-2.78017 0.0132304 0)
(-2.787 0.0131683 0)
(-2.7942 0.0128577 0)
(-2.80179 0.0122487 0)
(-2.80978 0.0112956 0)
(-2.81814 0.00995558 0)
(-2.82679 0.00817283 0)