/*--------------------------------*- C++ -*----------------------------------*\
| =========                 |                                                 |
| \\      /  F ield         | OpenFOAM: The Open Source CFD Toolbox           |
|  \\    /   O peration     | Version:  2.1.0                                 |
|   \\  /    A nd           | Web:      www.OpenFOAM.org                      |
|    \\/     M anipulation  |                                                 |
\*---------------------------------------------------------------------------*/
FoamFile
{
    version     2.0;
    format      ascii;
    class       volScalarField;
    location    "0.5";
    object      k;
}
// * * * * * * * * * * * * * * * * * * * * * * * * * * * * * * * * * * * * * //

dimensions      [0 2 -2 0 0 0 0];

internalField   nonuniform List<scalar> 
6400
(
0.0327627
0.032802
0.0328053
0.0327993
0.0327769
0.0327661
0.0327361
0.0327217
0.0326884
0.0326717
0.0326366
0.0326169
0.0325808
0.0325572
0.0325203
0.0324925
0.0324547
0.0324226
0.0323834
0.0323473
0.0323064
0.0322668
0.0322242
0.0321816
0.0321373
0.0320922
0.0320463
0.0319987
0.0319508
0.0319008
0.0318505
0.0317978
0.0317449
0.0316893
0.0316333
0.0315747
0.0315153
0.0314531
0.0313898
0.0313233
0.0312548
0.031182
0.0311063
0.0310255
0.0309404
0.0308493
0.0307523
0.0306482
0.0305367
0.0304169
0.0302883
0.0301503
0.0300021
0.0298412
0.0296643
0.0294701
0.0292545
0.0290372
0.0288013
0.0285621
0.0283063
0.0280457
0.0277717
0.0274907
0.027196
0.0268927
0.0265754
0.026248
0.0259035
0.0255434
0.0251671
0.0247714
0.0243578
0.023923
0.0234686
0.0229931
0.0224981
0.0219843
0.0214539
0.0209095
0.0203536
0.0197876
0.0192078
0.0185967
0.0179209
0.0172241
0.0164726
0.0156475
0.0147147
0.0136216
0.0122963
0.0106277
0.00853447
0.00605286
0.00339484
0.00235667
0.00274581
0.00552278
0.00876168
0.00991656
0.0518746
0.0522128
0.0523677
0.0526513
0.0528267
0.053108
0.0533024
0.0535777
0.0537898
0.0540597
0.0542871
0.0545532
0.0547928
0.0550568
0.0553059
0.0555689
0.0558249
0.0560876
0.0563484
0.0566111
0.0568749
0.0571378
0.0574038
0.0576681
0.0579372
0.0582052
0.0584795
0.058753
0.0590335
0.0593136
0.0596005
0.0598877
0.0601813
0.0604757
0.0607763
0.0610784
0.0613864
0.0616968
0.0620134
0.0623333
0.0626597
0.0629873
0.063319
0.0636513
0.0639852
0.0643181
0.0646492
0.0649765
0.065298
0.0656119
0.065916
0.0662096
0.0664952
0.0667746
0.0670348
0.067278
0.0674846
0.0676987
0.0678852
0.0680663
0.0682191
0.0683588
0.0684751
0.0685799
0.0686568
0.0687156
0.0687433
0.0687528
0.0687294
0.0686588
0.0685481
0.0683811
0.0681559
0.0678602
0.067487
0.0670262
0.0664687
0.0658064
0.0650307
0.0641367
0.0631189
0.0619781
0.0607167
0.059333
0.0577925
0.0560167
0.0539962
0.0516567
0.0489467
0.0457879
0.0421294
0.0379274
0.0332458
0.0283532
0.0233616
0.0186229
0.0149777
0.0123957
0.010789
0.00922049
0.0576591
0.0581612
0.0583898
0.0588049
0.0590871
0.059487
0.0598024
0.0601923
0.0605313
0.060916
0.0612726
0.0616557
0.0620258
0.0624096
0.06279
0.0631759
0.063564
0.0639524
0.064346
0.0647364
0.065133
0.065524
0.0659208
0.0663103
0.0667062
0.0670966
0.0674956
0.0678903
0.0682927
0.0686917
0.0690971
0.0694998
0.0699078
0.0703134
0.0707231
0.0711306
0.0715407
0.071948
0.0723558
0.0727598
0.0731625
0.073562
0.0739578
0.0743491
0.0747335
0.0751104
0.0754759
0.0758286
0.0761627
0.076475
0.0767582
0.0770034
0.0772073
0.0774055
0.0775675
0.0777149
0.0778301
0.0779278
0.0779927
0.0780315
0.0780469
0.0780477
0.0779843
0.0778995
0.0777554
0.0775771
0.0773388
0.0770557
0.0767084
0.0763053
0.0758295
0.0752825
0.0746487
0.0739248
0.0730951
0.072153
0.0710826
0.0698766
0.0685202
0.0670075
0.0653268
0.0634755
0.0614454
0.0592366
0.0568478
0.0543099
0.0516001
0.0487377
0.0456894
0.0424546
0.0389827
0.0352518
0.0312313
0.0269265
0.0224491
0.0180988
0.0144251
0.0114659
0.00928373
0.00710583
0.0619632
0.0625259
0.062782
0.063263
0.063597
0.0640578
0.0644341
0.0648813
0.0652837
0.0657234
0.066143
0.0665797
0.067011
0.0674472
0.0678865
0.0683237
0.0687683
0.0692066
0.069654
0.0700928
0.0705405
0.0709777
0.0714221
0.0718542
0.0722866
0.0727003
0.0731206
0.0735311
0.0739446
0.0743484
0.0747524
0.0751462
0.0755375
0.0759178
0.0762928
0.0766553
0.0770096
0.0773497
0.0776802
0.0779937
0.0782906
0.0785722
0.0788317
0.0790733
0.0792887
0.0794821
0.0796454
0.079782
0.0798842
0.0799482
0.0799766
0.0799829
0.0799375
0.0798585
0.0797285
0.0795578
0.0793304
0.0790535
0.0787121
0.0783102
0.0778345
0.0772882
0.0766615
0.0759579
0.075164
0.0742855
0.0733088
0.0722409
0.0710706
0.069805
0.0684359
0.066971
0.0654053
0.0637475
0.0619943
0.0601555
0.0582285
0.0562239
0.0541396
0.0519855
0.0497592
0.04747
0.0451152
0.0427032
0.0402329
0.0377118
0.0351399
0.0325422
0.0299155
0.0272779
0.0246313
0.0219926
0.0193673
0.0167772
0.0142546
0.0118795
0.00969974
0.00786244
0.00658654
0.00598988
0.0632069
0.0637446
0.0639844
0.0644504
0.0647613
0.0652049
0.0655531
0.0659763
0.0663442
0.066751
0.0671283
0.0675218
0.0679016
0.0682833
0.0686603
0.0690303
0.0694001
0.0697572
0.0701157
0.0704579
0.0708011
0.071126
0.0714501
0.0717548
0.0720545
0.0723377
0.0726141
0.0728737
0.0731234
0.0733539
0.0735713
0.0737667
0.0739454
0.0740991
0.0742322
0.0743371
0.074417
0.074457
0.0744729
0.0744691
0.074405
0.0743207
0.0741801
0.0740077
0.0737792
0.07351
0.073183
0.0728084
0.0723737
0.071886
0.0713371
0.0707312
0.0700602
0.069331
0.068535
0.0676784
0.0667581
0.065777
0.0647313
0.0636251
0.0624548
0.0612257
0.0599349
0.0585883
0.0571836
0.0557277
0.0542186
0.0526639
0.0510621
0.0494212
0.0477401
0.0460268
0.0442814
0.0425119
0.0407213
0.0389195
0.0371061
0.0352905
0.0334742
0.0316659
0.0298684
0.0280913
0.0263388
0.0246201
0.02294
0.0213064
0.0197248
0.0181868
0.0167033
0.0152687
0.0138918
0.0125668
0.0113037
0.0101007
0.00897508
0.00794337
0.00703096
0.00639864
0.00612449
0.00612125
0.0598352
0.0601714
0.0603217
0.060625
0.0608223
0.0611054
0.0613188
0.0615755
0.0617886
0.0620177
0.0622208
0.0624219
0.0626076
0.0627797
0.0629421
0.0630832
0.0632169
0.063324
0.063424
0.0634937
0.063552
0.0635797
0.0635908
0.0635866
0.0635435
0.0634838
0.0633906
0.0632724
0.0631281
0.0629553
0.0627546
0.0625213
0.0622576
0.0619581
0.0616256
0.0612544
0.0608479
0.0604006
0.0599171
0.0593908
0.0588241
0.0582173
0.0575674
0.0568782
0.0561455
0.0553742
0.0545603
0.0537091
0.0528173
0.05189
0.0509249
0.0499267
0.0488941
0.0478317
0.046739
0.0456205
0.0444757
0.0433092
0.0421215
0.0409199
0.0397036
0.0384788
0.0372451
0.0360087
0.0347694
0.0335332
0.0323003
0.0310762
0.0298616
0.0286617
0.0274774
0.0263135
0.0251709
0.0240536
0.0229605
0.0218937
0.0208557
0.0198483
0.0188744
0.0179351
0.0170312
0.016158
0.0153205
0.0145138
0.0137415
0.0129982
0.0122862
0.0115999
0.0109409
0.0103024
0.00968569
0.00908435
0.00850141
0.00793468
0.00739721
0.00689984
0.00653551
0.00637721
0.00635064
0.00656768
0.0508439
0.0508182
0.0508105
0.0508072
0.0508025
0.0507841
0.0507619
0.0507158
0.0506668
0.0505874
0.0505061
0.0503903
0.050273
0.0501187
0.0499624
0.0497679
0.0495705
0.0493345
0.0490944
0.0488161
0.0485326
0.0482124
0.0478858
0.0475248
0.0471486
0.0467408
0.0463152
0.0458594
0.0453849
0.0448811
0.0443578
0.0438063
0.0432352
0.042637
0.0420199
0.0413774
0.0407172
0.0400335
0.0393339
0.0386133
0.0378788
0.0371268
0.0363652
0.03559
0.0348079
0.0340164
0.0332212
0.0324207
0.0316199
0.030818
0.0300193
0.0292236
0.0284349
0.0276529
0.0268813
0.02612
0.0253688
0.0246309
0.0239067
0.0231958
0.0224998
0.0218193
0.0211553
0.020508
0.019878
0.0192649
0.0186708
0.0180929
0.0175317
0.0169862
0.0164563
0.0159408
0.0154393
0.0149504
0.0144734
0.014007
0.0135502
0.0131014
0.0126589
0.0122207
0.0118002
0.0113909
0.0109976
0.0106139
0.0102443
0.00988267
0.00953333
0.00919116
0.0088609
0.00853907
0.00823213
0.00793925
0.00766974
0.0074269
0.00723018
0.00709972
0.00704622
0.0070901
0.00743073
0.00762294
0.0379979
0.0376494
0.0375024
0.037226
0.0370504
0.0367672
0.0365571
0.0362564
0.0360107
0.0356874
0.035406
0.0350574
0.0347413
0.0343667
0.0340173
0.0336162
0.0332348
0.0328072
0.032395
0.0319413
0.0314997
0.0310203
0.0305502
0.0300463
0.0295587
0.0290444
0.0285449
0.0280242
0.0275128
0.0269832
0.0264646
0.0259319
0.0254123
0.0248825
0.0243676
0.0238459
0.0233409
0.0228323
0.022342
0.021851
0.0213796
0.0209098
0.0204591
0.020012
0.0195847
0.0191629
0.0187612
0.0183664
0.0179918
0.017625
0.0172781
0.0169395
0.0166201
0.016311
0.01602
0.0157399
0.0154765
0.0152245
0.0149871
0.014761
0.0145482
0.0143462
0.0141564
0.0139767
0.0138084
0.0136498
0.0134997
0.0133596
0.0132288
0.0131067
0.0129926
0.012886
0.0127859
0.0126919
0.012603
0.0125187
0.012438
0.0123603
0.0122842
0.0122092
0.0121341
0.0120553
0.0119728
0.011883
0.0117852
0.0116759
0.0115543
0.0114172
0.0112648
0.011096
0.0109142
0.0107229
0.0105315
0.010351
0.0102239
0.0101689
0.0101632
0.0104111
0.0107738
0.0109522
0.0250549
0.0245254
0.0243051
0.0238867
0.0236445
0.0232348
0.022971
0.0225665
0.022284
0.0218836
0.021587
0.0211903
0.0208836
0.0204907
0.0201773
0.0197897
0.019473
0.0190922
0.0187755
0.0184036
0.0180903
0.0177295
0.0174227
0.0170756
0.0167824
0.0164548
0.0161774
0.0158707
0.0156108
0.0153266
0.0150863
0.0148259
0.0146065
0.0143712
0.0141735
0.0139639
0.0137886
0.013605
0.013452
0.0132946
0.0131642
0.0130322
0.0129246
0.0128174
0.0127326
0.0126499
0.0125877
0.0125289
0.0124895
0.0124551
0.0124384
0.0124308
0.0124296
0.0124463
0.0124692
0.0125072
0.0125525
0.0126118
0.0126799
0.0127615
0.0128526
0.0129567
0.0130709
0.0131978
0.0133354
0.0134856
0.0136469
0.0138207
0.0140056
0.0142032
0.0144124
0.0146348
0.0148692
0.0151172
0.0153777
0.0156519
0.015939
0.0162398
0.0165534
0.0168804
0.0172197
0.017571
0.0179321
0.0183021
0.0186778
0.0190565
0.0194342
0.019806
0.0201663
0.0205102
0.0208326
0.0211309
0.021405
0.0216595
0.0219099
0.0222057
0.0226511
0.0232674
0.024093
0.0250001
0.0177365
0.0172038
0.0169878
0.0165763
0.0163597
0.0159673
0.0157519
0.0153803
0.0151688
0.0148195
0.0146145
0.0142882
0.0140923
0.0137898
0.0136052
0.013327
0.0131554
0.012902
0.0127451
0.0125165
0.0123756
0.012172
0.0120481
0.0118694
0.0117632
0.0116088
0.0115205
0.0113899
0.0113194
0.0112123
0.0111589
0.0110769
0.0110371
0.0109811
0.0109545
0.0109244
0.0109112
0.0109052
0.0109047
0.0109189
0.0109392
0.0109705
0.0110097
0.0110587
0.0111167
0.0111834
0.0112601
0.0113447
0.0114401
0.0115431
0.0116574
0.0117793
0.0119126
0.0120543
0.0122069
0.0123689
0.0125419
0.012725
0.0129194
0.0131246
0.0133416
0.0135703
0.0138116
0.0140658
0.0143334
0.0146151
0.0149114
0.0152231
0.0155509
0.0158956
0.0162582
0.0166398
0.0170413
0.0174641
0.0179095
0.0183791
0.0188746
0.0193978
0.0199507
0.0205355
0.0211545
0.0218107
0.0225074
0.0232481
0.0240369
0.0248785
0.0257783
0.0267425
0.0277791
0.0288966
0.0301057
0.0314186
0.0328501
0.0344171
0.036138
0.0380237
0.0400811
0.0422687
0.0437965
0.0444194
0.0203757
0.0198241
0.019598
0.0191666
0.0189338
0.0185192
0.0182815
0.0178842
0.0176442
0.0172648
0.0170256
0.0166656
0.0164303
0.0160911
0.0158629
0.0155454
0.015327
0.0150318
0.0148257
0.0145533
0.0143614
0.0141123
0.013936
0.0137102
0.0135509
0.0133484
0.0132067
0.0130276
0.0129039
0.012748
0.0126428
0.0125098
0.0124231
0.012313
0.0122446
0.0121574
0.0121073
0.0120432
0.0120112
0.0119729
0.0119551
0.0119447
0.0119417
0.0119491
0.0119692
0.0119966
0.0120367
0.0120839
0.012144
0.0122113
0.0122914
0.012379
0.0124795
0.0125878
0.0127091
0.0128384
0.0129808
0.0131316
0.0132957
0.0134687
0.0136548
0.0138513
0.0140608
0.0142819
0.0145165
0.0147638
0.0150253
0.0153005
0.015591
0.0158966
0.0162187
0.0165573
0.0169139
0.0172887
0.0176836
0.0180989
0.0185366
0.0189976
0.0194838
0.0199966
0.0205383
0.0211107
0.0217166
0.0223583
0.0230393
0.0237624
0.024532
0.0253519
0.0262269
0.0271617
0.0281628
0.0292384
0.0304071
0.0316796
0.0330829
0.0346415
0.0363948
0.0383137
0.0398624
0.0405429
0.0306873
0.0301531
0.0299281
0.0295002
0.0292483
0.0288272
0.0285484
0.0281289
0.0278261
0.0274036
0.0270741
0.0266462
0.0262948
0.0258629
0.0254952
0.0250604
0.0246817
0.0242464
0.0238614
0.0234283
0.0230411
0.0226133
0.022228
0.0218084
0.0214287
0.0210202
0.0206495
0.0202551
0.0198965
0.0195186
0.019175
0.018816
0.0184898
0.0181516
0.0178444
0.0175278
0.017241
0.0169478
0.016683
0.0164142
0.0161723
0.0159297
0.015712
0.0154964
0.0153039
0.0151152
0.0149481
0.0147861
0.0146444
0.0145085
0.0143919
0.014282
0.0141904
0.0141062
0.0140394
0.0139799
0.0139366
0.0139007
0.0138814
0.0138721
0.0138698
0.0138818
0.0139037
0.0139372
0.0139809
0.0140352
0.0140996
0.0141737
0.0142574
0.0143488
0.0144483
0.0145545
0.0146676
0.014786
0.0149096
0.0150367
0.0151673
0.0152992
0.0154324
0.0155647
0.0156957
0.0158232
0.0159468
0.0160642
0.016175
0.0162772
0.0163707
0.0164541
0.0165284
0.0165933
0.0166519
0.0167043
0.0167496
0.0168123
0.0169076
0.0170838
0.0173952
0.0179208
0.018649
0.019693
0.0436488
0.0433193
0.0431803
0.0429158
0.0427482
0.0424753
0.0422714
0.041979
0.0417374
0.0414197
0.0411408
0.0407948
0.0404792
0.0401034
0.0397513
0.0393454
0.0389578
0.0385219
0.0381001
0.0376351
0.0371808
0.0366879
0.0362035
0.0356846
0.0351724
0.0346301
0.0340933
0.0335305
0.0329729
0.0323932
0.0318193
0.0312269
0.0306412
0.0300408
0.029449
0.028846
0.0282475
0.0276415
0.0270434
0.0264415
0.0258503
0.0252589
0.0246807
0.0241053
0.0235452
0.0229907
0.0224534
0.0219239
0.0214128
0.0209097
0.0204254
0.0199504
0.0194939
0.0190469
0.0186176
0.0181988
0.017797
0.0174049
0.0170318
0.0166686
0.0163228
0.0159872
0.0156674
0.015356
0.0150582
0.0147679
0.0144889
0.0142146
0.0139488
0.0136912
0.0134413
0.0131977
0.0129606
0.0127278
0.0125002
0.0122753
0.0120545
0.0118348
0.0116183
0.0114021
0.0111883
0.0109745
0.0107633
0.0105527
0.0103453
0.0101401
0.00993683
0.00973732
0.0095424
0.00935524
0.00917841
0.00901686
0.00887557
0.00875991
0.00870244
0.0086834
0.00879147
0.00905107
0.00945292
0.00963108
0.0552748
0.0552723
0.0552795
0.0552907
0.0552962
0.0552965
0.0552832
0.0552509
0.0552105
0.0551433
0.0550756
0.0549737
0.0548731
0.0547341
0.0545961
0.0544175
0.0542379
0.0540171
0.0537927
0.053527
0.053255
0.0529418
0.0526198
0.0522586
0.0518842
0.051471
0.0510438
0.0505779
0.0500964
0.049577
0.0490409
0.0484681
0.0478776
0.0472521
0.0466087
0.0459324
0.0452384
0.0445135
0.0437715
0.0430011
0.0422148
0.0414033
0.0405778
0.03973
0.0388714
0.0379942
0.0371092
0.0362097
0.0353061
0.0343943
0.0334828
0.0325675
0.031657
0.0307474
0.0298471
0.0289524
0.0280714
0.0272009
0.0263473
0.0255081
0.0246853
0.0238761
0.0230868
0.022314
0.0215636
0.0208316
0.0201238
0.0194369
0.0187754
0.0181313
0.0175109
0.0169074
0.0163258
0.0157598
0.0152133
0.0146803
0.014164
0.0136591
0.0131677
0.0126851
0.0122128
0.0117462
0.0112865
0.0108297
0.0103766
0.00994535
0.00952651
0.00913018
0.00874691
0.00838701
0.00804259
0.00772496
0.00742693
0.00716694
0.00692872
0.00677093
0.00670134
0.00670031
0.00703216
0.00722037
0.062
0.0623172
0.0624595
0.062743
0.0629324
0.0631968
0.0634022
0.0636434
0.0638503
0.0640682
0.0642676
0.0644618
0.0646469
0.0648163
0.0649815
0.0651244
0.0652647
0.0653784
0.065489
0.0655703
0.0656467
0.0656918
0.0657204
0.06573
0.0657269
0.0656836
0.0656306
0.0655389
0.065432
0.0652866
0.0651211
0.0649158
0.0646857
0.0644141
0.064113
0.063769
0.063398
0.0629832
0.0625363
0.0620455
0.0615181
0.0609433
0.0603319
0.0596709
0.0589722
0.0582236
0.0574366
0.0566006
0.0557264
0.0548051
0.0538469
0.0528446
0.0518075
0.05073
0.0496207
0.0484754
0.0473025
0.0460988
0.0448726
0.0436212
0.0423577
0.0410762
0.0397888
0.0384905
0.0371927
0.0358911
0.0345963
0.0333046
0.0320257
0.0307563
0.0295057
0.0282707
0.02706
0.0258704
0.0247096
0.0235742
0.0224669
0.0213834
0.0203296
0.0193025
0.0183066
0.0173396
0.0164048
0.0155007
0.0146295
0.0137884
0.0129718
0.0121828
0.0114162
0.0106756
0.00995684
0.00926323
0.00859326
0.00795424
0.00736076
0.00681233
0.00640051
0.00621286
0.00617437
0.00636108
0.0635761
0.0640573
0.064273
0.0646898
0.0649722
0.0653683
0.0656853
0.0660637
0.0663992
0.066764
0.0671082
0.0674624
0.067809
0.0681537
0.0684981
0.0688335
0.069172
0.0694974
0.0698267
0.0701403
0.0704571
0.0707566
0.0710576
0.0713419
0.0716236
0.0718868
0.0721469
0.0723874
0.0726234
0.0728409
0.0730499
0.073239
0.073416
0.0735709
0.0737098
0.0738253
0.0739225
0.0739926
0.0740327
0.0740486
0.0740495
0.0739968
0.0739262
0.0738055
0.0736566
0.0734566
0.0732203
0.07293
0.0725961
0.0722047
0.0717636
0.0712614
0.0707043
0.0700849
0.0694059
0.0686598
0.0678555
0.0669805
0.0660468
0.0650416
0.0639785
0.0628482
0.0616617
0.0604098
0.0591049
0.0577383
0.0563227
0.054851
0.0533349
0.0517696
0.0501658
0.04852
0.0468417
0.0451287
0.0433891
0.0416221
0.0398389
0.0380408
0.0362323
0.0344157
0.0325943
0.0307716
0.0289506
0.0271365
0.0253325
0.0235457
0.0217808
0.0200459
0.0183482
0.0166752
0.0150547
0.0134812
0.0119837
0.010564
0.0092722
0.00807885
0.00708159
0.00635303
0.00603098
0.00600405
0.0612091
0.0617081
0.0619362
0.0623588
0.0626562
0.0630597
0.0633944
0.0637856
0.0641429
0.0645278
0.0648996
0.0652822
0.0656636
0.0660461
0.066434
0.0668175
0.0672098
0.0675947
0.0679893
0.0683752
0.0687705
0.0691563
0.06955
0.0699335
0.070322
0.0706989
0.0710764
0.0714381
0.0717946
0.0721503
0.0725036
0.0728535
0.0732022
0.0735469
0.0738918
0.074228
0.0745606
0.0748837
0.075201
0.0755091
0.0758083
0.0760933
0.0763701
0.0766287
0.0768764
0.0771026
0.0773144
0.0775017
0.0776702
0.0778112
0.0779281
0.0780134
0.0780595
0.0780774
0.0780775
0.0780121
0.0779302
0.0777833
0.0776052
0.0773589
0.0770681
0.0767028
0.0762786
0.0757696
0.0751903
0.0745233
0.0737724
0.0729284
0.0719894
0.0709509
0.06981
0.0685664
0.0672178
0.0657671
0.064213
0.0625613
0.0608121
0.0589705
0.0570381
0.0550187
0.0529134
0.0507237
0.0484491
0.0460886
0.0436396
0.0410994
0.0384674
0.0357396
0.0329239
0.030041
0.027092
0.0240959
0.0210795
0.0180867
0.0152245
0.0125097
0.0101199
0.00808739
0.00662561
0.00592616
0.0561967
0.056629
0.0568273
0.0571844
0.0574307
0.0577744
0.0580494
0.0583842
0.0586791
0.0590094
0.0593191
0.0596481
0.0599692
0.0602994
0.0606295
0.0609621
0.0612993
0.0616351
0.0619777
0.0623166
0.0626631
0.0630047
0.0633535
0.0636968
0.0640464
0.0643903
0.0647397
0.0650842
0.0654353
0.0657861
0.0661421
0.0664988
0.0668597
0.0672208
0.0675842
0.0679497
0.0683188
0.0686891
0.0690621
0.0694362
0.0698119
0.070188
0.0705653
0.0709414
0.0713179
0.0716914
0.0720651
0.0724351
0.0728022
0.0731611
0.0735125
0.0738494
0.0741698
0.074467
0.0747306
0.0749484
0.0751721
0.0753544
0.0755299
0.0756659
0.0757881
0.0758748
0.0759484
0.0759874
0.0760036
0.0759919
0.0759156
0.0758081
0.075637
0.0754196
0.0751351
0.0747909
0.0743632
0.0738586
0.0732519
0.0725438
0.0717088
0.0707422
0.0696195
0.0683326
0.0668597
0.0651926
0.063314
0.0612182
0.0588961
0.0563452
0.0535618
0.0505457
0.0473138
0.0438448
0.0401222
0.0361064
0.0318026
0.0272178
0.0225266
0.0182182
0.0144579
0.0116232
0.00943574
0.00727228
0.0498853
0.050172
0.0503039
0.0505423
0.050691
0.0509276
0.0510922
0.0513234
0.0515031
0.0517297
0.0519225
0.0521462
0.0523499
0.0525725
0.0527849
0.0530076
0.0532266
0.0534502
0.0536741
0.0538987
0.054126
0.0543518
0.0545813
0.0548083
0.0550396
0.0552683
0.055502
0.0557342
0.0559728
0.056211
0.0564556
0.0567011
0.0569522
0.0572051
0.0574633
0.0577244
0.0579906
0.0582603
0.0585355
0.0588146
0.0590995
0.0593891
0.0596848
0.059986
0.060294
0.0606083
0.0609269
0.0612485
0.0615724
0.0618967
0.0622207
0.0625417
0.0628594
0.063171
0.063477
0.0637808
0.0640906
0.064391
0.0646939
0.0649783
0.0652511
0.0654864
0.0657027
0.0659003
0.066079
0.0662443
0.0663847
0.0665103
0.0666043
0.0666673
0.0666941
0.0666981
0.0666284
0.0665115
0.0663125
0.0660377
0.0656592
0.0651745
0.064559
0.0638058
0.0628934
0.0618135
0.0605483
0.0590917
0.0574344
0.0555671
0.0534549
0.0510838
0.0482801
0.0450489
0.0412788
0.0369511
0.0322316
0.0273618
0.0224859
0.0180666
0.0146157
0.0122389
0.0107424
0.00922538
0.0311294
0.0311558
0.0311522
0.0311332
0.0311064
0.031085
0.0310489
0.0310263
0.0309864
0.0309616
0.0309204
0.0308927
0.0308511
0.03082
0.0307781
0.0307434
0.0307008
0.0306626
0.0306188
0.0305771
0.0305318
0.0304868
0.0304397
0.0303919
0.030343
0.0302928
0.0302423
0.0301902
0.0301383
0.0300847
0.0300312
0.0299758
0.0299206
0.0298635
0.0298064
0.0297475
0.0296883
0.0296276
0.0295664
0.0295037
0.0294404
0.0293754
0.0293095
0.0292417
0.0291722
0.0291001
0.029025
0.0289463
0.0288636
0.0287763
0.0286841
0.0285864
0.0284834
0.0283746
0.0282605
0.0281412
0.028015
0.0278785
0.0277318
0.0275682
0.027388
0.027183
0.026964
0.0267348
0.0264942
0.0262444
0.0259826
0.0257107
0.0254242
0.0251252
0.0248111
0.0244816
0.0241271
0.0237566
0.0233572
0.0229359
0.022483
0.0220028
0.0214884
0.0209429
0.0203619
0.019748
0.019099
0.018417
0.0176995
0.0169388
0.0161091
0.015152
0.0140565
0.0127807
0.0112234
0.00931076
0.00711161
0.00498523
0.00301675
0.00232221
0.00260817
0.00528046
0.0086245
0.00984825
0.00947217
0.00467548
0.00403042
0.00390136
0.00387304
0.00389707
0.00381776
0.00378069
0.00376598
0.00376303
0.00378542
0.00385677
0.00413389
0.00471698
0.00547402
0.00655182
0.00692003
0.00690159
0.00576393
0.00340271
0.00777608
0.00468055
0.00428947
0.0041901
0.00416619
0.00404597
0.00396684
0.0039322
0.00392035
0.00392279
0.00397618
0.00416383
0.004558
0.0051421
0.00622042
0.00686868
0.00700453
0.00675933
0.00519304
0.00278247
0.00621352
0.00478475
0.00460505
0.0045412
0.00436897
0.00426775
0.0042
0.0041729
0.00416487
0.00417783
0.00430543
0.00456702
0.00505165
0.00599245
0.00679675
0.0070497
0.00703854
0.00647804
0.00456233
0.00215011
0.00579521
0.0051161
0.00503432
0.00479458
0.00463718
0.00452194
0.00446458
0.00444045
0.00443824
0.00454014
0.00476586
0.00519809
0.00606663
0.00686978
0.00719499
0.00725489
0.00697756
0.00602575
0.00378247
0.00154393
0.00591783
0.00548167
0.00534358
0.00505437
0.00493982
0.00486748
0.00484961
0.00488372
0.00500288
0.00528679
0.00568716
0.00651197
0.00718469
0.00748898
0.00757529
0.00739524
0.00678043
0.00540272
0.00293209
0.00101445
0.00628472
0.00593525
0.00580178
0.00561766
0.00558574
0.00559508
0.0057221
0.00595468
0.00637553
0.00689965
0.00752052
0.00800178
0.00820696
0.00825012
0.00796274
0.00732486
0.00636937
0.00458333
0.00189153
0.000560804
0.00721712
0.00709146
0.00707605
0.00710563
0.00738107
0.00770503
0.00825415
0.0089558
0.00963018
0.00983064
0.00989537
0.00975181
0.00942408
0.00883796
0.00801635
0.00707533
0.00563722
0.00346937
0.00114769
0.000251258
0.0108597
0.0112998
0.0118049
0.0124646
0.0134239
0.01441
0.0148902
0.0150405
0.0140087
0.0134126
0.0123197
0.0115302
0.0103071
0.00917409
0.00784059
0.00644258
0.0044504
0.00224843
0.000646858
9.1656e-05
0.0252561
0.025737
0.0259401
0.0259403
0.0252445
0.0238836
0.0222252
0.0199569
0.0182148
0.0162721
0.01447
0.0126639
0.010728
0.00894237
0.00708405
0.0050409
0.00296875
0.00131607
0.000390961
3.94066e-05
0.0411636
0.0393822
0.0374105
0.0346166
0.0320756
0.0284849
0.0258631
0.0226908
0.0203104
0.0174287
0.0151768
0.0124443
0.0101176
0.00732482
0.0051324
0.00309869
0.00185231
0.000855117
0.00033116
6.0435e-05
0.037991
0.0364553
0.0348545
0.0323772
0.0302081
0.0269024
0.0244869
0.0215805
0.0194195
0.0167624
0.0147738
0.0121803
0.0102296
0.00743336
0.00538345
0.00308309
0.0017767
0.000724516
0.000239323
4.7183e-05
0.0200817
0.0210042
0.0215152
0.021768
0.0218504
0.0211291
0.0199263
0.0180575
0.0167581
0.0149652
0.0137673
0.0119414
0.0106061
0.00878851
0.0072105
0.005173
0.00295892
0.00116289
0.000285044
3.36151e-05
0.0094717
0.00967039
0.0100775
0.010544
0.0113361
0.0122514
0.0130392
0.0133495
0.0131655
0.0122426
0.0117942
0.0108633
0.0100315
0.00897641
0.00781805
0.00648687
0.00455465
0.00224036
0.000566126
4.54197e-05
0.00684806
0.00666656
0.00661171
0.00658531
0.00675655
0.00699684
0.00742429
0.00801757
0.00879682
0.00916682
0.0093432
0.00941031
0.00914938
0.00870829
0.00794722
0.00707064
0.0056723
0.00352632
0.00107121
0.000126886
0.00610542
0.00576942
0.00563779
0.00543551
0.00538547
0.00537161
0.00545298
0.00562686
0.00598746
0.00644196
0.00713132
0.00772883
0.00801604
0.00809447
0.00792659
0.00731026
0.00638977
0.00465194
0.00191299
0.000434897
0.00578598
0.00538285
0.00525315
0.00496872
0.00485195
0.00476952
0.00474361
0.00475538
0.00485462
0.00509692
0.00547599
0.00624702
0.00702901
0.00738845
0.0074915
0.00738721
0.00679446
0.0054541
0.00300636
0.000934762
0.00568119
0.00502083
0.00494889
0.00474286
0.00458542
0.00447326
0.00440757
0.00437797
0.00436939
0.00445259
0.00466679
0.00506625
0.00588573
0.00677879
0.0071537
0.00722426
0.00698916
0.00607123
0.00385829
0.00151207
0.0061803
0.00473059
0.00453193
0.00446441
0.00432378
0.00421882
0.00415394
0.00412728
0.00411938
0.00412843
0.00424291
0.00449704
0.00495701
0.00585831
0.00674324
0.00703807
0.00704405
0.00651447
0.00463921
0.00215722
0.00780326
0.00465337
0.00425652
0.00414819
0.00411558
0.00402162
0.00393528
0.00389765
0.00388548
0.00388775
0.00393733
0.0041097
0.00449908
0.00507915
0.00613714
0.00684622
0.00700251
0.00678687
0.00525732
0.00281663
0.00947296
0.00465264
0.00399493
0.00386844
0.00383871
0.00385259
0.00379702
0.00375414
0.0037392
0.00373608
0.00375863
0.00382643
0.00407899
0.00464071
0.00542007
0.00652214
0.00691894
0.00692009
0.0058273
0.0034495
0.00397118
0.00375019
0.00374679
0.0037468
0.00374652
0.00374628
0.00374612
0.00374604
0.003746
0.00374598
0.00374598
0.003746
0.00374604
0.00374612
0.00374628
0.00374652
0.0037468
0.00374679
0.00375019
0.00397117
0.00441489
0.00375346
0.00374141
0.00374096
0.00374056
0.00374012
0.00373987
0.00373975
0.00373969
0.00373966
0.00373966
0.00373969
0.00373975
0.00373987
0.00374012
0.00374056
0.00374096
0.00374141
0.00375346
0.00441489
0.0048594
0.00376059
0.00373287
0.00373264
0.00373284
0.00373273
0.00373256
0.00373242
0.00373235
0.00373231
0.00373231
0.00373235
0.00373242
0.00373256
0.00373273
0.00373284
0.00373264
0.00373287
0.00376059
0.00485939
0.00530178
0.00377206
0.0037243
0.00372396
0.00372492
0.00372524
0.00372525
0.00372519
0.00372514
0.00372512
0.00372512
0.00372514
0.00372519
0.00372525
0.00372524
0.00372492
0.00372396
0.0037243
0.00377206
0.00530179
0.00573925
0.00378544
0.0037155
0.00371483
0.00371665
0.00371758
0.00371789
0.00371795
0.00371795
0.00371795
0.00371795
0.00371795
0.00371795
0.00371789
0.00371758
0.00371665
0.00371483
0.00371551
0.00378544
0.00573924
0.00617058
0.00379767
0.00370577
0.0037051
0.003708
0.00370969
0.00371043
0.0037107
0.00371078
0.0037108
0.0037108
0.00371078
0.0037107
0.00371043
0.00370969
0.003708
0.0037051
0.00370577
0.00379767
0.00617059
0.00659185
0.00380847
0.00369498
0.00369474
0.00369894
0.00370155
0.00370284
0.0037034
0.00370361
0.00370368
0.00370368
0.00370361
0.0037034
0.00370284
0.00370155
0.00369894
0.00369474
0.00369498
0.00380847
0.00659185
0.00700084
0.00381671
0.00368272
0.00368362
0.00368941
0.00369311
0.00369508
0.00369602
0.00369642
0.00369656
0.00369656
0.00369642
0.00369602
0.00369508
0.00369311
0.00368941
0.00368362
0.00368272
0.00381671
0.00700085
0.00739336
0.00382333
0.00366915
0.00367174
0.00367942
0.00368437
0.00368714
0.00368854
0.00368919
0.00368943
0.00368943
0.00368919
0.00368854
0.00368714
0.00368437
0.00367942
0.00367174
0.00366915
0.00382334
0.00739335
0.00776768
0.00382735
0.00365405
0.00365903
0.00366893
0.00367532
0.00367898
0.00368095
0.0036819
0.00368228
0.00368228
0.0036819
0.00368095
0.00367898
0.00367532
0.00366893
0.00365903
0.00365404
0.00382735
0.00776768
0.00812024
0.00383021
0.00363764
0.00364552
0.00365794
0.00366592
0.00367061
0.00367321
0.00367453
0.00367507
0.00367507
0.00367453
0.00367321
0.00367061
0.00366592
0.00365794
0.00364552
0.00363765
0.00383021
0.00812023
0.00845034
0.00383068
0.00361989
0.00363122
0.00364645
0.0036562
0.00366201
0.00366531
0.00366705
0.00366779
0.00366779
0.00366705
0.00366531
0.00366201
0.0036562
0.00364645
0.00363121
0.00361988
0.00383069
0.00845034
0.00875525
0.00383018
0.0036009
0.00361613
0.00363446
0.00364613
0.00365316
0.00365725
0.00365946
0.00366041
0.00366041
0.00365946
0.00365725
0.00365316
0.00364613
0.00363446
0.00361613
0.00360091
0.00383019
0.00875524
0.00903545
0.00382886
0.00358085
0.00360032
0.00362199
0.00363573
0.00364408
0.00364901
0.00365173
0.00365292
0.00365292
0.00365173
0.00364901
0.00364408
0.00363573
0.00362199
0.00360032
0.00358084
0.00382886
0.00903544
0.00928895
0.00382647
0.00355981
0.00358379
0.00360904
0.003625
0.00363475
0.00364059
0.00364385
0.00364531
0.00364531
0.00364385
0.00364059
0.00363475
0.003625
0.00360904
0.0035838
0.00355982
0.00382648
0.00928894
0.00951739
0.0038234
0.00353794
0.00356664
0.00359565
0.00361394
0.00362518
0.00363197
0.00363582
0.00363755
0.00363755
0.00363582
0.00363197
0.00362518
0.00361394
0.00359565
0.00356663
0.00353793
0.00382339
0.00951738
0.00971929
0.00382011
0.00351531
0.00354885
0.00358181
0.00360255
0.00361535
0.00362316
0.00362762
0.00362964
0.00362964
0.00362762
0.00362316
0.00361535
0.00360255
0.00358181
0.00354886
0.00351532
0.00382012
0.00971928
0.00989731
0.00381663
0.00349216
0.00353055
0.00356758
0.00359087
0.00360529
0.00361414
0.00361924
0.00362157
0.00362157
0.00361924
0.00361414
0.00360529
0.00359087
0.00356757
0.00353054
0.00349215
0.00381662
0.0098973
0.0100502
0.00381347
0.00346849
0.0035117
0.00355293
0.00357887
0.00359499
0.00360492
0.00361068
0.00361332
0.00361332
0.00361068
0.00360492
0.00359499
0.00357888
0.00355293
0.00351171
0.00346851
0.00381348
0.0100502
0.0101815
0.00381057
0.00344463
0.00349248
0.00353795
0.0035666
0.00358445
0.0035955
0.00360193
0.0036049
0.0036049
0.00360193
0.00359549
0.00358445
0.0035666
0.00353795
0.00349247
0.00344461
0.00381057
0.0101815
0.0102898
0.00380853
0.00342045
0.00347279
0.0035226
0.00355404
0.00357367
0.00358587
0.003593
0.0035963
0.0035963
0.003593
0.00358587
0.00357367
0.00355404
0.00352261
0.0034728
0.00342048
0.00380854
0.0102897
0.0103794
0.00380714
0.00339644
0.00345288
0.00350698
0.00354123
0.00356267
0.00357603
0.00358387
0.00358751
0.00358751
0.00358387
0.00357603
0.00356267
0.00354123
0.00350697
0.00345286
0.00339641
0.00380714
0.0103794
0.0104486
0.00380736
0.00337228
0.00343258
0.00349103
0.00352816
0.00355145
0.003566
0.00357455
0.00357853
0.00357853
0.00357455
0.003566
0.00355145
0.00352816
0.00349104