/*--------------------------------*- C++ -*----------------------------------*\
| =========                 |                                                 |
| \\      /  F ield         | OpenFOAM: The Open Source CFD Toolbox           |
|  \\    /   O peration     | Version:  2.1.0                                 |
|   \\  /    A nd           | Web:      www.OpenFOAM.org                      |
|    \\/     M anipulation  |                                                 |
\*---------------------------------------------------------------------------*/
FoamFile
{
    version     2.0;
    format      ascii;
    class       volScalarField;
    location    "0.5";
    object      nut;
}
// * * * * * * * * * * * * * * * * * * * * * * * * * * * * * * * * * * * * * //

dimensions      [0 2 -1 0 0 0 0];

internalField   nonuniform List<scalar> 
6400
(
7.08523e-06
7.10407e-06
7.11653e-06
7.13251e-06
7.14687e-06
7.16521e-06
7.18029e-06
7.19963e-06
7.21545e-06
7.2356e-06
7.25221e-06
7.27284e-06
7.29039e-06
7.31133e-06
7.32989e-06
7.35111e-06
7.37069e-06
7.39223e-06
7.41281e-06
7.4348e-06
7.4564e-06
7.47901e-06
7.5017e-06
7.52513e-06
7.549e-06
7.57344e-06
7.59855e-06
7.62412e-06
7.65053e-06
7.67736e-06
7.70512e-06
7.73331e-06
7.7625e-06
7.79216e-06
7.82285e-06
7.85409e-06
7.88639e-06
7.91932e-06
7.95334e-06
7.98798e-06
8.02361e-06
8.05975e-06
8.09679e-06
8.13427e-06
8.17245e-06
8.21097e-06
8.24998e-06
8.28919e-06
8.32866e-06
8.36822e-06
8.40786e-06
8.44742e-06
8.48675e-06
8.52514e-06
8.56173e-06
8.59614e-06
8.62702e-06
8.66024e-06
8.69076e-06
8.72316e-06
8.75342e-06
8.78533e-06
8.81618e-06
8.84816e-06
8.8792e-06
8.91109e-06
8.94217e-06
8.97384e-06
9.00391e-06
9.03302e-06
9.06112e-06
9.0872e-06
9.11196e-06
9.13444e-06
9.15544e-06
9.1747e-06
9.19326e-06
9.21193e-06
9.23244e-06
9.25695e-06
9.28807e-06
9.32859e-06
9.37942e-06
9.43512e-06
9.48153e-06
9.54458e-06
9.61058e-06
9.67122e-06
9.70433e-06
9.66321e-06
9.46137e-06
8.92804e-06
7.82559e-06
5.96426e-06
3.4452e-06
2.32048e-06
2.40708e-06
3.78178e-06
3.87739e-06
4.18312e-06
7.54391e-05
7.59084e-05
7.60018e-05
7.63074e-05
7.64126e-05
7.66686e-05
7.67944e-05
7.70173e-05
7.71603e-05
7.73599e-05
7.75143e-05
7.76967e-05
7.78564e-05
7.80253e-05
7.81854e-05
7.83428e-05
7.84992e-05
7.86461e-05
7.87955e-05
7.89317e-05
7.90717e-05
7.91969e-05
7.9326e-05
7.94407e-05
7.95591e-05
7.96649e-05
7.97741e-05
7.98711e-05
7.99701e-05
8.00575e-05
8.0145e-05
8.02213e-05
8.02957e-05
8.0359e-05
8.04181e-05
8.04657e-05
8.05066e-05
8.05353e-05
8.05587e-05
8.05712e-05
8.05772e-05
8.05689e-05
8.05491e-05
8.05135e-05
8.04619e-05
8.03912e-05
8.02993e-05
8.01838e-05
8.00415e-05
7.98702e-05
7.96665e-05
7.94295e-05
7.91619e-05
7.88689e-05
7.85331e-05
7.81593e-05
7.7477e-05
7.67489e-05
7.59618e-05
7.51439e-05
7.42719e-05
7.33637e-05
7.24089e-05
7.14215e-05
7.03846e-05
6.93095e-05
6.81835e-05
6.70209e-05
6.58077e-05
6.45324e-05
6.32038e-05
6.181e-05
6.03527e-05
5.88255e-05
5.72277e-05
5.55568e-05
5.3812e-05
5.19948e-05
5.01064e-05
4.81518e-05
4.61354e-05
4.40667e-05
4.19552e-05
3.98071e-05
3.76074e-05
3.53166e-05
3.29452e-05
3.04684e-05
2.78835e-05
2.51829e-05
2.23868e-05
1.95294e-05
1.6694e-05
1.40224e-05
1.1508e-05
9.23655e-06
7.49703e-06
6.29074e-06
5.6803e-06
6.86378e-06
0.000115626
0.000115902
0.000116011
0.000116132
0.000116228
0.000116308
0.000116394
0.000116445
0.000116519
0.000116545
0.000116602
0.000116605
0.000116642
0.000116622
0.000116632
0.000116587
0.000116568
0.000116496
0.000116444
0.000116343
0.000116256
0.000116122
0.000115994
0.000115821
0.000115651
0.000115443
0.000115238
0.000115
0.000114761
0.000114491
0.000114216
0.000113912
0.000113599
0.000113259
0.000112906
0.000112527
0.000112134
0.000111714
0.000111267
0.000110789
0.000110286
0.000109756
0.000109195
0.000108604
0.000107976
0.000107313
0.000106608
0.00010586
0.000105062
0.000104211
0.0001033
0.00010222
0.000100702
9.91577e-05
9.75572e-05
9.59326e-05
9.42692e-05
9.25817e-05
9.08544e-05
8.90983e-05
8.73198e-05
8.55306e-05
8.36792e-05
8.18158e-05
7.99041e-05
7.79742e-05
7.60042e-05
7.40137e-05
7.19886e-05
6.99418e-05
6.78627e-05
6.57584e-05
6.36212e-05
6.14546e-05
5.92527e-05
5.70178e-05
5.47453e-05
5.24386e-05
5.00956e-05
4.77215e-05
4.53181e-05
4.28944e-05
4.04558e-05
3.80144e-05
3.55821e-05
3.31903e-05
3.08389e-05
2.85528e-05
2.63287e-05
2.418e-05
2.20765e-05
2.00403e-05
1.80414e-05
1.59958e-05
1.39485e-05
1.19396e-05
1.01377e-05
8.62634e-06
8.12574e-06
1.13134e-05
0.000137883
0.000137611
0.000137508
0.000137242
0.000137138
0.000136844
0.000136713
0.000136399
0.000136232
0.000135899
0.00013569
0.000135337
0.000135085
0.000134709
0.000134412
0.000134009
0.000133666
0.000133231
0.00013284
0.000132368
0.000131924
0.000131409
0.00013091
0.000130345
0.000129777
0.000128876
0.000127831
0.000126746
0.000125646
0.000124512
0.000123361
0.000122179
0.000120977
0.000119744
0.00011849
0.000117205
0.000115897
0.000114557
0.000113195
0.000111801
0.000110377
0.000108928
0.000107446
0.00010594
0.000104399
0.000102834
0.000101235
9.96112e-05
9.79554e-05
9.62672e-05
9.45532e-05
9.28332e-05
9.10806e-05
8.93136e-05
8.75198e-05
8.57147e-05
8.38867e-05
8.20435e-05
8.01732e-05
7.8283e-05
7.63647e-05
7.44261e-05
7.24636e-05
7.04852e-05
6.8484e-05
6.64706e-05
6.44386e-05
6.23994e-05
6.0349e-05
5.82987e-05
5.62467e-05
5.42042e-05
5.21715e-05
5.0159e-05
4.81681e-05
4.62081e-05
4.42797e-05
4.23909e-05
4.05406e-05
3.87335e-05
3.69661e-05
3.524e-05
3.35438e-05
3.18781e-05
3.02507e-05
2.86287e-05
2.7019e-05
2.54125e-05
2.38037e-05
2.21846e-05
2.05512e-05
1.88991e-05
1.72186e-05
1.54877e-05
1.37176e-05
1.19884e-05
1.05127e-05
9.77692e-06
1.19119e-05
1.20612e-05
0.000140773
0.00014089
0.000140625
0.000140473
0.000139702
0.000139099
0.000138181
0.000137384
0.000136416
0.000135513
0.000134516
0.000133543
0.000132517
0.000131487
0.000130429
0.00012935
0.000128254
0.000127126
0.000125989
0.000124814
0.00012363
0.000122408
0.000121177
0.000119909
0.000118623
0.000117316
0.000115995
0.000114646
0.000113283
0.000111895
0.000110493
0.000109067
0.000107626
0.000106163
0.000104685
0.000103184
0.000101669
0.000100122
9.85679e-05
9.70148e-05
9.54134e-05
9.3819e-05
9.21896e-05
9.05595e-05
8.89029e-05
8.72424e-05
8.55617e-05
8.38766e-05
8.21767e-05
8.04745e-05
7.8764e-05
7.70529e-05
7.53368e-05
7.36205e-05
7.18974e-05
7.01754e-05
6.84542e-05
6.6739e-05
6.50283e-05
6.33274e-05
6.16351e-05
5.99575e-05
5.82935e-05
5.66487e-05
5.50215e-05
5.34173e-05
5.18338e-05
5.02755e-05
4.87396e-05
4.72294e-05
4.57369e-05
4.42699e-05
4.28325e-05
4.14025e-05
3.99984e-05
3.86037e-05
3.72254e-05
3.58511e-05
3.44846e-05
3.31146e-05
3.17429e-05
3.0363e-05
2.89754e-05
2.75803e-05
2.618e-05
2.47734e-05
2.33744e-05
2.19756e-05
2.05963e-05
1.92356e-05
1.79109e-05
1.6622e-05
1.53895e-05
1.41973e-05
1.31044e-05
1.22705e-05
1.20794e-05
1.37498e-05
1.37879e-05
1.4139e-05
0.000127879
0.000127258
0.000126845
0.000126301
0.000125368
0.000124456
0.000123357
0.000122289
0.000121129
0.000119982
0.000118793
0.000117598
0.000116387
0.000115158
0.000113928
0.000112671
0.000111421
0.000110141
0.000108872
0.000107573
0.000106281
0.000104965
0.000103656
0.000102347
0.000101011
9.96804e-05
9.83302e-05
9.69692e-05
9.56007e-05
9.42202e-05
9.28332e-05
9.14333e-05
9.00281e-05
8.86106e-05
8.71893e-05
8.57569e-05
8.4322e-05
8.28785e-05
8.14358e-05
7.9986e-05
7.85369e-05
7.70882e-05
7.56399e-05
7.41965e-05
7.27555e-05
7.13228e-05
6.98951e-05
6.84782e-05
6.70687e-05
6.56718e-05
6.4284e-05
6.29088e-05
6.15439e-05
6.0193e-05
5.88534e-05
5.75276e-05
5.62136e-05
5.49189e-05
5.36398e-05
5.23702e-05
5.11183e-05
4.98757e-05
4.86472e-05
4.74272e-05
4.6218e-05
4.50162e-05
4.38227e-05
4.26352e-05
4.14542e-05
4.02786e-05
3.91086e-05
3.79455e-05
3.67906e-05
3.56424e-05
3.45039e-05
3.33709e-05
3.22504e-05
3.11383e-05
3.00453e-05
2.89646e-05
2.79041e-05
2.68601e-05
2.58395e-05
2.4839e-05
2.38646e-05
2.29134e-05
2.19839e-05
2.10798e-05
2.02121e-05
1.93826e-05
1.86062e-05
1.78912e-05
1.72649e-05
1.67623e-05
1.6515e-05
1.66377e-05
1.60619e-05
1.5818e-05
1.57932e-05
1.3211e-05
0.000112284
0.000111106
0.000110555
0.000109679
0.000108737
0.000107641
0.000106551
0.00010537
0.000104223
0.000103011
0.000101841
0.000100616
9.94349e-05
9.82055e-05
9.70181e-05
9.57877e-05
9.45972e-05
9.33691e-05
9.21788e-05
9.09563e-05
8.97698e-05
8.85574e-05
8.73833e-05
8.61791e-05
8.50032e-05
8.38141e-05
8.2645e-05
8.14675e-05
8.03091e-05
7.91449e-05
7.79975e-05
7.68462e-05
7.57102e-05
7.45721e-05
7.34481e-05
7.2323e-05
7.12104e-05
7.00976e-05
6.8996e-05
6.7891e-05
6.67992e-05
6.57129e-05
6.46318e-05
6.35563e-05
6.24871e-05
6.14234e-05
6.03654e-05
5.93129e-05
5.82654e-05
5.72238e-05
5.61867e-05
5.51561e-05
5.41309e-05
5.31146e-05
5.21068e-05
5.11111e-05
5.01167e-05
4.91349e-05
4.8158e-05
4.71923e-05
4.62354e-05
4.52918e-05
4.43613e-05
4.3446e-05
4.25459e-05
4.16613e-05
4.08018e-05
3.99605e-05
3.91448e-05
3.83504e-05
3.75831e-05
3.68384e-05
3.61172e-05
3.54185e-05
3.47426e-05
3.40876e-05
3.34529e-05
3.2834e-05
3.2233e-05
3.1293e-05
3.03375e-05
2.93898e-05
2.84606e-05
2.75401e-05
2.6639e-05
2.57481e-05
2.48785e-05
2.40218e-05
2.31912e-05
2.23806e-05
2.16062e-05
2.08658e-05
2.01748e-05
1.95425e-05
1.90016e-05
1.85971e-05
1.83369e-05
1.82331e-05
1.89293e-05
1.49388e-05
0.000101012
9.92649e-05
9.86992e-05
9.76121e-05
9.67555e-05
9.55801e-05
9.46166e-05
9.34391e-05
9.24442e-05
9.12947e-05
9.03008e-05
8.91873e-05
8.82046e-05
8.71278e-05
8.61605e-05
8.51163e-05
8.41638e-05
8.31472e-05
8.22073e-05
8.12126e-05
8.02819e-05
7.93001e-05
7.83581e-05
7.70288e-05
7.57686e-05
7.44648e-05
7.3246e-05
7.19821e-05
7.0801e-05
6.95842e-05
6.84494e-05
6.72876e-05
6.62066e-05
6.5106e-05
6.40849e-05
6.30486e-05
6.20896e-05
6.11205e-05
6.02263e-05
5.93263e-05
5.84971e-05
5.76656e-05
5.68982e-05
5.61284e-05
5.54194e-05
5.47082e-05
5.40532e-05
5.33959e-05
5.27898e-05
5.21809e-05
5.1617e-05
5.10509e-05
5.0521e-05
4.99871e-05
4.94811e-05
4.89739e-05
4.84863e-05
4.79962e-05
4.75162e-05
4.70308e-05
4.65494e-05
4.60603e-05
4.55699e-05
4.50642e-05
4.45545e-05
4.40511e-05
4.35303e-05
4.30083e-05
4.24824e-05
4.19553e-05
4.14237e-05
4.0891e-05
4.03538e-05
3.98154e-05
3.92722e-05
3.87275e-05
3.81778e-05
3.76258e-05
3.70693e-05
3.6507e-05
3.59379e-05
3.53546e-05
3.47596e-05
3.41457e-05
3.35143e-05
3.28585e-05
3.2179e-05
3.14704e-05
3.07352e-05
2.99726e-05
2.91913e-05
2.84003e-05
2.76203e-05
2.68756e-05
2.62604e-05
2.58027e-05
2.54263e-05
2.55993e-05
2.61335e-05
2.05145e-05
8.42719e-05
8.21653e-05
8.13092e-05
7.97152e-05
7.8819e-05
7.73327e-05
7.64042e-05
7.50202e-05
7.40735e-05
7.27511e-05
7.1837e-05
7.0575e-05
6.96891e-05
6.84891e-05
6.76344e-05
6.64993e-05
6.56803e-05
6.46124e-05
6.3834e-05
6.28352e-05
6.21024e-05
6.11747e-05
6.04914e-05
5.96386e-05
5.90149e-05
5.82459e-05
5.76855e-05
5.69967e-05
5.65e-05
5.58885e-05
5.54537e-05
5.49153e-05
5.45379e-05
5.40686e-05
5.37427e-05
5.33387e-05
5.30598e-05
5.27154e-05
5.24764e-05
5.21851e-05
5.198e-05
5.17322e-05
5.15553e-05
5.13426e-05
5.11885e-05
5.10034e-05
5.08667e-05
5.0696e-05
5.05664e-05
5.04339e-05
5.03106e-05
5.01898e-05
5.00462e-05
4.99451e-05
4.98233e-05
4.97309e-05
4.96241e-05
4.95409e-05
4.94511e-05
4.93817e-05
4.93096e-05
4.92554e-05
4.92013e-05
4.91627e-05
4.91264e-05
4.91034e-05
4.9086e-05
4.90813e-05
4.90815e-05
4.90938e-05
4.91114e-05
4.91401e-05
4.91741e-05
4.92181e-05
4.92671e-05
4.93243e-05
4.93847e-05
4.94512e-05
4.95187e-05
4.95893e-05
4.96576e-05
4.97235e-05
4.97799e-05
4.98252e-05
4.98514e-05
4.98543e-05
4.98249e-05
4.97562e-05
4.96384e-05
4.94658e-05
4.92321e-05
4.8937e-05
4.8584e-05
4.81855e-05
4.77698e-05
4.74207e-05
4.72894e-05
4.74223e-05
4.79631e-05
3.97688e-05
7.42857e-05
7.24175e-05
7.16691e-05
7.02646e-05
6.95579e-05
6.82347e-05
6.75662e-05
6.63313e-05
6.57e-05
6.4557e-05
6.39673e-05
6.29138e-05
6.23688e-05
6.14035e-05
6.09052e-05
6.00263e-05
5.95756e-05
5.87809e-05
5.83782e-05
5.76644e-05
5.73092e-05
5.66727e-05
5.63637e-05
5.58005e-05
5.55356e-05
5.50405e-05
5.4816e-05
5.43832e-05
5.41953e-05
5.38208e-05
5.36629e-05
5.33511e-05
5.32002e-05
5.29485e-05
5.2823e-05
5.26302e-05
5.25044e-05
5.23689e-05
5.22412e-05
5.21418e-05
5.20498e-05
5.19729e-05
5.19081e-05
5.18554e-05
5.18172e-05
5.17874e-05
5.17745e-05
5.17678e-05
5.178e-05
5.17971e-05
5.18323e-05
5.18728e-05
5.19312e-05
5.19996e-05
5.20829e-05
5.21788e-05
5.22881e-05
5.24116e-05
5.25474e-05
5.26983e-05
5.28614e-05
5.304e-05
5.32314e-05
5.34394e-05
5.36606e-05
5.38988e-05
5.41508e-05
5.44203e-05
5.47042e-05
5.50062e-05
5.53236e-05
5.56596e-05
5.60125e-05
5.63851e-05
5.67761e-05
5.71884e-05
5.76213e-05
5.80773e-05
5.85559e-05
5.90597e-05
5.95884e-05
6.01449e-05
6.07305e-05
6.13479e-05
6.1999e-05
6.26871e-05
6.3415e-05
6.41869e-05
6.50082e-05
6.58842e-05
6.68212e-05
6.78266e-05
6.89079e-05
7.00732e-05
7.13286e-05
7.26679e-05
7.40855e-05
7.55471e-05
7.62725e-05
6.62e-05
7.87413e-05
7.67798e-05
7.59915e-05
7.45065e-05
7.37473e-05
7.23481e-05
7.16177e-05
7.03088e-05
6.96097e-05
6.83942e-05
6.77291e-05
6.661e-05
6.59817e-05
6.49599e-05
6.43743e-05
6.3444e-05
6.29065e-05
6.20633e-05
6.15767e-05
6.08165e-05
6.03814e-05
5.96999e-05
5.93151e-05
5.87075e-05
5.83709e-05
5.78319e-05
5.75402e-05
5.70644e-05
5.68134e-05
5.6395e-05
5.61801e-05
5.58134e-05
5.56291e-05
5.53094e-05
5.515e-05
5.4872e-05
5.47313e-05
5.44834e-05
5.43552e-05
5.41759e-05
5.40246e-05
5.39008e-05
5.37531e-05
5.36392e-05
5.35309e-05
5.3437e-05
5.33529e-05
5.32793e-05
5.32186e-05
5.3166e-05
5.31285e-05
5.30979e-05
5.30842e-05
5.30768e-05
5.3085e-05
5.31023e-05
5.31364e-05
5.31797e-05
5.32399e-05
5.33089e-05
5.33942e-05
5.34907e-05
5.36019e-05
5.37264e-05
5.38655e-05
5.40185e-05
5.41861e-05
5.43682e-05
5.45649e-05
5.47765e-05
5.50033e-05
5.52449e-05
5.55023e-05
5.5775e-05
5.60637e-05
5.63687e-05
5.66911e-05
5.70312e-05
5.73903e-05
5.77689e-05
5.81686e-05
5.85901e-05
5.90355e-05
5.95058e-05
6.00034e-05
6.05298e-05
6.10878e-05
6.16794e-05
6.23072e-05
6.29732e-05
6.36811e-05
6.44367e-05
6.52595e-05
6.61541e-05
6.71455e-05
6.82509e-05
6.95148e-05
7.09095e-05
7.19441e-05
6.30825e-05
9.64162e-05
9.42593e-05
9.33728e-05
9.17092e-05
9.07675e-05
8.91939e-05
8.82045e-05
8.671e-05
8.56845e-05
8.42686e-05
8.32085e-05
8.18708e-05
8.07909e-05
7.95082e-05
7.84596e-05
7.72199e-05
7.62052e-05
7.50158e-05
7.4039e-05
7.29053e-05
7.19709e-05
7.08969e-05
7.00091e-05
6.8998e-05
6.81604e-05
6.72144e-05
6.64278e-05
6.55497e-05
6.48185e-05
6.4007e-05
6.33325e-05
6.2587e-05
6.19695e-05
6.12887e-05
6.07254e-05
6.01051e-05
5.95939e-05
5.90311e-05
5.85687e-05
5.80597e-05
5.76402e-05
5.71791e-05
5.67914e-05
5.63717e-05
5.60128e-05
5.56275e-05
5.5292e-05
5.49334e-05
5.46152e-05
5.42764e-05
5.39703e-05
5.36405e-05
5.33352e-05
5.30298e-05
5.27379e-05
5.24334e-05
5.21516e-05
5.18591e-05
5.159e-05
5.13213e-05
5.10417e-05
5.07798e-05
5.05196e-05
5.02686e-05
5.00215e-05
4.97812e-05
4.95461e-05
4.93184e-05
4.90969e-05
4.88767e-05
4.8659e-05
4.84412e-05
4.82234e-05
4.80014e-05
4.77752e-05
4.75407e-05
4.72979e-05
4.70423e-05
4.67741e-05
4.64885e-05
4.61889e-05
4.58691e-05
4.55315e-05
4.51709e-05
4.47896e-05
4.43839e-05
4.39567e-05
4.35062e-05
4.30376e-05
4.25511e-05
4.20555e-05
4.15512e-05
4.10366e-05
4.05544e-05
4.01271e-05
3.98276e-05
3.97458e-05
4.00086e-05
4.06476e-05
3.43567e-05
0.000104428
0.000102887
0.00010225
0.000101154
0.000100266
9.90742e-05
9.8075e-05
9.68693e-05
9.583e-05
9.46439e-05
9.35966e-05
9.24394e-05
9.13971e-05
9.02682e-05
8.9238e-05
8.8136e-05
8.71192e-05
8.60429e-05
8.50403e-05
8.39881e-05
8.29998e-05
8.19704e-05
8.09972e-05
7.99887e-05
7.90296e-05
7.80355e-05
7.70944e-05
7.61228e-05
7.51903e-05
7.4237e-05
7.33193e-05
7.23848e-05
7.14822e-05
7.0566e-05
6.96796e-05
6.87826e-05
6.78963e-05
6.7001e-05
6.61191e-05
6.52318e-05
6.43587e-05
6.3485e-05
6.26269e-05
6.17718e-05
6.0935e-05
6.01045e-05
5.92961e-05
5.84968e-05
5.77228e-05
5.6958e-05
5.62208e-05
5.54954e-05
5.4797e-05
5.41102e-05
5.3448e-05
5.28033e-05
5.21863e-05
5.14588e-05
5.07305e-05
4.99916e-05
4.92672e-05
4.8532e-05
4.78043e-05
4.70606e-05
4.63185e-05
4.55598e-05
4.47996e-05
4.4016e-05
4.32233e-05
4.24349e-05
4.1642e-05
4.08343e-05
4.00314e-05
3.92163e-05
3.84074e-05
3.75888e-05
3.67771e-05
3.59589e-05
3.51494e-05
3.43367e-05
3.35278e-05
3.27173e-05
3.19143e-05
3.11141e-05
3.0326e-05
2.95459e-05
2.87754e-05
2.80182e-05
2.72781e-05
2.65613e-05
2.58747e-05
2.52281e-05
2.46325e-05
2.4098e-05
2.37143e-05
2.34014e-05
2.33693e-05
2.36441e-05
2.43844e-05
1.89189e-05
0.00011822
0.000117079
0.000116544
0.000115664
0.0001147
0.000113592
0.000112465
0.000111253
0.000110059
0.000108804
0.000107588
0.000106317
0.000105087
0.000103807
0.000102566
0.000101278
0.000100027
9.87313e-05
9.74703e-05
9.61699e-05
9.49003e-05
9.35962e-05
9.23207e-05
9.10173e-05
8.97362e-05
8.84321e-05
8.71498e-05
8.58465e-05
8.45629e-05
8.32627e-05
8.1982e-05
8.06879e-05
7.94118e-05
7.81258e-05
7.68573e-05
7.55834e-05
7.43295e-05
7.30726e-05
7.18344e-05
7.0595e-05
6.93721e-05
6.8149e-05
6.69395e-05
6.57354e-05
6.45462e-05
6.33544e-05
6.21793e-05
6.1003e-05
5.98416e-05
5.86824e-05
5.75373e-05
5.63952e-05
5.52662e-05
5.41407e-05
5.30279e-05
5.19199e-05
5.08267e-05
4.97411e-05
4.86729e-05
4.76169e-05
4.65735e-05
4.55365e-05
4.45141e-05
4.35028e-05
4.25085e-05
4.15276e-05
4.05678e-05
3.96302e-05
3.87177e-05
3.78266e-05
3.6963e-05
3.61234e-05
3.53129e-05
3.45263e-05
3.37645e-05
3.30262e-05
3.23121e-05
3.16206e-05
3.09512e-05
3.03016e-05
2.96666e-05
2.90493e-05
2.84438e-05
2.78517e-05
2.68371e-05
2.58609e-05
2.49064e-05
2.39972e-05
2.31142e-05
2.22814e-05
2.1482e-05
2.07412e-05
2.00413e-05
1.94159e-05
1.88211e-05
1.84111e-05
1.81794e-05
1.79935e-05
1.8727e-05
1.44605e-05
0.000134569
0.000133932
0.000133519
0.000132941
0.000131974
0.000131006
0.000129859
0.000128726
0.000127512
0.0001263
0.000125053
0.000123791
0.000122519
0.00012122
0.000119923
0.000118592
0.00011727
0.000115911
0.000114563
0.000113179
0.000111807
0.000110401
0.000108991
0.000107573
0.000106163
0.000104717
0.000103288
0.00010183
0.000100388
9.89186e-05
9.74539e-05
9.59647e-05
9.44767e-05
9.29673e-05
9.14579e-05
8.99313e-05
8.84137e-05
8.68831e-05
8.5359e-05
8.38265e-05
8.22981e-05
8.07625e-05
7.92343e-05
7.77002e-05
7.61762e-05
7.46489e-05
7.31339e-05
7.16194e-05
7.01192e-05
6.86235e-05
6.71442e-05
6.56726e-05
6.42186e-05
6.27746e-05
6.13477e-05
5.99322e-05
5.85351e-05
5.71472e-05
5.57774e-05
5.44261e-05
5.30892e-05
5.17738e-05
5.04746e-05
4.91931e-05
4.79262e-05
4.6673e-05
4.54321e-05
4.42012e-05
4.29804e-05
4.17668e-05
4.05616e-05
3.93615e-05
3.81687e-05
3.6982e-05
3.5807e-05
3.46389e-05
3.3479e-05
3.23267e-05
3.11829e-05
3.00502e-05
2.89287e-05
2.78236e-05
2.67328e-05
2.56633e-05
2.46094e-05
2.35769e-05
2.2562e-05
2.15711e-05
2.05973e-05
1.96498e-05
1.87397e-05
1.787e-05
1.70521e-05
1.63927e-05
1.59641e-05
1.6134e-05
1.60762e-05
1.58674e-05
1.58836e-05
1.31637e-05
0.000146374
0.000146483
0.000146211
0.000146007
0.000145201
0.000144526
0.000143559
0.000142688
0.000141667
0.000140694
0.000139643
0.000138602
0.000137521
0.000136428
0.000135315
0.000134176
0.000133027
0.000131845
0.000130657
0.000129433
0.000128205
0.000126939
0.000125668
0.000124364
0.00012305
0.000121702
0.000120347
0.000118956
0.00011757
0.000116151
0.000114723
0.00011327
0.000111807
0.000110319
0.00010882
0.000107299
0.000105768
0.000104215
0.00010264
0.000101053
9.94698e-05
9.78401e-05
9.62158e-05
9.45572e-05
9.28969e-05
9.12086e-05
8.95151e-05
8.77985e-05
8.60756e-05
8.43339e-05
8.2587e-05
8.0826e-05
7.90623e-05
7.72914e-05
7.5519e-05
7.3743e-05
7.19694e-05
7.01883e-05
6.84133e-05
6.6635e-05
6.48684e-05
6.31078e-05
6.1364e-05
5.9631e-05
5.79203e-05
5.62251e-05
5.4556e-05
5.29072e-05
5.12871e-05
4.96907e-05
4.81241e-05
4.65823e-05
4.50691e-05
4.35736e-05
4.2107e-05
4.06701e-05
3.92379e-05
3.78356e-05
3.64347e-05
3.505e-05
3.36597e-05
3.22724e-05
3.08712e-05
2.94623e-05
2.80317e-05
2.65874e-05
2.51252e-05
2.36468e-05
2.21637e-05
2.06685e-05
1.91818e-05
1.76961e-05
1.62116e-05
1.47883e-05
1.34768e-05
1.24361e-05
1.20866e-05
1.36442e-05
1.38508e-05
1.43361e-05
0.000140652
0.000140331
0.000140205
0.000139886
0.000139748
0.000139404
0.000139237
0.000138879
0.000138675
0.000138302
0.000138057
0.000137668
0.000137382
0.000136974
0.000136644
0.000136212
0.000135839
0.000135378
0.00013496
0.000134468
0.000134003
0.000133473
0.000132959
0.000132386
0.000131817
0.000131192
0.00013056
0.000129838
0.000128726
0.000127588
0.000126427
0.000125243
0.000124043
0.000122821
0.000121585
0.00012032
0.000119037
0.000117725
0.000116391
0.000115031
0.000113648
0.000112232
0.000110796
0.000109325
0.000107834
0.000106306
0.000104756
0.000103172
0.000101563
9.99221e-05
9.82553e-05
9.65565e-05
9.48203e-05
9.30641e-05
9.13019e-05
8.94883e-05
8.76763e-05
8.58186e-05
8.39584e-05
8.20615e-05
8.01581e-05
7.82226e-05
7.6275e-05
7.42924e-05
7.22937e-05
7.02671e-05
6.82228e-05
6.61575e-05
6.40765e-05
6.19814e-05
5.98766e-05
5.77671e-05
5.56574e-05
5.35551e-05
5.14648e-05
4.93955e-05
4.7351e-05
4.53394e-05
4.33639e-05
4.14298e-05
3.95381e-05
3.76903e-05
3.58839e-05
3.41161e-05
3.2371e-05
3.06505e-05
2.89694e-05
2.72624e-05
2.55705e-05
2.38518e-05
2.21152e-05
2.03229e-05
1.84628e-05
1.65318e-05
1.46123e-05
1.2697e-05
1.10385e-05
1.00804e-05
1.19764e-05
1.21314e-05
0.000116445
0.000116674
0.000116762
0.000116841
0.000116911
0.000116951
0.000117009
0.000117023
0.000117067
0.000117058
0.000117085
0.000117054
0.00011706
0.000117009
0.000116992
0.000116922
0.00011688
0.000116788
0.000116719
0.000116603
0.000116503
0.00011636
0.000116226
0.000116052
0.000115881
0.000115674
0.000115464
0.000115221
0.000114975
0.000114708
0.000114432
0.000114136
0.000113828
0.0001135
0.000113157
0.000112796
0.000112423
0.000112032
0.000111619
0.000111184
0.000110724
0.000110238
0.000109726
0.000109181
0.000108606
0.000108001
0.000107369
0.000106708
0.000106017
0.000105284
0.000104512
0.00010369
0.000102818
0.000101887
0.000100849
9.92961e-05
9.77253e-05
9.60817e-05
9.44174e-05
9.26944e-05
9.09495e-05
8.91598e-05
8.73556e-05
8.55102e-05
8.3641e-05
8.17453e-05
7.97884e-05
7.78109e-05
7.57844e-05
7.37317e-05
7.16381e-05
6.95164e-05
6.73509e-05
6.51547e-05
6.29128e-05
6.06343e-05
5.83065e-05
5.5936e-05
5.35137e-05
5.10454e-05
4.85273e-05
4.59672e-05
4.33677e-05
4.07409e-05
3.80982e-05
3.54576e-05
3.28383e-05
3.02628e-05
2.77641e-05
2.53497e-05
2.30081e-05
2.07353e-05
1.85349e-05
1.62973e-05
1.41349e-05
1.21304e-05
1.03197e-05
8.92066e-06
8.3794e-06
1.15372e-05
7.48507e-05
7.52882e-05
7.53727e-05
7.56453e-05
7.57374e-05
7.59621e-05
7.6072e-05
7.62654e-05
7.63906e-05
7.65625e-05
7.66978e-05
7.68546e-05
7.69951e-05
7.71409e-05
7.72825e-05
7.74193e-05
7.75585e-05
7.76873e-05
7.7821e-05
7.79416e-05
7.80677e-05
7.81795e-05
7.8296e-05
7.83984e-05
7.85043e-05
7.85972e-05
7.86924e-05
7.87765e-05
7.88631e-05
7.894e-05
7.90171e-05
7.90856e-05
7.91518e-05
7.92099e-05
7.92638e-05
7.93096e-05
7.9349e-05
7.93787e-05
7.94035e-05
7.94191e-05
7.94281e-05
7.94281e-05
7.94203e-05
7.94034e-05
7.93786e-05
7.93451e-05
7.92988e-05
7.92382e-05
7.91606e-05
7.90632e-05
7.89446e-05
7.88004e-05
7.86299e-05
7.84288e-05
7.81971e-05
7.79379e-05
7.76638e-05
7.73531e-05
7.70211e-05
7.66425e-05
7.62258e-05
7.5635e-05
7.48081e-05
7.39236e-05
7.29864e-05
7.20054e-05
7.09694e-05
6.98907e-05
6.8752e-05
6.75555e-05
6.62973e-05
6.49924e-05
6.35931e-05
6.21291e-05
6.05722e-05
5.89343e-05
5.71975e-05
5.53686e-05
5.34367e-05
5.1408e-05
4.92777e-05
4.70536e-05
4.47372e-05
4.23397e-05
3.98703e-05
3.7339e-05
3.47411e-05
3.20898e-05
2.93074e-05
2.64422e-05
2.34799e-05
2.04581e-05
1.7483e-05
1.46337e-05
1.19455e-05
9.59138e-06
7.77091e-06
6.54218e-06
5.87315e-06
6.77704e-06
6.97552e-06
6.99216e-06
7.00372e-06
7.01738e-06
7.0312e-06
7.04769e-06
7.06176e-06
7.0797e-06
7.09434e-06
7.11305e-06
7.12854e-06
7.14769e-06
7.16416e-06
7.18365e-06
7.20116e-06
7.22097e-06
7.23951e-06
7.2597e-06
7.27923e-06
7.2999e-06
7.32041e-06
7.34169e-06
7.36319e-06
7.38524e-06
7.40781e-06
7.43084e-06
7.45462e-06
7.47881e-06
7.50392e-06
7.52943e-06
7.55594e-06
7.5829e-06
7.6109e-06
7.63945e-06
7.66908e-06
7.69938e-06
7.73079e-06
7.76304e-06
7.79647e-06
7.83087e-06
7.86653e-06
7.90327e-06
7.94135e-06
7.98061e-06
8.0212e-06
8.06295e-06
8.10586e-06
8.1499e-06
8.19505e-06
8.24129e-06
8.28868e-06
8.3372e-06
8.38702e-06
8.43821e-06
8.49109e-06
8.54573e-06
8.60192e-06
8.65871e-06
8.71634e-06
8.77288e-06
8.8287e-06
8.88122e-06
8.93406e-06
8.98875e-06
9.0451e-06
9.10424e-06
9.16555e-06
9.2302e-06
9.29706e-06
9.36754e-06
9.44127e-06
9.51896e-06
9.59756e-06
9.68151e-06
9.76647e-06
9.85639e-06
9.94806e-06
1.00445e-05
1.01439e-05
1.02489e-05
1.03589e-05
1.04767e-05
1.06033e-05
1.0742e-05
1.08939e-05
1.1057e-05
1.12153e-05
1.13219e-05
1.13494e-05
1.12249e-05
1.07761e-05
9.77115e-06
8.06265e-06
5.93943e-06
3.61651e-06
2.63497e-06
2.55592e-06
3.91732e-06
4.01815e-06
4.33056e-06
1.09393e-05
2.07741e-06
2.60071e-06
3.51756e-06
4.54848e-06
5.62323e-06
6.4876e-06
7.33721e-06
8.15048e-06
8.90657e-06
9.62006e-06
1.03382e-05
1.14569e-05
1.3336e-05
1.54705e-05
1.78509e-05
1.75964e-05
1.55408e-05
1.02867e-05
3.99555e-06
5.88005e-06
2.18623e-06
2.47524e-06
3.18441e-06
4.05648e-06
4.86419e-06
5.69346e-06
6.55254e-06
7.41593e-06
8.29966e-06
9.27534e-06
1.03729e-05
1.20264e-05
1.41004e-05
1.70548e-05
1.83247e-05
1.74934e-05
1.47063e-05
9.53258e-06
3.9667e-06
4.94632e-06
2.69547e-06
2.90129e-06
3.4169e-06
4.01121e-06
4.71754e-06
5.48185e-06
6.31651e-06
7.22239e-06
8.39011e-06
9.51053e-06
1.10222e-05
1.29407e-05
1.58385e-05
1.80278e-05
1.83056e-05
1.71507e-05
1.39999e-05
8.86936e-06
3.83868e-06
5.0566e-06
3.43955e-06
3.63823e-06
3.87603e-06
4.36895e-06
4.9297e-06
5.67453e-06
6.58297e-06
7.71583e-06
9.48963e-06
1.12203e-05
1.29553e-05
1.57433e-05
1.82228e-05
1.91998e-05
1.88231e-05
1.70304e-05
1.32322e-05
7.97745e-06
3.25589e-06
5.68871e-06
4.47717e-06
4.61694e-06
4.63444e-06
5.19474e-06
5.69388e-06
6.58673e-06
7.84453e-06
9.60108e-06
1.31113e-05
1.47787e-05
1.70926e-05
1.93545e-05
2.04402e-05
2.04424e-05
1.92225e-05
1.6534e-05
1.24873e-05
6.87705e-06
2.37229e-06
6.89544e-06
5.977e-06
6.04839e-06
6.02755e-06
6.77328e-06
7.76984e-06
9.35316e-06
1.16083e-05
1.61275e-05
1.95236e-05
2.0999e-05
2.23918e-05
2.30825e-05
2.28819e-05
2.16813e-05
1.9098e-05
1.596e-05
1.15518e-05
5.14218e-06
1.46328e-06
9.04353e-06
8.62729e-06
8.85885e-06
9.46544e-06
1.11851e-05
1.36765e-05
1.70887e-05
2.20439e-05
2.87901e-05
2.94416e-05
2.91227e-05
2.83308e-05
2.69259e-05
2.47866e-05
2.16757e-05
1.85299e-05
1.48174e-05
1.00966e-05
3.81817e-06
7.18379e-07
1.46589e-05
1.61382e-05
1.73667e-05
1.96651e-05
2.31963e-05
2.75233e-05
3.30977e-05
4.0064e-05
3.99362e-05
3.77729e-05
3.42797e-05
3.16625e-05
2.81012e-05
2.49273e-05
2.08589e-05
1.70834e-05
1.2913e-05
8.10211e-06
2.7808e-06
2.76769e-07
3.25292e-05
3.54855e-05
3.67119e-05
3.91736e-05
4.36273e-05
4.79712e-05
5.20222e-05
4.77949e-05
4.41715e-05
4.02462e-05
3.63706e-05
3.25808e-05
2.83679e-05
2.33259e-05
1.85613e-05
1.4071e-05
1.01887e-05
6.44225e-06
2.41423e-06
1.21308e-07
5.28239e-05
5.5708e-05
5.59617e-05
5.74661e-05
6.23174e-05
5.94014e-05
5.51159e-05
5.01544e-05
4.60703e-05
4.11103e-05
3.70353e-05
3.18617e-05
2.70277e-05
1.97571e-05
1.40309e-05
9.61175e-06
7.52292e-06
5.96597e-06
2.85012e-06
1.84588e-07
5.03432e-05
5.3076e-05
5.34415e-05
5.50245e-05
5.98197e-05
5.77649e-05
5.36529e-05
4.88893e-05
4.50344e-05
4.02415e-05
3.65661e-05
3.14358e-05
2.7618e-05
2.04743e-05
1.48104e-05
9.75714e-06
7.15356e-06
5.03593e-06
2.12094e-06
1.44824e-07
2.80258e-05
3.09222e-05
3.22781e-05
3.47519e-05
3.91504e-05
4.36895e-05
4.96431e-05
4.56331e-05
4.2652e-05
3.84257e-05
3.56688e-05
3.13182e-05
2.83389e-05
2.39321e-05
1.93672e-05
1.46136e-05
1.00119e-05
5.47931e-06
1.66933e-06
1.03706e-07
1.31037e-05
1.40475e-05
1.5025e-05
1.70709e-05
2.02347e-05
2.42837e-05
2.95462e-05
3.64337e-05
3.97665e-05
3.61571e-05
3.40278e-05
3.06149e-05
2.76736e-05
2.45053e-05
2.12649e-05
1.73733e-05
1.29712e-05
7.80902e-06
2.36567e-06
1.39504e-07
8.63839e-06
8.11703e-06
8.26445e-06
8.65995e-06
1.0079e-05
1.22227e-05
1.52247e-05
1.98463e-05
2.63273e-05
2.74923e-05
2.77863e-05
2.75968e-05
2.66725e-05
2.47307e-05
2.14449e-05
1.86181e-05
1.48272e-05
1.00093e-05
3.48214e-06
3.7836e-07
6.73714e-06
5.8051e-06
5.86951e-06
5.8322e-06
6.51354e-06
7.37391e-06
8.76027e-06
1.07505e-05
1.48408e-05
1.81988e-05
1.99886e-05
2.17371e-05
2.27557e-05
2.27882e-05
2.18421e-05
1.89555e-05
1.58288e-05
1.14921e-05
5.11061e-06
1.17542e-06
5.62043e-06
4.42678e-06
4.56444e-06
4.6069e-06
5.1544e-06
5.64457e-06
6.48893e-06
7.64152e-06
9.24786e-06
1.23741e-05
1.41534e-05
1.65297e-05
1.90615e-05
2.03562e-05
2.04628e-05
1.93547e-05
1.64115e-05
1.24328e-05
6.93169e-06
2.22472e-06
5.04233e-06
3.43516e-06
3.63726e-06
3.91537e-06
4.41433e-06
4.99443e-06
5.72907e-06
6.61098e-06
7.68821e-06
9.3403e-06
1.09295e-05
1.26851e-05
1.54334e-05
1.81309e-05
1.92567e-05
1.88997e-05
1.70966e-05
1.31886e-05
8.02984e-06
3.20678e-06
5.04742e-06
2.73338e-06
2.9326e-06
3.46319e-06
4.09225e-06
4.80638e-06
5.58376e-06
6.42157e-06
7.31363e-06
8.4226e-06
9.50561e-06
1.09538e-05
1.28398e-05
1.56662e-05
1.80433e-05
1.83944e-05
1.72082e-05
1.3947e-05
8.94522e-06
3.79874e-06
6.11967e-06
2.24182e-06
2.53618e-06
3.25412e-06
4.13367e-06
4.98446e-06
5.81926e-06
6.68638e-06
7.55656e-06
8.43108e-06
9.36999e-06
1.04311e-05
1.20464e-05
1.40911e-05
1.69988e-05
1.83783e-05
1.75187e-05
1.47185e-05
9.5847e-06
3.95285e-06
1.09719e-05
2.13799e-06
2.66026e-06
3.59579e-06
4.64394e-06
5.72248e-06
6.63744e-06
7.48903e-06
8.31066e-06
9.06829e-06
9.77612e-06
1.04657e-05
1.15078e-05
1.33032e-05
1.5468e-05
1.78817e-05
1.76242e-05
1.552e-05
1.0348e-05
3.99017e-06
1.23421e-06
0.000116558
0.000294184
0.000330906
0.00033481
0.000335356
0.000335357
0.000335342
0.000335343
0.000335345
0.000335345
0.000335343
0.000335342
0.000335357
0.000335356
0.00033481
0.000330906
0.000294184
0.000116558
1.23421e-06
1.36973e-06
6.8167e-05
0.000219584
0.000309504
0.000330909
0.000334527
0.000335273
0.000335315
0.000335296
0.000335287
0.000335287
0.000335296
0.000335315
0.000335273
0.000334527
0.000330909
0.000309503
0.000219584
6.8167e-05
1.36973e-06
1.51338e-06
5.28962e-05
0.00017646
0.00028058
0.000322148
0.000332504
0.000334604
0.0003351
0.000335168
0.000335172
0.000335172