/*--------------------------------*- C++ -*----------------------------------*\
| =========                 |                                                 |
| \\      /  F ield         | OpenFOAM: The Open Source CFD Toolbox           |
|  \\    /   O peration     | Version:  2.1.0                                 |
|   \\  /    A nd           | Web:      www.OpenFOAM.org                      |
|    \\/     M anipulation  |                                                 |
\*---------------------------------------------------------------------------*/
FoamFile
{
    version     2.0;
    format      ascii;
    class       volScalarField;
    location    "0.5";
    object      omega;
}
// * * * * * * * * * * * * * * * * * * * * * * * * * * * * * * * * * * * * * //

dimensions      [0 0 -1 0 0 0 0];

internalField   nonuniform List<scalar> 
6400
(
1643.49
1644.44
1644.52
1644.38
1643.84
1643.58
1642.85
1642.5
1641.7
1641.3
1640.45
1639.97
1639.1
1638.53
1637.63
1636.96
1636.04
1635.27
1634.31
1633.44
1632.45
1631.48
1630.45
1629.41
1628.33
1627.23
1626.11
1624.95
1623.78
1622.56
1621.33
1620.04
1618.74
1617.38
1616.01
1614.57
1613.11
1611.58
1610.02
1608.38
1606.69
1604.9
1603.02
1601.02
1598.92
1596.65
1594.24
1591.65
1588.87
1585.88
1582.66
1579.19
1575.47
1571.41
1566.94
1562.02
1556.54
1550.99
1544.95
1538.79
1532.19
1525.43
1518.29
1510.93
1503.17
1495.15
1486.71
1477.95
1468.67
1458.92
1448.65
1437.78
1426.33
1414.19
1401.39
1387.86
1373.65
1358.73
1343.16
1326.99
1310.27
1293.02
1275.12
1255.96
1234.44
1211.85
1187
1159.1
1126.74
1087.58
1038.13
972.298
882.801
763.218
609.649
537.891
565.855
735.156
892.949
942.847
687.635
687.84
689.032
689.99
691.335
692.696
694.093
695.658
697.118
698.807
700.349
702.13
703.767
705.627
707.368
709.304
711.152
713.165
715.122
717.216
719.282
721.465
723.645
725.926
728.228
730.626
733.064
735.598
738.195
740.887
743.659
746.53
749.496
752.569
755.754
759.061
762.501
766.084
769.792
773.643
777.636
781.782
786.091
790.567
795.224
800.064
805.103
810.344
815.802
821.482
827.4
833.565
839.989
846.653
853.586
860.78
868.243
876.099
884.269
892.857
901.813
911.231
921.087
931.458
942.346
953.828
965.879
978.384
991.43
1005.22
1019.71
1035
1051.13
1068.17
1086.19
1105.27
1125.51
1147.01
1169.89
1194.3
1220.43
1248.52
1278.31
1308.78
1341.03
1373.89
1406.99
1439.06
1468.82
1494.64
1513.33
1521.91
1523.62
1509.29
1473.91
1394.63
1284.96
1150.73
1005.9
848.272
498.669
501.815
503.312
506.361
508.374
511.459
513.793
516.916
519.499
522.683
525.484
528.755
531.763
535.146
538.359
541.877
545.297
548.968
552.59
556.425
560.254
564.269
568.312
572.523
576.788
581.211
585.706
590.35
595.088
599.974
604.971
610.118
615.393
620.821
626.39
632.117
637.995
644.038
650.289
656.742
663.389
670.229
677.298
684.592
692.132
699.922
707.979
716.31
724.93
733.845
743.064
752.591
762.432
772.609
783.12
793.991
805.231
816.885
828.942
841.445
854.387
867.802
881.688
896.069
910.94
926.316
942.203
958.671
975.645
992.961
1010.65
1028.62
1046.84
1065.23
1083.77
1102.4
1121.1
1139.83
1158.62
1177.46
1196.39
1215.42
1234.57
1253.88
1273.32
1292.69
1311.83
1330.2
1347.14
1361.47
1369.3
1372.1
1365.49
1339.2
1290.45
1210.71
1102.18
961
797.363
628.092
449.389
454.367
456.57
460.961
463.746
468.109
471.309
475.672
479.211
483.62
487.455
491.954
496.064
500.688
505.062
509.844
514.478
519.447
524.347
529.531
534.705
540.127
545.584
551.262
557.008
562.954
568.992
575.217
581.554
588.072
594.719
601.545
608.515
615.667
622.976
630.471
638.137
645.993
654.012
662.213
670.613
679.224
688.009
696.987
706.139
715.473
724.973
734.64
744.46
754.427
764.528
774.756
785.094
795.542
806.075
816.697
827.391
838.158
848.978
859.85
870.751
881.677
892.606
903.528
914.414
925.247
936.008
946.733
957.357
967.887
978.277
988.521
998.56
1008.34
1017.84
1026.95
1035.63
1043.76
1051.25
1057.95
1063.71
1068.35
1071.37
1072.74
1073.04
1070.47
1065.57
1057.44
1045.91
1030.12
1009.55
983.17
949.767
907.556
854.537
789.026
712.268
629.243
552.937
496.626
438.274
444.36
447.003
452.277
455.588
460.812
464.596
469.796
473.956
479.175
483.654
488.934
493.696
499.07
504.09
509.584
514.843
520.479
525.97
531.763
537.476
543.435
549.361
555.49
561.62
567.918
574.243
580.713
587.224
593.856
600.534
607.315
614.142
621.055
628.012
635.038
642.102
649.22
656.365
663.547
670.741
677.953
685.168
692.389
699.594
706.788
713.947
721.074
728.146
735.166
742.113
748.988
755.77
762.464
769.04
775.493
781.849
788.059
794.104
799.945
805.569
810.923
815.991
820.72
825.087
829.038
832.542
835.55
838.015
839.892
840.97
841.428
841.489
840.316
838.586
835.716
832.07
827.26
821.5
814.531
806.467
797.141
786.617
774.86
761.924
747.697
732.423
715.911
698.348
679.519
659.43
637.699
614.204
588.213
559.105
527.768
495.245
465.361
444.194
432.549
429.602
435.626
438.209
443.383
446.562
451.651
455.227
460.226
464.093
469.025
473.117
478.008
482.278
487.15
491.563
496.429
500.956
505.822
510.438
515.307
519.987
524.856
529.58
534.445
539.192
544.04
548.792
553.61
558.397
563.238
568.041
572.871
577.651
582.433
587.151
591.846
596.459
601.022
605.486
609.871
614.135
618.293
622.295
626.168
629.854
633.379
636.685
639.796
642.656
645.283
647.626
649.696
651.446
652.883
653.962
654.687
655.057
655.189
655.018
654.291
653.275
651.721
649.801
647.354
644.495
641.121
637.311
633.005
628.258
623.04
617.394
611.332
604.918
598.114
591.031
583.606
575.962
568.039
559.992
551.776
543.473
535.098
526.729
518.376
510.095
501.875
493.616
485.346
477.107
468.806
460.424
451.833
442.973
433.694
424.104
414.71
406.896
403.162
402.113
402.09
401.629
406.482
408.541
412.664
415.112
419.142
421.824
425.728
428.559
432.336
435.26
438.917
441.894
445.436
448.432
451.859
454.844
458.155
461.101
464.288
467.169
470.224
473.018
475.925
478.585
481.298
483.788
486.289
488.62
490.929
493.043
495.091
496.923
498.649
500.139
501.489
502.584
503.511
504.167
504.567
504.735
504.763
504.395
503.857
502.969
501.884
500.462
498.829
496.875
494.707
492.237
489.56
486.608
483.468
480.103
476.598
472.846
468.978
464.916
460.765
456.498
452.177
447.803
443.414
439.018
434.629
430.351
426.15
422.11
418.207
414.51
410.993
407.675
404.564
401.677
399.01
396.572
394.332
392.335
390.525
388.963
387.58
386.415
385.4
384.559
383.821
383.195
382.617
382.081
381.539
381.008
380.492
380.164
380.038
380.504
381.765
384.264
388.858
392.553
393.615
356.137
359.608
361.038
363.845
365.372
368.024
369.561
372.005
373.502
375.714
377.122
379.099
380.381
382.112
383.237
384.714
385.653
386.861
387.588
388.515
389.004
389.599
389.88
390.066
390.118
390.042
389.712
389.322
388.594
387.777
386.63
385.39
383.834
382.184
380.239
378.214
375.923
373.563
370.968
368.318
365.482
362.606
359.574
356.54
353.392
350.274
347.087
343.965
340.819
337.768
334.737
331.816
328.975
326.305
323.759
321.393
319.192
317.202
315.411
313.857
312.533
311.466
310.653
310.152
309.922
309.862
310.122
310.629
311.394
312.398
313.652
315.13
316.844
318.769
320.913
323.252
325.79
328.504
331.384
334.434
337.641
340.983
344.447
348.007
351.648
355.338
359.063
362.79
366.511
370.205
373.885
377.564
381.296
385.144
389.327
394.101
399.713
406.696
412.258
414.527
297.31
298.488
298.921
299.65
299.985
300.453
300.651
300.805
300.836
300.801
300.5
300.252
299.668
299.182
298.329
297.592
296.481
295.488
294.13
292.887
291.298
289.817
288.02
286.318
284.376
282.506
280.441
278.45
276.297
274.236
272.052
269.979
267.823
265.795
263.73
261.798
259.868
258.084
256.344
254.758
253.256
251.916
250.694
249.645
248.74
248.02
247.465
247.138
246.991
246.96
247.232
247.675
248.363
249.199
250.268
251.497
252.952
254.573
256.414
258.426
260.651
263.052
265.662
268.452
271.45
274.638
278.02
281.588
285.353
289.308
293.464
297.817
302.379
307.146
312.13
317.327
322.751
328.4
334.286
340.405
346.769
353.374
360.228
367.325
374.668
382.245
390.05
398.06
406.264
414.633
423.152
431.799
440.578
449.503
458.655
468.27
478.988
490.642
502.324
508.097
238.761
237.564
237.032
235.913
235.195
234.005
233.133
231.871
230.88
229.556
228.469
227.108
225.952
224.577
223.383
222.019
220.819
219.493
218.32
217.058
215.945
214.777
213.756
212.711
211.813
210.915
210.166
209.438
208.863
208.327
207.945
207.623
207.463
207.391
207.382
207.568
207.816
208.239
208.738
209.407
210.168
211.081
212.1
213.26
214.537
215.948
217.483
219.146
220.936
222.853
224.906
227.081
229.391
231.815
234.375
237.049
239.862
242.79
245.861
249.052
252.389
255.85
259.464
263.209
267.113
271.158
275.368
279.732
284.272
288.979
293.875
298.956
304.241
309.729
315.44
321.378
327.562
334
340.712
347.707
355.011
362.636
370.611
378.955
387.699
396.868
406.502
416.635
427.317
438.597
450.541
463.22
476.725
491.16
506.641
523.253
541.011
559.501
574.21
580.773
258.768
258.195
257.898
257.248
256.738
255.974
255.265
254.367
253.474
252.43
251.377
250.196
249.013
247.709
246.416
245.025
243.647
242.201
240.768
239.299
237.845
236.387
234.949
233.535
232.151
230.814
229.521
228.296
227.128
226.048
225.04
224.136
223.32
222.62
222.024
221.559
221.214
221.043
220.977
221
221.29
221.605
222.159
222.768
223.595
224.499
225.605
226.803
228.191
229.682
231.353
233.135
235.089
237.162
239.411
241.768
244.292
246.93
249.731
252.653
255.736
258.947
262.319
265.825
269.496
273.309
277.29
281.424
285.734
290.208
294.869
299.707
304.742
309.973
315.419
321.081
326.976
333.109
339.496
346.148
353.082
360.311
367.856
375.733
383.966
392.574
401.586
411.027
420.929
431.321
442.247
453.754
465.941
478.875
492.705
507.562
523.555
540.319
554.074
560.3
318.279
319.895
320.522
321.672
322.234
323.197
323.661
324.402
324.751
325.193
325.376
325.466
325.468
325.286
324.947
324.533
323.885
323.218
322.281
321.352
320.145
318.96
317.501
316.073
314.386
312.734
310.857
309.003
306.956
304.945
302.766
300.637
298.37
296.166
293.854
291.62
289.308
287.099
284.845
282.712
280.573
278.592
276.662
274.897
273.222
271.721
270.349
269.163
268.137
267.308
266.664
266.254
266.061
266.005
266.211
266.622
267.233
268.048
269.072
270.3
271.735
273.372
275.214
277.254
279.497
281.939
284.575
287.391
290.394
293.57
296.93
300.458
304.16
308.033
312.078
316.292
320.675
325.223
329.934
334.806
339.815
344.964
350.236
355.631
361.132
366.737
372.427
378.201
384.046
389.962
395.951
402.018
408.163
414.562
421.352
428.944
437.66
447.923
458.798
464.513
369.549
372.943
374.352
377.115
378.655
381.29
382.874
385.338
386.918
389.205
390.763
392.856
394.35
396.229
397.611
399.267
400.493
401.909
402.942
404.1
404.909
405.79
406.345
406.924
407.21
407.396
407.45
407.367
407.039
406.621
405.957
405.198
404.197
403.098
401.767
400.335
398.6
396.748
394.626
392.388
389.914
387.332
384.552
381.687
378.662
375.578
372.387
369.165
365.885
362.61
359.325
356.081
352.868
349.723
346.639
343.699
340.882
338.23
335.73
333.428
331.312
329.416
327.74
326.302
325.102
324.144
323.414
322.941
322.714
322.641
322.782
323.201
323.76
324.553
325.465
326.569
327.771
329.121
330.541
332.066
333.701
335.435
337.256
339.16
341.135
343.199
345.324
347.536
349.819
352.213
354.725
357.413
360.32
363.512
366.969
371.063
376.198
382.804
387.662
389.449
407.538
412.284
414.299
418.311
420.712
424.613
427.241
431.002
433.764
437.409
440.305
443.863
446.845
450.321
453.351
456.746
459.787
463.096
466.118
469.331
472.305
475.409
478.306
481.284
484.074
486.903
489.565
492.216
494.707
497.156
499.44
501.652
503.688
505.624
507.371
508.999
510.504
511.853
513.025
514.007
514.772
515.294
515.543
515.624
515.442
514.922
514.175
513.102
511.774
510.132
508.22
506.008
503.527
500.762
497.741
494.463
490.951
487.235
483.338
479.283
475.07
470.701
466.211
461.633
456.976
452.279
447.566
442.92
438.324
433.85
429.496
425.317
421.31
417.496
413.836
410.385
407.106
404.041
401.142
398.435
395.832
393.404
391.055
388.833
386.651
384.571
382.493
380.469
378.422
376.412
374.388
372.445
370.581
369.127
368.136
367.763
368.623
372.374
375.508
376.4
424.756
430.528
433.007
437.955
441.019
445.884
449.343
454.132
457.887
462.63
466.62
471.345
475.524
480.252
484.588
489.333
493.797
498.568
503.138
507.937
512.593
517.419
522.141
526.99
531.76
536.622
541.425
546.29
551.108
555.97
560.787
565.624
570.413
575.198
579.924
584.626
589.321
593.974
598.588
603.141
607.623
612.018
616.318
620.503
624.557
628.463
632.21
635.774
639.145
642.297
645.22
647.888
650.288
652.395
654.193
655.658
656.773
657.443
657.741
657.803
657.288
656.573
655.339
653.793
651.728
649.282
646.324
642.95
639.076
634.775
629.994
624.788
619.13
613.097
606.725
600.014
592.98
585.69
578.095
570.291
562.225
554.01
545.565
536.993
528.208
519.231
510.019
500.567
490.695
480.363
469.63
458.321
446.461
433.94
421.511
408.816
398.136
391.549
388.727
387.464
426.737
432.406
434.871
439.775
442.873
447.73
451.279
456.121
460.029
464.896
469.106
474.037
478.513
483.543
488.271
493.427
498.391
503.693
508.882
514.344
519.75
525.381
530.997
536.801
542.62
548.599
554.612
560.762
566.958
573.278
579.648
586.127
592.661
599.291
605.978
612.752
619.583
626.485
633.438
640.45
647.505
654.603
661.736
668.896
676.08
683.276
690.474
697.661
704.826
711.974
719.086
726.158
733.176
740.132
747.015
753.81
760.52
767.112
773.591
779.915
786.074
792.093
797.892
803.481
808.79
813.811
818.482
822.782
826.653
830.07
832.976
835.331
837.084
837.99
838.342
838.265
836.826
834.919
831.718
827.741
822.428
816.064
808.244
799.109
788.346
776.047
762.028
746.134
728.412
708.565
686.533
661.862
634.264
603.205
569.48
532.655
495.573
460.596
435.426
418.806
435.181
439.732
441.755
445.784
448.352
452.351
455.297
459.288
462.541
466.571
470.092
474.199
477.963
482.181
486.182
490.542
494.776
499.302
503.772
508.488
513.201
518.129
523.094
528.254
533.483
538.895
544.398
550.074
555.857
561.81
567.883
574.126
580.507
587.062
593.772
600.664
607.727
614.985
622.413
630.034
637.837
645.833
654.015
662.387
670.94
679.724
688.721
697.961
707.435
717.087
726.946
736.982
747.2
757.582
768.124
778.803
789.621
800.545
811.581
822.699
833.908
845.185
856.534
867.939
879.394
890.88
902.381
913.873
925.322
936.703
948.08
959.371
970.6
981.706
992.69
1003.47
1014
1024.23
1034.03
1043.34
1051.97
1059.8
1066.57
1072.07
1075.43
1076.86
1077.02
1072.59
1065.33
1052.7
1034.9
1009.82
976.398
932.161
876.702
807.082
724.985
634.409
553.221
488.496
482.604
485.361
486.692
489.422
491.236
494.004
496.109
498.913
501.243
504.105
506.633
509.578
512.297
515.34
518.234
521.392
524.461
527.75
530.999
534.434
537.868
541.465
545.091
548.864
552.691
556.655
560.692
564.863
569.124
573.511
578.005
582.629
587.372
592.252
597.261
602.41
607.694
613.118
618.731
624.517
630.504
636.694
643.107
649.758
656.669
663.802
671.188
678.816
686.701
694.894
703.388
712.212
721.37
730.879
740.745
750.976
761.598
772.61
784.041
795.9
808.216
821.005
834.305
848.135
862.515
877.462
892.99
909.114
925.843
943.208
961.216
979.6
998.451
1017.7
1037.28
1057.15
1077.24
1097.5
1117.89
1138.39
1158.97
1179.61
1200.27
1221.07
1241.95
1262.89
1283.68
1303.78
1322.68
1339.05
1348.94
1352.71
1348.11
1320.84
1271.28
1196.04
1093.13
963.498
802.403
630.332
666.464
666.4
667.402
668.149
669.3
670.434
671.629
672.958
674.207
675.653
676.975
678.505
679.912
681.513
683.012
684.682
686.277
688.017
689.712
691.527
693.322
695.218
697.115
699.099
701.103
703.185
705.303
707.498
709.747
712.073
714.474
716.958
719.531
722.196
724.962
727.836
730.829
733.954
737.191
740.56
744.063
747.709
751.506
755.459
759.575
763.858
768.32
772.967
777.816
782.876
788.156
793.672
799.434
805.456
811.756
818.354
825.231
832.429
839.95
847.81
856.025
864.592
873.591
883.071
893.036
903.534
914.583
926.234
938.512
951.442
964.848
979.129
994.124
1010.05
1026.86
1044.71
1063.61
1083.69
1105.01
1127.7
1151.84
1177.57
1205.01
1234.37
1265.43
1297.2
1329.66
1361.25
1390.4
1414.81
1428.78
1433.92
1431.67
1415.31
1383.26
1322
1233.78
1122.44
997.867
848.979
1603.59
1604.25
1604.16
1603.69
1603.02
1602.5
1601.6
1601.04
1600.05
1599.44
1598.42
1597.73
1596.7
1595.93
1594.88
1594.02
1592.96
1592.01
1590.92
1589.88
1588.75
1587.62
1586.45
1585.25
1584.03
1582.77
1581.5
1580.2
1578.89
1577.55
1576.2
1574.81
1573.42
1571.98
1570.53
1569.05
1567.55
1566.01
1564.46
1562.87
1561.26
1559.61
1557.94
1556.21
1554.44
1552.6
1550.68
1548.66
1546.54
1544.3
1541.93
1539.42
1536.76
1533.95
1531
1527.91
1524.63
1521.07
1517.24
1512.96
1508.23
1502.83
1497.04
1490.96
1484.54
1477.85
1470.81
1463.46
1455.68
1447.51
1438.88
1429.77
1419.9
1409.51
1398.23
1386.23
1373.21
1359.27
1344.18
1327.98
1310.52
1291.81
1271.73
1250.28
1227.31
1202.48
1174.79
1142.03
1103.33
1056.47
996.3
917.011
816.38
705.562
584.536
535.344
556.124
721.966
886.835
939.969
865.883
324.716
176.598
119.701
95.2626
82.3296
76.1286
73.1613
72.1894
74.0343
80.9595
97.4739
118.902
156.246
207.132
271.578
349.012
444.094
560.328
610.16
693.157
329.158
219.134
154.327
121.755
104.135
92.9361
87.4669
85.5419
87.5408
99.6687
115.603
144.589
184.779
237.993
300.01
372.451
459.622
544.767
568.419
544.564
318.721
242.26
180.15
147.622
125.457
111.879
105.979
104.313
108.678
120.226
144.156
174.755
218.809
269.576
326.206
390.286
462.721
514.392
522.438
444.601
305.154
256.275
198.154
171.191
146.154
134.086
128.451
126.902
131.268
154.182
177.744
213.996
256.475
302.114
352.317
406.7
455.386
474.146
474.195
388.167
300.407
266.281
214.67
191.989
168.729
159.187
155.461
155.218
175.095
195.487
222.89
257.413
292.873
330.871
370.846
410.09
432.658
426.359
427.627
360.064
300.352
273.819
232.015
214.519
201.039
197.443
197.432
211.714
227.904
247.929
272.695
299.492
326.841
355.912
383.541
398.934
396.763
367.847
383.252
352.3
312.826
296.035
273
265.943
263.429
263.071
269.924
279.164
291.205
306.028
322.386
339.267
355.573
369.831
376.64
374.93
343.618
300.588
349.756
386.853
375.196
371.381
361.604
356.846
351.334
349.135
348.608
350.776
355.084
359.387
364.16
366.784
367.789
366.317
357.912
331.016
277.512
232.616
331.165
499.002
483.776
476.393
457.491
448.601
434.263
427.226
417.553
412.365
404.314
397.851
388.69
378.173
365.482
349.212
316.759
268.576
204.288
161.94
324.847
563.325
541.931
532.276
509.218
498.173
479.531
469.25
452.418
440.858
423.949
409.793
390.573
370.509
341.902
302.425
252.118
198.364
143.332
116.192
327.405
544.501
524.343
515.282
493.519
483.127
465.722
456.394
441.416
431.215
416.545
404.03
387.466
369.716
345.138
309.452
259.788
203.708
143.081
112.838
325.796
457.73
446.531
440.886
424.926
417.625
406.659
401.391
395.709
392.904
389.458
385.977
381.292
374.261
364.765
353.376
326.911
279.407
212.233
170.753
324.139
358.986
343.886
338.9
330.939
327.535
324.421
323.577
326.203
331.071
338.593
346.604
354.836
362.493
366.305
367.651
363.226
339.544
286.894
239.309
325.581
336.704
296.825
279.291
254.095
245.702
242.737
242.545
250.92
261.631
275.628
292.955
311.775
332
352.125
370.588
379.772
380.965
352.305
307.629
335.357
346.806
288.201
262.302
221.055
203.64
189.139
184.797
184.316
198.115
215.383
236.852
263.17
291.984
321.705
353.81
385.655
403.68
404.794
374.317
369.994
374.536
289.333
256.047
206.274
184.321
161.488
151.834
147.756
147.16
165.208
186.583
214.65
250.481
287.692
327.752
370.183
414.006
438.686
433.713
420.171
429.621
294.021
246.234
190.019
163.842
140.069
128.559
123.211
121.757
125.972
147.131
171.331
207.674
251.249
298.676
350.891
407.73
460.34
480.494
471.523
531.615
308.247
233.707
173.726
141.932
120.384
107.425
101.743
100.164
104.703
116.036
139.028
169.956
213.877
265.797
324.098
390.679
467.087
518.624
522.978
686.666
318.133
211.272
148.268
116.999
99.8652
89.5237
84.4282
82.6417
84.6869
96.1683
112.092
140.592
180.791
234.266
297.375
371.285
461.112
548.512
570.797
863.382
313.538
170.708
115.747
92.0841
79.5953
73.2058
70.5003
69.7173
72.0781
78.7693
94.3935
116.025
152.754
203.779
268.912
347.721
444.78
563.133
613.194
646.054
32.1745
12.7362
11.3229
11.19
11.171
11.1705
11.1708
11.1706
11.1705
11.1705
11.1706
11.1708
11.1705
11.171
11.19
11.3229
12.7362
32.1744
646.053
672.74
55.0628
17.0386
12.087
11.3039
11.1803
11.1547
11.1529
11.1534
11.1536
11.1536
11.1534
11.1529
11.1547
11.1803
11.3039
12.087
17.0386
55.0628
672.741
698.453
71.0937
21.1542
13.3033
11.5874
11.2261
11.1552
11.1382
11.1358
11.1355
11.1355
11.1358
11.1382
11.1552
11.2261
11.5874
13.3033
21.1542
71.0935
698.453
723.136
85.8503
25.1369
14.6461
12.0431
11.3371
11.1684
11.1265
11.1183
11.1171
11.1171
11.1183
11.1265
11.1684
11.3371
12.0431
14.6461
25.1369
85.8503
723.136
746.743
101.867
29.2065
16.0658
12.5885
11.5234
11.2064
11.1273
11.105
11.1003
11.1003
11.105
11.1273
11.2064
11.5234
12.5885
16.0658
29.2065
101.867
746.743
769.31
118.432
33.3669
17.5406
13.1971
11.7624
11.283
11.1366
11.0944
11.0843
11.0843
11.0944
11.1366
11.283
11.7624
13.1971
17.5406
33.3669
118.433
769.31
790.728
134.968
37.5676
19.0511
13.8502
12.0431
11.3872
11.16
11.0918
11.0718
11.0718
11.0918
11.16
11.3872
12.0431
13.8502
19.0511
37.5677
134.968
790.728
810.982
151.251
41.7801
20.5852
14.5352
12.3571
11.5178
11.2031
11.0955
11.0625
11.0625
11.0955
11.2031
11.5178
12.3571
14.5352
20.5852
41.7802
151.251
810.982
829.955
167.079
45.9691
22.1303
15.2422
12.6968
11.6708
11.2604
11.1065
11.0594
11.0594
11.1065
11.2604
11.6708
12.6969
15.2422
22.1303
45.9692
167.079
829.955
847.653
182.401
50.1209
23.6797
15.9648
13.0568
11.8431
11.3324
11.129
11.0619
11.0619
11.129
11.3324
11.8431
13.0568
15.9648
23.6797
50.121
182.402
847.653
863.991
197.096
54.2105
25.2247
16.6968
13.4321
12.0315
11.4179
11.1609
11.0697
11.0698
11.1609
11.4179
12.0315
13.4322
16.6968
25.2248
54.2106
197.096
863.99
879.013
211.155
58.2321
26.7619
17.4347
13.8193
12.2335
11.5156
11.2021
11.0862
11.0862
11.2021
11.5156
12.2335
13.8193
17.4347
26.7619
58.2323
211.156
879.013
892.663
224.491
62.1651
28.2844
18.1745
14.2149
12.4467
11.6242
11.2528
11.1113
11.1113
11.2528
11.6242
12.4467
14.2149
18.1745
28.2845
62.1653
224.491
892.663
905.026
237.118
66.009
29.7908
18.9141
14.6169
12.6691
11.7427
11.3126
11.1446
11.1446
11.3126
11.7427
12.6691
14.6169
18.9141
29.7908
66.0092
237.119
905.026
916.068
248.971
69.7457
31.2753
19.6506
15.023
12.899
11.8698
11.381
11.1861
11.1861
11.381
11.8698
12.899
15.0231
19.6507
31.2755
69.7459
248.97
916.067
925.904
260.089
73.3781
32.7379
20.383
15.4319
13.1352
12.0048
11.4576
11.2357
11.2357
11.4576
12.0048
13.1352
15.4319
20.383
32.7379
73.3782
260.09
925.904
934.512
270.424
76.8906
34.1733
21.1087
15.8417
13.3762
12.1466
11.5418
11.293
11.293
11.5418
12.1466
13.3762
15.8418
21.1088
34.1735
76.8908
270.423
934.512
942.037
280.035
80.2892
35.5826
21.8277
16.2519
13.6211
12.2944
11.6331
11.3579
11.3579
11.6331
12.2944
13.6211
16.2519
21.8276
35.5825
80.2892
280.036
942.036
948.451
288.886
83.5602
36.9606
22.5374
16.6609
13.8691
12.4475
11.7309
11.4299
11.4299
11.7309
12.4475
13.8691
16.661
22.5375
36.9608
83.5604
288.885
948.45
953.925
297.051
86.7124
38.3098
23.2383
17.0685
14.1194
12.6053
11.8348
11.5085
11.5085
11.8348
12.6053
14.1194
17.0685
23.2383
38.3097
86.7123
297.052
953.924
958.416
304.506
89.734
39.6248
23.9282
17.4734
14.3712
12.7671
11.9442
11.5934
11.5934
11.9442
12.7671
14.3712
17.4735
23.9283
39.6251
89.7342
304.504
958.415
962.12
311.326
92.6356
40.9093
24.608
17.8757
14.6242
12.9325
12.0587
11.684
11.684
12.0587
12.9325
14.6242
17.8757
24.608
40.9092
92.6355
311.327
962.12
964.967
317.506
95.4074
42.1578
25.2754
18.2741
14.8776
13.1009
12.1777
11.78
11.78
12.1777
13.1009
14.8776
18.2742
25.2755
42.1581
95.4078
317.503
964.966
967.18
323.102
98.0618
43.3751
25.9318
18.669
15.1313
13.2719
12.3009
11.8809
11.8809
12.3009
13.2719
15.1313
18.669
25.9318
43.3749
98.0616
323.105
967.179
968.649
328.148
100.59
44.5553
26.5748
19.0592
15.3846
13.445
12.4277
11.9862
11.9862
12.4277
13.445
15.3846
19.0593
26.575
44.5556
100.59
328.144
968.648
969.635
332.653
103.005
45.7045
27.2064
19.4453
15.6374
13.62
12.5579
12.0955
12.0955
12.5579
13.62
15.6374
19.4452
27.2063
45.7042
103.005
332.657
969.634
969.97
336.705
105.299
46.8159
27.8239
19.826
15.8892
13.7964
12.691
12.2085
12.2085
12.691
13.7964
15.8892
19.8261
27.824
46.8163
105.3
336.7
969.969
969.834
340.242
107.488
47.8975
28.4297
20.2021
16.14
13.9741
12.8267
12.3248
12.3248
12.8267
13.9741
16.14
20.2021
28.4296
47.8972
107.488
340.246
969.833
969.425
343.403
109.561
48.9414
29.021
20.5725
16.3892
14.1525
12.9646
12.4441
12.4441
12.9646
14.1525
16.3892
20.5725
29.0212
48.9418
109.561
343.397
969.424
968.579
346.14
111.539
49.9569
29.6008
20.9379
16.637
14.3316
13.1045
12.5659
12.5659
13.1045
14.3316
16.637
20.9379
29.6006
49.9565
111.538
346.144
968.578
967.379
348.534
113.406
50.9352
30.1658
21.2973
16.8828
14.511
13.2461
12.69
12.69
13.2461
14.511
16.8828
21.2973
30.166
50.9357
113.406
348.528
967.378
965.891
350.552
115.188
51.8872
30.7196
21.6515
17.1267
14.6907
13.389
12.8161
12.8161
13.389
14.6907
17.1267
21.6515
30.7194
51.8867
115.187
350.556
965.89
964.155
352.265
116.864
52.8028
31.2587
21.9995
17.3684
14.8702
13.5331
12.944
12.944
13.5331
14.8702
17.3684
21.9995
31.2588
52.8033
116.865
352.259
964.155
962.205
353.658
118.465
53.6944
31.7868
22.3423
17.608
15.0495
13.6782
13.0733
13.0733
13.6782
15.0495
17.608
22.3422
31.7867
53.6937
118.463
353.662
962.203
960.073
354.766
119.965
54.5507
32.3005
22.6787
17.8451
15.2283
13.8239
13.2039
13.2039
13.8239
15.2283
17.8451
22.6787
32.3006
54.5512
119.966
354.761
960.074
957.789
355.615
121.399
55.3853
32.8038
23.0099
18.0798
15.4067
13.9702
13.3355
13.3355
13.9702
15.4067
18.0799
23.0099
32.8037
55.3845
121.397
355.618
957.788
955.381
356.175
122.736
56.186
33.293
23.3347
18.3118
15.5842
14.1168
13.468
13.468
14.1168
15.5842
18.3118
23.3346
33.2931
56.1865
122.737
356.171
955.382
952.87
356.557
124.016
56.9676
33.7724
23.6544
18.5414
15.761
14.2636
13.6011
13.6011
14.2636
15.761
18.5415
23.6544
33.7723
56.9667
124.013
356.559
952.868
950.286
356.613
125.204
57.7167
34.238
23.9676
18.7681
15.9367
14.4103
13.7346
13.7346
14.4103
15.9366
18.768
23.9676
34.2381
57.7173
125.206
356.611
950.287
947.636
356.52
126.342
58.4494
34.6947
24.2759
18.9922
16.1114
14.557
13.8684
13.8684
14.557
16.1114
18.9923
24.276
34.6946
58.4485
126.338
356.519
947.634
944.957
356.291
127.392
59.1511
35.1381
24.5779
19.2134
16.2848
14.7033
14.0024
14.0024
14.7033
16.2848
19.2133
24.5778
35.138
59.1518
127.395
356.29
944.959
942.244
355.82
128.406
59.8395
35.5733
24.8751
19.4319
16.4571
14.8493
14.1364
14.1364
14.8494
16.4572
19.432
24.8753
35.5733
59.8385
128.402
355.826
942.242
939.539
355.244
129.335
60.4986
35.9959
25.1662
19.6474
16.628
14.9948
14.2703
14.2703
14.9947
16.6279
19.6473
25.1659
35.9957
60.4995
129.339
355.236
939.541
936.821
354.505
130.251
61.149
36.4113
25.4527
19.8603
16.7975
15.1397
14.404
14.404
15.1398
16.7976
19.8605
25.453
36.4115
61.1479
130.246
354.511
936.818
934.145
353.722
131.099
61.7743
36.8149
25.7334
20.0701
16.9655
15.2839
14.5373
14.5373
15.2838
16.9653
20.0699
25.7329
36.8145
61.7751
131.104
353.714
934.147
931.466
352.872
131.987
62.3994
37.2125
26.0097
20.2774
17.132
15.4273
14.6702
14.6703
15.4274
17.1321
20.2777
26.0102
37.213
62.3985
131.98
352.877
931.463
928.859
352.024
132.869
63.0126
37.5999
26.2805
20.4816
17.2969
15.5699
14.8026
14.8025
15.5698
17.2967
20.4813
26.2799
37.5991
63.0133
132.875
352.019
928.862
926.333
351.164
133.826
63.6387
37.9833
26.5474
20.6833
17.4603
15.7116
14.9344
14.9344
15.7117
17.4605
20.6837
26.5481
37.9843
63.6383
133.819
351.166
926.33
923.871
350.422
134.84
64.2638
38.3588
26.8093
20.882
17.622
15.8522
15.0654
15.0654
15.8521
17.6217
20.8816
26.8085
38.3576
64.264
134.847
350.42
923.875
921.484
349.753
135.976
64.912
38.7329
27.0679
21.0783
17.7821
15.9919
15.1958
15.1959
15.992
17.7824
21.0789
27.0689
38.7345
64.9124
135.97
349.755
921.481
919.155
349.293
137.189
65.565
39.1016
27.3221
21.2718
17.9404
16.1304
15.3253
15.3252
16.1303
17.9402
21.2712
27.321
39.0999
65.5646
137.196
349.292
919.158
916.897
348.942
138.533
66.246
39.4712
27.5738
21.4631
18.0973
16.2679
15.4541
15.4541
16.2681
18.0977
21.4638
27.5752
39.4735
66.2475
138.527
348.943
916.893
914.693
348.851
139.937
66.9331
39.8374
27.8218
21.6517
18.2523
16.4041
15.5817
15.5816
16.404
18.252
21.651
27.8204
39.8351
66.9319
139.944
348.853
914.696
912.56
348.916
141.463
67.6495
40.2064
28.0679
21.8384
18.4059
16.5394
15.7086
15.7087
16.5396
18.4064
21.8394
28.0699
40.2097
67.6525
141.459
348.918
912.554
910.479
349.098
143.022
68.3711
40.5735
28.3111
22.0226
18.5577
16.6731
15.8342
15.8342
16.6729
18.5573
22.0217
28.3094
40.5706
68.3689
143.029
349.101
910.482
908.471
349.471
144.676
69.1203
40.9447
28.5532
22.2052
18.7081
16.806
15.9592
15.9593
16.8063
18.7088
22.2066
28.5558
40.9492
69.1254
144.675
349.481
908.463
906.512
349.99
146.342
69.873
41.315
28.793
22.3855
18.8567
16.9373
16.0827
16.0826
16.937
18.8562
22.3844
28.7908
41.3114
69.87
146.347
349.989
906.516
904.629
350.63
148.077
70.6511
41.6902
29.0321
22.5644
19.0041
17.0677
16.2056
16.2058
17.0682
19.0051
22.5663
29.0357
41.6964
70.6589
148.081
350.645
904.62
902.794
351.376
149.806
71.4301
42.065
29.2695
22.7414
19.1497
17.1965
16.3268
16.3268
17.1962
19.1491
22.74
29.2669
42.0608
71.4266
149.811
351.379
902.796
901.035
352.209
151.58
72.2317
42.4452
29.5067
22.9171
19.2942
17.3245
16.4477
16.4479
17.3252
19.2956
22.9198
29.5116
42.4536
72.2435
151.592
352.231
901.021
899.321
353.116
153.335
73.0313
42.8251
29.7426
23.0911
19.437
17.4508
16.5666
16.5665
17.4504
19.4362
23.0895
29.7397
42.8206
73.0281
153.339
353.127
899.32
897.684
354.081
155.115
73.8509
43.2104
29.9786
23.264
19.5787
17.5764
16.6853
16.6856
17.5774
19.5808
23.2679
29.9855
43.2222
73.8685
155.138
354.116
897.665
896.089
355.096
156.864
74.6654
43.5954
30.2137
23.4356
19.7188
17.7001
16.8017
16.8017
17.6998
19.7181
23.434
30.2107
43.5913
74.6644
156.873
355.121
896.082
894.571
356.143
158.624
75.4974
43.9856
30.4488
23.6061
19.858
17.8234
16.9184
16.9188
17.8249
19.861
23.6117
30.4589
44.0027
75.5236
158.662
356.199
894.542
893.092
357.219
160.343
76.3209
44.3755
30.6836
23.7754
19.9955
17.9447
17.0324
17.0324
17.9445
19.995
23.7741
30.681
44.3729
76.3254
160.362