/*--------------------------------*- C++ -*----------------------------------*\
| =========                 |                                                 |
| \\      /  F ield         | OpenFOAM: The Open Source CFD Toolbox           |
|  \\    /   O peration     | Version:  2.1.0                                 |
|   \\  /    A nd           | Web:      www.OpenFOAM.org                      |
|    \\/     M anipulation  |                                                 |
\*---------------------------------------------------------------------------*/
FoamFile
{
    version     2.0;
    format      ascii;
    class       surfaceScalarField;
    location    "0.5";
    object      phi;
}
// * * * * * * * * * * * * * * * * * * * * * * * * * * * * * * * * * * * * * //

dimensions      [0 3 -1 0 0 0 0];

internalField   nonuniform List<scalar> 
12460
(
-2.59983e-05
-3.31417e-09
-2.59602e-05
-3.92198e-08
-2.58991e-05
-6.21339e-08
-2.58264e-05
-7.37664e-08
-2.57468e-05
-8.06211e-08
-2.56626e-05
-8.52118e-08
-2.55751e-05
-8.85173e-08
-2.54849e-05
-9.1117e-08
-2.53925e-05
-9.33159e-08
-2.52981e-05
-9.5305e-08
-2.52018e-05
-9.71861e-08
-2.51036e-05
-9.90223e-08
-2.50035e-05
-1.0085e-07
-2.49016e-05
-1.02684e-07
-2.47979e-05
-1.04543e-07
-2.46922e-05
-1.06426e-07
-2.45845e-05
-1.08346e-07
-2.44749e-05
-1.10294e-07
-2.43633e-05
-1.12281e-07
-2.42497e-05
-1.14295e-07
-2.41339e-05
-1.16347e-07
-2.40161e-05
-1.18421e-07
-2.38961e-05
-1.2053e-07
-2.3774e-05
-1.22681e-07
-2.36497e-05
-1.24848e-07
-2.35231e-05
-1.27052e-07
-2.33942e-05
-1.29382e-07
-2.32628e-05
-1.31815e-07
-2.31289e-05
-1.3433e-07
-2.29924e-05
-1.36918e-07
-2.28532e-05
-1.3959e-07
-2.27112e-05
-1.42347e-07
-2.25664e-05
-1.45199e-07
-2.24186e-05
-1.48148e-07
-2.22677e-05
-1.51204e-07
-2.21136e-05
-1.54364e-07
-2.19562e-05
-1.57638e-07
-2.17955e-05
-1.61032e-07
-2.16311e-05
-1.64557e-07
-2.14631e-05
-1.68223e-07
-2.12913e-05
-1.72059e-07
-2.11154e-05
-1.76063e-07
-2.09354e-05
-1.80239e-07
-2.07509e-05
-1.846e-07
-2.05619e-05
-1.89148e-07
-2.03682e-05
-1.93887e-07
-2.01695e-05
-1.98819e-07
-1.99657e-05
-2.03941e-07
-1.97565e-05
-2.09245e-07
-1.95419e-05
-2.14741e-07
-1.93216e-05
-2.20409e-07
-1.90956e-05
-2.26077e-07
-1.88636e-05
-2.32042e-07
-1.86251e-05
-2.38527e-07
-1.83799e-05
-2.45346e-07
-1.81275e-05
-2.52399e-07
-1.78682e-05
-2.5932e-07
-1.76023e-05
-2.65942e-07
-1.73299e-05
-2.72412e-07
-1.7051e-05
-2.7894e-07
-1.67654e-05
-2.85611e-07
-1.6473e-05
-2.92435e-07
-1.61736e-05
-2.99465e-07
-1.58668e-05
-3.06762e-07
-1.55525e-05
-3.14338e-07
-1.52302e-05
-3.22238e-07
-1.48997e-05
-3.30487e-07
-1.45606e-05
-3.39148e-07
-1.42123e-05
-3.48256e-07
-1.38545e-05
-3.57843e-07
-1.34865e-05
-3.67937e-07
-1.31079e-05
-3.78587e-07
-1.27181e-05
-3.89834e-07
-1.23163e-05
-4.0174e-07
-1.19019e-05
-4.1438e-07
-1.14741e-05
-4.27846e-07
-1.10318e-05
-4.42263e-07
-1.0574e-05
-4.57784e-07
-1.00993e-05
-4.74632e-07
-9.60615e-06
-4.93139e-07
-9.09241e-06
-5.13716e-07
-8.55551e-06
-5.36868e-07
-7.99223e-06
-5.63252e-07
-7.3986e-06
-5.93599e-07
-6.77008e-06
-6.2848e-07
-6.10195e-06
-6.68093e-07
-5.38984e-06
-7.12067e-07
-4.63102e-06
-7.58777e-07
-3.8268e-06
-8.04166e-07
-2.98728e-06
-8.39456e-07
-2.14041e-06
-8.46795e-07
-1.3492e-06
-7.91121e-07
-7.16679e-07
-6.32433e-07
-3.44332e-07
-3.72307e-07
-2.73975e-07
-7.04902e-08
-5.29108e-07
2.54883e-07
-1.42252e-06
8.93252e-07
-3.71631e-06
2.29378e-06
-9.28744e-06
5.57113e-06
1.54963e-05
-2.47838e-05
-3.13104e-05
-2.18629e-08
-3.12598e-05
-9.14354e-08
-3.11945e-05
-1.29006e-07
-3.11204e-05
-1.49476e-07
-3.10407e-05
-1.6199e-07
-3.0957e-05
-1.70426e-07
-3.08705e-05
-1.76512e-07
-3.07818e-05
-1.8129e-07
-3.06913e-05
-1.85332e-07
-3.0599e-05
-1.88981e-07
-3.05052e-05
-1.92436e-07
-3.04098e-05
-1.95804e-07
-3.03128e-05
-1.99162e-07
-3.02142e-05
-2.02535e-07
-3.01141e-05
-2.05962e-07
-3.00123e-05
-2.09439e-07
-2.99088e-05
-2.12992e-07
-2.98037e-05
-2.16607e-07
-2.96968e-05
-2.20303e-07
-2.95881e-05
-2.24062e-07
-2.94776e-05
-2.27901e-07
-2.93653e-05
-2.3179e-07
-2.92511e-05
-2.35735e-07
-2.9135e-05
-2.39759e-07
-2.9017e-05
-2.43779e-07
-2.88971e-05
-2.47792e-07
-2.87754e-05
-2.51999e-07
-2.86517e-05
-2.56355e-07
-2.8526e-05
-2.60815e-07
-2.83983e-05
-2.65381e-07
-2.82685e-05
-2.70072e-07
-2.81367e-05
-2.74895e-07
-2.80027e-05
-2.79863e-07
-2.78665e-05
-2.84982e-07
-2.7728e-05
-2.90262e-07
-2.75873e-05
-2.95706e-07
-2.74441e-05
-3.0133e-07
-2.72985e-05
-3.07148e-07
-2.71504e-05
-3.13175e-07
-2.69997e-05
-3.19405e-07
-2.68463e-05
-3.25882e-07
-2.66902e-05
-3.32618e-07
-2.65312e-05
-3.39623e-07
-2.63692e-05
-3.46922e-07
-2.62042e-05
-3.54525e-07
-2.60359e-05
-3.62448e-07
-2.58643e-05
-3.70707e-07
-2.56892e-05
-3.79316e-07
-2.55104e-05
-3.88277e-07
-2.53278e-05
-3.97621e-07
-2.51411e-05
-4.0735e-07
-2.49502e-05
-4.172e-07
-2.47553e-05
-4.27089e-07
-2.45569e-05
-4.37085e-07
-2.43553e-05
-4.47171e-07
-2.41504e-05
-4.57389e-07
-2.39422e-05
-4.67668e-07
-2.37304e-05
-4.77848e-07
-2.3515e-05
-4.87927e-07
-2.3296e-05
-4.98083e-07
-2.30733e-05
-5.08424e-07
-2.28468e-05
-5.18996e-07
-2.26165e-05
-5.29835e-07
-2.23824e-05
-5.40983e-07
-2.21443e-05
-5.52471e-07
-2.19022e-05
-5.64349e-07
-2.16561e-05
-5.76665e-07
-2.14059e-05
-5.89487e-07
-2.11513e-05
-6.02885e-07
-2.08922e-05
-6.16939e-07
-2.06285e-05
-6.31722e-07
-2.03598e-05
-6.47339e-07
-2.00858e-05
-6.63889e-07
-1.98061e-05
-6.81516e-07
-1.95201e-05
-7.00388e-07
-1.92274e-05
-7.20698e-07
-1.8927e-05
-7.42701e-07
-1.86181e-05
-7.66683e-07
-1.82998e-05
-7.93018e-07
-1.79708e-05
-8.22239e-07
-1.76296e-05
-8.54968e-07
-1.72746e-05
-8.91898e-07
-1.69041e-05
-9.33859e-07
-1.6516e-05
-9.81757e-07
-1.61083e-05
-1.0363e-06
-1.56788e-05
-1.0977e-06
-1.52259e-05
-1.16507e-06
-1.47492e-05
-1.23558e-06
-1.42508e-05
-1.30278e-06
-1.37366e-05
-1.35382e-06
-1.3219e-05
-1.36467e-06
-1.27162e-05
-1.29427e-06
-1.22639e-05
-1.08517e-06
-1.19425e-05
-6.94203e-07
-1.20137e-05
1.41161e-10
-1.25594e-05
8.00287e-07
-1.39372e-05
2.27087e-06
-1.66698e-05
5.02633e-06
-2.17969e-05
1.06982e-05
2.65673e-05
-3.28678e-05
-3.42838e-05
-4.8197e-08
-3.42402e-05
-1.37109e-07
-3.41849e-05
-1.86429e-07
-3.41223e-05
-2.14257e-07
-3.40549e-05
-2.31436e-07
-3.39844e-05
-2.42989e-07
-3.39117e-05
-2.51234e-07
-3.38374e-05
-2.57673e-07
-3.37616e-05
-2.63042e-07
-3.36847e-05
-2.67873e-07
-3.36066e-05
-2.72397e-07
-3.35275e-05
-2.76808e-07
-3.34473e-05
-2.81177e-07
-3.3366e-05
-2.85576e-07
-3.32837e-05
-2.90029e-07
-3.32003e-05
-2.94566e-07
-3.31158e-05
-2.99197e-07
-3.30301e-05
-3.03933e-07
-3.29432e-05
-3.08784e-07
-3.28551e-05
-3.13753e-07
-3.27657e-05
-3.18854e-07
-3.26749e-05
-3.24077e-07
-3.25827e-05
-3.29424e-07
-3.24889e-05
-3.34935e-07
-3.23935e-05
-3.40557e-07
-3.22965e-05
-3.46158e-07
-3.2198e-05
-3.51765e-07
-3.20982e-05
-3.57383e-07
-3.19972e-05
-3.63053e-07
-3.1895e-05
-3.68817e-07
-3.17915e-05
-3.74702e-07
-3.16867e-05
-3.80723e-07
-3.15808e-05
-3.8689e-07
-3.14736e-05
-3.93208e-07
-3.13651e-05
-3.99682e-07
-3.12554e-05
-4.06316e-07
-3.11445e-05
-4.13116e-07
-3.10324e-05
-4.201e-07
-3.09191e-05
-4.27297e-07
-3.08046e-05
-4.34668e-07
-3.0689e-05
-4.42258e-07
-3.05722e-05
-4.50081e-07
-3.04544e-05
-4.58136e-07
-3.03355e-05
-4.66449e-07
-3.02156e-05
-4.75022e-07
-3.00947e-05
-4.83867e-07
-2.9973e-05
-4.92994e-07
-2.98504e-05
-5.02413e-07
-2.9727e-05
-5.12124e-07
-2.96029e-05
-5.2212e-07
-2.94783e-05
-5.32356e-07
-2.93532e-05
-5.42762e-07
-2.92274e-05
-5.53199e-07
-2.91014e-05
-5.63464e-07
-2.89753e-05
-5.73549e-07
-2.88494e-05
-5.83524e-07
-2.87238e-05
-5.93564e-07
-2.85983e-05
-6.03648e-07
-2.84728e-05
-6.13641e-07
-2.83475e-05
-6.23592e-07
-2.82226e-05
-6.33545e-07
-2.80982e-05
-6.43544e-07
-2.79746e-05
-6.53601e-07
-2.7852e-05
-6.63711e-07
-2.77308e-05
-6.7389e-07
-2.76111e-05
-6.84153e-07
-2.74934e-05
-6.94523e-07
-2.7378e-05
-7.05025e-07
-2.72653e-05
-7.15701e-07
-2.71557e-05
-7.26618e-07
-2.70497e-05
-7.37846e-07
-2.69477e-05
-7.4949e-07
-2.68501e-05
-7.61647e-07
-2.67572e-05
-7.74489e-07
-2.66695e-05
-7.88229e-07
-2.65872e-05
-8.03119e-07
-2.65105e-05
-8.19505e-07
-2.64395e-05
-8.37783e-07
-2.63742e-05
-8.58435e-07
-2.63144e-05
-8.8217e-07
-2.62597e-05
-9.0981e-07
-2.62096e-05
-9.42194e-07
-2.61633e-05
-9.8026e-07
-2.61203e-05
-1.02496e-06
-2.60797e-05
-1.07702e-06
-2.60409e-05
-1.13661e-06
-2.60036e-05
-1.20255e-06
-2.59682e-05
-1.27115e-06
-2.59366e-05
-1.33456e-06
-2.59128e-05
-1.37783e-06
-2.59028e-05
-1.37484e-06
-2.59142e-05
-1.283e-06
-2.59589e-05
-1.04063e-06
-2.6081e-05
-5.72224e-07
-2.62686e-05
1.87682e-07
-2.67834e-05
1.31503e-06
-2.78153e-05
3.30277e-06
-2.97462e-05
6.95725e-06
-3.32987e-05
1.42507e-05
3.11965e-05
-3.7928e-05
-3.69668e-05
-7.43794e-08
-3.69356e-05
-1.7094e-07
-3.68973e-05
-2.27396e-07
-3.68536e-05
-2.6063e-07
-3.68063e-05
-2.81356e-07
-3.67568e-05
-2.95144e-07
-3.67059e-05
-3.04819e-07
-3.66539e-05
-3.12229e-07
-3.66012e-05
-3.18268e-07
-3.6548e-05
-3.23611e-07
-3.64944e-05
-3.28526e-07
-3.64404e-05
-3.33273e-07
-3.63861e-05
-3.37921e-07
-3.63315e-05
-3.42578e-07
-3.62766e-05
-3.47256e-07
-3.62215e-05
-3.52006e-07
-3.61662e-05
-3.56827e-07
-3.61106e-05
-3.61743e-07
-3.60548e-05
-3.66754e-07
-3.59989e-05
-3.71871e-07
-3.59427e-05
-3.7711e-07
-3.58864e-05
-3.82465e-07
-3.583e-05
-3.87922e-07
-3.57735e-05
-3.93449e-07
-3.57169e-05
-3.991e-07
-3.56601e-05
-4.04856e-07
-3.56032e-05
-4.10582e-07
-3.55462e-05
-4.16246e-07
-3.54891e-05
-4.219e-07
-3.54321e-05
-4.27599e-07
-3.53751e-05
-4.33367e-07
-3.53183e-05
-4.39222e-07
-3.52616e-05
-4.45167e-07
-3.52052e-05
-4.512e-07
-3.5149e-05
-4.57316e-07
-3.50933e-05
-4.63511e-07
-3.50381e-05
-4.6978e-07
-3.49834e-05
-4.76127e-07
-3.49294e-05
-4.82574e-07
-3.48763e-05
-4.89103e-07
-3.4824e-05
-4.95728e-07
-3.47729e-05
-5.02436e-07
-3.47229e-05
-5.0922e-07
-3.46744e-05
-5.16084e-07
-3.46274e-05
-5.23017e-07
-3.45822e-05
-5.30008e-07
-3.45391e-05
-5.37045e-07
-3.44983e-05
-5.44114e-07
-3.44601e-05
-5.51192e-07
-3.44248e-05
-5.5825e-07
-3.43927e-05
-5.65202e-07
-3.43641e-05
-5.72108e-07
-3.43388e-05
-5.79187e-07
-3.43166e-05
-5.86289e-07
-3.42976e-05
-5.93168e-07
-3.42819e-05
-5.99795e-07
-3.42698e-05
-6.06221e-07
-3.42615e-05
-6.12413e-07
-3.42573e-05
-6.18283e-07
-3.42575e-05
-6.23846e-07
-3.42624e-05
-6.29097e-07
-3.42722e-05
-6.34037e-07
-3.42875e-05
-6.38692e-07
-3.43085e-05
-6.43067e-07
-3.43355e-05
-6.47171e-07
-3.43689e-05
-6.51021e-07
-3.4409e-05
-6.54644e-07
-3.44562e-05
-6.5808e-07
-3.45108e-05
-6.61398e-07
-3.45729e-05
-6.64691e-07
-3.46429e-05
-6.68071e-07
-3.47208e-05
-6.7171e-07
-3.48068e-05
-6.758e-07
-3.49009e-05
-6.80605e-07
-3.50028e-05
-6.86449e-07
-3.51123e-05
-6.93724e-07
-3.5229e-05
-7.02928e-07
-3.53523e-05
-7.1464e-07
-3.54814e-05
-7.29441e-07
-3.56155e-05
-7.48212e-07
-3.57534e-05
-7.71968e-07
-3.5894e-05
-8.01614e-07
-3.60363e-05
-8.38111e-07
-3.61789e-05
-8.82353e-07
-3.63211e-05
-9.34913e-07
-3.64621e-05
-9.95629e-07
-3.66019e-05
-1.06284e-06
-3.67409e-05
-1.13217e-06
-3.68807e-05
-1.19488e-06
-3.70231e-05
-1.23537e-06
-3.71703e-05
-1.22774e-06
-3.73212e-05
-1.13203e-06
-3.74757e-05
-8.86209e-07
-3.76312e-05
-4.16676e-07
-3.77954e-05
3.51886e-07
-3.80994e-05
1.61902e-06
-3.86631e-05
3.86642e-06
-3.96586e-05
7.95282e-06
-4.12699e-05
1.5862e-05
3.12617e-05
-4.13352e-05
-3.96669e-05
-9.37557e-08
-3.96532e-05
-1.87695e-07
-3.96385e-05
-2.45353e-07
-3.96218e-05
-2.80544e-07
-3.96037e-05
-3.02733e-07
-3.95848e-05
-3.17213e-07
-3.95657e-05
-3.27171e-07
-3.95467e-05
-3.34493e-07
-3.95279e-05
-3.40274e-07
-3.95095e-05
-3.45182e-07
-3.94916e-05
-3.49582e-07
-3.94742e-05
-3.53708e-07
-3.94576e-05
-3.57679e-07
-3.94416e-05
-3.61577e-07
-3.94265e-05
-3.6544e-07
-3.94122e-05
-3.69297e-07
-3.93988e-05
-3.73159e-07
-3.93865e-05
-3.77031e-07
-3.93752e-05
-3.80918e-07
-3.93652e-05
-3.84815e-07
-3.93564e-05
-3.88736e-07
-3.9349e-05
-3.92677e-07
-3.93431e-05
-3.96565e-07
-3.93389e-05
-4.00372e-07
-3.93365e-05
-4.04195e-07
-3.93359e-05
-4.08139e-07
-3.93369e-05
-4.122e-07
-3.93395e-05
-4.16254e-07
-3.93437e-05
-4.20261e-07
-3.93495e-05
-4.24237e-07
-3.93572e-05
-4.28201e-07
-3.93667e-05
-4.3216e-07
-3.93781e-05
-4.36117e-07
-3.93916e-05
-4.40058e-07
-3.94072e-05
-4.43969e-07
-3.94252e-05
-4.47834e-07
-3.94455e-05
-4.51654e-07
-3.94684e-05
-4.55433e-07
-3.94939e-05
-4.5916e-07
-3.95223e-05
-4.62838e-07
-3.95535e-05
-4.66481e-07
-3.95879e-05
-4.70059e-07
-3.96255e-05
-4.73569e-07
-3.96664e-05
-4.77012e-07
-3.97109e-05
-4.80381e-07
-3.9759e-05
-4.83665e-07
-3.98109e-05
-4.86858e-07
-3.98667e-05
-4.89953e-07
-3.99265e-05
-4.92943e-07
-3.99905e-05
-4.95823e-07
-4.00586e-05
-4.98574e-07
-4.01309e-05
-5.01252e-07
-4.02075e-05
-5.03966e-07
-4.02885e-05
-5.06613e-07
-4.03739e-05
-5.09031e-07
-4.04637e-05
-5.11147e-07
-4.05581e-05
-5.1294e-07
-4.06572e-05
-5.14397e-07
-4.0761e-05
-5.15493e-07
-4.08696e-05
-5.16258e-07
-4.09829e-05
-5.16716e-07
-4.11008e-05
-5.16901e-07
-4.12235e-05
-5.16847e-07
-4.13507e-05
-5.16585e-07
-4.14824e-05
-5.16156e-07
-4.16185e-05
-5.156e-07
-4.17587e-05
-5.14968e-07
-4.1903e-05
-5.14326e-07
-4.20512e-05
-5.13758e-07
-4.22029e-05
-5.13376e-07
-4.23581e-05
-5.13314e-07
-4.25164e-05
-5.13742e-07
-4.26777e-05
-5.1487e-07
-4.28417e-05
-5.16971e-07
-4.3008e-05
-5.20375e-07
-4.31765e-05
-5.25473e-07
-4.33469e-05
-5.32745e-07
-4.35188e-05
-5.42857e-07
-4.36922e-05
-5.56265e-07
-4.38667e-05
-5.73857e-07
-4.4042e-05
-5.96789e-07
-4.42178e-05
-6.25871e-07
-4.4394e-05
-6.61999e-07
-4.45705e-05
-7.0598e-07
-4.47472e-05
-7.58246e-07
-4.49244e-05
-8.18503e-07
-4.51023e-05
-8.84984e-07
-4.52813e-05
-9.53206e-07
-4.54617e-05
-1.0145e-06
-4.5643e-05
-1.05403e-06
-4.58227e-05
-1.04805e-06
-4.59937e-05
-9.61051e-07
-4.6141e-05
-7.38876e-07
-4.62452e-05
-3.12545e-07
-4.63102e-05
4.1695e-07
-4.63739e-05
1.68272e-06
-4.64523e-05
3.94482e-06
-4.65452e-05
8.0457e-06
-4.63283e-05
1.56451e-05
2.84371e-05
-4.35037e-05
-4.25197e-05
-9.95635e-08
-4.25284e-05
-1.82558e-07
-4.25427e-05
-2.34727e-07
-4.25597e-05
-2.67265e-07
-4.25784e-05
-2.87771e-07
-4.25986e-05
-3.00792e-07
-4.26201e-05
-3.09401e-07
-4.2643e-05
-3.15319e-07
-4.26673e-05
-3.19678e-07
-4.26931e-05
-3.23086e-07
-4.27204e-05
-3.25947e-07
-4.27494e-05
-3.28457e-07
-4.278e-05
-3.30762e-07
-4.28123e-05
-3.32915e-07
-4.28464e-05
-3.34976e-07
-4.28824e-05
-3.36951e-07
-4.29203e-05
-3.38864e-07
-4.29603e-05
-3.40708e-07
-4.30023e-05
-3.42491e-07
-4.30466e-05
-3.44206e-07
-4.3093e-05
-3.45859e-07
-4.31418e-05
-3.47512e-07
-4.31929e-05
-3.48966e-07
-4.32466e-05
-3.50268e-07
-4.33027e-05
-3.51631e-07
-4.33614e-05
-3.53032e-07
-4.34226e-05
-3.54467e-07
-4.34865e-05
-3.55859e-07
-4.35531e-05
-3.57177e-07
-4.36223e-05
-3.58423e-07
-4.36944e-05
-3.59613e-07
-4.37692e-05
-3.60755e-07
-4.38469e-05
-3.61861e-07
-4.39274e-05
-3.62914e-07
-4.40109e-05
-3.63899e-07
-4.40973e-05
-3.64803e-07
-4.41866e-05
-3.65641e-07
-4.42789e-05
-3.66426e-07
-4.43742e-05
-3.67154e-07
-4.44725e-05
-3.67817e-07
-4.45738e-05
-3.68449e-07
-4.4678e-05
-3.69043e-07
-4.47852e-05
-3.69596e-07
-4.48952e-05
-3.70119e-07
-4.50081e-05
-3.70616e-07
-4.51238e-05
-3.71084e-07
-4.52422e-05
-3.71525e-07
-4.53632e-05
-3.71943e-07
-4.54867e-05
-3.72342e-07
-4.56128e-05
-3.72722e-07
-4.57411e-05
-3.73103e-07
-4.58716e-05
-3.73538e-07
-4.60043e-05
-3.74087e-07
-4.61389e-05
-3.74662e-07
-4.62754e-05
-3.75169e-07
-4.64136e-05
-3.75525e-07
-4.65534e-05
-3.75657e-07
-4.66947e-05
-3.75537e-07
-4.68374e-05
-3.75171e-07
-4.69813e-05
-3.74591e-07
-4.71264e-05
-3.73819e-07
-4.72726e-05
-3.72885e-07
-4.74196e-05
-3.71807e-07
-4.75676e-05
-3.70601e-07
-4.77163e-05
-3.69308e-07
-4.78658e-05
-3.67943e-07
-4.80159e-05
-3.66542e-07
-4.81666e-05
-3.65164e-07
-4.83181e-05
-3.63876e-07
-4.84701e-05
-3.62772e-07
-4.86228e-05
-3.61978e-07
-4.87761e-05
-3.61642e-07
-4.89302e-05
-3.61957e-07
-4.90851e-05
-3.63192e-07
-4.92408e-05
-3.65682e-07
-4.93974e-05
-3.69811e-07
-4.9555e-05
-3.76044e-07
-4.97136e-05
-3.85041e-07
-4.98733e-05
-3.97298e-07
-5.00343e-05
-4.13473e-07
-5.01971e-05
-4.34599e-07
-5.03619e-05
-4.61645e-07
-5.05289e-05
-4.95507e-07
-5.06983e-05
-5.36956e-07
-5.08706e-05
-5.86361e-07
-5.1046e-05
-6.43411e-07
-5.12247e-05
-7.0651e-07
-5.14067e-05
-7.71488e-07
-5.15911e-05
-8.30311e-07
-5.17755e-05
-8.69822e-07
-5.1954e-05
-8.69593e-07
-5.21153e-05
-7.99852e-07
-5.22353e-05
-6.1895e-07
-5.22862e-05
-2.61699e-07
-5.22505e-05
3.81187e-07
-5.20979e-05
1.53016e-06
-5.17483e-05
3.59511e-06
-5.10311e-05
7.32848e-06
-4.933e-05
1.3944e-05
2.38466e-05
-4.47395e-05
-4.54664e-05
-9.00112e-08
-4.54991e-05
-1.53658e-07
-4.55429e-05
-1.94821e-07
-4.55933e-05
-2.20891e-07
-4.56479e-05
-2.37076e-07
-4.57058e-05
-2.46898e-07
-4.57662e-05
-2.52923e-07
-4.58289e-05
-2.56568e-07
-4.58937e-05
-2.58824e-07
-4.59605e-05
-2.60221e-07
-4.60293e-05
-2.61112e-07
-4.61001e-05
-2.61672e-07
-4.61728e-05
-2.62032e-07
-4.62474e-05
-2.62239e-07
-4.63241e-05
-2.62354e-07
-4.64026e-05
-2.62384e-07
-4.64831e-05
-2.6236e-07
-4.65656e-05
-2.62272e-07
-4.665e-05
-2.6214e-07
-4.67364e-05
-2.61957e-07
-4.68246e-05
-2.61737e-07
-4.69148e-05
-2.61535e-07
-4.70067e-05
-2.61192e-07
-4.71006e-05
-2.6061e-07
-4.71965e-05
-2.59928e-07
-4.72946e-05
-2.59202e-07
-4.73948e-05
-2.58479e-07
-4.74972e-05
-2.5773e-07
-4.76017e-05
-2.56946e-07
-4.77083e-05
-2.56127e-07
-4.78169e-05
-2.55299e-07
-4.79275e-05
-2.54472e-07
-4.80401e-05
-2.53683e-07
-4.81544e-05
-2.52909e-07
-4.82706e-05
-2.5214e-07
-4.83884e-05
-2.5136e-07
-4.85079e-05
-2.5061e-07
-4.86289e-05
-2.49887e-07
-4.87513e-05
-2.49222e-07
-4.8875e-05
-2.48609e-07
-4.89999e-05
-2.48072e-07
-4.91259e-05
-2.47609e-07
-4.92528e-05
-2.47228e-07
-4.93806e-05
-2.4693e-07
-4.95091e-05
-2.46722e-07
-4.96383e-05
-2.46598e-07
-4.97679e-05
-2.46556e-07
-4.9898e-05
-2.46587e-07
-5.00284e-05
-2.46707e-07
-5.0159e-05
-2.46897e-07
-5.02897e-05
-2.47199e-07
-5.04204e-05
-2.47647e-07
-5.0551e-05
-2.48282e-07
-5.06815e-05
-2.48998e-07
-5.08118e-05
-2.49709e-07
-5.09419e-05
-2.50325e-07
-5.10717e-05
-2.50714e-07
-5.12012e-05
-2.50824e-07
-5.13306e-05
-2.50672e-07
-5.14597e-05
-2.50289e-07
-5.15887e-05
-2.49686e-07
-5.17174e-05
-2.48876e-07
-5.18461e-05
-2.47859e-07
-5.19748e-05
-2.46632e-07
-5.21036e-05
-2.45219e-07
-5.22325e-05
-2.43629e-07
-5.23617e-05
-2.41878e-07
-5.24913e-05
-2.4001e-07
-5.26214e-05
-2.38079e-07
-5.27523e-05
-2.36167e-07
-5.28841e-05
-2.34384e-07
-5.3017e-05
-2.32866e-07
-5.31511e-05
-2.31793e-07
-5.32868e-05
-2.31421e-07
-5.34241e-05
-2.32086e-07
-5.35634e-05
-2.3416e-07
-5.37049e-05
-2.38085e-07
-5.38489e-05
-2.44347e-07
-5.39958e-05
-2.53657e-07
-5.41455e-05
-2.66833e-07
-5.42984e-05
-2.84706e-07
-5.44547e-05
-3.08151e-07
-5.46148e-05
-3.37946e-07
-5.47794e-05
-3.74855e-07
-5.49489e-05
-4.19234e-07
-5.51236e-05
-4.70825e-07
-5.53037e-05
-5.2849e-07
-5.54882e-05
-5.88778e-07
-5.56756e-05
-6.44661e-07
-5.58616e-05
-6.85291e-07
-5.6038e-05
-6.94472e-07
-5.61901e-05
-6.48942e-07
-5.62894e-05
-5.20544e-07
-5.62989e-05
-2.52872e-07
-5.61746e-05
2.56387e-07
-5.58365e-05
1.1915e-06
-5.51223e-05
2.88032e-06
-5.37225e-05
5.92796e-06
-5.09129e-05
1.11334e-05
1.82314e-05
-4.52989e-05
-4.81433e-05
-6.79744e-08
-4.81929e-05
-1.0775e-07
-4.82561e-05
-1.35406e-07
-4.83278e-05
-1.52877e-07
-4.84051e-05
-1.63423e-07
-4.84863e-05
-1.69433e-07
-4.85702e-05
-1.72677e-07
-4.86562e-05
-1.74195e-07
-4.8744e-05
-1.74679e-07
-4.88333e-05
-1.74532e-07
-4.8924e-05
-1.74013e-07
-4.9016e-05
-1.7326e-07
-4.91093e-05
-1.72358e-07
-4.92038e-05
-1.71347e-07
-4.92995e-05
-1.70275e-07
-4.93963e-05
-1.6915e-07
-4.94943e-05
-1.67998e-07
-4.95934e-05
-1.66812e-07
-4.96936e-05
-1.65612e-07
-4.97948e-05
-1.64389e-07
-4.9897e-05
-1.63155e-07
-5.00004e-05
-1.61826e-07
-5.01049e-05
-1.6049e-07
-5.02101e-05
-1.5918e-07
-5.03159e-05
-1.57838e-07
-5.04224e-05
-1.5648e-07
-5.05296e-05
-1.55174e-07
-5.06373e-05
-1.53907e-07
-5.07454e-05
-1.52689e-07
-5.08539e-05
-1.5151e-07
-5.09628e-05
-1.50414e-07
-5.10719e-05
-1.49382e-07
-5.11812e-05
-1.48485e-07
-5.12905e-05
-1.47678e-07
-5.13999e-05
-1.4694e-07
-5.15093e-05
-1.46229e-07
-5.16186e-05
-1.45621e-07
-5.17278e-05
-1.4508e-07
-5.18369e-05
-1.44659e-07
-5.19457e-05
-1.44338e-07
-5.20543e-05
-1.44129e-07
-5.21626e-05
-1.44024e-07
-5.22707e-05
-1.44021e-07
-5.23784e-05
-1.44121e-07
-5.24859e-05
-1.44316e-07
-5.2593e-05
-1.44596e-07
-5.26999e-05
-1.44948e-07
-5.28066e-05
-1.45357e-07
-5.2913e-05
-1.45825e-07
-5.30192e-05
-1.46338e-07
-5.31253e-05
-1.46925e-07
-5.32313e-05
-1.47639e-07
-5.33371e-05
-1.48508e-07
-5.3443e-05
-1.49392e-07
-5.35489e-05
-1.50225e-07
-5.36548e-05
-1.50922e-07
-5.37609e-05
-1.51279e-07
-5.38674e-05
-1.51229e-07
-5.39743e-05
-1.5082e-07
-5.40817e-05
-1.50099e-07
-5.41896e-05
-1.49074e-07
-5.42983e-05
-1.47745e-07
-5.44077e-05
-1.46106e-07
-5.4518e-05
-1.44154e-07
-5.46294e-05
-1.41881e-07
-5.47419e-05
-1.39291e-07
-5.48557e-05
-1.36401e-07
-5.49709e-05
-1.33232e-07
-5.50878e-05
-1.29827e-07
-5.52065e-05
-1.26256e-07
-5.53271e-05
-1.22613e-07
-5.545e-05
-1.19028e-07
-5.55752e-05
-1.15659e-07
-5.57031e-05
-1.12744e-07
-5.58339e-05
-1.1063e-07
-5.59679e-05
-1.09663e-07
-5.61052e-05
-1.10249e-07
-5.62462e-05
-1.12839e-07
-5.63913e-05
-1.18193e-07
-5.65407e-05
-1.27112e-07
-5.66947e-05
-1.40459e-07
-5.68534e-05
-1.59114e-07
-5.70176e-05
-1.83568e-07
-5.71876e-05
-2.1466e-07
-5.73638e-05
-2.52797e-07
-5.75466e-05
-2.97773e-07
-5.77357e-05
-3.49139e-07
-5.79294e-05
-4.04682e-07
-5.81252e-05
-4.58404e-07
-5.83176e-05
-5.02272e-07
-5.84964e-05
-5.24761e-07
-5.86438e-05
-5.10179e-07
-5.87322e-05
-4.40281e-07
-5.87132e-05
-2.79195e-07
-5.85187e-05
5.53932e-08
-5.80352e-05
7.01839e-07
-5.70363e-05
1.87445e-06
-5.51151e-05
3.99808e-06
-5.15356e-05
7.5428e-06
1.20569e-05
-4.53748e-05
-5.01855e-05
-3.43626e-08
-5.02425e-05
-5.34755e-08
-5.03132e-05
-6.73031e-08
-5.03927e-05
-7.59155e-08
-5.04777e-05
-8.09035e-08
-5.05661e-05
-8.35658e-08
-5.06564e-05
-8.47618e-08
-5.07479e-05
-8.50688e-08
-5.084e-05
-8.48429e-08
-5.09325e-05
-8.42865e-08
-5.10252e-05
-8.35517e-08
-5.1118e-05
-8.2715e-08
-5.12107e-05
-8.18047e-08
-5.13033e-05
-8.08425e-08
-5.13958e-05
-7.98575e-08
-5.14882e-05
-7.88543e-08
-5.15804e-05
-7.78478e-08
-5.16723e-05
-7.68359e-08
-5.17641e-05
-7.58296e-08
-5.18556e-05
-7.48222e-08
-5.19468e-05
-7.38168e-08
-5.20378e-05
-7.27278e-08
-5.21284e-05
-7.16985e-08
-5.22186e-05
-7.08593e-08
-5.23082e-05
-7.01231e-08
-5.23972e-05
-6.94311e-08
-5.24855e-05
-6.88043e-08
-5.25732e-05
-6.823e-08
-5.26602e-05
-6.77116e-08
-5.27466e-05
-6.72402e-08
-5.28324e-05
-6.6849e-08
-5.29175e-05
-6.65204e-08
-5.30021e-05
-6.63156e-08
-5.3086e-05
-6.62245e-08
-5.31693e-05
-6.61354e-08
-5.32521e-05
-6.60341e-08
-5.33344e-05
-6.59894e-08
-5.34164e-05
-6.59759e-08
-5.34979e-05
-6.60489e-08
-5.35791e-05
-6.61598e-08
-5.366e-05
-6.63404e-08
-5.37408e-05
-6.65681e-08
-5.38213e-05
-6.68326e-08
-5.39018e-05
-6.71435e-08
-5.39823e-05
-6.74822e-08
-5.40628e-05
-6.78373e-08
-5.41435e-05
-6.81924e-08
-5.42244e-05
-6.85473e-08
-5.43055e-05
-6.88673e-08
-5.43871e-05
-6.91581e-08
-5.44691e-05
-6.9416e-08
-5.45517e-05
-6.9761e-08
-5.46348e-05
-7.02556e-08
-5.47186e-05
-7.06542e-08
-5.48031e-05
-7.09279e-08
-5.48884e-05
-7.10506e-08
-5.49746e-05
-7.07016e-08
-5.50619e-05
-6.97757e-08
-5.51504e-05
-6.83927e-08
-5.52402e-05
-6.66261e-08
-5.53313e-05
-6.44837e-08
-5.54239e-05
-6.19536e-08
-5.55181e-05
-5.90268e-08
-5.5614e-05
-5.5689e-08
-5.57117e-05
-5.19252e-08
-5.58113e-05
-4.7729e-08
-5.59129e-05
-4.31103e-08
-5.60168e-05
-3.80811e-08
-5.61231e-05
-3.26731e-08
-5.62319e-05
-2.69423e-08
-5.63435e-05
-2.09715e-08
-5.6458e-05
-1.48742e-08
-5.65757e-05
-8.81479e-09
-5.66968e-05
-3.00795e-09
-5.68215e-05
2.29064e-09
-5.69502e-05
6.68399e-09
-5.70832e-05
9.77163e-09
-5.72208e-05
1.11169e-08
-5.73633e-05
1.00479e-08
-5.75111e-05
5.8174e-09
-5.76649e-05
-2.23198e-09
-5.78249e-05
-1.52625e-08
-5.7992e-05
-3.35337e-08
-5.81666e-05
-5.79762e-08
-5.8349e-05
-8.91817e-08
-5.85398e-05
-1.26871e-07
-5.87386e-05
-1.71335e-07
-5.8943e-05
-2.22576e-07
-5.91501e-05
-2.74996e-07
-5.93538e-05
-3.23874e-07
-5.95429e-05
-3.62577e-07
-5.96985e-05
-3.83196e-07
-5.97927e-05
-3.76348e-07
-5.97756e-05
-3.28152e-07
-5.95615e-05
-1.91833e-07
-5.89994e-05
1.06065e-07
-5.78337e-05
6.7288e-07
-5.55913e-05
1.71391e-06
-5.1547e-05
3.44744e-06
5.58144e-06
-4.51313e-05
-5.11848e-05
5.09003e-09
-5.1241e-05
2.01765e-09
-5.13102e-05
1.29958e-09
-5.13877e-05
1.03743e-09
-5.14701e-05
9.04403e-10
-5.1555e-05
8.13268e-10
-5.16409e-05
7.55809e-10
-5.17272e-05
7.16266e-10
-5.18131e-05
6.75757e-10
-5.18984e-05
6.42532e-10
-5.19829e-05
5.93989e-10
-5.20665e-05
5.04436e-10
-5.21491e-05
4.42082e-10
-5.22307e-05
3.86277e-10
-5.23112e-05
3.43543e-10
-5.23907e-05
3.07197e-10
-5.24691e-05
2.84662e-10
-5.25466e-05
2.7142e-10
-5.2623e-05
2.73563e-10
-5.26984e-05
2.89618e-10
-5.27729e-05
3.36062e-10
-5.28465e-05
4.3348e-10
-5.29191e-05
4.9753e-10
-5.29908e-05
4.50375e-10
-5.30617e-05
3.50638e-10
-5.31319e-05
2.30385e-10
-5.32013e-05
9.34936e-11
-5.327e-05
-4.87866e-11
-5.33381e-05
-1.83849e-10
-5.34057e-05
-3.23223e-10
-5.34727e-05
-4.68556e-10
-5.35393e-05
-6.48602e-10
-5.36055e-05
-8.66081e-10
-5.36712e-05
-1.2545e-09
-5.37367e-05
-1.4826e-09
-5.38019e-05
-1.64172e-09
-5.3867e-05
-1.77371e-09
-5.3932e-05
-1.9066e-09
-5.39969e-05
-2.05277e-09
-5.40618e-05
-2.18359e-09
-5.41269e-05
-2.31325e-09
-5.4192e-05
-2.43051e-09
-5.42574e-05
-2.52421e-09
-5.4323e-05
-2.59255e-09
-5.4389e-05
-2.62615e-09
-5.44554e-05
-2.60788e-09
-5.45222e-05
-2.52372e-09
-5.45896e-05
-2.37008e-09
-5.46576e-05
-2.10924e-09
-5.47262e-05
-1.74299e-09
-5.47957e-05
-1.25454e-09
-5.4866e-05
-7.35943e-10
-5.49371e-05
-4.94429e-10
-5.50091e-05
-2.59726e-11
-5.50822e-05
6.96193e-10
-5.51561e-05
1.45474e-09
-5.52312e-05
2.83289e-09
-5.53076e-05
5.01407e-09
-5.53853e-05
7.7329e-09
-5.54646e-05
1.08794e-08
-5.55454e-05
1.44591e-08
-5.56277e-05
1.84963e-08
-5.57118e-05
2.30128e-08
-5.57977e-05
2.80346e-08
-5.58855e-05
3.35786e-08
-5.59754e-05
3.96572e-08
-5.60674e-05
4.62758e-08
-5.61618e-05
5.34309e-08
-5.62586e-05
6.11002e-08
-5.63581e-05
6.92414e-08
-5.64604e-05
7.77863e-08
-5.65658e-05
8.66408e-08
-5.66745e-05
9.56385e-08
-5.67866e-05
1.046e-07
-5.69026e-05
1.13343e-07
-5.70227e-05
1.21513e-07
-5.71473e-05
1.28688e-07
-5.72767e-05
1.3442e-07
-5.74113e-05
1.38092e-07
-5.75515e-05
1.38969e-07
-5.76979e-05
1.36451e-07
-5.78511e-05
1.29757e-07
-5.80116e-05
1.18214e-07
-5.81799e-05
1.01039e-07
-5.83564e-05
7.76067e-08
-5.85407e-05
4.7265e-08
-5.87333e-05
1.06315e-08
-5.89309e-05
-3.62985e-08
-5.91312e-05
-8.73492e-08
-5.93276e-05
-1.41775e-07
-5.95089e-05
-1.9781e-07
-5.96571e-05
-2.54309e-07
-5.9743e-05
-3.13249e-07
-5.97209e-05
-3.77441e-07
-5.9501e-05
-4.44935e-07
-5.89225e-05
-5.13045e-07
-5.77051e-05
-5.91343e-07
-5.5349e-05
-6.93015e-07
-5.11224e-05
-8.31324e-07
-9.57396e-07
-4.46307e-05
-5.07776e-05
4.30558e-08
-5.0832e-05
5.784e-08
-5.09e-05
7.05684e-08
-5.09766e-05
7.8766e-08
-5.10581e-05
8.36241e-08
-5.11425e-05
8.62464e-08
-5.12281e-05
8.74782e-08
-5.13143e-05
8.78521e-08
-5.14003e-05
8.76964e-08
-5.14859e-05
8.721e-08
-5.15709e-05
8.6515e-08
-5.16552e-05
8.56665e-08
-5.17387e-05
8.47665e-08
-5.18213e-05
8.38162e-08
-5.1903e-05
8.28599e-08
-5.19838e-05
8.18927e-08
-5.20637e-05
8.09424e-08
-5.21427e-05
8.00014e-08
-5.22208e-05
7.90911e-08
-5.22979e-05
7.82048e-08
-5.23742e-05
7.737e-08
-5.24496e-05
7.65758e-08
-5.25241e-05
7.5781e-08
-5.25978e-05
7.49352e-08
-5.26708e-05
7.40817e-08
-5.2743e-05
7.3229e-08
-5.28144e-05
7.23966e-08
-5.28852e-05
7.15979e-08
-5.29553e-05
7.08603e-08
-5.30249e-05
7.01587e-08
-5.30939e-05
6.9504e-08
-5.31623e-05
6.88502e-08
-5.32303e-05
6.82024e-08
-5.3298e-05
6.75281e-08
-5.33653e-05
6.69943e-08
-5.34322e-05
6.65462e-08
-5.34989e-05
6.6192e-08
-5.35653e-05
6.58731e-08
-5.36316e-05
6.56419e-08
-5.36978e-05
6.54481e-08
-5.37639e-05
6.53372e-08
-5.383e-05
6.52949e-08
-5.38962e-05
6.53225e-08
-5.39625e-05
6.54489e-08
-5.4029e-05
6.56733e-08
-5.40957e-05
6.60136e-08
-5.41628e-05
6.6482e-08
-5.42302e-05
6.70912e-08
-5.42981e-05
6.78607e-08
-5.43664e-05
6.87964e-08
-5.44353e-05
6.98882e-08
-5.45047e-05
7.10475e-08
-5.4575e-05
7.21951e-08
-5.4646e-05
7.35792e-08
-5.47179e-05
7.52524e-08
-5.47909e-05
7.71893e-08
-5.48649e-05
7.97493e-08
-5.494e-05
8.30724e-08
-5.50161e-05
8.70027e-08
-5.50934e-05
9.14621e-08
-5.5172e-05
9.64587e-08
-5.52519e-05
1.02014e-07
-5.53333e-05
1.08154e-07
-5.54162e-05
1.14908e-07
-5.55008e-05
1.223e-07
-5.55871e-05
1.30348e-07
-5.56753e-05
1.39071e-07
-5.57655e-05
1.48486e-07
-5.58578e-05
1.58578e-07
-5.59524e-05
1.6932e-07
-5.60495e-05
1.80668e-07
-5.61493e-05
1.92543e-07
-5.6252e-05
2.04819e-07
-5.63577e-05
2.17342e-07
-5.64669e-05
2.29922e-07
-5.65796e-05
2.42259e-07
-5.66964e-05
2.53981e-07
-5.68174e-05
2.64653e-07
-5.69431e-05
2.73718e-07
-5.70739e-05
2.80555e-07
-5.72104e-05
2.84542e-07
-5.7353e-05
2.84965e-07
-5.75021e-05
2.81064e-07
-5.76583e-05
2.72094e-07
-5.78218e-05
2.57293e-07
-5.79924e-05
2.35482e-07
-5.81683e-05
2.05755e-07
-5.83498e-05
1.66456e-07
-5.85311e-05
1.17975e-07
-5.87037e-05
5.81029e-08
-5.88567e-05
-1.38542e-08
-5.89744e-05
-1.0187e-07
-5.90278e-05
-2.21042e-07
-5.89692e-05
-3.92754e-07
-5.87145e-05
-6.513e-07
-5.81085e-05
-1.06522e-06
-5.68725e-05
-1.76766e-06
-5.45188e-05
-2.98094e-06
-5.03449e-05
-4.93465e-06
-7.27365e-06
-4.39594e-05
-4.92017e-05
7.21592e-08
-4.92529e-05
1.1195e-07
-4.93182e-05
1.3874e-07
-4.93927e-05
1.5601e-07
-4.94729e-05
1.66568e-07
-4.95566e-05
1.72718e-07
-4.96427e-05
1.76191e-07
-4.97301e-05
1.77965e-07
-4.98185e-05
1.78753e-07
-4.99075e-05
1.78867e-07
-4.9997e-05
1.78614e-07
-5.00868e-05
1.78065e-07
-5.01769e-05
1.77376e-07
-5.02671e-05
1.76573e-07
-5.03574e-05
1.75708e-07
-5.04477e-05
1.74787e-07
-5.05381e-05
1.73843e-07
-5.06284e-05
1.72871e-07
-5.07187e-05
1.71893e-07
-5.08089e-05
1.70904e-07
-5.08989e-05
1.69924e-07
-5.09887e-05
1.68938e-07
-5.10782e-05
1.67925e-07
-5.11676e-05
1.66849e-07
-5.12566e-05
1.65741e-07
-5.13453e-05
1.64599e-07
-5.14337e-05
1.63447e-07
-5.15217e-05
1.62309e-07
-5.16093e-05
1.61221e-07
-5.16964e-05
1.60162e-07
-5.17832e-05
1.59127e-07
-5.18695e-05
1.58089e-07
-5.19554e-05
1.57051e-07
-5.20408e-05
1.56027e-07
-5.21258e-05
1.55104e-07
-5.22103e-05
1.54265e-07
-5.22944e-05
1.53515e-07
-5.2378e-05
1.52822e-07
-5.24611e-05
1.52241e-07
-5.25438e-05
1.51706e-07