/*--------------------------------*- C++ -*----------------------------------*\
| =========                 |                                                 |
| \\      /  F ield         | OpenFOAM: The Open Source CFD Toolbox           |
|  \\    /   O peration     | Version:  2.1.0                                 |
|   \\  /    A nd           | Web:      www.OpenFOAM.org                      |
|    \\/     M anipulation  |                                                 |
\*---------------------------------------------------------------------------*/
FoamFile
{
    version     2.0;
    format      ascii;
    class       volScalarField;
    location    "0.5";
    object      rho;
}
// * * * * * * * * * * * * * * * * * * * * * * * * * * * * * * * * * * * * * //

dimensions      [1 -3 0 0 0 0 0];

internalField   nonuniform List<scalar> 
6400
(
945.833
945.793
945.754
945.714
945.676
945.638
945.601
945.565
945.53
945.496
945.462
945.43
945.398
945.367
945.337
945.308
945.279
945.252
945.225
945.2
945.175
945.151
945.127
945.105
945.084
945.063
945.043
945.024
945.006
944.988
944.972
944.956
944.94
944.926
944.912
944.899
944.887
944.875
944.865
944.854
944.845
944.836
944.827
944.819
944.812
944.805
944.799
944.793
944.788
944.783
944.779
944.775
944.771
944.768
944.765
944.763
944.761
944.759
944.758
944.757
944.756
944.755
944.755
944.755
944.755
944.756
944.757
944.757
944.759
944.76
944.762
944.764
944.766
944.768
944.771
944.774
944.778
944.782
944.787
944.792
944.797
944.804
944.811
944.82
944.83
944.843
944.859
944.879
944.907
944.948
945.012
945.122
945.331
945.751
946.284
945.119
944.571
944.555
944.555
944.555
946.279
946.23
946.179
946.128
946.078
946.028
945.979
945.931
945.884
945.837
945.792
945.747
945.704
945.661
945.619
945.578
945.538
945.499
945.461
945.424
945.388
945.353
945.319
945.286
945.253
945.222
945.192
945.163
945.135
945.108
945.082
945.057
945.033
945.01
944.987
944.966
944.946
944.927
944.909
944.891
944.875
944.859
944.845
944.831
944.818
944.806
944.794
944.784
944.774
944.764
944.756
944.748
944.74
944.734
944.728
944.722
944.717
944.712
944.708
944.704
944.701
944.697
944.695
944.692
944.69
944.688
944.686
944.685
944.683
944.682
944.681
944.68
944.679
944.678
944.678
944.677
944.677
944.676
944.676
944.676
944.676
944.676
944.676
944.676
944.676
944.677
944.678
944.678
944.679
944.679
944.679
944.676
944.669
944.653
944.621
944.578
944.556
944.555
944.555
944.555
946.822
946.764
946.702
946.64
946.578
946.516
946.455
946.395
946.336
946.277
946.219
946.163
946.107
946.052
945.998
945.944
945.892
945.841
945.791
945.742
945.694
945.647
945.6
945.555
945.511
945.468
945.427
945.386
945.346
945.308
945.271
945.235
945.2
945.166
945.134
945.103
945.073
945.044
945.017
944.99
944.965
944.941
944.918
944.896
944.876
944.856
944.838
944.82
944.804
944.788
944.774
944.76
944.748
944.736
944.725
944.715
944.705
944.697
944.689
944.681
944.674
944.668
944.662
944.657
944.652
944.647
944.643
944.639
944.636
944.632
944.629
944.626
944.623
944.62
944.617
944.614
944.611
944.608
944.606
944.603
944.6
944.597
944.594
944.59
944.587
944.584
944.581
944.577
944.574
944.571
944.568
944.565
944.562
944.559
944.557
944.556
944.555
944.555
944.555
944.555
947.597
947.529
947.456
947.381
947.306
947.231
947.156
947.082
947.008
946.936
946.863
946.792
946.722
946.652
946.583
946.515
946.449
946.383
946.317
946.253
946.19
946.128
946.067
946.007
945.949
945.891
945.834
945.779
945.724
945.671
945.619
945.569
945.519
945.471
945.424
945.379
945.335
945.292
945.251
945.211
945.172
945.135
945.099
945.065
945.032
945
944.97
944.941
944.914
944.888
944.864
944.84
944.818
944.798
944.778
944.76
944.743
944.727
944.712
944.698
944.685
944.673
944.662
944.652
944.643
944.634
944.626
944.619
944.612
944.606
944.601
944.596
944.591
944.587
944.583
944.579
944.576
944.573
944.571
944.568
944.566
944.564
944.563
944.561
944.56
944.559
944.558
944.557
944.556
944.556
944.555
944.555
944.555
944.555
944.555
944.555
944.555
944.555
944.555
944.555
948.727
948.65
948.566
948.479
948.392
948.303
948.215
948.126
948.038
947.951
947.864
947.777
947.692
947.606
947.522
947.438
947.355
947.272
947.19
947.109
947.029
946.95
946.871
946.794
946.718
946.642
946.568
946.494
946.422
946.35
946.28
946.21
946.142
946.075
946.009
945.944
945.88
945.818
945.757
945.697
945.639
945.582
945.527
945.473
945.42
945.37
945.32
945.273
945.227
945.182
945.14
945.099
945.06
945.022
944.986
944.952
944.92
944.889
944.86
944.833
944.807
944.783
944.761
944.74
944.721
944.703
944.687
944.672
944.658
944.645
944.634
944.623
944.614
944.606
944.599
944.592
944.586
944.581
944.577
944.573
944.57
944.567
944.564
944.562
944.56
944.559
944.558
944.557
944.556
944.556
944.555
944.555
944.555
944.555
944.555
944.555
944.555
944.555
944.555
944.555
950.441
950.355
950.262
950.166
950.069
949.97
949.871
949.772
949.673
949.574
949.475
949.377
949.278
949.18
949.082
948.985
948.887
948.79
948.693
948.597
948.5
948.404
948.309
948.214
948.119
948.025
947.932
947.839
947.746
947.654
947.563
947.472
947.382
947.292
947.203
947.115
947.028
946.941
946.855
946.77
946.686
946.602
946.52
946.439
946.359
946.28
946.202
946.126
946.051
945.977
945.905
945.834
945.765
945.698
945.632
945.568
945.506
945.446
945.388
945.332
945.278
945.226
945.176
945.129
945.084
945.041
945
944.961
944.925
944.891
944.859
944.829
944.801
944.775
944.751
944.728
944.708
944.689
944.672
944.656
944.642
944.629
944.617
944.607
944.597
944.589
944.582
944.575
944.57
944.565
944.562
944.559
944.557
944.556
944.555
944.555
944.555
944.555
944.555
944.555
953.069
952.98
952.885
952.786
952.686
952.584
952.483
952.38
952.278
952.176
952.073
951.971
951.869
951.766
951.664
951.561
951.458
951.355
951.251
951.147
951.043
950.938
950.833
950.727
950.621
950.515
950.409
950.304
950.198
950.092
949.986
949.88
949.774
949.668
949.561
949.455
949.349
949.242
949.136
949.029
948.922
948.815
948.708
948.601
948.493
948.386
948.278
948.17
948.062
947.954
947.846
947.738
947.631
947.523
947.416
947.309
947.202
947.096
946.99
946.885
946.782
946.679
946.577
946.477
946.378
946.281
946.186
946.093
946.001
945.912
945.825
945.741
945.659
945.58
945.503
945.429
945.358
945.289
945.223
945.16
945.099
945.041
944.986
944.934
944.884
944.837
944.793
944.752
944.713
944.678
944.647
944.621
944.6
944.584
944.575
944.569
944.564
944.561
944.559
944.558
956.913
956.828
956.74
956.649
956.558
956.466
956.374
956.281
956.189
956.097
956.006
955.915
955.824
955.733
955.642
955.551
955.461
955.37
955.28
955.189
955.098
955.007
954.915
954.823
954.732
954.639
954.547
954.454
954.361
954.267
954.173
954.078
953.982
953.886
953.789
953.69
953.591
953.491
953.39
953.287
953.183
953.077
952.97
952.861
952.75
952.638
952.523
952.407
952.289
952.168
952.045
951.92
951.793
951.663
951.531
951.396
951.259
951.119
950.976
950.832
950.684
950.535
950.383
950.229
950.072
949.914
949.753
949.591
949.427
949.261
949.094
948.926
948.756
948.585
948.413
948.241
948.068
947.894
947.719
947.544
947.368
947.19
947.011
946.831
946.649
946.465
946.28
946.095
945.909
945.724
945.545
945.373
945.214
945.073
944.956
944.87
944.8
944.744
944.702
944.674
962.351
962.29
962.228
962.165
962.103
962.04
961.978
961.917
961.857
961.797
961.738
961.68
961.623
961.567
961.512
961.457
961.403
961.35
961.298
961.246
961.195
961.145
961.095
961.046
960.997
960.947
960.896
960.845
960.793
960.74
960.686
960.631
960.574
960.516
960.457
960.396
960.333
960.269
960.202
960.134
960.064
959.992
959.918
959.841
959.763
959.682
959.598
959.512
959.424
959.332
959.238
959.141
959.042
958.939
958.833
958.723
958.61
958.494
958.373
958.25
958.122
957.99
957.854
957.714
957.569
957.419
957.265
957.105
956.94
956.77
956.594
956.412
956.223
956.028
955.826
955.616
955.397
955.169
954.93
954.681
954.421
954.149
953.863
953.559
953.237
952.894
952.527
952.133
951.711
951.258
950.775
950.263
949.727
949.174
948.615
948.076
947.602
947.168
946.797
946.52
969.603
969.586
969.569
969.552
969.536
969.521
969.506
969.491
969.477
969.463
969.45
969.437
969.424
969.412
969.4
969.388
969.376
969.364
969.353
969.341
969.329
969.316
969.304
969.291
969.277
969.263
969.249
969.234
969.218
969.202
969.185
969.167
969.149
969.13
969.11
969.09
969.069
969.048
969.025
969.003
968.979
968.956
968.931
968.906
968.881
968.855
968.828
968.801
968.774
968.746
968.717
968.688
968.658
968.628
968.597
968.566
968.533
968.5
968.466
968.431
968.396
968.359
968.321
968.281
968.24
968.198
968.154
968.108
968.059
968.009
967.955
967.899
967.839
967.775
967.707
967.635
967.558
967.475
967.387
967.29
967.184
967.067
966.94
966.8
966.647
966.479
966.294
966.092
965.858
965.585
965.266
964.893
964.457
963.948
963.35
962.645
961.833
960.986
960.17
959.5
977.416
977.446
977.475
977.504
977.532
977.559
977.585
977.611
977.635
977.66
977.683
977.706
977.727
977.749
977.77
977.79
977.81
977.83
977.85
977.869
977.888
977.908
977.927
977.947
977.967
977.987
978.007
978.028
978.05
978.072
978.095
978.118
978.143
978.168
978.194
978.221
978.249
978.278
978.308
978.339
978.371
978.404
978.439
978.474
978.511
978.55
978.589
978.63
978.673
978.717
978.762
978.809
978.858
978.909
978.961
979.016
979.073
979.133
979.195
979.261
979.329
979.402
979.478
979.559
979.644
979.734
979.829
979.931
980.038
980.153
980.275
980.405
980.544
980.692
980.851
981.02
981.202
981.396
981.604
981.826
982.063
982.316
982.585
982.871
983.174
983.495
983.833
984.189
984.573
984.992
985.453
985.96
986.507
987.099
987.738
988.425
989.156
989.916
990.664
991.323
983.821
983.888
983.955
984.024
984.093
984.162
984.23
984.298
984.365
984.433
984.499
984.565
984.63
984.696
984.761
984.825
984.889
984.954
985.017
985.081
985.145
985.209
985.273
985.337
985.401
985.466
985.531
985.597
985.664
985.731
985.799
985.868
985.938
986.009
986.081
986.154
986.229
986.305
986.383
986.462
986.543
986.626
986.711
986.798
986.887
986.979
987.073
987.169
987.268
987.37
987.474
987.582
987.692
987.806
987.923
988.043
988.167
988.295
988.427
988.563
988.704
988.85
989.002
989.16
989.323
989.493
989.67
989.854
990.046
990.246
990.454
990.672
990.899
991.135
991.382
991.639
991.906
992.185
992.474
992.774
993.084
993.403
993.732
994.069
994.412
994.762
995.114
995.469
995.822
996.172
996.514
996.849
997.184
997.513
997.831
998.134
998.416
998.669
998.883
999.042
988.65
988.734
988.822
988.913
989.004
989.097
989.189
989.282
989.375
989.468
989.561
989.654
989.747
989.84
989.933
990.026
990.118
990.212
990.305
990.398
990.492
990.586
990.68
990.774
990.869
990.965
991.06
991.157
991.254
991.351
991.45
991.549
991.649
991.749
991.851
991.954
992.058
992.163
992.269
992.376
992.485
992.595
992.706
992.819
992.933
993.049
993.167
993.286
993.407
993.53
993.655
993.781
993.91
994.04
994.173
994.307
994.444
994.583
994.724
994.868
995.013
995.161
995.311
995.464
995.618
995.775
995.934
996.095
996.258
996.423
996.59
996.758
996.927
997.098
997.268
997.44
997.61
997.781
997.95
998.116
998.281
998.441
998.597
998.748
998.893
999.031
999.161
999.281
999.392
999.493
999.582
999.658
999.721
999.776
999.823
999.863
999.895
999.921
999.94
999.952
992.18
992.266
992.357
992.453
992.549
992.647
992.745
992.844
992.943
993.042
993.141
993.24
993.339
993.438
993.538
993.637
993.736
993.835
993.935
994.035
994.134
994.234
994.334
994.435
994.535
994.636
994.737
994.839
994.94
995.042
995.144
995.246
995.349
995.452
995.555
995.658
995.762
995.865
995.969
996.073
996.177
996.281
996.385
996.489
996.593
996.697
996.801
996.904
997.008
997.111
997.213
997.315
997.417
997.518
997.619
997.719
997.818
997.916
998.014
998.11
998.205
998.299
998.392
998.483
998.573
998.66
998.746
998.831
998.913
998.992
999.07
999.145
999.218
999.288
999.355
999.419
999.481
999.539
999.594
999.645
999.693
999.737
999.778
999.815
999.848
999.877
999.903
999.925
999.943
999.958
999.969
999.978
999.985
999.989
999.992
999.994
999.996
999.997
999.998
999.999
994.583
994.664
994.752
994.842
994.934
995.027
995.121
995.215
995.308
995.402
995.495
995.589
995.682
995.775
995.867
995.96
996.052
996.144
996.236
996.327
996.418
996.509
996.599
996.689
996.779
996.868
996.957
997.046
997.134
997.221
997.308
997.395
997.48
997.566
997.65
997.734
997.817
997.899
997.98
998.06
998.139
998.217
998.294
998.37
998.444
998.517
998.589
998.659
998.728
998.795
998.86
998.924
998.986
999.047
999.105
999.162
999.217
999.27
999.321
999.37
999.417
999.461
999.504
999.545
999.584
999.621
999.656
999.689
999.72
999.749
999.776
999.801
999.824
999.846
999.866
999.884
999.901
999.916
999.929
999.941
999.952
999.961
999.969
999.976
999.982
999.986
999.99
999.993
999.995
999.997
999.998
999.999
999.999
1000
1000
1000
1000
1000
1000
1000
996.175
996.247
996.326
996.406
996.489
996.572
996.655
996.738
996.82
996.902
996.984
997.065
997.146
997.226
997.306
997.385
997.463
997.541
997.618
997.694
997.77
997.844
997.918
997.991
998.064
998.135
998.205
998.274
998.343
998.41
998.476
998.541
998.605
998.667
998.729
998.789
998.848
998.906
998.962
999.017
999.07
999.122
999.173
999.221
999.269
999.314
999.358
999.401
999.442
999.481
999.518
999.554
999.588
999.621
999.651
999.681
999.708
999.734
999.758
999.781
999.803
999.822
999.841
999.858
999.874
999.888
999.902
999.914
999.925
999.935
999.944
999.952
999.959
999.965
999.971
999.976
999.98
999.984
999.987
999.99
999.992
999.994
999.996
999.997
999.998
999.998
999.999
999.999
1000
1000
1000
1000
1000
1000
1000
1000
1000
1000
1000
1000
997.257
997.32
997.387
997.456
997.526
997.596
997.666
997.735
997.803
997.871
997.939
998.005
998.071
998.136
998.201
998.264
998.327
998.388
998.449
998.509
998.568
998.626
998.683
998.739
998.794
998.847
998.9
998.952
999.002
999.052
999.1
999.146
999.192
999.236
999.279
999.321
999.361
999.4
999.437
999.474
999.508
999.542
999.574
999.604
999.633
999.661
999.688
999.713
999.736
999.759
999.78
999.799
999.818
999.835
999.851
999.866
999.88
999.893
999.905
999.916
999.925
999.934
999.943
999.95
999.957
999.963
999.968
999.973
999.977
999.981
999.984
999.987
999.989
999.991
999.993
999.994
999.995
999.997
999.997
999.998
999.999
999.999
999.999
999.999
1000
1000
1000
1000
1000
1000
1000
1000
1000
1000
1000
1000
1000
1000
1000
1000
998.026
998.079
998.135
998.192
998.249
998.305
998.361
998.417
998.471
998.525
998.578
998.631
998.682
998.733
998.783
998.832
998.88
998.927
998.973
999.018
999.063
999.106
999.148
999.19
999.23
999.269
999.308
999.345
999.381
999.416
999.45
999.483
999.514
999.545
999.574
999.602
999.629
999.655
999.679
999.703
999.725
999.746
999.766
999.785
999.803
999.82
999.836
999.851
999.865
999.878
999.89
999.901
999.911
999.921
999.93
999.938
999.945
999.952
999.958
999.963
999.968
999.972
999.976
999.98
999.983
999.985
999.988
999.99
999.992
999.993
999.994
999.995
999.996
999.997
999.998
999.998
999.999
999.999
999.999
999.999
1000
1000
1000
1000
1000
1000
1000
1000
1000
1000
1000
1000
1000
1000
1000
1000
1000
1000
1000
1000
998.591
998.634
998.679
998.725
998.769
998.814
998.858
998.901
998.943
998.984
999.025
999.065
999.104
999.143
999.18
999.217
999.253
999.288
999.322
999.355
999.388
999.419
999.45
999.479
999.508
999.536
999.563
999.589
999.614
999.638
999.661
999.683
999.704
999.724
999.744
999.762
999.78
999.796
999.812
999.827
999.841
999.855
999.867
999.879
999.89
999.9
999.91
999.918
999.927
999.934
999.941
999.948
999.954
999.959
999.964
999.968
999.972
999.976
999.979
999.982
999.985
999.987
999.989
999.991
999.992
999.993
999.995
999.996
999.996
999.997
999.998
999.998
999.999
999.999
999.999
999.999
1000
1000
1000
1000
1000
1000
1000
1000
1000
1000
1000
1000
1000
1000
1000
1000
1000
1000
1000
1000
1000
1000
1000
1000
999.094
999.127
999.16
999.192
999.224
999.256
999.287
999.317
999.347
999.376
999.404
999.431
999.458
999.484
999.51
999.534
999.558
999.581
999.604
999.625
999.646
999.666
999.686
999.705
999.723
999.74
999.756
999.772
999.787
999.802
999.816
999.829
999.841
999.853
999.864
999.875
999.885
999.894
999.903
999.911
999.919
999.926
999.933
999.94
999.945
999.951
999.956
999.96
999.965
999.969
999.972
999.975
999.978
999.981
999.983
999.985
999.987
999.989
999.991
999.992
999.993
999.994
999.995
999.996
999.997
999.997
999.998
999.998
999.998
999.999
999.999
999.999
999.999
1000
1000
1000
1000
1000
1000
1000
1000
1000
1000
1000
1000
1000
1000
1000
1000
1000
1000
1000
1000
1000
1000
1000
1000
1000
1000
1000
944.555
944.555
944.555
944.555
944.555
944.555
944.555
944.555
944.555
944.555
944.555
944.555
944.555
944.555
944.555
944.555
944.555
944.555
944.555
944.555
944.555
944.555
944.555
944.555
944.555
944.555
944.555
944.555
944.555
944.555
944.555
944.555
944.555
944.555
944.555
944.555
944.555
944.555
944.555
944.555
944.555
944.555
944.555
944.555
944.555
944.555
944.555
944.555
944.555
944.555
944.555
944.555
944.555
944.555
944.555
944.555
944.555
944.555
944.555
944.555
944.555
944.555
944.555
944.555
944.555
944.555
944.555
944.555
944.555
944.555
944.555
944.555
944.555
944.555
944.555
944.555
944.555
944.555
944.555
944.555
944.555
944.555
944.555
944.555
944.555
944.555
944.555
944.555
944.555
944.555
944.555
944.555
944.555
944.555
944.555
944.555
944.556
944.557
944.559
944.571
944.555
944.555
944.555
944.555
944.555
944.555
944.555
944.555
944.555
944.555
944.556
944.556
944.556
944.557
944.558
944.56
944.565
944.578
944.616
944.798
944.558
944.559
944.56
944.561
944.562
944.564
944.566
944.567
944.567
944.567
944.568
944.569
944.57
944.574
944.582
944.6
944.64
944.745
945.111
947.182
944.673
944.686
944.7
944.716
944.731
944.743
944.749
944.747
944.739
944.73
944.721
944.714
944.712
944.721
944.753
944.832
945.021
945.532
947.367
959.248
946.453
946.534
946.61
946.68
946.73
946.726
946.685
946.605
946.522
946.427
946.327
946.214
946.105
946.006
946.006
946.18
946.725
948.048
951.594
978.056
959.261
959.427
959.583
959.714
959.787
959.723
959.608
959.479
959.314
959.079
958.792
958.393
957.933
957.3
956.757
956.454
957.027
958.889
963.458
978.755
991.62
991.519
991.444
991.391
991.396
991.552
991.756
991.965
992.183
992.439
992.714
993.053
993.422
993.891
994.178
994.168
993.539
992.398
990.792
988.171
999.086
999.045
999.009
998.975
998.953
998.962
998.992
999.046
999.101
999.161
999.22
999.29
999.354
999.426
999.468
999.468
999.39
999.213
998.756
993.653
999.953
999.948
999.942
999.935
999.929
999.924
999.921
999.923
999.927
999.933
999.939
999.946
999.951
999.955
999.956
999.951
999.934
999.882
999.641
997.305
999.999
999.999
999.998
999.998
999.997
999.997
999.996
999.996
999.996
999.996
999.996
999.997
999.997
999.997
999.996
999.995
999.992
999.981
999.93
999.491
1000
1000
1000
1000
1000
1000
1000
1000
1000
1000
1000
1000
1000
1000
1000
1000
999.999
999.999
999.997
999.99
1000
1000
1000
1000
1000
1000
1000
1000
1000
1000
1000
1000
1000
1000
1000
1000
1000
1000
1000
1000
1000
1000
1000
1000
1000
1000
1000
1000
1000
1000
1000
1000
1000
1000
1000
1000
1000
1000
1000
1000
1000
1000
1000
1000
1000
1000
1000
1000
1000
1000
1000
1000
1000
1000
1000
1000
1000
1000
1000
1000
1000
1000
1000
1000
1000
1000
1000
1000
1000
1000
1000
1000
1000
1000
1000
1000
1000
1000
1000
1000
1000
1000
1000
1000
1000
1000
1000
1000
1000
1000
1000
1000
1000
1000
1000
1000
1000
1000
1000
1000
944.555
944.555
944.555
944.555
944.555
944.555
944.555
944.555
944.555
944.555
944.555
944.555
944.555
944.555
944.555
944.555
944.555
944.555
944.555
944.555
944.555
944.555
944.555
944.555
944.555
944.555
944.555
944.555
944.555
944.555
944.555
944.555
944.555
944.555
944.555
944.555
944.555
944.555
944.555
944.555
944.555
944.555
944.555
944.555
944.555
944.555
944.555
944.555
944.555
944.555
944.555
944.555
944.555
944.555
944.555
944.555
944.555
944.555
944.555
944.555
944.555
944.555
944.555
944.555
944.555
944.555
944.555
944.555
944.555
944.555
944.555
944.555
944.555
944.555
944.555
944.555
944.555
944.555
944.555
944.555
944.555
944.555
944.555
944.555
944.555
944.555
944.555
944.555
944.555
944.555
944.555
944.555
944.555
944.555
944.555
944.555
944.555
944.555
944.555
944.555
944.555
944.555
944.555
944.555
944.555
944.555
944.555
944.555
944.555
944.555
944.555
944.555
944.555
944.555
944.555
944.555
944.555
944.555
944.555
944.555
944.555
944.555
944.555
944.555
944.555
944.555
944.555
944.555
944.555
944.555
944.555
944.555
944.555
944.555
944.555
944.555
944.555
944.555
944.555
944.555
944.555
944.555
944.555
944.555
944.555
944.555
944.555
944.555
944.555
944.555
944.555
944.555
944.555
944.555
944.555
944.555
944.555
944.555
944.555
944.555
944.555
944.555
944.555
944.555
944.555
944.555
944.555
944.555
944.555
944.555
944.555
944.555
944.555
944.555
944.555
944.555
944.555
944.555
944.555
944.555
944.555
944.555
944.555
944.555
944.555
944.555
944.555
944.555
944.555
944.555
944.555
944.555
944.555
944.555
944.555
944.555
944.555
944.555
944.555
944.555
944.555
944.555
944.555
944.555
944.555
944.555
944.555
944.555
944.555
944.555
944.555
944.555
944.555
944.555
944.555
944.555
944.555
944.555
944.555
944.555
944.555
944.555
944.555
944.555
944.555
944.555
944.555
944.555
944.555
944.555
944.555
944.555
944.555
944.555
944.555
944.555
944.555
944.555
944.555
944.555
944.555
944.555
944.555
944.555
944.555
944.555
944.555
944.555
944.555
944.555
944.555
944.555
944.555
944.555
944.555
944.555
944.555
944.555
944.555
944.555
944.555
944.555
944.555
944.555
944.555
944.555
944.555
944.555
944.555
944.555
944.555
944.555
944.555
944.555
944.555
944.555
944.555
944.555
944.555
944.555
944.555
944.555
944.555
944.555
944.555
944.555
944.555
944.555
944.555
944.555
944.555
944.555
944.555
944.555
944.555
944.555
944.555
944.555
944.555
944.555
944.555
944.555
944.555
944.555
944.555
944.555
944.555
944.555
944.555
944.555
944.555
944.555
944.555
944.555
944.555
944.555
944.555
944.555
944.555
944.555
944.555
944.555
944.555
944.555
944.555
944.555
944.555
944.555
944.555
944.555
944.555
944.555
944.555
944.555
944.555
944.555
944.555
944.555
944.555
944.555
944.555
944.555
944.555
944.555
944.555
944.555
944.555
944.555
944.555
944.555
944.555
944.555
944.555
944.555
944.555
944.555
944.555
944.555
944.555
944.555
944.555
944.555
944.555
944.555
944.555
944.555
944.555
944.555
944.555
944.555
944.555
944.555
944.555
944.555
944.555
944.555
944.555
944.555
944.555
944.555
944.555
944.555
944.555
944.555
944.555
944.555
944.555
944.555
944.555
944.555
944.555
944.555
944.555
944.555
944.555
944.555
944.555
944.555
944.555
944.555
944.555
944.555
944.555
944.555
944.555
944.555
944.555
944.555
944.555
944.555
944.555
944.555
944.555
944.555
944.555
944.555
944.555
944.555
944.555
944.555
944.555
944.555
944.555
944.555
944.555
944.555
944.555
944.555
944.555
944.555
944.555
944.555
944.555
944.555
944.555
944.555
944.555
944.555
944.555
944.555
944.555
944.555
944.555
944.555
944.555
944.555
944.555
944.555
944.555
944.555
944.555
944.555
944.555
944.555
944.555
944.555
944.555
944.555
944.555
944.555
944.555
944.555
944.555
944.555
944.555
944.555
944.555
944.555
944.555
944.555
944.555
944.555
944.555
944.555
944.555
944.555
944.555
944.555
944.555
944.555
944.555
944.555
944.555
944.555
944.555
944.555
944.555
944.555
944.555
944.555
944.555
944.555
944.555
944.555
944.555
944.555
944.555
944.555
944.555
944.555
944.555
944.555
944.555
944.555
944.555
944.555
944.555
944.555
944.555
944.555
944.555
944.555
944.555
944.555
944.555
944.555
944.555
944.555
944.555
944.555
944.555
944.555
944.555
944.555
944.555
944.555
944.555
944.555
944.555
944.555
944.555
944.555
944.555
944.555
944.555
944.555
944.555
944.555
944.555
944.555
944.555
944.555
944.555
944.555
944.555
944.555
944.555
944.555
944.555
944.555
944.555
944.555
944.555
944.555
944.555
944.555
944.555
944.555
944.555
944.555
944.555
944.555
944.555
944.555
944.555
944.555
944.555
944.555
944.555
944.555
944.555
944.555
944.555
944.555
944.555
944.555
944.555
944.555
944.555
944.555
944.555
944.555
944.555
944.555
944.555
944.555
944.555
944.555
944.555
944.555
944.555
944.555
944.555
944.555
944.555
944.555
944.555
944.555
944.555
944.555
944.555
944.555
944.555
944.555
944.555
944.555
944.555
944.555
944.555
944.555
944.555
944.555
944.555
944.555
944.555
944.555
944.555
944.555
944.555
944.555
944.555
944.555
944.555
944.555
944.555
944.555
944.555
944.555
944.555
944.555
944.555
944.555
944.555
944.555
944.555
944.555
944.555
944.555
944.555
944.555
944.555
944.555
944.555
944.555
944.555
944.555
944.555
944.555
944.555
944.555
944.555
944.555
944.555
944.555
944.555
944.555
944.555
944.555
944.555
944.555
944.555
944.555
944.555
944.555
944.555
944.555
944.555
944.555
944.555
944.555
944.555
944.555
944.555
944.555
944.555
944.555
944.555
944.555
944.555
944.555
944.555
944.555
944.555
944.555
944.555
944.555
944.555
944.555
944.555
944.555
944.555
944.555
944.555
944.555
944.555
944.555
944.555
944.555
944.555
944.555
944.555
944.555
944.555
944.555
944.555
944.555
944.555
944.555
944.555
944.555
944.555
944.555
944.555
944.555
944.555
944.555
944.555
944.555
944.555
944.555
944.555
944.555
944.555
944.555
944.555
944.555
944.555
944.555
944.555
944.555
944.555
944.555
944.555
944.555
944.555
944.555
944.555
944.555
944.555
944.555
944.555
944.555
944.555
944.555
944.555
944.555
944.555
944.555
944.555
944.555
944.555
944.555
944.555
944.555
944.555
944.555
944.555
944.555
944.555
944.555
944.555
944.555
944.555
944.555
944.555
944.555
944.555
944.555
944.555
944.555
944.555
944.555
944.555
944.555
944.555
944.555
944.555
944.555
944.555
944.555
944.555
944.555
944.555
944.555
944.555
944.555
944.555
944.555
944.555
944.555
944.555
944.555
944.555
944.555
944.555
944.555
944.555
944.555
944.555
944.555
944.555
944.555
944.555
944.555
944.555
944.555
944.555
944.555
944.555
944.555
944.555
944.555
944.555
944.555
944.555
944.555
944.555
944.555
944.555
944.555
944.555
944.555
944.555
944.555
944.555
944.555
944.555
944.555
944.555
944.555
944.555
944.555
944.555
944.555
944.555
944.555
944.555
944.555
944.555
944.555
944.555
944.555
944.555
944.555
944.555
944.555
944.555
944.555
944.555
944.555
944.555
944.555
944.555
944.555
944.555
944.555
944.555
944.555
944.555
944.555
944.555
944.555
944.555
944.555
944.555
944.555
944.555
944.555
944.555
944.555
944.555
944.555
944.555
944.555
944.555
944.555
944.555
944.555
944.555
944.555
944.555
944.555
944.555
944.555
944.555
944.555
944.555
944.555
944.555
944.555
944.555
944.555
944.555
944.555
944.555
944.555
944.555
944.555
944.555
944.555
944.555
944.555
944.555
944.555
944.555
944.555
944.555
944.555
944.555
944.555
944.555
944.555
944.555
944.555
944.555
944.555
944.555
944.555
944.555
944.555
944.555
944.555
944.555
944.555
944.555
944.555
944.555
944.555
944.555
944.555
944.555
944.555
944.555
944.555
944.555
944.555
944.555
944.555
944.555
944.555
944.555
944.555
944.555
944.555
944.555
944.555
944.555
944.555
944.555
944.555
944.555
944.555
944.555
944.555
944.555
944.555
944.555
944.555
944.555
944.555
944.555
944.555
944.555
944.555
944.555
944.555
944.555
944.555
944.555
944.555
944.555
944.555
944.555
944.555
944.555
944.555
944.555
944.555
944.555
944.555
944.555
944.555
944.555
944.555
944.555
944.555
944.555
944.555
944.555
944.555
944.555
944.555
944.555
944.555
944.555
944.555
944.555
944.555
944.555
944.555
944.555
944.555
944.555
944.555
944.555
944.555
944.555
944.555
944.555
944.555
944.555
944.555
944.555
944.555
944.555
944.555
944.555
944.555
944.555
944.555
944.555
944.555
944.555
944.555
944.555
944.555
944.555
944.555
944.555
944.555
944.555
944.555
944.555
944.555
944.555
944.555
944.555
944.555
944.555
944.555
944.555
944.555
944.555
944.555
944.555
944.555
944.555
944.555
944.555
944.555
944.555
944.555
944.555
944.555
944.555
944.555
944.555
944.555
944.555
944.555
944.555
944.555
944.555
944.555
944.555
944.555
944.555
944.555
944.555
944.555
944.555
944.555
944.555
944.555
944.555
944.555
944.555
944.555
944.555
944.555
944.555
944.555
944.555
944.555
944.555
944.555
944.555
944.555
944.555
944.555
944.555
944.555
944.555
944.555
944.555
944.555
944.555
944.555
944.555
944.555
944.555
944.555
944.555
944.555
944.555
944.555
944.555
944.555
944.555
944.555
944.555
944.555
944.555
944.555
944.555
944.555
944.555
944.555
944.555
944.555
944.555
944.555
944.555
944.555
944.555
944.555
944.555
944.555
944.555
944.555
944.555
944.555
944.555
944.555
944.555
944.555
944.555
944.555
944.555
944.555
944.555
944.555
944.555
944.555
944.555
944.555
944.555
944.555
944.555
944.555
944.555
944.555
944.555
944.555
944.555
944.555
944.555
944.555
944.555
944.555
944.555
944.555
944.555
944.555
944.555
944.555
944.555
944.555
944.555
944.555
944.555
944.555
944.555
944.555
944.555
944.555
944.555
944.555
944.555
944.555
944.555
944.555
944.555
944.555
944.555
944.555
944.555
944.555
944.555
944.555
944.555
944.555
944.555
944.555
944.555
944.555
944.555
944.555
944.555
944.555
944.555
944.555
944.555
944.555
944.555
944.555
944.555
944.555
944.555
944.555
944.555
944.555
944.555
944.555
944.555
944.555
944.555
944.555
944.555
944.555
944.555
944.555
944.555
944.555
944.555
944.555
944.555
944.555
944.555
944.555
944.555
944.555
944.555
944.555
944.555
944.555
944.555
944.555
944.555
944.555
944.555
944.555
944.555
944.555
944.555
944.555
944.555
944.555
944.555
944.555
944.555
944.555
944.555
944.555
944.555
944.555
944.555
944.555
944.555
944.555
944.555
944.555
944.555
944.555
944.555
944.555
944.555
944.555
944.555
944.555
944.555
944.555
944.555
944.555
944.555
944.555
944.555
944.555
944.555
944.555
944.555
944.555
944.555
944.555
944.555
944.555
944.555
944.555
944.555
944.555
944.555
944.555
944.555
944.555
944.555
944.555
944.555
944.555
944.555
944.555
944.555
944.555
944.555
944.555
944.555
944.555
944.555
944.555
944.555
944.555
944.555
944.555
944.555
944.555
944.555
944.555
944.555
944.555
944.555
944.555
944.555
944.555
944.555
944.555
944.555
944.555
944.555
944.555
944.555
944.555
944.555
944.555
944.555
944.555
944.555
944.555
944.555
944.555
944.555
944.555
944.555
944.555
944.555
944.555
944.555
944.555
944.555
944.555
944.555
944.555
944.555
944.555
944.555