/*--------------------------------*- C++ -*----------------------------------*\
| =========                 |                                                 |
| \\      /  F ield         | OpenFOAM: The Open Source CFD Toolbox           |
|  \\    /   O peration     | Version:  2.1.0                                 |
|   \\  /    A nd           | Web:      www.OpenFOAM.org                      |
|    \\/     M anipulation  |                                                 |
\*---------------------------------------------------------------------------*/
FoamFile
{
    version     2.0;
    format      ascii;
    class       volScalarField;
    location    "0.5";
    object      T;
}
// * * * * * * * * * * * * * * * * * * * * * * * * * * * * * * * * * * * * * //

dimensions      [0 0 0 1 0 0 0];

internalField   nonuniform List<scalar> 
6400
(
390.712
390.788
390.863
390.938
391.011
391.083
391.154
391.222
391.289
391.355
391.419
391.481
391.542
391.6
391.658
391.713
391.767
391.82
391.87
391.919
391.967
392.013
392.057
392.1
392.141
392.18
392.218
392.254
392.289
392.322
392.354
392.385
392.414
392.441
392.467
392.492
392.515
392.538
392.558
392.578
392.597
392.614
392.63
392.645
392.659
392.672
392.684
392.695
392.705
392.714
392.723
392.73
392.737
392.743
392.748
392.752
392.756
392.759
392.762
392.764
392.766
392.767
392.767
392.767
392.767
392.766
392.765
392.763
392.761
392.758
392.755
392.751
392.747
392.742
392.736
392.73
392.723
392.716
392.707
392.698
392.687
392.675
392.66
392.644
392.624
392.6
392.57
392.53
392.477
392.399
392.277
392.068
391.668
390.868
389.853
392.073
393.119
393.15
393.15
393.15
389.863
389.957
390.054
390.151
390.247
390.341
390.434
390.526
390.616
390.704
390.791
390.876
390.959
391.04
391.12
391.198
391.274
391.348
391.42
391.491
391.56
391.627
391.692
391.755
391.817
391.876
391.934
391.989
392.043
392.094
392.144
392.192
392.238
392.282
392.324
392.364
392.403
392.439
392.474
392.507
392.539
392.568
392.596
392.623
392.647
392.671
392.693
392.713
392.732
392.75
392.766
392.781
392.795
392.808
392.82
392.831
392.84
392.849
392.858
392.865
392.871
392.877
392.883
392.887
392.892
392.895
392.899
392.902
392.904
392.907
392.909
392.911
392.912
392.914
392.915
392.916
392.917
392.918
392.918
392.919
392.919
392.919
392.919
392.918
392.917
392.917
392.915
392.914
392.912
392.912
392.912
392.917
392.931
392.963
393.024
393.106
393.147
393.15
393.15
393.15
388.83
388.941
389.059
389.177
389.295
389.412
389.528
389.643
389.756
389.867
389.977
390.085
390.191
390.296
390.399
390.5
390.599
390.697
390.792
390.886
390.978
391.067
391.155
391.241
391.325
391.407
391.487
391.564
391.64
391.713
391.784
391.852
391.919
391.983
392.044
392.104
392.161
392.216
392.268
392.319
392.367
392.413
392.456
392.498
392.537
392.575
392.61
392.643
392.675
392.704
392.732
392.757
392.782
392.804
392.825
392.844
392.862
392.879
392.894
392.908
392.921
392.933
392.944
392.955
392.964
392.973
392.981
392.988
392.995
393.002
393.008
393.014
393.02
393.026
393.031
393.036
393.042
393.047
393.053
393.058
393.064
393.07
393.076
393.082
393.088
393.094
393.1
393.106
393.113
393.119
393.125
393.131
393.136
393.141
393.145
393.148
393.15
393.15
393.15
393.15
387.36
387.489
387.627
387.769
387.911
388.054
388.196
388.337
388.477
388.615
388.752
388.888
389.022
389.154
389.285
389.414
389.541
389.666
389.79
389.912
390.032
390.15
390.266
390.38
390.492
390.602
390.71
390.816
390.92
391.021
391.12
391.216
391.31
391.402
391.491
391.578
391.662
391.743
391.822
391.898
391.972
392.043
392.111
392.176
392.239
392.299
392.357
392.412
392.464
392.513
392.56
392.605
392.647
392.686
392.723
392.758
392.791
392.822
392.85
392.876
392.901
392.924
392.945
392.964
392.982
392.998
393.013
393.027
393.04
393.052
393.062
393.072
393.081
393.089
393.096
393.103
393.109
393.114
393.119
393.124
393.128
393.132
393.135
393.138
393.14
393.142
393.144
393.146
393.147
393.148
393.148
393.149
393.149
393.15
393.15
393.15
393.15
393.15
393.15
393.15
385.217
385.364
385.523
385.687
385.853
386.021
386.188
386.356
386.522
386.688
386.853
387.017
387.18
387.342
387.502
387.661
387.819
387.976
388.131
388.285
388.437
388.588
388.737
388.884
389.029
389.173
389.314
389.454
389.592
389.728
389.862
389.994
390.124
390.252
390.378
390.501
390.623
390.741
390.857
390.971
391.082
391.19
391.296
391.399
391.499
391.595
391.689
391.78
391.868
391.952
392.034
392.112
392.186
392.258
392.326
392.391
392.453
392.512
392.567
392.619
392.668
392.713
392.756
392.796
392.833
392.867
392.898
392.927
392.953
392.977
392.999
393.019
393.036
393.052
393.066
393.079
393.09
393.099
393.108
393.115
393.122
393.127
393.132
393.136
393.139
393.142
393.144
393.146
393.147
393.148
393.149
393.149
393.15
393.15
393.15
393.15
393.15
393.15
393.15
393.15
381.98
382.143
382.317
382.498
382.682
382.868
383.055
383.242
383.429
383.616
383.803
383.989
384.175
384.361
384.546
384.731
384.915
385.099
385.282
385.465
385.647
385.829
386.01
386.19
386.369
386.547
386.725
386.901
387.077
387.251
387.424
387.597
387.768
387.938
388.107
388.274
388.44
388.605
388.768
388.93
389.09
389.248
389.405
389.559
389.711
389.862
390.009
390.155
390.298
390.438
390.576
390.71
390.842
390.97
391.095
391.217
391.335
391.45
391.56
391.667
391.77
391.869
391.963
392.054
392.14
392.222
392.3
392.374
392.443
392.508
392.57
392.627
392.68
392.73
392.776
392.818
392.857
392.893
392.926
392.957
392.984
393.009
393.031
393.051
393.069
393.085
393.099
393.111
393.121
393.13
393.137
393.142
393.146
393.148
393.149
393.149
393.149
393.15
393.15
393.15
377.037
377.205
377.383
377.569
377.756
377.947
378.138
378.33
378.522
378.714
378.907
379.099
379.291
379.484
379.677
379.87
380.064
380.258
380.453
380.649
380.845
381.043
381.241
381.441
381.64
381.84
382.039
382.239
382.439
382.639
382.839
383.039
383.239
383.44
383.64
383.841
384.042
384.243
384.445
384.647
384.849
385.051
385.254
385.457
385.661
385.865
386.069
386.273
386.477
386.682
386.887
387.091
387.296
387.5
387.703
387.907
388.109
388.311
388.511
388.71
388.908
389.103
389.296
389.487
389.675
389.859
390.041
390.218
390.392
390.562
390.727
390.888
391.044
391.195
391.341
391.482
391.618
391.749
391.875
391.996
392.111
392.221
392.326
392.426
392.521
392.61
392.695
392.774
392.847
392.914
392.973
393.023
393.063
393.093
393.112
393.123
393.131
393.137
393.141
393.143
369.857
370.015
370.178
370.348
370.517
370.69
370.861
371.033
371.204
371.376
371.546
371.717
371.886
372.056
372.225
372.394
372.563
372.732
372.901
373.071
373.24
373.411
373.581
373.753
373.925
374.097
374.27
374.444
374.618
374.794
374.97
375.148
375.327
375.507
375.689
375.873
376.058
376.246
376.437
376.629
376.824
377.023
377.224
377.428
377.635
377.847
378.061
378.28
378.502
378.729
378.96
379.195
379.434
379.678
379.927
380.181
380.439
380.703
380.971
381.243
381.521
381.803
382.089
382.38
382.675
382.974
383.277
383.584
383.894
384.207
384.524
384.842
385.164
385.487
385.812
386.139
386.467
386.797
387.128
387.46
387.795
388.132
388.471
388.814
389.16
389.509
389.861
390.214
390.568
390.919
391.261
391.589
391.892
392.162
392.385
392.548
392.682
392.789
392.87
392.922
359.797
359.909
360.023
360.139
360.254
360.37
360.483
360.596
360.707
360.817
360.925
361.032
361.137
361.241
361.342
361.444
361.542
361.641
361.737
361.832
361.926
362.019
362.11
362.201
362.292
362.384
362.477
362.572
362.668
362.766
362.865
362.968
363.072
363.179
363.288
363.401
363.517
363.636
363.758
363.884
364.014
364.147
364.284
364.426
364.571
364.721
364.876
365.035
365.199
365.368
365.542
365.721
365.906
366.096
366.293
366.496
366.705
366.921
367.144
367.374
367.611
367.856
368.108
368.369
368.638
368.916
369.203
369.499
369.806
370.123
370.451
370.79
371.141
371.504
371.881
372.273
372.681
373.108
373.553
374.019
374.505
375.014
375.55
376.119
376.722
377.366
378.055
378.794
379.588
380.44
381.351
382.315
383.327
384.372
385.43
386.452
387.35
388.173
388.879
389.405
346.557
346.588
346.619
346.649
346.678
346.706
346.733
346.76
346.785
346.811
346.834
346.858
346.881
346.903
346.925
346.947
346.968
346.99
347.011
347.032
347.054
347.076
347.099
347.123
347.147
347.173
347.199
347.227
347.255
347.285
347.315
347.347
347.381
347.415
347.45
347.487
347.525
347.564
347.604
347.645
347.688
347.731
347.775
347.82
347.867
347.914
347.962
348.011
348.061
348.112
348.164
348.217
348.27
348.325
348.381
348.439
348.497
348.558
348.619
348.683
348.748
348.815
348.884
348.956
349.03
349.107
349.187
349.271
349.359
349.451
349.548
349.651
349.759
349.875
349.999
350.131
350.271
350.421
350.583
350.758
350.951
351.164
351.396
351.651
351.93
352.237
352.573
352.943
353.369
353.868
354.452
355.134
355.931
356.864
357.961
359.256
360.751
362.311
363.818
365.057
332.513
332.459
332.407
332.356
332.306
332.258
332.211
332.165
332.122
332.078
332.037
331.996
331.958
331.919
331.882
331.845
331.81
331.774
331.74
331.705
331.671
331.636
331.602
331.566
331.531
331.495
331.459
331.421
331.383
331.343
331.303
331.261
331.218
331.173
331.127
331.079
331.029
330.977
330.924
330.869
330.811
330.752
330.691
330.627
330.562
330.494
330.423
330.35
330.275
330.197
330.116
330.032
329.945
329.855
329.761
329.664
329.562
329.457
329.346
329.229
329.107
328.979
328.843
328.7
328.549
328.389
328.22
328.04
327.849
327.646
327.43
327.199
326.953
326.69
326.409
326.109
325.788
325.444
325.077
324.684
324.265
323.819
323.344
322.839
322.304
321.74
321.144
320.518
319.844
319.107
318.298
317.409
316.45
315.415
314.299
313.1
311.826
310.504
309.205
308.062
321.166
321.048
320.929
320.808
320.687
320.566
320.447
320.326
320.208
320.09
319.973
319.857
319.742
319.627
319.513
319.4
319.287
319.174
319.063
318.95
318.839
318.726
318.614
318.501
318.389
318.275
318.16
318.045
317.928
317.81
317.691
317.57
317.448
317.323
317.197
317.068
316.938
316.804
316.668
316.529
316.387
316.242
316.093
315.941
315.785
315.625
315.461
315.292
315.119
314.942
314.759
314.571
314.378
314.18
313.976
313.766
313.55
313.327
313.097
312.859
312.613
312.358
312.094
311.82
311.535
311.239
310.932
310.611
310.278
309.931
309.568
309.191
308.797
308.387
307.959
307.514
307.051
306.569
306.069
305.55
305.015
304.463
303.895
303.315
302.722
302.121
301.514
300.905
300.297
299.697
299.109
298.536
297.962
297.398
296.853
296.335
295.853
295.42
295.055
294.784
312.708
312.56
312.407
312.249
312.09
311.929
311.768
311.606
311.445
311.283
311.121
310.959
310.798
310.636
310.475
310.313
310.152
309.99
309.828
309.666
309.504
309.341
309.177
309.013
308.848
308.683
308.517
308.35
308.182
308.012
307.842
307.67
307.497
307.322
307.146
306.968
306.789
306.607
306.424
306.238
306.05
305.86
305.667
305.472
305.274
305.074
304.871
304.665
304.456
304.244
304.029
303.81
303.589
303.364
303.135
302.903
302.668
302.429
302.185
301.939
301.688
301.434
301.175
300.913
300.647
300.378
300.105
299.828
299.548
299.265
298.979
298.691
298.401
298.109
297.816
297.523
297.23
296.939
296.65
296.365
296.084
295.81
295.543
295.285
295.038
294.803
294.581
294.375
294.186
294.014
293.863
293.733
293.625
293.531
293.451
293.384
293.328
293.285
293.253
293.232
306.578
306.429
306.27
306.105
305.939
305.769
305.599
305.429
305.258
305.086
304.915
304.744
304.573
304.402
304.231
304.06
303.888
303.717
303.545
303.374
303.202
303.029
302.857
302.684
302.51
302.337
302.163
301.988
301.814
301.638
301.463
301.287
301.11
300.934
300.756
300.579
300.401
300.223
300.045
299.866
299.687
299.509
299.33
299.152
298.973
298.795
298.617
298.44
298.263
298.087
297.911
297.736
297.562
297.389
297.216
297.045
296.876
296.707
296.541
296.376
296.213
296.052
295.894
295.738
295.585
295.435
295.288
295.145
295.004
294.868
294.736
294.608
294.484
294.364
294.25
294.14
294.035
293.936
293.843
293.755
293.673
293.598
293.528
293.465
293.409
293.359
293.316
293.279
293.247
293.222
293.202
293.187
293.176
293.169
293.164
293.159
293.156
293.154
293.153
293.152
302.428
302.289
302.138
301.982
301.824
301.664
301.503
301.342
301.18
301.019
300.859
300.698
300.538
300.379
300.219
300.061
299.902
299.745
299.587
299.43
299.274
299.118
298.963
298.809
298.655
298.502
298.349
298.198
298.047
297.897
297.748
297.6
297.453
297.307
297.163
297.019
296.878
296.737
296.598
296.461
296.326
296.193
296.061
295.932
295.805
295.68
295.558
295.438
295.32
295.206
295.094
294.985
294.878
294.775
294.675
294.579
294.485
294.395
294.308
294.225
294.145
294.068
293.995
293.925
293.859
293.796
293.736
293.68
293.628
293.578
293.532
293.489
293.449
293.412
293.378
293.347
293.319
293.293
293.27
293.25
293.232
293.216
293.202
293.191
293.181
293.173
293.167
293.162
293.158
293.155
293.153
293.152
293.151
293.151
293.15
293.15
293.15
293.15
293.15
293.15
299.691
299.567
299.433
299.294
299.153
299.011
298.868
298.726
298.584
298.444
298.303
298.164
298.026
297.888
297.752
297.617
297.483
297.35
297.218
297.087
296.958
296.83
296.704
296.579
296.455
296.333
296.213
296.095
295.978
295.864
295.751
295.639
295.53
295.423
295.318
295.215
295.114
295.016
294.92
294.826
294.735
294.647
294.561
294.477
294.397
294.319
294.244
294.171
294.102
294.035
293.971
293.91
293.852
293.796
293.744
293.694
293.647
293.603
293.562
293.523
293.486
293.453
293.421
293.392
293.365
293.34
293.318
293.297
293.278
293.261
293.246
293.232
293.22
293.209
293.199
293.191
293.183
293.177
293.172
293.167
293.163
293.16
293.157
293.155
293.154
293.153
293.152
293.151
293.151
293.15
293.15
293.15
293.15
293.15
293.15
293.15
293.15
293.15
293.15
293.15
297.836
297.729
297.613
297.495
297.375
297.255
297.136
297.018
296.9
296.784
296.669
296.555
296.442
296.331
296.221
296.113
296.006
295.9
295.796
295.694
295.593
295.494
295.397
295.301
295.208
295.116
295.026
294.938
294.851
294.767
294.685
294.605
294.528
294.452
294.379
294.308
294.239
294.173
294.109
294.047
293.988
293.931
293.877
293.825
293.775
293.728
293.683
293.64
293.599
293.561
293.525
293.492
293.46
293.431
293.403
293.378
293.354
293.332
293.312
293.294
293.277
293.262
293.248
293.235
293.224
293.214
293.205
293.197
293.189
293.183
293.178
293.173
293.169
293.165
293.162
293.16
293.158
293.156
293.155
293.153
293.153
293.152
293.151
293.151
293.151
293.15
293.15
293.15
293.15
293.15
293.15
293.15
293.15
293.15
293.15
293.15
293.15
293.15
293.15
293.15
296.52
296.429
296.333
296.236
296.139
296.042
295.947
295.852
295.758
295.666
295.575
295.486
295.398
295.311
295.226
295.143
295.061
294.98
294.901
294.824
294.748
294.674
294.602
294.532
294.463
294.396
294.331
294.267
294.205
294.145
294.088
294.032
293.978
293.926
293.876
293.828
293.783
293.739
293.697
293.657
293.619
293.583
293.548
293.516
293.485
293.457
293.43
293.404
293.381
293.358
293.338
293.319
293.301
293.285
293.27
293.256
293.244
293.233
293.222
293.213
293.205
293.197
293.191
293.185
293.179
293.175
293.171
293.167
293.164
293.162
293.16
293.158
293.156
293.155
293.154
293.153
293.152
293.152
293.151
293.151
293.151
293.15
293.15
293.15
293.15
293.15
293.15
293.15
293.15
293.15
293.15
293.15
293.15
293.15
293.15
293.15
293.15
293.15
293.15
293.15
295.554
295.48
295.403
295.326
295.249
295.173
295.098
295.025
294.953
294.882
294.812
294.744
294.677
294.612
294.547
294.485
294.424
294.364
294.306
294.249
294.194
294.14
294.088
294.038
293.989
293.941
293.895
293.851
293.808
293.767
293.728
293.69
293.654
293.62
293.587
293.555
293.525
293.497
293.47
293.445
293.421
293.398
293.377
293.357
293.338
293.32
293.304
293.289
293.275
293.262
293.25
293.239
293.229
293.22
293.212
293.204
293.197
293.191
293.185
293.181
293.176
293.172
293.169
293.166
293.163
293.161
293.159
293.158
293.156
293.155
293.154
293.153
293.152
293.152
293.151
293.151
293.151
293.151
293.15
293.15
293.15
293.15
293.15
293.15
293.15
293.15
293.15
293.15
293.15
293.15
293.15
293.15
293.15
293.15
293.15
293.15
293.15
293.15
293.15
293.15
294.695
294.639
294.583
294.527
294.472
294.418
294.366
294.314
294.263
294.214
294.166
294.119
294.073
294.029
293.986
293.944
293.903
293.864
293.826
293.789
293.753
293.719
293.685
293.654
293.623
293.593
293.565
293.538
293.512
293.488
293.464
293.442
293.42
293.4
293.381
293.363
293.346
293.33
293.315
293.301
293.288
293.275
293.264
293.253
293.243
293.234
293.225
293.217
293.21
293.204
293.198
293.192
293.187
293.183
293.178
293.175
293.171
293.169
293.166
293.164
293.162
293.16
293.158
293.157
293.156
293.155
293.154
293.153
293.153
293.152
293.152
293.151
293.151
293.151
293.151
293.15
293.15
293.15
293.15
293.15
293.15
293.15
293.15
293.15
293.15
293.15
293.15
293.15
293.15
293.15
293.15
293.15
293.15
293.15
293.15
293.15
293.15
293.15
293.15
293.15
393.15
393.15
393.15
393.15
393.15
393.15
393.15
393.15
393.15
393.15
393.15
393.15
393.15
393.15
393.15
393.15
393.15
393.15
393.15
393.15
393.15
393.15
393.15
393.15
393.15
393.15
393.15
393.15
393.15
393.15
393.15
393.15
393.15
393.15
393.15
393.15
393.15
393.15
393.15
393.15
393.15
393.15
393.15
393.15
393.15
393.15
393.15
393.15
393.15
393.15
393.15
393.15
393.15
393.15
393.15
393.15
393.15
393.15
393.15
393.15
393.15
393.15
393.15
393.15
393.15
393.15
393.15
393.15
393.15
393.15
393.15
393.15
393.15
393.15
393.15
393.15
393.15
393.15
393.149
393.148
393.15
393.15
393.15
393.15
393.15
393.15
393.15
393.15
393.15
393.15
393.15
393.15
393.15
393.15
393.149
393.149
393.148
393.146
393.141
393.119
393.15
393.15
393.15
393.15
393.15
393.149
393.149
393.149
393.149
393.149
393.148
393.148
393.147
393.146
393.144
393.139
393.129
393.105
393.032
392.685
393.143
393.142
393.14
393.138
393.135
393.132
393.129
393.127
393.126
393.126
393.125
393.123
393.12
393.112
393.097
393.064
392.988
392.786
392.088
388.147
392.924
392.899
392.872
392.842
392.813
392.791
392.779
392.783
392.798
392.816
392.833
392.845
392.849
392.832
392.772
392.621
392.259
391.286
387.796
365.522
389.532
389.378
389.235
389.101
389.005
389.013
389.091
389.243
389.401
389.582
389.773
389.986
390.194
390.382
390.383
390.052
389.015
386.505
379.808
331.372
365.5
365.192
364.904
364.661
364.527
364.645
364.858
365.095
365.401
365.836
366.369
367.107
367.961
369.137
370.148
370.711
369.646
366.188
357.763
330.127
307.547
307.721
307.852
307.943
307.934
307.664
307.311
306.95
306.571
306.129
305.653
305.067
304.431
303.621
303.127
303.143
304.229
306.2
308.982
313.542
294.708
294.778
294.84
294.897
294.935
294.92
294.87
294.777
294.684
294.581
294.479
294.361
294.251
294.128
294.057
294.057
294.19
294.491
295.272
304.032
293.23
293.239
293.249
293.261
293.272
293.28
293.285
293.282
293.275
293.264
293.254
293.243
293.234
293.227
293.225
293.233
293.262
293.35
293.761
297.754
293.152
293.152
293.153
293.154
293.154
293.155
293.156
293.157
293.157
293.157
293.156
293.156
293.155
293.155
293.156
293.158
293.164
293.183
293.269
294.017
293.15
293.15
293.15
293.15
293.15
293.15
293.15
293.15
293.15
293.15
293.15
293.15
293.15
293.15
293.15
293.151
293.151
293.152
293.155
293.167
293.15
293.15
293.15
293.15
293.15
293.15
293.15
293.15
293.15
293.15
293.15
293.15
293.15
293.15
293.15
293.15
293.15
293.15
293.15
293.15
293.15
293.15
293.15
293.15
293.15
293.15
293.15
293.15
293.15
293.15
293.15
293.15
293.15
293.15
293.15
293.15
293.15
293.15
293.15
293.15
293.15
293.15
293.15
293.15
293.15
293.15
293.15
293.15
293.15
293.15
293.15
293.15
293.15
293.15
293.15
293.15
293.15
293.15
293.15
293.15
293.15
293.15
293.15
293.15
293.15
293.15
293.15
293.15
293.15
293.15
293.15
293.15
293.15
293.15
293.15
293.15
293.15
293.15
293.15
293.15
293.15
293.15
293.15
293.15
293.15
293.15
293.15
293.15
293.15
293.15
293.15
293.15
293.15
293.15
293.15
293.15
293.15
293.15
293.15
293.15
393.15
393.15
393.15
393.15
393.15
393.15
393.15
393.15
393.15
393.15
393.15
393.15
393.15
393.15
393.15
393.15
393.15
393.15
393.15
393.15
393.15
393.15
393.15
393.15
393.15
393.15
393.15
393.15
393.15
393.15
393.15
393.15
393.15
393.15
393.15
393.15
393.15
393.15
393.15
393.15
393.15
393.15
393.15
393.15
393.15
393.15
393.15
393.15
393.15
393.15
393.15
393.15
393.15
393.15
393.15
393.15
393.15
393.15
393.15
393.15
393.15
393.15
393.15
393.15
393.15
393.15
393.15
393.15
393.15
393.15
393.15
393.15
393.15
393.15
393.15
393.15
393.15
393.15
393.15
393.15
393.15
393.15
393.15
393.15
393.15
393.15
393.15
393.15
393.15
393.15
393.15
393.15
393.15
393.15
393.15
393.15
393.15
393.15
393.15
393.15
393.15
393.15
393.15
393.15
393.15
393.15
393.15
393.15
393.15
393.15
393.15
393.15
393.15
393.15
393.15
393.15
393.15
393.15
393.15
393.15
393.15
393.15
393.15
393.15
393.15
393.15
393.15
393.15
393.15
393.15
393.15
393.15
393.15
393.15
393.15
393.15
393.15
393.15
393.15
393.15
393.15
393.15
393.15
393.15
393.15
393.15
393.15
393.15
393.15
393.15
393.15
393.15
393.15
393.15
393.15
393.15
393.15
393.15
393.15
393.15
393.15
393.15
393.15
393.15
393.15
393.15
393.15
393.15
393.15
393.15
393.15
393.15
393.15
393.15
393.15
393.15
393.15
393.15
393.15
393.15
393.15
393.15
393.15
393.15
393.15
393.15
393.15
393.15
393.15
393.15
393.15
393.15
393.15
393.15
393.15
393.15
393.15
393.15
393.15
393.15
393.15
393.15
393.15
393.15
393.15
393.15
393.15
393.15
393.15
393.15
393.15
393.15
393.15
393.15
393.15
393.15
393.15
393.15
393.15
393.15
393.15
393.15
393.15
393.15
393.15
393.15
393.15
393.15
393.15
393.15
393.15
393.15
393.15
393.15
393.15
393.15
393.15
393.15
393.15
393.15
393.15
393.15
393.15
393.15
393.15
393.15
393.15
393.15
393.15
393.15
393.15
393.15
393.15
393.15
393.15
393.15
393.15
393.15
393.15
393.15
393.15
393.15
393.15
393.15
393.15
393.15
393.15
393.15
393.15
393.15
393.15
393.15
393.15
393.15
393.15
393.15
393.15
393.15
393.15
393.15
393.15
393.15
393.15
393.15
393.15
393.15
393.15
393.15
393.15
393.15
393.15
393.15
393.15
393.15
393.15
393.15
393.15
393.15
393.15
393.15
393.15
393.15
393.15
393.15
393.15
393.15
393.15
393.15
393.15
393.15
393.15
393.15
393.15
393.15
393.15
393.15
393.15
393.15
393.15
393.15
393.15
393.15
393.15
393.15
393.15
393.15
393.15
393.15
393.15
393.15
393.15
393.15
393.15
393.15
393.15
393.15
393.15
393.15
393.15
393.15
393.15
393.15
393.15
393.15
393.15
393.15
393.15
393.15
393.15
393.15
393.15
393.15
393.15
393.15
393.15
393.15
393.15
393.15
393.15
393.15
393.15
393.15
393.15
393.15
393.15
393.15
393.15
393.15
393.15
393.15
393.15
393.15
393.15
393.15
393.15
393.15
393.15
393.15
393.15
393.15
393.15
393.15
393.15
393.15
393.15
393.15
393.15
393.15
393.15
393.15
393.15
393.15
393.15
393.15
393.15
393.15
393.15
393.15
393.15
393.15
393.15
393.15
393.15
393.15
393.15
393.15
393.15
393.15
393.15
393.15
393.15
393.15
393.15
393.15
393.15
393.15
393.15
393.15
393.15
393.15
393.15
393.15
393.15
393.15
393.15
393.15
393.15
393.15
393.15
393.15
393.15
393.15
393.15
393.15
393.15
393.15
393.15
393.15
393.15
393.15
393.15
393.15
393.15
393.15
393.15
393.15
393.15
393.15
393.15
393.15
393.15
393.15
393.15
393.15
393.15
393.15
393.15
393.15
393.15
393.15
393.15
393.15
393.15
393.15
393.15
393.15
393.15
393.15
393.15
393.15
393.15
393.15
393.15
393.15
393.15
393.15
393.15
393.15
393.15
393.15
393.15
393.15
393.15
393.15
393.15
393.15
393.15
393.15
393.15
393.15
393.15
393.15
393.15
393.15
393.15
393.15
393.15
393.15
393.15
393.15
393.15
393.15
393.15
393.15
393.15
393.15
393.15
393.15
393.15
393.15
393.15
393.15
393.15
393.15
393.15
393.15
393.15
393.15
393.15
393.15
393.15
393.15
393.15
393.15
393.15
393.15
393.15
393.15
393.15
393.15
393.15
393.15
393.15
393.15
393.15
393.15
393.15
393.15
393.15
393.15
393.15
393.15
393.15
393.15
393.15
393.15
393.15
393.15
393.15
393.15
393.15
393.15
393.15
393.15
393.15
393.15
393.15
393.15
393.15
393.15
393.15
393.15
393.15
393.15
393.15
393.15
393.15
393.15
393.15
393.15
393.15
393.15
393.15
393.15
393.15
393.15
393.15
393.15
393.15
393.15
393.15
393.15
393.15
393.15
393.15
393.15
393.15
393.15
393.15
393.15
393.15
393.15
393.15
393.15
393.15
393.15
393.15
393.15
393.15
393.15
393.15
393.15
393.15
393.15
393.15
393.15
393.15
393.15
393.15
393.15
393.15
393.15
393.15
393.15
393.15
393.15
393.15
393.15
393.15
393.15
393.15
393.15
393.15
393.15
393.15
393.15
393.15
393.15
393.15
393.15
393.15
393.15
393.15
393.15
393.15
393.15
393.15
393.15
393.15
393.15
393.15
393.15
393.15
393.15
393.15
393.15
393.15
393.15
393.15
393.15
393.15
393.15
393.15
393.15
393.15
393.15
393.15
393.15
393.15
393.15
393.15
393.15
393.15
393.15
393.15
393.15
393.15
393.15
393.15
393.15
393.15
393.15
393.15
393.15
393.15
393.15
393.15
393.15
393.15
393.15
393.15
393.15
393.15
393.15
393.15
393.15
393.15
393.15
393.15
393.15
393.15
393.15
393.15
393.15
393.15
393.15
393.15
393.15
393.15
393.15
393.15
393.15
393.15
393.15
393.15
393.15
393.15
393.15
393.15
393.15
393.15
393.15
393.15
393.15
393.15
393.15
393.15
393.15
393.15
393.15
393.15
393.15
393.15
393.15
393.15
393.15
393.15
393.15
393.15
393.15
393.15
393.15
393.15
393.15
393.15
393.15
393.15
393.15
393.15
393.15
393.15
393.15
393.15
393.15
393.15
393.15
393.15
393.15
393.15
393.15
393.15
393.15
393.15
393.15
393.15
393.15
393.15
393.15
393.15
393.15
393.15
393.15
393.15
393.15
393.15
393.15
393.15
393.15
393.15
393.15
393.15
393.15
393.15
393.15
393.15
393.15
393.15
393.15
393.15
393.15
393.15
393.15
393.15
393.15
393.15
393.15
393.15
393.15
393.15
393.15
393.15
393.15
393.15
393.15
393.15
393.15
393.15
393.15
393.15
393.15
393.15
393.15
393.15
393.15
393.15
393.15
393.15
393.15
393.15
393.15
393.15
393.15
393.15
393.15
393.15
393.15
393.15
393.15
393.15
393.15
393.15
393.15
393.15
393.15
393.15
393.15
393.15
393.15
393.15
393.15
393.15
393.15
393.15
393.15
393.15
393.15
393.15
393.15
393.15
393.15
393.15
393.15
393.15
393.15
393.15
393.15
393.15
393.15
393.15
393.15
393.15
393.15
393.15
393.15
393.15
393.15
393.15
393.15
393.15
393.15
393.15
393.15
393.15
393.15
393.15
393.15
393.15
393.15
393.15
393.15
393.15
393.15
393.15
393.15
393.15
393.15
393.15
393.15
393.15
393.15
393.15
393.15
393.15
393.15
393.15
393.15
393.15
393.15
393.15
393.15
393.15
393.15
393.15
393.15
393.15
393.15
393.15
393.15
393.15
393.15
393.15
393.15
393.15
393.15
393.15
393.15
393.15
393.15
393.15
393.15
393.15
393.15
393.15
393.15
393.15
393.15
393.15
393.15
393.15
393.15
393.15
393.15
393.15
393.15
393.15
393.15
393.15
393.15
393.15
393.15
393.15
393.15
393.15
393.15
393.15
393.15
393.15
393.15
393.15
393.15
393.15
393.15
393.15
393.15
393.15
393.15
393.15
393.15
393.15
393.15
393.15
393.15
393.15
393.15
393.15
393.15
393.15
393.15
393.15
393.15
393.15
393.15
393.15
393.15
393.15
393.15
393.15
393.15
393.15
393.15
393.15
393.15
393.15
393.15
393.15
393.15
393.15
393.15
393.15
393.15
393.15
393.15
393.15
393.15
393.15
393.15
393.15
393.15
393.15
393.15
393.15
393.15
393.15
393.15
393.15
393.15
393.15
393.15
393.15
393.15
393.15
393.15
393.15
393.15
393.15
393.15
393.15
393.15
393.15
393.15
393.15
393.15
393.15
393.15
393.15
393.15
393.15
393.15
393.15
393.15
393.15
393.15
393.15
393.15
393.15
393.15
393.15
393.15
393.15
393.15
393.15
393.15
393.15
393.15
393.15
393.15
393.15
393.15
393.15
393.15
393.15
393.15
393.15
393.15
393.15
393.15
393.15
393.15
393.15
393.15
393.15
393.15
393.15
393.15
393.15
393.15
393.15
393.15
393.15
393.15
393.15
393.15
393.15
393.15
393.15
393.15
393.15
393.15
393.15
393.15
393.15
393.15
393.15
393.15
393.15
393.15
393.15
393.15
393.15
393.15
393.15
393.15
393.15
393.15
393.15
393.15
393.15
393.15
393.15
393.15
393.15
393.15
393.15
393.15
393.15
393.15
393.15
393.15
393.15
393.15
393.15
393.15
393.15
393.15
393.15
393.15
393.15
393.15
393.15
393.15
393.15
393.15
393.15
393.15
393.15
393.15
393.15
393.15
393.15
393.15
393.15
393.15
393.15
393.15
393.15
393.15
393.15
393.15
393.15
393.15
393.15
393.15
393.15
393.15
393.15
393.15
393.15
393.15
393.15
393.15
393.15
393.15
393.15
393.15
393.15
393.15
393.15
393.15
393.15
393.15
393.15
393.15
393.15
393.15
393.15
393.15
393.15
393.15
393.15
393.15
393.15
393.15
393.15
393.15
393.15
393.15
393.15
393.15
393.15
393.15
393.15
393.15
393.15
393.15
393.15
393.15
393.15
393.15
393.15
393.15
393.15
393.15
393.15
393.15
393.15
393.15
393.15
393.15
393.15
393.15
393.15
393.15
393.15
393.15
393.15
393.15
393.15
393.15
393.15
393.15
393.15
393.15
393.15
393.15
393.15
393.15
393.15
393.15
393.15
393.15
393.15
393.15
393.15
393.15
393.15
393.15
393.15
393.15
393.15
393.15
393.15
393.15
393.15
393.15
393.15
393.15
393.15
393.15
393.15
393.15
393.15
393.15
393.15
393.15
393.15
393.15
393.15
393.15
393.15
393.15
393.15
393.15
393.15
393.15
393.15
393.15
393.15
393.15
393.15
393.15
393.15
393.15
393.15
393.15
393.15
393.15
393.15
393.15
393.15
393.15
393.15
393.15
393.15
393.15
393.15
393.15
393.15
393.15
393.15
393.15
393.15
393.15
393.15
393.15
393.15
393.15
393.15
393.15
393.15
393.15
393.15
393.15
393.15
393.15
393.15
393.15
393.15
393.15
393.15
393.15
393.15
393.15
393.15
393.15
393.15
393.15
393.15
393.15
393.15
393.15
393.15
393.15
393.15
393.15
393.15
393.15
393.15
393.15
393.15
393.15
393.15
393.15
393.15
393.15
393.15
393.15
393.15
393.15
393.15
393.15
393.15
393.15
393.15
393.15
393.15
393.15
393.15
393.15
393.15
393.15
393.15
393.15
393.15
393.15
393.15
393.15
393.15
393.15
393.15
393.15
393.15
393.15
393.15
393.15
393.15
393.15
393.15
393.15
393.15
393.15
393.15
393.15
393.15
393.15
393.15
393.15
393.15
393.15
393.15
393.15
393.15
393.15
393.15
393.15
393.15
393.15
393.15
393.15
393.15
393.15
393.15
393.15
393.15
393.15
393.15
393.15
393.15
393.15
393.15
393.15
393.15
393.15
393.15
393.15
393.15
393.15
393.15
393.15
393.15
393.15
393.15
393.15
393.15
393.15
393.15
393.15
393.15
393.15
393.15
393.15
393.15
393.15
393.15
393.15
393.15
393.15
393.15
393.15
393.15
393.15
393.15
393.15
393.15
393.15
393.15
393.15
393.15
393.15
393.15
393.15
393.15
393.15
393.15
393.15
393.15
393.15
393.15
393.15
393.15
393.15
393.15
393.15
393.15
393.15
393.15
393.15
393.15
393.15
393.15
393.15
393.15
393.15
393.15
393.15
393.15
393.15
393.15
393.15
393.15
393.15
393.15
393.15
393.15
393.15
393.15
393.15
393.15
393.15
393.15
393.15
393.15
393.15
393.15
393.15
393.15
393.15
393.15
393.15
393.15
393.15
393.15
393.15
393.15
393.15
393.15
393.15
393.15
393.15
393.15
393.15
393.15
393.15
393.15
393.15
393.15
393.15
393.15
393.15
393.15
393.15
393.15
393.15
393.15
393.15
393.15
393.15
393.15