/*--------------------------------*- C++ -*----------------------------------*\
| =========                 |                                                 |
| \\      /  F ield         | OpenFOAM: The Open Source CFD Toolbox           |
|  \\    /   O peration     | Version:  2.1.0                                 |
|   \\  /    A nd           | Web:      www.OpenFOAM.org                      |
|    \\/     M anipulation  |                                                 |
\*---------------------------------------------------------------------------*/
FoamFile
{
    version     2.0;
    format      ascii;
    class       volVectorField;
    location    "0.5";
    object      U;
}
// * * * * * * * * * * * * * * * * * * * * * * * * * * * * * * * * * * * * * //

dimensions      [0 1 -1 0 0 0 0];

internalField   nonuniform List<vector> 
6400
(
(-1.30004 -4.18971e-05 0)
(-1.29887 -0.000496212 0)
(-1.29647 -0.000786135 0)
(-1.29313 -0.000933329 0)
(-1.28933 -0.00102007 0)
(-1.28523 -0.00107817 0)
(-1.28094 -0.00112 0)
(-1.2765 -0.0011529 0)
(-1.27193 -0.00118074 0)
(-1.26726 -0.00120592 0)
(-1.2625 -0.00122973 0)
(-1.25763 -0.00125298 0)
(-1.25268 -0.00127611 0)
(-1.24763 -0.00129934 0)
(-1.24249 -0.00132287 0)
(-1.23725 -0.00134671 0)
(-1.23192 -0.00137101 0)
(-1.22649 -0.00139568 0)
(-1.22096 -0.00142083 0)
(-1.21532 -0.00144633 0)
(-1.20959 -0.00147231 0)
(-1.20375 -0.00149856 0)
(-1.1978 -0.00152527 0)
(-1.19175 -0.0015525 0)
(-1.18559 -0.00157994 0)
(-1.17932 -0.00160784 0)
(-1.17293 -0.00163734 0)
(-1.16642 -0.00166814 0)
(-1.15979 -0.00169998 0)
(-1.15303 -0.00173275 0)
(-1.14614 -0.00176658 0)
(-1.13911 -0.00180148 0)
(-1.13194 -0.0018376 0)
(-1.12462 -0.00187495 0)
(-1.11715 -0.00191363 0)
(-1.10953 -0.00195365 0)
(-1.10174 -0.00199511 0)
(-1.09379 -0.00203808 0)
(-1.08566 -0.00208272 0)
(-1.07736 -0.00212916 0)
(-1.06886 -0.00217774 0)
(-1.06017 -0.00222844 0)
(-1.05127 -0.00228134 0)
(-1.04216 -0.00233657 0)
(-1.03282 -0.00239417 0)
(-1.02325 -0.0024542 0)
(-1.01344 -0.00251668 0)
(-1.00338 -0.00258156 0)
(-0.993053 -0.00264874 0)
(-0.982459 -0.00271835 0)
(-0.971585 -0.00279014 0)
(-0.960427 -0.00286194 0)
(-0.948978 -0.00293746 0)
(-0.937216 -0.00301958 0)
(-0.925122 -0.00310592 0)
(-0.912679 -0.00319523 0)
(-0.899891 -0.00328285 0)
(-0.886761 -0.00336669 0)
(-0.873305 -0.0034486 0)
(-0.859522 -0.00353125 0)
(-0.84541 -0.00361571 0)
(-0.83096 -0.00370212 0)
(-0.816163 -0.00379113 0)
(-0.801008 -0.00388354 0)
(-0.785481 -0.00397949 0)
(-0.769567 -0.00407956 0)
(-0.753249 -0.00418405 0)
(-0.736508 -0.00429377 0)
(-0.719322 -0.00440917 0)
(-0.70167 -0.00453067 0)
(-0.683525 -0.00465859 0)
(-0.664861 -0.0047936 0)
(-0.64565 -0.00493617 0)
(-0.62586 -0.00508714 0)
(-0.605457 -0.00524742 0)
(-0.5844 -0.00541821 0)
(-0.562647 -0.00560108 0)
(-0.540145 -0.005798 0)
(-0.516834 -0.00601179 0)
(-0.492639 -0.00624666 0)
(-0.467466 -0.00650783 0)
(-0.441201 -0.00680176 0)
(-0.413697 -0.00713677 0)
(-0.384774 -0.00752219 0)
(-0.354222 -0.00796532 0)
(-0.321807 -0.00846873 0)
(-0.287303 -0.00902782 0)
(-0.250532 -0.00962203 0)
(-0.21146 -0.0102 0)
(-0.17037 -0.0106502 0)
(-0.128215 -0.0107457 0)
(-0.0872649 -0.0100406 0)
(-0.0516678 -0.0080261 0)
(-0.0265353 -0.00472298 0)
(-0.0154575 -0.000893622 0)
(-0.0200911 0.00323514 0)
(-0.0488833 0.0113541 0)
(-0.129006 0.0292124 0)
(-0.328796 0.0711592 0)
(-0.948354 0.198978 0)
(-1.56667 -0.000316435 0)
(-1.56351 -0.00163691 0)
(-1.56134 -0.00239347 0)
(-1.55786 -0.00279514 0)
(-1.55403 -0.00303755 0)
(-1.54993 -0.00320055 0)
(-1.54569 -0.00331809 0)
(-1.54131 -0.00341042 0)
(-1.53683 -0.00348853 0)
(-1.53226 -0.00355907 0)
(-1.5276 -0.00362584 0)
(-1.52287 -0.00369096 0)
(-1.51806 -0.00375585 0)
(-1.51317 -0.00382101 0)
(-1.50821 -0.00388715 0)
(-1.50316 -0.00395422 0)
(-1.49803 -0.00402269 0)
(-1.49281 -0.00409231 0)
(-1.48751 -0.00416341 0)
(-1.48212 -0.00423566 0)
(-1.47664 -0.00430936 0)
(-1.47107 -0.00438397 0)
(-1.46541 -0.00445974 0)
(-1.45965 -0.00453699 0)
(-1.4538 -0.00461441 0)
(-1.44785 -0.00469214 0)
(-1.44181 -0.00477388 0)
(-1.43568 -0.00485876 0)
(-1.42944 -0.00494596 0)
(-1.42311 -0.00503541 0)
(-1.41667 -0.00512746 0)
(-1.41013 -0.00522221 0)
(-1.40348 -0.00531996 0)
(-1.39673 -0.00542082 0)
(-1.38986 -0.00552501 0)
(-1.38288 -0.00563257 0)
(-1.37578 -0.00574379 0)
(-1.36856 -0.00585893 0)
(-1.36122 -0.00597832 0)
(-1.35375 -0.00610202 0)
(-1.34615 -0.00623092 0)
(-1.33841 -0.00636513 0)
(-1.33053 -0.00650489 0)
(-1.32251 -0.00665061 0)
(-1.31433 -0.00680248 0)
(-1.306 -0.00696074 0)
(-1.2975 -0.00712563 0)
(-1.28884 -0.00729725 0)
(-1.27999 -0.00747558 0)
(-1.27095 -0.0076611 0)
(-1.26172 -0.0078536 0)
(-1.25227 -0.00804764 0)
(-1.24263 -0.00824578 0)
(-1.2328 -0.00845169 0)
(-1.2228 -0.00866286 0)
(-1.21263 -0.0088786 0)
(-1.20231 -0.00909359 0)
(-1.19181 -0.00930368 0)
(-1.18113 -0.00951066 0)
(-1.17027 -0.00971934 0)
(-1.15923 -0.00993216 0)
(-1.148 -0.0101498 0)
(-1.13658 -0.0103734 0)
(-1.12497 -0.0106042 0)
(-1.11316 -0.0108428 0)
(-1.10116 -0.0110904 0)
(-1.08896 -0.0113478 0)
(-1.07655 -0.0116168 0)
(-1.06393 -0.0118986 0)
(-1.05109 -0.0121947 0)
(-1.03802 -0.0125063 0)
(-1.02471 -0.0128355 0)
(-1.01114 -0.0131838 0)
(-0.997295 -0.0135541 0)
(-0.983153 -0.0139492 0)
(-0.968685 -0.0143729 0)
(-0.953855 -0.0148299 0)
(-0.938625 -0.0153257 0)
(-0.922946 -0.0158679 0)
(-0.906762 -0.0164673 0)
(-0.890007 -0.0171369 0)
(-0.872604 -0.0178917 0)
(-0.854467 -0.0187504 0)
(-0.835501 -0.0197336 0)
(-0.815605 -0.0208573 0)
(-0.794674 -0.0221267 0)
(-0.772613 -0.0235264 0)
(-0.749373 -0.0250005 0)
(-0.724993 -0.0264173 0)
(-0.699673 -0.0275059 0)
(-0.673871 -0.0277416 0)
(-0.648353 -0.0261714 0)
(-0.62449 -0.0215718 0)
(-0.605197 -0.0134089 0)
(-0.599436 -0.000866816 0)
(-0.614824 0.0133193 0)
(-0.663402 0.0398834 0)
(-0.767595 0.0921382 0)
(-0.970684 0.204435 0)
(-1.45947 0.526483 0)
(-1.71598 -0.000876961 0)
(-1.71192 -0.00285719 0)
(-1.7106 -0.00394295 0)
(-1.70766 -0.00454653 0)
(-1.70442 -0.00491758 0)
(-1.70098 -0.00516734 0)
(-1.6974 -0.00534637 0)
(-1.69373 -0.00548649 0)
(-1.68997 -0.00560403 0)
(-1.68616 -0.00570993 0)
(-1.68228 -0.00580956 0)
(-1.67835 -0.00590668 0)
(-1.67436 -0.00600317 0)
(-1.67033 -0.0061002 0)
(-1.66624 -0.00619859 0)
(-1.6621 -0.00629865 0)
(-1.6579 -0.00640084 0)
(-1.65365 -0.00650511 0)
(-1.64933 -0.00661183 0)
(-1.64496 -0.00672082 0)
(-1.64052 -0.00683246 0)
(-1.63601 -0.00694626 0)
(-1.63143 -0.00706231 0)
(-1.62679 -0.0071814 0)
(-1.62205 -0.00730184 0)
(-1.61725 -0.00742192 0)
(-1.61236 -0.00754445 0)
(-1.60741 -0.00766897 0)
(-1.60238 -0.00779542 0)
(-1.5973 -0.00792439 0)
(-1.59216 -0.00805643 0)
(-1.58695 -0.0081918 0)
(-1.58169 -0.00833081 0)
(-1.57636 -0.00847359 0)
(-1.57096 -0.00862033 0)
(-1.56551 -0.00877114 0)
(-1.56 -0.00892624 0)
(-1.55442 -0.00908608 0)
(-1.54879 -0.00925119 0)
(-1.54309 -0.00942102 0)
(-1.53734 -0.00959667 0)
(-1.53153 -0.00977846 0)
(-1.52566 -0.00996653 0)
(-1.51975 -0.0101615 0)
(-1.51378 -0.0103635 0)
(-1.50776 -0.0105729 0)
(-1.50169 -0.01079 0)
(-1.49558 -0.0110152 0)
(-1.48943 -0.0112484 0)
(-1.48324 -0.01149 0)
(-1.47702 -0.0117394 0)
(-1.47077 -0.0119926 0)
(-1.46451 -0.0122469 0)
(-1.45822 -0.0125004 0)
(-1.45192 -0.0127528 0)
(-1.44561 -0.0130054 0)
(-1.43933 -0.0132597 0)
(-1.43305 -0.0135133 0)
(-1.42677 -0.0137646 0)
(-1.42051 -0.0140164 0)
(-1.41425 -0.0142705 0)
(-1.40802 -0.014528 0)
(-1.40182 -0.0147897 0)
(-1.39567 -0.0150559 0)
(-1.38957 -0.0153273 0)
(-1.38355 -0.0156045 0)
(-1.37761 -0.0158886 0)
(-1.37179 -0.0161806 0)
(-1.36608 -0.016482 0)
(-1.36053 -0.0167946 0)
(-1.35514 -0.0171201 0)
(-1.34994 -0.0174612 0)
(-1.34495 -0.0178203 0)
(-1.34019 -0.0182014 0)
(-1.33567 -0.0186091 0)
(-1.33142 -0.0190491 0)
(-1.32745 -0.0195288 0)
(-1.32376 -0.0200568 0)
(-1.32035 -0.0206436 0)
(-1.31722 -0.0213049 0)
(-1.31436 -0.0220587 0)
(-1.31174 -0.022924 0)
(-1.30933 -0.0239229 0)
(-1.3071 -0.0250785 0)
(-1.30501 -0.0264087 0)
(-1.30302 -0.027918 0)
(-1.30112 -0.0295805 0)
(-1.2993 -0.0313144 0)
(-1.29761 -0.0329406 0)
(-1.29621 -0.0341116 0)
(-1.29534 -0.0342013 0)
(-1.29534 -0.0321657 0)
(-1.29672 -0.0265191 0)
(-1.30097 -0.0157773 0)
(-1.31005 0.00237951 0)
(-1.32726 0.0264875 0)
(-1.36681 0.0697164 0)
(-1.44318 0.149804 0)
(-1.58722 0.311606 0)
(-1.85829 0.719499 0)
(-1.85042 -0.00153251 0)
(-1.84608 -0.00384912 0)
(-1.84579 -0.00517057 0)
(-1.84375 -0.00593351 0)
(-1.84148 -0.00640707 0)
(-1.83907 -0.00672368 0)
(-1.83656 -0.0069475 0)
(-1.834 -0.00712049 0)
(-1.83137 -0.00726294 0)
(-1.82874 -0.00738999 0)
(-1.82605 -0.00750784 0)
(-1.82337 -0.0076222 0)
(-1.82066 -0.00773478 0)
(-1.81794 -0.00784784 0)
(-1.8152 -0.00796185 0)
(-1.81246 -0.0080778 0)
(-1.80969 -0.00819582 0)
(-1.80692 -0.00831635 0)
(-1.80413 -0.00843948 0)
(-1.80134 -0.00856542 0)
(-1.79854 -0.00869454 0)
(-1.79573 -0.00882665 0)
(-1.79291 -0.00896157 0)
(-1.79009 -0.00909941 0)
(-1.78724 -0.00924022 0)
(-1.78442 -0.00938221 0)
(-1.78158 -0.00952395 0)
(-1.77873 -0.00966507 0)
(-1.77588 -0.00980673 0)
(-1.77303 -0.00995014 0)
(-1.77018 -0.0100959 0)
(-1.76733 -0.0102445 0)
(-1.76449 -0.0103961 0)
(-1.76167 -0.0105506 0)
(-1.75885 -0.0107082 0)
(-1.75606 -0.0108687 0)
(-1.75328 -0.0110323 0)
(-1.75054 -0.0111991 0)
(-1.74782 -0.0113699 0)
(-1.74514 -0.0115439 0)
(-1.74251 -0.0117218 0)
(-1.73992 -0.0119037 0)
(-1.73739 -0.0120894 0)
(-1.73493 -0.0122794 0)
(-1.73254 -0.0124735 0)
(-1.73024 -0.0126717 0)
(-1.72804 -0.012874 0)
(-1.72594 -0.0130803 0)
(-1.72396 -0.0132904 0)
(-1.72212 -0.0135038 0)
(-1.72044 -0.0137188 0)
(-1.71891 -0.0139354 0)
(-1.71757 -0.0141544 0)
(-1.71639 -0.0143716 0)
(-1.71536 -0.0145837 0)
(-1.71449 -0.0147913 0)
(-1.71379 -0.0149971 0)
(-1.71328 -0.0152004 0)
(-1.71297 -0.0153986 0)
(-1.71287 -0.0155923 0)
(-1.713 -0.0157822 0)
(-1.71337 -0.0159686 0)
(-1.714 -0.0161521 0)
(-1.7149 -0.0163327 0)
(-1.7161 -0.0165106 0)
(-1.71761 -0.0166864 0)
(-1.71945 -0.0168605 0)
(-1.72164 -0.0170338 0)
(-1.72418 -0.0172076 0)
(-1.7271 -0.017384 0)
(-1.7304 -0.0175653 0)
(-1.7341 -0.0177547 0)
(-1.7382 -0.0179561 0)
(-1.7427 -0.0181748 0)
(-1.7476 -0.0184176 0)
(-1.75289 -0.0186924 0)
(-1.75854 -0.0190099 0)
(-1.76454 -0.0193822 0)
(-1.77085 -0.0198227 0)
(-1.77743 -0.0203512 0)
(-1.78423 -0.0209906 0)
(-1.7912 -0.0217628 0)
(-1.79827 -0.0226915 0)
(-1.80539 -0.0237995 0)
(-1.81251 -0.0251034 0)
(-1.81959 -0.0266029 0)
(-1.8266 -0.0282625 0)
(-1.83357 -0.0299816 0)
(-1.84052 -0.0315527 0)
(-1.84755 -0.0325949 0)
(-1.85475 -0.0324589 0)
(-1.86213 -0.0301155 0)
(-1.86968 -0.0240214 0)
(-1.87794 -0.0123172 0)
(-1.88728 0.00675599 0)
(-1.89862 0.0366483 0)
(-1.92146 0.0895101 0)
(-1.9629 0.186088 0)
(-2.03229 0.375565 0)
(-2.13328 0.778281 0)
(-1.98537 -0.00210158 0)
(-1.98139 -0.00448114 0)
(-1.98226 -0.00590678 0)
(-1.98145 -0.00676166 0)
(-1.98063 -0.00729794 0)
(-1.97969 -0.0076512 0)
(-1.97876 -0.00789663 0)
(-1.9778 -0.00808078 0)
(-1.97686 -0.00822861 0)
(-1.97593 -0.0083568 0)
(-1.97502 -0.00847334 0)
(-1.97414 -0.00858433 0)
(-1.97329 -0.00869219 0)
(-1.97248 -0.00879921 0)
(-1.9717 -0.0089061 0)
(-1.97097 -0.00901379 0)
(-1.97027 -0.00912244 0)
(-1.96964 -0.00923242 0)
(-1.96904 -0.00934376 0)
(-1.96851 -0.00945657 0)
(-1.96804 -0.0095712 0)
(-1.96764 -0.00968753 0)
(-1.9673 -0.00980448 0)
(-1.96705 -0.00992128 0)
(-1.96688 -0.0100398 0)
(-1.96681 -0.0101612 0)
(-1.96682 -0.0102836 0)
(-1.96691 -0.0104052 0)
(-1.96708 -0.010526 0)
(-1.96733 -0.010647 0)
(-1.96767 -0.0107688 0)
(-1.9681 -0.0108915 0)
(-1.96862 -0.0110154 0)
(-1.96924 -0.0111401 0)
(-1.96997 -0.0112655 0)
(-1.97081 -0.0113913 0)
(-1.97177 -0.0115175 0)
(-1.97285 -0.0116441 0)
(-1.97406 -0.0117713 0)
(-1.9754 -0.0118988 0)
(-1.9769 -0.0120272 0)
(-1.97854 -0.0121557 0)
(-1.98034 -0.0122843 0)
(-1.9823 -0.012413 0)
(-1.98444 -0.0125416 0)
(-1.98675 -0.0126699 0)
(-1.98925 -0.0127975 0)
(-1.99194 -0.0129243 0)
(-1.99484 -0.0130499 0)
(-1.99793 -0.0131738 0)
(-2.00123 -0.0132947 0)
(-2.00474 -0.013414 0)
(-2.00847 -0.0135359 0)
(-2.0124 -0.0136572 0)
(-2.01656 -0.0137727 0)
(-2.02094 -0.0138813 0)
(-2.02555 -0.0139833 0)
(-2.03039 -0.014078 0)
(-2.03546 -0.0141642 0)
(-2.04077 -0.0142424 0)
(-2.04632 -0.0143127 0)
(-2.0521 -0.0143757 0)
(-2.05812 -0.0144321 0)
(-2.06436 -0.0144824 0)
(-2.07084 -0.0145271 0)
(-2.07753 -0.014567 0)
(-2.08444 -0.0146032 0)
(-2.09155 -0.0146368 0)
(-2.09886 -0.0146699 0)
(-2.10636 -0.014705 0)
(-2.11403 -0.0147453 0)
(-2.12187 -0.0147948 0)
(-2.12986 -0.0148588 0)
(-2.13799 -0.0149439 0)
(-2.14625 -0.0150583 0)
(-2.15462 -0.0152118 0)
(-2.16309 -0.0154166 0)
(-2.17165 -0.0156882 0)
(-2.18028 -0.0160396 0)
(-2.18898 -0.0164927 0)
(-2.19773 -0.0170749 0)
(-2.20651 -0.0178074 0)
(-2.21531 -0.0187134 0)
(-2.22412 -0.0198142 0)
(-2.23295 -0.0211222 0)
(-2.2418 -0.0226318 0)
(-2.25067 -0.0243 0)
(-2.25958 -0.0260164 0)
(-2.26855 -0.0275634 0)
(-2.27756 -0.0285617 0)
(-2.28653 -0.0283912 0)
(-2.29521 -0.0261108 0)
(-2.30306 -0.020271 0)
(-2.31022 -0.00909229 0)
(-2.3155 0.00960338 0)
(-2.31842 0.0412158 0)
(-2.32315 0.0974875 0)
(-2.32931 0.199615 0)
(-2.32746 0.392979 0)
(-2.31 0.744696 0)
(-2.12759 -0.00241692 0)
(-2.12468 -0.00462825 0)
(-2.12674 -0.00600097 0)
(-2.12751 -0.00684751 0)
(-2.12844 -0.00738126 0)
(-2.1294 -0.00772503 0)
(-2.13047 -0.00795719 0)
(-2.13157 -0.00812272 0)
(-2.13276 -0.00824955 0)
(-2.13401 -0.00835354 0)
(-2.13534 -0.00844438 0)
(-2.13674 -0.00852737 0)
(-2.13823 -0.00860588 0)
(-2.13981 -0.00868155 0)
(-2.14147 -0.00875565 0)
(-2.14322 -0.00882858 0)
(-2.14507 -0.00890081 0)
(-2.14702 -0.00897228 0)
(-2.14906 -0.00904317 0)
(-2.15123 -0.00911331 0)
(-2.15349 -0.00918299 0)
(-2.15587 -0.00925289 0)
(-2.15837 -0.00931963 0)
(-2.16099 -0.00938339 0)
(-2.16374 -0.00944813 0)
(-2.1666 -0.00951481 0)
(-2.1696 -0.00958334 0)
(-2.17273 -0.00965122 0)
(-2.17599 -0.0097176 0)
(-2.17939 -0.00978268 0)
(-2.18292 -0.00984689 0)
(-2.18659 -0.00991041 0)
(-2.1904 -0.00997345 0)
(-2.19436 -0.0100356 0)
(-2.19846 -0.0100965 0)
(-2.20271 -0.0101558 0)
(-2.2071 -0.0102138 0)
(-2.21164 -0.0102705 0)
(-2.21633 -0.0103258 0)
(-2.22117 -0.0103797 0)
(-2.22616 -0.0104328 0)
(-2.2313 -0.0104845 0)
(-2.23658 -0.0105349 0)
(-2.24201 -0.010584 0)
(-2.24759 -0.0106319 0)
(-2.2533 -0.0106783 0)
(-2.25915 -0.0107233 0)
(-2.26514 -0.0107667 0)
(-2.27125 -0.0108085 0)
(-2.27749 -0.0108488 0)
(-2.28385 -0.0108874 0)
(-2.29032 -0.0109258 0)
(-2.2969 -0.010966 0)
(-2.30358 -0.0110058 0)
(-2.31036 -0.0110418 0)
(-2.31723 -0.0110721 0)
(-2.32418 -0.0110957 0)
(-2.33121 -0.0111119 0)
(-2.33831 -0.0111205 0)
(-2.34547 -0.0111223 0)
(-2.3527 -0.0111179 0)
(-2.35998 -0.011108 0)
(-2.36731 -0.0110934 0)
(-2.37468 -0.0110746 0)
(-2.3821 -0.0110527 0)
(-2.38956 -0.0110283 0)
(-2.39704 -0.0110025 0)
(-2.40457 -0.0109769 0)
(-2.41212 -0.0109534 0)
(-2.41971 -0.0109345 0)
(-2.42733 -0.0109235 0)
(-2.43498 -0.0109244 0)
(-2.44266 -0.0109422 0)
(-2.45039 -0.0109836 0)
(-2.45815 -0.011057 0)
(-2.46596 -0.011172 0)
(-2.47382 -0.0113405 0)
(-2.48172 -0.0115789 0)
(-2.48967 -0.0118993 0)
(-2.4977 -0.0123208 0)
(-2.5058 -0.0128708 0)
(-2.51399 -0.0135715 0)
(-2.52229 -0.0144453 0)
(-2.5307 -0.0155119 0)
(-2.53924 -0.0167812 0)
(-2.54793 -0.0182458 0)
(-2.55678 -0.0198635 0)
(-2.56579 -0.0215263 0)
(-2.57492 -0.0230257 0)
(-2.58411 -0.0240123 0)
(-2.59312 -0.0239345 0)
(-2.60153 -0.021978 0)
(-2.60843 -0.0169471 0)
(-2.61368 -0.00716702 0)
(-2.61488 0.00996286 0)
(-2.60982 0.040102 0)
(-2.59827 0.0941066 0)
(-2.57281 0.191876 0)
(-2.51138 0.369281 0)
(-2.41535 0.652918 0)
(-2.27438 -0.00236973 0)
(-2.27277 -0.00420246 0)
(-2.27601 -0.0053689 0)
(-2.27839 -0.00610138 0)
(-2.28101 -0.00655993 0)
(-2.28384 -0.00684536 0)
(-2.28679 -0.00702819 0)
(-2.28988 -0.00714762 0)
(-2.29306 -0.0072302 0)
(-2.29636 -0.00729016 0)
(-2.29974 -0.00733694 0)
(-2.30324 -0.00737519 0)
(-2.30682 -0.00740838 0)
(-2.31051 -0.00743774 0)
(-2.31428 -0.00746481 0)
(-2.31817 -0.00748973 0)
(-2.32214 -0.00751321 0)
(-2.32623 -0.00753499 0)
(-2.33039 -0.00755549 0)
(-2.33467 -0.00757446 0)
(-2.33902 -0.00759223 0)
(-2.34349 -0.00761019 0)
(-2.34803 -0.00762392 0)
(-2.35269 -0.00763273 0)
(-2.35743 -0.00764104 0)
(-2.36228 -0.00764927 0)
(-2.36724 -0.00765796 0)
(-2.37231 -0.00766578 0)
(-2.37747 -0.00767223 0)
(-2.38276 -0.00767733 0)
(-2.38813 -0.00768164 0)
(-2.39362 -0.00768532 0)
(-2.39919 -0.00768905 0)
(-2.40487 -0.00769231 0)
(-2.41063 -0.00769478 0)
(-2.41648 -0.0076961 0)
(-2.42241 -0.00769696 0)
(-2.42842 -0.0076975 0)
(-2.4345 -0.00769808 0)
(-2.44066 -0.00769848 0)
(-2.44687 -0.00769946 0)
(-2.45315 -0.0077009 0)
(-2.45947 -0.00770287 0)
(-2.46584 -0.00770551 0)
(-2.47224 -0.00770895 0)
(-2.47869 -0.0077131 0)
(-2.48516 -0.00771795 0)
(-2.49165 -0.00772344 0)
(-2.49816 -0.00772983 0)
(-2.50469 -0.00773685 0)
(-2.51122 -0.00774531 0)
(-2.51775 -0.00775629 0)
(-2.52428 -0.00777104 0)
(-2.53081 -0.00778715 0)
(-2.53733 -0.00780235 0)
(-2.54384 -0.00781449 0)
(-2.55034 -0.007821 0)
(-2.55682 -0.0078209 0)
(-2.5633 -0.00781444 0)
(-2.56976 -0.00780243 0)
(-2.57621 -0.00778528 0)
(-2.58265 -0.00776351 0)
(-2.58909 -0.00773736 0)
(-2.59553 -0.00770698 0)
(-2.60196 -0.00767319 0)
(-2.6084 -0.00763626 0)
(-2.61486 -0.00759688 0)
(-2.62133 -0.00755631 0)
(-2.62782 -0.00751606 0)
(-2.63435 -0.00747833 0)
(-2.64092 -0.00744606 0)
(-2.64753 -0.00742282 0)
(-2.65421 -0.00741325 0)
(-2.66096 -0.00742391 0)
(-2.66778 -0.00746321 0)
(-2.6747 -0.00754056 0)
(-2.68172 -0.00766732 0)
(-2.68885 -0.0078578 0)
(-2.6961 -0.00812709 0)
(-2.70354 -0.00849372 0)
(-2.71111 -0.00898094 0)
(-2.71884 -0.00961174 0)
(-2.72676 -0.010407 0)
(-2.73488 -0.011386 0)
(-2.74323 -0.0125576 0)
(-2.75183 -0.0139148 0)
(-2.7607 -0.0154234 0)
(-2.7698 -0.0169883 0)
(-2.77908 -0.0184211 0)
(-2.78837 -0.0194222 0)
(-2.79738 -0.0195341 0)
(-2.80551 -0.0180945 0)
(-2.81165 -0.0142323 0)
(-2.81513 -0.0064288 0)
(-2.8131 0.00795902 0)
(-2.80108 0.0339854 0)
(-2.77545 0.080864 0)
(-2.72318 0.165557 0)
(-2.61569 0.313244 0)
(-2.46994 0.526034 0)
(-2.40777 -0.0019739 0)
(-2.40718 -0.0032657 0)
(-2.41117 -0.00412537 0)
(-2.41462 -0.00466927 0)
(-2.41828 -0.00500314 0)
(-2.42231 -0.00520085 0)
(-2.42639 -0.00531655 0)
(-2.43068 -0.00538095 0)
(-2.43499 -0.00541507 0)
(-2.43945 -0.00543057 0)
(-2.44392 -0.00543509 0)
(-2.44852 -0.00543255 0)
(-2.45312 -0.00542565 0)
(-2.45785 -0.00541547 0)
(-2.46257 -0.00540339 0)
(-2.46741 -0.00538957 0)
(-2.47226 -0.00537474 0)
(-2.47721 -0.00535869 0)
(-2.48217 -0.00534192 0)
(-2.48722 -0.00532421 0)
(-2.49229 -0.00530591 0)
(-2.49745 -0.00528664 0)
(-2.5026 -0.00526555 0)
(-2.50788 -0.00524186 0)
(-2.51314 -0.00521654 0)
(-2.51847 -0.00519047 0)
(-2.52379 -0.00516508 0)
(-2.52918 -0.00513987 0)
(-2.53456 -0.00511481 0)
(-2.53999 -0.00508982 0)
(-2.54541 -0.00506578 0)
(-2.55088 -0.00504253 0)
(-2.55632 -0.00502145 0)
(-2.5618 -0.0050017 0)
(-2.56726 -0.00498286 0)
(-2.57274 -0.00496423 0)
(-2.5782 -0.00494725 0)
(-2.58367 -0.00493147 0)
(-2.58911 -0.0049179 0)
(-2.59457 -0.00490625 0)
(-2.6 -0.00489694 0)
(-2.60543 -0.00488987 0)
(-2.61083 -0.00488509 0)
(-2.61623 -0.00488263 0)
(-2.62161 -0.00488251 0)
(-2.62698 -0.00488449 0)
(-2.63232 -0.00488838 0)
(-2.63767 -0.00489392 0)
(-2.64299 -0.00490131 0)
(-2.64831 -0.00491014 0)
(-2.65361 -0.00492128 0)
(-2.65892 -0.00493584 0)
(-2.66421 -0.00495467 0)
(-2.6695 -0.00497472 0)
(-2.6748 -0.00499407 0)
(-2.68009 -0.00501052 0)
(-2.68539 -0.00501988 0)
(-2.69071 -0.00502067 0)
(-2.69604 -0.00501369 0)
(-2.7014 -0.00499993 0)
(-2.70678 -0.00497961 0)
(-2.7122 -0.00495289 0)
(-2.71765 -0.00491972 0)
(-2.72314 -0.00487999 0)
(-2.72869 -0.00483395 0)
(-2.73428 -0.00478169 0)
(-2.73994 -0.00472368 0)
(-2.74567 -0.00466071 0)
(-2.75147 -0.00459399 0)
(-2.75736 -0.00452542 0)
(-2.76334 -0.00445754 0)
(-2.76943 -0.00439369 0)
(-2.77563 -0.00433811 0)
(-2.78196 -0.00429695 0)
(-2.78843 -0.00427876 0)
(-2.79505 -0.00429253 0)
(-2.80183 -0.00434886 0)
(-2.8088 -0.00445949 0)
(-2.81594 -0.00464278 0)
(-2.82331 -0.00491898 0)
(-2.8309 -0.00530932 0)
(-2.83872 -0.00583577 0)
(-2.84679 -0.00651419 0)
(-2.85515 -0.00736463 0)
(-2.8638 -0.00839665 0)
(-2.87278 -0.00960445 0)
(-2.88207 -0.0109682 0)
(-2.89163 -0.0124171 0)
(-2.90134 -0.0137883 0)
(-2.91102 -0.0148457 0)
(-2.92025 -0.0152426 0)
(-2.92834 -0.0144923 0)
(-2.9341 -0.0120149 0)
(-2.93611 -0.00665727 0)
(-2.9319 0.00388924 0)
(-2.91425 0.0236576 0)
(-2.87751 0.0594278 0)
(-2.80449 0.12409 0)
(-2.66443 0.233576 0)
(-2.48904 0.379153 0)
(-2.50939 -0.00127785 0)
(-2.50967 -0.00201332 0)
(-2.51383 -0.00253138 0)
(-2.51771 -0.00285714 0)
(-2.5217 -0.00305111 0)
(-2.52615 -0.0031594 0)
(-2.53051 -0.0032148 0)
(-2.53515 -0.00323756 0)
(-2.53966 -0.00324072 0)
(-2.54436 -0.0032319 0)
(-2.54891 -0.00321618 0)
(-2.55362 -0.00319628 0)
(-2.55819 -0.00317359 0)
(-2.56289 -0.0031489 0)
(-2.56745 -0.00312315 0)
(-2.57213 -0.00309652 0)
(-2.57669 -0.0030695 0)
(-2.58135 -0.003042 0)
(-2.58589 -0.00301439 0)
(-2.59052 -0.00298649 0)
(-2.59504 -0.00295845 0)
(-2.59964 -0.0029282 0)
(-2.60413 -0.00289859 0)
(-2.6087 -0.00287169 0)
(-2.61315 -0.00284567 0)
(-2.61766 -0.00282001 0)
(-2.62205 -0.00279581 0)
(-2.62649 -0.00277277 0)
(-2.63082 -0.00275102 0)
(-2.63519 -0.00273037 0)
(-2.63946 -0.00271175 0)
(-2.64376 -0.00269472 0)
(-2.64798 -0.00268093 0)
(-2.65221 -0.00266969 0)
(-2.65637 -0.00265933 0)
(-2.66054 -0.00264916 0)
(-2.66466 -0.00264098 0)
(-2.66878 -0.00263403 0)
(-2.67285 -0.00262966 0)
(-2.67693 -0.00262703 0)
(-2.68098 -0.00262665 0)
(-2.68503 -0.00262816 0)
(-2.68905 -0.00263141 0)
(-2.69308 -0.00263652 0)
(-2.6971 -0.00264317 0)
(-2.70113 -0.00265108 0)
(-2.70516 -0.00265988 0)
(-2.7092 -0.0026694 0)
(-2.71325 -0.00267922 0)
(-2.71732 -0.00268924 0)
(-2.7214 -0.00269975 0)
(-2.72552 -0.00271294 0)
(-2.72966 -0.00272994 0)
(-2.73383 -0.00274593 0)
(-2.73804 -0.00275972 0)
(-2.74228 -0.00276991 0)
(-2.74657 -0.00276995 0)
(-2.75091 -0.00275767 0)
(-2.75531 -0.00273519 0)
(-2.75976 -0.00270401 0)
(-2.76429 -0.00266432 0)
(-2.76888 -0.00261596 0)
(-2.77355 -0.00255878 0)
(-2.7783 -0.00249251 0)
(-2.78314 -0.00241692 0)
(-2.78807 -0.00233193 0)
(-2.79311 -0.00223789 0)
(-2.79824 -0.00213522 0)
(-2.8035 -0.00202485 0)
(-2.80888 -0.00190835 0)
(-2.81439 -0.00178792 0)
(-2.82004 -0.00166661 0)
(-2.82585 -0.00154846 0)
(-2.83182 -0.00143912 0)
(-2.83796 -0.00134612 0)
(-2.84429 -0.00127875 0)
(-2.85084 -0.00124712 0)
(-2.8576 -0.00126234 0)
(-2.8646 -0.00134231 0)
(-2.87186 -0.0015064 0)
(-2.87942 -0.00177364 0)
(-2.88725 -0.00216959 0)
(-2.89543 -0.00270369 0)
(-2.90397 -0.00339809 0)
(-2.91289 -0.00426534 0)
(-2.92222 -0.00529942 0)
(-2.93196 -0.00649846 0)
(-2.94202 -0.00783514 0)
(-2.95229 -0.00916443 0)
(-2.96253 -0.0103269 0)
(-2.97231 -0.0110958 0)
(-2.98087 -0.011176 0)
(-2.98702 -0.010222 0)
(-2.98884 -0.00761237 0)
(-2.98376 -0.00173257 0)
(-2.96429 0.0100737 0)
(-2.92071 0.0318361 0)
(-2.83507 0.071466 0)
(-2.67572 0.137659 0)
(-2.48531 0.221239 0)
(-2.55911 -0.000363943 0)
(-2.55974 -0.000640529 0)
(-2.56372 -0.000821709 0)
(-2.56754 -0.000932225 0)
(-2.57138 -0.000995975 0)
(-2.5757 -0.00103025 0)
(-2.57984 -0.00104582 0)
(-2.58427 -0.00105012 0)
(-2.58845 -0.00104777 0)
(-2.59285 -0.00104124 0)
(-2.59698 -0.00103266 0)
(-2.60129 -0.00102335 0)
(-2.60535 -0.00101276 0)
(-2.60954 -0.00100146 0)
(-2.61351 -0.000989702 0)
(-2.61759 -0.000977647 0)
(-2.62146 -0.000965372 0)
(-2.62543 -0.00095292 0)
(-2.62921 -0.00094034 0)
(-2.63307 -0.000927579 0)
(-2.63675 -0.000914456 0)
(-2.64052 -0.00089966 -1.05755e-41)
(-2.64411 -0.000886021 0)
(-2.64778 -0.000876144 0)
(-2.65129 -0.000868205 0)
(-2.65487 -0.000861079 0)
(-2.65831 -0.00085497 0)
(-2.66181 -0.000849586 0)
(-2.66518 -0.000844805 0)
(-2.66862 -0.000840666 0)
(-2.67194 -0.000837598 0)
(-2.67532 -0.000835748 0)
(-2.67861 -0.000835906 0)
(-2.68193 -0.000839628 0)
(-2.68519 -0.00084136 0)
(-2.68848 -0.000842075 0)
(-2.69172 -0.000843154 0)
(-2.69498 -0.000844632 0)
(-2.69822 -0.000847354 0)
(-2.70147 -0.000850352 0)
(-2.70472 -0.000854206 0)
(-2.70797 -0.000858486 0)
(-2.71124 -0.00086293 0)
(-2.71451 -0.00086763 0)
(-2.7178 -0.000872239 0)
(-2.72111 -0.0008764 0)
(-2.72444 -0.000879732 0)
(-2.7278 -0.000882188 0)
(-2.73118 -0.000882861 0)
(-2.7346 -0.000881847 0)
(-2.73805 -0.000878886 0)
(-2.74154 -0.000876627 0)
(-2.74508 -0.000879706 0)
(-2.74866 -0.000878739 0)
(-2.75229 -0.000873028 0)
(-2.75596 -0.000864981 0)
(-2.75969 -0.000843281 0)
(-2.76347 -0.000804319 0)
(-2.76733 -0.000752915 0)
(-2.77125 -0.000691366 0)
(-2.77525 -0.000619699 0)
(-2.77933 -0.00053746 0)
(-2.78349 -0.000444266 0)
(-2.78774 -0.000339609 0)
(-2.79209 -0.000223091 0)
(-2.79653 -9.44764e-05 0)
(-2.80107 4.61809e-05 0)
(-2.80573 0.000198688 0)
(-2.81051 0.000362372 0)
(-2.81542 0.000536006 0)
(-2.82047 0.000717708 0)
(-2.82566 0.000904883 0)
(-2.83101 0.0010934 0)
(-2.83654 0.00127834 0)
(-2.84224 0.00145426 0)
(-2.84814 0.00161172 0)
(-2.85425 0.0017405 0)
(-2.8606 0.00182951 0)
(-2.8672 0.00186268 0)
(-2.87407 0.00182147 0)
(-2.88125 0.00169017 0)
(-2.88873 0.00144453 0)
(-2.89658 0.00107282 1.2611e-41)
(-2.90479 0.000553653 0)
(-2.91341 -0.000128225 0)
(-2.92243 -0.000977589 0)
(-2.93191 -0.00199028 0)
(-2.94161 -0.00321675 -3.78127e-41)
(-2.95153 -0.0045098 0)
(-2.96142 -0.00580164 0)
(-2.97083 -0.00698792 0)
(-2.97901 -0.00795666 0)
(-2.98479 -0.00861681 0)
(-2.98623 -0.00883252 -5.19129e-41)
(-2.98008 -0.00800134 0)
(-2.96027 -0.00518065 0)
(-2.91471 0.000846524 9.95084e-42)
(-2.82463 0.012478 0)
(-2.65851 0.0323176 0)
(-2.46335 0.0574394 0)
(-2.53889 0.000603095 0)
(-2.53929 0.000750332 0)
(-2.54324 0.000901009 0)
(-2.547 0.00100056 0)
(-2.5508 0.00105983 0)
(-2.55509 0.0010916 0)
(-2.5592 0.00110633 0)
(-2.56362 0.00111055 0)
(-2.56781 0.00110809 0)
(-2.57221 0.00110159 0)
(-2.57637 0.00109228 0)
(-2.5807 0.00108054 0)
(-2.58481 0.00106847 0)
(-2.58904 0.00105587 0)
(-2.59307 0.00104335 0)
(-2.59721 0.00103078 0)
(-2.60116 0.00101859 0)
(-2.6052 0.00100663 0)
(-2.60906 0.000995244 0)
(-2.613 0.00098434 0)
(-2.61678 0.000974451 0)
(-2.62063 0.000965714 1.13519e-41)
(-2.62432 0.000956546 0)
(-2.62808 0.000945362 0)
(-2.63169 0.000933421 0)
(-2.63537 0.00092124 0)
(-2.63892 0.000909101 0)
(-2.64251 0.000897323 0)
(-2.646 0.000886396 0)
(-2.64953 0.000875871 0)
(-2.65295 0.000865857 0)
(-2.65642 0.000855427 0)
(-2.6598 0.000844602 0)
(-2.66322 0.000831321 0)
(-2.66657 0.000821795 0)
(-2.66995 0.000814205 0)
(-2.67327 0.000808129 0)
(-2.67662 0.000802485 0)
(-2.67992 0.000797777 0)
(-2.68324 0.000793728 0)
(-2.68654 0.000790735 0)
(-2.68985 0.000788754 0)
(-2.69316 0.000787948 0)
(-2.69647 0.000788694 0)
(-2.69979 0.000791102 0)
(-2.70312 0.000795609 0)
(-2.70646 0.000802544 0)
(-2.70983 0.00081211 0)
(-2.71321 0.000825021 0)
(-2.71662 0.000841328 0)
(-2.72005 0.000861112 0)
(-2.72351 0.000882119 0)
(-2.727 0.000899534 0)
(-2.73053 0.000922738 0)
(-2.7341 0.000952724 0)
(-2.73773 0.000986471 0)
(-2.7414 0.00103574 0)
(-2.74513 0.00110457 0)
(-2.74891 0.0011877 0)
(-2.75275 0.00128278 0)
(-2.75664 0.00138998 0)
(-2.76061 0.00150989 0)
(-2.76464 0.00164307 0)
(-2.76875 0.00179025 0)
(-2.77293 0.00195191 0)
(-2.77721 0.00212843 0)
(-2.78157 0.00232013 0)
(-2.78603 0.00252716 0)
(-2.79059 0.00274907 0)
(-2.79527 0.00298497 0)
(-2.80006 0.00323348 0)
(-2.80498 0.00349243 0)
(-2.81005 0.00375815 0)
(-2.81526 0.00402649 0)
(-2.82063 0.00429282 0)
(-2.82618 0.00454892 0)
(-2.83192 0.00478492 0)
(-2.83786 0.00498978 0)
(-2.84403 0.00514886 0)
(-2.85044 0.00524523 0)
(-2.85713 0.00526367 0)
(-2.8641 0.00518557 0)
(-2.8714 0.00499305 5.8693e-41)
(-2.87903 0.00466707 0)
(-2.88702 0.00419039 0)
(-2.89537 0.00354016 0)
(-2.90408 0.00271277 0)
(-2.913 0.0016378 1.92522e-41)
(-2.92204 0.000396904 0)
(-2.9309 -0.00102816 0)
(-2.93912 -0.00262389 0)
(-2.94577 -0.00442535 0)
(-2.95 -0.00664611 0)
(-2.9498 -0.00958865 -5.6357e-41)
(-2.94184 -0.0136581 0)
(-2.9201 -0.0196813 0)
(-2.87364 -0.0294529 -3.46217e-40)
(-2.78311 -0.0459454 0)
(-2.61825 -0.072272 0)
(-2.42446 -0.103456 0)
(-2.46059 0.0014396 0)
(-2.4602 0.00212184 0)
(-2.46422 0.00261576 0)
(-2.46784 0.00293411 0)
(-2.47158 0.00312679 0)
(-2.47579 0.00323647 0)
(-2.47993 0.00329528 0)
(-2.48437 0.00332216 0)
(-2.48868 0.00333007 0)
(-2.49319 0.00332544 0)
(-2.49758 0.00331361 0)
(-2.50213 0.00329618 0)
(-2.50657 0.00327634 0)
(-2.51113 0.00325445 0)
(-2.51559 0.00323171 0)
(-2.52015 0.00320815 0)
(-2.52463 0.00318449 0)
(-2.52919 0.00316061 0)
(-2.53366 0.00313703 0)
(-2.53821 0.00311361 0)
(-2.54268 0.00309095 0)
(-2.54721 0.00306872 0)
(-2.55166 0.00304615 0)
(-2.55616 0.00302215 0)
(-2.56059 0.00299765 0)
(-2.56507 0.00297274 0)
(-2.56946 0.00294795 0)
(-2.5739 0.00292375 0)
(-2.57826 0.00290095 0)
(-2.58266 0.00287896 0)
(-2.58698 0.00285785 0)
(-2.59133 0.0028367 0)
(-2.59562 0.00281564 0)
(-2.59992 0.00279442 0)
(-2.60416 0.0027762 0)
(-2.60842 0.00276012 0)
(-2.61261 0.00274631 0)
(-2.61682 0.00273365 0)
(-2.62098 0.00272348 0)
(-2.62513 0.00271437 0)
(-2.62925 0.00270779 0)
(-2.63336 0.00270323 0)
(-2.63744 0.00270094 0)
(-2.64152 0.00270161 0)
(-2.64557 0.00270534 0)
(-2.64962 0.00271258 0)
(-2.65365 0.00272373 0)
(-2.65768 0.00273915 0)
(-2.6617 0.00275932 0)
(-2.66572 0.0027844 0)
(-2.66974 0.00281408 0)
(-2.67377 0.00284643 0)
(-2.6778 0.00288065 0)
(-2.68186 0.00292158 0)
(-2.68592 0.00297069 0)
(-2.69002 0.00302856 0)
(-2.69414 0.00310236 0)
(-2.6983 0.00319493 0)
(-2.70249 0.00330347 0)
(-2.7067 0.00342617 0)
(-2.71096 0.00356347 0)
(-2.71525 0.00371618 0)
(-2.71959 0.00388484 0)
(-2.72399 0.00407025 0)
(-2.72844 0.004273 0)
(-2.73295 0.00449367 0)
(-2.73752 0.00473287 0)
(-2.74217 0.00499118 0)
(-2.7469 0.00526844 0)
(-2.75172 0.00556419 0)
(-2.75664 0.00587757 0)
(-2.76166 0.00620685 0)
(-2.76679 0.00654926 0)
(-2.77206 0.00690125 0)
(-2.77747 0.00725821 0)
(-2.78303 0.00761314 0)
(-2.78877 0.0079573 0)
(-2.7947 0.0082802 0)
(-2.80084 0.00856863 0)
(-2.80722 0.00880789 0)
(-2.81385 0.00898272 0)
(-2.82078 0.00907574 0)
(-2.82802 0.00906655 0)
(-2.8356 0.00893709 0)
(-2.84354 0.008667 0)
(-2.85185 0.00822317 0)
(-2.86052 0.00757155 0)
(-2.8695 0.00666337 0)
(-2.87862 0.00547002 0)