/*--------------------------------*- C++ -*----------------------------------*\
| =========                 |                                                 |
| \\      /  F ield         | OpenFOAM: The Open Source CFD Toolbox           |
|  \\    /   O peration     | Version:  2.1.0                                 |
|   \\  /    A nd           | Web:      www.OpenFOAM.org                      |
|    \\/     M anipulation  |                                                 |
\*---------------------------------------------------------------------------*/
FoamFile
{
    version     2.0;
    format      ascii;
    class       volScalarField;
    location    "0.39";
    object      nut;
}
// * * * * * * * * * * * * * * * * * * * * * * * * * * * * * * * * * * * * * //

dimensions      [0 2 -1 0 0 0 0];

internalField   nonuniform List<scalar> 
6400
(
7.09235e-06
7.11083e-06
7.12259e-06
7.13814e-06
7.15183e-06
7.16955e-06
7.184e-06
7.20272e-06
7.21786e-06
7.23737e-06
7.2533e-06
7.27323e-06
7.29011e-06
7.31032e-06
7.32822e-06
7.34871e-06
7.36765e-06
7.38849e-06
7.40847e-06
7.42982e-06
7.45088e-06
7.47291e-06
7.49511e-06
7.51801e-06
7.54143e-06
7.56537e-06
7.59004e-06
7.61514e-06
7.64111e-06
7.66748e-06
7.69481e-06
7.72256e-06
7.7513e-06
7.78052e-06
7.81076e-06
7.84156e-06
7.87337e-06
7.90581e-06
7.93925e-06
7.97328e-06
8.00817e-06
8.04361e-06
8.07977e-06
8.1164e-06
8.15357e-06
8.19105e-06
8.22887e-06
8.26683e-06
8.30492e-06
8.34298e-06
8.38096e-06
8.41868e-06
8.45582e-06
8.49146e-06
8.5253e-06
8.55624e-06
8.58771e-06
8.61813e-06
8.64909e-06
8.67902e-06
8.70957e-06
8.7398e-06
8.77039e-06
8.80106e-06
8.83152e-06
8.86225e-06
8.89257e-06
8.92306e-06
8.95205e-06
8.98019e-06
9.00708e-06
9.03231e-06
9.05596e-06
9.07777e-06
9.09797e-06
9.1169e-06
9.13521e-06
9.15411e-06
9.17508e-06
9.20048e-06
9.23266e-06
9.27425e-06
9.32537e-06
9.37894e-06
9.42857e-06
9.49336e-06
9.56168e-06
9.62568e-06
9.66237e-06
9.62707e-06
9.4331e-06
8.91227e-06
7.8246e-06
5.97444e-06
3.46838e-06
2.3184e-06
2.40632e-06
3.78112e-06
3.87679e-06
4.18274e-06
7.54082e-05
7.58652e-05
7.59511e-05
7.62485e-05
7.63467e-05
7.65946e-05
7.67134e-05
7.69282e-05
7.70641e-05
7.72555e-05
7.74025e-05
7.75767e-05
7.7729e-05
7.78897e-05
7.80422e-05
7.81915e-05
7.83402e-05
7.8479e-05
7.86209e-05
7.87494e-05
7.88825e-05
7.90012e-05
7.91249e-05
7.92346e-05
7.93492e-05
7.94515e-05
7.95571e-05
7.96514e-05
7.97472e-05
7.98323e-05
7.99171e-05
7.99917e-05
8.00638e-05
8.01259e-05
8.01835e-05
8.02304e-05
8.02707e-05
8.02994e-05
8.03228e-05
8.03362e-05
8.03396e-05
8.03301e-05
8.03078e-05
8.02696e-05
8.02148e-05
8.01403e-05
8.00442e-05
7.99234e-05
7.97755e-05
7.95977e-05
7.93875e-05
7.91441e-05
7.88751e-05
7.85703e-05
7.82271e-05
7.76717e-05
7.69815e-05
7.62473e-05
7.54743e-05
7.46557e-05
7.3793e-05
7.28955e-05
7.19514e-05
7.09756e-05
6.99503e-05
6.88872e-05
6.77743e-05
6.66252e-05
6.54226e-05
6.41615e-05
6.28446e-05
6.14651e-05
6.00209e-05
5.85087e-05
5.69256e-05
5.52709e-05
5.35427e-05
5.17433e-05
4.98733e-05
4.79382e-05
4.59421e-05
4.38947e-05
4.18056e-05
3.96785e-05
3.74919e-05
3.52191e-05
3.28608e-05
3.03991e-05
2.78257e-05
2.51374e-05
2.23517e-05
1.95053e-05
1.66786e-05
1.40137e-05
1.15027e-05
9.23461e-06
7.49493e-06
6.28975e-06
5.67855e-06
6.86546e-06
0.000115187
0.000115441
0.000115541
0.000115649
0.000115735
0.000115803
0.00011588
0.00011592
0.000115984
0.000116
0.000116048
0.000116042
0.000116069
0.00011604
0.000116043
0.00011599
0.000115963
0.000115882
0.000115822
0.000115711
0.000115614
0.000115469
0.000115334
0.000115155
0.000114981
0.000114773
0.000114567
0.00011433
0.00011409
0.000113822
0.000113546
0.000113244
0.000112931
0.000112593
0.00011224
0.000111863
0.000111469
0.000111051
0.000110604
0.000110131
0.000109633
0.000109104
0.000108547
0.000107956
0.000107331
0.000106667
0.000105964
0.000105214
0.000104416
0.000103561
0.000102644
0.000101377
9.98834e-05
9.83504e-05
9.67757e-05
9.51731e-05
9.35357e-05
9.18677e-05
9.01679e-05
8.84372e-05
8.66846e-05
8.49169e-05
8.3087e-05
8.12465e-05
7.93568e-05
7.74502e-05
7.55026e-05
7.35357e-05
7.15334e-05
6.95099e-05
6.74533e-05
6.53717e-05
6.32564e-05
6.11118e-05
5.89312e-05
5.67175e-05
5.4466e-05
5.21799e-05
4.98574e-05
4.75037e-05
4.51205e-05
4.27167e-05
4.02976e-05
3.78748e-05
3.54634e-05
3.30889e-05
3.07558e-05
2.84845e-05
2.6275e-05
2.41376e-05
2.20448e-05
2.00162e-05
1.80255e-05
1.59858e-05
1.39432e-05
1.19342e-05
1.0136e-05
8.62327e-06
8.12505e-06
1.13145e-05
0.000136927
0.000136634
0.000136522
0.000136245
0.000136134
0.000135831
0.000135695
0.000135373
0.000135201
0.000134862
0.000134649
0.000134291
0.000134035
0.000133655
0.000133355
0.000132949
0.000132604
0.000132167
0.000131775
0.000131302
0.000130859
0.000130345
0.000129842
0.000129269
0.000128468
0.000127452
0.000126421
0.000125354
0.000124273
0.000123158
0.000122027
0.000120864
0.000119683
0.000118469
0.000117235
0.00011597
0.000114681
0.000113362
0.00011202
0.000110646
0.000109244
0.000107814
0.000106355
0.000104868
0.000103352
0.000101806
0.000100232
9.86294e-05
9.69991e-05
9.53333e-05
9.36464e-05
9.19594e-05
9.02296e-05
8.84935e-05
8.67267e-05
8.49515e-05
8.31492e-05
8.13309e-05
7.9484e-05
7.76164e-05
7.57205e-05
7.38078e-05
7.18688e-05
6.99159e-05
6.79385e-05
6.59504e-05
6.39425e-05
6.19288e-05
5.99029e-05
5.78781e-05
5.58508e-05
5.38335e-05
5.18254e-05
4.98375e-05
4.78703e-05
4.59335e-05
4.40275e-05
4.216e-05
4.033e-05
3.85419e-05
3.67926e-05
3.50829e-05
3.34025e-05
3.1751e-05
3.01369e-05
2.85273e-05
2.69292e-05
2.53342e-05
2.37357e-05
2.21264e-05
2.05021e-05
1.88588e-05
1.71868e-05
1.54648e-05
1.37006e-05
1.19777e-05
1.05092e-05
9.77469e-06
1.19116e-05
1.2061e-05
0.000138759
0.00013883
0.000138582
0.000138428
0.00013768
0.000137087
0.000136194
0.000135412
0.000134469
0.000133585
0.000132612
0.000131658
0.000130657
0.000129647
0.000128613
0.000127553
0.00012648
0.000125373
0.000124257
0.000123102
0.00012194
0.000120738
0.000119528
0.000118278
0.000117025
0.000115742
0.000114447
0.000113123
0.000111789
0.000110426
0.000109054
0.000107654
0.000106243
0.000104806
0.000103357
0.000101883
0.000100394
9.88774e-05
9.73572e-05
9.58232e-05
9.42579e-05
9.26861e-05
9.1091e-05
8.94858e-05
8.78627e-05
8.62288e-05
8.45813e-05
8.29243e-05
8.12581e-05
7.95855e-05
7.79087e-05
7.62283e-05
7.45438e-05
7.2856e-05
7.11622e-05
6.94699e-05
6.77779e-05
6.60913e-05
6.44087e-05
6.27355e-05
6.10711e-05
5.94211e-05
5.77844e-05
5.61662e-05
5.4565e-05
5.2986e-05
5.14268e-05
4.9892e-05
4.83785e-05
4.68898e-05
4.54175e-05
4.39701e-05
4.25518e-05
4.1138e-05
3.97525e-05
3.83725e-05
3.70105e-05
3.56495e-05
3.42976e-05
3.29397e-05
3.15815e-05
3.02132e-05
2.88383e-05
2.74553e-05
2.60674e-05
2.46736e-05
2.32872e-05
2.19003e-05
2.05329e-05
1.91832e-05
1.78693e-05
1.65903e-05
1.53676e-05
1.41851e-05
1.30984e-05
1.22686e-05
1.20818e-05
1.37497e-05
1.3787e-05
1.41329e-05
0.000125589
0.000124952
0.000124558
0.000124027
0.000123127
0.000122241
0.000121179
0.00012014
0.000119018
0.000117904
0.000116753
0.000115592
0.00011442
0.000113227
0.000112035
0.000110814
0.000109603
0.000108361
0.000107131
0.00010587
0.000104617
0.000103342
0.000102077
0.000100789
9.9499e-05
9.81889e-05
9.68741e-05
9.55434e-05
9.4211e-05
9.28596e-05
9.15079e-05
9.01371e-05
8.87665e-05
8.73782e-05
8.59909e-05
8.45882e-05
8.31874e-05
8.17747e-05
8.03657e-05
7.89469e-05
7.75327e-05
7.61148e-05
7.47015e-05
7.32888e-05
7.18827e-05
7.04803e-05
6.90867e-05
6.76994e-05
6.63229e-05
6.49548e-05
6.35983e-05
6.22504e-05
6.09152e-05
5.95902e-05
5.82776e-05
5.69771e-05
5.56891e-05
5.44178e-05
5.31613e-05
5.19141e-05
5.06835e-05
4.94621e-05
4.82538e-05
4.70531e-05
4.58626e-05
4.46787e-05
4.35023e-05
4.23316e-05
4.11669e-05
4.00072e-05
3.88528e-05
3.7706e-05
3.65665e-05
3.5434e-05
3.43096e-05
3.31915e-05
3.2085e-05
3.09869e-05
2.99085e-05
2.88411e-05
2.77942e-05
2.67629e-05
2.57551e-05
2.47662e-05
2.38035e-05
2.28616e-05
2.19422e-05
2.10457e-05
2.01868e-05
1.93633e-05
1.8594e-05
1.78841e-05
1.72641e-05
1.67672e-05
1.65245e-05
1.66359e-05
1.60617e-05
1.5818e-05
1.57931e-05
1.32087e-05
0.000110157
0.000108982
0.000108451
0.000107598
0.000106688
0.000105621
0.000104567
0.000103418
0.000102308
0.00010113
9.99976e-05
9.88082e-05
9.76661e-05
9.64731e-05
9.5326e-05
9.41336e-05
9.2985e-05
9.17967e-05
9.06497e-05
8.94686e-05
8.83314e-05
8.71578e-05
8.60193e-05
8.48583e-05
8.37246e-05
8.25719e-05
8.14454e-05
8.03045e-05
7.91875e-05
7.80579e-05
7.69503e-05
7.58321e-05
7.47341e-05
7.36276e-05
7.25394e-05
7.14444e-05
7.0366e-05
6.92821e-05
6.82129e-05
6.7135e-05
6.60753e-05
6.5018e-05
6.3965e-05
6.29178e-05
6.18763e-05
6.08392e-05
5.98082e-05
5.87808e-05
5.77599e-05
5.67428e-05
5.5732e-05
5.47257e-05
5.3727e-05
5.27342e-05
5.17531e-05
5.07753e-05
4.98049e-05
4.88416e-05
4.78875e-05
4.69396e-05
4.60056e-05
4.50817e-05
4.41739e-05
4.32776e-05
4.23981e-05
4.1533e-05
4.06935e-05
3.98697e-05
3.90729e-05
3.82942e-05
3.75441e-05
3.68119e-05
3.61056e-05
3.54173e-05
3.47539e-05
3.4107e-05
3.34818e-05
3.28679e-05
3.22636e-05
3.12922e-05
3.03432e-05
2.93955e-05
2.84709e-05
2.7549e-05
2.66513e-05
2.57578e-05
2.48905e-05
2.40304e-05
2.32012e-05
2.23867e-05
2.16134e-05
2.08691e-05
2.01795e-05
1.95439e-05
1.90032e-05
1.85998e-05
1.83389e-05
1.82363e-05
1.89311e-05
1.49387e-05
9.96069e-05
9.78484e-05
9.73028e-05
9.62309e-05
9.53964e-05
9.42371e-05
9.32968e-05
9.21363e-05
9.11659e-05
9.00354e-05
8.9067e-05
8.79738e-05
8.70175e-05
8.59606e-05
8.50188e-05
8.39938e-05
8.30654e-05
8.20665e-05
8.11485e-05
8.01687e-05
7.92573e-05
7.79721e-05
7.67648e-05
7.54953e-05
7.42912e-05
7.30567e-05
7.18915e-05
7.06933e-05
6.95691e-05
6.84163e-05
6.73401e-05
6.62402e-05
6.52181e-05
6.41765e-05
6.32113e-05
6.22307e-05
6.13257e-05
6.04093e-05
5.95667e-05
5.8716e-05
5.79354e-05
5.71463e-05
5.64237e-05
5.56923e-05
5.50242e-05
5.43476e-05
5.37295e-05
5.31032e-05
5.25301e-05
5.19483e-05
5.14134e-05
5.08724e-05
5.03662e-05
4.98524e-05
4.93698e-05
4.88791e-05
4.84124e-05
4.79351e-05
4.74733e-05
4.69978e-05
4.65325e-05
4.60507e-05
4.55739e-05
4.507e-05
4.45784e-05
4.40851e-05
4.35631e-05
4.30577e-05
4.25328e-05
4.20189e-05
4.14896e-05
4.09675e-05
4.04337e-05
3.99036e-05
3.93643e-05
3.88261e-05
3.82804e-05
3.77331e-05
3.71802e-05
3.66207e-05
3.60533e-05
3.54699e-05
3.48748e-05
3.42582e-05
3.36247e-05
3.29637e-05
3.22799e-05
3.15635e-05
3.08218e-05
3.00492e-05
2.92597e-05
2.84572e-05
2.76683e-05
2.69124e-05
2.6288e-05
2.5824e-05
2.54456e-05
2.56095e-05
2.61419e-05
2.05179e-05
8.2572e-05
8.05138e-05
7.96798e-05
7.81298e-05
7.7266e-05
7.58248e-05
7.49367e-05
7.35928e-05
7.2692e-05
7.14187e-05
7.05469e-05
6.9331e-05
6.84896e-05
6.73348e-05
6.6527e-05
6.54361e-05
6.46657e-05
6.36409e-05
6.29121e-05
6.19556e-05
6.12728e-05
6.03869e-05
5.97604e-05
5.89543e-05
5.83842e-05
5.76594e-05
5.71475e-05
5.65003e-05
5.60472e-05
5.54736e-05
5.50769e-05
5.45729e-05
5.42283e-05
5.37899e-05
5.34936e-05
5.31174e-05
5.28632e-05
5.25429e-05
5.23249e-05
5.20538e-05
5.18662e-05
5.16351e-05
5.1473e-05
5.1274e-05
5.11325e-05
5.09583e-05
5.0829e-05
5.06664e-05
5.05575e-05
5.04329e-05
5.03109e-05
5.01796e-05
5.00652e-05
4.99558e-05
4.98557e-05
4.97563e-05
4.96688e-05
4.95802e-05
4.95082e-05
4.94346e-05
4.93786e-05
4.93212e-05
4.92817e-05
4.92407e-05
4.92177e-05
4.91931e-05
4.91879e-05
4.91825e-05
4.9193e-05
4.92054e-05
4.92321e-05
4.92613e-05
4.93032e-05
4.9348e-05
4.94039e-05
4.94621e-05
4.95291e-05
4.95968e-05
4.96701e-05
4.97415e-05
4.98138e-05
4.98786e-05
4.99373e-05
4.99803e-05
5.00069e-05
5.0006e-05
4.99746e-05
4.98998e-05
4.97776e-05
4.95966e-05
4.93552e-05
4.90488e-05
4.86852e-05
4.82732e-05
4.78435e-05
4.7474e-05
4.73436e-05
4.74586e-05
4.80004e-05
3.97847e-05
7.40365e-05
7.21805e-05
7.14377e-05
7.00435e-05
6.93449e-05
6.80313e-05
6.73727e-05
6.61464e-05
6.55268e-05
6.43915e-05
6.38135e-05
6.27675e-05
6.22345e-05
6.12765e-05
6.07902e-05
5.99182e-05
5.94797e-05
5.86911e-05
5.83007e-05
5.75923e-05
5.72492e-05
5.66175e-05
5.63203e-05
5.57603e-05
5.5506e-05
5.50127e-05
5.47974e-05
5.43655e-05
5.41854e-05
5.38168e-05
5.36553e-05
5.33482e-05
5.31977e-05
5.29586e-05
5.28247e-05
5.26431e-05
5.25134e-05
5.23773e-05
5.22528e-05
5.21551e-05
5.20648e-05
5.1987e-05
5.19254e-05
5.18702e-05
5.18366e-05
5.18036e-05
5.17959e-05
5.17859e-05
5.18035e-05
5.18164e-05
5.18564e-05
5.1893e-05
5.19585e-05
5.20221e-05
5.21127e-05
5.22035e-05
5.23203e-05
5.24387e-05
5.25817e-05
5.27272e-05
5.2897e-05
5.30704e-05
5.32681e-05
5.34711e-05
5.36983e-05
5.39317e-05
5.41894e-05
5.44542e-05
5.47433e-05
5.5041e-05
5.5363e-05
5.56951e-05
5.6052e-05
5.64209e-05
5.68153e-05
5.72241e-05
5.76593e-05
5.81115e-05
5.85914e-05
5.90915e-05
5.96214e-05
6.01751e-05
6.07616e-05
6.13764e-05
6.20281e-05
6.2714e-05
6.34424e-05
6.42132e-05
6.50357e-05
6.59114e-05
6.68504e-05
6.78564e-05
6.89402e-05
7.01073e-05
7.1366e-05
7.27083e-05
7.4121e-05
7.5584e-05
7.63075e-05
6.6208e-05
7.97683e-05
7.7744e-05
7.69369e-05
7.5398e-05
7.46141e-05
7.3164e-05
7.2405e-05
7.10482e-05
7.03185e-05
6.90583e-05
6.83627e-05
6.72007e-05
6.65426e-05
6.548e-05
6.48674e-05
6.38984e-05
6.33366e-05
6.24574e-05
6.19488e-05
6.11556e-05
6.0701e-05
5.99895e-05
5.95877e-05
5.89532e-05
5.8602e-05
5.8039e-05
5.7735e-05
5.72383e-05
5.69772e-05
5.65406e-05
5.63174e-05
5.59356e-05
5.57444e-05
5.54124e-05
5.52471e-05
5.49594e-05
5.48144e-05
5.45637e-05
5.44266e-05
5.42271e-05
5.41009e-05
5.39444e-05
5.38195e-05
5.36714e-05
5.35793e-05
5.34607e-05
5.33888e-05
5.32946e-05
5.32431e-05
5.31733e-05
5.31428e-05
5.30976e-05
5.30887e-05
5.30694e-05
5.30824e-05
5.30872e-05
5.3126e-05
5.31575e-05
5.32223e-05
5.3281e-05
5.33703e-05
5.34569e-05
5.3573e-05
5.36878e-05
5.38321e-05
5.39759e-05
5.41487e-05
5.43224e-05
5.45239e-05
5.47281e-05
5.49587e-05
5.51937e-05
5.54544e-05
5.57213e-05
5.60128e-05
5.63129e-05
5.66377e-05
5.69737e-05
5.7335e-05
5.77103e-05
5.81121e-05
5.85313e-05
5.89789e-05
5.94476e-05
5.99475e-05
6.04732e-05
6.10338e-05
6.16251e-05
6.22549e-05
6.2921e-05
6.36309e-05
6.43929e-05
6.52196e-05
6.612e-05
6.7116e-05
6.82264e-05
6.94955e-05
7.08962e-05
7.19379e-05
6.30709e-05
9.85998e-05
9.63739e-05
9.54573e-05
9.37355e-05
9.27546e-05
9.11228e-05
9.00868e-05
8.85336e-05
8.74559e-05
8.59756e-05
8.48706e-05
8.34683e-05
8.23401e-05
8.09827e-05
7.98874e-05
7.85766e-05
7.75116e-05
7.6254e-05
7.52252e-05
7.40261e-05
7.30393e-05
7.19029e-05
7.09633e-05
6.98928e-05
6.9005e-05
6.80026e-05
6.7168e-05
6.62364e-05
6.54603e-05
6.45986e-05
6.38822e-05
6.30902e-05
6.24337e-05
6.17104e-05
6.11125e-05
6.04538e-05
5.99109e-05
5.93138e-05
5.88228e-05
5.82832e-05
5.78388e-05
5.73524e-05
5.69445e-05
5.6502e-05
5.61264e-05
5.57209e-05
5.53721e-05
5.49959e-05
5.46672e-05
5.4313e-05
5.39985e-05
5.36604e-05
5.33434e-05
5.30158e-05
5.27358e-05
5.2404e-05
5.21292e-05
5.1814e-05
5.15461e-05
5.12622e-05
5.09938e-05
5.06977e-05
5.04545e-05
5.01751e-05
4.99408e-05
4.96769e-05
4.94505e-05
4.92028e-05
4.89868e-05
4.87507e-05
4.85376e-05
4.83061e-05
4.80918e-05
4.78582e-05
4.76349e-05
4.73909e-05
4.71506e-05
4.68875e-05
4.6622e-05
4.63313e-05
4.60347e-05
4.57121e-05
4.53787e-05
4.5018e-05
4.46428e-05
4.42403e-05
4.38215e-05
4.33778e-05
4.29201e-05
4.24438e-05
4.19618e-05
4.14617e-05
4.09607e-05
4.0488e-05
4.00741e-05
3.97837e-05
3.97107e-05
3.9979e-05
4.06233e-05
3.43402e-05
0.000106101
0.00010455
0.00010389
0.000102761
0.000101844
0.000100617
9.95854e-05
9.83416e-05
9.72693e-05
9.60429e-05
9.49615e-05
9.37647e-05
9.26888e-05
9.15212e-05
9.04576e-05
8.93183e-05
8.82683e-05
8.71559e-05
8.61203e-05
8.50334e-05
8.4013e-05
8.29498e-05
8.19445e-05
8.09031e-05
7.99118e-05
7.88857e-05
7.79123e-05
7.69117e-05
7.59476e-05
7.49641e-05
7.4015e-05
7.30505e-05
7.21168e-05
7.1171e-05
7.02538e-05
6.93286e-05
6.84245e-05
6.75013e-05
6.65978e-05
6.56819e-05
6.47851e-05
6.3882e-05
6.29985e-05
6.21139e-05
6.12503e-05
6.03894e-05
5.95539e-05
5.87238e-05
5.79226e-05
5.71281e-05
5.63635e-05
5.56087e-05
5.48841e-05
5.41706e-05
5.34864e-05
5.28158e-05
5.21797e-05
5.1525e-05
5.07777e-05
5.00258e-05
4.92857e-05
4.85386e-05
4.77997e-05
4.70448e-05
4.62948e-05
4.55252e-05
4.47603e-05
4.39702e-05
4.31725e-05
4.23687e-05
4.15809e-05
4.07595e-05
3.99595e-05
3.91332e-05
3.83271e-05
3.74995e-05
3.66908e-05
3.58659e-05
3.50596e-05
3.42423e-05
3.34383e-05
3.26254e-05
3.18281e-05
3.10276e-05
3.02461e-05
2.94675e-05
2.87059e-05
2.79521e-05
2.72214e-05
2.65097e-05
2.58321e-05
2.51914e-05
2.46044e-05
2.40746e-05
2.36946e-05
2.33842e-05
2.33585e-05
2.36332e-05
2.43772e-05
1.89145e-05
0.000120214
0.000119061
0.000118522
0.000117623
0.000116639
0.000115502
0.000114361
0.000113115
0.000111903
0.000110611
0.00010936
0.000108052
0.000106789
0.000105472
0.000104199
0.000102875
0.000101592
0.000100261
9.89682e-05
9.76331e-05
9.63311e-05
9.49923e-05
9.36833e-05
9.23446e-05
9.10301e-05
8.9691e-05
8.8375e-05
8.70382e-05
8.57212e-05
8.43874e-05
8.30728e-05
8.17458e-05
8.04362e-05
7.91178e-05
7.78165e-05
7.65101e-05
7.52218e-05
7.39337e-05
7.26627e-05
7.13934e-05
7.01397e-05
6.88885e-05
6.76497e-05
6.6416e-05
6.52025e-05
6.39822e-05
6.2783e-05
6.15804e-05
6.03955e-05
5.92108e-05
5.80422e-05
5.68755e-05
5.57233e-05
5.45746e-05
5.34399e-05
5.231e-05
5.11952e-05
5.00891e-05
4.90004e-05
4.79231e-05
4.68621e-05
4.58048e-05
4.4764e-05
4.3733e-05
4.2721e-05
4.17221e-05
4.07432e-05
3.97881e-05
3.88574e-05
3.79504e-05
3.70698e-05
3.62157e-05
3.53896e-05
3.4592e-05
3.38167e-05
3.30691e-05
3.23437e-05
3.16446e-05
3.09662e-05
3.0311e-05
2.96689e-05
2.90478e-05
2.84371e-05
2.78437e-05
2.68367e-05
2.58617e-05
2.49053e-05
2.39979e-05
2.31137e-05
2.22833e-05
2.14827e-05
2.07445e-05
2.00423e-05
1.94184e-05
1.88176e-05
1.84092e-05
1.81789e-05
1.79916e-05
1.87253e-05
1.44605e-05
0.000136764
0.000136124
0.000135705
0.000135115
0.000134129
0.000133137
0.000131965
0.000130802
0.000129562
0.000128315
0.000127041
0.000125746
0.000124445
0.000123113
0.000121788
0.000120425
0.000119073
0.000117682
0.000116304
0.000114887
0.000113484
0.000112045
0.000110604
0.000109151
0.000107706
0.000106229
0.000104762
0.000103272
0.000101792
0.000100292
9.87956e-05
9.72771e-05
9.57582e-05
9.42195e-05
9.26796e-05
9.11225e-05
8.95674e-05
8.80055e-05
8.64461e-05
8.48819e-05
8.33199e-05
8.17529e-05
8.01913e-05
7.86263e-05
7.70691e-05
7.55113e-05
7.39635e-05
7.24188e-05
7.08864e-05
6.93609e-05
6.785e-05
6.63493e-05
6.48649e-05
6.33935e-05
6.19386e-05
6.04978e-05
5.90747e-05
5.76649e-05
5.62711e-05
5.48977e-05
5.35385e-05
5.21999e-05
5.08799e-05
4.95775e-05
4.82918e-05
4.70201e-05
4.57619e-05
4.45145e-05
4.32776e-05
4.20489e-05
4.08284e-05
3.96143e-05
3.84069e-05
3.72055e-05
3.60161e-05
3.48338e-05
3.36612e-05
3.24955e-05
3.13388e-05
3.01935e-05
2.90586e-05
2.79412e-05
2.68372e-05
2.57556e-05
2.46888e-05
2.36447e-05
2.26181e-05
2.16166e-05
2.06333e-05
1.96767e-05
1.87578e-05
1.78781e-05
1.70559e-05
1.63888e-05
1.59556e-05
1.61251e-05
1.60769e-05
1.58678e-05
1.58842e-05
1.31658e-05
0.000148426
0.000148554
0.000148274
0.000148065
0.000147244
0.000146551
0.000145565
0.000144672
0.00014363
0.000142633
0.00014156
0.000140496
0.000139394
0.000138277
0.000137142
0.000135979
0.000134808
0.000133602
0.000132392
0.000131144
0.000129893
0.000128604
0.00012731
0.000125981
0.000124643
0.00012327
0.000121889
0.000120474
0.000119054
0.000117611
0.000116156
0.000114674
0.000113183
0.000111668
0.000110142
0.000108592
0.000107033
0.000105452
0.000103851
0.000102234
0.000100619
9.89672e-05
9.73101e-05
9.56274e-05
9.39357e-05
9.22219e-05
9.04977e-05
8.87545e-05
8.7001e-05
8.52316e-05
8.34535e-05
8.16637e-05
7.98685e-05
7.8068e-05
7.62647e-05
7.44596e-05
7.26566e-05
7.0849e-05
6.90456e-05
6.72411e-05
6.54455e-05
6.36577e-05
6.18853e-05
6.01261e-05
5.83876e-05
5.66678e-05
5.49725e-05
5.33006e-05
5.16559e-05
5.0038e-05
4.84487e-05
4.68873e-05
4.53536e-05
4.38405e-05
4.23552e-05
4.09034e-05
3.94527e-05
3.80369e-05
3.66198e-05
3.52229e-05
3.38182e-05
3.24196e-05
3.10053e-05
2.95856e-05
2.81426e-05
2.66872e-05
2.5213e-05
2.37238e-05
2.22285e-05
2.07232e-05
1.92251e-05
1.773e-05
1.62355e-05
1.48063e-05
1.34852e-05
1.24385e-05
1.20865e-05
1.36391e-05
1.38507e-05
1.43375e-05
0.00014191
0.000141584
0.000141455
0.000141128
0.000140986
0.000140634
0.000140461
0.000140094
0.000139884
0.000139505
0.000139255
0.00013886
0.000138568
0.000138154
0.000137819
0.000137381
0.000137002
0.000136536
0.000136112
0.000135614
0.000135144
0.000134609
0.00013409
0.000133512
0.000132939
0.000132311
0.000131677
0.000130988
0.000130123
0.000128959
0.000127783
0.000126571
0.000125349
0.000124098
0.000122836
0.00012155
0.000120246
0.000118912
0.000117558
0.000116176
0.000114772
0.000113335
0.000111877
0.000110387
0.000108872
0.000107325
0.000105752
0.000104147
0.000102514
0.00010085
9.9159e-05
9.74369e-05
9.56773e-05
9.3895e-05
9.21052e-05
9.02682e-05
8.84277e-05
8.65476e-05
8.46586e-05
8.27381e-05
8.0806e-05
7.88463e-05
7.6872e-05
7.48688e-05
7.28426e-05
7.0795e-05
6.87244e-05
6.66373e-05
6.45305e-05
6.24131e-05
6.02825e-05
5.815e-05
5.60148e-05
5.38893e-05
5.17739e-05
4.96816e-05
4.7613e-05
4.55797e-05
4.35818e-05
4.16279e-05
3.97161e-05
3.7851e-05
3.60272e-05
3.42446e-05
3.24844e-05
3.07514e-05
2.9058e-05
2.73396e-05
2.5637e-05
2.3908e-05
2.21613e-05
2.03598e-05
1.84899e-05
1.65533e-05
1.46272e-05
1.2705e-05
1.10448e-05
1.0082e-05
1.19766e-05
1.21318e-05
0.000117171
0.0001174
0.000117487
0.000117564
0.000117633
0.000117671
0.000117728
0.000117741
0.000117785
0.000117775
0.000117802
0.000117771
0.000117776
0.000117726
0.00011771
0.00011764
0.000117599
0.000117507
0.000117438
0.000117323
0.000117223
0.000117081
0.000116948
0.000116775
0.000116605
0.000116398
0.000116189
0.000115945
0.000115697
0.000115422
0.000115144
0.000114841
0.000114533
0.0001142
0.000113858
0.00011349
0.000113113
0.000112716
0.000112299
0.000111858
0.000111395
0.000110904
0.000110388
0.000109841
0.000109263
0.00010865
0.000108011
0.000107341
0.000106642
0.000105907
0.000105129
0.000104306
0.000103431
0.000102501
0.000101501
0.000100054
9.84607e-05
9.68049e-05
9.51169e-05
9.33767e-05
9.16055e-05
8.97915e-05
8.79568e-05
8.60878e-05
8.41964e-05
8.22815e-05
8.03008e-05
7.8303e-05
7.62526e-05
7.41787e-05
7.20611e-05
6.9918e-05
6.7729e-05
6.55117e-05
6.32469e-05
6.09475e-05
5.85976e-05
5.62065e-05
5.37623e-05
5.12735e-05
4.87338e-05
4.61533e-05
4.35327e-05
4.08863e-05
3.8223e-05
3.55644e-05
3.29264e-05
3.03355e-05
2.78185e-05
2.53918e-05
2.30361e-05
2.07548e-05
1.8544e-05
1.6303e-05
1.41362e-05
1.21339e-05
1.03204e-05
8.92325e-06
8.3798e-06
1.15389e-05
7.50678e-05
7.55094e-05
7.55923e-05
7.58674e-05
7.59589e-05
7.61854e-05
7.62957e-05
7.64907e-05
7.66172e-05
7.67909e-05
7.69282e-05
7.70868e-05
7.72298e-05
7.73777e-05
7.75219e-05
7.7661e-05
7.78029e-05
7.79342e-05
7.80709e-05
7.81942e-05
7.83231e-05
7.84377e-05
7.8557e-05
7.86621e-05
7.87704e-05
7.88654e-05
7.89624e-05
7.90477e-05
7.91346e-05
7.92121e-05
7.92899e-05
7.93584e-05
7.94257e-05
7.94833e-05
7.95379e-05
7.95822e-05
7.96219e-05
7.96502e-05
7.9675e-05
7.96893e-05
7.96977e-05
7.9696e-05
7.9687e-05
7.9668e-05
7.9641e-05
7.96044e-05
7.95592e-05
7.94976e-05
7.94217e-05
7.93254e-05
7.92085e-05
7.90668e-05
7.88983e-05
7.86998e-05
7.84695e-05
7.82097e-05
7.79326e-05
7.76241e-05
7.72917e-05
7.69199e-05
7.65098e-05
7.60427e-05
7.52583e-05
7.43759e-05
7.34239e-05
7.24363e-05
7.13862e-05
7.02978e-05
6.91454e-05
6.79376e-05
6.66665e-05
6.53481e-05
6.3937e-05
6.24594e-05
6.0889e-05
5.92371e-05
5.74852e-05
5.56411e-05
5.36923e-05
5.16465e-05
4.94972e-05
4.7254e-05
4.49165e-05
4.24974e-05
4.00034e-05
3.74512e-05
3.48284e-05
3.21567e-05
2.93647e-05
2.64842e-05
2.35138e-05
2.04808e-05
1.75004e-05
1.46437e-05
1.19525e-05
9.59535e-06
7.77329e-06
6.54449e-06
5.87394e-06
6.7762e-06
6.98006e-06
6.9972e-06
7.00943e-06
7.02342e-06
7.03772e-06
7.05464e-06
7.06913e-06
7.08756e-06
7.10263e-06
7.12185e-06
7.1378e-06
7.15748e-06
7.17444e-06
7.19446e-06
7.21248e-06
7.23283e-06
7.25189e-06
7.27261e-06
7.29267e-06
7.31386e-06
7.33488e-06
7.35665e-06
7.37863e-06
7.40114e-06
7.42416e-06
7.4476e-06
7.47177e-06
7.49635e-06
7.52183e-06
7.54772e-06
7.57458e-06
7.60192e-06
7.63027e-06
7.65916e-06
7.68914e-06
7.71976e-06
7.75154e-06
7.78408e-06
7.81789e-06
7.85257e-06
7.88861e-06
7.92565e-06
7.96413e-06
8.00374e-06
8.04481e-06
8.08706e-06
8.13064e-06
8.17524e-06
8.22117e-06
8.26808e-06
8.31629e-06
8.36558e-06
8.41626e-06
8.46832e-06
8.52212e-06
8.57784e-06
8.63544e-06
8.69411e-06
8.75389e-06
8.81336e-06
8.87227e-06
8.92874e-06
8.98215e-06
9.03869e-06
9.09536e-06
9.15612e-06
9.21807e-06
9.2842e-06
9.35204e-06
9.42397e-06
9.49897e-06
9.57816e-06
9.6584e-06
9.74382e-06
9.83051e-06
9.92197e-06
1.00152e-05
1.01131e-05
1.02137e-05
1.03196e-05
1.043e-05
1.05479e-05
1.06734e-05
1.08101e-05
1.09588e-05
1.11188e-05
1.12726e-05
1.13814e-05
1.14005e-05
1.12648e-05
1.08026e-05
9.77828e-06
8.05591e-06
5.92975e-06
3.62538e-06
2.63907e-06
2.55772e-06
3.91846e-06
4.0189e-06
4.33117e-06
1.09392e-05
2.07728e-06
2.60054e-06
3.5173e-06
4.54816e-06
5.62295e-06
6.48734e-06
7.33697e-06
8.15025e-06
8.90636e-06
9.6195e-06
1.03374e-05
1.14559e-05
1.33336e-05
1.54684e-05
1.78504e-05
1.75978e-05
1.55435e-05
1.02888e-05
3.996e-06
5.87913e-06
2.18607e-06
2.47503e-06
3.1842e-06
4.05628e-06
4.86394e-06
5.69319e-06
6.55221e-06
7.41555e-06
8.29899e-06
9.27417e-06
1.03717e-05
1.20241e-05
1.40968e-05
1.70506e-05
1.83228e-05
1.74933e-05
1.4709e-05
9.53421e-06
3.96754e-06
4.94553e-06
2.6953e-06
2.90114e-06
3.41674e-06
4.01097e-06
4.71734e-06
5.48155e-06
6.31615e-06
7.22197e-06
8.38929e-06
9.50934e-06
1.10197e-05
1.29368e-05
1.5833e-05
1.8024e-05
1.8304e-05
1.71517e-05
1.40048e-05
8.87257e-06
3.84105e-06
5.05623e-06
3.4395e-06
3.63822e-06
3.8759e-06
4.36883e-06
4.92949e-06
5.67425e-06
6.58258e-06
7.71529e-06
9.4881e-06
1.12167e-05
1.29508e-05
1.57361e-05
1.82164e-05
1.91946e-05
1.88189e-05
1.70293e-05
1.32369e-05
7.9795e-06
3.26102e-06
5.68866e-06
4.47726e-06
4.61705e-06
4.63445e-06
5.19476e-06
5.69374e-06
6.58649e-06
7.84405e-06
9.60025e-06
1.31068e-05
1.47741e-05
1.70859e-05
1.93478e-05
2.04333e-05
2.04355e-05
1.92178e-05
1.65397e-05
1.24931e-05
6.88416e-06
2.3803e-06
6.89557e-06
5.97741e-06
6.04884e-06
6.02795e-06
6.77378e-06
7.77015e-06
9.35313e-06
1.16077e-05
1.61232e-05
1.95177e-05
2.09911e-05
2.23822e-05
2.30726e-05
2.28716e-05
2.16728e-05
1.9104e-05
1.59599e-05
1.15599e-05
5.15396e-06
1.472e-06
9.04416e-06
8.62844e-06
8.8601e-06
9.4661e-06
1.11851e-05
1.36754e-05
1.70867e-05
2.20381e-05
2.87815e-05
2.94311e-05
2.91116e-05
2.83201e-05
2.69169e-05
2.47802e-05
2.16864e-05
1.85265e-05
1.48232e-05
1.01162e-05
3.82878e-06
7.21082e-07
1.46622e-05
1.61426e-05
1.73712e-05
1.96694e-05
2.32008e-05
2.75265e-05
3.31006e-05
4.00664e-05
3.99382e-05
3.77745e-05
3.42856e-05
3.16696e-05
2.81101e-05
2.4925e-05
2.08574e-05
1.70843e-05
1.29252e-05
8.11097e-06
2.78277e-06
2.76145e-07
3.25405e-05
3.54982e-05
3.6725e-05
3.91866e-05
4.36414e-05
4.79844e-05
5.20431e-05
4.78142e-05
4.41942e-05
4.02658e-05
3.6394e-05
3.25997e-05
2.83871e-05
2.33293e-05
1.85675e-05
1.40706e-05
1.01978e-05
6.50284e-06
2.44464e-06
1.26176e-07
5.28281e-05
5.57123e-05
5.59663e-05
5.74697e-05
6.23204e-05
5.94615e-05
5.51671e-05
5.02116e-05
4.61185e-05
4.11631e-05
3.70792e-05
3.19084e-05
2.70291e-05
1.97663e-05
1.40578e-05
9.68882e-06
7.69893e-06
6.33967e-06
3.12004e-06
2.08245e-07
5.03376e-05
5.30698e-05
5.34376e-05
5.50209e-05
5.98174e-05
5.77982e-05
5.36839e-05
4.89242e-05
4.50648e-05
4.02769e-05
3.65959e-05
3.14711e-05
2.76245e-05
2.04876e-05
1.48327e-05
9.82315e-06
7.31227e-06
5.35868e-06
2.40356e-06
1.70659e-07
2.80147e-05
3.09107e-05
3.22707e-05
3.47444e-05
3.91429e-05
4.36842e-05
4.96385e-05
4.56369e-05
4.26532e-05
3.84311e-05
3.56741e-05
3.1327e-05
2.83482e-05
2.393e-05
1.93632e-05
1.46054e-05
1.00113e-05
5.50766e-06
1.70278e-06
1.15492e-07
1.30996e-05
1.40411e-05
1.50175e-05
1.7063e-05
2.02253e-05
2.42726e-05
2.95338e-05
3.6421e-05
3.97686e-05
3.6156e-05
3.40275e-05
3.06166e-05
2.76772e-05
2.45103e-05
2.12688e-05
1.73762e-05
1.29837e-05
7.81564e-06
2.37596e-06
1.46947e-07
8.63777e-06
8.11559e-06
8.26278e-06
8.6577e-06
1.00758e-05
1.22183e-05
1.52187e-05
1.98381e-05
2.63171e-05
2.74822e-05
2.77777e-05
2.75889e-05
2.6667e-05
2.47328e-05
2.14484e-05
1.86212e-05
1.48293e-05
1.00199e-05
3.4915e-06
3.84535e-07
6.7372e-06
5.80467e-06
5.869e-06
5.83166e-06
6.51283e-06
7.37278e-06
8.75843e-06
1.07476e-05
1.48354e-05
1.81921e-05
1.99819e-05
2.1731e-05
2.27503e-05
2.27837e-05
2.18396e-05
1.89577e-05
1.58312e-05
1.14939e-05
5.11564e-06
1.18129e-06
5.6206e-06
4.42679e-06
4.56439e-06
4.60683e-06
5.15422e-06
5.64444e-06
6.48864e-06
7.64084e-06
9.24648e-06
1.23702e-05
1.41489e-05
1.65244e-05
1.90574e-05
2.03528e-05
2.04604e-05
1.9354e-05
1.64134e-05
1.24362e-05
6.93479e-06
2.22849e-06
5.04247e-06
3.43535e-06
3.63748e-06
3.91559e-06
4.41435e-06
4.99454e-06
5.72924e-06
6.61111e-06
7.68817e-06
9.33965e-06
1.09271e-05
1.26818e-05
1.5429e-05
1.81278e-05
1.92546e-05
1.88984e-05
1.70966e-05
1.31896e-05
8.03197e-06
3.20913e-06
5.04778e-06
2.73354e-06
2.93289e-06
3.46368e-06
4.09266e-06
4.8065e-06
5.58384e-06
6.42161e-06
7.31366e-06
8.42296e-06
9.50576e-06
1.09521e-05
1.28371e-05
1.56633e-05
1.80417e-05
1.8394e-05
1.72088e-05
1.39494e-05
8.94618e-06
3.79963e-06
6.12101e-06
2.24196e-06
2.53623e-06
3.25436e-06
4.13421e-06
4.98532e-06
5.81975e-06
6.68653e-06
7.55653e-06
8.43083e-06
9.37054e-06
1.0432e-05
1.20446e-05
1.40888e-05
1.69968e-05
1.83776e-05
1.75189e-05
1.472e-05
9.58606e-06
3.95322e-06
1.0972e-05
2.13821e-06
2.66033e-06
3.59575e-06
4.64387e-06
5.72274e-06
6.63865e-06
7.48973e-06
8.31114e-06
9.06859e-06
9.77558e-06
1.04668e-05
1.15084e-05
1.33013e-05
1.54668e-05
1.78815e-05
1.76249e-05
1.5521e-05
1.03488e-05
3.9903e-06
1.23421e-06
0.000116558
0.000294184
0.000330906
0.00033481
0.000335356
0.000335357
0.000335342
0.000335343
0.000335345
0.000335345
0.000335343
0.000335342
0.000335357
0.000335356
0.00033481
0.000330906
0.000294184
0.000116558
1.23421e-06
1.36973e-06
6.8167e-05
0.000219584
0.000309504
0.000330909
0.000334527
0.000335273
0.000335315
0.000335296
0.000335287
0.000335287
0.000335296
0.000335315
0.000335273
0.000334527
0.000330909
0.000309504
0.000219584
6.81671e-05
1.36973e-06
1.51338e-06
5.28962e-05
0.00017646
0.00028058
0.000322148
0.000332504
0.000334604
0.0003351
0.000335168
0.000335172