/*--------------------------------*- C++ -*----------------------------------*\
| =========                 |                                                 |
| \\      /  F ield         | OpenFOAM: The Open Source CFD Toolbox           |
|  \\    /   O peration     | Version:  2.1.0                                 |
|   \\  /    A nd           | Web:      www.OpenFOAM.org                      |
|    \\/     M anipulation  |                                                 |
\*---------------------------------------------------------------------------*/
FoamFile
{
    version     2.0;
    format      ascii;
    class       volScalarField;
    location    "0.39";
    object      omega;
}
// * * * * * * * * * * * * * * * * * * * * * * * * * * * * * * * * * * * * * //

dimensions      [0 0 -1 0 0 0 0];

internalField   nonuniform List<scalar> 
6400
(
1644.82
1645.83
1645.92
1645.82
1645.28
1645.03
1644.31
1643.96
1643.14
1642.73
1641.86
1641.36
1640.47
1639.87
1638.96
1638.25
1637.31
1636.51
1635.54
1634.64
1633.63
1632.65
1631.6
1630.55
1629.47
1628.36
1627.24
1626.07
1624.89
1623.66
1622.42
1621.13
1619.82
1618.46
1617.07
1615.62
1614.15
1612.6
1611.02
1609.35
1607.62
1605.79
1603.86
1601.8
1599.62
1597.29
1594.79
1592.1
1589.21
1586.1
1582.76
1579.15
1575.26
1570.99
1566.31
1561.13
1555.75
1550.02
1544.07
1537.78
1531.26
1524.43
1517.34
1509.94
1502.22
1494.18
1485.76
1476.99
1467.72
1457.97
1447.71
1436.86
1425.42
1413.32
1400.56
1387.11
1372.97
1358.16
1342.72
1326.7
1310.13
1293.03
1275.21
1255.98
1234.69
1212.22
1187.5
1159.75
1127.5
1088.51
1039.22
973.641
884.354
764.799
611.663
538.003
565.98
735.255
892.969
942.852
689.978
690.147
691.352
692.28
693.624
694.96
696.351
697.895
699.347
701.018
702.549
704.312
705.937
707.779
709.506
711.424
713.257
715.251
717.192
719.268
721.318
723.483
725.649
727.916
730.208
732.595
735.03
737.56
740.156
742.847
745.62
748.491
751.459
754.535
757.723
761.034
764.476
768.063
771.776
775.631
779.631
783.785
788.101
792.586
797.25
802.099
807.145
812.393
817.857
823.543
829.465
835.636
842.045
848.701
855.613
862.778
870.283
878.111
886.311
894.874
903.855
913.258
923.133
933.5
944.41
955.906
967.901
980.369
993.413
1007.18
1021.65
1036.92
1053.02
1070.03
1088.02
1107.07
1127.27
1148.73
1171.56
1195.93
1222.03
1250.1
1279.72
1310.12
1342.22
1374.95
1407.89
1439.8
1469.43
1495.16
1513.82
1522.4
1524.12
1509.79
1474.45
1395.19
1285.17
1150.82
1005.85
848.251
500.984
504.097
505.58
508.606
510.608
513.672
515.995
519.101
521.673
524.842
527.634
530.892
533.891
537.26
540.463
543.967
547.375
551.035
554.649
558.474
562.295
566.3
570.334
574.535
578.793
583.202
587.687
592.321
597.051
601.927
606.917
612.057
617.326
622.75
628.315
634.041
639.92
645.962
652.213
658.643
665.27
672.108
679.166
686.455
693.984
701.765
709.81
718.128
726.73
735.624
744.817
754.309
764.121
774.257
784.733
795.563
806.778
818.386
830.411
842.861
855.761
869.117
882.948
897.259
912.061
927.352
943.181
959.573
976.425
993.634
1011.2
1029.04
1047.12
1065.38
1083.78
1102.28
1120.84
1139.46
1158.13
1176.87
1195.7
1214.65
1233.73
1252.97
1272.36
1291.69
1310.79
1329.15
1346.09
1360.45
1368.35
1371.19
1364.76
1338.61
1290.1
1210.38
1102.02
960.799
797.271
628.064
451.832
456.761
458.943
463.3
466.065
470.399
473.579
477.917
481.438
485.825
489.644
494.123
498.218
502.826
507.187
511.955
516.579
521.535
526.424
531.595
536.759
542.168
547.612
553.274
559.001
564.927
570.942
577.144
583.455
589.947
596.565
603.364
610.304
617.425
624.701
632.161
639.789
647.606
655.584
663.766
672.134
680.684
689.415
698.327
707.412
716.671
726.092
735.673
745.402
755.273
765.274
775.396
785.63
795.967
806.393
816.906
827.495
838.152
848.864
859.622
870.412
881.223
892.036
902.841
913.608
924.319
934.989
945.604
956.134
966.563
976.859
987.01
996.959
1006.65
1016.06
1025.09
1033.7
1041.75
1049.18
1055.82
1061.53
1066.13
1069.13
1070.5
1070.81
1068.29
1063.45
1055.42
1044.01
1028.39
1008
981.829
948.652
906.681
853.906
788.529
712.033
629.099
552.92
496.645
440.57
446.574
449.18
454.395
457.668
462.837
466.581
471.729
475.847
481.016
485.452
490.683
495.4
500.725
505.699
511.144
516.356
521.938
527.377
533.115
538.773
544.675
550.542
556.611
562.676
568.914
575.173
581.579
588.015
594.576
601.174
607.878
614.62
621.45
628.317
635.255
642.225
649.247
656.292
663.371
670.46
677.575
684.687
691.806
698.907
705.996
713.05
720.072
727.04
733.956
740.803
747.577
754.265
760.863
767.345
773.73
780
786.131
792.086
797.844
803.374
808.644
813.62
818.266
822.545
826.418
829.842
832.776
835.17
836.983
837.99
838.407
838.443
837.198
835.471
832.562
828.93
824.113
818.388
811.446
803.445
794.184
783.757
772.124
759.323
745.276
730.185
713.891
696.549
677.962
658.115
636.633
613.382
587.632
558.734
527.535
495.15
465.326
444.235
432.585
430.766
436.653
439.178
444.247
447.359
452.35
455.853
460.757
464.546
469.386
473.395
478.194
482.377
487.155
491.478
496.248
500.68
505.45
509.968
514.738
519.319
524.09
528.713
533.477
538.123
542.869
547.519
552.292
556.992
561.77
566.483
571.236
575.923
580.619
585.24
589.841
594.355
598.82
603.182
607.466
611.629
615.684
619.585
623.357
626.942
630.367
633.576
636.591
639.359
641.895
644.152
646.139
647.81
649.171
650.179
650.888
651.232
651.348
651.114
650.378
649.314
647.756
645.809
643.371
640.506
637.158
633.366
629.104
624.399
619.245
613.663
607.704
601.379
594.695
587.728
580.438
572.931
565.155
557.273
549.219
541.092
532.896
524.716
516.549
508.461
500.413
492.337
484.228
476.169
468.016
459.794
451.336
442.615
433.445
423.967
414.639
406.894
403.192
402.16
402.142
400.69
405.417
407.421
411.443
413.827
417.763
420.373
424.188
426.941
430.63
433.474
437.042
439.935
443.388
446.298
449.637
452.534
455.758
458.617
461.719
464.514
467.488
470.178
472.982
475.543
478.153
480.554
482.999
485.24
487.464
489.479
491.427
493.153
494.773
496.157
497.401
498.394
499.22
499.782
500.078
500.187
500.145
499.683
499.106
498.152
497.039
495.578
493.934
491.967
489.807
487.352
484.706
481.795
478.709
475.424
471.966
468.302
464.508
460.552
456.505
452.361
448.169
443.934
439.69
435.438
431.218
427.105
423.077
419.213
415.486
411.97
408.613
405.471
402.517
399.799
397.281
394.998
392.892
391.049
389.364
387.944
386.676
385.637
384.725
383.993
383.343
382.809
382.303
381.838
381.349
380.87
380.389
380.093
379.982
380.499
381.783
384.319
388.913
392.614
393.675
353.485
356.799
358.163
360.846
362.298
364.835
366.294
368.629
370.043
372.152
373.476
375.354
376.552
378.19
379.231
380.618
381.476
382.601
383.249
384.093
384.513
385.015
385.242
385.353
385.372
385.189
384.854
384.306
383.545
382.613
381.438
380.119
378.549
376.855
374.926
372.891
370.638
368.298
365.765
363.167
360.417
357.618
354.696
351.768
348.748
345.759
342.718
339.743
336.754
333.864
330.996
328.231
325.585
323.085
320.716
318.52
316.491
314.669
313.044
311.653
310.486
309.576
308.917
308.589
308.463
308.491
308.957
309.505
310.44
311.491
312.886
314.413
316.244
318.216
320.458
322.841
325.462
328.217
331.164
334.252
337.515
340.891
344.402
347.988
351.666
355.377
359.129
362.87
366.609
370.311
373.999
377.678
381.411
385.252
389.426
394.215
399.816
406.802
412.353
414.615
292.942
293.914
294.267
294.853
295.117
295.463
295.601
295.673
295.65
295.512
295.19
294.864
294.266
293.725
292.866
292.094
290.989
289.982
288.644
287.407
285.852
284.397
282.677
281.044
279.194
277.41
275.457
273.565
271.55
269.607
267.582
265.644
263.663
261.783
259.892
258.114
256.365
254.74
253.182
251.757
250.434
249.253
248.204
247.309
246.568
245.996
245.611
245.427
245.368
245.512
245.91
246.496
247.262
248.222
249.361
250.696
252.211
253.923
255.815
257.904
260.173
262.64
265.288
268.136
271.166
274.4
277.809
281.413
285.204
289.187
293.367
297.745
302.329
307.116
312.121
317.338
322.782
328.451
334.358
340.495
346.878
353.5
360.373
367.486
374.846
382.438
390.257
398.282
406.498
414.877
423.401
432.052
440.83
449.753
458.893
468.466
479.2
490.817
502.486
508.247
237.064
235.79
235.23
234.064
233.332
232.106
231.232
229.947
228.964
227.629
226.561
225.2
224.075
222.711
221.558
220.216
219.066
217.771
216.655
215.436
214.386
213.268
212.315
211.323
210.494
209.651
208.971
208.298
207.791
207.309
206.992
206.74
206.625
206.586
206.651
206.873
207.18
207.636
208.189
208.887
209.694
210.642
211.697
212.892
214.198
215.641
217.198
218.891
220.699
222.646
224.711
226.916
229.228
231.678
234.237
236.934
239.745
242.695
245.761
248.971
252.303
255.782
259.389
263.15
267.047
271.106
275.31
279.686
284.22
288.938
293.828
298.918
304.197
309.693
315.4
321.344
327.524
333.966
340.674
347.673
354.973
362.602
370.574
378.92
387.662
396.834
406.466
416.601
427.284
438.568
450.514
463.198
476.707
491.147
506.635
523.255
540.997
559.489
574.186
580.743
263.192
262.66
262.347
261.722
261.188
260.431
259.688
258.782
257.847
256.785
255.676
254.456
253.202
251.843
250.46
248.999
247.515
245.985
244.433
242.867
241.286
239.719
238.147
236.616
235.094
233.636
232.202
230.852
229.545
228.341
227.196
226.169
225.221
224.402
223.68
223.098
222.632
222.323
222.173
222.123
222.225
222.537
222.934
223.533
224.229
225.117
226.114
227.295
228.592
230.066
231.661
233.427
235.319
237.376
239.568
241.923
244.395
247.036
249.791
252.717
255.76
258.975
262.312
265.823
269.464
273.281
277.238
281.375
285.664
290.141
294.783
299.623
304.643
309.875
315.308
320.97
326.853
332.984
339.361
346.012
352.936
360.164
367.701
375.576
383.802
392.409
401.415
410.855
420.75
431.142
442.062
453.581
465.77
478.716
492.551
507.42
523.416
540.194
553.957
560.187
322.363
324.082
324.75
325.966
326.56
327.572
328.06
328.832
329.195
329.709
329.939
330.096
330.126
330.04
329.704
329.359
328.71
328.086
327.139
326.232
325.003
323.817
322.322
320.872
319.132
317.438
315.491
313.578
311.441
309.353
307.069
304.845
302.458
300.146
297.704
295.351
292.902
290.558
288.165
285.89
283.609
281.459
279.374
277.443
275.612
273.953
272.424
271.088
269.91
268.94
268.153
267.587
267.282
267.16
267.154
267.545
267.989
268.777
269.66
270.858
272.177
273.783
275.528
277.539
279.702
282.114
284.689
287.479
290.431
293.584
296.9
300.409
304.072
307.928
311.939
316.137
320.489
325.022
329.705
334.562
339.547
344.683
349.936
355.322
360.808
366.407
372.089
377.864
383.71
389.636
395.635
401.707
407.865
414.295
421.108
428.733
437.473
447.762
458.66
464.387
372.217
375.696
377.143
379.975
381.56
384.257
385.889
388.408
390.036
392.362
393.952
396.098
397.641
399.585
401.026
402.755
404.047
405.541
406.644
407.881
408.76
409.719
410.343
411.001
411.341
411.598
411.685
411.691
411.389
411.031
410.388
409.669
408.677
407.597
406.26
404.831
403.136
401.277
399.162
396.9
394.401
391.776
388.942
386.011
382.907
379.728
376.438
373.096
369.699
366.285
362.866
359.47
356.112
352.811
349.58
346.466
343.491
340.684
338.022
335.567
333.293
331.251
329.418
327.844
326.496
325.415
324.554
323.95
323.622
323.489
323.476
323.842
324.285
325.029
325.844
326.904
328.026
329.34
330.697
332.193
333.771
335.481
337.259
339.146
341.09
343.144
345.248
347.458
349.732
352.131
354.638
357.342
360.248
363.428
366.878
370.964
376.092
382.705
387.565
389.355
408.621
413.445
415.496
419.575
422.024
425.992
428.68
432.512
435.346
439.041
441.958
445.563
448.583
452.111
455.189
458.641
461.741
465.112
468.2
471.48
474.524
477.7
480.67
483.724
486.591
489.498
492.238
494.972
497.542
500.077
502.44
504.738
506.856
508.878
510.705
512.408
513.933
515.368
516.586
517.659
518.481
519.102
519.406
519.521
519.457
518.95
518.288
517.228
515.956
514.318
512.435
510.213
507.733
504.942
501.898
498.575
495.018
491.227
487.268
483.12
478.831
474.363
469.777
465.08
460.313
455.49
450.635
445.849
441.102
436.478
431.964
427.634
423.462
419.521
415.702
412.126
408.697
405.511
402.474
399.657
396.922
394.391
391.919
389.602
387.309
385.141
382.965
380.865
378.733
376.659
374.567
372.575
370.65
369.195
368.132
367.739
368.542
372.309
375.43
376.323
424.156
429.978
432.479
437.468
440.563
445.468
448.963
453.79
457.583
462.363
466.394
471.162
475.387
480.162
484.549
489.346
493.866
498.692
503.323
508.182
512.902
517.792
522.582
527.498
532.34
537.273
542.148
547.087
551.979
556.914
561.809
566.725
571.596
576.466
581.281
586.07
590.809
595.552
600.226
604.871
609.426
613.915
618.293
622.574
626.714
630.713
634.551
638.205
641.666
644.905
647.917
650.667
653.15
655.334
657.208
658.745
659.931
660.683
661.03
661.122
660.684
659.942
658.769
657.207
655.183
652.722
649.782
646.385
642.508
638.171
633.364
628.11
622.405
616.282
609.836
603.021
595.887
588.478
580.761
572.826
564.611
556.247
547.636
538.899
529.933
520.782
511.38
501.747
491.707
481.203
470.303
458.835
446.819
434.189
421.63
408.875
398.119
391.5
388.659
387.385
425.229
430.908
433.38
438.288
441.394
446.253
449.81
454.652
458.57
463.445
467.67
472.611
477.106
482.151
486.9
492.075
497.063
502.388
507.606
513.095
518.534
524.196
529.85
535.691
541.553
547.575
553.635
559.835
566.084
572.456
578.887
585.425
592.023
598.716
605.47
612.31
619.211
626.187
633.214
640.306
647.439
654.622
661.838
669.088
676.358
683.648
690.941
698.229
705.495
712.733
719.944
727.109
734.223
741.27
748.244
755.13
761.926
768.607
775.171
781.585
787.825
793.917
799.799
805.461
810.851
815.945
820.693
825.064
829.005
832.485
835.45
837.859
839.658
840.601
840.971
840.939
839.491
837.599
834.373
830.379
825.017
818.604
810.704
801.481
790.602
778.16
763.986
747.915
729.984
709.927
687.667
662.774
634.955
603.698
569.841
532.84
495.683
460.592
435.404
418.725
433.479
438.023
440.047
444.075
446.647
450.646
453.602
457.597
460.858
464.887
468.411
472.517
476.286
480.505
484.51
488.871
493.109
497.637
502.111
506.829
511.545
516.475
521.444
526.607
531.84
537.257
542.767
548.452
554.248
560.212
566.302
572.56
578.958
585.53
592.258
599.17
606.256
613.536
620.99
628.64
636.474
644.507
652.728
661.145
669.749
678.556
687.593
696.857
706.369
716.104
726.024
736.145
746.441
756.914
767.544
778.323
789.239
800.27
811.412
822.641
833.957
845.343
856.794
868.303
879.859
891.45
903.054
914.655
926.214
937.7
949.159
960.545
971.856
983.049
994.113
1004.98
1015.57
1025.88
1035.74
1045.12
1053.8
1061.68
1068.49
1074
1077.35
1078.77
1078.91
1074.4
1067.05
1054.28
1036.33
1011.04
977.406
932.939
877.323
807.437
725.253
634.518
553.238
488.463
480.912
483.67
485.004
487.739
489.56
492.332
494.444
497.252
499.588
502.452
504.987
507.934
510.657
513.702
516.6
519.759
522.832
526.122
529.374
532.811
536.249
539.848
543.477
547.253
551.084
555.051
559.092
563.265
567.529
571.924
576.418
581.047
585.792
590.674
595.682
600.832
606.114
611.538
617.149
622.933
628.916
635.101
641.507
648.147
655.044
662.196
669.588
677.241
685.145
693.332
701.838
710.663
719.833
729.354
739.237
749.489
760.133
771.175
782.636
794.53
806.882
819.709
833.04
846.914
861.335
876.333
891.913
908.097
924.888
942.311
960.421
978.886
997.867
1017.22
1036.95
1056.94
1077.16
1097.55
1118.07
1138.7
1159.4
1180.17
1200.96
1221.8
1242.76
1263.75
1284.58
1304.69
1323.6
1339.93
1349.74
1353.45
1348.58
1321.12
1271.3
1196.09
1093.14
963.575
802.484
630.343
664.306
664.257
665.289
666.049
667.227
668.378
669.596
670.943
672.211
673.675
675.015
676.563
677.987
679.606
681.123
682.81
684.424
686.181
687.895
689.728
691.542
693.457
695.373
697.375
699.397
701.495
703.629
705.836
708.095
710.431
712.834
715.325
717.898
720.567
723.333
726.208
729.201
732.323
735.558
738.923
742.421
746.061
749.852
753.798
757.91
762.189
766.646
771.288
776.127
781.175
786.447
791.95
797.701
803.71
809.997
816.582
823.456
830.647
838.168
846.032
854.257
862.846
871.814
881.294
891.241
901.741
912.776
924.423
936.685
949.629
963.032
977.318
992.325
1008.26
1025.08
1042.94
1061.86
1081.95
1103.3
1126.01
1150.17
1175.91
1203.34
1232.64
1263.85
1295.63
1328.19
1359.84
1389.05
1413.5
1427.48
1432.63
1430.42
1414.21
1382.29
1321.43
1233.42
1122.31
997.847
848.99
1599.89
1600.63
1600.64
1600.23
1599.65
1599.19
1598.37
1597.89
1596.98
1596.46
1595.51
1594.91
1593.96
1593.27
1592.31
1591.54
1590.55
1589.68
1588.67
1587.71
1586.65
1585.6
1584.49
1583.36
1582.19
1580.99
1579.78
1578.52
1577.26
1575.96
1574.66
1573.31
1571.95
1570.55
1569.14
1567.69
1566.23
1564.72
1563.2
1561.64
1560.06
1558.44
1556.8
1555.1
1553.37
1551.57
1549.71
1547.74
1545.69
1543.5
1541.2
1538.75
1536.16
1533.41
1530.52
1527.5
1524.31
1520.89
1517.2
1513.12
1508.61
1503.48
1497.69
1491.69
1485.24
1478.6
1471.53
1464.21
1456.4
1448.24
1439.6
1430.49
1420.63
1410.22
1398.93
1386.9
1373.85
1359.87
1344.71
1328.43
1310.85
1292
1271.73
1250.06
1226.81
1201.74
1173.81
1141.18
1102.21
1055.08
994.718
915.175
814.599
704.227
584.6
535.362
556.088
721.901
886.805
939.955
865.884
324.739
176.607
119.705
95.2671
82.3316
76.1282
73.1602
72.188
74.0325
80.9521
97.4518
118.877
156.206
207.092
271.538
348.966
444.013
560.308
610.248
693.168
329.183
219.15
154.34
121.763
104.137
92.9367
87.466
85.5399
87.5336
99.6524
115.584
144.554
184.733
237.932
299.931
372.355
459.534
544.769
568.541
544.601
318.745
242.279
180.164
147.63
125.463
111.882
105.98
104.312
108.67
120.213
144.12
174.712
218.749
269.514
326.149
390.24
462.614
514.431
522.643
444.647
305.184
256.301
198.171
171.205
146.162
134.09
128.451
126.9
131.255
154.146
177.704
213.944
256.416
302.049
352.229
406.546
455.32
474.249
474.476
388.213
300.436
266.305
214.687
192.002
168.737
159.191
155.461
155.216
175.063
195.458
222.844
257.359
292.805
330.789
370.748
410.011
432.644
426.47
428.035
360.101
300.381
273.846
232.038
214.541
201.054
197.45
197.434
211.688
227.873
247.886
272.638
299.428
326.769
355.845
383.486
398.884
396.835
368.031
383.66
352.337
312.862
296.07
273.019
265.95
263.426
263.063
269.898
279.134
291.167
305.986
322.34
339.224
355.535
369.799
376.606
374.918
343.747
300.808
349.872
386.921
375.264
371.445
361.659
356.9
351.376
349.171
348.639
350.797
355.102
359.399
364.165
366.782
367.782
366.305
357.934
331.178
277.728
232.734
331.139
499.101
483.863
476.472
457.558
448.661
434.31
427.267
417.583
412.385
404.323
397.844
388.67
378.132
365.445
349.153
316.696
268.332
203.81
161.494
325.044
563.272
541.872
532.21
509.142
498.092
479.439
469.154
452.312
440.742
423.823
409.654
390.422
370.337
341.664
302.124
251.763
197.952
143.488
117.134
328.367
544.408
524.252
515.194
493.436
483.047
465.647
456.325
441.354
431.156
416.493
403.982
387.426
369.679
345.101
309.383
259.617
203.54
143.792
114.642
326.841
457.642
446.449
440.837
424.879
417.583
406.627
401.364
395.692
392.891
389.455
385.975
381.296
374.264
364.773
353.397
326.935
279.327
211.989
170.871
324.614
358.907
343.79
338.798
330.848
327.45
324.344
323.503
326.142
331.011
338.545
346.563
354.804
362.474
366.293
367.641
363.244
339.671
287.078
239.456
325.881
336.656
296.776
279.242
254.041
245.644
242.677
242.485
250.86
261.574
275.57
292.904
311.724
331.956
352.088
370.563
379.753
380.95
352.353
307.771
335.614
346.761
288.16
262.266
221.024
203.61
189.105
184.76
184.277
198.067
215.334
236.805
263.122
291.937
321.66
353.771
385.628
403.672
404.801
374.449
370.26
374.482
289.294
256.013
206.249
184.3
161.468
151.812
147.733
147.134
165.167
186.544
214.605
250.438
287.646
327.708
370.144
413.987
438.701
433.754
420.36
429.551
293.98
246.199
189.993
163.818
140.052
128.543
123.195
121.741
125.952
147.099
171.295
207.636
251.207
298.632
350.848
407.676
460.328
480.534
471.651
531.557
308.204
233.675
173.707
141.914
120.369
107.409
101.728
100.15
104.688
116.018
138.996
169.923
213.841
265.756
324.063
390.652
467.055
518.659
523.071
686.639
318.087
211.239
148.246
116.984
99.8543
89.5119
84.4164
82.6298
84.6737
96.1571
112.073
140.562
180.76
234.227
297.332
371.241
461.073
548.523
570.862
863.372
313.497
170.686
115.731
92.0717
79.5876
73.1966
70.4906
69.707
72.0644
78.758
94.3816
116.005
152.726
203.75
268.882
347.692
444.747
563.132
613.241
646.053
32.1745
12.7362
11.3229
11.19
11.171
11.1705
11.1708
11.1706
11.1705
11.1705
11.1706
11.1708
11.1705
11.171
11.19
11.3229
12.7362
32.1745
646.054
672.74
55.0628
17.0386
12.087
11.3039
11.1803
11.1547
11.1529
11.1534
11.1536
11.1536
11.1534
11.1529
11.1547
11.1803
11.3039
12.087
17.0386
55.0627
672.74
698.453
71.0937
21.1542
13.3033
11.5874
11.2261
11.1552
11.1382
11.1358
11.1355
11.1355
11.1358
11.1382
11.1552
11.2261
11.5874
13.3033
21.1542
71.0936
698.453
723.137
85.8505
25.1369
14.6461
12.0431
11.3371
11.1684
11.1265
11.1183
11.1171
11.1171
11.1183
11.1265
11.1684
11.3371
12.0431
14.6461
25.1369
85.8503
723.136
746.743
101.867
29.2065
16.0658
12.5885
11.5234
11.2064
11.1273
11.105
11.1003
11.1003
11.105
11.1273
11.2064
11.5234
12.5885
16.0658
29.2065
101.867
746.743
769.31
118.432
33.3669
17.5405
13.1971
11.7624
11.283
11.1366
11.0944
11.0843
11.0843
11.0944
11.1366
11.283
11.7624
13.1971
17.5405
33.3669
118.432
769.31
790.728
134.968
37.5676
19.0511
13.8502
12.0431
11.3872
11.16
11.0918
11.0718
11.0718
11.0918
11.16
11.3872
12.0431
13.8502
19.0511
37.5677
134.968
790.729
810.982
151.251
41.7801
20.5851
14.5352
12.3571
11.5178
11.2031
11.0955
11.0625
11.0625
11.0955
11.2031
11.5178
12.3571
14.5352
20.5852
41.7802
151.251
810.982
829.955
167.079
45.9691
22.1303
15.2422
12.6968
11.6708
11.2604
11.1065
11.0594
11.0594
11.1065
11.2604
11.6708
12.6968
15.2422
22.1303
45.9692
167.079
829.955
847.653
182.401
50.1208
23.6797
15.9647
13.0568
11.8431
11.3324
11.129
11.0619
11.0619
11.129
11.3324
11.8431
13.0568
15.9648
23.6797
50.1209
182.401
847.653
863.991
197.096
54.2105
25.2247
16.6968
13.4321
12.0315
11.4179
11.1609
11.0697
11.0697
11.1609
11.4179
12.0315
13.4321
16.6968
25.2248
54.2107
197.097
863.991
879.013
211.155
58.2321
26.7619
17.4347
13.8193
12.2335
11.5156
11.2021
11.0862
11.0862
11.2021
11.5156
12.2335
13.8193
17.4347
26.7619
58.2323
211.155
879.013
892.663
224.491
62.1652
28.2844
18.1745
14.2149
12.4467
11.6242
11.2528
11.1113
11.1113
11.2528
11.6242
12.4467
14.2149
18.1745
28.2845
62.1654
224.492
892.663
905.026
237.119
66.0089
29.7907
18.9141
14.6169
12.6691
11.7427
11.3126
11.1446
11.1446
11.3126
11.7427
12.6691
14.617
18.9141
29.7908
66.0091
237.119
905.026
916.067
248.97
69.7458
31.2754
19.6506
15.023
12.899
11.8698
11.381
11.1861
11.1861
11.381
11.8698
12.899
15.023
19.6506
31.2754
69.7459
248.971
916.067
925.904
260.09
73.378
32.7379
20.383
15.4319
13.1352
12.0048
11.4576
11.2357
11.2357
11.4576
12.0048
13.1352
15.4319
20.383
32.738
73.3782
260.089
925.904
934.512
270.424
76.8907
34.1734
21.1088
15.8418
13.3762
12.1466
11.5418
11.293
11.293
11.5418
12.1466
13.3762
15.8417
21.1088
34.1734
76.8908
270.424
934.512
942.037
280.036
80.289
35.5825
21.8276
16.2519
13.6211
12.2944
11.6331
11.3579
11.3579
11.6331
12.2944
13.6211
16.2519
21.8277
35.5826
80.2893
280.035
942.036
948.451
288.886
83.5604
36.9607
22.5374
16.6609
13.8691
12.4475
11.7309
11.4299
11.4299
11.7309
12.4475
13.8691
16.6609
22.5374
36.9606
83.5603
288.887
948.45
953.925
297.051
86.7122
38.3097
23.2383
17.0685
14.1194
12.6053
11.8348
11.5085
11.5085
11.8348
12.6053
14.1194
17.0685
23.2384
38.3099
86.7125
297.05
953.924
958.416
304.505
89.7341
39.6249
23.9283
17.4735
14.3712
12.7671
11.9442
11.5934
11.5934
11.9442
12.7671
14.3712
17.4734
23.9282
39.6248
89.734
304.506
958.416
962.12
311.326
92.6354
40.9092
24.608
17.8757
14.6242
12.9325
12.0587
11.684
11.684
12.0587
12.9325
14.6242
17.8757
24.6081
40.9095
92.6358
311.325
962.119
964.967
317.505
95.4076
42.1579
25.2755
18.2741
14.8776
13.1009
12.1777
11.78
11.78
12.1777
13.1009
14.8776
18.2741
25.2754
42.1578
95.4075
317.506
964.966
967.18
323.103
98.0616
43.375
25.9318
18.669
15.1313
13.2719
12.3009
11.8809
11.8809
12.3009
13.2719
15.1313
18.669
25.9319
43.3753
98.0621
323.102
967.179
968.649
328.147
100.59
44.5554
26.5749
19.0593
15.3846
13.445
12.4277
11.9862
11.9862
12.4277
13.445
15.3846
19.0592
26.5748
44.5553
100.59
328.147
968.648
969.635
332.654
103.005
45.7043
27.2063
19.4452
15.6374
13.62
12.5579
12.0955
12.0955
12.5579
13.62
15.6374
19.4453
27.2065
45.7046
103.005
332.654
969.634
969.97
336.704
105.3
46.8161
27.8239
19.826
15.8892
13.7964
12.691
12.2085
12.2085
12.691
13.7964
15.8892
19.826
27.8238
46.8159
105.299
336.703
969.969
969.834
340.242
107.488
47.8974
28.4296
20.2021
16.14
13.9741
12.8267
12.3248
12.3248
12.8267
13.9741
16.14
20.2022
28.4298
47.8977
107.488
340.242
969.833
969.425
343.402
109.561
48.9415
29.0211
20.5725
16.3892
14.1525
12.9646
12.4441
12.4441
12.9646
14.1525
16.3892
20.5724
29.021
48.9413
109.56
343.4
969.424
968.579
346.141
111.538
49.9568
29.6007
20.9379
16.637
14.3316
13.1045
12.5659
12.5659
13.1045
14.3316
16.637
20.9379
29.6009
49.957
111.539
346.141
968.578
967.379
348.534
113.406
50.9353
30.1659
21.2973
16.8828
14.511
13.2461
12.69
12.69
13.2461
14.511
16.8827
21.2972
30.1657
50.9351
113.405
348.531
967.378
965.891
350.552
115.188
51.8871
30.7195
21.6515
17.1267
14.6907
13.389
12.8161
12.8161
13.389
14.6907
17.1268
21.6516
30.7197
51.8873
115.188
350.553
965.89
964.155
352.265
116.864
52.803
31.2587
21.9995
17.3684
14.8702
13.5331
12.944
12.944
13.5331
14.8702
17.3684
21.9994
31.2585
52.8027
116.864
352.262
964.154
962.205
353.658
118.465
53.6942
31.7868
22.3423
17.608
15.0495
13.6782
13.0733
13.0733
13.6782
15.0495
17.6081
22.3423
31.787
53.6944
118.465
353.659
962.204
960.074
354.766
119.965
54.5508
32.3006
22.6787
17.8451
15.2284
13.8239
13.2039
13.2039
13.8239
15.2283
17.845
22.6786
32.3004
54.5505
119.965
354.763
960.073
957.789
355.615
121.399
55.3852
32.8038
23.0099
18.0798
15.4067
13.9702
13.3355
13.3355
13.9702
15.4067
18.0799
23.01
32.804
55.3853
121.398
355.616
957.788
955.382
356.175
122.736
56.1861
33.293
23.3347
18.3118
15.5842
14.1168
13.468
13.468
14.1168
15.5842
18.3118
23.3346
33.2928
56.1858
122.736
356.172
955.381
952.87
356.557
124.016
56.9675
33.7724
23.6543
18.5414
15.761
14.2636
13.6011
13.6011
14.2636
15.761
18.5415
23.6545
33.7725
56.9675
124.015
356.558
952.869
950.286
356.613
125.204
57.7167
34.2381
23.9677
18.7681
15.9367
14.4103
13.7346
13.7346
14.4103
15.9366
18.768
23.9675
34.2378
57.7166
125.204
356.611
950.286
947.635
356.52
126.341
58.4493
34.6946
24.2759
18.9922
16.1114
14.557
13.8684
13.8684
14.557
16.1115
18.9923
24.2761
34.6949
58.4493
126.34
356.519
947.634
944.958
356.292
127.392
59.1511
35.1381
24.578
19.2134
16.2848
14.7033
14.0024
14.0024
14.7033
16.2848
19.2132
24.5777
35.1377
59.1509
127.393
356.29
944.958
942.243
355.82
128.406
59.8394
35.5733
24.8751
19.4319
16.4571
14.8493
14.1364
14.1364
14.8494
16.4572
19.4321
24.8754
35.5736
59.8394
128.404
355.824
942.242
939.539
355.244
129.335
60.4987
35.9959
25.1662
19.6474
16.628
14.9948
14.2703
14.2703
14.9947
16.6279
19.6472
25.1658
35.9954
60.4985
129.337
355.238
939.54
936.82
354.505
130.251
61.149
36.4113
25.4527
19.8603
16.7975
15.1397
14.404
14.404
15.1398
16.7976
19.8605
25.4531
36.4118
61.1489
130.248
354.51
936.819
934.145
353.722
131.099
61.7743
36.8149
25.7334
20.0701
16.9655
15.2839
14.5373
14.5373
15.2838
16.9653
20.0699
25.7328
36.8142
61.7742
131.102
353.716
934.146
931.466
352.872
131.986
62.3993
37.2125
26.0097
20.2774
17.132
15.4273
14.6702
14.6703
15.4274
17.1322
20.2777
26.0103
37.2133
62.3994
131.983
352.876
931.464
928.859
352.024
132.869
63.0127
37.5999
26.2805
20.4816
17.2969
15.5699
14.8026
14.8025
15.5698
17.2967
20.4812
26.2798
37.5988
63.0124
132.873
352.02
928.861
926.333
351.164
133.826
63.6387
37.9833
26.5474
20.6833
17.4603
15.7116
14.9344
14.9344
15.7117
17.4605
20.6837
26.5483
37.9846
63.6392
133.821
351.166
926.331
923.871
350.422
134.84
64.2638
38.3588
26.8093
20.882
17.622
15.8522
15.0654
15.0654
15.8521
17.6217
20.8815
26.8084
38.3573
64.263
134.844
350.42
923.874
921.484
349.753
135.976
64.912
38.7329
27.0679
21.0783
17.7821
15.9919
15.1958
15.1959
15.992
17.7824
21.0789
27.069
38.7348
64.9133
135.972
349.755
921.482
919.155
349.293
137.189
65.565
39.1016
27.3221
21.2718
17.9404
16.1304
15.3253
15.3252
16.1303
17.9402
21.2712
27.3209
39.0996
65.5638
137.194
349.292
919.158
916.897
348.942
138.532
66.246
39.4712
27.5738
21.4631
18.0973
16.2679
15.4541
15.4541
16.2681
18.0977
21.4639
27.5753
39.4737
66.2482
138.528
348.943
916.893
914.693
348.851
139.937
66.9331
39.8374
27.8218
21.6517
18.2523
16.4041
15.5817
15.5816
16.404
18.252
21.651
27.8203
39.8349
66.9313
139.943
348.853
914.696
912.56
348.916
141.463
67.6494
40.2064
28.0679
21.8384
18.4059
16.5394
15.7086
15.7087
16.5396
18.4065
21.8394
28.07
40.2099
67.653
141.46
348.918
912.555
910.479
349.098
143.022
68.3711
40.5735
28.3111
22.0226
18.5577
16.6731
15.8342
15.8342
16.6729
18.5572
22.0217
28.3093
40.5703
68.3684
143.028
349.101
910.482
908.471
349.471
144.675
69.1203
40.9447
28.5532
22.2052
18.7081
16.806
15.9592
15.9593
16.8063
18.7088
22.2066
28.5559
40.9494
69.1259
144.676
349.481
908.464
906.513
349.99
146.342
69.873
41.315
28.793
22.3855
18.8567
16.9373
16.0827
16.0826
16.937
18.8562
22.3844
28.7907
41.3111
69.8695
146.347
349.988
906.515
904.629
350.63
148.077
70.651
41.6902
29.0321
22.5644
19.0041
17.0677
16.2056
16.2058
17.0682
19.0051
22.5664
29.0358
41.6965
70.6594
148.081
350.646
904.62
902.794
351.376
149.806
71.4301
42.065
29.2695
22.7414
19.1497
17.1965
16.3268
16.3268
17.1962
19.1491
22.74
29.2668
42.0606
71.4262
149.811
351.379
902.795
901.035
352.209
151.58
72.2316
42.4452
29.5067
22.9171
19.2942
17.3245
16.4477
16.4479
17.3252
19.2956
22.9198
29.5117
42.4538
72.2439
151.592
352.231
901.022
899.321
353.116
153.335
73.0313
42.8251
29.7426
23.0911
19.437
17.4508
16.5666
16.5665
17.4504
19.4362
23.0895
29.7396
42.8204
73.0277
153.339
353.127
899.319
897.684
354.081
155.115
73.8509
43.2104
29.9786
23.264
19.5787
17.5764
16.6853
16.6856
17.5774
19.5808
23.2679
29.9856
43.2224
73.8689
155.138
354.116
897.665
896.089
355.096
156.864
74.6654
43.5954
30.2137
23.4356
19.7188
17.7001
16.8017
16.8017
17.6998
19.7181
23.4339
30.2106
43.5911
74.6639
156.872
355.121
896.082
894.571
356.143
158.624
75.4974
43.9856
30.4488
23.6061
19.858
17.8234
16.9184
16.9188
17.8249
19.861
23.6117
30.4589
44.0029
75.524
158.662
356.199
894.543
893.092
357.219
160.343
76.3209
44.3755
30.6836
23.7754
19.9955
17.9447
17.0324
17.0324
17.9445
19.995
23.7741
30.6809
44.3727