/*--------------------------------*- C++ -*----------------------------------*\
| =========                 |                                                 |
| \\      /  F ield         | OpenFOAM: The Open Source CFD Toolbox           |
|  \\    /   O peration     | Version:  2.1.0                                 |
|   \\  /    A nd           | Web:      www.OpenFOAM.org                      |
|    \\/     M anipulation  |                                                 |
\*---------------------------------------------------------------------------*/
FoamFile
{
    version     2.0;
    format      ascii;
    class       volScalarField;
    location    "0.39";
    object      p;
}
// * * * * * * * * * * * * * * * * * * * * * * * * * * * * * * * * * * * * * //

dimensions      [1 -1 -2 0 0 0 0];

internalField   nonuniform List<scalar> 
6400
(
99998.5
99995.8
99993.8
99992.2
99990.7
99989.3
99987.9
99986.5
99985.1
99983.6
99982.1
99980.5
99978.9
99977.2
99975.4
99973.6
99971.7
99969.7
99967.6
99965.5
99963.3
99961
99958.7
99956.2
99953.7
99951.1
99948.4
99945.6
99942.7
99939.8
99936.7
99933.5
99930.3
99926.9
99923.5
99919.9
99916.2
99912.4
99908.5
99904.4
99900.3
99896
99891.6
99887
99882.3
99877.4
99872.4
99867.2
99861.8
99856.2
99850.5
99844.6
99838.4
99832.1
99825.5
99818.7
99811.7
99804.5
99797
99789.3
99781.3
99773
99764.5
99755.7
99746.5
99737
99727.2
99717.1
99706.5
99695.6
99684.3
99672.5
99660.3
99647.7
99634.5
99620.8
99606.6
99591.8
99576.4
99560.4
99543.6
99526.1
99507.6
99488.2
99467.5
99445.4
99421.5
99395.5
99367.1
99336
99302.4
99267.4
99233.1
99200.6
99168.1
99135
99077.8
98962.6
98591.4
96983.1
99996.9
99995.1
99993.4
99991.8
99990.3
99988.9
99987.5
99986.1
99984.7
99983.2
99981.7
99980.1
99978.5
99976.8
99975
99973.2
99971.3
99969.3
99967.2
99965.1
99962.9
99960.6
99958.2
99955.8
99953.2
99950.6
99947.9
99945.1
99942.2
99939.3
99936.2
99933
99929.8
99926.4
99922.9
99919.4
99915.7
99911.9
99907.9
99903.9
99899.7
99895.4
99891
99886.4
99881.7
99876.8
99871.8
99866.6
99861.2
99855.7
99849.9
99844
99837.8
99831.5
99825
99818.2
99811.2
99804
99796.5
99788.8
99780.9
99772.6
99764.1
99755.3
99746.2
99736.7
99726.9
99716.8
99706.3
99695.4
99684.1
99672.4
99660.2
99647.6
99634.5
99620.8
99606.7
99591.9
99576.5
99560.5
99543.7
99526.2
99507.8
99488.3
99467.6
99445.6
99421.8
99395.9
99367.7
99336.9
99303.5
99268.7
99234.4
99202.2
99174.5
99145.4
99093.8
98992.8
98692
98137.5
99995.3
99994.3
99992.9
99991.4
99990
99988.7
99987.3
99985.9
99984.5
99983
99981.5
99979.9
99978.3
99976.6
99974.8
99973
99971.1
99969.1
99967
99964.9
99962.7
99960.4
99958
99955.6
99953
99950.4
99947.7
99944.9
99942.1
99939.1
99936
99932.9
99929.6
99926.2
99922.8
99919.2
99915.5
99911.7
99907.8
99903.8
99899.6
99895.3
99890.9
99886.4
99881.6
99876.8
99871.8
99866.6
99861.3
99855.7
99850
99844.1
99838.1
99831.8
99825.3
99818.6
99811.6
99804.4
99797
99789.3
99781.4
99773.2
99764.7
99756
99746.9
99737.5
99727.8
99717.7
99707.3
99696.5
99685.3
99673.7
99661.6
99649.1
99636.1
99622.6
99608.5
99593.9
99578.6
99562.7
99546.1
99528.7
99510.3
99491
99470.4
99448.5
99424.8
99399.2
99371.4
99341.2
99309.1
99276.1
99244.1
99215.6
99192.2
99164.4
99128.7
99066.6
98910.3
99000.2
99993.4
99993.3
99992.4
99991.2
99989.9
99988.6
99987.3
99986
99984.6
99983.1
99981.6
99980
99978.4
99976.7
99974.9
99973.1
99971.2
99969.2
99967.2
99965.1
99962.9
99960.6
99958.2
99955.8
99953.3
99950.7
99948
99945.2
99942.4
99939.4
99936.4
99933.2
99930
99926.7
99923.2
99919.7
99916
99912.2
99908.3
99904.3
99900.2
99895.9
99891.5
99887
99882.3
99877.5
99872.5
99867.4
99862.1
99856.6
99851
99845.1
99839.1
99832.9
99826.4
99819.7
99812.8
99805.7
99798.3
99790.7
99782.8
99774.7
99766.3
99757.6
99748.6
99739.2
99729.6
99719.6
99709.2
99698.4
99687.3
99675.7
99663.6
99651.1
99638.1
99624.6
99610.5
99595.8
99580.5
99564.5
99547.8
99530.2
99511.8
99492.2
99471.5
99449.4
99425.6
99400.1
99372.6
99343.2
99312.6
99282.2
99254.2
99230.8
99213.6
99201
99195.5
99200.1
99226.6
99647
99991.2
99992.3
99991.9
99991
99990
99988.8
99987.6
99986.2
99984.9
99983.4
99982
99980.4
99978.8
99977.1
99975.3
99973.5
99971.6
99969.7
99967.7
99965.6
99963.4
99961.1
99958.8
99956.4
99953.9
99951.4
99948.7
99945.9
99943.1
99940.2
99937.1
99934
99930.8
99927.5
99924.1
99920.5
99916.9
99913.1
99909.3
99905.3
99901.2
99896.9
99892.6
99888.1
99883.4
99878.6
99873.7
99868.5
99863.3
99857.8
99852.2
99846.3
99840.3
99834.1
99827.7
99821
99814.1
99807
99799.7
99792
99784.2
99776
99767.6
99758.9
99749.9
99740.5
99730.9
99720.8
99710.4
99699.6
99688.4
99676.7
99664.6
99652.1
99639
99625.4
99611.2
99596.4
99580.9
99564.8
99547.9
99530.2
99511.5
99491.8
99470.9
99448.6
99424.8
99399.5
99372.5
99344.3
99315.8
99288.9
99266
99249.6
99243.6
99253.6
99290.6
99382.7
99580.9
100157
99989.1
99991.3
99991.5
99991
99990.1
99989.1
99988
99986.7
99985.4
99984
99982.5
99981
99979.4
99977.7
99976
99974.2
99972.3
99970.3
99968.3
99966.2
99964.1
99961.8
99959.5
99957.1
99954.7
99952.1
99949.4
99946.7
99943.9
99941
99938
99934.8
99931.6
99928.3
99924.9
99921.4
99917.8
99914
99910.2
99906.2
99902.1
99897.8
99893.4
99888.9
99884.3
99879.5
99874.5
99869.4
99864.1
99858.6
99852.9
99847.1
99841.1
99834.8
99828.4
99821.7
99814.8
99807.6
99800.3
99792.6
99784.7
99776.6
99768.1
99759.4
99750.3
99741
99731.3
99721.2
99710.7
99699.9
99688.7
99677
99664.8
99652.2
99639.1
99625.4
99611.1
99596.2
99580.7
99564.4
99547.3
99529.4
99510.5
99490.6
99469.5
99447.1
99423.3
99398.1
99371.8
99344.9
99318.6
99295.4
99278.2
99270.1
99278.5
99315.6
99402.1
99586.9
99921.6
100557
99987.2
99990.3
99991.1
99990.9
99990.3
99989.4
99988.4
99987.2
99985.9
99984.5
99983
99981.5
99979.9
99978.2
99976.5
99974.7
99972.8
99970.9
99968.9
99966.8
99964.6
99962.4
99960
99957.7
99955.2
99952.6
99950
99947.2
99944.4
99941.5
99938.4
99935.3
99932.1
99928.8
99925.4
99921.8
99918.2
99914.4
99910.5
99906.5
99902.4
99898.2
99893.8
99889.2
99884.5
99879.7
99874.7
99869.6
99864.3
99858.8
99853.1
99847.2
99841.2
99834.9
99828.5
99821.8
99814.9
99807.7
99800.3
99792.7
99784.8
99776.6
99768.2
99759.4
99750.4
99741
99731.3
99721.2
99710.7
99699.9
99688.6
99677
99664.8
99652.1
99639
99625.2
99610.9
99595.9
99580.3
99563.8
99546.6
99528.5
99509.4
99489.2
99467.9
99445.3
99421.5
99396.5
99370.8
99345.1
99321
99301.2
99289.4
99290
99313.5
99378.1
99514.1
99783.1
100215
100860
99985.6
99989.4
99990.6
99990.8
99990.3
99989.6
99988.6
99987.4
99986.1
99984.8
99983.3
99981.8
99980.2
99978.5
99976.8
99975
99973.1
99971.1
99969.1
99967
99964.9
99962.6
99960.3
99957.9
99955.4
99952.8
99950.1
99947.4
99944.5
99941.6
99938.5
99935.4
99932.2
99928.8
99925.4
99921.8
99918.2
99914.4
99910.5
99906.5
99902.3
99898
99893.6
99889.1
99884.4
99879.6
99874.6
99869.4
99864.1
99858.6
99852.9
99847
99841
99834.7
99828.3
99821.6
99814.7
99807.6
99800.2
99792.5
99784.7
99776.5
99768.1
99759.4
99750.3
99741
99731.3
99721.2
99710.8
99699.9
99688.7
99677
99664.8
99652.1
99638.9
99625.1
99610.7
99595.6
99579.9
99563.3
99545.9
99527.6
99508.3
99487.9
99466.3
99443.6
99419.7
99394.9
99369.7
99345
99322.6
99305.6
99298.3
99306.5
99343.5
99432.1
99610.8
99946.9
100441
101076
99984.5
99988.6
99990.2
99990.5
99990.3
99989.6
99988.6
99987.5
99986.2
99984.8
99983.4
99981.8
99980.2
99978.6
99976.8
99975
99973.1
99971.1
99969.1
99967
99964.8
99962.6
99960.2
99957.8
99955.3
99952.7
99950
99947.2
99944.3
99941.4
99938.3
99935.2
99931.9
99928.6
99925.1
99921.6
99917.9
99914.1
99910.2
99906.2
99902
99897.8
99893.4
99888.8
99884.1
99879.3
99874.3
99869.1
99863.8
99858.3
99852.7
99846.8
99840.8
99834.5
99828.1
99821.4
99814.5
99807.4
99800
99792.4
99784.6
99776.5
99768.1
99759.3
99750.3
99741
99731.3
99721.3
99710.8
99700
99688.7
99677
99664.9
99652.2
99638.9
99625.1
99610.6
99595.5
99579.6
99562.9
99545.3
99526.8
99507.3
99486.7
99464.9
99441.9
99417.9
99393.2
99368.3
99344.3
99323.2
99308
99303.8
99317.7
99363.9
99470.4
99679.9
100062
100592
101213
99983.9
99988.2
99989.9
99990.4
99990.2
99989.5
99988.6
99987.5
99986.2
99984.8
99983.4
99981.8
99980.2
99978.5
99976.7
99974.9
99973
99971
99969
99966.9
99964.7
99962.4
99960.1
99957.6
99955.1
99952.5
99949.8
99947
99944.2
99941.2
99938.2
99935
99931.8
99928.4
99925
99921.4
99917.7
99914
99910.1
99906
99901.9
99897.6
99893.2
99888.7
99884
99879.2
99874.2
99869
99863.7
99858.2
99852.6
99846.7
99840.7
99834.5
99828
99821.4
99814.5
99807.4
99800.1
99792.4
99784.6
99776.5
99768.1
99759.5
99750.5
99741.1
99731.5
99721.4
99711
99700.2
99689
99677.3
99665.1
99652.4
99639.1
99625.2
99610.7
99595.5
99579.5
99562.7
99544.9
99526.3
99506.5
99485.7
99463.6
99440.4
99416.2
99391.5
99366.7
99343.1
99322.7
99308.4
99305.6
99322.5
99374.3
99489.2
99714.1
100118
100665
101281
99983.7
99988.2
99989.9
99990.4
99990.2
99989.6
99988.6
99987.5
99986.3
99984.9
99983.4
99981.9
99980.3
99978.6
99976.8
99975
99973.1
99971.1
99969.1
99967
99964.8
99962.5
99960.2
99957.7
99955.2
99952.6
99949.9
99947.1
99944.3
99941.3
99938.3
99935.1
99931.9
99928.5
99925.1
99921.5
99917.8
99914
99910.1
99906.1
99902
99897.7
99893.3
99888.7
99884.1
99879.2
99874.2
99869.1
99863.8
99858.3
99852.7
99846.8
99840.8
99834.6
99828.2
99821.5
99814.7
99807.6
99800.3
99792.8
99784.9
99776.8
99768.4
99759.7
99750.7
99741.4
99731.8
99721.8
99711.4
99700.6
99689.3
99677.6
99665.4
99652.7
99639.4
99625.5
99610.9
99595.6
99579.5
99562.6
99544.8
99525.9
99506
99484.9
99462.7
99439.3
99414.9
99389.9
99365
99341.3
99320.9
99306.7
99303.7
99320.6
99372.7
99487.4
99711.5
100115
100661
101277
99984
99988.5
99990.1
99990.5
99990.3
99989.6
99988.7
99987.5
99986.3
99984.9
99983.5
99982
99980.4
99978.7
99977
99975.1
99973.3
99971.3
99969.3
99967.2
99965
99962.7
99960.4
99958
99955.5
99952.9
99950.2
99947.4
99944.6
99941.6
99938.6
99935.4
99932.2
99928.8
99925.4
99921.8
99918.1
99914.4
99910.5
99906.4
99902.3
99898
99893.6
99889
99884.3
99879.5
99874.5
99869.4
99864
99858.6
99852.9
99847.1
99841.1
99834.8
99828.4
99821.8
99814.9
99807.9
99800.6
99793
99785.2
99777.1
99768.7
99760
99751.1
99741.8
99732.1
99722.1
99711.8
99701
99689.7
99678
99665.8
99653.1
99639.8
99625.8
99611.2
99595.8
99579.7
99562.6
99544.6
99525.6
99505.5
99484.2
99461.7
99438
99413.3
99387.9
99362.5
99338.5
99317.4
99302.2
99297.5
99311.5
99358.4
99463.4
99670.3
100048
100577
101200
99984.9
99989
99990.4
99990.6
99990.2
99989.5
99988.5
99987.4
99986.2
99984.8
99983.4
99981.8
99980.3
99978.6
99976.9
99975.1
99973.2
99971.3
99969.3
99967.2
99965
99962.8
99960.4
99958
99955.6
99953
99950.3
99947.6
99944.7
99941.8
99938.8
99935.6
99932.4
99929.1
99925.6
99922.1
99918.4
99914.6
99910.7
99906.7
99902.6
99898.3
99893.9
99889.3
99884.6
99879.8
99874.8
99869.7
99864.3
99858.9
99853.2
99847.4
99841.3
99835.1
99828.7
99822.1
99815.2
99808.2
99800.9
99793.3
99785.5
99777.4
99769
99760.4
99751.4
99742.1
99732.5
99722.5
99712.1
99701.4
99690.1
99678.4
99666.2
99653.5
99640.2
99626.2
99611.5
99596.1
99579.8
99562.7
99544.5
99525.4
99505
99483.6
99460.8
99436.8
99411.7
99385.8
99359.8
99335
99312.8
99295.7
99287.8
99296.4
99333.3
99420.1
99595
99925.3
100417
101052
99986.5
99989.8
99990.7
99990.7
99990.1
99989.3
99988.2
99987.1
99985.8
99984.4
99983
99981.5
99979.9
99978.2
99976.5
99974.7
99972.9
99971
99968.9
99966.9
99964.7
99962.5
99960.2
99957.8
99955.3
99952.7
99950.1
99947.4
99944.5
99941.6
99938.6
99935.5
99932.3
99928.9
99925.5
99922
99918.3
99914.5
99910.7
99906.7
99902.5
99898.3
99893.9
99889.3
99884.7
99879.8
99874.9
99869.7
99864.5
99859
99853.3
99847.5
99841.5
99835.3
99828.9
99822.3
99815.5
99808.4
99801.1
99793.6
99785.8
99777.7
99769.3
99760.7
99751.7
99742.5
99732.9
99722.9
99712.5
99701.8
99690.6
99678.9
99666.7
99653.9
99640.6
99626.6
99611.9
99596.4
99580.1
99562.9
99544.7
99525.4
99504.9
99483.2
99460.2
99435.9
99410.4
99383.9
99357.1
99331.1
99307.4
99287.9
99275.7
99276.9
99300.4
99362.6
99493.8
99755.4
100182
100827
99988.4
99990.7
99991.1
99990.7
99989.9
99988.9
99987.8
99986.6
99985.2
99983.9
99982.4
99980.9
99979.3
99977.6
99975.9
99974.1
99972.3
99970.3
99968.3
99966.2
99964.1
99961.8
99959.5
99957.1
99954.6
99952.1
99949.4
99946.7
99943.9
99941
99937.9
99934.8
99931.6
99928.3
99924.9
99921.3
99917.7
99914
99910.1
99906.1
99902
99897.8
99893.4
99888.9
99884.2
99879.4
99874.5
99869.4
99864.1
99858.7
99853.1
99847.3
99841.3
99835.1
99828.8
99822.2
99815.4
99808.4
99801.1
99793.6
99785.8
99777.8
99769.5
99760.9
99752
99742.7
99733.2
99723.2
99712.9
99702.2
99691
99679.3
99667.2
99654.4
99641.1
99627.1
99612.4
99596.9
99580.6
99563.3
99545
99525.6
99505
99483.1
99459.9
99435.3
99409.3
99382.3
99354.5
99327.1
99301.4
99279
99262.5
99255.4
99263.7
99298.3
99379.5
99555.9
99882.5
100515
99990.5
99991.7
99991.5
99990.7
99989.7
99988.5
99987.3
99986.1
99984.7
99983.3
99981.8
99980.3
99978.7
99977
99975.3
99973.5
99971.6
99969.6
99967.6
99965.5
99963.3
99961.1
99958.8
99956.4
99953.9
99951.3
99948.6
99945.9
99943
99940.1
99937.1
99933.9
99930.7
99927.4
99924
99920.4
99916.8
99913
99909.1
99905.1
99901
99896.8
99892.4
99887.9
99883.2
99878.4
99873.5
99868.4
99863.2
99857.7
99852.2
99846.4
99840.4
99834.3
99828
99821.4
99814.7
99807.7
99800.5
99793
99785.3
99777.3
99769.1
99760.5
99751.6
99742.5
99732.9
99723.1
99712.8
99702.1
99691
99679.4
99667.2
99654.6
99641.3
99627.3
99612.6
99597.1
99580.7
99563.4
99545.1
99525.6
99505
99483
99459.6
99434.7
99408.4
99380.7
99352
99323.1
99295.2
99269.9
99249.1
99234.3
99228.2
99235.9
99267.6
99351
99538.8
100108
99992.6
99992.7
99991.9
99990.8
99989.6
99988.4
99987.1
99985.8
99984.4
99983
99981.5
99979.9
99978.3
99976.6
99974.9
99973
99971.1
99969.2
99967.1
99965
99962.8
99960.6
99958.2
99955.8
99953.3
99950.7
99948
99945.2
99942.4
99939.4
99936.3
99933.2
99929.9
99926.6
99923.1
99919.6
99915.9
99912.1
99908.2
99904.2
99900
99895.8
99891.4
99886.8
99882.1
99877.3
99872.4
99867.2
99862
99856.5
99850.9
99845.1
99839.2
99833
99826.7
99820.1
99813.4
99806.4
99799.1
99791.7
99784
99776
99767.7
99759.2
99750.4
99741.2
99731.7
99721.9
99711.6
99701
99689.9
99678.4
99666.3
99653.7
99640.5
99626.6
99611.9
99596.5
99580.2
99562.9
99544.6
99525.1
99504.4
99482.4
99458.9
99433.8
99407.2
99379
99349.5
99319.2
99289.2
99261.2
99236.6
99216.3
99198.7
99184.1
99173.6
99169.9
99184.4
99591.1
99994.6
99993.7
99992.4
99991
99989.7
99988.4
99987.1
99985.7
99984.4
99982.9
99981.4
99979.8
99978.2
99976.5
99974.8
99972.9
99971
99969.1
99967
99964.9
99962.7
99960.4
99958.1
99955.6
99953.1
99950.5
99947.8
99945
99942.1
99939.1
99936
99932.8
99929.6
99926.2
99922.7
99919.1
99915.5
99911.6
99907.7
99903.7
99899.5
99895.2
99890.8
99886.2
99881.5
99876.7
99871.7
99866.5
99861.2
99855.7
99850.1
99844.3
99838.2
99832
99825.6
99819
99812.2
99805.2
99797.9
99790.4
99782.6
99774.6
99766.3
99757.7
99748.9
99739.6
99730.1
99720.2
99709.9
99699.3
99688.1
99676.6
99664.5
99651.8
99638.5
99624.6
99610
99594.5
99578.2
99560.9
99542.6
99523.1
99502.4
99480.3
99456.7
99431.6
99404.8
99376.3
99346.2
99314.9
99283.5
99253.5
99226.3
99203
99178.5
99148.7
99108.5
99038.7
98869.8
98936.6
99996.1
99994.5
99992.9
99991.4
99990
99988.7
99987.3
99986
99984.6
99983.1
99981.6
99980
99978.4
99976.7
99975
99973.1
99971.2
99969.3
99967.2
99965.1
99962.9
99960.6
99958.3
99955.8
99953.3
99950.7
99948
99945.2
99942.3
99939.3
99936.2
99933
99929.8
99926.4
99922.9
99919.3
99915.6
99911.8
99907.9
99903.8
99899.7
99895.4
99890.9
99886.3
99881.6
99876.8
99871.8
99866.6
99861.3
99855.8
99850.1
99844.2
99838.2
99832
99825.5
99818.8
99812
99804.9
99797.6
99790.1
99782.3
99774.2
99765.9
99757.2
99748.3
99739
99729.4
99719.5
99709.2
99698.4
99687.2
99675.6
99663.4
99650.7
99637.3
99623.2
99608.5
99592.9
99576.4
99558.9
99540.4
99520.7
99499.8
99477.4
99453.6
99428.2
99401
99372
99341.2
99309
99276.2
99244.4
99214.9
99188.6
99164.2
99130.7
99074.7
98966.2
98653
98060.3
99997.8
99995.2
99993.3
99991.8
99990.4
99989
99987.7
99986.3
99985
99983.5
99982
99980.4
99978.8
99977.1
99975.4
99973.6
99971.7
99969.7
99967.7
99965.5
99963.3
99961.1
99958.7
99956.3
99953.8
99951.2
99948.5
99945.7
99942.8
99939.8
99936.7
99933.6
99930.3
99926.9
99923.5
99919.9
99916.2
99912.4
99908.4
99904.4
99900.2
99895.9
99891.5
99886.9
99882.2
99877.4
99872.4
99867.2
99861.9
99856.4
99850.7
99844.9
99838.9
99832.6
99826.2
99819.5
99812.7
99805.6
99798.3
99790.7
99782.9
99774.8
99766.5
99757.8
99748.9
99739.6
99730
99720.1
99709.7
99699
99687.8
99676.1
99663.9
99651.1
99637.8
99623.7
99608.9
99593.3
99576.7
99559.2
99540.7
99521
99500
99477.6
99453.7
99428.2
99400.9
99371.8
99340.8
99308.4
99275.5
99243.8
99214.2
99187.2
99152.6
99114.4
99054.2
98934.1
98552.4
96886.7
100563
101839
102381
102691
102903
103061
103186
103286
103368
103436
103491
103536
103573
103602
103624
103641
103652
103658
103659
103655
100517
101543
102177
102577
102844
103035
103180
103293
103383
103455
103513
103560
103597
103625
103647
103661
103670
103674
103673
103666
100805
101575
102119
102517
102803
103014
103173
103295
103392
103468
103529
103576
103613
103641
103661
103675
103682
103685
103683
103672
101081
101708
102169
102530
102807
103019
103183
103310
103410
103488
103549
103596
103632
103659
103677
103689
103694
103695
103692
103676
101317
101849
102253
102579
102839
103044
103206
103333
103433
103511
103572
103618
103653
103677
103693
103702
103706
103705
103700
103679
101517
101981
102343
102641
102884
103080
103237
103362
103460
103537
103596
103641
103673
103695
103708
103715
103716
103714
103706
103681
101678
102094
102426
102704
102933
103120
103271
103392
103489
103564
103621
103663
103693
103712
103723
103727
103726
103721
103710
103683
101800
102182
102494
102757
102976
103156
103303
103421
103515
103589
103644
103685
103712
103728
103736
103737
103734
103728
103714
103684
101880
102242
102542
102796
103009
103185
103329
103446
103539
103611
103665
103704
103729
103743
103748
103746
103741
103733
103716
103687
101925
102277
102572
102821
103031
103205
103348
103464
103556
103627
103680
103717
103741
103753
103756
103753
103747
103737
103716
103692
101922
102274
102569
102818
103028
103203
103346
103462
103554
103625
103678
103716
103739
103752
103755
103752
103746
103736
103717
103691
101870
102232
102533
102787
103000
103177
103322
103439
103532
103605
103660
103699
103725
103740
103745
103745
103740
103731
103715
103690
101781
102165
102478
102742
102962
103144
103292
103411
103506
103581
103637
103679
103707
103725
103733
103735
103732
103726
103712
103689
101652
102069
102404
102683
102915
103104
103257
103380
103478
103554
103613
103656
103687
103708
103719
103724
103723
103719
103709
103686
101484
101950
102315
102616
102862
103060
103220
103347
103447
103526
103587
103633
103667
103690
103704
103712
103714
103711
103704
103682
101279
101813
102221
102550
102813
103022
103186
103316
103419
103499
103562
103609
103645
103671
103688
103699
103703
103702
103698
103679
101037
101667
102133
102498
102779
102995
103162
103292
103394
103475
103538
103587
103625
103652
103672
103685
103691
103693
103690
103676
100755
101530
102080
102483
102774
102989
103151
103277
103376
103454
103517
103566
103605
103634
103656
103670
103679
103682
103681
103671
100461
101496
102137
102543
102815
103011
103159
103274
103367
103441
103501
103549
103588
103618
103641
103657
103667
103671
103671
103664
100506
101793
102344
102659
102874
103037
103164
103267
103352
103421
103478
103525
103563
103594
103618
103635
103647
103654
103656
103653
103498
103496
103495
103494
103493
103493
103492
103492
103492
103492
103492
103492
103492
103492
103493
103493
103494
103495
103496
103498
103495
103493
103492
103492
103491
103491
103491
103491
103491
103491
103491
103491
103491
103491
103491
103491
103492
103492
103493
103495
103494
103492
103491
103491
103491
103492
103491
103491
103491
103491
103491
103491
103491
103491
103492
103491
103491
103491
103492
103494
103494
103492
103492
103492
103492
103492
103492
103492
103492
103492
103492
103492
103492
103492
103492
103492
103492
103492
103492
103494
103493
103492
103492
103491
103491
103491
103491
103491
103491
103491
103491
103491
103491
103491
103491
103491
103491
103492
103492
103493
103493
103491
103491
103491
103491
103491
103491
103491
103491
103491
103491
103491
103491
103491
103491
103491
103491
103491
103491
103493
103492
103491
103490
103490
103490
103490
103490
103490
103490
103490
103490
103490
103490
103490
103490
103490
103490
103490
103491
103492
103492
103490
103490
103490
103490
103490
103490
103489
103489
103489
103489
103489
103489
103489
103490
103490
103490
103490
103490
103492
103491
103489
103489
103489
103489
103489
103489
103489
103489
103489
103489
103489
103489
103489
103489
103489
103489
103489
103489
103491
103490
103489
103489
103488
103488
103488
103488
103488
103488
103488
103488
103488
103488
103488
103488
103488
103488
103489
103489
103490
103490
103488
103488
103488
103488
103488
103488
103487
103487
103487
103487
103487
103487
103488
103488
103488
103488
103488
103488
103490
103489
103487
103487
103487
103487
103487
103487
103487
103487
103487
103487
103487
103487
103487
103487
103487
103487
103487
103487
103489
103488
103487
103486
103486
103486
103486
103486
103486
103486
103486
103486
103486
103486
103486
103486
103486
103486
103486
103487
103488
103487
103486
103486
103486
103485
103485
103485
103485
103485
103485
103485
103485
103485
103485
103485
103485
103486
103486
103486
103487
103487
103485
103485
103485
103485
103485
103485
103485
103485
103485
103485
103485
103485
103485
103485
103485
103485
103485
103485
103487
103486
103484
103484
103484
103484
103484
103484
103484
103484
103484
103484
103484
103484
103484
103484
103484
103484
103484
103484
103486
103485
103484
103483
103483
103483
103483
103483
103483
103483
103483
103483
103483
103483
103483
103483
103483
103483
103483
103484
103485
103484
103483
103483
103483
103482
103482
103482
103482
103482
103482
103482
103482
103482
103482
103482
103482
103483
103483
103483
103484
103483
103482
103482
103482
103482
103482
103482
103482
103481
103481
103481
103481
103482
103482
103482
103482
103482
103482
103482
103483
103483
103481
103481
103481
103481
103481
103481
103481
103481
103481
103481
103481
103481
103481
103481
103481
103481
103481
103481
103483
103482
103480
103480
103480
103480
103480
103480
103480
103480
103480
103480
103480
103480
103480
103480
103480
103480
103480
103480
103482
103481
103480
103479
103479
103479
103479
103479
103479
103479
103479
103479
103479
103479
103479
103479
103479
103479
103479
103480
103481
103480
103479
103479
103479
103478
103478
103478
103478
103478
103478
103478
103478
103478
103478
103478
103478
103479
103479
103479
103480
103479
103478
103478
103478
103478
103478
103478
103478
103478
103478
103478
103478
103478
103478
103478
103478
103478
103478
103478
103479
103478
103477
103477
103477
103477
103477
103477
103477
103477
103477
103477
103477
103477
103477
103477
103477
103477
103477
103477
103478
103477
103476
103476
103476
103476
103476
103476
103476
103476
103476
103476
103476
103476
103476
103476
103476
103476
103476
103476
103477
103477
103476
103475
103475
103475
103475
103475
103475
103475
103475
103475
103475
103475
103475
103475
103475
103475
103475
103476
103477
103476
103475
103475
103475
103474
103474
103474
103474
103474
103474
103474
103474
103474
103474
103474
103474
103475
103475
103475
103476
103475
103474
103474
103474
103474
103474
103474
103474
103474
103474
103474
103474
103474
103474
103474
103474
103474
103474
103474
103475
103474
103473
103473
103473
103473
103473
103473
103473
103473
103473
103473
103473
103473
103473
103473
103473
103473
103473
103473
103474
103473
103472
103472
103472
103472
103472
103472
103472
103472
103472
103472
103472
103472
103472
103472
103472
103472
103472
103472
103473
103472
103472
103471
103471
103471
103471
103471
103471
103471
103471
103471
103471
103471
103471
103471
103471
103471
103471
103472
103472
103472
103471
103471
103471
103470
103470
103470
103470
103470
103470
103470
103470
103470
103470
103470
103470
103471
103471
103471
103472
103471
103470
103470
103470
103470
103470
103470
103470
103470
103470
103470
103470
103470
103470
103470
103470
103470
103470
103470
103471
103470
103469
103469
103469
103469
103469
103469
103469
103469
103469
103469
103469
103469
103469
103469
103469
103469
103469
103469
103470
103469
103468
103468
103468
103468
103468
103468
103468
103468
103468
103468
103468
103468
103468
103468
103468
103468
103468
103468
103469
103468
103468
103467
103467
103467
103467
103467
103467
103467
103467
103467
103467
103467
103467
103467
103467
103467
103467
103468
103468
103467
103467
103467
103467
103467
103467
103466
103466
103466
103466
103466
103466
103466
103466
103467
103467
103467
103467
103467
103467
103467
103466
103466
103466
103466
103466
103466
103466
103466
103466
103466
103466
103466
103466
103466
103466
103466
103466
103466
103467
103466
103465
103465
103465
103465
103465
103465
103465
103465
103465
103465
103465
103465
103465
103465
103465
103465
103465
103465
103466
103465
103464
103464
103464
103464
103464
103464
103464
103464
103464
103464
103464
103464
103464
103464
103464
103464
103464
103464
103465
103464
103464
103464
103464
103463
103463
103463
103463
103463
103463
103463
103463
103463
103463
103463
103463
103464
103464
103464
103464
103463
103463
103463
103463
103463
103463
103463
103463
103463
103463
103463
103463
103463
103463
103463
103463
103463
103463
103463
103463
103463
103462
103462
103462
103462
103462
103462
103462
103462
103462
103462
103462
103462
103462
103462
103462
103462
103462
103462
103463
103462
103461
103461
103461
103461
103461
103461
103461
103461
103461
103461
103461
103461
103461
103461
103461
103461
103461
103461
103462
103461
103461
103461
103461
103461
103460
103460
103460
103460
103460
103460
103460
103460
103460
103460
103461
103461
103461
103461
103461
103460
103460
103460
103460
103460
103460
103460
103460
103460
103460
103460
103460
103460
103460
103460
103460
103460
103460
103460
103460
103460
103459
103459
103459
103459
103459
103459
103459
103459
103459
103459
103459
103459
103459
103459
103459
103459
103459
103459
103460
103459
103459
103458
103458
103458
103458
103458
103458
103458
103458
103458
103458
103458
103458
103458
103458
103458
103458
103459
103459
103458
103458
103458
103458
103458
103458
103458
103458
103458
103458
103458
103458
103458
103458
103458
103458
103458
103458
103458
103458
103457
103457
103457
103457
103457
103457
103457
103457
103457
103457
103457
103457
103457
103457
103457
103457
103457
103457
103457
103457
103457
103456
103456
103456
103456
103456
103456
103456
103456
103456
103456
103456
103456
103456
103456
103456
103456
103456
103456
103457
103456
103456
103456
103456
103455
103455
103455
103455
103455
103455
103455
103455
103455
103455
103455
103455
103456
103456
103456
103456
103455
103455
103455
103455
103455
103455
103455
103455
103455
103455
103455
103455
103455
103455
103455
103455
103455
103455
103455
103455
103454
103454
103454
103454
103454
103454
103454
103454
103454
103454
103454
103454
103454
103454
103454
103454
103454
103454
103454
103454
103454
103454
103453
103453
103453
103453
103453
103453
103453
103453
103453
103453
103453
103453
103453
103453
103453
103453
103454
103454
103453
103453
103453
103453
103453
103453
103453
103453
103453
103453
103453
103453
103453
103453
103453
103453
103453
103453
103453
103453
103452
103452
103452
103452
103452
103452
103452
103452
103452
103452
103452
103452
103452
103452
103452
103452
103452
103452
103452
103452
103452
103452
103451
103451
103451
103451
103451
103451
103451
103451
103451
103451
103451
103451
103451
103451
103451
103451
103452
103452
103451
103451
103451
103451
103451
103451
103451
103451
103451
103451
103451
103451
103451
103451
103451
103451
103451
103451
103451
103451
103450
103450
103450
103450
103450
103450
103450
103450
103450
103450
103450
103450
103450
103450
103450
103450
103450
103450
103450
103450
103450
103449
103449
103449
103449
103449
103449
103449
103449
103449
103449
103449
103449
103449
103449
103449
103449
103449
103450
103450
103449
103449
103449
103449
103449
103449
103449
103449
103449
103449
103449
103449
103449
103449
103449
103449
103449
103449
103449
103449
103448
103448
103448
103448
103448
103448
103448
103448
103448
103448
103448
103448
103448
103448
103448
103448
103448
103448
103448
103448
103448
103447
103447
103447
103447
103447
103447
103447
103447
103447
103447
103447
103447
103447
103447
103447
103447
103447
103448
103448
103447
103447
103447
103447
103447
103447
103447
103447
103447
103447
103447
103447
103447
103447
103447
103447
103447
103447
103447
103447
103446
103446
103446
103446
103446
103446
103446
103446
103446
103446
103446
103446
103446
103446
103446
103446
103446
103446
103446
103446
103446
103445
103445
103445
103445
103445
103445
103445
103445
103445
103445
103445
103445
103445
103445
103445
103446
103446
103446
103446
103445
103445
103445
103445
103445
103445
103445
103445
103445
103445
103445
103445
103445
103445
103445
103445
103445
103445
103445
103445
103444
103444
103444
103444
103444
103444
103444
103444
103444
103444
103444
103444
103444
103444
103444
103444
103444
103444
103444
103444
103443
103443
103443
103443
103443
103443
103443
103443
103443
103443
103443
103443
103444
103444
103444
103444
103444
103444
103444
103444
103443
103443
103443
103443
103443
103443
103443
103443
103443
103443
103443
103443
103443
103443
103443
103443
103443
103443
103443
103443
103442
103442
103442
103442
103442
103442
103442
103442
103442
103442
103442
103442
103442
103442
103442
103442
103443
103443
103443
103443
103441
103441
103441
103441
103441
103441
103441
103441
103441
103442
103442
103442
103442
103442
103442
103442
103442
103442
103442
103442
103441
103441
103441
103441
103441
103441
103441
103441
103441
103441
103441
103441
103441
103441
103441
103441
103441
103442
103442
103442
103440
103440
103440
103440
103440
103440
103440
103440
103440
103440
103440
103440
103441
103441
103441
103441
103441
103441
103441
103441
103439
103439
103439
103439
103439
103439
103439
103439
103439
103440
103440
103440
103440