/*--------------------------------*- C++ -*----------------------------------*\
| =========                 |                                                 |
| \\      /  F ield         | OpenFOAM: The Open Source CFD Toolbox           |
|  \\    /   O peration     | Version:  2.1.0                                 |
|   \\  /    A nd           | Web:      www.OpenFOAM.org                      |
|    \\/     M anipulation  |                                                 |
\*---------------------------------------------------------------------------*/
FoamFile
{
    version     2.0;
    format      ascii;
    class       surfaceScalarField;
    location    "0.39";
    object      phi;
}
// * * * * * * * * * * * * * * * * * * * * * * * * * * * * * * * * * * * * * //

dimensions      [0 3 -1 0 0 0 0];

internalField   nonuniform List<scalar> 
12460
(
-2.60077e-05
-4.46196e-09
-2.59726e-05
-4.14824e-08
-2.59146e-05
-6.42104e-08
-2.58448e-05
-7.57888e-08
-2.5768e-05
-8.26775e-08
-2.56863e-05
-8.73142e-08
-2.56012e-05
-9.06562e-08
-2.55132e-05
-9.3276e-08
-2.54229e-05
-9.54801e-08
-2.53304e-05
-9.74575e-08
-2.5236e-05
-9.93169e-08
-2.51395e-05
-1.0112e-07
-2.50412e-05
-1.02906e-07
-2.49409e-05
-1.04692e-07
-2.48387e-05
-1.06497e-07
-2.47345e-05
-1.08322e-07
-2.46283e-05
-1.10179e-07
-2.45201e-05
-1.12065e-07
-2.44098e-05
-1.13987e-07
-2.42974e-05
-1.15933e-07
-2.4183e-05
-1.1791e-07
-2.40664e-05
-1.1992e-07
-2.39476e-05
-1.21984e-07
-2.38267e-05
-1.24058e-07
-2.37035e-05
-1.26172e-07
-2.3578e-05
-1.28389e-07
-2.345e-05
-1.30718e-07
-2.33196e-05
-1.3312e-07
-2.31865e-05
-1.35598e-07
-2.30508e-05
-1.3815e-07
-2.29124e-05
-1.40788e-07
-2.27711e-05
-1.43514e-07
-2.26269e-05
-1.46339e-07
-2.24797e-05
-1.49267e-07
-2.23294e-05
-1.52308e-07
-2.21759e-05
-1.55461e-07
-2.20189e-05
-1.58737e-07
-2.18585e-05
-1.62139e-07
-2.16945e-05
-1.65679e-07
-2.15267e-05
-1.6937e-07
-2.1355e-05
-1.73229e-07
-2.11792e-05
-1.77256e-07
-2.09991e-05
-1.81459e-07
-2.08145e-05
-1.85847e-07
-2.06253e-05
-1.90423e-07
-2.04313e-05
-1.95189e-07
-2.02323e-05
-2.00145e-07
-2.0028e-05
-2.05285e-07
-1.98184e-05
-2.10595e-07
-1.96032e-05
-2.16106e-07
-1.93825e-05
-2.2167e-07
-1.9156e-05
-2.27327e-07
-1.89234e-05
-2.334e-07
-1.86842e-05
-2.39879e-07
-1.84383e-05
-2.4661e-07
-1.81856e-05
-2.53327e-07
-1.79264e-05
-2.59811e-07
-1.76609e-05
-2.66135e-07
-1.73889e-05
-2.72471e-07
-1.71105e-05
-2.78931e-07
-1.68254e-05
-2.8556e-07
-1.65335e-05
-2.92346e-07
-1.62346e-05
-2.99347e-07
-1.59284e-05
-3.06613e-07
-1.56146e-05
-3.14159e-07
-1.52929e-05
-3.22029e-07
-1.49629e-05
-3.30253e-07
-1.46243e-05
-3.38891e-07
-1.42766e-05
-3.47979e-07
-1.39193e-05
-3.57547e-07
-1.35519e-05
-3.67626e-07
-1.31738e-05
-3.7827e-07
-1.27844e-05
-3.89516e-07
-1.23832e-05
-4.01434e-07
-1.19692e-05
-4.14101e-07
-1.15417e-05
-4.27618e-07
-1.10997e-05
-4.42117e-07
-1.0642e-05
-4.57761e-07
-1.01673e-05
-4.74782e-07
-9.67381e-06
-4.93518e-07
-9.15946e-06
-5.14386e-07
-8.62158e-06
-5.37904e-07
-8.05685e-06
-5.64734e-07
-7.46124e-06
-5.95596e-07
-6.83018e-06
-6.3103e-07
-6.1589e-06
-6.71226e-07
-5.44302e-06
-7.15811e-07
-4.67974e-06
-7.6317e-07
-3.87032e-06
-8.09271e-07
-3.02476e-06
-8.45355e-07
-2.17089e-06
-8.5361e-07
-1.37168e-06
-7.98885e-07
-7.3098e-07
-6.40343e-07
-3.52772e-07
-3.77972e-07
-2.77534e-07
-7.56376e-08
-5.31261e-07
2.52574e-07
-1.4245e-06
8.92092e-07
-3.71799e-06
2.29334e-06
-9.28898e-06
5.57098e-06
1.54965e-05
-2.47855e-05
-3.13433e-05
-2.4472e-08
-3.12966e-05
-9.48571e-08
-3.12348e-05
-1.3261e-07
-3.11638e-05
-1.53223e-07
-3.10868e-05
-1.65881e-07
-3.10057e-05
-1.74433e-07
-3.09216e-05
-1.80604e-07
-3.08352e-05
-1.85433e-07
-3.07467e-05
-1.89495e-07
-3.06564e-05
-1.93135e-07
-3.05644e-05
-1.96559e-07
-3.04707e-05
-1.99877e-07
-3.03754e-05
-2.03171e-07
-3.02784e-05
-2.06468e-07
-3.01797e-05
-2.09811e-07
-3.00793e-05
-2.13198e-07
-2.99772e-05
-2.16656e-07
-2.98733e-05
-2.20174e-07
-2.97676e-05
-2.23769e-07
-2.96601e-05
-2.27418e-07
-2.95507e-05
-2.31128e-07
-2.94394e-05
-2.34891e-07
-2.93262e-05
-2.38754e-07
-2.92111e-05
-2.42609e-07
-2.90941e-05
-2.46467e-07
-2.89752e-05
-2.50478e-07
-2.88544e-05
-2.54655e-07
-2.87316e-05
-2.58928e-07
-2.86067e-05
-2.63308e-07
-2.84798e-05
-2.67802e-07
-2.83509e-05
-2.72426e-07
-2.82198e-05
-2.77186e-07
-2.80865e-05
-2.82096e-07
-2.79509e-05
-2.87167e-07
-2.78131e-05
-2.92411e-07
-2.76729e-05
-2.9783e-07
-2.75303e-05
-3.03442e-07
-2.73852e-05
-3.09259e-07
-2.72375e-05
-3.15288e-07
-2.70872e-05
-3.21538e-07
-2.69341e-05
-3.28043e-07
-2.67782e-05
-3.34809e-07
-2.66195e-05
-3.41851e-07
-2.64577e-05
-3.49188e-07
-2.62927e-05
-3.56833e-07
-2.61245e-05
-3.64799e-07
-2.59529e-05
-3.731e-07
-2.57777e-05
-3.81744e-07
-2.55988e-05
-3.90724e-07
-2.5416e-05
-4.00085e-07
-2.52291e-05
-4.09696e-07
-2.50382e-05
-4.19341e-07
-2.48435e-05
-4.29037e-07
-2.46456e-05
-4.38801e-07
-2.44445e-05
-4.48654e-07
-2.42401e-05
-4.58596e-07
-2.40323e-05
-4.68511e-07
-2.38208e-05
-4.78373e-07
-2.36058e-05
-4.88287e-07
-2.33871e-05
-4.98371e-07
-2.31647e-05
-5.08681e-07
-2.29386e-05
-5.19216e-07
-2.27086e-05
-5.30014e-07
-2.24747e-05
-5.41114e-07
-2.22369e-05
-5.52554e-07
-2.19952e-05
-5.6439e-07
-2.17494e-05
-5.7667e-07
-2.14994e-05
-5.89469e-07
-2.1245e-05
-6.02858e-07
-2.09862e-05
-6.16916e-07
-2.07227e-05
-6.31722e-07
-2.04541e-05
-6.47387e-07
-2.01801e-05
-6.64008e-07
-1.99003e-05
-6.81739e-07
-1.96142e-05
-7.00751e-07
-1.9321e-05
-7.21252e-07
-1.90201e-05
-7.43506e-07
-1.87106e-05
-7.67815e-07
-1.83913e-05
-7.94561e-07
-1.8061e-05
-8.24289e-07
-1.77183e-05
-8.57626e-07
-1.73615e-05
-8.95276e-07
-1.69886e-05
-9.38085e-07
-1.65978e-05
-9.86962e-07
-1.61868e-05
-1.0426e-06
-1.57535e-05
-1.10514e-06
-1.52963e-05
-1.17374e-06
-1.48147e-05
-1.24552e-06
-1.43107e-05
-1.31408e-06
-1.37905e-05
-1.36655e-06
-1.32664e-05
-1.37888e-06
-1.27569e-05
-1.30988e-06
-1.22977e-05
-1.10156e-06
-1.1969e-05
-7.09147e-07
-1.2035e-05
-1.20344e-08
-1.2573e-05
7.88794e-07
-1.3947e-05
2.26509e-06
-1.66764e-05
5.02264e-06
-2.18012e-05
1.06957e-05
2.65657e-05
-3.28704e-05
-3.43345e-05
-5.20402e-08
-3.42946e-05
-1.41545e-07
-3.42426e-05
-1.91259e-07
-3.41829e-05
-2.19412e-07
-3.41183e-05
-2.36854e-07
-3.40504e-05
-2.48603e-07
-3.398e-05
-2.56988e-07
-3.39079e-05
-2.63512e-07
-3.38342e-05
-2.68923e-07
-3.37591e-05
-2.73754e-07
-3.36829e-05
-2.78247e-07
-3.36055e-05
-2.82601e-07
-3.35269e-05
-2.86894e-07
-3.34472e-05
-2.91203e-07
-3.33663e-05
-2.95558e-07
-3.32842e-05
-2.99989e-07
-3.3201e-05
-3.04514e-07
-3.31165e-05
-3.09144e-07
-3.30307e-05
-3.13893e-07
-3.29436e-05
-3.18755e-07
-3.28551e-05
-3.23731e-07
-3.27651e-05
-3.28837e-07
-3.26735e-05
-3.34129e-07
-3.25803e-05
-3.39515e-07
-3.24855e-05
-3.44898e-07
-3.23892e-05
-3.50277e-07
-3.22916e-05
-3.55678e-07
-3.21926e-05
-3.61125e-07
-3.20924e-05
-3.66663e-07
-3.1991e-05
-3.72314e-07
-3.18882e-05
-3.78096e-07
-3.17842e-05
-3.84019e-07
-3.1679e-05
-3.90095e-07
-3.15724e-05
-3.96332e-07
-3.14647e-05
-4.02741e-07
-3.13556e-05
-4.09324e-07
-3.12453e-05
-4.16089e-07
-3.11338e-05
-4.23056e-07
-3.1021e-05
-4.30232e-07
-3.09071e-05
-4.37601e-07
-3.07919e-05
-4.45201e-07
-3.06756e-05
-4.53037e-07
-3.05582e-05
-4.61114e-07
-3.04397e-05
-4.69451e-07
-3.03202e-05
-4.78052e-07
-3.01997e-05
-4.86925e-07
-3.00783e-05
-4.9608e-07
-2.9956e-05
-5.05519e-07
-2.9833e-05
-5.1523e-07
-2.97093e-05
-5.25171e-07
-2.9585e-05
-5.35291e-07
-2.94601e-05
-5.45492e-07
-2.93348e-05
-5.55593e-07
-2.92093e-05
-5.65485e-07
-2.90838e-05
-5.75229e-07
-2.89585e-05
-5.85001e-07
-2.88332e-05
-5.9486e-07
-2.87078e-05
-6.04728e-07
-2.85825e-05
-6.14587e-07
-2.84573e-05
-6.24488e-07
-2.83324e-05
-6.34437e-07
-2.82081e-05
-6.44421e-07
-2.80845e-05
-6.54446e-07
-2.79619e-05
-6.64514e-07
-2.78406e-05
-6.74648e-07
-2.77209e-05
-6.84872e-07
-2.76031e-05
-6.95217e-07
-2.74876e-05
-7.05711e-07
-2.73748e-05
-7.16408e-07
-2.72651e-05
-7.27376e-07
-2.71588e-05
-7.38691e-07
-2.70564e-05
-7.50469e-07
-2.69583e-05
-7.62808e-07
-2.68649e-05
-7.75892e-07
-2.67764e-05
-7.8994e-07
-2.66931e-05
-8.05221e-07
-2.66152e-05
-8.22098e-07
-2.65428e-05
-8.40984e-07
-2.64757e-05
-8.62372e-07
-2.64137e-05
-8.86982e-07
-2.63565e-05
-9.15638e-07
-2.63033e-05
-9.49186e-07
-2.62536e-05
-9.88575e-07
-2.62065e-05
-1.03476e-06
-2.61615e-05
-1.08845e-06
-2.61176e-05
-1.14979e-06
-2.60747e-05
-1.21751e-06
-2.60331e-05
-1.28792e-06
-2.59949e-05
-1.35315e-06
-2.59641e-05
-1.39821e-06
-2.5947e-05
-1.39689e-06
-2.59513e-05
-1.30641e-06
-2.59888e-05
-1.06473e-06
-2.61039e-05
-5.94594e-07
-2.62867e-05
1.7055e-07
-2.67996e-05
1.30159e-06
-2.78272e-05
3.29251e-06
-2.97545e-05
6.9499e-06
-3.33042e-05
1.42455e-05
3.11927e-05
-3.79311e-05
-3.70365e-05
-7.91876e-08
-3.70086e-05
-1.76202e-07
-3.69735e-05
-2.33196e-07
-3.69327e-05
-2.66892e-07
-3.68881e-05
-2.87988e-07
-3.68411e-05
-3.0205e-07
-3.67924e-05
-3.11921e-07
-3.67426e-05
-3.19452e-07
-3.6692e-05
-3.25554e-07
-3.66407e-05
-3.30906e-07
-3.65889e-05
-3.35789e-07
-3.65366e-05
-3.4047e-07
-3.64839e-05
-3.45028e-07
-3.64309e-05
-3.49577e-07
-3.63775e-05
-3.54136e-07
-3.63238e-05
-3.5876e-07
-3.62698e-05
-3.63451e-07
-3.62155e-05
-3.68238e-07
-3.6161e-05
-3.73131e-07
-3.61062e-05
-3.78133e-07
-3.60512e-05
-3.83221e-07
-3.59959e-05
-3.8843e-07
-3.59405e-05
-3.93762e-07
-3.5885e-05
-3.99183e-07
-3.58292e-05
-4.04693e-07
-3.57732e-05
-4.102e-07
-3.5717e-05
-4.15651e-07
-3.56608e-05
-4.21093e-07
-3.56044e-05
-4.26576e-07
-3.55481e-05
-4.32126e-07
-3.54918e-05
-4.37758e-07
-3.54356e-05
-4.4348e-07
-3.53796e-05
-4.49298e-07
-3.53238e-05
-4.55217e-07
-3.52683e-05
-4.61239e-07
-3.52132e-05
-4.67357e-07
-3.51585e-05
-4.73569e-07
-3.51044e-05
-4.79878e-07
-3.50509e-05
-4.86295e-07
-3.49982e-05
-4.92806e-07
-3.49465e-05
-4.9942e-07
-3.48957e-05
-5.06125e-07
-3.48462e-05
-5.12913e-07
-3.4798e-05
-5.19787e-07
-3.47515e-05
-5.26734e-07
-3.47067e-05
-5.33739e-07
-3.46639e-05
-5.40791e-07
-3.46234e-05
-5.47866e-07
-3.45855e-05
-5.54932e-07
-3.45505e-05
-5.61913e-07
-3.45187e-05
-5.68744e-07
-3.44902e-05
-5.75591e-07
-3.44648e-05
-5.82526e-07
-3.44424e-05
-5.89329e-07
-3.44231e-05
-5.95906e-07
-3.44072e-05
-6.02306e-07
-3.43948e-05
-6.08542e-07
-3.43862e-05
-6.14564e-07
-3.43816e-05
-6.20346e-07
-3.43813e-05
-6.25911e-07
-3.43856e-05
-6.31215e-07
-3.43948e-05
-6.36199e-07
-3.44094e-05
-6.40879e-07
-3.44296e-05
-6.45266e-07
-3.44557e-05
-6.49381e-07
-3.44882e-05
-6.53251e-07
-3.45273e-05
-6.56915e-07
-3.45734e-05
-6.60421e-07
-3.46267e-05
-6.63845e-07
-3.46876e-05
-6.67289e-07
-3.47561e-05
-6.70872e-07
-3.48324e-05
-6.74775e-07
-3.49167e-05
-6.79198e-07
-3.50088e-05
-6.8441e-07
-3.51085e-05
-6.90745e-07
-3.52157e-05
-6.98611e-07
-3.53298e-05
-7.08526e-07
-3.54502e-05
-7.21084e-07
-3.55761e-05
-7.36873e-07
-3.57067e-05
-7.56788e-07
-3.58409e-05
-7.81832e-07
-3.59776e-05
-8.12906e-07
-3.61155e-05
-8.50985e-07
-3.62536e-05
-8.96962e-07
-3.6391e-05
-9.51394e-07
-3.65269e-05
-1.01407e-06
-3.66614e-05
-1.08323e-06
-3.67951e-05
-1.15447e-06
-3.69294e-05
-1.21902e-06
-3.70665e-05
-1.26124e-06
-3.72084e-05
-1.25509e-06
-3.73545e-05
-1.16042e-06
-3.75043e-05
-9.15004e-07
-3.76556e-05
-4.43251e-07
-3.78149e-05
3.29774e-07
-3.81148e-05
1.60147e-06
-3.86747e-05
3.85249e-06
-3.9667e-05
7.94214e-06
-4.12755e-05
1.5854e-05
3.12556e-05
-4.13384e-05
-3.97613e-05
-9.90971e-08
-3.97508e-05
-1.93619e-07
-3.97389e-05
-2.51948e-07
-3.97249e-05
-2.87732e-07
-3.97093e-05
-3.10393e-07
-3.96927e-05
-3.25226e-07
-3.96757e-05
-3.35434e-07
-3.96586e-05
-3.42916e-07
-3.96416e-05
-3.48781e-07
-3.9625e-05
-3.53705e-07
-3.96087e-05
-3.58067e-07
-3.9593e-05
-3.62112e-07
-3.95778e-05
-3.6597e-07
-3.95634e-05
-3.69731e-07
-3.95496e-05
-3.73442e-07
-3.95367e-05
-3.77135e-07
-3.95247e-05
-3.80826e-07
-3.95137e-05
-3.84523e-07
-3.95037e-05
-3.88246e-07
-3.94949e-05
-3.91998e-07
-3.94873e-05
-3.95704e-07
-3.94812e-05
-3.99396e-07
-3.94766e-05
-4.03109e-07
-3.94736e-05
-4.06787e-07
-3.94723e-05
-4.10554e-07
-3.94725e-05
-4.14438e-07
-3.94741e-05
-4.18336e-07
-3.94773e-05
-4.22195e-07
-3.9482e-05
-4.26028e-07
-3.94883e-05
-4.29848e-07
-3.94964e-05
-4.33663e-07
-3.95063e-05
-4.37477e-07
-3.95181e-05
-4.41292e-07
-3.95319e-05
-4.45104e-07
-3.95479e-05
-4.48912e-07
-3.95661e-05
-4.52705e-07
-3.95866e-05
-4.56477e-07
-3.96096e-05
-4.60226e-07
-3.96353e-05
-4.63944e-07
-3.96636e-05
-4.67629e-07
-3.96949e-05
-4.71291e-07
-3.97291e-05
-4.749e-07
-3.97665e-05
-4.78457e-07
-3.98072e-05
-4.81958e-07
-3.98513e-05
-4.85398e-07
-3.98989e-05
-4.88761e-07
-3.99502e-05
-4.92042e-07
-4.00054e-05
-4.95228e-07
-4.00644e-05
-4.98293e-07
-4.01275e-05
-5.01207e-07
-4.01945e-05
-5.03953e-07
-4.02656e-05
-5.06605e-07
-4.0341e-05
-5.09197e-07
-4.04207e-05
-5.11604e-07
-4.05048e-05
-5.13747e-07
-4.05932e-05
-5.15625e-07
-4.06863e-05
-5.17236e-07
-4.07839e-05
-5.18575e-07
-4.08861e-05
-5.19654e-07
-4.0993e-05
-5.20524e-07
-4.11044e-05
-5.21156e-07
-4.12204e-05
-5.21493e-07
-4.1341e-05
-5.2155e-07
-4.1466e-05
-5.21373e-07
-4.15955e-05
-5.21023e-07
-4.17292e-05
-5.20545e-07
-4.1867e-05
-5.20009e-07
-4.20088e-05
-5.19488e-07
-4.21543e-05
-5.19075e-07
-4.23034e-05
-5.1889e-07
-4.24559e-05
-5.19074e-07
-4.26115e-05
-5.1981e-07
-4.27699e-05
-5.21318e-07
-4.29309e-05
-5.23875e-07
-4.30943e-05
-5.27817e-07
-4.32597e-05
-5.33555e-07
-4.3427e-05
-5.41594e-07
-4.35957e-05
-5.52622e-07
-4.37658e-05
-5.67091e-07
-4.39369e-05
-5.85918e-07
-4.41087e-05
-6.10236e-07
-4.42809e-05
-6.40829e-07
-4.44534e-05
-6.78627e-07
-4.46261e-05
-7.24424e-07
-4.47989e-05
-7.7864e-07
-4.49721e-05
-8.40937e-07
-4.5146e-05
-9.09418e-07
-4.5321e-05
-9.79512e-07
-4.54975e-05
-1.04255e-06
-4.56751e-05
-1.08366e-06
-4.58513e-05
-1.07892e-06
-4.60191e-05
-9.92632e-07
-4.61636e-05
-7.70496e-07
-4.62649e-05
-3.42028e-07
-4.63264e-05
3.91335e-07
-4.6387e-05
1.66204e-06
-4.64625e-05
3.92799e-06
-4.65527e-05
8.03232e-06
-4.63334e-05
1.56346e-05
2.84289e-05
-4.35066e-05
-4.26426e-05
-1.0525e-07
-4.2654e-05
-1.89061e-07
-4.26707e-05
-2.42115e-07
-4.26898e-05
-2.75393e-07
-4.27105e-05
-2.96488e-07
-4.27324e-05
-3.09959e-07
-4.27555e-05
-3.18889e-07
-4.27798e-05
-3.2502e-07
-4.28054e-05
-3.29503e-07
-4.28325e-05
-3.32954e-07
-4.28609e-05
-3.35791e-07
-4.28909e-05
-3.38224e-07
-4.29224e-05
-3.40412e-07
-4.29556e-05
-3.42422e-07
-4.29906e-05
-3.44318e-07
-4.30273e-05
-3.46116e-07
-4.3066e-05
-3.47841e-07
-4.31066e-05
-3.49492e-07
-4.31493e-05
-3.51081e-07
-4.3194e-05
-3.52675e-07
-4.3241e-05
-3.54101e-07
-4.32903e-05
-3.55398e-07
-4.33418e-05
-3.56728e-07
-4.33958e-05
-3.58003e-07
-4.34521e-05
-3.5931e-07
-4.35108e-05
-3.60653e-07
-4.35721e-05
-3.6197e-07
-4.3636e-05
-3.63221e-07
-4.37024e-05
-3.64407e-07
-4.37714e-05
-3.65533e-07
-4.38431e-05
-3.66609e-07
-4.39176e-05
-3.6764e-07
-4.39948e-05
-3.68637e-07
-4.40748e-05
-3.69595e-07
-4.41576e-05
-3.70522e-07
-4.42433e-05
-3.71409e-07
-4.43318e-05
-3.72263e-07
-4.44232e-05
-3.73085e-07
-4.45174e-05
-3.73871e-07
-4.46146e-05
-3.74616e-07
-4.47146e-05
-3.75346e-07
-4.48175e-05
-3.76053e-07
-4.49231e-05
-3.76735e-07
-4.50316e-05
-3.77401e-07
-4.51427e-05
-3.78053e-07
-4.52566e-05
-3.78686e-07
-4.5373e-05
-3.79298e-07
-4.54919e-05
-3.79888e-07
-4.56133e-05
-3.80445e-07
-4.57371e-05
-3.80942e-07
-4.5863e-05
-3.81386e-07
-4.59911e-05
-3.8181e-07
-4.61213e-05
-3.82229e-07
-4.62535e-05
-3.82572e-07
-4.63875e-05
-3.82792e-07
-4.65233e-05
-3.82871e-07
-4.66606e-05
-3.82796e-07
-4.67994e-05
-3.82556e-07
-4.69396e-05
-3.82179e-07
-4.7081e-05
-3.8174e-07
-4.72234e-05
-3.81204e-07
-4.73669e-05
-3.80458e-07
-4.75112e-05
-3.79489e-07
-4.76565e-05
-3.78348e-07
-4.78025e-05
-3.77109e-07
-4.79492e-05
-3.75783e-07
-4.80967e-05
-3.74444e-07
-4.82448e-05
-3.73153e-07
-4.83936e-05
-3.71983e-07
-4.8543e-05
-3.71042e-07
-4.86932e-05
-3.70461e-07
-4.8844e-05
-3.70405e-07
-4.89955e-05
-3.71078e-07
-4.91478e-05
-3.72754e-07
-4.9301e-05
-3.75769e-07
-4.94551e-05
-3.80528e-07
-4.96101e-05
-3.87524e-07
-4.97661e-05
-3.97443e-07
-4.99233e-05
-4.10779e-07
-5.00817e-05
-4.28203e-07
-5.02419e-05
-4.50712e-07
-5.0404e-05
-4.79273e-07
-5.05684e-05
-5.14821e-07
-5.07351e-05
-5.58093e-07
-5.09047e-05
-6.09451e-07
-5.10775e-05
-6.6857e-07
-5.12535e-05
-7.33667e-07
-5.14329e-05
-8.00417e-07
-5.16148e-05
-8.60843e-07
-5.17969e-05
-9.0175e-07
-5.19734e-05
-9.0254e-07
-5.2133e-05
-8.33199e-07
-5.22516e-05
-6.52005e-07
-5.23006e-05
-2.93031e-07
-5.22624e-05
3.53095e-07
-5.21079e-05
1.50757e-06
-5.17563e-05
3.57628e-06
-5.10371e-05
7.31309e-06
-4.93341e-05
1.39316e-05
2.38365e-05
-4.47418e-05
-4.5605e-05
-9.59674e-08
-4.56397e-05
-1.60904e-07
-4.5685e-05
-2.03232e-07
-4.57366e-05
-2.30244e-07
-4.57923e-05
-2.47172e-07
-4.58509e-05
-2.57573e-07
-4.5912e-05
-2.64028e-07
-4.59752e-05
-2.67982e-07
-4.60403e-05
-2.70448e-07
-4.61073e-05
-2.71964e-07
-4.61761e-05
-2.72898e-07
-4.62467e-05
-2.73443e-07
-4.63191e-05
-2.73747e-07
-4.63934e-05
-2.73872e-07
-4.64695e-05
-2.73885e-07
-4.65475e-05
-2.73801e-07
-4.66272e-05
-2.73653e-07
-4.67088e-05
-2.7344e-07
-4.67922e-05
-2.73179e-07
-4.68775e-05
-2.72933e-07
-4.69644e-05
-2.72572e-07
-4.70533e-05
-2.71999e-07
-4.71441e-05
-2.71306e-07
-4.72369e-05
-2.70513e-07
-4.73318e-05
-2.69718e-07
-4.74288e-05
-2.68932e-07
-4.75279e-05
-2.68138e-07
-4.76291e-05
-2.67307e-07
-4.77322e-05
-2.66448e-07
-4.78374e-05
-2.6556e-07
-4.79444e-05
-2.64671e-07
-4.80534e-05
-2.63782e-07
-4.81642e-05
-2.62928e-07
-4.82768e-05
-2.62099e-07
-4.83911e-05
-2.61321e-07
-4.8507e-05
-2.60582e-07
-4.86245e-05
-2.59906e-07
-4.87433e-05
-2.5928e-07
-4.88635e-05
-2.58732e-07
-4.8985e-05
-2.58256e-07
-4.91075e-05
-2.57866e-07
-4.92311e-05
-2.57562e-07
-4.93555e-05
-2.57348e-07
-4.94808e-05
-2.57224e-07
-4.96067e-05
-2.57199e-07
-4.97333e-05
-2.57259e-07
-4.98603e-05
-2.57398e-07
-4.99877e-05
-2.57612e-07
-5.01153e-05
-2.57899e-07
-5.02432e-05
-2.58212e-07
-5.03712e-05
-2.58561e-07
-5.04992e-05
-2.58951e-07
-5.06272e-05
-2.59379e-07
-5.07552e-05
-2.59779e-07
-5.0883e-05
-2.60104e-07
-5.10107e-05
-2.60329e-07
-5.11383e-05
-2.60418e-07
-5.12656e-05
-2.60342e-07
-5.13928e-05
-2.60107e-07
-5.15199e-05
-2.59835e-07
-5.16466e-05
-2.595e-07
-5.17733e-05
-2.58858e-07
-5.18999e-05
-2.57887e-07
-5.20266e-05
-2.56643e-07
-5.21534e-05
-2.55204e-07
-5.22804e-05
-2.5358e-07
-5.24078e-05
-2.51816e-07
-5.25357e-05
-2.49964e-07
-5.26642e-05
-2.48086e-07
-5.27935e-05
-2.46276e-07
-5.29237e-05
-2.44652e-07
-5.30551e-05
-2.43363e-07
-5.31877e-05
-2.42611e-07
-5.33219e-05
-2.42652e-07
-5.34578e-05
-2.43813e-07
-5.35957e-05
-2.46488e-07
-5.37358e-05
-2.51154e-07
-5.38785e-05
-2.58311e-07
-5.4024e-05
-2.68718e-07
-5.41723e-05
-2.83202e-07
-5.43237e-05
-3.02476e-07
-5.44785e-05
-3.27405e-07
-5.46372e-05
-3.58889e-07
-5.48004e-05
-3.97612e-07
-5.49684e-05
-4.4391e-07
-5.51417e-05
-4.97604e-07
-5.53202e-05
-5.57309e-07
-5.55034e-05
-6.19245e-07
-5.56894e-05
-6.76574e-07
-5.58744e-05
-7.18451e-07
-5.60498e-05
-7.28482e-07
-5.62011e-05
-6.83127e-07
-5.63e-05
-5.54081e-07
-5.63086e-05
-2.85248e-07
-5.61821e-05
2.26041e-07
-5.58432e-05
1.16816e-06
-5.51278e-05
2.86026e-06
-5.37267e-05
5.91113e-06
-5.09157e-05
1.11195e-05
1.82199e-05
-4.53004e-05
-4.82635e-05
-7.42588e-08
-4.83142e-05
-1.15901e-07
-4.83779e-05
-1.45111e-07
-4.84499e-05
-1.63735e-07
-4.85274e-05
-1.75186e-07
-4.86084e-05
-1.81911e-07
-4.8692e-05
-1.85701e-07
-4.87775e-05
-1.87633e-07
-4.88647e-05
-1.88418e-07
-4.89532e-05
-1.88474e-07
-4.9043e-05
-1.88073e-07
-4.9134e-05
-1.87364e-07
-4.92262e-05
-1.86461e-07
-4.93195e-05
-1.85418e-07
-4.94138e-05
-1.8429e-07
-4.95092e-05
-1.83093e-07
-4.96057e-05
-1.81854e-07
-4.97032e-05
-1.80573e-07
-4.98017e-05
-1.79267e-07
-4.99013e-05
-1.77862e-07
-5.0002e-05
-1.76449e-07
-5.01035e-05
-1.75051e-07
-5.02057e-05
-1.73583e-07
-5.03087e-05
-1.72071e-07
-5.04123e-05
-1.70603e-07
-5.05165e-05
-1.69184e-07
-5.06213e-05
-1.67825e-07
-5.07266e-05
-1.66499e-07
-5.08323e-05
-1.65228e-07
-5.09383e-05
-1.63991e-07
-5.10447e-05
-1.62835e-07
-5.11513e-05
-1.61736e-07
-5.1258e-05
-1.60753e-07
-5.13649e-05
-1.59849e-07
-5.14717e-05
-1.59074e-07
-5.15786e-05
-1.58388e-07
-5.16854e-05
-1.57831e-07
-5.17921e-05
-1.57363e-07
-5.18987e-05
-1.57026e-07
-5.20051e-05
-1.56806e-07
-5.21113e-05
-1.56702e-07
-5.22172e-05
-1.5671e-07
-5.23229e-05
-1.56823e-07
-5.24284e-05
-1.57042e-07
-5.25336e-05
-1.57362e-07
-5.26385e-05
-1.57768e-07
-5.27433e-05
-1.58241e-07
-5.28478e-05
-1.5877e-07
-5.29522e-05
-1.59347e-07
-5.30564e-05
-1.59936e-07
-5.31605e-05
-1.60521e-07
-5.32646e-05
-1.6109e-07
-5.33687e-05
-1.6163e-07
-5.34729e-05
-1.62086e-07
-5.35773e-05
-1.62408e-07
-5.36818e-05
-1.62563e-07
-5.37867e-05
-1.62511e-07
-5.38919e-05
-1.62213e-07
-5.39977e-05
-1.61633e-07
-5.4104e-05
-1.60965e-07
-5.42108e-05
-1.60303e-07
-5.43183e-05
-1.59144e-07
-5.44266e-05
-1.57487e-07
-5.45359e-05
-1.55443e-07
-5.46463e-05
-1.5306e-07
-5.47579e-05
-1.50376e-07
-5.48709e-05
-1.47416e-07
-5.49854e-05
-1.44209e-07
-5.51015e-05
-1.40809e-07
-5.52195e-05
-1.37295e-07
-5.53396e-05
-1.33773e-07
-5.54618e-05
-1.3038e-07
-5.55865e-05
-1.27309e-07
-5.57139e-05
-1.24798e-07
-5.58442e-05
-1.2316e-07
-5.59776e-05
-1.22771e-07
-5.61144e-05
-1.24085e-07
-5.62551e-05
-1.27559e-07
-5.63997e-05
-1.34006e-07
-5.65486e-05
-1.44301e-07
-5.6702e-05
-1.59099e-07
-5.68603e-05
-1.79167e-07
-5.7024e-05
-2.05327e-07
-5.71936e-05
-2.3824e-07
-5.73694e-05
-2.78225e-07
-5.75519e-05
-3.25338e-07
-5.77404e-05
-3.78909e-07
-5.79338e-05
-4.35928e-07
-5.81294e-05
-4.90917e-07
-5.83217e-05
-5.3593e-07
-5.85005e-05
-5.59157e-07
-5.86481e-05
-5.44656e-07
-5.87369e-05
-4.7372e-07
-5.87183e-05
-3.11605e-07
-5.85209e-05
2.19754e-08
-5.80383e-05
6.79075e-07
-5.70389e-05
1.85362e-06
-5.51169e-05
3.98009e-06
-5.15366e-05
7.52744e-06
1.20438e-05
-4.5375e-05
-5.0255e-05
-4.06671e-08
-5.03122e-05
-6.26786e-08
-5.03829e-05
-7.83349e-08
-5.04622e-05
-8.82759e-08
-5.05468e-05
-9.42998e-08
-5.06345e-05
-9.77823e-08
-5.07241e-05
-9.96225e-08
-5.08147e-05
-1.00429e-07
-5.09059e-05
-1.00577e-07
-5.09973e-05
-1.00284e-07
-5.10888e-05
-9.97218e-08
-5.11803e-05
-9.89642e-08
-5.12717e-05
-9.80843e-08
-5.13629e-05
-9.71181e-08
-5.14539e-05
-9.61004e-08
-5.15447e-05
-9.50422e-08
-5.16353e-05
-9.39613e-08
-5.17257e-05
-9.28578e-08
-5.18158e-05
-9.17416e-08
-5.19057e-05
-9.05331e-08
-5.19952e-05
-8.93665e-08
-5.20843e-05
-8.83544e-08
-5.2173e-05
-8.73993e-08
-5.2261e-05
-8.64749e-08
-5.23484e-05
-8.56127e-08
-5.24352e-05
-8.48123e-08
-5.25215e-05
-8.40808e-08
-5.26071e-05
-8.3397e-08
-5.26921e-05
-8.27705e-08
-5.27765e-05
-8.21812e-08
-5.28603e-05
-8.16607e-08
-5.29436e-05
-8.11932e-08
-5.30263e-05
-8.08163e-08
-5.31085e-05
-8.05065e-08
-5.31902e-05
-8.02924e-08
-5.32714e-05
-8.01453e-08
-5.33523e-05
-8.00864e-08
-5.34327e-05
-8.00784e-08
-5.35129e-05
-8.01562e-08
-5.35927e-05
-8.02991e-08
-5.36724e-05
-8.05147e-08
-5.37519e-05
-8.07862e-08
-5.38313e-05
-8.11e-08
-5.39107e-05
-8.14632e-08
-5.39901e-05
-8.18642e-08
-5.40697e-05
-8.22854e-08
-5.41494e-05
-8.27144e-08
-5.42293e-05
-8.31353e-08
-5.43096e-05
-8.35092e-08
-5.43903e-05
-8.38351e-08
-5.44715e-05
-8.4097e-08
-5.45532e-05
-8.4265e-08
-5.46356e-05
-8.43113e-08
-5.47188e-05
-8.41964e-08
-5.48027e-05
-8.38709e-08
-5.48876e-05
-8.33014e-08
-5.49735e-05
-8.24454e-08
-5.50604e-05
-8.12693e-08
-5.51486e-05
-7.96581e-08
-5.52383e-05
-7.78248e-08
-5.5329e-05
-7.63003e-08
-5.54211e-05
-7.39948e-08
-5.55148e-05
-7.09853e-08
-5.56103e-05
-6.74918e-08
-5.57077e-05
-6.35672e-08
-5.5807e-05
-5.92413e-08
-5.59084e-05
-5.45232e-08
-5.6012e-05
-4.94303e-08
-5.6118e-05
-4.40051e-08
-5.62267e-05
-3.83116e-08
-5.6338e-05
-3.24446e-08
-5.64524e-05
-2.65257e-08
-5.65699e-05
-2.07335e-08
-5.66908e-05
-1.52898e-08
-5.68154e-05
-1.04835e-08
-5.6944e-05
-6.6723e-09
-5.70768e-05
-4.27182e-09
-5.72142e-05
-3.78343e-09
-5.73565e-05
-5.92655e-09
-5.75042e-05
-1.14497e-08
-5.76578e-05
-2.10355e-08
-5.78179e-05
-3.54457e-08
-5.79849e-05
-5.5458e-08
-5.81595e-05
-8.17778e-08
-5.8342e-05
-1.14702e-07
-5.85329e-05
-1.54478e-07
-5.87315e-05
-2.01605e-07
-5.8936e-05
-2.54012e-07
-5.91435e-05
-3.07456e-07
-5.93476e-05
-3.57455e-07
-5.95373e-05
-3.96842e-07
-5.96935e-05
-4.17516e-07
-5.97885e-05
-4.09547e-07
-5.97718e-05
-3.60719e-07
-5.95607e-05
-2.23112e-07
-5.89968e-05
8.08835e-08
-5.78307e-05
6.51256e-07
-5.55882e-05
1.69518e-06
-5.15437e-05
3.43113e-06
5.56738e-06
-4.51278e-05
-5.1168e-05
-1.38784e-09
-5.12249e-05
-7.46379e-09
-5.12947e-05
-1.01e-08
-5.13728e-05
-1.17277e-08
-5.14556e-05
-1.29329e-08
-5.15409e-05
-1.38805e-08
-5.16272e-05
-1.46191e-08
-5.17137e-05
-1.51914e-08
-5.17999e-05
-1.56411e-08
-5.18854e-05
-1.59646e-08
-5.197e-05
-1.62173e-08
-5.20537e-05
-1.63905e-08
-5.21363e-05
-1.64984e-08
-5.22179e-05
-1.65655e-08
-5.22984e-05
-1.65913e-08
-5.23779e-05
-1.6585e-08
-5.24562e-05
-1.65438e-08
-5.25336e-05
-1.64736e-08
-5.26099e-05
-1.63608e-08
-5.26852e-05
-1.61941e-08
-5.27594e-05
-1.60433e-08
-5.28327e-05
-1.59668e-08
-5.29052e-05
-1.59126e-08
-5.29767e-05
-1.58694e-08
-5.30475e-05
-1.5838e-08
-5.31174e-05
-1.58268e-08
-5.31867e-05
-1.583e-08
-5.32553e-05
-1.58421e-08
-5.33232e-05
-1.58404e-08
-5.33906e-05
-1.58401e-08
-5.34575e-05
-1.58316e-08
-5.3524e-05
-1.58484e-08
-5.359e-05
-1.58745e-08
-5.36558e-05
-1.5932e-08
-5.37212e-05
-1.59994e-08
-5.37865e-05
-1.61006e-08
-5.38516e-05
-1.62093e-08
-5.39165e-05
-1.6332e-08
-5.39815e-05
-1.64692e-08
-5.40465e-05
-1.66074e-08
-5.41115e-05
-1.67581e-08
-5.41767e-05
-1.69031e-08
-5.42421e-05
-1.70312e-08
-5.43078e-05
-1.71392e-08
-5.43738e-05
-1.72225e-08
-5.44403e-05
-1.72612e-08
-5.45072e-05
-1.72446e-08
-5.45746e-05
-1.71531e-08
-5.46426e-05
-1.69483e-08
-5.47113e-05
-1.66296e-08
-5.47808e-05
-1.61862e-08
-5.4851e-05
-1.55789e-08
-5.49221e-05
-1.47695e-08
-5.49942e-05
-1.37384e-08
-5.50673e-05
-1.24218e-08
-5.51415e-05
-1.07875e-08
-5.52169e-05
-8.80736e-09
-5.52936e-05
-6.4011e-09
-5.53715e-05
-3.55379e-09
-5.54512e-05
4.84836e-11
-5.55319e-05
2.47641e-09
-5.56142e-05
6.22129e-09
-5.56982e-05
1.09311e-08
-5.57841e-05
1.61766e-08
-5.58719e-05
2.19108e-08
-5.59618e-05
2.81435e-08
-5.60539e-05
3.4879e-08
-5.61483e-05
4.2113e-08
-5.62452e-05
4.9816e-08
-5.63447e-05
5.79352e-08
-5.64471e-05
6.63929e-08
-5.65525e-05
7.50849e-08
-5.66612e-05
8.38529e-08
-5.67735e-05
9.24938e-08
-5.68895e-05
1.00746e-07
-5.70096e-05
1.08283e-07
-5.71342e-05
1.14711e-07
-5.72635e-05
1.1954e-07
-5.73981e-05
1.22145e-07
-5.75383e-05
1.2186e-07
-5.76848e-05
1.18012e-07
-5.78379e-05
1.09858e-07
-5.79983e-05
9.66353e-08
-5.81665e-05
7.76694e-08
-5.83426e-05
5.23244e-08
-5.85269e-05
2.03354e-08
-5.87189e-05
-1.96153e-08
-5.89166e-05
-6.71581e-08
-5.91172e-05
-1.1904e-07
-5.93139e-05
-1.74655e-07
-5.94954e-05
-2.31352e-07
-5.9644e-05
-2.87685e-07
-5.97297e-05
-3.46004e-07
-5.97082e-05
-4.08856e-07
-5.94897e-05
-4.74106e-07
-5.89108e-05
-5.38114e-07
-5.76934e-05
-6.12589e-07
-5.53375e-05
-7.10925e-07
-5.11114e-05
-8.46289e-07
-9.69504e-07
-4.462e-05
-5.06663e-05
3.67306e-08
-5.07227e-05
4.95135e-08
-5.0793e-05
6.06595e-08
-5.08719e-05
6.76332e-08
-5.09559e-05
7.15139e-08
-5.10427e-05
7.33437e-08
-5.11309e-05
7.39408e-08
-5.12196e-05
7.38125e-08
-5.13081e-05
7.32728e-08
-5.13963e-05
7.25081e-08
-5.14838e-05
7.16237e-08
-5.15706e-05
7.06722e-08
-5.16566e-05
6.97132e-08
-5.17416e-05
6.87367e-08
-5.18257e-05
6.77776e-08
-5.19089e-05
6.68297e-08
-5.19911e-05
6.59157e-08
-5.20724e-05
6.50287e-08
-5.21527e-05
6.41923e-08
-5.2232e-05
6.33929e-08
-5.23104e-05
6.26025e-08
-5.23879e-05
6.17871e-08
-5.24645e-05
6.09812e-08
-5.25402e-05
6.01817e-08
-5.26151e-05
5.94049e-08
-5.26891e-05
5.86387e-08
-5.27624e-05
5.78942e-08
-5.2835e-05
5.71741e-08
-5.29068e-05
5.65186e-08
-5.2978e-05
5.59052e-08
-5.30485e-05
5.53549e-08
-5.31185e-05
5.48188e-08
-5.3188e-05
5.43297e-08
-5.3257e-05
5.38523e-08
-5.33255e-05
5.34251e-08
-5.33937e-05
5.30094e-08
-5.34616e-05
5.26503e-08
-5.35292e-05
5.23146e-08
-5.35965e-05
5.20406e-08
-5.36637e-05
5.18126e-08
-5.37309e-05
5.16496e-08
-5.3798e-05
5.15489e-08
-5.38651e-05
5.15128e-08
-5.39322e-05
5.15658e-08
-5.39996e-05
5.17145e-08
-5.40671e-05
5.19721e-08
-5.41349e-05
5.23561e-08
-5.42031e-05
5.28851e-08
-5.42717e-05
5.35866e-08
-5.43407e-05
5.44727e-08
-5.44103e-05
5.55591e-08
-5.44805e-05
5.68796e-08
-5.45514e-05
5.84725e-08
-5.46231e-05
6.03599e-08
-5.46955e-05
6.26046e-08
-5.47689e-05
6.52427e-08
-5.48432e-05
6.82866e-08
-5.49185e-05
7.18208e-08
-5.49949e-05
7.59114e-08
-5.50721e-05
8.0398e-08
-5.51512e-05
8.48088e-08
-5.52316e-05
9.01593e-08
-5.53135e-05
9.63956e-08
-5.53968e-05
1.03318e-07
-5.54817e-05
1.10876e-07
-5.55684e-05
1.19067e-07
-5.56569e-05
1.27902e-07
-5.57474e-05
1.37388e-07
-5.58401e-05
1.47514e-07
-5.5935e-05
1.58232e-07
-5.60324e-05
1.69491e-07
-5.61325e-05
1.81208e-07
-5.62355e-05
1.93249e-07
-5.63415e-05
2.05435e-07
-5.64509e-05
2.17536e-07
-5.6564e-05
2.29256e-07
-5.6681e-05
2.40233e-07
-5.68024e-05
2.50012e-07
-5.69284e-05
2.58036e-07
-5.70596e-05
2.63699e-07
-5.71964e-05
2.66359e-07
-5.73393e-05
2.65287e-07
-5.74888e-05
2.59699e-07
-5.76453e-05
2.48914e-07
-5.7809e-05
2.32054e-07
-5.79794e-05
2.08171e-07
-5.81562e-05
1.76362e-07
-5.83379e-05
1.35895e-07
-5.85188e-05
8.6139e-08
-5.86911e-05
2.52335e-08
-5.88448e-05
-4.65357e-08
-5.89631e-05
-1.34597e-07
-5.90169e-05
-2.53496e-07
-5.89589e-05
-4.23677e-07
-5.87052e-05
-6.79591e-07
-5.80998e-05
-1.08979e-06
-5.68643e-05
-1.78848e-06
-5.45113e-05
-2.99824e-06
-5.03384e-05
-4.94872e-06
-7.28478e-06
-4.39537e-05
-4.90257e-05
6.60994e-08
-4.90788e-05
1.04968e-07
-4.91465e-05
1.30614e-07
-4.92235e-05
1.46918e-07
-4.93064e-05
1.56675e-07
-4.9393e-05
1.62169e-07
-4.94819e-05
1.6512e-07
-4.95724e-05
1.66487e-07
-4.96639e-05
1.66965e-07
-4.97561e-05
1.66867e-07
-4.98488e-05
1.66485e-07
-4.99418e-05
1.65875e-07
-5.00351e-05
1.6516e-07
-5.01286e-05
1.6436e-07
-5.02222e-05
1.63521e-07
-5.03158e-05
1.62641e-07
-5.04095e-05
1.6175e-07
-5.05031e-05
1.60842e-07
-5.05967e-05
1.59939e-07
-5.06901e-05
1.5902e-07
-5.07834e-05
1.58075e-07
-5.08765e-05
1.57083e-07
-5.09693e-05
1.56069e-07
-5.10619e-05
1.55023e-07
-5.11541e-05
1.53963e-07
-5.1246e-05
1.52878e-07
-5.13375e-05
1.5178e-07
-5.14286e-05
1.50678e-07
-5.15192e-05
1.49616e-07
-5.16094e-05
1.48592e-07
-5.16991e-05
1.47609e-07
-5.17882e-05
1.46636e-07
-5.18769e-05
1.45688e-07
-5.1965e-05
1.44755e-07
-5.20526e-05
1.43864e-07
-5.21396e-05
1.43e-07
-5.22262e-05
1.42195e-07