/*--------------------------------*- C++ -*----------------------------------*\
| =========                 |                                                 |
| \\      /  F ield         | OpenFOAM: The Open Source CFD Toolbox           |
|  \\    /   O peration     | Version:  2.1.0                                 |
|   \\  /    A nd           | Web:      www.OpenFOAM.org                      |
|    \\/     M anipulation  |                                                 |
\*---------------------------------------------------------------------------*/
FoamFile
{
    version     2.0;
    format      ascii;
    class       volScalarField;
    location    "0.39";
    object      rho;
}
// * * * * * * * * * * * * * * * * * * * * * * * * * * * * * * * * * * * * * //

dimensions      [1 -3 0 0 0 0 0];

internalField   nonuniform List<scalar> 
6400
(
952.385
952.149
951.92
951.698
951.482
951.272
951.068
950.87
950.677
950.489
950.306
950.129
949.957
949.789
949.627
949.469
949.316
949.167
949.023
948.883
948.748
948.617
948.49
948.367
948.248
948.133
948.022
947.915
947.811
947.711
947.615
947.522
947.433
947.346
947.263
947.183
947.107
947.033
946.962
946.894
946.829
946.767
946.707
946.65
946.595
946.543
946.493
946.446
946.401
946.358
946.317
946.278
946.242
946.207
946.174
946.143
946.114
946.087
946.061
946.037
946.014
945.993
945.974
945.955
945.939
945.924
945.91
945.897
945.887
945.877
945.87
945.864
945.859
945.856
945.856
945.857
945.86
945.865
945.873
945.884
945.897
945.915
945.937
945.965
946.001
946.046
946.107
946.189
946.304
946.474
946.744
947.213
948.116
949.964
952.651
948.598
944.763
944.557
944.555
944.555
951.176
950.975
950.775
950.581
950.391
950.207
950.027
949.852
949.682
949.516
949.354
949.197
949.044
948.896
948.751
948.611
948.474
948.342
948.213
948.088
947.967
947.85
947.736
947.626
947.519
947.416
947.316
947.22
947.126
947.036
946.949
946.865
946.784
946.706
946.631
946.559
946.489
946.422
946.358
946.297
946.237
946.181
946.126
946.074
946.025
945.977
945.932
945.888
945.847
945.808
945.77
945.734
945.7
945.668
945.637
945.607
945.579
945.553
945.527
945.503
945.48
945.458
945.437
945.417
945.398
945.38
945.363
945.346
945.33
945.315
945.301
945.288
945.275
945.262
945.251
945.24
945.229
945.22
945.211
945.202
945.195
945.188
945.182
945.178
945.174
945.172
945.171
945.171
945.172
945.173
945.171
945.161
945.132
945.064
944.926
944.728
944.572
944.555
944.555
944.555
950.724
950.539
950.353
950.171
949.993
949.819
949.65
949.484
949.322
949.165
949.011
948.861
948.714
948.572
948.433
948.297
948.166
948.037
947.913
947.791
947.673
947.558
947.447
947.338
947.233
947.131
947.032
946.936
946.843
946.753
946.666
946.582
946.501
946.422
946.347
946.274
946.203
946.135
946.07
946.007
945.947
945.889
945.833
945.78
945.728
945.679
945.632
945.587
945.544
945.503
945.464
945.426
945.39
945.356
945.323
945.292
945.262
945.233
945.206
945.18
945.155
945.131
945.108
945.086
945.065
945.045
945.025
945.006
944.988
944.97
944.952
944.935
944.918
944.901
944.884
944.868
944.851
944.835
944.818
944.802
944.785
944.769
944.753
944.736
944.72
944.703
944.687
944.671
944.655
944.639
944.624
944.609
944.595
944.582
944.571
944.564
944.556
944.555
944.555
944.555
950.693
950.519
950.342
950.167
949.995
949.826
949.661
949.499
949.34
949.185
949.033
948.884
948.739
948.597
948.457
948.321
948.189
948.059
947.932
947.808
947.687
947.569
947.454
947.341
947.231
947.125
947.02
946.919
946.82
946.725
946.631
946.541
946.453
946.367
946.284
946.204
946.126
946.051
945.978
945.908
945.84
945.775
945.711
945.651
945.592
945.536
945.482
945.43
945.38
945.332
945.287
945.243
945.201
945.161
945.123
945.087
945.053
945.02
944.989
944.96
944.932
944.905
944.88
944.856
944.834
944.812
944.792
944.773
944.755
944.737
944.721
944.706
944.691
944.678
944.665
944.653
944.641
944.631
944.621
944.612
944.604
944.596
944.589
944.583
944.578
944.573
944.569
944.566
944.563
944.561
944.559
944.558
944.557
944.556
944.556
944.555
944.555
944.555
944.555
944.555
951.15
950.985
950.814
950.644
950.476
950.31
950.146
949.985
949.827
949.671
949.518
949.368
949.22
949.075
948.932
948.792
948.655
948.52
948.387
948.257
948.13
948.004
947.882
947.761
947.643
947.528
947.414
947.303
947.195
947.088
946.984
946.882
946.782
946.684
946.589
946.496
946.405
946.316
946.23
946.146
946.064
945.984
945.907
945.832
945.759
945.689
945.621
945.555
945.491
945.43
945.372
945.315
945.261
945.21
945.16
945.113
945.069
945.026
944.986
944.949
944.913
944.88
944.848
944.819
944.792
944.767
944.744
944.722
944.703
944.685
944.668
944.653
944.64
944.628
944.618
944.608
944.6
944.592
944.586
944.58
944.576
944.571
944.568
944.565
944.563
944.561
944.559
944.558
944.557
944.556
944.555
944.555
944.555
944.555
944.555
944.555
944.555
944.555
944.555
944.555
952.308
952.151
951.989
951.826
951.663
951.502
951.342
951.184
951.028
950.874
950.723
950.573
950.425
950.279
950.134
949.992
949.851
949.713
949.576
949.44
949.307
949.175
949.045
948.917
948.79
948.665
948.542
948.42
948.3
948.181
948.064
947.949
947.835
947.723
947.612
947.503
947.395
947.289
947.184
947.081
946.98
946.88
946.782
946.686
946.592
946.499
946.408
946.319
946.232
946.146
946.063
945.982
945.903
945.826
945.752
945.679
945.609
945.542
945.477
945.414
945.354
945.296
945.241
945.188
945.138
945.09
945.045
945.003
944.963
944.925
944.89
944.857
944.826
944.797
944.771
944.746
944.724
944.703
944.684
944.667
944.651
944.637
944.624
944.613
944.602
944.593
944.585
944.578
944.572
944.567
944.563
944.559
944.557
944.556
944.556
944.555
944.555
944.555
944.555
944.555
954.526
954.382
954.233
954.083
953.933
953.784
953.636
953.489
953.343
953.199
953.057
952.916
952.776
952.638
952.501
952.364
952.23
952.095
951.962
951.83
951.698
951.567
951.437
951.307
951.179
951.052
950.926
950.8
950.675
950.551
950.428
950.305
950.183
950.062
949.941
949.821
949.701
949.582
949.463
949.344
949.226
949.108
948.991
948.873
948.756
948.639
948.522
948.406
948.289
948.173
948.057
947.942
947.826
947.712
947.597
947.483
947.37
947.257
947.146
947.035
946.925
946.816
946.709
946.603
946.499
946.396
946.295
946.197
946.1
946.006
945.915
945.825
945.739
945.655
945.573
945.495
945.419
945.346
945.275
945.208
945.143
945.081
945.023
944.966
944.913
944.862
944.814
944.77
944.728
944.69
944.657
944.628
944.605
944.588
944.577
944.571
944.566
944.563
944.561
944.56
958.13
958.007
957.88
957.753
957.626
957.499
957.375
957.25
957.128
957.007
956.887
956.769
956.652
956.536
956.422
956.308
956.196
956.084
955.974
955.864
955.754
955.646
955.537
955.43
955.323
955.216
955.11
955.003
954.898
954.792
954.686
954.579
954.473
954.366
954.259
954.151
954.043
953.933
953.823
953.712
953.6
953.486
953.371
953.254
953.136
953.016
952.895
952.771
952.646
952.519
952.389
952.257
952.123
951.987
951.848
951.707
951.564
951.418
951.27
951.119
950.966
950.81
950.653
950.492
950.33
950.166
949.999
949.831
949.661
949.489
949.316
949.141
948.965
948.788
948.61
948.431
948.252
948.071
947.89
947.707
947.523
947.338
947.151
946.962
946.771
946.578
946.384
946.188
945.992
945.798
945.609
945.427
945.259
945.11
944.986
944.896
944.823
944.765
944.721
944.694
963.484
963.397
963.308
963.219
963.132
963.046
962.961
962.877
962.796
962.716
962.638
962.56
962.486
962.412
962.34
962.269
962.2
962.132
962.066
962.001
961.938
961.875
961.813
961.751
961.689
961.627
961.564
961.502
961.439
961.375
961.31
961.245
961.178
961.111
961.042
960.972
960.9
960.827
960.752
960.676
960.598
960.518
960.435
960.351
960.265
960.177
960.086
959.993
959.898
959.8
959.699
959.596
959.49
959.381
959.269
959.154
959.036
958.914
958.789
958.661
958.528
958.392
958.251
958.107
957.957
957.803
957.645
957.481
957.312
957.138
956.957
956.771
956.579
956.379
956.173
955.959
955.737
955.506
955.265
955.013
954.749
954.471
954.178
953.868
953.538
953.187
952.81
952.406
951.972
951.506
951.01
950.484
949.933
949.364
948.789
948.231
947.749
947.309
946.935
946.663
970.707
970.67
970.634
970.597
970.562
970.527
970.494
970.461
970.429
970.398
970.367
970.338
970.309
970.281
970.253
970.226
970.2
970.174
970.148
970.123
970.097
970.072
970.047
970.021
969.996
969.97
969.944
969.918
969.891
969.864
969.837
969.809
969.782
969.753
969.724
969.695
969.666
969.636
969.605
969.575
969.543
969.512
969.48
969.447
969.415
969.381
969.348
969.313
969.279
969.244
969.208
969.172
969.136
969.099
969.061
969.023
968.984
968.945
968.906
968.866
968.826
968.786
968.744
968.701
968.657
968.611
968.564
968.515
968.465
968.412
968.356
968.298
968.237
968.172
968.103
968.029
967.95
967.866
967.775
967.676
967.57
967.454
967.328
967.19
967.04
966.875
966.696
966.493
966.258
965.982
965.661
965.286
964.848
964.338
963.741
963.037
962.223
961.381
960.577
959.934
978.382
978.395
978.408
978.421
978.433
978.445
978.455
978.466
978.476
978.486
978.495
978.504
978.512
978.521
978.529
978.537
978.544
978.552
978.559
978.567
978.575
978.583
978.591
978.6
978.61
978.62
978.63
978.641
978.653
978.666
978.68
978.695
978.71
978.727
978.745
978.764
978.784
978.805
978.828
978.852
978.877
978.904
978.932
978.961
978.992
979.024
979.058
979.093
979.13
979.169
979.21
979.253
979.297
979.344
979.393
979.444
979.497
979.553
979.612
979.673
979.737
979.805
979.877
979.953
980.033
980.119
980.21
980.307
980.411
980.522
980.64
980.766
980.901
981.045
981.199
981.365
981.542
981.731
981.934
982.151
982.383
982.629
982.892
983.17
983.465
983.776
984.104
984.453
984.833
985.249
985.707
986.205
986.744
987.327
987.958
988.637
989.362
990.118
990.866
991.532
984.596
984.651
984.706
984.764
984.82
984.878
984.934
984.992
985.048
985.105
985.161
985.217
985.272
985.328
985.383
985.438
985.493
985.548
985.603
985.659
985.714
985.769
985.825
985.881
985.938
985.995
986.052
986.111
986.17
986.23
986.29
986.352
986.415
986.479
986.544
986.611
986.679
986.749
986.82
986.893
986.968
987.045
987.123
987.204
987.288
987.373
987.461
987.551
987.645
987.74
987.839
987.941
988.046
988.154
988.265
988.38
988.498
988.621
988.747
988.878
989.014
989.154
989.301
989.452
989.61
989.775
989.946
990.125
990.311
990.505
990.708
990.919
991.14
991.371
991.611
991.862
992.122
992.394
992.676
992.968
993.27
993.581
993.901
994.228
994.562
994.901
995.243
995.586
995.928
996.266
996.596
996.924
997.253
997.576
997.887
998.184
998.461
998.71
998.92
999.077
989.246
989.32
989.398
989.478
989.56
989.642
989.725
989.809
989.892
989.976
990.06
990.144
990.229
990.313
990.398
990.483
990.568
990.654
990.739
990.826
990.912
990.999
991.086
991.174
991.262
991.351
991.44
991.53
991.621
991.713
991.805
991.898
991.992
992.086
992.182
992.279
992.377
992.476
992.577
992.678
992.781
992.886
992.991
993.099
993.207
993.318
993.43
993.543
993.659
993.776
993.895
994.016
994.138
994.263
994.39
994.519
994.65
994.783
994.919
995.057
995.197
995.339
995.484
995.631
995.78
995.931
996.084
996.24
996.397
996.557
996.718
996.88
997.044
997.208
997.373
997.539
997.704
997.868
998.031
998.192
998.35
998.505
998.655
998.8
998.939
999.071
999.195
999.311
999.417
999.513
999.597
999.67
999.73
999.784
999.829
999.868
999.899
999.924
999.942
999.955
992.628
992.705
992.788
992.873
992.961
993.05
993.139
993.229
993.319
993.41
993.501
993.592
993.683
993.775
993.866
993.958
994.05
994.142
994.235
994.328
994.421
994.514
994.608
994.702
994.796
994.891
994.986
995.082
995.177
995.274
995.37
995.467
995.564
995.661
995.759
995.857
995.955
996.054
996.152
996.251
996.35
996.449
996.549
996.648
996.747
996.846
996.945
997.044
997.142
997.241
997.338
997.436
997.533
997.63
997.726
997.821
997.916
998.01
998.104
998.196
998.287
998.377
998.466
998.553
998.639
998.723
998.805
998.886
998.964
999.041
999.115
999.187
999.256
999.323
999.388
999.449
999.508
999.563
999.615
999.664
999.71
999.752
999.79
999.825
999.857
999.884
999.908
999.929
999.946
999.96
999.971
999.979
999.985
999.989
999.992
999.995
999.996
999.998
999.998
999.999
994.917
994.989
995.068
995.15
995.233
995.318
995.403
995.489
995.575
995.661
995.747
995.833
995.919
996.005
996.09
996.176
996.262
996.347
996.433
996.518
996.603
996.688
996.773
996.858
996.942
997.026
997.11
997.193
997.276
997.359
997.441
997.523
997.604
997.685
997.765
997.844
997.923
998.001
998.078
998.154
998.229
998.303
998.376
998.448
998.519
998.589
998.657
998.724
998.79
998.854
998.916
998.977
999.036
999.094
999.15
999.204
999.256
999.306
999.355
999.402
999.446
999.489
999.53
999.569
999.606
999.641
999.674
999.706
999.735
999.763
999.789
999.812
999.835
999.855
999.874
999.891
999.907
999.921
999.934
999.945
999.955
999.964
999.971
999.978
999.983
999.987
999.991
999.994
999.996
999.997
999.998
999.999
999.999
1000
1000
1000
1000
1000
1000
1000
996.426
996.491
996.561
996.634
996.709
996.784
996.86
996.935
997.011
997.086
997.161
997.236
997.311
997.385
997.458
997.532
997.604
997.677
997.748
997.819
997.89
997.96
998.029
998.098
998.165
998.232
998.299
998.364
998.428
998.491
998.554
998.615
998.676
998.735
998.793
998.85
998.906
998.961
999.014
999.066
999.117
999.166
999.214
999.261
999.305
999.349
999.391
999.431
999.47
999.507
999.543
999.577
999.609
999.64
999.67
999.697
999.724
999.748
999.771
999.793
999.813
999.832
999.85
999.866
999.881
999.895
999.907
999.919
999.929
999.939
999.947
999.955
999.962
999.968
999.973
999.978
999.982
999.985
999.988
999.991
999.993
999.995
999.996
999.997
999.998
999.999
999.999
999.999
1000
1000
1000
1000
1000
1000
1000
1000
1000
1000
1000
1000
997.452
997.507
997.568
997.63
997.693
997.756
997.819
997.882
997.944
998.006
998.068
998.129
998.19
998.249
998.309
998.367
998.425
998.482
998.539
998.594
998.649
998.703
998.757
998.809
998.86
998.911
998.96
999.008
999.056
999.102
999.147
999.192
999.235
999.276
999.317
999.356
999.394
999.431
999.467
999.501
999.534
999.565
999.596
999.625
999.652
999.679
999.704
999.728
999.75
999.771
999.791
999.81
999.828
999.844
999.859
999.874
999.887
999.899
999.91
999.92
999.93
999.938
999.946
999.953
999.959
999.965
999.97
999.974
999.978
999.982
999.985
999.987
999.99
999.992
999.993
999.995
999.996
999.997
999.998
999.998
999.999
999.999
999.999
1000
1000
1000
1000
1000
1000
1000
1000
1000
1000
1000
1000
1000
1000
1000
1000
1000
998.181
998.227
998.277
998.327
998.378
998.429
998.479
998.529
998.578
998.627
998.675
998.723
998.77
998.816
998.862
998.907
998.951
998.995
999.037
999.079
999.12
999.16
999.199
999.238
999.275
999.312
999.348
999.382
999.416
999.449
999.481
999.512
999.541
999.57
999.598
999.624
999.649
999.674
999.697
999.719
999.74
999.76
999.779
999.797
999.814
999.83
999.845
999.859
999.872
999.884
999.896
999.906
999.916
999.925
999.934
999.941
999.948
999.954
999.96
999.965
999.97
999.974
999.978
999.981
999.984
999.986
999.989
999.99
999.992
999.994
999.995
999.996
999.997
999.997
999.998
999.998
999.999
999.999
999.999
1000
1000
1000
1000
1000
1000
1000
1000
1000
1000
1000
1000
1000
1000
1000
1000
1000
1000
1000
1000
1000
998.716
998.754
998.793
998.833
998.872
998.911
998.95
998.988
999.026
999.063
999.1
999.136
999.171
999.206
999.24
999.273
999.306
999.338
999.369
999.399
999.429
999.458
999.486
999.513
999.54
999.566
999.591
999.615
999.638
999.66
999.682
999.703
999.722
999.741
999.759
999.777
999.793
999.809
999.823
999.838
999.851
999.863
999.875
999.886
999.896
999.906
999.915
999.923
999.931
999.938
999.945
999.951
999.956
999.961
999.966
999.97
999.974
999.977
999.981
999.983
999.986
999.988
999.99
999.991
999.993
999.994
999.995
999.996
999.997
999.997
999.998
999.998
999.999
999.999
999.999
999.999
1000
1000
1000
1000
1000
1000
1000
1000
1000
1000
1000
1000
1000
1000
1000
1000
1000
1000
1000
1000
1000
1000
1000
1000
999.194
999.222
999.249
999.277
999.304
999.331
999.358
999.384
999.41
999.435
999.46
999.484
999.507
999.53
999.553
999.575
999.596
999.617
999.637
999.656
999.675
999.693
999.711
999.728
999.744
999.76
999.775
999.79
999.803
999.817
999.829
999.841
999.853
999.864
999.874
999.884
999.893
999.902
999.91
999.918
999.925
999.932
999.938
999.944
999.949
999.954
999.959
999.963
999.967
999.971
999.974
999.977
999.98
999.982
999.985
999.987
999.988
999.99
999.991
999.993
999.994
999.995
999.996
999.996
999.997
999.997
999.998
999.998
999.999
999.999
999.999
999.999
999.999
1000
1000
1000
1000
1000
1000
1000
1000
1000
1000
1000
1000
1000
1000
1000
1000
1000
1000
1000
1000
1000
1000
1000
1000
1000
1000
1000
944.555
944.555
944.555
944.555
944.555
944.555
944.555
944.555
944.555
944.555
944.555
944.555
944.555
944.555
944.555
944.555
944.555
944.555
944.555
944.555
944.555
944.555
944.555
944.555
944.555
944.555
944.555
944.555
944.555
944.555
944.555
944.555
944.555
944.555
944.555
944.555
944.555
944.555
944.555
944.557
944.555
944.555
944.555
944.555
944.555
944.555
944.555
944.555
944.555
944.555
944.555
944.555
944.555
944.555
944.555
944.555
944.555
944.556
944.559
944.568
944.555
944.555
944.555
944.555
944.555
944.555
944.555
944.555
944.555
944.555
944.555
944.555
944.555
944.555
944.556
944.557
944.559
944.565
944.582
944.656
944.555
944.555
944.555
944.555
944.555
944.555
944.555
944.555
944.555
944.555
944.555
944.556
944.557
944.558
944.561
944.568
944.583
944.621
944.741
945.285
944.555
944.555
944.555
944.555
944.555
944.556
944.556
944.557
944.558
944.559
944.561
944.564
944.569
944.578
944.594
944.628
944.706
944.908
945.571
948.799
944.56
944.561
944.563
944.566
944.568
944.572
944.576
944.581
944.586
944.592
944.6
944.614
944.635
944.673
944.743
944.881
945.183
945.949
948.461
960.929
944.697
944.715
944.735
944.758
944.781
944.803
944.822
944.834
944.843
944.857
944.879
944.917
944.981
945.096
945.309
945.719
946.575
948.608
954.602
980.671
946.615
946.715
946.812
946.908
946.987
947.016
947.013
946.978
946.952
946.928
946.922
946.936
947.004
947.17
947.595
948.503
950.427
954.544
963.947
993.058
959.743
959.944
960.14
960.319
960.449
960.453
960.421
960.394
960.352
960.271
960.177
960.035
959.924
959.802
960.034
960.994
963.649
969.047
979.363
992.935
991.846
991.76
991.701
991.666
991.692
991.868
992.097
992.335
992.589
992.884
993.209
993.609
994.056
994.63
995.084
995.368
995.312
995.322
996.358
997.308
999.124
999.087
999.054
999.024
999.007
999.019
999.053
999.11
999.169
999.234
999.299
999.375
999.449
999.533
999.596
999.635
999.64
999.648
999.73
999.053
999.956
999.951
999.945
999.939
999.934
999.929
999.927
999.93
999.934
999.941
999.948
999.955
999.961
999.967
999.972
999.975
999.977
999.977
999.968
999.744
999.999
999.999
999.998
999.998
999.998
999.997
999.997
999.996
999.996
999.997
999.997
999.997
999.998
999.998
999.998
999.999
999.999
999.998
999.996
999.969
1000
1000
1000
1000
1000
1000
1000
1000
1000
1000
1000
1000
1000
1000
1000
1000
1000
1000
1000
1000
1000
1000
1000
1000
1000
1000
1000
1000
1000
1000
1000
1000
1000
1000
1000
1000
1000
1000
1000
1000
1000
1000
1000
1000
1000
1000
1000
1000
1000
1000
1000
1000
1000
1000
1000
1000
1000
1000
1000
1000
1000
1000
1000
1000
1000
1000
1000
1000
1000
1000
1000
1000
1000
1000
1000
1000
1000
1000
1000
1000
1000
1000
1000
1000
1000
1000
1000
1000
1000
1000
1000
1000
1000
1000
1000
1000
1000
1000
1000
1000
1000
1000
1000
1000
1000
1000
1000
1000
1000
1000
1000
1000
1000
1000
1000
1000
1000
1000
1000
1000
944.555
944.555
944.555
944.555
944.555
944.555
944.555
944.555
944.555
944.555
944.555
944.555
944.555
944.555
944.555
944.555
944.555
944.555
944.555
944.555
944.555
944.555
944.555
944.555
944.555
944.555
944.555
944.555
944.555
944.555
944.555
944.555
944.555
944.555
944.555
944.555
944.555
944.555
944.555
944.555
944.555
944.555
944.555
944.555
944.555
944.555
944.555
944.555
944.555
944.555
944.555
944.555
944.555
944.555
944.555
944.555
944.555
944.555
944.555
944.555
944.555
944.555
944.555
944.555
944.555
944.555
944.555
944.555
944.555
944.555
944.555
944.555
944.555
944.555
944.555
944.555
944.555
944.555
944.555
944.555
944.555
944.555
944.555
944.555
944.555
944.555
944.555
944.555
944.555
944.555
944.555
944.555
944.555
944.555
944.555
944.555
944.555
944.555
944.555
944.555
944.555
944.555
944.555
944.555
944.555
944.555
944.555
944.555
944.555
944.555
944.555
944.555
944.555
944.555
944.555
944.555
944.555
944.555
944.555
944.555
944.555
944.555
944.555
944.555
944.555
944.555
944.555
944.555
944.555
944.555
944.555
944.555
944.555
944.555
944.555
944.555
944.555
944.555
944.555
944.555
944.555
944.555
944.555
944.555
944.555
944.555
944.555
944.555
944.555
944.555
944.555
944.555
944.555
944.555
944.555
944.555
944.555
944.555
944.555
944.555
944.555
944.555
944.555
944.555
944.555
944.555
944.555
944.555
944.555
944.555
944.555
944.555
944.555
944.555
944.555
944.555
944.555
944.555
944.555
944.555
944.555
944.555
944.555
944.555
944.555
944.555
944.555
944.555
944.555
944.555
944.555
944.555
944.555
944.555
944.555
944.555
944.555
944.555
944.555
944.555
944.555
944.555
944.555
944.555
944.555
944.555
944.555
944.555
944.555
944.555
944.555
944.555
944.555
944.555
944.555
944.555
944.555
944.555
944.555
944.555
944.555
944.555
944.555
944.555
944.555
944.555
944.555
944.555
944.555
944.555
944.555
944.555
944.555
944.555
944.555
944.555
944.555
944.555
944.555
944.555
944.555
944.555
944.555
944.555
944.555
944.555
944.555
944.555
944.555
944.555
944.555
944.555
944.555
944.555
944.555
944.555
944.555
944.555
944.555
944.555
944.555
944.555
944.555
944.555
944.555
944.555
944.555
944.555
944.555
944.555
944.555
944.555
944.555
944.555
944.555
944.555
944.555
944.555
944.555
944.555
944.555
944.555
944.555
944.555
944.555
944.555
944.555
944.555
944.555
944.555
944.555
944.555
944.555
944.555
944.555
944.555
944.555
944.555
944.555
944.555
944.555
944.555
944.555
944.555
944.555
944.555
944.555
944.555
944.555
944.555
944.555
944.555
944.555
944.555
944.555
944.555
944.555
944.555
944.555
944.555
944.555
944.555
944.555
944.555
944.555
944.555
944.555
944.555
944.555
944.555
944.555
944.555
944.555
944.555
944.555
944.555
944.555
944.555
944.555
944.555
944.555
944.555
944.555
944.555
944.555
944.555
944.555
944.555
944.555
944.555
944.555
944.555
944.555
944.555
944.555
944.555
944.555
944.555
944.555
944.555
944.555
944.555
944.555
944.555
944.555
944.555
944.555
944.555
944.555
944.555
944.555
944.555
944.555
944.555
944.555
944.555
944.555
944.555
944.555
944.555
944.555
944.555
944.555
944.555
944.555
944.555
944.555
944.555
944.555
944.555
944.555
944.555
944.555
944.555
944.555
944.555
944.555
944.555
944.555
944.555
944.555
944.555
944.555
944.555
944.555
944.555
944.555
944.555
944.555
944.555
944.555
944.555
944.555
944.555
944.555
944.555
944.555
944.555
944.555
944.555
944.555
944.555
944.555
944.555
944.555
944.555
944.555
944.555
944.555
944.555
944.555
944.555
944.555
944.555
944.555
944.555
944.555
944.555
944.555
944.555
944.555
944.555
944.555
944.555
944.555
944.555
944.555
944.555
944.555
944.555
944.555
944.555
944.555
944.555
944.555
944.555
944.555
944.555
944.555
944.555
944.555
944.555
944.555
944.555
944.555
944.555
944.555
944.555
944.555
944.555
944.555
944.555
944.555
944.555
944.555
944.555
944.555
944.555
944.555
944.555
944.555
944.555
944.555
944.555
944.555
944.555
944.555
944.555
944.555
944.555
944.555
944.555
944.555
944.555
944.555
944.555
944.555
944.555
944.555
944.555
944.555
944.555
944.555
944.555
944.555
944.555
944.555
944.555
944.555
944.555
944.555
944.555
944.555
944.555
944.555
944.555
944.555
944.555
944.555
944.555
944.555
944.555
944.555
944.555
944.555
944.555
944.555
944.555
944.555
944.555
944.555
944.555
944.555
944.555
944.555
944.555
944.555
944.555
944.555
944.555
944.555
944.555
944.555
944.555
944.555
944.555
944.555
944.555
944.555
944.555
944.555
944.555
944.555
944.555
944.555
944.555
944.555
944.555
944.555
944.555
944.555
944.555
944.555
944.555
944.555
944.555
944.555
944.555
944.555
944.555
944.555
944.555
944.555
944.555
944.555
944.555
944.555
944.555
944.555
944.555
944.555
944.555
944.555
944.555
944.555
944.555
944.555
944.555
944.555
944.555
944.555
944.555
944.555
944.555
944.555
944.555
944.555
944.555
944.555
944.555
944.555
944.555
944.555
944.555
944.555
944.555
944.555
944.555
944.555
944.555
944.555
944.555
944.555
944.555
944.555
944.555
944.555
944.555
944.555
944.555
944.555
944.555
944.555
944.555
944.555
944.555
944.555
944.555
944.555
944.555
944.555
944.555
944.555
944.555
944.555
944.555
944.555
944.555
944.555
944.555
944.555
944.555
944.555
944.555
944.555
944.555
944.555
944.555
944.555
944.555
944.555
944.555
944.555
944.555
944.555
944.555
944.555
944.555
944.555
944.555
944.555
944.555
944.555
944.555
944.555
944.555
944.555
944.555
944.555
944.555
944.555
944.555
944.555
944.555
944.555
944.555
944.555
944.555
944.555
944.555
944.555
944.555
944.555
944.555
944.555
944.555
944.555
944.555
944.555
944.555
944.555
944.555
944.555
944.555
944.555
944.555
944.555
944.555
944.555
944.555
944.555
944.555
944.555
944.555
944.555
944.555
944.555
944.555
944.555
944.555
944.555
944.555
944.555
944.555
944.555
944.555
944.555
944.555
944.555
944.555
944.555
944.555
944.555
944.555
944.555
944.555
944.555
944.555
944.555
944.555
944.555
944.555
944.555
944.555
944.555
944.555
944.555
944.555
944.555
944.555
944.555
944.555
944.555
944.555
944.555
944.555
944.555
944.555
944.555
944.555
944.555
944.555
944.555
944.555
944.555
944.555
944.555
944.555
944.555
944.555
944.555
944.555
944.555
944.555
944.555
944.555
944.555
944.555
944.555
944.555
944.555
944.555
944.555
944.555
944.555
944.555
944.555
944.555
944.555
944.555
944.555
944.555
944.555
944.555
944.555
944.555
944.555
944.555
944.555
944.555
944.555
944.555
944.555
944.555
944.555
944.555
944.555
944.555
944.555
944.555
944.555
944.555
944.555
944.555
944.555
944.555
944.555
944.555
944.555
944.555
944.555
944.555
944.555
944.555
944.555
944.555
944.555
944.555
944.555
944.555
944.555
944.555
944.555
944.555
944.555
944.555
944.555
944.555
944.555
944.555
944.555
944.555
944.555
944.555
944.555
944.555
944.555
944.555
944.555
944.555
944.555
944.555
944.555
944.555
944.555
944.555
944.555
944.555
944.555
944.555
944.555
944.555
944.555
944.555
944.555
944.555
944.555
944.555
944.555
944.555
944.555
944.555
944.555
944.555
944.555
944.555
944.555
944.555
944.555
944.555
944.555
944.555
944.555
944.555
944.555
944.555
944.555
944.555
944.555
944.555
944.555
944.555
944.555
944.555
944.555
944.555
944.555
944.555
944.555
944.555
944.555
944.555
944.555
944.555
944.555
944.555
944.555
944.555
944.555
944.555
944.555
944.555
944.555
944.555
944.555
944.555
944.555
944.555
944.555
944.555
944.555
944.555
944.555
944.555
944.555
944.555
944.555
944.555
944.555
944.555
944.555
944.555
944.555
944.555
944.555
944.555
944.555
944.555
944.555
944.555
944.555
944.555
944.555
944.555
944.555
944.555
944.555
944.555
944.555
944.555
944.555
944.555
944.555
944.555
944.555
944.555
944.555
944.555
944.555
944.555
944.555
944.555
944.555
944.555
944.555
944.555
944.555
944.555
944.555
944.555
944.555
944.555
944.555
944.555
944.555
944.555
944.555
944.555
944.555
944.555
944.555
944.555
944.555
944.555
944.555
944.555
944.555
944.555
944.555
944.555
944.555
944.555
944.555
944.555
944.555
944.555
944.555
944.555
944.555
944.555
944.555
944.555
944.555
944.555
944.555
944.555
944.555
944.555
944.555
944.555
944.555
944.555
944.555
944.555
944.555
944.555
944.555
944.555
944.555
944.555
944.555
944.555
944.555
944.555
944.555
944.555
944.555
944.555
944.555
944.555
944.555
944.555
944.555
944.555
944.555
944.555
944.555
944.555
944.555
944.555
944.555
944.555
944.555
944.555
944.555
944.555
944.555
944.555
944.555
944.555
944.555
944.555
944.555
944.555
944.555
944.555
944.555
944.555
944.555
944.555
944.555
944.555
944.555
944.555
944.555
944.555
944.555
944.555
944.555
944.555
944.555
944.555
944.555
944.555
944.555
944.555
944.555
944.555
944.555
944.555
944.555
944.555
944.555
944.555
944.555
944.555
944.555
944.555
944.555
944.555
944.555
944.555
944.555
944.555
944.555
944.555
944.555
944.555
944.555
944.555
944.555
944.555
944.555
944.555
944.555
944.555
944.555
944.555
944.555
944.555
944.555
944.555
944.555
944.555
944.555
944.555
944.555
944.555
944.555
944.555
944.555
944.555
944.555
944.555
944.555
944.555
944.555
944.555
944.555
944.555
944.555
944.555
944.555
944.555
944.555
944.555
944.555
944.555
944.555
944.555
944.555
944.555
944.555
944.555
944.555
944.555
944.555
944.555
944.555
944.555
944.555
944.555
944.555
944.555
944.555
944.555
944.555
944.555
944.555
944.555
944.555
944.555
944.555
944.555
944.555
944.555
944.555
944.555
944.555
944.555
944.555
944.555
944.555
944.555
944.555
944.555
944.555
944.555
944.555
944.555
944.555
944.555
944.555
944.555
944.555
944.555
944.555
944.555
944.555
944.555
944.555
944.555
944.555
944.555
944.555
944.555
944.555
944.555
944.555
944.555
944.555
944.555
944.555
944.555
944.555
944.555
944.555
944.555
944.555
944.555
944.555
944.555
944.555
944.555
944.555
944.555
944.555
944.555
944.555
944.555
944.555
944.555
944.555
944.555
944.555
944.555
944.555
944.555
944.555
944.555
944.555
944.555
944.555
944.555
944.555
944.555
944.555
944.555
944.555
944.555
944.555
944.555
944.555
944.555
944.555
944.555
944.555
944.555
944.555
944.555
944.555
944.555
944.555
944.555
944.555
944.555
944.555
944.555
944.555
944.555
944.555
944.555
944.555
944.555
944.555
944.555
944.555
944.555
944.555
944.555
944.555
944.555
944.555
944.555
944.555
944.555
944.555
944.555
944.555
944.555
944.555
944.555
944.555
944.555
944.555
944.555
944.555
944.555
944.555
944.555
944.555
944.555
944.555
944.555
944.555
944.555
944.555
944.555
944.555
944.555
944.555
944.555
944.555
944.555
944.555
944.555
944.555
944.555
944.555
944.555
944.555
944.555
944.555
944.555
944.555
944.555
944.555
944.555
944.555
944.555
944.555
944.555
944.555
944.555
944.555
944.555
944.555
944.555
944.555
944.555
944.555
944.555
944.555
944.555
944.555
944.555
944.555
944.555
944.555
944.555
944.555
944.555
944.555
944.555
944.555
944.555
944.555
944.555
944.555
944.555
944.555
944.555
944.555
944.555
944.555
944.555
944.555
944.555
944.555
944.555
944.555
944.555
944.555
944.555