/*--------------------------------*- C++ -*----------------------------------*\
| =========                 |                                                 |
| \\      /  F ield         | OpenFOAM: The Open Source CFD Toolbox           |
|  \\    /   O peration     | Version:  2.1.0                                 |
|   \\  /    A nd           | Web:      www.OpenFOAM.org                      |
|    \\/     M anipulation  |                                                 |
\*---------------------------------------------------------------------------*/
FoamFile
{
    version     2.0;
    format      ascii;
    class       volScalarField;
    location    "0.39";
    object      T;
}
// * * * * * * * * * * * * * * * * * * * * * * * * * * * * * * * * * * * * * //

dimensions      [0 0 0 1 0 0 0];

internalField   nonuniform List<scalar> 
6400
(
378.319
378.763
379.193
379.611
380.017
380.412
380.796
381.17
381.534
381.888
382.232
382.567
382.892
383.209
383.516
383.814
384.104
384.385
384.657
384.921
385.178
385.426
385.666
385.899
386.124
386.342
386.552
386.755
386.952
387.141
387.324
387.501
387.671
387.834
387.992
388.144
388.29
388.43
388.564
388.693
388.817
388.936
389.049
389.158
389.262
389.361
389.455
389.546
389.631
389.713
389.791
389.864
389.934
390
390.062
390.121
390.176
390.228
390.277
390.323
390.367
390.407
390.444
390.479
390.511
390.54
390.566
390.589
390.61
390.628
390.642
390.654
390.662
390.667
390.669
390.667
390.661
390.651
390.636
390.616
390.589
390.556
390.514
390.461
390.393
390.306
390.191
390.035
389.816
389.493
388.979
388.088
386.375
382.88
377.821
385.461
392.752
393.145
393.15
393.15
380.593
380.972
381.349
381.716
382.073
382.421
382.76
383.09
383.412
383.725
384.03
384.327
384.617
384.898
385.171
385.437
385.695
385.946
386.19
386.427
386.656
386.879
387.095
387.304
387.506
387.702
387.892
388.075
388.252
388.424
388.589
388.748
388.902
389.051
389.193
389.331
389.463
389.59
389.712
389.83
389.942
390.05
390.153
390.252
390.347
390.437
390.524
390.607
390.685
390.76
390.832
390.9
390.965
391.027
391.086
391.142
391.195
391.246
391.295
391.341
391.385
391.427
391.467
391.505
391.541
391.576
391.609
391.64
391.67
391.698
391.726
391.751
391.776
391.8
391.822
391.843
391.863
391.881
391.898
391.914
391.928
391.941
391.952
391.961
391.968
391.972
391.974
391.974
391.972
391.97
391.974
391.992
392.047
392.178
392.441
392.82
393.117
393.149
393.15
393.15
381.446
381.794
382.145
382.489
382.824
383.152
383.473
383.786
384.091
384.389
384.68
384.964
385.241
385.511
385.774
386.031
386.28
386.524
386.76
386.991
387.215
387.433
387.644
387.85
388.05
388.243
388.431
388.613
388.79
388.961
389.126
389.286
389.441
389.59
389.734
389.873
390.007
390.137
390.261
390.381
390.496
390.606
390.712
390.814
390.911
391.005
391.095
391.18
391.262
391.341
391.416
391.487
391.556
391.621
391.684
391.744
391.801
391.855
391.907
391.957
392.004
392.05
392.093
392.135
392.176
392.214
392.252
392.288
392.324
392.358
392.392
392.425
392.457
392.489
392.521
392.553
392.584
392.615
392.647
392.678
392.709
392.741
392.772
392.804
392.835
392.866
392.898
392.928
392.959
392.989
393.018
393.047
393.074
393.098
393.119
393.132
393.147
393.15
393.15
393.15
381.504
381.831
382.166
382.496
382.821
383.139
383.451
383.757
384.057
384.351
384.638
384.92
385.195
385.464
385.728
385.985
386.237
386.484
386.724
386.959
387.189
387.413
387.631
387.845
388.053
388.256
388.454
388.646
388.834
389.016
389.193
389.366
389.533
389.695
389.853
390.006
390.154
390.297
390.436
390.569
390.699
390.824
390.944
391.06
391.171
391.279
391.382
391.481
391.575
391.666
391.753
391.837
391.916
391.992
392.065
392.133
392.199
392.261
392.32
392.377
392.43
392.481
392.528
392.574
392.617
392.658
392.697
392.733
392.768
392.801
392.832
392.861
392.889
392.915
392.94
392.963
392.985
393.005
393.024
393.041
393.057
393.071
393.084
393.095
393.105
393.114
393.122
393.128
393.134
393.138
393.142
393.144
393.146
393.148
393.148
393.149
393.15
393.15
393.15
393.15
380.643
380.955
381.276
381.597
381.914
382.227
382.536
382.84
383.139
383.433
383.722
384.006
384.285
384.56
384.829
385.094
385.354
385.61
385.861
386.107
386.349
386.586
386.819
387.047
387.271
387.49
387.706
387.916
388.123
388.325
388.523
388.717
388.907
389.092
389.274
389.451
389.624
389.792
389.957
390.117
390.273
390.424
390.571
390.714
390.853
390.987
391.117
391.242
391.363
391.479
391.591
391.699
391.802
391.9
391.994
392.084
392.169
392.25
392.326
392.398
392.466
392.53
392.589
392.645
392.697
392.745
392.789
392.83
392.868
392.902
392.933
392.961
392.987
393.01
393.03
393.048
393.064
393.078
393.09
393.101
393.11
393.118
393.124
393.13
393.135
393.139
393.142
393.144
393.146
393.147
393.148
393.149
393.15
393.15
393.15
393.15
393.15
393.15
393.15
393.15
378.465
378.76
379.065
379.372
379.678
379.981
380.282
380.579
380.872
381.163
381.449
381.731
382.011
382.286
382.558
382.827
383.092
383.354
383.613
383.869
384.121
384.37
384.616
384.859
385.098
385.335
385.568
385.799
386.027
386.251
386.473
386.692
386.908
387.121
387.331
387.538
387.742
387.944
388.142
388.338
388.53
388.72
388.906
389.089
389.269
389.445
389.618
389.788
389.953
390.116
390.274
390.428
390.579
390.725
390.867
391.005
391.138
391.267
391.391
391.511
391.626
391.736
391.841
391.941
392.037
392.128
392.214
392.295
392.371
392.443
392.511
392.574
392.632
392.687
392.737
392.784
392.827
392.866
392.902
392.936
392.966
392.993
393.017
393.039
393.059
393.077
393.092
393.106
393.118
393.127
393.135
393.141
393.145
393.147
393.148
393.149
393.149
393.15
393.15
393.15
374.309
374.578
374.856
375.137
375.418
375.698
375.975
376.25
376.523
376.793
377.06
377.325
377.587
377.847
378.104
378.36
378.613
378.865
379.115
379.364
379.612
379.859
380.104
380.347
380.589
380.828
381.066
381.303
381.538
381.772
382.004
382.236
382.466
382.695
382.923
383.15
383.376
383.601
383.826
384.05
384.274
384.497
384.719
384.942
385.163
385.385
385.606
385.827
386.047
386.267
386.487
386.706
386.924
387.142
387.359
387.575
387.79
388.004
388.216
388.427
388.635
388.842
389.046
389.247
389.446
389.641
389.832
390.02
390.203
390.382
390.557
390.727
390.892
391.052
391.207
391.357
391.501
391.641
391.775
391.904
392.027
392.145
392.257
392.364
392.466
392.563
392.654
392.74
392.819
392.891
392.955
393.009
393.053
393.086
393.107
393.119
393.128
393.134
393.138
393.14
367.596
367.825
368.059
368.296
368.531
368.767
368.999
369.23
369.457
369.683
369.905
370.125
370.342
370.558
370.771
370.983
371.192
371.4
371.606
371.811
372.015
372.218
372.42
372.621
372.821
373.02
373.218
373.417
373.614
373.813
374.011
374.209
374.408
374.608
374.808
375.01
375.213
375.418
375.624
375.832
376.043
376.256
376.471
376.69
376.911
377.136
377.364
377.596
377.831
378.07
378.314
378.561
378.813
379.069
379.33
379.595
379.865
380.139
380.418
380.702
380.99
381.283
381.581
381.883
382.189
382.499
382.813
383.131
383.452
383.777
384.104
384.434
384.767
385.102
385.439
385.778
386.118
386.461
386.805
387.151
387.499
387.851
388.207
388.565
388.928
389.295
389.664
390.037
390.409
390.779
391.14
391.485
391.805
392.09
392.327
392.498
392.638
392.749
392.832
392.883
357.716
357.876
358.038
358.201
358.361
358.52
358.675
358.829
358.979
359.126
359.27
359.412
359.549
359.685
359.817
359.948
360.074
360.199
360.321
360.441
360.558
360.674
360.788
360.902
361.016
361.131
361.245
361.361
361.477
361.595
361.714
361.835
361.957
362.082
362.209
362.338
362.47
362.605
362.743
362.884
363.028
363.176
363.328
363.483
363.642
363.805
363.973
364.144
364.321
364.502
364.688
364.879
365.075
365.277
365.484
365.697
365.916
366.142
366.373
366.612
366.857
367.11
367.371
367.639
367.916
368.202
368.497
368.801
369.115
369.439
369.775
370.121
370.479
370.85
371.235
371.634
372.048
372.479
372.929
373.399
373.893
374.412
374.959
375.54
376.158
376.817
377.523
378.282
379.097
379.973
380.908
381.899
382.939
384.013
385.101
386.157
387.07
387.906
388.616
389.133
344.559
344.625
344.692
344.757
344.821
344.884
344.945
345.004
345.062
345.118
345.173
345.227
345.278
345.33
345.379
345.428
345.476
345.523
345.57
345.616
345.662
345.708
345.753
345.799
345.846
345.892
345.939
345.987
346.035
346.084
346.133
346.183
346.234
346.285
346.337
346.39
346.443
346.498
346.553
346.608
346.665
346.722
346.78
346.839
346.899
346.959
347.02
347.082
347.145
347.208
347.273
347.338
347.404
347.471
347.54
347.609
347.679
347.749
347.821
347.893
347.965
348.039
348.115
348.193
348.273
348.356
348.441
348.53
348.622
348.718
348.819
348.925
349.036
349.154
349.28
349.414
349.557
349.71
349.876
350.055
350.249
350.46
350.69
350.94
351.214
351.514
351.841
352.21
352.64
353.142
353.73
354.415
355.215
356.149
357.244
358.536
360.032
361.583
363.067
364.254
330.792
330.768
330.745
330.723
330.701
330.68
330.661
330.642
330.624
330.606
330.59
330.574
330.559
330.544
330.531
330.516
330.503
330.489
330.476
330.462
330.448
330.434
330.419
330.403
330.387
330.369
330.35
330.33
330.309
330.286
330.262
330.236
330.208
330.178
330.146
330.113
330.077
330.039
329.998
329.956
329.911
329.864
329.814
329.762
329.707
329.65
329.59
329.527
329.461
329.392
329.319
329.244
329.165
329.082
328.995
328.904
328.809
328.71
328.606
328.497
328.383
328.263
328.136
328.001
327.858
327.706
327.544
327.372
327.188
326.992
326.783
326.56
326.321
326.065
325.792
325.499
325.186
324.851
324.493
324.11
323.701
323.265
322.802
322.312
321.792
321.244
320.668
320.054
319.386
318.655
317.852
316.979
316.036
315.016
313.915
312.73
311.467
310.152
308.854
307.7
319.803
319.707
319.609
319.508
319.409
319.307
319.208
319.107
319.009
318.909
318.811
318.712
318.615
318.517
318.421
318.324
318.227
318.131
318.034
317.937
317.841
317.743
317.646
317.547
317.448
317.348
317.247
317.145
317.042
316.936
316.83
316.722
316.612
316.5
316.385
316.268
316.149
316.027
315.903
315.775
315.644
315.51
315.372
315.231
315.086
314.936
314.783
314.624
314.462
314.294
314.122
313.944
313.762
313.573
313.379
313.179
312.972
312.759
312.539
312.31
312.074
311.829
311.574
311.31
311.035
310.749
310.451
310.141
309.818
309.48
309.128
308.761
308.378
307.979
307.562
307.128
306.677
306.207
305.72
305.215
304.693
304.156
303.604
303.04
302.465
301.882
301.293
300.703
300.115
299.535
298.968
298.406
297.842
297.29
296.757
296.249
295.776
295.351
294.992
294.724
311.67
311.54
311.405
311.265
311.124
310.98
310.836
310.69
310.545
310.399
310.253
310.107
309.96
309.813
309.666
309.519
309.371
309.222
309.073
308.924
308.774
308.623
308.472
308.32
308.167
308.013
307.858
307.702
307.545
307.386
307.227
307.066
306.903
306.739
306.573
306.405
306.236
306.064
305.891
305.715
305.537
305.357
305.174
304.989
304.801
304.61
304.417
304.221
304.022
303.82
303.615
303.406
303.195
302.98
302.761
302.539
302.313
302.084
301.85
301.613
301.372
301.127
300.878
300.626
300.37
300.11
299.847
299.58
299.309
299.036
298.76
298.482
298.202
297.92
297.637
297.354
297.071
296.79
296.511
296.236
295.965
295.701
295.444
295.196
294.959
294.734
294.522
294.325
294.144
293.98
293.836
293.712
293.609
293.519
293.441
293.375
293.322
293.279
293.248
293.227
305.801
305.668
305.526
305.378
305.227
305.074
304.919
304.764
304.608
304.451
304.294
304.137
303.98
303.822
303.664
303.506
303.347
303.188
303.028
302.868
302.708
302.547
302.385
302.223
302.061
301.898
301.734
301.57
301.405
301.24
301.074
300.908
300.741
300.574
300.406
300.238
300.069
299.9
299.73
299.56
299.39
299.22
299.05
298.88
298.71
298.54
298.37
298.201
298.032
297.864
297.696
297.529
297.363
297.198
297.033
296.87
296.708
296.547
296.387
296.229
296.073
295.919
295.768
295.619
295.472
295.328
295.188
295.05
294.916
294.785
294.659
294.536
294.418
294.303
294.194
294.089
293.989
293.895
293.806
293.722
293.644
293.573
293.507
293.447
293.394
293.347
293.306
293.271
293.242
293.218
293.199
293.185
293.175
293.168
293.163
293.159
293.156
293.154
293.153
293.152
301.854
301.729
301.594
301.453
301.309
301.164
301.017
300.87
300.722
300.574
300.427
300.279
300.131
299.984
299.836
299.689
299.542
299.395
299.249
299.102
298.956
298.811
298.665
298.52
298.376
298.232
298.088
297.945
297.803
297.662
297.521
297.381
297.242
297.104
296.967
296.831
296.696
296.563
296.431
296.301
296.172
296.045
295.92
295.797
295.676
295.557
295.441
295.326
295.215
295.105
294.999
294.895
294.794
294.695
294.6
294.508
294.418
294.332
294.249
294.17
294.093
294.02
293.951
293.884
293.821
293.761
293.705
293.651
293.601
293.554
293.51
293.469
293.432
293.397
293.364
293.335
293.308
293.284
293.262
293.243
293.226
293.211
293.199
293.188
293.179
293.171
293.165
293.161
293.157
293.155
293.153
293.152
293.151
293.151
293.15
293.15
293.15
293.15
293.15
293.15
299.26
299.149
299.028
298.903
298.775
298.646
298.517
298.387
298.257
298.128
297.999
297.871
297.744
297.617
297.491
297.366
297.241
297.117
296.995
296.873
296.752
296.633
296.514
296.397
296.281
296.166
296.053
295.942
295.832
295.724
295.617
295.512
295.409
295.308
295.208
295.111
295.015
294.922
294.831
294.742
294.656
294.572
294.49
294.411
294.334
294.26
294.188
294.119
294.053
293.99
293.929
293.871
293.816
293.763
293.713
293.666
293.621
293.579
293.54
293.503
293.468
293.436
293.406
293.378
293.353
293.329
293.308
293.288
293.27
293.254
293.24
293.227
293.215
293.205
293.196
293.188
293.181
293.175
293.17
293.166
293.162
293.159
293.157
293.155
293.154
293.152
293.152
293.151
293.151
293.15
293.15
293.15
293.15
293.15
293.15
293.15
293.15
293.15
293.15
293.15
297.502
297.407
297.304
297.198
297.09
296.982
296.874
296.766
296.659
296.553
296.448
296.343
296.24
296.137
296.036
295.936
295.837
295.739
295.643
295.548
295.454
295.362
295.271
295.182
295.094
295.008
294.924
294.841
294.76
294.681
294.604
294.528
294.455
294.384
294.314
294.247
294.182
294.12
294.059
294.001
293.945
293.891
293.839
293.79
293.742
293.697
293.655
293.614
293.576
293.54
293.506
293.474
293.444
293.416
293.389
293.365
293.343
293.322
293.303
293.286
293.27
293.255
293.242
293.23
293.219
293.21
293.201
293.194
293.187
293.181
293.176
293.171
293.167
293.164
293.161
293.159
293.157
293.155
293.154
293.153
293.152
293.152
293.151
293.151
293.151
293.15
293.15
293.15
293.15
293.15
293.15
293.15
293.15
293.15
293.15
293.15
293.15
293.15
293.15
293.15
296.255
296.176
296.091
296.004
295.917
295.831
295.745
295.66
295.575
295.492
295.409
295.328
295.248
295.169
295.091
295.014
294.939
294.865
294.792
294.721
294.651
294.582
294.515
294.449
294.385
294.323
294.262
294.203
294.145
294.089
294.035
293.982
293.932
293.883
293.836
293.791
293.748
293.706
293.667
293.629
293.593
293.559
293.527
293.496
293.467
293.44
293.414
293.39
293.368
293.347
293.327
293.309
293.293
293.277
293.263
293.25
293.238
293.228
293.218
293.209
293.201
293.194
293.188
293.182
293.178
293.173
293.169
293.166
293.163
293.161
293.159
293.157
293.156
293.155
293.154
293.153
293.152
293.152
293.151
293.151
293.151
293.15
293.15
293.15
293.15
293.15
293.15
293.15
293.15
293.15
293.15
293.15
293.15
293.15
293.15
293.15
293.15
293.15
293.15
293.15
295.339
295.276
295.208
295.141
295.073
295.007
294.94
294.875
294.811
294.747
294.685
294.623
294.563
294.504
294.446
294.389
294.333
294.279
294.226
294.174
294.123
294.074
294.026
293.979
293.934
293.89
293.848
293.807
293.767
293.729
293.692
293.657
293.623
293.591
293.56
293.531
293.503
293.476
293.451
293.427
293.404
293.383
293.363
293.344
293.327
293.31
293.295
293.281
293.268
293.255
293.244
293.234
293.224
293.216
293.208
293.201
293.194
293.188
293.183
293.179
293.174
293.171
293.168
293.165
293.162
293.16
293.159
293.157
293.156
293.155
293.154
293.153
293.152
293.152
293.151
293.151
293.151
293.151
293.15
293.15
293.15
293.15
293.15
293.15
293.15
293.15
293.15
293.15
293.15
293.15
293.15
293.15
293.15
293.15
293.15
293.15
293.15
293.15
293.15
293.15
294.523
294.477
294.43
294.383
294.336
294.29
294.244
294.2
294.156
294.113
294.071
294.03
293.99
293.95
293.912
293.875
293.839
293.803
293.769
293.736
293.704
293.673
293.643
293.614
293.586
293.559
293.533
293.509
293.485
293.462
293.441
293.42
293.401
293.382
293.364
293.348
293.332
293.317
293.303
293.29
293.278
293.266
293.256
293.246
293.237
293.228
293.22
293.213
293.206
293.2
293.194
293.189
293.184
293.18
293.176
293.173
293.17
293.167
293.165
293.163
293.161
293.159
293.158
293.156
293.155
293.154
293.154
293.153
293.152
293.152
293.151
293.151
293.151
293.151
293.151
293.15
293.15
293.15
293.15
293.15
293.15
293.15
293.15
293.15
293.15
293.15
293.15
293.15
293.15
293.15
293.15
293.15
293.15
293.15
293.15
293.15
293.15
293.15
293.15
293.15
393.15
393.15
393.15
393.15
393.15
393.15
393.15
393.15
393.15
393.15
393.15
393.15
393.15
393.15
393.15
393.15
393.15
393.15
393.15
393.149
393.15
393.15
393.15
393.15
393.15
393.15
393.15
393.15
393.15
393.15
393.15
393.15
393.15
393.15
393.15
393.15
393.15
393.149
393.149
393.146
393.15
393.15
393.15
393.15
393.15
393.15
393.15
393.15
393.15
393.15
393.15
393.15
393.15
393.15
393.15
393.149
393.149
393.147
393.142
393.124
393.15
393.15
393.15
393.15
393.15
393.15
393.15
393.15
393.15
393.15
393.15
393.15
393.149
393.149
393.148
393.146
393.142
393.131
393.097
392.956
393.15
393.15
393.15
393.15
393.15
393.15
393.15
393.15
393.149
393.149
393.149
393.148
393.146
393.143
393.137
393.125
393.097
393.024
392.794
391.757
393.15
393.15
393.149
393.149
393.149
393.148
393.147
393.146
393.144
393.142
393.138
393.133
393.123
393.106
393.074
393.009
392.861
392.476
391.21
385.081
393.139
393.137
393.134
393.129
393.124
393.117
393.109
393.1
393.091
393.08
393.063
393.038
392.996
392.924
392.791
392.527
391.951
390.491
385.722
362.414
392.878
392.844
392.806
392.762
392.717
392.675
392.64
392.617
392.599
392.574
392.532
392.459
392.335
392.116
391.712
390.929
389.3
385.443
374.167
326.727
389.224
389.034
388.85
388.667
388.516
388.463
388.468
388.535
388.585
388.629
388.641
388.615
388.484
388.17
387.364
385.642
382.006
374.275
356.864
305.058
364.607
364.236
363.873
363.542
363.303
363.295
363.354
363.404
363.481
363.632
363.804
364.067
364.272
364.498
364.069
362.296
357.412
347.564
329.047
305.271
307.155
307.304
307.406
307.466
307.423
307.116
306.721
306.308
305.87
305.359
304.798
304.108
303.336
302.348
301.567
301.077
301.174
301.157
299.377
297.749
294.644
294.707
294.763
294.814
294.844
294.822
294.765
294.667
294.567
294.456
294.345
294.215
294.09
293.946
293.839
293.772
293.763
293.751
293.61
294.765
293.225
293.234
293.243
293.253
293.263
293.27
293.274
293.27
293.262
293.25
293.239
293.227
293.216
293.205
293.197
293.192
293.19
293.189
293.205
293.587
293.152
293.152
293.153
293.153
293.154
293.155
293.156
293.156
293.156
293.156
293.155
293.154
293.154
293.153
293.153
293.152
293.152
293.153
293.157
293.202
293.15
293.15
293.15
293.15
293.15
293.15
293.15
293.15
293.15
293.15
293.15
293.15
293.15
293.15
293.15
293.15
293.15
293.15
293.15
293.151
293.15
293.15
293.15
293.15
293.15
293.15
293.15
293.15
293.15
293.15
293.15
293.15
293.15
293.15
293.15
293.15
293.15
293.15
293.15
293.15
293.15
293.15
293.15
293.15
293.15
293.15
293.15
293.15
293.15
293.15
293.15
293.15
293.15
293.15
293.15
293.15
293.15
293.15
293.15
293.15
293.15
293.15
293.15
293.15
293.15
293.15
293.15
293.15
293.15
293.15
293.15
293.15
293.15
293.15
293.15
293.15
293.15
293.15
293.15
293.15
293.15
293.15
293.15
293.15
293.15
293.15
293.15
293.15
293.15
293.15
293.15
293.15
293.15
293.15
293.15
293.15
293.15
293.15
293.15
293.15
293.15
293.15
293.15
293.15
293.15
293.15
293.15
293.15
293.15
293.15
293.15
293.15
293.15
293.15
293.15
293.15
293.15
293.15
293.15
293.15
393.15
393.15
393.15
393.15
393.15
393.15
393.15
393.15
393.15
393.15
393.15
393.15
393.15
393.15
393.15
393.15
393.15
393.15
393.15
393.15
393.15
393.15
393.15
393.15
393.15
393.15
393.15
393.15
393.15
393.15
393.15
393.15
393.15
393.15
393.15
393.15
393.15
393.15
393.15
393.15
393.15
393.15
393.15
393.15
393.15
393.15
393.15
393.15
393.15
393.15
393.15
393.15
393.15
393.15
393.15
393.15
393.15
393.15
393.15
393.15
393.15
393.15
393.15
393.15
393.15
393.15
393.15
393.15
393.15
393.15
393.15
393.15
393.15
393.15
393.15
393.15
393.15
393.15
393.15
393.15
393.15
393.15
393.15
393.15
393.15
393.15
393.15
393.15
393.15
393.15
393.15
393.15
393.15
393.15
393.15
393.15
393.15
393.15
393.15
393.15
393.15
393.15
393.15
393.15
393.15
393.15
393.15
393.15
393.15
393.15
393.15
393.15
393.15
393.15
393.15
393.15
393.15
393.15
393.15
393.15
393.15
393.15
393.15
393.15
393.15
393.15
393.15
393.15
393.15
393.15
393.15
393.15
393.15
393.15
393.15
393.15
393.15
393.15
393.15
393.15
393.15
393.15
393.15
393.15
393.15
393.15
393.15
393.15
393.15
393.15
393.15
393.15
393.15
393.15
393.15
393.15
393.15
393.15
393.15
393.15
393.15
393.15
393.15
393.15
393.15
393.15
393.15
393.15
393.15
393.15
393.15
393.15
393.15
393.15
393.15
393.15
393.15
393.15
393.15
393.15
393.15
393.15
393.15
393.15
393.15
393.15
393.15
393.15
393.15
393.15
393.15
393.15
393.15
393.15
393.15
393.15
393.15
393.15
393.15
393.15
393.15
393.15
393.15
393.15
393.15
393.15
393.15
393.15
393.15
393.15
393.15
393.15
393.15
393.15
393.15
393.15
393.15
393.15
393.15
393.15
393.15
393.15
393.15
393.15
393.15
393.15
393.15
393.15
393.15
393.15
393.15
393.15
393.15
393.15
393.15
393.15
393.15
393.15
393.15
393.15
393.15
393.15
393.15
393.15
393.15
393.15
393.15
393.15
393.15
393.15
393.15
393.15
393.15
393.15
393.15
393.15
393.15
393.15
393.15
393.15
393.15
393.15
393.15
393.15
393.15
393.15
393.15
393.15
393.15
393.15
393.15
393.15
393.15
393.15
393.15
393.15
393.15
393.15
393.15
393.15
393.15
393.15
393.15
393.15
393.15
393.15
393.15
393.15
393.15
393.15
393.15
393.15
393.15
393.15
393.15
393.15
393.15
393.15
393.15
393.15
393.15
393.15
393.15
393.15
393.15
393.15
393.15
393.15
393.15
393.15
393.15
393.15
393.15
393.15
393.15
393.15
393.15
393.15
393.15
393.15
393.15
393.15
393.15
393.15
393.15
393.15
393.15
393.15
393.15
393.15
393.15
393.15
393.15
393.15
393.15
393.15
393.15
393.15
393.15
393.15
393.15
393.15
393.15
393.15
393.15
393.15
393.15
393.15
393.15
393.15
393.15
393.15
393.15
393.15
393.15
393.15
393.15
393.15
393.15
393.15
393.15
393.15
393.15
393.15
393.15
393.15
393.15
393.15
393.15
393.15
393.15
393.15
393.15
393.15
393.15
393.15
393.15
393.15
393.15
393.15
393.15
393.15
393.15
393.15
393.15
393.15
393.15
393.15
393.15
393.15
393.15
393.15
393.15
393.15
393.15
393.15
393.15
393.15
393.15
393.15
393.15
393.15
393.15
393.15
393.15
393.15
393.15
393.15
393.15
393.15
393.15
393.15
393.15
393.15
393.15
393.15
393.15
393.15
393.15
393.15
393.15
393.15
393.15
393.15
393.15
393.15
393.15
393.15
393.15
393.15
393.15
393.15
393.15
393.15
393.15
393.15
393.15
393.15
393.15
393.15
393.15
393.15
393.15
393.15
393.15
393.15
393.15
393.15
393.15
393.15
393.15
393.15
393.15
393.15
393.15
393.15
393.15
393.15
393.15
393.15
393.15
393.15
393.15
393.15
393.15
393.15
393.15
393.15
393.15
393.15
393.15
393.15
393.15
393.15
393.15
393.15
393.15
393.15
393.15
393.15
393.15
393.15
393.15
393.15
393.15
393.15
393.15
393.15
393.15
393.15
393.15
393.15
393.15
393.15
393.15
393.15
393.15
393.15
393.15
393.15
393.15
393.15
393.15
393.15
393.15
393.15
393.15
393.15
393.15
393.15
393.15
393.15
393.15
393.15
393.15
393.15
393.15
393.15
393.15
393.15
393.15
393.15
393.15
393.15
393.15
393.15
393.15
393.15
393.15
393.15
393.15
393.15
393.15
393.15
393.15
393.15
393.15
393.15
393.15
393.15
393.15
393.15
393.15
393.15
393.15
393.15
393.15
393.15
393.15
393.15
393.15
393.15
393.15
393.15
393.15
393.15
393.15
393.15
393.15
393.15
393.15
393.15
393.15
393.15
393.15
393.15
393.15
393.15
393.15
393.15
393.15
393.15
393.15
393.15
393.15
393.15
393.15
393.15
393.15
393.15
393.15
393.15
393.15
393.15
393.15
393.15
393.15
393.15
393.15
393.15
393.15
393.15
393.15
393.15
393.15
393.15
393.15
393.15
393.15
393.15
393.15
393.15
393.15
393.15
393.15
393.15
393.15
393.15
393.15
393.15
393.15
393.15
393.15
393.15
393.15
393.15
393.15
393.15
393.15
393.15
393.15
393.15
393.15
393.15
393.15
393.15
393.15
393.15
393.15
393.15
393.15
393.15
393.15
393.15
393.15
393.15
393.15
393.15
393.15
393.15
393.15
393.15
393.15
393.15
393.15
393.15
393.15
393.15
393.15
393.15
393.15
393.15
393.15
393.15
393.15
393.15
393.15
393.15
393.15
393.15
393.15
393.15
393.15
393.15
393.15
393.15
393.15
393.15
393.15
393.15
393.15
393.15
393.15
393.15
393.15
393.15
393.15
393.15
393.15
393.15
393.15
393.15
393.15
393.15
393.15
393.15
393.15
393.15
393.15
393.15
393.15
393.15
393.15
393.15
393.15
393.15
393.15
393.15
393.15
393.15
393.15
393.15
393.15
393.15
393.15
393.15
393.15
393.15
393.15
393.15
393.15
393.15
393.15
393.15
393.15
393.15
393.15
393.15
393.15
393.15
393.15
393.15
393.15
393.15
393.15
393.15
393.15
393.15
393.15
393.15
393.15
393.15
393.15
393.15
393.15
393.15
393.15
393.15
393.15
393.15
393.15
393.15
393.15
393.15
393.15
393.15
393.15
393.15
393.15
393.15
393.15
393.15
393.15
393.15
393.15
393.15
393.15
393.15
393.15
393.15
393.15
393.15
393.15
393.15
393.15
393.15
393.15
393.15
393.15
393.15
393.15
393.15
393.15
393.15
393.15
393.15
393.15
393.15
393.15
393.15
393.15
393.15
393.15
393.15
393.15
393.15
393.15
393.15
393.15
393.15
393.15
393.15
393.15
393.15
393.15
393.15
393.15
393.15
393.15
393.15
393.15
393.15
393.15
393.15
393.15
393.15
393.15
393.15
393.15
393.15
393.15
393.15
393.15
393.15
393.15
393.15
393.15
393.15
393.15
393.15
393.15
393.15
393.15
393.15
393.15
393.15
393.15
393.15
393.15
393.15
393.15
393.15
393.15
393.15
393.15
393.15
393.15
393.15
393.15
393.15
393.15
393.15
393.15
393.15
393.15
393.15
393.15
393.15
393.15
393.15
393.15
393.15
393.15
393.15
393.15
393.15
393.15
393.15
393.15
393.15
393.15
393.15
393.15
393.15
393.15
393.15
393.15
393.15
393.15
393.15
393.15
393.15
393.15
393.15
393.15
393.15
393.15
393.15
393.15
393.15
393.15
393.15
393.15
393.15
393.15
393.15
393.15
393.15
393.15
393.15
393.15
393.15
393.15
393.15
393.15
393.15
393.15
393.15
393.15
393.15
393.15
393.15
393.15
393.15
393.15
393.15
393.15
393.15
393.15
393.15
393.15
393.15
393.15
393.15
393.15
393.15
393.15
393.15
393.15
393.15
393.15
393.15
393.15
393.15
393.15
393.15
393.15
393.15
393.15
393.15
393.15
393.15
393.15
393.15
393.15
393.15
393.15
393.15
393.15
393.15
393.15
393.15
393.15
393.15
393.15
393.15
393.15
393.15
393.15
393.15
393.15
393.15
393.15
393.15
393.15
393.15
393.15
393.15
393.15
393.15
393.15
393.15
393.15
393.15
393.15
393.15
393.15
393.15
393.15
393.15
393.15
393.15
393.15
393.15
393.15
393.15
393.15
393.15
393.15
393.15
393.15
393.15
393.15
393.15
393.15
393.15
393.15
393.15
393.15
393.15
393.15
393.15
393.15
393.15
393.15
393.15
393.15
393.15
393.15
393.15
393.15
393.15
393.15
393.15
393.15
393.15
393.15
393.15
393.15
393.15
393.15
393.15
393.15
393.15
393.15
393.15
393.15
393.15
393.15
393.15
393.15
393.15
393.15
393.15
393.15
393.15
393.15
393.15
393.15
393.15
393.15
393.15
393.15
393.15
393.15
393.15
393.15
393.15
393.15
393.15
393.15
393.15
393.15
393.15
393.15
393.15
393.15
393.15
393.15
393.15
393.15
393.15
393.15
393.15
393.15
393.15
393.15
393.15
393.15
393.15
393.15
393.15
393.15
393.15
393.15
393.15
393.15
393.15
393.15
393.15
393.15
393.15
393.15
393.15
393.15
393.15
393.15
393.15
393.15
393.15
393.15
393.15
393.15
393.15
393.15
393.15
393.15
393.15
393.15
393.15
393.15
393.15
393.15
393.15
393.15
393.15
393.15
393.15
393.15
393.15
393.15
393.15
393.15
393.15
393.15
393.15
393.15
393.15
393.15
393.15
393.15
393.15
393.15
393.15
393.15
393.15
393.15
393.15
393.15
393.15
393.15
393.15
393.15
393.15
393.15
393.15
393.15
393.15
393.15
393.15
393.15
393.15
393.15
393.15
393.15
393.15
393.15
393.15
393.15
393.15
393.15
393.15
393.15
393.15
393.15
393.15
393.15
393.15
393.15
393.15
393.15
393.15
393.15
393.15
393.15
393.15
393.15
393.15
393.15
393.15
393.15
393.15
393.15
393.15
393.15
393.15
393.15
393.15
393.15
393.15
393.15
393.15
393.15
393.15
393.15
393.15
393.15
393.15
393.15
393.15
393.15
393.15
393.15
393.15
393.15
393.15
393.15
393.15
393.15
393.15
393.15
393.15
393.15
393.15
393.15
393.15
393.15
393.15
393.15
393.15
393.15
393.15
393.15
393.15
393.15
393.15
393.15
393.15
393.15
393.15
393.15
393.15
393.15
393.15
393.15
393.15
393.15
393.15
393.15
393.15
393.15
393.15
393.15
393.15
393.15
393.15
393.15
393.15
393.15
393.15
393.15
393.15
393.15
393.15
393.15
393.15
393.15
393.15
393.15
393.15
393.15
393.15
393.15
393.15
393.15
393.15
393.15
393.15
393.15
393.15
393.15
393.15
393.15
393.15
393.15
393.15
393.15
393.15
393.15
393.15
393.15
393.15
393.15
393.15
393.15
393.15
393.15
393.15
393.15
393.15
393.15
393.15
393.15
393.15
393.15
393.15
393.15
393.15
393.15
393.15
393.15
393.15
393.15
393.15
393.15
393.15
393.15
393.15
393.15
393.15
393.15
393.15
393.15
393.15
393.15
393.15
393.15
393.15
393.15
393.15
393.15
393.15
393.15
393.15
393.15
393.15
393.15
393.15
393.15
393.15
393.15
393.15
393.15
393.15
393.15
393.15
393.15
393.15
393.15
393.15
393.15
393.15
393.15
393.15
393.15
393.15
393.15
393.15
393.15
393.15
393.15
393.15
393.15
393.15
393.15
393.15
393.15
393.15
393.15
393.15
393.15
393.15
393.15
393.15
393.15
393.15
393.15
393.15
393.15
393.15
393.15
393.15
393.15
393.15
393.15
393.15
393.15
393.15
393.15
393.15
393.15
393.15
393.15
393.15
393.15
393.15
393.15
393.15
393.15
393.15
393.15
393.15
393.15
393.15
393.15
393.15
393.15
393.15
393.15
393.15
393.15
393.15
393.15
393.15
393.15
393.15
393.15
393.15
393.15
393.15
393.15
393.15
393.15
393.15
393.15
393.15
393.15
393.15
393.15
393.15
393.15
393.15
393.15
393.15
393.15
393.15
393.15
393.15
393.15
393.15
393.15
393.15
393.15
393.15
393.15
393.15
393.15
393.15
393.15
393.15
393.15
393.15
393.15
393.15
393.15
393.15
393.15
393.15
393.15
393.15
393.15
393.15
393.15
393.15
393.15
393.15
393.15
393.15
393.15
393.15
393.15
393.15
393.15
393.15
393.15
393.15
393.15
393.15
393.15
393.15
393.15
393.15
393.15
393.15
393.15
393.15
393.15
393.15
393.15
393.15
393.15
393.15
393.15
393.15
393.15
393.15
393.15
393.15
393.15
393.15
393.15
393.15
393.15
393.15
393.15
393.15
393.15
393.15
393.15
393.15
393.15
393.15
393.15
393.15
393.15
393.15
393.15
393.15
393.15
393.15
393.15
393.15
393.15
393.15
393.15
393.15