/*--------------------------------*- C++ -*----------------------------------*\
| =========                 |                                                 |
| \\      /  F ield         | OpenFOAM: The Open Source CFD Toolbox           |
|  \\    /   O peration     | Version:  2.1.0                                 |
|   \\  /    A nd           | Web:      www.OpenFOAM.org                      |
|    \\/     M anipulation  |                                                 |
\*---------------------------------------------------------------------------*/
FoamFile
{
    version     2.0;
    format      ascii;
    class       volVectorField;
    location    "0.39";
    object      U;
}
// * * * * * * * * * * * * * * * * * * * * * * * * * * * * * * * * * * * * * //

dimensions      [0 1 -1 0 0 0 0];

internalField   nonuniform List<vector> 
6400
(
(-1.30041 -5.6359e-05 0)
(-1.29942 -0.0005244 0)
(-1.29717 -0.000811747 0)
(-1.29398 -0.000958158 0)
(-1.29032 -0.00104528 0)
(-1.28635 -0.00110394 0)
(-1.28219 -0.00114622 0)
(-1.27786 -0.00117938 0)
(-1.2734 -0.00120728 0)
(-1.26883 -0.00123231 0)
(-1.26416 -0.00125586 0)
(-1.25939 -0.00127869 0)
(-1.25452 -0.00130131 0)
(-1.24955 -0.00132392 0)
(-1.24449 -0.00134678 0)
(-1.23933 -0.00136989 0)
(-1.23407 -0.00139341 0)
(-1.22871 -0.00141729 0)
(-1.22325 -0.00144163 0)
(-1.21768 -0.00146627 0)
(-1.21201 -0.00149131 0)
(-1.20624 -0.00151677 0)
(-1.20035 -0.00154291 0)
(-1.19436 -0.00156917 0)
(-1.18825 -0.00159594 0)
(-1.18204 -0.00162402 0)
(-1.1757 -0.0016535 0)
(-1.16924 -0.00168391 0)
(-1.16265 -0.00171529 0)
(-1.15593 -0.00174761 0)
(-1.14908 -0.00178102 0)
(-1.14209 -0.00181553 0)
(-1.13495 -0.0018513 0)
(-1.12767 -0.00188838 0)
(-1.12023 -0.00192689 0)
(-1.11263 -0.00196681 0)
(-1.10487 -0.0020083 0)
(-1.09694 -0.00205138 0)
(-1.08883 -0.00209621 0)
(-1.08053 -0.00214296 0)
(-1.07204 -0.00219183 0)
(-1.06335 -0.00224283 0)
(-1.05445 -0.00229606 0)
(-1.04534 -0.00235163 0)
(-1.03599 -0.00240958 0)
(-1.02641 -0.00246994 0)
(-1.01659 -0.00253272 0)
(-1.00651 -0.00259782 0)
(-0.996159 -0.00266508 0)
(-0.98554 -0.00273487 0)
(-0.974641 -0.00280535 0)
(-0.963459 -0.00287697 0)
(-0.951981 -0.00295386 0)
(-0.940187 -0.00303589 0)
(-0.928059 -0.0031211 0)
(-0.915596 -0.00320613 0)
(-0.9028 -0.00328821 0)
(-0.889682 -0.00336824 0)
(-0.876244 -0.00344845 0)
(-0.862486 -0.00353022 0)
(-0.848398 -0.00361415 0)
(-0.833974 -0.00370005 0)
(-0.819203 -0.00378869 0)
(-0.804074 -0.00388069 0)
(-0.788573 -0.00397623 0)
(-0.772686 -0.0040759 0)
(-0.756395 -0.00418005 0)
(-0.739681 -0.00428946 0)
(-0.722523 -0.00440457 0)
(-0.704897 -0.00452579 0)
(-0.686779 -0.00465349 0)
(-0.668141 -0.00478836 0)
(-0.648956 -0.00493089 0)
(-0.62919 -0.00508195 0)
(-0.608809 -0.00524252 0)
(-0.587773 -0.00541389 0)
(-0.566035 -0.00559773 0)
(-0.543543 -0.00579612 0)
(-0.520233 -0.006012 0)
(-0.496029 -0.00624966 0)
(-0.470834 -0.0065144 0)
(-0.444529 -0.00681281 0)
(-0.416964 -0.0071533 0)
(-0.387956 -0.00754505 0)
(-0.357291 -0.00799493 0)
(-0.324734 -0.00850542 0)
(-0.290057 -0.00907184 0)
(-0.25308 -0.00967376 0)
(-0.213767 -0.01026 0)
(-0.172397 -0.0107194 0)
(-0.129916 -0.0108253 0)
(-0.0885917 -0.0101309 0)
(-0.052589 -0.00811679 0)
(-0.0271004 -0.00478539 0)
(-0.015737 -0.000955855 0)
(-0.0202215 0.00320025 0)
(-0.0490062 0.0113384 0)
(-0.129102 0.0292068 0)
(-0.328877 0.0711576 0)
(-0.948442 0.198981 0)
(-1.56823 -0.000363377 0)
(-1.56526 -0.00170777 0)
(-1.56327 -0.00246432 0)
(-1.55995 -0.00286712 0)
(-1.55626 -0.00311174 0)
(-1.5523 -0.00327678 0)
(-1.54818 -0.00339584 0)
(-1.54392 -0.00348905 0)
(-1.53955 -0.00356747 0)
(-1.53508 -0.00363776 0)
(-1.53052 -0.00370388 0)
(-1.52588 -0.00376796 0)
(-1.52115 -0.00383153 0)
(-1.51635 -0.00389513 0)
(-1.51145 -0.00395955 0)
(-1.50648 -0.00402477 0)
(-1.50141 -0.00409129 0)
(-1.49626 -0.00415889 0)
(-1.49102 -0.00422794 0)
(-1.48569 -0.00429794 0)
(-1.48027 -0.00436911 0)
(-1.47475 -0.00444134 0)
(-1.46914 -0.00451551 0)
(-1.46343 -0.00458968 0)
(-1.45763 -0.00466437 0)
(-1.45173 -0.00474225 0)
(-1.44574 -0.00482359 0)
(-1.43965 -0.00490705 0)
(-1.43346 -0.00499279 0)
(-1.42716 -0.00508087 0)
(-1.42077 -0.00517166 0)
(-1.41427 -0.00526524 0)
(-1.40765 -0.00536194 0)
(-1.40093 -0.00546193 0)
(-1.3941 -0.00556548 0)
(-1.38715 -0.00567262 0)
(-1.38008 -0.00578372 0)
(-1.37289 -0.00589895 0)
(-1.36557 -0.00601856 0)
(-1.35812 -0.00614282 0)
(-1.35053 -0.00627234 0)
(-1.34281 -0.00640724 0)
(-1.33494 -0.00654778 0)
(-1.32693 -0.00669432 0)
(-1.31876 -0.00684707 0)
(-1.31043 -0.0070062 0)
(-1.30193 -0.00717192 0)
(-1.29326 -0.00734421 0)
(-1.28441 -0.00752285 0)
(-1.27537 -0.00770877 0)
(-1.26612 -0.00789852 0)
(-1.25668 -0.0080898 0)
(-1.24704 -0.00828685 0)
(-1.23723 -0.00848976 0)
(-1.22724 -0.00869692 0)
(-1.21711 -0.00890511 0)
(-1.20681 -0.00911014 0)
(-1.19633 -0.00931254 0)
(-1.18566 -0.00951579 0)
(-1.17482 -0.00972274 0)
(-1.16379 -0.00993466 0)
(-1.15258 -0.0101514 0)
(-1.14118 -0.0103741 0)
(-1.12958 -0.010604 0)
(-1.11779 -0.0108416 0)
(-1.1058 -0.0110882 0)
(-1.09361 -0.0113449 0)
(-1.08122 -0.0116133 0)
(-1.06861 -0.0118948 0)
(-1.05578 -0.0121907 0)
(-1.04272 -0.0125025 0)
(-1.02942 -0.0128321 0)
(-1.01585 -0.0131814 0)
(-1.00201 -0.0135531 0)
(-0.987859 -0.0139504 0)
(-0.973377 -0.0143771 0)
(-0.958526 -0.0148383 0)
(-0.943265 -0.0153398 0)
(-0.927545 -0.0158893 0)
(-0.911306 -0.0164979 0)
(-0.894482 -0.0171788 0)
(-0.876993 -0.0179473 0)
(-0.858751 -0.0188222 0)
(-0.83966 -0.0198241 0)
(-0.819614 -0.0209685 0)
(-0.798507 -0.0222598 0)
(-0.776242 -0.0236826 0)
(-0.752768 -0.0251811 0)
(-0.728126 -0.0266243 0)
(-0.702517 -0.0277416 0)
(-0.676401 -0.0280084 0)
(-0.650554 -0.0264694 0)
(-0.626347 -0.0218836 0)
(-0.606696 -0.013676 0)
(-0.600617 -0.001088 0)
(-0.615705 0.0131492 0)
(-0.664005 0.0397961 0)
(-0.76801 0.0920856 0)
(-0.970961 0.204401 0)
(-1.45965 0.526465 0)
(-1.71843 -0.000957486 0)
(-1.71455 -0.00295518 0)
(-1.7134 -0.00404811 0)
(-1.71062 -0.00465754 0)
(-1.70752 -0.00503367 0)
(-1.70421 -0.00528732 0)
(-1.70076 -0.00546917 0)
(-1.6972 -0.005611 0)
(-1.69355 -0.00572931 0)
(-1.68984 -0.0058351 0)
(-1.68605 -0.00593396 0)
(-1.68221 -0.00602975 0)
(-1.67831 -0.00612449 0)
(-1.67435 -0.00621946 0)
(-1.67033 -0.00631558 0)
(-1.66627 -0.0064132 0)
(-1.66213 -0.00651288 0)
(-1.65794 -0.00661461 0)
(-1.65368 -0.00671882 0)
(-1.64936 -0.0068251 0)
(-1.64496 -0.00693359 0)
(-1.6405 -0.00704434 0)
(-1.63596 -0.00715869 0)
(-1.63134 -0.00727413 0)
(-1.62664 -0.00738953 0)
(-1.62187 -0.00750678 0)
(-1.61702 -0.00762636 0)
(-1.6121 -0.0077477 0)
(-1.60712 -0.00787152 0)
(-1.60208 -0.00799817 0)
(-1.59698 -0.00812808 0)
(-1.59181 -0.00826145 0)
(-1.58658 -0.00839861 0)
(-1.58128 -0.00853979 0)
(-1.57593 -0.00868527 0)
(-1.57051 -0.00883512 0)
(-1.56502 -0.00898965 0)
(-1.55948 -0.00914926 0)
(-1.55387 -0.00931416 0)
(-1.5482 -0.0094842 0)
(-1.54247 -0.00966032 0)
(-1.53669 -0.00984267 0)
(-1.53084 -0.0100315 0)
(-1.52495 -0.0102272 0)
(-1.519 -0.0104301 0)
(-1.513 -0.0106404 0)
(-1.50695 -0.0108584 0)
(-1.50086 -0.0110843 0)
(-1.49472 -0.0113178 0)
(-1.48855 -0.0115589 0)
(-1.48234 -0.0118054 0)
(-1.47612 -0.0120536 0)
(-1.46987 -0.0123012 0)
(-1.4636 -0.0125472 0)
(-1.45732 -0.0127924 0)
(-1.45105 -0.0130391 0)
(-1.44479 -0.0132866 0)
(-1.43852 -0.0135335 0)
(-1.43226 -0.0137811 0)
(-1.42599 -0.0140313 0)
(-1.41974 -0.014285 0)
(-1.41351 -0.0145419 0)
(-1.40732 -0.0148027 0)
(-1.40116 -0.0150678 0)
(-1.39506 -0.015338 0)
(-1.38904 -0.0156142 0)
(-1.3831 -0.0158976 0)
(-1.37727 -0.0161892 0)
(-1.37156 -0.0164908 0)
(-1.366 -0.0168041 0)
(-1.3606 -0.017131 0)
(-1.35538 -0.0174744 0)
(-1.35037 -0.0178368 0)
(-1.34558 -0.0182222 0)
(-1.34104 -0.0186356 0)
(-1.33674 -0.0190829 0)
(-1.33271 -0.019572 0)
(-1.32896 -0.0201117 0)
(-1.32547 -0.020713 0)
(-1.32224 -0.0213917 0)
(-1.31926 -0.0221659 0)
(-1.3165 -0.0230549 0)
(-1.31393 -0.0240812 0)
(-1.31151 -0.0252678 0)
(-1.30921 -0.0266324 0)
(-1.30698 -0.0281782 0)
(-1.30481 -0.0298785 0)
(-1.3027 -0.0316514 0)
(-1.30069 -0.0333176 0)
(-1.29895 -0.0345293 0)
(-1.29773 -0.0346586 0)
(-1.29737 -0.0326575 0)
(-1.29839 -0.0270286 0)
(-1.30227 -0.016246 0)
(-1.31108 0.00201282 0)
(-1.32813 0.0261768 0)
(-1.36751 0.0695154 0)
(-1.44368 0.149665 0)
(-1.58756 0.311509 0)
(-1.85852 0.719432 0)
(-1.85381 -0.00164052 0)
(-1.84965 -0.0039702 0)
(-1.84952 -0.00530328 0)
(-1.84763 -0.00607606 0)
(-1.84551 -0.00655753 0)
(-1.84323 -0.00688002 0)
(-1.84083 -0.00710804 0)
(-1.83838 -0.00728363 0)
(-1.83586 -0.00742739 0)
(-1.83332 -0.00755457 0)
(-1.83073 -0.00767163 0)
(-1.82814 -0.00778445 0)
(-1.82551 -0.00789496 0)
(-1.82287 -0.00800556 0)
(-1.8202 -0.00811686 0)
(-1.81754 -0.00822993 0)
(-1.81484 -0.008345 0)
(-1.81214 -0.00846259 0)
(-1.80941 -0.008583 0)
(-1.80668 -0.00870618 0)
(-1.80393 -0.00883186 0)
(-1.80118 -0.00896068 0)
(-1.79841 -0.00909335 0)
(-1.79563 -0.00922835 0)
(-1.79284 -0.00936451 0)
(-1.79006 -0.00950067 0)
(-1.78725 -0.00963642 0)
(-1.78445 -0.00977264 0)
(-1.78163 -0.00991052 0)
(-1.77881 -0.0100507 0)
(-1.776 -0.0101935 0)
(-1.77319 -0.0103392 0)
(-1.77038 -0.010488 0)
(-1.76759 -0.0106401 0)
(-1.7648 -0.0107957 0)
(-1.76204 -0.0109547 0)
(-1.75929 -0.0111171 0)
(-1.75657 -0.0112832 0)
(-1.75388 -0.0114534 0)
(-1.75123 -0.0116271 0)
(-1.74862 -0.011805 0)
(-1.74605 -0.011987 0)
(-1.74355 -0.0121731 0)
(-1.74111 -0.0123635 0)
(-1.73874 -0.0125581 0)
(-1.73645 -0.0127569 0)
(-1.73426 -0.0129597 0)
(-1.73218 -0.0131664 0)
(-1.73022 -0.0133764 0)
(-1.7284 -0.0135881 0)
(-1.72673 -0.0138002 0)
(-1.72522 -0.0140134 0)
(-1.72388 -0.0142265 0)
(-1.72268 -0.0144352 0)
(-1.72164 -0.0146393 0)
(-1.72076 -0.0148415 0)
(-1.72005 -0.0150426 0)
(-1.71953 -0.0152412 0)
(-1.7192 -0.0154366 0)
(-1.71907 -0.0156298 0)
(-1.71918 -0.0158202 0)
(-1.71951 -0.016007 0)
(-1.72011 -0.0161905 0)
(-1.72098 -0.0163707 0)
(-1.72214 -0.0165482 0)
(-1.7236 -0.0167237 0)
(-1.7254 -0.0168981 0)
(-1.72753 -0.0170722 0)
(-1.73001 -0.0172476 0)
(-1.73287 -0.0174266 0)
(-1.7361 -0.0176115 0)
(-1.73972 -0.017806 0)
(-1.74374 -0.0180138 0)
(-1.74815 -0.0182407 0)
(-1.75294 -0.0184934 0)
(-1.75812 -0.0187806 0)
(-1.76365 -0.0191131 0)
(-1.76951 -0.0195037 0)
(-1.77567 -0.0199657 0)
(-1.78208 -0.0205194 0)
(-1.7887 -0.0211877 0)
(-1.79547 -0.0219923 0)
(-1.80234 -0.0229573 0)
(-1.80924 -0.0241056 0)
(-1.81612 -0.0254532 0)
(-1.82295 -0.0269989 0)
(-1.82971 -0.0287052 0)
(-1.83641 -0.0304706 0)
(-1.84309 -0.0320873 0)
(-1.84985 -0.0331733 0)
(-1.85678 -0.0330766 0)
(-1.86392 -0.0307629 0)
(-1.87122 -0.0246822 0)
(-1.87922 -0.0129286 0)
(-1.88843 0.00626566 0)
(-1.89949 0.0362611 0)
(-1.92214 0.0892078 0)
(-1.9634 0.185862 0)
(-2.03264 0.375398 0)
(-2.13351 0.778156 0)
(-1.99 -0.00222844 0)
(-1.98622 -0.00462111 0)
(-1.98721 -0.00606194 0)
(-1.98655 -0.00693004 0)
(-1.98585 -0.00747686 0)
(-1.98503 -0.00783798 0)
(-1.98421 -0.00808899 0)
(-1.98335 -0.00827668 0)
(-1.9825 -0.00842635 0)
(-1.98166 -0.00855487 0)
(-1.98084 -0.00867054 0)
(-1.98004 -0.00877969 0)
(-1.97927 -0.00888501 0)
(-1.97853 -0.00898899 0)
(-1.97782 -0.00909249 0)
(-1.97716 -0.00919655 0)
(-1.97653 -0.00930146 0)
(-1.97596 -0.00940764 0)
(-1.97543 -0.00951548 0)
(-1.97497 -0.00962504 0)
(-1.97455 -0.00973509 0)
(-1.97422 -0.0098465 0)
(-1.97394 -0.00995969 0)
(-1.97375 -0.0100736 0)
(-1.97364 -0.0101896 0)
(-1.97362 -0.0103071 0)
(-1.97367 -0.0104241 0)
(-1.97379 -0.0105404 0)
(-1.97398 -0.010657 0)
(-1.97426 -0.0107742 0)
(-1.97462 -0.0108924 0)
(-1.97507 -0.0110117 0)
(-1.97561 -0.0111322 0)
(-1.97625 -0.0112539 0)
(-1.977 -0.0113768 0)
(-1.97785 -0.0115007 0)
(-1.97882 -0.0116256 0)
(-1.97991 -0.0117513 0)
(-1.98112 -0.011878 0)
(-1.98247 -0.0120055 0)
(-1.98397 -0.0121339 0)
(-1.9856 -0.0122628 0)
(-1.98739 -0.012392 0)
(-1.98934 -0.0125216 0)
(-1.99146 -0.0126513 0)
(-1.99376 -0.0127807 0)
(-1.99623 -0.0129097 0)
(-1.99889 -0.0130377 0)
(-2.00175 -0.013164 0)
(-2.0048 -0.0132874 0)
(-2.00805 -0.0134067 0)
(-2.01151 -0.013525 0)
(-2.01517 -0.0136435 0)
(-2.01905 -0.0137581 0)
(-2.02314 -0.0138664 0)
(-2.02746 -0.0139692 0)
(-2.03199 -0.0140665 0)
(-2.03676 -0.0141577 0)
(-2.04176 -0.0142425 0)
(-2.04698 -0.014322 0)
(-2.05244 -0.0143952 0)
(-2.05813 -0.0144607 0)
(-2.06404 -0.0145187 0)
(-2.07018 -0.0145702 0)
(-2.07654 -0.0146161 0)
(-2.08312 -0.0146572 0)
(-2.08991 -0.0146951 0)
(-2.0969 -0.0147311 0)
(-2.10408 -0.0147675 0)
(-2.11145 -0.0148069 0)
(-2.11899 -0.0148528 0)
(-2.12669 -0.0149095 0)
(-2.13454 -0.0149824 0)
(-2.14253 -0.0150783 0)
(-2.15064 -0.0152055 0)
(-2.15886 -0.0153744 0)
(-2.16717 -0.0155976 0)
(-2.17558 -0.0158912 0)
(-2.18405 -0.0162681 0)
(-2.19258 -0.016751 0)
(-2.20115 -0.0173665 0)
(-2.20975 -0.0181357 0)
(-2.21837 -0.0190823 0)
(-2.227 -0.0202274 0)
(-2.23564 -0.0215831 0)
(-2.24429 -0.0231426 0)
(-2.25296 -0.0248602 0)
(-2.26167 -0.0266237 0)
(-2.27044 -0.0282156 0)
(-2.27926 -0.0292549 0)
(-2.28805 -0.0291185 0)
(-2.29656 -0.0268598 0)
(-2.30425 -0.0210254 0)
(-2.31121 -0.00979236 0)
(-2.31647 0.00900729 0)
(-2.31916 0.0407383 0)
(-2.32373 0.0971034 0)
(-2.32975 0.199314 0)
(-2.32778 0.392748 0)
(-2.31021 0.744516 0)
(-2.13364 -0.00255492 0)
(-2.13091 -0.00478391 0)
(-2.13308 -0.00617618 0)
(-2.13396 -0.00703945 0)
(-2.135 -0.00758649 0)
(-2.13605 -0.00794032 0)
(-2.13719 -0.00817963 0)
(-2.13837 -0.00834984 0)
(-2.13963 -0.00847927 0)
(-2.14095 -0.008584 0)
(-2.14233 -0.00867406 0)
(-2.1438 -0.00875507 0)
(-2.14533 -0.00883072 0)
(-2.14695 -0.00890289 0)
(-2.14866 -0.00897303 0)
(-2.15045 -0.00904168 0)
(-2.15233 -0.00910942 0)
(-2.15432 -0.00917628 0)
(-2.1564 -0.00924269 0)
(-2.15859 -0.00930951 0)
(-2.16088 -0.00937363 0)
(-2.16329 -0.00943593 0)
(-2.1658 -0.00949891 0)
(-2.16844 -0.00956072 0)
(-2.1712 -0.00962402 0)
(-2.17408 -0.00968921 0)
(-2.17708 -0.00975424 0)
(-2.18021 -0.00981794 0)
(-2.18346 -0.00988049 0)
(-2.18685 -0.0099421 0)
(-2.19037 -0.010003 0)
(-2.19402 -0.0100633 0)
(-2.19781 -0.0101232 0)
(-2.20174 -0.0101826 0)
(-2.20581 -0.0102415 0)
(-2.21003 -0.0102997 0)
(-2.21438 -0.0103572 0)
(-2.21888 -0.010414 0)
(-2.22352 -0.01047 0)
(-2.22831 -0.010525 0)
(-2.23323 -0.0105795 0)
(-2.23831 -0.0106331 0)
(-2.24352 -0.0106856 0)
(-2.24887 -0.0107373 0)
(-2.25436 -0.010788 0)
(-2.25999 -0.0108375 0)
(-2.26574 -0.0108857 0)
(-2.27163 -0.0109324 0)
(-2.27764 -0.0109771 0)
(-2.28376 -0.0110193 0)
(-2.29001 -0.0110586 0)
(-2.29636 -0.0110965 0)
(-2.30282 -0.0111336 0)
(-2.30938 -0.0111674 0)
(-2.31603 -0.0111964 0)
(-2.32277 -0.0112204 0)
(-2.3296 -0.011239 0)
(-2.3365 -0.0112522 0)
(-2.34348 -0.0112605 0)
(-2.35052 -0.0112654 0)
(-2.35761 -0.0112661 0)
(-2.36476 -0.0112605 0)
(-2.37196 -0.0112486 0)
(-2.3792 -0.0112317 0)
(-2.38648 -0.0112114 0)
(-2.3938 -0.0111885 0)
(-2.40115 -0.0111646 0)
(-2.40854 -0.0111416 0)
(-2.41597 -0.0111215 0)
(-2.42342 -0.0111071 0)
(-2.43091 -0.0111018 0)
(-2.43843 -0.0111101 0)
(-2.44599 -0.011137 0)
(-2.45359 -0.0111896 0)
(-2.46123 -0.0112763 0)
(-2.46891 -0.0114072 0)
(-2.47664 -0.0115947 0)
(-2.48442 -0.0118562 0)
(-2.49223 -0.0122032 0)
(-2.50014 -0.0126558 0)
(-2.5081 -0.0132403 0)
(-2.51616 -0.0139789 0)
(-2.52433 -0.0148946 0)
(-2.53261 -0.0160066 0)
(-2.54102 -0.0173247 0)
(-2.54957 -0.0188405 0)
(-2.55829 -0.0205081 0)
(-2.56716 -0.0222164 0)
(-2.57617 -0.0237576 0)
(-2.58524 -0.0247812 0)
(-2.59414 -0.0247317 0)
(-2.60245 -0.0227889 0)
(-2.60927 -0.0177548 0)
(-2.61436 -0.00792657 0)
(-2.61563 0.00929212 0)
(-2.61037 0.0395617 0)
(-2.59872 0.0936615 0)
(-2.57316 0.191517 0)
(-2.51163 0.368996 0)
(-2.41552 0.65269 0)
(-2.28123 -0.00251542 0)
(-2.27978 -0.0043746 0)
(-2.28307 -0.00556674 0)
(-2.28552 -0.00632028 0)
(-2.2882 -0.0067955 0)
(-2.29108 -0.00709381 0)
(-2.29406 -0.00728603 0)
(-2.29718 -0.00741201 0)
(-2.30038 -0.00749876 0)
(-2.3037 -0.00756073 0)
(-2.30708 -0.00760776 0)
(-2.31058 -0.00764486 0)
(-2.31414 -0.00767589 0)
(-2.31782 -0.00770244 0)
(-2.32157 -0.00772617 0)
(-2.32543 -0.00774744 0)
(-2.32936 -0.00776702 0)
(-2.33341 -0.00778483 0)
(-2.33752 -0.00780129 0)
(-2.34175 -0.00781797 0)
(-2.34604 -0.00783112 0)
(-2.35045 -0.00783999 0)
(-2.35493 -0.00784777 0)
(-2.35953 -0.00785358 0)
(-2.36422 -0.00785978 0)
(-2.36902 -0.00786652 0)
(-2.37392 -0.00787284 0)
(-2.37893 -0.00787787 0)
(-2.38403 -0.00788172 0)
(-2.38925 -0.00788446 0)
(-2.39455 -0.00788656 0)
(-2.39995 -0.0078881 0)
(-2.40544 -0.00788963 0)
(-2.41103 -0.007891 0)
(-2.4167 -0.00789263 0)
(-2.42246 -0.00789424 0)
(-2.42829 -0.00789623 0)
(-2.4342 -0.00789845 0)
(-2.44017 -0.0079012 0)
(-2.44622 -0.00790435 0)
(-2.45231 -0.00790839 0)
(-2.45847 -0.00791322 0)
(-2.46467 -0.00791888 0)
(-2.47091 -0.00792548 0)
(-2.47719 -0.00793315 0)
(-2.4835 -0.00794166 0)
(-2.48984 -0.00795091 0)
(-2.4962 -0.00796084 0)
(-2.50258 -0.00797127 0)
(-2.50897 -0.00798132 0)
(-2.51536 -0.00799113 0)
(-2.52176 -0.00800125 0)
(-2.52816 -0.00801178 0)
(-2.53456 -0.00802102 0)
(-2.54096 -0.00802781 0)
(-2.54735 -0.00803161 0)
(-2.55373 -0.00803178 0)
(-2.5601 -0.00802783 0)
(-2.56646 -0.0080202 0)
(-2.57282 -0.00801134 0)
(-2.57916 -0.00800048 0)
(-2.5855 -0.00798317 0)
(-2.59183 -0.00795895 0)
(-2.59816 -0.00792917 0)
(-2.6045 -0.00789572 0)
(-2.61085 -0.00785886 0)
(-2.61721 -0.00782009 0)
(-2.62359 -0.00778078 0)
(-2.63 -0.00774266 0)
(-2.63645 -0.00770823 0)
(-2.64294 -0.00768062 0)
(-2.64948 -0.00766374 0)
(-2.65608 -0.00766265 0)
(-2.66275 -0.00768399 0)
(-2.6695 -0.00773603 0)
(-2.67635 -0.00782878 0)
(-2.6833 -0.00797433 0)
(-2.69037 -0.0081875 0)
(-2.69755 -0.008484 0)
(-2.70492 -0.00888261 0)
(-2.71241 -0.00940462 0)
(-2.72007 -0.0100729 0)
(-2.72791 -0.0109104 0)
(-2.73596 -0.0119348 0)
(-2.74424 -0.0131548 0)
(-2.75277 -0.0145642 0)
(-2.76156 -0.0161233 0)
(-2.77059 -0.0177308 0)
(-2.7798 -0.0192018 0)
(-2.78904 -0.0202358 0)
(-2.79799 -0.020371 0)
(-2.80608 -0.0189386 0)
(-2.81219 -0.0150645 0)
(-2.81555 -0.00722492 0)
(-2.81364 0.00722886 0)
(-2.80143 0.0334118 0)
(-2.77575 0.0803786 0)
(-2.72342 0.165155 0)
(-2.61586 0.312917 0)
(-2.47005 0.525767 0)
(-2.41373 -0.00212699 0)
(-2.41323 -0.0034583 0)
(-2.41725 -0.004352 0)
(-2.42072 -0.0049221 0)
(-2.42439 -0.00527657 0)
(-2.42842 -0.00549046 0)
(-2.43248 -0.00561836 0)
(-2.43676 -0.00569179 0)
(-2.44104 -0.0057323 0)
(-2.44547 -0.00575181 0)
(-2.44989 -0.00575835 0)
(-2.45445 -0.00575618 0)
(-2.45899 -0.00574856 0)
(-2.46366 -0.00573695 0)
(-2.46832 -0.00572289 0)
(-2.47309 -0.00570674 0)
(-2.47786 -0.00568928 0)
(-2.48274 -0.00567046 0)
(-2.48761 -0.00565075 0)
(-2.49259 -0.00562997 0)
(-2.49755 -0.00560768 0)
(-2.50265 -0.00558298 0)
(-2.50772 -0.00555593 0)
(-2.51287 -0.00552708 0)
(-2.51802 -0.00549878 0)
(-2.52323 -0.00547118 0)
(-2.52844 -0.00544424 0)
(-2.53371 -0.00541725 0)
(-2.53897 -0.0053906 0)
(-2.54428 -0.00536402 0)
(-2.54957 -0.00533844 0)
(-2.55491 -0.00531358 0)
(-2.56023 -0.00529059 0)
(-2.56558 -0.00526892 0)
(-2.57091 -0.00524952 0)
(-2.57627 -0.0052317 0)
(-2.5816 -0.00521628 0)
(-2.58695 -0.00520262 0)
(-2.59227 -0.00519155 0)
(-2.5976 -0.00518287 0)
(-2.60291 -0.0051767 0)
(-2.60822 -0.00517301 0)
(-2.6135 -0.00517176 0)
(-2.61879 -0.00517297 0)
(-2.62405 -0.00517668 0)
(-2.62931 -0.00518254 0)
(-2.63454 -0.00519021 0)
(-2.63978 -0.00519953 0)
(-2.645 -0.00521035 0)
(-2.65022 -0.00522168 0)
(-2.65542 -0.00523338 0)
(-2.66063 -0.00524541 0)
(-2.66583 -0.00525753 0)
(-2.67104 -0.00526827 0)
(-2.67625 -0.00527639 0)
(-2.68148 -0.00528117 0)
(-2.68671 -0.00528167 0)
(-2.69197 -0.00527702 0)
(-2.69724 -0.00526687 0)
(-2.70254 -0.00525515 0)
(-2.70787 -0.00524273 0)
(-2.71323 -0.00522026 0)
(-2.71862 -0.00518743 0)
(-2.72406 -0.00514635 0)
(-2.72956 -0.00509859 0)
(-2.73511 -0.00504475 0)
(-2.74072 -0.00498571 0)
(-2.74641 -0.00492245 0)
(-2.75218 -0.00485647 0)
(-2.75803 -0.00478988 0)
(-2.76398 -0.00472551 0)
(-2.77004 -0.00466695 0)
(-2.77621 -0.00461911 0)
(-2.78252 -0.00458818 0)
(-2.78896 -0.00458214 0)
(-2.79555 -0.00461067 0)
(-2.80231 -0.00468538 0)
(-2.80925 -0.00481826 0)
(-2.81637 -0.00502896 0)
(-2.82372 -0.00533877 0)
(-2.83128 -0.0057648 0)
(-2.83907 -0.00632751 0)
(-2.84713 -0.00704842 0)
(-2.85546 -0.00794438 0)
(-2.86409 -0.00902354 0)
(-2.87305 -0.0102844 0)
(-2.88232 -0.0117014 0)
(-2.89185 -0.0131894 0)
(-2.90156 -0.0145946 0)
(-2.91122 -0.0156819 0)
(-2.92045 -0.0160988 0)
(-2.92854 -0.0153517 0)
(-2.93433 -0.012853 0)
(-2.93625 -0.00746794 0)
(-2.93221 0.00309142 0)
(-2.91438 0.0230814 0)
(-2.87765 0.0589175 0)
(-2.8046 0.123657 0)
(-2.6645 0.233215 0)
(-2.48907 0.378854 0)
(-2.51281 -0.00143529 0)
(-2.51317 -0.00223044 0)
(-2.51731 -0.00279084 0)
(-2.5212 -0.00314764 0)
(-2.52517 -0.00336588 0)
(-2.52959 -0.00349336 0)
(-2.53392 -0.00356364 0)
(-2.53852 -0.00359782 0)
(-2.54298 -0.00360941 0)
(-2.54762 -0.00360641 0)
(-2.55212 -0.00359431 0)
(-2.55677 -0.00357596 0)
(-2.56127 -0.00355362 0)
(-2.5659 -0.00352848 0)
(-2.57039 -0.00350161 0)
(-2.575 -0.00347339 0)
(-2.57948 -0.00344434 0)
(-2.58406 -0.0034145 0)
(-2.58852 -0.00338417 0)
(-2.59307 -0.00335148 0)
(-2.59749 -0.00331918 0)
(-2.60202 -0.003289 0)
(-2.60641 -0.00325866 0)
(-2.61087 -0.00322817 0)
(-2.61522 -0.00319899 0)
(-2.61961 -0.00317121 0)
(-2.6239 -0.00314503 0)
(-2.62823 -0.00311988 0)
(-2.63247 -0.00309613 0)
(-2.63673 -0.00307326 0)
(-2.64091 -0.00305228 0)
(-2.64511 -0.00303267 0)
(-2.64924 -0.00301563 0)
(-2.65338 -0.00300044 0)
(-2.65746 -0.00298806 0)
(-2.66155 -0.00297762 0)
(-2.66559 -0.00296989 0)
(-2.66963 -0.00296393 0)
(-2.67364 -0.00296066 0)
(-2.67765 -0.00295968 0)
(-2.68162 -0.00296105 0)
(-2.68561 -0.00296452 0)
(-2.68958 -0.00296983 0)
(-2.69356 -0.00297708 0)
(-2.69752 -0.00298607 0)
(-2.7015 -0.00299638 0)
(-2.70547 -0.00300762 0)
(-2.70947 -0.00301946 0)
(-2.71347 -0.00303131 0)
(-2.7175 -0.00304271 0)
(-2.72154 -0.00305326 0)
(-2.72562 -0.00306243 0)
(-2.72972 -0.00306971 0)
(-2.73386 -0.00307392 0)
(-2.73804 -0.00307381 0)
(-2.74226 -0.00306856 0)
(-2.74653 -0.00305715 0)
(-2.75085 -0.00303864 0)
(-2.75523 -0.00301116 0)
(-2.75967 -0.0029798 0)
(-2.76418 -0.00295239 0)
(-2.76875 -0.00290898 0)
(-2.7734 -0.00285053 0)
(-2.77813 -0.00278118 0)
(-2.78295 -0.00270219 0)
(-2.78787 -0.00261442 0)
(-2.79288 -0.00251828 0)
(-2.79801 -0.00241433 0)
(-2.80325 -0.00230382 0)
(-2.80862 -0.0021885 0)
(-2.81412 -0.00207089 0)
(-2.81976 -0.00195423 0)
(-2.82556 -0.00184315 0)
(-2.83152 -0.00174342 0)
(-2.83766 -0.00166254 0)
(-2.84399 -0.00160971 0)
(-2.85052 -0.00159579 0)
(-2.85728 -0.0016328 0)
(-2.86427 -0.00173989 0)
(-2.87152 -0.00193736 0)
(-2.87906 -0.00224196 0)
(-2.8869 -0.00267287 0)
(-2.89508 -0.00325009 0)
(-2.90362 -0.00399077 0)
(-2.91254 -0.00490263 0)
(-2.92188 -0.00598957 0)
(-2.9316 -0.00724962 0)
(-2.94167 -0.00861942 0)
(-2.95195 -0.00997745 0)
(-2.96221 -0.0111685 0)
(-2.97201 -0.0119552 0)
(-2.9806 -0.0120373 0)
(-2.98679 -0.0110565 0)
(-2.98859 -0.00842642 0)
(-2.98366 -0.00254339 0)
(-2.96425 0.00947217 0)
(-2.92058 0.0313037 0)
(-2.83493 0.0710058 0)
(-2.67556 0.137263 0)
(-2.48515 0.220901 0)
(-2.55826 -0.000523741 0)
(-2.55892 -0.000874115 0)
(-2.56293 -0.00110214 0)
(-2.56677 -0.00124633 0)
(-2.57064 -0.00133643 0)
(-2.57499 -0.00139166 0)
(-2.57914 -0.0014238 0)
(-2.58359 -0.00144101 0)
(-2.58778 -0.00144844 0)
(-2.59219 -0.00144883 0)
(-2.59633 -0.00144496 0)
(-2.60065 -0.00143768 0)
(-2.60471 -0.00142804 0)
(-2.60891 -0.00141683 0)
(-2.61287 -0.00140444 0)
(-2.61695 -0.00139117 0)
(-2.62082 -0.00137716 0)
(-2.62479 -0.00136252 0)
(-2.62855 -0.00134718 0)
(-2.63241 -0.00133003 0)
(-2.63608 -0.00131359 0)
(-2.63984 -0.0013 -1.52815e-41)
(-2.64342 -0.0012874 0)
(-2.64708 -0.00127533 0)
(-2.65058 -0.00126417 0)
(-2.65415 -0.00125405 0)
(-2.65758 -0.00124495 0)
(-2.66108 -0.00123657 0)
(-2.66444 -0.00122873 0)
(-2.66787 -0.00122137 0)
(-2.67119 -0.00121476 0)
(-2.67456 -0.00120913 0)
(-2.67784 -0.00120474 0)
(-2.68116 -0.00120158 0)
(-2.68442 -0.00119974 0)
(-2.6877 -0.00119916 0)
(-2.69095 -0.00119977 0)
(-2.69421 -0.00120119 0)
(-2.69745 -0.00120385 0)
(-2.7007 -0.00120734 0)
(-2.70395 -0.00121189 0)
(-2.70721 -0.00121707 0)
(-2.71047 -0.00122256 0)
(-2.71375 -0.0012284 0)
(-2.71704 -0.00123441 0)
(-2.72036 -0.00124011 0)
(-2.72368 -0.00124521 0)
(-2.72705 -0.00124927 0)
(-2.73043 -0.00125131 0)
(-2.73385 -0.00125133 0)
(-2.7373 -0.00124898 0)
(-2.7408 -0.00124341 0)
(-2.74433 -0.00123378 0)
(-2.74791 -0.00121936 0)
(-2.75154 -0.00119874 0)
(-2.75523 -0.00117108 0)
(-2.75896 -0.00113552 0)
(-2.76277 -0.00109062 0)
(-2.76663 -0.00103477 0)
(-2.77058 -0.000966665 0)
(-2.77458 -0.000917151 0)
(-2.77866 -0.000841377 0)
(-2.78281 -0.000744724 0)
(-2.78706 -0.000635321 0)
(-2.7914 -0.000514414 0)
(-2.79585 -0.000382252 0)
(-2.8004 -0.000238891 0)
(-2.80506 -8.46037e-05 0)
(-2.80984 7.97164e-05 0)
(-2.81475 0.000252607 0)
(-2.8198 0.000431918 0)
(-2.825 0.000614831 0)
(-2.83035 0.000797139 0)
(-2.83587 0.000973535 0)
(-2.84158 0.00113715 0)
(-2.84748 0.00127942 0)
(-2.8536 0.00139026 0)
(-2.85995 0.00145729 0)
(-2.86655 0.00146368 0)
(-2.87342 0.00139178 0)
(-2.88058 0.00122465 0)
(-2.88807 0.000943497 0)
(-2.89591 0.000529033 6.21875e-42)
(-2.90413 -3.59847e-05 0)
(-2.91273 -0.000763264 0)
(-2.92177 -0.00165925 0)
(-2.93118 -0.00274668 0)
(-2.94088 -0.0039952 -4.69633e-41)
(-2.95082 -0.00531132 0)
(-2.96072 -0.00663193 0)
(-2.97014 -0.00783507 0)
(-2.97835 -0.00880238 0)
(-2.98413 -0.00944082 0)
(-2.98558 -0.00963185 -5.66109e-41)
(-2.97943 -0.00875649 0)
(-2.95974 -0.00580943 0)
(-2.91413 0.00030892 3.63133e-42)
(-2.82406 0.0120164 0)
(-2.65795 0.0319197 0)
(-2.4628 0.0571009 0)
(-2.53331 0.000443109 0)
(-2.53376 0.000527835 0)
(-2.53783 0.000634777 0)
(-2.54171 0.000701969 0)
(-2.54563 0.000735634 0)
(-2.55004 0.000746798 0)
(-2.55428 0.000745099 0)
(-2.55883 0.000736381 0)
(-2.56314 0.000724021 0)
(-2.56767 0.000710421 0)
(-2.57196 0.000696191 0)
(-2.57641 0.000682118 0)
(-2.58064 0.000668754 0)
(-2.585 0.000655688 0)
(-2.58915 0.000643345 0)
(-2.59341 0.000631548 0)
(-2.59747 0.000620604 0)
(-2.60163 0.000610368 0)
(-2.6056 0.000601289 0)
(-2.60965 0.00059335 0)
(-2.61353 0.000585321 0)
(-2.61749 0.000576059 6.77154e-42)
(-2.62128 0.000566632 0)
(-2.62515 0.000557156 0)
(-2.62886 0.00054781 0)
(-2.63263 0.000538352 0)
(-2.63627 0.000528982 0)
(-2.63996 0.000519812 0)
(-2.64353 0.000511618 0)
(-2.64714 0.000503941 0)
(-2.65065 0.000497154 0)
(-2.6542 0.000490231 0)
(-2.65765 0.000483781 0)
(-2.66114 0.00047709 0)
(-2.66455 0.000470903 0)
(-2.668 0.000464443 0)
(-2.67138 0.000458598 0)
(-2.67478 0.000452872 0)
(-2.67814 0.00044774 0)
(-2.68152 0.000443173 0)
(-2.68486 0.000439266 0)
(-2.68823 0.000436211 0)
(-2.69157 0.000434179 0)
(-2.69494 0.000433513 0)
(-2.69829 0.000434355 0)
(-2.70167 0.000437119 0)
(-2.70505 0.000442158 0)
(-2.70846 0.000449946 0)
(-2.71187 0.000461308 0)
(-2.71532 0.000476404 0)
(-2.71878 0.000495563 0)
(-2.72228 0.000519699 0)
(-2.7258 0.000549764 0)
(-2.72937 0.000586283 0)
(-2.73297 0.000630835 0)
(-2.73662 0.000684272 0)
(-2.7403 0.000747104 0)
(-2.74405 0.000821382 0)
(-2.74784 0.000908125 0)
(-2.75169 0.00100922 0)
(-2.75559 0.00109476 0)
(-2.75958 0.00120846 0)
(-2.76363 0.00134526 0)
(-2.76777 0.00149734 0)
(-2.77197 0.00166344 0)
(-2.77626 0.00184369 0)
(-2.78064 0.00203824 0)
(-2.78512 0.00224715 0)
(-2.7897 0.00246991 0)
(-2.79439 0.00270525 0)
(-2.7992 0.00295156 0)
(-2.80414 0.0032065 0)
(-2.80921 0.00346644 0)
(-2.81444 0.00372658 0)
(-2.81982 0.00398079 0)
(-2.82539 0.0042213 0)
(-2.83114 0.00443868 0)
(-2.8371 0.00462115 0)
(-2.84329 0.00475393 0)
(-2.84972 0.00482119 0)
(-2.85642 0.00480651 0)
(-2.86341 0.00469158 0)
(-2.87072 0.00445708 5.23928e-41)
(-2.87837 0.00408617 0)
(-2.88637 0.00356 0)
(-2.89476 0.00286342 0)
(-2.90345 0.0019688 0)
(-2.91238 0.000871646 1.02461e-41)
(-2.92144 -0.000395395 0)
(-2.93033 -0.00184797 0)
(-2.93845 -0.00344921 0)
(-2.94519 -0.00524881 0)
(-2.94945 -0.00745821 0)
(-2.94927 -0.0103646 -6.09176e-41)
(-2.94134 -0.0143728 0)
(-2.91964 -0.020298 0)
(-2.87322 -0.0299748 -3.52352e-40)
(-2.78272 -0.0463808 0)
(-2.61791 -0.072629 0)
(-2.42414 -0.103738 0)
(-2.45178 0.00128487 0)
(-2.45142 0.00193057 0)
(-2.45557 0.00239044 0)
(-2.45932 0.00268142 0)
(-2.46319 0.0028519 0)
(-2.46754 0.00294349 0)
(-2.47183 0.00298785 0)
(-2.47641 0.00300338 0)
(-2.48087 0.00300263 0)
(-2.48554 0.00299189 0)
(-2.49009 0.00297607 0)
(-2.4948 0.0029566 0)
(-2.4994 0.0029357 0)
(-2.50412 0.00291354 0)
(-2.50875 0.00289109 0)
(-2.51348 0.00286827 0)
(-2.51811 0.00284573 0)
(-2.52284 0.00282334 0)
(-2.52748 0.00280162 0)
(-2.53219 0.00278017 0)
(-2.53682 0.00275849 0)
(-2.54152 0.00273594 0)
(-2.54613 0.00271321 0)
(-2.5508 0.00269016 0)
(-2.55539 0.00266722 0)
(-2.56002 0.0026441 0)
(-2.56458 0.00262109 0)
(-2.56917 0.00259834 0)
(-2.57369 0.00257687 0)
(-2.57823 0.00255642 0)
(-2.5827 0.00253727 0)
(-2.5872 0.00251841 0)
(-2.59162 0.00250045 0)
(-2.59606 0.00248283 0)
(-2.60043 0.00246635 0)
(-2.60482 0.00245036 0)
(-2.60914 0.0024358 0)
(-2.61347 0.00242201 0)
(-2.61774 0.00241 0)
(-2.62202 0.00239928 0)
(-2.62624 0.0023906 0)
(-2.63047 0.00238378 0)
(-2.63465 0.00237909 0)
(-2.63883 0.00237711 0)
(-2.64298 0.00237814 0)
(-2.64713 0.00238252 0)
(-2.65125 0.00239081 0)
(-2.65537 0.00240347 0)
(-2.65947 0.00242122 0)
(-2.66358 0.00244444 0)
(-2.66768 0.00247368 0)
(-2.67179 0.00250964 0)
(-2.67589 0.00255318 0)
(-2.68002 0.00260533 0)
(-2.68414 0.00266737 0)
(-2.6883 0.00274042 0)
(-2.69247 0.0028249 0)
(-2.69667 0.00292241 0)
(-2.7009 0.00303438 0)
(-2.70516 0.00315651 0)
(-2.70945 0.003282 0)
(-2.7138 0.00343006 0)
(-2.71818 0.00360026 0)
(-2.72263 0.00378902 0)
(-2.72711 0.00399531 0)
(-2.73167 0.0042191 0)
(-2.73628 0.00446073 0)
(-2.74097 0.00472051 0)
(-2.74573 0.00499831 0)
(-2.75059 0.0052932 0)
(-2.75553 0.00560413 0)
(-2.76059 0.00592926 0)
(-2.76576 0.0062656 0)
(-2.77106 0.00660895 0)
(-2.77649 0.00695391 0)
(-2.78209 0.00729351 0)
(-2.78786 0.00761908 0)
(-2.79382 0.00791973 0)
(-2.8 0.00818225 0)
(-2.80641 0.00839211 0)
(-2.81307 0.00853362 0)
(-2.82003 0.00858906 0)
(-2.82731 0.00853767 0)
(-2.83492 0.0083623 0)
(-2.84289 0.00804115 0)
(-2.85124 0.00754535 0)
(-2.85994 0.00684343 0)
(-2.86895 0.00590256 0)
(-2.87809 0.00467171 0)
(-2.88715 0.00307288 0)