/*--------------------------------*- C++ -*----------------------------------*\
| =========                 |                                                 |
| \\      /  F ield         | OpenFOAM: The Open Source CFD Toolbox           |
|  \\    /   O peration     | Version:  2.1.0                                 |
|   \\  /    A nd           | Web:      www.OpenFOAM.org                      |
|    \\/     M anipulation  |                                                 |
\*---------------------------------------------------------------------------*/
FoamFile
{
    version     2.0;
    format      ascii;
    class       volScalarField;
    location    "0.38";
    object      k;
}
// * * * * * * * * * * * * * * * * * * * * * * * * * * * * * * * * * * * * * //

dimensions      [0 2 -2 0 0 0 0];

internalField   nonuniform List<scalar> 
6400
(
0.0328155
0.0328586
0.032863
0.0328599
0.0328381
0.032828
0.0327985
0.0327843
0.0327509
0.032734
0.0326984
0.0326778
0.0326411
0.0326163
0.0325787
0.0325495
0.0325109
0.0324775
0.0324375
0.0324003
0.032359
0.0323185
0.0322757
0.0322324
0.0321882
0.0321426
0.0320966
0.0320486
0.0320005
0.0319502
0.0318997
0.0318468
0.0317936
0.0317378
0.0316815
0.0316225
0.0315625
0.0314997
0.0314353
0.0313674
0.031297
0.0312224
0.0311441
0.0310607
0.0309722
0.0308776
0.0307765
0.0306679
0.0305514
0.0304261
0.0302915
0.0301467
0.0299906
0.0298195
0.0296329
0.0294267
0.0292163
0.0289902
0.0287596
0.0285137
0.0282624
0.0279988
0.0277273
0.0274449
0.0271518
0.0268481
0.026532
0.0262044
0.0258601
0.0255008
0.0251246
0.0247304
0.0243173
0.0238846
0.0234319
0.0229595
0.0224678
0.0219585
0.0214332
0.0208949
0.0203453
0.0197854
0.0192094
0.0185955
0.0179288
0.0172362
0.0164891
0.0156688
0.0147397
0.0136516
0.0123309
0.0106678
0.00857634
0.00608974
0.00343253
0.00235869
0.00274792
0.00552493
0.00876221
0.00991665
0.0521084
0.0524335
0.052583
0.052857
0.0530261
0.0532979
0.0534856
0.0537515
0.0539566
0.0542171
0.054437
0.0546937
0.0549255
0.05518
0.0554208
0.0556742
0.0559216
0.0561747
0.0564267
0.0566799
0.0569354
0.05719
0.0574489
0.0577063
0.0579701
0.0582328
0.0585026
0.058772
0.0590484
0.0593251
0.0596084
0.0598926
0.0601831
0.0604753
0.0607734
0.0610737
0.0613799
0.0616891
0.0620047
0.0623239
0.0626469
0.0629724
0.0633005
0.0636294
0.0639589
0.0642869
0.0646123
0.0649327
0.0652467
0.0655519
0.065847
0.0661313
0.0664105
0.0666735
0.0669201
0.0671365
0.0673532
0.0675507
0.0677402
0.0679065
0.0680553
0.0681906
0.0683038
0.0684046
0.0684789
0.0685342
0.0685599
0.068568
0.0685389
0.0684672
0.0683518
0.068183
0.0679541
0.0676568
0.0672815
0.0668205
0.0662635
0.0656039
0.0648327
0.0639459
0.0629382
0.0618107
0.0605666
0.0591995
0.0576633
0.055902
0.0538901
0.0515663
0.0488694
0.0457281
0.0420841
0.037897
0.033227
0.0283484
0.0233673
0.018629
0.0149736
0.0123992
0.0107867
0.00922048
0.0577969
0.0582777
0.0584975
0.0588974
0.0591706
0.0595563
0.0598623
0.060239
0.0605683
0.0609404
0.0612872
0.0616583
0.0620184
0.0623905
0.0627608
0.063135
0.0635126
0.063889
0.0642714
0.0646491
0.0650332
0.0654113
0.0657966
0.0661756
0.0665627
0.0669462
0.0673373
0.0677258
0.0681208
0.0685138
0.0689122
0.069309
0.0697103
0.07011
0.0705134
0.0709148
0.0713186
0.0717197
0.0721207
0.0725181
0.072915
0.0733076
0.0736972
0.0740806
0.0744576
0.074825
0.0751813
0.075522
0.0758437
0.0761399
0.0764059
0.0766284
0.0768341
0.0770178
0.0771782
0.0773176
0.0774326
0.077524
0.0775907
0.077629
0.0776451
0.0776409
0.0775745
0.0774866
0.0773406
0.0771604
0.0769211
0.0766377
0.076291
0.0758887
0.0754145
0.0748695
0.0742386
0.0735182
0.072693
0.0717565
0.0706933
0.069496
0.0681504
0.0666502
0.0649844
0.0631495
0.0611383
0.0589494
0.0565887
0.0540756
0.0513964
0.0485608
0.0455429
0.0423342
0.0388908
0.035183
0.0311865
0.0268992
0.022438
0.0180869
0.0144231
0.011463
0.00928119
0.00710539
0.0619513
0.0624843
0.0627278
0.0631885
0.0635102
0.0639525
0.0643165
0.0647467
0.0651368
0.0655607
0.065968
0.0663898
0.066809
0.0672313
0.0676588
0.0680827
0.0685158
0.0689414
0.0693777
0.0698045
0.0702416
0.070666
0.071096
0.0715095
0.0719218
0.072328
0.072737
0.0731386
0.0735413
0.0739356
0.0743292
0.0747132
0.0750943
0.0754644
0.0758293
0.0761814
0.0765255
0.0768557
0.0771755
0.0774777
0.0777657
0.078035
0.0782858
0.0785148
0.0787214
0.0789022
0.0790564
0.0791805
0.0792739
0.0793251
0.0793464
0.0793484
0.079291
0.0792085
0.0790705
0.0788956
0.0786625
0.0783811
0.0780349
0.0776281
0.0771476
0.0766012
0.0759726
0.0752702
0.0744773
0.073602
0.0726296
0.0715682
0.070406
0.0691507
0.0677941
0.0663438
0.0647952
0.0631563
0.0614243
0.0596082
0.0577061
0.0557274
0.0536708
0.0515449
0.0493485
0.047089
0.0447656
0.0423845
0.0399463
0.0374561
0.0349162
0.0323507
0.029755
0.0271469
0.0245284
0.0219147
0.0193123
0.0167405
0.0142325
0.0118663
0.00969539
0.00785745
0.00658594
0.00599011
0.0629531
0.0634561
0.0636813
0.0641221
0.0644175
0.0648383
0.0651706
0.0655727
0.0659246
0.0663116
0.066673
0.0670475
0.0674114
0.0677748
0.068136
0.0684883
0.0688423
0.0691819
0.0695246
0.0698494
0.0701764
0.0704851
0.0707935
0.0710824
0.0713701
0.0716394
0.0719051
0.0721508
0.0723895
0.0726061
0.0728122
0.0729938
0.0731611
0.0733014
0.0734231
0.0735148
0.07358
0.0736107
0.0736206
0.0735958
0.0735285
0.073427
0.0732819
0.0730952
0.0728622
0.0725815
0.0722511
0.071868
0.0714318
0.070939
0.0703914
0.0697839
0.0691168
0.0683903
0.0676005
0.0667528
0.0658424
0.0648728
0.0638401
0.0627482
0.0615941
0.0603826
0.0591112
0.0577853
0.056403
0.0549704
0.0534864
0.0519574
0.050383
0.0487697
0.0471179
0.0454337
0.0437189
0.0419795
0.0402227
0.0384519
0.0366724
0.0348882
0.0331055
0.0313284
0.0295639
0.0278174
0.0260966
0.0244071
0.0227567
0.0211501
0.0195952
0.0180791
0.0166181
0.0152014
0.013842
0.01253
0.0112792
0.0100844
0.00896635
0.00793808
0.00702939
0.006398
0.00612478
0.00612182
0.0592165
0.0595132
0.0596468
0.0599213
0.0601008
0.0603579
0.0605533
0.0607861
0.0609813
0.061188
0.0613732
0.0615532
0.0617213
0.0618731
0.0620182
0.0621398
0.0622567
0.0623452
0.0624288
0.0624807
0.0625189
0.0625341
0.0625373
0.0625052
0.0624586
0.0623763
0.0622794
0.0621492
0.0620023
0.061819
0.0616157
0.0613736
0.0611078
0.0608016
0.060468
0.0600927
0.0596868
0.0592388
0.0587578
0.0582331
0.057673
0.0570705
0.0564308
0.0557492
0.0550302
0.0542702
0.0534736
0.0526374
0.0517662
0.0508576
0.0499162
0.0489399
0.0479337
0.0468961
0.0458319
0.0447402
0.0436254
0.0424875
0.041332
0.0401614
0.0389785
0.0377857
0.0365863
0.0353824
0.0341776
0.032974
0.0317753
0.0305833
0.0294022
0.0282336
0.0270816
0.0259477
0.0248358
0.0237469
0.0226807
0.0216401
0.0206271
0.0196435
0.0186927
0.0177749
0.0168905
0.0160357
0.0152152
0.0144239
0.0136658
0.012935
0.0122346
0.0115581
0.0109082
0.0102768
0.00966695
0.0090704
0.00849222
0.00792818
0.00739369
0.0068976
0.00653546
0.00637788
0.00635157
0.00656874
0.049784
0.0497249
0.0497033
0.0496775
0.0496589
0.0496209
0.0495863
0.0495232
0.0494633
0.0493694
0.0492788
0.0491509
0.0490261
0.0488622
0.0487007
0.0484993
0.0482993
0.0480595
0.0478198
0.0475414
0.0472619
0.0469453
0.0466208
0.0462598
0.0458898
0.0454835
0.0450674
0.0446161
0.0441535
0.0436568
0.043148
0.0426064
0.0420522
0.0414672
0.0408694
0.0402433
0.0396048
0.0389408
0.0382654
0.0375674
0.0368595
0.0361346
0.0354024
0.0346564
0.033906
0.0331456
0.0323838
0.031616
0.0308499
0.0300816
0.0293184
0.0285567
0.0278035
0.0270553
0.0263187
0.0255882
0.0248707
0.024163
0.0234706
0.0227878
0.022122
0.0214681
0.0208324
0.0202098
0.0196058
0.0190156
0.0184455
0.0178873
0.0173476
0.0168195
0.0163084
0.0158079
0.0153226
0.0148464
0.0143832
0.0139273
0.0134818
0.0130414
0.0126077
0.0121765
0.0117652
0.0113615
0.0109754
0.0105957
0.0102314
0.00987239
0.00952692
0.00918608
0.00885844
0.00853695
0.00823162
0.00793837
0.00766988
0.00742632
0.00723039
0.00710129
0.00704832
0.00709281
0.00743297
0.00762484
0.0367753
0.0364091
0.0362554
0.0359688
0.0357894
0.0354992
0.0352885
0.0349842
0.0347407
0.0344171
0.0341409
0.0337952
0.033487
0.0331178
0.0327785
0.032385
0.0320157
0.0315976
0.031199
0.0307564
0.0303295
0.0298643
0.0294189
0.0289413
0.0284813
0.0279957
0.0275245
0.0270283
0.0265459
0.0260439
0.0255562
0.0250533
0.0245661
0.0240672
0.0235855
0.0230955
0.0226241
0.0221474
0.0216905
0.0212312
0.0207926
0.0203525
0.0199334
0.0195151
0.0191179
0.0187237
0.0183505
0.0179818
0.0176338
0.0172915
0.0169688
0.0166527
0.0163565
0.0160678
0.015798
0.0155361
0.0152922
0.0150562
0.0148365
0.0146244
0.0144278
0.0142381
0.0140629
0.013894
0.0137389
0.0135892
0.0134506
0.0133191
0.0131984
0.0130839
0.0129787
0.0128786
0.0127864
0.0126981
0.0126161
0.0125366
0.012462
0.0123882
0.0123174
0.0122456
0.0121744
0.0120976
0.0120179
0.0119287
0.0118323
0.0117222
0.0116003
0.0114609
0.0113067
0.0111342
0.0109492
0.010753
0.0105575
0.0103717
0.0102397
0.0101822
0.0101754
0.0104192
0.0107807
0.0109581
0.0240784
0.0235507
0.0233327
0.022921
0.0226867
0.0222866
0.022035
0.0216426
0.0213758
0.0209894
0.0207109
0.0203298
0.0200431
0.0196675
0.0193759
0.019007
0.0187135
0.0183528
0.0180605
0.0177097
0.0174217
0.0170835
0.0168062
0.0164853
0.0162206
0.0159186
0.0156684
0.0153866
0.015153
0.0148928
0.0146775
0.0144401
0.0142441
0.0140305
0.0138546
0.0136653
0.0135099
0.013345
0.0132105
0.0130701
0.0129566
0.01284
0.0127478
0.0126545
0.0125837
0.0125134
0.0124639
0.0124164
0.0123883
0.0123669
0.0123582
0.012356
0.0123688
0.0123898
0.012424
0.0124658
0.0125211
0.0125839
0.012661
0.0127458
0.012845
0.012952
0.0130735
0.0132031
0.0133473
0.0135001
0.0136675
0.0138435
0.014034
0.0142338
0.0144483
0.0146728
0.0149122
0.0151623
0.0154275
0.015704
0.0159957
0.016299
0.0166173
0.0169468
0.0172902
0.0176434
0.0180081
0.0183797
0.0187581
0.0191379
0.019517
0.0198884
0.0202488
0.0205906
0.0209109
0.0212048
0.0214741
0.021722
0.0219639
0.0222453
0.0226946
0.0232975
0.0241249
0.0250213
0.0175313
0.0169977
0.0167819
0.0163713
0.0161567
0.0157661
0.0155543
0.0151852
0.0149787
0.0146324
0.0144333
0.0141107
0.0139215
0.0136231
0.0134458
0.0131722
0.0130084
0.0127598
0.012611
0.0123876
0.0122549
0.0120565
0.0119407
0.0117669
0.0116683
0.0115185
0.0114372
0.0113109
0.0112468
0.011145
0.011095
0.0110188
0.010982
0.0109313
0.0109075
0.0108824
0.010872
0.010868
0.0108719
0.010888
0.010912
0.010945
0.0109876
0.011038
0.0110991
0.011167
0.0112465
0.0113322
0.0114301
0.011534
0.0116503
0.0117732
0.0119085
0.0120507
0.0122054
0.0123676
0.0125426
0.0127257
0.012922
0.013127
0.0133458
0.0135742
0.0138172
0.014071
0.0143403
0.0146215
0.0149194
0.0152306
0.0155599
0.0159041
0.0162681
0.0166491
0.0170519
0.0174742
0.0179207
0.0183898
0.0188861
0.0194085
0.0199619
0.0205458
0.0211654
0.021821
0.0225181
0.0232583
0.0240475
0.0248886
0.0257887
0.0267531
0.0277905
0.0289087
0.0301193
0.0314335
0.0328671
0.0344365
0.0361605
0.0380496
0.0401034
0.0422929
0.043819
0.0444413
0.0210929
0.020515
0.0202773
0.0198232
0.0195762
0.0191388
0.0188851
0.0184651
0.0182082
0.0178067
0.0175498
0.0171677
0.0169142
0.0165532
0.0163066
0.0159676
0.0157312
0.0154152
0.0151916
0.0148992
0.0146905
0.0144223
0.0142301
0.0139863
0.0138119
0.0135927
0.0134369
0.0132423
0.0131057
0.0129354
0.0128183
0.0126724
0.0125747
0.012453
0.0123746
0.0122768
0.0122176
0.0121436
0.0121038
0.0120553
0.0120321
0.0120128
0.0120056
0.0120042
0.0120194
0.0120402
0.0120759
0.0121174
0.0121737
0.0122359
0.0123127
0.0123958
0.0124934
0.0125978
0.0127166
0.0128426
0.0129827
0.0131306
0.0132927
0.0134631
0.0136476
0.0138415
0.01405
0.0142684
0.0145024
0.0147471
0.0150082
0.0152811
0.0155713
0.0158746
0.0161963
0.0165327
0.0168888
0.0172616
0.017656
0.0180694
0.0185065
0.0189656
0.0194513
0.0199624
0.0205035
0.0210744
0.0216798
0.0223203
0.0230009
0.0237232
0.0244927
0.0253118
0.0261864
0.0271205
0.0281214
0.0292008
0.030371
0.0316474
0.0330533
0.0346154
0.0363714
0.0382949
0.0398484
0.0405317
0.0319553
0.0314011
0.0311667
0.0307192
0.0304528
0.0300095
0.0297117
0.0292674
0.0289419
0.0284954
0.0281473
0.0276955
0.0273221
0.0268643
0.0264724
0.0260098
0.025605
0.0251405
0.024728
0.0242648
0.0238492
0.0233908
0.0229765
0.0225262
0.0221172
0.0216783
0.0212785
0.0208541
0.0204669
0.0200598
0.0196883
0.0193011
0.0189482
0.0185831
0.0182509
0.0179091
0.0175987
0.0172816
0.0169949
0.0167038
0.0164418
0.0161777
0.0159414
0.015706
0.0154964
0.0152897
0.0151071
0.014929
0.0147732
0.0146231
0.0144939
0.0143712
0.0142682
0.0141727
0.0140959
0.0140265
0.0139745
0.0139298
0.0139018
0.0138855
0.0138793
0.013879
0.0138992
0.0139226
0.0139642
0.01401
0.014072
0.0141386
0.0142199
0.0143048
0.0144021
0.0145027
0.0146135
0.0147268
0.0148482
0.0149709
0.0150993
0.0152275
0.0153588
0.0154879
0.0156175
0.0157427
0.0158656
0.0159819
0.0160932
0.016196
0.0162916
0.0163777
0.0164561
0.016526
0.0165907
0.0166453
0.0166973
0.0167663
0.0168692
0.0170514
0.0173679
0.0178973
0.0186289
0.0196747
0.0449987
0.0446665
0.0445262
0.0442579
0.0440873
0.0438088
0.0436003
0.0432997
0.0430518
0.0427238
0.0424366
0.0420788
0.0417532
0.0413643
0.0410005
0.0405801
0.0401788
0.0397269
0.0392895
0.0388068
0.038335
0.0378226
0.0373185
0.0367783
0.0362445
0.035679
0.0351186
0.0345309
0.0339479
0.0333416
0.0327403
0.0321198
0.0315052
0.0308754
0.0302529
0.0296197
0.0289945
0.0283574
0.0277304
0.0270966
0.0264754
0.0258518
0.0252431
0.024636
0.0240457
0.0234602
0.0228934
0.0223342
0.021795
0.0212645
0.0207537
0.0202533
0.0197725
0.0193026
0.0188515
0.0184118
0.0179906
0.0175804
0.0171874
0.0168081
0.0164449
0.0160947
0.0157599
0.0154353
0.0151249
0.0148229
0.0145336
0.0142494
0.0139752
0.0137082
0.0134515
0.0131998
0.0129571
0.0127177
0.0124858
0.0122555
0.0120314
0.0118077
0.011589
0.0113699
0.0111549
0.0109395
0.0107281
0.010517
0.0103104
0.0101059
0.00990492
0.00970713
0.00951523
0.00933074
0.0091571
0.00899897
0.00886095
0.00874721
0.00869107
0.00867289
0.00878358
0.00904318
0.00944667
0.0096254
0.0564512
0.0564564
0.0564702
0.0564879
0.0564997
0.0565032
0.0565016
0.0564713
0.0564412
0.0563746
0.0563088
0.0562054
0.0561068
0.0559666
0.0558302
0.0556506
0.0554721
0.0552501
0.0550259
0.0547584
0.0544854
0.0541696
0.0538451
0.0534797
0.0531013
0.0526827
0.0522489
0.0517761
0.051286
0.0507578
0.0502107
0.0496268
0.0490229
0.0483838
0.0477245
0.0470319
0.0463194
0.0455758
0.044813
0.0440215
0.0432119
0.0423766
0.0415255
0.0406517
0.0397651
0.0388599
0.0379448
0.0370156
0.0360803
0.0351368
0.0341921
0.0332443
0.0322999
0.0313575
0.0304232
0.029496
0.0285817
0.0276794
0.0267943
0.0259245
0.0250737
0.0242366
0.0234203
0.0226216
0.0218459
0.0210903
0.0203589
0.0196505
0.0189677
0.0183054
0.0176662
0.0170469
0.0164492
0.0158697
0.0153094
0.0147653
0.0142375
0.0137232
0.0132226
0.0127324
0.0122527
0.0117804
0.0113151
0.0108542
0.0103973
0.00996325
0.00953981
0.00914173
0.00875501
0.00839426
0.00804724
0.00772951
0.00742874
0.00716952
0.00692683
0.00676937
0.00669921
0.0066979
0.0070295
0.0072181
0.0628446
0.0631702
0.0633164
0.0636065
0.0638015
0.0640719
0.0642841
0.06453
0.0647438
0.0649657
0.065172
0.0653709
0.0655634
0.0657383
0.0659112
0.0660603
0.0662085
0.066329
0.0664477
0.0665363
0.0666208
0.0666734
0.0667114
0.0667265
0.0667295
0.0666971
0.0666483
0.0665656
0.0664632
0.0663253
0.0661643
0.0659655
0.0657398
0.0654737
0.0651765
0.0648362
0.0644622
0.0640489
0.0635991
0.0631073
0.0625762
0.0619988
0.0613809
0.060715
0.0600072
0.059251
0.0584518
0.0576051
0.0567156
0.0557804
0.0548038
0.0537842
0.0527256
0.0516279
0.0504946
0.0493266
0.0481277
0.0468992
0.0456453
0.0443674
0.0430727
0.0417631
0.0404436
0.0391161
0.0377859
0.0364547
0.0351277
0.0338065
0.0324959
0.0311976
0.0299161
0.0286531
0.0274126
0.0261961
0.025007
0.0238463
0.0227151
0.0216084
0.0205324
0.0194842
0.0184677
0.0174819
0.0165283
0.0156074
0.0147194
0.0138636
0.013034
0.0122329
0.0114555
0.0107056
0.0099786
0.00927835
0.00860266
0.0079604
0.00736304
0.00681398
0.0064004
0.00621206
0.00617333
0.00635982
0.0641338
0.0646193
0.0648374
0.0652578
0.0655439
0.0659435
0.0662649
0.0666468
0.066987
0.0673556
0.067705
0.0680635
0.0684158
0.0687655
0.069116
0.0694569
0.0698019
0.0701334
0.0704695
0.0707897
0.0711138
0.0714204
0.071729
0.0720206
0.0723103
0.0725815
0.0728489
0.0730973
0.0733397
0.0735634
0.07378
0.0739756
0.0741607
0.0743227
0.0744705
0.0745925
0.074697
0.0747744
0.0748238
0.0748455
0.0748501
0.0748108
0.0747427
0.0746331
0.0744877
0.0742971
0.0740643
0.0737818
0.073451
0.0730656
0.0726259
0.0721274
0.0715696
0.0709505
0.0702684
0.0695197
0.0687085
0.067828
0.0668841
0.0658701
0.0647927
0.0636493
0.0624452
0.061177
0.0598512
0.058466
0.0570267
0.0555338
0.0539919
0.0524033
0.0507717
0.0491007
0.0473932
0.0456537
0.043884
0.0420895
0.0402725
0.0384459
0.0366038
0.0347583
0.0329037
0.0310523
0.029199
0.0273569
0.0255223
0.0237091
0.0219162
0.0201575
0.0184355
0.0167438
0.0151043
0.0135175
0.012007
0.0105799
0.00928046
0.00808347
0.00708313
0.00635329
0.00603061
0.0060034
0.0615531
0.0620553
0.062285
0.0627094
0.0630091
0.0634144
0.0637517
0.0641451
0.0645054
0.064893
0.0652683
0.0656539
0.0660392
0.0664251
0.0668172
0.0672045
0.0676011
0.0679902
0.0683895
0.06878
0.0691803
0.0695713
0.0699707
0.0703604
0.0707557
0.0711404
0.0715269
0.0718997
0.0722679
0.0726216
0.0729826
0.0733326
0.0736863
0.0740309
0.0743776
0.0747175
0.0750557
0.075383
0.0757059
0.0760183
0.0763235
0.0766142
0.0768961
0.0771616
0.0774145
0.0776483
0.0778653
0.0780606
0.0782344
0.0783829
0.0785056
0.0785982
0.0786518
0.0786744
0.0786773
0.0786208
0.0785391
0.0784004
0.0782226
0.0779833
0.0776924
0.0773328
0.0769083
0.0764043
0.0758207
0.0751549
0.0743985
0.0735527
0.0726059
0.0715622
0.0704106
0.0691575
0.0677942
0.0663295
0.0647565
0.0630864
0.0613141
0.0594504
0.0574915
0.0554469
0.0533127
0.0510958
0.0487906
0.0464014
0.0439207
0.0413509
0.0386868
0.0359296
0.0330827
0.0301706
0.0271926
0.0241713
0.0211313
0.0181208
0.015247
0.0125192
0.0101276
0.0080896
0.00662615
0.00592596
0.0563649
0.0567983
0.0569974
0.0573556
0.0576034
0.0579485
0.0582255
0.0585621
0.0588596
0.059192
0.0595046
0.0598363
0.0601606
0.0604938
0.0608273
0.0611633
0.0615042
0.0618437
0.0621903
0.0625334
0.0628842
0.0632304
0.063584
0.0639322
0.0642869
0.064636
0.0649903
0.0653393
0.0656933
0.0660453
0.0664048
0.0667625
0.0671276
0.0674909
0.06786
0.0682264
0.0685983
0.0689698
0.0693454
0.0697211
0.0700996
0.0704777
0.0708579
0.0712368
0.0716164
0.0719935
0.0723691
0.0727428
0.0731136
0.0734781
0.0738346
0.0741792
0.0745075
0.0748153
0.0750919
0.0753223
0.0755437
0.075736
0.0759111
0.0760546
0.0761753
0.0762646
0.0763318
0.0763696
0.076386
0.0763774
0.0763006
0.0761951
0.0760227
0.0758059
0.0755187
0.075174
0.0747426
0.0742364
0.0736249
0.0729136
0.0720722
0.0710999
0.069968
0.0686718
0.0671856
0.0655045
0.0636082
0.0614942
0.0591489
0.0565761
0.053766
0.0507264
0.04746
0.0439658
0.0402102
0.036171
0.0318394
0.0272383
0.0225314
0.0182257
0.0144564
0.0116265
0.00943709
0.00727236
0.0498596
0.0501492
0.0502823
0.0505229
0.0506734
0.0509123
0.051079
0.0513128
0.0514952
0.0517246
0.0519206
0.0521474
0.0523546
0.0525807
0.0527969
0.0530234
0.0532466
0.0534742
0.0537025
0.0539316
0.0541635
0.0543939
0.054628
0.0548596
0.0550953
0.0553281
0.0555654
0.0558006
0.0560412
0.0562818
0.0565281
0.0567751
0.0570282
0.0572821
0.0575419
0.0578031
0.0580706
0.0583403
0.0586164
0.0588953
0.0591806
0.0594696
0.0597651
0.0600654
0.0603725
0.0606855
0.0610059
0.0613282
0.0616545
0.0619809
0.0623078
0.0626323
0.0629534
0.063269
0.063578
0.0638832
0.0641925
0.0644977
0.0648029
0.0650977
0.065381
0.0656378
0.0658576
0.0660634
0.0662413
0.0664104
0.0665514
0.0666798
0.0667746
0.0668399
0.066868
0.0668729
0.0668059
0.0666903
0.066493
0.0662198
0.0658416
0.0653572
0.0647398
0.0639842
0.0630662
0.0619793
0.0607031
0.0592327
0.0575542
0.0556685
0.0535273
0.0511307
0.0483191
0.0450675
0.0412905
0.0369472
0.0322235
0.0273453
0.0224766
0.0180641
0.0146135
0.0122369
0.010744
0.00922491
0.0309507
0.0309811
0.0309818
0.0309664
0.0309431
0.0309257
0.0308931
0.0308746
0.0308384
0.0308179
0.0307806
0.0307573
0.0307197
0.0306929
0.030655
0.0306245
0.0305859
0.0305517
0.0305118
0.030474
0.0304324
0.030391
0.0303474
0.0303027
0.0302569
0.0302095
0.0301617
0.0301121
0.0300625
0.0300111
0.0299598
0.0299065
0.0298532
0.029798
0.0297426
0.0296853
0.0296279
0.0295685
0.0295091
0.0294476
0.0293859
0.0293222
0.0292579
0.0291916
0.029124
0.029054
0.0289816
0.0289052
0.0288255
0.0287409
0.0286518
0.0285571
0.0284572
0.0283514
0.0282402
0.0281241
0.0280022
0.0278715
0.0277312
0.0275767
0.0274061
0.0272133
0.0269957
0.0267689
0.0265275
0.0262785
0.0260161
0.0257441
0.0254571
0.0251578
0.0248432
0.0245131
0.0241583
0.0237868
0.0233867
0.0229641
0.0225096
0.0220272
0.02151
0.0209609
0.0203752
0.0197556
0.0190993
0.0184088
0.0176815
0.0169127
0.0160748
0.015123
0.0140193
0.0127362
0.011176
0.00926009
0.00706797
0.00495652
0.00301775
0.00232239
0.00260772
0.00527899
0.00862372
0.00984779
0.00947205
0.00467544
0.00403029
0.00390126
0.00387298
0.00389712
0.00381771
0.00378058
0.00376585
0.0037629
0.00378533
0.00385664
0.00413331
0.00471593
0.00547289
0.00655101
0.00691971
0.00690149
0.00576525
0.00340446
0.00777582
0.00468052
0.00428946
0.00419017
0.00416631
0.00404589
0.00396669
0.00393202
0.00392017
0.00392264
0.00397602
0.00416336
0.00455712
0.00514075
0.00621853
0.00686776
0.00700389
0.00675925
0.00519424
0.00278472
0.00621346
0.00478481
0.00460516
0.00454129
0.00436887
0.00426759
0.00419989
0.0041728
0.00416479
0.00417777
0.00430517
0.00456631
0.00505038
0.00599059
0.00679571
0.00704918
0.00703848
0.00647914
0.00456501
0.00215352
0.00579552
0.00511628
0.00503444
0.00479456
0.00463712
0.0045219
0.00446454
0.00444039
0.00443813
0.00453986
0.00476514
0.00519663
0.00606376
0.00686789
0.00719377
0.00725393
0.00697793
0.00602736
0.00378482
0.0015481
0.00591819
0.00548185
0.0053437
0.00505442
0.00493986
0.0048675
0.0048496
0.00488358
0.00500256
0.00528588
0.00568543
0.00650982
0.0071835
0.00748829
0.00757476
0.0073956
0.00678181
0.00540586
0.00293737
0.00101983
0.00628516
0.00593562
0.0058021
0.00561792
0.00558598
0.00559518
0.00572204
0.00595422
0.0063745
0.00689793
0.00751817
0.00799936
0.00820467
0.00824787
0.00796179
0.00732649
0.00637199
0.00458876
0.00189814
0.000565217
0.00721818
0.00709244
0.00707698
0.00710627
0.00738151
0.00770493
0.00825334
0.00895347
0.00962637
0.00982663
0.00989142
0.00974955
0.00942282
0.00883928
0.00802051
0.00707881
0.0056443
0.00347983
0.00115253
0.000252089
0.0108641
0.0113037
0.0118083
0.0124667
0.0134245
0.0144101
0.0148899
0.0150401
0.0140101
0.0134135
0.0123226
0.0115335
0.0103111
0.00917866
0.00784568
0.00644822
0.00445891
0.00225419
0.000647905
9.13782e-05
0.0252741
0.0257531
0.0259553
0.025954
0.025259
0.0238964
0.0222391
0.0199687
0.0182279
0.0162826
0.0144821
0.0126726
0.0107364
0.00894732
0.00708978
0.0050425
0.00297663
0.00132921
0.000396591
4.15481e-05
0.0411854
0.0394042
0.0374337
0.034641
0.0321027
0.0285147
0.0258873
0.0227172
0.0203313
0.0174511
0.0151939
0.012462
0.0101315
0.0073495
0.00516624
0.0031545
0.00191479
0.000921091
0.000371721
6.97493e-05
0.0379921
0.036455
0.0348612
0.0323837
0.0302209
0.0269167
0.0245002
0.0215962
0.0194329
0.0167785
0.0147869
0.012196
0.0102411
0.00745506
0.00541219
0.00313515
0.00183796
0.000781671
0.000282144
5.71217e-05
0.0200644
0.0209899
0.0215032
0.0217579
0.0218416
0.0211267
0.0199224
0.0180583
0.0167579
0.0149676
0.0137696
0.0119457
0.0106105
0.00879117
0.00721222
0.00516806
0.00296021
0.00116914
0.000292732
3.82281e-05
0.0094667
0.00966471
0.0100715
0.0105374
0.0113286
0.0122427
0.0130322
0.0133432
0.0131634
0.01224
0.0117923
0.0108627
0.0100323
0.00897819
0.00781952
0.00648897
0.00456041
0.00224415
0.000569407
4.83765e-05
0.00684672
0.00666492
0.00660997
0.00658347
0.00675437
0.00699431
0.00742114
0.00801366
0.0087928
0.00916336
0.00934027
0.00940772
0.00914825
0.00870801
0.00794811
0.00707158
0.00567409
0.00353176
0.00107543
0.000129517
0.00610472
0.00576869
0.00563707
0.00543475
0.00538468
0.00537079
0.00545194
0.00562551
0.00598574
0.00643994
0.00712934
0.00772723
0.0080147
0.0080933
0.00792607
0.00731068
0.00639058
0.00465279
0.00191612
0.000437863
0.00578557
0.00538241
0.00525273
0.0049683
0.00485148
0.00476911
0.0047432
0.00475483
0.00485388
0.00509575
0.00547467
0.00624519
0.00702805
0.00738789
0.00749112
0.00738733
0.00679501
0.00545615
0.00300831
0.000937196
0.00568095
0.00502058
0.00494851
0.00474264
0.00458502
0.00447298
0.00440736
0.00437773
0.00436911
0.00445194
0.00466593
0.00506503
0.0058842
0.00677775
0.00715319
0.00722397
0.00698935
0.00607158
0.00385995
0.00151388
0.00618028
0.00473055
0.00453186
0.00446422
0.0043235
0.00421823
0.00415375
0.00412718
0.00411929
0.00412825
0.00424232
0.0044961
0.0049562
0.00585708
0.0067426
0.00703796
0.00704413
0.00651529
0.00464014
0.00215867
0.00780303
0.00465322
0.0042567
0.00414838
0.00411565
0.00402115
0.00393484
0.00389748
0.00388542
0.00388791
0.00393737
0.00410871
0.00449836
0.0050787
0.00613602
0.00684577
0.00700234
0.00678706
0.00525837
0.00281775
0.00947285
0.00465229
0.0039947
0.00386861
0.00383905
0.00385289
0.00379624
0.00375374
0.00373891
0.00373587
0.0037591
0.00382632
0.00407781
0.00463986
0.00541966
0.00652169
0.00691886
0.00692011
0.00582781
0.00345036
0.00397118
0.00375019
0.00374679
0.0037468
0.00374652
0.00374628
0.00374612
0.00374604
0.003746
0.00374598
0.00374598
0.003746
0.00374604
0.00374612
0.00374628
0.00374652
0.0037468
0.00374679
0.00375019
0.00397118
0.00441489
0.00375346
0.00374141
0.00374096
0.00374056
0.00374012
0.00373987
0.00373975
0.00373969
0.00373966
0.00373966
0.00373969
0.00373975
0.00373987
0.00374012
0.00374056
0.00374096
0.00374141
0.00375346
0.00441489
0.00485939
0.00376059
0.00373287
0.00373264
0.00373284
0.00373273
0.00373256
0.00373242
0.00373235
0.00373231
0.00373231
0.00373235
0.00373242
0.00373256
0.00373273
0.00373284
0.00373264
0.00373287
0.00376058
0.00485939
0.00530178
0.00377206
0.0037243
0.00372396
0.00372492
0.00372524
0.00372525
0.00372519
0.00372514
0.00372512
0.00372512
0.00372514
0.00372519
0.00372525
0.00372524
0.00372492
0.00372396
0.0037243
0.00377206
0.00530178
0.00573925
0.00378544
0.00371551
0.00371483
0.00371665
0.00371758
0.00371789
0.00371795
0.00371795
0.00371795
0.00371795
0.00371795
0.00371795
0.00371789
0.00371758
0.00371665
0.00371483
0.0037155
0.00378544
0.00573925
0.00617058
0.00379767
0.00370577
0.0037051
0.003708
0.00370969
0.00371043
0.0037107
0.00371078
0.0037108
0.0037108
0.00371078
0.0037107
0.00371043
0.00370969
0.003708
0.0037051
0.00370577
0.00379767
0.00617058
0.00659184
0.00380847
0.00369498
0.00369474
0.00369894
0.00370155
0.00370284
0.0037034
0.00370361
0.00370368
0.00370368
0.00370361
0.0037034
0.00370284
0.00370155
0.00369894
0.00369474
0.00369498
0.00380847
0.00659185
0.00700084
0.00381671
0.00368272
0.00368362
0.00368941
0.00369311
0.00369508
0.00369602
0.00369642
0.00369656
0.00369656
0.00369642
0.00369602
0.00369508
0.00369311
0.00368941
0.00368362
0.00368272
0.00381671
0.00700084
0.00739336
0.00382333
0.00366915
0.00367174
0.00367942
0.00368437
0.00368714
0.00368854
0.00368919
0.00368943
0.00368943
0.00368919
0.00368854
0.00368714
0.00368437
0.00367942
0.00367174
0.00366915
0.00382333
0.00739336
0.00776768
0.00382735
0.00365405
0.00365903
0.00366893
0.00367532
0.00367898
0.00368095
0.0036819
0.00368228
0.00368228
0.0036819
0.00368095
0.00367898
0.00367532
0.00366893
0.00365903
0.00365405
0.00382735
0.00776768
0.00812023
0.00383021
0.00363765
0.00364552
0.00365794
0.00366592
0.00367061
0.00367321
0.00367453
0.00367507
0.00367507
0.00367453
0.00367321
0.00367061
0.00366592
0.00365794
0.00364552
0.00363764
0.00383021
0.00812023
0.00845034
0.00383068
0.00361989
0.00363122
0.00364645
0.0036562
0.00366201
0.00366531
0.00366705
0.00366779
0.00366779
0.00366705
0.00366531
0.00366201
0.0036562
0.00364645
0.00363122
0.00361989
0.00383069
0.00845034
0.00875525
0.00383018
0.00360091
0.00361613
0.00363446
0.00364613
0.00365316
0.00365725
0.00365946
0.00366041
0.00366041
0.00365946
0.00365725
0.00365316
0.00364613
0.00363446
0.00361613
0.0036009
0.00383019
0.00875524
0.00903545
0.00382885
0.00358084
0.00360032
0.00362199
0.00363573
0.00364408
0.00364901
0.00365173
0.00365292
0.00365292
0.00365173
0.00364901
0.00364408
0.00363573
0.00362199
0.00360032
0.00358085
0.00382887
0.00903544
0.00928895
0.00382648
0.00355981
0.0035838
0.00360904
0.003625
0.00363475
0.00364059
0.00364385
0.00364531
0.00364531
0.00364385
0.00364059
0.00363475
0.00362499
0.00360904
0.00358379
0.00355981
0.00382647
0.00928894
0.00951739
0.00382339
0.00353793
0.00356664
0.00359565
0.00361394
0.00362518
0.00363197
0.00363582
0.00363755
0.00363755
0.00363582
0.00363197
0.00362518
0.00361394
0.00359565
0.00356664
0.00353794
0.0038234
0.00951737
0.00971929
0.00382011
0.00351532
0.00354885
0.00358181
0.00360255
0.00361535
0.00362316
0.00362762
0.00362964
0.00362964
0.00362762
0.00362316
0.00361535
0.00360255
0.00358181
0.00354885
0.00351531
0.00382011
0.00971928
0.00989731
0.00381662
0.00349215
0.00353055
0.00356757
0.00359087
0.00360529
0.00361414
0.00361924
0.00362157
0.00362157
0.00361924
0.00361414
0.00360529
0.00359087
0.00356758
0.00353055
0.00349217
0.00381663
0.0098973
0.0100502
0.00381347
0.0034685
0.0035117
0.00355293
0.00357888
0.00359499
0.00360492
0.00361068
0.00361332
0.00361332
0.00361068
0.00360492
0.00359499
0.00357887
0.00355293
0.0035117
0.00346848
0.00381347
0.0100502
0.0101815
0.00381057
0.00344462
0.00349247
0.00353795
0.0035666
0.00358445
0.0035955
0.00360193
0.0036049
0.0036049
0.00360193
0.0035955
0.00358445
0.0035666
0.00353795
0.00349248
0.00344464
0.00381058
0.0101815
0.0102898
0.00380853
0.00342046
0.00347279
0.0035226
0.00355404
0.00357367
0.00358587
0.003593
0.0035963
0.0035963
0.003593
0.00358586
0.00357367
0.00355404
0.0035226
0.00347279
0.00342045
0.00380853
0.0102897
0.0103794
0.00380713
0.00339643
0.00345287
0.00350698
0.00354123
0.00356267
0.00357603
0.00358387
0.00358751
0.00358751
0.00358387
0.00357603
0.00356267
0.00354123
0.00350698
0.00345288
0.00339646
0.00380714
0.0103794
0.0104486
0.00380736
0.0033723
0.00343259
0.00349103
0.00352816
0.00355145
0.003566
0.00357455
0.00357853
0.00357853
0.00357455
0.003566
0.00355145
0.00352816