/*--------------------------------*- C++ -*----------------------------------*\
| =========                 |                                                 |
| \\      /  F ield         | OpenFOAM: The Open Source CFD Toolbox           |
|  \\    /   O peration     | Version:  2.1.0                                 |
|   \\  /    A nd           | Web:      www.OpenFOAM.org                      |
|    \\/     M anipulation  |                                                 |
\*---------------------------------------------------------------------------*/
FoamFile
{
    version     2.0;
    format      ascii;
    class       volScalarField;
    location    "0.38";
    object      nut;
}
// * * * * * * * * * * * * * * * * * * * * * * * * * * * * * * * * * * * * * //

dimensions      [0 2 -1 0 0 0 0];

internalField   nonuniform List<scalar> 
6400
(
7.09763e-06
7.11611e-06
7.12767e-06
7.14323e-06
7.15674e-06
7.17428e-06
7.18861e-06
7.20716e-06
7.22217e-06
7.24149e-06
7.25728e-06
7.27701e-06
7.29375e-06
7.31375e-06
7.33151e-06
7.35178e-06
7.37057e-06
7.3912e-06
7.41104e-06
7.43217e-06
7.45309e-06
7.47492e-06
7.49699e-06
7.51972e-06
7.54299e-06
7.56676e-06
7.59129e-06
7.61623e-06
7.64206e-06
7.66828e-06
7.69546e-06
7.72307e-06
7.75167e-06
7.78075e-06
7.81085e-06
7.8415e-06
7.87318e-06
7.90545e-06
7.93874e-06
7.97258e-06
8.00728e-06
8.04252e-06
8.07848e-06
8.11487e-06
8.15179e-06
8.18901e-06
8.22656e-06
8.26421e-06
8.30198e-06
8.33968e-06
8.37727e-06
8.41453e-06
8.45116e-06
8.48616e-06
8.51939e-06
8.54955e-06
8.58119e-06
8.61092e-06
8.64203e-06
8.67136e-06
8.70197e-06
8.7318e-06
8.76234e-06
8.79268e-06
8.82302e-06
8.85347e-06
8.8836e-06
8.91382e-06
8.94252e-06
8.97043e-06
8.99698e-06
9.02198e-06
9.04529e-06
9.06685e-06
9.08675e-06
9.10547e-06
9.12355e-06
9.14232e-06
9.16321e-06
9.18865e-06
9.22099e-06
9.26279e-06
9.31407e-06
9.36727e-06
9.4175e-06
9.48246e-06
9.55109e-06
9.61554e-06
9.65301e-06
9.61912e-06
9.42721e-06
8.90919e-06
7.82445e-06
5.97677e-06
3.47359e-06
2.31823e-06
2.40618e-06
3.78099e-06
3.87668e-06
4.18267e-06
7.54704e-05
7.59228e-05
7.60064e-05
7.63001e-05
7.63961e-05
7.66402e-05
7.67567e-05
7.69677e-05
7.71013e-05
7.72891e-05
7.74336e-05
7.76043e-05
7.7754e-05
7.79114e-05
7.80612e-05
7.82071e-05
7.83531e-05
7.84886e-05
7.86277e-05
7.87532e-05
7.88836e-05
7.89997e-05
7.91209e-05
7.92283e-05
7.93409e-05
7.94412e-05
7.95449e-05
7.96374e-05
7.97313e-05
7.9815e-05
7.9898e-05
7.99712e-05
8.00418e-05
8.01027e-05
8.01589e-05
8.02048e-05
8.0244e-05
8.02718e-05
8.02944e-05
8.03069e-05
8.0309e-05
8.02986e-05
8.02749e-05
8.02357e-05
8.01794e-05
8.01035e-05
8.00059e-05
7.98834e-05
7.97336e-05
7.95538e-05
7.93417e-05
7.90963e-05
7.88264e-05
7.85185e-05
7.81731e-05
7.75755e-05
7.68886e-05
7.61522e-05
7.53821e-05
7.45627e-05
7.37021e-05
7.28055e-05
7.18641e-05
7.08895e-05
6.98669e-05
6.88054e-05
6.76948e-05
6.65481e-05
6.53471e-05
6.40884e-05
6.27734e-05
6.13961e-05
5.9954e-05
5.84442e-05
5.68634e-05
5.52114e-05
5.34862e-05
5.16901e-05
4.9824e-05
4.78931e-05
4.59017e-05
4.38591e-05
4.1775e-05
3.96521e-05
3.74679e-05
3.5198e-05
3.28422e-05
3.03839e-05
2.78143e-05
2.51296e-05
2.23459e-05
1.94996e-05
1.6673e-05
1.40115e-05
1.1504e-05
9.23483e-06
7.49244e-06
6.29067e-06
5.67855e-06
6.86551e-06
0.000115231
0.000115476
0.000115572
0.000115672
0.000115754
0.000115816
0.000115888
0.000115921
0.000115981
0.000115991
0.000116035
0.000116023
0.000116046
0.000116012
0.00011601
0.000115952
0.00011592
0.000115834
0.00011577
0.000115654
0.000115552
0.000115403
0.000115264
0.000115081
0.000114904
0.000114695
0.000114485
0.000114247
0.000114004
0.000113735
0.000113457
0.000113153
0.000112838
0.000112498
0.000112144
0.000111766
0.000111371
0.00011095
0.000110502
0.000110029
0.00010953
0.000109001
0.000108442
0.00010785
0.000107224
0.00010656
0.000105855
0.000105105
0.000104304
0.000103447
0.000102529
0.000101222
9.97325e-05
9.82008e-05
9.66302e-05
9.50314e-05
9.33981e-05
9.17336e-05
9.00386e-05
8.83124e-05
8.65647e-05
8.47998e-05
8.29747e-05
8.11374e-05
7.92525e-05
7.73493e-05
7.54063e-05
7.34429e-05
7.14452e-05
6.94252e-05
6.73728e-05
6.52948e-05
6.31836e-05
6.10427e-05
5.88663e-05
5.66564e-05
5.44091e-05
5.21272e-05
4.98091e-05
4.74595e-05
4.50806e-05
4.26807e-05
4.02655e-05
3.78463e-05
3.54392e-05
3.30683e-05
3.07391e-05
2.84708e-05
2.62642e-05
2.4129e-05
2.20384e-05
2.00111e-05
1.80222e-05
1.59837e-05
1.39422e-05
1.19329e-05
1.01354e-05
8.6234e-06
8.12449e-06
1.13134e-05
0.000136908
0.000136602
0.000136485
0.000136199
0.000136083
0.000135772
0.00013563
0.000135302
0.000135125
0.00013478
0.000134562
0.000134198
0.000133938
0.000133552
0.000133248
0.000132837
0.000132488
0.000132047
0.000131651
0.000131175
0.000130729
0.00013021
0.000129702
0.000129124
0.000128243
0.000127228
0.000126196
0.000125131
0.00012405
0.000122937
0.000121807
0.000120646
0.000119466
0.000118254
0.000117022
0.000115759
0.000114473
0.000113156
0.000111816
0.000110444
0.000109046
0.000107618
0.000106163
0.000104678
0.000103165
0.000101622
0.000100051
9.84514e-05
9.68251e-05
9.5162e-05
9.34797e-05
9.17986e-05
9.00713e-05
8.83411e-05
8.65782e-05
8.48086e-05
8.30104e-05
8.1197e-05
7.93543e-05
7.74911e-05
7.55992e-05
7.36911e-05
7.17566e-05
6.98078e-05
6.78352e-05
6.58511e-05
6.3848e-05
6.18382e-05
5.98171e-05
5.77964e-05
5.57739e-05
5.37608e-05
5.17576e-05
4.9774e-05
4.78117e-05
4.58792e-05
4.39778e-05
4.21143e-05
4.02886e-05
3.85041e-05
3.67585e-05
3.5052e-05
3.33747e-05
3.1726e-05
3.01146e-05
2.85071e-05
2.69112e-05
2.53182e-05
2.37215e-05
2.2114e-05
2.04916e-05
1.885e-05
1.71799e-05
1.546e-05
1.36974e-05
1.19757e-05
1.05089e-05
9.77399e-06
1.19114e-05
1.20612e-05
0.000138535
0.000138586
0.000138337
0.000138175
0.000137427
0.000136828
0.000135935
0.00013515
0.000134207
0.00013332
0.000132348
0.000131392
0.000130391
0.00012938
0.000128346
0.000127285
0.000126213
0.000125105
0.00012399
0.000122835
0.000121673
0.000120472
0.000119263
0.000118013
0.000116766
0.000115482
0.000114192
0.000112869
0.000111538
0.000110178
0.00010881
0.000107412
0.000106005
0.000104572
0.000103127
0.000101657
0.00010017
9.86588e-05
9.71446e-05
9.56113e-05
9.4053e-05
9.24832e-05
9.08943e-05
8.92921e-05
8.76749e-05
8.60446e-05
8.44028e-05
8.27499e-05
8.10895e-05
7.94215e-05
7.77505e-05
7.60751e-05
7.43961e-05
7.27132e-05
7.10247e-05
6.9338e-05
6.76513e-05
6.59703e-05
6.4293e-05
6.2625e-05
6.09657e-05
5.93206e-05
5.76888e-05
5.60753e-05
5.44789e-05
5.29041e-05
5.13496e-05
4.98187e-05
4.83096e-05
4.68244e-05
4.53561e-05
4.39121e-05
4.24976e-05
4.10866e-05
3.97049e-05
3.83275e-05
3.69689e-05
3.56104e-05
3.42615e-05
3.2906e-05
3.15504e-05
3.01844e-05
2.8812e-05
2.74311e-05
2.60454e-05
2.46538e-05
2.32696e-05
2.18847e-05
2.05196e-05
1.9172e-05
1.78603e-05
1.65831e-05
1.53626e-05
1.41823e-05
1.30975e-05
1.22685e-05
1.20824e-05
1.37498e-05
1.37871e-05
1.41318e-05
0.000125289
0.00012464
0.000124246
0.00012371
0.000122812
0.000121924
0.000120865
0.000119826
0.000118707
0.000117593
0.000116446
0.000115287
0.000114119
0.000112927
0.00011174
0.000110522
0.000109316
0.000108077
0.000106852
0.000105595
0.000104344
0.000103075
0.000101818
0.000100528
9.92473e-05
9.79363e-05
9.66305e-05
9.53006e-05
9.39756e-05
9.26261e-05
9.1281e-05
8.99129e-05
8.85483e-05
8.71636e-05
8.57817e-05
8.43832e-05
8.29876e-05
8.15799e-05
8.01758e-05
7.87619e-05
7.73531e-05
7.59401e-05
7.45324e-05
7.31246e-05
7.17241e-05
7.03268e-05
6.89388e-05
6.75567e-05
6.61857e-05
6.48227e-05
6.34716e-05
6.21285e-05
6.07986e-05
5.94781e-05
5.81705e-05
5.68745e-05
5.55915e-05
5.43247e-05
5.30727e-05
5.18297e-05
5.06029e-05
4.9385e-05
4.81802e-05
4.69828e-05
4.57957e-05
4.46148e-05
4.34418e-05
4.22738e-05
4.11124e-05
3.99553e-05
3.88041e-05
3.76601e-05
3.65236e-05
3.5394e-05
3.42725e-05
3.31572e-05
3.20535e-05
3.09581e-05
2.98826e-05
2.88178e-05
2.77736e-05
2.67447e-05
2.57393e-05
2.47524e-05
2.37916e-05
2.28513e-05
2.19336e-05
2.10387e-05
2.01812e-05
1.93589e-05
1.85909e-05
1.7882e-05
1.72631e-05
1.67678e-05
1.65269e-05
1.66358e-05
1.60619e-05
1.58183e-05
1.57933e-05
1.32083e-05
0.000109852
0.000108668
0.000108138
0.000107283
0.000106378
0.00010531
0.000104261
0.000103114
0.000102009
0.000100832
9.97061e-05
9.8519e-05
9.73829e-05
9.6193e-05
9.50522e-05
9.38637e-05
9.27215e-05
9.15378e-05
9.03977e-05
8.92227e-05
8.8091e-05
8.69224e-05
8.57911e-05
8.4635e-05
8.35081e-05
8.23601e-05
8.12413e-05
8.01048e-05
7.89952e-05
7.787e-05
7.67695e-05
7.56556e-05
7.45643e-05
7.34621e-05
7.238e-05
7.12896e-05
7.02166e-05
6.91374e-05
6.80731e-05
6.7e-05
6.59455e-05
6.48922e-05
6.38446e-05
6.28016e-05
6.17652e-05
6.07324e-05
5.97063e-05
5.86832e-05
5.76672e-05
5.66545e-05
5.56485e-05
5.46464e-05
5.36525e-05
5.2664e-05
5.16878e-05
5.0713e-05
4.97475e-05
4.87876e-05
4.78382e-05
4.68939e-05
4.59639e-05
4.50429e-05
4.41393e-05
4.32462e-05
4.23708e-05
4.1509e-05
4.06734e-05
3.98528e-05
3.90596e-05
3.82838e-05
3.7537e-05
3.68071e-05
3.61036e-05
3.54174e-05
3.47561e-05
3.4111e-05
3.34874e-05
3.28748e-05
3.22614e-05
3.12908e-05
3.03427e-05
2.93958e-05
2.84718e-05
2.75505e-05
2.66529e-05
2.57599e-05
2.48922e-05
2.40324e-05
2.32027e-05
2.23885e-05
2.16144e-05
2.08703e-05
2.01799e-05
1.95446e-05
1.90028e-05
1.86002e-05
1.83393e-05
1.82371e-05
1.89315e-05
1.49386e-05
9.93837e-05
9.76161e-05
9.70738e-05
9.60006e-05
9.51706e-05
9.40109e-05
9.30762e-05
9.19158e-05
9.09512e-05
8.98213e-05
8.88583e-05
8.77662e-05
8.68151e-05
8.57595e-05
8.48225e-05
8.37988e-05
8.28749e-05
8.18772e-05
8.09633e-05
7.99843e-05
7.90048e-05
7.76979e-05
7.64978e-05
7.52369e-05
7.40395e-05
7.28176e-05
7.16584e-05
7.04724e-05
6.93553e-05
6.82143e-05
6.7146e-05
6.60574e-05
6.50436e-05
6.40122e-05
6.30555e-05
6.20844e-05
6.11881e-05
6.02804e-05
5.94464e-05
5.8604e-05
5.78312e-05
5.70496e-05
5.6334e-05
5.56099e-05
5.4948e-05
5.42782e-05
5.36657e-05
5.30457e-05
5.24776e-05
5.19015e-05
5.13712e-05
5.08349e-05
5.0333e-05
4.9823e-05
4.93449e-05
4.88571e-05
4.83947e-05
4.79195e-05
4.74619e-05
4.69879e-05
4.65264e-05
4.60457e-05
4.55713e-05
4.5069e-05
4.45823e-05
4.40861e-05
4.35701e-05
4.30625e-05
4.25429e-05
4.2027e-05
4.15025e-05
4.09787e-05
4.0449e-05
3.99175e-05
3.93817e-05
3.88422e-05
3.82994e-05
3.7751e-05
3.72006e-05
3.66403e-05
3.60747e-05
3.54907e-05
3.48969e-05
3.42797e-05
3.36468e-05
3.29847e-05
3.23006e-05
3.15827e-05
3.08399e-05
3.00655e-05
2.92742e-05
2.84695e-05
2.76784e-05
2.69202e-05
2.62932e-05
2.58276e-05
2.5449e-05
2.56113e-05
2.61433e-05
2.05183e-05
8.23205e-05
8.02647e-05
7.9432e-05
7.78857e-05
7.70256e-05
7.55883e-05
7.47048e-05
7.336e-05
7.24719e-05
7.11965e-05
7.03367e-05
6.91205e-05
6.82906e-05
6.71368e-05
6.63402e-05
6.52512e-05
6.44918e-05
6.34698e-05
6.27519e-05
6.17989e-05
6.11267e-05
6.02468e-05
5.96302e-05
5.88306e-05
5.82698e-05
5.75516e-05
5.7048e-05
5.64074e-05
5.59616e-05
5.53942e-05
5.50039e-05
5.45058e-05
5.41666e-05
5.3734e-05
5.34426e-05
5.30714e-05
5.28215e-05
5.25054e-05
5.22914e-05
5.20236e-05
5.18395e-05
5.1611e-05
5.14521e-05
5.12551e-05
5.11163e-05
5.09438e-05
5.08155e-05
5.06556e-05
5.05509e-05
5.04248e-05
5.03064e-05
5.01712e-05
5.00661e-05
4.99515e-05
4.9859e-05
4.97557e-05
4.96746e-05
4.95831e-05
4.95165e-05
4.94408e-05
4.93895e-05
4.93306e-05
4.92951e-05
4.92529e-05
4.92333e-05
4.9208e-05
4.9206e-05
4.91998e-05
4.92133e-05
4.92249e-05
4.92544e-05
4.9283e-05
4.93273e-05
4.93716e-05
4.94295e-05
4.94872e-05
4.9556e-05
4.96233e-05
4.96981e-05
4.97694e-05
4.9843e-05
4.99079e-05
4.99677e-05
5.00107e-05
5.0038e-05
5.00369e-05
5.00054e-05
4.99298e-05
4.98069e-05
4.96246e-05
4.93817e-05
4.90731e-05
4.87069e-05
4.82919e-05
4.78578e-05
4.74822e-05
4.73549e-05
4.7464e-05
4.80082e-05
3.97874e-05
7.39948e-05
7.21378e-05
7.13947e-05
7.00002e-05
6.93021e-05
6.79881e-05
6.73306e-05
6.61041e-05
6.54866e-05
6.43505e-05
6.37757e-05
6.27286e-05
6.21993e-05
6.12401e-05
6.07579e-05
5.98848e-05
5.94505e-05
5.86609e-05
5.82747e-05
5.75655e-05
5.72266e-05
5.65941e-05
5.63008e-05
5.57401e-05
5.54892e-05
5.49952e-05
5.47829e-05
5.43505e-05
5.4173e-05
5.38051e-05
5.36437e-05
5.33379e-05
5.31878e-05
5.29512e-05
5.28155e-05
5.2637e-05
5.25061e-05
5.23705e-05
5.22476e-05
5.21496e-05
5.20608e-05
5.19824e-05
5.19224e-05
5.18665e-05
5.18343e-05
5.18009e-05
5.17942e-05
5.17842e-05
5.18026e-05
5.18154e-05
5.18562e-05
5.1893e-05
5.19594e-05
5.20228e-05
5.21147e-05
5.2205e-05
5.23232e-05
5.24408e-05
5.25853e-05
5.27301e-05
5.29012e-05
5.30739e-05
5.32729e-05
5.34752e-05
5.37034e-05
5.39363e-05
5.41948e-05
5.44592e-05
5.4749e-05
5.50464e-05
5.53689e-05
5.57007e-05
5.6058e-05
5.64268e-05
5.68214e-05
5.72301e-05
5.76654e-05
5.81174e-05
5.85974e-05
5.90974e-05
5.96273e-05
6.0181e-05
6.07675e-05
6.13823e-05
6.20339e-05
6.27197e-05
6.3448e-05
6.4219e-05
6.50415e-05
6.59175e-05
6.68566e-05
6.78631e-05
6.89472e-05
7.0115e-05
7.13743e-05
7.27174e-05
7.41293e-05
7.55927e-05
7.6316e-05
6.62097e-05
7.99282e-05
7.78928e-05
7.70826e-05
7.55342e-05
7.47463e-05
7.32873e-05
7.25237e-05
7.11586e-05
7.0424e-05
6.9156e-05
6.84555e-05
6.72863e-05
6.66233e-05
6.5554e-05
6.4937e-05
6.39618e-05
6.3396e-05
6.2511e-05
6.1999e-05
6.12005e-05
6.0743e-05
6.00266e-05
5.96224e-05
5.89835e-05
5.86302e-05
5.80634e-05
5.77576e-05
5.72575e-05
5.6995e-05
5.65555e-05
5.6331e-05
5.59469e-05
5.57546e-05
5.54209e-05
5.52545e-05
5.49656e-05
5.48197e-05
5.45695e-05
5.44306e-05
5.42275e-05
5.41067e-05
5.39439e-05
5.38225e-05
5.36729e-05
5.35791e-05
5.34609e-05
5.33876e-05
5.32936e-05
5.32409e-05
5.31712e-05
5.31395e-05
5.30944e-05
5.30845e-05
5.3065e-05
5.30773e-05
5.30817e-05
5.31196e-05
5.3151e-05
5.32148e-05
5.32735e-05
5.33619e-05
5.34485e-05
5.35639e-05
5.36787e-05
5.38222e-05
5.39663e-05
5.41382e-05
5.43123e-05
5.45129e-05
5.47176e-05
5.49473e-05
5.51828e-05
5.54426e-05
5.57101e-05
5.60008e-05
5.63014e-05
5.66256e-05
5.6962e-05
5.73227e-05
5.76984e-05
5.80998e-05
5.85193e-05
5.89664e-05
5.94356e-05
5.99352e-05
6.04614e-05
6.10219e-05
6.16138e-05
6.22435e-05
6.29101e-05
6.36201e-05
6.4384e-05
6.52114e-05
6.61137e-05
6.71106e-05
6.82224e-05
6.94922e-05
7.08945e-05
7.19373e-05
6.30686e-05
9.89381e-05
9.67023e-05
9.57813e-05
9.40508e-05
9.30642e-05
9.14236e-05
9.03806e-05
8.88185e-05
8.77329e-05
8.62435e-05
8.51299e-05
8.37197e-05
8.2582e-05
8.12146e-05
8.01108e-05
7.879e-05
7.77162e-05
7.6449e-05
7.54113e-05
7.42029e-05
7.32072e-05
7.20618e-05
7.11135e-05
7.00343e-05
6.9138e-05
6.81274e-05
6.72846e-05
6.63451e-05
6.5561e-05
6.46921e-05
6.39679e-05
6.31693e-05
6.25054e-05
6.1776e-05
6.11715e-05
6.05073e-05
5.99582e-05
5.93563e-05
5.88596e-05
5.83157e-05
5.78664e-05
5.73765e-05
5.69648e-05
5.65191e-05
5.61403e-05
5.57322e-05
5.53805e-05
5.50023e-05
5.4671e-05
5.43154e-05
5.39985e-05
5.36592e-05
5.33411e-05
5.30117e-05
5.27275e-05
5.23985e-05
5.21181e-05
5.18051e-05
5.15323e-05
5.1249e-05
5.0979e-05
5.06825e-05
5.04358e-05
5.01577e-05
4.99196e-05
4.96574e-05
4.94269e-05
4.91808e-05
4.89611e-05
4.87264e-05
4.85102e-05
4.82799e-05
4.8063e-05
4.78305e-05
4.76049e-05
4.73619e-05
4.71198e-05
4.68577e-05
4.65907e-05
4.6301e-05
4.6003e-05
4.56815e-05
4.53471e-05
4.49877e-05
4.46121e-05
4.42112e-05
4.37928e-05
4.33515e-05
4.28949e-05
4.24217e-05
4.19416e-05
4.14434e-05
4.09445e-05
4.04748e-05
4.00635e-05
3.97756e-05
3.97037e-05
3.99735e-05
4.06183e-05
3.43367e-05
0.000106361
0.000104809
0.000104145
0.000103012
0.00010209
0.000100857
9.98208e-05
9.85715e-05
9.74941e-05
9.62619e-05
9.51751e-05
9.39724e-05
9.28912e-05
9.17178e-05
9.06492e-05
8.95042e-05
8.84493e-05
8.73316e-05
8.62913e-05
8.51994e-05
8.41743e-05
8.31064e-05
8.20964e-05
8.10505e-05
8.00546e-05
7.90243e-05
7.80462e-05
7.70409e-05
7.6073e-05
7.50847e-05
7.41313e-05
7.31622e-05
7.22241e-05
7.12738e-05
7.03518e-05
6.9422e-05
6.85157e-05
6.75881e-05
6.66815e-05
6.57611e-05
6.48607e-05
6.39529e-05
6.30652e-05
6.21758e-05
6.13075e-05
6.04415e-05
5.96011e-05
5.87657e-05
5.79594e-05
5.71598e-05
5.639e-05
5.56304e-05
5.49009e-05
5.4183e-05
5.34944e-05
5.28193e-05
5.2179e-05
5.15351e-05
5.07835e-05
5.00301e-05
4.92864e-05
4.85381e-05
4.77962e-05
4.70405e-05
4.62878e-05
4.55179e-05
4.47505e-05
4.39606e-05
4.31614e-05
4.23564e-05
4.15659e-05
4.07464e-05
3.99429e-05
3.91184e-05
3.83093e-05
3.74835e-05
3.66724e-05
3.58491e-05
3.50408e-05
3.42252e-05
3.34195e-05
3.26084e-05
3.18098e-05
3.10112e-05
3.02288e-05
2.94524e-05
2.86906e-05
2.79392e-05
2.72087e-05
2.64995e-05
2.58223e-05
2.51843e-05
2.45978e-05
2.40698e-05
2.36903e-05
2.33806e-05
2.33561e-05
2.36309e-05
2.43756e-05
1.89135e-05
0.000120523
0.00011937
0.000118829
0.000117928
0.000116941
0.0001158
0.000114657
0.000113406
0.000112192
0.000110895
0.000109642
0.000108326
0.00010706
0.000105737
0.00010446
0.00010313
0.000101843
0.000100507
9.92098e-05
9.78698e-05
9.65632e-05
9.52197e-05
9.39061e-05
9.25626e-05
9.12434e-05
8.98997e-05
8.85787e-05
8.72376e-05
8.59157e-05
8.45776e-05
8.32579e-05
8.19266e-05
8.06119e-05
7.92892e-05
7.79827e-05
7.66718e-05
7.5378e-05
7.40854e-05
7.28091e-05
7.15354e-05
7.02767e-05
6.90214e-05
6.77777e-05
6.65394e-05
6.5322e-05
6.4097e-05
6.28939e-05
6.16868e-05
6.04978e-05
5.93088e-05
5.8136e-05
5.69652e-05
5.58089e-05
5.46562e-05
5.35173e-05
5.23836e-05
5.12645e-05
5.01546e-05
4.90616e-05
4.79802e-05
4.6916e-05
4.58558e-05
4.48116e-05
4.37773e-05
4.27619e-05
4.17599e-05
4.07774e-05
3.98192e-05
3.8885e-05
3.79751e-05
3.70912e-05
3.62344e-05
3.54052e-05
3.46054e-05
3.38276e-05
3.3078e-05
3.23505e-05
3.16496e-05
3.09695e-05
3.03128e-05
2.96695e-05
2.90472e-05
2.84357e-05
2.78416e-05
2.6836e-05
2.58617e-05
2.49042e-05
2.39977e-05
2.31126e-05
2.22832e-05
2.14819e-05
2.07448e-05
2.00416e-05
1.94186e-05
1.88162e-05
1.84083e-05
1.81784e-05
1.79908e-05
1.87246e-05
1.44604e-05
0.000137105
0.000136465
0.000136046
0.000135454
0.000134466
0.000133471
0.000132297
0.00013113
0.000129886
0.000128636
0.000127358
0.000126058
0.000124754
0.000123418
0.000122088
0.000120721
0.000119365
0.00011797
0.000116587
0.000115167
0.000113759
0.000112316
0.000110871
0.000109413
0.000107962
0.000106482
0.000105009
0.000103516
0.000102029
0.000100527
9.9025e-05
9.75031e-05
9.59796e-05
9.44372e-05
9.28929e-05
9.13318e-05
8.97708e-05
8.82046e-05
8.66397e-05
8.50709e-05
8.35037e-05
8.19321e-05
8.03651e-05
7.87956e-05
7.7233e-05
7.56705e-05
7.41173e-05
7.25678e-05
7.10299e-05
6.94996e-05
6.7983e-05
6.64774e-05
6.49876e-05
6.35112e-05
6.2051e-05
6.06055e-05
5.91771e-05
5.77629e-05
5.63641e-05
5.49863e-05
5.36231e-05
5.22802e-05
5.09565e-05
4.96503e-05
4.83611e-05
4.7086e-05
4.58247e-05
4.45743e-05
4.33345e-05
4.21029e-05
4.08797e-05
3.96629e-05
3.84528e-05
3.72486e-05
3.60565e-05
3.48714e-05
3.36964e-05
3.25281e-05
3.13688e-05
3.0221e-05
2.90835e-05
2.79636e-05
2.68571e-05
2.57733e-05
2.47042e-05
2.3658e-05
2.26293e-05
2.16257e-05
2.06407e-05
1.96823e-05
1.87617e-05
1.78797e-05
1.70566e-05
1.63878e-05
1.59534e-05
1.61228e-05
1.60768e-05
1.58678e-05
1.58842e-05
1.31662e-05
0.000148743
0.000148875
0.000148594
0.000148385
0.000147562
0.000146867
0.000145879
0.000144983
0.000143939
0.00014294
0.000141865
0.000140798
0.000139694
0.000138574
0.000137437
0.000136271
0.000135097
0.000133888
0.000132676
0.000131425
0.000130172
0.000128879
0.000127583
0.000126251
0.00012491
0.000123534
0.00012215
0.000120733
0.000119307
0.000117861
0.000116403
0.000114917
0.000113423
0.000111903
0.000110374
0.00010882
0.000107257
0.000105672
0.000104067
0.000102446
0.000100826
9.91722e-05
9.75095e-05
9.58239e-05
9.41271e-05
9.24099e-05
9.06807e-05
8.89338e-05
8.71752e-05
8.54018e-05
8.36186e-05
8.18243e-05
8.00236e-05
7.82181e-05
7.64091e-05
7.45985e-05
7.27896e-05
7.09767e-05
6.91672e-05
6.73574e-05
6.5556e-05
6.37629e-05
6.19848e-05
6.02205e-05
5.84765e-05
5.6752e-05
5.50517e-05
5.33754e-05
5.17261e-05
5.01042e-05
4.85107e-05
4.69456e-05
4.5408e-05
4.38917e-05
4.24028e-05
4.09481e-05
3.94938e-05
3.80754e-05
3.66552e-05
3.52558e-05
3.38484e-05
3.24476e-05
3.10309e-05
2.96092e-05
2.81641e-05
2.67067e-05
2.52304e-05
2.37393e-05
2.22418e-05
2.07346e-05
1.92343e-05
1.77372e-05
1.62407e-05
1.48103e-05
1.34869e-05
1.2439e-05
1.20865e-05
1.3638e-05
1.38508e-05
1.43379e-05
0.000142097
0.000141772
0.000141642
0.000141314
0.000141172
0.000140819
0.000140646
0.000140278
0.000140067
0.000139687
0.000139438
0.000139042
0.000138751
0.000138336
0.000138002
0.000137563
0.000137185
0.000136718
0.000136295
0.000135797
0.000135327
0.000134792
0.000134273
0.000133696
0.000133123
0.000132496
0.000131862
0.000131174
0.000130362
0.000129195
0.000128017
0.000126802
0.000125577
0.000124322
0.000123058
0.000121767
0.000120461
0.000119124
0.000117767
0.000116382
0.000114976
0.000113536
0.000112075
0.000110582
0.000109064
0.000107514
0.000105937
0.000104329
0.000102693
0.000101026
9.93316e-05
9.76062e-05
9.58432e-05
9.40567e-05
9.22621e-05
9.04216e-05
8.85753e-05
8.66914e-05
8.47961e-05
8.28712e-05
8.09328e-05
7.89684e-05
7.6988e-05
7.49802e-05
7.29489e-05
7.08963e-05
6.88208e-05
6.6729e-05
6.46174e-05
6.24954e-05
6.03602e-05
5.82232e-05
5.60834e-05
5.39534e-05
5.18333e-05
4.97366e-05
4.76634e-05
4.56259e-05
4.36237e-05
4.1666e-05
3.97503e-05
3.78818e-05
3.60547e-05
3.42692e-05
3.25063e-05
3.0771e-05
2.90754e-05
2.7355e-05
2.56506e-05
2.39196e-05
2.21711e-05
2.03677e-05
1.84958e-05
1.6558e-05
1.46304e-05
1.27067e-05
1.10463e-05
1.00827e-05
1.19769e-05
1.21321e-05
0.000117274
0.000117502
0.00011759
0.000117666
0.000117735
0.000117774
0.000117831
0.000117843
0.000117888
0.000117878
0.000117906
0.000117875
0.000117882
0.000117832
0.000117817
0.000117747
0.000117707
0.000117617
0.000117549
0.000117434
0.000117336
0.000117195
0.000117062
0.000116891
0.000116722
0.000116516
0.000116307
0.000116065
0.000115817
0.000115542
0.000115264
0.000114961
0.000114653
0.00011432
0.000113978
0.000113611
0.000113234
0.000112837
0.00011242
0.000111979
0.000111515
0.000111025
0.000110509
0.000109961
0.000109383
0.00010877
0.00010813
0.000107459
0.000106759
0.000106024
0.000105247
0.000104424
0.000103549
0.000102619
0.00010162
0.000100203
9.86057e-05
9.69487e-05
9.52557e-05
9.35129e-05
9.17363e-05
8.99184e-05
8.80771e-05
8.62026e-05
8.43061e-05
8.23863e-05
8.04011e-05
7.83984e-05
7.63433e-05
7.42647e-05
7.21425e-05
6.9995e-05
6.78015e-05
6.55801e-05
6.33111e-05
6.10078e-05
5.86537e-05
5.62587e-05
5.38105e-05
5.13177e-05
4.87737e-05
4.61892e-05
4.35645e-05
4.09143e-05
3.82471e-05
3.5585e-05
3.29436e-05
3.03499e-05
2.78295e-05
2.54005e-05
2.30422e-05
2.07591e-05
1.85462e-05
1.63043e-05
1.41367e-05
1.21347e-05
1.03205e-05
8.92344e-06
8.38089e-06
1.15373e-05
7.50952e-05
7.55368e-05
7.56196e-05
7.58946e-05
7.59861e-05
7.62126e-05
7.63232e-05
7.65183e-05
7.66452e-05
7.68191e-05
7.6957e-05
7.71161e-05
7.72598e-05
7.74082e-05
7.75532e-05
7.76931e-05
7.78359e-05
7.7968e-05
7.81056e-05
7.82299e-05
7.83597e-05
7.84754e-05
7.85956e-05
7.87017e-05
7.88109e-05
7.89069e-05
7.90046e-05
7.90906e-05
7.9178e-05
7.92561e-05
7.93344e-05
7.94034e-05
7.94713e-05
7.95293e-05
7.95845e-05
7.96291e-05
7.96691e-05
7.96977e-05
7.97227e-05
7.97373e-05
7.97459e-05
7.97444e-05
7.97355e-05
7.97165e-05
7.96894e-05
7.96526e-05
7.96077e-05
7.95465e-05
7.94711e-05
7.93755e-05
7.92593e-05
7.91184e-05
7.89507e-05
7.87531e-05
7.85235e-05
7.82641e-05
7.79864e-05
7.76787e-05
7.73458e-05
7.69752e-05
7.65656e-05
7.61008e-05
7.5349e-05
7.44639e-05
7.35125e-05
7.25207e-05
7.14692e-05
7.03771e-05
6.92226e-05
6.80118e-05
6.67379e-05
6.54169e-05
6.4003e-05
6.25229e-05
6.09497e-05
5.92953e-05
5.75406e-05
5.56936e-05
5.37418e-05
5.16926e-05
4.95398e-05
4.72929e-05
4.49515e-05
4.25282e-05
4.00296e-05
3.74732e-05
3.48454e-05
3.21693e-05
2.93752e-05
2.64923e-05
2.35216e-05
2.04866e-05
1.75043e-05
1.4644e-05
1.19532e-05
9.59748e-06
7.77414e-06
6.54379e-06
5.87515e-06
6.77558e-06
6.98029e-06
6.99754e-06
7.00976e-06
7.02391e-06
7.03818e-06
7.05523e-06
7.06973e-06
7.08827e-06
7.10338e-06
7.12271e-06
7.13871e-06
7.1585e-06
7.17553e-06
7.19567e-06
7.21378e-06
7.23424e-06
7.25341e-06
7.27425e-06
7.29442e-06
7.31574e-06
7.33687e-06
7.35877e-06
7.38087e-06
7.40349e-06
7.42662e-06
7.45017e-06
7.47444e-06
7.49913e-06
7.5247e-06
7.5507e-06
7.57766e-06
7.6051e-06
7.63354e-06
7.66253e-06
7.6926e-06
7.7233e-06
7.75517e-06
7.7878e-06
7.82169e-06
7.85645e-06
7.89257e-06
7.92971e-06
7.96826e-06
8.00797e-06
8.04914e-06
8.09151e-06
8.13523e-06
8.17998e-06
8.22607e-06
8.27316e-06
8.32155e-06
8.37105e-06
8.42193e-06
8.4742e-06
8.52821e-06
8.58416e-06
8.64202e-06
8.70107e-06
8.76122e-06
8.82124e-06
8.88068e-06
8.93789e-06
8.99199e-06
9.04842e-06
9.10561e-06
9.1662e-06
9.22862e-06
9.29466e-06
9.36288e-06
9.43485e-06
9.51018e-06
9.58952e-06
9.67004e-06
9.75574e-06
9.84272e-06
9.93449e-06
1.0028e-05
1.01263e-05
1.02271e-05
1.03333e-05
1.04438e-05
1.05617e-05
1.06872e-05
1.08236e-05
1.09719e-05
1.11314e-05
1.12844e-05
1.13937e-05
1.14112e-05
1.12731e-05
1.08084e-05
9.78016e-06
8.05505e-06
5.92754e-06
3.62702e-06
2.63975e-06
2.55824e-06
3.91865e-06
4.01905e-06
4.33126e-06
1.09392e-05
2.07721e-06
2.60043e-06
3.51725e-06
4.54816e-06
5.62304e-06
6.48722e-06
7.33672e-06
8.14994e-06
8.90603e-06
9.61966e-06
1.03376e-05
1.14552e-05
1.3333e-05
1.54678e-05
1.78503e-05
1.75982e-05
1.55441e-05
1.02894e-05
3.99619e-06
5.87882e-06
2.18602e-06
2.47502e-06
3.18423e-06
4.05633e-06
4.86382e-06
5.69295e-06
6.55195e-06
7.4153e-06
8.299e-06
9.27431e-06
1.03712e-05
1.20232e-05
1.40959e-05
1.70493e-05
1.83223e-05
1.74933e-05
1.47096e-05
9.53465e-06
3.96785e-06
4.94557e-06
2.69528e-06
2.90114e-06
3.41671e-06
4.01084e-06
4.71707e-06
5.48139e-06
6.31604e-06
7.22189e-06
8.38923e-06
9.50898e-06
1.10186e-05
1.29356e-05
1.58313e-05
1.8023e-05
1.83036e-05
1.7152e-05
1.40061e-05
8.87359e-06
3.8418e-06
5.05628e-06
3.43949e-06
3.63818e-06
3.87583e-06
4.3687e-06
4.9294e-06
5.67417e-06
6.58248e-06
7.71513e-06
9.48763e-06
1.12154e-05
1.29491e-05
1.57339e-05
1.82145e-05
1.91932e-05
1.88177e-05
1.70289e-05
1.32379e-05
7.98012e-06
3.26229e-06
5.68872e-06
4.47725e-06
4.61703e-06
4.6344e-06
5.1947e-06
5.69367e-06
6.58638e-06
7.84383e-06
9.59985e-06
1.31051e-05
1.47722e-05
1.70836e-05
1.93456e-05
2.04312e-05
2.04336e-05
1.92167e-05
1.6541e-05
1.24947e-05
6.88691e-06
2.38209e-06
6.89561e-06
5.97745e-06
6.04888e-06
6.02798e-06
6.77382e-06
7.77008e-06
9.35285e-06
1.16071e-05
1.61212e-05
1.95151e-05
2.09881e-05
2.23789e-05
2.30694e-05
2.28687e-05
2.16707e-05
1.91054e-05
1.59602e-05
1.15625e-05
5.15677e-06
1.47304e-06
9.04423e-06
8.62858e-06
8.86023e-06
9.46595e-06
1.11846e-05
1.36745e-05
1.70852e-05
2.20354e-05
2.87777e-05
2.94271e-05
2.91076e-05
2.83166e-05
2.69142e-05
2.47787e-05
2.16891e-05
1.85262e-05
1.48255e-05
1.0122e-05
3.83081e-06
7.20564e-07
1.46626e-05
1.6143e-05
1.73715e-05
1.96695e-05
2.32008e-05
2.75261e-05
3.30999e-05
4.00654e-05
3.9938e-05
3.77738e-05
3.42868e-05
3.16711e-05
2.81124e-05
2.49249e-05
2.08577e-05
1.70855e-05
1.29295e-05
8.11522e-06
2.78384e-06
2.75958e-07
3.25424e-05
3.55003e-05
3.67273e-05
3.9189e-05
4.36441e-05
4.79869e-05
5.20488e-05
4.78192e-05
4.42008e-05
4.02713e-05
3.64015e-05
3.26054e-05
2.83937e-05
2.33309e-05
1.85705e-05
1.40737e-05
1.02052e-05
6.52482e-06
2.45686e-06
1.27797e-07
5.28291e-05
5.57135e-05
5.59677e-05
5.74709e-05
6.23216e-05
5.94776e-05
5.51812e-05
5.02271e-05
4.61322e-05
4.11777e-05
3.7092e-05
3.19215e-05
2.70313e-05
1.97704e-05
1.40663e-05
9.70801e-06
7.7412e-06
6.41729e-06
3.16869e-06
2.12306e-07
5.03366e-05
5.30688e-05
5.34372e-05
5.50206e-05
5.98175e-05
5.78066e-05
5.36918e-05
4.8933e-05
4.50726e-05
4.02859e-05
3.66034e-05
3.148e-05
2.76263e-05
2.04908e-05
1.48383e-05
9.83925e-06
7.35035e-06
5.42547e-06
2.4544e-06
1.74682e-07
2.80123e-05
3.09083e-05
3.22691e-05
3.47428e-05
3.91414e-05
4.3683e-05
4.96374e-05
4.56376e-05
4.26532e-05
3.84323e-05
3.5675e-05
3.1329e-05
2.83501e-05
2.39295e-05
1.93624e-05
1.46036e-05
1.00118e-05
5.5164e-06
1.71281e-06
1.17732e-07
1.30988e-05
1.40398e-05
1.5016e-05
1.70613e-05
2.02233e-05
2.42703e-05
2.95313e-05
3.64182e-05
3.9769e-05
3.61557e-05
3.40273e-05
3.06166e-05
2.76777e-05
2.45111e-05
2.12695e-05
1.73769e-05
1.29864e-05
7.81613e-06
2.37762e-06
1.48421e-07
8.63762e-06
8.11529e-06
8.2624e-06
8.65718e-06
1.00751e-05
1.22173e-05
1.52174e-05
1.98364e-05
2.63151e-05
2.74801e-05
2.77758e-05
2.75872e-05
2.66658e-05
2.47329e-05
2.1449e-05
1.86217e-05
1.48302e-05
1.0023e-05
3.49384e-06
3.85848e-07
6.73718e-06
5.80454e-06
5.86888e-06
5.83151e-06
6.51258e-06
7.37238e-06
8.75784e-06
1.07468e-05
1.48342e-05
1.81907e-05
1.99806e-05
2.17297e-05
2.27492e-05
2.27829e-05
2.18391e-05
1.8958e-05
1.58311e-05
1.14939e-05
5.11678e-06
1.18242e-06
5.6207e-06
4.42669e-06
4.56429e-06
4.6068e-06
5.15417e-06
5.64427e-06
6.48836e-06
7.64032e-06
9.24576e-06
1.23691e-05
1.41482e-05
1.65233e-05
1.90563e-05
2.03522e-05
2.046e-05
1.93538e-05
1.64136e-05
1.24369e-05
6.9353e-06
2.22929e-06
5.04273e-06
3.43532e-06
3.63732e-06
3.91557e-06
4.41436e-06
4.99453e-06
5.72916e-06
6.61086e-06
7.6877e-06
9.33842e-06
1.09265e-05
1.26813e-05
1.54284e-05
1.81269e-05
1.92543e-05
1.88982e-05
1.70966e-05
1.31897e-05
8.03245e-06
3.20958e-06
5.04836e-06
2.73373e-06
2.93293e-06
3.46349e-06
4.09247e-06
4.80623e-06
5.58402e-06
6.42191e-06
7.31388e-06
8.42222e-06
9.50416e-06
1.09514e-05
1.28374e-05
1.56625e-05
1.80412e-05
1.8394e-05
1.72089e-05
1.39498e-05
8.94628e-06
3.79983e-06
6.12091e-06
2.24211e-06
2.53667e-06
3.25471e-06
4.13424e-06
4.98443e-06
5.81918e-06
6.6867e-06
7.55704e-06
8.43198e-06
9.37038e-06
1.0429e-05
1.20448e-05
1.40899e-05
1.6996e-05
1.83774e-05
1.75189e-05
1.47203e-05
9.58635e-06
3.95332e-06
1.0972e-05
2.13818e-06
2.6605e-06
3.59642e-06
4.6449e-06
5.72354e-06
6.63675e-06
7.48892e-06
8.3107e-06
9.06849e-06
9.77803e-06
1.0466e-05
1.15052e-05
1.33015e-05
1.54674e-05
1.78814e-05
1.76251e-05
1.55212e-05
1.03489e-05
3.99034e-06
1.23421e-06
0.000116558
0.000294184
0.000330906
0.00033481
0.000335356
0.000335357
0.000335342
0.000335343
0.000335345
0.000335345
0.000335343
0.000335342
0.000335357
0.000335356
0.00033481
0.000330906
0.000294184
0.000116558
1.23421e-06
1.36973e-06
6.81669e-05
0.000219584
0.000309504
0.000330909
0.000334527
0.000335273
0.000335315
0.000335296
0.000335287
0.000335287
0.000335296
0.000335315
0.000335273
0.000334527
0.000330909
0.000309504
0.000219584
6.8167e-05
1.36973e-06
1.51338e-06
5.28963e-05
0.00017646
0.00028058
0.000322148
0.000332504
0.000334604
0.0003351
0.000335168
0.000335172