/*--------------------------------*- C++ -*----------------------------------*\
| =========                 |                                                 |
| \\      /  F ield         | OpenFOAM: The Open Source CFD Toolbox           |
|  \\    /   O peration     | Version:  2.1.0                                 |
|   \\  /    A nd           | Web:      www.OpenFOAM.org                      |
|    \\/     M anipulation  |                                                 |
\*---------------------------------------------------------------------------*/
FoamFile
{
    version     2.0;
    format      ascii;
    class       volScalarField;
    location    "0.38";
    object      omega;
}
// * * * * * * * * * * * * * * * * * * * * * * * * * * * * * * * * * * * * * //

dimensions      [0 0 -1 0 0 0 0];

internalField   nonuniform List<scalar> 
6400
(
1644.76
1645.8
1645.91
1645.84
1645.31
1645.07
1644.36
1644.01
1643.21
1642.8
1641.94
1641.44
1640.56
1639.96
1639.05
1638.34
1637.41
1636.6
1635.63
1634.72
1633.72
1632.74
1631.7
1630.65
1629.57
1628.46
1627.34
1626.17
1625
1623.77
1622.53
1621.24
1619.94
1618.57
1617.19
1615.74
1614.27
1612.73
1611.14
1609.47
1607.74
1605.89
1603.96
1601.9
1599.7
1597.36
1594.84
1592.14
1589.24
1586.11
1582.74
1579.11
1575.18
1570.87
1566.15
1560.91
1555.56
1549.79
1543.87
1537.54
1531.05
1524.2
1517.12
1509.72
1502
1493.96
1485.55
1476.78
1467.5
1457.76
1447.49
1436.65
1425.2
1413.11
1400.34
1386.9
1372.77
1357.97
1342.55
1326.55
1310.01
1292.95
1275.16
1255.93
1234.69
1212.25
1187.55
1159.83
1127.62
1088.68
1039.45
973.937
884.683
765.135
612.1
538.04
566.003
735.273
892.973
942.85
690.449
690.615
691.823
692.751
694.094
695.43
696.82
698.364
699.815
701.485
703.015
704.777
706.401
708.241
709.967
711.882
713.714
715.705
717.644
719.716
721.765
723.927
726.09
728.355
730.647
733.031
735.467
737.995
740.592
743.282
746.056
748.927
751.896
754.972
758.161
761.472
764.915
768.502
772.217
776.071
780.073
784.228
788.546
793.032
797.698
802.548
807.595
812.844
818.308
823.994
829.916
836.086
842.491
849.144
856.05
863.207
870.721
878.542
886.748
895.304
904.291
913.689
923.569
933.934
944.849
956.348
968.331
980.792
993.834
1007.59
1022.06
1037.32
1053.42
1070.42
1088.4
1107.44
1127.63
1149.08
1171.91
1196.27
1222.35
1250.43
1280.01
1310.39
1342.46
1375.16
1408.07
1439.95
1469.56
1495.27
1513.92
1522.48
1524.19
1509.87
1474.56
1395.3
1285.18
1150.85
1005.84
848.243
501.572
504.675
506.155
509.175
511.174
514.233
516.554
519.654
522.225
525.389
528.179
531.432
534.428
537.794
540.994
544.494
547.899
551.555
555.166
558.987
562.805
566.806
570.836
575.033
579.288
583.691
588.174
592.802
597.529
602.401
607.388
612.524
617.79
623.21
628.773
634.496
640.373
646.413
652.662
659.082
665.71
672.543
679.599
686.884
694.41
702.187
710.228
718.542
727.138
736.026
745.211
754.695
764.499
774.625
785.092
795.911
807.12
818.717
830.736
843.174
856.065
869.409
883.229
897.526
912.313
927.587
943.404
959.779
976.606
993.792
1011.33
1029.14
1047.19
1065.43
1083.8
1102.27
1120.81
1139.4
1158.05
1176.76
1195.57
1214.5
1233.56
1252.79
1272.17
1291.49
1310.59
1328.94
1345.88
1360.24
1368.14
1370.99
1364.6
1338.48
1290.02
1210.3
1101.98
960.771
797.249
628.05
452.504
457.419
459.595
463.943
466.703
471.028
474.204
478.534
482.049
486.429
490.243
494.715
498.806
503.408
507.764
512.527
517.146
522.096
526.981
532.148
537.307
542.71
548.149
553.805
559.525
565.445
571.452
577.646
583.948
590.433
597.043
603.833
610.764
617.877
625.143
632.594
640.212
648.019
655.987
664.165
672.515
681.056
689.77
698.669
707.737
716.979
726.382
735.944
745.652
755.501
765.48
775.578
785.789
796.101
806.504
816.993
827.558
838.192
848.88
859.615
870.381
881.168
891.957
902.737
913.479
924.164
934.816
945.406
955.916
966.323
976.599
986.729
996.658
1006.33
1015.73
1024.73
1033.33
1041.37
1048.78
1055.4
1061.11
1065.7
1068.7
1070.06
1070.37
1067.86
1063.03
1055.01
1043.62
1028.03
1007.67
981.54
948.41
906.492
853.775
788.43
711.99
629.068
552.911
496.645
441.276
447.257
449.854
455.053
458.316
463.47
467.204
472.338
476.445
481.6
486.025
491.242
495.948
501.26
506.221
511.652
516.852
522.42
527.846
533.569
539.214
545.1
550.952
557.005
563.055
569.277
575.519
581.908
588.327
594.869
601.449
608.132
614.855
621.664
628.51
635.426
642.373
649.372
656.393
663.448
670.515
677.605
684.694
691.789
698.867
705.93
712.961
719.957
726.902
733.794
740.617
747.368
754.034
760.608
767.068
773.437
779.685
785.799
791.732
797.472
802.982
808.232
813.188
817.816
822.075
825.93
829.337
832.254
834.632
836.429
837.42
837.828
837.858
836.596
834.87
831.951
828.323
823.504
817.788
810.85
802.863
793.614
783.206
771.594
758.816
744.798
729.737
713.48
696.178
677.634
657.835
636.402
613.203
587.503
558.655
527.486
495.131
465.315
444.241
432.59
431.334
437.183
439.692
444.733
447.829
452.793
456.278
461.157
464.927
469.741
473.73
478.503
482.666
487.419
491.719
496.464
500.874
505.618
510.113
514.858
519.415
524.161
528.759
533.497
538.118
542.837
547.477
552.224
556.91
561.663
566.358
571.085
575.752
580.422
585.021
589.596
594.087
598.527
602.864
607.122
611.262
615.29
619.168
622.913
626.476
629.876
633.063
636.053
638.8
641.313
643.551
645.516
647.168
648.509
649.499
650.2
650.537
650.648
650.396
649.658
648.58
647.02
645.063
642.625
639.755
636.41
632.618
628.363
623.663
618.519
612.948
607.008
600.699
594.038
587.093
579.829
572.349
564.601
556.753
548.73
540.638
532.473
524.33
516.194
508.142
500.122
492.08
484.001
475.974
467.85
459.659
451.227
442.534
433.387
423.935
414.623
406.893
403.197
402.168
402.151
400.926
405.611
407.597
411.588
413.952
417.858
420.448
424.234
426.966
430.627
433.448
436.99
439.86
443.287
446.173
449.488
452.361
455.561
458.395
461.474
464.246
467.192
469.859
472.634
475.172
477.753
480.145
482.559
484.785
486.977
488.973
490.888
492.593
494.181
495.541
496.756
497.726
498.525
499.063
499.335
499.434
499.353
498.887
498.281
497.323
496.188
494.726
493.066
491.1
488.931
486.479
483.831
480.928
477.846
474.574
471.118
467.469
463.685
459.747
455.717
451.593
447.421
443.209
438.989
434.762
430.572
426.487
422.493
418.658
414.966
411.48
408.157
405.044
402.123
399.433
396.948
394.691
392.615
390.797
389.14
387.743
386.5
385.482
384.592
383.878
383.247
382.727
382.238
381.785
381.309
380.839
380.366
380.075
379.967
380.492
381.785
384.328
388.922
392.624
393.685
353.403
356.669
358.012
360.657
362.088
364.59
366.026
368.329
369.718
371.798
373.096
374.947
376.119
377.732
378.748
380.111
380.944
382.047
382.671
383.489
383.894
384.364
384.572
384.668
384.677
384.464
384.107
383.531
382.752
381.794
380.607
379.266
377.686
375.979
374.043
372.002
369.746
367.406
364.875
362.283
359.54
356.751
353.842
350.929
347.928
344.958
341.941
338.987
336.025
333.159
330.318
327.584
324.965
322.498
320.154
317.99
315.988
314.197
312.599
311.238
310.098
309.217
308.59
308.283
308.169
308.242
308.711
309.297
310.237
311.321
312.721
314.275
316.112
318.108
320.355
322.758
325.384
328.156
331.107
334.21
337.478
340.867
344.382
347.98
351.661
355.382
359.136
362.885
366.625
370.333
374.021
377.703
381.434
385.274
389.443
394.235
399.834
406.82
412.369
414.631
292.496
293.413
293.744
294.29
294.534
294.843
294.962
295.019
294.954
294.81
294.454
294.121
293.497
292.947
292.069
291.29
290.169
289.158
287.809
286.569
285.009
283.56
281.841
280.216
278.371
276.597
274.653
272.776
270.776
268.851
266.844
264.928
262.968
261.11
259.243
257.488
255.765
254.165
252.633
251.234
249.937
248.784
247.76
246.893
246.178
245.632
245.278
245.113
245.066
245.255
245.658
246.278
247.05
248.037
249.183
250.541
252.063
253.795
255.693
257.799
260.075
262.555
265.209
268.068
271.104
274.347
277.761
281.373
285.168
289.158
293.341
297.725
302.312
307.105
312.112
317.335
322.781
328.455
334.364
340.506
346.892
353.52
360.395
367.515
374.878
382.475
390.297
398.327
406.545
414.928
423.454
432.107
440.884
449.806
458.941
468.497
479.246
490.846
502.516
508.275
236.927
235.628
235.058
233.875
233.135
231.894
231.014
229.717
228.728
227.385
226.314
224.948
223.82
222.454
221.301
219.959
218.81
217.519
216.406
215.191
214.147
213.035
212.088
211.103
210.281
209.446
208.774
208.11
207.61
207.136
206.827
206.585
206.477
206.441
206.52
206.744
207.063
207.521
208.085
208.785
209.601
210.553
211.616
212.815
214.127
215.576
217.137
218.835
220.647
222.599
224.666
226.876
229.188
231.643
234.203
236.904
239.714
242.668
245.734
248.947
252.278
255.761
259.368
263.131
267.028
271.088
275.292
279.67
284.204
288.922
293.813
298.903
304.183
309.68
315.387
321.331
327.512
333.953
340.661
347.66
354.961
362.59
370.562
378.909
387.65
396.822
406.454
416.591
427.273
438.558
450.505
463.19
476.7
491.143
506.632
523.253
540.992
559.484
574.178
580.735
263.898
263.375
263.059
262.44
261.901
261.148
260.399
259.493
258.551
257.486
256.368
255.144
253.878
252.512
251.114
249.644
248.142
246.6
245.029
243.45
241.847
240.265
238.671
237.123
235.577
234.101
232.644
231.276
229.945
228.721
227.554
226.507
225.537
224.698
223.955
223.354
222.868
222.535
222.37
222.31
222.377
222.69
223.059
223.656
224.33
225.215
226.193
227.371
228.653
230.122
231.705
233.468
235.349
237.403
239.586
241.939
244.405
247.043
249.793
252.717
255.756
258.968
262.303
265.811
269.45
273.265
277.22
281.356
285.644
290.119
294.76
299.598
304.618
309.847
315.281
320.94
326.823
332.952
339.329
345.978
352.902
360.128
367.664
375.538
383.763
392.369
401.375
410.814
420.709
431.1
442.021
453.541
465.732
478.681
492.52
507.391
523.388
540.168
553.932
560.163
322.982
324.72
325.395
326.623
327.224
328.247
328.74
329.52
329.887
330.406
330.64
330.812
330.848
330.781
330.447
330.115
329.468
328.854
327.908
327.007
325.777
324.594
323.096
321.646
319.9
318.203
316.247
314.328
312.18
310.081
307.784
305.546
303.144
300.815
298.356
295.983
293.516
291.15
288.736
286.438
284.134
281.957
279.846
277.888
276.03
274.343
272.788
271.425
270.22
269.225
268.413
267.823
267.49
267.351
267.334
267.689
268.131
268.889
269.768
270.942
272.256
273.842
275.583
277.577
279.735
282.133
284.704
287.482
290.432
293.575
296.887
300.387
304.048
307.896
311.905
316.096
320.446
324.972
329.653
334.504
339.488
344.619
349.871
355.251
360.737
366.333
372.015
377.789
383.636
389.564
395.566
401.639
407.802
414.239
421.06
428.69
437.437
447.73
458.633
464.362
372.601
376.094
377.546
380.389
381.982
384.689
386.329
388.858
390.495
392.83
394.428
396.579
398.134
400.084
401.538
403.278
404.584
406.09
407.207
408.458
409.352
410.324
410.963
411.635
411.99
412.263
412.361
412.373
412.093
411.739
411.113
410.397
409.418
408.341
407.012
405.583
403.904
402.046
399.94
397.677
395.18
392.551
389.713
386.774
383.659
380.465
377.163
373.801
370.386
366.948
363.507
360.084
356.703
353.374
350.119
346.972
343.972
341.133
338.445
335.96
333.66
331.589
329.732
328.129
326.758
325.65
324.769
324.14
323.789
323.64
323.618
323.95
324.391
325.107
325.92
326.958
328.078
329.373
330.728
332.209
333.785
335.483
337.258
339.136
341.079
343.126
345.232
347.437
349.713
352.11
354.62
357.325
360.234
363.411
366.861
370.943
376.071
382.685
387.546
389.336
408.742
413.577
415.632
419.72
422.176
426.153
428.85
432.691
435.536
439.242
442.171
445.776
448.809
452.34
455.431
458.889
462.001
465.382
468.482
471.773
474.831
478.019
481.005
484.071
486.954
489.876
492.631
495.381
497.968
500.519
502.901
505.216
507.352
509.391
511.238
512.959
514.489
515.945
517.173
518.267
519.104
519.747
520.065
520.189
520.154
519.651
519.011
517.956
516.7
515.066
513.194
510.972
508.498
505.705
502.66
499.331
495.769
491.965
487.997
483.833
479.529
475.046
470.443
465.727
460.941
456.096
451.216
446.405
441.632
436.98
432.438
428.078
423.878
419.909
416.063
412.46
409.006
405.793
402.733
399.89
397.134
394.579
392.089
389.749
387.44
385.252
383.06
380.942
378.798
376.708
374.606
372.601
370.666
369.209
368.131
367.734
368.525
372.296
375.414
376.307
424.007
429.834
432.337
437.329
440.428
445.336
448.836
453.667
457.466
462.251
466.288
471.06
475.294
480.075
484.471
489.275
493.806
498.641
503.282
508.151
512.883
517.784
522.587
527.515
532.37
537.316
542.205
547.157
552.064
557.013
561.923
566.854
571.742
576.628
581.461
586.267
591.016
595.777
600.465
605.129
609.699
614.208
618.603
622.905
627.063
631.082
634.94
638.613
642.096
645.354
648.386
651.154
653.657
655.858
657.751
659.304
660.506
661.275
661.632
661.73
661.312
660.562
659.404
657.838
655.824
653.36
650.427
647.025
643.15
638.807
633.999
628.735
623.024
616.884
610.426
603.591
596.44
589.009
581.269
573.308
565.066
556.674
548.033
539.266
530.269
521.086
511.651
501.983
491.912
481.375
470.443
458.942
446.896
434.242
421.654
408.887
398.114
391.489
388.645
387.37
424.944
430.619
433.089
437.995
441.1
445.957
449.513
454.352
458.27
463.142
467.369
472.31
476.807
481.852
486.605
491.781
496.774
502.101
507.324
512.816
518.261
523.929
529.59
535.437
541.306
547.336
553.405
559.613
565.873
572.254
578.697
585.245
591.855
598.56
605.327
612.179
619.094
626.084
633.125
640.232
647.38
654.58
661.812
669.08
676.368
683.676
690.988
698.296
705.584
712.84
720.072
727.256
734.39
741.457
748.451
755.356
762.171
768.871
775.453
781.884
788.141
794.246
800.146
805.821
811.227
816.334
821.097
825.481
829.437
832.928
835.905
838.325
840.135
841.085
841.459
841.437
839.989
838.101
834.87
830.875
825.504
819.082
811.169
801.932
791.034
778.568
764.37
748.268
730.3
710.205
687.902
662.965
635.101
603.804
569.917
532.879
495.706
460.59
435.398
418.707
433.175
437.713
439.734
443.758
446.328
450.324
453.278
457.271
460.532
464.559
468.082
472.186
475.954
480.172
484.177
488.536
492.775
497.301
501.776
506.493
511.21
516.14
521.11
526.273
531.508
536.925
542.438
548.124
553.923
559.889
565.982
572.243
578.644
585.219
591.951
598.866
605.956
613.241
620.7
628.354
636.194
644.233
652.462
660.887
669.5
678.313
687.358
696.627
706.144
715.896
725.827
735.965
746.275
756.766
767.414
778.212
789.148
800.201
811.362
822.613
833.949
845.356
856.827
868.356
879.931
891.541
903.164
914.784
926.364
937.871
949.345
960.749
972.076
983.286
994.365
1005.25
1015.86
1026.18
1036.05
1045.44
1054.14
1062.03
1068.84
1074.36
1077.72
1079.13
1079.28
1074.75
1067.39
1054.6
1036.62
1011.29
977.618
933.104
877.455
807.511
725.311
634.544
553.243
488.452
480.626
483.38
484.712
487.443
489.263
492.032
494.143
496.949
499.284
502.146
504.679
507.624
510.347
513.39
516.287
519.445
522.518
525.807
529.06
532.496
535.934
539.533
543.163
546.939
550.771
554.739
558.78
562.954
567.219
571.615
576.11
580.741
585.485
590.368
595.377
600.527
605.809
611.233
616.844
622.627
628.61
634.793
641.198
647.836
654.73
661.886
669.278
676.935
684.844
693.029
701.537
710.364
719.536
729.058
738.945
749.2
759.848
770.896
782.361
794.261
806.618
819.452
832.789
846.667
861.096
876.101
891.69
907.884
924.687
942.119
960.247
978.728
997.732
1017.11
1036.86
1056.88
1077.12
1097.54
1118.09
1138.74
1159.46
1180.25
1201.07
1221.92
1242.9
1263.9
1284.74
1304.87
1323.77
1340.11
1349.9
1353.6
1348.67
1321.18
1271.3
1196.1
1093.14
963.588
802.515
630.337
663.952
663.904
664.938
665.699
666.877
668.029
669.247
670.595
671.864
673.33
674.67
676.219
677.644
679.265
680.783
682.472
684.088
685.848
687.563
689.399
691.216
693.133
695.052
697.057
699.081
701.182
703.318
705.527
707.788
710.126
712.529
715.021
717.594
720.264
723.03
725.905
728.898
732.019
735.253
738.617
742.114
745.753
749.542
753.487
757.598
761.877
766.332
770.973
775.81
780.856
786.126
791.627
797.376
803.383
809.668
816.251
823.125
830.313
837.833
845.697
853.921
862.512
871.482
880.951
890.901
901.392
912.429
924.068
936.33
949.267
962.673
976.955
991.965
1007.9
1024.73
1042.58
1061.5
1081.6
1102.95
1125.66
1149.83
1175.57
1203
1232.28
1263.52
1295.3
1327.88
1359.54
1388.77
1413.23
1427.22
1432.37
1430.17
1413.96
1382.08
1321.33
1233.36
1122.27
997.86
848.987
1599.16
1599.92
1599.93
1599.55
1598.97
1598.54
1597.73
1597.27
1596.38
1595.87
1594.94
1594.36
1593.42
1592.76
1591.81
1591.05
1590.09
1589.24
1588.24
1587.3
1586.26
1585.22
1584.13
1583.02
1581.87
1580.68
1579.48
1578.23
1576.99
1575.69
1574.4
1573.06
1571.71
1570.32
1568.92
1567.47
1566.02
1564.52
1563.01
1561.45
1559.88
1558.26
1556.62
1554.93
1553.21
1551.42
1549.56
1547.61
1545.57
1543.39
1541.1
1538.66
1536.09
1533.35
1530.48
1527.46
1524.29
1520.89
1517.23
1513.19
1508.71
1503.63
1497.88
1491.86
1485.43
1478.77
1471.72
1464.37
1456.58
1448.4
1439.76
1430.64
1420.77
1410.36
1399.07
1387.04
1373.98
1359.98
1344.82
1328.52
1310.92
1292.04
1271.74
1250.02
1226.73
1201.61
1173.63
1141.02
1101.99
1054.8
994.409
914.813
814.254
703.943
584.604
535.356
556.093
721.885
886.8
939.95
865.882
324.74
176.608
119.706
95.2677
82.3311
76.1267
73.1587
72.1867
74.0323
80.95
97.4418
118.867
156.195
207.078
271.525
348.954
443.995
560.308
610.275
693.167
329.186
219.152
154.342
121.764
104.135
92.9358
87.465
85.5388
87.5312
99.6444
115.575
144.543
184.719
237.912
299.909
372.33
459.514
544.775
568.576
544.608
318.749
242.283
180.165
147.63
125.463
111.882
105.979
104.31
108.665
120.206
144.108
174.699
218.728
269.494
326.134
390.229
462.594
514.449
522.698
444.656
305.188
256.305
198.174
171.207
146.162
134.089
128.449
126.897
131.249
154.132
177.69
213.925
256.396
302.031
352.206
406.51
455.311
474.282
474.545
388.222
300.44
266.309
214.689
192.004
168.737
159.19
155.458
155.212
175.049
195.445
222.827
257.339
292.784
330.766
370.724
410
432.651
426.515
428.126
360.108
300.386
273.85
232.041
214.544
201.054
197.448
197.43
211.674
227.858
247.868
272.617
299.406
326.748
355.829
383.478
398.88
396.865
368.087
383.708
352.342
312.867
296.074
273.018
265.944
263.417
263.053
269.883
279.118
291.15
305.969
322.323
339.211
355.526
369.795
376.603
374.925
343.788
300.859
349.85
386.931
375.273
371.451
361.665
356.906
351.378
349.173
348.64
350.797
355.102
359.398
364.165
366.782
367.782
366.306
357.944
331.219
277.773
232.737
331.131
499.118
483.879
476.485
457.569
448.671
434.318
427.273
417.588
412.387
404.324
397.843
388.667
378.126
365.44
349.145
316.686
268.285
203.717
161.422
325.109
563.259
541.857
532.195
509.124
498.074
479.419
469.133
452.29
440.72
423.799
409.629
390.396
370.309
341.626
302.078
251.709
197.895
143.533
117.311
328.532
544.388
524.233
515.176
493.419
483.031
465.633
456.311
441.343
431.147
416.486
403.976
387.422
369.675
345.098
309.373
259.59
203.523
143.934
114.954
327.004
457.624
446.432
440.827
424.869
417.575
406.621
401.359
395.688
392.888
389.455
385.975
381.298
374.265
364.775
353.401
326.938
279.303
211.939
170.908
324.704
358.891
343.771
338.777
330.83
327.433
324.328
323.488
326.128
330.998
338.534
346.553
354.797
362.47
366.291
367.64
363.249
339.704
287.118
239.486
325.941
336.646
296.766
279.232
254.03
245.632
242.665
242.473
250.847
261.562
275.557
292.892
311.713
331.947
352.081
370.559
379.75
380.947
352.367
307.807
335.669
346.753
288.152
262.259
221.017
203.603
189.097
184.752
184.268
198.057
215.324
236.793
263.11
291.927
321.652
353.764
385.624
403.672
404.804
374.477
370.312
374.473
289.286
256.007
206.244
184.295
161.462
151.806
147.726
147.127
165.159
186.535
214.593
250.425
287.638
327.701
370.136
413.986
438.707
433.767
420.401
429.541
293.971
246.191
189.988
163.816
140.048
128.539
123.19
121.735
125.943
147.093
171.289
207.622
251.195
298.628
350.839
407.667
460.328
480.544
471.676
531.55
308.199
233.67
173.698
141.91
120.366
107.409
101.727
100.148
104.681
116.006
138.994
169.919
213.826
265.75
324.058
390.648
467.051
518.667
523.088
686.63
318.082
211.24
148.243
116.979
99.8478
89.5099
84.4167
82.6311
84.6761
96.1458
112.06
140.562
180.753
234.217
297.324
371.234
461.067
548.526
570.875
863.368
313.484
170.681
115.73
92.071
79.5853
73.1915
70.4869
69.7048
72.0692
78.7615
94.3695
115.996
152.724
203.745
268.875
347.688
444.743
563.133
613.25
646.054
32.1745
12.7362
11.3229
11.19
11.171
11.1705
11.1708
11.1706
11.1705
11.1705
11.1706
11.1708
11.1705
11.171
11.19
11.3229
12.7362
32.1744
646.054
672.74
55.0629
17.0386
12.087
11.3039
11.1803
11.1547
11.1529
11.1534
11.1536
11.1536
11.1534
11.1529
11.1547
11.1803
11.3039
12.087
17.0386
55.0628
672.74
698.453
71.0936
21.1542
13.3033
11.5874
11.2261
11.1552
11.1382
11.1358
11.1355
11.1355
11.1358
11.1382
11.1552
11.2261
11.5874
13.3033
21.1542
71.0935
698.453
723.136
85.8503
25.1369
14.6461
12.0431
11.3371
11.1684
11.1265
11.1183
11.1171
11.1171
11.1183
11.1265
11.1684
11.3371
12.0431
14.6461
25.1369
85.8502
723.136
746.743
101.867
29.2065
16.0659
12.5885
11.5234
11.2064
11.1273
11.105
11.1003
11.1003
11.105
11.1273
11.2064
11.5234
12.5885
16.0658
29.2065
101.867
746.743
769.31
118.433
33.3669
17.5405
13.1971
11.7624
11.283
11.1366
11.0944
11.0843
11.0843
11.0944
11.1366
11.283
11.7624
13.1971
17.5406
33.3669
118.433
769.31
790.728
134.967
37.5676
19.0511
13.8502
12.0431
11.3872
11.16
11.0918
11.0718
11.0718
11.0918
11.16
11.3872
12.0431
13.8502
19.0511
37.5676
134.968
790.728
810.982
151.251
41.78
20.5851
14.5352
12.3571
11.5178
11.2031
11.0955
11.0625
11.0625
11.0955
11.2031
11.5178
12.3571
14.5352
20.5852
41.7801
151.251
810.982
829.955
167.079
45.9692
22.1303
15.2422
12.6969
11.6708
11.2604
11.1065
11.0594
11.0594
11.1065
11.2604
11.6708
12.6969
15.2422
22.1303
45.9693
167.079
829.955
847.653
182.401
50.1208
23.6797
15.9647
13.0568
11.8431
11.3324
11.129
11.0619
11.0619
11.129
11.3324
11.8431
13.0568
15.9648
23.6797
50.121
182.402
847.653
863.99
197.096
54.2105
25.2248
16.6968
13.4321
12.0315
11.4179
11.1609
11.0697
11.0698
11.1609
11.4179
12.0315
13.4321
16.6968
25.2248
54.2107
197.097
863.99
879.013
211.155
58.232
26.7618
17.4347
13.8192
12.2335
11.5156
11.2021
11.0862
11.0862
11.2021
11.5156
12.2335
13.8193
17.4347
26.7619
58.2322
211.155
879.012
892.663
224.491
62.1652
28.2844
18.1745
14.2149
12.4467
11.6242
11.2528
11.1113
11.1113
11.2528
11.6242
12.4467
14.2149
18.1745
28.2845
62.1654
224.492
892.663
905.026
237.119
66.0089
29.7907
18.9141
14.6169
12.6691
11.7427
11.3126
11.1446
11.1446
11.3126
11.7427
12.6691
14.6169
18.9141
29.7908
66.0091
237.119
905.026
916.067
248.97
69.7458
31.2754
19.6506
15.023
12.899
11.8698
11.381
11.1861
11.1861
11.381
11.8698
12.899
15.0231
19.6507
31.2755
69.746
248.971
916.067
925.904
260.09
73.378
32.7378
20.383
15.4319
13.1352
12.0048
11.4576
11.2357
11.2357
11.4576
12.0048
13.1352
15.4319
20.383
32.7379
73.3781
260.089
925.904
934.512
270.424
76.8907
34.1734
21.1088
15.8418
13.3762
12.1466
11.5418
11.293
11.293
11.5418
12.1466
13.3762
15.8418
21.1088
34.1734
76.8909
270.424
934.512
942.037
280.036
80.289
35.5825
21.8276
16.2519
13.6211
12.2944
11.6331
11.3579
11.3579
11.6331
12.2944
13.6211
16.2519
21.8277
35.5826
80.2891
280.035
942.036
948.451
288.886
83.5604
36.9607
22.5374
16.6609
13.8691
12.4475
11.7309
11.4299
11.4299
11.7309
12.4475
13.8691
16.6609
22.5374
36.9607
83.5605
288.887
948.451
953.925
297.052
86.7122
38.3096
23.2383
17.0685
14.1193
12.6053
11.8348
11.5085
11.5085
11.8348
12.6053
14.1194
17.0685
23.2383
38.3098
86.7123
297.05
953.924
958.416
304.505
89.7342
39.625
23.9283
17.4735
14.3712
12.7671
11.9442
11.5934
11.5934
11.9442
12.7671
14.3712
17.4735
23.9283
39.6249
89.7342
304.506
958.416
962.12
311.327
92.6353
40.9091
24.608
17.8757
14.6241
12.9325
12.0587
11.684
11.684
12.0587
12.9325
14.6242
17.8757
24.6081
40.9094
92.6356
311.325
962.119
964.967
317.505
95.4078
42.158
25.2755
18.2742
14.8776
13.1009
12.1777
11.78
11.78
12.1777
13.1009
14.8776
18.2741
25.2754
42.1578
95.4076
317.506
964.966
967.18
323.104
98.0615
43.3749
25.9318
18.669
15.1313
13.2719
12.3009
11.8809
11.8809
12.3009
13.2719
15.1313
18.6691
25.9319
43.3753
98.062
323.101
967.179
968.649
328.146
100.59
44.5555
26.5749
19.0593
15.3846
13.445
12.4277
11.9862
11.9862
12.4277
13.445
15.3846
19.0592
26.5748
44.5552
100.59
328.149
968.648
969.635
332.655
103.005
45.7042
27.2063
19.4452
15.6374
13.62
12.5579
12.0955
12.0955
12.5579
13.62
15.6374
19.4453
27.2065
45.7047
103.005
332.652
969.634
969.97
336.704
105.3
46.8161
27.8239
19.826
15.8892
13.7964
12.691
12.2085
12.2085
12.691
13.7964
15.8892
19.826
27.8238
46.8158
105.299
336.705
969.969
969.834
340.243
107.488
47.8973
28.4296
20.2021
16.14
13.9741
12.8267
12.3248
12.3248
12.8267
13.9741
16.14
20.2022
28.4298
47.8977
107.488
340.24
969.833
969.425
343.402
109.561
48.9416
29.0211
20.5725
16.3892
14.1525
12.9646
12.4441
12.4441
12.9646
14.1525
16.3892
20.5724
29.021
48.9413
109.56
343.402
969.424
968.579
346.141
111.538
49.9567
29.6007
20.9379
16.637
14.3316
13.1045
12.5659
12.5659
13.1045
14.3316
16.637
20.9379
29.6009
49.9571
111.539
346.14
968.578
967.379
348.533
113.406
50.9355
30.1659
21.2973
16.8828
14.511
13.2461
12.69
12.69
13.2461
14.511
16.8827
21.2972
30.1657
50.9351
113.405
348.532
967.378
965.891
350.553
115.187
51.887
30.7195
21.6515
17.1267
14.6907
13.389
12.8161
12.8161
13.389
14.6907
17.1268
21.6516
30.7197
51.8874
115.188
350.552
965.89
964.155
352.265
116.864
52.803
31.2588
21.9995
17.3684
14.8702
13.5331
12.944
12.944
13.5331
14.8702
17.3684
21.9994
31.2585
52.8026
116.864
352.263
964.154
962.205
353.659
118.465
53.6942
31.7868
22.3422
17.608
15.0495
13.6782
13.0733
13.0733
13.6782
15.0495
17.6081
22.3424
31.787
53.6946
118.465
353.658
962.204
960.074
354.766
119.965
54.5509
32.3006
22.6787
17.8451
15.2284
13.8239
13.2039
13.2039
13.8239
15.2283
17.845
22.6785
32.3003
54.5503
119.964
354.764
960.073
957.789
355.615
121.398
55.3851
32.8038
23.0099
18.0798
15.4067
13.9702
13.3355
13.3355
13.9702
15.4067
18.0799
23.01
32.8041
55.3855
121.399
355.615
957.788
955.382
356.175
122.736
56.1862
33.2931
23.3347
18.3119
15.5842
14.1168
13.468
13.468
14.1168
15.5842
18.3118
23.3345
33.2927
56.1855
122.736
356.173
955.381
952.87
356.558
124.015
56.9674
33.7723
23.6543
18.5414
15.761
14.2636
13.6011
13.6011
14.2636
15.761
18.5415
23.6545
33.7726
56.9678
124.015
356.557
952.869
950.286
356.612
125.204
57.7169
34.2381
23.9677
18.7681
15.9367
14.4103
13.7346
13.7346
14.4103
15.9366
18.768
23.9674
34.2377
57.7162
125.204
356.611
950.286
947.635
356.52
126.341
58.4493
34.6946
24.2759
18.9922
16.1114
14.557
13.8684
13.8684
14.557
16.1115
18.9924
24.2761
34.695
58.4497
126.341
356.519
947.635
944.958
356.291
127.392
59.1512
35.1381
24.578
19.2134
16.2848
14.7033
14.0024
14.0024
14.7033
16.2848
19.2132
24.5777
35.1376
59.1506
127.392
356.29
944.958
942.243
355.82
128.406
59.8394
35.5733
24.8751
19.4319
16.4571
14.8493
14.1364
14.1364
14.8494
16.4572
19.4321
24.8754
35.5737
59.8396
128.405
355.823
942.243
939.539
355.244
129.335
60.4988
35.9959
25.1662
19.6474
16.628
14.9948
14.2703
14.2703
14.9947
16.6279
19.6472
25.1658
35.9953
60.4984
129.336
355.238
939.54
936.82
354.505
130.251
61.1489
36.4112
25.4527
19.8603
16.7975
15.1397
14.404
14.404
15.1398
16.7976
19.8605
25.4531
36.4118
61.149
130.248
354.509
936.819
934.145
353.722
131.1
61.7744
36.815
25.7334
20.0701
16.9655
15.2839
14.5373
14.5373
15.2838
16.9653
20.0699
25.7328
36.8141
61.7739
131.102
353.717
934.146
931.466
352.872
131.986
62.3992
37.2124
26.0097
20.2774
17.132
15.4273
14.6702
14.6703
15.4274
17.1322
20.2777
26.0103
37.2134
62.3998
131.983
352.876
931.464
928.859
352.024
132.869
63.0127
37.5999
26.2805
20.4816
17.2969
15.5699
14.8025
14.8025
15.5698
17.2967
20.4812
26.2798
37.5987
63.012
132.872
352.02
928.861
926.333
351.164
133.826
63.6386
37.9833
26.5474
20.6833
17.4603
15.7116
14.9344
14.9344
15.7117
17.4605
20.6837
26.5483
37.9847
63.6396
133.822
351.166
926.331
923.872
350.422
134.84
64.2639
38.3588
26.8093
20.882
17.622
15.8522
15.0654
15.0654
15.8521
17.6217
20.8815
26.8084
38.3572
64.2628
134.844
350.42
923.874
921.484
349.753
135.976
64.9119
38.7329
27.0679
21.0783
17.7821
15.9919
15.1958
15.1959
15.992
17.7824
21.0789
27.0691
38.7348
64.9134
135.972
349.755
921.482
919.155
349.293
137.189
65.5651
39.1016
27.3221
21.2718
17.9404
16.1304
15.3253
15.3252
16.1303
17.9401
21.2712
27.3209
39.0995
65.5635
137.194
349.293
919.157
916.897
348.942
138.532
66.2459
39.4712
27.5738
21.4631
18.0973
16.2679
15.4541
15.4541
16.2681
18.0977
21.4639
27.5753
39.4739
66.2486
138.529
348.943
916.894
914.693
348.851
139.937
66.9331
39.8374
27.8218
21.6517
18.2523
16.4041
15.5817
15.5816
16.404
18.252
21.6509
27.8202
39.8347
66.9307
139.942
348.853
914.695
912.56
348.916
141.463
67.6494
40.2064
28.0679
21.8384
18.4059
16.5394
15.7086
15.7087
16.5396
18.4065
21.8395
28.07
40.2101
67.6536
141.462
348.918
912.555
910.479
349.098
143.022
68.3711
40.5735
28.3111
22.0226
18.5577
16.6731
15.8342
15.8342
16.6729
18.5572
22.0217
28.3092
40.5702
68.3678
143.027
349.101
910.481
908.471
349.471
144.675
69.1203
40.9447
28.5532
22.2052
18.7081
16.806
15.9592
15.9593
16.8063
18.7089
22.2066
28.556
40.9495
69.1263
144.677
349.481
908.464
906.513
349.99
146.342
69.873
41.315
28.793
22.3855
18.8567
16.9373
16.0827
16.0826
16.937
18.8562
22.3843
28.7906
41.311
69.8692
146.346
349.989
906.515
904.629
350.63
148.077
70.651
41.6902
29.0321
22.5644
19.0041
17.0677
16.2056
16.2058
17.0682
19.0051
22.5664
29.0358
41.6967
70.6597
148.082
350.645
904.621
902.794
351.376
149.806
71.4301
42.065
29.2695
22.7414
19.1497
17.1965
16.3268
16.3268
17.1962
19.1491
22.7399
29.2668
42.0604
71.4258
149.81
351.379
902.795
901.035
352.209
151.58
72.2316
42.4452
29.5067
22.9171
19.2942
17.3245
16.4477
16.4479
17.3252
19.2956
22.9198
29.5118
42.454
72.2443
151.593
352.232
901.022
899.321
353.116
153.335
73.0313
42.8251
29.7426
23.0911
19.437
17.4508
16.5666
16.5665
17.4504
19.4362
23.0895
29.7396
42.8203
73.0274
153.338
353.127
899.319
897.684
354.081
155.115
73.8509
43.2104
29.9786
23.264
19.5787
17.5764
16.6853
16.6856
17.5774
19.5808
23.2679
29.9856
43.2225
73.8691
155.139
354.116
897.665
896.089
355.096
156.864
74.6654
43.5954
30.2137
23.4356
19.7188
17.7001
16.8017
16.8017
17.6998
19.718
23.4339
30.2106
43.591
74.6638
156.872
355.121
896.081
894.571
356.143
158.624
75.4974
43.9856
30.4488
23.6061
19.858
17.8234
16.9184
16.9188
17.8249
19.861
23.6117
30.459
44.003
75.5242
158.662
356.199
894.543
893.092
357.219
160.343
76.3209
44.3755
30.6836
23.7754
19.9955
17.9447
17.0324
17.0324
17.9445
19.995
23.774
30.6809
44.3726
76.3247