/*--------------------------------*- C++ -*----------------------------------*\
| =========                 |                                                 |
| \\      /  F ield         | OpenFOAM: The Open Source CFD Toolbox           |
|  \\    /   O peration     | Version:  2.1.0                                 |
|   \\  /    A nd           | Web:      www.OpenFOAM.org                      |
|    \\/     M anipulation  |                                                 |
\*---------------------------------------------------------------------------*/
FoamFile
{
    version     2.0;
    format      ascii;
    class       volScalarField;
    location    "0.38";
    object      p;
}
// * * * * * * * * * * * * * * * * * * * * * * * * * * * * * * * * * * * * * //

dimensions      [1 -1 -2 0 0 0 0];

internalField   nonuniform List<scalar> 
6400
(
99998.5
99995.8
99993.8
99992.2
99990.7
99989.3
99987.9
99986.5
99985.1
99983.6
99982.1
99980.5
99978.8
99977.1
99975.3
99973.5
99971.6
99969.6
99967.6
99965.4
99963.2
99960.9
99958.6
99956.1
99953.6
99951
99948.3
99945.5
99942.6
99939.6
99936.6
99933.4
99930.2
99926.8
99923.3
99919.8
99916.1
99912.3
99908.4
99904.3
99900.1
99895.8
99891.4
99886.8
99882.1
99877.2
99872.2
99867
99861.6
99856.1
99850.3
99844.4
99838.3
99831.9
99825.3
99818.6
99811.5
99804.3
99796.8
99789.1
99781.1
99772.9
99764.3
99755.5
99746.4
99736.9
99727.1
99716.9
99706.4
99695.5
99684.1
99672.4
99660.2
99647.5
99634.4
99620.7
99606.5
99591.7
99576.3
99560.3
99543.5
99526
99507.6
99488.1
99467.4
99445.3
99421.5
99395.5
99367.1
99336
99302.3
99267.3
99232.9
99200.4
99167.8
99134.7
99077.5
98962.2
98591.1
96982.8
99996.9
99995.1
99993.4
99991.8
99990.3
99988.9
99987.5
99986.1
99984.7
99983.2
99981.7
99980.1
99978.4
99976.7
99974.9
99973.1
99971.2
99969.2
99967.1
99965
99962.8
99960.5
99958.1
99955.7
99953.1
99950.5
99947.8
99945
99942.1
99939.1
99936.1
99932.9
99929.6
99926.3
99922.8
99919.2
99915.5
99911.7
99907.8
99903.8
99899.6
99895.3
99890.8
99886.3
99881.5
99876.7
99871.6
99866.4
99861.1
99855.5
99849.8
99843.8
99837.7
99831.3
99824.8
99818
99811.1
99803.8
99796.4
99788.7
99780.7
99772.5
99763.9
99755.1
99746
99736.6
99726.8
99716.6
99706.1
99695.3
99684
99672.2
99660.1
99647.5
99634.3
99620.7
99606.5
99591.8
99576.4
99560.4
99543.6
99526.1
99507.7
99488.2
99467.6
99445.5
99421.7
99395.9
99367.6
99336.8
99303.5
99268.6
99234.2
99202
99174.2
99145
99093.5
98992.5
98691.7
98137.2
99995.4
99994.3
99992.9
99991.4
99990
99988.7
99987.3
99985.9
99984.5
99983
99981.5
99979.9
99978.2
99976.5
99974.7
99972.9
99971
99969
99966.9
99964.8
99962.6
99960.3
99957.9
99955.5
99952.9
99950.3
99947.6
99944.8
99941.9
99939
99935.9
99932.7
99929.5
99926.1
99922.7
99919.1
99915.4
99911.6
99907.7
99903.7
99899.5
99895.2
99890.8
99886.2
99881.5
99876.6
99871.6
99866.5
99861.1
99855.6
99849.9
99844
99837.9
99831.6
99825.1
99818.4
99811.5
99804.3
99796.9
99789.2
99781.3
99773.1
99764.6
99755.8
99746.8
99737.4
99727.6
99717.6
99707.2
99696.3
99685.1
99673.5
99661.5
99648.9
99635.9
99622.4
99608.4
99593.7
99578.5
99562.6
99546
99528.6
99510.3
99490.9
99470.4
99448.4
99424.8
99399.2
99371.3
99341.2
99309
99275.9
99243.9
99215.4
99191.9
99164.1
99128.4
99066.3
98910
99000
99993.4
99993.4
99992.4
99991.2
99989.9
99988.6
99987.3
99985.9
99984.5
99983.1
99981.5
99980
99978.3
99976.6
99974.9
99973
99971.1
99969.1
99967.1
99965
99962.8
99960.5
99958.1
99955.7
99953.2
99950.6
99947.9
99945.1
99942.3
99939.3
99936.3
99933.1
99929.9
99926.5
99923.1
99919.5
99915.9
99912.1
99908.2
99904.2
99900.1
99895.8
99891.4
99886.9
99882.2
99877.4
99872.4
99867.2
99861.9
99856.5
99850.8
99845
99838.9
99832.7
99826.2
99819.6
99812.7
99805.5
99798.2
99790.5
99782.7
99774.5
99766.1
99757.4
99748.4
99739.1
99729.4
99719.4
99709
99698.3
99687.1
99675.5
99663.5
99651
99638
99624.5
99610.4
99595.7
99580.4
99564.4
99547.7
99530.1
99511.7
99492.1
99471.4
99449.3
99425.5
99400
99372.5
99343.1
99312.5
99282.1
99254
99230.5
99213.4
99200.7
99195.2
99199.8
99226.4
99646.7
99991.3
99992.3
99991.9
99991
99990
99988.8
99987.5
99986.2
99984.8
99983.4
99981.9
99980.3
99978.7
99977
99975.3
99973.5
99971.6
99969.6
99967.6
99965.5
99963.3
99961
99958.7
99956.3
99953.8
99951.2
99948.6
99945.8
99943
99940
99937
99933.9
99930.7
99927.4
99923.9
99920.4
99916.8
99913
99909.1
99905.2
99901
99896.8
99892.4
99887.9
99883.3
99878.5
99873.5
99868.4
99863.1
99857.6
99852
99846.2
99840.2
99833.9
99827.5
99820.8
99814
99806.8
99799.5
99791.9
99784
99775.9
99767.5
99758.8
99749.7
99740.4
99730.7
99720.7
99710.2
99699.4
99688.2
99676.6
99664.5
99651.9
99638.8
99625.2
99611
99596.2
99580.8
99564.7
99547.8
99530.1
99511.4
99491.7
99470.8
99448.5
99424.7
99399.4
99372.4
99344.2
99315.6
99288.7
99265.8
99249.4
99243.4
99253.3
99290.3
99382.4
99580.7
100157
99989.2
99991.3
99991.5
99991
99990.1
99989.1
99987.9
99986.7
99985.3
99983.9
99982.5
99980.9
99979.3
99977.6
99975.9
99974.1
99972.2
99970.3
99968.2
99966.2
99964
99961.7
99959.4
99957
99954.5
99952
99949.3
99946.6
99943.8
99940.8
99937.8
99934.7
99931.5
99928.2
99924.8
99921.3
99917.6
99913.9
99910
99906
99901.9
99897.7
99893.3
99888.8
99884.1
99879.3
99874.3
99869.2
99863.9
99858.4
99852.8
99846.9
99840.9
99834.7
99828.2
99821.5
99814.6
99807.5
99800.1
99792.5
99784.6
99776.4
99768
99759.2
99750.2
99740.8
99731.1
99721
99710.6
99699.7
99688.5
99676.8
99664.7
99652.1
99638.9
99625.2
99611
99596.1
99580.5
99564.3
99547.2
99529.3
99510.4
99490.5
99469.4
99447
99423.2
99398
99371.7
99344.8
99318.5
99295.3
99278.1
99270
99278.3
99315.4
99401.8
99586.7
99921.4
100557
99987.2
99990.3
99991.1
99990.9
99990.3
99989.4
99988.3
99987.1
99985.8
99984.4
99983
99981.4
99979.8
99978.2
99976.4
99974.6
99972.8
99970.8
99968.8
99966.7
99964.5
99962.3
99959.9
99957.5
99955.1
99952.5
99949.8
99947.1
99944.3
99941.3
99938.3
99935.2
99932
99928.7
99925.2
99921.7
99918
99914.3
99910.4
99906.4
99902.3
99898
99893.6
99889.1
99884.4
99879.6
99874.6
99869.4
99864.1
99858.6
99852.9
99847.1
99841
99834.8
99828.3
99821.6
99814.7
99807.5
99800.1
99792.5
99784.6
99776.4
99768
99759.3
99750.2
99740.8
99731.1
99721
99710.6
99699.7
99688.5
99676.8
99664.6
99652
99638.8
99625.1
99610.7
99595.8
99580.1
99563.7
99546.5
99528.4
99509.3
99489.1
99467.8
99445.2
99421.4
99396.4
99370.7
99345
99320.8
99301.1
99289.3
99289.8
99313.3
99377.8
99513.8
99782.8
100215
100860
99985.6
99989.4
99990.6
99990.7
99990.3
99989.5
99988.6
99987.4
99986.1
99984.7
99983.3
99981.7
99980.1
99978.5
99976.7
99974.9
99973
99971.1
99969
99966.9
99964.8
99962.5
99960.2
99957.8
99955.3
99952.7
99950
99947.2
99944.4
99941.4
99938.4
99935.3
99932
99928.7
99925.2
99921.7
99918
99914.2
99910.3
99906.3
99902.2
99897.9
99893.5
99888.9
99884.2
99879.4
99874.4
99869.2
99863.9
99858.4
99852.7
99846.9
99840.8
99834.6
99828.1
99821.4
99814.5
99807.4
99800
99792.4
99784.5
99776.3
99767.9
99759.2
99750.2
99740.8
99731.1
99721
99710.6
99699.8
99688.5
99676.8
99664.6
99651.9
99638.7
99624.9
99610.5
99595.5
99579.7
99563.2
99545.8
99527.5
99508.2
99487.8
99466.2
99443.4
99419.6
99394.8
99369.5
99344.8
99322.5
99305.4
99298.1
99306.3
99343.5
99431.9
99610.6
99946.7
100441
101076
99984.5
99988.6
99990.2
99990.5
99990.2
99989.5
99988.6
99987.4
99986.2
99984.8
99983.3
99981.8
99980.2
99978.5
99976.7
99974.9
99973
99971.1
99969
99966.9
99964.7
99962.5
99960.1
99957.7
99955.2
99952.6
99949.9
99947.1
99944.2
99941.3
99938.2
99935.1
99931.8
99928.5
99925
99921.4
99917.8
99914
99910.1
99906
99901.9
99897.6
99893.2
99888.7
99884
99879.1
99874.1
99869
99863.7
99858.2
99852.5
99846.7
99840.6
99834.4
99827.9
99821.3
99814.4
99807.3
99799.9
99792.3
99784.4
99776.3
99767.9
99759.2
99750.2
99740.8
99731.1
99721.1
99710.7
99699.8
99688.6
99676.9
99664.7
99652
99638.7
99624.9
99610.4
99595.3
99579.4
99562.7
99545.2
99526.7
99507.2
99486.5
99464.7
99441.8
99417.8
99393
99368.1
99344.2
99323
99307.9
99303.6
99317.5
99363.5
99470.1
99679.6
100061
100592
101213
99983.9
99988.2
99989.9
99990.4
99990.1
99989.5
99988.6
99987.4
99986.2
99984.8
99983.3
99981.8
99980.1
99978.4
99976.7
99974.8
99972.9
99971
99968.9
99966.8
99964.6
99962.3
99960
99957.5
99955
99952.4
99949.7
99946.9
99944.1
99941.1
99938
99934.9
99931.6
99928.3
99924.8
99921.3
99917.6
99913.8
99909.9
99905.9
99901.7
99897.5
99893.1
99888.5
99883.8
99879
99874
99868.9
99863.6
99858.1
99852.4
99846.6
99840.6
99834.3
99827.9
99821.2
99814.4
99807.3
99799.9
99792.3
99784.4
99776.4
99768
99759.3
99750.3
99741
99731.3
99721.3
99710.9
99700
99688.8
99677.1
99664.9
99652.2
99638.9
99625
99610.5
99595.3
99579.3
99562.5
99544.8
99526.1
99506.4
99485.5
99463.5
99440.3
99416.1
99391.3
99366.6
99343
99322.5
99308.3
99305.4
99322.2
99374
99489
99713.9
100118
100665
101281
99983.7
99988.1
99989.9
99990.4
99990.2
99989.5
99988.6
99987.5
99986.2
99984.8
99983.4
99981.8
99980.2
99978.5
99976.8
99974.9
99973
99971.1
99969
99966.9
99964.7
99962.4
99960.1
99957.6
99955.1
99952.5
99949.8
99947
99944.2
99941.2
99938.1
99935
99931.7
99928.4
99924.9
99921.4
99917.7
99913.9
99910
99906
99901.8
99897.5
99893.1
99888.6
99883.9
99879.1
99874.1
99868.9
99863.6
99858.2
99852.5
99846.7
99840.6
99834.4
99828
99821.4
99814.5
99807.4
99800.1
99792.6
99784.8
99776.6
99768.2
99759.6
99750.6
99741.3
99731.6
99721.6
99711.2
99700.4
99689.2
99677.5
99665.3
99652.5
99639.2
99625.3
99610.7
99595.5
99579.4
99562.4
99544.6
99525.7
99505.8
99484.8
99462.5
99439.1
99414.7
99389.7
99364.8
99341.1
99320.7
99306.5
99303.6
99320.4
99372.4
99487.2
99711.3
100114
100661
101277
99983.9
99988.4
99990.1
99990.5
99990.2
99989.6
99988.6
99987.5
99986.3
99984.9
99983.4
99981.9
99980.3
99978.6
99976.9
99975.1
99973.2
99971.2
99969.2
99967.1
99964.9
99962.7
99960.3
99957.9
99955.4
99952.8
99950.1
99947.3
99944.5
99941.5
99938.5
99935.3
99932.1
99928.7
99925.3
99921.7
99918
99914.2
99910.3
99906.3
99902.1
99897.9
99893.4
99888.9
99884.2
99879.4
99874.4
99869.2
99863.9
99858.4
99852.8
99846.9
99840.9
99834.7
99828.3
99821.6
99814.8
99807.7
99800.4
99792.9
99785
99776.9
99768.6
99759.9
99750.9
99741.6
99732
99722
99711.6
99700.8
99689.6
99677.9
99665.7
99652.9
99639.6
99625.7
99611
99595.7
99579.5
99562.4
99544.4
99525.4
99505.3
99484
99461.5
99437.8
99413.1
99387.7
99362.3
99338.3
99317.3
99302
99297.3
99311.3
99358.2
99463.2
99670.1
100048
100577
101199
99984.9
99989
99990.3
99990.6
99990.2
99989.5
99988.5
99987.4
99986.1
99984.8
99983.3
99981.8
99980.2
99978.5
99976.8
99975
99973.1
99971.2
99969.2
99967.1
99964.9
99962.7
99960.4
99958
99955.5
99952.9
99950.2
99947.5
99944.6
99941.7
99938.7
99935.5
99932.3
99928.9
99925.5
99921.9
99918.3
99914.5
99910.6
99906.6
99902.4
99898.1
99893.7
99889.2
99884.5
99879.7
99874.7
99869.5
99864.2
99858.7
99853.1
99847.2
99841.2
99835
99828.6
99821.9
99815.1
99808
99800.7
99793.2
99785.3
99777.3
99768.9
99760.2
99751.3
99742
99732.3
99722.4
99712
99701.2
99690
99678.3
99666.1
99653.3
99640
99626
99611.3
99595.9
99579.6
99562.5
99544.3
99525.2
99504.8
99483.3
99460.6
99436.6
99411.5
99385.6
99359.6
99334.8
99312.7
99295.5
99287.6
99296.2
99333.1
99420
99594.9
99925.1
100416
101052
99986.4
99989.7
99990.7
99990.6
99990.1
99989.2
99988.2
99987
99985.7
99984.4
99982.9
99981.4
99979.8
99978.2
99976.5
99974.7
99972.8
99970.9
99968.9
99966.8
99964.6
99962.4
99960.1
99957.7
99955.2
99952.7
99950
99947.3
99944.4
99941.5
99938.5
99935.4
99932.1
99928.8
99925.4
99921.8
99918.2
99914.4
99910.5
99906.5
99902.4
99898.1
99893.7
99889.2
99884.5
99879.7
99874.7
99869.6
99864.3
99858.8
99853.2
99847.4
99841.4
99835.2
99828.8
99822.1
99815.3
99808.2
99800.9
99793.4
99785.6
99777.5
99769.2
99760.5
99751.6
99742.3
99732.7
99722.7
99712.4
99701.6
99690.4
99678.7
99666.5
99653.8
99640.4
99626.4
99611.7
99596.2
99579.9
99562.7
99544.5
99525.2
99504.7
99483
99460
99435.7
99410.2
99383.7
99356.9
99330.9
99307.3
99287.7
99275.5
99276.8
99300.3
99362.5
99493.7
99755.2
100181
100827
99988.3
99990.7
99991.1
99990.6
99989.8
99988.9
99987.7
99986.5
99985.2
99983.8
99982.4
99980.8
99979.2
99977.6
99975.8
99974.1
99972.2
99970.2
99968.2
99966.2
99964
99961.8
99959.4
99957
99954.6
99952
99949.3
99946.6
99943.8
99940.9
99937.8
99934.7
99931.5
99928.2
99924.8
99921.2
99917.6
99913.8
99910
99906
99901.9
99897.6
99893.2
99888.7
99884.1
99879.3
99874.3
99869.2
99864
99858.5
99852.9
99847.1
99841.2
99835
99828.6
99822
99815.2
99808.2
99800.9
99793.4
99785.7
99777.6
99769.3
99760.7
99751.8
99742.6
99733
99723.1
99712.7
99702
99690.8
99679.2
99667
99654.3
99640.9
99626.9
99612.2
99596.7
99580.4
99563.1
99544.8
99525.3
99504.7
99482.9
99459.6
99435
99409.1
99382
99354.3
99326.9
99301.2
99278.9
99262.4
99255.3
99263.6
99298.2
99379.4
99555.8
99882.3
100515
99990.4
99991.7
99991.4
99990.6
99989.6
99988.5
99987.3
99986
99984.7
99983.3
99981.8
99980.2
99978.6
99977
99975.2
99973.4
99971.5
99969.6
99967.5
99965.4
99963.3
99961
99958.7
99956.3
99953.8
99951.2
99948.5
99945.8
99942.9
99940
99937
99933.8
99930.6
99927.3
99923.8
99920.3
99916.6
99912.9
99909
99905
99900.9
99896.6
99892.2
99887.7
99883.1
99878.3
99873.4
99868.3
99863
99857.6
99852
99846.2
99840.3
99834.1
99827.8
99821.3
99814.5
99807.5
99800.3
99792.8
99785.1
99777.2
99768.9
99760.3
99751.5
99742.3
99732.8
99722.9
99712.6
99701.9
99690.8
99679.2
99667.1
99654.4
99641.1
99627.1
99612.4
99596.9
99580.5
99563.2
99544.9
99525.4
99504.7
99482.7
99459.3
99434.5
99408.1
99380.5
99351.8
99322.9
99295
99269.8
99249
99234.2
99228.2
99235.9
99267.6
99350.9
99538.7
100107
99992.6
99992.7
99991.9
99990.7
99989.5
99988.3
99987
99985.7
99984.4
99982.9
99981.4
99979.9
99978.2
99976.6
99974.8
99973
99971.1
99969.1
99967.1
99965
99962.8
99960.5
99958.1
99955.7
99953.2
99950.6
99947.9
99945.1
99942.3
99939.3
99936.2
99933.1
99929.8
99926.5
99923
99919.4
99915.8
99912
99908.1
99904
99899.9
99895.6
99891.2
99886.7
99882
99877.2
99872.2
99867.1
99861.8
99856.4
99850.8
99845
99839
99832.8
99826.5
99820
99813.2
99806.2
99799
99791.5
99783.8
99775.8
99767.6
99759
99750.2
99741
99731.5
99721.7
99711.5
99700.8
99689.8
99678.2
99666.1
99653.5
99640.3
99626.4
99611.7
99596.3
99580
99562.7
99544.4
99524.9
99504.2
99482.1
99458.6
99433.6
99406.9
99378.7
99349.2
99319
99289.1
99261.1
99236.6
99216.2
99198.7
99184
99173.5
99169.8
99184.3
99591
99994.5
99993.6
99992.3
99991
99989.7
99988.4
99987
99985.7
99984.3
99982.9
99981.4
99979.8
99978.2
99976.5
99974.7
99972.9
99971
99969
99966.9
99964.8
99962.6
99960.3
99958
99955.5
99953
99950.4
99947.7
99944.9
99942
99939
99935.9
99932.7
99929.5
99926.1
99922.6
99919
99915.3
99911.5
99907.6
99903.5
99899.4
99895.1
99890.6
99886.1
99881.4
99876.5
99871.5
99866.4
99861.1
99855.6
99849.9
99844.1
99838.1
99831.9
99825.5
99818.9
99812
99805
99797.7
99790.2
99782.5
99774.5
99766.2
99757.6
99748.7
99739.5
99729.9
99720
99709.8
99699.1
99688
99676.4
99664.3
99651.6
99638.3
99624.4
99609.8
99594.3
99578
99560.7
99542.3
99522.8
99502.1
99480
99456.5
99431.3
99404.5
99376
99345.9
99314.7
99283.3
99253.3
99226.2
99202.9
99178.4
99148.7
99108.5
99038.6
98869.7
98936.5
99996.1
99994.4
99992.8
99991.3
99989.9
99988.6
99987.3
99985.9
99984.5
99983.1
99981.6
99980
99978.4
99976.7
99974.9
99973.1
99971.2
99969.2
99967.1
99965
99962.8
99960.5
99958.2
99955.7
99953.2
99950.6
99947.9
99945.1
99942.2
99939.2
99936.1
99932.9
99929.6
99926.3
99922.8
99919.2
99915.5
99911.7
99907.8
99903.7
99899.5
99895.2
99890.8
99886.2
99881.5
99876.6
99871.6
99866.4
99861.1
99855.6
99849.9
99844.1
99838
99831.8
99825.3
99818.7
99811.8
99804.7
99797.4
99789.9
99782.1
99774
99765.7
99757.1
99748.1
99738.9
99729.3
99719.3
99709
99698.2
99687.1
99675.4
99663.2
99650.5
99637.1
99623
99608.2
99592.6
99576.1
99558.7
99540.1
99520.5
99499.5
99477.2
99453.3
99427.9
99400.7
99371.7
99340.9
99308.7
99276
99244.2
99214.7
99188.6
99164.2
99130.7
99074.7
98966.2
98652.9
98060.3
99997.8
99995.1
99993.3
99991.7
99990.3
99989
99987.7
99986.3
99984.9
99983.5
99981.9
99980.4
99978.8
99977.1
99975.3
99973.5
99971.6
99969.6
99967.6
99965.5
99963.3
99961
99958.6
99956.2
99953.7
99951.1
99948.4
99945.6
99942.7
99939.7
99936.6
99933.5
99930.2
99926.8
99923.3
99919.7
99916.1
99912.2
99908.3
99904.3
99900.1
99895.8
99891.4
99886.8
99882.1
99877.2
99872.2
99867.1
99861.7
99856.3
99850.6
99844.7
99838.7
99832.5
99826
99819.4
99812.5
99805.4
99798.1
99790.6
99782.8
99774.7
99766.3
99757.6
99748.7
99739.4
99729.8
99719.9
99709.5
99698.8
99687.6
99675.9
99663.7
99650.9
99637.6
99623.5
99608.7
99593
99576.5
99559
99540.4
99520.7
99499.7
99477.3
99453.5
99427.9
99400.6
99371.5
99340.5
99308.1
99275.3
99243.7
99214.1
99187.2
99152.5
99114.3
99054.2
98934.1
98552.3
96886.7
100563
101839
102381
102691
102902
103061
103186
103286
103368
103435
103491
103536
103572
103601
103624
103640
103651
103657
103658
103655
100517
101543
102177
102576
102844
103035
103180
103293
103383
103455
103513
103559
103596
103625
103646
103661
103670
103674
103673
103666
100804
101574
102119
102517
102803
103013
103172
103295
103392
103468
103528
103576
103613
103641
103661
103674
103682
103685
103683
103672
101081
101707
102169
102530
102807
103019
103182
103310
103409
103488
103549
103596
103632
103659
103677
103688
103694
103695
103692
103676
101317
101849
102253
102579
102838
103044
103205
103333
103433
103511
103572
103618
103652
103677
103693
103702
103706
103705
103700
103679
101516
101980
102343
102641
102884
103080
103237
103362
103460
103537
103596
103641
103673
103695
103708
103715
103716
103713
103706
103681
101678
102093
102426
102704
102933
103120
103271
103392
103488
103563
103621
103663
103693
103712
103723
103727
103726
103721
103710
103683
101799
102181
102494
102757
102976
103156
103302
103421
103515
103588
103644
103684
103712
103728
103736
103737
103734
103727
103713
103684
101880
102242
102542
102796
103009
103185
103329
103446
103539
103611
103665
103704
103729
103742
103747
103746
103741
103732
103716
103687
101924
102277
102571
102821
103031
103205
103348
103464
103556
103627
103680
103717
103741
103753
103756
103753
103747
103737
103716
103692
101922
102274
102569
102818
103028
103202
103346
103461
103553
103625
103678
103715
103739
103752
103755
103752
103746
103735
103717
103691
101869
102232
102532
102787
103000
103177
103322
103439
103532
103605
103660
103699
103725
103739
103745
103744
103739
103731
103715
103690
101781
102164
102478
102742
102962
103144
103291
103411
103506
103580
103637
103679
103707
103724
103733
103735
103732
103725
103712
103689
101651
102069
102404
102683
102914
103103
103257
103379
103477
103554
103612
103656
103687
103707
103719
103724
103723
103719
103708
103686
101483
101950
102315
102616
102862
103060
103220
103347
103447
103526
103587
103633
103666
103689
103704
103711
103713
103711
103704
103682
101278
101813
102220
102550
102813
103021
103186
103316
103418
103499
103561
103609
103645
103671
103688
103698
103703
103702
103697
103679
101037
101667
102133
102498
102779
102995
103162
103292
103394
103474
103537
103587
103624
103652
103672
103684
103691
103692
103690
103676
100755
101530
102080
102483
102774
102988
103151
103276
103375
103454
103516
103566
103604
103634
103655
103670
103679
103682
103680
103671
100461
101495
102137
102543
102815
103010
103158
103274
103366
103441
103501
103549
103588
103618
103640
103656
103666
103671
103670
103664
100506
101793
102343
102658
102874
103036
103164
103267
103351
103421
103478
103525
103563
103594
103617
103635
103647
103654
103655
103652
103497
103495
103495
103494
103493
103492
103492
103492
103491
103491
103491
103491
103492
103492
103492
103493
103494
103495
103495
103497
103494
103492
103492
103491
103491
103491
103491
103491
103490
103490
103490
103490
103491
103491
103491
103491
103491
103492
103492
103494
103494
103491
103491
103491
103491
103491
103491
103491
103491
103491
103491
103491
103491
103491
103491
103491
103491
103491
103491
103494
103494
103492
103492
103492
103492
103492
103492
103492
103492
103492
103492
103492
103492
103492
103492
103492
103492
103492
103492
103494
103493
103492
103491
103491
103491
103491
103491
103491
103491
103491
103491
103491
103491
103491
103491
103491
103491
103491
103492
103493
103493
103491
103491
103491
103491
103491
103490
103490
103490
103490
103490
103490
103490
103490
103491
103491
103491
103491
103491
103493
103492
103490
103490
103490
103490
103490
103490
103490
103490
103490
103490
103490
103490
103490
103490
103490
103490
103490
103490
103492
103491
103490
103490
103489
103489
103489
103489
103489
103489
103489
103489
103489
103489
103489
103489
103489
103489
103490
103490
103491
103491
103489
103489
103489
103489
103489
103489
103489
103489
103489
103489
103489
103489
103489
103489
103489
103489
103489
103489
103491
103490
103488
103488
103488
103488
103488
103488
103488
103488
103488
103488
103488
103488
103488
103488
103488
103488
103488
103488
103490
103489
103488
103488
103487
103487
103487
103487
103487
103487
103487
103487
103487
103487
103487
103487
103487
103487
103488
103488
103489
103489
103487
103487
103487
103487
103487
103487
103487
103487
103486
103486
103487
103487
103487
103487
103487
103487
103487
103487
103489
103488
103486
103486
103486
103486
103486
103486
103486
103486
103486
103486
103486
103486
103486
103486
103486
103486
103486
103486
103488
103487
103486
103485
103485
103485
103485
103485
103485
103485
103485
103485
103485
103485
103485
103485
103485
103485
103485
103486
103487
103486
103485
103485
103485
103484
103484
103484
103484
103484
103484
103484
103484
103484
103484
103484
103484
103485
103485
103485
103486
103486
103484
103484
103484
103484
103484
103484
103484
103484
103484
103484
103484
103484
103484
103484
103484
103484
103484
103484
103486
103485
103483
103483
103483
103483
103483
103483
103483
103483
103483
103483
103483
103483
103483
103483
103483
103483
103483
103483
103485
103484
103482
103482
103482
103482
103482
103482
103482
103482
103482
103482
103482
103482
103482
103482
103482
103482
103482
103482
103484
103483
103482
103482
103481
103481
103481
103481
103481
103481
103481
103481
103481
103481
103481
103481
103481
103481
103482
103482
103483
103482
103481
103481
103481
103481
103481
103481
103480
103480
103480
103480
103480
103480
103481
103481
103481
103481
103481
103481
103482
103481
103480
103480
103480
103480
103480
103480
103480
103480
103480
103480
103480
103480
103480
103480
103480
103480
103480
103480
103481
103481
103479
103479
103479
103479
103479
103479
103479
103479
103479
103479
103479
103479
103479
103479
103479
103479
103479
103479
103481
103480
103479
103478
103478
103478
103478
103478
103478
103478
103478
103478
103478
103478
103478
103478
103478
103478
103478
103479
103480
103479
103478
103478
103477
103477
103477
103477
103477
103477
103477
103477
103477
103477
103477
103477
103477
103478
103478
103478
103479
103478
103477
103477
103477
103477
103477
103477
103476
103476
103476
103476
103476
103476
103477
103477
103477
103477
103477
103477
103478
103477
103476
103476
103476
103476
103476
103476
103476
103476
103476
103476
103476
103476
103476
103476
103476
103476
103476
103476
103477
103476
103475
103475
103475
103475
103475
103475
103475
103475
103475
103475
103475
103475
103475
103475
103475
103475
103475
103475
103476
103476
103474
103474
103474
103474
103474
103474
103474
103474
103474
103474
103474
103474
103474
103474
103474
103474
103474
103474
103476
103475
103474
103474
103473
103473
103473
103473
103473
103473
103473
103473
103473
103473
103473
103473
103473
103473
103474
103474
103475
103474
103473
103473
103473
103473
103473
103473
103472
103472
103472
103472
103472
103472
103473
103473
103473
103473
103473
103473
103474
103473
103472
103472
103472
103472
103472
103472
103472
103472
103472
103472
103472
103472
103472
103472
103472
103472
103472
103472
103473
103472
103471
103471
103471
103471
103471
103471
103471
103471
103471
103471
103471
103471
103471
103471
103471
103471
103471
103471
103472
103471
103470
103470
103470
103470
103470
103470
103470
103470
103470
103470
103470
103470
103470
103470
103470
103470
103470
103470
103471
103470
103470
103470
103469
103469
103469
103469
103469
103469
103469
103469
103469
103469
103469
103469
103469
103469
103470
103470
103470
103470
103469
103469
103469
103469
103469
103469
103469
103469
103469
103469
103469
103469
103469
103469
103469
103469
103469
103469
103470
103469
103468
103468
103468
103468
103468
103468
103468
103468
103468
103468
103468
103468
103468
103468
103468
103468
103468
103468
103469
103468
103467
103467
103467
103467
103467
103467
103467
103467
103467
103467
103467
103467
103467
103467
103467
103467
103467
103467
103468
103467
103467
103466
103466
103466
103466
103466
103466
103466
103466
103466
103466
103466
103466
103466
103466
103466
103466
103467
103467
103466
103466
103466
103466
103466
103465
103465
103465
103465
103465
103465
103465
103465
103465
103465
103466
103466
103466
103466
103466
103466
103465
103465
103465
103465
103465
103465
103465
103465
103465
103465
103465
103465
103465
103465
103465
103465
103465
103465
103466
103465
103464
103464
103464
103464
103464
103464
103464
103464
103464
103464
103464
103464
103464
103464
103464
103464
103464
103464
103465
103464
103463
103463
103463
103463
103463
103463
103463
103463
103463
103463
103463
103463
103463
103463
103463
103463
103463
103463
103464
103463
103463
103463
103463
103462
103462
103462
103462
103462
103462
103462
103462
103462
103462
103462
103462
103463
103463
103463
103463
103462
103462
103462
103462
103462
103462
103462
103462
103462
103462
103462
103462
103462
103462
103462
103462
103462
103462
103462
103462
103462
103461
103461
103461
103461
103461
103461
103461
103461
103461
103461
103461
103461
103461
103461
103461
103461
103461
103461
103462
103461
103460
103460
103460
103460
103460
103460
103460
103460
103460
103460
103460
103460
103460
103460
103460
103460
103460
103460
103461
103460
103460
103460
103460
103460
103459
103459
103459
103459
103459
103459
103459
103459
103459
103459
103460
103460
103460
103460
103460
103459
103459
103459
103459
103459
103459
103459
103459
103459
103459
103459
103459
103459
103459
103459
103459
103459
103459
103459
103459
103459
103458
103458
103458
103458
103458
103458
103458
103458
103458
103458
103458
103458
103458
103458
103458
103458
103458
103458
103459
103458
103458
103457
103457
103457
103457
103457
103457
103457
103457
103457
103457
103457
103457
103457
103457
103457
103457
103458
103458
103457
103457
103457
103457
103457
103457
103457
103457
103457
103457
103457
103457
103457
103457
103457
103457
103457
103457
103457
103457
103456
103456
103456
103456
103456
103456
103456
103456
103456
103456
103456
103456
103456
103456
103456
103456
103456
103456
103456
103456
103456
103455
103455
103455
103455
103455
103455
103455
103455
103455
103455
103455
103455
103455
103455
103455
103455
103455
103455
103456
103455
103455
103455
103455
103455
103454
103454
103454
103454
103454
103454
103454
103454
103454
103454
103455
103455
103455
103455
103455
103454
103454
103454
103454
103454
103454
103454
103454
103454
103454
103454
103454
103454
103454
103454
103454
103454
103454
103454
103454
103453
103453
103453
103453
103453
103453
103453
103453
103453
103453
103453
103453
103453
103453
103453
103453
103453
103453
103453
103453
103453
103453
103453
103452
103452
103452
103452
103452
103452
103452
103452
103452
103452
103452
103452
103452
103452
103453
103453
103453
103452
103452
103452
103452
103452
103452
103452
103452
103452
103452
103452
103452
103452
103452
103452
103452
103452
103452
103452
103452
103451
103451
103451
103451
103451
103451
103451
103451
103451
103451
103451
103451
103451
103451
103451
103451
103451
103451
103451
103451
103451
103451
103450
103450
103450
103450
103450
103450
103450
103450
103450
103450
103450
103450
103450
103450
103450
103451
103451
103451
103450
103450
103450
103450
103450
103450
103450
103450
103450
103450
103450
103450
103450
103450
103450
103450
103450
103450
103450
103450
103449
103449
103449
103449
103449
103449
103449
103449
103449
103449
103449
103449
103449
103449
103449
103449
103449
103449
103449
103449
103449
103449
103448
103448
103448
103448
103448
103448
103448
103448
103448
103448
103448
103448
103448
103448
103448
103449
103449
103449
103448
103448
103448
103448
103448
103448
103448
103448
103448
103448
103448
103448
103448
103448
103448
103448
103448
103448
103448
103448
103447
103447
103447
103447
103447
103447
103447
103447
103447
103447
103447
103447
103447
103447
103447
103447
103447
103447
103447
103447
103447
103447
103446
103446
103446
103446
103446
103446
103446
103446
103446
103446
103446
103446
103446
103446
103447
103447
103447
103447
103446
103446
103446
103446
103446
103446
103446
103446
103446
103446
103446
103446
103446
103446
103446
103446
103446
103446
103446
103446
103445
103445
103445
103445
103445
103445
103445
103445
103445
103445
103445
103445
103445
103445
103445
103445
103445
103445
103445
103445
103445
103445
103445
103444
103444
103444
103444
103444
103444
103444
103444
103444
103444
103445
103445
103445
103445
103445
103445
103445
103444
103444
103444
103444
103444
103444
103444
103444
103444
103444
103444
103444
103444
103444
103444
103444
103444
103444
103444
103444
103443
103443
103443
103443
103443
103443
103443
103443
103443
103443
103443
103443
103443
103443
103443
103443
103443
103443
103444
103444
103443
103443
103442
103442
103442
103442
103442
103442
103442
103443
103443
103443
103443
103443
103443
103443
103443
103443
103443
103443
103442
103442
103442
103442
103442
103442
103442
103442
103442
103442
103442
103442
103442
103442
103442
103442
103442
103442
103442
103442
103441
103441
103441
103441
103441
103441
103441
103441
103441
103441
103441
103441
103441
103442
103442
103442
103442
103442
103442
103442
103440
103440
103440
103440
103440
103440
103440
103440
103441
103441
103441
103441
103441
103441
103441
103441
103441
103441
103441
103441
103440
103440
103440
103440
103440
103440
103440
103440
103440
103440
103440
103440
103440
103440
103441
103441
103441
103441
103441
103441
103439
103439
103439
103439
103439
103439
103439
103439
103439
103439
103440
103440
103440
103440
103440