/*--------------------------------*- C++ -*----------------------------------*\
| =========                 |                                                 |
| \\      /  F ield         | OpenFOAM: The Open Source CFD Toolbox           |
|  \\    /   O peration     | Version:  2.1.0                                 |
|   \\  /    A nd           | Web:      www.OpenFOAM.org                      |
|    \\/     M anipulation  |                                                 |
\*---------------------------------------------------------------------------*/
FoamFile
{
    version     2.0;
    format      ascii;
    class       surfaceScalarField;
    location    "0.38";
    object      phi;
}
// * * * * * * * * * * * * * * * * * * * * * * * * * * * * * * * * * * * * * //

dimensions      [0 3 -1 0 0 0 0];

internalField   nonuniform List<scalar> 
12460
(
-2.59836e-05
-4.65687e-09
-2.59496e-05
-4.19714e-08
-2.58928e-05
-6.46586e-08
-2.58241e-05
-7.62275e-08
-2.57483e-05
-8.31256e-08
-2.56677e-05
-8.77747e-08
-2.55835e-05
-9.11273e-08
-2.54965e-05
-9.37542e-08
-2.54071e-05
-9.59627e-08
-2.53156e-05
-9.79408e-08
-2.5222e-05
-9.97988e-08
-2.51264e-05
-1.01598e-07
-2.50288e-05
-1.03378e-07
-2.49293e-05
-1.05155e-07
-2.48278e-05
-1.06949e-07
-2.47244e-05
-1.08762e-07
-2.46189e-05
-1.10606e-07
-2.45114e-05
-1.12477e-07
-2.44018e-05
-1.14381e-07
-2.42901e-05
-1.16308e-07
-2.41764e-05
-1.18266e-07
-2.40604e-05
-1.2026e-07
-2.39423e-05
-1.22307e-07
-2.3822e-05
-1.24352e-07
-2.36995e-05
-1.26452e-07
-2.35746e-05
-1.28669e-07
-2.34472e-05
-1.30986e-07
-2.33174e-05
-1.33374e-07
-2.31849e-05
-1.35837e-07
-2.30497e-05
-1.38376e-07
-2.29119e-05
-1.41003e-07
-2.27711e-05
-1.43718e-07
-2.26275e-05
-1.46534e-07
-2.24808e-05
-1.49455e-07
-2.23309e-05
-1.5249e-07
-2.21779e-05
-1.55639e-07
-2.20214e-05
-1.58913e-07
-2.18614e-05
-1.62314e-07
-2.16978e-05
-1.65855e-07
-2.15304e-05
-1.69549e-07
-2.1359e-05
-1.73409e-07
-2.11835e-05
-1.77438e-07
-2.10037e-05
-1.81643e-07
-2.08194e-05
-1.86031e-07
-2.06305e-05
-1.90607e-07
-2.04368e-05
-1.95371e-07
-2.0238e-05
-2.00325e-07
-2.0034e-05
-2.05461e-07
-1.98246e-05
-2.10765e-07
-1.96096e-05
-2.16274e-07
-1.9389e-05
-2.21816e-07
-1.91627e-05
-2.27472e-07
-1.89303e-05
-2.33576e-07
-1.86912e-05
-2.40066e-07
-1.84454e-05
-2.4679e-07
-1.81929e-05
-2.53446e-07
-1.7934e-05
-2.59851e-07
-1.76687e-05
-2.66121e-07
-1.7397e-05
-2.7243e-07
-1.71189e-05
-2.78873e-07
-1.68341e-05
-2.85493e-07
-1.65425e-05
-2.92277e-07
-1.62438e-05
-2.9928e-07
-1.59378e-05
-3.06547e-07
-1.56243e-05
-3.14093e-07
-1.53028e-05
-3.21963e-07
-1.49731e-05
-3.30185e-07
-1.46347e-05
-3.38821e-07
-1.42872e-05
-3.47905e-07
-1.39301e-05
-3.57468e-07
-1.35629e-05
-3.67543e-07
-1.3185e-05
-3.78182e-07
-1.27959e-05
-3.89426e-07
-1.23948e-05
-4.01344e-07
-1.1981e-05
-4.14014e-07
-1.15536e-05
-4.27536e-07
-1.11118e-05
-4.42043e-07
-1.06542e-05
-4.577e-07
-1.01796e-05
-4.7474e-07
-9.68625e-06
-4.93503e-07
-9.17194e-06
-5.1441e-07
-8.63403e-06
-5.37984e-07
-8.0692e-06
-5.64891e-07
-7.47338e-06
-5.95852e-07
-6.84199e-06
-6.314e-07
-6.17025e-06
-6.71718e-07
-5.45377e-06
-7.16431e-07
-4.68975e-06
-7.63927e-07
-3.87942e-06
-8.1019e-07
-3.03274e-06
-8.46482e-07
-2.17746e-06
-8.55012e-07
-1.37652e-06
-8.00597e-07
-7.34005e-07
-6.42129e-07
-3.54529e-07
-3.79214e-07
-2.78252e-07
-7.67044e-08
-5.3167e-07
2.52109e-07
-1.42489e-06
8.91845e-07
-3.71832e-06
2.29322e-06
-9.28925e-06
5.57092e-06
1.54965e-05
-2.47857e-05
-3.1322e-05
-2.49586e-08
-3.12768e-05
-9.55706e-08
-3.12162e-05
-1.33386e-07
-3.11464e-05
-1.54036e-07
-3.10706e-05
-1.66727e-07
-3.09906e-05
-1.75306e-07
-3.09076e-05
-1.81499e-07
-3.08222e-05
-1.86342e-07
-3.07347e-05
-1.90413e-07
-3.06454e-05
-1.94055e-07
-3.05543e-05
-1.97477e-07
-3.04615e-05
-2.00788e-07
-3.0367e-05
-2.04072e-07
-3.02708e-05
-2.07354e-07
-3.0173e-05
-2.1068e-07
-3.00734e-05
-2.14046e-07
-2.9972e-05
-2.17481e-07
-2.98688e-05
-2.20973e-07
-2.97638e-05
-2.24539e-07
-2.9657e-05
-2.28153e-07
-2.95483e-05
-2.31829e-07
-2.94377e-05
-2.35556e-07
-2.93251e-05
-2.39392e-07
-2.92107e-05
-2.43181e-07
-2.90944e-05
-2.46998e-07
-2.89762e-05
-2.5101e-07
-2.8856e-05
-2.55156e-07
-2.87337e-05
-2.59399e-07
-2.86095e-05
-2.63751e-07
-2.84832e-05
-2.6822e-07
-2.83548e-05
-2.72822e-07
-2.82243e-05
-2.77562e-07
-2.80916e-05
-2.82455e-07
-2.79566e-05
-2.87512e-07
-2.78192e-05
-2.92743e-07
-2.76796e-05
-2.98153e-07
-2.75374e-05
-3.03758e-07
-2.73928e-05
-3.09571e-07
-2.72456e-05
-3.15598e-07
-2.70957e-05
-3.21848e-07
-2.6943e-05
-3.28353e-07
-2.67876e-05
-3.35121e-07
-2.66292e-05
-3.42163e-07
-2.64677e-05
-3.49501e-07
-2.63031e-05
-3.57145e-07
-2.61353e-05
-3.65108e-07
-2.5964e-05
-3.73405e-07
-2.57891e-05
-3.82042e-07
-2.56105e-05
-3.91013e-07
-2.5428e-05
-4.00369e-07
-2.52413e-05
-4.09956e-07
-2.50507e-05
-4.19564e-07
-2.48564e-05
-4.29237e-07
-2.46588e-05
-4.38977e-07
-2.4458e-05
-4.48808e-07
-2.4254e-05
-4.58721e-07
-2.40464e-05
-4.68582e-07
-2.38352e-05
-4.78391e-07
-2.36205e-05
-4.88271e-07
-2.3402e-05
-4.98331e-07
-2.31799e-05
-5.08632e-07
-2.29539e-05
-5.19168e-07
-2.27242e-05
-5.2997e-07
-2.24905e-05
-5.41076e-07
-2.2253e-05
-5.52518e-07
-2.20114e-05
-5.64355e-07
-2.17658e-05
-5.76636e-07
-2.15159e-05
-5.89434e-07
-2.12618e-05
-6.02822e-07
-2.10031e-05
-6.16881e-07
-2.07397e-05
-6.31689e-07
-2.04712e-05
-6.47358e-07
-2.01974e-05
-6.63989e-07
-1.99176e-05
-6.81735e-07
-1.96316e-05
-7.00767e-07
-1.93385e-05
-7.21297e-07
-1.90376e-05
-7.43587e-07
-1.8728e-05
-7.67941e-07
-1.84087e-05
-7.94746e-07
-1.80783e-05
-8.24548e-07
-1.77354e-05
-8.57977e-07
-1.73783e-05
-8.95744e-07
-1.70051e-05
-9.387e-07
-1.66139e-05
-9.87759e-07
-1.62024e-05
-1.0436e-06
-1.57685e-05
-1.10639e-06
-1.53105e-05
-1.17523e-06
-1.48281e-05
-1.2473e-06
-1.43231e-05
-1.31617e-06
-1.38017e-05
-1.36902e-06
-1.32763e-05
-1.38179e-06
-1.27654e-05
-1.31326e-06
-1.23046e-05
-1.10522e-06
-1.19742e-05
-7.12467e-07
-1.20391e-05
-1.46228e-08
-1.25754e-05
7.86464e-07
-1.39488e-05
2.26396e-06
-1.66776e-05
5.02191e-06
-2.1802e-05
1.06952e-05
2.65653e-05
-3.28708e-05
-3.43172e-05
-5.27785e-08
-3.42786e-05
-1.42472e-07
-3.42279e-05
-1.92302e-07
-3.41695e-05
-2.20531e-07
-3.4106e-05
-2.3803e-07
-3.40392e-05
-2.49821e-07
-3.39699e-05
-2.58238e-07
-3.38987e-05
-2.64784e-07
-3.3826e-05
-2.70208e-07
-3.3752e-05
-2.75043e-07
-3.36766e-05
-2.79534e-07
-3.36001e-05
-2.83878e-07
-3.35224e-05
-2.88158e-07
-3.34435e-05
-2.92448e-07
-3.33634e-05
-2.96781e-07
-3.32821e-05
-3.01187e-07
-3.31996e-05
-3.05683e-07
-3.31158e-05
-3.10283e-07
-3.30308e-05
-3.14999e-07
-3.29443e-05
-3.19821e-07
-3.28564e-05
-3.24761e-07
-3.27671e-05
-3.29834e-07
-3.26761e-05
-3.35096e-07
-3.25835e-05
-3.40419e-07
-3.24892e-05
-3.45725e-07
-3.23935e-05
-3.51043e-07
-3.22965e-05
-3.5638e-07
-3.21982e-05
-3.61777e-07
-3.20986e-05
-3.67274e-07
-3.19977e-05
-3.72888e-07
-3.18955e-05
-3.78638e-07
-3.17921e-05
-3.84531e-07
-3.16874e-05
-3.9058e-07
-3.15814e-05
-3.96795e-07
-3.14741e-05
-4.03185e-07
-3.13656e-05
-4.09751e-07
-3.12558e-05
-4.16504e-07
-3.11447e-05
-4.23462e-07
-3.10324e-05
-4.30629e-07
-3.09189e-05
-4.37993e-07
-3.08042e-05
-4.45589e-07
-3.06884e-05
-4.53422e-07
-3.05714e-05
-4.61496e-07
-3.04533e-05
-4.69827e-07
-3.03342e-05
-4.78421e-07
-3.02141e-05
-4.87286e-07
-3.0093e-05
-4.96429e-07
-2.99711e-05
-5.05854e-07
-2.98484e-05
-5.15548e-07
-2.97251e-05
-5.25465e-07
-2.96012e-05
-5.35559e-07
-2.94767e-05
-5.45727e-07
-2.93517e-05
-5.55783e-07
-2.92265e-05
-5.6563e-07
-2.91015e-05
-5.75344e-07
-2.89765e-05
-5.85119e-07
-2.88514e-05
-5.94975e-07
-2.87263e-05
-6.04815e-07
-2.86012e-05
-6.14643e-07
-2.84762e-05
-6.24517e-07
-2.83515e-05
-6.34456e-07
-2.82274e-05
-6.44447e-07
-2.81039e-05
-6.54484e-07
-2.79815e-05
-6.64563e-07
-2.78604e-05
-6.74706e-07
-2.77408e-05
-6.84937e-07
-2.76231e-05
-6.95288e-07
-2.75077e-05
-7.05788e-07
-2.7395e-05
-7.16492e-07
-2.72853e-05
-7.2747e-07
-2.71791e-05
-7.388e-07
-2.70767e-05
-7.50599e-07
-2.69787e-05
-7.62967e-07
-2.68852e-05
-7.7609e-07
-2.67966e-05
-7.9019e-07
-2.67133e-05
-8.05537e-07
-2.66352e-05
-8.22495e-07
-2.65626e-05
-8.41477e-07
-2.64952e-05
-8.62982e-07
-2.64329e-05
-8.87732e-07
-2.63752e-05
-9.16552e-07
-2.63216e-05
-9.50292e-07
-2.62713e-05
-9.89909e-07
-2.62236e-05
-1.03636e-06
-2.61778e-05
-1.09037e-06
-2.6133e-05
-1.15206e-06
-2.60891e-05
-1.22017e-06
-2.60464e-05
-1.29099e-06
-2.60069e-05
-1.35667e-06
-2.59747e-05
-1.40222e-06
-2.59561e-05
-1.40142e-06
-2.59588e-05
-1.31144e-06
-2.59948e-05
-1.07012e-06
-2.61082e-05
-5.99637e-07
-2.629e-05
1.66856e-07
-2.68026e-05
1.29892e-06
-2.78293e-05
3.29053e-06
-2.97559e-05
6.94848e-06
-3.33051e-05
1.42444e-05
3.11919e-05
-3.79316e-05
-3.70238e-05
-8.01281e-08
-3.69972e-05
-1.77306e-07
-3.69634e-05
-2.34442e-07
-3.69238e-05
-2.68241e-07
-3.68804e-05
-2.89414e-07
-3.68344e-05
-3.03533e-07
-3.67868e-05
-3.13444e-07
-3.6738e-05
-3.21003e-07
-3.66884e-05
-3.27121e-07
-3.6638e-05
-3.32479e-07
-3.65871e-05
-3.37359e-07
-3.65357e-05
-3.42028e-07
-3.64839e-05
-3.46569e-07
-3.64317e-05
-3.51094e-07
-3.63791e-05
-3.55625e-07
-3.63262e-05
-3.60216e-07
-3.62729e-05
-3.64872e-07
-3.62194e-05
-3.69623e-07
-3.61656e-05
-3.74477e-07
-3.61115e-05
-3.79428e-07
-3.60572e-05
-3.8447e-07
-3.60026e-05
-3.89644e-07
-3.59479e-05
-3.94916e-07
-3.5893e-05
-4.00283e-07
-3.58378e-05
-4.05735e-07
-3.57823e-05
-4.11155e-07
-3.57268e-05
-4.16525e-07
-3.56711e-05
-4.21903e-07
-3.56153e-05
-4.27333e-07
-3.55595e-05
-4.32834e-07
-3.55038e-05
-4.38424e-07
-3.54481e-05
-4.44106e-07
-3.53926e-05
-4.49891e-07
-3.53373e-05
-4.55778e-07
-3.52823e-05
-4.61774e-07
-3.52277e-05
-4.67869e-07
-3.51735e-05
-4.74061e-07
-3.51198e-05
-4.80357e-07
-3.50668e-05
-4.86762e-07
-3.50145e-05
-4.93263e-07
-3.49632e-05
-4.99869e-07
-3.49129e-05
-5.06566e-07
-3.48637e-05
-5.13346e-07
-3.4816e-05
-5.20209e-07
-3.47698e-05
-5.27144e-07
-3.47253e-05
-5.34134e-07
-3.46829e-05
-5.41167e-07
-3.46428e-05
-5.48221e-07
-3.46053e-05
-5.55262e-07
-3.45706e-05
-5.62211e-07
-3.45392e-05
-5.69011e-07
-3.45109e-05
-5.75857e-07
-3.44858e-05
-5.82789e-07
-3.44636e-05
-5.89572e-07
-3.44445e-05
-5.9614e-07
-3.44287e-05
-6.02549e-07
-3.44164e-05
-6.08792e-07
-3.44079e-05
-6.14806e-07
-3.44034e-05
-6.20565e-07
-3.44032e-05
-6.261e-07
-3.44076e-05
-6.31393e-07
-3.44169e-05
-6.36396e-07
-3.44315e-05
-6.41104e-07
-3.44516e-05
-6.45519e-07
-3.44778e-05
-6.4966e-07
-3.45102e-05
-6.53553e-07
-3.45493e-05
-6.5724e-07
-3.45952e-05
-6.60771e-07
-3.46484e-05
-6.64223e-07
-3.47091e-05
-6.67698e-07
-3.47774e-05
-6.7132e-07
-3.48535e-05
-6.75271e-07
-3.49375e-05
-6.79753e-07
-3.50293e-05
-6.85037e-07
-3.51287e-05
-6.91459e-07
-3.52354e-05
-6.99429e-07
-3.53491e-05
-7.09465e-07
-3.5469e-05
-7.22159e-07
-3.55944e-05
-7.38105e-07
-3.57244e-05
-7.58202e-07
-3.5858e-05
-7.83453e-07
-3.5994e-05
-8.14765e-07
-3.61311e-05
-8.53119e-07
-3.62685e-05
-8.99414e-07
-3.64049e-05
-9.54215e-07
-3.654e-05
-1.0173e-06
-3.66735e-05
-1.08691e-06
-3.68061e-05
-1.1586e-06
-3.69394e-05
-1.22364e-06
-3.70754e-05
-1.26637e-06
-3.72162e-05
-1.26073e-06
-3.73612e-05
-1.16654e-06
-3.75099e-05
-9.21475e-07
-3.76603e-05
-4.49326e-07
-3.78184e-05
3.24942e-07
-3.81175e-05
1.598e-06
-3.86768e-05
3.84984e-06
-3.96684e-05
7.94011e-06
-4.12764e-05
1.58524e-05
3.12543e-05
-4.13389e-05
-3.97549e-05
-1.00151e-07
-3.97456e-05
-1.9485e-07
-3.9735e-05
-2.53337e-07
-3.97221e-05
-2.89244e-07
-3.97076e-05
-3.11999e-07
-3.9692e-05
-3.26902e-07
-3.9676e-05
-3.3716e-07
-3.96599e-05
-3.44675e-07
-3.96439e-05
-3.5056e-07
-3.96281e-05
-3.55489e-07
-3.96128e-05
-3.59847e-07
-3.95979e-05
-3.63877e-07
-3.95836e-05
-3.67713e-07
-3.95699e-05
-3.71444e-07
-3.95569e-05
-3.75119e-07
-3.95448e-05
-3.78769e-07
-3.95335e-05
-3.82414e-07
-3.95232e-05
-3.86063e-07
-3.9514e-05
-3.89738e-07
-3.95059e-05
-3.9342e-07
-3.9499e-05
-3.97058e-07
-3.94936e-05
-4.00703e-07
-3.94896e-05
-4.04343e-07
-3.94874e-05
-4.07951e-07
-3.94867e-05
-4.11686e-07
-3.94874e-05
-4.15523e-07
-3.94896e-05
-4.19349e-07
-3.94933e-05
-4.23142e-07
-3.94985e-05
-4.26916e-07
-3.95053e-05
-4.30681e-07
-3.95139e-05
-4.34448e-07
-3.95242e-05
-4.38217e-07
-3.95365e-05
-4.41993e-07
-3.95507e-05
-4.45771e-07
-3.95671e-05
-4.4955e-07
-3.95857e-05
-4.53318e-07
-3.96066e-05
-4.57073e-07
-3.96299e-05
-4.60807e-07
-3.96559e-05
-4.64515e-07
-3.96846e-05
-4.68196e-07
-3.97161e-05
-4.71853e-07
-3.97506e-05
-4.7546e-07
-3.97883e-05
-4.79014e-07
-3.98292e-05
-4.82513e-07
-3.98735e-05
-4.85948e-07
-3.99213e-05
-4.89305e-07
-3.99728e-05
-4.92577e-07
-4.00281e-05
-4.95752e-07
-4.00872e-05
-4.98804e-07
-4.01504e-05
-5.01702e-07
-4.02174e-05
-5.04437e-07
-4.02886e-05
-5.07094e-07
-4.0364e-05
-5.09694e-07
-4.04437e-05
-5.12103e-07
-4.05277e-05
-5.14256e-07
-4.0616e-05
-5.16155e-07
-4.0709e-05
-5.17791e-07
-4.08064e-05
-5.19145e-07
-4.09085e-05
-5.20217e-07
-4.10152e-05
-5.21059e-07
-4.11264e-05
-5.21685e-07
-4.12422e-05
-5.22062e-07
-4.13625e-05
-5.22169e-07
-4.14872e-05
-5.22041e-07
-4.16163e-05
-5.21734e-07
-4.17497e-05
-5.21297e-07
-4.18871e-05
-5.20801e-07
-4.20285e-05
-5.2032e-07
-4.21737e-05
-5.19949e-07
-4.23223e-05
-5.19809e-07
-4.24743e-05
-5.20044e-07
-4.26294e-05
-5.2084e-07
-4.27873e-05
-5.22418e-07
-4.29479e-05
-5.25057e-07
-4.31107e-05
-5.29095e-07
-4.32756e-05
-5.34944e-07
-4.34423e-05
-5.43113e-07
-4.36105e-05
-5.54282e-07
-4.378e-05
-5.68915e-07
-4.39505e-05
-5.87937e-07
-4.41217e-05
-6.12475e-07
-4.42933e-05
-6.43324e-07
-4.44652e-05
-6.81416e-07
-4.46372e-05
-7.27552e-07
-4.48093e-05
-7.82165e-07
-4.49818e-05
-8.4491e-07
-4.51549e-05
-9.13859e-07
-4.53291e-05
-9.84428e-07
-4.55049e-05
-1.04796e-06
-4.56817e-05
-1.08957e-06
-4.58571e-05
-1.08532e-06
-4.60242e-05
-9.9946e-07
-4.61681e-05
-7.77646e-07
-4.62685e-05
-3.48906e-07
-4.63292e-05
3.85624e-07
-4.63892e-05
1.65803e-06
-4.64642e-05
3.92485e-06
-4.65539e-05
8.02981e-06
-4.63341e-05
1.56326e-05
2.84272e-05
-4.3507e-05
-4.26439e-05
-1.06373e-07
-4.26564e-05
-1.90371e-07
-4.26742e-05
-2.43604e-07
-4.26943e-05
-2.77024e-07
-4.2716e-05
-2.98231e-07
-4.27388e-05
-3.11786e-07
-4.27628e-05
-3.20777e-07
-4.2788e-05
-3.26952e-07
-4.28145e-05
-3.3146e-07
-4.28423e-05
-3.34922e-07
-4.28715e-05
-3.37757e-07
-4.29022e-05
-3.40177e-07
-4.29344e-05
-3.42342e-07
-4.29683e-05
-3.4432e-07
-4.30039e-05
-3.46177e-07
-4.30413e-05
-3.47928e-07
-4.30805e-05
-3.49602e-07
-4.31217e-05
-3.51196e-07
-4.3165e-05
-3.52742e-07
-4.32103e-05
-3.54253e-07
-4.32577e-05
-3.55595e-07
-4.33075e-05
-3.56847e-07
-4.33596e-05
-3.58117e-07
-4.3414e-05
-3.59332e-07
-4.34707e-05
-3.60597e-07
-4.35299e-05
-3.61891e-07
-4.35916e-05
-3.63145e-07
-4.36558e-05
-3.64336e-07
-4.37225e-05
-3.65465e-07
-4.37919e-05
-3.66541e-07
-4.38639e-05
-3.67571e-07
-4.39386e-05
-3.68564e-07
-4.4016e-05
-3.69526e-07
-4.40962e-05
-3.70458e-07
-4.41792e-05
-3.71363e-07
-4.42651e-05
-3.72236e-07
-4.43537e-05
-3.73083e-07
-4.44452e-05
-3.73902e-07
-4.45395e-05
-3.74689e-07
-4.46367e-05
-3.75443e-07
-4.47368e-05
-3.76183e-07
-4.48396e-05
-3.76902e-07
-4.49453e-05
-3.77597e-07
-4.50536e-05
-3.78274e-07
-4.51647e-05
-3.78937e-07
-4.52784e-05
-3.79576e-07
-4.53947e-05
-3.80193e-07
-4.55135e-05
-3.80786e-07
-4.56347e-05
-3.81342e-07
-4.57582e-05
-3.81836e-07
-4.58839e-05
-3.82281e-07
-4.60118e-05
-3.82717e-07
-4.61417e-05
-3.83151e-07
-4.62736e-05
-3.83511e-07
-4.64073e-05
-3.83755e-07
-4.65427e-05
-3.83866e-07
-4.66796e-05
-3.83825e-07
-4.68181e-05
-3.83615e-07
-4.69578e-05
-3.8324e-07
-4.70988e-05
-3.82757e-07
-4.72409e-05
-3.82196e-07
-4.7384e-05
-3.81498e-07
-4.75279e-05
-3.80591e-07
-4.76727e-05
-3.79506e-07
-4.78183e-05
-3.78312e-07
-4.79646e-05
-3.77028e-07
-4.81116e-05
-3.75728e-07
-4.82593e-05
-3.74476e-07
-4.84077e-05
-3.73345e-07
-4.85567e-05
-3.72448e-07
-4.87063e-05
-3.71917e-07
-4.88567e-05
-3.71918e-07
-4.90078e-05
-3.72657e-07
-4.91597e-05
-3.74412e-07
-4.93124e-05
-3.77518e-07
-4.9466e-05
-3.82383e-07
-4.96206e-05
-3.89506e-07
-4.97762e-05
-3.99564e-07
-4.99329e-05
-4.13058e-07
-5.00909e-05
-4.30669e-07
-5.02507e-05
-4.534e-07
-5.04124e-05
-4.82223e-07
-5.05762e-05
-5.18077e-07
-5.07426e-05
-5.61698e-07
-5.09117e-05
-6.13464e-07
-5.10839e-05
-6.73059e-07
-5.12594e-05
-7.38646e-07
-5.14383e-05
-8.05867e-07
-5.16197e-05
-8.66776e-07
-5.18013e-05
-9.08169e-07
-5.19773e-05
-9.09415e-07
-5.21365e-05
-8.40441e-07
-5.22547e-05
-6.59515e-07
-5.23031e-05
-3.00533e-07
-5.22641e-05
3.46559e-07
-5.21095e-05
1.50341e-06
-5.17575e-05
3.57289e-06
-5.1038e-05
7.31026e-06
-4.93347e-05
1.39293e-05
2.38345e-05
-4.47421e-05
-4.56125e-05
-9.71294e-08
-4.5648e-05
-1.62291e-07
-4.56942e-05
-2.04824e-07
-4.57466e-05
-2.32002e-07
-4.58031e-05
-2.49064e-07
-4.58624e-05
-2.59571e-07
-4.59242e-05
-2.66104e-07
-4.59879e-05
-2.7012e-07
-4.60536e-05
-2.72627e-07
-4.61211e-05
-2.74168e-07
-4.61904e-05
-2.75114e-07
-4.62615e-05
-2.75659e-07
-4.63344e-05
-2.75953e-07
-4.6409e-05
-2.76057e-07
-4.64855e-05
-2.76043e-07
-4.65637e-05
-2.75924e-07
-4.66437e-05
-2.75736e-07
-4.67256e-05
-2.75477e-07
-4.68092e-05
-2.7518e-07
-4.68946e-05
-2.74865e-07
-4.69817e-05
-2.74408e-07
-4.70707e-05
-2.73746e-07
-4.71617e-05
-2.72974e-07
-4.72547e-05
-2.7212e-07
-4.73498e-05
-2.71279e-07
-4.74469e-05
-2.70445e-07
-4.75461e-05
-2.69597e-07
-4.76473e-05
-2.68713e-07
-4.77505e-05
-2.67807e-07
-4.78556e-05
-2.66878e-07
-4.79627e-05
-2.65952e-07
-4.80717e-05
-2.65035e-07
-4.81824e-05
-2.64157e-07
-4.82949e-05
-2.63311e-07
-4.84091e-05
-2.62524e-07
-4.85249e-05
-2.61782e-07
-4.86422e-05
-2.6111e-07
-4.87609e-05
-2.60493e-07
-4.88809e-05
-2.59958e-07
-4.90021e-05
-2.59501e-07
-4.91244e-05
-2.59131e-07
-4.92477e-05
-2.58848e-07
-4.93718e-05
-2.58655e-07
-4.94968e-05
-2.5855e-07
-4.96224e-05
-2.58541e-07
-4.97487e-05
-2.58612e-07
-4.98753e-05
-2.58758e-07
-5.00024e-05
-2.58977e-07
-5.01297e-05
-2.59262e-07
-5.02573e-05
-2.59575e-07
-5.03849e-05
-2.59922e-07
-5.05125e-05
-2.60321e-07
-5.06402e-05
-2.60759e-07
-5.07678e-05
-2.61173e-07
-5.08953e-05
-2.61521e-07
-5.10226e-05
-2.61774e-07
-5.11498e-05
-2.61894e-07
-5.12768e-05
-2.61849e-07
-5.14036e-05
-2.61624e-07
-5.15303e-05
-2.61271e-07
-5.16568e-05
-2.60856e-07
-5.17831e-05
-2.60277e-07
-5.19094e-05
-2.59375e-07
-5.20358e-05
-2.58184e-07
-5.21623e-05
-2.56782e-07
-5.2289e-05
-2.5519e-07
-5.24161e-05
-2.53456e-07
-5.25437e-05
-2.51632e-07
-5.2672e-05
-2.49786e-07
-5.2801e-05
-2.48011e-07
-5.29309e-05
-2.46428e-07
-5.3062e-05
-2.45188e-07
-5.31945e-05
-2.44494e-07
-5.33284e-05
-2.44604e-07
-5.34641e-05
-2.45848e-07
-5.36018e-05
-2.48622e-07
-5.37416e-05
-2.53403e-07
-5.38841e-05
-2.60697e-07
-5.40294e-05
-2.71266e-07
-5.41775e-05
-2.85938e-07
-5.43286e-05
-3.05435e-07
-5.44832e-05
-3.30632e-07
-5.46417e-05
-3.6243e-07
-5.48046e-05
-4.01509e-07
-5.49724e-05
-4.48215e-07
-5.51454e-05
-5.02413e-07
-5.53236e-05
-5.6264e-07
-5.55064e-05
-6.25025e-07
-5.56922e-05
-6.82819e-07
-5.58769e-05
-7.25163e-07
-5.60521e-05
-7.35616e-07
-5.62032e-05
-6.90595e-07
-5.6302e-05
-5.61706e-07
-5.63102e-05
-2.93165e-07
-5.61825e-05
2.18282e-07
-5.5844e-05
1.16442e-06
-5.51286e-05
2.85684e-06
-5.37273e-05
5.90809e-06
-5.0916e-05
1.11169e-05
1.82176e-05
-4.53006e-05
-4.82717e-05
-7.54561e-08
-4.8323e-05
-1.17392e-07
-4.83873e-05
-1.46851e-07
-4.84599e-05
-1.65668e-07
-4.85378e-05
-1.77276e-07
-4.86192e-05
-1.84128e-07
-4.87032e-05
-1.88016e-07
-4.87891e-05
-1.90025e-07
-4.88765e-05
-1.90868e-07
-4.89653e-05
-1.90964e-07
-4.90553e-05
-1.90587e-07
-4.91465e-05
-1.8989e-07
-4.92388e-05
-1.88987e-07
-4.93322e-05
-1.87934e-07
-4.94266e-05
-1.86786e-07
-4.95221e-05
-1.85561e-07
-4.96186e-05
-1.84287e-07
-4.97162e-05
-1.82964e-07
-4.98147e-05
-1.81594e-07
-4.99144e-05
-1.80136e-07
-5.0015e-05
-1.7868e-07
-5.01163e-05
-1.77211e-07
-5.02185e-05
-1.75668e-07
-5.03213e-05
-1.74099e-07
-5.04247e-05
-1.72585e-07
-5.05287e-05
-1.71119e-07
-5.06333e-05
-1.69713e-07
-5.07384e-05
-1.68341e-07
-5.08439e-05
-1.6703e-07
-5.09497e-05
-1.65754e-07
-5.10558e-05
-1.64566e-07
-5.11621e-05
-1.63439e-07
-5.12686e-05
-1.62435e-07
-5.13751e-05
-1.61515e-07
-5.14817e-05
-1.6073e-07
-5.15883e-05
-1.60041e-07
-5.16948e-05
-1.59485e-07
-5.18012e-05
-1.59025e-07
-5.19075e-05
-1.58697e-07
-5.20135e-05
-1.58491e-07
-5.21194e-05
-1.58402e-07
-5.2225e-05
-1.58424e-07
-5.23304e-05
-1.58552e-07
-5.24356e-05
-1.58781e-07
-5.25405e-05
-1.59108e-07
-5.26451e-05
-1.59515e-07
-5.27496e-05
-1.59984e-07
-5.28539e-05
-1.60507e-07
-5.2958e-05
-1.61072e-07
-5.3062e-05
-1.6165e-07
-5.31658e-05
-1.62223e-07
-5.32697e-05
-1.62788e-07
-5.33735e-05
-1.63328e-07
-5.34775e-05
-1.6379e-07
-5.35816e-05
-1.64125e-07
-5.3686e-05
-1.64301e-07
-5.37906e-05
-1.64274e-07
-5.38956e-05
-1.64005e-07
-5.40012e-05
-1.63459e-07
-5.41073e-05
-1.6268e-07
-5.4214e-05
-1.61825e-07
-5.43213e-05
-1.60773e-07
-5.44295e-05
-1.59206e-07
-5.45386e-05
-1.57207e-07
-5.46489e-05
-1.54853e-07
-5.47604e-05
-1.52192e-07
-5.48732e-05
-1.49252e-07
-5.49876e-05
-1.46066e-07
-5.51036e-05
-1.4269e-07
-5.52215e-05
-1.39204e-07
-5.53415e-05
-1.35716e-07
-5.54636e-05
-1.32365e-07
-5.55883e-05
-1.29346e-07
-5.57156e-05
-1.26899e-07
-5.58458e-05
-1.25338e-07
-5.59791e-05
-1.25042e-07
-5.61159e-05
-1.26467e-07
-5.62565e-05
-1.30079e-07
-5.64011e-05
-1.3669e-07
-5.65499e-05
-1.47176e-07
-5.67033e-05
-1.62202e-07
-5.68615e-05
-1.82543e-07
-5.70252e-05
-2.09024e-07
-5.71946e-05
-2.42299e-07
-5.73705e-05
-2.82672e-07
-5.75528e-05
-3.30313e-07
-5.77412e-05
-3.84467e-07
-5.79345e-05
-4.41882e-07
-5.81301e-05
-4.9731e-07
-5.83223e-05
-5.42771e-07
-5.85012e-05
-5.66401e-07
-5.86487e-05
-5.52181e-07
-5.87376e-05
-4.81407e-07
-5.87194e-05
-3.19223e-07
-5.85196e-05
1.16771e-08
-5.80384e-05
6.76735e-07
-5.70391e-05
1.85025e-06
-5.5117e-05
3.97686e-06
-5.15366e-05
7.52453e-06
1.20413e-05
-4.53749e-05
-5.0258e-05
-4.18575e-08
-5.03156e-05
-6.43039e-08
-5.03866e-05
-8.02396e-08
-5.04661e-05
-9.0395e-08
-5.05509e-05
-9.6594e-08
-5.06389e-05
-1.00219e-07
-5.07286e-05
-1.02176e-07
-5.08194e-05
-1.03073e-07
-5.09106e-05
-1.03289e-07
-5.10021e-05
-1.03047e-07
-5.10937e-05
-1.02519e-07
-5.11852e-05
-1.01782e-07
-5.12766e-05
-1.00908e-07
-5.13678e-05
-9.99372e-08
-5.14588e-05
-9.89044e-08
-5.15496e-05
-9.78224e-08
-5.16401e-05
-9.67091e-08
-5.17304e-05
-9.55657e-08
-5.18204e-05
-9.43852e-08
-5.19102e-05
-9.31325e-08
-5.19996e-05
-9.19525e-08
-5.20885e-05
-9.09035e-08
-5.21769e-05
-8.989e-08
-5.22647e-05
-8.89102e-08
-5.2352e-05
-8.79956e-08
-5.24386e-05
-8.7143e-08
-5.25246e-05
-8.63594e-08
-5.261e-05
-8.56249e-08
-5.26947e-05
-8.49519e-08
-5.27789e-05
-8.43183e-08
-5.28625e-05
-8.37574e-08
-5.29456e-05
-8.32534e-08
-5.30281e-05
-8.28464e-08
-5.311e-05
-8.25109e-08
-5.31915e-05
-8.22769e-08
-5.32726e-05
-8.21161e-08
-5.33532e-05
-8.20483e-08
-5.34335e-05
-8.20373e-08
-5.35135e-05
-8.21119e-08
-5.35932e-05
-8.22583e-08
-5.36727e-05
-8.24778e-08
-5.37521e-05
-8.27514e-08
-5.38313e-05
-8.30692e-08
-5.39106e-05
-8.34305e-08
-5.39899e-05
-8.38265e-08
-5.40693e-05
-8.42391e-08
-5.41489e-05
-8.46552e-08
-5.42288e-05
-8.50569e-08
-5.4309e-05
-8.54103e-08
-5.43896e-05
-8.57149e-08
-5.44707e-05
-8.59601e-08
-5.45524e-05
-8.61142e-08
-5.46347e-05
-8.61536e-08
-5.47178e-05
-8.60396e-08
-5.48017e-05
-8.57239e-08
-5.48865e-05
-8.51713e-08
-5.49723e-05
-8.43404e-08
-5.50592e-05
-8.31851e-08
-5.51473e-05
-8.16542e-08
-5.52367e-05
-7.97437e-08
-5.53275e-05
-7.77641e-08
-5.54196e-05
-7.56937e-08
-5.55133e-05
-7.28114e-08
-5.56088e-05
-6.93573e-08
-5.57061e-05
-6.54515e-08
-5.58053e-05
-6.11402e-08
-5.59067e-05
-5.64367e-08
-5.60103e-05
-5.13605e-08
-5.61163e-05
-4.59552e-08
-5.62249e-05
-4.02863e-08
-5.63362e-05
-3.44504e-08
-5.64506e-05
-2.85709e-08
-5.65681e-05
-2.28283e-08
-5.6689e-05
-1.74464e-08
-5.68136e-05
-1.27161e-08
-5.69421e-05
-8.99712e-09
-5.70749e-05
-6.70887e-09
-5.72123e-05
-6.36064e-09
-5.73545e-05
-8.66501e-09
-5.75023e-05
-1.43779e-08
-5.76559e-05
-2.41947e-08
-5.78159e-05
-3.88811e-08
-5.79829e-05
-5.92133e-08
-5.81574e-05
-8.59107e-08
-5.834e-05
-1.19173e-07
-5.8531e-05
-1.59467e-07
-5.87294e-05
-2.07336e-07
-5.8934e-05
-2.60009e-07
-5.91415e-05
-3.13861e-07
-5.93457e-05
-3.64294e-07
-5.95355e-05
-4.04047e-07
-5.96919e-05
-4.24998e-07
-5.97872e-05
-4.1701e-07
-5.97704e-05
-3.68679e-07
-5.95618e-05
-2.31009e-07
-5.89963e-05
7.67148e-08
-5.78299e-05
6.47474e-07
-5.55873e-05
1.69173e-06
-5.15428e-05
3.42799e-06
5.56458e-06
-4.51268e-05
-5.1159e-05
-2.57566e-09
-5.12162e-05
-9.13072e-09
-5.12863e-05
-1.20432e-08
-5.13646e-05
-1.38874e-08
-5.14477e-05
-1.52721e-08
-5.15332e-05
-1.63666e-08
-5.16198e-05
-1.72284e-08
-5.17065e-05
-1.78961e-08
-5.17928e-05
-1.84201e-08
-5.18785e-05
-1.87992e-08
-5.19633e-05
-1.90909e-08
-5.20471e-05
-1.92885e-08
-5.21299e-05
-1.94063e-08
-5.22117e-05
-1.94718e-08
-5.22923e-05
-1.94857e-08
-5.23718e-05
-1.94584e-08
-5.24503e-05
-1.93875e-08
-5.25278e-05
-1.92779e-08
-5.26042e-05
-1.91148e-08
-5.26795e-05
-1.89094e-08
-5.27538e-05
-1.8731e-08
-5.28272e-05
-1.86138e-08
-5.28997e-05
-1.85045e-08
-5.29713e-05
-1.84049e-08
-5.30422e-05
-1.83174e-08
-5.31122e-05
-1.82505e-08
-5.31815e-05
-1.81982e-08
-5.32501e-05
-1.81582e-08
-5.33181e-05
-1.81068e-08
-5.33856e-05
-1.80606e-08
-5.34525e-05
-1.80091e-08
-5.3519e-05
-1.79874e-08
-5.35851e-05
-1.7979e-08
-5.36509e-05
-1.80082e-08
-5.37164e-05
-1.8053e-08
-5.37817e-05
-1.81363e-08
-5.38468e-05
-1.82348e-08
-5.39119e-05
-1.8351e-08
-5.39769e-05
-1.8483e-08
-5.40419e-05
-1.86211e-08
-5.4107e-05
-1.87732e-08
-5.41723e-05
-1.8918e-08
-5.42377e-05
-1.90466e-08
-5.43035e-05
-1.91509e-08
-5.43695e-05
-1.92266e-08
-5.4436e-05
-1.92546e-08
-5.4503e-05
-1.9223e-08
-5.45704e-05
-1.911e-08
-5.46385e-05
-1.8883e-08
-5.47073e-05
-1.85417e-08
-5.47768e-05
-1.80805e-08
-5.48471e-05
-1.74579e-08
-5.49182e-05
-1.66415e-08
-5.49904e-05
-1.56103e-08
-5.50635e-05
-1.43048e-08
-5.51378e-05
-1.26888e-08
-5.52132e-05
-1.07335e-08
-5.52898e-05
-8.36758e-09
-5.53678e-05
-5.55497e-09
-5.54473e-05
-2.20148e-09
-5.55284e-05
1.33497e-09
-5.56106e-05
4.49988e-09
-5.56946e-05
9.04971e-09
-5.57805e-05
1.42767e-08
-5.58684e-05
2.00052e-08
-5.59583e-05
2.62298e-08
-5.60504e-05
3.29546e-08
-5.61448e-05
4.01745e-08
-5.62417e-05
4.78601e-08
-5.63413e-05
5.5957e-08
-5.64437e-05
6.43856e-08
-5.65491e-05
7.304e-08
-5.66579e-05
8.17605e-08
-5.67701e-05
9.03416e-08
-5.68861e-05
9.85208e-08
-5.70063e-05
1.05967e-07
-5.71309e-05
1.12285e-07
-5.72602e-05
1.16981e-07
-5.73947e-05
1.19429e-07
-5.7535e-05
1.18957e-07
-5.76814e-05
1.14883e-07
-5.78345e-05
1.06462e-07
-5.79949e-05
9.29259e-08
-5.8163e-05
7.36077e-08
-5.83391e-05
4.78509e-08
-5.85234e-05
1.55722e-08
-5.87152e-05
-2.54371e-08
-5.89129e-05
-7.30282e-08
-5.91136e-05
-1.25297e-07
-5.93103e-05
-1.81339e-07
-5.94919e-05
-2.38381e-07
-5.96407e-05
-2.9489e-07
-5.97265e-05
-3.53332e-07
-5.97053e-05
-4.16296e-07
-5.94879e-05
-4.80816e-07
-5.89084e-05
-5.4283e-07
-5.76907e-05
-6.16509e-07
-5.53348e-05
-7.1428e-07
-5.11087e-05
-8.49144e-07
-9.71859e-07
-4.46174e-05
-5.06434e-05
3.55678e-08
-5.07002e-05
4.80301e-08
-5.07709e-05
5.89315e-08
-5.08503e-05
6.57074e-08
-5.09348e-05
6.94242e-08
-5.10221e-05
7.1118e-08
-5.11107e-05
7.16031e-08
-5.11998e-05
7.13866e-08
-5.12889e-05
7.07782e-08
-5.13775e-05
6.99623e-08
-5.14656e-05
6.9042e-08
-5.15528e-05
6.80684e-08
-5.16392e-05
6.71001e-08
-5.17247e-05
6.61249e-08
-5.18093e-05
6.5176e-08
-5.1893e-05
6.42469e-08
-5.19756e-05
6.33595e-08
-5.20573e-05
6.25075e-08
-5.2138e-05
6.17109e-08
-5.22178e-05
6.09456e-08
-5.22966e-05
6.01856e-08
-5.23745e-05
5.94085e-08
-5.24515e-05
5.86494e-08
-5.25276e-05
5.78993e-08
-5.26028e-05
5.71722e-08
-5.26773e-05
5.64556e-08
-5.27509e-05
5.57598e-08
-5.28238e-05
5.50842e-08
-5.2896e-05
5.44698e-08
-5.29675e-05
5.38941e-08
-5.30383e-05
5.33792e-08
-5.31086e-05
5.28745e-08
-5.31784e-05
5.2413e-08
-5.32477e-05
5.19564e-08
-5.33165e-05
5.1545e-08
-5.33849e-05
5.11395e-08
-5.34531e-05
5.0784e-08
-5.35209e-05
5.04494e-08
-5.35885e-05
5.01694e-08
-5.3656e-05
4.99363e-08
-5.37233e-05
4.97656e-08
-5.37906e-05
4.96557e-08
-5.38579e-05
4.96147e-08
-5.39253e-05
4.96632e-08
-5.39928e-05
4.98121e-08
-5.40605e-05
5.00739e-08
-5.41285e-05
5.04671e-08
-5.41968e-05
5.10106e-08
-5.42656e-05
5.17286e-08
-5.43348e-05
5.26318e-08
-5.44045e-05
5.37329e-08
-5.44748e-05
5.50651e-08
-5.45458e-05
5.66622e-08
-5.46176e-05
5.85474e-08
-5.46902e-05
6.07793e-08
-5.47636e-05
6.34009e-08
-5.4838e-05
6.64181e-08
-5.49134e-05
6.99195e-08
-5.499e-05
7.39636e-08
-5.50676e-05
7.85102e-08
-5.51463e-05
8.33353e-08
-5.52269e-05
8.84604e-08
-5.53088e-05
9.45788e-08
-5.53922e-05
1.01465e-07
-5.54772e-05
1.09007e-07
-5.5564e-05
1.17187e-07
-5.56526e-05
1.26009e-07
-5.57432e-05
1.3548e-07
-5.58359e-05
1.45587e-07
-5.59309e-05
1.56283e-07
-5.60284e-05
1.67511e-07
-5.61285e-05
1.79189e-07
-5.62315e-05
1.91182e-07
-5.63377e-05
2.03307e-07
-5.64472e-05
2.15333e-07
-5.65603e-05
2.26963e-07
-5.66774e-05
2.37829e-07
-5.67988e-05
2.47475e-07
-5.69249e-05
2.55342e-07
-5.70561e-05
2.60818e-07
-5.7193e-05
2.63252e-07
-5.7336e-05
2.61914e-07
-5.74855e-05
2.56013e-07
-5.76421e-05
2.44871e-07
-5.78058e-05
2.27575e-07
-5.79761e-05
2.0325e-07
-5.81533e-05
1.70838e-07
-5.83349e-05
1.30045e-07
-5.85157e-05
7.9868e-08
-5.86881e-05
1.85693e-08
-5.8842e-05
-5.3363e-08
-5.89605e-05
-1.41605e-07
-5.90145e-05
-2.60659e-07
-5.89569e-05
-4.30747e-07
-5.87036e-05
-6.85836e-07
-5.80981e-05
-1.09468e-06
-5.68626e-05
-1.7925e-06
-5.45097e-05
-3.00157e-06
-5.03369e-05
-4.95145e-06
-7.28697e-06
-4.39525e-05
-4.8993e-05
6.49605e-08
-4.90464e-05
1.03662e-07
-4.91145e-05
1.29117e-07
-4.91919e-05
1.45257e-07
-4.92753e-05
1.54879e-07
-4.93624e-05
1.60261e-07
-4.94518e-05
1.63122e-07
-4.95428e-05
1.6442e-07
-4.96349e-05
1.64847e-07
-4.97276e-05
1.64713e-07
-4.98208e-05
1.64308e-07
-4.99144e-05
1.6369e-07
-5.00082e-05
1.62975e-07
-5.01023e-05
1.62185e-07
-5.01964e-05
1.61363e-07
-5.02907e-05
1.60508e-07
-5.03849e-05
1.59648e-07
-5.04791e-05
1.58778e-07
-5.05733e-05
1.57915e-07
-5.06673e-05
1.57033e-07
-5.07611e-05
1.56124e-07
-5.08548e-05
1.55172e-07
-5.09482e-05
1.54203e-07
-5.10413e-05
1.53205e-07
-5.11342e-05
1.52192e-07
-5.12266e-05
1.51155e-07
-5.13187e-05
1.50102e-07
-5.14103e-05
1.4904e-07
-5.15015e-05
1.48012e-07
-5.15922e-05
1.4702e-07
-5.16824e-05
1.46067e-07
-5.1772e-05
1.45119e-07
-5.18612e-05
1.44192e-07
-5.19498e-05
1.43272e-07
-5.20379e-05
1.42388e-07
-5.21254e-05
1.41525e-07
-5.22124e-05
1.40715e-07