/*--------------------------------*- C++ -*----------------------------------*\
| =========                 |                                                 |
| \\      /  F ield         | OpenFOAM: The Open Source CFD Toolbox           |
|  \\    /   O peration     | Version:  2.1.0                                 |
|   \\  /    A nd           | Web:      www.OpenFOAM.org                      |
|    \\/     M anipulation  |                                                 |
\*---------------------------------------------------------------------------*/
FoamFile
{
    version     2.0;
    format      ascii;
    class       volScalarField;
    location    "0.38";
    object      rho;
}
// * * * * * * * * * * * * * * * * * * * * * * * * * * * * * * * * * * * * * //

dimensions      [1 -3 0 0 0 0 0];

internalField   nonuniform List<scalar> 
6400
(
954.733
954.435
954.147
953.866
953.594
953.329
953.07
952.818
952.573
952.334
952.101
951.874
951.654
951.439
951.23
951.027
950.83
950.638
950.452
950.271
950.096
949.926
949.76
949.6
949.445
949.295
949.149
949.008
948.872
948.74
948.612
948.489
948.37
948.255
948.145
948.038
947.935
947.836
947.74
947.649
947.56
947.476
947.394
947.316
947.242
947.17
947.101
947.036
946.973
946.913
946.856
946.802
946.75
946.701
946.654
946.61
946.568
946.528
946.491
946.455
946.421
946.39
946.36
946.332
946.306
946.282
946.259
946.239
946.221
946.204
946.19
946.177
946.167
946.159
946.153
946.149
946.148
946.15
946.154
946.162
946.174
946.19
946.211
946.239
946.276
946.325
946.39
946.481
946.609
946.799
947.104
947.633
948.653
950.739
953.802
949.402
944.836
944.558
944.555
944.555
952.967
952.715
952.466
952.223
951.987
951.756
951.532
951.313
951.1
950.892
950.69
950.492
950.301
950.114
949.932
949.755
949.584
949.417
949.254
949.097
948.944
948.795
948.651
948.511
948.376
948.245
948.118
947.995
947.876
947.761
947.65
947.542
947.438
947.338
947.241
947.148
947.059
946.972
946.889
946.809
946.732
946.658
946.587
946.519
946.454
946.391
946.331
946.274
946.219
946.166
946.116
946.068
946.023
945.979
945.937
945.897
945.859
945.822
945.787
945.754
945.722
945.691
945.662
945.634
945.608
945.582
945.558
945.535
945.512
945.491
945.471
945.452
945.433
945.415
945.399
945.383
945.368
945.354
945.34
945.328
945.317
945.307
945.298
945.29
945.284
945.279
945.276
945.275
945.274
945.274
945.271
945.259
945.226
945.147
944.991
944.764
944.578
944.555
944.555
944.555
952.167
951.939
951.71
951.486
951.268
951.054
950.846
950.643
950.445
950.251
950.063
949.878
949.699
949.524
949.354
949.188
949.026
948.868
948.715
948.566
948.421
948.281
948.144
948.011
947.882
947.757
947.635
947.518
947.404
947.293
947.186
947.083
946.983
946.886
946.792
946.702
946.615
946.531
946.451
946.373
946.298
946.226
946.156
946.09
946.026
945.965
945.906
945.849
945.795
945.743
945.694
945.646
945.6
945.557
945.515
945.475
945.437
945.4
945.365
945.331
945.299
945.268
945.239
945.21
945.183
945.157
945.131
945.106
945.082
945.059
945.036
945.014
944.992
944.971
944.95
944.929
944.909
944.888
944.868
944.848
944.827
944.807
944.787
944.768
944.748
944.729
944.709
944.69
944.672
944.653
944.635
944.618
944.602
944.587
944.574
944.566
944.557
944.555
944.555
944.555
951.846
951.635
951.42
951.21
951.003
950.8
950.602
950.408
950.218
950.032
949.851
949.673
949.5
949.33
949.164
949.002
948.844
948.69
948.539
948.392
948.249
948.109
947.973
947.84
947.71
947.584
947.461
947.342
947.225
947.112
947.003
946.896
946.793
946.692
946.595
946.501
946.41
946.321
946.236
946.153
946.074
945.997
945.923
945.851
945.783
945.717
945.653
945.592
945.533
945.477
945.423
945.372
945.323
945.275
945.231
945.188
945.147
945.108
945.071
945.036
945.003
944.972
944.942
944.913
944.886
944.861
944.836
944.813
944.792
944.771
944.751
944.733
944.716
944.699
944.684
944.67
944.656
944.644
944.632
944.622
944.612
944.603
944.595
944.588
944.582
944.576
944.572
944.568
944.565
944.562
944.56
944.558
944.557
944.556
944.556
944.555
944.555
944.555
944.555
944.555
952.051
951.854
951.652
951.451
951.253
951.059
950.867
950.679
950.495
950.313
950.136
949.961
949.79
949.622
949.457
949.296
949.138
948.982
948.83
948.681
948.535
948.392
948.252
948.115
947.981
947.849
947.721
947.595
947.472
947.352
947.235
947.12
947.008
946.898
946.792
946.687
946.586
946.487
946.391
946.298
946.207
946.118
946.033
945.95
945.869
945.792
945.717
945.644
945.575
945.508
945.443
945.381
945.322
945.266
945.212
945.161
945.112
945.066
945.022
944.981
944.942
944.906
944.872
944.84
944.811
944.784
944.758
944.735
944.714
944.695
944.677
944.661
944.647
944.634
944.622
944.612
944.603
944.595
944.588
944.582
944.577
944.573
944.569
944.566
944.563
944.561
944.559
944.558
944.557
944.556
944.556
944.555
944.555
944.555
944.555
944.555
944.555
944.555
944.555
944.555
952.992
952.808
952.62
952.432
952.245
952.06
951.878
951.698
951.521
951.346
951.174
951.004
950.838
950.673
950.512
950.352
950.195
950.04
949.888
949.738
949.59
949.445
949.301
949.16
949.021
948.884
948.75
948.617
948.487
948.358
948.231
948.107
947.984
947.863
947.744
947.627
947.512
947.399
947.288
947.178
947.071
946.965
946.862
946.76
946.661
946.563
946.468
946.375
946.284
946.195
946.108
946.024
945.942
945.862
945.785
945.71
945.637
945.568
945.5
945.436
945.374
945.314
945.257
945.203
945.152
945.103
945.057
945.013
944.972
944.934
944.898
944.864
944.832
944.803
944.776
944.751
944.728
944.707
944.688
944.67
944.654
944.639
944.626
944.614
944.604
944.594
944.586
944.578
944.572
944.567
944.563
944.56
944.558
944.556
944.556
944.555
944.555
944.555
944.555
944.555
955.035
954.871
954.702
954.533
954.364
954.197
954.032
953.868
953.706
953.547
953.389
953.234
953.08
952.928
952.778
952.63
952.483
952.337
952.193
952.05
951.908
951.767
951.628
951.49
951.353
951.218
951.084
950.951
950.82
950.689
950.56
950.431
950.304
950.177
950.051
949.926
949.802
949.678
949.555
949.432
949.31
949.189
949.068
948.947
948.827
948.707
948.587
948.468
948.349
948.23
948.112
947.994
947.877
947.76
947.644
947.528
947.413
947.299
947.185
947.073
946.961
946.851
946.742
946.635
946.529
946.425
946.323
946.223
946.125
946.03
945.937
945.846
945.758
945.673
945.591
945.511
945.434
945.36
945.288
945.22
945.154
945.092
945.032
944.975
944.92
944.869
944.82
944.774
944.732
944.694
944.659
944.63
944.607
944.589
944.578
944.572
944.567
944.564
944.561
944.56
958.524
958.386
958.246
958.105
957.965
957.826
957.689
957.553
957.419
957.287
957.158
957.029
956.903
956.778
956.655
956.533
956.413
956.294
956.176
956.059
955.943
955.828
955.714
955.601
955.489
955.377
955.266
955.155
955.045
954.935
954.825
954.715
954.605
954.495
954.385
954.274
954.162
954.05
953.937
953.823
953.708
953.592
953.475
953.356
953.235
953.113
952.99
952.864
952.737
952.607
952.476
952.342
952.207
952.069
951.928
951.786
951.641
951.493
951.343
951.191
951.036
950.879
950.72
950.558
950.394
950.228
950.06
949.891
949.719
949.546
949.371
949.194
949.017
948.838
948.659
948.478
948.297
948.114
947.931
947.747
947.561
947.374
947.185
946.994
946.801
946.606
946.41
946.212
946.014
945.817
945.626
945.442
945.272
945.12
944.994
944.904
944.83
944.771
944.727
944.7
963.817
963.721
963.623
963.525
963.429
963.334
963.241
963.15
963.061
962.974
962.889
962.805
962.724
962.645
962.567
962.491
962.417
962.344
962.273
962.204
962.136
962.069
962.003
961.936
961.871
961.805
961.739
961.673
961.607
961.54
961.472
961.404
961.335
961.264
961.193
961.12
961.046
960.971
960.893
960.815
960.734
960.652
960.568
960.481
960.393
960.303
960.21
960.115
960.018
959.918
959.816
959.711
959.603
959.493
959.379
959.263
959.143
959.02
958.894
958.764
958.63
958.492
958.351
958.205
958.054
957.899
957.739
957.575
957.404
957.229
957.048
956.86
956.667
956.466
956.259
956.044
955.82
955.588
955.346
955.093
954.828
954.549
954.255
953.943
953.612
953.258
952.88
952.474
952.037
951.569
951.069
950.54
949.985
949.413
948.834
948.272
947.788
947.346
946.971
946.701
971.007
970.964
970.921
970.878
970.837
970.797
970.757
970.719
970.682
970.645
970.61
970.575
970.542
970.509
970.477
970.446
970.415
970.385
970.356
970.326
970.297
970.268
970.239
970.21
970.182
970.153
970.124
970.094
970.065
970.035
970.005
969.975
969.944
969.914
969.882
969.851
969.819
969.787
969.754
969.721
969.688
969.654
969.62
969.585
969.55
969.515
969.479
969.443
969.407
969.37
969.333
969.295
969.257
969.218
969.179
969.139
969.099
969.058
969.018
968.976
968.935
968.893
968.85
968.806
968.761
968.714
968.666
968.616
968.565
968.511
968.455
968.396
968.334
968.268
968.198
968.124
968.045
967.96
967.869
967.77
967.664
967.548
967.422
967.285
967.135
966.971
966.793
966.59
966.354
966.078
965.756
965.38
964.943
964.432
963.834
963.131
962.317
961.476
960.675
960.039
978.638
978.647
978.655
978.663
978.671
978.678
978.684
978.691
978.697
978.703
978.708
978.713
978.717
978.722
978.726
978.731
978.735
978.739
978.743
978.748
978.752
978.758
978.763
978.769
978.776
978.783
978.79
978.799
978.809
978.819
978.83
978.843
978.856
978.87
978.886
978.903
978.921
978.94
978.961
978.982
979.006
979.03
979.056
979.084
979.113
979.143
979.175
979.209
979.245
979.282
979.321
979.362
979.405
979.45
979.498
979.548
979.6
979.655
979.712
979.773
979.836
979.903
979.973
980.048
980.127
980.212
980.302
980.398
980.5
980.61
980.726
980.851
980.985
981.128
981.282
981.446
981.622
981.81
982.012
982.227
982.457
982.703
982.963
983.24
983.533
983.842
984.167
984.515
984.895
985.31
985.767
986.263
986.799
987.38
988.009
988.686
989.41
990.164
990.912
991.579
984.803
984.854
984.906
984.96
985.013
985.067
985.12
985.174
985.227
985.28
985.333
985.386
985.438
985.491
985.543
985.595
985.647
985.7
985.752
985.805
985.857
985.911
985.964
986.018
986.072
986.127
986.182
986.238
986.295
986.353
986.412
986.472
986.533
986.595
986.658
986.723
986.789
986.857
986.927
986.998
987.071
987.146
987.223
987.302
987.384
987.467
987.554
987.643
987.734
987.828
987.925
988.026
988.129
988.235
988.345
988.459
988.576
988.697
988.822
988.952
989.086
989.225
989.37
989.521
989.677
989.84
990.01
990.187
990.372
990.565
990.766
990.976
991.195
991.424
991.663
991.912
992.171
992.441
992.721
993.011
993.311
993.621
993.938
994.264
994.596
994.932
995.272
995.613
995.952
996.288
996.615
996.942
997.269
997.59
997.9
998.195
998.471
998.718
998.928
999.085
989.408
989.479
989.553
989.63
989.708
989.788
989.867
989.948
990.028
990.11
990.191
990.272
990.354
990.436
990.518
990.6
990.683
990.766
990.849
990.933
991.017
991.102
991.187
991.273
991.359
991.446
991.533
991.621
991.71
991.8
991.89
991.982
992.074
992.167
992.261
992.357
992.453
992.551
992.649
992.75
992.851
992.954
993.058
993.164
993.271
993.38
993.49
993.603
993.716
993.832
993.95
994.069
994.19
994.314
994.439
994.567
994.697
994.829
994.963
995.1
995.238
995.379
995.523
995.668
995.816
995.966
996.118
996.272
996.428
996.586
996.746
996.907
997.069
997.232
997.396
997.56
997.724
997.887
998.048
998.208
998.365
998.518
998.667
998.811
998.949
999.08
999.203
999.317
999.422
999.517
999.601
999.673
999.732
999.785
999.831
999.869
999.9
999.925
999.943
999.955
992.752
992.826
992.905
992.988
993.072
993.158
993.245
993.332
993.419
993.507
993.596
993.684
993.773
993.862
993.951
994.041
994.13
994.221
994.311
994.402
994.493
994.584
994.676
994.768
994.861
994.954
995.047
995.141
995.235
995.329
995.424
995.519
995.615
995.711
995.807
995.904
996
996.098
996.195
996.293
996.39
996.488
996.586
996.684
996.782
996.88
996.978
997.075
997.173
997.27
997.367
997.463
997.559
997.654
997.75
997.844
997.938
998.031
998.123
998.215
998.305
998.394
998.482
998.568
998.653
998.737
998.818
998.898
998.976
999.051
999.125
999.196
999.265
999.331
999.394
999.455
999.513
999.568
999.62
999.668
999.713
999.755
999.793
999.828
999.859
999.886
999.91
999.93
999.947
999.961
999.971
999.98
999.985
999.989
999.992
999.995
999.996
999.998
999.998
999.999
995.011
995.081
995.156
995.235
995.316
995.398
995.481
995.564
995.647
995.731
995.814
995.898
995.982
996.066
996.149
996.233
996.317
996.4
996.484
996.567
996.65
996.734
996.817
996.9
996.982
997.065
997.147
997.229
997.311
997.392
997.473
997.553
997.633
997.713
997.792
997.87
997.948
998.025
998.101
998.176
998.25
998.323
998.395
998.467
998.537
998.605
998.673
998.739
998.803
998.867
998.928
998.989
999.047
999.104
999.159
999.213
999.265
999.314
999.363
999.409
999.453
999.495
999.536
999.574
999.611
999.646
999.678
999.709
999.738
999.766
999.791
999.815
999.837
999.857
999.876
999.893
999.908
999.922
999.935
999.946
999.956
999.964
999.972
999.978
999.983
999.988
999.991
999.994
999.996
999.997
999.998
999.999
999.999
1000
1000
1000
1000
1000
1000
1000
996.499
996.561
996.629
996.699
996.771
996.844
996.917
996.991
997.064
997.137
997.21
997.283
997.356
997.428
997.5
997.571
997.642
997.713
997.783
997.852
997.921
997.99
998.058
998.125
998.191
998.257
998.322
998.386
998.449
998.512
998.573
998.634
998.693
998.751
998.809
998.865
998.92
998.974
999.027
999.078
999.128
999.177
999.224
999.27
999.314
999.357
999.398
999.438
999.477
999.513
999.548
999.582
999.614
999.645
999.674
999.701
999.727
999.751
999.774
999.796
999.816
999.834
999.852
999.868
999.883
999.896
999.909
999.92
999.93
999.94
999.948
999.956
999.962
999.968
999.973
999.978
999.982
999.986
999.988
999.991
999.993
999.995
999.996
999.997
999.998
999.999
999.999
999.999
1000
1000
1000
1000
1000
1000
1000
1000
1000
1000
1000
1000
997.509
997.562
997.621
997.68
997.741
997.802
997.863
997.924
997.985
998.045
998.104
998.164
998.223
998.281
998.339
998.396
998.452
998.508
998.563
998.617
998.671
998.724
998.776
998.827
998.877
998.927
998.975
999.023
999.07
999.115
999.16
999.203
999.245
999.286
999.326
999.365
999.402
999.439
999.474
999.507
999.54
999.571
999.601
999.63
999.657
999.683
999.708
999.731
999.753
999.774
999.794
999.813
999.83
999.846
999.861
999.875
999.888
999.9
999.911
999.921
999.931
999.939
999.947
999.954
999.96
999.965
999.97
999.975
999.979
999.982
999.985
999.988
999.99
999.992
999.993
999.995
999.996
999.997
999.998
999.998
999.999
999.999
999.999
1000
1000
1000
1000
1000
1000
1000
1000
1000
1000
1000
1000
1000
1000
1000
1000
1000
998.227
998.271
998.319
998.368
998.416
998.465
998.514
998.562
998.609
998.657
998.703
998.75
998.795
998.84
998.884
998.928
998.971
999.013
999.055
999.096
999.136
999.175
999.213
999.251
999.287
999.323
999.358
999.392
999.425
999.458
999.489
999.519
999.548
999.576
999.603
999.629
999.654
999.678
999.701
999.723
999.744
999.763
999.782
999.8
999.817
999.832
999.847
999.861
999.874
999.886
999.897
999.908
999.917
999.926
999.934
999.942
999.949
999.955
999.961
999.966
999.97
999.974
999.978
999.981
999.984
999.987
999.989
999.991
999.992
999.994
999.995
999.996
999.997
999.997
999.998
999.998
999.999
999.999
999.999
1000
1000
1000
1000
1000
1000
1000
1000
1000
1000
1000
1000
1000
1000
1000
1000
1000
1000
1000
1000
1000
998.755
998.79
998.828
998.865
998.903
998.941
998.978
999.014
999.051
999.086
999.122
999.156
999.19
999.224
999.257
999.289
999.321
999.352
999.382
999.412
999.44
999.469
999.496
999.523
999.549
999.574
999.598
999.622
999.644
999.666
999.687
999.708
999.727
999.746
999.763
999.78
999.796
999.812
999.826
999.84
999.853
999.865
999.877
999.888
999.898
999.907
999.916
999.924
999.932
999.939
999.946
999.952
999.957
999.962
999.967
999.971
999.974
999.978
999.981
999.983
999.986
999.988
999.99
999.991
999.993
999.994
999.995
999.996
999.997
999.997
999.998
999.998
999.999
999.999
999.999
999.999
1000
1000
1000
1000
1000
1000
1000
1000
1000
1000
1000
1000
1000
1000
1000
1000
1000
1000
1000
1000
1000
1000
1000
1000
999.226
999.251
999.277
999.303
999.329
999.354
999.38
999.404
999.429
999.453
999.476
999.499
999.522
999.544
999.565
999.586
999.607
999.627
999.646
999.665
999.683
999.701
999.718
999.734
999.75
999.765
999.78
999.794
999.808
999.821
999.833
999.845
999.856
999.867
999.877
999.886
999.895
999.904
999.912
999.919
999.926
999.933
999.939
999.945
999.95
999.955
999.96
999.964
999.968
999.971
999.975
999.977
999.98
999.983
999.985
999.987
999.989
999.99
999.992
999.993
999.994
999.995
999.996
999.996
999.997
999.997
999.998
999.998
999.999
999.999
999.999
999.999
999.999
1000
1000
1000
1000
1000
1000
1000
1000
1000
1000
1000
1000
1000
1000
1000
1000
1000
1000
1000
1000
1000
1000
1000
1000
1000
1000
1000
944.555
944.555
944.555
944.555
944.555
944.555
944.555
944.555
944.555
944.555
944.555
944.555
944.555
944.555
944.555
944.555
944.555
944.555
944.555
944.556
944.555
944.555
944.555
944.555
944.555
944.555
944.555
944.555
944.555
944.555
944.555
944.555
944.555
944.555
944.555
944.555
944.555
944.556
944.557
944.561
944.555
944.555
944.555
944.555
944.555
944.555
944.555
944.555
944.555
944.555
944.555
944.555
944.555
944.555
944.555
944.555
944.556
944.558
944.564
944.584
944.555
944.555
944.555
944.555
944.555
944.555
944.555
944.555
944.555
944.555
944.555
944.555
944.555
944.556
944.557
944.558
944.563
944.573
944.605
944.736
944.555
944.555
944.555
944.555
944.555
944.555
944.555
944.555
944.555
944.555
944.556
944.557
944.558
944.561
944.565
944.575
944.598
944.657
944.841
945.662
944.555
944.555
944.555
944.555
944.556
944.556
944.557
944.558
944.559
944.561
944.563
944.568
944.575
944.587
944.61
944.658
944.764
945.038
945.926
950.145
944.561
944.562
944.564
944.567
944.571
944.575
944.58
944.586
944.592
944.6
944.612
944.63
944.659
944.708
944.798
944.973
945.352
946.295
949.304
963.63
944.705
944.724
944.745
944.77
944.796
944.822
944.844
944.86
944.874
944.895
944.926
944.977
945.061
945.205
945.465
945.959
946.971
949.323
956.021
983.044
946.658
946.763
946.866
946.968
947.055
947.092
947.099
947.075
947.064
947.058
947.075
947.12
947.231
947.458
947.978
949.041
951.236
955.839
966.047
994.131
959.86
960.068
960.274
960.464
960.606
960.626
960.613
960.608
960.592
960.544
960.491
960.401
960.36
960.337
960.712
961.891
964.867
970.702
981.356
994.012
991.896
991.813
991.758
991.727
991.755
991.936
992.169
992.413
992.672
992.974
993.306
993.715
994.173
994.76
995.234
995.553
995.56
995.675
996.843
997.823
999.132
999.095
999.063
999.034
999.018
999.031
999.065
999.123
999.182
999.247
999.313
999.389
999.464
999.549
999.613
999.655
999.665
999.681
999.777
999.272
999.956
999.951
999.946
999.94
999.935
999.93
999.929
999.931
999.936
999.942
999.949
999.956
999.963
999.969
999.974
999.977
999.979
999.98
999.976
999.813
999.999
999.999
999.998
999.998
999.998
999.997
999.997
999.997
999.997
999.997
999.997
999.998
999.998
999.998
999.999
999.999
999.999
999.999
999.997
999.979
1000
1000
1000
1000
1000
1000
1000
1000
1000
1000
1000
1000
1000
1000
1000
1000
1000
1000
1000
1000
1000
1000
1000
1000
1000
1000
1000
1000
1000
1000
1000
1000
1000
1000
1000
1000
1000
1000
1000
1000
1000
1000
1000
1000
1000
1000
1000
1000
1000
1000
1000
1000
1000
1000
1000
1000
1000
1000
1000
1000
1000
1000
1000
1000
1000
1000
1000
1000
1000
1000
1000
1000
1000
1000
1000
1000
1000
1000
1000
1000
1000
1000
1000
1000
1000
1000
1000
1000
1000
1000
1000
1000
1000
1000
1000
1000
1000
1000
1000
1000
1000
1000
1000
1000
1000
1000
1000
1000
1000
1000
1000
1000
1000
1000
1000
1000
1000
1000
1000
1000
944.555
944.555
944.555
944.555
944.555
944.555
944.555
944.555
944.555
944.555
944.555
944.555
944.555
944.555
944.555
944.555
944.555
944.555
944.555
944.555
944.555
944.555
944.555
944.555
944.555
944.555
944.555
944.555
944.555
944.555
944.555
944.555
944.555
944.555
944.555
944.555
944.555
944.555
944.555
944.555
944.555
944.555
944.555
944.555
944.555
944.555
944.555
944.555
944.555
944.555
944.555
944.555
944.555
944.555
944.555
944.555
944.555
944.555
944.555
944.555
944.555
944.555
944.555
944.555
944.555
944.555
944.555
944.555
944.555
944.555
944.555
944.555
944.555
944.555
944.555
944.555
944.555
944.555
944.555
944.555
944.555
944.555
944.555
944.555
944.555
944.555
944.555
944.555
944.555
944.555
944.555
944.555
944.555
944.555
944.555
944.555
944.555
944.555
944.555
944.555
944.555
944.555
944.555
944.555
944.555
944.555
944.555
944.555
944.555
944.555
944.555
944.555
944.555
944.555
944.555
944.555
944.555
944.555
944.555
944.555
944.555
944.555
944.555
944.555
944.555
944.555
944.555
944.555
944.555
944.555
944.555
944.555
944.555
944.555
944.555
944.555
944.555
944.555
944.555
944.555
944.555
944.555
944.555
944.555
944.555
944.555
944.555
944.555
944.555
944.555
944.555
944.555
944.555
944.555
944.555
944.555
944.555
944.555
944.555
944.555
944.555
944.555
944.555
944.555
944.555
944.555
944.555
944.555
944.555
944.555
944.555
944.555
944.555
944.555
944.555
944.555
944.555
944.555
944.555
944.555
944.555
944.555
944.555
944.555
944.555
944.555
944.555
944.555
944.555
944.555
944.555
944.555
944.555
944.555
944.555
944.555
944.555
944.555
944.555
944.555
944.555
944.555
944.555
944.555
944.555
944.555
944.555
944.555
944.555
944.555
944.555
944.555
944.555
944.555
944.555
944.555
944.555
944.555
944.555
944.555
944.555
944.555
944.555
944.555
944.555
944.555
944.555
944.555
944.555
944.555
944.555
944.555
944.555
944.555
944.555
944.555
944.555
944.555
944.555
944.555
944.555
944.555
944.555
944.555
944.555
944.555
944.555
944.555
944.555
944.555
944.555
944.555
944.555
944.555
944.555
944.555
944.555
944.555
944.555
944.555
944.555
944.555
944.555
944.555
944.555
944.555
944.555
944.555
944.555
944.555
944.555
944.555
944.555
944.555
944.555
944.555
944.555
944.555
944.555
944.555
944.555
944.555
944.555
944.555
944.555
944.555
944.555
944.555
944.555
944.555
944.555
944.555
944.555
944.555
944.555
944.555
944.555
944.555
944.555
944.555
944.555
944.555
944.555
944.555
944.555
944.555
944.555
944.555
944.555
944.555
944.555
944.555
944.555
944.555
944.555
944.555
944.555
944.555
944.555
944.555
944.555
944.555
944.555
944.555
944.555
944.555
944.555
944.555
944.555
944.555
944.555
944.555
944.555
944.555
944.555
944.555
944.555
944.555
944.555
944.555
944.555
944.555
944.555
944.555
944.555
944.555
944.555
944.555
944.555
944.555
944.555
944.555
944.555
944.555
944.555
944.555
944.555
944.555
944.555
944.555
944.555
944.555
944.555
944.555
944.555
944.555
944.555
944.555
944.555
944.555
944.555
944.555
944.555
944.555
944.555
944.555
944.555
944.555
944.555
944.555
944.555
944.555
944.555
944.555
944.555
944.555
944.555
944.555
944.555
944.555
944.555
944.555
944.555
944.555
944.555
944.555
944.555
944.555
944.555
944.555
944.555
944.555
944.555
944.555
944.555
944.555
944.555
944.555
944.555
944.555
944.555
944.555
944.555
944.555
944.555
944.555
944.555
944.555
944.555
944.555
944.555
944.555
944.555
944.555
944.555
944.555
944.555
944.555
944.555
944.555
944.555
944.555
944.555
944.555
944.555
944.555
944.555
944.555
944.555
944.555
944.555
944.555
944.555
944.555
944.555
944.555
944.555
944.555
944.555
944.555
944.555
944.555
944.555
944.555
944.555
944.555
944.555
944.555
944.555
944.555
944.555
944.555
944.555
944.555
944.555
944.555
944.555
944.555
944.555
944.555
944.555
944.555
944.555
944.555
944.555
944.555
944.555
944.555
944.555
944.555
944.555
944.555
944.555
944.555
944.555
944.555
944.555
944.555
944.555
944.555
944.555
944.555
944.555
944.555
944.555
944.555
944.555
944.555
944.555
944.555
944.555
944.555
944.555
944.555
944.555
944.555
944.555
944.555
944.555
944.555
944.555
944.555
944.555
944.555
944.555
944.555
944.555
944.555
944.555
944.555
944.555
944.555
944.555
944.555
944.555
944.555
944.555
944.555
944.555
944.555
944.555
944.555
944.555
944.555
944.555
944.555
944.555
944.555
944.555
944.555
944.555
944.555
944.555
944.555
944.555
944.555
944.555
944.555
944.555
944.555
944.555
944.555
944.555
944.555
944.555
944.555
944.555
944.555
944.555
944.555
944.555
944.555
944.555
944.555
944.555
944.555
944.555
944.555
944.555
944.555
944.555
944.555
944.555
944.555
944.555
944.555
944.555
944.555
944.555
944.555
944.555
944.555
944.555
944.555
944.555
944.555
944.555
944.555
944.555
944.555
944.555
944.555
944.555
944.555
944.555
944.555
944.555
944.555
944.555
944.555
944.555
944.555
944.555
944.555
944.555
944.555
944.555
944.555
944.555
944.555
944.555
944.555
944.555
944.555
944.555
944.555
944.555
944.555
944.555
944.555
944.555
944.555
944.555
944.555
944.555
944.555
944.555
944.555
944.555
944.555
944.555
944.555
944.555
944.555
944.555
944.555
944.555
944.555
944.555
944.555
944.555
944.555
944.555
944.555
944.555
944.555
944.555
944.555
944.555
944.555
944.555
944.555
944.555
944.555
944.555
944.555
944.555
944.555
944.555
944.555
944.555
944.555
944.555
944.555
944.555
944.555
944.555
944.555
944.555
944.555
944.555
944.555
944.555
944.555
944.555
944.555
944.555
944.555
944.555
944.555
944.555
944.555
944.555
944.555
944.555
944.555
944.555
944.555
944.555
944.555
944.555
944.555
944.555
944.555
944.555
944.555
944.555
944.555
944.555
944.555
944.555
944.555
944.555
944.555
944.555
944.555
944.555
944.555
944.555
944.555
944.555
944.555
944.555
944.555
944.555
944.555
944.555
944.555
944.555
944.555
944.555
944.555
944.555
944.555
944.555
944.555
944.555
944.555
944.555
944.555
944.555
944.555
944.555
944.555
944.555
944.555
944.555
944.555
944.555
944.555
944.555
944.555
944.555
944.555
944.555
944.555
944.555
944.555
944.555
944.555
944.555
944.555
944.555
944.555
944.555
944.555
944.555
944.555
944.555
944.555
944.555
944.555
944.555
944.555
944.555
944.555
944.555
944.555
944.555
944.555
944.555
944.555
944.555
944.555
944.555
944.555
944.555
944.555
944.555
944.555
944.555
944.555
944.555
944.555
944.555
944.555
944.555
944.555
944.555
944.555
944.555
944.555
944.555
944.555
944.555
944.555
944.555
944.555
944.555
944.555
944.555
944.555
944.555
944.555
944.555
944.555
944.555
944.555
944.555
944.555
944.555
944.555
944.555
944.555
944.555
944.555
944.555
944.555
944.555
944.555
944.555
944.555
944.555
944.555
944.555
944.555
944.555
944.555
944.555
944.555
944.555
944.555
944.555
944.555
944.555
944.555
944.555
944.555
944.555
944.555
944.555
944.555
944.555
944.555
944.555
944.555
944.555
944.555
944.555
944.555
944.555
944.555
944.555
944.555
944.555
944.555
944.555
944.555
944.555
944.555
944.555
944.555
944.555
944.555
944.555
944.555
944.555
944.555
944.555
944.555
944.555
944.555
944.555
944.555
944.555
944.555
944.555
944.555
944.555
944.555
944.555
944.555
944.555
944.555
944.555
944.555
944.555
944.555
944.555
944.555
944.555
944.555
944.555
944.555
944.555
944.555
944.555
944.555
944.555
944.555
944.555
944.555
944.555
944.555
944.555
944.555
944.555
944.555
944.555
944.555
944.555
944.555
944.555
944.555
944.555
944.555
944.555
944.555
944.555
944.555
944.555
944.555
944.555
944.555
944.555
944.555
944.555
944.555
944.555
944.555
944.555
944.555
944.555
944.555
944.555
944.555
944.555
944.555
944.555
944.555
944.555
944.555
944.555
944.555
944.555
944.555
944.555
944.555
944.555
944.555
944.555
944.555
944.555
944.555
944.555
944.555
944.555
944.555
944.555
944.555
944.555
944.555
944.555
944.555
944.555
944.555
944.555
944.555
944.555
944.555
944.555
944.555
944.555
944.555
944.555
944.555
944.555
944.555
944.555
944.555
944.555
944.555
944.555
944.555
944.555
944.555
944.555
944.555
944.555
944.555
944.555
944.555
944.555
944.555
944.555
944.555
944.555
944.555
944.555
944.555
944.555
944.555
944.555
944.555
944.555
944.555
944.555
944.555
944.555
944.555
944.555
944.555
944.555
944.555
944.555
944.555
944.555
944.555
944.555
944.555
944.555
944.555
944.555
944.555
944.555
944.555
944.555
944.555
944.555
944.555
944.555
944.555
944.555
944.555
944.555
944.555
944.555
944.555
944.555
944.555
944.555
944.555
944.555
944.555
944.555
944.555
944.555
944.555
944.555
944.555
944.555
944.555
944.555
944.555
944.555
944.555
944.555
944.555
944.555
944.555
944.555
944.555
944.555
944.555
944.555
944.555
944.555
944.555
944.555
944.555
944.555
944.555
944.555
944.555
944.555
944.555
944.555
944.555
944.555
944.555
944.555
944.555
944.555
944.555
944.555
944.555
944.555
944.555
944.555
944.555
944.555
944.555
944.555
944.555
944.555
944.555
944.555
944.555
944.555
944.555
944.555
944.555
944.555
944.555
944.555
944.555
944.555
944.555
944.555
944.555
944.555
944.555
944.555
944.555
944.555
944.555
944.555
944.555
944.555
944.555
944.555
944.555
944.555
944.555
944.555
944.555
944.555
944.555
944.555
944.555
944.555
944.555
944.555
944.555
944.555
944.555
944.555
944.555
944.555
944.555
944.555
944.555
944.555
944.555
944.555
944.555
944.555
944.555
944.555
944.555
944.555
944.555
944.555
944.555
944.555
944.555
944.555
944.555
944.555
944.555
944.555
944.555
944.555
944.555
944.555
944.555
944.555
944.555
944.555
944.555
944.555
944.555
944.555
944.555
944.555
944.555
944.555
944.555
944.555
944.555
944.555
944.555
944.555
944.555
944.555
944.555
944.555
944.555
944.555
944.555
944.555
944.555
944.555
944.555
944.555
944.555
944.555
944.555
944.555
944.555
944.555
944.555
944.555
944.555
944.555
944.555
944.555
944.555
944.555
944.555
944.555
944.555
944.555
944.555
944.555
944.555
944.555
944.555
944.555
944.555
944.555
944.555
944.555
944.555
944.555
944.555
944.555
944.555
944.555
944.555
944.555
944.555
944.555
944.555
944.555
944.555
944.555
944.555
944.555
944.555
944.555
944.555
944.555
944.555
944.555
944.555
944.555
944.555
944.555
944.555
944.555
944.555
944.555
944.555
944.555
944.555
944.555
944.555
944.555
944.555
944.555
944.555
944.555
944.555
944.555
944.555
944.555
944.555
944.555
944.555
944.555
944.555
944.555
944.555
944.555
944.555
944.555
944.555
944.555
944.555
944.555
944.555
944.555
944.555
944.555
944.555
944.555
944.555
944.555
944.555
944.555
944.555
944.555
944.555
944.555
944.555
944.555
944.555
944.555
944.555
944.555
944.555
944.555
944.555
944.555
944.555
944.555
944.555
944.555
944.555
944.555
944.555
944.555
944.555
944.555
944.555
944.555
944.555
944.555
944.555
944.555
944.555
944.555
944.555
944.555
944.555
944.555
944.555
944.555
944.555
944.555
944.555
944.555
944.555
944.555
944.555
944.555
944.555
944.555
944.555
944.555
944.555
944.555
944.555
944.555
944.555
944.555
944.555
944.555
944.555
944.555
944.555
944.555
944.555
944.555
944.555