/*--------------------------------*- C++ -*----------------------------------*\
| =========                 |                                                 |
| \\      /  F ield         | OpenFOAM: The Open Source CFD Toolbox           |
|  \\    /   O peration     | Version:  2.1.0                                 |
|   \\  /    A nd           | Web:      www.OpenFOAM.org                      |
|    \\/     M anipulation  |                                                 |
\*---------------------------------------------------------------------------*/
FoamFile
{
    version     2.0;
    format      ascii;
    class       volScalarField;
    location    "0.38";
    object      T;
}
// * * * * * * * * * * * * * * * * * * * * * * * * * * * * * * * * * * * * * //

dimensions      [0 0 0 1 0 0 0];

internalField   nonuniform List<scalar> 
6400
(
373.92
374.477
375.017
375.541
376.051
376.549
377.033
377.506
377.966
378.415
378.853
379.279
379.694
380.098
380.491
380.873
381.245
381.606
381.957
382.298
382.63
382.951
383.263
383.566
383.859
384.143
384.419
384.685
384.943
385.193
385.434
385.667
385.893
386.11
386.32
386.523
386.718
386.906
387.087
387.261
387.428
387.589
387.743
387.891
388.033
388.169
388.3
388.424
388.543
388.657
388.765
388.869
388.967
389.06
389.149
389.233
389.313
389.389
389.46
389.528
389.592
389.653
389.709
389.763
389.812
389.858
389.9
389.939
389.974
390.005
390.033
390.057
390.077
390.092
390.104
390.11
390.113
390.109
390.101
390.086
390.064
390.033
389.993
389.939
389.869
389.776
389.651
389.48
389.236
388.873
388.295
387.29
385.358
381.417
375.663
383.941
392.613
393.143
393.15
393.15
377.228
377.699
378.168
378.624
379.068
379.501
379.924
380.335
380.737
381.128
381.51
381.881
382.243
382.596
382.939
383.273
383.597
383.913
384.22
384.518
384.807
385.088
385.361
385.625
385.882
386.13
386.371
386.604
386.83
387.048
387.259
387.463
387.66
387.85
388.033
388.21
388.381
388.545
388.703
388.855
389.001
389.142
389.277
389.406
389.531
389.65
389.764
389.873
389.978
390.077
390.173
390.264
390.351
390.434
390.514
390.59
390.663
390.733
390.8
390.863
390.924
390.982
391.038
391.091
391.141
391.19
391.236
391.28
391.323
391.363
391.402
391.439
391.474
391.508
391.54
391.57
391.599
391.626
391.651
391.674
391.696
391.715
391.732
391.747
391.759
391.767
391.773
391.776
391.777
391.777
391.783
391.806
391.87
392.019
392.317
392.749
393.105
393.149
393.15
393.15
378.73
379.158
379.589
380.01
380.421
380.822
381.215
381.598
381.972
382.337
382.693
383.04
383.379
383.71
384.032
384.346
384.652
384.95
385.239
385.522
385.796
386.063
386.322
386.574
386.818
387.056
387.286
387.509
387.726
387.936
388.139
388.335
388.525
388.709
388.887
389.058
389.223
389.383
389.537
389.685
389.827
389.964
390.096
390.223
390.345
390.461
390.573
390.681
390.784
390.883
390.977
391.068
391.155
391.238
391.318
391.394
391.467
391.537
391.604
391.668
391.729
391.788
391.844
391.899
391.951
392.001
392.05
392.097
392.143
392.187
392.23
392.273
392.314
392.355
392.395
392.435
392.474
392.514
392.552
392.591
392.629
392.667
392.705
392.743
392.781
392.818
392.855
392.891
392.927
392.962
392.996
393.029
393.06
393.089
393.112
393.128
393.146
393.15
393.15
393.15
379.332
379.729
380.134
380.531
380.92
381.302
381.675
382.041
382.399
382.75
383.093
383.428
383.756
384.077
384.39
384.696
384.995
385.287
385.573
385.851
386.123
386.388
386.646
386.898
387.144
387.384
387.617
387.844
388.064
388.279
388.487
388.69
388.886
389.077
389.262
389.441
389.615
389.783
389.945
390.102
390.254
390.4
390.541
390.677
390.808
390.934
391.055
391.171
391.283
391.39
391.492
391.591
391.685
391.774
391.86
391.942
392.019
392.093
392.164
392.23
392.294
392.354
392.411
392.466
392.517
392.566
392.612
392.656
392.698
392.737
392.774
392.809
392.842
392.874
392.903
392.93
392.956
392.98
393.002
393.022
393.041
393.057
393.073
393.086
393.098
393.108
393.117
393.125
393.131
393.136
393.14
393.143
393.145
393.147
393.148
393.149
393.15
393.15
393.15
393.15
378.947
379.318
379.699
380.076
380.448
380.815
381.176
381.53
381.878
382.22
382.555
382.885
383.208
383.525
383.836
384.142
384.441
384.734
385.022
385.304
385.581
385.852
386.117
386.377
386.631
386.88
387.124
387.363
387.596
387.824
388.047
388.265
388.478
388.686
388.889
389.086
389.279
389.467
389.65
389.828
390.001
390.169
390.332
390.49
390.643
390.791
390.934
391.072
391.204
391.332
391.455
391.573
391.686
391.793
391.896
391.994
392.087
392.175
392.258
392.336
392.41
392.479
392.544
392.605
392.661
392.713
392.761
392.805
392.846
392.883
392.917
392.947
392.975
392.999
393.021
393.041
393.058
393.073
393.086
393.098
393.107
393.116
393.123
393.129
393.134
393.138
393.141
393.144
393.146
393.147
393.148
393.149
393.149
393.15
393.15
393.15
393.15
393.15
393.15
393.15
377.182
377.526
377.879
378.233
378.584
378.931
379.274
379.612
379.946
380.275
380.598
380.917
381.232
381.541
381.846
382.147
382.443
382.735
383.023
383.306
383.586
383.861
384.132
384.398
384.661
384.92
385.175
385.426
385.673
385.917
386.157
386.393
386.625
386.855
387.08
387.302
387.52
387.735
387.946
388.154
388.358
388.558
388.755
388.948
389.137
389.322
389.504
389.681
389.854
390.024
390.189
390.349
390.506
390.657
390.804
390.947
391.085
391.218
391.346
391.469
391.588
391.701
391.809
391.912
392.01
392.103
392.192
392.275
392.353
392.427
392.496
392.56
392.62
392.676
392.727
392.775
392.819
392.859
392.896
392.93
392.961
392.989
393.014
393.036
393.057
393.075
393.091
393.105
393.117
393.126
393.134
393.14
393.144
393.147
393.148
393.149
393.149
393.149
393.15
393.15
373.358
373.664
373.979
374.296
374.611
374.924
375.234
375.54
375.843
376.142
376.437
376.729
377.017
377.301
377.583
377.862
378.138
378.411
378.682
378.951
379.217
379.482
379.744
380.004
380.261
380.515
380.768
381.018
381.266
381.512
381.756
381.998
382.239
382.478
382.716
382.952
383.186
383.42
383.653
383.884
384.115
384.345
384.574
384.802
385.029
385.256
385.483
385.709
385.934
386.158
386.382
386.606
386.828
387.05
387.27
387.49
387.709
387.926
388.141
388.355
388.566
388.776
388.983
389.187
389.388
389.585
389.779
389.97
390.156
390.337
390.514
390.687
390.854
391.017
391.174
391.326
391.472
391.614
391.75
391.881
392.006
392.125
392.24
392.349
392.452
392.55
392.643
392.73
392.811
392.885
392.95
393.006
393.05
393.084
393.105
393.118
393.127
393.133
393.137
393.139
366.864
367.12
367.38
367.642
367.902
368.16
368.415
368.667
368.915
369.161
369.402
369.641
369.875
370.108
370.337
370.564
370.787
371.009
371.229
371.447
371.663
371.878
372.09
372.301
372.511
372.72
372.927
373.134
373.34
373.545
373.75
373.956
374.161
374.367
374.574
374.781
374.99
375.199
375.411
375.624
375.839
376.057
376.277
376.5
376.725
376.954
377.186
377.422
377.661
377.904
378.15
378.401
378.656
378.916
379.18
379.448
379.721
379.998
380.28
380.567
380.858
381.154
381.454
381.759
382.068
382.381
382.698
383.019
383.343
383.67
384.001
384.334
384.669
385.007
385.347
385.689
386.033
386.379
386.726
387.075
387.428
387.783
388.142
388.504
388.871
389.241
389.615
389.991
390.368
390.742
391.107
391.457
391.782
392.071
392.311
392.483
392.625
392.738
392.821
392.872
357.104
357.281
357.461
357.64
357.816
357.991
358.16
358.328
358.491
358.652
358.808
358.961
359.11
359.257
359.399
359.54
359.676
359.81
359.94
360.068
360.193
360.316
360.438
360.56
360.681
360.802
360.923
361.045
361.167
361.29
361.415
361.541
361.669
361.798
361.93
362.064
362.201
362.34
362.482
362.628
362.776
362.928
363.084
363.243
363.406
363.573
363.744
363.919
364.099
364.283
364.473
364.667
364.866
365.071
365.281
365.496
365.718
365.946
366.18
366.421
366.668
366.923
367.186
367.457
367.736
368.024
368.321
368.627
368.943
369.27
369.607
369.955
370.315
370.688
371.075
371.476
371.892
372.325
372.777
373.249
373.745
374.266
374.816
375.399
376.02
376.682
377.392
378.155
378.975
379.856
380.796
381.794
382.839
383.92
385.016
386.081
386.998
387.836
388.547
389.061
344.016
344.094
344.172
344.249
344.323
344.397
344.468
344.537
344.605
344.67
344.734
344.796
344.857
344.916
344.974
345.031
345.086
345.141
345.194
345.247
345.3
345.352
345.405
345.457
345.509
345.562
345.614
345.667
345.72
345.774
345.828
345.883
345.938
345.994
346.051
346.108
346.166
346.224
346.283
346.343
346.404
346.465
346.527
346.589
346.652
346.716
346.781
346.846
346.913
346.979
347.047
347.115
347.185
347.255
347.326
347.398
347.471
347.544
347.619
347.693
347.769
347.845
347.923
348.002
348.085
348.169
348.256
348.347
348.44
348.538
348.64
348.747
348.86
348.979
349.106
349.241
349.384
349.539
349.705
349.884
350.078
350.289
350.518
350.768
351.041
351.339
351.664
352.034
352.465
352.968
353.556
354.242
355.043
355.977
357.073
358.364
359.86
361.408
362.885
364.06
330.335
330.32
330.306
330.291
330.278
330.265
330.254
330.242
330.232
330.221
330.212
330.203
330.195
330.187
330.179
330.171
330.164
330.156
330.149
330.141
330.132
330.123
330.114
330.103
330.092
330.079
330.065
330.049
330.033
330.014
329.994
329.972
329.949
329.923
329.895
329.865
329.833
329.799
329.762
329.724
329.682
329.639
329.592
329.544
329.492
329.438
329.381
329.321
329.258
329.192
329.122
329.049
328.973
328.892
328.808
328.719
328.627
328.529
328.427
328.32
328.208
328.09
327.965
327.832
327.691
327.541
327.382
327.211
327.03
326.836
326.629
326.408
326.171
325.918
325.647
325.356
325.045
324.712
324.356
323.975
323.569
323.136
322.676
322.188
321.672
321.128
320.556
319.944
319.278
318.549
317.748
316.879
315.939
314.924
313.826
312.644
311.385
310.072
308.774
307.618
319.438
319.348
319.257
319.163
319.07
318.976
318.882
318.788
318.695
318.601
318.509
318.416
318.324
318.231
318.14
318.048
317.957
317.864
317.773
317.681
317.588
317.495
317.402
317.307
317.213
317.116
317.02
316.921
316.822
316.72
316.617
316.513
316.406
316.297
316.186
316.073
315.957
315.838
315.716
315.592
315.464
315.333
315.198
315.06
314.918
314.771
314.62
314.465
314.306
314.141
313.971
313.796
313.616
313.43
313.239
313.041
312.837
312.626
312.408
312.182
311.948
311.705
311.453
311.191
310.919
310.635
310.34
310.032
309.711
309.377
309.027
308.663
308.282
307.886
307.472
307.041
306.592
306.126
305.641
305.14
304.622
304.088
303.539
302.978
302.407
301.827
301.243
300.657
300.074
299.498
298.936
298.376
297.815
297.266
296.735
296.23
295.759
295.336
294.979
294.711
311.388
311.264
311.135
311
310.865
310.727
310.588
310.448
310.308
310.167
310.027
309.885
309.743
309.601
309.458
309.315
309.172
309.027
308.883
308.737
308.591
308.444
308.297
308.148
307.999
307.848
307.697
307.544
307.39
307.235
307.078
306.92
306.761
306.599
306.436
306.271
306.105
305.936
305.765
305.592
305.416
305.239
305.059
304.876
304.691
304.503
304.312
304.119
303.922
303.723
303.52
303.314
303.105
302.892
302.676
302.456
302.233
302.006
301.774
301.539
301.301
301.058
300.812
300.562
300.308
300.05
299.789
299.525
299.257
298.986
298.712
298.436
298.158
297.878
297.598
297.317
297.037
296.758
296.481
296.208
295.94
295.678
295.423
295.178
294.943
294.719
294.509
294.314
294.135
293.973
293.83
293.707
293.606
293.516
293.439
293.374
293.32
293.278
293.247
293.226
305.587
305.46
305.323
305.18
305.034
304.886
304.737
304.586
304.435
304.283
304.131
303.978
303.825
303.671
303.518
303.363
303.208
303.053
302.897
302.741
302.584
302.427
302.269
302.11
301.951
301.791
301.63
301.469
301.307
301.144
300.981
300.818
300.653
300.489
300.323
300.157
299.991
299.824
299.657
299.489
299.321
299.154
298.986
298.818
298.65
298.482
298.314
298.147
297.98
297.814
297.648
297.483
297.319
297.155
296.993
296.831
296.67
296.511
296.353
296.197
296.042
295.89
295.74
295.592
295.447
295.305
295.166
295.03
294.897
294.768
294.642
294.521
294.404
294.291
294.182
294.079
293.98
293.886
293.798
293.716
293.639
293.568
293.503
293.444
293.391
293.344
293.304
293.27
293.241
293.217
293.199
293.185
293.175
293.168
293.163
293.159
293.156
293.154
293.153
293.152
301.692
301.572
301.442
301.306
301.167
301.026
300.884
300.741
300.598
300.454
300.31
300.167
300.023
299.879
299.735
299.592
299.448
299.305
299.161
299.018
298.875
298.733
298.59
298.448
298.306
298.165
298.024
297.884
297.744
297.605
297.466
297.328
297.191
297.055
296.92
296.786
296.653
296.522
296.392
296.263
296.136
296.011
295.888
295.766
295.647
295.529
295.414
295.301
295.191
295.083
294.977
294.875
294.775
294.678
294.583
294.492
294.404
294.319
294.237
294.158
294.082
294.01
293.941
293.876
293.813
293.754
293.698
293.645
293.596
293.549
293.506
293.465
293.428
293.393
293.362
293.333
293.306
293.282
293.261
293.242
293.225
293.211
293.198
293.187
293.178
293.171
293.165
293.161
293.157
293.155
293.153
293.152
293.151
293.151
293.15
293.15
293.15
293.15
293.15
293.15
299.135
299.029
298.912
298.792
298.668
298.543
298.418
298.292
298.166
298.041
297.916
297.791
297.667
297.543
297.42
297.298
297.177
297.056
296.936
296.817
296.698
296.581
296.465
296.35
296.237
296.124
296.013
295.904
295.796
295.689
295.584
295.481
295.38
295.28
295.182
295.086
294.992
294.9
294.81
294.722
294.637
294.554
294.473
294.395
294.319
294.246
294.176
294.108
294.042
293.98
293.92
293.862
293.807
293.755
293.706
293.659
293.615
293.574
293.535
293.498
293.464
293.432
293.403
293.375
293.35
293.327
293.306
293.286
293.269
293.253
293.239
293.226
293.214
293.204
293.195
293.187
293.181
293.175
293.17
293.165
293.162
293.159
293.157
293.155
293.153
293.152
293.152
293.151
293.151
293.15
293.15
293.15
293.15
293.15
293.15
293.15
293.15
293.15
293.15
293.15
297.404
297.313
297.213
297.111
297.007
296.903
296.798
296.694
296.59
296.488
296.385
296.284
296.183
296.084
295.985
295.888
295.791
295.696
295.602
295.509
295.417
295.327
295.238
295.15
295.064
294.98
294.897
294.816
294.737
294.659
294.583
294.509
294.437
294.367
294.299
294.232
294.169
294.107
294.047
293.989
293.934
293.881
293.83
293.781
293.735
293.69
293.648
293.608
293.57
293.535
293.501
293.469
293.44
293.412
293.386
293.363
293.34
293.32
293.301
293.284
293.268
293.254
293.241
293.229
293.218
293.209
293.2
293.193
293.186
293.18
293.175
293.171
293.167
293.164
293.161
293.159
293.157
293.155
293.154
293.153
293.152
293.152
293.151
293.151
293.151
293.15
293.15
293.15
293.15
293.15
293.15
293.15
293.15
293.15
293.15
293.15
293.15
293.15
293.15
293.15
296.176
296.1
296.018
295.935
295.852
295.769
295.686
295.604
295.522
295.442
295.362
295.283
295.205
295.128
295.053
294.978
294.905
294.833
294.762
294.692
294.624
294.557
294.492
294.427
294.365
294.304
294.244
294.186
294.129
294.074
294.021
293.97
293.92
293.872
293.826
293.781
293.739
293.698
293.659
293.622
293.587
293.553
293.521
293.491
293.463
293.436
293.411
293.387
293.365
293.344
293.325
293.307
293.291
293.276
293.262
293.249
293.237
293.227
293.217
293.208
293.201
293.194
293.187
293.182
293.177
293.173
293.169
293.166
293.163
293.161
293.159
293.157
293.156
293.154
293.153
293.153
293.152
293.151
293.151
293.151
293.151
293.15
293.15
293.15
293.15
293.15
293.15
293.15
293.15
293.15
293.15
293.15
293.15
293.15
293.15
293.15
293.15
293.15
293.15
293.15
295.274
295.214
295.15
295.085
295.021
294.957
294.893
294.831
294.769
294.708
294.648
294.588
294.53
294.473
294.417
294.362
294.308
294.255
294.203
294.153
294.104
294.056
294.009
293.964
293.919
293.877
293.835
293.795
293.756
293.719
293.683
293.648
293.615
293.584
293.553
293.524
293.497
293.471
293.446
293.422
293.4
293.379
293.36
293.341
293.324
293.308
293.293
293.279
293.266
293.254
293.243
293.233
293.223
293.215
293.207
293.2
293.194
293.188
293.183
293.178
293.174
293.171
293.167
293.165
293.162
293.16
293.158
293.157
293.156
293.155
293.154
293.153
293.152
293.152
293.151
293.151
293.151
293.151
293.15
293.15
293.15
293.15
293.15
293.15
293.15
293.15
293.15
293.15
293.15
293.15
293.15
293.15
293.15
293.15
293.15
293.15
293.15
293.15
293.15
293.15
294.47
294.427
294.383
294.338
294.294
294.251
294.208
294.165
294.124
294.083
294.043
294.003
293.965
293.927
293.891
293.855
293.82
293.786
293.753
293.721
293.69
293.66
293.631
293.603
293.576
293.55
293.525
293.501
293.478
293.456
293.435
293.415
293.395
293.377
293.36
293.344
293.328
293.314
293.3
293.288
293.275
293.264
293.254
293.244
293.235
293.227
293.219
293.212
293.205
293.199
293.193
293.188
293.184
293.18
293.176
293.173
293.17
293.167
293.164
293.162
293.161
293.159
293.157
293.156
293.155
293.154
293.154
293.153
293.152
293.152
293.151
293.151
293.151
293.151
293.151
293.15
293.15
293.15
293.15
293.15
293.15
293.15
293.15
293.15
293.15
293.15
293.15
293.15
293.15
293.15
293.15
293.15
293.15
293.15
293.15
293.15
293.15
293.15
293.15
293.15
393.15
393.15
393.15
393.15
393.15
393.15
393.15
393.15
393.15
393.15
393.15
393.15
393.15
393.15
393.15
393.15
393.15
393.149
393.149
393.146
393.15
393.15
393.15
393.15
393.15
393.15
393.15
393.15
393.15
393.15
393.15
393.15
393.15
393.15
393.15
393.15
393.149
393.148
393.146
393.138
393.15
393.15
393.15
393.15
393.15
393.15
393.15
393.15
393.15
393.15
393.15
393.15
393.15
393.15
393.149
393.149
393.147
393.143
393.133
393.093
393.15
393.15
393.15
393.15
393.15
393.15
393.15
393.15
393.15
393.15
393.15
393.149
393.149
393.148
393.146
393.143
393.135
393.115
393.054
392.804
393.15
393.15
393.15
393.15
393.15
393.15
393.15
393.149
393.149
393.149
393.148
393.146
393.144
393.139
393.13
393.11
393.067
392.955
392.603
391.038
393.15
393.149
393.149
393.149
393.148
393.147
393.146
393.144
393.142
393.139
393.133
393.125
393.112
393.088
393.044
392.953
392.749
392.227
390.535
382.536
393.138
393.135
393.131
393.126
393.119
393.111
393.102
393.09
393.078
393.063
393.041
393.006
392.951
392.857
392.686
392.351
391.629
389.833
384.125
357.446
392.864
392.827
392.786
392.739
392.688
392.64
392.598
392.568
392.54
392.501
392.441
392.344
392.184
391.909
391.413
390.472
388.547
384.09
371.517
322.534
389.142
388.943
388.748
388.553
388.388
388.318
388.305
388.35
388.372
388.382
388.349
388.265
388.054
387.623
386.637
384.623
380.482
371.856
353.024
303.207
364.392
364.006
363.625
363.274
363.012
362.975
363.001
363.01
363.038
363.128
363.225
363.391
363.467
363.51
362.817
360.643
355.179
344.567
325.515
303.412
307.068
307.212
307.308
307.362
307.312
306.999
306.596
306.175
305.727
305.204
304.63
303.925
303.135
302.124
301.308
300.76
300.747
300.549
298.545
296.867
294.63
294.693
294.748
294.796
294.825
294.803
294.745
294.646
294.545
294.434
294.321
294.191
294.064
293.919
293.81
293.738
293.721
293.693
293.53
294.391
293.224
293.233
293.242
293.252
293.261
293.269
293.272
293.268
293.26
293.248
293.237
293.225
293.214
293.203
293.195
293.189
293.186
293.183
293.19
293.469
293.152
293.152
293.153
293.153
293.154
293.155
293.155
293.156
293.156
293.155
293.155
293.154
293.154
293.153
293.153
293.152
293.152
293.152
293.155
293.186
293.15
293.15
293.15
293.15
293.15
293.15
293.15
293.15
293.15
293.15
293.15
293.15
293.15
293.15
293.15
293.15
293.15
293.15
293.15
293.15
293.15
293.15
293.15
293.15
293.15
293.15
293.15
293.15
293.15
293.15
293.15
293.15
293.15
293.15
293.15
293.15
293.15
293.15
293.15
293.15
293.15
293.15
293.15
293.15
293.15
293.15
293.15
293.15
293.15
293.15
293.15
293.15
293.15
293.15
293.15
293.15
293.15
293.15
293.15
293.15
293.15
293.15
293.15
293.15
293.15
293.15
293.15
293.15
293.15
293.15
293.15
293.15
293.15
293.15
293.15
293.15
293.15
293.15
293.15
293.15
293.15
293.15
293.15
293.15
293.15
293.15
293.15
293.15
293.15
293.15
293.15
293.15
293.15
293.15
293.15
293.15
293.15
293.15
293.15
293.15
293.15
293.15
293.15
293.15
293.15
293.15
293.15
293.15
293.15
293.15
293.15
293.15
293.15
293.15
293.15
293.15
293.15
293.15
293.15
293.15
393.15
393.15
393.15
393.15
393.15
393.15
393.15
393.15
393.15
393.15
393.15
393.15
393.15
393.15
393.15
393.15
393.15
393.15
393.15
393.15
393.15
393.15
393.15
393.15
393.15
393.15
393.15
393.15
393.15
393.15
393.15
393.15
393.15
393.15
393.15
393.15
393.15
393.15
393.15
393.15
393.15
393.15
393.15
393.15
393.15
393.15
393.15
393.15
393.15
393.15
393.15
393.15
393.15
393.15
393.15
393.15
393.15
393.15
393.15
393.15
393.15
393.15
393.15
393.15
393.15
393.15
393.15
393.15
393.15
393.15
393.15
393.15
393.15
393.15
393.15
393.15
393.15
393.15
393.15
393.15
393.15
393.15
393.15
393.15
393.15
393.15
393.15
393.15
393.15
393.15
393.15
393.15
393.15
393.15
393.15
393.15
393.15
393.15
393.15
393.15
393.15
393.15
393.15
393.15
393.15
393.15
393.15
393.15
393.15
393.15
393.15
393.15
393.15
393.15
393.15
393.15
393.15
393.15
393.15
393.15
393.15
393.15
393.15
393.15
393.15
393.15
393.15
393.15
393.15
393.15
393.15
393.15
393.15
393.15
393.15
393.15
393.15
393.15
393.15
393.15
393.15
393.15
393.15
393.15
393.15
393.15
393.15
393.15
393.15
393.15
393.15
393.15
393.15
393.15
393.15
393.15
393.15
393.15
393.15
393.15
393.15
393.15
393.15
393.15
393.15
393.15
393.15
393.15
393.15
393.15
393.15
393.15
393.15
393.15
393.15
393.15
393.15
393.15
393.15
393.15
393.15
393.15
393.15
393.15
393.15
393.15
393.15
393.15
393.15
393.15
393.15
393.15
393.15
393.15
393.15
393.15
393.15
393.15
393.15
393.15
393.15
393.15
393.15
393.15
393.15
393.15
393.15
393.15
393.15
393.15
393.15
393.15
393.15
393.15
393.15
393.15
393.15
393.15
393.15
393.15
393.15
393.15
393.15
393.15
393.15
393.15
393.15
393.15
393.15
393.15
393.15
393.15
393.15
393.15
393.15
393.15
393.15
393.15
393.15
393.15
393.15
393.15
393.15
393.15
393.15
393.15
393.15
393.15
393.15
393.15
393.15
393.15
393.15
393.15
393.15
393.15
393.15
393.15
393.15
393.15
393.15
393.15
393.15
393.15
393.15
393.15
393.15
393.15
393.15
393.15
393.15
393.15
393.15
393.15
393.15
393.15
393.15
393.15
393.15
393.15
393.15
393.15
393.15
393.15
393.15
393.15
393.15
393.15
393.15
393.15
393.15
393.15
393.15
393.15
393.15
393.15
393.15
393.15
393.15
393.15
393.15
393.15
393.15
393.15
393.15
393.15
393.15
393.15
393.15
393.15
393.15
393.15
393.15
393.15
393.15
393.15
393.15
393.15
393.15
393.15
393.15
393.15
393.15
393.15
393.15
393.15
393.15
393.15
393.15
393.15
393.15
393.15
393.15
393.15
393.15
393.15
393.15
393.15
393.15
393.15
393.15
393.15
393.15
393.15
393.15
393.15
393.15
393.15
393.15
393.15
393.15
393.15
393.15
393.15
393.15
393.15
393.15
393.15
393.15
393.15
393.15
393.15
393.15
393.15
393.15
393.15
393.15
393.15
393.15
393.15
393.15
393.15
393.15
393.15
393.15
393.15
393.15
393.15
393.15
393.15
393.15
393.15
393.15
393.15
393.15
393.15
393.15
393.15
393.15
393.15
393.15
393.15
393.15
393.15
393.15
393.15
393.15
393.15
393.15
393.15
393.15
393.15
393.15
393.15
393.15
393.15
393.15
393.15
393.15
393.15
393.15
393.15
393.15
393.15
393.15
393.15
393.15
393.15
393.15
393.15
393.15
393.15
393.15
393.15
393.15
393.15
393.15
393.15
393.15
393.15
393.15
393.15
393.15
393.15
393.15
393.15
393.15
393.15
393.15
393.15
393.15
393.15
393.15
393.15
393.15
393.15
393.15
393.15
393.15
393.15
393.15
393.15
393.15
393.15
393.15
393.15
393.15
393.15
393.15
393.15
393.15
393.15
393.15
393.15
393.15
393.15
393.15
393.15
393.15
393.15
393.15
393.15
393.15
393.15
393.15
393.15
393.15
393.15
393.15
393.15
393.15
393.15
393.15
393.15
393.15
393.15
393.15
393.15
393.15
393.15
393.15
393.15
393.15
393.15
393.15
393.15
393.15
393.15
393.15
393.15
393.15
393.15
393.15
393.15
393.15
393.15
393.15
393.15
393.15
393.15
393.15
393.15
393.15
393.15
393.15
393.15
393.15
393.15
393.15
393.15
393.15
393.15
393.15
393.15
393.15
393.15
393.15
393.15
393.15
393.15
393.15
393.15
393.15
393.15
393.15
393.15
393.15
393.15
393.15
393.15
393.15
393.15
393.15
393.15
393.15
393.15
393.15
393.15
393.15
393.15
393.15
393.15
393.15
393.15
393.15
393.15
393.15
393.15
393.15
393.15
393.15
393.15
393.15
393.15
393.15
393.15
393.15
393.15
393.15
393.15
393.15
393.15
393.15
393.15
393.15
393.15
393.15
393.15
393.15
393.15
393.15
393.15
393.15
393.15
393.15
393.15
393.15
393.15
393.15
393.15
393.15
393.15
393.15
393.15
393.15
393.15
393.15
393.15
393.15
393.15
393.15
393.15
393.15
393.15
393.15
393.15
393.15
393.15
393.15
393.15
393.15
393.15
393.15
393.15
393.15
393.15
393.15
393.15
393.15
393.15
393.15
393.15
393.15
393.15
393.15
393.15
393.15
393.15
393.15
393.15
393.15
393.15
393.15
393.15
393.15
393.15
393.15
393.15
393.15
393.15
393.15
393.15
393.15
393.15
393.15
393.15
393.15
393.15
393.15
393.15
393.15
393.15
393.15
393.15
393.15
393.15
393.15
393.15
393.15
393.15
393.15
393.15
393.15
393.15
393.15
393.15
393.15
393.15
393.15
393.15
393.15
393.15
393.15
393.15
393.15
393.15
393.15
393.15
393.15
393.15
393.15
393.15
393.15
393.15
393.15
393.15
393.15
393.15
393.15
393.15
393.15
393.15
393.15
393.15
393.15
393.15
393.15
393.15
393.15
393.15
393.15
393.15
393.15
393.15
393.15
393.15
393.15
393.15
393.15
393.15
393.15
393.15
393.15
393.15
393.15
393.15
393.15
393.15
393.15
393.15
393.15
393.15
393.15
393.15
393.15
393.15
393.15
393.15
393.15
393.15
393.15
393.15
393.15
393.15
393.15
393.15
393.15
393.15
393.15
393.15
393.15
393.15
393.15
393.15
393.15
393.15
393.15
393.15
393.15
393.15
393.15
393.15
393.15
393.15
393.15
393.15
393.15
393.15
393.15
393.15
393.15
393.15
393.15
393.15
393.15
393.15
393.15
393.15
393.15
393.15
393.15
393.15
393.15
393.15
393.15
393.15
393.15
393.15
393.15
393.15
393.15
393.15
393.15
393.15
393.15
393.15
393.15
393.15
393.15
393.15
393.15
393.15
393.15
393.15
393.15
393.15
393.15
393.15
393.15
393.15
393.15
393.15
393.15
393.15
393.15
393.15
393.15
393.15
393.15
393.15
393.15
393.15
393.15
393.15
393.15
393.15
393.15
393.15
393.15
393.15
393.15
393.15
393.15
393.15
393.15
393.15
393.15
393.15
393.15
393.15
393.15
393.15
393.15
393.15
393.15
393.15
393.15
393.15
393.15
393.15
393.15
393.15
393.15
393.15
393.15
393.15
393.15
393.15
393.15
393.15
393.15
393.15
393.15
393.15
393.15
393.15
393.15
393.15
393.15
393.15
393.15
393.15
393.15
393.15
393.15
393.15
393.15
393.15
393.15
393.15
393.15
393.15
393.15
393.15
393.15
393.15
393.15
393.15
393.15
393.15
393.15
393.15
393.15
393.15
393.15
393.15
393.15
393.15
393.15
393.15
393.15
393.15
393.15
393.15
393.15
393.15
393.15
393.15
393.15
393.15
393.15
393.15
393.15
393.15
393.15
393.15
393.15
393.15
393.15
393.15
393.15
393.15
393.15
393.15
393.15
393.15
393.15
393.15
393.15
393.15
393.15
393.15
393.15
393.15
393.15
393.15
393.15
393.15
393.15
393.15
393.15
393.15
393.15
393.15
393.15
393.15
393.15
393.15
393.15
393.15
393.15
393.15
393.15
393.15
393.15
393.15
393.15
393.15
393.15
393.15
393.15
393.15
393.15
393.15
393.15
393.15
393.15
393.15
393.15
393.15
393.15
393.15
393.15
393.15
393.15
393.15
393.15
393.15
393.15
393.15
393.15
393.15
393.15
393.15
393.15
393.15
393.15
393.15
393.15
393.15
393.15
393.15
393.15
393.15
393.15
393.15
393.15
393.15
393.15
393.15
393.15
393.15
393.15
393.15
393.15
393.15
393.15
393.15
393.15
393.15
393.15
393.15
393.15
393.15
393.15
393.15
393.15
393.15
393.15
393.15
393.15
393.15
393.15
393.15
393.15
393.15
393.15
393.15
393.15
393.15
393.15
393.15
393.15
393.15
393.15
393.15
393.15
393.15
393.15
393.15
393.15
393.15
393.15
393.15
393.15
393.15
393.15
393.15
393.15
393.15
393.15
393.15
393.15
393.15
393.15
393.15
393.15
393.15
393.15
393.15
393.15
393.15
393.15
393.15
393.15
393.15
393.15
393.15
393.15
393.15
393.15
393.15
393.15
393.15
393.15
393.15
393.15
393.15
393.15
393.15
393.15
393.15
393.15
393.15
393.15
393.15
393.15
393.15
393.15
393.15
393.15
393.15
393.15
393.15
393.15
393.15
393.15
393.15
393.15
393.15
393.15
393.15
393.15
393.15
393.15
393.15
393.15
393.15
393.15
393.15
393.15
393.15
393.15
393.15
393.15
393.15
393.15
393.15
393.15
393.15
393.15
393.15
393.15
393.15
393.15
393.15
393.15
393.15
393.15
393.15
393.15
393.15
393.15
393.15
393.15
393.15
393.15
393.15
393.15
393.15
393.15
393.15
393.15
393.15
393.15
393.15
393.15
393.15
393.15
393.15
393.15
393.15
393.15
393.15
393.15
393.15
393.15
393.15
393.15
393.15
393.15
393.15
393.15
393.15
393.15
393.15
393.15
393.15
393.15
393.15
393.15
393.15
393.15
393.15
393.15
393.15
393.15
393.15
393.15
393.15
393.15
393.15
393.15
393.15
393.15
393.15
393.15
393.15
393.15
393.15
393.15
393.15
393.15
393.15
393.15
393.15
393.15
393.15
393.15
393.15
393.15
393.15
393.15
393.15
393.15
393.15
393.15
393.15
393.15
393.15
393.15
393.15
393.15
393.15
393.15
393.15
393.15
393.15
393.15
393.15
393.15
393.15
393.15
393.15
393.15
393.15
393.15
393.15
393.15
393.15
393.15
393.15
393.15
393.15
393.15
393.15
393.15
393.15
393.15
393.15
393.15
393.15
393.15
393.15
393.15
393.15
393.15
393.15
393.15
393.15
393.15
393.15
393.15
393.15
393.15
393.15
393.15
393.15
393.15
393.15
393.15
393.15
393.15
393.15
393.15
393.15
393.15
393.15
393.15
393.15
393.15
393.15
393.15
393.15
393.15
393.15
393.15
393.15
393.15
393.15
393.15
393.15
393.15
393.15
393.15
393.15
393.15
393.15
393.15
393.15
393.15
393.15
393.15
393.15
393.15
393.15
393.15
393.15
393.15
393.15
393.15
393.15
393.15
393.15
393.15
393.15
393.15
393.15
393.15
393.15
393.15
393.15
393.15
393.15
393.15
393.15
393.15
393.15
393.15
393.15
393.15
393.15
393.15
393.15
393.15
393.15
393.15
393.15
393.15
393.15
393.15
393.15
393.15
393.15
393.15
393.15
393.15
393.15
393.15
393.15
393.15
393.15
393.15
393.15
393.15
393.15
393.15
393.15
393.15
393.15
393.15
393.15
393.15
393.15
393.15
393.15
393.15
393.15
393.15
393.15
393.15
393.15
393.15
393.15
393.15
393.15
393.15
393.15
393.15
393.15
393.15
393.15
393.15
393.15
393.15
393.15
393.15
393.15
393.15
393.15
393.15
393.15
393.15
393.15
393.15
393.15
393.15
393.15
393.15
393.15
393.15
393.15
393.15
393.15
393.15
393.15
393.15
393.15
393.15
393.15
393.15
393.15
393.15
393.15
393.15
393.15
393.15
393.15
393.15
393.15
393.15
393.15
393.15
393.15
393.15
393.15
393.15
393.15
393.15
393.15
393.15
393.15
393.15
393.15
393.15
393.15
393.15
393.15
393.15
393.15
393.15
393.15
393.15
393.15
393.15
393.15
393.15
393.15
393.15
393.15
393.15
393.15
393.15
393.15
393.15
393.15
393.15
393.15
393.15
393.15
393.15
393.15
393.15
393.15
393.15
393.15
393.15
393.15
393.15
393.15
393.15
393.15
393.15
393.15
393.15
393.15
393.15
393.15
393.15
393.15
393.15
393.15
393.15
393.15
393.15
393.15
393.15
393.15
393.15
393.15
393.15
393.15
393.15
393.15
393.15
393.15
393.15
393.15
393.15
393.15
393.15
393.15
393.15
393.15
393.15
393.15
393.15
393.15
393.15
393.15
393.15
393.15
393.15
393.15