/*--------------------------------*- C++ -*----------------------------------*\
| =========                 |                                                 |
| \\      /  F ield         | OpenFOAM: The Open Source CFD Toolbox           |
|  \\    /   O peration     | Version:  2.1.0                                 |
|   \\  /    A nd           | Web:      www.OpenFOAM.org                      |
|    \\/     M anipulation  |                                                 |
\*---------------------------------------------------------------------------*/
FoamFile
{
    version     2.0;
    format      ascii;
    class       volVectorField;
    location    "0.38";
    object      U;
}
// * * * * * * * * * * * * * * * * * * * * * * * * * * * * * * * * * * * * * //

dimensions      [0 1 -1 0 0 0 0];

internalField   nonuniform List<vector> 
6400
(
(-1.29916 -5.88043e-05 0)
(-1.29824 -0.000530435 0)
(-1.29605 -0.000817191 0)
(-1.29291 -0.000963447 0)
(-1.28931 -0.00105067 0)
(-1.2854 -0.00110947 0)
(-1.28128 -0.00115188 0)
(-1.277 -0.00118513 0)
(-1.27259 -0.00121308 0)
(-1.26807 -0.00123813 0)
(-1.26344 -0.00126165 0)
(-1.25871 -0.00128444 0)
(-1.25388 -0.00130697 0)
(-1.24895 -0.00132948 0)
(-1.24393 -0.00135221 0)
(-1.23881 -0.00137517 0)
(-1.23358 -0.00139853 0)
(-1.22826 -0.00142221 0)
(-1.22283 -0.00144633 0)
(-1.2173 -0.00147073 0)
(-1.21166 -0.00149553 0)
(-1.20592 -0.00152078 0)
(-1.20007 -0.0015467 0)
(-1.19411 -0.0015726 0)
(-1.18804 -0.00159919 0)
(-1.18185 -0.00162728 0)
(-1.17555 -0.00165661 0)
(-1.16911 -0.00168685 0)
(-1.16256 -0.00171804 0)
(-1.15587 -0.00175019 0)
(-1.14904 -0.00178345 0)
(-1.14208 -0.00181784 0)
(-1.13497 -0.0018535 0)
(-1.12771 -0.00189049 0)
(-1.12029 -0.00192892 0)
(-1.11272 -0.00196879 0)
(-1.10498 -0.00201026 0)
(-1.09707 -0.00205333 0)
(-1.08898 -0.00209817 0)
(-1.0807 -0.00214495 0)
(-1.07223 -0.00219384 0)
(-1.06356 -0.00224486 0)
(-1.05468 -0.00229811 0)
(-1.04558 -0.00235369 0)
(-1.03625 -0.00241164 0)
(-1.02668 -0.00247198 0)
(-1.01687 -0.00253472 0)
(-1.0068 -0.00259977 0)
(-0.996462 -0.00266694 0)
(-0.985853 -0.00273672 0)
(-0.974964 -0.00280691 0)
(-0.963792 -0.00287852 0)
(-0.952323 -0.00295579 0)
(-0.940536 -0.00303796 0)
(-0.928413 -0.00312309 0)
(-0.915957 -0.00320734 0)
(-0.90317 -0.0032884 0)
(-0.890064 -0.00336777 0)
(-0.876641 -0.00344763 0)
(-0.862897 -0.00352918 0)
(-0.848823 -0.00361299 0)
(-0.834413 -0.00369887 0)
(-0.819656 -0.00378752 0)
(-0.80454 -0.00387954 0)
(-0.789051 -0.00397508 0)
(-0.773176 -0.00407473 0)
(-0.756897 -0.00417886 0)
(-0.740194 -0.00428823 0)
(-0.723046 -0.00440329 0)
(-0.705431 -0.00452444 0)
(-0.687324 -0.00465208 0)
(-0.668697 -0.00478689 0)
(-0.649522 -0.00492937 0)
(-0.629766 -0.00508043 0)
(-0.609394 -0.00524101 0)
(-0.588366 -0.00541243 0)
(-0.566637 -0.00559637 0)
(-0.544152 -0.00579491 0)
(-0.520849 -0.006011 0)
(-0.496649 -0.00624899 0)
(-0.471457 -0.0065142 0)
(-0.445152 -0.00681329 0)
(-0.417584 -0.00715472 0)
(-0.388568 -0.00754767 0)
(-0.357889 -0.00799894 0)
(-0.325313 -0.00851092 0)
(-0.290609 -0.00907887 0)
(-0.2536 -0.00968243 0)
(-0.214245 -0.0102706 0)
(-0.172825 -0.0107325 0)
(-0.130281 -0.0108417 0)
(-0.0888774 -0.0101509 0)
(-0.0527859 -0.00813757 0)
(-0.0272194 -0.00479941 0)
(-0.0157959 -0.000968792 0)
(-0.0202459 0.00319307 0)
(-0.04903 0.0113349 0)
(-0.129121 0.0292053 0)
(-0.328892 0.0711568 0)
(-0.948455 0.19898 0)
(-1.56713 -0.000371876 0)
(-1.56423 -0.00172274 0)
(-1.56231 -0.00247957 0)
(-1.55905 -0.00288271 0)
(-1.55543 -0.00312786 0)
(-1.55152 -0.0032934 0)
(-1.54746 -0.00341286 0)
(-1.54324 -0.00350634 0)
(-1.53892 -0.00358492 0)
(-1.5345 -0.00365524 0)
(-1.52999 -0.00372133 0)
(-1.5254 -0.00378527 0)
(-1.52071 -0.00384863 0)
(-1.51595 -0.00391194 0)
(-1.51109 -0.00397601 0)
(-1.50616 -0.00404082 0)
(-1.50113 -0.00410689 0)
(-1.49602 -0.00417398 0)
(-1.49082 -0.00424243 0)
(-1.48552 -0.00431175 0)
(-1.48013 -0.00438226 0)
(-1.47465 -0.00445385 0)
(-1.46907 -0.00452746 0)
(-1.4634 -0.00460045 0)
(-1.45763 -0.00467444 0)
(-1.45176 -0.00475234 0)
(-1.4458 -0.00483314 0)
(-1.43974 -0.00491604 0)
(-1.43358 -0.00500125 0)
(-1.42732 -0.00508887 0)
(-1.42095 -0.00517923 0)
(-1.41448 -0.00527243 0)
(-1.4079 -0.0053688 0)
(-1.4012 -0.00546852 0)
(-1.39439 -0.00557184 0)
(-1.38747 -0.00567882 0)
(-1.38042 -0.00578982 0)
(-1.37326 -0.00590499 0)
(-1.36596 -0.00602457 0)
(-1.35853 -0.00614886 0)
(-1.35097 -0.00627842 0)
(-1.34326 -0.00641335 0)
(-1.33542 -0.00655392 0)
(-1.32742 -0.00670048 0)
(-1.31927 -0.00685321 0)
(-1.31096 -0.00701228 0)
(-1.30248 -0.00717792 0)
(-1.29382 -0.00735007 0)
(-1.28499 -0.00752854 0)
(-1.27596 -0.00771437 0)
(-1.26672 -0.00790353 0)
(-1.2573 -0.00809434 0)
(-1.24767 -0.00829147 0)
(-1.23788 -0.00849422 0)
(-1.22791 -0.00870103 0)
(-1.21779 -0.00890812 0)
(-1.20751 -0.00911148 0)
(-1.19704 -0.00931257 0)
(-1.18639 -0.00951505 0)
(-1.17556 -0.0097215 0)
(-1.16455 -0.00993319 0)
(-1.15334 -0.0101499 0)
(-1.14195 -0.0103727 0)
(-1.13037 -0.0106026 0)
(-1.11859 -0.0108403 0)
(-1.10661 -0.011087 0)
(-1.09443 -0.0113437 0)
(-1.08204 -0.011612 0)
(-1.06944 -0.0118934 0)
(-1.05662 -0.0121893 0)
(-1.04357 -0.012501 0)
(-1.03027 -0.0128307 0)
(-1.01671 -0.01318 0)
(-1.00287 -0.0135519 0)
(-0.988728 -0.0139495 0)
(-0.974248 -0.0143767 0)
(-0.959399 -0.0148384 0)
(-0.944137 -0.0153406 0)
(-0.928414 -0.0158911 0)
(-0.912171 -0.0165011 0)
(-0.895339 -0.0171836 0)
(-0.877839 -0.0179542 0)
(-0.859583 -0.018832 0)
(-0.840474 -0.0198374 0)
(-0.820407 -0.0209859 0)
(-0.799271 -0.0222818 0)
(-0.776973 -0.0237094 0)
(-0.75346 -0.0252131 0)
(-0.728771 -0.0266625 0)
(-0.703107 -0.0277872 0)
(-0.67693 -0.0280632 0)
(-0.651014 -0.0265342 0)
(-0.626732 -0.0219533 0)
(-0.606998 -0.0137348 0)
(-0.600846 -0.00113463 0)
(-0.615867 0.0131149 0)
(-0.664114 0.039779 0)
(-0.768085 0.0920747 0)
(-0.97101 0.204394 0)
(-1.45968 0.526459 0)
(-1.71753 -0.000972751 0)
(-1.71371 -0.00297561 0)
(-1.71264 -0.00407077 0)
(-1.70992 -0.00468159 0)
(-1.70688 -0.00505885 0)
(-1.70363 -0.00531338 0)
(-1.70022 -0.00549589 0)
(-1.69672 -0.00563816 0)
(-1.69312 -0.00575674 0)
(-1.68945 -0.00586261 0)
(-1.68571 -0.00596142 0)
(-1.68192 -0.00605702 0)
(-1.67806 -0.00615145 0)
(-1.67415 -0.00624601 0)
(-1.67017 -0.00634164 0)
(-1.66614 -0.00643868 0)
(-1.66204 -0.00653772 0)
(-1.65789 -0.00663877 0)
(-1.65366 -0.00674219 0)
(-1.64938 -0.00684753 0)
(-1.64502 -0.00695514 0)
(-1.64059 -0.00706505 0)
(-1.63608 -0.00717868 0)
(-1.63148 -0.00729252 0)
(-1.62681 -0.00740644 0)
(-1.62207 -0.00752293 0)
(-1.61725 -0.00764132 0)
(-1.61237 -0.00776168 0)
(-1.60742 -0.00788463 0)
(-1.60241 -0.00801051 0)
(-1.59733 -0.00813973 0)
(-1.59219 -0.00827248 0)
(-1.58699 -0.0084091 0)
(-1.58172 -0.00854981 0)
(-1.57639 -0.00869491 0)
(-1.57099 -0.00884443 0)
(-1.56553 -0.00899873 0)
(-1.56001 -0.0091582 0)
(-1.55443 -0.00932293 0)
(-1.54878 -0.00949292 0)
(-1.54308 -0.00966901 0)
(-1.53731 -0.00985133 0)
(-1.53149 -0.0100401 0)
(-1.52561 -0.0102358 0)
(-1.51968 -0.0104386 0)
(-1.5137 -0.0106487 0)
(-1.50768 -0.0108666 0)
(-1.5016 -0.0110922 0)
(-1.49549 -0.0113253 0)
(-1.48933 -0.0115661 0)
(-1.48314 -0.011812 0)
(-1.47694 -0.0120593 0)
(-1.47071 -0.0123061 0)
(-1.46445 -0.0125512 0)
(-1.4582 -0.0127958 0)
(-1.45195 -0.0130421 0)
(-1.4457 -0.0132889 0)
(-1.43944 -0.0135349 0)
(-1.43319 -0.0137816 0)
(-1.42693 -0.0140312 0)
(-1.42069 -0.0142847 0)
(-1.41447 -0.0145417 0)
(-1.40828 -0.0148027 0)
(-1.40214 -0.015068 0)
(-1.39605 -0.0153383 0)
(-1.39003 -0.0156147 0)
(-1.3841 -0.0158981 0)
(-1.37827 -0.0161898 0)
(-1.37257 -0.0164915 0)
(-1.36701 -0.0168049 0)
(-1.36161 -0.0171321 0)
(-1.3564 -0.0174758 0)
(-1.35139 -0.0178386 0)
(-1.3466 -0.0182247 0)
(-1.34205 -0.0186391 0)
(-1.33775 -0.0190876 0)
(-1.33372 -0.0195781 0)
(-1.32995 -0.0201196 0)
(-1.32645 -0.0207232 0)
(-1.32321 -0.0214046 0)
(-1.32021 -0.022182 0)
(-1.31743 -0.0230749 0)
(-1.31483 -0.0241059 0)
(-1.31238 -0.0252982 0)
(-1.31004 -0.0266694 0)
(-1.30778 -0.0282227 0)
(-1.30556 -0.0299311 0)
(-1.30339 -0.0317126 0)
(-1.30132 -0.0333886 0)
(-1.29952 -0.0346111 0)
(-1.29822 -0.0347525 0)
(-1.29779 -0.0327635 0)
(-1.29873 -0.0271425 0)
(-1.30253 -0.016351 0)
(-1.31128 0.00193419 0)
(-1.32829 0.0261145 0)
(-1.36764 0.0694765 0)
(-1.44377 0.149638 0)
(-1.58762 0.311489 0)
(-1.85855 0.719416 0)
(-1.85315 -0.00166146 0)
(-1.84905 -0.00399553 0)
(-1.84898 -0.00533183 0)
(-1.84716 -0.00610684 0)
(-1.84509 -0.00659 0)
(-1.84287 -0.00691372 0)
(-1.84052 -0.00714265 0)
(-1.83812 -0.00731885 0)
(-1.83565 -0.00746297 0)
(-1.83316 -0.00759027 0)
(-1.83062 -0.00770728 0)
(-1.82808 -0.00781984 0)
(-1.82548 -0.00792997 0)
(-1.82289 -0.00804005 0)
(-1.82026 -0.00815072 0)
(-1.81764 -0.00826306 0)
(-1.81497 -0.00837734 0)
(-1.81231 -0.00849411 0)
(-1.80962 -0.00861362 0)
(-1.80693 -0.00873566 0)
(-1.80421 -0.00886032 0)
(-1.8015 -0.00898829 0)
(-1.79876 -0.00911985 0)
(-1.79601 -0.0092534 0)
(-1.79326 -0.0093879 0)
(-1.7905 -0.00952221 0)
(-1.78773 -0.00965615 0)
(-1.78495 -0.00979096 0)
(-1.78216 -0.00992766 0)
(-1.77937 -0.0100667 0)
(-1.77658 -0.0102086 0)
(-1.7738 -0.0103535 0)
(-1.77102 -0.0105016 0)
(-1.76825 -0.010653 0)
(-1.76549 -0.010808 0)
(-1.76275 -0.0109665 0)
(-1.76003 -0.0111285 0)
(-1.75733 -0.0112944 0)
(-1.75466 -0.0114643 0)
(-1.75203 -0.0116378 0)
(-1.74944 -0.0118156 0)
(-1.7469 -0.0119974 0)
(-1.74441 -0.0121834 0)
(-1.74199 -0.0123736 0)
(-1.73964 -0.012568 0)
(-1.73738 -0.0127664 0)
(-1.73521 -0.0129689 0)
(-1.73314 -0.0131751 0)
(-1.7312 -0.0133846 0)
(-1.7294 -0.0135956 0)
(-1.72774 -0.013807 0)
(-1.72625 -0.0140198 0)
(-1.72492 -0.0142322 0)
(-1.72374 -0.0144402 0)
(-1.72271 -0.0146438 0)
(-1.72183 -0.0148461 0)
(-1.72113 -0.0150473 0)
(-1.72061 -0.0152454 0)
(-1.72029 -0.0154402 0)
(-1.72017 -0.0156326 0)
(-1.72027 -0.0158228 0)
(-1.72061 -0.0160099 0)
(-1.72121 -0.0161939 0)
(-1.72208 -0.0163746 0)
(-1.72324 -0.0165526 0)
(-1.7247 -0.0167285 0)
(-1.72649 -0.0169032 0)
(-1.72862 -0.0170777 0)
(-1.7311 -0.0172536 0)
(-1.73394 -0.017433 0)
(-1.73717 -0.0176186 0)
(-1.74078 -0.017814 0)
(-1.74478 -0.0180229 0)
(-1.74918 -0.0182512 0)
(-1.75396 -0.0185057 0)
(-1.75911 -0.0187949 0)
(-1.76462 -0.01913 0)
(-1.77046 -0.0195235 0)
(-1.7766 -0.0199889 0)
(-1.78298 -0.0205467 0)
(-1.78957 -0.0212196 0)
(-1.79631 -0.0220296 0)
(-1.80314 -0.0230008 0)
(-1.81 -0.0241564 0)
(-1.81684 -0.0255126 0)
(-1.82363 -0.027068 0)
(-1.83034 -0.0287845 0)
(-1.83699 -0.0305608 0)
(-1.84362 -0.0321892 0)
(-1.85032 -0.0332876 0)
(-1.8572 -0.0332037 0)
(-1.86428 -0.0309022 0)
(-1.87153 -0.0248304 0)
(-1.87946 -0.0130675 0)
(-1.88865 0.00615911 0)
(-1.89964 0.0361843 0)
(-1.92225 0.0891498 0)
(-1.96348 0.185819 0)
(-2.03269 0.375366 0)
(-2.13354 0.77813 0)
(-1.98965 -0.00225337 0)
(-1.98593 -0.0046503 0)
(-1.98698 -0.00609492 0)
(-1.98638 -0.00696585 0)
(-1.98573 -0.00751483 0)
(-1.98497 -0.00787752 0)
(-1.9842 -0.00812967 0)
(-1.98339 -0.00831812 0)
(-1.98259 -0.00846824 0)
(-1.9818 -0.00859689 0)
(-1.98102 -0.00871248 0)
(-1.98027 -0.00882131 0)
(-1.97953 -0.00892613 0)
(-1.97884 -0.00902944 0)
(-1.97817 -0.00913214 0)
(-1.97755 -0.00923528 0)
(-1.97696 -0.00933916 0)
(-1.97642 -0.0094443 0)
(-1.97593 -0.00955105 0)
(-1.9755 -0.00965909 0)
(-1.97512 -0.00976773 0)
(-1.97482 -0.00987811 0)
(-1.97458 -0.00998965 0)
(-1.97442 -0.010102 0)
(-1.97435 -0.0102169 0)
(-1.97435 -0.0103327 0)
(-1.97443 -0.0104478 0)
(-1.97458 -0.0105625 0)
(-1.97479 -0.0106777 0)
(-1.9751 -0.0107936 0)
(-1.97548 -0.0109106 0)
(-1.97595 -0.0110289 0)
(-1.97652 -0.0111485 0)
(-1.97718 -0.0112693 0)
(-1.97795 -0.0113916 0)
(-1.97882 -0.0115149 0)
(-1.97981 -0.0116393 0)
(-1.98092 -0.0117647 0)
(-1.98215 -0.0118912 0)
(-1.98351 -0.0120184 0)
(-1.98502 -0.0121467 0)
(-1.98667 -0.0122754 0)
(-1.98848 -0.0124045 0)
(-1.99044 -0.012534 0)
(-1.99257 -0.0126634 0)
(-1.99487 -0.0127926 0)
(-1.99736 -0.0129212 0)
(-2.00003 -0.0130488 0)
(-2.00289 -0.0131747 0)
(-2.00594 -0.0132975 0)
(-2.0092 -0.0134163 0)
(-2.01266 -0.0135346 0)
(-2.01632 -0.0136532 0)
(-2.0202 -0.0137675 0)
(-2.02429 -0.0138758 0)
(-2.0286 -0.013979 0)
(-2.03313 -0.0140767 0)
(-2.03789 -0.0141679 0)
(-2.04288 -0.0142524 0)
(-2.0481 -0.0143312 0)
(-2.05355 -0.0144042 0)
(-2.05922 -0.0144704 0)
(-2.06512 -0.0145294 0)
(-2.07125 -0.0145819 0)
(-2.0776 -0.0146286 0)
(-2.08416 -0.0146706 0)
(-2.09093 -0.0147092 0)
(-2.0979 -0.014746 0)
(-2.10506 -0.0147833 0)
(-2.11241 -0.0148237 0)
(-2.11992 -0.0148706 0)
(-2.1276 -0.0149287 0)
(-2.13543 -0.0150032 0)
(-2.14339 -0.015101 0)
(-2.15147 -0.0152305 0)
(-2.15967 -0.015402 0)
(-2.16796 -0.0156284 0)
(-2.17633 -0.0159254 0)
(-2.18477 -0.0163064 0)
(-2.19327 -0.016794 0)
(-2.20182 -0.0174148 0)
(-2.21039 -0.0181902 0)
(-2.21897 -0.0191439 0)
(-2.22757 -0.0202972 0)
(-2.23617 -0.0216625 0)
(-2.24479 -0.0232327 0)
(-2.25342 -0.0249616 0)
(-2.2621 -0.0267367 0)
(-2.27083 -0.0283408 0)
(-2.27961 -0.0293929 0)
(-2.28836 -0.0292689 0)
(-2.29684 -0.0270215 0)
(-2.30449 -0.0211955 0)
(-2.3114 -0.00995413 0)
(-2.31665 0.00887561 0)
(-2.31928 0.0406448 0)
(-2.32383 0.097031 0)
(-2.32983 0.199258 0)
(-2.32783 0.392704 0)
(-2.31024 0.74448 0)
(-2.13367 -0.00258217 0)
(-2.13101 -0.00481576 0)
(-2.13323 -0.00621227 0)
(-2.13416 -0.00707887 0)
(-2.13525 -0.00762848 0)
(-2.13635 -0.00798426 0)
(-2.13754 -0.00822496 0)
(-2.13876 -0.00839613 0)
(-2.14006 -0.00852613 0)
(-2.14142 -0.00863107 0)
(-2.14284 -0.00872106 0)
(-2.14434 -0.00880172 0)
(-2.14591 -0.00887679 0)
(-2.14757 -0.00894819 0)
(-2.1493 -0.00901738 0)
(-2.15113 -0.00908493 0)
(-2.15304 -0.00915144 0)
(-2.15506 -0.009217 0)
(-2.15717 -0.00928226 0)
(-2.15938 -0.00934717 0)
(-2.1617 -0.0094094 0)
(-2.16414 -0.00947054 0)
(-2.16668 -0.00953184 0)
(-2.16934 -0.00959205 0)
(-2.17212 -0.00965441 0)
(-2.17502 -0.00971839 0)
(-2.17804 -0.00978173 0)
(-2.18119 -0.00984385 0)
(-2.18446 -0.00990495 0)
(-2.18786 -0.00996525 0)
(-2.19139 -0.010025 0)
(-2.19507 -0.0100843 0)
(-2.19887 -0.0101433 0)
(-2.20281 -0.0102019 0)
(-2.20689 -0.0102602 0)
(-2.21111 -0.0103179 0)
(-2.21547 -0.0103751 0)
(-2.21998 -0.0104316 0)
(-2.22462 -0.0104875 0)
(-2.22941 -0.0105426 0)
(-2.23434 -0.0105971 0)
(-2.23941 -0.0106508 0)
(-2.24463 -0.0107035 0)
(-2.24998 -0.0107553 0)
(-2.25546 -0.0108061 0)
(-2.26108 -0.0108555 0)
(-2.26683 -0.0109037 0)
(-2.27271 -0.0109503 0)
(-2.27871 -0.0109948 0)
(-2.28483 -0.0110367 0)
(-2.29106 -0.011076 0)
(-2.2974 -0.0111141 0)
(-2.30384 -0.0111515 0)
(-2.31039 -0.0111855 0)
(-2.31703 -0.0112149 0)
(-2.32375 -0.0112395 0)
(-2.33056 -0.0112589 0)
(-2.33745 -0.0112727 0)
(-2.3444 -0.0112809 0)
(-2.35142 -0.0112849 0)
(-2.3585 -0.0112852 0)
(-2.36563 -0.0112807 0)
(-2.3728 -0.0112702 0)
(-2.38002 -0.0112546 0)
(-2.38728 -0.0112354 0)
(-2.39458 -0.0112135 0)
(-2.40191 -0.0111907 0)
(-2.40928 -0.0111686 0)
(-2.41668 -0.0111495 0)
(-2.42411 -0.0111362 0)
(-2.43158 -0.0111322 0)
(-2.43908 -0.0111419 0)
(-2.44662 -0.0111706 0)
(-2.45419 -0.0112252 0)
(-2.46181 -0.0113142 0)
(-2.46947 -0.0114478 0)
(-2.47717 -0.0116385 0)
(-2.48493 -0.0119035 0)
(-2.49273 -0.0122545 0)
(-2.50061 -0.0127119 0)
(-2.50855 -0.013302 0)
(-2.51659 -0.0140469 0)
(-2.52473 -0.0149701 0)
(-2.53299 -0.0160907 0)
(-2.54137 -0.0174189 0)
(-2.54991 -0.0189462 0)
(-2.55859 -0.0206258 0)
(-2.56744 -0.0223459 0)
(-2.57643 -0.0238993 0)
(-2.58547 -0.0249353 0)
(-2.59435 -0.0248976 0)
(-2.60264 -0.0229647 0)
(-2.60944 -0.0179379 0)
(-2.61448 -0.00810618 0)
(-2.61575 0.00913914 0)
(-2.61044 0.0394597 0)
(-2.59879 0.0935799 0)
(-2.57321 0.19145 0)
(-2.51167 0.368942 0)
(-2.41555 0.652645 0)
(-2.28158 -0.00254402 0)
(-2.28018 -0.0044084 0)
(-2.28351 -0.00560537 0)
(-2.28601 -0.00636279 0)
(-2.28872 -0.00684107 0)
(-2.29164 -0.00714178 0)
(-2.29465 -0.00733574 0)
(-2.29781 -0.00746304 0)
(-2.30103 -0.00755063 0)
(-2.30438 -0.00761305 0)
(-2.30778 -0.00766021 0)
(-2.31131 -0.00769713 0)
(-2.31489 -0.00772774 0)
(-2.31859 -0.00775364 0)
(-2.32236 -0.00777653 0)
(-2.32624 -0.00779678 0)
(-2.33018 -0.00781521 0)
(-2.33424 -0.00783174 0)
(-2.33837 -0.0078472 0)
(-2.3426 -0.00786199 0)
(-2.3469 -0.00787289 0)
(-2.35132 -0.00788006 0)
(-2.35581 -0.00788611 0)
(-2.36042 -0.0078904 0)
(-2.36511 -0.0078955 0)
(-2.36992 -0.00790102 0)
(-2.37483 -0.00790587 0)
(-2.37984 -0.00790948 0)
(-2.38494 -0.00791204 0)
(-2.39016 -0.00791362 0)
(-2.39546 -0.0079147 0)
(-2.40087 -0.00791538 0)
(-2.40635 -0.00791621 0)
(-2.41194 -0.00791703 0)
(-2.4176 -0.00791827 0)
(-2.42336 -0.00791967 0)
(-2.42918 -0.00792161 0)
(-2.43508 -0.0079239 0)
(-2.44104 -0.00792683 0)
(-2.44708 -0.00793032 0)
(-2.45316 -0.00793474 0)
(-2.4593 -0.00793998 0)
(-2.46549 -0.00794607 0)
(-2.47172 -0.00795304 0)
(-2.47798 -0.00796104 0)
(-2.48428 -0.00796977 0)
(-2.4906 -0.00797916 0)
(-2.49695 -0.00798918 0)
(-2.5033 -0.00799958 0)
(-2.50968 -0.00800958 0)
(-2.51605 -0.00801939 0)
(-2.52244 -0.00802977 0)
(-2.52882 -0.00804061 0)
(-2.5352 -0.00805024 0)
(-2.54158 -0.00805761 0)
(-2.54795 -0.00806215 0)
(-2.55431 -0.00806313 0)
(-2.56067 -0.00805995 0)
(-2.56701 -0.00805248 0)
(-2.57335 -0.00804205 0)
(-2.57968 -0.00802987 0)
(-2.586 -0.00801396 0)
(-2.59232 -0.00799138 0)
(-2.59863 -0.00796295 0)
(-2.60495 -0.00793052 0)
(-2.61129 -0.00789458 0)
(-2.61763 -0.00785667 0)
(-2.624 -0.00781821 0)
(-2.6304 -0.00778098 0)
(-2.63683 -0.00774754 0)
(-2.6433 -0.00772106 0)
(-2.64983 -0.00770549 0)
(-2.65642 -0.00770595 0)
(-2.66308 -0.00772914 0)
(-2.66982 -0.00778337 0)
(-2.67666 -0.00787867 0)
(-2.6836 -0.00802724 0)
(-2.69065 -0.00824387 0)
(-2.69782 -0.00854436 0)
(-2.70519 -0.00894766 0)
(-2.71267 -0.00947525 0)
(-2.72032 -0.0101502 0)
(-2.72814 -0.0109954 0)
(-2.73618 -0.0120286 0)
(-2.74445 -0.0132588 0)
(-2.75296 -0.0146805 0)
(-2.76174 -0.0162522 0)
(-2.77075 -0.0178713 0)
(-2.77995 -0.019354 0)
(-2.78917 -0.0204 0)
(-2.79811 -0.0205461 0)
(-2.80619 -0.0191225 0)
(-2.81229 -0.0152537 0)
(-2.81562 -0.00741761 0)
(-2.81371 0.00705022 0)
(-2.80146 0.0333131 0)
(-2.77579 0.0802935 0)
(-2.72346 0.165082 0)
(-2.61588 0.312855 0)
(-2.47006 0.525715 0)
(-2.41412 -0.00215652 0)
(-2.41366 -0.00349433 0)
(-2.4177 -0.00439372 0)
(-2.42121 -0.00496833 0)
(-2.4249 -0.00532643 0)
(-2.42895 -0.00554325 0)
(-2.43303 -0.00567333 0)
(-2.43733 -0.00574851 0)
(-2.44162 -0.00579025 0)
(-2.44607 -0.00581057 0)
(-2.4505 -0.00581757 0)
(-2.45507 -0.00581554 0)
(-2.45962 -0.00580778 0)
(-2.4643 -0.00579579 0)
(-2.46896 -0.00578113 0)
(-2.47374 -0.0057642 0)
(-2.47851 -0.00574579 0)
(-2.48339 -0.00572587 0)
(-2.48826 -0.00570491 0)
(-2.49323 -0.00568261 0)
(-2.49821 -0.00565859 0)
(-2.5033 -0.00563189 0)
(-2.50836 -0.00560292 0)
(-2.51351 -0.0055726 0)
(-2.51864 -0.00554313 0)
(-2.52385 -0.00551434 0)
(-2.52905 -0.00548613 0)
(-2.53431 -0.00545791 0)
(-2.53955 -0.00543017 0)
(-2.54485 -0.00540258 0)
(-2.55013 -0.00537614 0)
(-2.55546 -0.00535056 0)
(-2.56076 -0.00532703 0)
(-2.5661 -0.00530494 0)
(-2.57142 -0.00528529 0)
(-2.57676 -0.0052674 0)
(-2.58207 -0.00525204 0)
(-2.58741 -0.00523858 0)
(-2.59271 -0.0052278 0)
(-2.59803 -0.00521952 0)
(-2.60332 -0.00521379 0)
(-2.60862 -0.00521055 0)
(-2.61388 -0.00520974 0)
(-2.61915 -0.00521131 0)
(-2.6244 -0.00521531 0)
(-2.62964 -0.00522131 0)
(-2.63487 -0.00522902 0)
(-2.64009 -0.00523832 0)
(-2.64529 -0.00524898 0)
(-2.6505 -0.00526014 0)
(-2.65569 -0.00527168 0)
(-2.66089 -0.00528376 0)
(-2.66608 -0.00529602 0)
(-2.67128 -0.005307 0)
(-2.67648 -0.00531557 0)
(-2.68169 -0.00532097 0)
(-2.68691 -0.00532216 0)
(-2.69216 -0.00531827 0)
(-2.69742 -0.00530867 0)
(-2.70271 -0.00529456 0)
(-2.70803 -0.0052787 0)
(-2.71338 -0.00525837 0)
(-2.71877 -0.00522753 0)
(-2.7242 -0.00518767 0)
(-2.72969 -0.00514074 0)
(-2.73523 -0.00508758 0)
(-2.74084 -0.00502917 0)
(-2.74652 -0.00496654 0)
(-2.75228 -0.00490125 0)
(-2.75813 -0.00483545 0)
(-2.76408 -0.00477202 0)
(-2.77013 -0.00471458 0)
(-2.7763 -0.00466812 0)
(-2.7826 -0.00463885 0)
(-2.78904 -0.00463483 0)
(-2.79563 -0.00466576 0)
(-2.80238 -0.0047433 0)
(-2.80932 -0.00487962 0)
(-2.81644 -0.0050944 0)
(-2.82379 -0.00540895 0)
(-2.83134 -0.00584065 0)
(-2.83914 -0.00641012 0)
(-2.84718 -0.00713898 0)
(-2.85551 -0.00804391 0)
(-2.86414 -0.00913307 0)
(-2.8731 -0.0104069 0)
(-2.88236 -0.0118376 0)
(-2.89189 -0.0133363 0)
(-2.90159 -0.0147528 0)
(-2.91126 -0.0158515 0)
(-2.92048 -0.0162787 0)
(-2.92858 -0.0155393 0)
(-2.93436 -0.0130447 0)
(-2.93627 -0.00766232 0)
(-2.93224 0.00286538 0)
(-2.91434 0.0230055 0)
(-2.87766 0.0588328 0)
(-2.80462 0.123579 0)
(-2.66451 0.233147 0)
(-2.48907 0.378795 0)
(-2.51295 -0.00146517 0)
(-2.51333 -0.00226944 0)
(-2.51749 -0.00283645 0)
(-2.52138 -0.00319836 0)
(-2.52537 -0.00342074 0)
(-2.5298 -0.0035516 0)
(-2.53414 -0.00362456 0)
(-2.53875 -0.00366083 0)
(-2.54321 -0.00367399 0)
(-2.54786 -0.00367213 0)
(-2.55236 -0.00366077 0)
(-2.55701 -0.00364281 0)
(-2.56151 -0.00362054 0)
(-2.56615 -0.00359521 0)
(-2.57064 -0.00356791 0)
(-2.57524 -0.00353904 0)
(-2.57972 -0.00350915 0)
(-2.5843 -0.00347828 0)
(-2.58875 -0.00344635 0)
(-2.59329 -0.00341243 0)
(-2.59771 -0.00337942 0)
(-2.60223 -0.00334789 0)
(-2.60662 -0.00331588 0)
(-2.61107 -0.00328398 0)
(-2.6154 -0.00325357 0)
(-2.61979 -0.00322455 0)
(-2.62406 -0.00319713 0)
(-2.62838 -0.00317076 0)
(-2.6326 -0.00314592 0)
(-2.63686 -0.00312202 0)
(-2.64103 -0.00310013 0)
(-2.64522 -0.00307972 0)
(-2.64933 -0.00306205 0)
(-2.65347 -0.00304633 0)
(-2.65753 -0.00303357 0)
(-2.66161 -0.00302292 0)
(-2.66564 -0.0030151 0)
(-2.66968 -0.00300919 0)
(-2.67367 -0.003006 0)
(-2.67767 -0.00300524 0)
(-2.68164 -0.00300684 0)
(-2.68563 -0.00301052 0)
(-2.68958 -0.00301605 0)
(-2.69355 -0.00302341 0)
(-2.69751 -0.00303242 0)
(-2.70149 -0.00304264 0)
(-2.70545 -0.00305367 0)
(-2.70945 -0.00306519 0)
(-2.71344 -0.00307664 0)
(-2.71747 -0.00308763 0)
(-2.72151 -0.00309782 0)
(-2.72558 -0.00310676 0)
(-2.72968 -0.00311395 0)
(-2.73381 -0.00311824 0)
(-2.73798 -0.00311843 0)
(-2.7422 -0.00311366 0)
(-2.74647 -0.00310286 0)
(-2.75079 -0.00308498 0)
(-2.75516 -0.00305894 0)
(-2.7596 -0.00302523 0)
(-2.7641 -0.00298968 0)
(-2.76868 -0.00295057 0)
(-2.77332 -0.00289483 0)
(-2.77805 -0.00282655 0)
(-2.78287 -0.00274816 0)
(-2.78779 -0.00266085 0)
(-2.7928 -0.00256514 0)
(-2.79793 -0.00246167 0)
(-2.80316 -0.00235171 0)
(-2.80853 -0.00223704 0)
(-2.81403 -0.00212025 0)
(-2.81967 -0.00200461 0)
(-2.82547 -0.0018948 0)
(-2.83143 -0.00179664 0)
(-2.83757 -0.00171768 0)
(-2.8439 -0.00166718 0)
(-2.85043 -0.00165606 0)
(-2.85718 -0.00169654 0)
(-2.86418 -0.00180769 0)
(-2.87143 -0.00200992 0)
(-2.87896 -0.00232028 0)
(-2.8868 -0.00275806 0)
(-2.89498 -0.00334329 0)
(-2.90352 -0.00409322 0)
(-2.91244 -0.00501416 0)
(-2.92178 -0.00611419 0)
(-2.9315 -0.00739085 0)
(-2.94156 -0.00876895 0)
(-2.95185 -0.0101376 0)
(-2.96211 -0.0113396 0)
(-2.97192 -0.0121361 0)
(-2.98052 -0.0122252 0)
(-2.98672 -0.0112463 0)
(-2.98851 -0.00862163 0)
(-2.98366 -0.00277124 0)
(-2.96427 0.00939031 0)
(-2.92054 0.0312139 0)
(-2.83488 0.0709219 0)
(-2.67552 0.137187 0)
(-2.4851 0.220833 0)
(-2.5578 -0.000553476 0)
(-2.55848 -0.00091528 0)
(-2.5625 -0.00115025 0)
(-2.56636 -0.00129983 0)
(-2.57024 -0.00139436 0)
(-2.5746 -0.0014532 0)
(-2.57876 -0.00148834 0)
(-2.58322 -0.00150786 0)
(-2.58743 -0.00151709 0)
(-2.59184 -0.00151881 0)
(-2.596 -0.00151586 0)
(-2.60032 -0.00150913 0)
(-2.60438 -0.00149969 0)
(-2.60859 -0.0014884 0)
(-2.61256 -0.00147568 0)
(-2.61665 -0.00146184 0)
(-2.62052 -0.00144706 0)
(-2.62449 -0.00143143 0)
(-2.62826 -0.00141465 0)
(-2.63213 -0.00139646 0)
(-2.6358 -0.00137951 0)
(-2.63956 -0.00136495 -1.60449e-41)
(-2.64315 -0.00135093 0)
(-2.64681 -0.00133746 0)
(-2.65031 -0.00132495 0)
(-2.65389 -0.00131347 0)
(-2.65732 -0.00130303 0)
(-2.66082 -0.00129337 0)
(-2.66419 -0.00128432 0)
(-2.66762 -0.00127583 0)
(-2.67094 -0.00126818 0)
(-2.67431 -0.00126161 0)
(-2.67759 -0.00125641 0)
(-2.68092 -0.00125258 0)
(-2.68417 -0.00125021 0)
(-2.68746 -0.00124923 0)
(-2.69071 -0.0012496 0)
(-2.69398 -0.0012509 0)
(-2.69722 -0.00125346 0)
(-2.70047 -0.00125699 0)
(-2.70372 -0.00126161 0)
(-2.70699 -0.00126681 0)
(-2.71025 -0.00127235 0)
(-2.71353 -0.00127813 0)
(-2.71682 -0.00128398 0)
(-2.72014 -0.00128944 0)
(-2.72347 -0.00129419 0)
(-2.72684 -0.00129774 0)
(-2.73022 -0.00129925 0)
(-2.73365 -0.00129872 0)
(-2.7371 -0.00129594 0)
(-2.7406 -0.00129 0)
(-2.74413 -0.0012802 0)
(-2.74772 -0.00126579 0)
(-2.75135 -0.00124542 0)
(-2.75504 -0.00121821 0)
(-2.75877 -0.00118327 0)
(-2.76258 -0.00113914 0)
(-2.76644 -0.00108472 0)
(-2.77039 -0.00101879 0)
(-2.7744 -0.000949687 0)
(-2.77848 -0.000884124 0)
(-2.78263 -0.000791062 0)
(-2.78689 -0.000682382 0)
(-2.79123 -0.000561781 0)
(-2.79567 -0.000429901 0)
(-2.80022 -0.000286858 0)
(-2.80489 -0.000132956 0)
(-2.80967 3.08963e-05 0)
(-2.81458 0.000203203 0)
(-2.81963 0.00038176 0)
(-2.82483 0.000563708 0)
(-2.83018 0.000744801 0)
(-2.83571 0.000919678 0)
(-2.84141 0.00108142 0)
(-2.84732 0.00122142 0)
(-2.85343 0.00132948 0)
(-2.85978 0.00139308 0)
(-2.86638 0.0013955 0)
(-2.87325 0.00131889 0)
(-2.88042 0.00114606 0)
(-2.88791 0.000858103 0)
(-2.89574 0.000435722 5.12189e-42)
(-2.90395 -0.000138415 0)
(-2.91256 -0.00087507 0)
(-2.92161 -0.00178112 0)
(-2.931 -0.00289106 0)
(-2.94069 -0.00414347 -4.87063e-41)
(-2.95064 -0.00546949 0)
(-2.96055 -0.00680084 0)
(-2.96997 -0.00801287 0)
(-2.97818 -0.00898582 0)
(-2.98397 -0.00962558 0)
(-2.98543 -0.0098242 -5.77415e-41)
(-2.97931 -0.00893885 0)
(-2.95964 -0.00592062 0)
(-2.914 0.000212331 2.49594e-42)
(-2.82392 0.0119306 0)
(-2.65781 0.0318434 0)
(-2.46266 0.057034 0)
(-2.53216 0.000413733 0)
(-2.53262 0.000488467 0)
(-2.53671 0.000588899 0)
(-2.54062 0.000650914 0)
(-2.54456 0.000680288 0)
(-2.549 0.000687918 0)
(-2.55326 0.000683279 0)
(-2.55783 0.00067227 0)
(-2.56216 0.000658124 0)
(-2.56672 0.000643191 0)
(-2.57103 0.000628024 0)
(-2.57551 0.000613373 0)
(-2.57976 0.000599768 0)
(-2.58414 0.000586739 0)
(-2.58831 0.000574671 0)
(-2.5926 0.000563376 0)
(-2.59668 0.000553135 0)
(-2.60086 0.000543828 0)
(-2.60485 0.000535872 0)
(-2.60893 0.000528846 0)
(-2.61283 0.000521541 0)
(-2.61681 0.000513268 6.03343e-42)
(-2.62062 0.000505114 0)
(-2.62451 0.000496959 0)
(-2.62824 0.000488935 0)
(-2.63203 0.000480792 0)
(-2.63568 0.000472723 0)
(-2.63939 0.000464761 0)
(-2.64298 0.000457702 0)
(-2.64661 0.00045107 0)
(-2.65013 0.000445262 0)
(-2.65369 0.000439213 0)
(-2.65716 0.000433539 0)
(-2.66067 0.00042746 0)
(-2.66409 0.000421755 0)
(-2.66755 0.000415644 0)
(-2.67094 0.000409972 0)
(-2.67436 0.000404341 0)
(-2.67773 0.0003992 0)
(-2.68112 0.00039457 0)
(-2.68448 0.000390548 0)
(-2.68785 0.000387382 0)
(-2.69121 0.000385281 0)
(-2.69459 0.000384606 0)
(-2.69795 0.000385546 0)
(-2.70134 0.000388495 0)
(-2.70473 0.000393836 0)
(-2.70814 0.000402073 0)
(-2.71156 0.000413919 0)
(-2.71502 0.000429511 0)
(-2.71848 0.000449076 0)
(-2.72199 0.000473548 0)
(-2.72552 0.000503756 0)
(-2.72909 0.000540247 0)
(-2.7327 0.000584501 0)
(-2.73635 0.000637505 0)
(-2.74004 0.000699692 0)
(-2.7438 0.000773058 0)
(-2.74759 0.000858786 0)
(-2.75145 0.000957542 0)
(-2.75535 0.00106206 0)
(-2.75934 0.00116572 0)
(-2.7634 0.00129906 0)
(-2.76754 0.00145045 0)
(-2.77174 0.00161629 0)
(-2.77604 0.00179629 0)
(-2.78042 0.00199055 0)
(-2.78491 0.0021991 0)
(-2.78949 0.0024214 0)
(-2.79418 0.00265618 0)
(-2.79899 0.00290175 0)
(-2.80394 0.00315574 0)
(-2.80901 0.00341447 0)
(-2.81425 0.00367311 0)
(-2.81963 0.00392548 0)
(-2.8252 0.00416373 0)
(-2.83096 0.00437837 0)
(-2.83692 0.00455751 0)
(-2.84311 0.00468637 0)
(-2.84954 0.00474896 0)
(-2.85624 0.00472866 0)
(-2.86324 0.00460707 0)
(-2.87055 0.00436477 5.13076e-41)
(-2.87821 0.00398503 0)
(-2.88621 0.00344827 0)
(-2.8946 0.00274257 0)
(-2.90329 0.00182726 0)
(-2.91223 0.000725446 8.52758e-42)
(-2.92129 -0.000551654 0)
(-2.93019 -0.00201441 0)
(-2.93829 -0.00362189 0)
(-2.94505 -0.00542588 0)
(-2.94932 -0.00763866 0)
(-2.94916 -0.0105452 -6.19791e-41)
(-2.94125 -0.014534 0)
(-2.91957 -0.0204174 0)
(-2.87314 -0.0300732 -3.53509e-40)
(-2.78264 -0.0464634 0)
(-2.61783 -0.0726975 0)
(-2.42407 -0.103793 0)
(-2.45014 0.00125611 0)
(-2.44979 0.00189572 0)
(-2.45396 0.00235013 0)
(-2.45773 0.00263661 0)
(-2.46162 0.00280335 0)
(-2.466 0.00289184 0)
(-2.47031 0.00293368 0)
(-2.47491 0.00294725 0)
(-2.4794 0.002945 0)
(-2.4841 0.00293316 0)
(-2.48868 0.00291663 0)
(-2.49341 0.00289677 0)
(-2.49804 0.00287576 0)
(-2.50279 0.00285374 0)
(-2.50745 0.00283163 0)
(-2.51221 0.00280936 0)
(-2.51687 0.00278755 0)
(-2.52163 0.00276606 0)
(-2.52629 0.00274533 0)
(-2.53104 0.00272477 0)
(-2.5357 0.00270393 0)
(-2.54042 0.00268235 0)
(-2.54506 0.00266077 0)
(-2.54976 0.00263894 0)
(-2.55438 0.00261721 0)
(-2.55904 0.00259531 0)
(-2.56362 0.00257347 0)
(-2.56824 0.00255177 0)
(-2.57279 0.00253125 0)
(-2.57736 0.00251166 0)
(-2.58185 0.00249332 0)
(-2.58637 0.00247517 0)
(-2.59082 0.00245781 0)
(-2.59529 0.00244062 0)
(-2.59969 0.00242442 0)
(-2.6041 0.00240858 0)
(-2.60844 0.002394 0)
(-2.61279 0.00238012 0)
(-2.61709 0.00236782 0)
(-2.62139 0.00235685 0)
(-2.62563 0.00234783 0)
(-2.62988 0.00234063 0)
(-2.63408 0.00233566 0)
(-2.63829 0.0023334 0)
(-2.64245 0.00233426 0)
(-2.64662 0.00233858 0)
(-2.65075 0.00234693 0)
(-2.65489 0.00235977 0)
(-2.65901 0.00237777 0)
(-2.66313 0.00240126 0)
(-2.66724 0.00243072 0)
(-2.67137 0.00246684 0)
(-2.67549 0.00251039 0)
(-2.67963 0.00256234 0)
(-2.68376 0.00262397 0)
(-2.68793 0.00269648 0)
(-2.69211 0.00278024 0)
(-2.69632 0.00287691 0)
(-2.70056 0.00298798 0)
(-2.70483 0.00311205 0)
(-2.70914 0.00324482 0)
(-2.71349 0.00338871 0)
(-2.71788 0.00355639 0)
(-2.72233 0.00374416 0)
(-2.72683 0.00394995 0)
(-2.73139 0.00417334 0)
(-2.73601 0.0044146 0)
(-2.74071 0.00467393 0)
(-2.74548 0.0049512 0)
(-2.75034 0.00524548 0)
(-2.75529 0.0055556 0)
(-2.76036 0.00587971 0)
(-2.76553 0.00621479 0)
(-2.77084 0.00655658 0)
(-2.77628 0.00689963 0)
(-2.78188 0.00723692 0)
(-2.78766 0.00755971 0)
(-2.79363 0.00785703 0)
(-2.7998 0.00811561 0)
(-2.80622 0.00832079 0)
(-2.81289 0.0084567 0)
(-2.81986 0.00850549 0)
(-2.82714 0.00844633 0)
(-2.83476 0.00826199 0)
(-2.84273 0.00793016 0)
(-2.85109 0.00742298 0)
(-2.8598 0.00670717 0)
(-2.86882 0.00575724 0)
(-2.87796 0.00451483 0)