/*--------------------------------*- C++ -*----------------------------------*\
| =========                 |                                                 |
| \\      /  F ield         | OpenFOAM: The Open Source CFD Toolbox           |
|  \\    /   O peration     | Version:  2.1.0                                 |
|   \\  /    A nd           | Web:      www.OpenFOAM.org                      |
|    \\/     M anipulation  |                                                 |
\*---------------------------------------------------------------------------*/
FoamFile
{
    version     2.0;
    format      ascii;
    class       volScalarField;
    location    "0.4";
    object      C2;
}
// * * * * * * * * * * * * * * * * * * * * * * * * * * * * * * * * * * * * * //

dimensions      [0 0 0 0 0 0 0];

internalField   nonuniform List<scalar> 
6400
(
0.00239223
0.00239071
0.00238867
0.00238633
0.00238377
0.00238097
0.00237796
0.00237472
0.00237127
0.00236759
0.00236369
0.00235957
0.00235522
0.00235063
0.00234582
0.00234077
0.00233548
0.00232996
0.00232418
0.00231815
0.00231187
0.00230533
0.00229853
0.00229145
0.0022841
0.00227647
0.00226854
0.00226033
0.0022518
0.00224297
0.00223382
0.00222434
0.00221453
0.00220437
0.00219386
0.00218298
0.00217172
0.00216009
0.00214805
0.0021356
0.00212274
0.00210944
0.00209569
0.00208148
0.00206679
0.00205162
0.00203593
0.00201973
0.00200298
0.00198568
0.0019678
0.00194933
0.00193024
0.00191052
0.00189014
0.00186909
0.00184733
0.00182485
0.00180162
0.00177762
0.00175283
0.0017272
0.00170073
0.00167337
0.00164511
0.0016159
0.00158573
0.00155455
0.00152234
0.00148907
0.0014547
0.00141919
0.00138252
0.00134465
0.00130554
0.00126517
0.0012235
0.0011805
0.00113614
0.0010904
0.00104325
0.000994689
0.000944699
0.000893286
0.000840466
0.000786269
0.000730746
0.000673972
0.000616049
0.000557119
0.000497364
0.000437023
0.000376444
0.00031619
0.000257149
0.00020041
0.000146842
9.8042e-05
5.65543e-05
2.58131e-05
0.00239552
0.00239402
0.00239203
0.00238974
0.00238723
0.00238449
0.00238154
0.00237836
0.00237497
0.00237136
0.00236753
0.00236348
0.00235921
0.00235471
0.00234997
0.00234501
0.00233981
0.00233437
0.00232869
0.00232277
0.00231659
0.00231015
0.00230345
0.00229649
0.00228925
0.00228173
0.00227393
0.00226584
0.00225744
0.00224874
0.00223972
0.00223038
0.00222071
0.00221069
0.00220032
0.00218959
0.00217849
0.00216701
0.00215513
0.00214285
0.00213015
0.00211702
0.00210344
0.0020894
0.00207489
0.00205989
0.00204438
0.00202836
0.0020118
0.00199468
0.00197698
0.00195869
0.00193979
0.00192025
0.00190006
0.00187918
0.00185761
0.00183531
0.00181226
0.00178843
0.0017638
0.00173834
0.00171203
0.00168482
0.0016567
0.00162763
0.00159759
0.00156653
0.00153442
0.00150123
0.00146693
0.00143147
0.00139483
0.00135696
0.00131783
0.00127741
0.00123565
0.00119252
0.00114798
0.00110202
0.00105459
0.00100568
0.000955265
0.000903344
0.000849917
0.000795005
0.000738645
0.000680905
0.000621888
0.000561751
0.00050072
0.000439132
0.000377471
0.00031644
0.000256961
0.000200279
0.000147366
0.000100071
6.10076e-05
3.30836e-05
0.00240228
0.00240086
0.00239898
0.00239683
0.00239445
0.00239185
0.00238904
0.00238601
0.00238278
0.00237933
0.00237567
0.00237179
0.0023677
0.00236338
0.00235884
0.00235408
0.00234909
0.00234386
0.0023384
0.0023327
0.00232676
0.00232056
0.00231411
0.00230741
0.00230043
0.00229319
0.00228566
0.00227785
0.00226975
0.00226135
0.00225264
0.00224362
0.00223427
0.00222459
0.00221456
0.00220418
0.00219344
0.00218232
0.00217082
0.00215892
0.00214661
0.00213387
0.0021207
0.00210708
0.00209299
0.00207842
0.00206335
0.00204777
0.00203165
0.00201499
0.00199776
0.00197994
0.00196151
0.00194245
0.00192274
0.00190236
0.00188127
0.00185947
0.00183692
0.00181359
0.00178946
0.00176451
0.00173869
0.00171199
0.00168436
0.00165578
0.00162621
0.00159563
0.00156398
0.00153124
0.00149736
0.00146232
0.00142606
0.00138854
0.00134973
0.00130958
0.00126805
0.0012251
0.00118068
0.00113475
0.00108727
0.0010382
0.000987507
0.000935164
0.000881149
0.000825459
0.000768106
0.000709137
0.000648645
0.000586793
0.000523849
0.000460235
0.000396581
0.000333794
0.00027312
0.000215833
0.000162988
0.000116444
7.85166e-05
5.16472e-05
0.00241247
0.00241121
0.00240952
0.00240758
0.00240543
0.00240306
0.0024005
0.00239772
0.00239475
0.00239157
0.00238819
0.0023846
0.0023808
0.0023768
0.00237258
0.00236814
0.00236349
0.00235862
0.00235352
0.00234819
0.00234263
0.00233683
0.00233079
0.0023245
0.00231796
0.00231115
0.00230409
0.00229675
0.00228913
0.00228123
0.00227303
0.00226453
0.00225572
0.00224659
0.00223713
0.00222733
0.00221719
0.00220668
0.00219581
0.00218455
0.0021729
0.00216084
0.00214836
0.00213544
0.00212207
0.00210824
0.00209393
0.00207912
0.00206379
0.00204794
0.00203153
0.00201455
0.00199697
0.00197879
0.00195997
0.00194049
0.00192034
0.00189947
0.00187788
0.00185553
0.00183239
0.00180844
0.00178365
0.00175798
0.0017314
0.00170388
0.00167539
0.00164589
0.00161533
0.00158369
0.00155092
0.00151698
0.00148183
0.00144542
0.00140771
0.00136864
0.00132817
0.00128625
0.00124282
0.00119783
0.00115121
0.00110292
0.0010529
0.00100108
0.00094742
0.000891866
0.000834393
0.000775
0.000713737
0.000650733
0.000586236
0.000520676
0.000454727
0.000389396
0.000326082
0.000265992
0.000210298
0.000160934
0.000120315
9.14746e-05
0.00242594
0.0024249
0.0024235
0.00242188
0.00242005
0.00241802
0.0024158
0.00241339
0.00241078
0.00240799
0.002405
0.00240183
0.00239846
0.00239489
0.00239112
0.00238716
0.00238299
0.00237861
0.00237403
0.00236923
0.00236422
0.00235899
0.00235353
0.00234784
0.00234191
0.00233574
0.00232933
0.00232267
0.00231574
0.00230855
0.00230109
0.00229335
0.00228531
0.00227699
0.00226835
0.0022594
0.00225013
0.00224052
0.00223056
0.00222025
0.00220957
0.00219851
0.00218705
0.00217519
0.00216291
0.00215019
0.00213702
0.00212338
0.00210927
0.00209465
0.00207951
0.00206384
0.00204761
0.00203081
0.00201341
0.00199539
0.00197672
0.0019574
0.00193738
0.00191665
0.00189517
0.00187293
0.00184988
0.00182601
0.00180128
0.00177565
0.0017491
0.00172159
0.00169308
0.00166353
0.0016329
0.00160116
0.00156825
0.00153412
0.00149874
0.00146205
0.00142398
0.00138449
0.00134351
0.00130096
0.00125678
0.00121088
0.00116318
0.00111357
0.00106198
0.00100828
0.000952396
0.000894242
0.000833775
0.000771022
0.000706117
0.000639366
0.000571316
0.000502849
0.000435272
0.000369754
0.00030765
0.000251251
0.000203818
0.000170405
0.0024424
0.00244167
0.00244066
0.00243944
0.00243803
0.00243645
0.00243468
0.00243275
0.00243063
0.00242834
0.00242588
0.00242324
0.00242043
0.00241744
0.00241427
0.00241092
0.00240739
0.00240367
0.00239976
0.00239566
0.00239137
0.00238687
0.00238218
0.00237728
0.00237217
0.00236684
0.0023613
0.00235553
0.00234953
0.00234329
0.0023368
0.00233007
0.00232308
0.00231582
0.0023083
0.00230049
0.00229239
0.00228399
0.00227529
0.00226626
0.00225691
0.00224722
0.00223718
0.00222677
0.00221599
0.00220482
0.00219325
0.00218126
0.00216884
0.00215598
0.00214265
0.00212885
0.00211454
0.00209973
0.00208438
0.00206847
0.00205199
0.00203492
0.00201723
0.00199891
0.00197991
0.00196023
0.00193983
0.00191869
0.00189678
0.00187407
0.00185053
0.00182612
0.00180082
0.00177458
0.00174736
0.00171914
0.00168985
0.00165946
0.00162792
0.00159517
0.00156115
0.00152581
0.00148906
0.00145082
0.00141102
0.00136954
0.00132627
0.00128108
0.00123384
0.00118437
0.00113251
0.00107807
0.00102089
0.000960829
0.000897818
0.000831908
0.000763343
0.000692637
0.000620735
0.000548844
0.000478467
0.000412466
0.000355622
0.00031626
0.00246147
0.00246112
0.00246058
0.00245987
0.00245899
0.00245795
0.00245675
0.0024554
0.00245389
0.00245223
0.00245042
0.00244845
0.00244632
0.00244405
0.00244161
0.00243902
0.00243628
0.00243337
0.0024303
0.00242707
0.00242367
0.0024201
0.00241636
0.00241245
0.00240835
0.00240408
0.00239962
0.00239497
0.00239012
0.00238507
0.00237982
0.00237436
0.00236869
0.00236279
0.00235666
0.0023503
0.0023437
0.00233685
0.00232974
0.00232236
0.00231471
0.00230678
0.00229856
0.00229003
0.0022812
0.00227204
0.00226254
0.0022527
0.0022425
0.00223193
0.00222097
0.00220962
0.00219786
0.00218566
0.00217303
0.00215994
0.00214637
0.0021323
0.00211773
0.00210262
0.00208697
0.00207074
0.00205392
0.00203648
0.0020184
0.00199965
0.00198022
0.00196007
0.00193916
0.00191748
0.00189498
0.00187164
0.0018474
0.00182224
0.0017961
0.00176893
0.00174068
0.00171127
0.00168065
0.00164873
0.00161541
0.00158058
0.00154411
0.00150585
0.00146564
0.00142325
0.00137848
0.00133103
0.00128063
0.00122697
0.00116975
0.00110873
0.00104372
0.000974699
0.000901953
0.000826689
0.000750377
0.000676302
0.000610944
0.000566385
0.00248258
0.00248269
0.00248271
0.0024826
0.00248234
0.00248195
0.00248142
0.00248076
0.00247997
0.00247904
0.00247799
0.00247681
0.0024755
0.00247407
0.0024725
0.00247081
0.00246899
0.00246704
0.00246497
0.00246276
0.00246041
0.00245794
0.00245532
0.00245257
0.00244968
0.00244665
0.00244348
0.00244015
0.00243668
0.00243305
0.00242927
0.00242532
0.00242121
0.00241693
0.00241248
0.00240785
0.00240304
0.00239803
0.00239284
0.00238744
0.00238184
0.00237602
0.00236999
0.00236373
0.00235723
0.0023505
0.00234351
0.00233626
0.00232875
0.00232096
0.00231289
0.00230451
0.00229583
0.00228684
0.00227751
0.00226785
0.00225783
0.00224744
0.00223668
0.00222553
0.00221396
0.00220198
0.00218956
0.00217668
0.00216333
0.00214949
0.00213514
0.00212026
0.00210483
0.00208883
0.00207222
0.00205499
0.00203709
0.00201851
0.0019992
0.00197912
0.00195821
0.00193644
0.00191374
0.00189002
0.00186521
0.00183921
0.00181189
0.00178312
0.00175271
0.00172048
0.00168617
0.00164949
0.0016101
0.00156761
0.00152159
0.00147156
0.00141699
0.0013573
0.00129194
0.00122176
0.00114809
0.00107396
0.0010067
0.000960956
0.00250504
0.00250568
0.00250633
0.0025069
0.00250735
0.00250768
0.00250791
0.00250802
0.00250804
0.00250795
0.00250775
0.00250746
0.00250707
0.00250658
0.00250599
0.00250531
0.00250453
0.00250366
0.00250269
0.00250163
0.00250047
0.00249922
0.00249787
0.00249643
0.00249489
0.00249325
0.00249152
0.00248969
0.00248775
0.00248572
0.00248358
0.00248134
0.00247899
0.00247653
0.00247396
0.00247127
0.00246847
0.00246555
0.00246251
0.00245934
0.00245604
0.00245261
0.00244904
0.00244533
0.00244148
0.00243748
0.00243332
0.00242901
0.00242453
0.00241989
0.00241507
0.00241006
0.00240488
0.0023995
0.00239392
0.00238814
0.00238215
0.00237594
0.00236951
0.00236284
0.00235594
0.00234878
0.00234137
0.00233369
0.00232574
0.0023175
0.00230897
0.00230014
0.00229099
0.0022815
0.00227167
0.00226149
0.00225092
0.00223996
0.00222858
0.00221675
0.00220445
0.00219163
0.00217826
0.00216429
0.00214965
0.00213427
0.00211806
0.00210092
0.00208273
0.00206333
0.00204256
0.00202019
0.00199593
0.00196946
0.0019404
0.0019083
0.00187256
0.00183245
0.00178698
0.00173519
0.00167923
0.0016206
0.00156535
0.00152692
0.00252801
0.00252922
0.00253057
0.00253187
0.00253308
0.0025342
0.00253524
0.0025362
0.00253708
0.00253788
0.00253861
0.00253927
0.00253986
0.00254038
0.00254084
0.00254124
0.00254157
0.00254185
0.00254207
0.00254223
0.00254234
0.0025424
0.0025424
0.00254235
0.00254225
0.0025421
0.00254191
0.00254166
0.00254137
0.00254103
0.00254064
0.00254021
0.00253973
0.00253921
0.00253864
0.00253803
0.00253736
0.00253666
0.0025359
0.0025351
0.00253425
0.00253336
0.00253241
0.00253142
0.00253038
0.00252928
0.00252814
0.00252694
0.00252569
0.00252439
0.00252303
0.00252161
0.00252014
0.00251861
0.00251703
0.00251538
0.00251367
0.00251191
0.00251008
0.00250819
0.00250624
0.00250423
0.00250216
0.00250003
0.00249783
0.00249557
0.00249325
0.00249087
0.00248842
0.00248591
0.00248334
0.0024807
0.002478
0.00247522
0.00247238
0.00246945
0.00246643
0.00246331
0.00246007
0.0024567
0.00245317
0.00244943
0.00244547
0.00244122
0.00243664
0.00243168
0.00242629
0.00242042
0.0024139
0.00240664
0.00239852
0.00238936
0.00237891
0.0023668
0.00235251
0.00233534
0.00231475
0.0022918
0.00226869
0.00225122
0.00255061
0.00255242
0.00255449
0.00255655
0.00255855
0.00256049
0.00256237
0.0025642
0.00256597
0.00256769
0.00256937
0.00257101
0.0025726
0.00257416
0.00257569
0.00257719
0.00257867
0.00258012
0.00258155
0.00258296
0.00258435
0.00258574
0.00258711
0.00258848
0.00258985
0.00259121
0.00259257
0.00259394
0.00259531
0.00259669
0.00259808
0.00259948
0.0026009
0.00260233
0.00260379
0.00260527
0.00260677
0.0026083
0.00260986
0.00261146
0.00261309
0.00261475
0.00261646
0.0026182
0.00262
0.00262184
0.00262373
0.00262568
0.00262769
0.00262975
0.00263189
0.00263409
0.00263636
0.00263871
0.00264114
0.00264366
0.00264627
0.00264898
0.00265179
0.0026547
0.00265773
0.00266088
0.00266415
0.00266757
0.00267113
0.00267485
0.00267873
0.00268279
0.00268703
0.00269148
0.00269614
0.00270102
0.00270615
0.00271153
0.00271718
0.00272313
0.00272937
0.00273594
0.00274285
0.00275011
0.00275775
0.00276578
0.00277421
0.00278308
0.00279238
0.00280215
0.00281237
0.00282309
0.00283442
0.00284652
0.00285962
0.00287393
0.00288963
0.00290689
0.0029259
0.0029469
0.00297012
0.00299526
0.00301995
0.00303776
0.00257203
0.00257442
0.0025772
0.00258002
0.0025828
0.00258555
0.00258826
0.00259095
0.0025936
0.00259623
0.00259884
0.00260143
0.00260402
0.0026066
0.00260917
0.00261175
0.00261434
0.00261693
0.00261954
0.00262217
0.00262482
0.0026275
0.00263021
0.00263296
0.00263574
0.00263857
0.00264144
0.00264437
0.00264735
0.00265039
0.0026535
0.00265668
0.00265993
0.00266326
0.00266667
0.00267017
0.00267376
0.00267745
0.00268124
0.00268514
0.00268915
0.00269328
0.00269754
0.00270192
0.00270644
0.00271111
0.00271592
0.00272089
0.00272602
0.00273132
0.0027368
0.00274246
0.00274832
0.00275438
0.00276066
0.00276715
0.00277388
0.00278086
0.00278808
0.00279558
0.00280335
0.00281142
0.00281979
0.00282849
0.00283753
0.00284693
0.0028567
0.00286688
0.00287747
0.00288851
0.00290001
0.00291201
0.00292453
0.0029376
0.00295127
0.00296555
0.00298049
0.00299614
0.00301253
0.00302971
0.00304774
0.00306666
0.00308655
0.00310747
0.00312949
0.00315271
0.00317724
0.00320322
0.00323083
0.00326028
0.00329181
0.0033259
0.00336334
0.0034044
0.00344939
0.00349854
0.00355151
0.00360632
0.00365729
0.00369207
0.0025916
0.00259453
0.00259799
0.00260153
0.00260506
0.00260858
0.00261209
0.00261558
0.00261907
0.00262255
0.00262604
0.00262954
0.00263306
0.00263659
0.00264015
0.00264374
0.00264737
0.00265104
0.00265475
0.00265851
0.00266233
0.00266621
0.00267016
0.00267419
0.00267829
0.00268248
0.00268675
0.00269112
0.0026956
0.00270018
0.00270487
0.00270969
0.00271463
0.0027197
0.00272492
0.00273028
0.00273579
0.00274147
0.00274731
0.00275333
0.00275953
0.00276592
0.00277252
0.00277932
0.00278634
0.00279359
0.00280107
0.0028088
0.00281679
0.00282504
0.00283358
0.00284241
0.00285154
0.00286099
0.00287076
0.00288088
0.00289136
0.00290222
0.00291347
0.00292512
0.0029372
0.00294973
0.00296273
0.00297621
0.00299021
0.00300475
0.00301985
0.00303554
0.00305185
0.00306882
0.00308647
0.00310485
0.003124
0.00314395
0.00316475
0.00318646
0.00320912
0.00323279
0.00325753
0.00328341
0.0033105
0.00333888
0.00336863
0.00339985
0.00343264
0.00346714
0.00350347
0.00354181
0.00358236
0.00362533
0.00367099
0.00371966
0.0037717
0.00382787
0.00388805
0.00395199
0.00401865
0.00408513
0.00414488
0.00418507
0.00260884
0.00261226
0.00261634
0.00262054
0.00262476
0.00262899
0.00263321
0.00263745
0.0026417
0.00264596
0.00265025
0.00265457
0.00265893
0.00266333
0.00266777
0.00267227
0.00267683
0.00268146
0.00268616
0.00269094
0.0026958
0.00270076
0.00270581
0.00271097
0.00271624
0.00272163
0.00272715
0.0027328
0.00273859
0.00274453
0.00275062
0.00275688
0.00276331
0.00276991
0.00277671
0.0027837
0.0027909
0.00279831
0.00280595
0.00281382
0.00282193
0.0028303
0.00283893
0.00284784
0.00285703
0.00286653
0.00287633
0.00288646
0.00289693
0.00290775
0.00291893
0.0029305
0.00294246
0.00295483
0.00296763
0.00298088
0.0029946
0.0030088
0.00302351
0.00303875
0.00305453
0.00307089
0.00308785
0.00310544
0.00312368
0.00314261
0.00316225
0.00318264
0.00320382
0.00322583
0.00324869
0.00327247
0.00329719
0.00332293
0.00334971
0.00337761
0.00340668
0.00343698
0.00346858
0.00350156
0.00353599
0.00357195
0.00360954
0.00364883
0.00368994
0.00373298
0.00377806
0.0038253
0.00387485
0.00392682
0.00398132
0.00403844
0.0040982
0.00416087
0.00422621
0.0042935
0.00436127
0.00442655
0.00448372
0.00452243
0.00262345
0.00262729
0.00263192
0.00263671
0.00264154
0.00264639
0.00265125
0.00265614
0.00266106
0.00266601
0.00267099
0.00267603
0.00268111
0.00268626
0.00269147
0.00269676
0.00270212
0.00270757
0.00271312
0.00271877
0.00272452
0.0027304
0.00273639
0.00274252
0.00274878
0.00275519
0.00276176
0.00276849
0.00277539
0.00278247
0.00278974
0.0027972
0.00280487
0.00281276
0.00282088
0.00282923
0.00283782
0.00284668
0.0028558
0.0028652
0.00287489
0.00288489
0.0028952
0.00290584
0.00291682
0.00292815
0.00293986
0.00295195
0.00296444
0.00297734
0.00299068
0.00300447
0.00301873
0.00303348
0.00304873
0.00306451
0.00308084
0.00309774
0.00311524
0.00313335
0.00315211
0.00317155
0.00319168
0.00321254
0.00323417
0.00325659
0.00327984
0.00330395
0.00332897
0.00335494
0.0033819
0.00340989
0.00343897
0.00346918
0.00350058
0.00353323
0.00356718
0.0036025
0.00363926
0.00367751
0.00371733
0.0037588
0.00380197
0.00384693
0.00389375
0.0039425
0.00399323
0.004046
0.00410083
0.00415769
0.00421652
0.00427713
0.00433923
0.00440237
0.00446639
0.00453023
0.00459235
0.00465021
0.00469971
0.00473382
0.00263529
0.00263947
0.00264456
0.00264985
0.0026552
0.00266058
0.00266599
0.00267143
0.00267691
0.00268243
0.002688
0.00269364
0.00269933
0.0027051
0.00271095
0.00271689
0.00272292
0.00272906
0.0027353
0.00274166
0.00274815
0.00275477
0.00276154
0.00276845
0.00277552
0.00278276
0.00279017
0.00279777
0.00280557
0.00281356
0.00282177
0.0028302
0.00283887
0.00284777
0.00285693
0.00286636
0.00287606
0.00288605
0.00289633
0.00290693
0.00291786
0.00292912
0.00294073
0.00295271
0.00296507
0.00297782
0.00299098
0.00300457
0.00301861
0.0030331
0.00304808
0.00306355
0.00307954
0.00309607
0.00311316
0.00313083
0.00314911
0.00316801
0.00318757
0.00320781
0.00322876
0.00325044
0.00327289
0.00329614
0.00332022
0.00334517
0.00337101
0.00339779
0.00342556
0.00345434
0.00348418
0.00351514
0.00354725
0.00358056
0.00361513
0.00365101
0.00368826
0.00372693
0.00376707
0.00380875
0.00385202
0.00389694
0.00394355
0.0039919
0.00404202
0.00409394
0.00414766
0.00420315
0.00426034
0.00431908
0.00437914
0.00444014
0.00450153
0.00456254
0.00462272
0.00468104
0.00473605
0.00478569
0.00482717
0.00485624
0.00264432
0.00264877
0.00265423
0.00265993
0.0026657
0.00267151
0.00267736
0.00268324
0.00268917
0.00269515
0.00270119
0.0027073
0.00271349
0.00271975
0.00272611
0.00273256
0.00273912
0.00274579
0.00275258
0.0027595
0.00276656
0.00277376
0.00278112
0.00278865
0.00279634
0.00280422
0.00281229
0.00282055
0.00282903
0.00283772
0.00284665
0.00285581
0.00286523
0.0028749
0.00288485
0.00289508
0.0029056
0.00291644
0.00292759
0.00293908
0.00295091
0.0029631
0.00297567
0.00298862
0.00300198
0.00301575
0.00302997
0.00304463
0.00305976
0.00307539
0.00309152
0.00310817
0.00312537
0.00314314
0.0031615
0.00318047
0.00320007
0.00322033
0.00324128
0.00326295
0.00328535
0.00330851
0.00333248
0.00335728
0.00338294
0.00340949
0.00343698
0.00346543
0.00349489
0.0035254
0.00355699
0.00358972
0.00362362
0.00365875
0.00369514
0.00373284
0.00377191
0.00381239
0.00385433
0.00389777
0.00394276
0.00398932
0.0040375
0.00408731
0.00413875
0.00419182
0.00424647
0.00430263
0.00436017
0.00441888
0.00447844
0.0045384
0.00459812
0.00465673
0.00471343
0.00476737
0.00481718
0.00486108
0.00489697
0.0049223
0.00265064
0.00265526
0.00266098
0.00266699
0.00267308
0.00267922
0.00268539
0.00269161
0.00269788
0.00270421
0.0027106
0.00271706
0.0027236
0.00273023
0.00273696
0.00274379
0.00275073
0.0027578
0.00276499
0.00277232
0.00277979
0.00278742
0.00279521
0.00280317
0.00281132
0.00281965
0.00282818
0.00283693
0.00284589
0.00285508
0.00286451
0.00287419
0.00288413
0.00289435
0.00290485
0.00291564
0.00292674
0.00293816
0.00294991
0.00296201
0.00297446
0.00298729
0.0030005
0.00301412
0.00302815
0.00304262
0.00305753
0.00307291
0.00308877
0.00310513
0.00312201
0.00313943
0.00315741
0.00317597
0.00319513
0.00321491
0.00323534
0.00325644
0.00327824
0.00330075
0.00332402
0.00334806
0.0033729
0.00339858
0.00342513
0.00345257
0.00348094
0.00351028
0.00354062
0.003572
0.00360446
0.00363802
0.00367275
0.00370866
0.00374582
0.00378424
0.00382399
0.00386509
0.00390758
0.0039515
0.00399687
0.00404373
0.00409207
0.00414192
0.00419325
0.00424603
0.00430021
0.0043557
0.00441234
0.00446994
0.00452818
0.00458662
0.00464469
0.0047016
0.00475639
0.0048083
0.00485605
0.0048979
0.00493179
0.00495563
0.00265442
0.00265912
0.00266502
0.00267123
0.00267753
0.00268388
0.00269028
0.00269672
0.00270321
0.00270976
0.00271638
0.00272307
0.00272985
0.00273672
0.00274369
0.00275076
0.00275795
0.00276527
0.00277272
0.0027803
0.00278804
0.00279594
0.002804
0.00281225
0.00282067
0.00282929
0.00283812
0.00284716
0.00285643
0.00286593
0.00287568
0.00288568
0.00289595
0.00290649
0.00291733
0.00292847
0.00293992
0.00295169
0.00296381
0.00297627
0.00298911
0.00300231
0.00301592
0.00302993
0.00304436
0.00305923
0.00307455
0.00309035
0.00310663
0.00312342
0.00314073
0.00315858
0.003177
0.003196
0.0032156
0.00323583
0.00325671
0.00327825
0.00330049
0.00332345
0.00334716
0.00337163
0.00339691
0.00342301
0.00344997
0.00347782
0.00350658
0.00353629
0.00356698
0.00359869
0.00363145
0.00366528
0.00370024
0.00373634
0.00377364
0.00381215
0.00385192
0.00389298
0.00393535
0.00397905
0.00402412
0.00407055
0.00411836
0.00416754
0.00421806
0.00426989
0.00432296
0.00437718
0.00443243
0.00448851
0.00454519
0.0046021
0.00465878
0.0047146
0.00476874
0.0048204
0.00486845
0.00491119
0.00494628
0.0049712
0.00265599
0.0026607
0.00266666
0.00267297
0.00267938
0.00268584
0.00269234
0.00269888
0.00270548
0.00271214
0.00271887
0.00272568
0.00273257
0.00273955
0.00274663
0.00275383
0.00276113
0.00276857
0.00277614
0.00278385
0.00279171
0.00279973
0.00280792
0.00281629
0.00282485
0.0028336
0.00284256
0.00285174
0.00286114
0.00287079
0.00288067
0.00289082
0.00290124
0.00291193
0.00292292
0.00293421
0.00294581
0.00295775
0.00297002
0.00298265
0.00299564
0.00300901
0.00302278
0.00303696
0.00305156
0.0030666
0.0030821
0.00309807
0.00311452
0.00313149
0.00314897
0.003167
0.00318559
0.00320477
0.00322454
0.00324494
0.00326599
0.0032877
0.00331011
0.00333322
0.00335708
0.0033817
0.00340712
0.00343335
0.00346043
0.00348839
0.00351725
0.00354704
0.0035778
0.00360956
0.00364234
0.00367618
0.00371111
0.00374717
0.00378438
0.00382277
0.00386237
0.00390322
0.00394532
0.00398871
0.0040334
0.00407939
0.00412669
0.00417528
0.00422513
0.0042762
0.00432844
0.00438175
0.00443602
0.00449111
0.00454683
0.00460291
0.00465897
0.00471437
0.00476835
0.00482011
0.00486871
0.00491272
0.00494991
0.00497731
1.01198e-05
1.01215e-05
1.26216e-05
1.6133e-05
2.02804e-05
2.49538e-05
3.01314e-05
3.5838e-05
4.21359e-05
4.91271e-05
5.69573e-05
6.58212e-05
7.59629e-05
8.76684e-05
0.000101239
0.000116926
0.000134782
0.000154352
0.000173975
0.00018924
1.97023e-05
2.05423e-05
2.49403e-05
3.09135e-05
3.78219e-05
4.54451e-05
5.37216e-05
6.26726e-05
7.2383e-05
8.30002e-05
9.47388e-05
0.000107884
0.000122787
0.000139852
0.000159484
0.00018199
0.000207347
0.00023473
0.000261543
0.000281504
3.94351e-05
4.24556e-05
4.99384e-05
5.95724e-05
7.04865e-05
8.23216e-05
9.49473e-05
0.000108367
0.000122687
0.00013811
0.000154936
0.000173562
0.000194471
0.0002182
0.000245269
0.000276027
0.000310336
0.000346913
0.000382087
0.000407474
8.03152e-05
8.67939e-05
9.87931e-05
0.000113463
0.000129712
0.000147045
0.000165249
0.000184297
0.000204314
0.000225563
0.000248444
0.000273487
0.000301322
0.000332631
0.000368053
0.000407968
0.000452058
0.000498475
0.000542299
0.000572852
0.000160835
0.00017186
0.000189601
0.000210454
0.000233055
0.000256772
0.000281315
0.000306626
0.000332848
0.000360307
0.000389513
0.000421137
0.000455958
0.000494814
0.000538458
0.000587265
0.000640665
0.000696129
0.000747397
0.000781806
0.000309069
0.000325027
0.00034882
0.000376013
0.000404936
0.000434819
0.000465303
0.000496309
0.000527998
0.000560752
0.000595202
0.000632139
0.000672478
0.000717201
0.000767152
0.000822656
0.000882824
0.000944382
0.000999816
0.00103574
0.000561919
0.000581735
0.000610052
0.000641799
0.000675043
0.000708896
0.00074295
0.000777114
0.00081156
0.000846743
0.000883372
0.000922298
0.00096452
0.00101112
0.00106298
0.00112036
0.00118199
0.00124391
0.00129783
0.0013317
0.00095844
0.000978964
0.00100771
0.00103952
0.00107238
0.00110537
0.00113807
0.00117038
0.00120253
0.00123505
0.00126855
0.00130384
0.00134188
0.00138376
0.00143036
0.0014818
0.00153656
0.00159021
0.00163484
0.00166161
0.00152465
0.00154077
0.00156332
0.00158805
0.00161324
0.00163807
0.00166223
0.00168571
0.00170879
0.00173182
0.00175521
0.00177951
0.00180549
0.00183402
0.00186589
0.00190114
0.00193824
0.00197328
0.00200053
0.00201525
0.00224864
0.00225469
0.00226339
0.0022728
0.00228214
0.00229096
0.00229917
0.00230682
0.00231394
0.00232058
0.00232689
0.00233299
0.00233925
0.00234593
0.00235345
0.00236183
0.00237047
0.00237784
0.00238206
0.00238278
0.00303921
0.00303215
0.00302217
0.0030111
0.00299961
0.00298805
0.00297637
0.00296441
0.00295199
0.00293894
0.00292505
0.00291003
0.00289349
0.00287503
0.00285421
0.00283119
0.00280714
0.00278418
0.00276479
0.00275205
0.00369316
0.00367764
0.00365596
0.00363189
0.0036069
0.00358164
0.00355632
0.00353088
0.00350498
0.00347817
0.00344999
0.00341986
0.00338696
0.0033505
0.00330982
0.00326504
0.00321789
0.00317248
0.00313495
0.0031116
0.00418672
0.00416807
0.00414185
0.00411256
0.00408189
0.0040506
0.00401898
0.00398704
0.00395451
0.00392087
0.00388547
0.00384753
0.00380611
0.00376023
0.00370915
0.00365286
0.00359298
0.0035339
0.00348373
0.00345239
0.00452613
0.00450869
0.0044836
0.00445522
0.00442518
0.00439419
0.00436255
0.00433027
0.00429714
0.00426271
0.00422628
0.00418705
0.00414408
0.0040964
0.00404321
0.00398436
0.00392111
0.00385736
0.00380136
0.00376567
0.00474009
0.00472637
0.00470569
0.00468184
0.00465622
0.00462946
0.0046018
0.00457328
0.00454369
0.00451266
0.00447958
0.0044437
0.00440419
0.00436014
0.00431079
0.00425588
0.00419626
0.00413511
0.00407972
0.00404353
0.00486468
0.00485538
0.00484016
0.0048221
0.00480235
0.0047814
0.00475948
0.00473658
0.00471256
0.00468708
0.00465965
0.00462966
0.00459637
0.00455902
0.00451692
0.00446972
0.00441797
0.00436409
0.00431403
0.00428006
0.00493215
0.0049268
0.00491661
0.00490401
0.00488993
0.00487476
0.00485866
0.00484162
0.00482351
0.00480406
0.0047829
0.00475952
0.00473335
0.00470375
0.00467013
0.00463214
0.00459008
0.00454569
0.00450361
0.00447398
0.00496643
0.00496403
0.00495772
0.00494949
0.00494008
0.00492977
0.00491868
0.00490676
0.00489391
0.00487992
0.00486452
0.00484733
0.0048279
0.00480574
0.00478035
0.00475142
0.00471907
0.00468452
0.00465119
0.00462697
0.00498305
0.00498248
0.00497879
0.0049737
0.00496776
0.00496114
0.00495389
0.00494597
0.00493731
0.00492774
0.00491708
0.00490504
0.00489131
0.00487551
0.00485727
0.0048363
0.00481261
0.00478699
0.00476186
0.00474309
0.0049912
0.00499131
0.00498922
0.00498622
0.00498265
0.0049786
0.00497407
0.00496903
0.00496343
0.00495716
0.00495008
0.00494201
0.00493273
0.00492197
0.00490945
0.00489494
0.00487839
0.00486023
0.00484201
0.00482783
7.74594e-53
7.73229e-53
7.71794e-53
7.71031e-53
7.71565e-53
7.73888e-53
7.78353e-53
7.85169e-53
7.9441e-53
8.06019e-53
8.19816e-53
8.35494e-53
8.52631e-53
8.7069e-53
8.89018e-53
9.0685e-53
9.23303e-53
9.3739e-53
9.48032e-53
9.54051e-53
3.99584e-52
3.98485e-52
3.97437e-52
3.96789e-52
3.9686e-52
3.97905e-52
4.00108e-52
4.03573e-52
4.08336e-52
4.14367e-52
4.21571e-52
4.2979e-52
4.38806e-52
4.48341e-52
4.58062e-52
4.67577e-52
4.76427e-52
4.84099e-52
4.90042e-52
4.93699e-52
1.42816e-51
1.42225e-51
1.41677e-51
1.41305e-51
1.4122e-51
1.41511e-51
1.42241e-51
1.43449e-51
1.45147e-51
1.47326e-51
1.49952e-51
1.52967e-51
1.56294e-51
1.59832e-51
1.63461e-51
1.67039e-51
1.70403e-51
1.73372e-51
1.75751e-51
1.7733e-51
4.73142e-51
4.70426e-51
4.67931e-51
4.66152e-51
4.65439e-51
4.66075e-51
4.68265e-51
4.7214e-51
4.77751e-51
4.85065e-51
4.93972e-51
5.04283e-51
5.15736e-51
5.27994e-51
5.4065e-51
5.53222e-51
5.65174e-51
5.7591e-51
5.84799e-51
5.91072e-51
1.53442e-50
1.52317e-50
1.51267e-50
1.50493e-50
1.50107e-50
1.50197e-50
1.50828e-50
1.52043e-50
1.53859e-50
1.56266e-50
1.5923e-50
1.62688e-50
1.66556e-50
1.70722e-50
1.75051e-50
1.79386e-50
1.83552e-50
1.87361e-50
1.90604e-50
1.92982e-50
4.9406e-50
4.89631e-50
4.85462e-50
4.82296e-50
4.80524e-50
4.80422e-50
4.82192e-50
4.85968e-50
4.91807e-50
4.99681e-50
5.09478e-50
5.21e-50
5.33967e-50
5.48018e-50
5.62715e-50
5.7755e-50
5.91966e-50
6.05352e-50
6.17001e-50
6.25803e-50
1.58563e-49
1.5688e-49
1.55284e-49
1.54048e-49
1.53303e-49
1.5314e-49
1.53622e-49
1.54791e-49
1.56664e-49
1.59233e-49
1.62461e-49
1.66286e-49
1.70616e-49
1.75335e-49
1.80303e-49
1.85358e-49
1.90319e-49
1.94988e-49
1.99126e-49
2.02329e-49
5.078e-49
5.01566e-49
4.9562e-49
4.90944e-49
4.87986e-49
4.87039e-49
4.88306e-49
4.91912e-49
4.97912e-49
5.06277e-49
5.16892e-49
5.29551e-49
5.43967e-49
5.59767e-49
5.76502e-49
5.93655e-49
6.10648e-49
6.26829e-49
6.41392e-49
6.5289e-49
1.62325e-48
1.60061e-48
1.57892e-48
1.56166e-48
1.55036e-48
1.54596e-48
1.54912e-48
1.56022e-48
1.57941e-48
1.60661e-48
1.64144e-48
1.68324e-48
1.73111e-48
1.78385e-48
1.84004e-48
1.89802e-48
1.95596e-48
2.0117e-48
2.06254e-48
2.10335e-48
5.17985e-48
5.09892e-48
5.02109e-48
4.95864e-48
4.91666e-48
4.89825e-48
4.90547e-48
4.93953e-48
5.00087e-48
5.08917e-48
5.20323e-48
5.34098e-48
5.49949e-48
5.67502e-48
5.86307e-48
6.05839e-48
6.25502e-48
6.44598e-48
6.62221e-48
6.7656e-48
1.65004e-47
1.62149e-47
1.59395e-47
1.5717e-47
1.55645e-47
1.5492e-47
1.55059e-47
1.56102e-47
1.58061e-47
1.60923e-47
1.64652e-47
1.6918e-47
1.74416e-47
1.80242e-47
1.86515e-47
1.9307e-47
1.99715e-47
2.06223e-47
2.12291e-47
2.17286e-47
5.24705e-47
5.1475e-47
5.05117e-47
4.97296e-47
4.9185e-47
4.89105e-47
4.89267e-47
4.92453e-47
4.987e-47
5.07966e-47
5.20131e-47