/*--------------------------------*- C++ -*----------------------------------*\
| =========                 |                                                 |
| \\      /  F ield         | OpenFOAM: The Open Source CFD Toolbox           |
|  \\    /   O peration     | Version:  2.1.0                                 |
|   \\  /    A nd           | Web:      www.OpenFOAM.org                      |
|    \\/     M anipulation  |                                                 |
\*---------------------------------------------------------------------------*/
FoamFile
{
    version     2.0;
    format      ascii;
    class       volScalarField;
    location    "0.4";
    object      k;
}
// * * * * * * * * * * * * * * * * * * * * * * * * * * * * * * * * * * * * * //

dimensions      [0 2 -2 0 0 0 0];

internalField   nonuniform List<scalar> 
6400
(
0.0328166
0.0328573
0.032861
0.0328558
0.0328334
0.0328227
0.0327924
0.0327778
0.0327437
0.0327267
0.0326906
0.03267
0.032633
0.0326083
0.0325704
0.0325415
0.0325027
0.0324695
0.0324294
0.0323924
0.0323508
0.0323105
0.0322674
0.0322242
0.0321796
0.032134
0.0320877
0.0320397
0.0319914
0.0319409
0.0318902
0.0318371
0.0317837
0.0317278
0.0316713
0.0316122
0.0315522
0.0314894
0.0314252
0.0313576
0.0312875
0.0312134
0.0311357
0.0310529
0.0309654
0.0308717
0.0307717
0.0306643
0.0305492
0.0304255
0.0302926
0.0301498
0.0299961
0.0298281
0.0296445
0.029442
0.0292293
0.0290064
0.0287736
0.02853
0.028277
0.0280144
0.027742
0.0274601
0.0271664
0.0268629
0.0265465
0.026219
0.0258749
0.0255154
0.0251395
0.024745
0.024332
0.0238989
0.0234459
0.0229727
0.0224802
0.0219696
0.0214428
0.0209026
0.0203509
0.0197889
0.0192114
0.0185981
0.0179283
0.0172342
0.0164854
0.0156633
0.0147326
0.0136426
0.01232
0.010655
0.00856266
0.00607738
0.00342021
0.00235803
0.00274728
0.00552426
0.00876208
0.00991664
0.0519747
0.0523053
0.0524571
0.0527354
0.0529071
0.0531833
0.0533737
0.053644
0.053852
0.0541169
0.0543398
0.0546009
0.0548359
0.0550947
0.055339
0.0555967
0.0558477
0.0561051
0.0563608
0.0566183
0.0568773
0.0571356
0.0573978
0.0576583
0.0579248
0.0581902
0.0584624
0.058734
0.0590127
0.0592913
0.0595767
0.0598627
0.0601552
0.0604488
0.0607486
0.0610502
0.0613579
0.0616682
0.061985
0.0623053
0.0626302
0.0629571
0.0632871
0.0636178
0.0639495
0.0642797
0.0646076
0.0649307
0.0652477
0.0655563
0.0658548
0.0661427
0.0664245
0.0666933
0.0669448
0.0671704
0.0673833
0.0675873
0.0677758
0.0679474
0.0680974
0.068235
0.0683489
0.0684522
0.0685271
0.0685845
0.0686113
0.0686201
0.0685938
0.068523
0.0684097
0.0682422
0.068015
0.067719
0.0673447
0.0668845
0.0663275
0.0656675
0.064895
0.0640062
0.0629951
0.0618637
0.0606143
0.0592424
0.0577048
0.0559395
0.0539244
0.0515958
0.0488942
0.0457479
0.0420993
0.0379081
0.0332333
0.0283494
0.0233652
0.0186281
0.0149751
0.0123974
0.010788
0.00922039
0.0576505
0.0581414
0.0583653
0.0587727
0.0590501
0.0594429
0.0597533
0.0601366
0.0604705
0.060849
0.0612004
0.0615776
0.0619425
0.0623206
0.0626957
0.0630758
0.0634585
0.0638408
0.0642286
0.0646125
0.0650025
0.0653861
0.0657766
0.0661607
0.0665521
0.0669394
0.0673349
0.0677267
0.0681259
0.0685221
0.0689245
0.0693245
0.0697295
0.0701324
0.0705392
0.0709439
0.0713511
0.0717554
0.0721599
0.0725606
0.0729607
0.0733566
0.0737495
0.0741364
0.074517
0.0748885
0.0752487
0.0755942
0.0759208
0.0762231
0.0764953
0.076726
0.076932
0.0771209
0.0772828
0.0774252
0.0775412
0.0776353
0.0777022
0.0777413
0.0777574
0.0777566
0.0776907
0.0776054
0.0774598
0.0772818
0.0770429
0.076761
0.0764144
0.0760131
0.0755387
0.0749941
0.0743625
0.073642
0.0728154
0.0718779
0.0708124
0.069613
0.068264
0.0667605
0.0650901
0.0632508
0.061234
0.0590395
0.0566701
0.0541496
0.0514608
0.0486171
0.0455895
0.0423729
0.0389203
0.0352054
0.0312009
0.0269082
0.0224415
0.0180909
0.0144235
0.0114638
0.00928259
0.00710515
0.0618241
0.0623711
0.0626205
0.0630912
0.0634185
0.0638701
0.0642398
0.0646785
0.0650745
0.0655064
0.0659197
0.0663491
0.0667742
0.0672036
0.067637
0.0680677
0.0685065
0.0689388
0.0693807
0.0698136
0.0702561
0.0706881
0.0711252
0.0715471
0.0719683
0.0723771
0.0727931
0.0731986
0.0736074
0.0740062
0.0744053
0.074794
0.0751804
0.0755554
0.0759253
0.0762823
0.0766315
0.0769662
0.0772911
0.0775985
0.0778907
0.0781656
0.0784203
0.0786551
0.0788655
0.079052
0.0792102
0.0793398
0.079437
0.0794939
0.0795184
0.0795224
0.0794708
0.0793897
0.0792559
0.0790828
0.0788528
0.0785733
0.0782298
0.077825
0.077347
0.0768015
0.0761742
0.0754726
0.0746798
0.0738048
0.0728313
0.0717691
0.0706045
0.0693473
0.0679867
0.066533
0.0649789
0.0633351
0.0615964
0.0597742
0.0578644
0.0558787
0.0538137
0.05168
0.0494746
0.0472068
0.0448738
0.0424837
0.0400356
0.0375364
0.0349865
0.0324113
0.0298058
0.0271888
0.0245612
0.0219399
0.0193298
0.0167523
0.0142392
0.0118705
0.00969653
0.00785928
0.00658608
0.00599
0.0628831
0.0634029
0.063635
0.064088
0.0643905
0.0648225
0.065162
0.0655745
0.0659338
0.0663306
0.0666994
0.0670833
0.0674546
0.0678271
0.0681957
0.0685566
0.0689181
0.0692663
0.0696164
0.0699496
0.0702843
0.0706004
0.0709161
0.0712126
0.0715062
0.0717823
0.0720537
0.0723063
0.0725505
0.072774
0.0729856
0.073174
0.0733468
0.0734936
0.0736207
0.0737187
0.0737909
0.073826
0.0738387
0.0738239
0.0737581
0.0736647
0.0735219
0.0733421
0.0731115
0.0728365
0.0725083
0.0721298
0.0716953
0.0712059
0.0706591
0.0700537
0.0693867
0.0686607
0.0678702
0.0670207
0.0661085
0.0651362
0.0641006
0.0630052
0.0618472
0.0606312
0.0593547
0.0580234
0.0566348
0.055196
0.0537047
0.0521686
0.0505859
0.0489649
0.0473041
0.0456117
0.0438875
0.0421397
0.0403727
0.0385932
0.0368035
0.0350105
0.0332176
0.0314317
0.0296571
0.0279018
0.0261713
0.0244732
0.0228137
0.0211991
0.0196359
0.0181132
0.0166451
0.015223
0.0138579
0.0125419
0.0112871
0.0100897
0.00896901
0.00793975
0.00702972
0.00639816
0.00612465
0.00612162
0.0592505
0.0595663
0.0597079
0.0599963
0.0601839
0.0604538
0.0606573
0.060902
0.0611054
0.0613234
0.0615168
0.0617073
0.0618835
0.0620454
0.0621985
0.0623297
0.0624544
0.0625521
0.0626434
0.0627041
0.0627519
0.0627732
0.0627803
0.0627618
0.0627171
0.062646
0.0625501
0.0624284
0.0622833
0.0621073
0.0619061
0.0616702
0.0614067
0.0611055
0.0607741
0.0604027
0.0599986
0.0595529
0.0590732
0.05855
0.0579898
0.0573879
0.0567469
0.0560649
0.0553434
0.0545817
0.0537815
0.0529423
0.0520665
0.0511536
0.0502065
0.0492249
0.048212
0.047168
0.0460963
0.0449974
0.0438745
0.0427287
0.0415639
0.0403849
0.0391924
0.0379908
0.0367815
0.0355685
0.0343536
0.0331407
0.0319317
0.0307305
0.0295393
0.0283616
0.0271999
0.0260573
0.0249362
0.0238392
0.0227649
0.0217168
0.0206962
0.0197058
0.0187479
0.0178239
0.0169335
0.0160733
0.0152477
0.0144518
0.0136894
0.0129547
0.0122509
0.0115713
0.0109187
0.010285
0.00967313
0.00907488
0.00849536
0.00793025
0.00739497
0.00689821
0.00653544
0.00637765
0.00635126
0.00656841
0.0499593
0.0499181
0.0499037
0.0498906
0.0498789
0.0498523
0.0498242
0.0497714
0.0497176
0.0496328
0.0495479
0.049428
0.0493083
0.0491513
0.0489941
0.0487986
0.048602
0.048367
0.0481298
0.0478548
0.0475766
0.0472628
0.0469408
0.0465825
0.0462131
0.0458094
0.0453924
0.0449429
0.0444786
0.0439828
0.0434714
0.0429296
0.0423721
0.0417856
0.0411839
0.040555
0.0399117
0.0392436
0.0385627
0.0378595
0.0371453
0.0364137
0.0356742
0.0349208
0.0341624
0.0333938
0.0326234
0.0318468
0.0310716
0.0302941
0.0295214
0.0287503
0.0279875
0.0272297
0.0264835
0.0257443
0.0250173
0.024301
0.0235997
0.0229087
0.0222344
0.0215728
0.020929
0.0202993
0.0196877
0.0190908
0.0185136
0.0179497
0.0174035
0.0168703
0.0163536
0.0158487
0.0153586
0.0148787
0.0144113
0.0139524
0.0135034
0.0130606
0.0126241
0.0121904
0.0117765
0.0113708
0.0109826
0.0106015
0.0102357
0.00987562
0.00952919
0.00918765
0.00885946
0.00853755
0.00823204
0.00793857
0.00767015
0.00742648
0.00723079
0.00710091
0.00704772
0.007092
0.00743233
0.00762432
0.0370305
0.0366766
0.0365278
0.0362494
0.0360739
0.0357907
0.0355826
0.0352837
0.0350419
0.0347223
0.034447
0.0341042
0.0337961
0.0334288
0.0330888
0.0326963
0.0323255
0.0319078
0.0315072
0.0310642
0.0306349
0.0301668
0.0297154
0.0292333
0.0287667
0.0282753
0.0277988
0.0272967
0.0268082
0.0262993
0.0258047
0.0252943
0.0247995
0.0242927
0.023803
0.0233046
0.0228249
0.0223397
0.0218743
0.0214064
0.0209594
0.0205112
0.0200839
0.0196576
0.0192526
0.0188506
0.0184699
0.0180938
0.0177387
0.0173894
0.0170603
0.0167375
0.0164351
0.0161404
0.0158648
0.0155975
0.0153481
0.0151075
0.0148827
0.0146665
0.0144651
0.0142719
0.0140923
0.0139204
0.0137613
0.0136091
0.0134668
0.0133331
0.0132088
0.0130924
0.0129839
0.0128823
0.0127871
0.0126975
0.0126128
0.0125324
0.0124552
0.0123806
0.0123076
0.0122351
0.0121623
0.0120851
0.0120041
0.0119149
0.0118177
0.011708
0.011586
0.0114473
0.0112935
0.0111223
0.0109381
0.0107436
0.0105494
0.0103653
0.0102351
0.0101784
0.0101719
0.0104169
0.0107788
0.0109566
0.0243014
0.0237781
0.0235614
0.0231513
0.0229165
0.0225171
0.022264
0.0218716
0.021602
0.0212149
0.0209324
0.0205498
0.0202583
0.0198806
0.0195836
0.0192118
0.0189124
0.0185482
0.0182496
0.0178948
0.0176001
0.0172569
0.0169716
0.0166452
0.0163728
0.0160652
0.0158077
0.0155201
0.0152796
0.0150134
0.0147916
0.0145483
0.0143463
0.0141268
0.0139454
0.0137505
0.01359
0.0134199
0.0132806
0.0131354
0.0130174
0.0128965
0.0128001
0.012703
0.0126283
0.0125545
0.0125015
0.0124507
0.0124195
0.0123944
0.0123835
0.01238
0.0123878
0.0124086
0.0124385
0.01248
0.0125317
0.012594
0.0126679
0.0127521
0.0128484
0.012955
0.0130739
0.013203
0.0133449
0.0134971
0.0136624
0.0138379
0.0140265
0.0142257
0.0144383
0.0146622
0.0148998
0.0151493
0.0154128
0.0156887
0.0159788
0.0162814
0.0165981
0.0169269
0.0172689
0.0176214
0.0179849
0.0183558
0.0187332
0.0191125
0.0194911
0.0198624
0.0202227
0.020565
0.0208859
0.0211812
0.0214521
0.0217022
0.0219475
0.0222345
0.022681
0.0232893
0.0241151
0.0250153
0.0175736
0.0170425
0.0168277
0.0164185
0.0162041
0.0158145
0.0156024
0.015234
0.0150265
0.0146806
0.0144802
0.0141577
0.0139667
0.0136683
0.0134889
0.0132151
0.013049
0.0128
0.0126488
0.0124247
0.0122895
0.0120904
0.0119722
0.0117976
0.0116967
0.0115462
0.0114627
0.0113356
0.0112696
0.0111664
0.0111155
0.0110378
0.0110002
0.010948
0.0109234
0.0108969
0.0108858
0.0108812
0.0108835
0.0108995
0.0109219
0.0109548
0.010996
0.0110462
0.0111063
0.0111738
0.0112524
0.0113377
0.0114349
0.0115384
0.0116542
0.0117766
0.0119114
0.0120533
0.0122074
0.0123694
0.0125438
0.0127269
0.0129226
0.0131276
0.0133459
0.0135743
0.0138168
0.0140706
0.0143394
0.0146207
0.0149181
0.0152294
0.0155582
0.0159025
0.0162661
0.0166471
0.0170496
0.0174719
0.0179182
0.0183873
0.0188833
0.0194058
0.019959
0.020543
0.0211624
0.0218181
0.0225151
0.0232553
0.0240444
0.0248855
0.0257856
0.0267497
0.027787
0.0289048
0.030115
0.0314286
0.0328617
0.03443
0.0361531
0.038041
0.0400958
0.0422846
0.043811
0.0444335
0.0209047
0.0203338
0.0200993
0.0196513
0.019408
0.0189767
0.0187272
0.0183133
0.0180608
0.0176652
0.0174128
0.0170366
0.0167878
0.0164325
0.0161908
0.0158574
0.0156258
0.0153152
0.0150962
0.014809
0.0146048
0.0143415
0.0141536
0.0139144
0.013744
0.0135291
0.0133771
0.0131865
0.0130534
0.0128868
0.0127729
0.0126304
0.0125357
0.0124169
0.0123413
0.0122463
0.0121896
0.0121181
0.0120806
0.0120348
0.012013
0.0119964
0.0119906
0.0119901
0.0120084
0.0120294
0.0120676
0.0121095
0.0121678
0.0122304
0.012309
0.0123926
0.0124916
0.0125964
0.0127165
0.0128429
0.0129841
0.0131324
0.0132955
0.0134662
0.0136515
0.0138457
0.0140548
0.0142737
0.0145082
0.0147533
0.0150148
0.015288
0.0155787
0.0158822
0.0162044
0.016541
0.0168977
0.0172707
0.0176655
0.0180791
0.0185168
0.0189761
0.0194622
0.0199735
0.0205151
0.0210861
0.021692
0.0223326
0.0230135
0.0237358
0.0245055
0.0253247
0.0261996
0.0271336
0.0281347
0.0292126
0.0303825
0.0316572
0.0330623
0.0346231
0.0363784
0.0383003
0.0398523
0.0405347
0.0316286
0.0310789
0.0308467
0.0304038
0.0301408
0.0297027
0.0294094
0.028971
0.028651
0.0282111
0.027868
0.0274213
0.0270538
0.0266018
0.0262162
0.0257601
0.0253622
0.0249046
0.0244992
0.0240433
0.0236351
0.0231841
0.0227774
0.0223346
0.0219333
0.0215019
0.0211098
0.0206928
0.0203132
0.0199135
0.0195494
0.0191694
0.0188237
0.0184656
0.0181402
0.017805
0.0175011
0.0171903
0.0169097
0.0166245
0.0163682
0.0161098
0.0158787
0.0156486
0.015444
0.015242
0.015064
0.01489
0.0147385
0.014592
0.0144667
0.0143472
0.0142478
0.0141551
0.0140815
0.0140145
0.0139655
0.0139228
0.0138976
0.0138834
0.0138785
0.013881
0.0139027
0.013928
0.0139712
0.0140184
0.0140821
0.0141499
0.0142329
0.0143188
0.0144177
0.014519
0.0146314
0.0147454
0.0148683
0.0149914
0.0151213
0.0152498
0.0153824
0.0155118
0.0156425
0.0157678
0.0158916
0.0160076
0.0161194
0.0162215
0.016317
0.0164018
0.0164794
0.0165473
0.0166105
0.0166639
0.0167142
0.0167806
0.0168813
0.0170613
0.0173766
0.0179047
0.0186355
0.0196808
0.0446564
0.0443241
0.0441839
0.0439159
0.0437458
0.043468
0.0432602
0.042961
0.0427141
0.042388
0.0421024
0.041747
0.0414233
0.0410371
0.0406756
0.0402582
0.0398597
0.0394112
0.0389771
0.0384981
0.0380301
0.0375219
0.0370222
0.0364866
0.0359577
0.0353973
0.0348424
0.0342603
0.0336834
0.0330832
0.0324887
0.0318748
0.0312676
0.0306449
0.0300304
0.0294049
0.0287865
0.0281574
0.027538
0.0269126
0.0262995
0.0256844
0.0250841
0.0244855
0.0239036
0.0233265
0.022768
0.0222169
0.0216857
0.0211627
0.0206595
0.020166
0.0196923
0.0192288
0.0187841
0.0183502
0.0179348
0.0175297
0.0171427
0.0167679
0.0164099
0.0160637
0.0157334
0.0154124
0.015106
0.014807
0.0145211
0.0142394
0.0139681
0.0137036
0.0134493
0.0131995
0.0129591
0.012721
0.0124911
0.0122616
0.0120393
0.011816
0.0115987
0.0113797
0.0111659
0.0109502
0.0107397
0.0105279
0.0103218
0.0101164
0.00991543
0.00971638
0.00952426
0.00933824
0.00916427
0.00900437
0.00886593
0.00875123
0.00869466
0.00867619
0.00878611
0.00904571
0.00944875
0.00962734
0.05616
0.056162
0.056175
0.0561899
0.0561999
0.0562024
0.056197
0.0561658
0.0561323
0.056064
0.0559964
0.0558933
0.0557929
0.0556527
0.0555146
0.0553347
0.0551547
0.0549322
0.0547068
0.0544387
0.0541648
0.0538485
0.0535233
0.0531578
0.0527792
0.0523605
0.0519274
0.0514547
0.0509658
0.0504383
0.0498931
0.0493104
0.0487092
0.0480721
0.0474162
0.0467266
0.0460184
0.0452785
0.0445207
0.0437339
0.0429302
0.0421004
0.0412559
0.0403885
0.0395093
0.0386111
0.0377042
0.0367827
0.0358561
0.034921
0.0339856
0.0330466
0.0321118
0.0311785
0.030254
0.0293359
0.0284312
0.027538
0.0266622
0.0258011
0.0249585
0.0241293
0.023321
0.0225297
0.0217615
0.0210127
0.0202884
0.0195863
0.0189099
0.018253
0.0176195
0.0170049
0.016412
0.0158365
0.0152804
0.0147395
0.0142153
0.0137036
0.0132059
0.0127179
0.0122406
0.0117698
0.0113065
0.0108467
0.0103911
0.0099577
0.00953588
0.0091381
0.00875268
0.0083919
0.00804592
0.0077279
0.00742825
0.00716848
0.00692746
0.00676977
0.00669978
0.00669855
0.00703024
0.00721876
0.0626431
0.0629664
0.0631115
0.0633997
0.0635932
0.0638617
0.0640718
0.064316
0.0645275
0.0647478
0.0649518
0.0651488
0.0653386
0.0655114
0.0656814
0.0658281
0.0659732
0.066091
0.0662065
0.0662921
0.0663733
0.0664228
0.0664565
0.066469
0.0664703
0.0664319
0.0663819
0.0662943
0.0661901
0.066048
0.0658849
0.0656824
0.0654544
0.0651848
0.0648854
0.0645421
0.064168
0.0637525
0.0633025
0.0628094
0.0622782
0.0617001
0.0610831
0.0604171
0.0597111
0.0589556
0.0581592
0.0573143
0.0564286
0.0554964
0.0545245
0.053509
0.0524563
0.0513637
0.0502372
0.0490754
0.047884
0.0466624
0.0454167
0.0441463
0.0428607
0.041559
0.0402489
0.0389297
0.037609
0.0362864
0.0349689
0.0336564
0.0323552
0.0310655
0.0297932
0.0285386
0.0273069
0.0260984
0.0249176
0.0237644
0.0226402
0.0215404
0.0204709
0.019429
0.0184186
0.0174384
0.0164905
0.0155747
0.0146917
0.0138404
0.0130146
0.0122173
0.0114432
0.0106962
0.00997169
0.00927352
0.00859958
0.00795834
0.00736219
0.00681331
0.00640025
0.00621211
0.00617344
0.00635998
0.0640075
0.0644922
0.0647097
0.0651293
0.0654144
0.065813
0.0661331
0.0665139
0.0668526
0.0672198
0.0675675
0.0679243
0.0682746
0.0686223
0.0689705
0.0693093
0.0696517
0.0699807
0.0703141
0.0706317
0.0709528
0.0712565
0.071562
0.0718506
0.072137
0.0724047
0.0726692
0.0729139
0.0731536
0.0733743
0.0735878
0.0737802
0.0739621
0.0741208
0.0742652
0.0743836
0.0744852
0.074559
0.0746044
0.0746235
0.0746265
0.0745812
0.074512
0.0743974
0.0742505
0.0740556
0.0738212
0.0735351
0.0732027
0.0728144
0.0723737
0.0718732
0.0713151
0.0706952
0.0700136
0.0692652
0.068456
0.0675768
0.0666361
0.0656245
0.0645513
0.0634116
0.0622128
0.0609492
0.0596297
0.0582498
0.0568175
0.0553308
0.0537966
0.0522148
0.0505914
0.048928
0.047229
0.0454974
0.0437364
0.04195
0.0401427
0.0383245
0.0364921
0.034655
0.03281
0.030967
0.0291231
0.0272894
0.0254638
0.0236586
0.021874
0.0201227
0.018408
0.0167222
0.0150885
0.0135059
0.0119994
0.0105748
0.0092777
0.00808197
0.0070825
0.00635303
0.00603049
0.00600332
0.0614809
0.0619827
0.0622122
0.0626363
0.0629355
0.0633404
0.063677
0.0640698
0.0644292
0.0648159
0.0651899
0.0655744
0.0659582
0.0663427
0.0667331
0.0671189
0.0675136
0.0679009
0.0682982
0.0686867
0.0690848
0.0694735
0.0698706
0.0702576
0.0706502
0.0710317
0.0714148
0.0717835
0.072147
0.0725005
0.0728583
0.0732072
0.0735584
0.0739019
0.0742469
0.0745861
0.0749209
0.0752466
0.0755667
0.0758772
0.0761795
0.0764677
0.0767473
0.0770097
0.0772604
0.077491
0.0777059
0.0778979
0.0780695
0.078215
0.0783355
0.0784253
0.0784762
0.0784971
0.0784989
0.0784392
0.0783578
0.0782162
0.0780389
0.0777972
0.077507
0.0771455
0.0767217
0.0762163
0.0756338
0.0749682
0.0742132
0.0733683
0.0724235
0.0713817
0.0702329
0.0689829
0.0676235
0.0661632
0.0645953
0.0629308
0.0611648
0.0593076
0.0573561
0.0553186
0.0531924
0.0509833
0.0486866
0.0463058
0.0438341
0.0412731
0.0386184
0.0358701
0.0330326
0.0301295
0.0271604
0.0241472
0.0211145
0.0181098
0.0152397
0.0125163
0.0101251
0.00808918
0.00662601
0.00592579
0.0563353
0.056769
0.0569682
0.0573264
0.057574
0.0579188
0.0581954
0.0585315
0.0588283
0.0591601
0.0594717
0.0598024
0.0601255
0.0604575
0.0607897
0.0611243
0.0614636
0.0618016
0.0621465
0.0624878
0.0628368
0.063181
0.0635326
0.0638787
0.0642312
0.0645781
0.0649303
0.0652772
0.0656297
0.0659806
0.0663385
0.0666953
0.0670585
0.0674207
0.0677877
0.0681523
0.0685231
0.0688934
0.0692677
0.0696421
0.0700192
0.070396
0.0707747
0.0711521
0.0715302
0.0719055
0.0722801
0.0726521
0.0730214
0.0733837
0.0737384
0.0740804
0.0744062
0.0747107
0.0749834
0.0752085
0.0754315
0.0756201
0.0757961
0.0759369
0.0760587
0.0761468
0.0762164
0.0762553
0.0762722
0.0762637
0.0761866
0.0760816
0.0759091
0.0756929
0.0754062
0.0750621
0.0746314
0.0741258
0.0735154
0.0728049
0.0719651
0.0709943
0.0698647
0.068571
0.0670883
0.065411
0.0635194
0.0614105
0.0590716
0.0565051
0.0537025
0.0506698
0.0474137
0.0439274
0.040182
0.0361504
0.0318273
0.0272317
0.0225296
0.0182236
0.0144569
0.0116256
0.00943625
0.00727376
0.0498767
0.0501661
0.0502991
0.0505395
0.0506897
0.0509282
0.0510944
0.0513277
0.0515093
0.051738
0.051933
0.0521589
0.052365
0.0525899
0.0528048
0.05303
0.0532517
0.0534778
0.0537046
0.053932
0.0541622
0.0543908
0.0546233
0.054853
0.055087
0.0553182
0.055554
0.0557879
0.0560275
0.056267
0.0565124
0.0567585
0.0570106
0.0572637
0.0575227
0.0577833
0.0580501
0.0583192
0.0585948
0.0588732
0.0591581
0.0594468
0.059742
0.060042
0.0603491
0.060662
0.0609816
0.0613032
0.0616286
0.061954
0.06228
0.0626031
0.0629231
0.0632372
0.0635452
0.0638497
0.0641597
0.0644633
0.0647688
0.065061
0.0653426
0.0655943
0.0658083
0.0660161
0.0661909
0.0663623
0.0665013
0.066631
0.0667246
0.06679
0.0668179
0.0668225
0.066755
0.0666388
0.0664411
0.0661671
0.0657887
0.065304
0.0646869
0.0639318
0.0630152
0.0619302
0.0606569
0.0591905
0.0575182
0.055638
0.0535055
0.0511167
0.0483069
0.045061
0.0412858
0.0369486
0.0322271
0.0273521
0.0224778
0.018064
0.0146147
0.0122379
0.0107425
0.00922556
0.0310058
0.0310348
0.031035
0.0310176
0.0309938
0.0309746
0.0309412
0.0309211
0.0308839
0.0308619
0.0308234
0.0307985
0.0307597
0.0307314
0.0306922
0.0306602
0.0306203
0.0305847
0.0305435
0.0305043
0.0304614
0.0304188
0.030374
0.0303282
0.0302813
0.030233
0.0301842
0.0301337
0.0300834
0.0300312
0.0299792
0.0299252
0.0298713
0.0298154
0.0297595
0.0297017
0.0296437
0.0295839
0.0295239
0.029462
0.0293998
0.0293357
0.0292709
0.0292041
0.029136
0.0290653
0.0289921
0.028915
0.0288345
0.028749
0.0286591
0.0285635
0.0284627
0.0283561
0.0282441
0.0281271
0.0280042
0.0278719
0.0277301
0.0275732
0.0274002
0.027204
0.0269834
0.0267582
0.0265152
0.0262679
0.0260043
0.0257339
0.0254461
0.0251478
0.024833
0.0245035
0.0241488
0.0237776
0.0233777
0.0229554
0.0225014
0.0220196
0.0215032
0.0209551
0.0203707
0.0197529
0.0190987
0.0184109
0.0176865
0.0169203
0.0160851
0.0151317
0.0140306
0.0127499
0.0111904
0.00927585
0.00708162
0.00496595
0.00301742
0.00232238
0.00260775
0.00527947
0.00862399
0.00984802
0.00947209
0.00467552
0.00403046
0.0039014
0.00387307
0.00389707
0.00381771
0.00378065
0.00376597
0.00376305
0.00378546
0.00385663
0.00413357
0.0047164
0.00547335
0.00655131
0.0069198
0.0069015
0.00576465
0.00340376
0.00777589
0.0046806
0.00428952
0.00419013
0.00416619
0.00404589
0.00396682
0.00393219
0.00392034
0.00392275
0.00397603
0.00416352
0.00455759
0.00514133
0.00621933
0.00686813
0.00700414
0.00675929
0.00519375
0.00278387
0.00621372
0.00478481
0.00460508
0.0045412
0.00436893
0.00426779
0.00420003
0.00417291
0.00416487
0.00417776
0.00430527
0.00456671
0.005051
0.00599136
0.00679613
0.00704937
0.00703848
0.00647864
0.00456383
0.00215225
0.00579546
0.00511619
0.0050344
0.0047946
0.00463727
0.00452199
0.00446461
0.00444045
0.00443821
0.00453995
0.00476551
0.00519737
0.00606499
0.00686868
0.00719428
0.00725433
0.00697776
0.00602678
0.00378391
0.00154664
0.0059181
0.00548181
0.0053437
0.00505449
0.00493996
0.00486756
0.00484967
0.00488369
0.00500275
0.00528635
0.00568643
0.00651085
0.00718407
0.00748863
0.00757502
0.00739544
0.00678125
0.00540454
0.00293486
0.00101804
0.00628506
0.00593557
0.00580209
0.00561795
0.00558601
0.00559524
0.0057222
0.00595456
0.00637514
0.00689899
0.00751933
0.00800046
0.00820567
0.00824884
0.00796218
0.00732585
0.0063709
0.00458637
0.00189575
0.000564248
0.00721798
0.00709229
0.00707686
0.00710628
0.00738162
0.0077053
0.00825408
0.00895487
0.00962831
0.00982857
0.0098933
0.0097506
0.00942354
0.00883885
0.00801891
0.0070774
0.00564138
0.00347562
0.00115107
0.000252369
0.0108631
0.011303
0.0118079
0.012467
0.0134255
0.0144112
0.0148911
0.0150412
0.0140102
0.0134139
0.0123218
0.0115325
0.0103096
0.0091767
0.00784359
0.00644573
0.00445532
0.00225155
0.000647467
9.15056e-05
0.0252691
0.0257486
0.025951
0.02595
0.0252542
0.0238922
0.022234
0.0199645
0.0182227
0.0162785
0.014477
0.0126689
0.0107324
0.00894485
0.00708646
0.00503978
0.00297157
0.00132241
0.000393446
4.05914e-05
0.0411771
0.0393959
0.0374247
0.0346314
0.032092
0.0285029
0.0258774
0.0227065
0.0203224
0.0174417
0.0151863
0.0124543
0.0101249
0.00733918
0.00515264
0.00313463
0.00189276
0.000899805
0.000359873
6.71328e-05
0.037991
0.0364543
0.0348582
0.0323807
0.0302158
0.026911
0.0244949
0.0215901
0.0194276
0.0167723
0.0147818
0.0121901
0.0102367
0.00744709
0.00540179
0.00311677
0.00181657
0.000763545
0.000269698
5.45295e-05
0.0200702
0.0209946
0.0215072
0.0217613
0.0218445
0.0211276
0.0199238
0.0180581
0.0167581
0.0149669
0.013769
0.0119443
0.010609
0.00879033
0.00721165
0.00516969
0.0029594
0.00116638
0.000289603
3.68506e-05
0.00946852
0.00966668
0.0100736
0.0105396
0.011331
0.0122456
0.0130345
0.0133452
0.0131641
0.0122408
0.011793
0.010863
0.0100322
0.0089777
0.00781911
0.00648833
0.00455861
0.00224324
0.000568507
4.74691e-05
0.00684729
0.0066656
0.00661069
0.00658421
0.00675514
0.00699526
0.00742232
0.00801504
0.00879405
0.00916435
0.0093411
0.00940849
0.00914866
0.00870817
0.00794788
0.00707132
0.00567335
0.00352969
0.00107394
0.000128676
0.00610481
0.00576898
0.00563743
0.00543515
0.00538504
0.00537111
0.00545238
0.00562612
0.0059865
0.00644073
0.00712969
0.00772764
0.00801507
0.00809365
0.00792626
0.00731059
0.00639057
0.00465271
0.00191512
0.000436986
0.0057853
0.00538246
0.00525285
0.00496855
0.00485186
0.0047693
0.00474334
0.00475506
0.00485424
0.0050964
0.0054753
0.00624557
0.0070282
0.00738803
0.00749122
0.00738729
0.00679484
0.00545545
0.00300775
0.000936448
0.00568047
0.00502034
0.00494852
0.00474266
0.00458543
0.00447319
0.00440739
0.00437776
0.00436918
0.00445235
0.00466666
0.00506581
0.00588425
0.00677797
0.00715332
0.00722404
0.00698928
0.00607154
0.00385941
0.00151337
0.00617997
0.00473028
0.00453147
0.00446395
0.00432364
0.00421896
0.00415382
0.00412706
0.0041191
0.00412792
0.00424265
0.00449707
0.00495662
0.00585714
0.00674274
0.00703797
0.00704408
0.006515
0.00463991
0.00215826
0.00780358
0.0046533
0.00425625
0.00414778
0.00411511
0.00402158
0.00393541
0.00389773
0.00388553
0.00388749
0.00393673
0.00410945
0.00449906
0.00507862
0.00613623
0.00684588
0.00700236
0.00678698
0.00525802
0.00281743
0.00947297
0.00465268
0.00399492
0.00386825
0.00383838
0.00385205
0.00379694
0.00375407
0.00373922
0.00373615
0.0037584
0.0038259
0.00407893
0.00464037
0.00541947
0.0065218
0.00691885
0.00692008
0.00582766
0.00345011
0.00397117
0.00375019
0.00374679
0.0037468
0.00374652
0.00374628
0.00374612
0.00374604
0.003746
0.00374598
0.00374598
0.003746
0.00374604
0.00374612
0.00374628
0.00374652
0.0037468
0.00374679
0.00375019
0.00397118
0.00441489
0.00375346
0.00374141
0.00374096
0.00374056
0.00374012
0.00373987
0.00373975
0.00373969
0.00373966
0.00373966
0.00373969
0.00373975
0.00373987
0.00374012
0.00374056
0.00374096
0.00374141
0.00375346
0.00441489
0.0048594
0.00376059
0.00373287
0.00373264
0.00373284
0.00373273
0.00373256
0.00373242
0.00373235
0.00373231
0.00373231
0.00373235
0.00373242
0.00373256
0.00373273
0.00373284
0.00373264
0.00373286
0.00376058
0.0048594
0.00530178
0.00377206
0.0037243
0.00372396
0.00372492
0.00372524
0.00372525
0.00372519
0.00372514
0.00372512
0.00372512
0.00372514
0.00372519
0.00372525
0.00372524
0.00372492
0.00372396
0.0037243
0.00377206
0.00530178
0.00573924
0.00378544
0.00371551
0.00371483
0.00371665
0.00371758
0.00371789
0.00371795
0.00371795
0.00371795
0.00371795
0.00371795
0.00371795
0.00371789
0.00371758
0.00371665
0.00371483
0.0037155
0.00378544
0.00573924
0.00617059
0.00379767
0.00370577
0.0037051
0.003708
0.00370969
0.00371043
0.0037107
0.00371078
0.0037108
0.0037108
0.00371078
0.0037107
0.00371043
0.00370969
0.003708
0.0037051
0.00370577
0.00379767
0.00617058
0.00659185
0.00380847
0.00369498
0.00369474
0.00369894
0.00370155
0.00370284
0.0037034
0.00370361
0.00370368
0.00370368
0.00370361
0.0037034
0.00370284
0.00370155
0.00369894
0.00369474
0.00369498
0.00380847
0.00659186
0.00700084
0.00381671
0.00368272
0.00368362
0.00368941
0.00369311
0.00369508
0.00369602
0.00369642
0.00369656
0.00369656
0.00369642
0.00369602
0.00369508
0.00369311
0.00368941
0.00368362
0.00368272
0.00381671
0.00700084
0.00739335
0.00382334
0.00366915
0.00367174
0.00367942
0.00368437
0.00368714
0.00368854
0.00368919
0.00368943
0.00368943
0.00368919
0.00368854
0.00368714
0.00368437
0.00367942
0.00367174
0.00366915
0.00382334
0.00739336
0.00776768
0.00382735
0.00365405
0.00365903
0.00366893
0.00367532
0.00367898
0.00368095
0.0036819
0.00368228
0.00368228
0.0036819
0.00368095
0.00367898
0.00367532
0.00366893
0.00365903
0.00365405
0.00382735
0.00776768
0.00812024
0.00383021
0.00363764
0.00364552
0.00365794
0.00366592
0.00367061
0.00367321
0.00367453
0.00367507
0.00367507
0.00367453
0.00367321
0.00367061
0.00366592
0.00365794
0.00364552
0.00363764
0.00383021
0.00812024
0.00845035
0.00383068
0.00361989
0.00363122
0.00364645
0.0036562
0.00366201
0.00366531
0.00366705
0.00366779
0.00366779
0.00366705
0.00366531
0.00366201
0.0036562
0.00364645
0.00363122
0.00361989
0.00383069
0.00845034
0.00875525
0.00383018
0.0036009
0.00361613
0.00363446
0.00364613
0.00365316
0.00365725
0.00365946
0.00366041
0.00366041
0.00365946
0.00365725
0.00365316
0.00364613
0.00363446
0.00361613
0.0036009
0.00383019
0.00875524
0.00903545
0.00382886
0.00358085
0.00360032
0.00362199
0.00363573
0.00364408
0.00364901
0.00365173
0.00365292
0.00365292
0.00365173
0.00364901
0.00364408
0.00363573
0.00362199
0.00360032
0.00358085
0.00382887
0.00903544
0.00928895
0.00382647
0.00355981
0.0035838
0.00360904
0.003625
0.00363475
0.00364059
0.00364385
0.00364531
0.00364531
0.00364385
0.00364059
0.00363475
0.00362499
0.00360904
0.00358379
0.00355981
0.00382647
0.00928894
0.00951739
0.00382339
0.00353793
0.00356664
0.00359565
0.00361394
0.00362518
0.00363197
0.00363582
0.00363755
0.00363755
0.00363582
0.00363197
0.00362518
0.00361394
0.00359565
0.00356664
0.00353794
0.0038234
0.00951738
0.00971929
0.00382011
0.00351531
0.00354885
0.00358181
0.00360255
0.00361535
0.00362316
0.00362762
0.00362964
0.00362964
0.00362762
0.00362316
0.00361535
0.00360255
0.00358181
0.00354885
0.00351531
0.0038201
0.00971928
0.00989731
0.00381663
0.00349216
0.00353055
0.00356758
0.00359087
0.00360529
0.00361414
0.00361924
0.00362157
0.00362157
0.00361924
0.00361414
0.00360529
0.00359087
0.00356758
0.00353055
0.00349217
0.00381663
0.0098973
0.0100502
0.00381347
0.00346849
0.0035117
0.00355293
0.00357887
0.00359499
0.00360492
0.00361068
0.00361332
0.00361332
0.00361068
0.00360492
0.00359499
0.00357887
0.00355293
0.0035117
0.00346849
0.00381347
0.0100502
0.0101815
0.00381057
0.00344463
0.00349247
0.00353795
0.0035666
0.00358445
0.0035955
0.00360193
0.0036049
0.0036049
0.00360193
0.0035955
0.00358445
0.0035666
0.00353795
0.00349248
0.00344463
0.00381058
0.0101815
0.0102898
0.00380853
0.00342046
0.00347279
0.0035226
0.00355404
0.00357367
0.00358587
0.003593
0.0035963
0.0035963
0.003593
0.00358587
0.00357367
0.00355404
0.0035226
0.00347279
0.00342046
0.00380853
0.0102897
0.0103794
0.00380713
0.00339644
0.00345288
0.00350698
0.00354123
0.00356267
0.00357603
0.00358387
0.00358751
0.00358751
0.00358387
0.00357603
0.00356267
0.00354123
0.00350698
0.00345287
0.00339644
0.00380714
0.0103794
0.0104486
0.00380736
0.00337229
0.00343259
0.00349103
0.00352816
0.00355145
0.003566
0.00357455
0.00357853
0.00357853
0.00357455
0.003566
0.00355145
0.00352816
0.00349103
0.00343259
0.0033723