/*--------------------------------*- C++ -*----------------------------------*\
| =========                 |                                                 |
| \\      /  F ield         | OpenFOAM: The Open Source CFD Toolbox           |
|  \\    /   O peration     | Version:  2.1.0                                 |
|   \\  /    A nd           | Web:      www.OpenFOAM.org                      |
|    \\/     M anipulation  |                                                 |
\*---------------------------------------------------------------------------*/
FoamFile
{
    version     2.0;
    format      ascii;
    class       volScalarField;
    location    "0.4";
    object      nut;
}
// * * * * * * * * * * * * * * * * * * * * * * * * * * * * * * * * * * * * * //

dimensions      [0 2 -1 0 0 0 0];

internalField   nonuniform List<scalar> 
6400
(
7.08876e-06
7.10727e-06
7.1192e-06
7.13478e-06
7.14862e-06
7.16648e-06
7.18105e-06
7.19991e-06
7.21517e-06
7.23485e-06
7.25089e-06
7.271e-06
7.288e-06
7.30839e-06
7.32642e-06
7.34708e-06
7.36615e-06
7.38716e-06
7.40727e-06
7.42877e-06
7.44995e-06
7.47212e-06
7.49443e-06
7.51747e-06
7.541e-06
7.56506e-06
7.58983e-06
7.61505e-06
7.64112e-06
7.66761e-06
7.69503e-06
7.72289e-06
7.75174e-06
7.78107e-06
7.81141e-06
7.84231e-06
7.87424e-06
7.90679e-06
7.94037e-06
7.97453e-06
8.00958e-06
8.04518e-06
8.08153e-06
8.11834e-06
8.15573e-06
8.19342e-06
8.23149e-06
8.2697e-06
8.30806e-06
8.34641e-06
8.38471e-06
8.42277e-06
8.46032e-06
8.49646e-06
8.53079e-06
8.56235e-06
8.59365e-06
8.62465e-06
8.65548e-06
8.6859e-06
8.71638e-06
8.74695e-06
8.77759e-06
8.80853e-06
8.83909e-06
8.8701e-06
8.90056e-06
8.93131e-06
8.96055e-06
8.9889e-06
9.01608e-06
9.04151e-06
9.06543e-06
9.08742e-06
9.10783e-06
9.12688e-06
9.14527e-06
9.16418e-06
9.18509e-06
9.21038e-06
9.24242e-06
9.2839e-06
9.33505e-06
9.38906e-06
9.43816e-06
9.50261e-06
9.5704e-06
9.63373e-06
9.6697e-06
9.63351e-06
9.43824e-06
8.9152e-06
7.8245e-06
5.9721e-06
3.46415e-06
2.31885e-06
2.40644e-06
3.78121e-06
3.87689e-06
4.18279e-06
7.53722e-05
7.58325e-05
7.59204e-05
7.62205e-05
7.63206e-05
7.65713e-05
7.66919e-05
7.69094e-05
7.70472e-05
7.72413e-05
7.73903e-05
7.75672e-05
7.77215e-05
7.78848e-05
7.80394e-05
7.81911e-05
7.8342e-05
7.84832e-05
7.86272e-05
7.8758e-05
7.8893e-05
7.90136e-05
7.9139e-05
7.92503e-05
7.93663e-05
7.94699e-05
7.95769e-05
7.96722e-05
7.97693e-05
7.98554e-05
7.99413e-05
8.00167e-05
8.00899e-05
8.01526e-05
8.02111e-05
8.02586e-05
8.02997e-05
8.03288e-05
8.03529e-05
8.03665e-05
8.03711e-05
8.03622e-05
8.0341e-05
8.03036e-05
8.025e-05
8.01764e-05
8.00816e-05
7.9962e-05
7.98154e-05
7.96389e-05
7.94302e-05
7.9188e-05
7.89196e-05
7.8617e-05
7.82754e-05
7.7756e-05
7.70626e-05
7.63302e-05
7.55546e-05
7.47365e-05
7.38724e-05
7.29735e-05
7.20277e-05
7.10505e-05
7.00233e-05
6.89588e-05
6.7844e-05
6.66928e-05
6.5489e-05
6.42257e-05
6.29071e-05
6.15253e-05
6.00789e-05
5.85643e-05
5.69785e-05
5.53209e-05
5.35896e-05
5.17871e-05
4.99138e-05
4.79754e-05
4.59759e-05
4.39251e-05
4.18322e-05
3.97016e-05
3.75123e-05
3.52359e-05
3.28749e-05
3.04108e-05
2.7836e-05
2.51466e-05
2.2359e-05
1.95095e-05
1.66796e-05
1.40144e-05
1.15049e-05
9.23571e-06
7.49391e-06
6.29032e-06
5.67937e-06
6.86489e-06
0.000115184
0.000115445
0.000115549
0.000115661
0.000115751
0.000115824
0.000115904
0.000115948
0.000116016
0.000116036
0.000116087
0.000116085
0.000116116
0.00011609
0.000116096
0.000116046
0.000116022
0.000115944
0.000115888
0.000115781
0.000115687
0.000115545
0.000115412
0.000115236
0.000115064
0.000114857
0.000114653
0.000114417
0.000114178
0.000113911
0.000113636
0.000113335
0.000113023
0.000112685
0.000112334
0.000111957
0.000111564
0.000111146
0.000110701
0.000110227
0.00010973
0.000109201
0.000108645
0.000108054
0.000107429
0.000106767
0.000106063
0.000105315
0.000104517
0.000103663
0.000102748
0.000101514
0.000100017
9.84824e-05
9.69038e-05
9.52976e-05
9.36563e-05
9.19853e-05
9.02812e-05
8.85465e-05
8.67897e-05
8.50195e-05
8.31858e-05
8.13423e-05
7.9449e-05
7.75392e-05
7.55879e-05
7.36175e-05
7.16114e-05
6.95842e-05
6.75237e-05
6.54384e-05
6.33191e-05
6.11708e-05
5.89863e-05
5.67691e-05
5.45137e-05
5.22243e-05
4.98982e-05
4.75412e-05
4.51546e-05
4.27475e-05
4.03251e-05
3.78992e-05
3.54842e-05
3.31068e-05
3.07706e-05
2.84968e-05
2.62846e-05
2.41453e-05
2.20505e-05
2.00205e-05
1.80283e-05
1.59876e-05
1.39441e-05
1.19351e-05
1.0136e-05
8.62426e-06
8.1252e-06
1.13128e-05
0.000136992
0.000136708
0.0001366
0.000136328
0.00013622
0.000135923
0.00013579
0.000135473
0.000135303
0.000134969
0.000134759
0.000134404
0.000134151
0.000133774
0.000133477
0.000133074
0.000132731
0.000132297
0.000131907
0.000131437
0.000130996
0.000130484
0.000129984
0.000129414
0.000128681
0.000127663
0.000126632
0.000125563
0.00012448
0.000123363
0.00012223
0.000121065
0.000119881
0.000118665
0.000117429
0.000116161
0.000114871
0.000113549
0.000112204
0.000110828
0.000109423
0.000107991
0.000106529
0.000105039
0.000103519
0.000101971
0.000100393
9.87879e-05
9.71536e-05
9.54847e-05
9.37937e-05
9.21013e-05
9.03686e-05
8.86273e-05
8.68566e-05
8.50764e-05
8.32704e-05
8.1448e-05
7.95977e-05
7.77266e-05
7.58276e-05
7.39109e-05
7.19684e-05
7.00115e-05
6.80304e-05
6.60383e-05
6.40264e-05
6.20085e-05
5.99784e-05
5.79493e-05
5.59176e-05
5.38961e-05
5.18836e-05
4.98916e-05
4.79202e-05
4.59798e-05
4.40699e-05
4.21991e-05
4.03657e-05
3.85748e-05
3.68225e-05
3.51104e-05
3.34273e-05
3.17735e-05
3.01571e-05
2.85454e-05
2.69451e-05
2.53481e-05
2.37476e-05
2.21366e-05
2.05107e-05
1.88659e-05
1.71923e-05
1.54688e-05
1.37035e-05
1.19796e-05
1.051e-05
9.77504e-06
1.19115e-05
1.20611e-05
0.000139009
0.000139093
0.000138844
0.000138694
0.000137944
0.000137354
0.000136459
0.000135679
0.000134734
0.00013385
0.000132876
0.000131922
0.000130919
0.000129909
0.000128872
0.000127812
0.000126737
0.000125629
0.000124511
0.000123355
0.000122191
0.000120988
0.000119775
0.000118524
0.000117266
0.000115981
0.000114683
0.000113356
0.000112018
0.000110653
0.000109276
0.000107873
0.000106458
0.000105018
0.000103565
0.000102088
0.000100595
9.90744e-05
9.75487e-05
9.60132e-05
9.44418e-05
9.28675e-05
9.12667e-05
8.96584e-05
8.80298e-05
8.63922e-05
8.47393e-05
8.30783e-05
8.14067e-05
7.97297e-05
7.80475e-05
7.63625e-05
7.46731e-05
7.29809e-05
7.12827e-05
6.95856e-05
6.78891e-05
6.61979e-05
6.4511e-05
6.28334e-05
6.11649e-05
5.95104e-05
5.78694e-05
5.62469e-05
5.46414e-05
5.30582e-05
5.14949e-05
4.99561e-05
4.84387e-05
4.69464e-05
4.54705e-05
4.40198e-05
4.25982e-05
4.11819e-05
3.97933e-05
3.84111e-05
3.70465e-05
3.56837e-05
3.43294e-05
3.29699e-05
3.16094e-05
3.02395e-05
2.88625e-05
2.74775e-05
2.60873e-05
2.46914e-05
2.33026e-05
2.19136e-05
2.0544e-05
1.91925e-05
1.78767e-05
1.65959e-05
1.53715e-05
1.41872e-05
1.30994e-05
1.22689e-05
1.20813e-05
1.37497e-05
1.37872e-05
1.4134e-05
0.000125897
0.000125269
0.000124872
0.000124343
0.000123439
0.000122553
0.000121486
0.000120446
0.00011932
0.000118203
0.000117048
0.000115884
0.000114707
0.00011351
0.000112314
0.000111089
0.000109873
0.000108627
0.000107392
0.000106126
0.000104868
0.000103588
0.000102315
0.000101028
9.97291e-05
9.84182e-05
9.70972e-05
9.57638e-05
9.44256e-05
9.30714e-05
9.17141e-05
9.03402e-05
8.89641e-05
8.75724e-05
8.61797e-05
8.47732e-05
8.3367e-05
8.19501e-05
8.05358e-05
7.91125e-05
7.76927e-05
7.62703e-05
7.48514e-05
7.34342e-05
7.20224e-05
7.06156e-05
6.92165e-05
6.78249e-05
6.64432e-05
6.50708e-05
6.37094e-05
6.23575e-05
6.10178e-05
5.96888e-05
5.83721e-05
5.70675e-05
5.57754e-05
5.45002e-05
5.32401e-05
5.19894e-05
5.07556e-05
4.95309e-05
4.83193e-05
4.71153e-05
4.59216e-05
4.47347e-05
4.35554e-05
4.23818e-05
4.12143e-05
4.00518e-05
3.88948e-05
3.77453e-05
3.66032e-05
3.54684e-05
3.43417e-05
3.32215e-05
3.21127e-05
3.10125e-05
2.99318e-05
2.88624e-05
2.78133e-05
2.67801e-05
2.577e-05
2.47792e-05
2.38143e-05
2.28709e-05
2.19496e-05
2.10518e-05
2.01913e-05
1.93668e-05
1.85963e-05
1.78854e-05
1.72644e-05
1.67664e-05
1.65228e-05
1.66361e-05
1.60617e-05
1.58181e-05
1.57932e-05
1.32091e-05
0.000110458
0.000109288
0.000108753
0.000107899
0.000106985
0.000105916
0.000104856
0.000103705
0.00010259
0.000101408
0.000100271
9.90776e-05
9.79297e-05
9.67326e-05
9.55795e-05
9.43825e-05
9.32276e-05
9.20343e-05
9.08809e-05
8.96944e-05
8.85492e-05
8.73722e-05
8.62274e-05
8.50606e-05
8.39212e-05
8.27635e-05
8.16307e-05
8.04852e-05
7.93619e-05
7.8228e-05
7.71142e-05
7.59919e-05
7.48878e-05
7.37771e-05
7.26831e-05
7.15839e-05
7.04998e-05
6.94117e-05
6.83372e-05
6.7255e-05
6.61899e-05
6.51289e-05
6.40705e-05
6.30198e-05
6.19732e-05
6.09326e-05
5.98969e-05
5.88661e-05
5.78408e-05
5.68203e-05
5.58053e-05
5.47956e-05
5.37926e-05
5.27964e-05
5.18109e-05
5.08304e-05
4.98558e-05
4.88895e-05
4.79315e-05
4.69808e-05
4.60435e-05
4.51164e-05
4.4205e-05
4.33054e-05
4.24225e-05
4.15539e-05
4.07111e-05
3.98842e-05
3.90844e-05
3.83029e-05
3.75501e-05
3.68156e-05
3.61071e-05
3.54169e-05
3.47517e-05
3.41034e-05
3.34768e-05
3.28619e-05
3.22642e-05
3.12924e-05
3.0342e-05
2.93945e-05
2.8469e-05
2.75475e-05
2.6649e-05
2.57562e-05
2.48883e-05
2.40289e-05
2.31994e-05
2.23858e-05
2.16123e-05
2.08686e-05
2.01789e-05
1.95437e-05
1.90033e-05
1.85994e-05
1.83386e-05
1.82358e-05
1.89308e-05
1.49387e-05
9.98181e-05
9.80646e-05
9.75153e-05
9.64425e-05
9.5604e-05
9.44438e-05
9.34993e-05
9.23371e-05
9.13619e-05
9.02295e-05
8.92562e-05
8.81609e-05
8.71998e-05
8.61407e-05
8.51942e-05
8.41669e-05
8.32342e-05
8.22333e-05
8.13116e-05
8.03305e-05
7.94157e-05
7.82234e-05
7.70049e-05
7.57307e-05
7.45168e-05
7.32737e-05
7.21001e-05
7.08931e-05
6.97604e-05
6.85986e-05
6.75138e-05
6.64048e-05
6.53741e-05
6.43238e-05
6.33504e-05
6.23611e-05
6.14483e-05
6.05233e-05
5.96733e-05
5.88146e-05
5.80267e-05
5.72306e-05
5.65016e-05
5.57637e-05
5.50897e-05
5.44071e-05
5.37838e-05
5.3152e-05
5.25743e-05
5.19876e-05
5.14485e-05
5.0903e-05
5.03933e-05
4.98761e-05
4.93898e-05
4.88964e-05
4.84262e-05
4.7947e-05
4.74821e-05
4.70052e-05
4.65371e-05
4.60543e-05
4.55758e-05
4.50706e-05
4.45758e-05
4.40834e-05
4.3558e-05
4.30533e-05
4.25245e-05
4.20114e-05
4.14783e-05
4.09571e-05
4.04197e-05
3.98904e-05
3.93479e-05
3.88105e-05
3.82618e-05
3.77153e-05
3.71599e-05
3.66012e-05
3.60321e-05
3.54501e-05
3.48539e-05
3.42391e-05
3.36051e-05
3.29459e-05
3.22622e-05
3.15478e-05
3.08067e-05
3.00364e-05
2.92478e-05
2.84478e-05
2.76601e-05
2.69065e-05
2.62835e-05
2.58207e-05
2.54425e-05
2.5608e-05
2.61407e-05
2.05175e-05
8.28131e-05
8.07506e-05
7.99143e-05
7.83596e-05
7.74918e-05
7.60455e-05
7.51521e-05
7.38061e-05
7.28957e-05
7.16206e-05
7.07392e-05
6.95211e-05
6.867e-05
6.75123e-05
6.66949e-05
6.56005e-05
6.48207e-05
6.37921e-05
6.30541e-05
6.20935e-05
6.14017e-05
6.05114e-05
5.98741e-05
5.90638e-05
5.84834e-05
5.77543e-05
5.72334e-05
5.65816e-05
5.61207e-05
5.55426e-05
5.51393e-05
5.46309e-05
5.42808e-05
5.38376e-05
5.35369e-05
5.31561e-05
5.28984e-05
5.25739e-05
5.23529e-05
5.20783e-05
5.1888e-05
5.1654e-05
5.14896e-05
5.12881e-05
5.11446e-05
5.09684e-05
5.08384e-05
5.06731e-05
5.05605e-05
5.04371e-05
5.03118e-05
5.01852e-05
5.00617e-05
4.99579e-05
4.98504e-05
4.97553e-05
4.96619e-05
4.95764e-05
4.94994e-05
4.94282e-05
4.9368e-05
4.93124e-05
4.92693e-05
4.92296e-05
4.92037e-05
4.91799e-05
4.91719e-05
4.91671e-05
4.91751e-05
4.91879e-05
4.92121e-05
4.92416e-05
4.92813e-05
4.93263e-05
4.93801e-05
4.94385e-05
4.95037e-05
4.95715e-05
4.96433e-05
4.9715e-05
4.97861e-05
4.98515e-05
4.99096e-05
4.99534e-05
4.99798e-05
4.99798e-05
4.99486e-05
4.9875e-05
4.97534e-05
4.9574e-05
4.93339e-05
4.90295e-05
4.86677e-05
4.82582e-05
4.78311e-05
4.74655e-05
4.73344e-05
4.74529e-05
4.79941e-05
3.97823e-05
7.40757e-05
7.22194e-05
7.14763e-05
7.00816e-05
6.93822e-05
6.80681e-05
6.74082e-05
6.61814e-05
6.55597e-05
6.44243e-05
6.38436e-05
6.27979e-05
6.22617e-05
6.13041e-05
6.08145e-05
5.9943e-05
5.95011e-05
5.8713e-05
5.83192e-05
5.76112e-05
5.7265e-05
5.66336e-05
5.63333e-05
5.57739e-05
5.55166e-05
5.50241e-05
5.4806e-05
5.43749e-05
5.41924e-05
5.38232e-05
5.36619e-05
5.33539e-05
5.3203e-05
5.29616e-05
5.28296e-05
5.26451e-05
5.25168e-05
5.23801e-05
5.22544e-05
5.21571e-05
5.20656e-05
5.19884e-05
5.19255e-05
5.18709e-05
5.18363e-05
5.18035e-05
5.1795e-05
5.17851e-05
5.18021e-05
5.18151e-05
5.18545e-05
5.18914e-05
5.19558e-05
5.202e-05
5.21094e-05
5.2201e-05
5.23164e-05
5.24356e-05
5.25773e-05
5.27236e-05
5.28923e-05
5.30664e-05
5.32632e-05
5.34668e-05
5.36931e-05
5.39271e-05
5.41839e-05
5.44493e-05
5.47376e-05
5.50357e-05
5.5357e-05
5.56895e-05
5.60458e-05
5.64152e-05
5.68091e-05
5.72183e-05
5.76531e-05
5.81056e-05
5.85853e-05
5.90857e-05
5.96155e-05
6.01696e-05
6.0756e-05
6.13712e-05
6.20229e-05
6.27091e-05
6.34375e-05
6.42083e-05
6.50307e-05
6.59062e-05
6.6845e-05
6.78507e-05
6.89341e-05
7.01007e-05
7.13589e-05
7.27005e-05
7.41141e-05
7.55767e-05
7.63004e-05
6.62064e-05
7.96212e-05
7.76067e-05
7.68023e-05
7.52718e-05
7.44913e-05
7.30489e-05
7.22938e-05
7.09443e-05
7.02188e-05
6.89653e-05
6.82738e-05
6.71184e-05
6.64643e-05
6.5408e-05
6.47991e-05
6.38361e-05
6.32776e-05
6.24038e-05
6.18985e-05
6.11102e-05
6.06585e-05
5.99514e-05
5.95522e-05
5.89216e-05
5.85725e-05
5.80131e-05
5.77108e-05
5.72172e-05
5.69574e-05
5.65234e-05
5.63012e-05
5.59215e-05
5.57312e-05
5.54009e-05
5.52364e-05
5.49498e-05
5.48056e-05
5.45545e-05
5.4419e-05
5.42229e-05
5.40919e-05
5.39416e-05
5.38133e-05
5.36671e-05
5.35765e-05
5.3458e-05
5.33873e-05
5.32934e-05
5.32429e-05
5.31734e-05
5.31437e-05
5.3099e-05
5.30908e-05
5.3072e-05
5.30855e-05
5.30908e-05
5.31302e-05
5.31621e-05
5.32275e-05
5.32864e-05
5.33763e-05
5.34631e-05
5.35796e-05
5.36947e-05
5.38392e-05
5.39835e-05
5.41563e-05
5.43304e-05
5.4532e-05
5.47365e-05
5.49673e-05
5.52026e-05
5.54635e-05
5.57305e-05
5.60224e-05
5.63224e-05
5.66477e-05
5.69836e-05
5.73452e-05
5.77203e-05
5.81224e-05
5.85413e-05
5.8989e-05
5.94575e-05
5.99574e-05
6.04827e-05
6.10432e-05
6.16342e-05
6.2264e-05
6.29297e-05
6.36395e-05
6.44001e-05
6.52264e-05
6.61255e-05
6.71209e-05
6.82302e-05
6.94986e-05
7.08981e-05
7.19385e-05
6.30728e-05
9.82883e-05
9.60718e-05
9.51593e-05
9.34455e-05
9.247e-05
9.08461e-05
8.98163e-05
8.8271e-05
8.72004e-05
8.57296e-05
8.46296e-05
8.32367e-05
8.21149e-05
8.07682e-05
7.96793e-05
7.83784e-05
7.73208e-05
7.60725e-05
7.50516e-05
7.38614e-05
7.28827e-05
7.17548e-05
7.08233e-05
6.97609e-05
6.88809e-05
6.78863e-05
6.7059e-05
6.61349e-05
6.53659e-05
6.45109e-05
6.38014e-05
6.30155e-05
6.23655e-05
6.16478e-05
6.10558e-05
6.04022e-05
5.98648e-05
5.92722e-05
5.87862e-05
5.82507e-05
5.78106e-05
5.73277e-05
5.69233e-05
5.64839e-05
5.61115e-05
5.57084e-05
5.53624e-05
5.49881e-05
5.46619e-05
5.43092e-05
5.39968e-05
5.36598e-05
5.33442e-05
5.3019e-05
5.27405e-05
5.24085e-05
5.2137e-05
5.18209e-05
5.15567e-05
5.12721e-05
5.10046e-05
5.07113e-05
5.04677e-05
5.01906e-05
4.99561e-05
4.96942e-05
4.9468e-05
4.92219e-05
4.90066e-05
4.87715e-05
4.85594e-05
4.83284e-05
4.81154e-05
4.7882e-05
4.766e-05
4.74158e-05
4.7177e-05
4.69136e-05
4.66494e-05
4.6358e-05
4.60624e-05
4.57388e-05
4.5406e-05
4.50441e-05
4.46689e-05
4.42648e-05
4.38455e-05
4.33997e-05
4.29411e-05
4.24622e-05
4.19787e-05
4.14772e-05
4.09745e-05
4.04995e-05
4.00838e-05
3.97914e-05
3.97174e-05
3.99844e-05
4.06282e-05
3.43433e-05
0.000105863
0.000104314
0.000103657
0.000102533
0.00010162
0.000100397
9.93703e-05
9.81315e-05
9.70634e-05
9.58422e-05
9.47651e-05
9.35736e-05
9.2502e-05
9.13396e-05
9.02803e-05
8.9146e-05
8.81003e-05
8.69927e-05
8.59614e-05
8.4879e-05
8.38628e-05
8.28042e-05
8.18031e-05
8.07661e-05
7.97789e-05
7.87569e-05
7.77877e-05
7.67916e-05
7.58309e-05
7.48522e-05
7.39068e-05
7.29468e-05
7.20173e-05
7.1076e-05
7.01632e-05
6.92427e-05
6.8341e-05
6.74222e-05
6.65219e-05
6.56106e-05
6.47175e-05
6.3819e-05
6.29395e-05
6.20594e-05
6.12001e-05
6.03438e-05
5.95127e-05
5.86872e-05
5.78903e-05
5.71002e-05
5.63398e-05
5.55893e-05
5.48689e-05
5.41593e-05
5.3479e-05
5.28125e-05
5.218e-05
5.15149e-05
5.07712e-05
5.00208e-05
4.92839e-05
4.8538e-05
4.78015e-05
4.70476e-05
4.62995e-05
4.5531e-05
4.47676e-05
4.39783e-05
4.31811e-05
4.23791e-05
4.15933e-05
4.07709e-05
3.99736e-05
3.91463e-05
3.83426e-05
3.75139e-05
3.67074e-05
3.58811e-05
3.50768e-05
3.4258e-05
3.34552e-05
3.26407e-05
3.18443e-05
3.10419e-05
3.02609e-05
2.94805e-05
2.87188e-05
2.7963e-05
2.7232e-05
2.65181e-05
2.58402e-05
2.51973e-05
2.46099e-05
2.40787e-05
2.36981e-05
2.33871e-05
2.33605e-05
2.36351e-05
2.43787e-05
1.89154e-05
0.000119931
0.000118779
0.000118242
0.000117344
0.000116363
0.00011523
0.00011409
0.000112848
0.000111638
0.000110349
0.000109103
0.0001078
0.000106541
0.000105228
0.00010396
0.00010264
0.000101361
0.000100035
9.87457e-05
9.7415e-05
9.6117e-05
9.47827e-05
9.34779e-05
9.21438e-05
9.08335e-05
8.94989e-05
8.81873e-05
8.68547e-05
8.55422e-05
8.42127e-05
8.29028e-05
8.158e-05
8.02753e-05
7.89611e-05
7.76647e-05
7.63627e-05
7.50799e-05
7.37962e-05
7.25304e-05
7.12655e-05
7.00167e-05
6.87697e-05
6.75357e-05
6.63066e-05
6.50969e-05
6.3881e-05
6.26856e-05
6.14871e-05
6.03058e-05
5.9125e-05
5.79599e-05
5.67969e-05
5.56482e-05
5.45031e-05
5.33718e-05
5.22453e-05
5.11342e-05
5.00315e-05
4.89463e-05
4.78722e-05
4.68139e-05
4.57595e-05
4.4722e-05
4.36941e-05
4.26853e-05
4.16893e-05
4.07138e-05
3.97617e-05
3.88342e-05
3.79299e-05
3.70523e-05
3.62006e-05
3.53772e-05
3.45814e-05
3.38083e-05
3.30623e-05
3.23386e-05
3.16409e-05
3.09637e-05
3.03096e-05
2.96684e-05
2.90481e-05
2.8438e-05
2.78452e-05
2.68371e-05
2.58613e-05
2.49057e-05
2.39974e-05
2.31139e-05
2.22824e-05
2.14825e-05
2.07432e-05
2.00419e-05
1.94171e-05
1.88179e-05
1.8409e-05
1.81785e-05
1.79914e-05
1.87252e-05
1.44604e-05
0.000136452
0.000135812
0.000135394
0.000134804
0.000133821
0.000132831
0.000131663
0.000130503
0.000129266
0.000128023
0.000126752
0.000125461
0.000124164
0.000122836
0.000121513
0.000120154
0.000118806
0.000117419
0.000116044
0.000114632
0.000113232
0.000111797
0.00011036
0.000108911
0.000107471
0.000105996
0.000104536
0.000103049
0.000101574
0.000100078
9.85861e-05
9.70709e-05
9.55564e-05
9.40212e-05
9.24857e-05
9.09323e-05
8.93829e-05
8.78251e-05
8.62712e-05
8.47115e-05
8.31546e-05
8.15922e-05
8.00359e-05
7.84755e-05
7.69237e-05
7.53705e-05
7.38281e-05
7.2288e-05
7.0761e-05
6.92402e-05
6.77343e-05
6.62382e-05
6.47588e-05
6.32916e-05
6.18414e-05
6.04046e-05
5.89859e-05
5.75796e-05
5.61899e-05
5.48199e-05
5.34641e-05
5.21292e-05
5.08125e-05
4.95137e-05
4.82311e-05
4.69625e-05
4.57072e-05
4.44627e-05
4.32285e-05
4.20024e-05
4.07846e-05
3.95728e-05
3.83679e-05
3.71689e-05
3.59818e-05
3.48017e-05
3.3631e-05
3.24674e-05
3.13126e-05
3.01692e-05
2.90363e-05
2.79209e-05
2.6819e-05
2.57394e-05
2.46747e-05
2.36327e-05
2.26081e-05
2.16085e-05
2.06268e-05
1.96718e-05
1.87544e-05
1.78765e-05
1.7055e-05
1.63893e-05
1.59569e-05
1.61265e-05
1.60762e-05
1.58671e-05
1.58835e-05
1.31652e-05
0.000148136
0.00014826
0.000147982
0.000147772
0.000146953
0.000146262
0.000145277
0.000144386
0.000143347
0.000142352
0.000141282
0.00014022
0.00013912
0.000138006
0.000136873
0.000135712
0.000134544
0.00013334
0.000132133
0.000130887
0.000129639
0.000128352
0.000127061
0.000125734
0.0001244
0.000123029
0.000121652
0.000120239
0.000118824
0.000117383
0.000115932
0.000114453
0.000112966
0.000111454
0.000109932
0.000108385
0.00010683
0.000105252
0.000103655
0.000102042
0.000100432
9.87828e-05
9.7131e-05
9.54514e-05
9.37648e-05
9.20546e-05
9.03355e-05
8.85962e-05
8.68478e-05
8.50828e-05
8.331e-05
8.15248e-05
7.97349e-05
7.79393e-05
7.61412e-05
7.4341e-05
7.25431e-05
7.074e-05
6.89414e-05
6.7141e-05
6.53501e-05
6.35667e-05
6.17989e-05
6.00439e-05
5.83101e-05
5.65943e-05
5.49034e-05
5.32354e-05
5.15949e-05
4.99806e-05
4.83952e-05
4.68371e-05
4.53068e-05
4.37968e-05
4.23144e-05
4.08651e-05
3.94172e-05
3.80035e-05
3.65888e-05
3.51938e-05
3.37912e-05
3.23943e-05
3.0982e-05
2.95641e-05
2.81231e-05
2.66697e-05
2.51975e-05
2.37102e-05
2.22171e-05
2.07136e-05
1.92175e-05
1.7724e-05
1.62312e-05
1.48031e-05
1.34837e-05
1.24381e-05
1.20865e-05
1.36399e-05
1.38502e-05
1.43367e-05
0.000141739
0.000141413
0.000141284
0.000140957
0.000140815
0.000140464
0.000140291
0.000139924
0.000139715
0.000139336
0.000139086
0.000138691
0.0001384
0.000137985
0.000137651
0.000137212
0.000136834
0.000136367
0.000135944
0.000135446
0.000134976
0.00013444
0.000133921
0.000133343
0.00013277
0.000132142
0.000131507
0.000130817
0.000129906
0.000128745
0.00012757
0.000126362
0.000125142
0.000123895
0.000122636
0.000121354
0.000120052
0.000118721
0.000117369
0.00011599
0.000114589
0.000113155
0.0001117
0.000110211
0.0001087
0.000107156
0.000105586
0.000103984
0.000102355
0.000100695
9.90075e-05
9.72891e-05
9.55335e-05
9.37557e-05
9.19705e-05
9.01378e-05
8.83024e-05
8.64262e-05
8.45424e-05
8.26256e-05
8.06985e-05
7.87426e-05
7.67732e-05
7.47732e-05
7.27518e-05
7.07075e-05
6.86412e-05
6.65578e-05
6.44551e-05
6.23416e-05
6.02151e-05
5.80867e-05
5.59556e-05
5.38341e-05
5.17228e-05
4.96344e-05
4.75696e-05
4.55399e-05
4.35454e-05
4.15946e-05
3.96859e-05
3.78235e-05
3.60024e-05
3.42221e-05
3.24644e-05
3.07335e-05
2.90422e-05
2.73259e-05
2.56252e-05
2.3898e-05
2.21532e-05
2.03533e-05
1.84851e-05
1.65496e-05
1.46247e-05
1.27037e-05
1.10438e-05
1.00821e-05
1.19768e-05
1.21314e-05
0.000117076
0.000117305
0.000117393
0.000117469
0.000117538
0.000117576
0.000117633
0.000117645
0.000117688
0.000117678
0.000117704
0.000117673
0.000117678
0.000117627
0.00011761
0.000117539
0.000117497
0.000117405
0.000117335
0.000117219
0.000117119
0.000116975
0.000116841
0.000116668
0.000116497
0.000116289
0.000116079
0.000115835
0.000115586
0.000115312
0.000115034
0.000114732
0.000114423
0.000114091
0.000113748
0.00011338
0.000113004
0.000112607
0.00011219
0.000111749
0.000111286
0.000110796
0.00011028
0.000109732
0.000109154
0.000108542
0.000107904
0.000107235
0.000106537
0.000105802
0.000105026
0.000104203
0.000103328
0.000102398
0.000101398
9.99253e-05
9.8337e-05
9.66831e-05
9.49998e-05
9.32624e-05
9.1496e-05
8.96857e-05
8.78568e-05
8.59919e-05
8.41043e-05
8.21928e-05
8.02157e-05
7.82217e-05
7.61747e-05
7.41048e-05
7.19908e-05
6.98514e-05
6.76661e-05
6.54524e-05
6.31914e-05
6.08955e-05
5.85492e-05
5.61615e-05
5.37209e-05
5.12354e-05
4.86991e-05
4.61218e-05
4.35044e-05
4.08612e-05
3.82012e-05
3.55455e-05
3.29106e-05
3.03224e-05
2.78087e-05
2.53843e-05
2.30312e-05
2.07515e-05
1.85424e-05
1.63021e-05
1.4136e-05
1.21334e-05
1.03203e-05
8.92261e-06
8.38019e-06
1.15394e-05
7.50432e-05
7.54844e-05
7.55674e-05
7.58422e-05
7.59335e-05
7.61597e-05
7.62696e-05
7.64643e-05
7.65902e-05
7.67635e-05
7.69001e-05
7.70583e-05
7.72005e-05
7.73478e-05
7.74912e-05
7.76298e-05
7.77708e-05
7.79014e-05
7.80372e-05
7.81597e-05
7.82878e-05
7.84017e-05
7.85201e-05
7.86244e-05
7.8732e-05
7.88263e-05
7.89227e-05
7.90075e-05
7.9094e-05
7.91711e-05
7.92485e-05
7.93168e-05
7.93836e-05
7.9441e-05
7.94951e-05
7.95393e-05
7.95787e-05
7.96069e-05
7.96314e-05
7.96455e-05
7.96538e-05
7.9652e-05
7.96429e-05
7.96239e-05
7.9597e-05
7.95606e-05
7.9515e-05
7.94534e-05
7.93771e-05
7.92805e-05
7.91634e-05
7.90212e-05
7.88525e-05
7.86536e-05
7.84231e-05
7.81633e-05
7.78872e-05
7.75784e-05
7.72467e-05
7.68741e-05
7.64637e-05
7.59945e-05
7.51822e-05
7.43017e-05
7.33505e-05
7.23655e-05
7.13166e-05
7.02308e-05
6.90799e-05
6.78742e-05
6.66052e-05
6.52891e-05
6.38798e-05
6.24044e-05
6.08362e-05
5.91865e-05
5.74372e-05
5.55955e-05
5.36495e-05
5.16064e-05
4.94603e-05
4.72201e-05
4.48861e-05
4.24706e-05
3.99807e-05
3.7432e-05
3.48133e-05
3.21448e-05
2.93539e-05
2.64761e-05
2.35079e-05
2.04777e-05
1.74981e-05
1.46415e-05
1.19499e-05
9.59514e-06
7.77337e-06
6.54348e-06
5.87405e-06
6.77639e-06
6.9799e-06
6.99693e-06
7.00916e-06
7.02299e-06
7.0373e-06
7.05408e-06
7.06855e-06
7.08686e-06
7.10188e-06
7.12099e-06
7.13686e-06
7.15644e-06
7.17332e-06
7.19323e-06
7.21116e-06
7.2314e-06
7.25036e-06
7.27097e-06
7.29093e-06
7.31201e-06
7.33293e-06
7.3546e-06
7.37648e-06
7.3989e-06
7.42182e-06
7.44517e-06
7.46926e-06
7.49375e-06
7.51915e-06
7.54496e-06
7.57175e-06
7.599e-06
7.62728e-06
7.6561e-06
7.686e-06
7.71655e-06
7.74826e-06
7.78073e-06
7.81446e-06
7.84907e-06
7.88503e-06
7.922e-06
7.96038e-06
7.9999e-06
8.04087e-06
8.083e-06
8.12645e-06
8.17092e-06
8.21671e-06
8.26347e-06
8.31155e-06
8.36068e-06
8.41123e-06
8.46314e-06
8.5168e-06
8.57236e-06
8.62977e-06
8.68816e-06
8.74766e-06
8.8067e-06
8.86519e-06
8.92104e-06
8.9739e-06
9.03056e-06
9.08685e-06
9.14769e-06
9.20927e-06
9.27543e-06
9.34289e-06
9.41475e-06
9.48945e-06
9.56843e-06
9.64834e-06
9.73351e-06
9.81987e-06
9.91101e-06
1.0004e-05
1.01015e-05
1.02019e-05
1.03076e-05
1.04178e-05
1.05356e-05
1.06612e-05
1.07982e-05
1.09474e-05
1.1108e-05
1.12626e-05
1.1371e-05
1.13914e-05
1.12575e-05
1.07977e-05
9.77706e-06
8.05729e-06
5.93176e-06
3.62371e-06
2.63832e-06
2.55742e-06
3.91826e-06
4.01879e-06
4.33108e-06
1.09392e-05
2.07729e-06
2.60059e-06
3.51742e-06
4.54832e-06
5.62302e-06
6.48727e-06
7.33689e-06
8.15022e-06
8.90638e-06
9.61995e-06
1.03376e-05
1.14559e-05
1.33343e-05
1.54688e-05
1.78505e-05
1.75975e-05
1.5543e-05
1.02883e-05
3.99587e-06
5.87917e-06
2.18611e-06
2.47511e-06
3.18426e-06
4.05628e-06
4.86388e-06
5.6932e-06
6.55229e-06
7.41567e-06
8.29927e-06
9.27454e-06
1.03717e-05
1.20247e-05
1.40976e-05
1.70515e-05
1.83231e-05
1.74933e-05
1.47085e-05
9.53391e-06
3.96734e-06
4.94591e-06
2.69534e-06
2.90115e-06
3.41671e-06
4.01097e-06
4.71736e-06
5.48164e-06
6.31627e-06
7.22211e-06
8.38949e-06
9.50959e-06
1.10203e-05
1.29378e-05
1.58341e-05
1.80248e-05
1.83043e-05
1.71514e-05
1.40039e-05
8.87182e-06
3.84052e-06
5.05641e-06
3.43949e-06
3.63818e-06
3.87592e-06
4.36888e-06
4.92957e-06
5.67435e-06
6.58271e-06
7.71546e-06
9.48849e-06
1.12177e-05
1.29519e-05
1.57378e-05
1.82178e-05
1.91957e-05
1.88197e-05
1.70295e-05
1.32361e-05
7.97912e-06
3.26005e-06
5.68873e-06
4.47723e-06
4.61703e-06
4.63447e-06
5.1948e-06
5.69382e-06
6.5866e-06
7.84423e-06
9.60054e-06
1.3108e-05
1.47754e-05
1.70875e-05
1.93493e-05
2.04348e-05
2.04369e-05
1.92187e-05
1.65387e-05
1.2492e-05
6.88225e-06
2.37883e-06
6.89557e-06
5.97736e-06
6.04879e-06
6.02794e-06
6.77376e-06
7.77021e-06
9.35332e-06
1.16081e-05
1.61246e-05
1.95195e-05
2.09931e-05
2.23846e-05
2.30749e-05
2.28738e-05
2.16745e-05
1.91029e-05
1.59599e-05
1.1558e-05
5.15166e-06
1.4709e-06
9.04411e-06
8.62832e-06
8.85999e-06
9.46617e-06
1.11854e-05
1.3676e-05
1.70876e-05
2.204e-05
2.87841e-05
2.94339e-05
2.91145e-05
2.83227e-05
2.69189e-05
2.47814e-05
2.16843e-05
1.85268e-05
1.48216e-05
1.01119e-05
3.82712e-06
7.21297e-07
1.46619e-05
1.61422e-05
1.73708e-05
1.96691e-05
2.32006e-05
2.75266e-05
3.31008e-05
4.00668e-05
3.99383e-05
3.77747e-05
3.42847e-05
3.16684e-05
2.81083e-05
2.49251e-05
2.08573e-05
1.70836e-05
1.29222e-05
8.10813e-06
2.7821e-06
2.7633e-07
3.25388e-05
3.54962e-05
3.67229e-05
3.91845e-05
4.3639e-05
4.79822e-05
5.20385e-05
4.78101e-05
4.4189e-05
4.02614e-05
3.63884e-05
3.25952e-05
2.83823e-05
2.33282e-05
1.85655e-05
1.4069e-05
1.01928e-05
6.4859e-06
2.43533e-06
1.249e-07
5.28271e-05
5.57113e-05
5.59652e-05
5.74686e-05
6.23194e-05
5.94484e-05
5.51557e-05
5.01989e-05
4.61076e-05
4.11513e-05
3.7069e-05
3.18978e-05
2.70277e-05
1.97632e-05
1.4051e-05
9.6727e-06
7.66337e-06
6.27254e-06
3.07642e-06
2.04538e-07
5.03384e-05
5.30706e-05
5.3438e-05
5.50212e-05
5.98174e-05
5.77913e-05
5.36774e-05
4.8917e-05
4.50584e-05
4.02697e-05
3.65897e-05
3.14639e-05
2.76231e-05
2.04849e-05
1.48282e-05
9.80992e-06
7.28114e-06
5.30179e-06
2.35826e-06
1.66915e-07
2.80168e-05
3.09128e-05
3.22721e-05
3.47457e-05
3.91443e-05
4.36852e-05
4.96396e-05
4.56365e-05
4.26531e-05
3.84304e-05
3.56733e-05
3.13256e-05
2.83465e-05
2.39303e-05
1.93639e-05
1.4607e-05
1.0011e-05
5.50099e-06
1.69513e-06
1.13549e-07
1.31005e-05
1.40423e-05
1.5019e-05
1.70644e-05
2.02271e-05
2.42747e-05
2.95362e-05
3.64234e-05
3.97681e-05
3.61563e-05
3.40277e-05
3.06165e-05
2.76768e-05
2.45095e-05
2.12682e-05
1.73756e-05
1.29815e-05
7.81495e-06
2.37441e-06
1.45687e-07
8.63793e-06
8.11593e-06
8.26315e-06
8.65816e-06
1.00764e-05
1.22191e-05
1.52199e-05
1.98397e-05
2.63191e-05
2.7484e-05
2.77791e-05
2.75902e-05
2.66679e-05
2.47326e-05
2.14479e-05
1.86207e-05
1.48289e-05
1.00178e-05
3.48973e-06
3.83455e-07
6.73712e-06
5.80475e-06
5.86915e-06
5.83183e-06
6.51298e-06
7.37295e-06
8.75874e-06
1.07482e-05
1.48365e-05
1.81934e-05
1.9983e-05
2.1732e-05
2.27511e-05
2.27843e-05
2.18399e-05
1.89574e-05
1.58311e-05
1.14939e-05
5.11481e-06
1.18035e-06
5.62043e-06
4.42668e-06
4.56433e-06
4.60691e-06
5.15441e-06
5.64442e-06
6.48857e-06
7.64079e-06
9.24661e-06
1.23711e-05
1.415e-05
1.65251e-05
1.90578e-05
2.03533e-05
2.04607e-05
1.9354e-05
1.64131e-05
1.24356e-05
6.93438e-06
2.22789e-06
5.04232e-06
3.43511e-06
3.63724e-06
3.91548e-06
4.41459e-06
4.99462e-06
5.72908e-06
6.61084e-06
7.68785e-06
9.33945e-06
1.09282e-05
1.26828e-05
1.54292e-05
1.8128e-05
1.92549e-05
1.88985e-05
1.70966e-05
1.31896e-05
8.03161e-06
3.20879e-06
5.04791e-06
2.73348e-06
2.93258e-06
3.46316e-06
4.09246e-06
4.80689e-06
5.58396e-06
6.42157e-06
7.31341e-06
8.42165e-06
9.50509e-06
1.09534e-05
1.28382e-05
1.5663e-05
1.80418e-05
1.8394e-05
1.72086e-05
1.3949e-05
8.94608e-06
3.79949e-06
6.12085e-06
2.24204e-06
2.53628e-06
3.25411e-06
4.13355e-06
4.9848e-06
5.81984e-06
6.68694e-06
7.55707e-06
8.43088e-06
9.36887e-06
1.04308e-05
1.20464e-05
1.40896e-05
1.69966e-05
1.83777e-05
1.75188e-05
1.47198e-05
9.58583e-06
3.95315e-06
1.0972e-05
2.13825e-06
2.66053e-06
3.59594e-06
4.64392e-06
5.72211e-06
6.63776e-06
7.48935e-06
8.31118e-06
9.06895e-06
9.77598e-06
1.04647e-05
1.15081e-05
1.33026e-05
1.54668e-05
1.78814e-05
1.76248e-05
1.55209e-05
1.03487e-05
3.99027e-06
1.23421e-06
0.000116558
0.000294184
0.000330906
0.00033481
0.000335356
0.000335357
0.000335342
0.000335343
0.000335345
0.000335345
0.000335343
0.000335342
0.000335357
0.000335356
0.00033481
0.000330906
0.000294184
0.000116558
1.23421e-06
1.36973e-06
6.81669e-05
0.000219584
0.000309504
0.000330909
0.000334527
0.000335273
0.000335315
0.000335296
0.000335287
0.000335287
0.000335296
0.000335315
0.000335273
0.000334527
0.000330909
0.000309504
0.000219584
6.81671e-05
1.36973e-06
1.51338e-06
5.28962e-05
0.00017646
0.00028058
0.000322148
0.000332504
0.000334604
0.0003351
0.000335168