/*--------------------------------*- C++ -*----------------------------------*\
| =========                 |                                                 |
| \\      /  F ield         | OpenFOAM: The Open Source CFD Toolbox           |
|  \\    /   O peration     | Version:  2.1.0                                 |
|   \\  /    A nd           | Web:      www.OpenFOAM.org                      |
|    \\/     M anipulation  |                                                 |
\*---------------------------------------------------------------------------*/
FoamFile
{
    version     2.0;
    format      ascii;
    class       volScalarField;
    location    "0.4";
    object      omega;
}
// * * * * * * * * * * * * * * * * * * * * * * * * * * * * * * * * * * * * * //

dimensions      [0 0 -1 0 0 0 0];

internalField   nonuniform List<scalar> 
6400
(
1644.79
1645.78
1645.86
1645.74
1645.2
1644.94
1644.21
1643.86
1643.04
1642.62
1641.75
1641.26
1640.36
1639.76
1638.85
1638.15
1637.21
1636.4
1635.43
1634.53
1633.52
1632.54
1631.5
1630.45
1629.36
1628.25
1627.12
1625.95
1624.77
1623.54
1622.3
1621
1619.7
1618.33
1616.94
1615.49
1614.02
1612.48
1610.89
1609.23
1607.5
1605.67
1603.75
1601.7
1599.53
1597.21
1594.72
1592.05
1589.18
1586.09
1582.76
1579.18
1575.32
1571.08
1566.44
1561.3
1555.89
1550.2
1544.23
1537.96
1531.43
1524.61
1517.51
1510.12
1502.39
1494.36
1485.94
1477.17
1467.9
1458.16
1447.9
1437.05
1425.61
1413.51
1400.74
1387.28
1373.13
1358.3
1342.83
1326.78
1310.19
1293.06
1275.23
1256.01
1234.68
1212.18
1187.43
1159.65
1127.37
1088.35
1039.04
973.413
884.069
764.493
611.3
537.991
565.958
735.236
892.967
942.85
689.573
689.747
690.948
691.879
693.221
694.56
695.95
697.496
698.948
700.62
702.152
703.917
705.543
707.388
709.116
711.036
712.871
714.869
716.811
718.89
720.943
723.111
725.278
727.547
729.841
732.23
734.665
737.196
739.792
742.483
745.256
748.128
751.095
754.171
757.359
760.669
764.111
767.698
771.41
775.264
779.263
783.417
787.732
792.216
796.879
801.728
806.772
812.02
817.483
823.169
829.091
835.261
841.673
848.331
855.247
862.417
869.913
877.748
885.942
894.51
903.486
912.892
922.764
933.131
944.038
955.533
967.537
980.011
993.057
1006.82
1021.3
1036.57
1052.68
1069.69
1087.69
1106.74
1126.95
1148.42
1171.27
1195.65
1221.74
1249.83
1279.48
1309.89
1342.02
1374.77
1407.74
1439.68
1469.34
1495.09
1513.75
1522.32
1524.03
1509.71
1474.38
1395.11
1285.12
1150.81
1005.87
848.252
500.508
503.628
505.114
508.145
510.149
513.218
515.543
518.652
521.227
524.399
527.193
530.454
533.455
536.828
540.033
543.541
546.951
550.616
554.232
558.06
561.883
565.892
569.928
574.132
578.392
582.806
587.294
591.931
596.663
601.543
606.536
611.679
616.95
622.376
627.943
633.672
639.551
645.595
651.848
658.285
664.911
671.755
678.814
686.106
693.638
701.422
709.469
717.791
726.396
735.295
744.492
753.992
763.809
773.953
784.435
795.272
806.492
818.108
830.139
842.598
855.505
868.872
882.712
897.036
911.85
927.156
942.996
959.401
976.275
993.502
1011.09
1028.95
1047.06
1065.34
1083.77
1102.29
1120.88
1139.52
1158.21
1176.97
1195.82
1214.78
1233.87
1253.13
1272.53
1291.87
1310.98
1329.35
1346.29
1360.64
1368.52
1371.36
1364.89
1338.72
1290.16
1210.44
1102.04
960.843
797.29
628.063
451.297
456.237
458.424
462.789
465.558
469.899
473.084
477.428
480.953
485.346
489.169
493.653
497.752
502.365
506.73
511.503
516.129
521.089
525.982
531.158
536.325
541.738
547.186
552.853
558.585
564.517
570.538
576.746
583.063
589.562
596.187
602.992
609.939
617.067
624.35
631.819
639.454
647.28
655.265
663.45
671.833
680.39
689.135
698.058
707.158
716.429
725.867
735.463
745.209
755.097
765.117
775.258
785.511
795.867
806.313
816.846
827.453
838.13
848.861
859.639
870.448
881.28
892.114
902.939
913.727
924.46
935.147
945.781
956.327
966.774
977.087
987.254
997.218
1006.92
1016.35
1025.39
1034.02
1042.08
1049.53
1056.17
1061.9
1066.51
1069.52
1070.89
1071.2
1068.68
1063.83
1055.78
1044.35
1028.7
1008.27
982.067
948.849
906.835
854.016
788.616
712.076
629.125
552.92
496.64
440.023
446.046
448.66
453.888
457.169
462.35
466.102
471.262
475.388
480.569
485.014
490.256
494.982
500.319
505.303
510.759
515.981
521.575
527.025
532.775
538.445
544.359
550.238
556.32
562.399
568.649
574.922
581.342
587.793
594.369
600.983
607.703
614.461
621.308
628.192
635.148
642.135
649.177
656.241
663.341
670.447
677.582
684.713
691.852
698.973
706.082
713.156
720.198
727.186
734.122
740.988
747.782
754.488
761.104
767.604
774.002
780.288
786.434
792.406
798.179
803.727
809.012
814.006
818.667
822.962
826.849
830.288
833.234
835.641
837.464
838.483
838.907
838.947
837.715
835.988
833.088
829.455
824.643
818.916
811.973
803.966
794.698
784.258
772.606
759.783
745.705
730.58
714.248
696.866
678.236
658.347
636.822
613.527
587.734
558.798
527.576
495.165
465.331
444.227
432.58
430.367
436.285
438.821
443.913
447.039
452.051
455.569
460.493
464.298
469.157
473.183
478.001
482.202
487
491.341
496.131
500.582
505.372
509.91
514.7
519.301
524.092
528.736
533.519
538.186
542.952
547.62
552.406
557.123
561.918
566.647
571.419
576.122
580.838
585.477
590.098
594.63
599.116
603.497
607.802
611.984
616.06
619.98
623.773
627.376
630.823
634.05
637.085
639.87
642.426
644.7
646.704
648.391
649.768
650.789
651.504
651.854
651.973
651.753
651.019
649.966
648.409
646.469
644.03
641.167
637.814
634.02
629.75
625.038
619.872
614.279
608.304
601.965
595.262
588.278
580.969
573.441
565.644
557.737
549.66
541.505
533.281
525.069
516.871
508.749
500.671
492.562
484.425
476.334
468.155
459.906
451.424
442.679
433.489
423.991
414.652
406.895
403.188
402.153
402.134
400.607
405.365
407.382
411.429
413.826
417.785
420.411
424.247
427.017
430.727
433.588
437.177
440.088
443.561
446.49
449.849
452.765
456.008
458.885
462.006
464.819
467.811
470.526
473.347
475.931
478.559
480.977
483.439
485.698
487.943
489.976
491.947
493.691
495.336
496.738
498.006
499.017
499.865
500.443
500.757
500.875
500.863
500.403
499.849
498.898
497.802
496.344
494.711
492.745
490.592
488.134
485.489
482.573
479.483
476.185
472.724
469.045
465.242
461.268
457.207
453.043
448.831
444.574
440.307
436.031
431.782
427.644
423.585
419.695
415.936
412.395
409.009
405.842
402.859
400.118
397.573
395.269
393.138
391.273
389.564
388.124
386.833
385.775
384.843
384.094
383.426
382.878
382.358
381.882
381.383
380.896
380.408
380.107
379.994
380.502
381.781
384.311
388.905
392.604
393.666
353.685
357.036
358.415
361.126
362.595
365.157
366.633
368.993
370.425
372.557
373.901
375.799
377.017
378.674
379.735
381.141
382.018
383.16
383.827
384.691
385.123
385.649
385.89
386.016
386.043
385.886
385.558
385.041
384.289
383.379
382.214
380.911
379.348
377.663
375.735
373.705
371.448
369.108
366.568
363.964
361.203
358.396
355.457
352.517
349.477
346.473
343.409
340.416
337.402
334.491
331.598
328.812
326.136
323.611
321.215
318.992
316.937
315.087
313.437
312.018
310.829
309.892
309.206
308.856
308.716
308.713
309.169
309.688
310.617
311.64
313.029
314.532
316.358
318.309
320.546
322.911
325.526
328.266
331.207
334.282
337.541
340.905
344.413
347.99
351.665
355.37
359.12
362.856
366.594
370.293
373.982
377.659
381.394
385.234
389.411
394.197
399.8
406.785
412.338
414.602
293.449
294.464
294.833
295.449
295.728
296.101
296.252
296.339
296.341
296.212
295.91
295.591
295.01
294.474
293.629
292.861
291.765
290.761
289.428
288.192
286.639
285.184
283.455
281.817
279.957
278.165
276.198
274.295
272.263
270.305
268.259
266.302
264.298
262.398
260.482
258.682
256.907
255.258
253.674
252.224
250.876
249.671
248.597
247.679
246.914
246.319
245.907
245.706
245.636
245.74
246.134
246.685
247.451
248.381
249.517
250.828
252.34
254.032
255.92
257.993
260.259
262.712
265.356
268.193
271.218
274.444
277.85
281.446
285.235
289.211
293.389
297.76
302.342
307.123
312.126
317.337
322.78
328.442
334.347
340.479
346.861
353.478
360.349
367.459
374.817
382.405
390.223
398.244
406.459
414.835
423.359
432.009
440.787
449.711
458.853
468.435
479.164
490.788
502.459
508.222
237.239
235.983
235.43
234.276
233.549
232.334
231.462
230.186
229.204
227.874
226.807
225.449
224.323
222.959
221.804
220.46
219.307
218.009
216.889
215.664
214.608
213.484
212.524
211.526
210.689
209.839
209.15
208.471
207.954
207.465
207.14
206.879
206.758
206.715
206.766
206.987
207.282
207.736
208.279
208.974
209.773
210.717
211.766
212.956
214.257
215.696
217.249
218.938
220.742
222.685
224.748
226.948
229.26
231.705
234.265
236.957
239.769
242.715
245.782
248.989
252.321
255.798
259.406
263.165
267.062
271.119
275.324
279.698
284.232
288.949
293.84
298.928
304.208
309.703
315.41
321.353
327.534
333.974
340.682
347.681
354.981
362.609
370.582
378.928
387.67
396.841
406.473
416.609
427.291
438.574
450.52
463.203
476.711
491.151
506.638
523.256
541.001
559.492
574.192
580.75
262.551
262.011
261.701
261.071
260.54
259.781
259.042
258.136
257.207
256.146
255.044
253.829
252.584
251.231
249.861
248.409
246.94
245.42
243.886
242.333
240.771
239.218
237.666
236.151
234.649
233.208
231.795
230.464
229.178
227.991
226.868
225.859
224.93
224.129
223.427
222.863
222.415
222.129
221.992
221.951
222.085
222.395
222.819
223.417
224.135
225.025
226.04
227.222
228.534
230.01
231.617
233.386
235.288
237.347
239.548
241.904
244.383
247.025
249.786
252.714
255.76
258.977
262.317
265.83
269.473
273.292
277.25
281.39
285.679
290.158
294.801
299.643
304.663
309.896
315.33
320.994
326.877
333.01
339.387
346.039
352.964
360.192
367.729
375.606
383.831
392.439
401.446
410.886
420.782
431.174
442.095
453.612
465.8
478.744
492.578
507.445
523.441
540.216
553.977
560.207
321.794
323.497
324.158
325.363
325.952
326.956
327.44
328.205
328.566
329.071
329.294
329.438
329.463
329.36
329.022
328.663
328.012
327.379
326.431
325.519
324.29
323.102
321.609
320.16
318.424
316.734
314.794
312.888
310.761
308.684
306.411
304.202
301.829
299.534
297.109
294.774
292.344
290.022
287.648
285.396
283.135
281.012
278.95
277.045
275.237
273.603
272.098
270.785
269.63
268.683
267.917
267.373
267.091
266.982
266.996
267.408
267.861
268.672
269.56
270.779
272.102
273.727
275.476
277.502
279.669
282.094
284.672
287.472
290.428
293.59
296.908
300.424
304.09
307.952
311.965
316.17
320.523
325.061
329.746
334.608
339.595
344.735
349.989
355.378
360.864
366.466
372.148
377.924
383.768
389.693
395.689
401.761
407.917
414.341
421.15
428.77
437.505
447.791
458.684
464.41
371.863
375.329
376.77
379.592
381.17
383.856
385.481
387.99
389.61
391.928
393.515
395.651
397.188
399.121
400.552
402.269
403.549
405.031
406.121
407.346
408.211
409.157
409.767
410.412
410.739
410.98
411.058
411.058
410.735
410.376
409.718
408.996
407.994
406.913
405.57
404.142
402.435
400.578
398.457
396.199
393.7
391.08
388.252
385.331
382.236
379.071
375.794
372.47
369.089
365.696
362.296
358.923
355.587
352.31
349.101
346.016
343.064
340.284
337.645
335.219
332.967
330.951
329.141
327.592
326.266
325.208
324.367
323.783
323.478
323.357
323.353
323.748
324.192
324.96
325.776
326.856
327.98
329.309
330.667
332.176
333.757
335.477
337.256
339.151
341.095
343.155
345.259
347.473
349.745
352.146
354.651
357.355
360.259
363.443
366.893
370.981
376.109
382.723
387.582
389.372
408.506
413.319
415.365
419.434
421.876
425.835
428.514
432.335
435.159
438.841
441.756
445.354
448.368
451.888
454.958
458.402
461.491
464.854
467.929
471.199
474.23
477.395
480.352
483.393
486.245
489.139
491.865
494.585
497.139
499.659
502.007
504.29
506.391
508.398
510.209
511.897
513.418
514.837
516.046
517.102
517.913
518.515
518.808
518.917
518.829
518.32
517.64
516.577
515.292
513.652
511.761
509.539
507.056
504.268
501.225
497.908
494.357
490.577
486.627
482.493
478.215
473.762
469.19
464.513
459.763
454.961
450.129
445.367
440.645
436.046
431.557
427.253
423.106
419.187
415.391
411.838
408.429
405.266
402.246
399.451
396.732
394.222
391.767
389.47
387.192
385.042
382.879
380.796
378.676
376.616
374.533
372.552
370.635
369.183
368.132
367.743
368.556
372.32
375.443
376.336
424.29
430.106
432.604
437.588
440.679
445.578
449.068
453.89
457.678
462.453
466.477
471.238
475.457
480.225
484.603
489.393
493.903
498.722
503.342
508.192
512.901
517.781
522.559
527.465
532.294
537.215
542.078
547.005
551.884
556.806
561.688
566.59
571.447
576.302
581.101
585.874
590.606
595.332
599.996
604.625
609.166
613.639
618.002
622.266
626.39
630.372
634.194
637.831
641.276
644.499
647.494
650.23
652.697
654.867
656.728
658.252
659.426
660.164
660.503
660.589
660.134
659.399
658.212
656.654
654.62
652.162
649.218
645.825
641.947
637.617
632.813
627.567
621.869
615.76
609.325
602.525
595.405
588.014
580.314
572.398
564.204
555.863
547.278
538.568
529.632
520.511
511.142
501.54
491.529
481.055
470.184
458.744
446.755
434.145
421.608
408.864
398.12
391.508
388.67
387.398
425.492
431.171
433.642
438.552
441.657
446.517
450.072
454.915
458.833
463.708
467.93
472.871
477.363
482.406
487.152
492.324
497.309
502.63
507.843
513.328
518.762
524.419
530.067
535.903
541.757
547.772
553.824
560.017
566.257
572.621
579.042
585.57
592.157
598.84
605.583
612.412
619.301
626.265
633.279
640.357
647.477
654.645
661.847
669.082
676.337
683.61
690.888
698.158
705.406
712.629
719.822
726.971
734.068
741.099
748.058
754.927
761.709
768.375
774.926
781.325
787.55
793.63
799.498
805.148
810.524
815.606
820.34
824.699
828.629
832.098
835.053
837.453
839.244
840.18
840.547
840.506
839.058
837.161
833.936
829.942
824.584
818.175
810.284
801.073
790.212
777.793
763.645
747.604
729.709
709.689
687.469
662.615
634.835
603.611
569.778
532.808
495.664
460.593
435.407
418.737
433.762
438.31
440.334
444.364
446.936
450.938
453.892
457.889
461.148
465.177
468.702
472.808
476.577
480.796
484.801
489.161
493.399
497.926
502.399
507.117
511.832
516.761
521.729
526.892
532.125
537.54
543.05
548.733
554.527
560.489
566.576
572.832
579.227
585.796
592.522
599.43
606.512
613.789
621.239
628.884
636.713
644.74
652.955
661.365
669.96
678.763
687.794
697.054
706.561
716.282
726.193
736.299
746.582
757.04
767.656
778.417
789.317
800.331
811.455
822.667
833.965
845.332
856.766
868.258
879.797
891.372
902.958
914.542
926.082
937.55
948.996
960.365
971.663
982.842
993.892
1004.74
1015.33
1025.62
1035.47
1044.83
1053.5
1061.37
1068.17
1073.68
1077.02
1078.44
1078.59
1074.08
1066.75
1054
1036.08
1010.83
977.23
932.802
877.215
807.375
725.208
634.502
553.238
488.468
481.184
483.944
485.279
488.014
489.835
492.608
494.72
497.529
499.864
502.729
505.263
508.21
510.934
513.978
516.876
520.035
523.108
526.398
529.65
533.086
536.523
540.122
543.751
547.526
551.356
555.322
559.362
563.535
567.799
572.191
576.686
581.314
586.058
590.94
595.948
601.097
606.379
611.804
617.415
623.199
629.183
635.368
641.775
648.417
655.316
662.466
669.857
677.506
685.407
693.596
702.1
710.926
720.095
729.614
739.496
749.744
760.386
771.423
782.88
794.769
807.116
819.937
833.262
847.131
861.544
876.536
892.106
908.282
925.063
942.476
960.569
979.021
997.98
1017.32
1037.02
1056.99
1077.19
1097.56
1118.05
1138.66
1159.33
1180.08
1200.85
1221.68
1242.62
1263.6
1284.42
1304.53
1323.44
1339.78
1349.6
1353.32
1348.49
1321.07
1271.29
1196.08
1093.14
963.559
802.477
630.344
664.64
664.589
665.619
666.378
667.554
668.703
669.919
671.263
672.53
673.992
675.33
676.876
678.299
679.915
681.43
683.114
684.726
686.481
688.192
690.023
691.834
693.746
695.659
697.658
699.678
701.773
703.904
706.109
708.367
710.7
713.103
715.593
718.166
720.834
723.6
726.475
729.468
732.59
735.825
739.191
742.69
746.331
750.123
754.07
758.183
762.462
766.92
771.562
776.403
781.454
786.727
792.232
797.985
803.997
810.287
816.876
823.751
830.944
838.467
846.332
854.557
863.145
872.111
881.6
891.545
902.051
913.084
924.735
936.996
949.945
963.344
977.633
992.637
1008.57
1025.39
1043.25
1062.16
1082.26
1103.6
1126.3
1150.46
1176.2
1203.63
1232.94
1264.12
1295.9
1328.44
1360.08
1389.29
1413.73
1427.71
1432.86
1430.65
1414.4
1382.44
1321.54
1233.49
1122.32
997.855
848.99
1600.53
1601.25
1601.25
1600.82
1600.23
1599.76
1598.93
1598.43
1597.51
1596.96
1596.01
1595.39
1594.42
1593.72
1592.74
1591.95
1590.95
1590.06
1589.04
1588.06
1586.99
1585.92
1584.8
1583.65
1582.48
1581.27
1580.04
1578.78
1577.51
1576.2
1574.89
1573.53
1572.17
1570.76
1569.35
1567.89
1566.42
1564.9
1563.38
1561.81
1560.23
1558.6
1556.95
1555.25
1553.51
1551.71
1549.84
1547.86
1545.8
1543.6
1541.29
1538.83
1536.23
1533.47
1530.58
1527.54
1524.35
1520.9
1517.2
1513.09
1508.55
1503.38
1497.55
1491.58
1485.1
1478.49
1471.4
1464.09
1456.27
1448.13
1439.48
1430.37
1420.5
1410.1
1398.81
1386.79
1373.74
1359.76
1344.61
1328.35
1310.79
1291.96
1271.72
1250.09
1226.89
1201.87
1173.98
1141.32
1102.39
1055.31
994.983
915.497
814.919
704.475
584.582
535.356
556.095
721.912
886.813
939.96
865.883
324.736
176.606
119.705
95.2664
82.3311
76.1285
73.1608
72.1888
74.0337
80.9539
97.4565
118.883
156.216
207.1
271.547
348.975
444.027
560.309
610.229
693.166
329.18
219.148
154.338
121.762
104.137
92.9373
87.4669
85.541
87.5356
99.6558
115.589
144.563
184.743
237.945
299.948
372.374
459.549
544.766
568.516
544.598
318.742
242.276
180.161
147.629
125.463
111.882
105.981
104.313
108.672
120.217
144.13
174.723
218.762
269.528
326.161
390.248
462.631
514.419
522.602
444.642
305.179
256.297
198.169
171.204
146.161
134.09
128.452
126.901
131.259
154.156
177.715
213.956
256.43
302.064
352.247
406.575
455.329
474.226
474.423
388.207
300.431
266.302
214.684
192.001
168.737
159.192
155.462
155.218
175.073
195.466
222.856
257.372
292.821
330.807
370.767
410.023
432.641
426.439
427.96
360.096
300.377
273.842
232.035
214.538
201.053
197.451
197.437
211.697
227.883
247.898
272.653
299.443
326.785
355.858
383.494
398.89
396.814
367.988
383.608
352.331
312.857
296.065
273.018
265.952
263.431
263.069
269.907
279.144
291.178
305.998
322.352
339.234
355.542
369.803
376.609
374.914
343.716
300.766
349.882
386.912
375.256
371.437
361.653
356.894
351.371
349.168
348.637
350.796
355.101
359.398
364.165
366.783
367.783
366.305
357.927
331.145
277.69
232.726
331.146
499.085
483.849
476.459
457.547
448.652
434.303
427.261
417.579
412.382
404.322
397.846
388.673
378.138
365.45
349.161
316.705
268.374
203.89
161.558
324.992
563.283
541.883
532.223
509.156
498.107
479.456
469.171
452.33
440.762
423.843
409.676
390.444
370.362
341.698
302.167
251.812
198.004
143.451
116.978
328.216
544.424
524.268
515.209
493.45
483.06
465.659
456.335
441.363
431.165
416.5
403.988
387.43
369.682
345.105
309.392
259.643
203.559
143.668
114.363
326.69
457.658
446.464
440.846
424.887
417.591
406.633
401.369
395.695
392.893
389.455
385.975
381.295
374.263
364.772
353.394
326.933
279.346
212.032
170.844
324.536
358.922
343.808
338.817
330.865
327.466
324.359
323.517
326.153
331.022
338.554
346.57
354.809
362.477
366.294
367.642
363.24
339.646
287.045
239.431
325.83
336.665
296.785
279.251
254.051
245.655
242.688
242.496
250.871
261.585
275.58
292.913
311.733
331.963
352.093
370.567
379.756
380.952
352.342
307.742
335.569
346.769
288.168
262.273
221.03
203.616
189.111
184.767
184.285
198.077
215.343
236.812
263.13
291.945
321.667
353.776
385.632
403.672
404.799
374.426
370.218
374.49
289.301
256.019
206.254
184.303
161.47
151.815
147.736
147.139
165.176
186.55
214.611
250.444
287.654
327.714
370.149
413.989
438.697
433.745
420.33
429.562
293.985
246.204
189.998
163.824
140.055
128.545
123.197
121.743
125.956
147.107
171.3
207.637
251.214
298.64
350.853
407.683
460.328
480.527
471.633
531.569
308.211
233.678
173.709
141.918
120.374
107.412
101.73
100.151
104.687
116.022
139.007
169.925
213.842
265.765
324.068
390.655
467.058
518.653
523.057
686.645
318.097
211.246
148.249
116.985
99.8556
89.516
84.4205
82.6334
84.6735
96.1516
112.078
140.571
180.759
234.232
297.34
371.247
461.078
548.52
570.852
863.374
313.506
170.69
115.734
92.0739
79.5877
73.1977
70.4931
69.7105
72.0708
78.7565
94.3769
116.011
152.731
203.753
268.886
347.697
444.751
563.131
613.233
646.053
32.1745
12.7362
11.3229
11.19
11.171
11.1705
11.1708
11.1706
11.1705
11.1705
11.1706
11.1708
11.1705
11.171
11.19
11.3229
12.7362
32.1745
646.053
672.74
55.0629
17.0386
12.087
11.3039
11.1803
11.1547
11.1529
11.1534
11.1536
11.1536
11.1534
11.1529
11.1547
11.1803
11.3039
12.087
17.0386
55.0627
672.74
698.453
71.0937
21.1542
13.3033
11.5874
11.2261
11.1552
11.1382
11.1358
11.1355
11.1355
11.1358
11.1382
11.1552
11.2261
11.5874
13.3033
21.1542
71.0937
698.453
723.136
85.8503
25.1369
14.6461
12.0431
11.3371
11.1684
11.1265
11.1183
11.1171
11.1171
11.1183
11.1265
11.1684
11.3371
12.0431
14.6461
25.1368
85.8501
723.136
746.742
101.867
29.2065
16.0658
12.5885
11.5234
11.2064
11.1273
11.105
11.1003
11.1003
11.105
11.1273
11.2064
11.5234
12.5885
16.0658
29.2065
101.867
746.743
769.31
118.433
33.3669
17.5406
13.1971
11.7624
11.283
11.1366
11.0944
11.0843
11.0843
11.0944
11.1366
11.283
11.7624
13.1971
17.5405
33.3669
118.433
769.31
790.729
134.968
37.5677
19.0511
13.8502
12.0431
11.3872
11.16
11.0918
11.0718
11.0718
11.0918
11.16
11.3872
12.0431
13.8502
19.0511
37.5677
134.968
790.729
810.982
151.251
41.7801
20.5851
14.5352
12.3571
11.5178
11.2031
11.0955
11.0625
11.0625
11.0955
11.2031
11.5178
12.3571
14.5352
20.5852
41.7801
151.251
810.982
829.955
167.078
45.9691
22.1303
15.2422
12.6968
11.6708
11.2604
11.1065
11.0594
11.0594
11.1065
11.2604
11.6708
12.6968
15.2422
22.1303
45.9692
167.079
829.955
847.653
182.401
50.1208
23.6797
15.9647
13.0568
11.8431
11.3324
11.129
11.0619
11.0619
11.129
11.3324
11.8431
13.0568
15.9648
23.6797
50.1209
182.401
847.653
863.991
197.096
54.2105
25.2247
16.6968
13.4321
12.0315
11.4179
11.1609
11.0697
11.0697
11.1609
11.4179
12.0315
13.4321
16.6968
25.2248
54.2107
197.097
863.991
879.013
211.155
58.2321
26.7619
17.4347
13.8193
12.2335
11.5156
11.2021
11.0862
11.0862
11.2021
11.5156
12.2335
13.8193
17.4347
26.762
58.2323
211.155
879.012
892.663
224.491
62.1652
28.2844
18.1745
14.2149
12.4467
11.6242
11.2528
11.1113
11.1113
11.2528
11.6242
12.4467
14.2149
18.1745
28.2844
62.1653
224.492
892.663
905.026
237.119
66.0089
29.7907
18.9141
14.6169
12.6691
11.7427
11.3126
11.1446
11.1446
11.3126
11.7427
12.6691
14.617
18.9141
29.7909
66.0092
237.119
905.026
916.068
248.971
69.7458
31.2754
19.6506
15.023
12.899
11.8698
11.381
11.1861
11.1861
11.381
11.8698
12.899
15.023
19.6506
31.2754
69.7459
248.971
916.067
925.904
260.09
73.3781
32.7379
20.383
15.4319
13.1352
12.0048
11.4576
11.2357
11.2357
11.4576
12.0048
13.1352
15.4319
20.383
32.738
73.3783
260.089
925.904
934.512
270.424
76.8907
34.1734
21.1088
15.8417
13.3762
12.1466
11.5418
11.293
11.293
11.5418
12.1466
13.3762
15.8417
21.1088
34.1733
76.8907
270.424
934.512
942.037
280.035
80.2891
35.5825
21.8276
16.2519
13.6211
12.2944
11.6331
11.3579
11.3579
11.6331
12.2944
13.6211
16.2519
21.8277
35.5827
80.2893
280.035
942.036
948.451
288.886
83.5603
36.9607
22.5374
16.6609
13.8691
12.4475
11.7309
11.4299
11.4299
11.7309
12.4475
13.8691
16.6609
22.5374
36.9606
83.5603
288.886
948.45
953.925
297.051
86.7122
38.3097
23.2383
17.0685
14.1194
12.6053
11.8348
11.5085
11.5085
11.8348
12.6053
14.1194
17.0685
23.2384
38.3099
86.7125
297.051
953.924
958.416
304.506
89.7341
39.6249
23.9283
17.4735
14.3712
12.7671
11.9442
11.5934
11.5934
11.9442
12.7671
14.3712
17.4734
23.9282
39.6249
89.734
304.506
958.416
962.12
311.326
92.6355
40.9093
24.608
17.8757
14.6242
12.9325
12.0587
11.684
11.684
12.0587
12.9325
14.6242
17.8757
24.6081
40.9094
92.6358
311.326
962.12
964.967
317.505
95.4076
42.1579
25.2754
18.2741
14.8776
13.1009
12.1777
11.78
11.78
12.1777
13.1009
14.8776
18.2741
25.2754
42.1579
95.4075
317.505
964.966
967.18
323.103
98.0617
43.3751
25.9318
18.669
15.1313
13.2719
12.3009
11.8809
11.8809
12.3009
13.2719
15.1313
18.669
25.9319
43.3752
98.0621
323.103
967.179
968.649
328.147
100.59
44.5553
26.5749
19.0592
15.3846
13.445
12.4277
11.9862
11.9862
12.4277
13.445
15.3846
19.0592
26.5748
44.5553
100.59
328.146
968.648
969.635
332.654
103.005
45.7044
27.2064
19.4453
15.6374
13.62
12.5579
12.0955
12.0955
12.5579
13.62
15.6374
19.4453
27.2065
45.7046
103.005
332.655
969.634
969.97
336.705
105.299
46.816
27.8239
19.826
15.8892
13.7964
12.691
12.2085
12.2085
12.691
13.7964
15.8892
19.826
27.8238
46.816
105.299
336.703
969.969
969.834
340.242
107.488
47.8975
28.4297
20.2021
16.14
13.9741
12.8267
12.3248
12.3248
12.8267
13.9741
16.14
20.2021
28.4298
47.8976
107.488
340.243
969.833
969.425
343.403
109.561
48.9414
29.021
20.5725
16.3892
14.1525
12.9646
12.4441
12.4441
12.9646
14.1525
16.3892
20.5725
29.021
48.9414
109.561
343.4
969.424
968.579
346.141
111.539
49.9568
29.6007
20.9379
16.637
14.3316
13.1045
12.5659
12.5659
13.1045
14.3316
16.637
20.9379
29.6008
49.9569
111.539
346.142
968.578
967.379
348.534
113.406
50.9353
30.1659
21.2973
16.8828
14.511
13.2461
12.69
12.69
13.2461
14.511
16.8827
21.2972
30.1658
50.9352
113.406
348.53
967.378
965.891
350.552
115.188
51.8872
30.7196
21.6515
17.1267
14.6907
13.389
12.8161
12.8161
13.389
14.6907
17.1268
21.6515
30.7196
51.8872
115.187
350.554
965.89
964.155
352.265
116.864
52.8029
31.2587
21.9995
17.3684
14.8702
13.5331
12.944
12.944
13.5331
14.8702
17.3684
21.9994
31.2586
52.8029
116.864
352.261
964.154
962.205
353.658
118.465
53.6943
31.7868
22.3423
17.608
15.0495
13.6782
13.0733
13.0733
13.6782
15.0495
17.6081
22.3423
31.7869
53.6942
118.464
353.66
962.204
960.073
354.766
119.965
54.5507
32.3006
22.6787
17.8451
15.2284
13.8239
13.2039
13.2039
13.8239
15.2283
17.845
22.6786
32.3005
54.5507
119.965
354.762
960.073
957.789
355.615
121.399
55.3852
32.8038
23.0099
18.0798
15.4067
13.9702
13.3355
13.3355
13.9702
15.4067
18.0799
23.0099
32.8039
55.3851
121.398
355.617
957.788
955.381
356.175
122.736
56.186
33.293
23.3347
18.3118
15.5842
14.1168
13.468
13.468
14.1168
15.5842
18.3118
23.3346
33.2929
56.186
122.736
356.172
955.382
952.87
356.557
124.016
56.9675
33.7724
23.6544
18.5414
15.761
14.2636
13.6011
13.6011
14.2636
15.761
18.5415
23.6545
33.7725
56.9674
124.015
356.558
952.869
950.286
356.613
125.204
57.7167
34.238
23.9676
18.7681
15.9367
14.4103
13.7346
13.7346
14.4103
15.9366
18.768
23.9675
34.2378
57.7167
125.204
356.611
950.286
947.635
356.52
126.341
58.4494
34.6947
24.2759
18.9922
16.1114
14.557
13.8684
13.8684
14.557
16.1114
18.9923
24.2761
34.6948
58.4492
126.34
356.519
947.634
944.957
356.291
127.392
59.1511
35.1381
24.5779
19.2134
16.2848
14.7033
14.0024
14.0024
14.7033
16.2848
19.2132
24.5777
35.1378
59.1512
127.393
356.29
944.958
942.244
355.82
128.406
59.8395
35.5733
24.8751
19.4319
16.4571
14.8493
14.1364
14.1364
14.8494
16.4572
19.4321
24.8754
35.5735
59.8391
128.404
355.824
942.242
939.539
355.244
129.335
60.4987
35.9959
25.1662
19.6474
16.628
14.9948
14.2703
14.2703
14.9947
16.6279
19.6472
25.1659
35.9955
60.4988
129.338
355.237
939.54
936.82
354.505
130.251
61.149
36.4113
25.4527
19.8603
16.7975
15.1397
14.404
14.404
15.1398
16.7976
19.8605
25.4531
36.4117
61.1486
130.247
354.51
936.819
934.145
353.722
131.099
61.7743
36.8149
25.7334
20.0701
16.9655
15.2839
14.5373
14.5373
15.2838
16.9653
20.0699
25.7329
36.8142
61.7744
131.103
353.715
934.147
931.466
352.872
131.987
62.3993
37.2125
26.0097
20.2774
17.132
15.4273
14.6702
14.6703
15.4274
17.1322
20.2777
26.0103
37.2132
62.3992
131.982
352.876
931.464
928.859
352.024
132.869
63.0126
37.5999
26.2805
20.4816
17.2969
15.5699
14.8026
14.8025
15.5698
17.2967
20.4812
26.2799
37.5989
63.0127
132.873
352.019
928.861
926.333
351.164
133.826
63.6387
37.9833
26.5474
20.6833
17.4603
15.7116
14.9344
14.9344
15.7117
17.4605
20.6837
26.5482
37.9844
63.6388
133.82
351.166
926.331
923.871
350.422
134.84
64.2638
38.3588
26.8093
20.882
17.622
15.8522
15.0654
15.0654
15.8521
17.6217
20.8815
26.8084
38.3575
64.2636
134.846
350.42
923.874
921.484
349.753
135.976
64.912
38.7329
27.0679
21.0783
17.7821
15.9919
15.1958
15.1959
15.992
17.7824
21.0789
27.069
38.7346
64.9128
135.971
349.755
921.481
919.155
349.293
137.189
65.565
39.1016
27.3221
21.2718
17.9404
16.1304
15.3253
15.3252
16.1303
17.9402
21.2712
27.321
39.0997
65.5642
137.195
349.293
919.158
916.897
348.942
138.533
66.246
39.4712
27.5738
21.4631
18.0973
16.2679
15.4541
15.4541
16.2681
18.0977
21.4639
27.5752
39.4736
66.2479
138.528
348.943
916.893
914.693
348.851
139.937
66.9331
39.8374
27.8218
21.6517
18.2523
16.4041
15.5817
15.5816
16.404
18.252
21.651
27.8203
39.835
66.9315
139.943
348.853
914.696
912.56
348.916
141.463
67.6495
40.2064
28.0679
21.8384
18.4059
16.5394
15.7086
15.7087
16.5396
18.4065
21.8394
28.0699
40.2098
67.6528
141.46
348.918
912.555
910.479
349.098
143.022
68.3711
40.5735
28.3112
22.0226
18.5577
16.6731
15.8342
15.8342
16.6729
18.5572
22.0217
28.3093
40.5704
68.3687
143.028
349.101
910.482
908.471
349.471
144.676
69.1203
40.9447
28.5532
22.2052
18.7081
16.806
15.9592
15.9593
16.8063
18.7088
22.2066
28.5559
40.9493
69.1256
144.675
349.481
908.464
906.513
349.99
146.342
69.873
41.315
28.793
22.3855
18.8567
16.9373
16.0827
16.0826
16.937
18.8562
22.3844
28.7907
41.3112
69.8697
146.347
349.989
906.515
904.629
350.63
148.077
70.651
41.6902
29.0321
22.5644
19.0041
17.0677
16.2056
16.2058
17.0682
19.0051
22.5664
29.0357
41.6965
70.6592
148.081
350.645
904.62
902.794
351.376
149.806
71.4301
42.065
29.2695
22.7414
19.1497
17.1965
16.3268
16.3268
17.1962
19.1491
22.74
29.2668
42.0606
71.4262
149.811
351.378
902.795
901.035
352.209
151.58
72.2316
42.4452
29.5067
22.9171
19.2942
17.3245
16.4477
16.4479
17.3252
19.2956
22.9198
29.5117
42.4538
72.2438
151.592
352.231
901.021
899.321
353.116
153.335
73.0313
42.8251
29.7426
23.0911
19.437
17.4508
16.5666
16.5665
17.4504
19.4362
23.0895
29.7396
42.8205
73.0278
153.339
353.127
899.319
897.684
354.081
155.115
73.8509
43.2104
29.9786
23.264
19.5787
17.5764
16.6853
16.6856
17.5774
19.5808
23.2679
29.9856
43.2224
73.8688
155.138
354.116
897.665
896.089
355.096
156.864
74.6654
43.5954
30.2137
23.4356
19.7188
17.7001
16.8017
16.8017
17.6998
19.7181
23.4339
30.2106
43.5911
74.664
156.873
355.121
896.082
894.571
356.143
158.624
75.4974
43.9856
30.4488
23.6061
19.858
17.8234
16.9184
16.9188
17.8249
19.861
23.6117
30.4589
44.0028
75.524
158.662
356.199
894.542
893.092
357.219
160.343
76.3209
44.3755
30.6836
23.7754
19.9955
17.9447
17.0324
17.0324
17.9445
19.995