/*--------------------------------*- C++ -*----------------------------------*\
| =========                 |                                                 |
| \\      /  F ield         | OpenFOAM: The Open Source CFD Toolbox           |
|  \\    /   O peration     | Version:  2.1.0                                 |
|   \\  /    A nd           | Web:      www.OpenFOAM.org                      |
|    \\/     M anipulation  |                                                 |
\*---------------------------------------------------------------------------*/
FoamFile
{
    version     2.0;
    format      ascii;
    class       volScalarField;
    location    "0.4";
    object      p;
}
// * * * * * * * * * * * * * * * * * * * * * * * * * * * * * * * * * * * * * //

dimensions      [1 -1 -2 0 0 0 0];

internalField   nonuniform List<scalar> 
6400
(
99998.4
99995.7
99993.8
99992.2
99990.7
99989.3
99988
99986.6
99985.1
99983.7
99982.2
99980.6
99978.9
99977.2
99975.5
99973.6
99971.7
99969.8
99967.7
99965.6
99963.4
99961.1
99958.8
99956.3
99953.8
99951.2
99948.5
99945.7
99942.8
99939.9
99936.8
99933.6
99930.4
99927
99923.6
99920
99916.3
99912.5
99908.6
99904.6
99900.4
99896.1
99891.7
99887.1
99882.4
99877.5
99872.5
99867.3
99861.9
99856.4
99850.6
99844.7
99838.5
99832.2
99825.6
99818.8
99811.8
99804.6
99797.1
99789.4
99781.4
99773.2
99764.6
99755.8
99746.6
99737.2
99727.4
99717.2
99706.7
99695.7
99684.4
99672.7
99660.5
99647.8
99634.6
99620.9
99606.7
99591.9
99576.5
99560.5
99543.7
99526.1
99507.7
99488.2
99467.5
99445.4
99421.5
99395.6
99367.2
99336.1
99302.5
99267.5
99233.3
99200.8
99168.3
99135.2
99078.1
98962.8
98591.7
96983.4
99996.8
99995.1
99993.3
99991.8
99990.3
99988.9
99987.6
99986.2
99984.8
99983.3
99981.8
99980.2
99978.5
99976.8
99975.1
99973.2
99971.3
99969.3
99967.3
99965.2
99963
99960.7
99958.3
99955.9
99953.3
99950.7
99948
99945.2
99942.3
99939.4
99936.3
99933.1
99929.9
99926.5
99923
99919.5
99915.8
99912
99908.1
99904
99899.8
99895.5
99891.1
99886.5
99881.8
99876.9
99871.9
99866.7
99861.3
99855.8
99850
99844.1
99838
99831.6
99825.1
99818.3
99811.3
99804.1
99796.7
99789
99781
99772.7
99764.2
99755.4
99746.3
99736.8
99727.1
99716.9
99706.4
99695.5
99684.2
99672.5
99660.3
99647.7
99634.6
99620.9
99606.8
99592
99576.6
99560.6
99543.8
99526.2
99507.8
99488.3
99467.7
99445.6
99421.8
99395.9
99367.7
99336.9
99303.6
99268.9
99234.6
99202.5
99174.8
99145.7
99094.1
98993.1
98692.3
98137.8
99995.3
99994.3
99992.8
99991.4
99990
99988.7
99987.3
99986
99984.5
99983.1
99981.6
99980
99978.3
99976.6
99974.9
99973
99971.1
99969.2
99967.1
99965
99962.8
99960.5
99958.1
99955.7
99953.1
99950.5
99947.8
99945
99942.2
99939.2
99936.1
99933
99929.7
99926.4
99922.9
99919.3
99915.6
99911.8
99907.9
99903.9
99899.7
99895.5
99891
99886.5
99881.8
99876.9
99871.9
99866.7
99861.4
99855.9
99850.2
99844.3
99838.2
99831.9
99825.4
99818.7
99811.7
99804.6
99797.1
99789.5
99781.5
99773.3
99764.9
99756.1
99747
99737.6
99727.9
99717.9
99707.4
99696.6
99685.4
99673.8
99661.7
99649.2
99636.2
99622.7
99608.6
99594
99578.7
99562.8
99546.2
99528.7
99510.4
99491
99470.5
99448.5
99424.9
99399.3
99371.5
99341.3
99309.2
99276.2
99244.3
99215.9
99192.5
99164.7
99129
99066.9
98910.6
99000.5
99993.3
99993.3
99992.4
99991.2
99989.9
99988.6
99987.3
99986
99984.6
99983.1
99981.6
99980.1
99978.4
99976.8
99975
99973.2
99971.3
99969.3
99967.3
99965.1
99963
99960.7
99958.3
99955.9
99953.4
99950.8
99948.1
99945.3
99942.5
99939.5
99936.5
99933.3
99930.1
99926.8
99923.3
99919.8
99916.1
99912.3
99908.5
99904.4
99900.3
99896
99891.6
99887.1
99882.4
99877.6
99872.6
99867.5
99862.2
99856.7
99851.1
99845.3
99839.2
99833
99826.5
99819.8
99813
99805.8
99798.5
99790.8
99783
99774.8
99766.4
99757.7
99748.7
99739.4
99729.7
99719.7
99709.3
99698.5
99687.4
99675.8
99663.8
99651.2
99638.2
99624.7
99610.6
99595.9
99580.6
99564.6
99547.9
99530.3
99511.8
99492.3
99471.5
99449.4
99425.7
99400.1
99372.6
99343.3
99312.7
99282.4
99254.3
99231
99213.9
99201.3
99195.8
99200.4
99226.9
99647.2
99991.2
99992.3
99991.9
99991
99990
99988.8
99987.6
99986.3
99984.9
99983.5
99982
99980.4
99978.8
99977.2
99975.4
99973.6
99971.7
99969.8
99967.7
99965.6
99963.5
99961.2
99958.9
99956.5
99954
99951.4
99948.8
99946
99943.2
99940.3
99937.2
99934.1
99930.9
99927.6
99924.2
99920.6
99917
99913.3
99909.4
99905.4
99901.3
99897.1
99892.7
99888.2
99883.5
99878.7
99873.8
99868.7
99863.4
99857.9
99852.3
99846.5
99840.4
99834.2
99827.8
99821.1
99814.3
99807.1
99799.8
99792.2
99784.3
99776.2
99767.8
99759
99750
99740.7
99731
99720.9
99710.5
99699.7
99688.5
99676.9
99664.8
99652.2
99639.1
99625.5
99611.3
99596.5
99581
99564.9
99548
99530.3
99511.6
99491.8
99470.9
99448.6
99424.9
99399.5
99372.6
99344.4
99315.9
99289
99266.2
99249.8
99243.8
99253.9
99290.9
99383
99581.2
100157
99989.1
99991.2
99991.5
99991
99990.1
99989.1
99988
99986.7
99985.4
99984
99982.5
99981
99979.4
99977.7
99976
99974.2
99972.4
99970.4
99968.4
99966.3
99964.2
99961.9
99959.6
99957.2
99954.7
99952.2
99949.5
99946.8
99944
99941.1
99938.1
99934.9
99931.7
99928.4
99925
99921.5
99917.9
99914.1
99910.3
99906.3
99902.2
99897.9
99893.6
99889.1
99884.4
99879.6
99874.6
99869.5
99864.2
99858.7
99853.1
99847.2
99841.2
99834.9
99828.5
99821.8
99814.9
99807.8
99800.4
99792.8
99784.9
99776.7
99768.3
99759.5
99750.5
99741.1
99731.4
99721.3
99710.9
99700
99688.8
99677.1
99665
99652.3
99639.2
99625.5
99611.2
99596.3
99580.8
99564.5
99547.4
99529.5
99510.6
99490.7
99469.6
99447.1
99423.4
99398.2
99371.9
99345
99318.7
99295.6
99278.4
99270.3
99278.7
99315.8
99402.3
99587.1
99921.8
100557
99987.2
99990.2
99991.1
99990.9
99990.3
99989.4
99988.4
99987.2
99985.9
99984.5
99983.1
99981.5
99980
99978.3
99976.6
99974.8
99972.9
99971
99968.9
99966.9
99964.7
99962.5
99960.1
99957.7
99955.3
99952.7
99950.1
99947.3
99944.5
99941.6
99938.5
99935.4
99932.2
99928.9
99925.5
99921.9
99918.3
99914.5
99910.7
99906.7
99902.5
99898.3
99893.9
99889.3
99884.7
99879.8
99874.9
99869.7
99864.4
99858.9
99853.2
99847.4
99841.3
99835.1
99828.6
99821.9
99815
99807.8
99800.4
99792.8
99784.9
99776.7
99768.3
99759.5
99750.5
99741.1
99731.4
99721.3
99710.9
99700
99688.8
99677.1
99664.9
99652.3
99639.1
99625.3
99611
99596
99580.4
99563.9
99546.7
99528.6
99509.5
99489.3
99468
99445.4
99421.6
99396.6
99370.9
99345.2
99321.1
99301.4
99289.6
99290.1
99313.6
99378.3
99514.3
99783.3
100215
100860
99985.6
99989.4
99990.6
99990.8
99990.4
99989.6
99988.6
99987.5
99986.2
99984.8
99983.4
99981.8
99980.2
99978.6
99976.8
99975
99973.2
99971.2
99969.2
99967.1
99964.9
99962.7
99960.4
99958
99955.5
99952.9
99950.2
99947.5
99944.6
99941.7
99938.6
99935.5
99932.3
99928.9
99925.5
99921.9
99918.3
99914.5
99910.6
99906.6
99902.4
99898.2
99893.8
99889.2
99884.5
99879.7
99874.7
99869.5
99864.2
99858.7
99853
99847.2
99841.1
99834.9
99828.4
99821.7
99814.8
99807.7
99800.3
99792.7
99784.8
99776.6
99768.2
99759.5
99750.5
99741.1
99731.4
99721.3
99710.9
99700
99688.8
99677.1
99664.9
99652.2
99639
99625.2
99610.8
99595.8
99580
99563.4
99546
99527.7
99508.4
99488
99466.4
99443.7
99419.8
99395
99369.8
99345.1
99322.7
99305.7
99298.4
99306.6
99343.6
99432.3
99611
99947.1
100442
101076
99984.5
99988.7
99990.2
99990.6
99990.3
99989.6
99988.7
99987.5
99986.3
99984.9
99983.4
99981.9
99980.3
99978.6
99976.9
99975.1
99973.2
99971.2
99969.2
99967.1
99964.9
99962.6
99960.3
99957.9
99955.4
99952.8
99950.1
99947.3
99944.4
99941.5
99938.4
99935.3
99932.1
99928.7
99925.2
99921.7
99918
99914.2
99910.3
99906.3
99902.2
99897.9
99893.5
99888.9
99884.2
99879.4
99874.4
99869.3
99863.9
99858.5
99852.8
99846.9
99840.9
99834.7
99828.2
99821.6
99814.7
99807.5
99800.2
99792.6
99784.7
99776.6
99768.2
99759.5
99750.5
99741.1
99731.4
99721.4
99711
99700.1
99688.9
99677.2
99665
99652.3
99639
99625.2
99610.7
99595.6
99579.7
99563
99545.5
99526.9
99507.4
99486.8
99465
99442
99418
99393.3
99368.4
99344.4
99323.3
99308.2
99303.9
99317.8
99364.2
99470.6
99680
100062
100592
101214
99983.9
99988.2
99989.9
99990.4
99990.2
99989.5
99988.6
99987.5
99986.2
99984.9
99983.4
99981.9
99980.2
99978.6
99976.8
99975
99973.1
99971.1
99969.1
99966.9
99964.7
99962.5
99960.1
99957.7
99955.2
99952.6
99949.9
99947.1
99944.3
99941.3
99938.3
99935.1
99931.9
99928.5
99925.1
99921.5
99917.8
99914.1
99910.2
99906.1
99902
99897.7
99893.3
99888.8
99884.1
99879.3
99874.3
99869.1
99863.8
99858.4
99852.7
99846.9
99840.8
99834.6
99828.2
99821.5
99814.7
99807.5
99800.2
99792.6
99784.8
99776.7
99768.3
99759.6
99750.6
99741.3
99731.6
99721.6
99711.2
99700.3
99689.1
99677.4
99665.2
99652.5
99639.2
99625.3
99610.8
99595.6
99579.6
99562.8
99545.1
99526.4
99506.6
99485.8
99463.8
99440.6
99416.4
99391.6
99366.8
99343.3
99322.8
99308.6
99305.7
99322.6
99374.4
99489.4
99714.3
100119
100665
101281
99983.7
99988.2
99989.9
99990.4
99990.2
99989.6
99988.7
99987.5
99986.3
99984.9
99983.5
99981.9
99980.3
99978.6
99976.9
99975.1
99973.2
99971.2
99969.2
99967
99964.8
99962.6
99960.2
99957.8
99955.3
99952.7
99950
99947.2
99944.4
99941.4
99938.4
99935.2
99932
99928.6
99925.2
99921.6
99917.9
99914.1
99910.2
99906.2
99902.1
99897.8
99893.4
99888.9
99884.2
99879.3
99874.4
99869.2
99863.9
99858.4
99852.8
99847
99840.9
99834.7
99828.3
99821.7
99814.8
99807.7
99800.4
99792.9
99785
99776.9
99768.5
99759.8
99750.9
99741.5
99731.9
99721.9
99711.5
99700.7
99689.4
99677.8
99665.6
99652.8
99639.5
99625.6
99611.1
99595.8
99579.7
99562.8
99544.9
99526
99506.1
99485.1
99462.8
99439.4
99415.1
99390
99365.1
99341.5
99321
99306.8
99303.9
99320.8
99372.8
99487.5
99711.7
100115
100661
101278
99984
99988.5
99990.1
99990.5
99990.3
99989.6
99988.7
99987.6
99986.3
99985
99983.5
99982
99980.4
99978.7
99977
99975.2
99973.3
99971.4
99969.3
99967.2
99965.1
99962.8
99960.5
99958.1
99955.6
99953
99950.3
99947.5
99944.7
99941.7
99938.7
99935.5
99932.3
99928.9
99925.5
99921.9
99918.2
99914.5
99910.6
99906.5
99902.4
99898.1
99893.7
99889.1
99884.4
99879.6
99874.6
99869.5
99864.2
99858.7
99853
99847.2
99841.2
99835
99828.5
99821.9
99815.1
99808
99800.7
99793.1
99785.3
99777.2
99768.8
99760.2
99751.2
99741.9
99732.3
99722.3
99711.9
99701.1
99689.9
99678.2
99666
99653.2
99639.9
99626
99611.3
99596
99579.8
99562.8
99544.8
99525.7
99505.6
99484.3
99461.8
99438.2
99413.4
99388
99362.7
99338.6
99317.6
99302.3
99297.6
99311.6
99358.5
99463.5
99670.5
100048
100577
101200
99985
99989
99990.4
99990.6
99990.3
99989.5
99988.6
99987.4
99986.2
99984.8
99983.4
99981.9
99980.3
99978.7
99976.9
99975.1
99973.3
99971.3
99969.3
99967.2
99965.1
99962.8
99960.5
99958.1
99955.6
99953.1
99950.4
99947.7
99944.8
99941.9
99938.9
99935.7
99932.5
99929.2
99925.7
99922.2
99918.5
99914.7
99910.8
99906.8
99902.7
99898.4
99894
99889.4
99884.7
99879.9
99874.9
99869.8
99864.5
99859
99853.3
99847.5
99841.5
99835.2
99828.8
99822.2
99815.4
99808.3
99801
99793.4
99785.6
99777.5
99769.2
99760.5
99751.5
99742.3
99732.6
99722.6
99712.3
99701.5
99690.3
99678.6
99666.4
99653.6
99640.3
99626.3
99611.7
99596.2
99580
99562.8
99544.7
99525.5
99505.2
99483.7
99461
99437
99411.9
99386
99360
99335.1
99313
99295.9
99287.9
99296.5
99333.4
99420.2
99595.1
99925.4
100417
101053
99986.5
99989.8
99990.8
99990.7
99990.1
99989.3
99988.3
99987.1
99985.8
99984.5
99983
99981.5
99979.9
99978.3
99976.6
99974.8
99972.9
99971
99969
99966.9
99964.8
99962.6
99960.3
99957.9
99955.4
99952.8
99950.2
99947.4
99944.6
99941.7
99938.7
99935.6
99932.3
99929
99925.6
99922.1
99918.4
99914.6
99910.8
99906.8
99902.6
99898.4
99894
99889.5
99884.8
99880
99875
99869.9
99864.6
99859.1
99853.5
99847.6
99841.6
99835.4
99829
99822.4
99815.6
99808.5
99801.2
99793.7
99785.9
99777.8
99769.5
99760.8
99751.9
99742.6
99733
99723
99712.7
99701.9
99690.7
99679
99666.8
99654.1
99640.7
99626.8
99612.1
99596.6
99580.3
99563.1
99544.8
99525.5
99505.1
99483.4
99460.4
99436.1
99410.6
99384.1
99357.3
99331.2
99307.6
99288
99275.8
99277
99300.5
99362.7
99493.9
99755.5
100182
100827
99988.4
99990.7
99991.1
99990.7
99989.9
99988.9
99987.8
99986.6
99985.3
99983.9
99982.5
99980.9
99979.3
99977.7
99976
99974.2
99972.3
99970.4
99968.4
99966.3
99964.1
99961.9
99959.6
99957.2
99954.7
99952.2
99949.5
99946.8
99944
99941.1
99938
99934.9
99931.7
99928.4
99925
99921.4
99917.8
99914.1
99910.2
99906.2
99902.1
99897.9
99893.5
99889
99884.3
99879.5
99874.6
99869.5
99864.2
99858.8
99853.2
99847.4
99841.4
99835.3
99828.9
99822.3
99815.5
99808.5
99801.2
99793.7
99786
99777.9
99769.6
99761
99752.1
99742.9
99733.3
99723.3
99713
99702.3
99691.1
99679.5
99667.3
99654.6
99641.2
99627.3
99612.6
99597.1
99580.7
99563.4
99545.1
99525.7
99505.2
99483.3
99460.1
99435.5
99409.5
99382.4
99354.7
99327.2
99301.5
99279.1
99262.6
99255.5
99263.8
99298.4
99379.5
99556
99882.6
100515
99990.5
99991.8
99991.5
99990.7
99989.7
99988.6
99987.4
99986.1
99984.8
99983.4
99981.9
99980.3
99978.7
99977.1
99975.3
99973.5
99971.6
99969.7
99967.7
99965.6
99963.4
99961.2
99958.8
99956.4
99953.9
99951.4
99948.7
99946
99943.1
99940.2
99937.2
99934
99930.8
99927.5
99924.1
99920.5
99916.9
99913.1
99909.2
99905.2
99901.1
99896.9
99892.5
99888
99883.3
99878.6
99873.6
99868.5
99863.3
99857.9
99852.3
99846.5
99840.6
99834.4
99828.1
99821.6
99814.8
99807.8
99800.6
99793.1
99785.4
99777.4
99769.2
99760.6
99751.8
99742.6
99733.1
99723.2
99712.9
99702.2
99691.1
99679.5
99667.4
99654.7
99641.4
99627.4
99612.7
99597.3
99580.9
99563.6
99545.3
99525.8
99505.2
99483.2
99459.8
99434.9
99408.6
99380.9
99352.2
99323.2
99295.3
99270
99249.2
99234.3
99228.3
99236
99267.7
99351.1
99538.9
100108
99992.7
99992.8
99992
99990.8
99989.6
99988.4
99987.1
99985.8
99984.4
99983
99981.5
99980
99978.4
99976.7
99974.9
99973.1
99971.2
99969.2
99967.2
99965.1
99962.9
99960.6
99958.3
99955.9
99953.4
99950.8
99948.1
99945.3
99942.4
99939.5
99936.4
99933.3
99930
99926.7
99923.2
99919.7
99916
99912.2
99908.3
99904.3
99900.1
99895.9
99891.5
99886.9
99882.3
99877.4
99872.5
99867.4
99862.1
99856.6
99851
99845.2
99839.3
99833.1
99826.8
99820.3
99813.5
99806.5
99799.3
99791.8
99784.1
99776.1
99767.9
99759.3
99750.5
99741.3
99731.8
99722
99711.8
99701.1
99690.1
99678.5
99666.5
99653.9
99640.6
99626.7
99612.1
99596.7
99580.4
99563.1
99544.8
99525.3
99504.6
99482.6
99459.1
99434
99407.4
99379.2
99349.6
99319.3
99289.4
99261.3
99236.7
99216.3
99198.7
99184.1
99173.6
99169.9
99184.5
99591.2
99994.6
99993.7
99992.4
99991.1
99989.7
99988.4
99987.1
99985.8
99984.4
99983
99981.5
99979.9
99978.3
99976.6
99974.8
99973
99971.1
99969.1
99967.1
99965
99962.8
99960.5
99958.1
99955.7
99953.2
99950.5
99947.8
99945
99942.2
99939.2
99936.1
99932.9
99929.7
99926.3
99922.8
99919.2
99915.6
99911.7
99907.8
99903.8
99899.6
99895.3
99890.9
99886.3
99881.6
99876.8
99871.8
99866.7
99861.3
99855.9
99850.2
99844.4
99838.4
99832.2
99825.8
99819.2
99812.3
99805.3
99798
99790.5
99782.8
99774.8
99766.5
99757.9
99749
99739.8
99730.2
99720.3
99710.1
99699.4
99688.3
99676.7
99664.6
99652
99638.7
99624.8
99610.1
99594.7
99578.4
99561.1
99542.8
99523.3
99502.6
99480.5
99457
99431.8
99405
99376.5
99346.4
99315.1
99283.7
99253.6
99226.3
99203
99178.5
99148.7
99108.5
99038.7
98869.8
98936.7
99996.2
99994.5
99992.9
99991.4
99990
99988.7
99987.4
99986
99984.6
99983.2
99981.7
99980.1
99978.5
99976.8
99975
99973.2
99971.3
99969.3
99967.3
99965.2
99963
99960.7
99958.3
99955.9
99953.4
99950.7
99948
99945.3
99942.4
99939.4
99936.3
99933.1
99929.9
99926.5
99923
99919.4
99915.7
99911.9
99908
99903.9
99899.8
99895.5
99891
99886.5
99881.7
99876.9
99871.9
99866.7
99861.4
99855.9
99850.2
99844.4
99838.3
99832.1
99825.6
99819
99812.1
99805
99797.7
99790.2
99782.4
99774.3
99766
99757.4
99748.4
99739.2
99729.6
99719.6
99709.3
99698.6
99687.4
99675.7
99663.5
99650.8
99637.4
99623.4
99608.6
99593
99576.6
99559.1
99540.6
99520.9
99500
99477.7
99453.8
99428.4
99401.2
99372.2
99341.4
99309.2
99276.3
99244.5
99214.9
99188.7
99164.2
99130.7
99074.7
98966.2
98653
98060.4
99997.9
99995.2
99993.4
99991.8
99990.4
99989.1
99987.7
99986.4
99985
99983.6
99982.1
99980.5
99978.9
99977.2
99975.4
99973.6
99971.7
99969.8
99967.7
99965.6
99963.4
99961.1
99958.8
99956.4
99953.8
99951.2
99948.5
99945.7
99942.9
99939.9
99936.8
99933.7
99930.4
99927
99923.6
99920
99916.3
99912.5
99908.6
99904.5
99900.3
99896.1
99891.6
99887.1
99882.4
99877.5
99872.5
99867.3
99862
99856.5
99850.9
99845
99839
99832.8
99826.3
99819.7
99812.8
99805.7
99798.4
99790.9
99783.1
99775
99766.6
99757.9
99749
99739.7
99730.1
99720.2
99709.9
99699.1
99687.9
99676.2
99664.1
99651.3
99637.9
99623.8
99609
99593.4
99576.9
99559.4
99540.9
99521.2
99500.2
99477.8
99454
99428.5
99401.2
99372
99341
99308.6
99275.7
99244
99214.3
99187.2
99152.6
99114.4
99054.2
98934.1
98552.4
96886.7
100563
101839
102381
102691
102903
103062
103186
103287
103369
103436
103491
103536
103573
103602
103624
103641
103652
103658
103659
103655
100517
101543
102177
102577
102844
103036
103180
103293
103383
103455
103513
103560
103597
103625
103647
103662
103671
103674
103673
103666
100805
101575
102120
102517
102803
103014
103173
103295
103392
103468
103529
103576
103613
103641
103661
103675
103683
103685
103683
103672
101081
101708
102169
102530
102807
103019
103183
103310
103410
103488
103549
103597
103633
103659
103677
103689
103695
103695
103692
103676
101318
101849
102253
102579
102839
103044
103206
103333
103433
103512
103572
103618
103653
103677
103693
103702
103706
103705
103700
103679
101517
101981
102343
102642
102884
103080
103237
103362
103461
103538
103597
103641
103673
103695
103709
103715
103717
103714
103706
103681
101678
102094
102426
102704
102933
103120
103271
103393
103489
103564
103621
103664
103693
103712
103723
103727
103726
103722
103711
103683
101800
102182
102494
102757
102976
103156
103303
103421
103515
103589
103644
103685
103712
103729
103736
103737
103734
103728
103714
103684
101881
102242
102542
102796
103009
103185
103330
103446
103539
103611
103665
103704
103729
103743
103748
103747
103741
103733
103716
103687
101925
102277
102572
102821
103031
103205
103348
103464
103556
103627
103680
103717
103741
103753
103756
103754
103747
103737
103717
103692
101922
102274
102569
102818
103028
103203
103346
103462
103554
103625
103678
103716
103740
103752
103755
103753
103746
103736
103718
103691
101870
102232
102533
102787
103001
103177
103322
103439
103533
103605
103660
103699
103725
103740
103745
103745
103740
103731
103715
103690
101781
102165
102478
102742
102963
103144
103292
103411
103507
103581
103638
103679
103707
103725
103733
103735
103732
103726
103712
103689
101652
102070
102404
102684
102915
103104
103257
103380
103478
103554
103613
103657
103688
103708
103719
103724
103724
103719
103709
103686
101484
101951
102315
102617
102862
103061
103220
103347
103448
103526
103587
103633
103667
103690
103704
103712
103714
103711
103704
103682
101279
101814
102221
102550
102813
103022
103186
103316
103419
103499
103562
103610
103646
103671
103689
103699
103703
103702
103698
103680
101037
101668
102133
102498
102779
102995
103162
103292
103394
103475
103538
103587
103625
103653
103672
103685
103691
103693
103690
103676
100755
101530
102080
102483
102775
102989
103151
103277
103376
103454
103517
103566
103605
103634
103656
103671
103679
103682
103681
103671
100462
101496
102138
102543
102815
103011
103159
103275
103367
103441
103501
103550
103588
103618
103641
103657
103667
103671
103671
103665
100506
101794
102344
102659
102875
103037
103164
103268
103352
103421
103478
103525
103563
103594
103618
103635
103647
103654
103656
103653
103498
103496
103495
103494
103494
103493
103492
103492
103492
103492
103492
103492
103492
103492
103493
103494
103494
103495
103496
103498
103495
103493
103492
103492
103492
103491
103491
103491
103491
103491
103491
103491
103491
103491
103491
103492
103492
103492
103493
103495
103494
103492
103492
103492
103492
103492
103492
103492
103492
103492
103492
103492
103492
103492
103492
103492
103492
103492
103492
103494
103494
103492
103492
103492
103492
103492
103492
103492
103492
103492
103492
103492
103492
103492
103492
103492
103492
103492
103492
103494
103494
103492
103492
103492
103492
103492
103492
103491
103491
103491
103491
103491
103491
103492
103492
103492
103492
103492
103492
103494
103493
103491
103491
103491
103491
103491
103491
103491
103491
103491
103491
103491
103491
103491
103491
103491
103491
103491
103491
103493
103492
103491
103491
103491
103490
103490
103490
103490
103490
103490
103490
103490
103490
103490
103490
103490
103491
103491
103491
103492
103492
103490
103490
103490
103490
103490
103490
103490
103490
103490
103490
103490
103490
103490
103490
103490
103490
103490
103490
103492
103491
103490
103489
103489
103489
103489
103489
103489
103489
103489
103489
103489
103489
103489
103489
103489
103489
103489
103490
103491
103491
103489
103489
103489
103489
103488
103488
103488
103488
103488
103488
103488
103488
103488
103488
103489
103489
103489
103489
103491
103490
103488
103488
103488
103488
103488
103488
103488
103488
103488
103488
103488
103488
103488
103488
103488
103488
103488
103488
103490
103489
103487
103487
103487
103487
103487
103487
103487
103487
103487
103487
103487
103487
103487
103487
103487
103487
103487
103487
103489
103488
103487
103487
103486
103486
103486
103486
103486
103486
103486
103486
103486
103486
103486
103486
103486
103486
103487
103487
103488
103488
103486
103486
103486
103486
103486
103486
103486
103486
103485
103485
103486
103486
103486
103486
103486
103486
103486
103486
103488
103487
103485
103485
103485
103485
103485
103485
103485
103485
103485
103485
103485
103485
103485
103485
103485
103485
103485
103485
103487
103486
103484
103484
103484
103484
103484
103484
103484
103484
103484
103484
103484
103484
103484
103484
103484
103484
103484
103484
103486
103485
103484
103484
103483
103483
103483
103483
103483
103483
103483
103483
103483
103483
103483
103483
103483
103483
103484
103484
103485
103484
103483
103483
103483
103483
103483
103483
103482
103482
103482
103482
103482
103482
103483
103483
103483
103483
103483
103483
103484
103484
103482
103482
103482
103482
103482
103482
103482
103482
103482
103482
103482
103482
103482
103482
103482
103482
103482
103482
103484
103483
103481
103481
103481
103481
103481
103481
103481
103481
103481
103481
103481
103481
103481
103481
103481
103481
103481
103481
103483
103482
103481
103480
103480
103480
103480
103480
103480
103480
103480
103480
103480
103480
103480
103480
103480
103480
103480
103481
103482
103481
103480
103480
103480
103479
103479
103479
103479
103479
103479
103479
103479
103479
103479
103479
103479
103480
103480
103480
103481
103480
103479
103479
103479
103479
103479
103479
103479
103479
103479
103479
103479
103479
103479
103479
103479
103479
103479
103479
103480
103479
103478
103478
103478
103478
103478
103478
103478
103478
103478
103478
103478
103478
103478
103478
103478
103478
103478
103478
103479
103479
103477
103477
103477
103477
103477
103477
103477
103477
103477
103477
103477
103477
103477
103477
103477
103477
103477
103477
103479
103478
103477
103476
103476
103476
103476
103476
103476
103476
103476
103476
103476
103476
103476
103476
103476
103476
103476
103477
103478
103477
103476
103476
103476
103475
103475
103475
103475
103475
103475
103475
103475
103475
103475
103475
103475
103476
103476
103476
103477
103476
103475
103475
103475
103475
103475
103475
103475
103475
103475
103475
103475
103475
103475
103475
103475
103475
103475
103475
103476
103475
103474
103474
103474
103474
103474
103474
103474
103474
103474
103474
103474
103474
103474
103474
103474
103474
103474
103474
103475
103474
103473
103473
103473
103473
103473
103473
103473
103473
103473
103473
103473
103473
103473
103473
103473
103473
103473
103473
103474
103473
103473
103472
103472
103472
103472
103472
103472
103472
103472
103472
103472
103472
103472
103472
103472
103472
103472
103473
103473
103473
103472
103472
103472
103471
103471
103471
103471
103471
103471
103471
103471
103471
103471
103471
103471
103472
103472
103472
103473
103472
103471
103471
103471
103471
103471
103471
103471
103471
103471
103471
103471
103471
103471
103471
103471
103471
103471
103471
103472
103471
103470
103470
103470
103470
103470
103470
103470
103470
103470
103470
103470
103470
103470
103470
103470
103470
103470
103470
103471
103470
103469
103469
103469
103469
103469
103469
103469
103469
103469
103469
103469
103469
103469
103469
103469
103469
103469
103469
103470
103469
103469
103468
103468
103468
103468
103468
103468
103468
103468
103468
103468
103468
103468
103468
103468
103468
103468
103469
103469
103468
103468
103468
103468
103468
103467
103467
103467
103467
103467
103467
103467
103467
103467
103467
103468
103468
103468
103468
103468
103468
103467
103467
103467
103467
103467
103467
103467
103467
103467
103467
103467
103467
103467
103467
103467
103467
103467
103467
103468
103467
103466
103466
103466
103466
103466
103466
103466
103466
103466
103466
103466
103466
103466
103466
103466
103466
103466
103466
103467
103466
103465
103465
103465
103465
103465
103465
103465
103465
103465
103465
103465
103465
103465
103465
103465
103465
103465
103465
103466
103465
103465
103465
103464
103464
103464
103464
103464
103464
103464
103464
103464
103464
103464
103464
103464
103464
103465
103465
103465
103464
103464
103464
103464
103464
103464
103464
103464
103464
103464
103464
103464
103464
103464
103464
103464
103464
103464
103464
103464
103464
103463
103463
103463
103463
103463
103463
103463
103463
103463
103463
103463
103463
103463
103463
103463
103463
103463
103463
103464
103463
103462
103462
103462
103462
103462
103462
103462
103462
103462
103462
103462
103462
103462
103462
103462
103462
103462
103462
103463
103462
103462
103462
103461
103461
103461
103461
103461
103461
103461
103461
103461
103461
103461
103461
103461
103461
103462
103462
103462
103461
103461
103461
103461
103461
103461
103461
103461
103461
103461
103461
103461
103461
103461
103461
103461
103461
103461
103461
103461
103460
103460
103460
103460
103460
103460
103460
103460
103460
103460
103460
103460
103460
103460
103460
103460
103460
103460
103460
103460
103460
103459
103459
103459
103459
103459
103459
103459
103459
103459
103459
103459
103459
103459
103459
103459
103459
103459
103459
103460
103459
103459
103459
103459
103459
103458
103458
103458
103458
103458
103458
103458
103458
103458
103458
103459
103459
103459
103459
103459
103458
103458
103458
103458
103458
103458
103458
103458
103458
103458
103458
103458
103458
103458
103458
103458
103458
103458
103458
103458
103458
103457
103457
103457
103457
103457
103457
103457
103457
103457
103457
103457
103457
103457
103457
103457
103457
103457
103457
103458
103457
103457
103456
103456
103456
103456
103456
103456
103456
103456
103456
103456
103456
103456
103456
103456
103456
103456
103457
103457
103456
103456
103456
103456
103456
103456
103456
103456
103456
103456
103456
103456
103456
103456
103456
103456
103456
103456
103456
103456
103455
103455
103455
103455
103455
103455
103455
103455
103455
103455
103455
103455
103455
103455
103455
103455
103455
103455
103455
103455
103455
103454
103454
103454
103454
103454
103454
103454
103454
103454
103454
103454
103454
103454
103454
103454
103454
103454
103454
103455
103454
103454
103454
103454
103454
103454
103454
103454
103453
103453
103453
103454
103454
103454
103454
103454
103454
103454
103454
103454
103453
103453
103453
103453
103453
103453
103453
103453
103453
103453
103453
103453
103453
103453
103453
103453
103453
103453
103453
103453
103453
103452
103452
103452
103452
103452
103452
103452
103452
103452
103452
103452
103452
103452
103452
103452
103452
103452
103452
103453
103452
103452
103452
103452
103452
103452
103451
103451
103451
103451
103451
103451
103451
103451
103452
103452
103452
103452
103452
103452
103451
103451
103451
103451
103451
103451
103451
103451
103451
103451
103451
103451
103451
103451
103451
103451
103451
103451
103451
103451
103450
103450
103450
103450
103450
103450
103450
103450
103450
103450
103450
103450
103450
103450
103450
103450
103450
103450
103450
103450
103450
103450
103450
103450
103450
103449
103449
103449
103449
103449
103449
103449
103449
103449
103450
103450
103450
103450
103450
103450
103449
103449
103449
103449
103449
103449
103449
103449
103449
103449
103449
103449
103449
103449
103449
103449
103449
103449
103449
103449
103448
103448
103448
103448
103448
103448
103448
103448
103448
103448
103448
103448
103448
103448
103448
103448
103448
103448
103448
103448
103448
103448
103448
103448
103448
103448
103447
103447
103447
103447
103447
103447
103447
103448
103448
103448
103448
103448
103448
103448
103447
103447
103447
103447
103447
103447
103447
103447
103447
103447
103447
103447
103447
103447
103447
103447
103447
103447
103447
103447
103446
103446
103446
103446
103446
103446
103446
103446
103446
103446
103446
103446
103446
103446
103446
103446
103446
103446
103446
103446
103446
103446
103446
103446
103446
103446
103446
103446
103446
103446
103446
103446
103446
103446
103446
103446
103446
103446
103446
103446
103445
103445
103445
103445
103445
103445
103445
103445
103445
103445
103445
103445
103445
103445
103445
103445
103445
103445
103445
103445
103444
103444
103444
103444
103444
103444
103444
103444
103444
103444
103444
103444
103444
103444
103444
103444
103444
103445
103445
103445
103444
103444
103444
103444
103444
103444
103444
103444
103444
103444
103444
103444
103444
103444
103444
103444
103444
103444
103444
103444
103443
103443
103443
103443
103443
103443
103443
103443
103443
103443
103443
103443
103443
103443
103443
103443
103443
103443
103443
103443
103442
103442
103442
103442
103442
103442
103442
103442
103442
103442
103442
103442
103442
103443
103443
103443
103443
103443
103443
103443
103442
103442
103442
103442
103442
103442
103442
103442
103442
103442
103442
103442
103442
103442
103442
103442
103442
103442
103442
103442
103441
103441
103441
103441
103441
103441
103441
103441
103441
103441
103441
103441
103441
103441
103442
103442
103442
103442
103442
103442
103440
103440
103440
103440
103440
103440
103440
103440
103440
103440
103441
103441
103441
103441
103441
103441
103441
103441
103441
103441
103439
103439
103439
103439
103439
103439
103439
103440
103440
103440
103440
103440
103440
103440