/*--------------------------------*- C++ -*----------------------------------*\
| =========                 |                                                 |
| \\      /  F ield         | OpenFOAM: The Open Source CFD Toolbox           |
|  \\    /   O peration     | Version:  2.1.0                                 |
|   \\  /    A nd           | Web:      www.OpenFOAM.org                      |
|    \\/     M anipulation  |                                                 |
\*---------------------------------------------------------------------------*/
FoamFile
{
    version     2.0;
    format      ascii;
    class       surfaceScalarField;
    location    "0.4";
    object      phi;
}
// * * * * * * * * * * * * * * * * * * * * * * * * * * * * * * * * * * * * * //

dimensions      [0 3 -1 0 0 0 0];

internalField   nonuniform List<scalar> 
12460
(
-2.60221e-05
-4.27852e-09
-2.59862e-05
-4.09887e-08
-2.59273e-05
-6.37627e-08
-2.58567e-05
-7.53585e-08
-2.57791e-05
-8.22454e-08
-2.56966e-05
-8.68771e-08
-2.56107e-05
-9.02156e-08
-2.55221e-05
-9.28349e-08
-2.54311e-05
-9.50409e-08
-2.5338e-05
-9.70235e-08
-2.52429e-05
-9.88891e-08
-2.51459e-05
-1.00701e-07
-2.50469e-05
-1.02497e-07
-2.49461e-05
-1.04295e-07
-2.48433e-05
-1.06113e-07
-2.47385e-05
-1.07953e-07
-2.46318e-05
-1.09826e-07
-2.4523e-05
-1.11727e-07
-2.44122e-05
-1.13666e-07
-2.42994e-05
-1.15631e-07
-2.41844e-05
-1.17627e-07
-2.40673e-05
-1.19652e-07
-2.39481e-05
-1.2173e-07
-2.38266e-05
-1.23827e-07
-2.3703e-05
-1.25951e-07
-2.3577e-05
-1.28165e-07
-2.34486e-05
-1.30501e-07
-2.33177e-05
-1.32912e-07
-2.31843e-05
-1.35398e-07
-2.30482e-05
-1.37958e-07
-2.29094e-05
-1.40602e-07
-2.27677e-05
-1.43333e-07
-2.26232e-05
-1.46163e-07
-2.24757e-05
-1.49094e-07
-2.2325e-05
-1.52138e-07
-2.21711e-05
-1.55294e-07
-2.20139e-05
-1.58572e-07
-2.18532e-05
-1.61975e-07
-2.1689e-05
-1.65516e-07
-2.15209e-05
-1.69209e-07
-2.1349e-05
-1.73069e-07
-2.11729e-05
-1.77097e-07
-2.09926e-05
-1.81301e-07
-2.08079e-05
-1.85689e-07
-2.06185e-05
-1.90264e-07
-2.04244e-05
-1.95029e-07
-2.02252e-05
-1.99984e-07
-2.00208e-05
-2.05122e-07
-1.98111e-05
-2.1043e-07
-1.95958e-05
-2.15935e-07
-1.9375e-05
-2.21511e-07
-1.91484e-05
-2.2716e-07
-1.89158e-05
-2.33204e-07
-1.86766e-05
-2.39672e-07
-1.84307e-05
-2.46411e-07
-1.8178e-05
-2.53185e-07
-1.79187e-05
-2.59746e-07
-1.76529e-05
-2.66121e-07
-1.73808e-05
-2.72482e-07
-1.71022e-05
-2.78953e-07
-1.6817e-05
-2.85587e-07
-1.65249e-05
-2.92374e-07
-1.62258e-05
-2.99375e-07
-1.59194e-05
-3.06644e-07
-1.56055e-05
-3.14192e-07
-1.52836e-05
-3.22066e-07
-1.49535e-05
-3.30294e-07
-1.46148e-05
-3.38937e-07
-1.42669e-05
-3.48029e-07
-1.39094e-05
-3.57603e-07
-1.35419e-05
-3.67689e-07
-1.31636e-05
-3.7834e-07
-1.27741e-05
-3.89594e-07
-1.23727e-05
-4.01519e-07
-1.19586e-05
-4.14191e-07
-1.15309e-05
-4.2771e-07
-1.10888e-05
-4.42207e-07
-1.0631e-05
-4.57841e-07
-1.01561e-05
-4.74839e-07
-9.66261e-06
-4.9354e-07
-9.14825e-06
-5.14358e-07
-8.61043e-06
-5.37809e-07
-8.04585e-06
-5.64556e-07
-7.45049e-06
-5.95322e-07
-6.81979e-06
-6.30652e-07
-6.14898e-06
-6.70737e-07
-5.43369e-06
-7.15202e-07
-4.67115e-06
-7.62429e-07
-3.86262e-06
-8.08382e-07
-3.01812e-06
-8.44307e-07
-2.16548e-06
-8.5239e-07
-1.36768e-06
-7.97497e-07
-7.28426e-07
-6.38929e-07
-3.51263e-07
-3.76955e-07
-2.76891e-07
-7.4743e-08
-5.30879e-07
2.52976e-07
-1.42414e-06
8.92305e-07
-3.71769e-06
2.29344e-06
-9.28873e-06
5.57103e-06
1.54965e-05
-2.47852e-05
-3.13549e-05
-2.40116e-08
-3.1307e-05
-9.41589e-08
-3.12442e-05
-1.31857e-07
-3.11723e-05
-1.52447e-07
-3.10944e-05
-1.65084e-07
-3.10125e-05
-1.73621e-07
-3.09277e-05
-1.79784e-07
-3.08405e-05
-1.8461e-07
-3.07513e-05
-1.88674e-07
-3.06603e-05
-1.92321e-07
-3.05676e-05
-1.95756e-07
-3.04733e-05
-1.99088e-07
-3.03774e-05
-2.024e-07
-3.02798e-05
-2.05717e-07
-3.01805e-05
-2.09082e-07
-3.00795e-05
-2.12493e-07
-2.99769e-05
-2.15978e-07
-2.98724e-05
-2.19522e-07
-2.97662e-05
-2.23146e-07
-2.96581e-05
-2.26825e-07
-2.95482e-05
-2.3057e-07
-2.94365e-05
-2.34364e-07
-2.93228e-05
-2.38248e-07
-2.92072e-05
-2.42154e-07
-2.90897e-05
-2.46043e-07
-2.89704e-05
-2.50048e-07
-2.88491e-05
-2.54246e-07
-2.87258e-05
-2.58538e-07
-2.86006e-05
-2.62935e-07
-2.84733e-05
-2.67442e-07
-2.83439e-05
-2.72078e-07
-2.82124e-05
-2.76848e-07
-2.80787e-05
-2.81768e-07
-2.79428e-05
-2.86846e-07
-2.78047e-05
-2.92096e-07
-2.76641e-05
-2.97522e-07
-2.75212e-05
-3.0314e-07
-2.73758e-05
-3.08963e-07
-2.72278e-05
-3.14999e-07
-2.70772e-05
-3.21253e-07
-2.69239e-05
-3.27762e-07
-2.67677e-05
-3.34533e-07
-2.66087e-05
-3.41577e-07
-2.64467e-05
-3.48917e-07
-2.62815e-05
-3.56562e-07
-2.61131e-05
-3.64526e-07
-2.59413e-05
-3.72824e-07
-2.57659e-05
-3.81462e-07
-2.55869e-05
-3.90436e-07
-2.54039e-05
-3.99787e-07
-2.52168e-05
-4.09406e-07
-2.50257e-05
-4.1907e-07
-2.48309e-05
-4.28779e-07
-2.46328e-05
-4.38563e-07
-2.44314e-05
-4.48439e-07
-2.42269e-05
-4.58417e-07
-2.40189e-05
-4.68393e-07
-2.38073e-05
-4.78314e-07
-2.35921e-05
-4.88262e-07
-2.33733e-05
-4.98359e-07
-2.31507e-05
-5.08669e-07
-2.29244e-05
-5.192e-07
-2.26943e-05
-5.29997e-07
-2.24603e-05
-5.411e-07
-2.22224e-05
-5.52545e-07
-2.19806e-05
-5.64385e-07
-2.17346e-05
-5.76671e-07
-2.14845e-05
-5.89475e-07
-2.12301e-05
-6.02869e-07
-2.09712e-05
-6.16933e-07
-2.07075e-05
-6.31744e-07
-2.04388e-05
-6.47411e-07
-2.01648e-05
-6.64034e-07
-1.98849e-05
-6.81763e-07
-1.95987e-05
-7.00767e-07
-1.93056e-05
-7.21253e-07
-1.90047e-05
-7.43482e-07
-1.86952e-05
-7.67751e-07
-1.8376e-05
-7.9444e-07
-1.80458e-05
-8.24088e-07
-1.77033e-05
-8.5732e-07
-1.73466e-05
-8.94839e-07
-1.69741e-05
-9.37489e-07
-1.65837e-05
-9.86179e-07
-1.61732e-05
-1.0416e-06
-1.57406e-05
-1.10393e-06
-1.5284e-05
-1.17228e-06
-1.48032e-05
-1.24382e-06
-1.43002e-05
-1.31211e-06
-1.3781e-05
-1.3643e-06
-1.32581e-05
-1.37635e-06
-1.27498e-05
-1.3071e-06
-1.22918e-05
-1.09864e-06
-1.19644e-05
-7.06503e-07
-1.20314e-05
-9.90939e-09
-1.25707e-05
7.90787e-07
-1.39454e-05
2.2661e-06
-1.66753e-05
5.0233e-06
-2.18005e-05
1.06962e-05
2.65661e-05
-3.287e-05
-3.43427e-05
-5.1347e-08
-3.43017e-05
-1.4066e-07
-3.42487e-05
-1.90271e-07
-3.41882e-05
-2.18363e-07
-3.41227e-05
-2.35764e-07
-3.40539e-05
-2.47487e-07
-3.39828e-05
-2.55857e-07
-3.39099e-05
-2.62376e-07
-3.38355e-05
-2.67788e-07
-3.37597e-05
-2.72628e-07
-3.36828e-05
-2.77135e-07
-3.36048e-05
-2.81506e-07
-3.35256e-05
-2.85822e-07
-3.34453e-05
-2.90156e-07
-3.33638e-05
-2.94539e-07
-3.32812e-05
-2.99e-07
-3.31974e-05
-3.03556e-07
-3.31124e-05
-3.08218e-07
-3.30261e-05
-3.12999e-07
-3.29385e-05
-3.17895e-07
-3.28495e-05
-3.2291e-07
-3.27591e-05
-3.28048e-07
-3.26671e-05
-3.33358e-07
-3.25735e-05
-3.38791e-07
-3.24783e-05
-3.44233e-07
-3.23816e-05
-3.49657e-07
-3.22835e-05
-3.55104e-07
-3.21841e-05
-3.60583e-07
-3.20835e-05
-3.66146e-07
-3.19816e-05
-3.71818e-07
-3.18785e-05
-3.77617e-07
-3.17741e-05
-3.83555e-07
-3.16685e-05
-3.89644e-07
-3.15616e-05
-3.95894e-07
-3.14535e-05
-4.02315e-07
-3.13441e-05
-4.08909e-07
-3.12335e-05
-4.15686e-07
-3.11217e-05
-4.22662e-07
-3.10086e-05
-4.29853e-07
-3.08943e-05
-4.37233e-07
-3.07789e-05
-4.44843e-07
-3.06623e-05
-4.5269e-07
-3.05446e-05
-4.60776e-07
-3.04258e-05
-4.6912e-07
-3.0306e-05
-4.77726e-07
-3.01853e-05
-4.86603e-07
-3.00636e-05
-4.95757e-07
-2.99411e-05
-5.05194e-07
-2.98178e-05
-5.14902e-07
-2.96939e-05
-5.24842e-07
-2.95694e-05
-5.34966e-07
-2.94443e-05
-5.45178e-07
-2.93187e-05
-5.55309e-07
-2.9193e-05
-5.65236e-07
-2.90673e-05
-5.75011e-07
-2.89418e-05
-5.84795e-07
-2.88163e-05
-5.94676e-07
-2.86908e-05
-6.04588e-07
-2.85654e-05
-6.14481e-07
-2.84401e-05
-6.24397e-07
-2.83151e-05
-6.3434e-07
-2.81907e-05
-6.44313e-07
-2.8067e-05
-6.54333e-07
-2.79444e-05
-6.644e-07
-2.7823e-05
-6.74537e-07
-2.77032e-05
-6.84765e-07
-2.75854e-05
-6.95114e-07
-2.74698e-05
-7.05613e-07
-2.7357e-05
-7.1631e-07
-2.72472e-05
-7.27277e-07
-2.71409e-05
-7.38589e-07
-2.70385e-05
-7.50358e-07
-2.69405e-05
-7.62683e-07
-2.6847e-05
-7.75745e-07
-2.67586e-05
-7.89761e-07
-2.66754e-05
-8.04995e-07
-2.65977e-05
-8.21809e-07
-2.65254e-05
-8.40612e-07
-2.64586e-05
-8.61891e-07
-2.63969e-05
-8.8636e-07
-2.634e-05
-9.14841e-07
-2.62873e-05
-9.48177e-07
-2.62381e-05
-9.87317e-07
-2.61917e-05
-1.03321e-06
-2.61474e-05
-1.08659e-06
-2.61044e-05
-1.1476e-06
-2.60624e-05
-1.21498e-06
-2.60219e-05
-1.28505e-06
-2.59848e-05
-1.34992e-06
-2.59553e-05
-1.39464e-06
-2.59394e-05
-1.393e-06
-2.59449e-05
-1.30226e-06
-2.59837e-05
-1.06045e-06
-2.61e-05
-5.90639e-07
-2.62837e-05
1.73546e-07
-2.67969e-05
1.30391e-06
-2.78252e-05
3.29428e-06
-2.97531e-05
6.95118e-06
-3.33033e-05
1.42464e-05
3.11934e-05
-3.79307e-05
-3.70408e-05
-7.83125e-08
-3.70119e-05
-1.75167e-07
-3.69758e-05
-2.32032e-07
-3.69342e-05
-2.65642e-07
-3.68887e-05
-2.8668e-07
-3.68409e-05
-3.00706e-07
-3.67915e-05
-3.10554e-07
-3.67409e-05
-3.18077e-07
-3.66896e-05
-3.24179e-07
-3.66376e-05
-3.29541e-07
-3.65851e-05
-3.3444e-07
-3.65322e-05
-3.39143e-07
-3.64789e-05
-3.43728e-07
-3.64253e-05
-3.48308e-07
-3.63713e-05
-3.52902e-07
-3.6317e-05
-3.57562e-07
-3.62625e-05
-3.62292e-07
-3.62077e-05
-3.67118e-07
-3.61526e-05
-3.72049e-07
-3.60973e-05
-3.7709e-07
-3.60418e-05
-3.82227e-07
-3.59861e-05
-3.87473e-07
-3.59302e-05
-3.92844e-07
-3.58742e-05
-3.98303e-07
-3.5818e-05
-4.03854e-07
-3.57616e-05
-4.09425e-07
-3.5705e-05
-4.14934e-07
-3.56484e-05
-4.20417e-07
-3.55917e-05
-4.25931e-07
-3.55349e-05
-4.31508e-07
-3.54783e-05
-4.37162e-07
-3.54218e-05
-4.42904e-07
-3.53654e-05
-4.48741e-07
-3.53093e-05
-4.54676e-07
-3.52534e-05
-4.60714e-07
-3.5198e-05
-4.6685e-07
-3.5143e-05
-4.73078e-07
-3.50886e-05
-4.79403e-07
-3.50348e-05
-4.85838e-07
-3.49819e-05
-4.92366e-07
-3.49298e-05
-4.98997e-07
-3.48788e-05
-5.05718e-07
-3.4829e-05
-5.12522e-07
-3.47806e-05
-5.19409e-07
-3.47337e-05
-5.26366e-07
-3.46887e-05
-5.33379e-07
-3.46457e-05
-5.40435e-07
-3.4605e-05
-5.47512e-07
-3.45668e-05
-5.54577e-07
-3.45316e-05
-5.61562e-07
-3.44996e-05
-5.68394e-07
-3.44709e-05
-5.75222e-07
-3.44454e-05
-5.82144e-07
-3.44229e-05
-5.88959e-07
-3.44035e-05
-5.9555e-07
-3.43875e-05
-6.01957e-07
-3.43751e-05
-6.08209e-07
-3.43664e-05
-6.14266e-07
-3.43618e-05
-6.20082e-07
-3.43615e-05
-6.25661e-07
-3.43658e-05
-6.3095e-07
-3.43751e-05
-6.35911e-07
-3.43896e-05
-6.40573e-07
-3.44099e-05
-6.44948e-07
-3.44361e-05
-6.49055e-07
-3.44687e-05
-6.52917e-07
-3.45079e-05
-6.56573e-07
-3.45541e-05
-6.60069e-07
-3.46076e-05
-6.63481e-07
-3.46686e-05
-6.66907e-07
-3.47373e-05
-6.70467e-07
-3.48139e-05
-6.74342e-07
-3.48984e-05
-6.78727e-07
-3.49907e-05
-6.83892e-07
-3.50908e-05
-6.90165e-07
-3.51983e-05
-6.97952e-07
-3.53128e-05
-7.07766e-07
-3.54336e-05
-7.20202e-07
-3.55601e-05
-7.35839e-07
-3.56912e-05
-7.55564e-07
-3.5826e-05
-7.80382e-07
-3.59633e-05
-8.11191e-07
-3.6102e-05
-8.4897e-07
-3.62408e-05
-8.9461e-07
-3.6379e-05
-9.48677e-07
-3.65158e-05
-1.01097e-06
-3.66512e-05
-1.07977e-06
-3.67858e-05
-1.15064e-06
-3.6921e-05
-1.21484e-06
-3.70591e-05
-1.25673e-06
-3.72019e-05
-1.25029e-06
-3.73488e-05
-1.15541e-06
-3.74994e-05
-9.09902e-07
-3.76515e-05
-4.38542e-07
-3.78116e-05
3.33649e-07
-3.81122e-05
1.60449e-06
-3.86728e-05
3.85488e-06
-3.96656e-05
7.94398e-06
-4.12746e-05
1.58554e-05
3.12567e-05
-4.13379e-05
-3.97604e-05
-9.8122e-08
-3.9749e-05
-1.92472e-07
-3.97362e-05
-2.50657e-07
-3.97214e-05
-2.86336e-07
-3.97049e-05
-3.08923e-07
-3.96876e-05
-3.23709e-07
-3.96699e-05
-3.33889e-07
-3.96521e-05
-3.41357e-07
-3.96344e-05
-3.47222e-07
-3.96171e-05
-3.52156e-07
-3.96002e-05
-3.56538e-07
-3.95839e-05
-3.60609e-07
-3.95682e-05
-3.645e-07
-3.95531e-05
-3.683e-07
-3.95388e-05
-3.72053e-07
-3.95254e-05
-3.75792e-07
-3.95128e-05
-3.79531e-07
-3.95013e-05
-3.83279e-07
-3.94908e-05
-3.8705e-07
-3.94814e-05
-3.90848e-07
-3.94734e-05
-3.94624e-07
-3.94667e-05
-3.98373e-07
-3.94616e-05
-4.02131e-07
-3.94582e-05
-4.05856e-07
-3.94564e-05
-4.09639e-07
-3.94562e-05
-4.1355e-07
-3.94575e-05
-4.17495e-07
-3.94603e-05
-4.21395e-07
-3.94647e-05
-4.25262e-07
-3.94707e-05
-4.2911e-07
-3.94785e-05
-4.3295e-07
-3.94881e-05
-4.36785e-07
-3.94996e-05
-4.4062e-07
-3.95131e-05
-4.4445e-07
-3.95288e-05
-4.48276e-07
-3.95468e-05
-4.52085e-07
-3.95671e-05
-4.55873e-07
-3.95899e-05
-4.59639e-07
-3.96153e-05
-4.63373e-07
-3.96435e-05
-4.67074e-07
-3.96745e-05
-4.70752e-07
-3.97086e-05
-4.74375e-07
-3.97459e-05
-4.77942e-07
-3.97864e-05
-4.81451e-07
-3.98304e-05
-4.84894e-07
-3.98779e-05
-4.88257e-07
-3.99292e-05
-4.91531e-07
-3.99843e-05
-4.94706e-07
-4.00433e-05
-4.97757e-07
-4.01063e-05
-5.00655e-07
-4.01734e-05
-5.03381e-07
-4.02446e-05
-5.06004e-07
-4.032e-05
-5.08573e-07
-4.03998e-05
-5.10971e-07
-4.0484e-05
-5.13113e-07
-4.05726e-05
-5.1499e-07
-4.06658e-05
-5.16609e-07
-4.07636e-05
-5.17971e-07
-4.0866e-05
-5.19082e-07
-4.09731e-05
-5.1996e-07
-4.10847e-05
-5.20557e-07
-4.1201e-05
-5.20849e-07
-4.13218e-05
-5.20867e-07
-4.14472e-05
-5.20662e-07
-4.15769e-05
-5.2029e-07
-4.1711e-05
-5.19792e-07
-4.18491e-05
-5.19237e-07
-4.19913e-05
-5.18697e-07
-4.21372e-05
-5.18262e-07
-4.22868e-05
-5.18052e-07
-4.24396e-05
-5.18206e-07
-4.25956e-05
-5.18907e-07
-4.27545e-05
-5.20371e-07
-4.29159e-05
-5.22872e-07
-4.30798e-05
-5.26744e-07
-4.32457e-05
-5.32392e-07
-4.34135e-05
-5.40315e-07
-4.35827e-05
-5.51207e-07
-4.37533e-05
-5.65506e-07
-4.3925e-05
-5.84121e-07
-4.40973e-05
-6.0819e-07
-4.42702e-05
-6.38496e-07
-4.44433e-05
-6.75971e-07
-4.46166e-05
-7.21414e-07
-4.47901e-05
-7.75247e-07
-4.4964e-05
-8.37145e-07
-4.51386e-05
-9.05249e-07
-4.53143e-05
-9.74995e-07
-4.54915e-05
-1.0377e-06
-4.56697e-05
-1.0785e-06
-4.58465e-05
-1.07352e-06
-4.60148e-05
-9.87079e-07
-4.61599e-05
-7.64905e-07
-4.62616e-05
-3.3679e-07
-4.63238e-05
3.95839e-07
-4.63849e-05
1.66557e-06
-4.64609e-05
3.93085e-06
-4.65515e-05
8.03461e-06
-4.63326e-05
1.56365e-05
2.84303e-05
-4.35062e-05
-4.26355e-05
-1.04217e-07
-4.26461e-05
-1.87835e-07
-4.2662e-05
-2.40721e-07
-4.26804e-05
-2.73877e-07
-4.27003e-05
-2.94884e-07
-4.27216e-05
-3.08294e-07
-4.2744e-05
-3.17186e-07
-4.27678e-05
-3.23297e-07
-4.27929e-05
-3.27775e-07
-4.28193e-05
-3.31234e-07
-4.28473e-05
-3.3409e-07
-4.28767e-05
-3.3655e-07
-4.29078e-05
-3.38773e-07
-4.29405e-05
-3.40824e-07
-4.2975e-05
-3.42766e-07
-4.30114e-05
-3.44613e-07
-4.30496e-05
-3.46392e-07
-4.30898e-05
-3.48097e-07
-4.31321e-05
-3.49742e-07
-4.31765e-05
-3.51371e-07
-4.32231e-05
-3.52884e-07
-4.3272e-05
-3.54255e-07
-4.33233e-05
-3.55606e-07
-4.33769e-05
-3.56921e-07
-4.3433e-05
-3.5825e-07
-4.34915e-05
-3.59621e-07
-4.35525e-05
-3.60975e-07
-4.36161e-05
-3.62261e-07
-4.36824e-05
-3.63475e-07
-4.37512e-05
-3.64624e-07
-4.38228e-05
-3.65719e-07
-4.38971e-05
-3.66766e-07
-4.39742e-05
-3.67775e-07
-4.40541e-05
-3.68744e-07
-4.41368e-05
-3.6968e-07
-4.42224e-05
-3.70575e-07
-4.43109e-05
-3.71435e-07
-4.44023e-05
-3.72265e-07
-4.44966e-05
-3.73058e-07
-4.45937e-05
-3.73807e-07
-4.46938e-05
-3.74541e-07
-4.47967e-05
-3.7525e-07
-4.49025e-05
-3.7593e-07
-4.50111e-05
-3.76591e-07
-4.51224e-05
-3.77234e-07
-4.52363e-05
-3.77852e-07
-4.5353e-05
-3.78445e-07
-4.54721e-05
-3.79011e-07
-4.55937e-05
-3.7954e-07
-4.57177e-05
-3.80008e-07
-4.58439e-05
-3.80419e-07
-4.59723e-05
-3.80807e-07
-4.61028e-05
-3.81197e-07
-4.62353e-05
-3.81521e-07
-4.63697e-05
-3.8173e-07
-4.65058e-05
-3.81805e-07
-4.66434e-05
-3.8173e-07
-4.67826e-05
-3.81507e-07
-4.69231e-05
-3.81173e-07
-4.70649e-05
-3.80756e-07
-4.72077e-05
-3.80172e-07
-4.73515e-05
-3.79363e-07
-4.74963e-05
-3.7835e-07
-4.76419e-05
-3.77179e-07
-4.77884e-05
-3.75921e-07
-4.79355e-05
-3.74579e-07
-4.80834e-05
-3.73227e-07
-4.82319e-05
-3.71921e-07
-4.83811e-05
-3.70734e-07
-4.8531e-05
-3.69773e-07
-4.86815e-05
-3.69168e-07
-4.88327e-05
-3.69081e-07
-4.89846e-05
-3.69711e-07
-4.91373e-05
-3.71333e-07
-4.92909e-05
-3.74276e-07
-4.94454e-05
-3.7894e-07
-4.96008e-05
-3.85814e-07
-4.97573e-05
-3.95586e-07
-4.99148e-05
-4.08749e-07
-5.00737e-05
-4.25957e-07
-5.02343e-05
-4.4821e-07
-5.03969e-05
-4.76475e-07
-5.05617e-05
-5.11695e-07
-5.0729e-05
-5.54612e-07
-5.0899e-05
-6.05586e-07
-5.10722e-05
-6.64298e-07
-5.12488e-05
-7.29023e-07
-5.14286e-05
-7.95456e-07
-5.16109e-05
-8.55578e-07
-5.17934e-05
-8.96212e-07
-5.19702e-05
-8.96795e-07
-5.21301e-05
-8.27354e-07
-5.22489e-05
-6.46174e-07
-5.22983e-05
-2.87442e-07
-5.22605e-05
3.58079e-07
-5.21064e-05
1.51138e-06
-5.1755e-05
3.57945e-06
-5.10361e-05
7.3157e-06
-4.93335e-05
1.39338e-05
2.38383e-05
-4.47415e-05
-4.55934e-05
-9.49e-08
-4.56274e-05
-1.59589e-07
-4.56721e-05
-2.01722e-07
-4.57232e-05
-2.28588e-07
-4.57783e-05
-2.45409e-07
-4.58365e-05
-2.55731e-07
-4.58972e-05
-2.62134e-07
-4.59599e-05
-2.66054e-07
-4.60247e-05
-2.68503e-07
-4.60913e-05
-2.70016e-07
-4.61598e-05
-2.70959e-07
-4.62302e-05
-2.71522e-07
-4.63024e-05
-2.71851e-07
-4.63764e-05
-2.72007e-07
-4.64523e-05
-2.72057e-07
-4.65301e-05
-2.72013e-07
-4.66098e-05
-2.71908e-07
-4.66912e-05
-2.7174e-07
-4.67746e-05
-2.71525e-07
-4.68597e-05
-2.71305e-07
-4.69467e-05
-2.71013e-07
-4.70355e-05
-2.70534e-07
-4.71263e-05
-2.69907e-07
-4.72191e-05
-2.69165e-07
-4.73139e-05
-2.68399e-07
-4.74109e-05
-2.67641e-07
-4.751e-05
-2.66874e-07
-4.76111e-05
-2.66068e-07
-4.77143e-05
-2.65228e-07
-4.78195e-05
-2.64355e-07
-4.79267e-05
-2.63475e-07
-4.80358e-05
-2.62593e-07
-4.81467e-05
-2.6174e-07
-4.82595e-05
-2.60912e-07
-4.83739e-05
-2.60133e-07
-4.849e-05
-2.59391e-07
-4.86076e-05
-2.58712e-07
-4.87267e-05
-2.58083e-07
-4.88472e-05
-2.57533e-07
-4.89688e-05
-2.57052e-07
-4.90916e-05
-2.56658e-07
-4.92155e-05
-2.56348e-07
-4.93402e-05
-2.56125e-07
-4.94658e-05
-2.55991e-07
-4.95921e-05
-2.55951e-07
-4.97189e-05
-2.55994e-07
-4.98463e-05
-2.56111e-07
-4.9974e-05
-2.56297e-07
-5.0102e-05
-2.56556e-07
-5.02303e-05
-2.56838e-07
-5.03586e-05
-2.57157e-07
-5.0487e-05
-2.57514e-07
-5.06153e-05
-2.57917e-07
-5.07437e-05
-2.58304e-07
-5.08719e-05
-2.58623e-07
-5.09999e-05
-2.58849e-07
-5.11278e-05
-2.58943e-07
-5.12555e-05
-2.58884e-07
-5.1383e-05
-2.5872e-07
-5.15103e-05
-2.5851e-07
-5.16374e-05
-2.58114e-07
-5.17643e-05
-2.57396e-07
-5.18913e-05
-2.56383e-07
-5.20182e-05
-2.55121e-07
-5.21453e-05
-2.53675e-07
-5.22726e-05
-2.52048e-07
-5.24003e-05
-2.50283e-07
-5.25284e-05
-2.48427e-07
-5.26572e-05
-2.46543e-07
-5.27867e-05
-2.44722e-07
-5.29172e-05
-2.4308e-07
-5.30488e-05
-2.41766e-07
-5.31817e-05
-2.40976e-07
-5.33161e-05
-2.40964e-07
-5.34522e-05
-2.42052e-07
-5.35903e-05
-2.44631e-07
-5.37306e-05
-2.49172e-07
-5.38736e-05
-2.56175e-07
-5.40193e-05
-2.66399e-07
-5.41679e-05
-2.80665e-07
-5.43195e-05
-2.9968e-07
-5.44746e-05
-3.24312e-07
-5.46336e-05
-3.55467e-07
-5.4797e-05
-3.93842e-07
-5.49652e-05
-4.39767e-07
-5.51388e-05
-4.9304e-07
-5.53176e-05
-5.52368e-07
-5.5501e-05
-6.14032e-07
-5.56872e-05
-6.71086e-07
-5.58723e-05
-7.12716e-07
-5.6048e-05
-7.2257e-07
-5.61994e-05
-6.77151e-07
-5.62983e-05
-5.48184e-07
-5.6307e-05
-2.7946e-07
-5.61811e-05
2.3155e-07
-5.58422e-05
1.17199e-06
-5.5127e-05
2.8636e-06
-5.37261e-05
5.91397e-06
-5.09153e-05
1.11219e-05
1.82219e-05
-4.53002e-05
-4.82524e-05
-7.31629e-08
-4.83027e-05
-1.1447e-07
-4.8366e-05
-1.43445e-07
-4.84378e-05
-1.61902e-07
-4.85149e-05
-1.73225e-07
-4.85957e-05
-1.79853e-07
-4.8679e-05
-1.83575e-07
-4.87644e-05
-1.85458e-07
-4.88514e-05
-1.86214e-07
-4.89398e-05
-1.86254e-07
-4.90296e-05
-1.85849e-07
-4.91205e-05
-1.85148e-07
-4.92126e-05
-1.84261e-07
-4.93058e-05
-1.83241e-07
-4.94002e-05
-1.82142e-07
-4.94956e-05
-1.80978e-07
-4.95921e-05
-1.79777e-07
-4.96897e-05
-1.78535e-07
-4.97883e-05
-1.77272e-07
-4.9888e-05
-1.75932e-07
-4.99888e-05
-1.74562e-07
-5.00904e-05
-1.73195e-07
-5.01928e-05
-1.71787e-07
-5.0296e-05
-1.70326e-07
-5.03998e-05
-1.6889e-07
-5.05042e-05
-1.67495e-07
-5.06092e-05
-1.66159e-07
-5.07148e-05
-1.64853e-07
-5.08207e-05
-1.63596e-07
-5.0927e-05
-1.62369e-07
-5.10337e-05
-1.61221e-07
-5.11405e-05
-1.60126e-07
-5.12476e-05
-1.59143e-07
-5.13547e-05
-1.5824e-07
-5.14619e-05
-1.57465e-07
-5.15691e-05
-1.56777e-07
-5.16762e-05
-1.56219e-07
-5.17832e-05
-1.55751e-07
-5.18901e-05
-1.55415e-07
-5.19968e-05
-1.55196e-07
-5.21033e-05
-1.55093e-07
-5.22095e-05
-1.551e-07
-5.23155e-05
-1.55211e-07
-5.24213e-05
-1.55427e-07
-5.25268e-05
-1.55741e-07
-5.26321e-05
-1.56136e-07
-5.27371e-05
-1.56596e-07
-5.28419e-05
-1.57106e-07
-5.29466e-05
-1.57662e-07
-5.30511e-05
-1.58229e-07
-5.31555e-05
-1.58794e-07
-5.32598e-05
-1.59343e-07
-5.33641e-05
-1.5987e-07
-5.34686e-05
-1.60323e-07
-5.35731e-05
-1.6065e-07
-5.36779e-05
-1.60818e-07
-5.3783e-05
-1.60779e-07
-5.38884e-05
-1.60489e-07
-5.39944e-05
-1.60003e-07
-5.41008e-05
-1.59482e-07
-5.42077e-05
-1.58729e-07
-5.43153e-05
-1.5746e-07
-5.44238e-05
-1.55765e-07
-5.45333e-05
-1.53717e-07
-5.46438e-05
-1.5134e-07
-5.47556e-05
-1.48665e-07
-5.48686e-05
-1.45712e-07
-5.49832e-05
-1.42509e-07
-5.50995e-05
-1.39111e-07
-5.52176e-05
-1.35592e-07
-5.53377e-05
-1.32057e-07
-5.54601e-05
-1.28641e-07
-5.55848e-05
-1.25534e-07
-5.57123e-05
-1.22971e-07
-5.58426e-05
-1.2126e-07
-5.59761e-05
-1.20772e-07
-5.61131e-05
-1.21959e-07
-5.62538e-05
-1.25271e-07
-5.63985e-05
-1.31536e-07
-5.65475e-05
-1.41612e-07
-5.6701e-05
-1.56149e-07
-5.68594e-05
-1.75921e-07
-5.70232e-05
-2.01753e-07
-5.71928e-05
-2.34321e-07
-5.73687e-05
-2.73957e-07
-5.75512e-05
-3.20627e-07
-5.77399e-05
-3.73777e-07
-5.79333e-05
-4.306e-07
-5.81289e-05
-4.85339e-07
-5.83212e-05
-5.3012e-07
-5.85e-05
-5.53187e-07
-5.86475e-05
-5.38643e-07
-5.87362e-05
-4.67836e-07
-5.87175e-05
-3.05881e-07
-5.85209e-05
2.8373e-08
-5.80379e-05
6.82555e-07
-5.70386e-05
1.85705e-06
-5.51167e-05
3.98313e-06
-5.15365e-05
7.53009e-06
1.20461e-05
-4.5375e-05
-5.02498e-05
-3.95936e-08
-5.03068e-05
-6.10999e-08
-5.03774e-05
-7.65033e-08
-5.04565e-05
-8.62631e-08
-5.05409e-05
-9.21454e-08
-5.06285e-05
-9.5518e-08
-5.0718e-05
-9.72736e-08
-5.08086e-05
-9.802e-08
-5.08997e-05
-9.81262e-08
-5.09912e-05
-9.78075e-08
-5.10827e-05
-9.72332e-08
-5.11742e-05
-9.64748e-08
-5.12656e-05
-9.56043e-08
-5.13569e-05
-9.46554e-08
-5.14481e-05
-9.36618e-08
-5.1539e-05
-9.26333e-08
-5.16297e-05
-9.1587e-08
-5.17202e-05
-9.05226e-08
-5.18104e-05
-8.94495e-08
-5.19004e-05
-8.83091e-08
-5.19901e-05
-8.71752e-08
-5.20794e-05
-8.61602e-08
-5.21683e-05
-8.52353e-08
-5.22565e-05
-8.4352e-08
-5.23442e-05
-8.35253e-08
-5.24312e-05
-8.27558e-08
-5.25177e-05
-8.20525e-08
-5.26036e-05
-8.13937e-08
-5.26888e-05
-8.07873e-08
-5.27734e-05
-8.02159e-08
-5.28575e-05
-7.97109e-08
-5.2941e-05
-7.92565e-08
-5.30239e-05
-7.88902e-08
-5.31063e-05
-7.85904e-08
-5.31882e-05
-7.83858e-08
-5.32696e-05
-7.82474e-08
-5.33506e-05
-7.8198e-08
-5.34313e-05
-7.81989e-08
-5.35116e-05
-7.82895e-08
-5.35916e-05
-7.84418e-08
-5.36714e-05
-7.86678e-08
-5.37511e-05
-7.895e-08
-5.38307e-05
-7.92696e-08
-5.39102e-05
-7.96388e-08
-5.39897e-05
-8.00416e-08
-5.40694e-05
-8.046e-08
-5.41492e-05
-8.08819e-08
-5.42293e-05
-8.12937e-08
-5.43097e-05
-8.16545e-08
-5.43905e-05
-8.1966e-08
-5.44718e-05
-8.2212e-08
-5.45536e-05
-8.23697e-08
-5.46361e-05
-8.24126e-08
-5.47193e-05
-8.23023e-08
-5.48034e-05
-8.19901e-08
-5.48883e-05
-8.14382e-08
-5.49742e-05
-8.06067e-08
-5.50613e-05
-7.94145e-08
-5.51496e-05
-7.78775e-08
-5.52391e-05
-7.63707e-08
-5.53299e-05
-7.46823e-08
-5.54221e-05
-7.21984e-08
-5.55159e-05
-6.9155e-08
-5.56114e-05
-6.56737e-08
-5.57088e-05
-6.17663e-08
-5.58081e-05
-5.74563e-08
-5.59096e-05
-5.27508e-08
-5.60133e-05
-4.76673e-08
-5.61193e-05
-4.22467e-08
-5.6228e-05
-3.65524e-08
-5.63394e-05
-3.06762e-08
-5.64537e-05
-2.47377e-08
-5.65713e-05
-1.89124e-08
-5.66922e-05
-1.34185e-08
-5.68169e-05
-8.54066e-09
-5.69454e-05
-4.63317e-09
-5.70783e-05
-2.10599e-09
-5.72157e-05
-1.44569e-09
-5.7358e-05
-3.41897e-09
-5.75057e-05
-8.73005e-09
-5.76594e-05
-1.80548e-08
-5.78195e-05
-3.21679e-08
-5.79865e-05
-5.18554e-08
-5.8161e-05
-7.78158e-08
-5.83435e-05
-1.10437e-07
-5.85344e-05
-1.49759e-07
-5.87331e-05
-1.96318e-07
-5.89375e-05
-2.48693e-07
-5.91449e-05
-3.01896e-07
-5.9349e-05
-3.5166e-07
-5.95385e-05
-3.90899e-07
-5.96946e-05
-4.11533e-07
-5.97894e-05
-4.03728e-07
-5.97727e-05
-3.54893e-07
-5.95607e-05
-2.17447e-07
-5.89974e-05
8.50421e-08
-5.78314e-05
6.54873e-07
-5.55889e-05
1.69836e-06
-5.15445e-05
3.43394e-06
5.56984e-06
-4.51285e-05
-5.11745e-05
-3.47331e-10
-5.12312e-05
-5.81266e-09
-5.13008e-05
-8.2351e-09
-5.13787e-05
-9.68647e-09
-5.14613e-05
-1.07476e-08
-5.15464e-05
-1.15812e-08
-5.16326e-05
-1.22295e-08
-5.17189e-05
-1.27356e-08
-5.18049e-05
-1.31388e-08
-5.18903e-05
-1.34318e-08
-5.19748e-05
-1.36674e-08
-5.20584e-05
-1.38354e-08
-5.21409e-05
-1.39488e-08
-5.22224e-05
-1.40298e-08
-5.23028e-05
-1.40761e-08
-5.23822e-05
-1.40967e-08
-5.24605e-05
-1.40875e-08
-5.25378e-05
-1.40541e-08
-5.2614e-05
-1.39844e-08
-5.26893e-05
-1.38682e-08
-5.27635e-05
-1.3747e-08
-5.28368e-05
-1.3685e-08
-5.29092e-05
-1.3661e-08
-5.29807e-05
-1.36565e-08
-5.30514e-05
-1.3662e-08
-5.31213e-05
-1.36845e-08
-5.31905e-05
-1.37188e-08
-5.32591e-05
-1.37576e-08
-5.3327e-05
-1.37796e-08
-5.33944e-05
-1.37992e-08
-5.34613e-05
-1.38087e-08
-5.35277e-05
-1.38414e-08
-5.35937e-05
-1.38827e-08
-5.36594e-05
-1.3953e-08
-5.37248e-05
-1.40329e-08
-5.37901e-05
-1.41468e-08
-5.38551e-05
-1.42664e-08
-5.39201e-05
-1.44011e-08
-5.3985e-05
-1.45528e-08
-5.40499e-05
-1.47035e-08
-5.41149e-05
-1.48661e-08
-5.41801e-05
-1.50233e-08
-5.42455e-05
-1.51595e-08
-5.43112e-05
-1.52743e-08
-5.43772e-05
-1.53609e-08
-5.44436e-05
-1.53978e-08
-5.45104e-05
-1.5375e-08
-5.45778e-05
-1.52758e-08
-5.46459e-05
-1.50589e-08
-5.47145e-05
-1.4727e-08
-5.47839e-05
-1.42683e-08
-5.48542e-05
-1.36521e-08
-5.49253e-05
-1.28408e-08
-5.49973e-05
-1.18162e-08
-5.50704e-05
-1.05128e-08
-5.51446e-05
-8.89913e-09
-5.52199e-05
-6.93284e-09
-5.52965e-05
-4.54637e-09
-5.53746e-05
-1.5747e-09
-5.54541e-05
1.29962e-09
-5.55347e-05
4.04792e-09
-5.5617e-05
8.10017e-09
-5.5701e-05
1.28134e-08
-5.57869e-05
1.80238e-08
-5.58748e-05
2.37305e-08
-5.59647e-05
2.99421e-08
-5.60567e-05
3.66612e-08
-5.61511e-05
4.38826e-08
-5.6248e-05
5.15779e-08
-5.63475e-05
5.96944e-08
-5.64499e-05
6.81577e-08
-5.65553e-05
7.68653e-08
-5.6664e-05
8.56623e-08
-5.67762e-05
9.43488e-08
-5.68922e-05
1.02668e-07
-5.70123e-05
1.10296e-07
-5.71369e-05
1.16846e-07
-5.72662e-05
1.2183e-07
-5.74007e-05
1.24608e-07
-5.7541e-05
1.24533e-07
-5.76874e-05
1.20938e-07
-5.78405e-05
1.13073e-07
-5.80009e-05
1.00171e-07
-5.81691e-05
8.15448e-08
-5.83453e-05
5.6573e-08
-5.85295e-05
2.48586e-08
-5.87217e-05
-1.41945e-08
-5.89193e-05
-6.20066e-08
-5.91198e-05
-1.13614e-07
-5.93165e-05
-1.68981e-07
-5.9498e-05
-2.25535e-07
-5.96464e-05
-2.81878e-07
-5.97322e-05
-3.40262e-07
-5.97106e-05
-4.03267e-07
-5.94918e-05
-4.6894e-07
-5.8913e-05
-5.33866e-07
-5.76957e-05
-6.08998e-07
-5.53397e-05
-7.07879e-07
-5.11135e-05
-8.43726e-07
-9.67413e-07
-4.46221e-05
-5.06861e-05
3.77695e-08
-5.07421e-05
5.09349e-08
-5.0812e-05
6.22961e-08
-5.08904e-05
6.94334e-08
-5.0974e-05
7.34458e-08
-5.10604e-05
7.5381e-08
-5.11482e-05
7.60606e-08
-5.12364e-05
7.59936e-08
-5.13245e-05
7.54973e-08
-5.14123e-05
7.47606e-08
-5.14994e-05
7.38916e-08
-5.15857e-05
7.29442e-08
-5.16713e-05
7.19803e-08
-5.17559e-05
7.09911e-08
-5.18396e-05
7.00136e-08
-5.19224e-05
6.90415e-08
-5.20042e-05
6.80991e-08
-5.20851e-05
6.71793e-08
-5.2165e-05
6.63056e-08
-5.2244e-05
6.54681e-08
-5.2322e-05
6.46523e-08
-5.23991e-05
6.38185e-08
-5.24754e-05
6.29873e-08
-5.25507e-05
6.21577e-08
-5.26253e-05
6.13517e-08
-5.2699e-05
6.05588e-08
-5.2772e-05
5.97903e-08
-5.28443e-05
5.90517e-08
-5.29158e-05
5.83811e-08
-5.29867e-05
5.77562e-08
-5.3057e-05
5.71956e-08
-5.31267e-05
5.66509e-08
-5.31959e-05
5.61538e-08
-5.32647e-05
5.56709e-08
-5.3333e-05
5.52382e-08
-5.34009e-05
5.48173e-08
-5.34686e-05
5.44538e-08
-5.3536e-05
5.4111e-08
-5.36031e-05
5.38324e-08
-5.36702e-05
5.35962e-08
-5.37371e-05
5.34266e-08
-5.3804e-05
5.33212e-08
-5.3871e-05
5.32794e-08
-5.3938e-05
5.33314e-08
-5.40052e-05
5.34817e-08
-5.40726e-05
5.37448e-08
-5.41403e-05
5.41383e-08
-5.42083e-05
5.46793e-08
-5.42767e-05
5.53963e-08
-5.43457e-05
5.62995e-08
-5.44152e-05
5.74032e-08
-5.44853e-05
5.87361e-08
-5.4556e-05
6.03349e-08
-5.46276e-05
6.22196e-08
-5.46999e-05
6.44552e-08
-5.47732e-05
6.70749e-08
-5.48474e-05
7.01026e-08
-5.49226e-05
7.36287e-08
-5.49988e-05
7.76636e-08
-5.50762e-05
8.18608e-08
-5.51552e-05
8.64261e-08
-5.52356e-05
9.19514e-08
-5.53173e-05
9.82173e-08
-5.54006e-05
1.05127e-07
-5.54854e-05
1.12665e-07
-5.5572e-05
1.20839e-07
-5.56605e-05
1.29657e-07
-5.57509e-05
1.39131e-07
-5.58435e-05
1.49249e-07
-5.59384e-05
1.59962e-07
-5.60358e-05
1.71226e-07
-5.61358e-05
1.82955e-07
-5.62387e-05
1.95023e-07
-5.63447e-05
2.07251e-07
-5.64541e-05
2.19415e-07
-5.65671e-05
2.31223e-07
-5.6684e-05
2.42318e-07
-5.68053e-05
2.52244e-07
-5.69312e-05
2.60443e-07
-5.70623e-05
2.66319e-07
-5.71991e-05
2.69232e-07
-5.73419e-05
2.68452e-07
-5.74913e-05
2.63188e-07
-5.76477e-05
2.52752e-07
-5.78114e-05
2.36301e-07
-5.79818e-05
2.1281e-07
-5.81583e-05
1.81454e-07
-5.834e-05
1.41093e-07
-5.8521e-05
9.16023e-08
-5.86934e-05
3.0912e-08
-5.8847e-05
-4.08588e-08
-5.89652e-05
-1.2891e-07
-5.90189e-05
-2.47811e-07
-5.89607e-05
-4.18201e-07
-5.87068e-05
-6.74614e-07
-5.81013e-05
-1.08557e-06
-5.68657e-05
-1.78492e-06
-5.45127e-05
-2.99527e-06
-5.03396e-05
-4.9463e-06
-7.28285e-06
-4.39548e-05
-4.90546e-05
6.71178e-08
-4.91074e-05
1.0618e-07
-4.91746e-05
1.31998e-07
-4.92512e-05
1.48437e-07
-4.93337e-05
1.58304e-07
-4.94198e-05
1.63884e-07
-4.95083e-05
1.669e-07
-4.95983e-05
1.68313e-07
-4.96894e-05
1.68823e-07
-4.97811e-05
1.68743e-07
-4.98732e-05
1.68365e-07
-4.99658e-05
1.6775e-07
-5.00586e-05
1.67023e-07
-5.01515e-05
1.66205e-07
-5.02446e-05
1.65341e-07
-5.03377e-05
1.64432e-07
-5.04309e-05
1.63509e-07
-5.0524e-05
1.62566e-07
-5.06171e-05
1.61625e-07
-5.071e-05
1.6067e-07
-5.08027e-05
1.59698e-07
-5.08953e-05
1.58683e-07
-5.09876e-05
1.57644e-07
-5.10797e-05
1.5657e-07
-5.11714e-05
1.55483e-07
-5.12628e-05
1.54375e-07
-5.13538e-05
1.53256e-07
-5.14444e-05
1.52141e-07
-5.15346e-05
1.51071e-07
-5.16242e-05
1.50043e-07
-5.17134e-05
1.49056e-07
-5.18022e-05
1.48081e-07
-5.18904e-05
1.47134e-07
-5.1978e-05
1.46203e-07
-5.20652e-05
1.45316e-07
-5.21518e-05
1.44457e-07
-5.22379e-05
1.43655e-07
-5.23236e-05
1.42891e-07
-5.24087e-05
1.4221e-07