/*--------------------------------*- C++ -*----------------------------------*\
| =========                 |                                                 |
| \\      /  F ield         | OpenFOAM: The Open Source CFD Toolbox           |
|  \\    /   O peration     | Version:  2.1.0                                 |
|   \\  /    A nd           | Web:      www.OpenFOAM.org                      |
|    \\/     M anipulation  |                                                 |
\*---------------------------------------------------------------------------*/
FoamFile
{
    version     2.0;
    format      ascii;
    class       volScalarField;
    location    "0.4";
    object      rho;
}
// * * * * * * * * * * * * * * * * * * * * * * * * * * * * * * * * * * * * * //

dimensions      [1 -3 0 0 0 0 0];

internalField   nonuniform List<scalar> 
6400
(
950.606
950.419
950.238
950.063
949.893
949.728
949.567
949.411
949.26
949.112
948.969
948.831
948.696
948.565
948.439
948.316
948.197
948.081
947.97
947.862
947.757
947.656
947.558
947.464
947.372
947.284
947.199
947.117
947.038
946.962
946.889
946.818
946.751
946.685
946.623
946.563
946.505
946.45
946.397
946.346
946.298
946.252
946.208
946.166
946.125
946.087
946.051
946.016
945.984
945.953
945.924
945.896
945.87
945.845
945.822
945.801
945.781
945.762
945.744
945.728
945.713
945.699
945.686
945.675
945.664
945.655
945.647
945.64
945.634
945.629
945.626
945.624
945.623
945.624
945.626
945.63
945.635
945.642
945.652
945.664
945.678
945.696
945.718
945.744
945.778
945.82
945.875
945.948
946.051
946.202
946.441
946.855
947.653
949.284
951.632
947.928
944.712
944.557
944.555
944.555
949.834
949.673
949.512
949.356
949.203
949.055
948.91
948.769
948.632
948.498
948.368
948.242
948.119
948
947.883
947.771
947.661
947.555
947.451
947.351
947.254
947.16
947.069
946.981
946.895
946.813
946.733
946.656
946.582
946.51
946.441
946.374
946.31
946.248
946.188
946.131
946.076
946.024
945.973
945.925
945.878
945.834
945.792
945.751
945.713
945.676
945.641
945.607
945.575
945.545
945.516
945.489
945.463
945.439
945.416
945.393
945.372
945.353
945.334
945.316
945.299
945.283
945.267
945.253
945.239
945.226
945.214
945.202
945.191
945.18
945.17
945.16
945.151
945.143
945.134
945.127
945.119
945.113
945.107
945.101
945.096
945.092
945.088
945.085
945.083
945.082
945.083
945.084
945.086
945.087
945.086
945.078
945.053
944.992
944.872
944.698
944.568
944.555
944.555
944.555
949.65
949.5
949.347
949.197
949.05
948.907
948.767
948.63
948.496
948.366
948.238
948.114
947.993
947.875
947.759
947.647
947.538
947.431
947.327
947.227
947.128
947.033
946.94
946.85
946.762
946.677
946.595
946.515
946.437
946.362
946.29
946.22
946.152
946.087
946.024
945.963
945.904
945.848
945.794
945.742
945.692
945.644
945.598
945.554
945.511
945.471
945.432
945.395
945.36
945.327
945.295
945.264
945.235
945.207
945.181
945.156
945.132
945.109
945.087
945.066
945.046
945.027
945.009
944.992
944.975
944.959
944.944
944.929
944.914
944.9
944.886
944.872
944.858
944.845
944.832
944.818
944.805
944.792
944.778
944.765
944.751
944.737
944.724
944.71
944.696
944.682
944.668
944.654
944.641
944.627
944.614
944.601
944.589
944.577
944.568
944.562
944.556
944.555
944.555
944.555
949.841
949.696
949.547
949.399
949.254
949.111
948.97
948.833
948.698
948.565
948.435
948.308
948.184
948.062
947.942
947.826
947.711
947.6
947.49
947.383
947.279
947.177
947.077
946.98
946.885
946.792
946.701
946.613
946.527
946.443
946.362
946.283
946.206
946.131
946.059
945.989
945.921
945.855
945.791
945.729
945.67
945.612
945.557
945.504
945.452
945.403
945.356
945.31
945.267
945.225
945.185
945.147
945.111
945.076
945.043
945.012
944.982
944.954
944.927
944.902
944.878
944.855
944.833
944.813
944.793
944.775
944.758
944.741
944.726
944.711
944.697
944.684
944.672
944.66
944.649
944.639
944.629
944.62
944.612
944.604
944.597
944.59
944.584
944.579
944.575
944.571
944.567
944.564
944.562
944.56
944.558
944.557
944.556
944.556
944.555
944.555
944.555
944.555
944.555
944.555
950.487
950.346
950.199
950.052
949.906
949.761
949.619
949.478
949.339
949.202
949.068
948.935
948.805
948.677
948.55
948.426
948.304
948.184
948.066
947.95
947.835
947.723
947.613
947.505
947.399
947.294
947.192
947.092
946.993
946.896
946.802
946.709
946.618
946.529
946.442
946.356
946.273
946.192
946.112
946.035
945.959
945.886
945.815
945.745
945.678
945.613
945.549
945.488
945.43
945.373
945.318
945.266
945.215
945.167
945.121
945.078
945.036
944.996
944.959
944.924
944.891
944.859
944.83
944.803
944.777
944.754
944.732
944.712
944.694
944.677
944.662
944.648
944.635
944.624
944.614
944.605
944.597
944.59
944.584
944.579
944.574
944.571
944.567
944.565
944.562
944.56
944.559
944.558
944.557
944.556
944.555
944.555
944.555
944.555
944.555
944.555
944.555
944.555
944.555
944.555
951.807
951.669
951.526
951.381
951.237
951.093
950.95
950.809
950.668
950.53
950.393
950.257
950.123
949.99
949.859
949.729
949.6
949.473
949.347
949.223
949.1
948.978
948.858
948.739
948.621
948.504
948.389
948.276
948.163
948.052
947.942
947.833
947.726
947.619
947.514
947.411
947.308
947.207
947.108
947.009
946.913
946.817
946.723
946.631
946.54
946.45
946.362
946.276
946.192
946.11
946.029
945.95
945.874
945.799
945.727
945.656
945.588
945.522
945.458
945.397
945.338
945.282
945.228
945.176
945.127
945.08
945.036
944.994
944.955
944.918
944.883
944.851
944.821
944.793
944.767
944.743
944.721
944.7
944.682
944.665
944.649
944.635
944.623
944.611
944.601
944.592
944.584
944.577
944.571
944.566
944.562
944.559
944.557
944.556
944.555
944.555
944.555
944.555
944.555
944.555
954.15
954.021
953.887
953.751
953.615
953.479
953.343
953.209
953.075
952.943
952.811
952.681
952.551
952.423
952.295
952.168
952.042
951.916
951.791
951.666
951.542
951.418
951.294
951.171
951.049
950.927
950.807
950.686
950.566
950.447
950.329
950.21
950.092
949.975
949.858
949.741
949.625
949.509
949.393
949.277
949.162
949.047
948.931
948.816
948.701
948.586
948.472
948.357
948.243
948.128
948.014
947.9
947.787
947.673
947.56
947.448
947.336
947.225
947.114
947.005
946.896
946.789
946.683
946.578
946.475
946.373
946.274
946.176
946.081
945.988
945.897
945.809
945.723
945.64
945.559
945.482
945.407
945.334
945.265
945.198
945.134
945.073
945.015
944.96
944.907
944.857
944.81
944.766
944.725
944.688
944.655
944.627
944.604
944.587
944.577
944.57
944.566
944.563
944.56
944.559
957.834
957.722
957.606
957.488
957.371
957.254
957.138
957.023
956.909
956.795
956.683
956.572
956.462
956.353
956.245
956.138
956.031
955.925
955.82
955.715
955.61
955.506
955.402
955.298
955.195
955.092
954.989
954.886
954.784
954.681
954.578
954.474
954.371
954.267
954.162
954.056
953.95
953.843
953.735
953.625
953.515
953.403
953.29
953.175
953.058
952.94
952.82
952.698
952.574
952.448
952.32
952.19
952.057
951.922
951.785
951.645
951.503
951.358
951.211
951.062
950.91
950.756
950.599
950.44
950.279
950.116
949.951
949.784
949.615
949.444
949.272
949.099
948.924
948.748
948.572
948.394
948.215
948.036
947.856
947.675
947.492
947.308
947.123
946.936
946.747
946.556
946.363
946.169
945.975
945.783
945.596
945.416
945.25
945.102
944.979
944.891
944.818
944.76
944.717
944.69
963.228
963.148
963.067
962.985
962.904
962.824
962.745
962.667
962.591
962.516
962.443
962.371
962.301
962.231
962.164
962.097
962.032
961.968
961.905
961.843
961.783
961.723
961.664
961.605
961.546
961.487
961.427
961.367
961.306
961.245
961.183
961.12
961.055
960.99
960.923
960.855
960.785
960.714
960.641
960.567
960.49
960.412
960.331
960.249
960.164
960.077
959.988
959.897
959.803
959.706
959.607
959.505
959.4
959.292
959.182
959.068
958.951
958.83
958.706
958.579
958.447
958.312
958.172
958.028
957.88
957.727
957.569
957.406
957.238
957.065
956.885
956.7
956.508
956.309
956.104
955.89
955.669
955.438
955.198
954.947
954.684
954.408
954.116
953.808
953.479
953.129
952.755
952.353
951.921
951.458
950.963
950.44
949.892
949.326
948.754
948.2
947.719
947.28
946.907
946.634
970.471
970.44
970.408
970.377
970.346
970.316
970.287
970.258
970.23
970.203
970.177
970.151
970.126
970.101
970.077
970.054
970.03
970.007
969.985
969.962
969.94
969.917
969.895
969.872
969.849
969.826
969.802
969.778
969.754
969.729
969.704
969.679
969.653
969.627
969.6
969.573
969.545
969.517
969.488
969.459
969.43
969.4
969.369
969.339
969.307
969.275
969.243
969.21
969.177
969.144
969.109
969.075
969.039
969.004
968.967
968.931
968.893
968.856
968.818
968.779
968.741
968.701
968.66
968.618
968.574
968.53
968.483
968.435
968.385
968.333
968.278
968.22
968.159
968.094
968.026
967.953
967.874
967.79
967.699
967.601
967.494
967.378
967.252
967.114
966.963
966.798
966.618
966.416
966.181
965.906
965.585
965.21
964.773
964.263
963.666
962.962
962.148
961.305
960.498
959.85
978.179
978.197
978.213
978.23
978.245
978.261
978.275
978.289
978.302
978.315
978.327
978.34
978.351
978.362
978.373
978.383
978.393
978.404
978.414
978.424
978.434
978.445
978.455
978.467
978.478
978.49
978.503
978.516
978.53
978.545
978.561
978.578
978.595
978.614
978.633
978.654
978.676
978.699
978.723
978.749
978.775
978.803
978.833
978.864
978.896
978.929
978.964
979.001
979.039
979.08
979.121
979.165
979.211
979.258
979.308
979.36
979.414
979.471
979.531
979.593
979.658
979.727
979.799
979.876
979.958
980.045
980.137
980.235
980.34
980.451
980.57
980.697
980.832
980.978
981.133
981.299
981.477
981.667
981.871
982.089
982.322
982.57
982.834
983.114
983.41
983.723
984.052
984.403
984.784
985.201
985.659
986.159
986.699
987.284
987.917
988.598
989.324
990.081
990.829
991.493
984.432
984.49
984.549
984.609
984.668
984.729
984.788
984.848
984.907
984.966
985.024
985.083
985.141
985.199
985.256
985.313
985.37
985.428
985.485
985.542
985.599
985.656
985.714
985.772
985.83
985.889
985.948
986.008
986.069
986.131
986.193
986.256
986.321
986.387
986.453
986.522
986.591
986.662
986.735
986.809
986.885
986.964
987.044
987.126
987.21
987.297
987.386
987.478
987.572
987.669
987.769
987.872
987.978
988.087
988.199
988.315
988.435
988.558
988.686
988.818
988.955
989.097
989.244
989.397
989.556
989.722
989.894
990.074
990.261
990.457
990.661
990.873
991.095
991.327
991.568
991.82
992.082
992.355
992.638
992.932
993.235
993.548
993.869
994.199
994.534
994.875
995.219
995.564
995.908
996.249
996.581
996.91
997.241
997.564
997.877
998.175
998.453
998.702
998.913
999.071
989.118
989.195
989.276
989.359
989.443
989.528
989.613
989.699
989.785
989.871
989.957
990.044
990.13
990.217
990.303
990.39
990.477
990.564
990.652
990.74
990.828
990.916
991.005
991.095
991.184
991.275
991.365
991.457
991.549
991.642
991.735
991.83
991.925
992.021
992.118
992.217
992.316
992.416
992.518
992.621
992.725
992.831
992.938
993.046
993.156
993.267
993.38
993.495
993.611
993.73
993.85
993.972
994.096
994.221
994.349
994.479
994.612
994.746
994.883
995.022
995.163
995.306
995.452
995.6
995.75
995.903
996.057
996.214
996.372
996.533
996.694
996.858
997.023
997.188
997.354
997.521
997.687
997.852
998.016
998.178
998.338
998.493
998.645
998.791
998.931
999.064
999.189
999.306
999.413
999.509
999.595
999.668
999.729
999.782
999.828
999.867
999.899
999.924
999.942
999.954
992.531
992.611
992.695
992.783
992.873
992.964
993.056
993.148
993.24
993.333
993.426
993.519
993.612
993.705
993.799
993.892
993.986
994.08
994.174
994.269
994.363
994.458
994.554
994.649
994.745
994.841
994.937
995.034
995.131
995.228
995.326
995.424
995.522
995.621
995.72
995.819
995.918
996.018
996.118
996.218
996.318
996.418
996.518
996.618
996.718
996.818
996.918
997.018
997.117
997.216
997.315
997.414
997.512
997.609
997.706
997.802
997.898
997.993
998.087
998.18
998.272
998.363
998.452
998.54
998.627
998.712
998.795
998.876
998.955
999.032
999.107
999.18
999.25
999.317
999.382
999.444
999.503
999.559
999.611
999.661
999.707
999.749
999.788
999.824
999.855
999.883
999.907
999.928
999.945
999.96
999.971
999.979
999.985
999.989
999.992
999.995
999.996
999.998
999.998
999.999
994.843
994.918
994.999
995.083
995.168
995.255
995.342
995.43
995.518
995.606
995.694
995.781
995.869
995.957
996.044
996.131
996.219
996.306
996.392
996.479
996.566
996.652
996.738
996.824
996.909
996.994
997.079
997.164
997.248
997.332
997.415
997.498
997.58
997.661
997.742
997.823
997.902
997.981
998.059
998.136
998.212
998.287
998.361
998.434
998.505
998.575
998.644
998.712
998.778
998.843
998.906
998.967
999.027
999.085
999.141
999.196
999.249
999.3
999.349
999.396
999.441
999.484
999.526
999.565
999.602
999.638
999.671
999.703
999.732
999.76
999.786
999.811
999.833
999.854
999.873
999.89
999.906
999.92
999.933
999.945
999.955
999.963
999.971
999.978
999.983
999.987
999.991
999.994
999.996
999.997
999.998
999.999
999.999
1000
1000
1000
1000
1000
1000
1000
996.37
996.436
996.509
996.584
996.66
996.737
996.815
996.892
996.969
997.046
997.123
997.2
997.275
997.351
997.426
997.501
997.575
997.648
997.721
997.793
997.865
997.936
998.006
998.076
998.145
998.213
998.28
998.346
998.411
998.475
998.538
998.6
998.662
998.722
998.781
998.838
998.895
998.95
999.004
999.057
999.108
999.158
999.206
999.253
999.299
999.342
999.385
999.426
999.465
999.502
999.538
999.573
999.606
999.637
999.666
999.694
999.721
999.746
999.769
999.791
999.811
999.83
999.848
999.865
999.88
999.894
999.906
999.918
999.928
999.938
999.947
999.954
999.961
999.967
999.973
999.977
999.982
999.985
999.988
999.991
999.993
999.995
999.996
999.997
999.998
999.999
999.999
999.999
1000
1000
1000
1000
1000
1000
1000
1000
1000
1000
1000
1000
997.407
997.465
997.527
997.591
997.655
997.72
997.785
997.849
997.913
997.977
998.04
998.102
998.164
998.225
998.285
998.345
998.404
998.462
998.52
998.576
998.632
998.687
998.741
998.794
998.846
998.898
998.948
998.997
999.045
999.092
999.138
999.183
999.226
999.268
999.309
999.349
999.388
999.425
999.461
999.496
999.529
999.561
999.591
999.621
999.649
999.675
999.701
999.725
999.748
999.769
999.789
999.808
999.826
999.843
999.858
999.872
999.886
999.898
999.909
999.919
999.929
999.938
999.945
999.952
999.959
999.965
999.97
999.974
999.978
999.982
999.985
999.987
999.99
999.992
999.993
999.995
999.996
999.997
999.998
999.998
999.999
999.999
999.999
1000
1000
1000
1000
1000
1000
1000
1000
1000
1000
1000
1000
1000
1000
1000
1000
1000
998.145
998.193
998.244
998.296
998.349
998.401
998.452
998.504
998.554
998.604
998.654
998.703
998.751
998.798
998.845
998.891
998.936
998.98
999.023
999.066
999.108
999.149
999.189
999.228
999.266
999.303
999.339
999.375
999.409
999.442
999.475
999.506
999.536
999.565
999.593
999.62
999.645
999.67
999.693
999.716
999.737
999.757
999.777
999.795
999.812
999.828
999.843
999.857
999.871
999.883
999.895
999.905
999.915
999.924
999.933
999.94
999.947
999.954
999.96
999.965
999.97
999.974
999.977
999.981
999.984
999.986
999.988
999.99
999.992
999.993
999.995
999.996
999.997
999.997
999.998
999.998
999.999
999.999
999.999
1000
1000
1000
1000
1000
1000
1000
1000
1000
1000
1000
1000
1000
1000
1000
1000
1000
1000
1000
1000
1000
998.687
998.726
998.767
998.808
998.849
998.889
998.929
998.968
999.007
999.045
999.083
999.12
999.156
999.192
999.227
999.261
999.294
999.327
999.359
999.39
999.42
999.45
999.478
999.506
999.533
999.559
999.585
999.609
999.633
999.656
999.677
999.698
999.719
999.738
999.756
999.774
999.79
999.806
999.821
999.835
999.849
999.862
999.873
999.885
999.895
999.905
999.914
999.922
999.93
999.937
999.944
999.95
999.956
999.961
999.966
999.97
999.974
999.977
999.98
999.983
999.985
999.988
999.99
999.991
999.993
999.994
999.995
999.996
999.997
999.997
999.998
999.998
999.999
999.999
999.999
999.999
1000
1000
1000
1000
1000
1000
1000
1000
1000
1000
1000
1000
1000
1000
1000
1000
1000
1000
1000
1000
1000
1000
1000
1000
999.171
999.199
999.228
999.257
999.286
999.314
999.342
999.369
999.395
999.421
999.447
999.472
999.496
999.52
999.543
999.566
999.587
999.609
999.629
999.649
999.669
999.687
999.705
999.723
999.739
999.756
999.771
999.786
999.8
999.814
999.826
999.839
999.85
999.862
999.872
999.882
999.891
999.9
999.909
999.916
999.924
999.931
999.937
999.943
999.948
999.954
999.958
999.963
999.967
999.97
999.974
999.977
999.98
999.982
999.984
999.986
999.988
999.99
999.991
999.992
999.994
999.995
999.995
999.996
999.997
999.997
999.998
999.998
999.999
999.999
999.999
999.999
999.999
1000
1000
1000
1000
1000
1000
1000
1000
1000
1000
1000
1000
1000
1000
1000
1000
1000
1000
1000
1000
1000
1000
1000
1000
1000
1000
1000
944.555
944.555
944.555
944.555
944.555
944.555
944.555
944.555
944.555
944.555
944.555
944.555
944.555
944.555
944.555
944.555
944.555
944.555
944.555
944.555
944.555
944.555
944.555
944.555
944.555
944.555
944.555
944.555
944.555
944.555
944.555
944.555
944.555
944.555
944.555
944.555
944.555
944.555
944.555
944.556
944.555
944.555
944.555
944.555
944.555
944.555
944.555
944.555
944.555
944.555
944.555
944.555
944.555
944.555
944.555
944.555
944.555
944.555
944.557
944.561
944.555
944.555
944.555
944.555
944.555
944.555
944.555
944.555
944.555
944.555
944.555
944.555
944.555
944.555
944.555
944.556
944.557
944.56
944.57
944.612
944.555
944.555
944.555
944.555
944.555
944.555
944.555
944.555
944.555
944.555
944.555
944.555
944.556
944.557
944.559
944.563
944.573
944.598
944.678
945.038
944.555
944.555
944.555
944.555
944.555
944.555
944.556
944.556
944.557
944.558
944.559
944.561
944.565
944.571
944.584
944.609
944.666
944.816
945.313
947.769
944.56
944.561
944.562
944.564
944.567
944.57
944.573
944.577
944.581
944.585
944.592
944.602
944.619
944.648
944.703
944.813
945.056
945.682
947.778
958.54
944.692
944.709
944.727
944.748
944.77
944.79
944.806
944.814
944.82
944.828
944.843
944.871
944.922
945.014
945.188
945.532
946.261
948.025
953.389
978.301
946.582
946.678
946.771
946.861
946.935
946.957
946.946
946.902
946.864
946.826
946.801
946.791
946.825
946.94
947.286
948.064
949.755
953.436
962.066
991.905
959.65
959.844
960.033
960.203
960.322
960.314
960.267
960.221
960.157
960.048
959.921
959.734
959.564
959.356
959.463
960.228
962.586
967.552
977.437
991.789
991.805
991.716
991.655
991.617
991.639
991.812
992.037
992.271
992.519
992.809
993.127
993.518
993.956
994.517
994.951
995.202
995.084
994.984
995.856
996.728
999.117
999.079
999.046
999.016
998.998
999.01
999.042
999.1
999.158
999.222
999.287
999.362
999.435
999.519
999.58
999.617
999.616
999.613
999.677
998.793
999.955
999.95
999.945
999.939
999.933
999.928
999.926
999.929
999.933
999.94
999.946
999.954
999.96
999.966
999.971
999.974
999.974
999.973
999.957
999.657
999.999
999.999
999.998
999.998
999.998
999.997
999.997
999.996
999.996
999.997
999.997
999.997
999.998
999.998
999.998
999.998
999.998
999.998
999.994
999.957
1000
1000
1000
1000
1000
1000
1000
1000
1000
1000
1000
1000
1000
1000
1000
1000
1000
1000
1000
999.999
1000
1000
1000
1000
1000
1000
1000
1000
1000
1000
1000
1000
1000
1000
1000
1000
1000
1000
1000
1000
1000
1000
1000
1000
1000
1000
1000
1000
1000
1000
1000
1000
1000
1000
1000
1000
1000
1000
1000
1000
1000
1000
1000
1000
1000
1000
1000
1000
1000
1000
1000
1000
1000
1000
1000
1000
1000
1000
1000
1000
1000
1000
1000
1000
1000
1000
1000
1000
1000
1000
1000
1000
1000
1000
1000
1000
1000
1000
1000
1000
1000
1000
1000
1000
1000
1000
1000
1000
1000
1000
1000
1000
1000
1000
1000
1000
1000
1000
1000
1000
944.555
944.555
944.555
944.555
944.555
944.555
944.555
944.555
944.555
944.555
944.555
944.555
944.555
944.555
944.555
944.555
944.555
944.555
944.555
944.555
944.555
944.555
944.555
944.555
944.555
944.555
944.555
944.555
944.555
944.555
944.555
944.555
944.555
944.555
944.555
944.555
944.555
944.555
944.555
944.555
944.555
944.555
944.555
944.555
944.555
944.555
944.555
944.555
944.555
944.555
944.555
944.555
944.555
944.555
944.555
944.555
944.555
944.555
944.555
944.555
944.555
944.555
944.555
944.555
944.555
944.555
944.555
944.555
944.555
944.555
944.555
944.555
944.555
944.555
944.555
944.555
944.555
944.555
944.555
944.555
944.555
944.555
944.555
944.555
944.555
944.555
944.555
944.555
944.555
944.555
944.555
944.555
944.555
944.555
944.555
944.555
944.555
944.555
944.555
944.555
944.555
944.555
944.555
944.555
944.555
944.555
944.555
944.555
944.555
944.555
944.555
944.555
944.555
944.555
944.555
944.555
944.555
944.555
944.555
944.555
944.555
944.555
944.555
944.555
944.555
944.555
944.555
944.555
944.555
944.555
944.555
944.555
944.555
944.555
944.555
944.555
944.555
944.555
944.555
944.555
944.555
944.555
944.555
944.555
944.555
944.555
944.555
944.555
944.555
944.555
944.555
944.555
944.555
944.555
944.555
944.555
944.555
944.555
944.555
944.555
944.555
944.555
944.555
944.555
944.555
944.555
944.555
944.555
944.555
944.555
944.555
944.555
944.555
944.555
944.555
944.555
944.555
944.555
944.555
944.555
944.555
944.555
944.555
944.555
944.555
944.555
944.555
944.555
944.555
944.555
944.555
944.555
944.555
944.555
944.555
944.555
944.555
944.555
944.555
944.555
944.555
944.555
944.555
944.555
944.555
944.555
944.555
944.555
944.555
944.555
944.555
944.555
944.555
944.555
944.555
944.555
944.555
944.555
944.555
944.555
944.555
944.555
944.555
944.555
944.555
944.555
944.555
944.555
944.555
944.555
944.555
944.555
944.555
944.555
944.555
944.555
944.555
944.555
944.555
944.555
944.555
944.555
944.555
944.555
944.555
944.555
944.555
944.555
944.555
944.555
944.555
944.555
944.555
944.555
944.555
944.555
944.555
944.555
944.555
944.555
944.555
944.555
944.555
944.555
944.555
944.555
944.555
944.555
944.555
944.555
944.555
944.555
944.555
944.555
944.555
944.555
944.555
944.555
944.555
944.555
944.555
944.555
944.555
944.555
944.555
944.555
944.555
944.555
944.555
944.555
944.555
944.555
944.555
944.555
944.555
944.555
944.555
944.555
944.555
944.555
944.555
944.555
944.555
944.555
944.555
944.555
944.555
944.555
944.555
944.555
944.555
944.555
944.555
944.555
944.555
944.555
944.555
944.555
944.555
944.555
944.555
944.555
944.555
944.555
944.555
944.555
944.555
944.555
944.555
944.555
944.555
944.555
944.555
944.555
944.555
944.555
944.555
944.555
944.555
944.555
944.555
944.555
944.555
944.555
944.555
944.555
944.555
944.555
944.555
944.555
944.555
944.555
944.555
944.555
944.555
944.555
944.555
944.555
944.555
944.555
944.555
944.555
944.555
944.555
944.555
944.555
944.555
944.555
944.555
944.555
944.555
944.555
944.555
944.555
944.555
944.555
944.555
944.555
944.555
944.555
944.555
944.555
944.555
944.555
944.555
944.555
944.555
944.555
944.555
944.555
944.555
944.555
944.555
944.555
944.555
944.555
944.555
944.555
944.555
944.555
944.555
944.555
944.555
944.555
944.555
944.555
944.555
944.555
944.555
944.555
944.555
944.555
944.555
944.555
944.555
944.555
944.555
944.555
944.555
944.555
944.555
944.555
944.555
944.555
944.555
944.555
944.555
944.555
944.555
944.555
944.555
944.555
944.555
944.555
944.555
944.555
944.555
944.555
944.555
944.555
944.555
944.555
944.555
944.555
944.555
944.555
944.555
944.555
944.555
944.555
944.555
944.555
944.555
944.555
944.555
944.555
944.555
944.555
944.555
944.555
944.555
944.555
944.555
944.555
944.555
944.555
944.555
944.555
944.555
944.555
944.555
944.555
944.555
944.555
944.555
944.555
944.555
944.555
944.555
944.555
944.555
944.555
944.555
944.555
944.555
944.555
944.555
944.555
944.555
944.555
944.555
944.555
944.555
944.555
944.555
944.555
944.555
944.555
944.555
944.555
944.555
944.555
944.555
944.555
944.555
944.555
944.555
944.555
944.555
944.555
944.555
944.555
944.555
944.555
944.555
944.555
944.555
944.555
944.555
944.555
944.555
944.555
944.555
944.555
944.555
944.555
944.555
944.555
944.555
944.555
944.555
944.555
944.555
944.555
944.555
944.555
944.555
944.555
944.555
944.555
944.555
944.555
944.555
944.555
944.555
944.555
944.555
944.555
944.555
944.555
944.555
944.555
944.555
944.555
944.555
944.555
944.555
944.555
944.555
944.555
944.555
944.555
944.555
944.555
944.555
944.555
944.555
944.555
944.555
944.555
944.555
944.555
944.555
944.555
944.555
944.555
944.555
944.555
944.555
944.555
944.555
944.555
944.555
944.555
944.555
944.555
944.555
944.555
944.555
944.555
944.555
944.555
944.555
944.555
944.555
944.555
944.555
944.555
944.555
944.555
944.555
944.555
944.555
944.555
944.555
944.555
944.555
944.555
944.555
944.555
944.555
944.555
944.555
944.555
944.555
944.555
944.555
944.555
944.555
944.555
944.555
944.555
944.555
944.555
944.555
944.555
944.555
944.555
944.555
944.555
944.555
944.555
944.555
944.555
944.555
944.555
944.555
944.555
944.555
944.555
944.555
944.555
944.555
944.555
944.555
944.555
944.555
944.555
944.555
944.555
944.555
944.555
944.555
944.555
944.555
944.555
944.555
944.555
944.555
944.555
944.555
944.555
944.555
944.555
944.555
944.555
944.555
944.555
944.555
944.555
944.555
944.555
944.555
944.555
944.555
944.555
944.555
944.555
944.555
944.555
944.555
944.555
944.555
944.555
944.555
944.555
944.555
944.555
944.555
944.555
944.555
944.555
944.555
944.555
944.555
944.555
944.555
944.555
944.555
944.555
944.555
944.555
944.555
944.555
944.555
944.555
944.555
944.555
944.555
944.555
944.555
944.555
944.555
944.555
944.555
944.555
944.555
944.555
944.555
944.555
944.555
944.555
944.555
944.555
944.555
944.555
944.555
944.555
944.555
944.555
944.555
944.555
944.555
944.555
944.555
944.555
944.555
944.555
944.555
944.555
944.555
944.555
944.555
944.555
944.555
944.555
944.555
944.555
944.555
944.555
944.555
944.555
944.555
944.555
944.555
944.555
944.555
944.555
944.555
944.555
944.555
944.555
944.555
944.555
944.555
944.555
944.555
944.555
944.555
944.555
944.555
944.555
944.555
944.555
944.555
944.555
944.555
944.555
944.555
944.555
944.555
944.555
944.555
944.555
944.555
944.555
944.555
944.555
944.555
944.555
944.555
944.555
944.555
944.555
944.555
944.555
944.555
944.555
944.555
944.555
944.555
944.555
944.555
944.555
944.555
944.555
944.555
944.555
944.555
944.555
944.555
944.555
944.555
944.555
944.555
944.555
944.555
944.555
944.555
944.555
944.555
944.555
944.555
944.555
944.555
944.555
944.555
944.555
944.555
944.555
944.555
944.555
944.555
944.555
944.555
944.555
944.555
944.555
944.555
944.555
944.555
944.555
944.555
944.555
944.555
944.555
944.555
944.555
944.555
944.555
944.555
944.555
944.555
944.555
944.555
944.555
944.555
944.555
944.555
944.555
944.555
944.555
944.555
944.555
944.555
944.555
944.555
944.555
944.555
944.555
944.555
944.555
944.555
944.555
944.555
944.555
944.555
944.555
944.555
944.555
944.555
944.555
944.555
944.555
944.555
944.555
944.555
944.555
944.555
944.555
944.555
944.555
944.555
944.555
944.555
944.555
944.555
944.555
944.555
944.555
944.555
944.555
944.555
944.555
944.555
944.555
944.555
944.555
944.555
944.555
944.555
944.555
944.555
944.555
944.555
944.555
944.555
944.555
944.555
944.555
944.555
944.555
944.555
944.555
944.555
944.555
944.555
944.555
944.555
944.555
944.555
944.555
944.555
944.555
944.555
944.555
944.555
944.555
944.555
944.555
944.555
944.555
944.555
944.555
944.555
944.555
944.555
944.555
944.555
944.555
944.555
944.555
944.555
944.555
944.555
944.555
944.555
944.555
944.555
944.555
944.555
944.555
944.555
944.555
944.555
944.555
944.555
944.555
944.555
944.555
944.555
944.555
944.555
944.555
944.555
944.555
944.555
944.555
944.555
944.555
944.555
944.555
944.555
944.555
944.555
944.555
944.555
944.555
944.555
944.555
944.555
944.555
944.555
944.555
944.555
944.555
944.555
944.555
944.555
944.555
944.555
944.555
944.555
944.555
944.555
944.555
944.555
944.555
944.555
944.555
944.555
944.555
944.555
944.555
944.555
944.555
944.555
944.555
944.555
944.555
944.555
944.555
944.555
944.555
944.555
944.555
944.555
944.555
944.555
944.555
944.555
944.555
944.555
944.555
944.555
944.555
944.555
944.555
944.555
944.555
944.555
944.555
944.555
944.555
944.555
944.555
944.555
944.555
944.555
944.555
944.555
944.555
944.555
944.555
944.555
944.555
944.555
944.555
944.555
944.555
944.555
944.555
944.555
944.555
944.555
944.555
944.555
944.555
944.555
944.555
944.555
944.555
944.555
944.555
944.555
944.555
944.555
944.555
944.555
944.555
944.555
944.555
944.555
944.555
944.555
944.555
944.555
944.555
944.555
944.555
944.555
944.555
944.555
944.555
944.555
944.555
944.555
944.555
944.555
944.555
944.555
944.555
944.555
944.555
944.555
944.555
944.555
944.555
944.555
944.555
944.555
944.555
944.555
944.555
944.555
944.555
944.555
944.555
944.555
944.555
944.555
944.555
944.555
944.555
944.555
944.555
944.555
944.555
944.555
944.555
944.555
944.555
944.555
944.555
944.555
944.555
944.555
944.555
944.555
944.555
944.555
944.555
944.555
944.555
944.555
944.555
944.555
944.555
944.555
944.555
944.555
944.555
944.555
944.555
944.555
944.555
944.555
944.555
944.555
944.555
944.555
944.555
944.555
944.555
944.555
944.555
944.555
944.555
944.555
944.555
944.555
944.555
944.555
944.555
944.555
944.555
944.555
944.555
944.555
944.555
944.555
944.555
944.555
944.555
944.555
944.555
944.555
944.555
944.555
944.555
944.555
944.555
944.555
944.555
944.555
944.555
944.555
944.555
944.555
944.555
944.555
944.555
944.555
944.555
944.555
944.555
944.555
944.555
944.555
944.555
944.555
944.555
944.555
944.555
944.555
944.555
944.555
944.555
944.555
944.555
944.555
944.555
944.555
944.555
944.555
944.555
944.555
944.555
944.555
944.555
944.555
944.555
944.555
944.555
944.555
944.555
944.555
944.555
944.555
944.555
944.555
944.555
944.555
944.555
944.555
944.555
944.555
944.555
944.555
944.555
944.555
944.555
944.555
944.555
944.555
944.555
944.555
944.555
944.555
944.555
944.555
944.555
944.555
944.555
944.555
944.555
944.555
944.555
944.555
944.555
944.555
944.555
944.555
944.555
944.555
944.555
944.555
944.555
944.555
944.555
944.555
944.555
944.555
944.555
944.555
944.555
944.555
944.555
944.555
944.555
944.555
944.555
944.555
944.555
944.555
944.555
944.555
944.555
944.555
944.555
944.555
944.555
944.555
944.555
944.555
944.555
944.555
944.555
944.555
944.555
944.555
944.555
944.555
944.555
944.555
944.555
944.555
944.555
944.555
944.555
944.555
944.555
944.555
944.555
944.555
944.555
944.555
944.555
944.555
944.555
944.555
944.555
944.555
944.555
944.555
944.555
944.555
944.555
944.555
944.555
944.555
944.555
944.555
944.555
944.555
944.555
944.555
944.555
944.555
944.555
944.555
944.555
944.555
944.555