/*--------------------------------*- C++ -*----------------------------------*\
| =========                 |                                                 |
| \\      /  F ield         | OpenFOAM: The Open Source CFD Toolbox           |
|  \\    /   O peration     | Version:  2.1.0                                 |
|   \\  /    A nd           | Web:      www.OpenFOAM.org                      |
|    \\/     M anipulation  |                                                 |
\*---------------------------------------------------------------------------*/
FoamFile
{
    version     2.0;
    format      ascii;
    class       volScalarField;
    location    "0.4";
    object      T;
}
// * * * * * * * * * * * * * * * * * * * * * * * * * * * * * * * * * * * * * //

dimensions      [0 0 0 1 0 0 0];

internalField   nonuniform List<scalar> 
6400
(
381.668
382.02
382.361
382.692
383.013
383.325
383.628
383.923
384.209
384.488
384.758
385.021
385.276
385.523
385.763
385.996
386.221
386.44
386.652
386.857
387.055
387.247
387.432
387.612
387.785
387.952
388.114
388.269
388.419
388.564
388.703
388.837
388.966
389.09
389.209
389.323
389.433
389.538
389.638
389.735
389.827
389.915
389.999
390.079
390.155
390.228
390.297
390.363
390.425
390.484
390.54
390.592
390.642
390.688
390.732
390.773
390.811
390.847
390.881
390.912
390.941
390.967
390.992
391.014
391.034
391.051
391.067
391.08
391.092
391.1
391.107
391.111
391.112
391.111
391.107
391.1
391.089
391.075
391.057
391.035
391.007
390.973
390.932
390.881
390.818
390.737
390.633
390.493
390.297
390.01
389.555
388.768
387.253
384.163
379.735
386.731
392.85
393.146
393.15
393.15
383.123
383.428
383.732
384.028
384.317
384.597
384.871
385.138
385.398
385.65
385.896
386.136
386.369
386.595
386.816
387.03
387.237
387.439
387.635
387.825
388.009
388.188
388.361
388.529
388.691
388.848
388.999
389.146
389.287
389.424
389.555
389.682
389.805
389.922
390.035
390.144
390.249
390.349
390.445
390.537
390.625
390.71
390.791
390.868
390.941
391.012
391.078
391.142
391.203
391.26
391.315
391.367
391.416
391.463
391.507
391.55
391.59
391.628
391.664
391.698
391.73
391.761
391.79
391.818
391.844
391.869
391.892
391.915
391.936
391.957
391.976
391.994
392.012
392.028
392.044
392.058
392.072
392.085
392.097
392.107
392.117
392.125
392.132
392.137
392.141
392.143
392.142
392.14
392.137
392.134
392.136
392.151
392.199
392.314
392.545
392.877
393.125
393.149
393.15
393.15
383.471
383.756
384.045
384.328
384.606
384.877
385.142
385.401
385.654
385.902
386.143
386.378
386.608
386.832
387.051
387.264
387.471
387.673
387.87
388.062
388.249
388.43
388.606
388.778
388.944
389.106
389.263
389.415
389.562
389.704
389.842
389.976
390.104
390.229
390.349
390.465
390.576
390.684
390.787
390.886
390.981
391.073
391.16
391.244
391.325
391.402
391.475
391.546
391.613
391.677
391.738
391.796
391.852
391.905
391.955
392.003
392.049
392.093
392.134
392.174
392.212
392.248
392.282
392.315
392.347
392.378
392.408
392.436
392.464
392.491
392.518
392.544
392.57
392.596
392.621
392.647
392.672
392.698
392.723
392.749
392.775
392.801
392.827
392.854
392.88
392.907
392.933
392.96
392.986
393.012
393.037
393.062
393.085
393.106
393.124
393.136
393.148
393.15
393.15
393.15
383.111
383.385
383.667
383.946
384.221
384.491
384.757
385.018
385.273
385.524
385.77
386.011
386.247
386.478
386.704
386.925
387.142
387.354
387.562
387.765
387.963
388.157
388.346
388.531
388.712
388.888
389.06
389.228
389.391
389.55
389.705
389.856
390.002
390.144
390.282
390.416
390.545
390.671
390.792
390.909
391.023
391.132
391.238
391.339
391.437
391.531
391.621
391.708
391.791
391.87
391.946
392.019
392.088
392.154
392.217
392.277
392.334
392.388
392.439
392.487
392.533
392.577
392.618
392.657
392.694
392.729
392.762
392.794
392.823
392.851
392.878
392.903
392.927
392.949
392.97
392.99
393.008
393.025
393.041
393.056
393.07
393.082
393.093
393.103
393.112
393.119
393.126
393.132
393.136
393.14
393.143
393.145
393.147
393.148
393.149
393.149
393.15
393.15
393.15
393.15
381.892
382.159
382.436
382.713
382.989
383.262
383.532
383.798
384.06
384.318
384.573
384.824
385.07
385.313
385.552
385.787
386.019
386.247
386.47
386.691
386.907
387.12
387.329
387.534
387.736
387.934
388.128
388.319
388.506
388.689
388.87
389.046
389.219
389.388
389.554
389.716
389.875
390.03
390.181
390.328
390.472
390.611
390.747
390.88
391.008
391.132
391.252
391.369
391.481
391.589
391.693
391.793
391.889
391.981
392.068
392.152
392.231
392.307
392.378
392.445
392.509
392.568
392.624
392.676
392.725
392.77
392.811
392.85
392.885
392.917
392.946
392.972
392.996
393.018
393.037
393.054
393.069
393.082
393.094
393.104
393.112
393.12
393.126
393.131
393.136
393.139
393.142
393.144
393.146
393.148
393.149
393.149
393.15
393.15
393.15
393.15
393.15
393.15
393.15
393.15
379.408
379.666
379.936
380.208
380.48
380.751
381.02
381.287
381.551
381.812
382.071
382.327
382.58
382.83
383.078
383.323
383.566
383.807
384.044
384.28
384.513
384.743
384.971
385.196
385.419
385.639
385.857
386.073
386.286
386.497
386.706
386.912
387.116
387.317
387.516
387.713
387.907
388.099
388.288
388.475
388.659
388.84
389.019
389.195
389.368
389.538
389.705
389.868
390.029
390.186
390.339
390.489
390.635
390.777
390.915
391.049
391.179
391.305
391.426
391.543
391.655
391.763
391.866
391.964
392.058
392.147
392.231
392.311
392.386
392.456
392.522
392.584
392.642
392.695
392.745
392.791
392.833
392.872
392.907
392.94
392.969
392.996
393.02
393.042
393.061
393.078
393.094
393.107
393.118
393.128
393.135
393.141
393.145
393.147
393.148
393.149
393.149
393.15
393.15
393.15
375.012
375.254
375.504
375.759
376.014
376.269
376.523
376.775
377.026
377.274
377.521
377.766
378.009
378.25
378.49
378.729
378.966
379.202
379.438
379.672
379.906
380.14
380.372
380.604
380.834
381.063
381.291
381.518
381.743
381.968
382.192
382.415
382.637
382.859
383.08
383.3
383.52
383.739
383.958
384.177
384.395
384.614
384.831
385.049
385.267
385.484
385.701
385.918
386.135
386.352
386.568
386.784
387
387.215
387.429
387.642
387.855
388.066
388.276
388.484
388.69
388.894
389.096
389.295
389.491
389.684
389.873
390.059
390.24
390.418
390.591
390.759
390.922
391.08
391.234
391.382
391.525
391.662
391.795
391.922
392.044
392.16
392.271
392.377
392.477
392.572
392.662
392.747
392.825
392.896
392.959
393.012
393.056
393.088
393.108
393.12
393.129
393.135
393.139
393.141
368.145
368.354
368.569
368.787
369.004
369.223
369.438
369.653
369.865
370.076
370.284
370.491
370.696
370.899
371.101
371.301
371.499
371.697
371.894
372.09
372.284
372.479
372.673
372.866
373.059
373.251
373.443
373.635
373.827
374.02
374.212
374.406
374.599
374.794
374.99
375.188
375.387
375.587
375.79
375.995
376.202
376.411
376.624
376.839
377.057
377.279
377.504
377.733
377.966
378.203
378.443
378.688
378.938
379.191
379.45
379.712
379.98
380.252
380.528
380.81
381.096
381.386
381.682
381.981
382.285
382.593
382.905
383.22
383.539
383.862
384.187
384.515
384.845
385.178
385.512
385.849
386.187
386.527
386.869
387.212
387.558
387.907
388.259
388.615
388.974
389.337
389.704
390.072
390.441
390.807
391.164
391.506
391.823
392.105
392.339
392.508
392.647
392.758
392.84
392.892
358.186
358.332
358.482
358.632
358.78
358.928
359.072
359.215
359.355
359.493
359.627
359.76
359.889
360.017
360.142
360.265
360.384
360.503
360.618
360.732
360.843
360.953
361.062
361.171
361.279
361.389
361.498
361.609
361.721
361.834
361.949
362.065
362.184
362.304
362.427
362.553
362.682
362.813
362.948
363.085
363.227
363.371
363.52
363.672
363.829
363.989
364.154
364.323
364.497
364.676
364.859
365.048
365.242
365.441
365.646
365.857
366.074
366.297
366.527
366.763
367.007
367.258
367.517
367.784
368.06
368.344
368.637
368.94
369.252
369.575
369.909
370.254
370.611
370.981
371.364
371.762
372.175
372.605
373.053
373.522
374.013
374.53
375.075
375.653
376.268
376.925
377.627
378.382
379.194
380.065
380.995
381.982
383.016
384.084
385.167
386.216
387.127
387.961
388.67
389.188
344.985
345.042
345.099
345.156
345.211
345.266
345.319
345.371
345.421
345.47
345.518
345.565
345.61
345.655
345.698
345.741
345.783
345.825
345.866
345.906
345.947
345.988
346.029
346.07
346.112
346.154
346.196
346.24
346.283
346.328
346.373
346.419
346.466
346.514
346.562
346.612
346.662
346.713
346.765
346.817
346.871
346.925
346.98
347.036
347.093
347.151
347.209
347.269
347.329
347.39
347.452
347.515
347.579
347.644
347.709
347.776
347.844
347.912
347.981
348.051
348.121
348.194
348.268
348.344
348.423
348.504
348.588
348.676
348.767
348.862
348.962
349.067
349.178
349.295
349.42
349.553
349.695
349.849
350.014
350.193
350.387
350.598
350.828
351.079
351.353
351.654
351.983
352.35
352.78
353.282
353.868
354.553
355.353
356.286
357.382
358.674
360.171
361.724
363.212
364.41
331.153
331.122
331.092
331.063
331.035
331.008
330.982
330.957
330.934
330.91
330.889
330.867
330.847
330.827
330.809
330.789
330.771
330.753
330.735
330.717
330.699
330.68
330.661
330.641
330.621
330.599
330.577
330.553
330.528
330.501
330.473
330.444
330.413
330.379
330.345
330.308
330.269
330.228
330.185
330.139
330.092
330.042
329.99
329.935
329.878
329.818
329.756
329.69
329.622
329.551
329.477
329.399
329.318
329.234
329.145
329.053
328.956
328.855
328.75
328.639
328.524
328.402
328.273
328.136
327.991
327.837
327.674
327.5
327.315
327.117
326.907
326.682
326.442
326.185
325.91
325.616
325.301
324.964
324.604
324.219
323.808
323.371
322.905
322.411
321.889
321.338
320.758
320.142
319.473
318.741
317.936
317.06
316.114
315.091
313.987
312.799
311.534
310.218
308.918
307.766
320.091
319.989
319.886
319.78
319.675
319.569
319.465
319.36
319.256
319.152
319.05
318.947
318.846
318.744
318.644
318.543
318.443
318.342
318.242
318.142
318.042
317.941
317.84
317.738
317.636
317.533
317.429
317.324
317.218
317.11
317.001
316.889
316.777
316.662
316.545
316.425
316.304
316.179
316.052
315.922
315.789
315.652
315.512
315.368
315.221
315.069
314.913
314.753
314.588
314.419
314.244
314.065
313.88
313.69
313.493
313.291
313.082
312.867
312.645
312.415
312.176
311.929
311.673
311.406
311.129
310.841
310.542
310.229
309.904
309.564
309.21
308.841
308.456
308.055
307.636
307.2
306.746
306.274
305.784
305.277
304.753
304.213
303.658
303.091
302.513
301.926
301.334
300.74
300.149
299.565
298.994
298.43
297.864
297.31
296.775
296.265
295.79
295.363
295.003
294.735
311.891
311.758
311.618
311.473
311.327
311.179
311.031
310.881
310.732
310.582
310.433
310.282
310.132
309.982
309.831
309.68
309.529
309.377
309.225
309.073
308.92
308.766
308.612
308.457
308.302
308.145
307.988
307.829
307.67
307.509
307.347
307.183
307.018
306.852
306.684
306.514
306.342
306.168
305.992
305.814
305.634
305.452
305.267
305.08
304.89
304.697
304.502
304.304
304.103
303.899
303.692
303.482
303.268
303.052
302.831
302.607
302.379
302.148
301.912
301.673
301.43
301.184
300.933
300.679
300.421
300.159
299.894
299.625
299.353
299.078
298.8
298.52
298.237
297.954
297.669
297.384
297.1
296.817
296.536
296.259
295.987
295.721
295.462
295.212
294.974
294.746
294.533
294.334
294.151
293.987
293.841
293.716
293.612
293.521
293.443
293.377
293.323
293.28
293.249
293.228
305.969
305.832
305.686
305.533
305.379
305.221
305.063
304.904
304.744
304.584
304.424
304.263
304.102
303.941
303.78
303.619
303.457
303.295
303.133
302.97
302.807
302.643
302.479
302.315
302.15
301.984
301.819
301.652
301.485
301.318
301.15
300.981
300.812
300.643
300.473
300.303
300.132
299.961
299.79
299.618
299.446
299.274
299.102
298.931
298.759
298.587
298.416
298.245
298.075
297.905
297.736
297.567
297.4
297.233
297.067
296.902
296.738
296.576
296.415
296.256
296.099
295.943
295.791
295.64
295.492
295.347
295.206
295.067
294.932
294.8
294.672
294.549
294.429
294.314
294.204
294.098
293.997
293.902
293.812
293.728
293.65
293.577
293.511
293.451
293.397
293.349
293.308
293.272
293.243
293.219
293.2
293.185
293.175
293.168
293.163
293.159
293.156
293.154
293.153
293.152
301.98
301.852
301.713
301.568
301.421
301.272
301.122
300.971
300.82
300.669
300.518
300.367
300.217
300.066
299.916
299.766
299.616
299.467
299.318
299.169
299.021
298.873
298.725
298.578
298.432
298.286
298.14
297.995
297.851
297.708
297.565
297.424
297.283
297.143
297.005
296.867
296.731
296.596
296.463
296.331
296.201
296.073
295.947
295.823
295.7
295.58
295.463
295.347
295.234
295.124
295.016
294.911
294.809
294.71
294.614
294.521
294.431
294.344
294.26
294.18
294.103
294.029
293.959
293.892
293.828
293.767
293.71
293.657
293.606
293.558
293.514
293.473
293.435
293.399
293.367
293.337
293.31
293.286
293.264
293.244
293.227
293.212
293.199
293.188
293.179
293.172
293.166
293.161
293.157
293.155
293.153
293.152
293.151
293.151
293.15
293.15
293.15
293.15
293.15
293.15
299.356
299.243
299.119
298.99
298.859
298.726
298.594
298.461
298.328
298.196
298.065
297.934
297.804
297.675
297.546
297.419
297.292
297.166
297.041
296.917
296.795
296.673
296.553
296.434
296.316
296.2
296.086
295.973
295.861
295.752
295.644
295.538
295.433
295.33
295.23
295.131
295.035
294.94
294.848
294.758
294.671
294.586
294.503
294.423
294.346
294.271
294.199
294.129
294.062
293.998
293.937
293.878
293.822
293.769
293.719
293.671
293.626
293.583
293.544
293.506
293.471
293.439
293.409
293.381
293.355
293.331
293.31
293.29
293.272
293.256
293.241
293.228
293.216
293.206
293.196
293.188
293.181
293.175
293.17
293.166
293.162
293.159
293.157
293.155
293.154
293.152
293.152
293.151
293.151
293.15
293.15
293.15
293.15
293.15
293.15
293.15
293.15
293.15
293.15
293.15
297.578
297.48
297.374
297.265
297.154
297.043
296.932
296.822
296.713
296.604
296.496
296.39
296.284
296.179
296.076
295.974
295.873
295.774
295.675
295.579
295.483
295.39
295.297
295.207
295.118
295.03
294.945
294.861
294.779
294.698
294.62
294.544
294.47
294.397
294.327
294.259
294.194
294.13
294.069
294.01
293.953
293.898
293.846
293.796
293.749
293.703
293.66
293.619
293.58
293.544
293.509
293.477
293.447
293.418
293.392
293.368
293.345
293.324
293.305
293.287
293.271
293.256
293.243
293.231
293.22
293.21
293.202
293.194
293.187
293.181
293.176
293.172
293.168
293.164
293.162
293.159
293.157
293.156
293.154
293.153
293.152
293.152
293.151
293.151
293.151
293.15
293.15
293.15
293.15
293.15
293.15
293.15
293.15
293.15
293.15
293.15
293.15
293.15
293.15
293.15
296.316
296.234
296.146
296.057
295.968
295.879
295.791
295.703
295.616
295.531
295.446
295.363
295.281
295.2
295.12
295.042
294.965
294.89
294.815
294.743
294.671
294.602
294.533
294.467
294.402
294.338
294.276
294.216
294.157
294.101
294.046
293.992
293.941
293.892
293.844
293.798
293.755
293.713
293.673
293.634
293.598
293.564
293.531
293.5
293.471
293.443
293.417
293.393
293.37
293.349
293.329
293.311
293.294
293.279
293.265
293.251
293.239
293.229
293.219
293.21
293.202
293.195
293.188
293.183
293.178
293.174
293.17
293.166
293.164
293.161
293.159
293.157
293.156
293.155
293.154
293.153
293.152
293.152
293.151
293.151
293.151
293.15
293.15
293.15
293.15
293.15
293.15
293.15
293.15
293.15
293.15
293.15
293.15
293.15
293.15
293.15
293.15
293.15
293.15
293.15
295.39
295.323
295.254
295.184
295.114
295.045
294.977
294.909
294.843
294.778
294.713
294.65
294.589
294.528
294.468
294.41
294.353
294.298
294.243
294.19
294.139
294.088
294.039
293.992
293.946
293.901
293.858
293.816
293.776
293.737
293.7
293.664
293.63
293.597
293.565
293.536
293.507
293.48
293.455
293.43
293.408
293.386
293.366
293.347
293.329
293.312
293.297
293.282
293.269
293.257
293.245
293.235
293.225
293.216
293.209
293.201
293.195
293.189
293.184
293.179
293.175
293.171
293.168
293.165
293.163
293.16
293.159
293.157
293.156
293.155
293.154
293.153
293.152
293.152
293.151
293.151
293.151
293.151
293.15
293.15
293.15
293.15
293.15
293.15
293.15
293.15
293.15
293.15
293.15
293.15
293.15
293.15
293.15
293.15
293.15
293.15
293.15
293.15
293.15
293.15
294.564
294.515
294.466
294.417
294.368
294.32
294.273
294.226
294.181
294.136
294.093
294.05
294.009
293.968
293.929
293.89
293.853
293.817
293.782
293.748
293.715
293.683
293.652
293.622
293.594
293.566
293.54
293.515
293.491
293.468
293.446
293.425
293.405
293.386
293.368
293.351
293.335
293.32
293.306
293.292
293.28
293.268
293.257
293.247
293.238
293.229
293.221
293.214
293.207
293.201
293.195
293.19
293.185
293.181
293.177
293.173
293.17
293.167
293.165
293.163
293.161
293.159
293.158
293.156
293.155
293.154
293.154
293.153
293.152
293.152
293.152
293.151
293.151
293.151
293.151
293.15
293.15
293.15
293.15
293.15
293.15
293.15
293.15
293.15
293.15
293.15
293.15
293.15
293.15
293.15
293.15
293.15
293.15
293.15
293.15
293.15
293.15
293.15
293.15
293.15
393.15
393.15
393.15
393.15
393.15
393.15
393.15
393.15
393.15
393.15
393.15
393.15
393.15
393.15
393.15
393.15
393.15
393.15
393.15
393.15
393.15
393.15
393.15
393.15
393.15
393.15
393.15
393.15
393.15
393.15
393.15
393.15
393.15
393.15
393.15
393.15
393.15
393.15
393.149
393.148
393.15
393.15
393.15
393.15
393.15
393.15
393.15
393.15
393.15
393.15
393.15
393.15
393.15
393.15
393.15
393.15
393.149
393.149
393.146
393.138
393.15
393.15
393.15
393.15
393.15
393.15
393.15
393.15
393.15
393.15
393.15
393.15
393.15
393.149
393.149
393.148
393.145
393.139
393.12
393.04
393.15
393.15
393.15
393.15
393.15
393.15
393.15
393.15
393.15
393.149
393.149
393.148
393.147
393.145
393.142
393.133
393.115
393.067
392.915
392.227
393.15
393.15
393.149
393.149
393.149
393.148
393.148
393.147
393.146
393.144
393.141
393.137
393.13
393.118
393.095
393.047
392.937
392.651
391.703
387.032
393.14
393.138
393.135
393.131
393.126
393.121
393.114
393.107
393.1
393.091
393.079
393.059
393.027
392.971
392.867
392.657
392.193
390.999
387.016
366.833
392.888
392.856
392.82
392.78
392.738
392.701
392.671
392.654
392.644
392.628
392.599
392.545
392.449
392.274
391.94
391.285
389.897
386.547
376.437
330.935
389.287
389.105
388.929
388.756
388.616
388.575
388.595
388.679
388.751
388.822
388.87
388.89
388.826
388.606
387.949
386.474
383.274
376.348
360.32
307.053
364.78
364.421
364.072
363.757
363.538
363.552
363.64
363.724
363.842
364.043
364.279
364.623
364.938
365.322
365.126
363.711
359.365
350.28
332.474
307.253
307.226
307.38
307.487
307.552
307.514
307.213
306.824
306.42
305.99
305.489
304.94
304.264
303.51
302.543
301.795
301.363
301.567
301.739
300.238
298.742
294.655
294.72
294.777
294.828
294.859
294.839
294.783
294.685
294.586
294.476
294.365
294.237
294.113
293.97
293.866
293.803
293.804
293.809
293.7
295.209
293.226
293.235
293.244
293.254
293.264
293.272
293.275
293.272
293.264
293.252
293.241
293.229
293.218
293.208
293.2
293.195
293.194
293.196
293.223
293.735
293.152
293.152
293.153
293.153
293.154
293.155
293.156
293.156
293.156
293.156
293.155
293.154
293.154
293.153
293.153
293.153
293.153
293.154
293.159
293.224
293.15
293.15
293.15
293.15
293.15
293.15
293.15
293.15
293.15
293.15
293.15
293.15
293.15
293.15
293.15
293.15
293.15
293.15
293.15
293.151
293.15
293.15
293.15
293.15
293.15
293.15
293.15
293.15
293.15
293.15
293.15
293.15
293.15
293.15
293.15
293.15
293.15
293.15
293.15
293.15
293.15
293.15
293.15
293.15
293.15
293.15
293.15
293.15
293.15
293.15
293.15
293.15
293.15
293.15
293.15
293.15
293.15
293.15
293.15
293.15
293.15
293.15
293.15
293.15
293.15
293.15
293.15
293.15
293.15
293.15
293.15
293.15
293.15
293.15
293.15
293.15
293.15
293.15
293.15
293.15
293.15
293.15
293.15
293.15
293.15
293.15
293.15
293.15
293.15
293.15
293.15
293.15
293.15
293.15
293.15
293.15
293.15
293.15
293.15
293.15
293.15
293.15
293.15
293.15
293.15
293.15
293.15
293.15
293.15
293.15
293.15
293.15
293.15
293.15
293.15
293.15
293.15
293.15
293.15
293.15
393.15
393.15
393.15
393.15
393.15
393.15
393.15
393.15
393.15
393.15
393.15
393.15
393.15
393.15
393.15
393.15
393.15
393.15
393.15
393.15
393.15
393.15
393.15
393.15
393.15
393.15
393.15
393.15
393.15
393.15
393.15
393.15
393.15
393.15
393.15
393.15
393.15
393.15
393.15
393.15
393.15
393.15
393.15
393.15
393.15
393.15
393.15
393.15
393.15
393.15
393.15
393.15
393.15
393.15
393.15
393.15
393.15
393.15
393.15
393.15
393.15
393.15
393.15
393.15
393.15
393.15
393.15
393.15
393.15
393.15
393.15
393.15
393.15
393.15
393.15
393.15
393.15
393.15
393.15
393.15
393.15
393.15
393.15
393.15
393.15
393.15
393.15
393.15
393.15
393.15
393.15
393.15
393.15
393.15
393.15
393.15
393.15
393.15
393.15
393.15
393.15
393.15
393.15
393.15
393.15
393.15
393.15
393.15
393.15
393.15
393.15
393.15
393.15
393.15
393.15
393.15
393.15
393.15
393.15
393.15
393.15
393.15
393.15
393.15
393.15
393.15
393.15
393.15
393.15
393.15
393.15
393.15
393.15
393.15
393.15
393.15
393.15
393.15
393.15
393.15
393.15
393.15
393.15
393.15
393.15
393.15
393.15
393.15
393.15
393.15
393.15
393.15
393.15
393.15
393.15
393.15
393.15
393.15
393.15
393.15
393.15
393.15
393.15
393.15
393.15
393.15
393.15
393.15
393.15
393.15
393.15
393.15
393.15
393.15
393.15
393.15
393.15
393.15
393.15
393.15
393.15
393.15
393.15
393.15
393.15
393.15
393.15
393.15
393.15
393.15
393.15
393.15
393.15
393.15
393.15
393.15
393.15
393.15
393.15
393.15
393.15
393.15
393.15
393.15
393.15
393.15
393.15
393.15
393.15
393.15
393.15
393.15
393.15
393.15
393.15
393.15
393.15
393.15
393.15
393.15
393.15
393.15
393.15
393.15
393.15
393.15
393.15
393.15
393.15
393.15
393.15
393.15
393.15
393.15
393.15
393.15
393.15
393.15
393.15
393.15
393.15
393.15
393.15
393.15
393.15
393.15
393.15
393.15
393.15
393.15
393.15
393.15
393.15
393.15
393.15
393.15
393.15
393.15
393.15
393.15
393.15
393.15
393.15
393.15
393.15
393.15
393.15
393.15
393.15
393.15
393.15
393.15
393.15
393.15
393.15
393.15
393.15
393.15
393.15
393.15
393.15
393.15
393.15
393.15
393.15
393.15
393.15
393.15
393.15
393.15
393.15
393.15
393.15
393.15
393.15
393.15
393.15
393.15
393.15
393.15
393.15
393.15
393.15
393.15
393.15
393.15
393.15
393.15
393.15
393.15
393.15
393.15
393.15
393.15
393.15
393.15
393.15
393.15
393.15
393.15
393.15
393.15
393.15
393.15
393.15
393.15
393.15
393.15
393.15
393.15
393.15
393.15
393.15
393.15
393.15
393.15
393.15
393.15
393.15
393.15
393.15
393.15
393.15
393.15
393.15
393.15
393.15
393.15
393.15
393.15
393.15
393.15
393.15
393.15
393.15
393.15
393.15
393.15
393.15
393.15
393.15
393.15
393.15
393.15
393.15
393.15
393.15
393.15
393.15
393.15
393.15
393.15
393.15
393.15
393.15
393.15
393.15
393.15
393.15
393.15
393.15
393.15
393.15
393.15
393.15
393.15
393.15
393.15
393.15
393.15
393.15
393.15
393.15
393.15
393.15
393.15
393.15
393.15
393.15
393.15
393.15
393.15
393.15
393.15
393.15
393.15
393.15
393.15
393.15
393.15
393.15
393.15
393.15
393.15
393.15
393.15
393.15
393.15
393.15
393.15
393.15
393.15
393.15
393.15
393.15
393.15
393.15
393.15
393.15
393.15
393.15
393.15
393.15
393.15
393.15
393.15
393.15
393.15
393.15
393.15
393.15
393.15
393.15
393.15
393.15
393.15
393.15
393.15
393.15
393.15
393.15
393.15
393.15
393.15
393.15
393.15
393.15
393.15
393.15
393.15
393.15
393.15
393.15
393.15
393.15
393.15
393.15
393.15
393.15
393.15
393.15
393.15
393.15
393.15
393.15
393.15
393.15
393.15
393.15
393.15
393.15
393.15
393.15
393.15
393.15
393.15
393.15
393.15
393.15
393.15
393.15
393.15
393.15
393.15
393.15
393.15
393.15
393.15
393.15
393.15
393.15
393.15
393.15
393.15
393.15
393.15
393.15
393.15
393.15
393.15
393.15
393.15
393.15
393.15
393.15
393.15
393.15
393.15
393.15
393.15
393.15
393.15
393.15
393.15
393.15
393.15
393.15
393.15
393.15
393.15
393.15
393.15
393.15
393.15
393.15
393.15
393.15
393.15
393.15
393.15
393.15
393.15
393.15
393.15
393.15
393.15
393.15
393.15
393.15
393.15
393.15
393.15
393.15
393.15
393.15
393.15
393.15
393.15
393.15
393.15
393.15
393.15
393.15
393.15
393.15
393.15
393.15
393.15
393.15
393.15
393.15
393.15
393.15
393.15
393.15
393.15
393.15
393.15
393.15
393.15
393.15
393.15
393.15
393.15
393.15
393.15
393.15
393.15
393.15
393.15
393.15
393.15
393.15
393.15
393.15
393.15
393.15
393.15
393.15
393.15
393.15
393.15
393.15
393.15
393.15
393.15
393.15
393.15
393.15
393.15
393.15
393.15
393.15
393.15
393.15
393.15
393.15
393.15
393.15
393.15
393.15
393.15
393.15
393.15
393.15
393.15
393.15
393.15
393.15
393.15
393.15
393.15
393.15
393.15
393.15
393.15
393.15
393.15
393.15
393.15
393.15
393.15
393.15
393.15
393.15
393.15
393.15
393.15
393.15
393.15
393.15
393.15
393.15
393.15
393.15
393.15
393.15
393.15
393.15
393.15
393.15
393.15
393.15
393.15
393.15
393.15
393.15
393.15
393.15
393.15
393.15
393.15
393.15
393.15
393.15
393.15
393.15
393.15
393.15
393.15
393.15
393.15
393.15
393.15
393.15
393.15
393.15
393.15
393.15
393.15
393.15
393.15
393.15
393.15
393.15
393.15
393.15
393.15
393.15
393.15
393.15
393.15
393.15
393.15
393.15
393.15
393.15
393.15
393.15
393.15
393.15
393.15
393.15
393.15
393.15
393.15
393.15
393.15
393.15
393.15
393.15
393.15
393.15
393.15
393.15
393.15
393.15
393.15
393.15
393.15
393.15
393.15
393.15
393.15
393.15
393.15
393.15
393.15
393.15
393.15
393.15
393.15
393.15
393.15
393.15
393.15
393.15
393.15
393.15
393.15
393.15
393.15
393.15
393.15
393.15
393.15
393.15
393.15
393.15
393.15
393.15
393.15
393.15
393.15
393.15
393.15
393.15
393.15
393.15
393.15
393.15
393.15
393.15
393.15
393.15
393.15
393.15
393.15
393.15
393.15
393.15
393.15
393.15
393.15
393.15
393.15
393.15
393.15
393.15
393.15
393.15
393.15
393.15
393.15
393.15
393.15
393.15
393.15
393.15
393.15
393.15
393.15
393.15
393.15
393.15
393.15
393.15
393.15
393.15
393.15
393.15
393.15
393.15
393.15
393.15
393.15
393.15
393.15
393.15
393.15
393.15
393.15
393.15
393.15
393.15
393.15
393.15
393.15
393.15
393.15
393.15
393.15
393.15
393.15
393.15
393.15
393.15
393.15
393.15
393.15
393.15
393.15
393.15
393.15
393.15
393.15
393.15
393.15
393.15
393.15
393.15
393.15
393.15
393.15
393.15
393.15
393.15
393.15
393.15
393.15
393.15
393.15
393.15
393.15
393.15
393.15
393.15
393.15
393.15
393.15
393.15
393.15
393.15
393.15
393.15
393.15
393.15
393.15
393.15
393.15
393.15
393.15
393.15
393.15
393.15
393.15
393.15
393.15
393.15
393.15
393.15
393.15
393.15
393.15
393.15
393.15
393.15
393.15
393.15
393.15
393.15
393.15
393.15
393.15
393.15
393.15
393.15
393.15
393.15
393.15
393.15
393.15
393.15
393.15
393.15
393.15
393.15
393.15
393.15
393.15
393.15
393.15
393.15
393.15
393.15
393.15
393.15
393.15
393.15
393.15
393.15
393.15
393.15
393.15
393.15
393.15
393.15
393.15
393.15
393.15
393.15
393.15
393.15
393.15
393.15
393.15
393.15
393.15
393.15
393.15
393.15
393.15
393.15
393.15
393.15
393.15
393.15
393.15
393.15
393.15
393.15
393.15
393.15
393.15
393.15
393.15
393.15
393.15
393.15
393.15
393.15
393.15
393.15
393.15
393.15
393.15
393.15
393.15
393.15
393.15
393.15
393.15
393.15
393.15
393.15
393.15
393.15
393.15
393.15
393.15
393.15
393.15
393.15
393.15
393.15
393.15
393.15
393.15
393.15
393.15
393.15
393.15
393.15
393.15
393.15
393.15
393.15
393.15
393.15
393.15
393.15
393.15
393.15
393.15
393.15
393.15
393.15
393.15
393.15
393.15
393.15
393.15
393.15
393.15
393.15
393.15
393.15
393.15
393.15
393.15
393.15
393.15
393.15
393.15
393.15
393.15
393.15
393.15
393.15
393.15
393.15
393.15
393.15
393.15
393.15
393.15
393.15
393.15
393.15
393.15
393.15
393.15
393.15
393.15
393.15
393.15
393.15
393.15
393.15
393.15
393.15
393.15
393.15
393.15
393.15
393.15
393.15
393.15
393.15
393.15
393.15
393.15
393.15
393.15
393.15
393.15
393.15
393.15
393.15
393.15
393.15
393.15
393.15
393.15
393.15
393.15
393.15
393.15
393.15
393.15
393.15
393.15
393.15
393.15
393.15
393.15
393.15
393.15
393.15
393.15
393.15
393.15
393.15
393.15
393.15
393.15
393.15
393.15
393.15
393.15
393.15
393.15
393.15
393.15
393.15
393.15
393.15
393.15
393.15
393.15
393.15
393.15
393.15
393.15
393.15
393.15
393.15
393.15
393.15
393.15
393.15
393.15
393.15
393.15
393.15
393.15
393.15
393.15
393.15
393.15
393.15
393.15
393.15
393.15
393.15
393.15
393.15
393.15
393.15
393.15
393.15
393.15
393.15
393.15
393.15
393.15
393.15
393.15
393.15
393.15
393.15
393.15
393.15
393.15
393.15
393.15
393.15
393.15
393.15
393.15
393.15
393.15
393.15
393.15
393.15
393.15
393.15
393.15
393.15
393.15
393.15
393.15
393.15
393.15
393.15
393.15
393.15
393.15
393.15
393.15
393.15
393.15
393.15
393.15
393.15
393.15
393.15
393.15
393.15
393.15
393.15
393.15
393.15
393.15
393.15
393.15
393.15
393.15
393.15
393.15
393.15
393.15
393.15
393.15
393.15
393.15
393.15
393.15
393.15
393.15
393.15
393.15
393.15
393.15
393.15
393.15
393.15
393.15
393.15
393.15
393.15
393.15
393.15
393.15
393.15
393.15
393.15
393.15
393.15
393.15
393.15
393.15
393.15
393.15
393.15
393.15
393.15
393.15
393.15
393.15
393.15
393.15
393.15
393.15
393.15
393.15
393.15
393.15
393.15
393.15
393.15
393.15
393.15
393.15
393.15
393.15
393.15
393.15
393.15
393.15
393.15
393.15
393.15
393.15
393.15
393.15
393.15
393.15
393.15
393.15
393.15
393.15
393.15
393.15
393.15
393.15
393.15
393.15
393.15
393.15
393.15
393.15
393.15
393.15
393.15
393.15
393.15
393.15
393.15
393.15
393.15
393.15
393.15
393.15
393.15
393.15
393.15
393.15
393.15
393.15
393.15
393.15
393.15
393.15
393.15
393.15
393.15
393.15
393.15
393.15
393.15
393.15
393.15
393.15
393.15
393.15
393.15
393.15
393.15
393.15
393.15
393.15
393.15
393.15
393.15
393.15
393.15
393.15
393.15
393.15
393.15
393.15
393.15
393.15
393.15
393.15
393.15
393.15
393.15
393.15
393.15
393.15
393.15
393.15
393.15
393.15
393.15
393.15
393.15
393.15
393.15
393.15
393.15
393.15
393.15
393.15
393.15
393.15
393.15
393.15
393.15
393.15
393.15
393.15
393.15
393.15
393.15
393.15
393.15
393.15
393.15
393.15
393.15
393.15
393.15
393.15
393.15
393.15
393.15
393.15
393.15
393.15
393.15
393.15
393.15
393.15
393.15
393.15
393.15
393.15
393.15
393.15
393.15
393.15
393.15
393.15
393.15
393.15
393.15
393.15
393.15
393.15
393.15
393.15
393.15
393.15
393.15
393.15
393.15
393.15
393.15
393.15
393.15
393.15
393.15
393.15
393.15
393.15
393.15
393.15
393.15
393.15
393.15
393.15
393.15
393.15
393.15
393.15
393.15
393.15
393.15
393.15
393.15
393.15
393.15
393.15
393.15
393.15
393.15
393.15
393.15
393.15
393.15
393.15
393.15
393.15
393.15
393.15
393.15
393.15
393.15
393.15
393.15
393.15
393.15
393.15
393.15
393.15
393.15
393.15
393.15
393.15
393.15
393.15
393.15
393.15
393.15
393.15
393.15
393.15
393.15
393.15
393.15
393.15
393.15
393.15
393.15
393.15
393.15
393.15
393.15
393.15
393.15
393.15
393.15
393.15
393.15
393.15