/*--------------------------------*- C++ -*----------------------------------*\
| =========                 |                                                 |
| \\      /  F ield         | OpenFOAM: The Open Source CFD Toolbox           |
|  \\    /   O peration     | Version:  2.1.0                                 |
|   \\  /    A nd           | Web:      www.OpenFOAM.org                      |
|    \\/     M anipulation  |                                                 |
\*---------------------------------------------------------------------------*/
FoamFile
{
    version     2.0;
    format      ascii;
    class       volVectorField;
    location    "0.4";
    object      U;
}
// * * * * * * * * * * * * * * * * * * * * * * * * * * * * * * * * * * * * * //

dimensions      [0 1 -1 0 0 0 0];

internalField   nonuniform List<vector> 
6400
(
(-1.30115 -5.40542e-05 0)
(-1.30011 -0.000518273 0)
(-1.29783 -0.000806261 0)
(-1.29459 -0.000952918 0)
(-1.29089 -0.00104003 0)
(-1.28689 -0.00109863 0)
(-1.28269 -0.00114087 0)
(-1.27832 -0.00117403 0)
(-1.27383 -0.00120195 0)
(-1.26923 -0.00122705 0)
(-1.26452 -0.00125067 0)
(-1.25972 -0.00127361 0)
(-1.25482 -0.00129636 0)
(-1.24982 -0.00131912 0)
(-1.24473 -0.00134215 0)
(-1.23954 -0.00136544 0)
(-1.23426 -0.00138916 0)
(-1.22887 -0.00141324 0)
(-1.22338 -0.0014378 0)
(-1.21779 -0.00146267 0)
(-1.21209 -0.00148795 0)
(-1.20629 -0.0015136 0)
(-1.20039 -0.0015399 0)
(-1.19437 -0.00156646 0)
(-1.18824 -0.00159335 0)
(-1.182 -0.00162138 0)
(-1.17564 -0.00165096 0)
(-1.16916 -0.00168149 0)
(-1.16255 -0.00171297 0)
(-1.15581 -0.00174538 0)
(-1.14894 -0.00177887 0)
(-1.14193 -0.00181345 0)
(-1.13477 -0.00184927 0)
(-1.12747 -0.0018864 0)
(-1.12002 -0.00192494 0)
(-1.1124 -0.0019649 0)
(-1.10463 -0.00200641 0)
(-1.09668 -0.00204951 0)
(-1.08855 -0.00209435 0)
(-1.08025 -0.00214112 0)
(-1.07175 -0.00219 0)
(-1.06305 -0.00224101 0)
(-1.05414 -0.00229425 0)
(-1.04501 -0.00234982 0)
(-1.03566 -0.00240777 0)
(-1.02607 -0.00246812 0)
(-1.01624 -0.00253088 0)
(-1.00615 -0.00259595 0)
(-0.995796 -0.00266319 0)
(-0.985172 -0.00273291 0)
(-0.974269 -0.00280353 0)
(-0.963083 -0.00287507 0)
(-0.951603 -0.00295158 0)
(-0.939808 -0.00303348 0)
(-0.927679 -0.00311879 0)
(-0.915214 -0.00320455 0)
(-0.902414 -0.0032876 0)
(-0.889288 -0.0033683 0)
(-0.875843 -0.00344881 0)
(-0.862075 -0.00353074 0)
(-0.847979 -0.00361471 0)
(-0.833545 -0.00370064 0)
(-0.818766 -0.00378928 0)
(-0.803629 -0.00388131 0)
(-0.788121 -0.00397689 0)
(-0.772226 -0.00407662 0)
(-0.755927 -0.00418082 0)
(-0.739206 -0.00429029 0)
(-0.72204 -0.00440546 0)
(-0.704407 -0.00452677 0)
(-0.686282 -0.00465456 0)
(-0.667637 -0.00478953 0)
(-0.648445 -0.00493216 0)
(-0.628671 -0.00508332 0)
(-0.608283 -0.00524397 0)
(-0.587239 -0.00541538 0)
(-0.565493 -0.0055992 0)
(-0.542995 -0.00579747 0)
(-0.519679 -0.00601309 0)
(-0.495471 -0.00625032 0)
(-0.470274 -0.00651445 0)
(-0.44397 -0.00681204 0)
(-0.416411 -0.00715151 0)
(-0.387413 -0.00754207 0)
(-0.356762 -0.00799068 0)
(-0.324226 -0.00849981 0)
(-0.289575 -0.00906478 0)
(-0.252632 -0.00966511 0)
(-0.213359 -0.0102496 0)
(-0.172038 -0.0107071 0)
(-0.129614 -0.0108111 0)
(-0.088356 -0.0101147 0)
(-0.0524249 -0.00810045 0)
(-0.0269993 -0.00477402 0)
(-0.0156861 -0.000945022 0)
(-0.0201989 0.00320641 0)
(-0.0489842 0.0113414 0)
(-0.129084 0.0292081 0)
(-0.328863 0.0711581 0)
(-0.948429 0.198981 0)
(-1.56883 -0.000355341 0)
(-1.56581 -0.00169293 0)
(-1.56377 -0.00244936 0)
(-1.56039 -0.00285207 0)
(-1.55667 -0.00309641 0)
(-1.55267 -0.00326121 0)
(-1.54851 -0.00338012 0)
(-1.5442 -0.00347329 0)
(-1.5398 -0.00355177 0)
(-1.53529 -0.0036222 0)
(-1.5307 -0.00368854 0)
(-1.52602 -0.0037529 0)
(-1.52127 -0.00381682 0)
(-1.51643 -0.00388082 0)
(-1.51151 -0.00394568 0)
(-1.5065 -0.00401138 0)
(-1.50141 -0.00407842 0)
(-1.49623 -0.00414657 0)
(-1.49096 -0.00421618 0)
(-1.48561 -0.0042868 0)
(-1.48016 -0.00435864 0)
(-1.47462 -0.00443145 0)
(-1.46898 -0.00450604 0)
(-1.46325 -0.00458115 0)
(-1.45742 -0.00465636 0)
(-1.4515 -0.00473413 0)
(-1.44549 -0.00481582 0)
(-1.43937 -0.00489962 0)
(-1.43316 -0.00498568 0)
(-1.42685 -0.00507403 0)
(-1.42043 -0.00516504 0)
(-1.41391 -0.00525881 0)
(-1.40728 -0.00535567 0)
(-1.40054 -0.0054558 0)
(-1.39369 -0.00555948 0)
(-1.38672 -0.00566675 0)
(-1.37963 -0.00577794 0)
(-1.37242 -0.00589326 0)
(-1.36509 -0.00601297 0)
(-1.35762 -0.00613729 0)
(-1.35002 -0.00626688 0)
(-1.34229 -0.00640184 0)
(-1.33441 -0.00654243 0)
(-1.32638 -0.006689 0)
(-1.3182 -0.00684174 0)
(-1.30986 -0.00700084 0)
(-1.30136 -0.00716649 0)
(-1.29268 -0.00733869 0)
(-1.28382 -0.00751723 0)
(-1.27477 -0.00770295 0)
(-1.26551 -0.00789294 0)
(-1.25606 -0.00808437 0)
(-1.24641 -0.00828122 0)
(-1.23659 -0.00848425 0)
(-1.2266 -0.00869179 0)
(-1.21645 -0.00890113 0)
(-1.20614 -0.00910787 0)
(-1.19565 -0.00931165 0)
(-1.18498 -0.00951563 0)
(-1.17413 -0.00972289 0)
(-1.1631 -0.00993485 0)
(-1.15188 -0.0101515 0)
(-1.14047 -0.0103743 0)
(-1.12886 -0.0106042 0)
(-1.11707 -0.0108419 0)
(-1.10507 -0.0110887 0)
(-1.09288 -0.0113455 0)
(-1.08048 -0.011614 0)
(-1.06786 -0.0118956 0)
(-1.05503 -0.0121916 0)
(-1.04196 -0.0125035 0)
(-1.02866 -0.0128333 0)
(-1.01509 -0.0131827 0)
(-1.00124 -0.0135544 0)
(-0.987089 -0.0139517 0)
(-0.972605 -0.0143782 0)
(-0.957754 -0.0148391 0)
(-0.942494 -0.0153399 0)
(-0.926776 -0.0158884 0)
(-0.910542 -0.0164956 0)
(-0.893725 -0.0171746 0)
(-0.876245 -0.0179405 0)
(-0.858018 -0.0188124 0)
(-0.838944 -0.0198108 0)
(-0.818921 -0.0209512 0)
(-0.797841 -0.0222383 0)
(-0.77561 -0.0236566 0)
(-0.752176 -0.0251503 0)
(-0.727578 -0.0265882 0)
(-0.702019 -0.0276998 0)
(-0.675958 -0.0279609 0)
(-0.650168 -0.0264163 0)
(-0.626024 -0.0218281 0)
(-0.606436 -0.0136287 0)
(-0.600415 -0.00104947 0)
(-0.615556 0.0131787 0)
(-0.663903 0.0398114 0)
(-0.76794 0.0920952 0)
(-0.970915 0.204408 0)
(-1.45962 0.526469 0)
(-1.71886 -0.0009431 0)
(-1.71493 -0.00293545 0)
(-1.71373 -0.00402642 0)
(-1.71091 -0.00463479 0)
(-1.70776 -0.00501015 0)
(-1.70441 -0.00526331 0)
(-1.70091 -0.00544485 0)
(-1.69732 -0.00558658 0)
(-1.69363 -0.00570494 0)
(-1.68988 -0.00581092 0)
(-1.68606 -0.00591008 0)
(-1.68219 -0.00600628 0)
(-1.67825 -0.00610151 0)
(-1.67427 -0.00619705 0)
(-1.67022 -0.00629379 0)
(-1.66613 -0.00639209 0)
(-1.66196 -0.00649248 0)
(-1.65775 -0.00659495 0)
(-1.65346 -0.0066999 0)
(-1.64911 -0.006807 0)
(-1.6447 -0.00691639 0)
(-1.64021 -0.00702794 0)
(-1.63565 -0.00714278 0)
(-1.63101 -0.00725944 0)
(-1.62629 -0.00737598 0)
(-1.6215 -0.00749372 0)
(-1.61662 -0.00761413 0)
(-1.61169 -0.00773611 0)
(-1.60669 -0.00786045 0)
(-1.60163 -0.00798752 0)
(-1.5965 -0.0081178 0)
(-1.59132 -0.00825148 0)
(-1.58606 -0.00838891 0)
(-1.58075 -0.00853034 0)
(-1.57538 -0.00867605 0)
(-1.56994 -0.00882613 0)
(-1.56444 -0.00898087 0)
(-1.55888 -0.00914068 0)
(-1.55325 -0.00930583 0)
(-1.54757 -0.00947608 0)
(-1.54183 -0.00965237 0)
(-1.53603 -0.00983491 0)
(-1.53017 -0.0100238 0)
(-1.52426 -0.0102197 0)
(-1.51829 -0.0104227 0)
(-1.51228 -0.010633 0)
(-1.50622 -0.010851 0)
(-1.50012 -0.0110767 0)
(-1.49397 -0.0113101 0)
(-1.48779 -0.0115511 0)
(-1.48157 -0.0117977 0)
(-1.47533 -0.0120462 0)
(-1.46907 -0.0122944 0)
(-1.46279 -0.0125411 0)
(-1.4565 -0.012787 0)
(-1.45022 -0.0130342 0)
(-1.44395 -0.0132828 0)
(-1.43768 -0.013531 0)
(-1.4314 -0.0137794 0)
(-1.42514 -0.01403 0)
(-1.41888 -0.0142836 0)
(-1.41264 -0.0145403 0)
(-1.40644 -0.014801 0)
(-1.40028 -0.0150661 0)
(-1.39418 -0.0153364 0)
(-1.38816 -0.0156128 0)
(-1.38222 -0.0158962 0)
(-1.37638 -0.016188 0)
(-1.37067 -0.0164897 0)
(-1.36511 -0.016803 0)
(-1.35971 -0.0171299 0)
(-1.35449 -0.0174733 0)
(-1.34948 -0.0178354 0)
(-1.34469 -0.0182205 0)
(-1.34014 -0.0186334 0)
(-1.33585 -0.01908 0)
(-1.33183 -0.0195679 0)
(-1.32808 -0.0201061 0)
(-1.3246 -0.0207053 0)
(-1.32139 -0.0213812 0)
(-1.31843 -0.0221519 0)
(-1.31569 -0.0230366 0)
(-1.31314 -0.0240577 0)
(-1.31075 -0.0252384 0)
(-1.30848 -0.0265963 0)
(-1.3063 -0.0281351 0)
(-1.30417 -0.0298283 0)
(-1.30211 -0.0315936 0)
(-1.30016 -0.0332521 0)
(-1.29848 -0.0344559 0)
(-1.29732 -0.0345777 0)
(-1.29702 -0.0325702 0)
(-1.2981 -0.0269381 0)
(-1.30205 -0.0161631 0)
(-1.31091 0.00207689 0)
(-1.32798 0.0262305 0)
(-1.3674 0.0695502 0)
(-1.4436 0.149689 0)
(-1.5875 0.311527 0)
(-1.85848 0.719445 0)
(-1.85405 -0.00162095 0)
(-1.84984 -0.00394624 0)
(-1.84966 -0.00527642 0)
(-1.84773 -0.00604737 0)
(-1.84556 -0.00652761 0)
(-1.84324 -0.00684931 0)
(-1.8408 -0.00707686 0)
(-1.83831 -0.00725226 0)
(-1.83576 -0.00739605 0)
(-1.83318 -0.00752346 0)
(-1.83056 -0.00764089 0)
(-1.82794 -0.00775422 0)
(-1.82527 -0.00786534 0)
(-1.82261 -0.00797665 0)
(-1.81991 -0.00808872 0)
(-1.81721 -0.00820263 0)
(-1.81448 -0.00831856 0)
(-1.81176 -0.00843705 0)
(-1.809 -0.00855831 0)
(-1.80625 -0.00868241 0)
(-1.80348 -0.00880918 0)
(-1.8007 -0.00893886 0)
(-1.7979 -0.00907225 0)
(-1.7951 -0.0092083 0)
(-1.79229 -0.00934569 0)
(-1.78949 -0.00948321 0)
(-1.78666 -0.00962024 0)
(-1.78384 -0.00975738 0)
(-1.781 -0.00989596 0)
(-1.77816 -0.0100367 0)
(-1.77533 -0.01018 0)
(-1.7725 -0.0103262 0)
(-1.76968 -0.0104754 0)
(-1.76687 -0.0106279 0)
(-1.76407 -0.0107838 0)
(-1.76128 -0.0109431 0)
(-1.75852 -0.0111058 0)
(-1.75579 -0.0112723 0)
(-1.75308 -0.0114429 0)
(-1.75042 -0.0116169 0)
(-1.74779 -0.0117952 0)
(-1.74521 -0.0119776 0)
(-1.74269 -0.0121639 0)
(-1.74024 -0.0123546 0)
(-1.73786 -0.0125494 0)
(-1.73556 -0.0127483 0)
(-1.73336 -0.0129512 0)
(-1.73127 -0.0131578 0)
(-1.7293 -0.0133677 0)
(-1.72746 -0.0135795 0)
(-1.72578 -0.0137916 0)
(-1.72426 -0.0140048 0)
(-1.72291 -0.014218 0)
(-1.72171 -0.0144274 0)
(-1.72066 -0.0146321 0)
(-1.71978 -0.0148345 0)
(-1.71907 -0.0150361 0)
(-1.71854 -0.0152356 0)
(-1.71821 -0.0154319 0)
(-1.71809 -0.0156254 0)
(-1.71819 -0.0158156 0)
(-1.71852 -0.016002 0)
(-1.71912 -0.0161851 0)
(-1.71999 -0.0163652 0)
(-1.72116 -0.0165427 0)
(-1.72263 -0.0167181 0)
(-1.72442 -0.0168924 0)
(-1.72656 -0.0170664 0)
(-1.72905 -0.0172417 0)
(-1.73191 -0.0174204 0)
(-1.73516 -0.017605 0)
(-1.73879 -0.017799 0)
(-1.74282 -0.0180062 0)
(-1.74724 -0.0182322 0)
(-1.75205 -0.0184838 0)
(-1.75724 -0.0187694 0)
(-1.76279 -0.0190999 0)
(-1.76867 -0.0194878 0)
(-1.77485 -0.0199466 0)
(-1.78129 -0.0204962 0)
(-1.78794 -0.0211594 0)
(-1.79474 -0.0219581 0)
(-1.80164 -0.0229162 0)
(-1.80858 -0.0240567 0)
(-1.8155 -0.0253958 0)
(-1.82238 -0.0269327 0)
(-1.82918 -0.0286301 0)
(-1.83592 -0.0303867 0)
(-1.84265 -0.0319947 0)
(-1.84946 -0.0330722 0)
(-1.85644 -0.0329678 0)
(-1.86361 -0.0306484 0)
(-1.87096 -0.024565 0)
(-1.879 -0.0128204 0)
(-1.88824 0.0063515 0)
(-1.89935 0.0363277 0)
(-1.92202 0.0892597 0)
(-1.96331 0.185901 0)
(-2.03258 0.375428 0)
(-2.13347 0.778179 0)
(-1.98998 -0.00220532 0)
(-1.98615 -0.0045938 0)
(-1.9871 -0.00603121 0)
(-1.98639 -0.00689692 0)
(-1.98565 -0.0074421 0)
(-1.98479 -0.00780216 0)
(-1.98393 -0.00805253 0)
(-1.98304 -0.00823994 0)
(-1.98216 -0.00838961 0)
(-1.98129 -0.00851838 0)
(-1.98043 -0.00863449 0)
(-1.9796 -0.00874425 0)
(-1.9788 -0.00885032 0)
(-1.97803 -0.00895516 0)
(-1.9773 -0.00905962 0)
(-1.97661 -0.00916472 0)
(-1.97595 -0.00927071 0)
(-1.97535 -0.00937801 0)
(-1.9748 -0.00948691 0)
(-1.97431 -0.00959753 0)
(-1.97387 -0.00970908 0)
(-1.97351 -0.00982166 0)
(-1.97321 -0.0099359 0)
(-1.97299 -0.0100508 0)
(-1.97286 -0.0101676 0)
(-1.97282 -0.0102862 0)
(-1.97284 -0.0104045 0)
(-1.97295 -0.0105219 0)
(-1.97312 -0.0106393 0)
(-1.97339 -0.0107572 0)
(-1.97373 -0.0108759 0)
(-1.97416 -0.0109957 0)
(-1.97469 -0.0111167 0)
(-1.97532 -0.0112388 0)
(-1.97605 -0.0113622 0)
(-1.97689 -0.0114865 0)
(-1.97785 -0.0116118 0)
(-1.97893 -0.011738 0)
(-1.98013 -0.0118651 0)
(-1.98147 -0.0119929 0)
(-1.98295 -0.0121218 0)
(-1.98458 -0.012251 0)
(-1.98637 -0.0123806 0)
(-1.98831 -0.0125104 0)
(-1.99042 -0.0126403 0)
(-1.99271 -0.0127698 0)
(-1.99518 -0.0128987 0)
(-1.99784 -0.0130266 0)
(-2.00069 -0.0131528 0)
(-2.00375 -0.013276 0)
(-2.007 -0.0133951 0)
(-2.01045 -0.0135127 0)
(-2.01412 -0.0136308 0)
(-2.018 -0.0137454 0)
(-2.0221 -0.0138539 0)
(-2.02642 -0.0139567 0)
(-2.03097 -0.0140544 0)
(-2.03574 -0.0141463 0)
(-2.04075 -0.014232 0)
(-2.04598 -0.0143117 0)
(-2.05145 -0.0143843 0)
(-2.05715 -0.0144489 0)
(-2.06308 -0.0145063 0)
(-2.06923 -0.0145572 0)
(-2.07561 -0.0146027 0)
(-2.0822 -0.0146436 0)
(-2.08901 -0.0146811 0)
(-2.09602 -0.0147167 0)
(-2.10322 -0.0147527 0)
(-2.11061 -0.0147916 0)
(-2.11817 -0.0148368 0)
(-2.12589 -0.0148927 0)
(-2.13376 -0.0149646 0)
(-2.14177 -0.0150592 0)
(-2.1499 -0.0151848 0)
(-2.15814 -0.0153515 0)
(-2.16649 -0.015572 0)
(-2.17491 -0.0158624 0)
(-2.18341 -0.0162353 0)
(-2.19197 -0.0167132 0)
(-2.20057 -0.0173228 0)
(-2.2092 -0.0180851 0)
(-2.21785 -0.0190239 0)
(-2.22651 -0.0201604 0)
(-2.23518 -0.0215067 0)
(-2.24386 -0.0230565 0)
(-2.25257 -0.0247648 0)
(-2.26132 -0.0265194 0)
(-2.27012 -0.0281027 0)
(-2.27897 -0.0291341 0)
(-2.28779 -0.028991 0)
(-2.29634 -0.0267279 0)
(-2.30405 -0.0208919 0)
(-2.31105 -0.00966813 0)
(-2.31631 0.00911194 0)
(-2.31904 0.0408201 0)
(-2.32364 0.0971689 0)
(-2.32968 0.199366 0)
(-2.32773 0.392789 0)
(-2.31017 0.744548 0)
(-2.13331 -0.00252978 0)
(-2.13053 -0.00475417 0)
(-2.13267 -0.00614253 0)
(-2.13351 -0.00700294 0)
(-2.13451 -0.00754795 0)
(-2.13553 -0.00790042 0)
(-2.13664 -0.0081389 0)
(-2.13779 -0.00830869 0)
(-2.13902 -0.00843806 0)
(-2.1403 -0.00854302 0)
(-2.14166 -0.00863355 0)
(-2.1431 -0.00871524 0)
(-2.14461 -0.00879173 0)
(-2.14621 -0.00886489 0)
(-2.14789 -0.00893614 0)
(-2.14966 -0.00900598 0)
(-2.15152 -0.00907499 0)
(-2.15349 -0.00914317 0)
(-2.15555 -0.00921087 0)
(-2.15772 -0.0092787 0)
(-2.15999 -0.0093448 0)
(-2.16238 -0.00940874 0)
(-2.16488 -0.00947254 0)
(-2.16751 -0.00953544 0)
(-2.17025 -0.00959923 0)
(-2.17311 -0.00966511 0)
(-2.1761 -0.00973118 0)
(-2.17922 -0.00979583 0)
(-2.18246 -0.00985915 0)
(-2.18584 -0.00992142 0)
(-2.18935 -0.00998288 0)
(-2.193 -0.0100437 0)
(-2.19678 -0.010104 0)
(-2.20071 -0.0101637 0)
(-2.20477 -0.0102229 0)
(-2.20899 -0.0102814 0)
(-2.21334 -0.0103392 0)
(-2.21783 -0.0103964 0)
(-2.22247 -0.0104526 0)
(-2.22726 -0.0105079 0)
(-2.23219 -0.0105626 0)
(-2.23727 -0.0106164 0)
(-2.24248 -0.0106691 0)
(-2.24784 -0.0107207 0)
(-2.25334 -0.0107714 0)
(-2.25897 -0.0108207 0)
(-2.26474 -0.0108685 0)
(-2.27063 -0.0109148 0)
(-2.27665 -0.010959 0)
(-2.28279 -0.0110006 0)
(-2.28905 -0.0110393 0)
(-2.29541 -0.0110764 0)
(-2.30188 -0.0111128 0)
(-2.30846 -0.0111463 0)
(-2.31513 -0.0111752 0)
(-2.32189 -0.011199 0)
(-2.32873 -0.0112178 0)
(-2.33566 -0.0112315 0)
(-2.34265 -0.0112407 0)
(-2.34971 -0.0112459 0)
(-2.35682 -0.0112456 0)
(-2.36399 -0.0112387 0)
(-2.3712 -0.0112258 0)
(-2.37846 -0.0112081 0)
(-2.38576 -0.0111873 0)
(-2.3931 -0.0111639 0)
(-2.40048 -0.0111397 0)
(-2.40789 -0.0111163 0)
(-2.41533 -0.0110957 0)
(-2.42281 -0.0110807 0)
(-2.43032 -0.0110748 0)
(-2.43786 -0.0110822 0)
(-2.44544 -0.0111081 0)
(-2.45305 -0.0111593 0)
(-2.46071 -0.0112442 0)
(-2.46841 -0.0113728 0)
(-2.47616 -0.0115573 0)
(-2.48396 -0.0118152 0)
(-2.4918 -0.012158 0)
(-2.49973 -0.0126052 0)
(-2.50771 -0.0131835 0)
(-2.5158 -0.0139147 0)
(-2.52398 -0.0148223 0)
(-2.53229 -0.0159254 0)
(-2.54072 -0.0172339 0)
(-2.5493 -0.0187397 0)
(-2.55804 -0.020398 0)
(-2.56693 -0.022098 0)
(-2.57596 -0.0236313 0)
(-2.58505 -0.0246476 0)
(-2.59397 -0.0245925 0)
(-2.6023 -0.0226466 0)
(-2.60913 -0.0176122 0)
(-2.61425 -0.00779135 0)
(-2.6155 0.00941061 0)
(-2.61028 0.0396533 0)
(-2.59865 0.0937368 0)
(-2.5731 0.191578 0)
(-2.5116 0.369045 0)
(-2.4155 0.65273 0)
(-2.28067 -0.00248911 0)
(-2.27918 -0.00434275 0)
(-2.28244 -0.00553035 0)
(-2.28486 -0.00628053 0)
(-2.28751 -0.00675329 0)
(-2.29037 -0.00704985 0)
(-2.29333 -0.00724096 0)
(-2.29643 -0.00736625 0)
(-2.29961 -0.00745274 0)
(-2.30291 -0.00751477 0)
(-2.30627 -0.00756214 0)
(-2.30976 -0.00759981 0)
(-2.31331 -0.00763159 0)
(-2.31698 -0.00765904 0)
(-2.32072 -0.00768381 0)
(-2.32457 -0.0077062 0)
(-2.32849 -0.00772699 0)
(-2.33253 -0.00774604 0)
(-2.33664 -0.00776376 0)
(-2.34086 -0.00778122 0)
(-2.34515 -0.00779631 0)
(-2.34956 -0.00780729 0)
(-2.35404 -0.00781616 0)
(-2.35864 -0.00782311 0)
(-2.36333 -0.00782996 0)
(-2.36813 -0.00783739 0)
(-2.37302 -0.00784452 0)
(-2.37803 -0.00785029 0)
(-2.38314 -0.00785474 0)
(-2.38835 -0.00785796 0)
(-2.39366 -0.00786041 0)
(-2.39907 -0.00786222 0)
(-2.40456 -0.00786394 0)
(-2.41016 -0.00786546 0)
(-2.41584 -0.00786719 0)
(-2.4216 -0.00786887 0)
(-2.42744 -0.0078709 0)
(-2.43336 -0.00787317 0)
(-2.43935 -0.00787598 0)
(-2.4454 -0.00787913 0)
(-2.45151 -0.00788316 0)
(-2.45768 -0.00788794 0)
(-2.46389 -0.00789349 0)
(-2.47015 -0.00789989 0)
(-2.47645 -0.00790726 0)
(-2.48278 -0.00791538 0)
(-2.48913 -0.00792411 0)
(-2.49551 -0.00793339 0)
(-2.5019 -0.00794312 0)
(-2.50831 -0.00795241 0)
(-2.51472 -0.00796145 0)
(-2.52114 -0.0079707 0)
(-2.52756 -0.00798056 0)
(-2.53398 -0.00798941 0)
(-2.54039 -0.00799599 0)
(-2.5468 -0.00799973 0)
(-2.55319 -0.00799997 0)
(-2.55958 -0.00799646 0)
(-2.56596 -0.00799025 0)
(-2.57233 -0.00798244 0)
(-2.57869 -0.00797022 0)
(-2.58505 -0.00795116 0)
(-2.59139 -0.00792587 0)
(-2.59774 -0.00789549 0)
(-2.60409 -0.00786172 0)
(-2.61045 -0.00782463 0)
(-2.61683 -0.00778566 0)
(-2.62322 -0.00774613 0)
(-2.62965 -0.00770773 0)
(-2.6361 -0.00767293 0)
(-2.6426 -0.00764479 0)
(-2.64915 -0.00762719 0)
(-2.65577 -0.0076251 0)
(-2.66245 -0.0076451 0)
(-2.66922 -0.00769532 0)
(-2.67607 -0.00778568 0)
(-2.68303 -0.00792815 0)
(-2.69012 -0.00813756 0)
(-2.69731 -0.0084296 0)
(-2.70469 -0.0088228 0)
(-2.7122 -0.00933837 0)
(-2.71987 -0.00999924 0)
(-2.72772 -0.0108285 0)
(-2.73579 -0.0118441 0)
(-2.74408 -0.0130547 0)
(-2.75262 -0.0144537 0)
(-2.76142 -0.0160034 0)
(-2.77047 -0.0176036 0)
(-2.77968 -0.0190674 0)
(-2.78893 -0.0200949 0)
(-2.79789 -0.0202253 0)
(-2.80599 -0.0187909 0)
(-2.8121 -0.0149179 0)
(-2.81548 -0.00708276 0)
(-2.81355 0.00735997 0)
(-2.80138 0.033507 0)
(-2.77571 0.0804597 0)
(-2.72338 0.165223 0)
(-2.61583 0.312973 0)
(-2.47003 0.525814 0)
(-2.41319 -0.00209992 0)
(-2.41266 -0.00342393 0)
(-2.41666 -0.00431224 0)
(-2.42012 -0.00487842 0)
(-2.42378 -0.00522996 0)
(-2.42779 -0.00544164 0)
(-2.43184 -0.00556805 0)
(-2.43611 -0.00564044 0)
(-2.44038 -0.00568037 0)
(-2.4448 -0.00569965 0)
(-2.44922 -0.00570626 0)
(-2.45377 -0.00570441 0)
(-2.45831 -0.0056973 0)
(-2.46298 -0.00568639 0)
(-2.46764 -0.00567314 0)
(-2.47241 -0.00565791 0)
(-2.47718 -0.00564146 0)
(-2.48206 -0.0056237 0)
(-2.48694 -0.00560509 0)
(-2.49192 -0.00558545 0)
(-2.4969 -0.00556455 0)
(-2.50198 -0.00554142 0)
(-2.50707 -0.00551594 0)
(-2.51223 -0.00548837 0)
(-2.51739 -0.00546081 0)
(-2.52261 -0.00543387 0)
(-2.52783 -0.00540756 0)
(-2.53311 -0.00538113 0)
(-2.53838 -0.0053549 0)
(-2.5437 -0.00532864 0)
(-2.54901 -0.00530327 0)
(-2.55437 -0.00527855 0)
(-2.5597 -0.00525559 0)
(-2.56507 -0.00523394 0)
(-2.57041 -0.00521451 0)
(-2.57578 -0.00519664 0)
(-2.58113 -0.00518118 0)
(-2.58649 -0.00516748 0)
(-2.59183 -0.0051564 0)
(-2.59718 -0.00514767 0)
(-2.6025 -0.00514145 0)
(-2.60783 -0.00513769 0)
(-2.61313 -0.00513632 0)
(-2.61843 -0.00513736 0)
(-2.6237 -0.00514081 0)
(-2.62898 -0.00514631 0)
(-2.63423 -0.00515355 0)
(-2.63948 -0.00516228 0)
(-2.64471 -0.00517249 0)
(-2.64994 -0.00518314 0)
(-2.65516 -0.00519422 0)
(-2.66038 -0.00520559 0)
(-2.6656 -0.00521725 0)
(-2.67082 -0.00522778 0)
(-2.67604 -0.00523589 0)
(-2.68128 -0.00524085 0)
(-2.68652 -0.00524158 0)
(-2.69178 -0.00523725 0)
(-2.69707 -0.00522914 0)
(-2.70238 -0.00522004 0)
(-2.70771 -0.00520572 0)
(-2.71308 -0.00518092 0)
(-2.71848 -0.00514709 0)
(-2.72393 -0.00510574 0)
(-2.72943 -0.00505797 0)
(-2.73498 -0.0050042 0)
(-2.74061 -0.00494522 0)
(-2.7463 -0.00488198 0)
(-2.75207 -0.00481593 0)
(-2.75793 -0.00474915 0)
(-2.76389 -0.00468441 0)
(-2.76995 -0.00462523 0)
(-2.77613 -0.00457647 0)
(-2.78243 -0.00454421 0)
(-2.78888 -0.00453635 0)
(-2.79548 -0.00456244 0)
(-2.80224 -0.00463399 0)
(-2.80918 -0.00476291 0)
(-2.81631 -0.00496905 0)
(-2.82366 -0.00527339 0)
(-2.83123 -0.00569292 0)
(-2.83903 -0.00624821 0)
(-2.84708 -0.00696089 0)
(-2.85542 -0.00784817 0)
(-2.86405 -0.00891831 0)
(-2.87301 -0.0101684 0)
(-2.88229 -0.0115753 0)
(-2.89183 -0.0130575 0)
(-2.90153 -0.0144561 0)
(-2.9112 -0.0155374 0)
(-2.92042 -0.0159501 0)
(-2.92851 -0.0152016 0)
(-2.9343 -0.0127056 0)
(-2.93623 -0.0073239 0)
(-2.93216 0.00324042 0)
(-2.91437 0.0231727 0)
(-2.87763 0.0590018 0)
(-2.80459 0.12373 0)
(-2.6645 0.233277 0)
(-2.48907 0.378906 0)
(-2.51257 -0.00140815 0)
(-2.51291 -0.00219278 0)
(-2.51704 -0.00274706 0)
(-2.52091 -0.00309951 0)
(-2.52488 -0.00331438 0)
(-2.52929 -0.00343928 0)
(-2.53362 -0.00350765 0)
(-2.53821 -0.00354046 0)
(-2.54267 -0.00355117 0)
(-2.54732 -0.00354765 0)
(-2.55181 -0.00353537 0)
(-2.55646 -0.00351709 0)
(-2.56096 -0.00349507 0)
(-2.5656 -0.00347044 0)
(-2.5701 -0.00344424 0)
(-2.57471 -0.00341681 0)
(-2.57919 -0.00338866 0)
(-2.58378 -0.00335981 0)
(-2.58824 -0.00333056 0)
(-2.5928 -0.00329952 0)
(-2.59724 -0.00326817 0)
(-2.60176 -0.00323836 0)
(-2.60617 -0.00320914 0)
(-2.61064 -0.0031798 0)
(-2.615 -0.00315146 0)
(-2.61941 -0.00312438 0)
(-2.62371 -0.00309884 0)
(-2.62805 -0.00307424 0)
(-2.6323 -0.00305092 0)
(-2.63657 -0.00302841 0)
(-2.64076 -0.00300771 0)
(-2.64498 -0.00298833 0)
(-2.64911 -0.00297143 0)
(-2.65327 -0.00295638 0)
(-2.65735 -0.0029441 0)
(-2.66145 -0.00293375 0)
(-2.6655 -0.00292614 0)
(-2.66955 -0.00292028 0)
(-2.67357 -0.00291719 0)
(-2.67759 -0.00291633 0)
(-2.68157 -0.00291785 0)
(-2.68557 -0.00292145 0)
(-2.68954 -0.00292681 0)
(-2.69353 -0.00293409 0)
(-2.6975 -0.00294302 0)
(-2.70148 -0.00295317 0)
(-2.70546 -0.00296415 0)
(-2.70947 -0.00297564 0)
(-2.71347 -0.00298707 0)
(-2.71751 -0.00299801 0)
(-2.72156 -0.00300811 0)
(-2.72564 -0.0030169 0)
(-2.72974 -0.00302397 0)
(-2.73389 -0.0030282 0)
(-2.73807 -0.00302833 0)
(-2.74229 -0.00302346 0)
(-2.74656 -0.00301252 0)
(-2.75089 -0.00299391 0)
(-2.75527 -0.00296852 0)
(-2.75972 -0.00294309 0)
(-2.76422 -0.0029125 0)
(-2.7688 -0.00286549 0)
(-2.77345 -0.00280613 0)
(-2.77818 -0.00273689 0)
(-2.78301 -0.00265819 0)
(-2.78792 -0.00257072 0)
(-2.79294 -0.00247482 0)
(-2.79807 -0.00237105 0)
(-2.80332 -0.00226061 0)
(-2.80868 -0.00214521 0)
(-2.81419 -0.00202733 0)
(-2.81983 -0.00191014 0)
(-2.82563 -0.0017982 0)
(-2.83159 -0.00169718 0)
(-2.83773 -0.00161449 0)
(-2.84406 -0.00155922 0)
(-2.8506 -0.00154212 0)
(-2.85735 -0.00157495 0)
(-2.86435 -0.00167763 0)
(-2.8716 -0.00186971 0)
(-2.87914 -0.0021678 0)
(-2.88698 -0.00259128 0)
(-2.89516 -0.00316033 0)
(-2.90369 -0.00389219 0)
(-2.91262 -0.0047959 0)
(-2.92195 -0.00587162 0)
(-2.93168 -0.00711926 0)
(-2.94174 -0.00848623 0)
(-2.95202 -0.00983809 0)
(-2.96228 -0.0110232 0)
(-2.97207 -0.0118061 0)
(-2.98066 -0.0118871 0)
(-2.98684 -0.01091 0)
(-2.98864 -0.00828172 0)
(-2.98368 -0.00239225 0)
(-2.96426 0.00956805 0)
(-2.92061 0.0313921 0)
(-2.83496 0.0710838 0)
(-2.6756 0.137332 0)
(-2.48519 0.22096 0)
(-2.55859 -0.000497312 0)
(-2.55924 -0.000833732 0)
(-2.56324 -0.00105592 0)
(-2.56707 -0.00119565 0)
(-2.57093 -0.00128218 0)
(-2.57527 -0.00133461 0)
(-2.57941 -0.00136456 0)
(-2.58385 -0.00138018 0)
(-2.58804 -0.00138652 0)
(-2.59244 -0.00138621 0)
(-2.59658 -0.00138197 0)
(-2.60088 -0.00137462 0)
(-2.60494 -0.00136517 0)
(-2.60913 -0.00135434 0)
(-2.61309 -0.00134252 0)
(-2.61717 -0.00132995 0)
(-2.62103 -0.00131678 0)
(-2.625 -0.00130309 0)
(-2.62876 -0.00128883 0)
(-2.63262 -0.00127315 0)
(-2.63629 -0.00125749 0)
(-2.64004 -0.00124406 -1.46238e-41)
(-2.64362 -0.00123221 0)
(-2.64728 -0.00122114 0)
(-2.65078 -0.00121088 0)
(-2.65435 -0.00120157 0)
(-2.65777 -0.00119321 0)
(-2.66127 -0.00118548 0)
(-2.66463 -0.00117818 0)
(-2.66806 -0.00117129 0)
(-2.67137 -0.0011651 0)
(-2.67474 -0.00115984 0)
(-2.67802 -0.00115577 0)
(-2.68134 -0.0011529 0)
(-2.6846 -0.00115134 0)
(-2.68788 -0.00115102 0)
(-2.69112 -0.00115188 0)
(-2.69439 -0.00115356 0)
(-2.69762 -0.00115657 0)
(-2.70088 -0.00116034 0)
(-2.70412 -0.00116517 0)
(-2.70738 -0.00117063 0)
(-2.71064 -0.00117629 0)
(-2.71392 -0.0011823 0)
(-2.71721 -0.00118837 0)
(-2.72052 -0.00119401 0)
(-2.72385 -0.00119894 0)
(-2.72721 -0.00120279 0)
(-2.73059 -0.00120452 0)
(-2.73401 -0.00120419 0)
(-2.73746 -0.00120146 0)
(-2.74096 -0.00119564 0)
(-2.74449 -0.00118595 0)
(-2.74807 -0.00117167 0)
(-2.75169 -0.00115137 0)
(-2.75538 -0.0011242 0)
(-2.75911 -0.00108911 0)
(-2.76292 -0.00104426 0)
(-2.76678 -0.000987768 0)
(-2.77072 -0.00093287 0)
(-2.77472 -0.000877292 0)
(-2.7788 -0.000795439 0)
(-2.78295 -0.000698322 0)
(-2.7872 -0.00058951 0)
(-2.79155 -0.000469164 0)
(-2.79599 -0.000337464 0)
(-2.80054 -0.000194465 0)
(-2.8052 -4.04523e-05 0)
(-2.80998 0.000123713 0)
(-2.81489 0.000296582 0)
(-2.81994 0.000476079 0)
(-2.82514 0.000659431 0)
(-2.83049 0.000842516 0)
(-2.83601 0.00102011 0)
(-2.84172 0.00118545 0)
(-2.84762 0.00133007 0)
(-2.85374 0.00144402 0)
(-2.86008 0.00151513 0)
(-2.86668 0.00152581 0)
(-2.87355 0.00145919 0)
(-2.88072 0.00129849 0)
(-2.88821 0.00102466 0)
(-2.89604 0.000618255 7.26756e-42)
(-2.90426 6.19782e-05 0)
(-2.91287 -0.000656842 0)
(-2.9219 -0.00154374 0)
(-2.93133 -0.00261284 0)
(-2.94102 -0.00386438 -4.54256e-41)
(-2.95095 -0.00517407 0)
(-2.96086 -0.00648867 0)
(-2.97027 -0.00768817 0)
(-2.97847 -0.00865511 0)
(-2.98425 -0.0092964 0)
(-2.9857 -0.00948927 -5.57729e-41)
(-2.97955 -0.00862124 0)
(-2.95984 -0.00570425 0)
(-2.91424 0.0003993 4.69375e-42)
(-2.82417 0.0120949 0)
(-2.65806 0.0319882 0)
(-2.4629 0.0571599 0)
(-2.53431 0.000469096 0)
(-2.53474 0.000566225 0)
(-2.53879 0.000678529 0)
(-2.54265 0.00074997 0)
(-2.54654 0.000787082 0)
(-2.55094 0.000800986 0)
(-2.55515 0.000801444 0)
(-2.55968 0.000794321 0)
(-2.56397 0.000783082 0)
(-2.56848 0.000770214 0)
(-2.57274 0.000756389 0)
(-2.57718 0.000742431 0)
(-2.58138 0.000728936 0)
(-2.58572 0.000715538 0)
(-2.58985 0.000702707 0)
(-2.59409 0.000690274 0)
(-2.59813 0.000678575 0)
(-2.60227 0.000667468 0)
(-2.60622 0.000657383 0)
(-2.61026 0.000648339 0)
(-2.61412 0.000639621 0)
(-2.61806 0.000629948 7.405e-42)
(-2.62184 0.000619827 0)
(-2.62568 0.000609492 0)
(-2.62938 0.000599321 0)
(-2.63314 0.000589108 0)
(-2.63676 0.000579048 0)
(-2.64043 0.000569314 0)
(-2.64398 0.000560637 0)
(-2.64759 0.000552567 0)
(-2.65108 0.000545424 0)
(-2.65461 0.000538198 0)
(-2.65805 0.000531458 0)
(-2.66153 0.000524538 0)
(-2.66493 0.000518126 0)
(-2.66836 0.000511441 0)
(-2.67173 0.000505404 0)
(-2.67513 0.00049944 0)
(-2.67847 0.00049407 0)
(-2.68184 0.000489245 0)
(-2.68518 0.000485106 0)
(-2.68853 0.00048184 0)
(-2.69187 0.000479636 0)
(-2.69523 0.000478873 0)
(-2.69858 0.000479693 0)
(-2.70195 0.000482549 0)
(-2.70532 0.000487782 0)
(-2.70872 0.000495817 0)
(-2.71213 0.000507525 0)
(-2.71557 0.000522998 0)
(-2.71902 0.000542564 0)
(-2.72252 0.000566965 0)
(-2.72603 0.000597129 0)
(-2.7296 0.000633532 0)
(-2.73319 0.000677806 0)
(-2.73684 0.000730756 0)
(-2.74052 0.000793211 0)
(-2.74426 0.000867143 0)
(-2.74804 0.000954732 0)
(-2.75189 0.00104314 0)
(-2.75579 0.0011346 0)
(-2.75978 0.00125432 0)
(-2.76383 0.00139154 0)
(-2.76796 0.001543 0)
(-2.77216 0.00170853 0)
(-2.77645 0.00188828 0)
(-2.78082 0.00208243 0)
(-2.7853 0.00229104 0)
(-2.78987 0.0025136 0)
(-2.79456 0.00274884 0)
(-2.79937 0.00299527 0)
(-2.8043 0.00325057 0)
(-2.80938 0.0035112 0)
(-2.8146 0.00377243 0)
(-2.81998 0.00402826 0)
(-2.82554 0.004271 0)
(-2.83129 0.00449138 0)
(-2.83725 0.00467761 0)
(-2.84343 0.00481474 0)
(-2.84986 0.00488727 0)
(-2.85655 0.00487891 0)
(-2.86354 0.00477121 0)
(-2.87085 0.00454476 5.34233e-41)
(-2.87849 0.00418243 0)
(-2.88649 0.00366601 0)
(-2.89487 0.00297774 0)
(-2.90357 0.00209993 0)
(-2.91249 0.00100076 1.17639e-41)
(-2.92155 -0.00025958 0)
(-2.93043 -0.00170641 0)
(-2.93857 -0.00330596 0)
(-2.94529 -0.00510563 0)
(-2.94955 -0.0073159 0)
(-2.94936 -0.0102269 -6.01081e-41)
(-2.94143 -0.0142467 0)
(-2.91972 -0.0201927 0)
(-2.87329 -0.029886 -3.51308e-40)
(-2.78279 -0.0463064 0)
(-2.61797 -0.0725677 0)
(-2.4242 -0.103689 0)
(-2.45323 0.00131057 0)
(-2.45286 0.00196348 0)
(-2.45699 0.00242817 0)
(-2.46071 0.0027229 0)
(-2.46456 0.00289639 0)
(-2.4689 0.00299036 0)
(-2.47316 0.00303657 0)
(-2.47771 0.00305344 0)
(-2.48215 0.00305363 0)
(-2.4868 0.00304346 0)
(-2.49133 0.00302789 0)
(-2.49601 0.00300841 0)
(-2.50058 0.0029873 0)
(-2.50528 0.00296474 0)
(-2.50988 0.00294175 0)
(-2.51458 0.00291828 0)
(-2.51919 0.00289499 0)
(-2.5239 0.00287174 0)
(-2.52851 0.00284908 0)
(-2.5332 0.00282671 0)
(-2.5378 0.00280437 0)
(-2.54247 0.0027813 0)
(-2.54706 0.00275794 0)
(-2.5517 0.00273417 0)
(-2.55626 0.00271053 0)
(-2.56087 0.00268679 0)
(-2.56541 0.00266322 0)
(-2.56997 0.00264007 0)
(-2.57446 0.00261832 0)
(-2.57899 0.00259767 0)
(-2.58343 0.00257834 0)
(-2.5879 0.00255935 0)
(-2.59231 0.0025413 0)
(-2.59672 0.00252364 0)
(-2.60108 0.00250713 0)
(-2.60544 0.00249114 0)
(-2.60974 0.00247657 0)
(-2.61405 0.00246273 0)
(-2.6183 0.00245073 0)
(-2.62256 0.00243992 0)
(-2.62677 0.0024312 0)
(-2.63097 0.0024244 0)
(-2.63514 0.00241967 0)
(-2.63931 0.0024178 0)
(-2.64344 0.00241899 0)
(-2.64757 0.00242363 0)
(-2.65167 0.00243227 0)
(-2.65578 0.00244536 0)
(-2.65987 0.00246362 0)
(-2.66396 0.0024874 0)
(-2.66805 0.00251719 0)
(-2.67214 0.00255358 0)
(-2.67624 0.00259741 0)
(-2.68035 0.00264966 0)
(-2.68447 0.0027116 0)
(-2.68862 0.00278433 0)
(-2.69277 0.0028685 0)
(-2.69697 0.00296576 0)
(-2.70118 0.00307609 0)
(-2.70544 0.00319305 0)
(-2.70973 0.00332161 0)
(-2.71407 0.00347322 0)
(-2.71844 0.00364425 0)
(-2.72288 0.00383288 0)
(-2.72736 0.00403885 0)
(-2.7319 0.00426228 0)
(-2.73651 0.00450358 0)
(-2.74119 0.00476309 0)
(-2.74595 0.00504072 0)
(-2.7508 0.00533553 0)
(-2.75574 0.00564657 0)
(-2.76079 0.00597204 0)
(-2.76595 0.00630902 0)
(-2.77125 0.00665341 0)
(-2.77668 0.00699991 0)
(-2.78227 0.00734167 0)
(-2.78803 0.00767013 0)
(-2.79399 0.00797441 0)
(-2.80015 0.0082413 0)
(-2.80656 0.00845649 0)
(-2.81322 0.00860433 0)
(-2.82017 0.00866706 0)
(-2.82743 0.00862381 0)
(-2.83504 0.00845733 0)
(-2.843 0.00814625 0)
(-2.85135 0.0076605 0)
(-2.86004 0.00696898 0)
(-2.86904 0.00603229 0)
(-2.87818 0.00480886 0)
(-2.88723 0.00321495 0)