/*--------------------------------*- C++ -*----------------------------------*\
| =========                 |                                                 |
| \\      /  F ield         | OpenFOAM: The Open Source CFD Toolbox           |
|  \\    /   O peration     | Version:  2.0.1                                 |
|   \\  /    A nd           | Web:      www.OpenFOAM.com                      |
|    \\/     M anipulation  |                                                 |
\*---------------------------------------------------------------------------*/
FoamFile
{
    version     2.0;
    format      ascii;
    class       volVectorField;
    location    "0";
    object      U;
}
// * * * * * * * * * * * * * * * * * * * * * * * * * * * * * * * * * * * * * //

dimensions      [0 1 -1 0 0 0 0];

internalField   nonuniform List<vector> 
2000
(
(1.12202 -0.944376 7.94999e-20)
(1.11087 -0.785624 0)
(1.1022 -0.663118 5.46193e-20)
(1.0954 -0.566561 2.95911e-20)
(1.09007 -0.489133 -8.27959e-20)
(1.08592 -0.4263 -1.37928e-20)
(1.08272 -0.375255 -8.03558e-21)
(1.07995 -0.334984 0)
(1.07619 -0.307344 -5.5183e-20)
(1.06707 -0.300332 0)
(1.27062 -0.922242 8.31553e-20)
(1.23498 -0.767088 -1.31861e-20)
(1.20746 -0.647428 -2.69404e-20)
(1.18581 -0.553182 -1.75226e-20)
(1.16847 -0.477661 -1.31449e-19)
(1.15431 -0.41633 -1.47147e-19)
(1.14241 -0.366052 -1.44502e-19)
(1.13181 -0.324501 -5.99776e-20)
(1.12142 -0.289379 -5.6415e-20)
(1.10989 -0.256617 -5.26489e-20)
(1.41404 -0.877254 -1.52295e-21)
(1.3547 -0.729528 -3.95878e-21)
(1.30898 -0.615628 -7.7024e-20)
(1.27301 -0.525913 -1.46325e-19)
(1.24419 -0.453956 -6.90312e-20)
(1.22068 -0.395329 -6.61318e-20)
(1.2011 -0.346841 -6.37282e-20)
(1.18442 -0.306036 -6.16963e-20)
(1.16987 -0.270818 6.1744e-20)
(1.15711 -0.239277 -6.02611e-20)
(1.5487 -0.810466 -2.68887e-21)
(1.4671 -0.673834 -3.49491e-21)
(1.40428 -0.568498 0)
(1.3549 -0.485504 -1.66696e-19)
(1.3154 -0.418875 -1.50307e-20)
(1.28328 -0.364476 0)
(1.25677 -0.319336 0)
(1.23462 -0.281247 0)
(1.21594 -0.248534 6.32425e-20)
(1.20023 -0.219973 -1.67869e-19)
(1.67125 -0.723483 4.81993e-20)
(1.56937 -0.601359 4.25312e-20)
(1.49099 -0.507211 4.25982e-20)
(1.42945 -0.433018 -1.19989e-19)
(1.38028 -0.373423 3.8438e-20)
(1.34039 -0.324726 3.69341e-20)
(1.30762 -0.284292 0)
(1.28043 -0.250207 3.46595e-20)
(1.2577 -0.221068 1.53376e-21)
(1.23866 -0.19586 5.34e-21)
(1.77862 -0.618425 5.09545e-20)
(1.65895 -0.513882 4.9369e-20)
(1.56695 -0.433293 4.74154e-20)
(1.49476 -0.369781 -3.66473e-20)
(1.43713 -0.318755 5.0048e-20)
(1.39046 -0.277051 4.96919e-20)
(1.35219 -0.242436 0)
(1.32051 -0.213295 3.52805e-20)
(1.29409 -0.18845 -3.43611e-20)
(1.27194 -0.167037 3.7032e-20)
(1.86808 -0.497874 0)
(1.73358 -0.413558 0)
(1.63022 -0.348568 2.90098e-21)
(1.54916 -0.297351 3.64072e-21)
(1.4845 -0.256202 4.23842e-21)
(1.43217 -0.222576 4.7306e-21)
(1.3893 -0.19468 -1.02859e-20)
(1.35384 -0.171221 -1.0988e-20)
(1.32427 -0.151255 1.15946e-20)
(1.29945 -0.134082 4.67463e-20)
(1.93737 -0.364813 2.67064e-20)
(1.79137 -0.302869 0)
(1.67921 -0.255129 2.51155e-20)
(1.59129 -0.217509 1.20044e-26)
(1.52117 -0.187286 -2.38239e-20)
(1.46444 -0.162596 0)
(1.418 -0.142124 0)
(1.37959 -0.124923 0)
(1.34754 -0.110301 8.38688e-21)
(1.32063 -0.0977435 8.76992e-21)
(1.98471 -0.222552 2.69554e-20)
(1.83085 -0.184562 1.22499e-20)
(1.71268 -0.155287 2.32546e-20)
(1.62006 -0.132218 1.10144e-20)
(1.54622 -0.113688 -9.49953e-21)
(1.48649 -0.0985576 1.04142e-21)
(1.43759 -0.0860189 0)
(1.39714 -0.0754901 -9.47833e-21)
(1.36339 -0.0665499 -6.6934e-21)
(1.33503 -0.0588839 2.66821e-21)
(2.00889 -0.0746463 0)
(1.85102 -0.0615817 1.2537e-20)
(1.72978 -0.0515147 0)
(1.63476 -0.0435841 1.09967e-20)
(1.559 -0.0372167 1.03073e-20)
(1.49774 -0.032022 -1.81626e-22)
(1.44757 -0.0277224 0)
(1.40608 -0.0241185 -9.51141e-21)
(1.37145 -0.0210669 -9.27588e-21)
(1.34235 -0.0184571 -2.32126e-22)
(0.100566 -0.0737354 0)
(0.256149 -0.0614406 -5.51239e-22)
(0.375805 -0.0519432 0)
(0.469733 -0.0444579 1.03431e-21)
(0.544766 -0.0384598 1.28976e-21)
(0.605627 -0.0335877 -4.09179e-21)
(0.655669 -0.0295883 -4.43169e-21)
(0.697325 -0.0262786 5.48262e-22)
(0.732399 -0.0235212 5.50113e-21)
(0.762252 -0.0212116 5.1556e-21)
(0.123688 -0.219423 -2.54179e-21)
(0.275496 -0.182829 3.26725e-22)
(0.392227 -0.154557 -2.90041e-21)
(0.483834 -0.132271 -1.15077e-21)
(0.556989 -0.114408 -5.67075e-21)
(0.616298 -0.0998979 -8.13537e-21)
(0.665031 -0.0879843 0)
(0.705569 -0.078123 9.02873e-22)
(0.739677 -0.0699086 8.65515e-22)
(0.768688 -0.0630326 0)
(0.169386 -0.359805 -5.17534e-21)
(0.313738 -0.299772 0)
(0.424695 -0.253383 -1.42424e-20)
(0.511726 -0.216804 2.33979e-27)
(0.581172 -0.187475 1.82003e-20)
(0.637415 -0.163639 0)
(0.683563 -0.144059 0)
(0.721886 -0.127844 0)
(0.754072 -0.114339 -3.88836e-20)
(0.7814 -0.103046 -4.04561e-20)
(0.236585 -0.491484 0)
(0.369982 -0.409422 6.63957e-21)
(0.472462 -0.345999 -3.50817e-27)
(0.552779 -0.295968 -1.2243e-20)
(0.616789 -0.255826 -1.42082e-20)
(0.668538 -0.223172 1.57985e-20)
(0.710895 -0.196322 6.84039e-20)
(0.745955 -0.17407 3.63586e-20)
(0.77529 -0.155536 -3.81619e-20)
(0.800106 -0.140053 -4.99965e-20)
(0.323702 -0.611271 -1.8665e-20)
(0.442911 -0.509116 -2.38301e-20)
(0.534423 -0.430146 -2.58698e-20)
(0.60607 -0.367817 3.53586e-21)
(0.663077 -0.317759 -4.25967e-20)
(0.709038 -0.276978 -4.5155e-20)
(0.746503 -0.243385 0)
(0.777328 -0.2155 -1.34595e-20)
(0.802929 -0.192254 1.31429e-20)
(0.824412 -0.172859 5.31303e-20)
(0.428678 -0.716261 -1.9959e-20)
(0.530805 -0.596434 -1.41439e-20)
(0.609135 -0.503781 -1.8934e-20)
(0.670392 -0.430607 5.50348e-20)
(0.719038 -0.371762 -1.67679e-20)
(0.758115 -0.323718 -1.59702e-20)
(0.78976 -0.28402 0)
(0.815512 -0.250947 -1.47432e-20)
(0.836554 -0.223303 -5.79628e-20)
(0.85387 -0.200255 -5.81677e-20)
(0.549023 -0.803889 4.6741e-21)
(0.631572 -0.669246 6.07248e-21)
(0.694832 -0.565128 0)
(0.744259 -0.482847 1.0745e-19)
(0.783451 -0.41658 2.60213e-20)
(0.814819 -0.362316 0)
(0.839993 -0.317249 0)
(0.860074 -0.279429 0)
(0.875851 -0.247568 -3.62512e-20)
(0.888066 -0.220925 1.40197e-19)
(0.681858 -0.871988 2.23597e-21)
(0.74278 -0.725773 5.81079e-21)
(0.789434 -0.612718 5.20264e-20)
(0.825891 -0.523343 9.68513e-20)
(0.854828 -0.451269 4.70294e-20)
(0.878005 -0.392055 4.5171e-20)
(0.896518 -0.342524 4.35886e-20)
(0.910891 -0.300393 4.21989e-20)
(0.921128 -0.264143 -3.82998e-20)
(0.926976 -0.23315 3.70329e-20)
(0.823975 -0.918834 -6.47647e-20)
(0.861711 -0.76461 1.65354e-20)
(0.890587 -0.645411 3.12306e-20)
(0.913206 -0.551201 1.87781e-20)
(0.931313 -0.47521 1.02894e-19)
(0.94611 -0.412666 1.24993e-19)
(0.95838 -0.360008 1.23626e-19)
(0.968364 -0.314366 4.4643e-20)
(0.975057 -0.273242 4.5592e-20)
(0.974044 -0.234573 6.71892e-20)
(0.971906 -0.943196 -7.30977e-20)
(0.985426 -0.784754 0)
(0.995723 -0.662384 -6.23607e-20)
(1.00385 -0.565776 -3.95229e-20)
(1.01057 -0.488006 7.79657e-20)
(1.0166 -0.424221 3.56211e-21)
(1.0229 -0.37076 -2.85619e-21)
(1.0313 -0.324339 0)
(1.04593 -0.280801 4.83988e-20)
(1.07685 -0.232403 0)
(0.787209 -0.0190073 0)
(0.809569 -0.0160884 5.47847e-21)
(0.828681 -0.0137476 -5.22859e-25)
(0.845125 -0.0117869 -5.71634e-21)
(0.859318 -0.0101379 0)
(0.871612 -0.00874803 -5.90222e-21)
(0.882292 -0.00757315 -5.97479e-21)
(0.891598 -0.00657458 0)
(0.899726 -0.00571811 0)
(0.906835 -0.00497411 -1.72013e-24)
(0.913047 -0.00431816 0)
(0.918457 -0.00373058 0)
(0.923135 -0.0031957 0)
(0.927139 -0.00270038 0)
(0.930509 -0.00223629 1.57622e-21)
(0.933277 -0.00179678 1.58091e-21)
(0.935468 -0.00137547 0)
(0.937096 -0.000967356 7.9374e-22)
(0.938168 -0.000568047 7.9465e-22)
(0.938688 -0.000173163 0)
(0.793172 -0.0571371 0)
(0.814648 -0.0479017 6.06749e-23)
(0.832846 -0.0409511 0)
(0.848572 -0.0351309 -2.27786e-20)
(0.862205 -0.030237 -2.31538e-20)
(0.874066 -0.0261132 2.2275e-23)
(0.884422 -0.0226282 1.19241e-20)
(0.893491 -0.0196646 4.04081e-24)
(0.901453 -0.017119 1.26903e-23)
(0.908444 -0.014904 1.22788e-20)
(0.914571 -0.0129462 -1.23654e-20)
(0.919915 -0.0111864 6.96071e-25)
(0.924539 -0.00958091 1.25076e-20)
(0.928494 -0.00809432 -6.29472e-21)
(0.931816 -0.00670047 -6.30796e-21)
(0.934539 -0.00537947 -1.43645e-23)
(0.936689 -0.004115 -1.65604e-23)
(0.938282 -0.00289335 -3.17863e-21)
(0.939328 -0.00170094 -3.18223e-21)
(0.939832 -0.000523787 -2.27224e-23)
(0.805347 -0.0955567 -1.33554e-22)
(0.824716 -0.0786059 1.12431e-22)
(0.841092 -0.0672695 -8.43887e-23)
(0.855389 -0.0577811 0)
(0.867913 -0.0498055 2.30621e-20)
(0.87893 -0.0430893 2.33848e-20)
(0.888665 -0.0374153 0)
(0.897291 -0.0325853 8.98476e-24)
(0.904938 -0.0284227 2.54115e-23)
(0.911701 -0.0247799 -2.45015e-20)
(0.917657 -0.0215405 -4.93904e-20)
(0.922861 -0.0186148 -2.48487e-20)
(0.927359 -0.0159341 5.58848e-24)
(0.931199 -0.0134484 -6.12771e-25)
(0.934415 -0.0111202 1.39897e-23)
(0.937037 -0.00891782 -6.34973e-21)
(0.939094 -0.00681512 -1.27052e-20)
(0.940609 -0.00479021 -6.3695e-21)
(0.941597 -0.00282081 1.62328e-21)
(0.942069 -0.000882861 1.60525e-21)
(0.82423 -0.134301 4.10617e-20)
(0.839585 -0.107426 8.50985e-20)
(0.853236 -0.092106 8.72338e-20)
(0.865417 -0.0792819 4.45864e-20)
(0.876332 -0.0685136 7.27372e-23)
(0.886163 -0.059461 -6.95801e-23)
(0.895046 -0.0518084 4.72713e-20)
(0.903067 -0.0452628 7.15259e-20)
(0.910278 -0.0395782 2.41256e-20)
(0.916707 -0.0345562 2.43868e-20)
(0.922382 -0.0300501 4.93039e-20)
(0.927337 -0.0259559 2.48271e-20)
(0.931608 -0.0221915 -4.86041e-24)
(0.935232 -0.0186992 -1.26186e-20)
(0.938247 -0.015435 -1.26407e-20)
(0.940691 -0.0123585 1.27163e-20)
(0.942595 -0.00943349 1.28093e-20)
(0.943985 -0.00662807 0)
(0.944882 -0.00391022 -4.00462e-23)
(0.945301 -0.00124571 3.10966e-23)
(0.850527 -0.173146 8.00172e-20)
(0.858932 -0.133519 4.22573e-20)
(0.868988 -0.114858 4.2721e-20)
(0.878464 -0.0992254 0)
(0.887402 -0.0861262 2.16715e-22)
(0.895834 -0.0751134 4.59549e-20)
(0.903737 -0.0657471 9.34058e-20)
(0.911038 -0.0576436 9.47475e-20)
(0.917669 -0.0505065 4.79331e-20)
(0.923597 -0.0441248 -7.13936e-23)
(0.928814 -0.0383485 0)
(0.933342 -0.0330743 3.3141e-23)
(0.93722 -0.0282234 0)
(0.940487 -0.0237338 9.00292e-25)
(0.943188 -0.0195514 0)
(0.945365 -0.0156262 0)
(0.947051 -0.0119129 3.96929e-23)
(0.948271 -0.00836715 6.41887e-21)
(0.949048 -0.0049443 3.14696e-21)
(0.949398 -0.00159944 -3.21599e-21)
(0.885004 -0.211401 0)
(0.882192 -0.15592 4.47202e-22)
(0.887974 -0.134998 8.42771e-20)
(0.894439 -0.117386 8.53107e-20)
(0.901331 -0.102599 -2.65666e-22)
(0.908351 -0.090046 0)
(0.915174 -0.0791784 4.6277e-20)
(0.921547 -0.0695909 -5.23386e-22)
(0.927318 -0.0610063 -4.76771e-20)
(0.932428 -0.0532488 -9.56976e-23)
(0.936885 -0.0461971 -7.14095e-23)
(0.940724 -0.0397561 -4.92461e-23)
(0.943995 -0.0338494 0)
(0.946746 -0.0284067 -2.5321e-20)
(0.949021 -0.0233597 9.54213e-23)
(0.950855 -0.018645 2.55431e-20)
(0.952274 -0.014203 3.83486e-23)
(0.953297 -0.00997472 5.27625e-23)
(0.953942 -0.00590213 -3.23074e-21)
(0.954216 -0.00192987 -3.23199e-21)
(0.928052 -0.247451 7.46812e-20)
(0.908383 -0.173672 0)
(0.909986 -0.15239 -4.42228e-22)
(0.913831 -0.13395 8.74298e-24)
(0.918944 -0.118087 8.78788e-24)
(0.924476 -0.104204 2.77839e-22)
(0.929842 -0.0918405 2.35525e-22)
(0.934747 -0.0807126 4.6529e-20)
(0.939097 -0.0706521 4.7122e-20)
(0.942902 -0.061539 -4.83825e-20)
(0.946214 -0.0532723 -4.87782e-20)
(0.949088 -0.0457543 9.05769e-24)
(0.951567 -0.038894 2.51309e-20)
(0.953685 -0.032601 5.056e-20)
(0.955467 -0.0267877 2.54467e-20)
(0.956925 -0.0213738 -5.35773e-24)
(0.958066 -0.0162825 1.29322e-20)
(0.958896 -0.0114403 2.59557e-20)
(0.959416 -0.00677818 1.29233e-20)
(0.959622 -0.00223077 -7.04173e-23)
(0.978256 -0.277365 0)
(0.936269 -0.186666 7.68158e-20)
(0.935813 -0.167795 7.73291e-20)
(0.938056 -0.149379 4.29748e-22)
(0.941262 -0.132467 -1.73661e-23)
(0.944464 -0.117037 3.1968e-22)
(0.947336 -0.103015 -1.74663e-23)
(0.949861 -0.0903299 0)
(0.952115 -0.0788942 1.89864e-22)
(0.954176 -0.0685959 1.54814e-22)
(0.956087 -0.0593098 -1.40816e-22)
(0.957862 -0.0509096 -1.76396e-23)
(0.959495 -0.0432721 0)
(0.960973 -0.0362808 0)
(0.962276 -0.0298285 2.28448e-23)
(0.963382 -0.023819 2.58119e-20)
(0.964272 -0.0181621 2.58558e-20)
(0.964933 -0.0127749 1.73795e-23)
(0.965348 -0.00758037 6.51897e-21)
(0.965507 -0.00250547 6.46891e-21)
(1.0283 -0.289709 6.85802e-20)
(0.964603 -0.197534 0)
(0.966105 -0.182556 0)
(0.966646 -0.16352 8.01024e-20)
(0.966433 -0.144837 1.6395e-19)
(0.96583 -0.127559 -2.00591e-21)
(0.965242 -0.111946 -8.71689e-20)
(0.964913 -0.0979697 0)
(0.964925 -0.0854905 0)
(0.965264 -0.0743308 0)
(0.965868 -0.0643116 -2.48859e-22)
(0.966655 -0.0552664 -5.0076e-23)
(0.967545 -0.0470413 -5.0239e-20)
(0.968464 -0.039501 -5.03376e-20)
(0.969349 -0.0325272 -2.57156e-20)
(0.970146 -0.0260135 -2.57948e-20)
(0.970815 -0.0198634 0)
(0.971323 -0.0139904 7.28914e-24)
(0.971649 -0.00831485 3.29103e-23)
(0.971779 -0.00275983 0)
(1.20704 -0.308033 5.0027e-22)
(1.16586 -0.221041 8.29289e-20)
(1.16047 -0.192634 8.44195e-20)
(1.13934 -0.168007 0)
(1.11574 -0.146615 -9.24192e-20)
(1.09348 -0.127969 2.69392e-21)
(1.07363 -0.111674 9.32794e-20)
(1.05633 -0.0973824 0)
(1.04144 -0.084786 -4.93369e-20)
(1.0287 -0.0736171 1.00906e-21)
(1.01789 -0.0636476 4.95489e-20)
(1.00878 -0.054681 7.46353e-23)
(1.00119 -0.0465474 0)
(0.994935 -0.0391017 5.20086e-20)
(0.989876 -0.0322188 2.56276e-20)
(0.985882 -0.0257867 -2.60802e-20)
(0.98284 -0.019707 2.63999e-20)
(0.980654 -0.0138927 3.95902e-20)
(0.979242 -0.008265 1.32237e-20)
(0.97854 -0.00275107 0)
(1.06622 -0.283571 0)
(1.01483 -0.224323 0)
(0.998019 -0.188584 0)
(0.98999 -0.161953 0)
(0.985394 -0.140398 0)
(0.982643 -0.122225 0)
(0.981076 -0.106577 0)
(0.980314 -0.0929366 0)
(0.980098 -0.0809426 0)
(0.980238 -0.070316 0)
(0.980596 -0.0608307 0)
(0.981074 -0.0522961 0)
(0.981599 -0.0445511 0)
(0.98212 -0.0374572 0)
(0.982601 -0.0308922 0)
(0.983022 -0.0247477 0)
(0.983368 -0.0189296 0)
(0.983632 -0.0133542 0)
(0.98381 -0.00794569 0)
(0.983901 -0.00263596 0)
(1.07812 -0.223357 0)
(1.04503 -0.200067 0)
(1.02481 -0.17582 0)
(1.01237 -0.154255 0)
(1.00433 -0.135467 0)
(0.998961 -0.119035 0)
(0.995318 -0.104562 0)
(0.99286 -0.091733 0)
(0.99123 -0.0802993 0)
(0.990185 -0.0700524 0)
(0.989547 -0.0608149 0)
(0.98919 -0.0524321 0)
(0.98902 -0.0447701 0)
(0.988968 -0.0377092 0)
(0.988987 -0.0311416 0)
(0.989041 -0.0249716 0)
(0.989106 -0.0191139 0)
(0.989166 -0.0134907 0)
(0.989212 -0.00803014 0)
(0.989238 -0.00266573 0)
(1.08623 -0.189711 0)
(1.06237 -0.176768 0)
(1.04383 -0.160368 0)
(1.03034 -0.143781 0)
(1.02061 -0.128182 0)
(1.01355 -0.113884 0)
(1.00838 -0.100899 0)
(1.00458 -0.0891338 0)
(1.00178 -0.0784686 0)
(0.999723 -0.0687789 0)
(0.998217 -0.0599433 0)
(0.997119 -0.0518486 0)
(0.996322 -0.0443892 0)
(0.995748 -0.0374671 0)
(0.995339 -0.030992 0)
(0.99505 -0.0248827 0)
(0.994849 -0.0190638 0)
(0.994716 -0.0134643 0)
(0.994635 -0.00801786 0)
(0.994597 -0.00266239 0)
(1.09396 -0.166112 0)
(1.07438 -0.156929 0)
(1.0578 -0.145104 0)
(1.04456 -0.13232 0)
(1.03423 -0.119591 0)
(1.02624 -0.10742 0)
(1.02007 -0.0960146 0)
(1.01529 -0.0854338 0)
(1.01159 -0.075663 0)
(1.00871 -0.0666517 0)
(1.00648 -0.0583319 0)
(1.00474 -0.05063 0)
(1.0034 -0.0434698 0)
(1.00237 -0.0367756 0)
(1.00157 -0.0304764 0)
(1.00097 -0.0245044 0)
(1.00052 -0.0187946 0)
(1.00021 -0.0132844 0)
(1.00001 -0.00791463 0)
(0.999918 -0.00262874 0)
(1.10037 -0.146728 0)
(1.08337 -0.139734 0)
(1.06844 -0.1308 0)
(1.05586 -0.1208 0)
(1.04551 -0.110442 0)
(1.03712 -0.10019 0)
(1.03036 -0.0903061 0)
(1.02493 -0.0809248 0)
(1.02056 -0.0720992 0)
(1.01705 -0.0638334 0)
(1.01424 -0.0561036 0)
(1.01198 -0.0488696 0)
(1.01018 -0.0420823 0)
(1.00874 -0.0356885 0)
(1.00761 -0.0296343 0)
(1.00673 -0.0238651 0)
(1.00607 -0.0183261 0)
(1.0056 -0.0129642 0)
(1.00529 -0.00772807 0)
(1.00514 -0.00256751 0)
(1.10542 -0.129871 0)
(1.0903 -0.124476 0)
(1.07673 -0.117561 0)
(1.06492 -0.109637 0)
(1.05484 -0.10119 0)
(1.04638 -0.0925918 0)
(1.03933 -0.0840963 0)
(1.0335 -0.0758621 0)
(1.02868 -0.0679768 0)
(1.02471 -0.0604799 0)
(1.02144 -0.0533794 0)
(1.01877 -0.0466619 0)
(1.01658 -0.0403009 0)
(1.01481 -0.0342629 0)
(1.01339 -0.0285087 0)
(1.01228 -0.022996 0)
(1.01143 -0.0176806 0)
(1.01081 -0.0125188 0)
(1.01041 -0.00746701 0)
(1.01021 -0.00248159 0)
(1.10929 -0.114884 0)
(1.09568 -0.110737 0)
(1.08328 -0.105328 0)
(1.07223 -0.0989989 0)
(1.06256 -0.0920901 0)
(1.05422 -0.0848916 0)
(1.04709 -0.0776267 0)
(1.04105 -0.0704517 0)
(1.03594 -0.063467 0)
(1.03165 -0.056731 0)
(1.02806 -0.0502721 0)
(1.02506 -0.0440971 0)
(1.02258 -0.0381974 0)
(1.02053 -0.0325547 0)
(1.01888 -0.0271425 0)
(1.01756 -0.0219295 0)
(1.01655 -0.0168817 0)
(1.01581 -0.0119643 0)
(1.01533 -0.00714092 0)
(1.01509 -0.00237407 0)
(1.11219 -0.10142 0)
(1.09986 -0.0982608 0)
(1.08847 -0.0940189 0)
(1.07815 -0.088941 0)
(1.06895 -0.0832781 0)
(1.06084 -0.0772582 0)
(1.05377 -0.0710689 0)
(1.04766 -0.0648522 0)
(1.0424 -0.0587083 0)
(1.0379 -0.0527045 0)
(1.03408 -0.0468807 0)
(1.03084 -0.041257 0)
(1.02813 -0.035838 0)
(1.02587 -0.0306166 0)
(1.02402 -0.0255768 0)
(1.02254 -0.0206973 0)
(1.02139 -0.0159532 0)
(1.02055 -0.0113171 0)
(1.02 -0.00675909 0)
(1.01973 -0.00224794 0)
(1.11432 -0.0892441 0)
(1.10308 -0.0868678 0)
(1.0926 -0.0835456 0)
(1.08297 -0.0794658 0)
(1.07424 -0.0748219 0)
(1.06643 -0.069795 0)
(1.0595 -0.0645395 0)
(1.05341 -0.0591791 0)
(1.04809 -0.0538087 0)
(1.04348 -0.0484965 0)
(1.0395 -0.0432885 0)
(1.0361 -0.0382125 0)
(1.03322 -0.0332815 0)
(1.03079 -0.0284965 0)
(1.0288 -0.0238505 0)
(1.02718 -0.0193301 0)
(1.02593 -0.0149178 0)
(1.025 -0.0105925 0)
(1.0244 -0.00633022 0)
(1.0241 -0.00210595 0)
(1.11584 -0.0781792 0)
(1.10556 -0.0764189 0)
(1.09587 -0.0738274 0)
(1.08688 -0.0705536 0)
(1.07862 -0.0667502 0)
(1.07113 -0.0625613 0)
(1.06439 -0.0581136 0)
(1.05839 -0.0535141 0)
(1.05308 -0.0488487 0)
(1.04842 -0.0441829 0)
(1.04436 -0.0395641 0)
(1.04085 -0.0350234 0)
(1.03784 -0.0305788 0)
(1.0353 -0.0262374 0)
(1.03319 -0.0219985 0)
(1.03147 -0.0178553 0)
(1.03013 -0.0137958 0)
(1.02914 -0.0098042 0)
(1.02849 -0.0058623 0)
(1.02816 -0.00195073 0)
(1.11688 -0.0680774 0)
(1.10744 -0.0667985 0)
(1.09846 -0.0647905 0)
(1.09004 -0.0621724 0)
(1.08223 -0.0590656 0)
(1.07506 -0.0555855 0)
(1.06855 -0.0518372 0)
(1.06267 -0.0479125 0)
(1.05742 -0.0438874 0)
(1.05276 -0.039822 0)
(1.04866 -0.0357618 0)
(1.04509 -0.0317386 0)
(1.042 -0.0277729 0)
(1.03937 -0.0238759 0)
(1.03718 -0.0200514 0)
(1.03539 -0.0162969 0)
(1.03398 -0.012605 0)
(1.03294 -0.0089646 0)
(1.03225 -0.0053627 0)
(1.03191 -0.00178479 0)
(1.11756 -0.0588132 0)
(1.10884 -0.0579074 0)
(1.1005 -0.0563648 0)
(1.0926 -0.0542812 0)
(1.08521 -0.0517536 0)
(1.07835 -0.0488759 0)
(1.07206 -0.0457356 0)
(1.06634 -0.0424104 0)
(1.06117 -0.0389662 0)
(1.05655 -0.0354565 0)
(1.05244 -0.0319229 0)
(1.04884 -0.0283964 0)
(1.0457 -0.0248983 0)
(1.04302 -0.021442 0)
(1.04077 -0.018034 0)
(1.03892 -0.0146749 0)
(1.03746 -0.0113608 0)
(1.03638 -0.00808496 0)
(1.03567 -0.00483843 0)
(1.03531 -0.00161058 0)
(1.11796 -0.0502763 0)
(1.10988 -0.0496545 0)
(1.10209 -0.0484813 0)
(1.09466 -0.0468338 0)
(1.08764 -0.0447905 0)
(1.08108 -0.0424282 0)
(1.07501 -0.0398191 0)
(1.06944 -0.0370282 0)
(1.06438 -0.0341114 0)
(1.05981 -0.0311153 0)
(1.05572 -0.0280772 0)
(1.05211 -0.0250257 0)
(1.04896 -0.0219819 0)
(1.04624 -0.0189598 0)
(1.04395 -0.015967 0)
(1.04206 -0.0130063 0)
(1.04057 -0.010077 0)
(1.03946 -0.00717553 0)
(1.03872 -0.00429591 0)
(1.03836 -0.00143031 0)
(1.11817 -0.0423648 0)
(1.11064 -0.0419538 0)
(1.10332 -0.0410721 0)
(1.09629 -0.0397818 0)
(1.08961 -0.0381463 0)
(1.08332 -0.0362281 0)
(1.07746 -0.0340859 0)
(1.07205 -0.0317732 0)
(1.06708 -0.0293367 0)
(1.06258 -0.0268162 0)
(1.05853 -0.0242444 0)
(1.05493 -0.0216471 0)
(1.05177 -0.0190437 0)
(1.04904 -0.0164474 0)
(1.04672 -0.0138666 0)
(1.04481 -0.0113055 0)
(1.04329 -0.00876557 0)
(1.04216 -0.00624523 0)
(1.04141 -0.00374058 0)
(1.04104 -0.00124577 0)
(1.11825 -0.0349839 0)
(1.11118 -0.0347245 0)
(1.10426 -0.0340718 0)
(1.09758 -0.0330754 0)
(1.09119 -0.0317861 0)
(1.08514 -0.0302534 0)
(1.07947 -0.0285245 0)
(1.07419 -0.0266425 0)
(1.06933 -0.024646 0)
(1.0649 -0.0225682 0)
(1.06089 -0.020437 0)
(1.05731 -0.0182746 0)
(1.05416 -0.0160979 0)
(1.05142 -0.0139189 0)
(1.04909 -0.0117459 0)
(1.04716 -0.00958418 0)
(1.04563 -0.00743602 0)
(1.04448 -0.00530102 0)
(1.04372 -0.00317649 0)
(1.04334 -0.00105825 0)
(1.11825 -0.0280445 0)
(1.11155 -0.0278891 0)
(1.10497 -0.0274156 0)
(1.09858 -0.0266629 0)
(1.09243 -0.02567 0)
(1.08659 -0.0244755 0)
(1.08107 -0.0231161 0)
(1.07592 -0.0216261 0)
(1.07116 -0.0200364 0)
(1.06679 -0.0183738 0)
(1.06283 -0.0166612 0)
(1.05927 -0.0149165 0)
(1.05613 -0.013154 0)
(1.05339 -0.0113841 0)
(1.05105 -0.00961468 0)
(1.04912 -0.00785089 0)
(1.04757 -0.0060952 0)
(1.04642 -0.00434759 0)
(1.04566 -0.00260623 0)
(1.04527 -0.000868487 0)
(1.11821 -0.0214612 0)
(1.11181 -0.0213723 0)
(1.10549 -0.0210391 0)
(1.09933 -0.0204906 0)
(1.09338 -0.0197553 0)
(1.0877 -0.0188619 0)
(1.08232 -0.017838 0)
(1.07727 -0.0167095 0)
(1.07259 -0.0155001 0)
(1.06827 -0.0142305 0)
(1.06435 -0.0129179 0)
(1.06082 -0.0115765 0)
(1.05769 -0.0102173 0)
(1.05496 -0.00884931 0)
(1.05262 -0.00747912 0)
(1.05068 -0.00611109 0)
(1.04913 -0.00474722 0)
(1.04797 -0.00338762 0)
(1.0472 -0.00203131 0)
(1.04682 -0.00067696 0)
(1.11816 -0.0151511 0)
(1.11197 -0.0150995 0)
(1.10585 -0.0148779 0)
(1.09986 -0.0145044 0)
(1.09406 -0.013998 0)
(1.0885 -0.0133783 0)
(1.08323 -0.0126644 0)
(1.07826 -0.0118746 0)
(1.07364 -0.0110254 0)
(1.06937 -0.0101312 0)
(1.06548 -0.00920411 0)
(1.06197 -0.0082542 0)
(1.05885 -0.00728976 0)
(1.05613 -0.00631751 0)
(1.05379 -0.00534242 0)
(1.05185 -0.00436755 0)
(1.0503 -0.00339425 0)
(1.04914 -0.00242273 0)
(1.04837 -0.00145277 0)
(1.04798 -0.000484067 0)
(1.11812 -0.00903079 0)
(1.11208 -0.00899701 0)
(1.10608 -0.00886827 0)
(1.10021 -0.00865045 0)
(1.09451 -0.00835366 0)
(1.08903 -0.00798901 0)
(1.08382 -0.00756772 0)
(1.07891 -0.00710048 0)
(1.07433 -0.00659691 0)
(1.0701 -0.00606543 0)
(1.06623 -0.00551322 0)
(1.06273 -0.00494646 0)
(1.05963 -0.00437037 0)
(1.0569 -0.00378913 0)
(1.05457 -0.00320563 0)
(1.05263 -0.00262155 0)
(1.05108 -0.00203764 0)
(1.04991 -0.00145428 0)
(1.04914 -0.000871759 0)
(1.04876 -0.000290293 0)
(1.11813 -0.0030038 0)
(1.11214 -0.00298958 0)
(1.1062 -0.00294672 0)
(1.10038 -0.00287491 0)
(1.09472 -0.00277706 0)
(1.08929 -0.0026567 0)
(1.08411 -0.00251748 0)
(1.07923 -0.00236289 0)
(1.07467 -0.00219606 0)
(1.07046 -0.00201971 0)
(1.0666 -0.00183627 0)
(1.06311 -0.00164784 0)
(1.06001 -0.00145623 0)
(1.05729 -0.00126286 0)
(1.05496 -0.00106862 0)
(1.05302 -0.000874015 0)
(1.05147 -0.000679294 0)
(1.0503 -0.000484676 0)
(1.04953 -0.000290397 0)
(1.04914 -9.66273e-05 0)
(1.3181 -0.0165739 -2.38427e-22)
(1.31659 -0.053955 0)
(1.31352 -0.0916568 -2.22149e-21)
(1.30866 -0.129903 -1.38263e-20)
(1.30168 -0.16888 -3.16685e-20)
(1.29217 -0.208682 0)
(1.27944 -0.249104 -4.42157e-20)
(1.26142 -0.288568 0)
(1.2294 -0.31894 -5.32874e-20)
(1.15523 -0.332011 1.951e-21)
(1.29428 -0.0144864 -2.14915e-22)
(1.28896 -0.0472869 2.18216e-21)
(1.27854 -0.0790496 2.1637e-21)
(1.26338 -0.109216 -2.3276e-20)
(1.24395 -0.137335 -1.00632e-20)
(1.22071 -0.162969 4.11948e-21)
(1.19384 -0.185259 0)
(1.16299 -0.201712 -4.58044e-20)
(1.12859 -0.206048 0)
(1.10486 -0.226134 -5.65773e-20)
(1.27491 -0.0121552 -1.56567e-23)
(1.27064 -0.0404315 0)
(1.26225 -0.0680109 -2.13548e-21)
(1.25001 -0.0945132 -2.48849e-20)
(1.23419 -0.119545 -1.50113e-20)
(1.21488 -0.142479 0)
(1.19185 -0.16195 3.54307e-20)
(1.16493 -0.175401 -5.22939e-20)
(1.13627 -0.180375 0)
(1.11062 -0.211054 -5.82395e-20)
(1.2581 -0.0102589 1.2849e-21)
(1.25461 -0.0348042 3.3893e-21)
(1.24767 -0.0588592 0)
(1.23739 -0.0820841 -1.14565e-20)
(1.22378 -0.103972 4.13527e-21)
(1.2067 -0.123621 -1.39826e-25)
(1.18609 -0.139598 4.13789e-20)
(1.16271 -0.150599 3.92605e-21)
(1.13924 -0.157729 -4.99471e-20)
(1.11599 -0.189764 0)
(1.24339 -0.00869403 0)
(1.24044 -0.0300904 4.51756e-21)
(1.2345 -0.051069 -3.6688e-21)
(1.22551 -0.071253 2.07174e-21)
(1.21341 -0.0900284 4.1023e-21)
(1.19813 -0.106475 -4.04828e-21)
(1.18002 -0.119659 -3.72304e-20)
(1.16031 -0.129691 -2.83967e-24)
(1.1409 -0.138894 -1.03839e-19)
(1.12021 -0.168047 5.13966e-20)
(1.23043 -0.00737779 1.86239e-22)
(1.22786 -0.02605 2.0792e-21)
(1.2226 -0.0442855 -7.29656e-21)
(1.21457 -0.0616702 -2.05495e-21)
(1.20371 -0.0775887 -1.24327e-20)
(1.19018 -0.0913433 0)
(1.17459 -0.102643 -3.47381e-20)
(1.15806 -0.112369 3.91339e-21)
(1.14159 -0.122552 -3.68502e-21)
(1.12319 -0.147469 4.00684e-21)
(1.219 -0.0062465 1.91707e-22)
(1.2167 -0.0225173 -1.00299e-21)
(1.21195 -0.0383008 -3.61429e-21)
(1.20471 -0.0531763 -5.12867e-21)
(1.19501 -0.0666356 -2.06454e-20)
(1.18317 -0.0782894 -1.4396e-20)
(1.16984 -0.0883185 3.95526e-21)
(1.15584 -0.0977664 -2.25067e-24)
(1.14155 -0.107953 4.3629e-20)
(1.12516 -0.128626 -5.12906e-20)
(1.20893 -0.00526079 0)
(1.20684 -0.0193909 1.95022e-21)
(1.20253 -0.0329938 5.44177e-25)
(1.19599 -0.0456819 -1.58683e-20)
(1.18738 -0.0571019 -2.33112e-20)
(1.17708 -0.0671388 -5.30325e-21)
(1.16564 -0.0762015 -1.9917e-20)
(1.15358 -0.085179 0)
(1.14097 -0.0947741 0)
(1.12637 -0.111672 0)
(1.20007 -0.00439799 0)
(1.19818 -0.016613 2.12302e-21)
(1.19426 -0.0282902 2.02222e-21)
(1.18838 -0.0391061 -4.46777e-21)
(1.18077 -0.0488542 -1.14648e-20)
(1.17178 -0.0576077 1.00147e-20)
(1.16186 -0.0658218 -1.64447e-20)
(1.1513 -0.0741388 3.89359e-21)
(1.14004 -0.0828519 0)
(1.12701 -0.0965514 2.08442e-20)
(1.19233 -0.00364388 1.00989e-21)
(1.19062 -0.0141445 2.12221e-21)
(1.18707 -0.0241314 2.66858e-21)
(1.1818 -0.0333528 -6.00045e-21)
(1.17505 -0.0417202 -3.97645e-21)
(1.16716 -0.0494023 -1.56078e-20)
(1.15844 -0.0568054 1.37164e-20)
(1.14904 -0.0643417 3.88674e-21)
(1.1389 -0.0720693 0)
(1.12723 -0.0831133 2.23952e-21)
(1.18562 -0.00299121 0)
(1.18407 -0.0119582 7.37615e-22)
(1.18086 -0.020463 5.1843e-21)
(1.17613 -0.028321 0)
(1.17012 -0.035523 0)
(1.16311 -0.0422653 -1.59222e-20)
(1.15533 -0.0488705 1.0177e-20)
(1.14686 -0.0555746 -3.88155e-21)
(1.13765 -0.0623144 -5.77596e-21)
(1.12715 -0.0711737 -2.17754e-20)
(1.17983 -0.00242887 0)
(1.17844 -0.0100251 2.0912e-21)
(1.17553 -0.0172275 2.50886e-21)
(1.17127 -0.0239086 1.98222e-21)
(1.16588 -0.0300992 3.94638e-21)
(1.15958 -0.0359866 -3.92413e-21)
(1.15254 -0.0418058 6.77497e-25)
(1.14481 -0.0476731 1.28052e-20)
(1.13638 -0.0534718 -1.92214e-21)
(1.12688 -0.0605424 1.90782e-21)
(1.17488 -0.00194687 0)
(1.17364 -0.00831796 -6.84018e-22)
(1.17101 -0.0143686 -1.98283e-21)
(1.16715 -0.0200148 -1.97609e-21)
(1.16225 -0.0253042 0)
(1.15652 -0.0303962 0)
(1.15006 -0.0354487 0)
(1.14294 -0.0405029 1.31581e-20)
(1.13515 -0.0454264 1.26432e-20)
(1.12648 -0.051034 0)
(1.17072 -0.0015363 0)
(1.1696 -0.00680823 2.23571e-21)
(1.1672 -0.0118302 2.81607e-21)
(1.16367 -0.0165487 5.10845e-21)
(1.15919 -0.0210169 3.92448e-21)
(1.1539 -0.0253581 -2.77067e-22)
(1.1479 -0.0296698 -8.13629e-21)
(1.14126 -0.033949 0)
(1.134 -0.0380662 2.58089e-20)
(1.12601 -0.0424744 -1.00649e-20)
(1.16726 -0.00118814 -1.89625e-23)
(1.16625 -0.00546695 2.62947e-22)
(1.16405 -0.00955892 -1.10392e-21)
(1.1608 -0.0134331 -7.58555e-22)
(1.15663 -0.0171385 0)
(1.15169 -0.0207633 -1.54898e-22)
(1.14606 -0.0243626 -4.38448e-21)
(1.1398 -0.0279091 3.85843e-21)
(1.13298 -0.0312844 1.5755e-20)
(1.12554 -0.0347035 -7.38537e-21)
(1.16446 -0.00089375 -1.94109e-23)
(1.16354 -0.00426651 1.79809e-21)
(1.1615 -0.00750661 2.25117e-21)
(1.15846 -0.0106003 -7.88564e-22)
(1.15455 -0.0135858 0)
(1.14988 -0.0165222 0)
(1.14454 -0.0194368 3.87516e-21)
(1.13859 -0.0222906 -3.23852e-21)
(1.1321 -0.0249798 8.64079e-22)
(1.1251 -0.0275746 5.17722e-21)
(1.16228 -0.000642939 0)
(1.16142 -0.00318014 1.78754e-21)
(1.15951 -0.00563021 5.09999e-22)
(1.15665 -0.00799028 -6.69812e-21)
(1.15293 -0.010287 -3.9042e-21)
(1.14847 -0.0125583 -3.88862e-21)
(1.14334 -0.0148133 4.17979e-25)
(1.13762 -0.0170088 4.75461e-22)
(1.13139 -0.0190583 0)
(1.12472 -0.0209531 0)
(1.16066 -0.000425316 0)
(1.15986 -0.00218192 4.33722e-23)
(1.15805 -0.00388966 2.25162e-22)
(1.15531 -0.00554942 0)
(1.15174 -0.00718089 -2.49868e-22)
(1.14743 -0.00880593 -3.88546e-21)
(1.14246 -0.0104214 -4.56892e-21)
(1.13691 -0.0119865 -3.85058e-21)
(1.13087 -0.0134319 -5.74545e-21)
(1.12443 -0.0147161 -1.90448e-21)
(1.1596 -0.000232027 0)
(1.15884 -0.00124893 4.64882e-23)
(1.15709 -0.00224725 -1.97702e-21)
(1.15445 -0.00323105 1.95475e-21)
(1.15098 -0.0042143 3.62833e-21)
(1.14677 -0.00520662 7.26168e-23)
(1.1419 -0.00619741 3.11011e-21)
(1.13646 -0.00715237 -1.9048e-22)
(1.13054 -0.00801987 -3.82926e-21)
(1.12424 -0.00875164 0)
(1.15909 -7.03834e-05 0)
(1.15843 -0.000399476 1.96223e-21)
(1.15686 -0.000726015 -1.96897e-23)
(1.15442 -0.00105331 -1.95521e-21)
(1.15114 -0.00138619 0)
(1.14705 -0.00172578 8.44292e-23)
(1.14221 -0.00206481 3.86868e-21)
(1.13671 -0.00238762 3.62778e-21)
(1.13067 -0.00267314 0)
(1.12427 -0.00289918 0)
(1.0697 0.308028 0)
(1.07915 0.31426 -5.55484e-20)
(1.08312 0.341329 0)
(1.08603 0.381148 -1.07769e-19)
(1.08937 0.431818 -1.05902e-19)
(1.09365 0.494339 -4.19206e-20)
(1.09914 0.571518 1.00821e-19)
(1.10617 0.667897 8.32298e-20)
(1.11517 0.790308 0)
(1.12683 0.949079 7.98635e-20)
(1.11186 0.263395 -5.22039e-20)
(1.12374 0.295801 -5.67366e-20)
(1.13441 0.330533 -6.02837e-20)
(1.14524 0.37171 -9.97548e-20)
(1.15736 0.421643 -1.05854e-19)
(1.17173 0.482658 -1.32061e-19)
(1.1893 0.557902 1.48942e-20)
(1.21126 0.651909 2.47835e-20)
(1.23919 0.771375 1.31244e-20)
(1.27543 0.926392 8.68738e-20)
(1.15863 0.2455 -6.05076e-20)
(1.17171 0.276768 6.19979e-20)
(1.18655 0.311687 -6.19701e-20)
(1.2035 0.352178 -6.40037e-20)
(1.22334 0.400352 -6.64085e-20)
(1.24711 0.458671 -6.93094e-20)
(1.27622 0.530324 -1.46879e-19)
(1.31254 0.619745 -7.73112e-20)
(1.35872 0.733358 3.93298e-21)
(1.41869 0.880797 1.51321e-21)
(1.20141 0.225681 -1.67805e-19)
(1.21742 0.254031 6.34664e-20)
(1.23637 0.2865 0)
(1.2588 0.324319 0)
(1.28558 0.369171 0)
(1.31797 0.423265 1.48912e-20)
(1.35778 0.489568 -1.41448e-19)
(1.40752 0.572214 0)