/*--------------------------------*- C++ -*----------------------------------*\
| =========                 |                                                 |
| \\      /  F ield         | OpenFOAM: The Open Source CFD Toolbox           |
|  \\    /   O peration     | Version:  2.1.0                                 |
|   \\  /    A nd           | Web:      www.OpenFOAM.org                      |
|    \\/     M anipulation  |                                                 |
\*---------------------------------------------------------------------------*/
FoamFile
{
    version     2.0;
    format      ascii;
    class       volScalarField;
    location    "0.33";
    object      C2;
}
// * * * * * * * * * * * * * * * * * * * * * * * * * * * * * * * * * * * * * //

dimensions      [0 0 0 0 0 0 0];

internalField   nonuniform List<scalar> 
6400
(
0.00172232
0.0017366
0.00175424
0.00177228
0.00178996
0.00180709
0.00182361
0.0018395
0.00185476
0.00186938
0.00188335
0.00189668
0.00190935
0.00192137
0.00193272
0.00194341
0.00195343
0.00196278
0.00197146
0.00197947
0.0019868
0.00199346
0.00199944
0.00200475
0.00200938
0.00201333
0.0020166
0.0020192
0.00202111
0.00202235
0.00202291
0.00202279
0.00202198
0.0020205
0.00201832
0.00201547
0.00201192
0.00200768
0.00200275
0.00199712
0.00199079
0.00198376
0.00197601
0.00196755
0.00195837
0.00194846
0.00193781
0.00192642
0.00191427
0.00190136
0.00188768
0.00187321
0.00185794
0.00184186
0.00182496
0.00180722
0.00178862
0.00176915
0.00174879
0.00172753
0.00170533
0.00168219
0.00165807
0.00163296
0.00160683
0.00157967
0.00155143
0.00152211
0.00149166
0.00146006
0.00142729
0.0013933
0.00135809
0.0013216
0.00128382
0.00124471
0.00120425
0.00116241
0.00111916
0.00107447
0.00102834
0.000980751
0.000931695
0.000881179
0.000829222
0.000775855
0.000721134
0.000665134
0.000607965
0.000549768
0.000490734
0.000431106
0.000371238
0.000311708
0.000253452
0.000197509
0.000144645
9.64691e-05
5.55718e-05
2.53101e-05
0.00173169
0.00174623
0.00176394
0.00178197
0.00179962
0.00181669
0.00183316
0.00184901
0.00186422
0.0018788
0.00189273
0.00190601
0.00191865
0.00193062
0.00194194
0.0019526
0.00196259
0.00197192
0.00198057
0.00198856
0.00199588
0.00200253
0.00200851
0.00201381
0.00201844
0.0020224
0.00202569
0.0020283
0.00203024
0.0020315
0.00203209
0.00203201
0.00203124
0.0020298
0.00202769
0.00202489
0.0020214
0.00201724
0.00201238
0.00200683
0.00200058
0.00199364
0.00198599
0.00197762
0.00196854
0.00195874
0.0019482
0.00193692
0.0019249
0.00191211
0.00189855
0.00188421
0.00186907
0.00185312
0.00183635
0.00181874
0.00180028
0.00178094
0.00176071
0.00173957
0.00171751
0.00169449
0.00167049
0.0016455
0.00161948
0.00159242
0.00156428
0.00153503
0.00150465
0.00147312
0.00144038
0.00140643
0.00137121
0.00133471
0.00129688
0.00125769
0.00121712
0.00117513
0.00113168
0.00108675
0.00104032
0.000992361
0.000942862
0.000891816
0.00083923
0.000785125
0.000729542
0.00067255
0.000614257
0.000554823
0.000494479
0.000433565
0.000372576
0.000312222
0.00025345
0.000197474
0.000145219
9.85208e-05
5.99889e-05
3.24708e-05
0.00174818
0.001763
0.00178082
0.00179888
0.00181651
0.00183357
0.00185003
0.00186586
0.00188106
0.00189563
0.00190955
0.00192284
0.00193547
0.00194746
0.00195879
0.00196947
0.00197949
0.00198885
0.00199755
0.00200559
0.00201297
0.00201968
0.00202573
0.00203112
0.00203585
0.00203991
0.0020433
0.00204604
0.00204811
0.00204952
0.00205026
0.00205034
0.00204975
0.0020485
0.00204658
0.00204399
0.00204072
0.00203679
0.00203217
0.00202688
0.0020209
0.00201423
0.00200687
0.00199881
0.00199004
0.00198055
0.00197035
0.00195941
0.00194774
0.00193531
0.00192212
0.00190816
0.00189341
0.00187786
0.00186149
0.0018443
0.00182625
0.00180734
0.00178754
0.00176683
0.0017452
0.00172262
0.00169907
0.00167452
0.00164894
0.00162231
0.0015946
0.00156577
0.00153581
0.00150467
0.00147232
0.00143873
0.00140385
0.00136766
0.00133011
0.00129117
0.00125079
0.00120894
0.00116557
0.00112064
0.00107412
0.00102597
0.000976148
0.00092464
0.000871422
0.000816492
0.000759865
0.000701589
0.000641761
0.000580546
0.000518216
0.000455196
0.000392122
0.000329905
0.000269787
0.000213097
0.000160821
0.000114799
7.73196e-05
5.07806e-05
0.00177016
0.00178528
0.00180326
0.00182139
0.00183908
0.00185619
0.0018727
0.00188858
0.00190385
0.00191848
0.00193248
0.00194585
0.00195857
0.00197066
0.0019821
0.00199289
0.00200304
0.00201254
0.00202139
0.00202959
0.00203714
0.00204405
0.0020503
0.0020559
0.00206086
0.00206517
0.00206883
0.00207184
0.0020742
0.00207592
0.00207699
0.00207741
0.00207718
0.00207631
0.00207479
0.00207261
0.00206978
0.0020663
0.00206216
0.00205736
0.00205189
0.00204575
0.00203894
0.00203145
0.00202327
0.0020144
0.00200483
0.00199454
0.00198354
0.00197181
0.00195933
0.0019461
0.00193211
0.00191734
0.00190177
0.00188538
0.00186817
0.00185012
0.0018312
0.00181139
0.00179067
0.00176902
0.00174642
0.00172283
0.00169823
0.0016726
0.0016459
0.0016181
0.00158917
0.00155908
0.00152778
0.00149524
0.00146142
0.00142628
0.00138978
0.00135187
0.0013125
0.00127163
0.0012292
0.00118516
0.00113945
0.00109202
0.00104282
0.00099177
0.000938836
0.000883968
0.000827139
0.00076835
0.000707654
0.000645179
0.000581179
0.000516085
0.000450576
0.000385663
0.000322749
0.000263121
0.000207889
0.000158956
0.000118706
9.0128e-05
0.00179599
0.00181145
0.00182965
0.00184793
0.00186576
0.00188301
0.00189966
0.0019157
0.00193112
0.00194592
0.00196011
0.00197366
0.0019866
0.0019989
0.00201057
0.00202161
0.00203202
0.0020418
0.00205095
0.00205946
0.00206734
0.00207459
0.00208121
0.0020872
0.00209257
0.0020973
0.00210141
0.0021049
0.00210776
0.00210999
0.00211161
0.0021126
0.00211297
0.00211272
0.00211184
0.00211034
0.00210822
0.00210547
0.00210209
0.00209808
0.00209343
0.00208815
0.00208222
0.00207565
0.00206842
0.00206053
0.00205198
0.00204275
0.00203283
0.00202223
0.00201091
0.00199889
0.00198614
0.00197264
0.00195839
0.00194337
0.00192757
0.00191096
0.00189353
0.00187526
0.00185612
0.0018361
0.00181517
0.00179331
0.00177049
0.00174668
0.00172186
0.00169599
0.00166904
0.00164097
0.00161176
0.00158135
0.00154972
0.00151681
0.00148258
0.00144698
0.00140996
0.00137146
0.00133141
0.00128975
0.00124641
0.0012013
0.00115434
0.00110543
0.00105448
0.00100138
0.000946033
0.000888372
0.000828351
0.000765997
0.000701447
0.000635008
0.000567234
0.000499013
0.000431663
0.000366458
0.000304693
0.000248623
0.000201477
0.000168243
0.00182392
0.00183977
0.00185826
0.00187679
0.00189485
0.00191235
0.00192926
0.00194556
0.00196127
0.00197637
0.00199087
0.00200476
0.00201803
0.0020307
0.00204276
0.0020542
0.00206503
0.00207525
0.00208487
0.00209387
0.00210226
0.00211005
0.00211724
0.00212382
0.0021298
0.00213519
0.00213998
0.00214417
0.00214777
0.00215078
0.0021532
0.00215503
0.00215627
0.00215693
0.002157
0.00215649
0.00215539
0.0021537
0.00215143
0.00214857
0.00214512
0.00214107
0.00213643
0.00213119
0.00212534
0.00211889
0.00211182
0.00210413
0.00209581
0.00208686
0.00207726
0.002067
0.00205609
0.00204449
0.00203221
0.00201922
0.00200552
0.00199109
0.00197592
0.00195998
0.00194326
0.00192573
0.00190738
0.00188819
0.00186813
0.00184718
0.0018253
0.00180248
0.00177867
0.00175386
0.001728
0.00170105
0.00167299
0.00164375
0.00161331
0.0015816
0.00154856
0.00151414
0.00147826
0.00144085
0.00140182
0.00136105
0.00131845
0.00127388
0.00122718
0.00117821
0.00112679
0.00107273
0.00101588
0.00095608
0.000893278
0.000827525
0.000759069
0.000688434
0.000616576
0.000544824
0.000474635
0.000408832
0.000352156
0.000312848
0.00185202
0.00186832
0.00188719
0.00190607
0.00192449
0.00194236
0.00195965
0.00197636
0.00199249
0.00200803
0.00202299
0.00203736
0.00205115
0.00206435
0.00207696
0.00208898
0.00210042
0.00211128
0.00212155
0.00213124
0.00214036
0.00214891
0.00215688
0.00216428
0.00217112
0.0021774
0.00218312
0.00218828
0.00219289
0.00219695
0.00220046
0.00220343
0.00220586
0.00220775
0.0022091
0.00220992
0.0022102
0.00220995
0.00220916
0.00220785
0.002206
0.00220362
0.0022007
0.00219725
0.00219327
0.00218874
0.00218366
0.00217805
0.00217187
0.00216514
0.00215785
0.00214998
0.00214154
0.00213251
0.00212289
0.00211266
0.00210181
0.00209034
0.00207823
0.00206546
0.00205203
0.00203791
0.0020231
0.00200756
0.00199129
0.00197426
0.00195645
0.00193784
0.00191839
0.00189809
0.00187691
0.0018548
0.00183174
0.00180768
0.00178259
0.00175641
0.00172909
0.00170056
0.00167076
0.00163959
0.00160698
0.0015728
0.00153693
0.00149921
0.00145948
0.00141751
0.00137308
0.00132592
0.00127573
0.00122222
0.00116509
0.00110408
0.00103904
0.000969933
0.000897055
0.00082171
0.000745391
0.000671332
0.000605961
0.000561262
0.00187826
0.00189506
0.0019144
0.00193376
0.00195266
0.00197103
0.00198885
0.00200611
0.00202282
0.00203896
0.00205454
0.00206957
0.00208403
0.00209794
0.00211129
0.00212408
0.00213633
0.00214802
0.00215916
0.00216976
0.00217983
0.00218935
0.00219835
0.00220681
0.00221476
0.00222218
0.00222909
0.0022355
0.00224139
0.00224679
0.00225169
0.0022561
0.00226003
0.00226347
0.00226643
0.00226892
0.00227093
0.00227248
0.00227356
0.00227417
0.00227433
0.00227402
0.00227326
0.00227204
0.00227036
0.00226822
0.00226563
0.00226258
0.00225907
0.0022551
0.00225067
0.00224576
0.00224039
0.00223454
0.00222821
0.00222139
0.00221408
0.00220628
0.00219796
0.00218913
0.00217978
0.0021699
0.00215947
0.00214848
0.00213692
0.00212478
0.00211204
0.00209869
0.0020847
0.00207006
0.00205475
0.00203873
0.00202199
0.00200449
0.00198619
0.00196706
0.00194706
0.00192612
0.00190419
0.0018812
0.00185705
0.00183165
0.00180488
0.00177659
0.00174661
0.00171474
0.00168071
0.00164425
0.001605
0.00156258
0.00151655
0.00146644
0.00141173
0.00135186
0.00128628
0.00121571
0.00114181
0.00106745
0.000999928
0.000953786
0.00190066
0.00191802
0.00193794
0.00195789
0.00197741
0.00199643
0.00201492
0.00203288
0.00205032
0.00206722
0.0020836
0.00209945
0.00211477
0.00212956
0.00214383
0.00215759
0.00217083
0.00218355
0.00219577
0.00220749
0.00221871
0.00222943
0.00223967
0.00224943
0.00225871
0.00226752
0.00227587
0.00228376
0.0022912
0.00229819
0.00230475
0.00231087
0.00231656
0.00232184
0.0023267
0.00233115
0.0023352
0.00233886
0.00234211
0.00234499
0.00234747
0.00234959
0.00235132
0.00235269
0.00235369
0.00235432
0.0023546
0.00235452
0.00235408
0.00235329
0.00235214
0.00235065
0.0023488
0.00234661
0.00234406
0.00234116
0.00233792
0.00233432
0.00233036
0.00232605
0.00232138
0.00231635
0.00231096
0.0023052
0.00229906
0.00229254
0.00228564
0.00227834
0.00227064
0.00226253
0.002254
0.00224504
0.00223562
0.00222574
0.00221537
0.00220449
0.00219306
0.00218106
0.00216845
0.00215516
0.00214115
0.00212634
0.00211064
0.00209395
0.00207615
0.0020571
0.00203659
0.00201438
0.00199023
0.00196378
0.00193467
0.00190243
0.00186649
0.00182612
0.00178037
0.00172806
0.00167163
0.00161252
0.00155673
0.00151759
0.00191757
0.00193552
0.00195612
0.00197679
0.00199706
0.00201685
0.00203615
0.00205496
0.00207327
0.00209109
0.00210841
0.00212523
0.00214157
0.00215742
0.00217278
0.00218766
0.00220207
0.00221601
0.00222948
0.00224249
0.00225505
0.00226716
0.00227883
0.00229007
0.00230088
0.00231127
0.00232125
0.00233083
0.00234001
0.00234881
0.00235722
0.00236526
0.00237294
0.00238026
0.00238724
0.00239387
0.00240018
0.00240615
0.00241182
0.00241717
0.00242222
0.00242698
0.00243145
0.00243564
0.00243956
0.00244322
0.00244661
0.00244975
0.00245265
0.0024553
0.00245772
0.00245991
0.00246187
0.00246362
0.00246516
0.00246648
0.00246761
0.00246853
0.00246926
0.00246981
0.00247017
0.00247035
0.00247037
0.00247021
0.00246989
0.0024694
0.00246876
0.00246797
0.00246702
0.00246593
0.00246469
0.00246331
0.00246178
0.00246011
0.0024583
0.00245633
0.0024542
0.0024519
0.00244941
0.00244672
0.0024438
0.00244061
0.00243713
0.0024333
0.00242909
0.00242447
0.00241935
0.00241362
0.00240719
0.00239996
0.00239178
0.00238245
0.00237174
0.00235932
0.00234469
0.00232716
0.00230592
0.00228227
0.00225834
0.00223986
0.00192787
0.00194643
0.00196779
0.00198927
0.00201039
0.00203108
0.00205131
0.00207107
0.00209038
0.00210923
0.00212762
0.00214555
0.00216303
0.00218006
0.00219665
0.00221279
0.0022285
0.00224378
0.00225864
0.00227308
0.00228711
0.00230074
0.00231398
0.00232683
0.00233931
0.00235141
0.00236316
0.00237455
0.0023856
0.00239633
0.00240672
0.00241681
0.0024266
0.00243609
0.0024453
0.00245423
0.00246291
0.00247133
0.00247951
0.00248746
0.00249519
0.0025027
0.00251002
0.00251714
0.00252409
0.00253086
0.00253747
0.00254394
0.00255026
0.00255645
0.00256253
0.0025685
0.00257436
0.00258014
0.00258585
0.00259148
0.00259706
0.0026026
0.0026081
0.00261358
0.00261905
0.00262452
0.00263
0.0026355
0.00264104
0.00264663
0.00265229
0.00265804
0.00266387
0.00266982
0.0026759
0.00268211
0.00268849
0.00269505
0.00270181
0.00270877
0.00271597
0.00272342
0.00273113
0.00273913
0.00274743
0.00275604
0.00276499
0.00277429
0.00278393
0.00279393
0.00280431
0.00281516
0.0028266
0.00283879
0.00285191
0.00286609
0.00288155
0.00289847
0.00291706
0.00293755
0.00296012
0.00298453
0.00300837
0.00302512
0.00193128
0.00195041
0.00197257
0.00199492
0.00201696
0.0020386
0.00205982
0.00208061
0.00210099
0.00212094
0.00214046
0.00215957
0.00217827
0.00219655
0.00221443
0.00223191
0.00224899
0.00226568
0.002282
0.00229794
0.00231351
0.00232872
0.00234359
0.00235811
0.0023723
0.00238617
0.00239973
0.00241299
0.00242596
0.00243865
0.00245108
0.00246324
0.00247516
0.00248684
0.00249831
0.00250956
0.00252062
0.00253149
0.00254218
0.00255272
0.00256311
0.00257337
0.0025835
0.00259353
0.00260346
0.00261331
0.00262309
0.00263282
0.00264251
0.00265217
0.00266182
0.00267147
0.00268114
0.00269084
0.00270059
0.00271041
0.0027203
0.00273029
0.00274039
0.00275063
0.00276101
0.00277156
0.0027823
0.00279324
0.00280441
0.00281583
0.00282752
0.00283952
0.00285183
0.0028645
0.00287754
0.00289099
0.00290488
0.00291925
0.00293412
0.00294953
0.00296553
0.00298215
0.00299945
0.00301746
0.00303624
0.00305585
0.00307634
0.00309777
0.00312023
0.0031438
0.0031686
0.00319478
0.0032225
0.00325194
0.00328344
0.00331758
0.00335491
0.00339574
0.00344041
0.00348918
0.00354169
0.00359599
0.00364634
0.00368031
0.00192818
0.00194784
0.00197078
0.001994
0.00201697
0.00203958
0.0020618
0.00208363
0.00210508
0.00212614
0.00214681
0.0021671
0.00218702
0.00220656
0.00222573
0.00224454
0.00226299
0.0022811
0.00229885
0.00231628
0.00233338
0.00235016
0.00236663
0.0023828
0.00239869
0.00241429
0.00242963
0.00244471
0.00245955
0.00247416
0.00248855
0.00250272
0.00251671
0.00253051
0.00254415
0.00255763
0.00257097
0.00258418
0.00259729
0.00261029
0.00262322
0.00263608
0.00264889
0.00266166
0.00267441
0.00268716
0.00269992
0.00271272
0.00272556
0.00273847
0.00275145
0.00276455
0.00277776
0.00279111
0.00280461
0.0028183
0.00283219
0.00284629
0.00286065
0.00287526
0.00289017
0.00290539
0.00292095
0.00293687
0.00295319
0.00296993
0.00298713
0.00300481
0.00302302
0.00304178
0.00306113
0.00308112
0.00310179
0.00312318
0.00314534
0.00316832
0.00319217
0.00321696
0.00324275
0.00326959
0.00329757
0.00332676
0.00335725
0.00338912
0.0034225
0.00345748
0.00349423
0.00353291
0.0035737
0.00361683
0.00366257
0.00371124
0.00376337
0.00381951
0.00387958
0.00394339
0.00400988
0.00407615
0.00413563
0.00417534
0.00191954
0.00193964
0.0019633
0.00198737
0.00201122
0.00203475
0.00205793
0.00208076
0.00210323
0.00212535
0.00214712
0.00216854
0.00218962
0.00221036
0.00223076
0.00225084
0.00227059
0.00229003
0.00230916
0.00232799
0.00234652
0.00236478
0.00238276
0.00240048
0.00241795
0.00243518
0.00245218
0.00246896
0.00248554
0.00250193
0.00251814
0.00253418
0.00255007
0.00256582
0.00258146
0.00259698
0.00261241
0.00262777
0.00264307
0.00265832
0.00267355
0.00268876
0.00270399
0.00271924
0.00273453
0.00274989
0.00276533
0.00278087
0.00279653
0.00281233
0.00282829
0.00284443
0.00286078
0.00287736
0.00289419
0.00291129
0.0029287
0.00294642
0.0029645
0.00298295
0.00300181
0.0030211
0.00304086
0.00306112
0.0030819
0.00310325
0.0031252
0.00314779
0.00317106
0.00319505
0.00321981
0.00324538
0.00327181
0.00329916
0.00332747
0.00335682
0.00338725
0.00341884
0.00345165
0.00348576
0.00352125
0.00355819
0.00359667
0.0036368
0.00367866
0.00372236
0.00376804
0.0038158
0.00386577
0.00391809
0.00397288
0.0040302
0.00409012
0.00415303
0.00421853
0.00428596
0.00435386
0.00441925
0.00447646
0.00451502
0.00190676
0.0019272
0.0019515
0.00197632
0.00200099
0.00202536
0.00204942
0.00207315
0.00209656
0.00211965
0.00214242
0.00216487
0.002187
0.00220883
0.00223035
0.00225157
0.0022725
0.00229315
0.00231351
0.00233361
0.00235344
0.00237302
0.00239236
0.00241147
0.00243036
0.00244904
0.00246751
0.00248581
0.00250393
0.00252189
0.00253971
0.00255739
0.00257496
0.00259243
0.00260981
0.00262712
0.00264438
0.0026616
0.0026788
0.00269599
0.00271321
0.00273045
0.00274775
0.00276513
0.00278259
0.00280017
0.00281788
0.00283574
0.00285379
0.00287203
0.00289049
0.0029092
0.00292818
0.00294745
0.00296704
0.00298698
0.0030073
0.00302802
0.00304916
0.00307077
0.00309288
0.00311551
0.00313869
0.00316248
0.00318689
0.00321197
0.00323776
0.00326429
0.00329162
0.00331979
0.00334885
0.00337884
0.00340982
0.00344184
0.00347496
0.00350924
0.00354475
0.00358154
0.00361969
0.00365925
0.00370032
0.00374295
0.00378722
0.0038332
0.00388096
0.00393058
0.00398211
0.00403561
0.00409108
0.00414853
0.00420787
0.00426894
0.00433144
0.00439503
0.00445947
0.00452373
0.00458625
0.00464448
0.00469427
0.00472849
0.00189147
0.00191215
0.00193697
0.00196244
0.00198781
0.00201292
0.00203775
0.00206227
0.0020865
0.00211043
0.00213407
0.00215742
0.00218048
0.00220325
0.00222574
0.00224796
0.00226992
0.00229161
0.00231304
0.00233423
0.00235518
0.00237591
0.00239641
0.00241671
0.00243681
0.00245673
0.00247647
0.00249605
0.00251548
0.00253478
0.00255395
0.00257302
0.002592
0.00261091
0.00262975
0.00264855
0.00266732
0.00268608
0.00270485
0.00272365
0.00274249
0.00276139
0.00278038
0.00279948
0.00281869
0.00283806
0.00285759
0.00287732
0.00289726
0.00291743
0.00293787
0.0029586
0.00297963
0.00300101
0.00302276
0.00304489
0.00306745
0.00309047
0.00311397
0.00313798
0.00316254
0.00318769
0.00321345
0.00323987
0.00326698
0.00329482
0.00332344
0.00335287
0.00338316
0.00341436
0.00344651
0.00347967
0.00351388
0.00354921
0.00358569
0.0036234
0.00366239
0.00370272
0.00374444
0.00378763
0.00383233
0.0038786
0.0039265
0.00397606
0.00402733
0.00408034
0.00413507
0.00419151
0.00424958
0.00430915
0.00436998
0.0044317
0.00449378
0.00455545
0.00461632
0.00467531
0.00473096
0.00478118
0.00482314
0.00485253
0.00187537
0.00189616
0.00192137
0.00194737
0.00197333
0.00199906
0.00202452
0.00204971
0.00207463
0.00209927
0.00212363
0.00214772
0.00217155
0.00219511
0.00221841
0.00224146
0.00226426
0.00228682
0.00230914
0.00233123
0.0023531
0.00237477
0.00239623
0.0024175
0.0024386
0.00245952
0.00248029
0.00250091
0.00252141
0.00254178
0.00256205
0.00258223
0.00260234
0.00262239
0.0026424
0.00266238
0.00268235
0.00270232
0.00272233
0.00274237
0.00276249
0.00278268
0.00280298
0.00282339
0.00284396
0.00286469
0.00288561
0.00290673
0.0029281
0.00294972
0.00297162
0.00299383
0.00301638
0.00303929
0.00306259
0.00308631
0.00311047
0.00313512
0.00316027
0.00318596
0.00321223
0.0032391
0.00326662
0.00329482
0.00332374
0.00335341
0.00338389
0.0034152
0.0034474
0.00348052
0.00351462
0.00354974
0.00358594
0.00362325
0.00366174
0.00370145
0.00374244
0.00378475
0.00382845
0.00387357
0.00392015
0.00396825
0.0040179
0.0040691
0.00412188
0.00417622
0.00423209
0.00428941
0.00434806
0.00440782
0.0044684
0.00452933
0.00458999
0.0046495
0.00470714
0.00476199
0.00481266
0.00485735
0.00489389
0.00491968
0.0018602
0.00188096
0.00190644
0.00193283
0.00195924
0.00198546
0.00201142
0.00203713
0.00206258
0.00208778
0.00211271
0.00213739
0.00216181
0.00218599
0.00220992
0.00223362
0.00225707
0.0022803
0.00230331
0.0023261
0.00234868
0.00237107
0.00239327
0.00241529
0.00243714
0.00245884
0.00248039
0.00250181
0.00252311
0.0025443
0.0025654
0.00258642
0.00260737
0.00262828
0.00264916
0.00267002
0.00269088
0.00271175
0.00273267
0.00275363
0.00277467
0.0027958
0.00281705
0.00283842
0.00285995
0.00288166
0.00290356
0.00292568
0.00294804
0.00297067
0.0029936
0.00301683
0.00304041
0.00306436
0.00308871
0.00311348
0.0031387
0.00316441
0.00319063
0.0032174
0.00324474
0.00327269
0.00330129
0.00333058
0.00336057
0.00339132
0.00342287
0.00345525
0.0034885
0.00352266
0.00355779
0.00359391
0.00363108
0.00366935
0.00370875
0.00374933
0.00379113
0.00383421
0.0038786
0.00392434
0.00397146
0.00401999
0.00406995
0.00412134
0.00417416
0.00422837
0.00428393
0.00434075
0.00439868
0.00445752
0.00451697
0.00457659
0.00463581
0.00469387
0.00474981
0.00480285
0.00485167
0.00489451
0.00492924
0.00495369
0.00184777
0.00186837
0.00189397
0.00192062
0.00194735
0.0019739
0.00200022
0.00202629
0.00205212
0.0020777
0.00210303
0.00212812
0.00215297
0.00217757
0.00220194
0.00222608
0.00225
0.00227369
0.00229717
0.00232045
0.00234352
0.00236641
0.00238911
0.00241164
0.00243402
0.00245624
0.00247832
0.00250028
0.00252212
0.00254387
0.00256552
0.00258711
0.00260863
0.00263011
0.00265157
0.00267301
0.00269446
0.00271593
0.00273744
0.00275901
0.00278065
0.0028024
0.00282425
0.00284624
0.00286839
0.00289072
0.00291324
0.00293599
0.00295898
0.00298224
0.00300579
0.00302966
0.00305387
0.00307845
0.00310342
0.00312881
0.00315466
0.00318098
0.00320782
0.00323519
0.00326314
0.00329168
0.00332086
0.00335071
0.00338127
0.00341256
0.00344463
0.00347752
0.00351125
0.00354587
0.00358142
0.00361793
0.00365545
0.00369402
0.00373367
0.00377445
0.00381639
0.00385952
0.00390389
0.00394952
0.00399643
0.00404464
0.00409416
0.00414499
0.00419711
0.00425047
0.00430503
0.0043607
0.00441735
0.0044748
0.00453282
0.00459106
0.00464905
0.00470617
0.00476161
0.00481457
0.00486388
0.0049078
0.00494393
0.00496964
0.00184005
0.00186038
0.00188599
0.00191277
0.00193966
0.0019664
0.00199291
0.00201918
0.00204522
0.002071
0.00209655
0.00212186
0.00214693
0.00217177
0.00219637
0.00222075
0.0022449
0.00226884
0.00229257
0.0023161
0.00233944
0.00236258
0.00238555
0.00240835
0.00243099
0.00245349
0.00247585
0.00249808
0.0025202
0.00254223
0.00256417
0.00258604
0.00260785
0.00262962
0.00265137
0.0026731
0.00269484
0.00271661
0.00273841
0.00276028
0.00278222
0.00280426
0.00282641
0.0028487
0.00287114
0.00289376
0.00291658
0.00293962
0.00296291
0.00298646
0.0030103
0.00303445
0.00305895
0.00308381
0.00310906
0.00313473
0.00316084
0.00318743
0.00321453
0.00324215
0.00327034
0.00329912
0.00332853
0.00335859
0.00338935
0.00342083
0.00345308
0.00348612
0.00351999
0.00355473
0.00359038
0.00362696
0.00366453
0.0037031
0.00374273
0.00378345
0.00382528
0.00386826
0.00391243
0.00395779
0.00400438
0.0040522
0.00410126
0.00415156
0.00420306
0.00425573
0.00430951
0.00436433
0.00442007
0.0044766
0.00453373
0.00459121
0.00464865
0.00470544
0.00476079
0.00481394
0.00486389
0.0049092
0.00494757
0.00497592
9.88264e-06
9.86677e-06
1.2297e-05
1.57133e-05
1.97477e-05
2.42917e-05
2.9324e-05
3.48686e-05
4.09867e-05
4.7778e-05
5.53858e-05
6.40015e-05
7.38654e-05
8.52597e-05
9.84828e-05
0.000113784
0.000131223
0.000150359
0.000169569
0.000184529
1.92904e-05
2.00907e-05
2.43785e-05
3.02052e-05
3.69419e-05
4.4372e-05
5.24349e-05
6.11512e-05
7.06044e-05
8.09395e-05
9.23676e-05
0.00010517
0.000119694
0.000136339
0.000155509
0.000177511
0.000202336
0.000229185
0.000255517
0.000275151
3.8708e-05
4.16415e-05
4.89551e-05
5.83732e-05
6.90385e-05
8.05975e-05
9.29219e-05
0.000106015
0.000119981
0.000135021
0.000151431
0.000169603
0.000190016
0.000213203
0.000239684
0.000269816
0.000303483
0.000339445
0.000374109
0.0003992
7.9027e-05
8.53488e-05
9.70989e-05
0.000111465
0.000127372
0.000144329
0.000162128
0.000180743
0.000200295
0.000221047
0.000243394
0.000267861
0.000295074
0.000325714
0.000360423
0.000399595
0.000442948
0.000488699
0.00053204
0.000562408
0.000158614
0.000169392
0.000186788
0.000207237
0.00022939
0.000252623
0.000276649
0.000301413
0.000327055
0.000353899
0.000382452
0.000413379
0.000447457
0.000485522
0.000528337
0.000576295
0.000628872
0.000683623
0.000734424
0.000768739
0.000305432
0.00032104
0.000344384
0.000371069
0.00039944
0.000428733
0.000458594
0.000488946
0.000519947
0.000551978
0.000585666
0.000621797
0.000661285
0.000705111
0.000754127
0.000808677
0.000867909
0.000928614
0.000983362
0.00101881
0.000556358
0.000575717
0.000603488
0.000634633
0.000667233
0.000700405
0.000733746
0.000767164
0.000800831
0.0008352
0.000870975
0.000909003
0.000950279
0.000995882
0.00104671
0.00110299
0.0011635
0.00122423
0.00127681
0.00130903
0.000950584
0.000970543
0.000998653
0.00102978
0.00106193
0.00109416
0.00112606
0.00115755
0.00118885
0.00122047
0.00125304
0.00128733
0.00132432
0.00136509
0.00141049
0.00146066
0.00151399
0.00156599
0.00160857
0.00163286
0.00151436
0.00152981
0.00155164
0.0015756
0.00159999
0.00162399
0.00164728
0.00166984
0.00169198
0.00171401
0.00173634
0.00175951
0.00178429
0.00181152
0.00184197
0.00187564
0.00191096
0.00194396
0.00196899
0.00198208
0.00223605
0.00224129
0.00224916
0.00225771
0.00226615
0.00227403
0.00228127
0.00228788
0.00229393
0.00229942
0.00230449
0.00230928
0.00231411
0.00231923
0.00232504
0.00233156
0.00233817
0.00234351
0.00234615
0.00234662
0.0030253
0.00301742
0.00300659
0.00299462
0.00298221
0.00296967
0.00295696
0.00294392
0.00293036
0.00291608
0.00290089
0.00288447
0.00286642
0.00284629
0.00282367
0.00279872
0.00277269
0.00274796
0.00272748
0.00271471
0.00368029
0.003664
0.00364148
0.00361652
0.0035906
0.00356435
0.00353799
0.00351148
0.00348442
0.0034564
0.00342693
0.00339541
0.00336102
0.00332295
0.00328054
0.00323394
0.00318495
0.00313789
0.00309921
0.00307542
0.00417614
0.00415678
0.00412977
0.00409962
0.00406804
0.00403578
0.00400314
0.00397013
0.00393647
0.00390165
0.00386498
0.00382568
0.0037828
0.00373536
0.0036826
0.00362456
0.00356291
0.00350221
0.00345079
0.00341876
0.00451815
0.00450011
0.00447431
0.00444513
0.00441423
0.00438232
0.00434972
0.00431642
0.00428222
0.00424665
0.00420901
0.00416848
0.00412411
0.00407492
0.00402013
0.00395958
0.00389462
0.00382924
0.0037719
0.00373544
0.00473448
0.00472028
0.00469898
0.00467443
0.00464804
0.00462045
0.00459192
0.00456247
0.00453191
0.00449983
0.00446564
0.00442857
0.00438777
0.00434232
0.00429146
0.00423494
0.00417368
0.00411093
0.00405417
0.00401713
0.0048609
0.00485125
0.00483554
0.0048169
0.00479649
0.00477484
0.00475216
0.00472847
0.0047036
0.00467721
0.0046488
0.00461776
0.00458332
0.00454472
0.00450125
0.00445259
0.00439932
0.00434392
0.00429253
0.00425769
0.00492966
0.00492408
0.00491351
0.00490045
0.00488584
0.0048701
0.00485339
0.0048357
0.00481688
0.00479667
0.00477469
0.00475042
0.00472327
0.0046926
0.0046578
0.00461853
0.00457512
0.00452936
0.00448605
0.00445557
0.00496476
0.00496223
0.00495565
0.00494707
0.00493726
0.00492652
0.00491494
0.0049025
0.00488909
0.0048745
0.00485844
0.00484053
0.0048203
0.00479725
0.00477088
0.00474088
0.00470739
0.00467165
0.00463723
0.00461224
0.00498188
0.00498126
0.00497738
0.00497204
0.0049658
0.00495885
0.00495124
0.00494294
0.00493384
0.00492381
0.00491263
0.00490003
0.00488567
0.00486918
0.00485015
0.00482831
0.0048037
0.0047771
0.00475105
0.00473162
0.00499035
0.00499043
0.0049882
0.00498503
0.00498125
0.00497697
0.00497218
0.00496685
0.00496093
0.00495431
0.00494685
0.00493836
0.0049286
0.0049173
0.00490418
0.004889
0.00487172
0.00485279
0.00483382
0.00481908
9.4009e-55
9.3899e-55
9.38155e-55
9.38666e-55
9.41399e-55
9.47044e-55
9.56086e-55
9.68804e-55
9.85275e-55
1.00538e-54
1.0288e-54
1.05504e-54
1.08341e-54
1.11303e-54
1.14287e-54
1.1717e-54
1.19813e-54
1.22059e-54
1.23743e-54
1.24686e-54
5.05393e-54
5.04251e-54
5.03371e-54
5.0329e-54
5.04475e-54
5.07299e-54
5.12026e-54
5.18803e-54
5.27668e-54
5.38555e-54
5.51296e-54
5.65618e-54
5.81152e-54
5.97431e-54
6.13897e-54
6.29893e-54
6.44665e-54
6.57369e-54
6.67105e-54
6.72966e-54
1.92749e-53
1.92026e-53
1.91438e-53
1.91202e-53
1.91495e-53
1.92454e-53
1.94179e-53
1.96725e-53
2.0011e-53
2.04308e-53
2.09257e-53
2.14851e-53
2.20949e-53
2.27373e-53
2.33907e-53
2.40299e-53
2.4626e-53
2.51472e-53
2.55592e-53
2.58249e-53
6.90029e-53
6.86276e-53
6.83128e-53
6.81443e-53
6.8183e-53
6.84772e-53
6.90615e-53
6.9957e-53
7.11702e-53
7.26929e-53
7.45027e-53
7.65622e-53
7.88206e-53
8.12133e-53
8.36616e-53
8.60738e-53
8.83467e-53
9.03665e-53
9.20116e-53
9.31376e-53
2.43067e-52
2.4134e-52
2.39835e-52
2.38917e-52
2.38802e-52
2.39654e-52
2.41591e-52
2.44688e-52
2.4897e-52
2.5441e-52
2.60931e-52
2.68401e-52
2.7664e-52
2.85418e-52
2.94454e-52
3.03423e-52
3.11961e-52
3.19673e-52
3.26123e-52
3.30711e-52
8.51433e-52
8.43943e-52
8.37264e-52
8.32863e-52
8.31535e-52
8.33845e-52
8.40198e-52
8.50849e-52
8.65888e-52
8.85226e-52
9.08595e-52
9.35534e-52
9.65414e-52
9.9742e-52
1.03057e-51
1.06371e-51
1.09559e-51
1.12481e-51
1.14977e-51
1.16808e-51
2.97313e-51
2.9419e-51
2.91361e-51
2.89403e-51
2.88607e-51
2.89172e-51
2.91237e-51
2.94889e-51
3.00157e-51
3.07011e-51
3.15359e-51
3.2504e-51
3.35834e-51
3.47458e-51
3.59567e-51
3.71764e-51
3.83608e-51
3.94604e-51
4.0417e-51
4.11369e-51
1.03554e-50
1.02288e-50
1.01129e-50
1.00298e-50
9.99036e-51
1.00015e-50
1.00681e-50
1.01929e-50
1.03771e-50
1.06194e-50
1.09168e-50
1.12636e-50
1.16523e-50
1.2073e-50
1.25137e-50
1.29608e-50
1.33988e-50
1.38101e-50
1.41736e-50
1.4453e-50
3.59797e-50
3.54782e-50
3.50144e-50
3.46741e-50
3.44959e-50
3.45048e-50
3.47173e-50
3.51432e-50
3.57855e-50
3.66405e-50
3.7697e-50
3.89361e-50
4.03311e-50
4.18484e-50
4.34469e-50
4.50791e-50
4.66912e-50
4.82211e-50
4.95917e-50
5.06643e-50
1.24709e-49
1.22756e-49
1.20937e-49
1.19577e-49
1.18817e-49
1.18745e-49
1.19417e-49
1.20866e-49
1.23102e-49
1.26111e-49
1.29855e-49
1.34268e-49
1.3926e-49
1.44715e-49
1.50492e-49
1.56428e-49
1.62334e-49
1.67993e-49
1.73124e-49
1.77202e-49
4.31204e-49
4.23708e-49
4.16685e-49
4.11362e-49
4.08244e-49
4.07638e-49
4.09739e-49
4.14658e-49
4.22426e-49
4.32993e-49
4.46226e-49
4.61901e-49
4.7971e-49
4.99255e-49
5.20059e-49
5.41559e-49
5.63103e-49
5.83922e-49
6.0301e-49
6.18378e-49
1.48731e-48
1.4589e-48
1.43215e-48
1.41166e-48
1.39922e-48
1.39592e-48
1.40241e-48
1.41908e-48
1.44601e-48
1.48303e-48
1.52968e-48