/*--------------------------------*- C++ -*----------------------------------*\
| =========                 |                                                 |
| \\      /  F ield         | OpenFOAM: The Open Source CFD Toolbox           |
|  \\    /   O peration     | Version:  2.1.0                                 |
|   \\  /    A nd           | Web:      www.OpenFOAM.org                      |
|    \\/     M anipulation  |                                                 |
\*---------------------------------------------------------------------------*/
FoamFile
{
    version     2.0;
    format      ascii;
    class       volScalarField;
    location    "0.33";
    object      k;
}
// * * * * * * * * * * * * * * * * * * * * * * * * * * * * * * * * * * * * * //

dimensions      [0 2 -2 0 0 0 0];

internalField   nonuniform List<scalar> 
6400
(
0.032431
0.0325137
0.0325357
0.0325508
0.0325557
0.0325591
0.0325578
0.032557
0.0325473
0.032542
0.0325278
0.0325182
0.0325002
0.0324855
0.0324641
0.0324444
0.0324196
0.032395
0.0323671
0.0323381
0.032307
0.0322741
0.0322401
0.0322038
0.0321668
0.0321271
0.0320871
0.0320441
0.0320009
0.0319547
0.031908
0.0318584
0.031808
0.0317547
0.0317004
0.0316429
0.031584
0.0315215
0.0314569
0.0313882
0.0313164
0.0312397
0.0311588
0.0310721
0.0309797
0.0308804
0.030774
0.0306593
0.0305361
0.0304032
0.0302605
0.0301064
0.0299386
0.0297549
0.0295533
0.0293498
0.0291309
0.0289075
0.0286709
0.0284278
0.028174
0.0279121
0.0276406
0.0273584
0.0270672
0.0267631
0.0264494
0.026122
0.0257771
0.025421
0.0250435
0.0246525
0.0242395
0.0238098
0.023359
0.0228901
0.0224022
0.0218975
0.0213779
0.0208455
0.0203026
0.0197485
0.0191764
0.0185592
0.0179037
0.0172163
0.0164754
0.0156613
0.0147379
0.0136582
0.0123486
0.010702
0.00862489
0.00615559
0.00352107
0.00235961
0.00275088
0.00552783
0.00876229
0.009916
0.0526256
0.0529784
0.0531399
0.0534281
0.0536101
0.0538907
0.0540905
0.054361
0.0545759
0.054838
0.0550647
0.0553205
0.0555556
0.0558069
0.0560477
0.0562958
0.05654
0.056786
0.0570323
0.0572774
0.0575256
0.0577713
0.0580223
0.0582712
0.0585263
0.0587799
0.0590402
0.0592994
0.0595651
0.0598306
0.0601022
0.0603745
0.0606525
0.0609321
0.0612173
0.0615046
0.0617978
0.0620941
0.0623959
0.0626993
0.0630071
0.0633159
0.0636273
0.0639384
0.0642495
0.0645577
0.0648626
0.0651611
0.0654524
0.0657336
0.0660046
0.0662675
0.0665187
0.0667502
0.0669554
0.0671659
0.0673568
0.0675425
0.0677073
0.0678564
0.0679919
0.0681097
0.0682142
0.0682964
0.0683646
0.068403
0.06842
0.0684221
0.068372
0.0682959
0.0681633
0.0679869
0.0677438
0.0674374
0.0670506
0.066581
0.0660159
0.0653504
0.0645759
0.0636885
0.0626848
0.0615653
0.0603363
0.0589821
0.0574475
0.0556972
0.0536903
0.0513791
0.0486967
0.0455818
0.0419706
0.0378217
0.0331787
0.0283183
0.023361
0.0186412
0.0149731
0.0123935
0.0107856
0.00921928
0.0587379
0.0592274
0.0594506
0.059851
0.0601251
0.0605078
0.0608125
0.0611829
0.0615085
0.0618716
0.0622119
0.0625713
0.0629219
0.0632798
0.0636374
0.0639949
0.0643566
0.0647135
0.0650762
0.065432
0.0657951
0.0661508
0.066514
0.0668716
0.0672379
0.0675994
0.0679686
0.0683339
0.0687056
0.0690743
0.0694481
0.0698197
0.0701951
0.0705686
0.0709449
0.0713189
0.0716946
0.0720666
0.0724388
0.0728082
0.0731758
0.0735393
0.0738988
0.0742517
0.0745972
0.074932
0.0752542
0.0755588
0.0758421
0.0760984
0.0763178
0.0765081
0.076689
0.0768424
0.0769815
0.0770966
0.0771909
0.0772631
0.0773114
0.0773346
0.0773403
0.0772995
0.077229
0.0771118
0.0769604
0.0767564
0.0765113
0.0762098
0.0758565
0.0754415
0.0749602
0.0744061
0.0737692
0.0730426
0.0722138
0.0712746
0.0702118
0.0690167
0.0676774
0.0661861
0.0645339
0.0627151
0.0607245
0.0585579
0.0562303
0.0537465
0.0511052
0.0483041
0.0453265
0.0421539
0.0387497
0.0350763
0.0311152
0.0268564
0.0224199
0.0180703
0.0144161
0.0114536
0.00928073
0.00710202
0.0631687
0.0636869
0.0639237
0.0643669
0.064678
0.0651009
0.065451
0.06586
0.0662331
0.0666341
0.0670217
0.0674188
0.0678156
0.0682114
0.0686142
0.0690102
0.0694164
0.0698128
0.0702204
0.070615
0.0710168
0.0714031
0.0717909
0.072164
0.0725462
0.0729176
0.0732933
0.0736595
0.074027
0.074385
0.0747417
0.0750885
0.0754313
0.0757632
0.0760887
0.0764015
0.0767067
0.0769975
0.0772747
0.0775385
0.0777846
0.0780144
0.0782237
0.0784127
0.0785784
0.0787192
0.0788333
0.0789178
0.0789652
0.0789851
0.0789871
0.0789326
0.0788592
0.0787326
0.0785742
0.0783628
0.0781069
0.0777938
0.0774236
0.0769883
0.0764894
0.0759184
0.0752756
0.0745525
0.07375
0.0728589
0.0718822
0.0708117
0.0696508
0.0683942
0.0670452
0.0656015
0.0640671
0.0624427
0.0607314
0.0589366
0.0570611
0.0551097
0.0530846
0.0509907
0.0488295
0.0466056
0.04432
0.0419768
0.0395782
0.0371266
0.0346264
0.0321016
0.0295441
0.0269734
0.024389
0.0218071
0.0192323
0.0166844
0.0141952
0.0118468
0.00968393
0.00785319
0.00658433
0.0059896
0.0642668
0.0647258
0.0649316
0.0653337
0.0656046
0.0659862
0.0662897
0.0666518
0.0669714
0.0673174
0.0676432
0.0679757
0.0683013
0.0686214
0.068942
0.0692498
0.0695611
0.0698549
0.0701521
0.0704319
0.0707117
0.0709747
0.0712355
0.0714807
0.0717226
0.0719478
0.0721666
0.072367
0.072558
0.0727283
0.0728861
0.0730209
0.0731396
0.0732327
0.0733057
0.0733441
0.0733606
0.073362
0.0733112
0.0732423
0.0731269
0.0729815
0.072791
0.0725618
0.0722865
0.0719658
0.0715967
0.0711772
0.0707067
0.0701834
0.0696061
0.0689707
0.0682822
0.0675317
0.0667283
0.0658644
0.0649455
0.0639658
0.0629301
0.0618343
0.0606833
0.059474
0.0582115
0.0568941
0.0555267
0.0541087
0.0526452
0.0511363
0.0495873
0.0479989
0.0463764
0.0447211
0.0430388
0.0413323
0.0396119
0.0378764
0.0361347
0.0343874
0.0326432
0.0309038
0.0291778
0.027469
0.0257859
0.0241332
0.0225185
0.0209467
0.0194241
0.0179367
0.0165029
0.01511
0.0137719
0.0124782
0.0112425
0.0100603
0.00895136
0.00793081
0.00702499
0.00639656
0.00612455
0.00612202
0.0603921
0.0606111
0.0607114
0.0609218
0.0610619
0.0612564
0.0614074
0.0615784
0.0617255
0.0618711
0.0620051
0.0621242
0.0622389
0.0623302
0.0624206
0.0624824
0.0625432
0.0625733
0.0625908
0.0625951
0.0625771
0.0625366
0.0624767
0.0623918
0.0622858
0.0621564
0.0620077
0.0618311
0.0616337
0.0614048
0.0611528
0.0608666
0.0605548
0.0602067
0.0598304
0.0594161
0.0589725
0.0584896
0.0579729
0.0574192
0.0568292
0.0562024
0.0555389
0.0548383
0.0541018
0.0533286
0.052521
0.0516776
0.0508018
0.0498918
0.0489518
0.0479799
0.046981
0.0459531
0.0449019
0.0438246
0.0427277
0.0416089
0.0404778
0.0393304
0.0381754
0.0370096
0.0358408
0.034667
0.0334952
0.032324
0.0311596
0.0300015
0.0288552
0.027721
0.0266035
0.0255038
0.0244256
0.0233691
0.0223339
0.0213241
0.0203403
0.0193858
0.0184622
0.0175708
0.0167095
0.0158781
0.0150777
0.0143067
0.0135656
0.0128518
0.0121652
0.0115024
0.010863
0.0102423
0.0096401
0.00905133
0.00847809
0.00791921
0.00738726
0.00689464
0.00653473
0.00637828
0.00635238
0.00656981
0.0505117
0.0503507
0.0502859
0.0501791
0.0501125
0.0499972
0.0499114
0.0497749
0.0496619
0.0494983
0.0493541
0.0491603
0.0489827
0.048757
0.0485446
0.048286
0.0480379
0.0477458
0.0474615
0.047138
0.0468134
0.046452
0.0460856
0.045685
0.0452763
0.0448357
0.0443851
0.0439038
0.0434113
0.0428892
0.0423552
0.0417932
0.0412192
0.0406188
0.0400068
0.0393706
0.0387237
0.0380548
0.0373764
0.0366792
0.0359757
0.0352573
0.0345342
0.0337999
0.0330633
0.0323191
0.0315753
0.0308274
0.0300829
0.0293379
0.0285992
0.0278634
0.027137
0.0264167
0.025707
0.0250043
0.0243153
0.0236365
0.0229711
0.0223173
0.0216787
0.0210531
0.0204439
0.0198486
0.0192698
0.0187062
0.0181597
0.0176257
0.0171074
0.0166014
0.0161095
0.0156289
0.0151605
0.0147019
0.0142532
0.0138124
0.0133792
0.0129512
0.0125271
0.0121095
0.0117075
0.0113149
0.010936
0.0105652
0.0102062
0.00985389
0.00951193
0.00917599
0.00885027
0.00853207
0.00822742
0.00793629
0.00766771
0.00742567
0.00722927
0.00710285
0.00705039
0.00709594
0.00743526
0.00762649
0.0369608
0.036498
0.0363047
0.0359444
0.035725
0.0353669
0.0351165
0.0347501
0.0344681
0.0340882
0.0337756
0.0333795
0.0330377
0.0326236
0.0322539
0.0318211
0.0314245
0.0309721
0.0305495
0.0300771
0.0296354
0.0291539
0.0286988
0.0282118
0.0277482
0.0272542
0.0267797
0.0262808
0.0258011
0.0253015
0.0248218
0.0243261
0.0238511
0.0233637
0.0228978
0.0224228
0.0219701
0.0215112
0.0210753
0.0206359
0.0202182
0.019799
0.0194017
0.0190052
0.0186303
0.018258
0.017907
0.0175601
0.0172337
0.0169128
0.0166105
0.0163159
0.0160391
0.0157711
0.0155195
0.0152773
0.0150506
0.0148328
0.0146292
0.0144343
0.0142524
0.0140789
0.0139171
0.0137636
0.0136209
0.0134847
0.0133578
0.0132393
0.0131294
0.0130266
0.0129314
0.0128419
0.0127588
0.01268
0.0126064
0.0125355
0.0124682
0.012402
0.0123377
0.0122725
0.0122061
0.0121344
0.0120579
0.0119723
0.0118776
0.0117692
0.0116472
0.0115074
0.0113511
0.0111762
0.0109872
0.010787
0.0105864
0.010396
0.010258
0.0101972
0.0101886
0.0104267
0.0107851
0.0109603
0.0239187
0.0233307
0.0230888
0.0226335
0.0223782
0.0219393
0.0216705
0.021244
0.0209645
0.0205488
0.0202617
0.0198566
0.019565
0.0191709
0.0188778
0.0184955
0.0182038
0.0178344
0.017547
0.0171919
0.0169142
0.0165784
0.0163133
0.0159982
0.0157472
0.0154535
0.0152186
0.0149472
0.01473
0.0144818
0.0142834
0.0140591
0.0138802
0.0136803
0.0135212
0.0133458
0.0132067
0.0130557
0.0129368
0.0128096
0.0127111
0.0126071
0.0125292
0.0124479
0.0123903
0.0123314
0.0122942
0.012258
0.0122402
0.0122309
0.0122285
0.0122393
0.0122601
0.0122914
0.0123326
0.0123841
0.0124456
0.0125179
0.0126007
0.0126944
0.0127988
0.0129143
0.0130406
0.0131782
0.0133269
0.0134872
0.013659
0.0138421
0.0140368
0.0142434
0.014462
0.0146931
0.0149367
0.0151932
0.0154626
0.0157453
0.0160412
0.0163506
0.016673
0.0170082
0.0173555
0.017714
0.0180823
0.0184584
0.0188399
0.019223
0.0196039
0.0199772
0.0203375
0.0206788
0.0209964
0.0212867
0.0215501
0.0217913
0.0220245
0.0222959
0.0227374
0.0233314
0.0241494
0.0250318
0.0174911
0.0169361
0.016712
0.0162861
0.0160648
0.0156606
0.0154438
0.0150629
0.0148531
0.0144968
0.0142963
0.0139655
0.0137764
0.0134717
0.0132958
0.0130176
0.0128564
0.0126049
0.0124597
0.0122348
0.0121065
0.0119079
0.0117969
0.0116238
0.0115302
0.011382
0.0113058
0.0111828
0.0111218
0.0110248
0.0109775
0.0109065
0.0108724
0.0108268
0.0108056
0.0107859
0.0107784
0.0107762
0.010787
0.0108037
0.0108337
0.0108675
0.0109158
0.0109673
0.0110332
0.0111028
0.0111863
0.0112741
0.0113752
0.0114816
0.0116005
0.0117261
0.0118632
0.0120082
0.0121644
0.0123294
0.0125056
0.0126915
0.0128887
0.0130964
0.0133159
0.0135468
0.0137904
0.0140466
0.0143164
0.0145999
0.0148981
0.0152115
0.0155409
0.0158873
0.0162512
0.0166342
0.0170368
0.0174609
0.0179072
0.0183779
0.0188739
0.0193977
0.0199508
0.0205359
0.0211551
0.0218117
0.0225085
0.0232494
0.0240383
0.0248801
0.0257805
0.0267461
0.0277844
0.0289044
0.0301167
0.0314335
0.0328699
0.034443
0.0361711
0.038066
0.0401135
0.0423074
0.043831
0.044453
0.0215136
0.0209372
0.0206991
0.020242
0.0199912
0.0195486
0.0192879
0.0188607
0.0185941
0.0181837
0.0179151
0.0175229
0.0172559
0.016883
0.0166218
0.0162699
0.0160179
0.0156883
0.0154486
0.0151426
0.0149178
0.0146361
0.0144281
0.0141714
0.0139819
0.0137506
0.0135805
0.0133747
0.0132248
0.0130445
0.0129151
0.0127602
0.0126512
0.0125217
0.012433
0.0123284
0.0122598
0.0121799
0.0121317
0.0120762
0.0120485
0.0120213
0.01201
0.0120061
0.0120122
0.0120327
0.0120609
0.012102
0.0121518
0.0122136
0.0122849
0.0123676
0.0124604
0.0125643
0.0126789
0.0128046
0.012941
0.0130888
0.0132476
0.013418
0.0135997
0.0137934
0.0139992
0.0142178
0.014449
0.0146941
0.0149524
0.0152257
0.0155133
0.0158169
0.0161359
0.0164725
0.016826
0.017199
0.0175907
0.0180042
0.0184388
0.0188978
0.0193811
0.019892
0.020431
0.0210017
0.0216052
0.0222455
0.0229246
0.0236469
0.024415
0.025234
0.0261074
0.0270414
0.0280444
0.0291271
0.0303003
0.0315807
0.0329904
0.0345573
0.0363193
0.0382497
0.039812
0.0405
0.0327093
0.0321809
0.0319558
0.0315231
0.0312608
0.030828
0.0305293
0.0300905
0.0297591
0.0293129
0.0289541
0.0285012
0.0281191
0.0276552
0.0272499
0.0267774
0.0263548
0.0258768
0.0254428
0.024963
0.0245232
0.0240457
0.0236052
0.0231339
0.0226974
0.0222363
0.0218084
0.0213612
0.0209458
0.0205158
0.0201166
0.0197068
0.019327
0.0189401
0.0185823
0.01822
0.0178856
0.0175491
0.0172397
0.0169308
0.0166479
0.0163675
0.0161114
0.0158609
0.0156332
0.015413
0.015214
0.0150237
0.0148531
0.0146923
0.0145496
0.0144174
0.0143022
0.0141981
0.0141102
0.0140338
0.0139716
0.013921
0.0138836
0.0138593
0.0138479
0.0138443
0.0138523
0.0138753
0.0139061
0.013951
0.0140034
0.0140688
0.0141412
0.0142252
0.0143147
0.014414
0.0145178
0.0146298
0.0147448
0.0148661
0.0149888
0.0151157
0.015242
0.0153702
0.0154959
0.0156208
0.0157411
0.0158583
0.0159687
0.0160741
0.0161713
0.0162623
0.0163451
0.0164227
0.0164914
0.016553
0.0166144
0.0166918
0.0168048
0.0169961
0.0173206
0.017856
0.018593
0.0196416
0.0457849
0.0454936
0.0453693
0.0451305
0.0449731
0.04472
0.0445231
0.0442448
0.0440054
0.0436955
0.0434143
0.0430698
0.0427475
0.0423677
0.0420045
0.0415892
0.0411853
0.0407349
0.0402913
0.0398063
0.0393249
0.0388065
0.0382895
0.0377399
0.0371901
0.0366116
0.0360323
0.0354287
0.034824
0.0341993
0.0335738
0.0329326
0.0322918
0.0316391
0.0309888
0.0303306
0.0296775
0.0290181
0.0283619
0.0277038
0.0270527
0.0264035
0.0257649
0.0251316
0.024512
0.0239005
0.0233052
0.0227206
0.0221539
0.0215997
0.0210631
0.0205403
0.0200353
0.0195449
0.0190717
0.0186128
0.0181714
0.0177439
0.0173326
0.0169367
0.0165569
0.0161916
0.0158418
0.0155044
0.0151801
0.0148671
0.0145653
0.0142725
0.0139875
0.013712
0.0134461
0.0131877
0.0129369
0.0126926
0.0124537
0.0122202
0.0119902
0.0117647
0.0115413
0.0113219
0.0111037
0.0108892
0.0106759
0.0104669
0.0102597
0.0100584
0.00985883
0.00966558
0.00947622
0.00929705
0.00912687
0.00897427
0.00883621
0.00872701
0.00867278
0.00865585
0.00877066
0.00903025
0.00943614
0.0096157
0.057096
0.0571492
0.057174
0.0572289
0.0572589
0.0572883
0.057301
0.0573039
0.0572908
0.0572506
0.0572035
0.0571203
0.0570337
0.0569114
0.0567865
0.0566234
0.0564552
0.0562482
0.0560328
0.0557784
0.0555123
0.0552074
0.0548878
0.05453
0.054155
0.0537424
0.0533078
0.0528394
0.0523453
0.051819
0.0512656
0.0506804
0.0500681
0.0494243
0.0487542
0.0480535
0.047328
0.0465732
0.0457952
0.0449896
0.044163
0.0433108
0.0424404
0.0415474
0.0406393
0.0397126
0.038774
0.0378214
0.0368604
0.035891
0.0349187
0.0339436
0.03297
0.0319991
0.0310343
0.0300777
0.0291322
0.0281998
0.0272835
0.026384
0.0255042
0.0246401
0.0237955
0.0229703
0.0221675
0.0213867
0.0206301
0.0198977
0.0191918
0.0185088
0.0178491
0.0172113
0.0165958
0.0160001
0.0154247
0.0148667
0.0143262
0.0138003
0.0132891
0.0127895
0.0123013
0.0118217
0.01135
0.010884
0.0104227
0.00998513
0.00955591
0.00915599
0.00876468
0.00840334
0.00805262
0.00773479
0.00743139
0.00717141
0.00692497
0.00676693
0.00669599
0.00669428
0.00702548
0.00721465
0.0632615
0.0636215
0.0637814
0.0640966
0.0643045
0.0645975
0.0648233
0.0650914
0.0653182
0.0655607
0.0657803
0.0659978
0.0662039
0.066397
0.0665838
0.066751
0.0669131
0.0670517
0.0671843
0.0672907
0.0673888
0.0674588
0.0675154
0.0675424
0.067553
0.0675477
0.0675028
0.0674427
0.0673466
0.0672274
0.0670743
0.0668916
0.0666747
0.0664227
0.0661347
0.065807
0.0654406
0.0650329
0.0645896
0.0641021
0.0635764
0.0630032
0.0623874
0.0617248
0.0610162
0.0602612
0.0594586
0.0586105
0.0577146
0.0567749
0.0557886
0.054761
0.0536897
0.0525802
0.0514311
0.0502475
0.0490296
0.0477819
0.046506
0.0452056
0.0438838
0.0425484
0.0411994
0.0398433
0.0384814
0.0371194
0.0357595
0.0344062
0.0330623
0.0317313
0.0304166
0.029121
0.0278478
0.0265993
0.0253785
0.0241867
0.0230264
0.0218925
0.0207891
0.0197155
0.0186734
0.017664
0.0166871
0.0157447
0.0148357
0.0139606
0.0131147
0.0122976
0.011507
0.0107443
0.0100073
0.00929787
0.0086154
0.00796893
0.00736632
0.00681635
0.0064002
0.00621079
0.00617167
0.00635786
0.0643473
0.0648588
0.0650873
0.0655254
0.0658211
0.0662372
0.066568
0.0669654
0.0673149
0.0676985
0.0680574
0.0684301
0.0687923
0.0691559
0.0695167
0.0698715
0.070227
0.0705725
0.0709195
0.0712538
0.071589
0.0719099
0.0722302
0.0725353
0.0728378
0.0731242
0.0734026
0.0736671
0.0739198
0.0741584
0.0743847
0.0745957
0.0747914
0.0749689
0.0751286
0.0752664
0.0753831
0.0754746
0.0755416
0.0755742
0.075586
0.0755725
0.0755098
0.0754221
0.0752854
0.0751144
0.0748916
0.0746272
0.0743067
0.0739378
0.0735083
0.0730238
0.0724749
0.0718661
0.071191
0.0704499
0.0696411
0.0687651
0.0678194
0.0668056
0.0657218
0.0645723
0.0633569
0.0620783
0.0607359
0.059335
0.0578747
0.0563615
0.0547946
0.0531814
0.0515213
0.0498223
0.0480838
0.0463137
0.0445108
0.0426836
0.0408304
0.038967
0.0370876
0.035204
0.0333115
0.0314215
0.0295302
0.0276497
0.025778
0.023928
0.0221006
0.0203079
0.0185558
0.0168368
0.0151739
0.0135665
0.0120404
0.0106009
0.00929284
0.00808893
0.0070861
0.00635334
0.00602976
0.00600205
0.0616114
0.0621353
0.0623738
0.0628123
0.0631196
0.063538
0.0638824
0.064288
0.0646553
0.0650545
0.0654367
0.0658336
0.0662259
0.0666226
0.0670219
0.0674198
0.0678238
0.0682233
0.0686303
0.0690313
0.0694397
0.0698413
0.0702494
0.0706502
0.0710556
0.0714525
0.0718508
0.072239
0.0726228
0.0729913
0.0733573
0.0737199
0.0740797
0.0744351
0.0747876
0.0751357
0.0754818
0.0758216
0.076154
0.0764776
0.0767936
0.0770973
0.0773888
0.0776686
0.0779313
0.0781802
0.0784078
0.0786181
0.0788032
0.0789666
0.0791008
0.0792084
0.0792784
0.0793115
0.079321
0.0792868
0.0792077
0.0790891
0.0789159
0.0786943
0.0784087
0.0780641
0.077645
0.0771538
0.0765759
0.0759148
0.0751603
0.0743156
0.0733664
0.0723193
0.0711604
0.0698979
0.0685215
0.0670411
0.065449
0.0637571
0.06196
0.0600691
0.0580806
0.0560042
0.0538365
0.051584
0.0492424
0.0468148
0.0442956
0.0416852
0.0389816
0.0361831
0.0332972
0.0303434
0.0273294
0.0242715
0.0212029
0.0181655
0.0152791
0.0125307
0.0101399
0.00809041
0.00662664
0.00592511
0.0562934
0.0567438
0.0569499
0.0573202
0.0575745
0.0579309
0.0582141
0.0585614
0.058865
0.0592076
0.0595264
0.0598677
0.0601983
0.0605408
0.0608807
0.0612258
0.0615732
0.0619216
0.0622751
0.0626272
0.0629853
0.0633408
0.0637022
0.0640601
0.0644232
0.0647823
0.0651456
0.0655047
0.0658672
0.0662269
0.0665924
0.0669583
0.0673292
0.0677012
0.0680773
0.0684541
0.0688328
0.0692116
0.0695939
0.069977
0.0703625
0.0707482
0.0711355
0.0715224
0.0719091
0.0722947
0.0726779
0.0730591
0.0734372
0.0738116
0.0741776
0.0745339
0.0748749
0.0751971
0.0754925
0.0757468
0.0759652
0.0761767
0.0763533
0.0765126
0.0766355
0.0767356
0.0768008
0.0768391
0.0768546
0.0768546
0.0767804
0.0766796
0.0765093
0.0762947
0.0760077
0.0756623
0.0752296
0.0747206
0.0741061
0.0733896
0.0725426
0.0715622
0.070421
0.0691121
0.0676114
0.0659117
0.0639948
0.0618559
0.0594836
0.0568792
0.0540379
0.0509631
0.0476552
0.0441228
0.040328
0.0362523
0.0318886
0.0272607
0.0225386
0.0182312
0.0144558
0.0116289
0.0094399
0.00727163
0.0496618
0.0499655
0.0501043
0.0503559
0.0505114
0.0507606
0.0509325
0.0511758
0.0513636
0.051602
0.0518036
0.052039
0.0522521
0.0524863
0.0527086
0.0529431
0.0531725
0.0534083
0.0536431
0.0538805
0.0541193
0.0543581
0.0545996
0.0548396
0.0550828
0.055324
0.0555685
0.0558115
0.0560584
0.0563052
0.0565572
0.0568101
0.0570684
0.0573282
0.0575929
0.0578596
0.058131
0.0584055
0.0586855
0.0589687
0.0592575
0.0595502
0.0598487
0.0601518
0.0604612
0.0607763
0.0610982
0.0614255
0.0617548
0.0620867
0.0624179
0.0627482
0.0630746
0.0633962
0.0637107
0.0640191
0.0643273
0.0646392
0.0649452
0.0652518
0.0655436
0.0658228
0.0660673
0.0662681
0.0664635
0.0666276
0.0667767
0.0669051
0.0670041
0.0670715
0.0671011
0.0671072
0.0670437
0.0669293
0.0667341
0.0664616
0.0660838
0.065598
0.0649781
0.0642173
0.0632925
0.0621949
0.0609057
0.0594165
0.057714
0.0557965
0.0536222
0.0511817
0.0483669
0.0450813
0.0413047
0.0369328
0.032211
0.0273149
0.0224678
0.0180541
0.0146098
0.0122328
0.0107467
0.00922465
0.0306144
0.0306565
0.0306613
0.0306614
0.0306435
0.0306356
0.0306121
0.0306009
0.0305746
0.0305615
0.0305336
0.030518
0.0304894
0.0304706
0.0304414
0.0304191
0.0303889
0.030363
0.0303314
0.0303018
0.0302681
0.0302349
0.0301989
0.0301622
0.0301236
0.0300836
0.0300425
0.0299998
0.0299564
0.0299113
0.0298659
0.0298186
0.0297708
0.0297211
0.0296707
0.0296185
0.0295656
0.0295109
0.0294556
0.0293984
0.0293404
0.0292805
0.0292197
0.0291567
0.0290925
0.0290258
0.0289568
0.0288842
0.0288077
0.0287268
0.0286408
0.0285496
0.0284524
0.0283497
0.0282411
0.0281274
0.0280089
0.0278835
0.0277488
0.0276036
0.0274421
0.0272631
0.0270581
0.0268265
0.026591
0.0263371
0.0260771
0.025802
0.0255152
0.025214
0.0248983
0.0245671
0.0242114
0.0238382
0.0234366
0.0230118
0.0225547
0.0220689
0.0215473
0.0209926
0.0204003
0.0197722
0.0191064
0.018404
0.0176636
0.0168808
0.0160332
0.0150839
0.0139707
0.0126737
0.0111112
0.00918867
0.0070081
0.00491401
0.00301822
0.00232204
0.00260634
0.00527659
0.00862247
0.00984724
0.00947134
0.00467501
0.00402956
0.0039004
0.00387221
0.00389689
0.00381772
0.0037803
0.00376521
0.00376203
0.00378312
0.0038547
0.00412973
0.00470884
0.00546644
0.00654695
0.00691863
0.00690242
0.00577266
0.003412
0.00777505
0.00467987
0.00428868
0.00418975
0.00416624
0.00404614
0.00396612
0.00393106
0.00391898
0.00392093
0.0039734
0.00416022
0.00455146
0.00513259
0.00620862
0.00686405
0.00700216
0.00676246
0.0052024
0.00279311
0.00621303
0.00478431
0.00460501
0.00454138
0.00436884
0.00426712
0.00419887
0.00417154
0.00416338
0.00417562
0.00430179
0.00456184
0.00504217
0.00597911
0.00679064
0.00704757
0.00703947
0.0064841
0.00457753
0.00216306
0.00579552
0.00511632
0.00503465
0.00479453
0.00463662
0.00452088
0.00446314
0.00443865
0.00443607
0.00453632
0.00476005
0.00518785
0.00604786
0.00685909
0.00718888
0.00725018
0.00698085
0.00603682
0.00379769
0.00155661
0.00591852
0.00548213
0.00534382
0.00505379
0.00493882
0.00486581
0.0048476
0.00488053
0.0049983
0.00527814
0.00567361
0.00649488
0.00717492
0.00748327
0.00757083
0.00739823
0.00678813
0.00541893
0.00296025
0.00102554
0.0062855
0.00593534
0.00580143
0.00561631
0.005584
0.00559167
0.00571739
0.00594658
0.00636289
0.00688023
0.00750159
0.00798538
0.00819379
0.00823795
0.00796023
0.00733246
0.00638208
0.00461286
0.00191495
0.000563097
0.00721724
0.00709053
0.00707444
0.00710096
0.00737474
0.00769422
0.00823875
0.00893117
0.00960113
0.00980359
0.00987011
0.00974051
0.00941389
0.00884333
0.00803282
0.00709175
0.00567351
0.00351374
0.00116123
0.000247477
0.0108615
0.0112963
0.0117982
0.0124494
0.0134003
0.0143864
0.0148663
0.0150177
0.0140046
0.0134015
0.0123266
0.0115355
0.0103214
0.00919432
0.00786192
0.00646967
0.00448568
0.00226809
0.000649791
9.19181e-05
0.0252787
0.0257553
0.0259567
0.0259562
0.0252689
0.0239033
0.0222545
0.0199819
0.0182503
0.0162991
0.0145109
0.0126909
0.0107654
0.00896435
0.00711556
0.00506899
0.00300804
0.0013707
0.000417564
4.70915e-05
0.0412005
0.0394212
0.0374552
0.0346667
0.0321358
0.0285545
0.0259222
0.0227573
0.0203671
0.0174897
0.0152296
0.0124965
0.0101673
0.00739528
0.00523232
0.003234
0.00200232
0.00100624
0.000412795
7.79609e-05
0.0379823
0.0364434
0.0348623
0.0323852
0.0302337
0.0269331
0.0245176
0.0216182
0.0194534
0.0168035
0.0148091
0.0122217
0.010262
0.00749032
0.00546054
0.00321867
0.00194403
0.000872206
0.000328655
6.47984e-05
0.0200327
0.020963
0.0214799
0.0217376
0.0218235
0.0211199
0.0199133
0.0180579
0.016756
0.0149702
0.0137723
0.0119519
0.010617
0.00879499
0.00721586
0.00516405
0.00297445
0.00119412
0.00031597
4.41416e-05
0.00945777
0.00965453
0.0100609
0.0105254
0.0113143
0.0122251
0.0130177
0.0133297
0.013159
0.0122342
0.011788
0.0108608
0.0100331
0.00898028
0.00782167
0.00649203
0.00455865
0.00223933
0.000571517
5.27951e-05
0.00684455
0.00666215
0.00660713
0.00658061
0.00675109
0.00699007
0.00741537
0.00800543
0.00878341
0.00915505
0.00933351
0.00940198
0.00914588
0.00870733
0.00794954
0.00707423
0.0056883
0.00354455
0.0010829
0.00013382
0.00610386
0.00576757
0.00563588
0.00543363
0.00538373
0.00536997
0.0054508
0.00562379
0.00598272
0.00643533
0.00712297
0.00772308
0.00801129
0.00809032
0.00792448
0.00731065
0.00638795
0.00465825
0.00192376
0.000440973
0.00578485
0.00538198
0.00525227
0.00496756
0.00485068
0.00476877
0.00474301
0.00475472
0.00485343
0.00509444
0.00547109
0.00624021
0.00702566
0.00738674
0.0074903
0.00738733
0.00679596
0.00545885
0.00301442
0.000942217
0.00568004
0.00502022
0.00494858
0.00474221
0.00458427
0.00447254
0.00440728
0.00437792
0.00436947
0.00445256
0.00466456
0.00506236
0.00587894
0.00677538
0.00715207
0.00722331
0.00698975
0.0060743
0.00386367
0.00151864
0.00617954
0.00472964
0.00453161
0.00446456
0.00432338
0.00421771
0.00415292
0.0041264
0.00411874
0.00412909
0.00424338
0.00449521
0.00495327
0.00585385
0.0067413
0.00703765
0.00704411
0.00651593
0.00464361
0.00216237
0.00780387
0.00465246
0.00425513
0.00414755
0.00411575
0.00402233
0.0039351
0.00389684
0.00388447
0.00388652
0.0039375
0.00411052
0.00449648
0.00507558
0.00613369
0.00684496
0.00700219
0.00678755
0.00526044
0.00282065
0.00947302
0.00465236
0.00399388
0.00386689
0.00383712
0.00385177
0.00379791
0.00375423
0.003739
0.00373565
0.00375711
0.00382701
0.00407909
0.00463747
0.00541746
0.00652057
0.00691866
0.00692027
0.00582988
0.00345279
0.00397117
0.00375019
0.00374679
0.0037468
0.00374652
0.00374628
0.00374612
0.00374604
0.003746
0.00374598
0.00374598
0.003746
0.00374604
0.00374612
0.00374628
0.00374652
0.0037468
0.00374679
0.00375019
0.00397117
0.0044149
0.00375347
0.00374141
0.00374096
0.00374056
0.00374012
0.00373987
0.00373975
0.00373969
0.00373966
0.00373966
0.00373969
0.00373975
0.00373987
0.00374012
0.00374056
0.00374096
0.00374141
0.00375347
0.0044149
0.0048594
0.00376059
0.00373287
0.00373264
0.00373284
0.00373273
0.00373256
0.00373242
0.00373235
0.00373231
0.00373231
0.00373235
0.00373242
0.00373256
0.00373273
0.00373284
0.00373264
0.00373287
0.00376059
0.0048594
0.00530177
0.00377206
0.0037243
0.00372396
0.00372492
0.00372524
0.00372525
0.00372519
0.00372514
0.00372512
0.00372512
0.00372514
0.00372519
0.00372525
0.00372524
0.00372492
0.00372396
0.0037243
0.00377206
0.00530177
0.00573924
0.00378544
0.00371551
0.00371483
0.00371665
0.00371758
0.00371789
0.00371795
0.00371795
0.00371795
0.00371795
0.00371795
0.00371795
0.00371789
0.00371758
0.00371665
0.00371483
0.00371551
0.00378544
0.00573924
0.0061706
0.00379767
0.00370577
0.0037051
0.003708
0.00370969
0.00371043
0.0037107
0.00371078
0.0037108
0.0037108
0.00371078
0.0037107
0.00371043
0.00370969
0.003708
0.0037051
0.00370577
0.00379767
0.00617061
0.00659185
0.00380847
0.00369498
0.00369474
0.00369894
0.00370155
0.00370284
0.0037034
0.00370361
0.00370368
0.00370368
0.00370361
0.0037034
0.00370284
0.00370155
0.00369894
0.00369474
0.00369498
0.00380847
0.00659185
0.00700082
0.00381671
0.00368272
0.00368362
0.00368941
0.00369311
0.00369508
0.00369602
0.00369642
0.00369656
0.00369656
0.00369642
0.00369602
0.00369508
0.00369311
0.00368941
0.00368362
0.00368272
0.00381671
0.00700083
0.00739335
0.00382334
0.00366915
0.00367174
0.00367942
0.00368437
0.00368714
0.00368854
0.00368919
0.00368943
0.00368943
0.00368919
0.00368854
0.00368714
0.00368437
0.00367942
0.00367174
0.00366915
0.00382334
0.00739335
0.0077677
0.00382734
0.00365405
0.00365903
0.00366893
0.00367532
0.00367898
0.00368095
0.0036819
0.00368228
0.00368228
0.0036819
0.00368095
0.00367898
0.00367532
0.00366893
0.00365903
0.00365405
0.00382735
0.0077677
0.00812024
0.00383021
0.00363764
0.00364552
0.00365794
0.00366592
0.00367061
0.00367321
0.00367453
0.00367507
0.00367507
0.00367453
0.00367321
0.00367061
0.00366592
0.00365794
0.00364552
0.00363764
0.00383021
0.00812024
0.00845034
0.00383068
0.00361989
0.00363122
0.00364645
0.0036562
0.00366201
0.00366531
0.00366705
0.00366779
0.00366779
0.00366705
0.00366531
0.00366201
0.0036562
0.00364645
0.00363122
0.00361989
0.00383069
0.00845033
0.00875524
0.00383018
0.0036009
0.00361613
0.00363446
0.00364613
0.00365316
0.00365725
0.00365946
0.00366041
0.00366041
0.00365946
0.00365725
0.00365316
0.00364613
0.00363446
0.00361613
0.00360091
0.00383019
0.00875523
0.00903545
0.00382886
0.00358085
0.00360032
0.00362199
0.00363573
0.00364408
0.00364901
0.00365173
0.00365292
0.00365292
0.00365173
0.00364901
0.00364408
0.00363573
0.00362199
0.00360032
0.00358085
0.00382886
0.00903545
0.00928896
0.00382648
0.00355981
0.0035838
0.00360904
0.003625
0.00363475
0.00364059
0.00364385
0.00364531
0.00364531
0.00364385
0.00364059
0.00363475
0.003625
0.00360904
0.0035838
0.00355981
0.00382648
0.00928895
0.00951739
0.00382339
0.00353793
0.00356664
0.00359565
0.00361394
0.00362518
0.00363197
0.00363582
0.00363755
0.00363755
0.00363582
0.00363197
0.00362518
0.00361394
0.00359565
0.00356664
0.00353793
0.00382339
0.00951738
0.00971929
0.00382011
0.00351531
0.00354885
0.00358181
0.00360255
0.00361535
0.00362316
0.00362762
0.00362964
0.00362964
0.00362762
0.00362316
0.00361535
0.00360255
0.00358181
0.00354885
0.00351531
0.00382011
0.00971927
0.00989731
0.00381663
0.00349216
0.00353055
0.00356757
0.00359087
0.00360529
0.00361414
0.00361924
0.00362157
0.00362157
0.00361924
0.00361414
0.00360529
0.00359087
0.00356758
0.00353055
0.00349216
0.00381663
0.0098973
0.0100502
0.00381347
0.0034685
0.0035117
0.00355293
0.00357888
0.00359499
0.00360492
0.00361068
0.00361332
0.00361332
0.00361068
0.00360492
0.00359499
0.00357888
0.00355293
0.0035117
0.0034685
0.00381347
0.0100502
0.0101815
0.00381057
0.00344462
0.00349247
0.00353795
0.0035666
0.00358445
0.0035955
0.00360193
0.0036049
0.0036049
0.00360193
0.0035955
0.00358445
0.0035666
0.00353795
0.00349247
0.00344462
0.00381057
0.0101815
0.0102898
0.00380853
0.00342046
0.00347279
0.0035226
0.00355404
0.00357367
0.00358587
0.003593
0.0035963
0.0035963
0.003593
0.00358586
0.00357367
0.00355404
0.0035226
0.00347279
0.00342046
0.00380853
0.0102897
0.0103794
0.00380713
0.00339643
0.00345287
0.00350698
0.00354123
0.00356267
0.00357603
0.00358387
0.00358751
0.00358751
0.00358387
0.00357603
0.00356267
0.00354123
0.00350698
0.00345287
0.00339644
0.00380714
0.0103794
0.0104486
0.00380736
0.0033723
0.00343259
0.00349103
0.00352816
0.00355145
0.003566
0.00357455
0.00357853
0.00357853
0.00357455
0.003566
0.00355145
0.00352816