/*--------------------------------*- C++ -*----------------------------------*\
| =========                 |                                                 |
| \\      /  F ield         | OpenFOAM: The Open Source CFD Toolbox           |
|  \\    /   O peration     | Version:  2.1.0                                 |
|   \\  /    A nd           | Web:      www.OpenFOAM.org                      |
|    \\/     M anipulation  |                                                 |
\*---------------------------------------------------------------------------*/
FoamFile
{
    version     2.0;
    format      ascii;
    class       volScalarField;
    location    "0.33";
    object      nut;
}
// * * * * * * * * * * * * * * * * * * * * * * * * * * * * * * * * * * * * * //

dimensions      [0 2 -1 0 0 0 0];

internalField   nonuniform List<scalar> 
6400
(
7.1216e-06
7.14631e-06
7.15892e-06
7.17566e-06
7.1922e-06
7.20995e-06
7.22772e-06
7.24652e-06
7.2641e-06
7.28336e-06
7.30133e-06
7.321e-06
7.33943e-06
7.35928e-06
7.37829e-06
7.39836e-06
7.41801e-06
7.43839e-06
7.45875e-06
7.4796e-06
7.50074e-06
7.52222e-06
7.54425e-06
7.56652e-06
7.58949e-06
7.61267e-06
7.63667e-06
7.66087e-06
7.68596e-06
7.7113e-06
7.73755e-06
7.76414e-06
7.79164e-06
7.81955e-06
7.84838e-06
7.87767e-06
7.90787e-06
7.93854e-06
7.97006e-06
8.00199e-06
8.03467e-06
8.0677e-06
8.10132e-06
8.13518e-06
8.16941e-06
8.20371e-06
8.23816e-06
8.2725e-06
8.30676e-06
8.34068e-06
8.37425e-06
8.40704e-06
8.43848e-06
8.46793e-06
8.4947e-06
8.52343e-06
8.55024e-06
8.57829e-06
8.60504e-06
8.63258e-06
8.65972e-06
8.68734e-06
8.71503e-06
8.74256e-06
8.77059e-06
8.79791e-06
8.82581e-06
8.85301e-06
8.87836e-06
8.90413e-06
8.92698e-06
8.94979e-06
8.96973e-06
8.98897e-06
9.00609e-06
9.02261e-06
9.03861e-06
9.05563e-06
9.07525e-06
9.09959e-06
9.13126e-06
9.17209e-06
9.22162e-06
9.26966e-06
9.32238e-06
9.38699e-06
9.45635e-06
9.52227e-06
9.56201e-06
9.53411e-06
9.35372e-06
8.85822e-06
7.80451e-06
5.99908e-06
3.54714e-06
2.31378e-06
2.40479e-06
3.7795e-06
3.87547e-06
4.182e-06
7.60986e-05
7.65421e-05
7.66435e-05
7.69204e-05
7.70295e-05
7.72571e-05
7.73811e-05
7.75761e-05
7.77121e-05
7.78841e-05
7.80258e-05
7.81803e-05
7.83226e-05
7.8463e-05
7.86014e-05
7.87295e-05
7.88608e-05
7.89777e-05
7.91e-05
7.92067e-05
7.93192e-05
7.94167e-05
7.95198e-05
7.96094e-05
7.97037e-05
7.97855e-05
7.98703e-05
7.99437e-05
8.00181e-05
8.00821e-05
8.0145e-05
8.01983e-05
8.02485e-05
8.02892e-05
8.03252e-05
8.03512e-05
8.03708e-05
8.03796e-05
8.03826e-05
8.0373e-05
8.03543e-05
8.03214e-05
8.02758e-05
8.02134e-05
8.01339e-05
8.00335e-05
7.99109e-05
7.97625e-05
7.95867e-05
7.93797e-05
7.91412e-05
7.88748e-05
7.85774e-05
7.82394e-05
7.76203e-05
7.69611e-05
7.6254e-05
7.55174e-05
7.47353e-05
7.39144e-05
7.30578e-05
7.21614e-05
7.1231e-05
7.02575e-05
6.92502e-05
6.81932e-05
6.70964e-05
6.59663e-05
6.47684e-05
6.35292e-05
6.22227e-05
6.08635e-05
5.94345e-05
5.7943e-05
5.63794e-05
5.47476e-05
5.30435e-05
5.12706e-05
4.94298e-05
4.75259e-05
4.55645e-05
4.35536e-05
4.15046e-05
3.94134e-05
3.72516e-05
3.50085e-05
3.2674e-05
3.02394e-05
2.76922e-05
2.50336e-05
2.22757e-05
1.9454e-05
1.66435e-05
1.39919e-05
1.14953e-05
9.23481e-06
7.48791e-06
6.28594e-06
5.67748e-06
6.86801e-06
0.00011619
0.000116407
0.000116493
0.000116566
0.000116635
0.000116666
0.000116723
0.000116723
0.000116764
0.000116739
0.000116759
0.00011671
0.000116705
0.000116633
0.000116599
0.0001165
0.000116433
0.000116305
0.000116201
0.000116043
0.000115901
0.000115712
0.000115532
0.000115314
0.000115104
0.00011486
0.000114617
0.000114344
0.000114067
0.000113764
0.000113452
0.000113114
0.000112765
0.000112391
0.000112003
0.00011159
0.000111161
0.000110705
0.000110227
0.000109722
0.000109191
0.000108632
0.000108042
0.00010742
0.000106763
0.000106068
0.000105332
0.000104548
0.000103714
0.000102823
0.000101691
0.000100233
9.87468e-05
9.72147e-05
9.56626e-05
9.40736e-05
9.24555e-05
9.08084e-05
8.91333e-05
8.74311e-05
8.57123e-05
8.39475e-05
8.21585e-05
8.03305e-05
7.84802e-05
7.65924e-05
7.46829e-05
7.27404e-05
7.07743e-05
6.87794e-05
6.67568e-05
6.47058e-05
6.26236e-05
6.05104e-05
5.83628e-05
5.61812e-05
5.39632e-05
5.17105e-05
4.94227e-05
4.71033e-05
4.47558e-05
4.23865e-05
4.00024e-05
3.76126e-05
3.52388e-05
3.28958e-05
3.05964e-05
2.83527e-05
2.61708e-05
2.40551e-05
2.19832e-05
1.99697e-05
1.79958e-05
1.59677e-05
1.39327e-05
1.19246e-05
1.01289e-05
8.61693e-06
8.12425e-06
1.13102e-05
0.000137827
0.000137467
0.000137327
0.000136995
0.000136849
0.000136493
0.000136318
0.000135944
0.000135728
0.000135337
0.000135078
0.000134667
0.000134363
0.000133929
0.00013358
0.000133121
0.000132725
0.000132236
0.000131793
0.000131266
0.000130765
0.000130188
0.000129517
0.000128517
0.000127508
0.00012646
0.000125401
0.000124309
0.000123202
0.000122065
0.000120911
0.000119727
0.000118524
0.000117291
0.000116038
0.000114755
0.000113452
0.00011212
0.00011076
0.000109377
0.000107965
0.000106528
0.000105063
0.000103572
0.000102054
0.000100509
9.8938e-05
9.73404e-05
9.57104e-05
9.40627e-05
9.24136e-05
9.07217e-05
8.90305e-05
8.73057e-05
8.55763e-05
8.38196e-05
8.20475e-05
8.02494e-05
7.84297e-05
7.65847e-05
7.47203e-05
7.2833e-05
7.09281e-05
6.90024e-05
6.70616e-05
6.51026e-05
6.31331e-05
6.11511e-05
5.91649e-05
5.71745e-05
5.51876e-05
5.32069e-05
5.12394e-05
4.9289e-05
4.73618e-05
4.5462e-05
4.3594e-05
4.17616e-05
3.99665e-05
3.82103e-05
3.6492e-05
3.48104e-05
3.31569e-05
3.15298e-05
2.99385e-05
2.83496e-05
2.6771e-05
2.51949e-05
2.36131e-05
2.20197e-05
2.04099e-05
1.878e-05
1.71208e-05
1.54116e-05
1.36617e-05
1.19581e-05
1.04987e-05
9.77097e-06
1.19113e-05
1.20597e-05
0.000138239
0.00013818
0.000137893
0.000137657
0.000136892
0.000136242
0.000135334
0.000134507
0.000133547
0.000132623
0.00013163
0.000130639
0.000129614
0.00012857
0.00012751
0.000126418
0.000125318
0.000124179
0.000123034
0.000121852
0.00012066
0.000119434
0.000118198
0.000116939
0.000115668
0.000114368
0.000113059
0.000111724
0.000110378
0.000109008
0.000107627
0.000106221
0.000104804
0.000103365
0.000101913
0.000100432
9.89417e-05
9.74537e-05
9.59222e-05
9.43946e-05
9.2838e-05
9.12763e-05
8.96945e-05
8.81036e-05
8.64984e-05
8.48833e-05
8.32583e-05
8.16248e-05
7.99861e-05
7.83425e-05
7.66961e-05
7.5045e-05
7.33926e-05
7.17317e-05
7.00733e-05
6.84128e-05
6.67578e-05
6.51046e-05
6.34596e-05
6.18211e-05
6.01947e-05
5.85797e-05
5.69809e-05
5.53982e-05
5.38348e-05
5.22906e-05
5.07682e-05
4.92668e-05
4.77881e-05
4.63308e-05
4.48904e-05
4.34735e-05
4.2084e-05
4.06972e-05
3.93397e-05
3.79844e-05
3.66474e-05
3.53093e-05
3.39795e-05
3.26427e-05
3.13052e-05
2.99568e-05
2.86017e-05
2.72393e-05
2.58706e-05
2.44986e-05
2.31318e-05
2.1765e-05
2.04166e-05
1.90861e-05
1.779e-05
1.65283e-05
1.53217e-05
1.4157e-05
1.30846e-05
1.22659e-05
1.20838e-05
1.3749e-05
1.37861e-05
1.41221e-05
0.000124468
0.000123713
0.000123293
0.000122684
0.000121782
0.000120845
0.000119785
0.000118711
0.00011759
0.000116449
0.000115299
0.000114118
0.000112945
0.000111737
0.000110546
0.000109317
0.000108108
0.000106863
0.000105625
0.000104382
0.00010313
0.000101863
0.000100593
9.93076e-05
9.80147e-05
9.67082e-05
9.53993e-05
9.40734e-05
9.27466e-05
9.14023e-05
9.00577e-05
8.86964e-05
8.73355e-05
8.59597e-05
8.4585e-05
8.31981e-05
8.18148e-05
8.04215e-05
7.90306e-05
7.76365e-05
7.62449e-05
7.48538e-05
7.3467e-05
7.20835e-05
7.07068e-05
6.93354e-05
6.79734e-05
6.66183e-05
6.52745e-05
6.39386e-05
6.26141e-05
6.12984e-05
5.99954e-05
5.87015e-05
5.74224e-05
5.61523e-05
5.48982e-05
5.36604e-05
5.2431e-05
5.12172e-05
5.00122e-05
4.88204e-05
4.76367e-05
4.64642e-05
4.52983e-05
4.4141e-05
4.29888e-05
4.18434e-05
4.07022e-05
3.95668e-05
3.84357e-05
3.73143e-05
3.6198e-05
3.50899e-05
3.39877e-05
3.28935e-05
3.18092e-05
3.07355e-05
2.9679e-05
2.86347e-05
2.7609e-05
2.65996e-05
2.56117e-05
2.46427e-05
2.36979e-05
2.27726e-05
2.18686e-05
2.0987e-05
2.01405e-05
1.93292e-05
1.85701e-05
1.78706e-05
1.72595e-05
1.67744e-05
1.65404e-05
1.6634e-05
1.60608e-05
1.58177e-05
1.57925e-05
1.32044e-05
0.000108733
0.000107444
0.000106913
0.000105995
0.000105103
0.000103995
0.000102962
0.000101785
0.000100696
9.94987e-05
9.83862e-05
9.71858e-05
9.60629e-05
9.48663e-05
9.37398e-05
9.25509e-05
9.1425e-05
9.02459e-05
8.91279e-05
8.79614e-05
8.68406e-05
8.56886e-05
8.45726e-05
8.34313e-05
8.23212e-05
8.11931e-05
8.00923e-05
7.89765e-05
7.78854e-05
7.67819e-05
7.57008e-05
7.46097e-05
7.35388e-05
7.24599e-05
7.13991e-05
7.03325e-05
6.92819e-05
6.82249e-05
6.71825e-05
6.61374e-05
6.51116e-05
6.40772e-05
6.30602e-05
6.20392e-05
6.10315e-05
6.00223e-05
5.90237e-05
5.80255e-05
5.70364e-05
5.6049e-05
5.50697e-05
5.40941e-05
5.31275e-05
5.21681e-05
5.12156e-05
5.02658e-05
4.93261e-05
4.83925e-05
4.74672e-05
4.65513e-05
4.56455e-05
4.4752e-05
4.38716e-05
4.30068e-05
4.21553e-05
4.1324e-05
4.05113e-05
3.97192e-05
3.89472e-05
3.81985e-05
3.74711e-05
3.6764e-05
3.60772e-05
3.54111e-05
3.47637e-05
3.41354e-05
3.35218e-05
3.29227e-05
3.22244e-05
3.1266e-05
3.0324e-05
2.93863e-05
2.84658e-05
2.75513e-05
2.6655e-05
2.57665e-05
2.48981e-05
2.40411e-05
2.32092e-05
2.23964e-05
2.16193e-05
2.0876e-05
2.01823e-05
1.95493e-05
1.90014e-05
1.86038e-05
1.83421e-05
1.82414e-05
1.89337e-05
1.49361e-05
9.81845e-05
9.63348e-05
9.58146e-05
9.47038e-05
9.39101e-05
9.27261e-05
9.18307e-05
9.06532e-05
8.97256e-05
8.85844e-05
8.76539e-05
8.65551e-05
8.56322e-05
8.4573e-05
8.36604e-05
8.26346e-05
8.17311e-05
8.07293e-05
7.98352e-05
7.85985e-05
7.74018e-05
7.61225e-05
7.49307e-05
7.36885e-05
7.25337e-05
7.13307e-05
7.02154e-05
6.90574e-05
6.79895e-05
6.68827e-05
6.58679e-05
6.48182e-05
6.38588e-05
6.28685e-05
6.19676e-05
6.10402e-05
6.01999e-05
5.93373e-05
5.85583e-05
5.77606e-05
5.70377e-05
5.63002e-05
5.56307e-05
5.49499e-05
5.43308e-05
5.37023e-05
5.31294e-05
5.25483e-05
5.20163e-05
5.1477e-05
5.09801e-05
5.04759e-05
5.00028e-05
4.95251e-05
4.90726e-05
4.86143e-05
4.81741e-05
4.7725e-05
4.72862e-05
4.68362e-05
4.63911e-05
4.59324e-05
4.54655e-05
4.499e-05
4.45277e-05
4.40296e-05
4.35447e-05
4.30409e-05
4.25481e-05
4.20378e-05
4.15363e-05
4.10194e-05
4.05094e-05
3.99853e-05
3.94664e-05
3.89344e-05
3.84058e-05
3.78647e-05
3.73256e-05
3.67711e-05
3.62121e-05
3.56314e-05
3.50406e-05
3.44237e-05
3.37901e-05
3.31246e-05
3.24357e-05
3.17106e-05
3.09589e-05
3.01735e-05
2.93698e-05
2.85516e-05
2.77462e-05
2.69748e-05
2.63327e-05
2.58567e-05
2.5474e-05
2.56213e-05
2.61477e-05
2.05143e-05
8.1189e-05
7.90911e-05
7.82423e-05
7.66722e-05
7.5803e-05
7.43235e-05
7.34705e-05
7.20702e-05
7.1235e-05
6.99104e-05
6.90991e-05
6.78497e-05
6.70672e-05
6.58933e-05
6.51441e-05
6.4046e-05
6.33349e-05
6.2313e-05
6.16437e-05
6.07e-05
6.00818e-05
5.92251e-05
5.86605e-05
5.78903e-05
5.73815e-05
5.6694e-05
5.6242e-05
5.56322e-05
5.5236e-05
5.46989e-05
5.43551e-05
5.38859e-05
5.35917e-05
5.31881e-05
5.29374e-05
5.25936e-05
5.23797e-05
5.2089e-05
5.19076e-05
5.16615e-05
5.15072e-05
5.12976e-05
5.11653e-05
5.09851e-05
5.08697e-05
5.07109e-05
5.05987e-05
5.04644e-05
5.03731e-05
5.02578e-05
5.01426e-05
5.00348e-05
4.99402e-05
4.98454e-05
4.97609e-05
4.96778e-05
4.9603e-05
4.95329e-05
4.94719e-05
4.94173e-05
4.93713e-05
4.9333e-05
4.93023e-05
4.92802e-05
4.92647e-05
4.92589e-05
4.92627e-05
4.92732e-05
4.92932e-05
4.93202e-05
4.93565e-05
4.93992e-05
4.94503e-05
4.95074e-05
4.9572e-05
4.96413e-05
4.97164e-05
4.97937e-05
4.98741e-05
4.99536e-05
5.00315e-05
5.01026e-05
5.0165e-05
5.02118e-05
5.02396e-05
5.02391e-05
5.02047e-05
5.0126e-05
4.99964e-05
4.98062e-05
4.95517e-05
4.92299e-05
4.88468e-05
4.8414e-05
4.79591e-05
4.75619e-05
4.74198e-05
4.75105e-05
4.80398e-05
3.9793e-05
7.35123e-05
7.1648e-05
7.0902e-05
6.95012e-05
6.88039e-05
6.74833e-05
6.68319e-05
6.55968e-05
6.49921e-05
6.38451e-05
6.32883e-05
6.22305e-05
6.17223e-05
6.07542e-05
6.02948e-05
5.9415e-05
5.90043e-05
5.82107e-05
5.78481e-05
5.71377e-05
5.68221e-05
5.61908e-05
5.59192e-05
5.53619e-05
5.51309e-05
5.46423e-05
5.4448e-05
5.40274e-05
5.38571e-05
5.3507e-05
5.33499e-05
5.30598e-05
5.29166e-05
5.27003e-05
5.25629e-05
5.24073e-05
5.22774e-05
5.21468e-05
5.20452e-05
5.19454e-05
5.18761e-05
5.17969e-05
5.17533e-05
5.16988e-05
5.16792e-05
5.16507e-05
5.16532e-05
5.16506e-05
5.16748e-05
5.16965e-05
5.17412e-05
5.17897e-05
5.18582e-05
5.19335e-05
5.20265e-05
5.21289e-05
5.22474e-05
5.23768e-05
5.25209e-05
5.26772e-05
5.28473e-05
5.30311e-05
5.32289e-05
5.34418e-05
5.36686e-05
5.39115e-05
5.41682e-05
5.44419e-05
5.47298e-05
5.50355e-05
5.53559e-05
5.56953e-05
5.60505e-05
5.6426e-05
5.68185e-05
5.72329e-05
5.76661e-05
5.8123e-05
5.86011e-05
5.9105e-05
5.96332e-05
6.01899e-05
6.07748e-05
6.13922e-05
6.20425e-05
6.27305e-05
6.34587e-05
6.42327e-05
6.50562e-05
6.59359e-05
6.68776e-05
6.78887e-05
6.89769e-05
7.01506e-05
7.14157e-05
7.27669e-05
7.41697e-05
7.56394e-05
7.63604e-05
6.62095e-05
8.03762e-05
7.83257e-05
7.75266e-05
7.59514e-05
7.51615e-05
7.36762e-05
7.29006e-05
7.15091e-05
7.07553e-05
6.94605e-05
6.87361e-05
6.75399e-05
6.68509e-05
6.57538e-05
6.51093e-05
6.41086e-05
6.35142e-05
6.26063e-05
6.20661e-05
6.12474e-05
6.07632e-05
6.00298e-05
5.96013e-05
5.89485e-05
5.85738e-05
5.79965e-05
5.76724e-05
5.71649e-05
5.68868e-05
5.64435e-05
5.62054e-05
5.58211e-05
5.56172e-05
5.52859e-05
5.51096e-05
5.48256e-05
5.4671e-05
5.44285e-05
5.42886e-05
5.40755e-05
5.39622e-05
5.38066e-05
5.36741e-05
5.35493e-05
5.34228e-05
5.3334e-05
5.32345e-05
5.31644e-05
5.30903e-05
5.30402e-05
5.29909e-05
5.2962e-05
5.29373e-05
5.29309e-05
5.29314e-05
5.29471e-05
5.2973e-05
5.30155e-05
5.30677e-05
5.31373e-05
5.32157e-05
5.33118e-05
5.34175e-05
5.35422e-05
5.3676e-05
5.38297e-05
5.39924e-05
5.41757e-05
5.4368e-05
5.45809e-05
5.48027e-05
5.50456e-05
5.52983e-05
5.55724e-05
5.58568e-05
5.61635e-05
5.64825e-05
5.68244e-05
5.71809e-05
5.75617e-05
5.79599e-05
5.83842e-05
5.88295e-05
5.93034e-05
5.98024e-05
6.03336e-05
6.08942e-05
6.14905e-05
6.21211e-05
6.27921e-05
6.3509e-05
6.42826e-05
6.5118e-05
6.60303e-05
6.70356e-05
6.81572e-05
6.94388e-05
7.08533e-05
7.19107e-05
6.30374e-05
0.000100245
9.80512e-05
9.7144e-05
9.54315e-05
9.44458e-05
9.28142e-05
9.17605e-05
9.01979e-05
8.90906e-05
8.75919e-05
8.64463e-05
8.50151e-05
8.38468e-05
8.24547e-05
8.1295e-05
7.995e-05
7.88161e-05
7.75177e-05
7.6417e-05
7.51724e-05
7.41122e-05
7.29274e-05
7.19143e-05
7.07943e-05
6.98341e-05
6.87826e-05
6.78787e-05
6.68987e-05
6.60554e-05
6.51495e-05
6.43684e-05
6.35361e-05
6.28187e-05
6.20588e-05
6.1405e-05
6.07145e-05
6.01206e-05
5.94955e-05
5.89585e-05
5.83947e-05
5.79103e-05
5.74023e-05
5.69639e-05
5.65042e-05
5.61013e-05
5.56836e-05
5.53103e-05
5.49264e-05
5.4576e-05
5.42174e-05
5.38837e-05
5.35433e-05
5.32184e-05
5.28809e-05
5.2571e-05
5.22645e-05
5.19496e-05
5.16548e-05
5.13522e-05
5.10736e-05
5.07899e-05
5.05098e-05
5.02247e-05
4.9969e-05
4.96984e-05
4.94536e-05
4.91957e-05
4.89615e-05
4.87178e-05
4.84933e-05
4.82571e-05
4.80352e-05
4.78007e-05
4.75757e-05
4.73349e-05
4.70986e-05
4.68438e-05
4.65882e-05
4.63114e-05
4.60288e-05
4.57238e-05
4.54103e-05
4.50728e-05
4.47234e-05
4.43492e-05
4.39613e-05
4.35498e-05
4.31253e-05
4.26813e-05
4.22294e-05
4.17596e-05
4.12796e-05
4.07997e-05
4.03496e-05
3.99575e-05
3.96889e-05
3.96308e-05
3.99132e-05
4.05662e-05
3.42993e-05
0.000107326
0.000105862
0.00010521
0.000104116
0.0001032
0.000101998
0.000100963
9.97361e-05
9.86523e-05
9.74337e-05
9.63349e-05
9.51348e-05
9.40367e-05
9.28591e-05
9.17692e-05
9.06152e-05
8.95358e-05
8.8405e-05
8.73379e-05
8.62295e-05
8.51752e-05
8.40879e-05
8.30469e-05
8.19797e-05
8.09526e-05
7.99007e-05
7.88892e-05
7.7857e-05
7.68624e-05
7.58455e-05
7.48626e-05
7.38651e-05
7.28966e-05
7.19182e-05
7.09648e-05
7.00059e-05
6.90704e-05
6.81268e-05
6.71906e-05
6.62497e-05
6.53189e-05
6.43874e-05
6.34679e-05
6.25527e-05
6.16517e-05
6.0758e-05
5.98832e-05
5.90192e-05
5.81773e-05
5.73496e-05
5.6544e-05
5.57561e-05
5.49919e-05
5.42472e-05
5.35256e-05
5.2823e-05
5.21505e-05
5.15009e-05
5.07733e-05
5.00072e-05
4.92455e-05
4.84864e-05
4.77285e-05
4.69665e-05
4.61987e-05
4.54248e-05
4.46422e-05
4.38524e-05
4.3046e-05
4.22313e-05
4.14238e-05
4.06161e-05
3.97907e-05
3.89775e-05
3.815e-05
3.73352e-05
3.65091e-05
3.56967e-05
3.48767e-05
3.40723e-05
3.32599e-05
3.24609e-05
3.16587e-05
3.08733e-05
3.009e-05
2.93281e-05
2.85701e-05
2.78348e-05
2.71105e-05
2.64181e-05
2.57488e-05
2.51272e-05
2.45402e-05
2.40273e-05
2.36526e-05
2.33482e-05
2.33347e-05
2.36098e-05
2.4361e-05
1.89043e-05
0.000121581
0.000120533
0.000120008
0.00011918
0.000118227
0.000117132
0.00011601
0.000114816
0.000113622
0.000112362
0.000111126
0.000109829
0.000108562
0.000107248
0.000105966
0.000104639
0.000103342
0.000102004
0.000100691
9.93436e-05
9.80171e-05
9.66607e-05
9.53229e-05
9.39609e-05
9.26159e-05
9.12506e-05
8.98986e-05
8.85351e-05
8.71802e-05
8.58184e-05
8.44639e-05
8.31065e-05
8.17575e-05
8.04072e-05
7.90664e-05
7.77265e-05
7.6398e-05
7.50737e-05
7.37645e-05
7.24601e-05
7.11708e-05
6.98861e-05
6.86144e-05
6.73473e-05
6.61001e-05
6.48535e-05
6.36206e-05
6.23923e-05
6.11754e-05
5.99648e-05
5.87653e-05
5.75733e-05
5.6391e-05
5.5217e-05
5.40524e-05
5.28972e-05
5.17519e-05
5.06192e-05
4.9499e-05
4.83938e-05
4.73043e-05
4.62252e-05
4.51566e-05
4.41e-05
4.30599e-05
4.20352e-05
4.10301e-05
4.0046e-05
3.90897e-05
3.8156e-05
3.72508e-05
3.63713e-05
3.55228e-05
3.47017e-05
3.39096e-05
3.31411e-05
3.24018e-05
3.16846e-05
3.09953e-05
3.03255e-05
2.96763e-05
2.90431e-05
2.8428e-05
2.7826e-05
2.68316e-05
2.58624e-05
2.48991e-05
2.39991e-05
2.3109e-05
2.22867e-05
2.14806e-05
2.07499e-05
2.00423e-05
1.9422e-05
1.88129e-05
1.8405e-05
1.81774e-05
1.79875e-05
1.87216e-05
1.44603e-05
0.000138081
0.000137542
0.000137162
0.000136647
0.000135709
0.000134783
0.000133656
0.000132551
0.000131345
0.000130144
0.000128895
0.000127632
0.00012635
0.000125041
0.000123726
0.000122378
0.00012103
0.000119646
0.000118265
0.00011685
0.000115436
0.000113991
0.000112544
0.000111069
0.000109592
0.000108116
0.000106607
0.000105106
0.000103585
0.000102066
0.000100534
9.89951e-05
9.74438e-05
9.58808e-05
9.43085e-05
9.27239e-05
9.11325e-05
8.95331e-05
8.79371e-05
8.63349e-05
8.47372e-05
8.31335e-05
8.15339e-05
7.99336e-05
7.83373e-05
7.67446e-05
7.51572e-05
7.35777e-05
7.20056e-05
7.04455e-05
6.88952e-05
6.73601e-05
6.58373e-05
6.4332e-05
6.28408e-05
6.13673e-05
5.99093e-05
5.84691e-05
5.70418e-05
5.56355e-05
5.42491e-05
5.28752e-05
5.15292e-05
5.01946e-05
4.88834e-05
4.75827e-05
4.63006e-05
4.50268e-05
4.37674e-05
4.25142e-05
4.12721e-05
4.0035e-05
3.88065e-05
3.75826e-05
3.63702e-05
3.51655e-05
3.39711e-05
3.27847e-05
3.16064e-05
3.04401e-05
2.92834e-05
2.81445e-05
2.70191e-05
2.59162e-05
2.48285e-05
2.37636e-05
2.27185e-05
2.16974e-05
2.06991e-05
1.97251e-05
1.87919e-05
1.78928e-05
1.7067e-05
1.63831e-05
1.59406e-05
1.61096e-05
1.60783e-05
1.58683e-05
1.58851e-05
1.31703e-05
0.000149454
0.000149687
0.000149447
0.000149314
0.00014855
0.00014793
0.000146998
0.00014617
0.000145176
0.000144235
0.000143203
0.000142186
0.000141118
0.00014004
0.000138933
0.000137801
0.000136651
0.000135468
0.000134273
0.000133043
0.000131801
0.000130523
0.000129233
0.000127908
0.00012657
0.000125199
0.000123809
0.000122394
0.000120955
0.000119498
0.000118026
0.000116531
0.000115017
0.000113484
0.000111934
0.000110363
0.000108776
0.00010717
0.000105547
0.000103897
0.000102243
0.000100579
9.88791e-05
9.71768e-05
9.54456e-05
9.37076e-05
9.19454e-05
9.0175e-05
8.83836e-05
8.65845e-05
8.47681e-05
8.29456e-05
8.1111e-05
7.92741e-05
7.74315e-05
7.55878e-05
7.37449e-05
7.19016e-05
7.00575e-05
6.82166e-05
6.63799e-05
6.45536e-05
6.274e-05
6.09421e-05
5.9162e-05
5.74041e-05
5.56688e-05
5.396e-05
5.22773e-05
5.06243e-05
4.89995e-05
4.74057e-05
4.58396e-05
4.42975e-05
4.27824e-05
4.13038e-05
3.98271e-05
3.8385e-05
3.69445e-05
3.55241e-05
3.40982e-05
3.2678e-05
3.12439e-05
2.98038e-05
2.83416e-05
2.68659e-05
2.53723e-05
2.3863e-05
2.23475e-05
2.08229e-05
1.93055e-05
1.77913e-05
1.6281e-05
1.48386e-05
1.35015e-05
1.24438e-05
1.2087e-05
1.36297e-05
1.38505e-05
1.43398e-05
0.000142519
0.000142272
0.000142174
0.000141901
0.000141787
0.000141484
0.000141336
0.000141012
0.000140825
0.000140483
0.000140255
0.000139895
0.000139624
0.00013924
0.000138925
0.000138514
0.000138153
0.000137711
0.000137303
0.000136827
0.000136372
0.000135856
0.000135351
0.000134792
0.000134233
0.000133623
0.000133004
0.000132336
0.000131645
0.000130714
0.000129533
0.000128321
0.000127086
0.000125826
0.000124546
0.000123243
0.000121922
0.000120577
0.000119206
0.000117808
0.000116386
0.000114934
0.000113453
0.000111946
0.000110407
0.000108842
0.000107242
0.000105617
0.000103957
0.000102271
0.000100551
9.88044e-05
9.70206e-05
9.52053e-05
9.33777e-05
9.15185e-05
8.96344e-05
8.77304e-05
8.57973e-05
8.38479e-05
8.18721e-05
7.98809e-05
7.78639e-05
7.583e-05
7.37675e-05
7.16844e-05
6.95767e-05
6.74533e-05
6.53081e-05
6.31531e-05
6.09831e-05
5.88113e-05
5.66358e-05
5.44702e-05
5.23143e-05
5.01822e-05
4.8074e-05
4.60025e-05
4.39675e-05
4.19782e-05
4.00329e-05
3.81363e-05
3.62835e-05
3.44735e-05
3.26884e-05
3.09321e-05
2.92183e-05
2.74792e-05
2.57588e-05
2.40105e-05
2.22471e-05
2.04279e-05
1.85415e-05
1.65936e-05
1.46566e-05
1.27204e-05
1.10586e-05
1.00854e-05
1.1977e-05
1.21323e-05
0.000117411
0.000117686
0.000117793
0.000117904
0.000117992
0.000118063
0.000118139
0.000118181
0.000118243
0.000118261
0.000118306
0.000118301
0.000118325
0.000118299
0.000118301
0.000118254
0.00011823
0.00011816
0.000118108
0.000118014
0.000117931
0.000117809
0.000117692
0.000117539
0.000117385
0.000117197
0.000117003
0.000116777
0.000116541
0.000116277
0.000116005
0.000115712
0.000115409
0.000115087
0.000114751
0.000114395
0.000114023
0.000113632
0.000113219
0.000112784
0.000112324
0.000111839
0.000111327
0.000110785
0.000110211
0.000109602
0.00010896
0.000108288
0.000107584
0.000106849
0.000106074
0.000105254
0.000104384
0.000103458
0.000102469
0.000101276
9.96482e-05
9.79859e-05
9.62618e-05
9.45048e-05
9.26957e-05
9.08559e-05
8.89742e-05
8.70675e-05
8.5137e-05
8.31939e-05
8.11782e-05
7.91472e-05
7.70611e-05
7.49518e-05
7.27972e-05
7.06171e-05
6.83911e-05
6.61365e-05
6.38351e-05
6.14988e-05
5.91125e-05
5.66846e-05
5.42041e-05
5.16784e-05
4.91023e-05
4.64848e-05
4.38284e-05
4.11461e-05
3.84482e-05
3.57555e-05
3.30867e-05
3.04663e-05
2.79189e-05
2.54677e-05
2.30889e-05
2.07895e-05
1.85617e-05
1.63122e-05
1.41395e-05
1.21391e-05
1.03223e-05
8.92675e-06
8.3837e-06
1.15359e-05
7.50513e-05
7.5512e-05
7.5599e-05
7.58911e-05
7.59885e-05
7.62306e-05
7.63477e-05
7.65572e-05
7.66909e-05
7.68782e-05
7.70233e-05
7.7195e-05
7.7346e-05
7.75064e-05
7.7659e-05
7.78103e-05
7.7961e-05
7.81043e-05
7.82502e-05
7.83854e-05
7.8524e-05
7.86506e-05
7.87798e-05
7.88967e-05
7.9015e-05
7.91212e-05
7.92277e-05
7.93231e-05
7.9418e-05
7.95038e-05
7.95892e-05
7.9666e-05
7.97406e-05
7.98067e-05
7.98682e-05
7.99205e-05
7.9966e-05
8.00011e-05
8.00314e-05
8.00518e-05
8.00655e-05
8.0069e-05
8.00645e-05
8.00495e-05
8.00254e-05
7.99913e-05
7.99479e-05
7.98929e-05
7.98211e-05
7.97325e-05
7.96217e-05
7.94878e-05
7.93266e-05
7.91358e-05
7.89124e-05
7.86563e-05
7.83748e-05
7.80737e-05
7.77391e-05
7.73792e-05
7.69756e-05
7.6531e-05
7.60216e-05
7.51254e-05
7.41812e-05
7.31683e-05
7.21082e-05
7.09979e-05
6.9829e-05
6.86012e-05
6.73094e-05
6.59699e-05
6.4539e-05
6.30393e-05
6.14468e-05
5.97711e-05
5.79943e-05
5.61232e-05
5.4146e-05
5.20693e-05
4.98879e-05
4.761e-05
4.52371e-05
4.27796e-05
4.02451e-05
3.76504e-05
3.49867e-05
3.22712e-05
2.94662e-05
2.65558e-05
2.35794e-05
2.05225e-05
1.75344e-05
1.46554e-05
1.1967e-05
9.60359e-06
7.77888e-06
6.54578e-06
5.87846e-06
6.77366e-06
6.96116e-06
6.98058e-06
6.99304e-06
7.00994e-06
7.02463e-06
7.04304e-06
7.05877e-06
7.07816e-06
7.09467e-06
7.11488e-06
7.13221e-06
7.15299e-06
7.17128e-06
7.19248e-06
7.21181e-06
7.23341e-06
7.25376e-06
7.2758e-06
7.29714e-06
7.31968e-06
7.34198e-06
7.36512e-06
7.38837e-06
7.41224e-06
7.43648e-06
7.46122e-06
7.48657e-06
7.51239e-06
7.539e-06
7.56611e-06
7.5941e-06
7.62262e-06
7.65209e-06
7.68215e-06
7.71321e-06
7.74497e-06
7.77781e-06
7.81148e-06
7.84634e-06
7.88214e-06
7.91923e-06
7.95739e-06
7.99695e-06
8.0377e-06
8.07994e-06
8.12344e-06
8.16839e-06
8.21452e-06
8.26188e-06
8.31048e-06
8.36021e-06
8.41125e-06
8.46353e-06
8.51733e-06
8.5728e-06
8.63034e-06
8.69017e-06
8.75189e-06
8.81489e-06
8.87905e-06
8.94275e-06
9.00582e-06
9.06572e-06
9.12221e-06
9.18331e-06
9.24428e-06
9.30978e-06
9.37712e-06
9.44795e-06
9.52191e-06
9.59969e-06
9.68162e-06
9.76496e-06
9.85337e-06
9.94333e-06
1.0038e-05
1.01343e-05
1.02352e-05
1.03384e-05
1.04463e-05
1.05582e-05
1.06762e-05
1.0801e-05
1.09347e-05
1.10787e-05
1.12319e-05
1.13797e-05
1.14898e-05
1.14956e-05
1.13359e-05
1.08517e-05
9.78979e-06
8.04462e-06
5.90795e-06
3.64099e-06
2.64612e-06
2.56107e-06
3.92058e-06
4.02044e-06
4.33242e-06
1.09387e-05
2.07689e-06
2.59983e-06
3.51635e-06
4.54715e-06
5.62263e-06
6.48723e-06
7.3363e-06
8.14891e-06
8.90463e-06
9.61512e-06
1.03331e-05
1.14466e-05
1.33144e-05
1.54514e-05
1.78429e-05
1.76006e-05
1.55528e-05
1.03004e-05
4.00077e-06
5.87695e-06
2.18554e-06
2.47439e-06
3.18371e-06
4.05608e-06
4.86396e-06
5.69204e-06
6.55036e-06
7.41323e-06
8.29548e-06
9.26747e-06
1.03626e-05
1.2006e-05
1.4072e-05
1.70214e-05
1.83112e-05
1.74907e-05
1.47234e-05
9.54557e-06
3.97454e-06
4.94434e-06
2.69482e-06
2.9009e-06
3.41657e-06
4.01059e-06
4.71631e-06
5.47985e-06
6.31394e-06
7.21918e-06
8.38319e-06
9.49931e-06
1.09993e-05
1.29089e-05
1.57958e-05
1.80016e-05
1.8295e-05
1.71538e-05
1.40188e-05
8.89093e-06
3.85269e-06
5.05561e-06
3.43936e-06
3.63819e-06
3.87552e-06
4.36792e-06
4.92792e-06
5.67192e-06
6.5791e-06
7.71008e-06
9.47529e-06
1.11881e-05
1.2917e-05
1.56891e-05
1.8179e-05
1.91677e-05
1.87991e-05
1.70258e-05
1.32563e-05
7.99865e-06
3.2753e-06
5.68839e-06
4.47743e-06
4.61718e-06
4.63393e-06
5.19389e-06
5.69156e-06
6.58287e-06
7.83726e-06
9.58903e-06
1.30669e-05
1.47334e-05
1.70354e-05
1.93027e-05
2.03931e-05
2.04036e-05
1.92056e-05
1.65545e-05
1.25164e-05
6.93039e-06
2.39246e-06
6.89534e-06
5.97757e-06
6.04885e-06
6.02691e-06
6.77209e-06
7.76404e-06
9.34145e-06
1.1588e-05
1.60738e-05
1.94559e-05
2.09276e-05
2.23163e-05
2.30157e-05
2.28239e-05
2.16494e-05
1.91191e-05
1.59694e-05
1.16106e-05
5.19469e-06
1.46836e-06
9.04311e-06
8.62734e-06
8.85809e-06
9.45707e-06
1.11683e-05
1.36483e-05
1.70485e-05
2.19767e-05
2.87007e-05
2.93531e-05
2.90394e-05
2.82647e-05
2.68774e-05
2.47657e-05
2.17191e-05
1.8535e-05
1.48755e-05
1.0206e-05
3.85547e-06
7.08444e-07
1.46575e-05
1.61346e-05
1.73604e-05
1.96538e-05
2.31816e-05
2.75006e-05
3.30692e-05
4.00284e-05
3.99324e-05
3.77478e-05
3.43019e-05
3.16777e-05
2.81375e-05
2.49346e-05
2.08738e-05
1.7115e-05
1.29881e-05
8.15936e-06
2.79602e-06
2.77533e-07
3.2543e-05
3.5504e-05
3.67327e-05
3.91952e-05
4.36543e-05
4.79954e-05
5.20879e-05
4.78541e-05
4.42587e-05
4.03148e-05
3.64769e-05
3.26547e-05
2.84725e-05
2.33586e-05
1.8613e-05
1.4122e-05
1.02875e-05
6.75915e-06
2.59386e-06
1.44547e-07
5.28255e-05
5.57105e-05
5.59672e-05
5.74709e-05
6.23218e-05
5.95923e-05
5.52854e-05
5.03437e-05
4.62397e-05
4.12925e-05
3.72006e-05
3.20277e-05
2.70611e-05
1.98104e-05
1.41468e-05
9.85596e-06
8.05765e-06
6.98963e-06
3.47805e-06
2.36588e-07
5.03201e-05
5.30522e-05
5.34261e-05
5.50122e-05
5.98133e-05
5.7861e-05
5.3746e-05
4.89948e-05
4.51295e-05
4.03519e-05
3.66624e-05
3.15475e-05
2.76409e-05
2.05166e-05
1.48857e-05
9.97457e-06
7.6972e-06
6.01379e-06
2.80589e-06
1.97596e-07
2.79862e-05
3.08838e-05
3.22493e-05
3.47243e-05
3.91227e-05
4.36689e-05
4.96236e-05
4.56424e-05
4.26526e-05
3.84406e-05
3.56831e-05
3.13449e-05
2.83667e-05
2.39237e-05
1.9357e-05
1.4592e-05
1.00356e-05
5.64846e-06
1.84406e-06
1.35642e-07
1.309e-05
1.4026e-05
1.49995e-05
1.70432e-05
2.02019e-05
2.42446e-05
2.95022e-05
3.63876e-05
3.97729e-05
3.61518e-05
3.40255e-05
3.0619e-05
2.76837e-05
2.45188e-05
2.12762e-05
1.73847e-05
1.29876e-05
7.79133e-06
2.38451e-06
1.6171e-07
8.63638e-06
8.11251e-06
8.25911e-06
8.65246e-06
1.00681e-05
1.22071e-05
1.52034e-05
1.98163e-05
2.62894e-05
2.7454e-05
2.7753e-05
2.75655e-05
2.66509e-05
2.47383e-05
2.14556e-05
1.86293e-05
1.4857e-05
1.00522e-05
3.51421e-06
3.98063e-07
6.73738e-06
5.8038e-06
5.86798e-06
5.83055e-06
6.51133e-06
7.37011e-06
8.75383e-06
1.07402e-05
1.48204e-05
1.81729e-05
1.99621e-05
2.17125e-05
2.27347e-05
2.27705e-05
2.18318e-05
1.89605e-05
1.58241e-05
1.15054e-05
5.1336e-06
1.18975e-06
5.62117e-06
4.42674e-06
4.56424e-06
4.60667e-06
5.15386e-06
5.64413e-06
6.4879e-06
7.63905e-06
9.24278e-06
1.23592e-05
1.41359e-05
1.65079e-05
1.90446e-05
2.03426e-05
2.04534e-05
1.93514e-05
1.64168e-05
1.24408e-05
6.94528e-06
2.23871e-06
5.04317e-06
3.43562e-06
3.63782e-06
3.91584e-06
4.41427e-06
4.99468e-06
5.72956e-06
6.61135e-06
7.68801e-06
9.33767e-06
1.09204e-05
1.26719e-05
1.5415e-05
1.81177e-05
1.92478e-05
1.88946e-05
1.70962e-05
1.31955e-05
8.03784e-06
3.21694e-06
5.04945e-06
2.73384e-06
2.93336e-06
3.46447e-06
4.09311e-06
4.80641e-06
5.58368e-06
6.42142e-06
7.31344e-06
8.42354e-06
9.5057e-06
1.09472e-05
1.28289e-05
1.56536e-05
1.80362e-05
1.83926e-05
1.72097e-05
1.39527e-05
8.95043e-06
3.80377e-06
6.12367e-06
2.24232e-06
2.53633e-06
3.25474e-06
4.13511e-06
4.98672e-06
5.82041e-06
6.68647e-06
7.55605e-06
8.42973e-06
9.37146e-06
1.04336e-05
1.20396e-05
1.40817e-05
1.69897e-05
1.83753e-05
1.75193e-05
1.47242e-05
9.58903e-06
3.95534e-06
1.09724e-05
2.13877e-06
2.66055e-06
3.59554e-06
4.6434e-06
5.7228e-06
6.64062e-06
7.49089e-06
8.31193e-06
9.06895e-06
9.77391e-06
1.04689e-05
1.15096e-05
1.32956e-05
1.54623e-05
1.78799e-05
1.76264e-05
1.55233e-05
1.03521e-05
3.99156e-06
1.23421e-06
0.000116558
0.000294184
0.000330906
0.00033481
0.000335356
0.000335357
0.000335342
0.000335343
0.000335345
0.000335345
0.000335343
0.000335342
0.000335357
0.000335356
0.00033481
0.000330906
0.000294184
0.000116558
1.23421e-06
1.36973e-06
6.81667e-05
0.000219584
0.000309503
0.000330909
0.000334527
0.000335273
0.000335315
0.000335296
0.000335287
0.000335287
0.000335296
0.000335315
0.000335273
0.000334527
0.000330909
0.000309503
0.000219584
6.81669e-05
1.36973e-06
1.51338e-06
5.28961e-05
0.000176459
0.00028058
0.000322148
0.000332504
0.000334604
0.0003351
0.000335168
0.000335172