/*--------------------------------*- C++ -*----------------------------------*\
| =========                 |                                                 |
| \\      /  F ield         | OpenFOAM: The Open Source CFD Toolbox           |
|  \\    /   O peration     | Version:  2.1.0                                 |
|   \\  /    A nd           | Web:      www.OpenFOAM.org                      |
|    \\/     M anipulation  |                                                 |
\*---------------------------------------------------------------------------*/
FoamFile
{
    version     2.0;
    format      ascii;
    class       volScalarField;
    location    "0.33";
    object      omega;
}
// * * * * * * * * * * * * * * * * * * * * * * * * * * * * * * * * * * * * * //

dimensions      [0 0 -1 0 0 0 0];

internalField   nonuniform List<scalar> 
6400
(
1635.41
1637.42
1637.95
1638.32
1638.44
1638.53
1638.5
1638.48
1638.25
1638.12
1637.78
1637.55
1637.12
1636.76
1636.24
1635.77
1635.17
1634.57
1633.9
1633.2
1632.44
1631.64
1630.82
1629.94
1629.04
1628.07
1627.1
1626.05
1625
1623.87
1622.73
1621.52
1620.29
1618.98
1617.65
1616.24
1614.8
1613.26
1611.67
1609.98
1608.21
1606.32
1604.32
1602.18
1599.89
1597.42
1594.78
1591.93
1588.85
1585.53
1581.96
1578.09
1573.87
1569.23
1564.13
1558.95
1553.38
1547.66
1541.59
1535.32
1528.75
1521.94
1514.85
1507.44
1499.76
1491.7
1483.34
1474.56
1465.25
1455.58
1445.26
1434.49
1423.03
1411
1398.27
1384.91
1370.87
1356.19
1340.91
1325.07
1308.72
1291.82
1274.13
1254.78
1233.89
1211.59
1187.09
1159.58
1127.55
1088.92
1040.13
975.328
886.858
768.545
617.819
538.106
566.211
735.429
892.976
942.823
691.545
692.147
693.338
694.589
695.969
697.55
699.014
700.744
702.283
704.097
705.724
707.601
709.318
711.251
713.063
715.053
716.96
719.013
721.016
723.138
725.241
727.446
729.659
731.963
734.299
736.724
739.201
741.764
744.396
747.116
749.918
752.816
755.809
758.908
762.118
765.448
768.909
772.511
776.236
780.104
784.116
788.282
792.609
797.104
801.777
806.634
811.686
816.939
822.405
828.09
834.011
840.161
846.538
853.153
860
867.203
874.68
882.525
890.7
899.274
908.24
917.652
927.526
937.908
948.843
960.295
972.22
984.586
997.628
1011.32
1025.75
1040.96
1056.99
1073.92
1091.82
1110.78
1130.87
1152.21
1174.93
1199.17
1225.13
1253.1
1282.29
1312.47
1344.18
1376.54
1409.05
1440.55
1469.79
1495.25
1513.84
1522.42
1524.17
1510.08
1475.03
1396.28
1285.5
1150.88
1005.72
848.156
505.534
508.797
510.338
513.453
515.497
518.64
520.999
524.171
526.777
530.001
532.824
536.126
539.153
542.556
545.782
549.311
552.736
556.41
560.033
563.862
567.685
571.687
575.717
579.908
584.149
588.539
593.006
597.617
602.324
607.174
612.139
617.25
622.49
627.884
633.419
639.115
644.963
650.977
657.179
663.569
670.161
676.961
683.981
691.229
698.717
706.454
714.451
722.718
731.261
740.088
749.201
758.613
768.336
778.379
788.758
799.509
810.625
822.143
834.06
846.407
859.187
872.422
886.115
900.279
914.916
930.054
945.728
961.96
978.551
995.539
1012.83
1030.41
1048.2
1066.18
1084.28
1102.49
1120.78
1139.12
1157.54
1176.03
1194.64
1213.37
1232.25
1251.32
1270.54
1289.72
1308.7
1326.97
1343.85
1358.2
1366.18
1369.08
1363.02
1337.23
1289.3
1209.84
1101.54
960.347
797.026
627.93
458.32
463.29
465.486
469.849
472.622
476.953
480.135
484.466
487.983
492.358
496.17
500.635
504.719
509.309
513.655
518.404
523.009
527.941
532.809
537.953
543.088
548.46
553.864
559.477
565.153
571.02
576.973
583.108
589.351
595.771
602.315
609.035
615.894
622.932
630.12
637.49
645.023
652.742
660.633
668.703
676.946
685.366
693.957
702.719
711.646
720.734
729.975
739.363
748.89
758.548
768.327
778.219
788.218
798.312
808.498
818.768
829.11
839.518
849.977
860.48
871.011
881.561
892.111
902.646
913.141
923.604
934.038
944.411
954.708
964.907
974.979
984.913
994.645
1004.13
1013.35
1022.19
1030.62
1038.5
1045.78
1052.28
1057.89
1062.39
1065.35
1066.69
1067
1064.54
1059.8
1051.92
1040.71
1025.34
1005.23
979.386
946.559
904.945
852.555
787.551
711.45
628.798
552.782
496.663
448.628
454.546
457.113
462.24
465.463
470.539
474.223
479.273
483.321
488.388
492.743
497.868
502.495
507.709
512.583
517.912
523.014
528.475
533.797
539.405
544.935
550.699
556.428
562.349
568.272
574.357
580.458
586.697
592.963
599.345
605.759
612.271
618.817
625.443
632.1
638.821
645.567
652.359
659.166
666.01
672.859
679.729
686.592
693.457
700.302
707.13
713.922
720.678
727.383
734.036
740.621
747.136
753.57
759.908
766.16
772.318
778.356
784.25
789.963
795.489
800.774
805.813
810.547
814.969
819.017
822.678
825.89
828.627
830.83
832.467
833.295
833.616
833.495
832.137
830.319
827.345
823.665
818.835
813.115
806.214
798.279
789.121
778.824
767.388
754.781
741.023
726.209
710.269
693.276
675.092
655.643
634.591
611.759
586.44
557.935
527.053
494.902
465.238
444.255
432.67
439.195
444.807
447.213
452.048
455.021
459.778
463.122
467.791
471.403
476.005
479.82
484.38
488.354
492.89
496.99
501.513
505.712
510.23
514.504
519.02
523.349
527.86
532.225
536.723
541.104
545.624
550.068
554.609
559.083
563.62
568.089
572.592
577.022
581.458
585.813
590.147
594.387
598.58
602.662
606.672
610.549
614.321
617.942
621.426
624.735
627.875
630.811
633.547
636.049
638.316
640.316
642.045
643.471
644.588
645.429
645.935
646.152
646.185
645.654
644.881
643.585
641.98
639.858
637.386
634.406
631.05
627.202
622.965
618.259
613.165
607.636
601.804
595.584
589.066
582.254
575.164
567.854
560.318
552.678
544.884
537.032
529.122
521.241
513.377
505.599
497.831
490.051
482.231
474.453
466.573
458.61
450.402
441.913
432.952
423.671
414.49
406.874
403.237
402.24
402.236
407.772
412.085
413.913
417.597
419.776
423.383
425.767
429.261
431.768
435.145
437.726
440.989
443.609
446.762
449.392
452.436
455.049
457.982
460.558
463.376
465.879
468.544
470.946
473.442
475.713
478.059
480.204
482.368
484.323
486.252
487.96
489.605
491.015
492.331
493.399
494.343
495.027
495.539
495.782
495.869
495.758
495.336
494.724
493.845
492.733
491.38
489.774
487.943
485.857
483.562
481.021
478.29
475.334
472.233
468.925
465.452
461.816
458.059
454.168
450.218
446.173
442.121
438.017
433.944
429.848
425.863
421.932
418.165
414.506
411.057
407.763
404.667
401.751
399.06
396.567
394.308
392.238
390.385
388.747
387.307
386.081
385.039
384.18
383.473
382.901
382.431
382.034
381.68
381.326
380.957
380.559
380.164
379.923
379.843
380.459
381.795
384.383
389.001
392.7
393.758
358.441
361.239
362.383
364.648
365.854
367.987
369.172
371.125
372.238
373.989
374.995
376.531
377.404
378.712
379.428
380.497
381.033
381.821
382.201
382.667
382.877
382.986
383.005
382.853
382.556
382.083
381.394
380.564
379.486
378.297
376.842
375.297
373.497
371.627
369.512
367.344
364.953
362.524
359.904
357.265
354.47
351.668
348.759
345.864
342.904
339.986
337.044
334.171
331.314
328.55
325.823
323.241
320.764
318.446
316.257
314.255
312.42
310.798
309.374
308.187
307.222
306.513
306.103
305.927
305.898
306.266
306.76
307.599
308.579
309.88
311.328
313.07
314.96
317.118
319.42
321.964
324.644
327.535
330.542
333.753
337.071
340.553
344.113
347.792
351.512
355.3
359.086
362.889
366.652
370.398
374.1
377.807
381.543
385.395
389.555
394.374
399.959
406.954
412.468
414.712
294.605
294.985
295.094
295.198
295.215
295.187
294.955
294.769
294.3
293.931
293.226
292.655
291.722
290.938
289.785
288.784
287.421
286.206
284.651
283.226
281.52
279.922
278.097
276.353
274.431
272.577
270.591
268.679
266.673
264.755
262.779
260.905
258.998
257.205
255.418
253.753
252.133
250.641
249.228
247.953
246.784
245.765
244.876
244.148
243.57
243.171
242.975
242.904
242.991
243.362
243.874
244.616
245.495
246.589
247.836
249.289
250.905
252.719
254.704
256.882
259.235
261.778
264.502
267.414
270.516
273.803
277.269
280.925
284.761
288.794
293.012
297.437
302.054
306.887
311.921
317.181
322.655
328.366
334.301
340.479
346.892
353.554
360.457
367.611
375.001
382.631
390.479
398.539
406.78
415.186
423.728
432.394
441.178
450.104
459.234
468.777
479.492
491.078
502.694
508.426
237.934
236.379
235.706
234.329
233.487
232.066
231.084
229.629
228.537
227.063
225.892
224.416
223.199
221.741
220.513
219.096
217.89
216.539
215.386
214.128
213.06
211.918
210.963
209.96
209.142
208.301
207.643
206.983
206.506
206.045
205.764
205.552
205.463
205.442
205.575
205.809
206.177
206.651
207.262
207.982
208.837
209.81
210.92
212.138
213.495
214.96
216.565
218.276
220.13
222.096
224.202
226.417
228.763
231.222
233.812
236.517
239.354
242.311
245.401
248.616
251.969
255.451
259.078
262.84
266.755
270.813
275.034
279.409
283.957
288.673
293.577
298.664
303.955
309.449
315.166
321.108
327.296
333.736
340.45
347.448
354.754
362.382
370.358
378.704
387.449
396.62
406.256
416.395
427.083
438.371
450.325
463.016
476.535
490.986
506.487
523.123
540.834
559.331
574.002
580.549
267.661
267.309
266.994
266.513
265.976
265.331
264.578
263.752
262.794
261.784
260.636
259.444
258.126
256.762
255.291
253.787
252.194
250.587
248.906
247.237
245.507
243.814
242.078
240.404
238.706
237.093
235.477
233.967
232.476
231.107
229.783
228.592
227.47
226.49
225.604
224.866
224.246
223.778
223.467
223.321
223.277
223.416
223.758
224.206
224.851
225.611
226.562
227.634
228.89
230.271
231.831
233.519
235.38
237.372
239.534
241.838
244.295
246.886
249.635
252.515
255.557
258.73
262.071
265.544
269.189
272.973
276.936
281.044
285.338
289.789
294.436
299.252
304.277
309.488
314.925
320.567
326.452
332.565
338.944
345.577
352.502
359.715
367.251
375.114
383.339
391.935
400.941
410.371
420.266
430.65
441.581
453.11
465.314
478.276
492.133
507.023
523.041
539.844
553.631
559.874
326.293
328.205
328.953
330.321
330.993
332.147
332.707
333.606
334.032
334.653
334.937
335.248
335.362
335.399
335.197
334.927
334.383
333.817
332.947
332.077
330.893
329.721
328.24
326.777
325.019
323.284
321.285
319.306
317.095
314.903
312.523
310.167
307.664
305.196
302.618
300.093
297.495
294.966
292.403
289.938
287.477
285.137
282.835
280.702
278.661
276.796
275.066
273.525
272.155
270.988
270.019
269.266
268.746
268.492
268.403
268.515
268.946
269.501
270.359
271.36
272.65
274.091
275.807
277.678
279.811
282.102
284.647
287.343
290.269
293.344
296.633
300.072
303.715
307.506
311.5
315.639
319.975
324.453
329.12
333.926
338.901
343.993
349.237
354.586
360.068
365.642
371.33
377.095
382.958
388.893
394.914
400.998
407.219
413.679
420.566
428.233
437.05
447.371
458.338
464.079
374.802
378.387
379.881
382.804
384.45
387.235
388.941
391.549
393.257
395.671
397.345
399.558
401.176
403.207
404.743
406.573
407.977
409.58
410.805
412.156
413.162
414.235
414.985
415.754
416.216
416.607
416.777
416.835
416.711
416.372
415.864
415.166
414.274
413.207
411.935
410.503
408.866
407.055
404.974
402.724
400.231
397.582
394.721
391.732
388.569
385.298
381.909
378.45
374.919
371.361
367.779
364.217
360.677
357.199
353.777
350.445
347.265
344.229
341.372
338.684
336.212
333.942
331.915
330.116
328.584
327.289
326.266
325.466
324.944
324.688
324.599
324.692
325.124
325.64
326.44
327.31
328.417
329.573
330.918
332.289
333.845
335.454
337.217
339.026
340.966
342.962
345.075
347.248
349.54
351.919
354.458
357.153
360.07
363.212
366.673
370.729
375.864
382.478
387.346
389.141
409.79
414.635
416.697
420.798
423.274
427.27
430
433.872
436.766
440.516
443.511
447.144
450.201
453.771
456.904
460.412
463.581
467.022
470.192
473.553
476.691
479.957
483.032
486.184
489.163
492.178
495.032
497.884
500.578
503.231
505.728
508.148
510.405
512.553
514.523
516.355
517.992
519.496
520.854
522.026
523.002
523.749
524.216
524.427
524.477
524.157
523.568
522.664
521.462
519.948
518.122
515.991
513.549
510.813
507.779
504.474
500.896
497.077
493.045
488.835
484.446
479.901
475.198
470.374
465.468
460.487
455.478
450.473
445.547
440.687
435.971
431.387
427.006
422.804
418.806
414.972
411.366
407.93
404.723
401.673
398.784
396.024
393.406
390.877
388.448
386.087
383.786
381.515
379.276
377.056
374.879
372.762
370.786
369.241
368.097
367.669
368.368
372.163
375.26
376.156
424.012
429.759
432.231
437.161
440.232
445.086
448.566
453.354
457.14
461.894
465.925
470.676
474.912
479.687
484.095
488.908
493.461
498.317
502.992
507.894
512.67
517.615
522.472
527.454
532.373
537.383
542.344
547.37
552.355
557.384
562.378
567.397
572.379
577.364
582.302
587.219
592.075
596.904
601.709
606.461
611.159
615.774
620.301
624.722
629.021
633.174
637.174
640.994
644.619
648.031
651.208
654.134
656.783
659.142
661.181
662.888
664.233
665.184
665.65
665.816
665.634
664.836
663.87
662.298
660.427
657.967
655.132
651.727
647.907
643.543
638.749
633.442
627.707
621.494
614.938
607.996
600.712
593.135
585.233
577.093
568.654
560.04
551.172
542.152
532.904
523.446
513.744
503.787
493.476
482.659
471.483
459.721
447.447
434.646
421.829
408.988
398.066
391.396
388.518
387.225
424.357
429.912
432.332
437.136
440.185
444.946
448.446
453.198
457.06
461.851
466.025
470.898
475.353
480.342
485.058
490.189
495.152
500.444
505.646
511.114
516.547
522.202
527.861
533.707
539.585
545.626
551.716
557.948
564.241
570.659
577.145
583.744
590.41
597.177
604.011
610.935
617.926
624.997
632.128
639.326
646.577
653.879
661.222
668.604
676.012
683.444
690.887
698.333
705.765
713.172
720.54
727.876
735.156
742.376
749.52
756.579
763.541
770.397
777.126
783.718
790.132
796.366
802.43
808.241
813.811
819.057
823.978
828.498
832.603
836.222
839.33
841.866
843.785
844.846
845.281
845.312
843.955
842.069
838.881
834.855
829.472
822.976
814.991
805.622
794.583
781.917
767.494
751.129
732.847
712.424
689.764
664.469
636.244
604.632
570.507
533.201
495.884
460.585
435.345
418.56
432.302
436.736
438.713
442.648
445.171
449.084
451.988
455.905
459.117
463.078
466.556
470.594
474.316
478.473
482.433
486.738
490.934
495.41
499.844
504.515
509.194
514.082
519.017
524.143
529.346
534.73
540.216
545.877
551.657
557.608
563.69
569.944
576.342
582.915
589.65
596.569
603.668
610.966
618.443
626.121
633.99
642.062
650.333
658.806
667.477
676.342
685.426
694.743
704.298
714.109
724.15
734.376
744.806
755.41
766.192
777.126
788.207
799.416
810.735
822.153
833.651
845.227
856.863
868.553
880.293
892.065
903.859
915.648
927.406
939.097
950.702
962.272
973.736
985.098
996.312
1007.34
1018.08
1028.53
1038.52
1048.03
1056.83
1064.81
1071.7
1077.27
1080.64
1082.06
1082.19
1077.55
1070.09
1057.09
1038.88
1013.26
979.251
934.38
878.497
808.116
725.784
634.74
553.279
488.375
479.455
482.163
483.476
486.158
487.954
490.676
492.761
495.522
497.83
500.65
503.156
506.062
508.754
511.759
514.627
517.748
520.792
524.047
527.271
530.676
534.087
537.656
541.261
545.011
548.819
552.764
556.785
560.939
565.185
569.564
574.047
578.661
583.394
588.264
593.262
598.401
603.673
609.084
614.683
620.454
626.423
632.591
638.98
645.598
652.468
659.61
667.012
674.672
682.605
690.804
699.299
708.132
717.302
726.835
736.734
747.014
757.681
768.762
780.259
792.2
804.595
817.475
830.856
844.769
859.255
874.313
889.974
906.24
923.131
940.655
958.865
977.503
996.666
1016.23
1036.16
1056.38
1076.83
1097.46
1118.2
1139.05
1159.96
1180.95
1201.96
1222.95
1244.03
1265.12
1286.02
1306.19
1325.11
1341.4
1351.06
1354.69
1349.34
1321.54
1271.28
1196.14
1093.13
963.707
802.691
630.348
661.705
661.69
662.764
663.528
664.724
665.882
667.113
668.466
669.748
671.217
672.571
674.124
675.562
677.187
678.718
680.412
682.04
683.807
685.534
687.379
689.207
691.134
693.065
695.082
697.118
699.231
701.378
703.597
705.865
708.208
710.615
713.104
715.675
718.338
721.099
723.965
726.947
730.059
733.28
736.631
740.113
743.735
747.506
751.433
755.525
759.787
764.226
768.848
773.665
778.687
783.93
789.407
795.126
801.106
807.359
813.909
820.765
827.925
835.425
843.273
851.486
860.081
869.06
878.444
888.391
898.824
909.846
921.435
933.662
946.541
960.01
974.224
989.257
1005.16
1022
1039.84
1058.77
1078.87
1100.23
1122.96
1147.14
1172.9
1200.34
1229.57
1260.8
1292.7
1325.35
1357.12
1386.42
1410.93
1424.95
1430.1
1427.98
1411.95
1380.36
1320.27
1232.7
1121.98
997.848
849.008
1590.77
1591.82
1591.95
1591.95
1591.5
1591.31
1590.72
1590.44
1589.79
1589.46
1588.77
1588.38
1587.66
1587.2
1586.46
1585.91
1585.15
1584.51
1583.72
1582.98
1582.13
1581.3
1580.4
1579.48
1578.51
1577.51
1576.47
1575.4
1574.31
1573.17
1572.03
1570.83
1569.63
1568.37
1567.1
1565.77
1564.44
1563.05
1561.65
1560.19
1558.72
1557.19
1555.64
1554.04
1552.4
1550.69
1548.93
1547.07
1545.11
1543.03
1540.82
1538.47
1535.97
1533.31
1530.5
1527.55
1524.47
1521.21
1517.69
1513.89
1509.66
1504.95
1499.53
1493.4
1487.13
1480.34
1473.36
1465.94
1458.16
1449.94
1441.28
1432.14
1422.25
1411.81
1400.48
1388.4
1375.28
1361.2
1345.92
1329.47
1311.68
1292.55
1271.96
1249.87
1226.15
1200.56
1172.23
1139.65
1100.23
1052.44
991.815
911.706
811.328
701.54
584.635
535.33
555.994
721.753
886.744
939.926
865.854
324.758
176.617
119.709
95.2758
82.3313
76.1014
73.126
72.1515
73.9928
80.8964
97.2837
118.683
155.924
206.785
271.232
348.712
443.801
560.428
610.766
693.151
329.202
219.155
154.358
121.782
104.108
92.9062
87.4299
85.4994
87.4681
99.5244
115.417
144.281
184.421
237.543
299.526
371.988
459.299
545.007
569.163
544.65
318.782
242.322
180.203
147.638
125.445
111.856
105.942
104.264
108.576
120.083
143.822
174.401
218.36
269.122
325.844
390.075
462.528
514.854
523.423
444.717
305.228
256.34
198.178
171.197
146.134
134.048
128.392
126.827
131.117
153.829
177.383
213.582
256.025
301.678
351.891
406.186
455.393
474.791
475.256
388.275
300.479
266.341
214.705
192.014
168.715
159.14
155.377
155.108
174.737
195.163
222.48
256.97
292.39
330.421
370.492
410.047
432.945
427.14
428.653
360.146
300.417
273.876
232.045
214.537
200.974
197.312
197.257
211.339
227.51
247.502
272.205
299.027
326.424
355.671
383.516
398.998
397.298
368.636
383.486
352.364
312.872
296.06
272.892
265.737
263.159
262.775
269.54
278.772
290.817
305.654
322.048
339.037
355.459
369.85
376.702
375.181
344.283
301.19
349.325
386.921
375.215
371.367
361.57
356.826
351.275
349.065
348.53
350.708
355.027
359.357
364.153
366.819
367.837
366.416
358.134
331.625
277.974
232.398
331.197
499.158
483.911
476.504
457.572
448.667
434.3
427.249
417.559
412.356
404.295
397.811
388.641
378.097
365.447
349.154
316.624
267.837
202.792
160.982
325.786
563.037
541.628
531.958
508.88
497.825
479.164
468.879
452.039
440.468
423.557
409.391
390.178
370.096
341.361
301.784
251.391
197.539
143.962
118.686
329.523
544.15
524.007
514.961
493.227
482.852
465.479
456.176
441.236
431.058
416.425
403.933
387.406
369.671
345.103
309.334
259.446
203.507
145.034
117.13
327.934
457.409
446.254
440.686
424.748
417.468
406.538
401.287
395.638
392.847
389.437
385.962
381.302
374.276
364.785
353.432
326.942
278.955
211.407
171.345
325.427
358.718
343.56
338.548
330.623
327.238
324.15
323.316
325.983
330.854
338.414
346.445
354.707
362.417
366.261
367.625
363.331
340.044
287.413
239.679
326.479
336.548
296.667
279.133
253.916
245.505
242.529
242.335
250.703
261.424
275.416
292.762
311.579
331.83
351.978
370.511
379.736
380.976
352.613
308.148
336.178
346.666
288.076
262.191
220.957
203.546
189.027
184.671
184.18
197.94
215.2
236.672
262.983
291.808
321.533
353.664
385.572
403.685
404.876
374.738
370.644
374.375
289.214
255.945
206.199
184.257
161.424
151.764
147.676
147.071
165.056
186.431
214.472
250.308
287.513
327.586
370.043
413.964
438.786
434.024
420.875
429.416
293.896
246.13
189.941
163.773
140.015
128.509
123.161
121.705
125.902
147.013
171.189
207.519
251.083
298.504
350.729
407.538
460.331
480.685
472.077
531.445
308.12
233.614
173.673
141.878
120.338
107.376
101.695
100.116
104.65
115.97
138.906
169.824
213.732
265.638
323.966
390.592
467.002
518.815
523.37
686.586
317.998
211.175
148.206
116.96
99.8364
89.4875
84.3907
82.6031
84.6423
96.1322
112.024
140.473
180.665
234.11
297.205
371.117
460.98
548.589
571.077
863.354
313.418
170.644
115.701
92.0497
79.5772
73.1786
70.469
69.6824
72.0259
78.7289
94.3529
115.95
152.644
203.663
268.795
347.615
444.671
563.158
613.408
646.053
32.1744
12.7362
11.3229
11.19
11.171
11.1705
11.1708
11.1706
11.1705
11.1705
11.1706
11.1708
11.1705
11.171
11.19
11.3229
12.7362
32.1744
646.053
672.741
55.063
17.0386
12.087
11.3039
11.1803
11.1547
11.1529
11.1534
11.1536
11.1536
11.1534
11.1529
11.1547
11.1803
11.3039
12.087
17.0386
55.0629
672.741
698.453
71.0937
21.1542
13.3033
11.5874
11.2261
11.1552
11.1382
11.1358
11.1355
11.1355
11.1358
11.1382
11.1552
11.2261
11.5874
13.3033
21.1542
71.0936
698.453
723.135
85.8497
25.1368
14.6461
12.043
11.3371
11.1684
11.1265
11.1183
11.1171
11.1171
11.1183
11.1265
11.1684
11.3371
12.043
14.6461
25.1367
85.8497
723.135
746.743
101.867
29.2065
16.0658
12.5885
11.5234
11.2064
11.1273
11.105
11.1003
11.1003
11.105
11.1273
11.2064
11.5234
12.5885
16.0658
29.2065
101.867
746.743
769.311
118.433
33.3671
17.5406
13.1971
11.7624
11.283
11.1366
11.0944
11.0843
11.0843
11.0944
11.1366
11.283
11.7624
13.1971
17.5406
33.3671
118.433
769.311
790.729
134.968
37.5677
19.0511
13.8502
12.0431
11.3872
11.16
11.0918
11.0718
11.0718
11.0918
11.16
11.3872
12.0431
13.8502
19.0511
37.5677
134.968
790.729
810.981
151.25
41.7799
20.5851
14.5352
12.357
11.5178
11.2031
11.0955
11.0625
11.0625
11.0955
11.2031
11.5178
12.357
14.5352
20.5851
41.78
151.25
810.981
829.955
167.078
45.969
22.1303
15.2422
12.6968
11.6708
11.2604
11.1065
11.0594
11.0594
11.1065
11.2604
11.6708
12.6968
15.2422
22.1303
45.9691
167.079
829.955
847.654
182.402
50.1209
23.6797
15.9648
13.0568
11.8431
11.3324
11.129
11.0619
11.0619
11.129
11.3324
11.8431
13.0568
15.9648
23.6797
50.121
182.402
847.654
863.991
197.096
54.2107
25.2248
16.6968
13.4322
12.0315
11.4179
11.1609
11.0698
11.0698
11.1609
11.4179
12.0315
13.4322
16.6968
25.2248
54.2108
197.097
863.991
879.012
211.155
58.232
26.7618
17.4347
13.8193
12.2335
11.5156
11.2021
11.0862
11.0862
11.2021
11.5156
12.2335
13.8193
17.4347
26.7619
58.2322
211.155
879.012
892.663
224.491
62.1651
28.2844
18.1745
14.2149
12.4467
11.6242
11.2528
11.1113
11.1113
11.2528
11.6242
12.4467
14.2149
18.1745
28.2845
62.1653
224.491
892.663
905.026
237.119
66.0089
29.7907
18.9141
14.6169
12.6691
11.7427
11.3126
11.1446
11.1446
11.3126
11.7427
12.6691
14.6169
18.9141
29.7908
66.0091
237.119
905.026
916.068
248.971
69.7459
31.2754
19.6506
15.023
12.899
11.8698
11.381
11.1861
11.1861
11.381
11.8698
12.899
15.0231
19.6507
31.2755
69.7461
248.971
916.067
925.904
260.09
73.378
32.7379
20.383
15.4319
13.1352
12.0048
11.4576
11.2357
11.2357
11.4576
12.0048
13.1352
15.4319
20.383
32.7379
73.3782
260.09
925.904
934.512
270.424
76.8908
34.1734
21.1088
15.8418
13.3762
12.1466
11.5418
11.293
11.293
11.5418
12.1466
13.3762
15.8418
21.1088
34.1735
76.8908
270.424
934.512
942.037
280.035
80.2889
35.5824
21.8276
16.2519
13.6211
12.2944
11.6331
11.3579
11.3579
11.6331
12.2944
13.6211
16.2519
21.8276
35.5825
80.2891
280.035
942.036
948.451
288.886
83.5605
36.9608
22.5374
16.6609
13.8691
12.4475
11.7309
11.4299
11.4299
11.7309
12.4475
13.8691
16.661
22.5374
36.9608
83.5605
288.886
948.45
953.925
297.052
86.7121
38.3096
23.2382
17.0685
14.1193
12.6053
11.8348
11.5085
11.5085
11.8348
12.6053
14.1194
17.0685
23.2383
38.3097
86.7123
297.051
953.924
958.416
304.505
89.7343
39.6251
23.9283
17.4735
14.3712
12.7671
11.9442
11.5934
11.5934
11.9442
12.7671
14.3712
17.4735
23.9283
39.625
89.7343
304.505
958.416
962.12
311.327
92.6352
40.9091
24.6079
17.8757
14.6241
12.9325
12.0587
11.684
11.684
12.0587
12.9325
14.6242
17.8757
24.608
40.9092
92.6354
311.326
962.12
964.967
317.505
95.4079
42.1581
25.2755
18.2742
14.8776
13.1009
12.1777
11.78
11.78
12.1777
13.1009
14.8776
18.2742
25.2755
42.158
95.4078
317.505
964.966
967.18
323.104
98.0613
43.3748
25.9317
18.669
15.1313
13.2719
12.3009
11.8809
11.8809
12.3009
13.2719
15.1313
18.669
25.9318
43.375
98.0616
323.103
967.179
968.649
328.146
100.59
44.5556
26.575
19.0593
15.3846
13.445
12.4277
11.9862
11.9862
12.4277
13.445
15.3846
19.0593
26.575
44.5555
100.59
328.146
968.648
969.635
332.655
103.004
45.7041
27.2063
19.4452
15.6374
13.62
12.5579
12.0955
12.0955
12.5579
13.62
15.6374
19.4453
27.2063
45.7043
103.005
332.654
969.634
969.97
336.703
105.3
46.8164
27.824
19.8261
15.8892
13.7964
12.691
12.2085
12.2085
12.691
13.7964
15.8892
19.8261
27.824
46.8163
105.3
336.703
969.969
969.834
340.243
107.487
47.897
28.4295
20.202
16.14
13.974
12.8267
12.3248
12.3248
12.8267
13.9741
16.14
20.2021
28.4296
47.8973
107.488
340.242
969.833
969.425
343.401
109.562
48.942
29.0212
20.5726
16.3892
14.1525
12.9646
12.4441
12.4441
12.9646
14.1525
16.3892
20.5725
29.0211
48.9417
109.561
343.401
969.424
968.579
346.143
111.537
49.9562
29.6005
20.9378
16.6369
14.3316
13.1045
12.5659
12.5659
13.1045
14.3316
16.637
20.9379
29.6007
49.9565
111.538
346.14
968.578
967.379
348.531
113.407
50.9361
30.1662
21.2974
16.8828
14.5111
13.2461
12.69
12.69
13.2461
14.5111
16.8828
21.2973
30.166
50.9356
113.406
348.532
967.378
965.891
350.555
115.186
51.8861
30.7192
21.6513
17.1267
14.6907
13.389
12.8161
12.8161
13.389
14.6907
17.1267
21.6515
30.7194
51.8867
115.187
350.552
965.89
964.155
352.262
116.866
52.8042
31.2592
21.9997
17.3685
14.8702
13.5331
12.944
12.944
13.5331
14.8702
17.3684
21.9995
31.2588
52.8033
116.865
352.264
964.154
962.204
353.662
118.462
53.6928
31.7863
22.3421
17.608
15.0495
13.6782
13.0733
13.0733
13.6782
15.0495
17.608
22.3422
31.7867
53.6938
118.463
353.657
962.204
960.074
354.762
119.968
54.5523
32.3011
22.6789
17.8451
15.2284
13.8239
13.2039
13.2039
13.8239
15.2283
17.8451
22.6787
32.3007
54.5511
119.966
354.765
960.073
957.788
355.619
121.395
55.3836
32.8033
23.0097
18.0798
15.4067
13.9702
13.3355
13.3355
13.9702
15.4067
18.0798
23.0098
32.8036
55.3846
121.397
355.614
957.788
955.382
356.172
122.739
56.1876
33.2935
23.3348
18.3119
15.5842
14.1168
13.468
13.468
14.1168
15.5842
18.3118
23.3347
33.2931
56.1866
122.737
356.175
955.381
952.869
356.559
124.012
56.9661
33.772
23.6542
18.5414
15.761
14.2636
13.6011
13.6011
14.2636
15.761
18.5414
23.6543
33.7721
56.9666
124.013
356.556
952.869
950.287
356.612
125.207
57.7179
34.2384
23.9677
18.7681
15.9367
14.4103
13.7346
13.7346
14.4103
15.9367
18.7681
23.9677
34.2382
57.7175
125.206
356.612
950.286
947.634
356.52
126.339
58.4484
34.6944
24.2759
18.9922
16.1114
14.557
13.8684
13.8684
14.557
16.1114
18.9922
24.2759
34.6943
58.4482
126.338
356.519
947.635
944.959
356.291
127.395
59.1521
35.1383
24.578
19.2134
16.2848
14.7033
14.0024
14.0024
14.7033
16.2848
19.2134
24.578
35.1383
59.1521
127.395
356.291
944.957
942.242
355.823
128.403
59.8384
35.573
24.8751
19.4319
16.4571
14.8493
14.1364
14.1364
14.8493
16.4571
19.4319
24.8751
35.573
59.8381
128.402
355.817
942.243
939.541
355.241
129.339
60.5
35.9963
25.1663
19.6474
16.628
14.9948
14.2703
14.2703
14.9948
16.6279
19.6474
25.1662
35.996
60.4997
129.339
355.246
939.539
936.819
354.509
130.247
61.1473
36.4108
25.4526
19.8603
16.7975
15.1397
14.404
14.404
15.1397
16.7975
19.8604
25.4528
36.4112
61.1479
130.247
354.501
936.82
934.146
353.718
131.105
61.7762
36.8154
25.7335
20.0702
16.9655
15.2839
14.5373
14.5373
15.2838
16.9654
20.07
25.7331
36.8147
61.7748
131.102
353.725
934.145
931.464
352.875
131.981
62.3974
37.212
26.0096
20.2774
17.132
15.4273
14.6702
14.6702
15.4274
17.1321
20.2776
26.01
37.2128
62.3992
131.984
352.869
931.466
928.861
352.022
132.875
63.0145
37.6002
26.2806
20.4816
17.2969
15.5699
14.8026
14.8025
15.5698
17.2968
20.4813
26.2801
37.5992
63.0121
132.87
352.027
928.859
926.331
351.164
133.82
63.6371
37.983
26.5474
20.6833
17.4603
15.7116
14.9344
14.9344
15.7116
17.4605
20.6836
26.548
37.9842
63.6396
133.825
351.161
926.333
923.873
350.422
134.844
64.2652
38.359
26.8093
20.882
17.6219
15.8522
15.0654
15.0654
15.8521
17.6218
20.8816
26.8086
38.3577
64.2627
134.84
350.424
923.871
921.483
349.753
135.972
64.9107
38.7327
27.0679
21.0783
17.7821
15.9919
15.1958
15.1959
15.992
17.7823
21.0788
27.0688
38.7343
64.9134
135.976
349.753
921.485
919.157
349.293
137.193
65.5663
39.1018
27.3221
21.2718
17.9404
16.1304
15.3253
15.3252
16.1303
17.9402
21.2713
27.3211
39.1
65.5637
137.191
349.294
919.154
916.895
348.941
138.528
66.2448
39.471
27.5738
21.4631
18.0973
16.2679
15.4541
15.4541
16.2681
18.0977
21.4638
27.5751
39.4733
66.2481
138.531
348.942
916.897
914.695
348.851
139.941
66.9342
39.8375
27.8218
21.6517
18.2523
16.4041
15.5817
15.5816
16.404
18.252
21.651
27.8204
39.8352
66.9312
139.94
348.853
914.692
912.558
348.916
141.46
67.6486
40.2063
28.068
21.8384
18.4059
16.5394
15.7086
15.7087
16.5396
18.4064
21.8394
28.0699
40.2096
67.6532
141.463
348.918
912.559
910.481
349.098
143.025
68.3718
40.5736
28.3111
22.0226
18.5577
16.6731
15.8342
15.8342
16.6729
18.5573
22.0217
28.3093
40.5704
68.368
143.025
349.101
910.478
908.469
349.471
144.673
69.1196
40.9446
28.5532
22.2052
18.7081
16.806
15.9592
15.9593
16.8063
18.7088
22.2066
28.5559
40.9494
69.1264
144.678
349.476
908.468
906.514
349.99
146.344
69.8736
41.3151
28.7929
22.3855
18.8567
16.9373
16.0827
16.0826
16.937
18.8562
22.3843
28.7906
41.311
69.8689
146.344
349.993
906.511
904.627
350.63
148.075
70.6504
41.6901
29.0321
22.5644
19.0041
17.0677
16.2056
16.2058
17.0682
19.0052
22.5664
29.0359
41.6968
70.6598
148.082
350.64
904.624
902.796
351.376
149.808
71.4307
42.065
29.2695
22.7413
19.1497
17.1965
16.3268
16.3268
17.1962
19.149
22.7398
29.2665
42.0601
71.4256
149.812
351.385
902.791
901.033
352.209
151.578
72.2311
42.4451
29.5067
22.9171
19.2942
17.3245
16.4477
16.4479
17.3252
19.2957
22.92
29.5121
42.4545
72.2446
151.589
352.226
901.026
899.322
353.116
153.337
73.0317
42.8251
29.7426
23.0911
19.437
17.4507
16.5665
16.5665
17.4504
19.4362
23.0894
29.7392
42.8195
73.0264
153.341
353.133
899.315
897.682
354.081
155.114
73.8505
43.2103
29.9786
23.264
19.5787
17.5764
16.6853
16.6856
17.5774
19.5808
23.268
29.9859
43.2231
73.8703
155.138
354.112
897.67
896.09
355.096
156.866
74.6657
43.5955
30.2137
23.4356
19.7188
17.7001
16.8017
16.8017
17.6998
19.718
23.4339
30.2104
43.5905
74.6627
156.873
355.125
896.077
894.57
356.143
158.624
75.4972
43.9856
30.4488
23.6061
19.858
17.8234
16.9184
16.9188
17.8249
19.861
23.6117
30.4591
44.0033
75.5247
158.661
356.196
894.548
893.094
357.219
160.344
76.3212
44.3755
30.6836
23.7754
19.9955
17.9447
17.0324
17.0324
17.9445
19.9949