/*--------------------------------*- C++ -*----------------------------------*\
| =========                 |                                                 |
| \\      /  F ield         | OpenFOAM: The Open Source CFD Toolbox           |
|  \\    /   O peration     | Version:  2.1.0                                 |
|   \\  /    A nd           | Web:      www.OpenFOAM.org                      |
|    \\/     M anipulation  |                                                 |
\*---------------------------------------------------------------------------*/
FoamFile
{
    version     2.0;
    format      ascii;
    class       volScalarField;
    location    "0.33";
    object      p;
}
// * * * * * * * * * * * * * * * * * * * * * * * * * * * * * * * * * * * * * //

dimensions      [1 -1 -2 0 0 0 0];

internalField   nonuniform List<scalar> 
6400
(
99998.3
99995.6
99993.7
99992.1
99990.6
99989.3
99987.9
99986.5
99985.1
99983.6
99982.1
99980.5
99978.8
99977.1
99975.4
99973.5
99971.6
99969.6
99967.5
99965.4
99963.2
99960.9
99958.5
99956
99953.5
99950.9
99948.1
99945.3
99942.5
99939.5
99936.4
99933.2
99930
99926.6
99923.1
99919.5
99915.8
99912
99908.1
99904
99899.8
99895.5
99891.1
99886.5
99881.8
99876.9
99871.8
99866.6
99861.2
99855.7
99849.9
99844
99837.8
99831.4
99824.9
99818.1
99811.1
99803.9
99796.4
99788.7
99780.7
99772.4
99763.9
99755.1
99745.9
99736.5
99726.7
99716.5
99706
99695.1
99683.8
99672.1
99659.9
99647.3
99634.1
99620.5
99606.4
99591.6
99576.3
99560.3
99543.6
99526.2
99507.8
99488.4
99467.8
99445.8
99421.9
99396
99367.6
99336.4
99302.6
99267.3
99232.6
99199.7
99167.7
99133
99075.8
98960.5
98589.4
96981.5
99996.7
99995
99993.3
99991.7
99990.2
99988.9
99987.5
99986.1
99984.7
99983.2
99981.7
99980.1
99978.4
99976.7
99974.9
99973.1
99971.2
99969.2
99967.1
99964.9
99962.7
99960.4
99958
99955.6
99953
99950.4
99947.7
99944.9
99942
99939
99935.9
99932.7
99929.4
99926.1
99922.6
99919
99915.3
99911.5
99907.5
99903.5
99899.3
99895
99890.5
99885.9
99881.2
99876.3
99871.3
99866.1
99860.7
99855.1
99849.3
99843.4
99837.2
99830.9
99824.4
99817.6
99810.6
99803.4
99795.9
99788.2
99780.3
99772
99763.5
99754.7
99745.6
99736.2
99726.4
99716.3
99705.8
99694.9
99683.6
99671.9
99659.8
99647.2
99634.1
99620.5
99606.4
99591.7
99576.3
99560.4
99543.7
99526.2
99507.9
99488.5
99467.9
99445.9
99422.1
99396.3
99368
99337.1
99303.6
99268.5
99233.8
99201.2
99173
99143.2
99091.7
98990.7
98690
98135.8
99995.2
99994.1
99992.8
99991.3
99990
99988.6
99987.3
99985.9
99984.5
99983
99981.5
99979.9
99978.2
99976.5
99974.7
99972.9
99971
99969
99966.9
99964.8
99962.5
99960.2
99957.8
99955.4
99952.8
99950.2
99947.5
99944.7
99941.8
99938.8
99935.7
99932.6
99929.3
99925.9
99922.4
99918.9
99915.2
99911.3
99907.4
99903.4
99899.2
99894.9
99890.5
99885.9
99881.2
99876.3
99871.3
99866.1
99860.7
99855.2
99849.5
99843.6
99837.5
99831.2
99824.7
99818
99811
99803.8
99796.4
99788.8
99780.8
99772.6
99764.2
99755.4
99746.3
99737
99727.3
99717.2
99706.8
99696
99684.8
99673.2
99661.1
99648.6
99635.7
99622.2
99608.2
99593.6
99578.4
99562.5
99546
99528.6
99510.4
99491.1
99470.6
99448.7
99425.1
99399.5
99371.6
99341.3
99309
99275.7
99243.4
99214.3
99190
99162.3
99126.6
99064.6
98908.4
98998.6
99993.3
99993.2
99992.3
99991.1
99989.8
99988.6
99987.3
99985.9
99984.5
99983.1
99981.6
99980
99978.3
99976.6
99974.9
99973
99971.1
99969.1
99967.1
99964.9
99962.7
99960.4
99958.1
99955.6
99953.1
99950.5
99947.8
99945
99942.1
99939.2
99936.1
99932.9
99929.7
99926.3
99922.9
99919.3
99915.6
99911.9
99908
99903.9
99899.8
99895.5
99891.1
99886.6
99881.9
99877
99872
99866.9
99861.6
99856.1
99850.4
99844.6
99838.5
99832.3
99825.8
99819.1
99812.2
99805.1
99797.7
99790.1
99782.2
99774.1
99765.7
99757
99748
99738.7
99729
99719
99708.6
99697.9
99686.7
99675.1
99663.1
99650.6
99637.7
99624.2
99610.1
99595.5
99580.2
99564.3
99547.6
99530.1
99511.7
99492.2
99471.6
99449.5
99425.8
99400.2
99372.7
99343.3
99312.5
99281.8
99253.4
99229.5
99211.7
99199
99193.5
99198.2
99224.9
99645.4
99991.2
99992.2
99991.9
99991
99989.9
99988.8
99987.5
99986.2
99984.8
99983.4
99981.9
99980.4
99978.7
99977.1
99975.3
99973.5
99971.6
99969.6
99967.6
99965.5
99963.3
99961
99958.7
99956.3
99953.8
99951.2
99948.5
99945.7
99942.9
99939.9
99936.9
99933.7
99930.5
99927.2
99923.7
99920.2
99916.5
99912.8
99908.9
99904.9
99900.8
99896.5
99892.1
99887.6
99882.9
99878.1
99873.2
99868
99862.7
99857.3
99851.6
99845.8
99839.8
99833.5
99827.1
99820.4
99813.5
99806.4
99799
99791.4
99783.6
99775.4
99767
99758.3
99749.3
99739.9
99730.3
99720.2
99709.8
99699
99687.8
99676.2
99664.1
99651.5
99638.5
99624.9
99610.7
99596
99580.6
99564.5
99547.7
99530
99511.4
99491.7
99470.8
99448.6
99424.9
99399.5
99372.5
99344.2
99315.5
99288.4
99265.3
99248.5
99241.9
99251.8
99288.8
99381
99579.4
100155
99989.1
99991.2
99991.4
99990.9
99990.1
99989.1
99987.9
99986.7
99985.3
99983.9
99982.5
99980.9
99979.3
99977.7
99975.9
99974.1
99972.2
99970.3
99968.2
99966.1
99964
99961.7
99959.4
99957
99954.5
99951.9
99949.2
99946.5
99943.6
99940.7
99937.7
99934.6
99931.3
99928
99924.6
99921.1
99917.4
99913.6
99909.8
99905.8
99901.6
99897.4
99893
99888.5
99883.8
99879
99874
99868.8
99863.5
99858
99852.4
99846.5
99840.5
99834.2
99827.8
99821.1
99814.2
99807
99799.6
99792
99784.1
99775.9
99767.5
99758.8
99749.7
99740.3
99730.6
99720.6
99710.1
99699.3
99688.1
99676.4
99664.3
99651.7
99638.5
99624.9
99610.6
99595.8
99580.3
99564
99547
99529.2
99510.3
99490.4
99469.4
99447
99423.2
99398.1
99371.7
99344.7
99318.3
99294.9
99277.6
99269.2
99277.1
99314
99400.5
99585.4
99920.2
100556
99987.2
99990.2
99991
99990.9
99990.3
99989.4
99988.3
99987.1
99985.8
99984.4
99983
99981.5
99979.9
99978.2
99976.4
99974.6
99972.8
99970.8
99968.8
99966.7
99964.5
99962.2
99959.9
99957.5
99955
99952.4
99949.7
99947
99944.1
99941.2
99938.2
99935
99931.8
99928.5
99925
99921.5
99917.8
99914
99910.1
99906.1
99902
99897.7
99893.3
99888.8
99884.1
99879.2
99874.2
99869
99863.7
99858.2
99852.5
99846.7
99840.6
99834.3
99827.9
99821.2
99814.2
99807.1
99799.7
99792
99784.1
99776
99767.5
99758.8
99749.7
99740.4
99730.6
99720.6
99710.1
99699.3
99688
99676.4
99664.2
99651.6
99638.4
99624.7
99610.3
99595.4
99579.8
99563.4
99546.2
99528.1
99509.1
99489
99467.7
99445.1
99421.3
99396.4
99370.6
99344.9
99320.6
99300.7
99288.8
99289.1
99312.2
99376.7
99512.7
99781.7
100214
100859
99985.7
99989.4
99990.6
99990.7
99990.3
99989.5
99988.5
99987.4
99986.1
99984.7
99983.3
99981.7
99980.1
99978.5
99976.7
99974.9
99973
99971
99969
99966.9
99964.7
99962.5
99960.1
99957.7
99955.2
99952.6
99949.9
99947.1
99944.2
99941.3
99938.2
99935.1
99931.8
99928.5
99925
99921.5
99917.8
99914
99910.1
99906
99901.9
99897.6
99893.2
99888.6
99883.9
99879.1
99874
99868.9
99863.5
99858
99852.4
99846.5
99840.4
99834.2
99827.7
99821
99814.1
99806.9
99799.6
99791.9
99784
99775.9
99767.4
99758.7
99749.7
99740.3
99730.6
99720.6
99710.1
99699.3
99688
99676.3
99664.2
99651.5
99638.3
99624.5
99610.1
99595.1
99579.3
99562.8
99545.4
99527.2
99507.9
99487.5
99466
99443.3
99419.4
99394.6
99369.4
99344.7
99322.2
99305
99297.7
99305.8
99342.4
99430.9
99609.6
99945.7
100440
101075
99984.6
99988.7
99990.1
99990.5
99990.2
99989.5
99988.6
99987.4
99986.2
99984.8
99983.3
99981.8
99980.2
99978.5
99976.7
99974.9
99973
99971
99969
99966.9
99964.7
99962.4
99960
99957.6
99955.1
99952.5
99949.8
99947
99944.1
99941.1
99938.1
99934.9
99931.6
99928.3
99924.8
99921.2
99917.5
99913.7
99909.8
99905.8
99901.6
99897.3
99892.9
99888.4
99883.7
99878.8
99873.8
99868.6
99863.3
99857.8
99852.1
99846.3
99840.2
99834
99827.5
99820.8
99814
99806.8
99799.5
99791.9
99784
99775.8
99767.4
99758.7
99749.7
99740.4
99730.7
99720.6
99710.2
99699.4
99688.1
99676.4
99664.2
99651.5
99638.3
99624.4
99610
99594.8
99579
99562.3
99544.8
99526.3
99506.8
99486.1
99464.4
99441.5
99417.5
99392.8
99367.9
99343.9
99322.8
99307.5
99303.2
99317.1
99363.3
99469.5
99678.9
100061
100591
101212
99983.9
99988.2
99989.8
99990.3
99990.1
99989.4
99988.5
99987.4
99986.1
99984.7
99983.3
99981.7
99980.1
99978.4
99976.7
99974.8
99972.9
99970.9
99968.9
99966.8
99964.6
99962.3
99959.9
99957.5
99954.9
99952.3
99949.6
99946.8
99944
99941
99937.9
99934.8
99931.5
99928.1
99924.7
99921.1
99917.4
99913.6
99909.7
99905.7
99901.5
99897.2
99892.8
99888.3
99883.6
99878.7
99873.7
99868.6
99863.2
99857.7
99852.1
99846.2
99840.2
99833.9
99827.5
99820.8
99814
99806.9
99799.5
99791.9
99784
99775.9
99767.5
99758.8
99749.8
99740.5
99730.8
99720.8
99710.4
99699.6
99688.3
99676.6
99664.4
99651.7
99638.4
99624.5
99610
99594.8
99578.8
99562
99544.3
99525.6
99505.9
99485
99463
99439.9
99415.8
99391
99366.2
99342.6
99322.2
99307.9
99305.1
99322
99373.7
99488.4
99713.3
100117
100664
101280
99983.7
99988.2
99989.8
99990.3
99990.1
99989.5
99988.6
99987.4
99986.2
99984.8
99983.4
99981.8
99980.2
99978.5
99976.8
99974.9
99973
99971.1
99969
99966.9
99964.7
99962.4
99960
99957.6
99955.1
99952.4
99949.7
99946.9
99944.1
99941.1
99938
99934.9
99931.6
99928.2
99924.8
99921.2
99917.5
99913.7
99909.8
99905.8
99901.6
99897.3
99892.9
99888.3
99883.6
99878.8
99873.8
99868.6
99863.3
99857.8
99852.2
99846.3
99840.3
99834.1
99827.6
99821
99814.1
99807
99799.7
99792.1
99784.3
99776.3
99767.8
99759.1
99750.1
99740.8
99731.1
99721.1
99710.7
99699.9
99688.6
99676.9
99664.7
99652
99638.7
99624.8
99610.2
99594.9
99578.8
99561.8
99544
99525.1
99505.2
99484.2
99462
99438.6
99414.2
99389.2
99364.3
99340.8
99320.4
99306.2
99303.3
99320.2
99372.2
99486.8
99710.8
100114
100660
101276
99984
99988.4
99990
99990.4
99990.2
99989.5
99988.6
99987.5
99986.2
99984.9
99983.4
99981.9
99980.3
99978.6
99976.9
99975.1
99973.2
99971.3
99969.2
99967.1
99965
99962.7
99960.4
99957.9
99955.4
99952.8
99950.1
99947.4
99944.5
99941.5
99938.5
99935.3
99932.1
99928.7
99925.2
99921.7
99918
99914.2
99910.2
99906.2
99902
99897.7
99893.3
99888.7
99884
99879.2
99874.1
99869
99863.6
99858.1
99852.5
99846.6
99840.6
99834.3
99827.9
99821.3
99814.4
99807.3
99800
99792.4
99784.6
99776.5
99768.2
99759.5
99750.5
99741.2
99731.5
99721.5
99711.1
99700.3
99689
99677.3
99665.1
99652.4
99639
99625.1
99610.4
99595
99578.8
99561.7
99543.7
99524.7
99504.6
99483.3
99460.8
99437.1
99412.4
99387.1
99361.8
99337.8
99316.9
99301.7
99297.1
99311.2
99358
99462.9
99669.8
100048
100576
101198
99984.9
99988.9
99990.3
99990.5
99990.1
99989.4
99988.4
99987.3
99986
99984.7
99983.3
99981.8
99980.2
99978.5
99976.8
99975
99973.2
99971.2
99969.2
99967.1
99965
99962.7
99960.4
99958
99955.5
99952.9
99950.3
99947.5
99944.7
99941.7
99938.7
99935.5
99932.3
99928.9
99925.5
99921.9
99918.2
99914.4
99910.5
99906.5
99902.3
99898
99893.6
99889.1
99884.3
99879.5
99874.5
99869.3
99864
99858.5
99852.8
99846.9
99840.9
99834.7
99828.2
99821.6
99814.7
99807.6
99800.3
99792.8
99785
99776.9
99768.5
99759.8
99750.8
99741.5
99731.9
99721.9
99711.5
99700.7
99689.4
99677.7
99665.5
99652.7
99639.4
99625.4
99610.7
99595.2
99578.9
99561.7
99543.6
99524.4
99504
99482.5
99459.8
99435.8
99410.7
99384.9
99359
99334.3
99312.2
99295.2
99287.5
99296.2
99333.2
99419.9
99594.7
99924.7
100416
101051
99986.4
99989.7
99990.6
99990.5
99990
99989.1
99988.1
99986.9
99985.7
99984.3
99982.9
99981.4
99979.8
99978.2
99976.4
99974.7
99972.8
99970.9
99968.9
99966.8
99964.7
99962.4
99960.1
99957.7
99955.2
99952.7
99950
99947.3
99944.4
99941.5
99938.5
99935.4
99932.1
99928.8
99925.4
99921.8
99918.2
99914.4
99910.5
99906.5
99902.3
99898
99893.6
99889.1
99884.4
99879.5
99874.6
99869.4
99864.1
99858.6
99853
99847.1
99841.1
99834.9
99828.4
99821.8
99815
99807.9
99800.6
99793
99785.2
99777.2
99768.8
99760.1
99751.2
99741.9
99732.2
99722.2
99711.9
99701.1
99689.8
99678.1
99665.9
99653.2
99639.8
99625.7
99611
99595.5
99579.2
99561.9
99543.6
99524.3
99503.8
99482.1
99459.1
99434.8
99409.3
99382.9
99356.3
99330.4
99306.9
99287.5
99275.5
99276.9
99300.4
99362.6
99493.7
99755
100181
100826
99988.3
99990.6
99990.9
99990.5
99989.7
99988.8
99987.6
99986.4
99985.1
99983.8
99982.3
99980.8
99979.2
99977.5
99975.8
99974
99972.2
99970.2
99968.2
99966.2
99964
99961.8
99959.4
99957
99954.6
99952
99949.3
99946.6
99943.8
99940.9
99937.8
99934.7
99931.5
99928.2
99924.7
99921.2
99917.5
99913.8
99909.9
99905.9
99901.8
99897.5
99893.1
99888.6
99883.9
99879.1
99874.2
99869
99863.7
99858.3
99852.7
99846.9
99840.9
99834.7
99828.3
99821.7
99814.9
99807.9
99800.6
99793.1
99785.3
99777.3
99768.9
99760.3
99751.4
99742.1
99732.5
99722.6
99712.2
99701.5
99690.3
99678.6
99666.4
99653.6
99640.2
99626.2
99611.5
99595.9
99579.5
99562.2
99543.8
99524.4
99503.8
99481.9
99458.6
99434
99408.1
99381.2
99353.6
99326.3
99300.8
99278.7
99262.5
99255.6
99264
99298.5
99379.6
99555.8
99882.1
100514
99990.3
99991.5
99991.3
99990.5
99989.5
99988.4
99987.2
99986
99984.6
99983.2
99981.7
99980.2
99978.6
99976.9
99975.2
99973.4
99971.5
99969.6
99967.5
99965.4
99963.3
99961
99958.7
99956.3
99953.8
99951.2
99948.5
99945.8
99942.9
99940
99937
99933.8
99930.6
99927.2
99923.8
99920.2
99916.6
99912.8
99908.9
99904.9
99900.8
99896.5
99892.1
99887.6
99882.9
99878.1
99873.1
99868
99862.8
99857.3
99851.7
99845.9
99840
99833.8
99827.5
99820.9
99814.1
99807.1
99799.9
99792.5
99784.7
99776.7
99768.5
99759.9
99751
99741.8
99732.3
99722.4
99712.1
99701.4
99690.2
99678.6
99666.4
99653.7
99640.4
99626.3
99611.6
99596.1
99579.6
99562.3
99543.9
99524.4
99503.6
99481.6
99458.2
99433.4
99407.1
99379.5
99351
99322.2
99294.6
99269.6
99249.2
99234.7
99228.7
99236.4
99268
99351.2
99538.8
100107
99992.4
99992.5
99991.7
99990.6
99989.4
99988.2
99987
99985.7
99984.3
99982.9
99981.4
99979.8
99978.2
99976.5
99974.8
99973
99971.1
99969.1
99967.1
99965
99962.8
99960.5
99958.2
99955.7
99953.2
99950.6
99947.9
99945.1
99942.3
99939.3
99936.2
99933.1
99929.8
99926.4
99923
99919.4
99915.7
99911.9
99908
99903.9
99899.8
99895.5
99891.1
99886.5
99881.8
99877
99872
99866.9
99861.6
99856.1
99850.5
99844.7
99838.7
99832.5
99826.1
99819.6
99812.8
99805.8
99798.6
99791.1
99783.4
99775.4
99767.1
99758.6
99749.7
99740.5
99731
99721.2
99710.9
99700.2
99689.1
99677.6
99665.5
99652.8
99639.5
99625.6
99610.9
99595.4
99579
99561.7
99543.3
99523.8
99503
99480.9
99457.4
99432.4
99405.8
99377.7
99348.3
99318.3
99288.7
99261
99236.9
99216.8
99199.3
99184.7
99174.2
99170.3
99184.7
99591
99994.3
99993.4
99992.2
99990.8
99989.6
99988.3
99987
99985.6
99984.3
99982.8
99981.3
99979.8
99978.1
99976.5
99974.7
99972.9
99971
99969
99966.9
99964.8
99962.6
99960.3
99958
99955.5
99953
99950.4
99947.7
99944.9
99942
99939
99935.9
99932.7
99929.4
99926.1
99922.6
99919
99915.3
99911.4
99907.5
99903.4
99899.3
99895
99890.5
99885.9
99881.2
99876.3
99871.3
99866.2
99860.8
99855.3
99849.7
99843.8
99837.8
99831.5
99825.1
99818.5
99811.7
99804.6
99797.3
99789.8
99782
99774
99765.7
99757.1
99748.2
99739
99729.4
99719.5
99709.2
99698.5
99687.3
99675.7
99663.6
99650.9
99637.5
99623.6
99608.8
99593.3
99576.9
99559.6
99541.2
99521.6
99500.9
99478.7
99455.2
99430
99403.3
99374.9
99345
99314
99282.9
99253.3
99226.6
99203.7
99179.2
99149.4
99109.2
99039.3
98870.3
98936.8
99995.8
99994.2
99992.7
99991.2
99989.8
99988.5
99987.2
99985.9
99984.5
99983
99981.5
99980
99978.3
99976.7
99974.9
99973.1
99971.2
99969.2
99967.1
99965
99962.8
99960.5
99958.2
99955.7
99953.2
99950.6
99947.9
99945.1
99942.2
99939.2
99936.1
99932.9
99929.6
99926.2
99922.8
99919.2
99915.4
99911.6
99907.7
99903.6
99899.4
99895.1
99890.6
99886.1
99881.3
99876.4
99871.4
99866.2
99860.9
99855.4
99849.7
99843.8
99837.7
99831.5
99825
99818.3
99811.5
99804.4
99797
99789.5
99781.7
99773.6
99765.3
99756.6
99747.6
99738.4
99728.7
99718.8
99708.4
99697.6
99686.4
99674.7
99662.5
99649.7
99636.3
99622.2
99607.3
99591.7
99575.1
99557.6
99539
99519.2
99498.2
99475.8
99451.9
99426.5
99399.4
99370.5
99339.8
99307.9
99275.5
99244
99215
99189.2
99165.1
99131.5
99075.4
98966.9
98653.6
98060.9
99997.5
99994.9
99993.1
99991.6
99990.2
99988.9
99987.6
99986.2
99984.8
99983.4
99981.9
99980.4
99978.7
99977.1
99975.3
99973.5
99971.6
99969.6
99967.6
99965.5
99963.3
99961
99958.6
99956.2
99953.7
99951.1
99948.4
99945.6
99942.7
99939.7
99936.6
99933.4
99930.2
99926.8
99923.3
99919.7
99916
99912.2
99908.2
99904.2
99900
99895.7
99891.2
99886.7
99881.9
99877.1
99872
99866.9
99861.5
99856
99850.3
99844.5
99838.4
99832.2
99825.7
99819
99812.2
99805.1
99797.7
99790.2
99782.4
99774.3
99765.9
99757.2
99748.2
99738.9
99729.3
99719.3
99709
99698.2
99686.9
99675.2
99663
99650.2
99636.7
99622.6
99607.7
99592
99575.5
99557.9
99539.2
99519.4
99498.4
99476
99452
99426.5
99399.2
99370.2
99339.4
99307.2
99274.8
99243.5
99214.2
99187.7
99153
99114.8
99054.8
98934.7
98553.1
96887.7
100561
101837
102380
102689
102901
103060
103185
103285
103367
103434
103489
103534
103571
103600
103623
103639
103650
103656
103657
103654
100515
101542
102176
102575
102842
103034
103179
103292
103381
103454
103512
103558
103595
103624
103645
103660
103669
103673
103672
103664
100803
101573
102118
102515
102802
103012
103171
103294
103390
103467
103527
103575
103611
103639
103660
103673
103681
103683
103682
103670
101080
101706
102168
102528
102805
103018
103181
103308
103408
103486
103548
103595
103631
103657
103676
103687
103693
103694
103691
103675
101316
101848
102251
102577
102837
103042
103204
103332
103432
103510
103571
103617
103651
103675
103692
103701
103704
103703
103698
103678
101515
101979
102342
102640
102883
103079
103236
103360
103459
103536
103595
103639
103672
103694
103707
103714
103715
103712
103705
103680
101677
102092
102425
102702
102931
103119
103270
103391
103487
103562
103619
103662
103692
103711
103721
103725
103724
103720
103709
103681
101798
102180
102493
102756
102975
103155
103301
103420
103514
103587
103643
103683
103711
103727
103735
103736
103733
103726
103712
103683
101879
102241
102541
102795
103008
103184
103328
103445
103537
103610
103664
103702
103728
103741
103746
103745
103740
103731
103715
103686
101923
102276
102570
102820
103030
103204
103347
103463
103554
103625
103679
103716
103740
103752
103755
103752
103746
103735
103715
103691
101921
102273
102568
102817
103027
103201
103344
103460
103552
103623
103677
103714
103738
103750
103754
103751
103745
103734
103716
103690
101868
102231
102531
102786
102999
103176
103320
103438
103531
103604
103659
103698
103724
103738
103744
103743
103738
103730
103714
103688
101780
102163
102477
102741
102961
103142
103290
103410
103505
103579
103636
103677
103706
103723
103732
103733
103731
103724
103711
103688
101650
102068
102403
102682
102913
103102
103255
103378
103476
103553
103611
103655
103686
103706
103718
103722
103722
103718
103707
103685
101483
101949
102314
102615
102861
103059
103218
103345
103446
103525
103586
103632
103665
103688
103703
103710
103712
103710
103703
103681
101278
101812
102219
102549
102812
103020
103185
103315
103417
103498
103560
103608
103644
103670
103687
103697
103701
103701
103696
103678
101036
101666
102132
102497
102778
102994
103160
103290
103393
103473
103536
103585
103623
103651
103671
103683
103690
103691
103688
103675
100755
101529
102079
102482
102773
102987
103149
103275
103374
103453
103515
103565
103603
103633
103654
103669
103677
103681
103679
103670
100461
101495
102136
102542
102814
103009
103157
103273
103365
103440
103500
103548
103587
103617
103639
103655
103665
103670
103669
103663
100505
101792
102342
102657
102873
103035
103163
103266
103350
103419
103477
103524
103562
103592
103616
103634
103646
103652
103654
103651
103496
103494
103493
103492
103492
103491
103491
103490
103490
103490
103490
103490
103490
103491
103491
103492
103492
103493
103494
103496
103493
103491
103490
103490
103490
103489
103489
103489
103489
103489
103489
103489
103489
103489
103489
103490
103490
103490
103491
103493
103492
103490
103490
103490
103490
103490
103490
103490
103490
103490
103490
103490
103490
103490
103490
103490
103490
103490
103490
103492
103492
103491
103490
103490
103490
103490
103490
103490
103490
103490
103490
103490
103490
103490
103490
103490
103490
103490
103491
103492
103492
103490
103490
103490
103490
103490
103490
103490
103490
103490
103490
103490
103490
103490
103490
103490
103490
103490
103490
103492
103491
103490
103489
103489
103489
103489
103489
103489
103489
103489
103489
103489
103489
103489
103489
103489
103489
103489
103489
103491
103491
103489
103489
103489
103489
103488
103488
103488
103488
103488
103488
103488
103488
103488
103488
103489
103489
103489
103489
103491
103490
103488
103488
103488
103488
103488
103488
103488
103488
103488
103488
103488
103488
103488
103488
103488
103488
103488
103488
103490
103489
103488
103487
103487
103487
103487
103487
103487
103487
103487
103487
103487
103487
103487
103487
103487
103487
103487
103488
103489
103489
103487
103487
103487
103487
103487
103486
103486
103486
103486
103486
103486
103486
103486
103487
103487
103487
103487
103487
103489
103488
103486
103486
103486
103486
103486
103486
103486
103486
103486
103486
103486
103486
103486
103486
103486
103486
103486
103486
103488
103487
103486
103485
103485
103485
103485
103485
103485
103485
103485
103485
103485
103485
103485
103485
103485
103485
103485
103486
103487
103486
103485
103485
103485
103484
103484
103484
103484
103484
103484
103484
103484
103484
103484
103484
103484
103485
103485
103485
103486
103486
103484
103484
103484
103484
103484
103484
103484
103484
103484
103484
103484
103484
103484
103484
103484
103484
103484
103484
103486
103485
103483
103483
103483
103483
103483
103483
103483
103483
103483
103483
103483
103483
103483
103483
103483
103483
103483
103483
103485
103484
103483
103482
103482
103482
103482
103482
103482
103482
103482
103482
103482
103482
103482
103482
103482
103482
103482
103483
103484
103483
103482
103482
103482
103481
103481
103481
103481
103481
103481
103481
103481
103481
103481
103481
103482
103482
103482
103482
103483
103482
103481
103481
103481
103481
103481
103481
103481
103481
103481
103481
103481
103481
103481
103481
103481
103481
103481
103481
103482
103482
103480
103480
103480
103480
103480
103480
103480
103480
103480
103480
103480
103480
103480
103480
103480
103480
103480
103480
103482
103481
103479
103479
103479
103479
103479
103479
103479
103479
103479
103479
103479
103479
103479
103479
103479
103479
103479
103479
103481
103480
103479
103479
103478
103478
103478
103478
103478
103478
103478
103478
103478
103478
103478
103478
103478
103478
103479
103479
103480
103479
103478
103478
103478
103478
103478
103477
103477
103477
103477
103477
103477
103477
103477
103478
103478
103478
103478
103478
103479
103478
103477
103477
103477
103477
103477
103477
103477
103477
103477
103477
103477
103477
103477
103477
103477
103477
103477
103477
103478
103477
103476
103476
103476
103476
103476
103476
103476
103476
103476
103476
103476
103476
103476
103476
103476
103476
103476
103476
103477
103477
103475
103475
103475
103475
103475
103475
103475
103475
103475
103475
103475
103475
103475
103475
103475
103475
103475
103475
103477
103476
103475
103474
103474
103474
103474
103474
103474
103474
103474
103474
103474
103474
103474
103474
103474
103474
103474
103475
103476
103475
103474
103474
103474
103474
103474
103473
103473
103473
103473
103473
103473
103473
103473
103474
103474
103474
103474
103474
103475
103474
103473
103473
103473
103473
103473
103473
103473
103473
103473
103473
103473
103473
103473
103473
103473
103473
103473
103473
103474
103473
103472
103472
103472
103472
103472
103472
103472
103472
103472
103472
103472
103472
103472
103472
103472
103472
103472
103472
103473
103472
103471
103471
103471
103471
103471
103471
103471
103471
103471
103471
103471
103471
103471
103471
103471
103471
103471
103471
103472
103472
103471
103470
103470
103470
103470
103470
103470
103470
103470
103470
103470
103470
103470
103470
103470
103470
103470
103471
103472
103471
103470
103470
103470
103470
103470
103469
103469
103469
103469
103469
103469
103469
103469
103470
103470
103470
103470
103470
103471
103470
103469
103469
103469
103469
103469
103469
103469
103469
103469
103469
103469
103469
103469
103469
103469
103469
103469
103469
103470
103469
103468
103468
103468
103468
103468
103468
103468
103468
103468
103468
103468
103468
103468
103468
103468
103468
103468
103468
103469
103468
103467
103467
103467
103467
103467
103467
103467
103467
103467
103467
103467
103467
103467
103467
103467
103467
103467
103467
103468
103467
103467
103466
103466
103466
103466
103466
103466
103466
103466
103466
103466
103466
103466
103466
103466
103466
103466
103467
103467
103466
103466
103466
103466
103466
103466
103466
103466
103465
103465
103465
103465
103466
103466
103466
103466
103466
103466
103466
103466
103466
103465
103465
103465
103465
103465
103465
103465
103465
103465
103465
103465
103465
103465
103465
103465
103465
103465
103465
103466
103465
103464
103464
103464
103464
103464
103464
103464
103464
103464
103464
103464
103464
103464
103464
103464
103464
103464
103464
103465
103464
103464
103463
103463
103463
103463
103463
103463
103463
103463
103463
103463
103463
103463
103463
103463
103463
103463
103464
103464
103463
103463
103463
103463
103463
103463
103462
103462
103462
103462
103462
103462
103462
103462
103463
103463
103463
103463
103463
103463
103462
103462
103462
103462
103462
103462
103462
103462
103462
103462
103462
103462
103462
103462
103462
103462
103462
103462
103462
103462
103462
103461
103461
103461
103461
103461
103461
103461
103461
103461
103461
103461
103461
103461
103461
103461
103461
103461
103461
103462
103461
103460
103460
103460
103460
103460
103460
103460
103460
103460
103460
103460
103460
103460
103460
103460
103460
103460
103460
103461
103460
103460
103460
103460
103460
103460
103459
103459
103459
103459
103459
103459
103459
103459
103460
103460
103460
103460
103460
103460
103459
103459
103459
103459
103459
103459
103459
103459
103459
103459
103459
103459
103459
103459
103459
103459
103459
103459
103459
103459
103459
103458
103458
103458
103458
103458
103458
103458
103458
103458
103458
103458
103458
103458
103458
103458
103458
103458
103458
103459
103458
103458
103457
103457
103457
103457
103457
103457
103457
103457
103457
103457
103457
103457
103457
103457
103457
103457
103458
103458
103457
103457
103457
103457
103457
103457
103457
103457
103457
103457
103457
103457
103457
103457
103457
103457
103457
103457
103457
103457
103456
103456
103456
103456
103456
103456
103456
103456
103456
103456
103456
103456
103456
103456
103456
103456
103456
103456
103456
103456
103456
103455
103455
103455
103455
103455
103455
103455
103455
103455
103455
103455
103455
103455
103455
103455
103455
103455
103455
103456
103455
103455
103455
103454
103454
103454
103454
103454
103454
103454
103454
103454
103454
103454
103454
103454
103454
103455
103455
103455
103454
103454
103454
103454
103454
103454
103454
103454
103454
103454
103454
103454
103454
103454
103454
103454
103454
103454
103454
103454
103453
103453
103453
103453
103453
103453
103453
103453
103453
103453
103453
103453
103453
103453
103453
103453
103453
103453
103453
103453
103453
103453
103452
103452
103452
103452
103452
103452
103452
103452
103452
103452
103452
103452
103452
103452
103452
103452
103453
103453
103452
103452
103452
103452
103452
103452
103452
103452
103452
103452
103452
103452
103452
103452
103452
103452
103452
103452
103452
103452
103451
103451
103451
103451
103451
103451
103451
103451
103451
103451
103451
103451
103451
103451
103451
103451
103451
103451
103451
103451
103451
103450
103450
103450
103450
103450
103450
103450
103450
103450
103450
103450
103450
103450
103450
103450
103450
103450
103450
103451
103450
103450
103450
103450
103450
103450
103450
103450
103450
103450
103450
103450
103450
103450
103450
103450
103450
103450
103450
103450
103449
103449
103449
103449
103449
103449
103449
103449
103449
103449
103449
103449
103449
103449
103449
103449
103449
103449
103449
103449
103449
103448
103448
103448
103448
103448
103448
103448
103448
103448
103448
103448
103448
103448
103448
103448
103448
103448
103448
103449
103448
103448
103448
103448
103448
103448
103448
103448
103448
103448
103448
103448
103448
103448
103448
103448
103448
103448
103448
103448
103447
103447
103447
103447
103447
103447
103447
103447
103447
103447
103447
103447
103447
103447
103447
103447
103447
103447
103447
103447
103446
103446
103446
103446
103446
103446
103446
103446
103446
103446
103446
103446
103446
103446
103446
103446
103446
103446
103446
103447
103446
103446
103446
103446
103446
103446
103446
103446
103446
103446
103446
103446
103446
103446
103446
103446
103446
103446
103446
103446
103445
103445
103445
103445
103445
103445
103445
103445
103445
103445
103445
103445
103445
103445
103445
103445
103445
103445
103445
103445
103444
103444
103444
103444
103444
103444
103444
103444
103444
103444
103444
103444
103444
103444
103444
103444
103444
103444
103445
103445
103444
103444
103444
103444
103444
103444
103444
103444
103444
103444
103444
103444
103444
103444
103444
103444
103444
103444
103444
103444
103443
103443
103443
103443
103443
103443
103443
103443
103443
103443
103443
103443
103443
103443
103443
103443
103443
103443
103443
103443
103442
103442
103442
103442
103442
103442
103442
103442
103442
103442
103442
103442
103442
103442
103442
103443
103443
103443
103443
103443
103442
103442
103442
103442
103442
103442
103442
103442
103442
103442
103442
103442
103442
103442
103442
103442
103442
103442
103442
103442
103441
103441
103441
103441
103441
103441
103441
103441
103441
103441
103441
103441
103441
103441
103441
103441
103441
103441
103442
103442
103440
103440
103440
103440
103440
103440
103440
103440
103440
103440
103440
103441
103441
103441
103441
103441
103441
103441
103441
103441
103440
103440
103440
103440
103440
103440
103440
103440
103440
103440
103440
103440
103440
103440
103440
103440
103440
103440
103440
103440
103439
103439
103439
103439
103439
103439
103439
103439
103439
103439
103439
103439
103439
103440
103440
103440
103440
103440
103440
103440
103438
103438
103438
103438
103438
103438
103438
103438
103438
103439
103439
103439
103439
103439
103439
103439
103439
103439
103439
103439
103437
103437
103437
103437
103437
103437
103438
103438
103438
103438
103438
103438
103438
103438
103439
103439
103439
103439
103439
103439
103436