/*--------------------------------*- C++ -*----------------------------------*\
| =========                 |                                                 |
| \\      /  F ield         | OpenFOAM: The Open Source CFD Toolbox           |
|  \\    /   O peration     | Version:  2.1.0                                 |
|   \\  /    A nd           | Web:      www.OpenFOAM.org                      |
|    \\/     M anipulation  |                                                 |
\*---------------------------------------------------------------------------*/
FoamFile
{
    version     2.0;
    format      ascii;
    class       surfaceScalarField;
    location    "0.33";
    object      phi;
}
// * * * * * * * * * * * * * * * * * * * * * * * * * * * * * * * * * * * * * //

dimensions      [0 3 -1 0 0 0 0];

internalField   nonuniform List<scalar> 
12460
(
-2.55596e-05
-4.05665e-09
-2.5537e-05
-3.88292e-08
-2.54916e-05
-6.13999e-08
-2.54344e-05
-7.31271e-08
-2.53701e-05
-8.01918e-08
-2.53008e-05
-8.50501e-08
-2.52278e-05
-8.86416e-08
-2.51518e-05
-9.15196e-08
-2.50733e-05
-9.39889e-08
-2.49923e-05
-9.62261e-08
-2.49092e-05
-9.83399e-08
-2.48238e-05
-1.0038e-07
-2.47362e-05
-1.02388e-07
-2.46465e-05
-1.04375e-07
-2.45547e-05
-1.06366e-07
-2.44606e-05
-1.08357e-07
-2.43643e-05
-1.10363e-07
-2.42659e-05
-1.12372e-07
-2.41652e-05
-1.14397e-07
-2.40622e-05
-1.16431e-07
-2.39569e-05
-1.18499e-07
-2.38494e-05
-1.20577e-07
-2.37395e-05
-1.22662e-07
-2.36272e-05
-1.24805e-07
-2.35125e-05
-1.27054e-07
-2.33952e-05
-1.2936e-07
-2.32753e-05
-1.31726e-07
-2.31527e-05
-1.34146e-07
-2.30274e-05
-1.36635e-07
-2.28992e-05
-1.39193e-07
-2.27682e-05
-1.41831e-07
-2.26342e-05
-1.44552e-07
-2.24971e-05
-1.47368e-07
-2.23568e-05
-1.50285e-07
-2.22133e-05
-1.53309e-07
-2.20663e-05
-1.56448e-07
-2.19159e-05
-1.59712e-07
-2.17618e-05
-1.63098e-07
-2.16039e-05
-1.66626e-07
-2.14421e-05
-1.70305e-07
-2.12761e-05
-1.74146e-07
-2.1106e-05
-1.78155e-07
-2.09314e-05
-1.82336e-07
-2.07521e-05
-1.86699e-07
-2.05681e-05
-1.91246e-07
-2.03791e-05
-1.95977e-07
-2.0185e-05
-2.00891e-07
-1.99856e-05
-2.05974e-07
-1.97806e-05
-2.11246e-07
-1.95701e-05
-2.16633e-07
-1.93538e-05
-2.22065e-07
-1.91317e-05
-2.27836e-07
-1.8903e-05
-2.3406e-07
-1.86678e-05
-2.40472e-07
-1.8426e-05
-2.46768e-07
-1.81781e-05
-2.52801e-07
-1.7924e-05
-2.58742e-07
-1.76637e-05
-2.64753e-07
-1.73971e-05
-2.70897e-07
-1.71241e-05
-2.77221e-07
-1.68443e-05
-2.8373e-07
-1.65577e-05
-2.90463e-07
-1.62639e-05
-2.97444e-07
-1.59627e-05
-3.04691e-07
-1.56539e-05
-3.1223e-07
-1.5337e-05
-3.20088e-07
-1.50118e-05
-3.28318e-07
-1.46777e-05
-3.36961e-07
-1.43345e-05
-3.46058e-07
-1.39815e-05
-3.55625e-07
-1.36183e-05
-3.65711e-07
-1.32443e-05
-3.76364e-07
-1.2859e-05
-3.87629e-07
-1.24615e-05
-3.99582e-07
-1.20513e-05
-4.12303e-07
-1.16273e-05
-4.25904e-07
-1.11886e-05
-4.40522e-07
-1.07339e-05
-4.56335e-07
-1.02619e-05
-4.73594e-07
-9.77079e-06
-4.92648e-07
-9.25826e-06
-5.13925e-07
-8.72158e-06
-5.37969e-07
-8.15731e-06
-5.65458e-07
-7.56129e-06
-5.97101e-07
-6.92888e-06
-6.33385e-07
-6.25524e-06
-6.74486e-07
-5.53592e-06
-7.20044e-07
-4.76804e-06
-7.68473e-07
-3.95265e-06
-8.15813e-07
-3.09947e-06
-8.53441e-07
-2.23573e-06
-8.638e-07
-1.42353e-06
-8.12045e-07
-7.67796e-07
-6.55428e-07
-3.7589e-07
-3.91643e-07
-2.84424e-07
-9.20376e-08
-5.35757e-07
2.49058e-07
-1.42889e-06
8.89733e-07
-3.72178e-06
2.29175e-06
-9.29171e-06
5.56984e-06
1.54952e-05
-2.47869e-05
-3.08939e-05
-2.3596e-08
-3.08609e-05
-9.14398e-08
-3.08133e-05
-1.28626e-07
-3.07565e-05
-1.49296e-07
-3.06937e-05
-1.62237e-07
-3.06266e-05
-1.71185e-07
-3.05563e-05
-1.77814e-07
-3.04834e-05
-1.8312e-07
-3.04081e-05
-1.87669e-07
-3.03307e-05
-1.91784e-07
-3.02514e-05
-1.95671e-07
-3.017e-05
-1.99423e-07
-3.00867e-05
-2.03125e-07
-3.00015e-05
-2.06796e-07
-2.99143e-05
-2.10483e-07
-2.98251e-05
-2.14178e-07
-2.97339e-05
-2.17911e-07
-2.96407e-05
-2.21658e-07
-2.95454e-05
-2.25438e-07
-2.94481e-05
-2.29229e-07
-2.93487e-05
-2.33077e-07
-2.92472e-05
-2.3694e-07
-2.91437e-05
-2.40758e-07
-2.90381e-05
-2.44633e-07
-2.89305e-05
-2.48684e-07
-2.88207e-05
-2.528e-07
-2.87088e-05
-2.56996e-07
-2.85948e-05
-2.61273e-07
-2.84785e-05
-2.6565e-07
-2.83601e-05
-2.70132e-07
-2.82394e-05
-2.74736e-07
-2.81163e-05
-2.79465e-07
-2.79909e-05
-2.84337e-07
-2.78631e-05
-2.89361e-07
-2.77329e-05
-2.94547e-07
-2.76002e-05
-2.99907e-07
-2.74648e-05
-3.05462e-07
-2.73269e-05
-3.11204e-07
-2.71862e-05
-3.17159e-07
-2.70428e-05
-3.23346e-07
-2.68965e-05
-3.29779e-07
-2.67472e-05
-3.36474e-07
-2.65949e-05
-3.43441e-07
-2.64394e-05
-3.50704e-07
-2.62807e-05
-3.58272e-07
-2.61185e-05
-3.66159e-07
-2.59529e-05
-3.74376e-07
-2.57835e-05
-3.82919e-07
-2.56102e-05
-3.9182e-07
-2.5433e-05
-4.01026e-07
-2.52516e-05
-4.10294e-07
-2.50665e-05
-4.19612e-07
-2.4878e-05
-4.29008e-07
-2.46864e-05
-4.38433e-07
-2.44913e-05
-4.47929e-07
-2.42927e-05
-4.57349e-07
-2.40905e-05
-4.66732e-07
-2.38846e-05
-4.76216e-07
-2.36751e-05
-4.85879e-07
-2.34618e-05
-4.95787e-07
-2.32446e-05
-5.05965e-07
-2.30236e-05
-5.16445e-07
-2.27986e-05
-5.27231e-07
-2.25696e-05
-5.3834e-07
-2.23366e-05
-5.49802e-07
-2.20994e-05
-5.61668e-07
-2.18579e-05
-5.74002e-07
-2.16122e-05
-5.86864e-07
-2.13619e-05
-6.00347e-07
-2.11069e-05
-6.14504e-07
-2.0847e-05
-6.29436e-07
-2.05818e-05
-6.45251e-07
-2.0311e-05
-6.62058e-07
-2.0034e-05
-6.80018e-07
-1.97504e-05
-6.9931e-07
-1.94594e-05
-7.20158e-07
-1.91604e-05
-7.42834e-07
-1.88522e-05
-7.67656e-07
-1.85338e-05
-7.95044e-07
-1.82039e-05
-8.25554e-07
-1.78609e-05
-8.59823e-07
-1.75031e-05
-8.9859e-07
-1.71287e-05
-9.42725e-07
-1.67354e-05
-9.93155e-07
-1.63211e-05
-1.05052e-06
-1.58834e-05
-1.11492e-06
-1.54208e-05
-1.18549e-06
-1.49327e-05
-1.25941e-06
-1.44212e-05
-1.33031e-06
-1.38925e-05
-1.38544e-06
-1.3359e-05
-1.4009e-06
-1.28398e-05
-1.33543e-06
-1.23693e-05
-1.1308e-06
-1.20295e-05
-7.37228e-07
-1.20701e-05
-5.69078e-08
-1.25978e-05
7.72752e-07
-1.39655e-05
2.25424e-06
-1.66891e-05
5.01444e-06
-2.18087e-05
1.06894e-05
2.65598e-05
-3.28733e-05
-3.39135e-05
-5.10746e-08
-3.38881e-05
-1.38065e-07
-3.3851e-05
-1.8702e-07
-3.38062e-05
-2.15183e-07
-3.37562e-05
-2.32983e-07
-3.37027e-05
-2.45252e-07
-3.36465e-05
-2.54251e-07
-3.35882e-05
-2.61419e-07
-3.35281e-05
-2.67487e-07
-3.34664e-05
-2.72959e-07
-3.34031e-05
-2.78077e-07
-3.33383e-05
-2.83021e-07
-3.32721e-05
-2.87872e-07
-3.32044e-05
-2.92698e-07
-3.31353e-05
-2.97534e-07
-3.30646e-05
-3.02405e-07
-3.29925e-05
-3.07336e-07
-3.29187e-05
-3.12322e-07
-3.28434e-05
-3.17378e-07
-3.27663e-05
-3.225e-07
-3.26876e-05
-3.2774e-07
-3.2607e-05
-3.33079e-07
-3.25246e-05
-3.38405e-07
-3.24405e-05
-3.43677e-07
-3.23548e-05
-3.48953e-07
-3.22676e-05
-3.54227e-07
-3.21789e-05
-3.59555e-07
-3.20888e-05
-3.64959e-07
-3.19973e-05
-3.70457e-07
-3.19043e-05
-3.76059e-07
-3.18099e-05
-3.81779e-07
-3.1714e-05
-3.87623e-07
-3.16167e-05
-3.93606e-07
-3.1518e-05
-3.99737e-07
-3.14179e-05
-4.06021e-07
-3.13165e-05
-4.12467e-07
-3.12136e-05
-4.19106e-07
-3.11094e-05
-4.25912e-07
-3.10038e-05
-4.32912e-07
-3.0897e-05
-4.40124e-07
-3.07889e-05
-4.47551e-07
-3.06795e-05
-4.55213e-07
-3.0569e-05
-4.63109e-07
-3.04573e-05
-4.71262e-07
-3.03445e-05
-4.79675e-07
-3.02306e-05
-4.88357e-07
-3.01158e-05
-4.97315e-07
-3.00001e-05
-5.06543e-07
-2.98835e-05
-5.16007e-07
-2.97663e-05
-5.25671e-07
-2.96484e-05
-5.35443e-07
-2.95298e-05
-5.45187e-07
-2.94109e-05
-5.54738e-07
-2.92918e-05
-5.64124e-07
-2.91726e-05
-5.73608e-07
-2.9053e-05
-5.83172e-07
-2.8933e-05
-5.92715e-07
-2.88128e-05
-6.02267e-07
-2.86925e-05
-6.11871e-07
-2.85722e-05
-6.21568e-07
-2.84521e-05
-6.3138e-07
-2.83324e-05
-6.41325e-07
-2.82132e-05
-6.51373e-07
-2.80949e-05
-6.61499e-07
-2.79776e-05
-6.71706e-07
-2.78618e-05
-6.82023e-07
-2.77477e-05
-6.92489e-07
-2.76357e-05
-7.03127e-07
-2.75262e-05
-7.14018e-07
-2.74195e-05
-7.25219e-07
-2.7316e-05
-7.3682e-07
-2.7216e-05
-7.48944e-07
-2.712e-05
-7.61702e-07
-2.70283e-05
-7.75295e-07
-2.69411e-05
-7.89957e-07
-2.68586e-05
-8.05978e-07
-2.67809e-05
-8.23736e-07
-2.6708e-05
-8.43657e-07
-2.66398e-05
-8.66286e-07
-2.6576e-05
-8.92363e-07
-2.6516e-05
-9.22707e-07
-2.64591e-05
-9.58191e-07
-2.64048e-05
-9.9979e-07
-2.63521e-05
-1.04847e-06
-2.63003e-05
-1.10494e-06
-2.62485e-05
-1.16925e-06
-2.61964e-05
-1.24008e-06
-2.61445e-05
-1.31375e-06
-2.60949e-05
-1.3824e-06
-2.60517e-05
-1.43103e-06
-2.60215e-05
-1.4334e-06
-2.60124e-05
-1.34662e-06
-2.6037e-05
-1.10806e-06
-2.61362e-05
-6.39445e-07
-2.63235e-05
1.29751e-07
-2.68295e-05
1.27839e-06
-2.78489e-05
3.27324e-06
-2.97692e-05
6.93451e-06
-3.33129e-05
1.42331e-05
3.11817e-05
-3.79348e-05
-3.66563e-05
-7.84675e-08
-3.66436e-05
-1.73105e-07
-3.66237e-05
-2.29326e-07
-3.6598e-05
-2.63011e-07
-3.65683e-05
-2.84504e-07
-3.65359e-05
-2.9916e-07
-3.65016e-05
-3.0974e-07
-3.64659e-05
-3.1802e-07
-3.64291e-05
-3.2489e-07
-3.63913e-05
-3.3099e-07
-3.63526e-05
-3.36601e-07
-3.63133e-05
-3.41968e-07
-3.62732e-05
-3.47176e-07
-3.62324e-05
-3.52326e-07
-3.61911e-05
-3.57443e-07
-3.61491e-05
-3.62575e-07
-3.61065e-05
-3.67741e-07
-3.60634e-05
-3.72947e-07
-3.60197e-05
-3.78195e-07
-3.59755e-05
-3.83489e-07
-3.59308e-05
-3.88856e-07
-3.58857e-05
-3.94266e-07
-3.58401e-05
-3.99724e-07
-3.5794e-05
-4.05184e-07
-3.57474e-05
-4.10558e-07
-3.57004e-05
-4.15875e-07
-3.56532e-05
-4.21192e-07
-3.56056e-05
-4.2654e-07
-3.55578e-05
-4.31934e-07
-3.55098e-05
-4.37383e-07
-3.54616e-05
-4.42894e-07
-3.54135e-05
-4.48474e-07
-3.53653e-05
-4.54129e-07
-3.53172e-05
-4.59864e-07
-3.52692e-05
-4.65679e-07
-3.52215e-05
-4.71567e-07
-3.51741e-05
-4.77548e-07
-3.51272e-05
-4.83609e-07
-3.50808e-05
-4.8976e-07
-3.50351e-05
-4.95999e-07
-3.49902e-05
-5.0232e-07
-3.49463e-05
-5.08729e-07
-3.49035e-05
-5.15213e-07
-3.4862e-05
-5.21775e-07
-3.4822e-05
-5.28403e-07
-3.47838e-05
-5.35084e-07
-3.47475e-05
-5.41804e-07
-3.47135e-05
-5.48539e-07
-3.4682e-05
-5.55229e-07
-3.46534e-05
-5.61803e-07
-3.46277e-05
-5.68366e-07
-3.46048e-05
-5.75053e-07
-3.45846e-05
-5.81693e-07
-3.4567e-05
-5.88144e-07
-3.45524e-05
-5.94486e-07
-3.45409e-05
-6.00688e-07
-3.45327e-05
-6.06686e-07
-3.4528e-05
-6.1246e-07
-3.45272e-05
-6.18021e-07
-3.45304e-05
-6.23379e-07
-3.45382e-05
-6.28544e-07
-3.45506e-05
-6.33547e-07
-3.45681e-05
-6.38357e-07
-3.45909e-05
-6.42925e-07
-3.46194e-05
-6.47243e-07
-3.46539e-05
-6.51347e-07
-3.46947e-05
-6.55286e-07
-3.47422e-05
-6.59114e-07
-3.47966e-05
-6.62927e-07
-3.48581e-05
-6.66824e-07
-3.49268e-05
-6.70943e-07
-3.5003e-05
-6.75472e-07
-3.50867e-05
-6.80625e-07
-3.51777e-05
-6.86688e-07
-3.52758e-05
-6.94011e-07
-3.53808e-05
-7.03026e-07
-3.54922e-05
-7.14264e-07
-3.56093e-05
-7.28306e-07
-3.57314e-05
-7.45812e-07
-3.58575e-05
-7.67698e-07
-3.59866e-05
-7.94933e-07
-3.61176e-05
-8.28447e-07
-3.62492e-05
-8.69235e-07
-3.63804e-05
-9.18213e-07
-3.65103e-05
-9.75911e-07
-3.66383e-05
-1.04202e-06
-3.67644e-05
-1.11469e-06
-3.68892e-05
-1.18949e-06
-3.70144e-05
-1.25766e-06
-3.71424e-05
-1.30351e-06
-3.72752e-05
-1.30086e-06
-3.74128e-05
-1.20933e-06
-3.75544e-05
-9.6663e-07
-3.76994e-05
-4.94508e-07
-3.78537e-05
2.83986e-07
-3.81433e-05
1.56791e-06
-3.86955e-05
3.82541e-06
-3.96811e-05
7.92008e-06
-4.1284e-05
1.58359e-05
3.12398e-05
-4.1342e-05
-3.94427e-05
-9.85476e-08
-3.94476e-05
-1.91198e-07
-3.94511e-05
-2.48847e-07
-3.94521e-05
-2.84657e-07
-3.94512e-05
-3.07742e-07
-3.94491e-05
-3.23214e-07
-3.94463e-05
-3.3418e-07
-3.94432e-05
-3.42466e-07
-3.94399e-05
-3.49151e-07
-3.94366e-05
-3.54871e-07
-3.94334e-05
-3.60004e-07
-3.94304e-05
-3.6477e-07
-3.94278e-05
-3.69305e-07
-3.94256e-05
-3.73683e-07
-3.94238e-05
-3.77959e-07
-3.94226e-05
-3.82154e-07
-3.94221e-05
-3.86303e-07
-3.94223e-05
-3.90408e-07
-3.94233e-05
-3.94435e-07
-3.94253e-05
-3.9838e-07
-3.94285e-05
-4.02299e-07
-3.94328e-05
-4.06132e-07
-3.94384e-05
-4.09955e-07
-3.94452e-05
-4.13861e-07
-3.94531e-05
-4.1778e-07
-3.94621e-05
-4.21625e-07
-3.94723e-05
-4.25409e-07
-3.94837e-05
-4.2915e-07
-3.94965e-05
-4.32854e-07
-3.95107e-05
-4.36525e-07
-3.95264e-05
-4.40169e-07
-3.95438e-05
-4.43785e-07
-3.95629e-05
-4.47378e-07
-3.95838e-05
-4.50942e-07
-3.96066e-05
-4.54483e-07
-3.96315e-05
-4.57993e-07
-3.96586e-05
-4.61461e-07
-3.96879e-05
-4.64892e-07
-3.97197e-05
-4.68298e-07
-3.97541e-05
-4.7166e-07
-3.97911e-05
-4.74979e-07
-3.9831e-05
-4.78252e-07
-3.98738e-05
-4.81474e-07
-3.99197e-05
-4.84641e-07
-3.99688e-05
-4.87753e-07
-4.00213e-05
-4.90793e-07
-4.00771e-05
-4.9376e-07
-4.01366e-05
-4.96638e-07
-4.01996e-05
-4.994e-07
-4.02664e-05
-5.02018e-07
-4.03368e-05
-5.04548e-07
-4.04111e-05
-5.07058e-07
-4.04894e-05
-5.09453e-07
-4.05717e-05
-5.11633e-07
-4.0658e-05
-5.13607e-07
-4.07485e-05
-5.15348e-07
-4.08433e-05
-5.16832e-07
-4.09423e-05
-5.18055e-07
-4.10457e-05
-5.19034e-07
-4.11533e-05
-5.19793e-07
-4.12653e-05
-5.20379e-07
-4.13816e-05
-5.20858e-07
-4.1502e-05
-5.21219e-07
-4.16267e-05
-5.21408e-07
-4.17553e-05
-5.21431e-07
-4.18879e-05
-5.21353e-07
-4.20244e-05
-5.21254e-07
-4.21645e-05
-5.21217e-07
-4.23081e-05
-5.21349e-07
-4.2455e-05
-5.21776e-07
-4.26049e-05
-5.22651e-07
-4.27577e-05
-5.24168e-07
-4.29131e-05
-5.26563e-07
-4.30708e-05
-5.30126e-07
-4.32307e-05
-5.35212e-07
-4.33923e-05
-5.42253e-07
-4.35556e-05
-5.51801e-07
-4.37201e-05
-5.64469e-07
-4.38857e-05
-5.80827e-07
-4.40521e-05
-6.0185e-07
-4.42189e-05
-6.28571e-07
-4.43859e-05
-6.61828e-07
-4.45529e-05
-7.02558e-07
-4.47198e-05
-7.51588e-07
-4.48866e-05
-8.0933e-07
-4.50535e-05
-8.75304e-07
-4.52209e-05
-9.47455e-07
-4.53893e-05
-1.02119e-06
-4.55592e-05
-1.08786e-06
-4.57303e-05
-1.13247e-06
-4.59003e-05
-1.13092e-06
-4.60625e-05
-1.04719e-06
-4.62022e-05
-8.26911e-07
-4.62996e-05
-3.97148e-07
-4.6357e-05
3.4139e-07
-4.64107e-05
1.6216e-06
-4.64799e-05
3.89462e-06
-4.65646e-05
8.00474e-06
-4.63405e-05
1.56117e-05
2.84088e-05
-4.35096e-05
-4.24075e-05
-1.05e-07
-4.24339e-05
-1.87373e-07
-4.24654e-05
-2.3996e-07
-4.2499e-05
-2.73366e-07
-4.25337e-05
-2.94944e-07
-4.25693e-05
-3.09108e-07
-4.26059e-05
-3.18833e-07
-4.26433e-05
-3.25809e-07
-4.26817e-05
-3.31145e-07
-4.27211e-05
-3.35421e-07
-4.27617e-05
-3.39054e-07
-4.28034e-05
-3.4223e-07
-4.28464e-05
-3.45112e-07
-4.28908e-05
-3.47751e-07
-4.29366e-05
-3.50218e-07
-4.29839e-05
-3.5252e-07
-4.30328e-05
-3.54686e-07
-4.30833e-05
-3.56777e-07
-4.31356e-05
-3.58676e-07
-4.31897e-05
-3.60371e-07
-4.32457e-05
-3.62021e-07
-4.33036e-05
-3.63563e-07
-4.33635e-05
-3.65056e-07
-4.34255e-05
-3.6654e-07
-4.34895e-05
-3.67978e-07
-4.35557e-05
-3.69315e-07
-4.36241e-05
-3.70552e-07
-4.36948e-05
-3.71697e-07
-4.37677e-05
-3.72757e-07
-4.3843e-05
-3.73734e-07
-4.39206e-05
-3.7464e-07
-4.40008e-05
-3.75478e-07
-4.40833e-05
-3.76258e-07
-4.41685e-05
-3.76979e-07
-4.42561e-05
-3.77653e-07
-4.43463e-05
-3.78284e-07
-4.44391e-05
-3.78863e-07
-4.45345e-05
-3.79386e-07
-4.46325e-05
-3.79883e-07
-4.47331e-05
-3.8035e-07
-4.48362e-05
-3.80793e-07
-4.49419e-05
-3.81216e-07
-4.50502e-05
-3.81623e-07
-4.51609e-05
-3.82018e-07
-4.5274e-05
-3.82409e-07
-4.53896e-05
-3.82786e-07
-4.55074e-05
-3.83157e-07
-4.56276e-05
-3.83516e-07
-4.57498e-05
-3.83845e-07
-4.58742e-05
-3.84133e-07
-4.60005e-05
-3.84424e-07
-4.61287e-05
-3.84739e-07
-4.62589e-05
-3.85034e-07
-4.63907e-05
-3.85253e-07
-4.65241e-05
-3.85382e-07
-4.6659e-05
-3.85394e-07
-4.67953e-05
-3.85266e-07
-4.69329e-05
-3.84997e-07
-4.70716e-05
-3.84592e-07
-4.72114e-05
-3.84062e-07
-4.73522e-05
-3.83459e-07
-4.74939e-05
-3.82874e-07
-4.76363e-05
-3.82294e-07
-4.77793e-05
-3.81603e-07
-4.79231e-05
-3.80777e-07
-4.80674e-05
-3.79882e-07
-4.82124e-05
-3.79007e-07
-4.83579e-05
-3.78221e-07
-4.8504e-05
-3.77617e-07
-4.86507e-05
-3.77311e-07
-4.8798e-05
-3.77448e-07
-4.89459e-05
-3.782e-07
-4.90945e-05
-3.79792e-07
-4.92437e-05
-3.82514e-07
-4.93938e-05
-3.86719e-07
-4.95446e-05
-3.92831e-07
-4.96963e-05
-4.01396e-07
-4.98489e-05
-4.13039e-07
-5.00026e-05
-4.28294e-07
-5.01575e-05
-4.4792e-07
-5.0314e-05
-4.72913e-07
-5.04724e-05
-5.04242e-07
-5.06329e-05
-5.42826e-07
-5.07957e-05
-5.89425e-07
-5.09612e-05
-6.44449e-07
-5.11296e-05
-7.07399e-07
-5.13013e-05
-7.76208e-07
-5.14763e-05
-8.46542e-07
-5.1654e-05
-9.10479e-07
-5.18321e-05
-9.54681e-07
-5.20049e-05
-9.58308e-07
-5.21614e-05
-8.90915e-07
-5.22778e-05
-7.10617e-07
-5.23249e-05
-3.5013e-07
-5.2284e-05
3.00381e-07
-5.21253e-05
1.46284e-06
-5.17692e-05
3.53846e-06
-5.10459e-05
7.28133e-06
-4.93391e-05
1.39048e-05
2.38131e-05
-4.47436e-05
-4.5456e-05
-9.61065e-08
-4.55042e-05
-1.6005e-07
-4.55626e-05
-2.02184e-07
-4.56268e-05
-2.29495e-07
-4.56946e-05
-2.47008e-07
-4.57649e-05
-2.58202e-07
-4.58373e-05
-2.65517e-07
-4.59113e-05
-2.70391e-07
-4.59869e-05
-2.73776e-07
-4.60639e-05
-2.76185e-07
-4.61424e-05
-2.77987e-07
-4.62222e-05
-2.7935e-07
-4.63034e-05
-2.80427e-07
-4.6386e-05
-2.81265e-07
-4.64701e-05
-2.81937e-07
-4.65555e-05
-2.82448e-07
-4.66424e-05
-2.82832e-07
-4.67306e-05
-2.8314e-07
-4.68203e-05
-2.83297e-07
-4.69113e-05
-2.83185e-07
-4.7004e-05
-2.82878e-07
-4.70984e-05
-2.82391e-07
-4.71945e-05
-2.81819e-07
-4.72923e-05
-2.81193e-07
-4.73919e-05
-2.80518e-07
-4.74933e-05
-2.79761e-07
-4.75965e-05
-2.78934e-07
-4.77013e-05
-2.78037e-07
-4.78079e-05
-2.77095e-07
-4.79162e-05
-2.76102e-07
-4.80261e-05
-2.75088e-07
-4.81376e-05
-2.74057e-07
-4.82506e-05
-2.7304e-07
-4.83652e-05
-2.72026e-07
-4.84811e-05
-2.71055e-07
-4.85984e-05
-2.70112e-07
-4.87169e-05
-2.69214e-07
-4.88366e-05
-2.68359e-07
-4.89574e-05
-2.67581e-07
-4.90792e-05
-2.66871e-07
-4.92019e-05
-2.66247e-07
-4.93253e-05
-2.65706e-07
-4.94495e-05
-2.65256e-07
-4.95743e-05
-2.64894e-07
-4.96996e-05
-2.64636e-07
-4.98253e-05
-2.64459e-07
-4.99513e-05
-2.64373e-07
-5.00776e-05
-2.64368e-07
-5.02041e-05
-2.64434e-07
-5.03307e-05
-2.6454e-07
-5.04572e-05
-2.64723e-07
-5.05838e-05
-2.64977e-07
-5.07103e-05
-2.6526e-07
-5.08367e-05
-2.65522e-07
-5.09629e-05
-2.65739e-07
-5.10889e-05
-2.65872e-07
-5.12147e-05
-2.65887e-07
-5.13403e-05
-2.65762e-07
-5.14657e-05
-2.65489e-07
-5.1591e-05
-2.65054e-07
-5.17162e-05
-2.64479e-07
-5.18412e-05
-2.63911e-07
-5.19662e-05
-2.63361e-07
-5.20912e-05
-2.62569e-07
-5.22163e-05
-2.61506e-07
-5.23417e-05
-2.60251e-07
-5.24675e-05
-2.58888e-07
-5.25938e-05
-2.57487e-07
-5.27208e-05
-2.56126e-07
-5.28486e-05
-2.54909e-07
-5.29773e-05
-2.53966e-07
-5.31072e-05
-2.53459e-07
-5.32384e-05
-2.53606e-07
-5.33711e-05
-2.54679e-07
-5.35055e-05
-2.57025e-07
-5.36418e-05
-2.61059e-07
-5.37804e-05
-2.6726e-07
-5.39215e-05
-2.76193e-07
-5.40653e-05
-2.88631e-07
-5.42118e-05
-3.05369e-07
-5.43613e-05
-3.27168e-07
-5.45143e-05
-3.54922e-07
-5.4671e-05
-3.89487e-07
-5.48321e-05
-4.3155e-07
-5.4998e-05
-4.81601e-07
-5.51689e-05
-5.39301e-07
-5.53451e-05
-6.02725e-07
-5.5526e-05
-6.68105e-07
-5.57099e-05
-7.28803e-07
-5.58929e-05
-7.73776e-07
-5.60667e-05
-7.86326e-07
-5.62167e-05
-7.42478e-07
-5.63154e-05
-6.13201e-07
-5.63233e-05
-3.43268e-07
-5.61952e-05
1.71541e-07
-5.58538e-05
1.12065e-06
-5.51356e-05
2.81938e-06
-5.37317e-05
5.8762e-06
-5.0918e-05
1.10895e-05
1.81934e-05
-4.53006e-05
-4.81762e-05
-7.48737e-08
-4.82373e-05
-1.16228e-07
-4.83109e-05
-1.4563e-07
-4.83923e-05
-1.64777e-07
-4.84785e-05
-1.76966e-07
-4.85678e-05
-1.84584e-07
-4.86593e-05
-1.89318e-07
-4.87523e-05
-1.92234e-07
-4.88464e-05
-1.93996e-07
-4.89416e-05
-1.95007e-07
-4.90376e-05
-1.95524e-07
-4.91344e-05
-1.9569e-07
-4.9232e-05
-1.9561e-07
-4.93303e-05
-1.95332e-07
-4.94293e-05
-1.94909e-07
-4.95291e-05
-1.9435e-07
-4.96295e-05
-1.93683e-07
-4.97308e-05
-1.92848e-07
-4.98328e-05
-1.9191e-07
-4.99355e-05
-1.90902e-07
-5.00386e-05
-1.89773e-07
-5.01422e-05
-1.88515e-07
-5.02463e-05
-1.8721e-07
-5.03508e-05
-1.85881e-07
-5.04557e-05
-1.84557e-07
-5.0561e-05
-1.83213e-07
-5.06665e-05
-1.81878e-07
-5.07723e-05
-1.80532e-07
-5.08783e-05
-1.7922e-07
-5.09844e-05
-1.7791e-07
-5.10905e-05
-1.76654e-07
-5.11968e-05
-1.75426e-07
-5.1303e-05
-1.74294e-07
-5.14091e-05
-1.73209e-07
-5.15152e-05
-1.72237e-07
-5.16211e-05
-1.71339e-07
-5.17268e-05
-1.70537e-07
-5.18324e-05
-1.69827e-07
-5.19377e-05
-1.69226e-07
-5.20427e-05
-1.68731e-07
-5.21475e-05
-1.68348e-07
-5.22521e-05
-1.68067e-07
-5.23564e-05
-1.6789e-07
-5.24604e-05
-1.67806e-07
-5.25641e-05
-1.67826e-07
-5.26677e-05
-1.67924e-07
-5.2771e-05
-1.68095e-07
-5.28741e-05
-1.68329e-07
-5.29771e-05
-1.68614e-07
-5.308e-05
-1.68919e-07
-5.31828e-05
-1.69249e-07
-5.32856e-05
-1.69592e-07
-5.33885e-05
-1.6991e-07
-5.34915e-05
-1.70156e-07
-5.35948e-05
-1.70298e-07
-5.36982e-05
-1.70295e-07
-5.38021e-05
-1.70108e-07
-5.39063e-05
-1.69709e-07
-5.4011e-05
-1.69078e-07
-5.41164e-05
-1.68195e-07
-5.42225e-05
-1.6702e-07
-5.43294e-05
-1.65781e-07
-5.4437e-05
-1.64659e-07
-5.45456e-05
-1.63075e-07
-5.46554e-05
-1.61018e-07
-5.47664e-05
-1.58635e-07
-5.48788e-05
-1.56007e-07
-5.49929e-05
-1.53195e-07
-5.51086e-05
-1.50264e-07
-5.52262e-05
-1.47302e-07
-5.53459e-05
-1.44428e-07
-5.54679e-05
-1.41793e-07
-5.55923e-05
-1.39602e-07
-5.57194e-05
-1.38113e-07
-5.58494e-05
-1.37654e-07
-5.59826e-05
-1.38625e-07
-5.61192e-05
-1.41476e-07
-5.62596e-05
-1.46758e-07
-5.64039e-05
-1.55293e-07
-5.65525e-05
-1.67898e-07
-5.67055e-05
-1.85267e-07
-5.68635e-05
-2.08201e-07
-5.70268e-05
-2.37484e-07
-5.7196e-05
-2.73682e-07
-5.73715e-05
-3.17446e-07
-5.75533e-05
-3.68851e-07
-5.77412e-05
-4.26147e-07
-5.79343e-05
-4.86364e-07
-5.81297e-05
-5.44578e-07
-5.8322e-05
-5.9254e-07
-5.8501e-05
-6.18023e-07
-5.86491e-05
-6.04779e-07
-5.87392e-05
-5.32773e-07
-5.87213e-05
-3.70078e-07
-5.85253e-05
-3.22299e-08
-5.804e-05
6.27974e-07
-5.70394e-05
1.81036e-06
-5.5116e-05
3.94238e-06
-5.15343e-05
7.4939e-06
1.20135e-05
-4.53716e-05
-5.01862e-05
-4.178e-08
-5.02506e-05
-6.44067e-08
-5.03277e-05
-8.06706e-08
-5.04128e-05
-9.1377e-08
-5.05027e-05
-9.83268e-08
-5.05954e-05
-1.02802e-07
-5.06894e-05
-1.05684e-07
-5.07842e-05
-1.07532e-07
-5.08791e-05
-1.08703e-07
-5.0974e-05
-1.09411e-07
-5.10686e-05
-1.09803e-07
-5.11629e-05
-1.09954e-07
-5.12568e-05
-1.09927e-07
-5.13503e-05
-1.09751e-07
-5.14433e-05
-1.0946e-07
-5.15359e-05
-1.09059e-07
-5.1628e-05
-1.08561e-07
-5.17196e-05
-1.07904e-07
-5.18107e-05
-1.07179e-07
-5.19013e-05
-1.06506e-07
-5.19912e-05
-1.05836e-07
-5.20804e-05
-1.05123e-07
-5.21689e-05
-1.04388e-07
-5.22566e-05
-1.03643e-07
-5.23436e-05
-1.02905e-07
-5.24298e-05
-1.02163e-07
-5.25154e-05
-1.01436e-07
-5.26003e-05
-1.00707e-07
-5.26844e-05
-1.00004e-07
-5.27679e-05
-9.92997e-08
-5.28508e-05
-9.86258e-08
-5.29331e-05
-9.79669e-08
-5.30148e-05
-9.73705e-08
-5.3096e-05
-9.68073e-08
-5.31767e-05
-9.6315e-08
-5.3257e-05
-9.58715e-08
-5.33368e-05
-9.5484e-08
-5.34163e-05
-9.51474e-08
-5.34956e-05
-9.48669e-08
-5.35746e-05
-9.46416e-08
-5.36534e-05
-9.44921e-08
-5.37321e-05
-9.43765e-08
-5.38108e-05
-9.43153e-08
-5.38894e-05
-9.42824e-08
-5.39682e-05
-9.42902e-08
-5.40471e-05
-9.43265e-08
-5.41263e-05
-9.43669e-08
-5.42057e-05
-9.44022e-08
-5.42855e-05
-9.44043e-08
-5.43658e-05
-9.43827e-08
-5.44466e-05
-9.43168e-08
-5.4528e-05
-9.41783e-08
-5.46101e-05
-9.3936e-08
-5.46929e-05
-9.35533e-08
-5.47766e-05
-9.29939e-08
-5.48613e-05
-9.22171e-08
-5.49469e-05
-9.11852e-08
-5.50337e-05
-8.98652e-08
-5.51217e-05
-8.82197e-08
-5.52109e-05
-8.62546e-08
-5.53017e-05
-8.38332e-08
-5.53941e-05
-8.11619e-08
-5.54878e-05
-7.89807e-08
-5.55831e-05
-7.60428e-08
-5.56804e-05
-7.23767e-08
-5.57796e-05
-6.8278e-08
-5.5881e-05
-6.38389e-08
-5.59846e-05
-5.91007e-08
-5.60907e-05
-5.411e-08
-5.61994e-05
-4.89405e-08
-5.63108e-05
-4.36986e-08
-5.64252e-05
-3.85188e-08
-5.65427e-05
-3.35919e-08
-5.66637e-05
-2.91583e-08
-5.67884e-05
-2.55233e-08
-5.6917e-05
-2.30635e-08
-5.70499e-05
-2.22185e-08
-5.71873e-05
-2.35438e-08
-5.73296e-05
-2.77549e-08
-5.74774e-05
-3.55893e-08
-5.76311e-05
-4.77641e-08
-5.77912e-05
-6.50474e-08
-5.79582e-05
-8.82476e-08
-5.81329e-05
-1.17733e-07
-5.83158e-05
-1.54277e-07
-5.85066e-05
-1.98891e-07
-5.87051e-05
-2.49782e-07
-5.891e-05
-3.04918e-07
-5.91181e-05
-3.61487e-07
-5.93229e-05
-4.14354e-07
-5.95136e-05
-4.55855e-07
-5.96712e-05
-4.77518e-07
-5.97674e-05
-4.68805e-07
-5.97535e-05
-4.18047e-07
-5.95436e-05
-2.77888e-07
-5.89803e-05
2.86916e-08
-5.78151e-05
6.07362e-07
-5.55729e-05
1.65619e-06
-5.15288e-05
3.39578e-06
5.53538e-06
-4.51128e-05
-5.10611e-05
-3.18083e-09
-5.11225e-05
-1.03882e-08
-5.11963e-05
-1.39352e-08
-5.12779e-05
-1.65151e-08
-5.1364e-05
-1.87565e-08
-5.14522e-05
-2.07483e-08
-5.15413e-05
-2.25534e-08
-5.16303e-05
-2.41673e-08
-5.17189e-05
-2.56357e-08
-5.18065e-05
-2.69461e-08
-5.18932e-05
-2.81385e-08
-5.19787e-05
-2.92039e-08
-5.20631e-05
-3.0154e-08
-5.21463e-05
-3.09962e-08
-5.22283e-05
-3.17343e-08
-5.23091e-05
-3.2374e-08
-5.23887e-05
-3.28994e-08
-5.24671e-05
-3.33007e-08
-5.25444e-05
-3.36253e-08
-5.26206e-05
-3.39412e-08
-5.26957e-05
-3.42146e-08
-5.27698e-05
-3.4429e-08
-5.28429e-05
-3.45772e-08
-5.29151e-05
-3.46789e-08
-5.29865e-05
-3.47307e-08
-5.3057e-05
-3.47421e-08
-5.31268e-05
-3.47057e-08
-5.31959e-05
-3.46396e-08
-5.32643e-05
-3.45232e-08
-5.33321e-05
-3.43712e-08
-5.33995e-05
-3.41709e-08
-5.34663e-05
-3.39559e-08
-5.35328e-05
-3.37102e-08
-5.35989e-05
-3.34706e-08
-5.36647e-05
-3.32143e-08
-5.37304e-05
-3.29632e-08
-5.37959e-05
-3.27123e-08
-5.38612e-05
-3.24562e-08
-5.39266e-05
-3.21929e-08
-5.3992e-05
-3.19203e-08
-5.40574e-05
-3.16607e-08
-5.4123e-05
-3.13808e-08
-5.41889e-05
-3.10892e-08
-5.4255e-05
-3.07669e-08
-5.43215e-05
-3.0418e-08
-5.43883e-05
-3.00378e-08
-5.44557e-05
-2.95979e-08
-5.45236e-05
-2.90881e-08
-5.45921e-05
-2.84814e-08
-5.46612e-05
-2.77901e-08
-5.47311e-05
-2.69889e-08
-5.48018e-05
-2.60467e-08
-5.48735e-05
-2.49296e-08
-5.4946e-05
-2.36045e-08
-5.50196e-05
-2.2043e-08
-5.50943e-05
-2.0191e-08
-5.51701e-05
-1.8021e-08
-5.52471e-05
-1.54903e-08
-5.53255e-05
-1.25519e-08
-5.54053e-05
-9.1804e-09
-5.54866e-05
-5.39363e-09
-5.55699e-05
-6.59725e-10
-5.56543e-05
2.55845e-09
-5.57403e-05
7.10331e-09
-5.58285e-05
1.27146e-08
-5.59187e-05
1.88019e-08
-5.60111e-05
2.53057e-08
-5.61059e-05
3.22189e-08
-5.62031e-05
3.95176e-08
-5.6303e-05
4.71439e-08
-5.64057e-05
5.50046e-08
-5.65114e-05
6.29866e-08
-5.66204e-05
7.09196e-08
-5.67329e-05
7.85827e-08
-5.68492e-05
8.56984e-08
-5.69696e-05
9.19182e-08
-5.70944e-05
9.68231e-08
-5.72239e-05
9.98902e-08
-5.73585e-05
1.00486e-07
-5.74988e-05
9.79393e-08
-5.76453e-05
9.15562e-08
-5.77984e-05
8.05809e-08
-5.79587e-05
6.42777e-08
-5.81264e-05
4.19434e-08
-5.83023e-05
1.34183e-08
-5.8486e-05
-2.37147e-08
-5.86775e-05
-6.75372e-08
-5.88754e-05
-1.17212e-07
-5.90761e-05
-1.72159e-07
-5.92729e-05
-2.30567e-07
-5.94546e-05
-2.89087e-07
-5.96036e-05
-3.4617e-07
-5.96894e-05
-4.03865e-07
-5.96684e-05
-4.64101e-07
-5.94505e-05
-5.26691e-07
-5.88732e-05
-5.8729e-07
-5.76562e-05
-6.54727e-07
-5.53012e-05
-7.47204e-07
-5.10767e-05
-8.7739e-07
-9.95365e-07
-4.45871e-05
-5.04869e-05
3.4099e-08
-5.05466e-05
4.59271e-08
-5.062e-05
5.60758e-08
-5.07018e-05
6.20789e-08
-5.07886e-05
6.50005e-08
-5.08783e-05
6.58997e-08
-5.09693e-05
6.55819e-08
-5.10608e-05
6.45645e-08
-5.11523e-05
6.31599e-08
-5.12434e-05
6.15582e-08
-5.13339e-05
5.98716e-08
-5.14237e-05
5.81588e-08
-5.15127e-05
5.64762e-08
-5.16008e-05
5.48272e-08
-5.16879e-05
5.32454e-08
-5.17741e-05
5.17271e-08
-5.18594e-05
5.03068e-08
-5.19436e-05
4.89763e-08
-5.20269e-05
4.772e-08
-5.21091e-05
4.64967e-08
-5.21904e-05
4.53358e-08
-5.22708e-05
4.42398e-08
-5.23502e-05
4.32273e-08
-5.24286e-05
4.22804e-08
-5.25062e-05
4.14123e-08
-5.25829e-05
4.06082e-08
-5.26587e-05
3.98858e-08
-5.27338e-05
3.92178e-08
-5.2808e-05
3.8643e-08
-5.28815e-05
3.81438e-08
-5.29543e-05
3.77499e-08
-5.30265e-05
3.74145e-08
-5.30981e-05
3.7166e-08
-5.31691e-05
3.69541e-08
-5.32396e-05
3.6819e-08
-5.33097e-05
3.67261e-08
-5.33794e-05
3.66926e-08
-5.34488e-05
3.6717e-08
-5.35179e-05
3.68048e-08
-5.35868e-05
3.69542e-08
-5.36555e-05
3.71866e-08
-5.37242e-05
3.74756e-08
-5.37928e-05
3.78497e-08
-5.38614e-05
3.83045e-08
-5.39302e-05
3.88588e-08
-5.39991e-05
3.95192e-08
-5.40683e-05
4.03049e-08
-5.41377e-05
4.12315e-08
-5.42075e-05
4.23143e-08
-5.42778e-05
4.35611e-08
-5.43486e-05
4.49924e-08
-5.44199e-05
4.66368e-08
-5.44919e-05
4.85248e-08
-5.45647e-05
5.06909e-08
-5.46381e-05
5.31677e-08
-5.47125e-05
5.60118e-08
-5.47878e-05
5.92394e-08
-5.4864e-05
6.28964e-08
-5.49414e-05
6.70631e-08
-5.50199e-05
7.17341e-08
-5.50997e-05
7.69488e-08
-5.51802e-05
8.26139e-08
-5.52629e-05
8.80694e-08
-5.53472e-05
9.44787e-08
-5.5433e-05
1.01824e-07
-5.55204e-05
1.09827e-07
-5.56097e-05
1.18419e-07
-5.5701e-05
1.27583e-07
-5.57944e-05
1.37306e-07
-5.58901e-05
1.47542e-07
-5.59883e-05
1.58208e-07
-5.60891e-05
1.69221e-07
-5.61928e-05
1.80435e-07
-5.62996e-05
1.91651e-07
-5.64097e-05
2.02621e-07
-5.65235e-05
2.1303e-07
-5.66413e-05
2.22486e-07
-5.67633e-05
2.30509e-07
-5.68901e-05
2.36527e-07
-5.7022e-05
2.3992e-07
-5.71596e-05
2.40025e-07
-5.73032e-05
2.36102e-07
-5.74534e-05
2.27386e-07
-5.76105e-05
2.13038e-07
-5.77742e-05
1.92382e-07
-5.79455e-05
1.64447e-07
-5.81233e-05
1.29076e-07
-5.83047e-05
8.54674e-08
-5.84852e-05
3.25036e-08
-5.86581e-05
-3.03382e-08
-5.88131e-05
-1.03443e-07
-5.89326e-05
-1.92593e-07
-5.89876e-05
-3.10901e-07
-5.89305e-05
-4.78805e-07
-5.86783e-05
-7.31504e-07
-5.80756e-05
-1.13723e-06
-5.68421e-05
-1.82962e-06
-5.44915e-05
-3.03324e-06
-5.03214e-05
-4.97793e-06
-7.30845e-06
-4.39395e-05
-4.87884e-05
6.23679e-08
-4.88435e-05
1.00297e-07
-4.89129e-05
1.24854e-07
-4.89916e-05
1.40229e-07
-4.90762e-05
1.4917e-07
-4.91646e-05
1.53936e-07
-4.92555e-05
1.56216e-07
-4.93481e-05
1.56943e-07
-4.94419e-05
1.56818e-07
-4.95366e-05
1.5614e-07
-4.96319e-05
1.55202e-07
-4.97277e-05
1.54073e-07
-4.9824e-05
1.52874e-07
-4.99206e-05
1.51615e-07
-5.00174e-05
1.50355e-07
-5.01144e-05
1.49093e-07
-5.02116e-05
1.47864e-07
-5.03088e-05
1.46658e-07
-5.04061e-05
1.4547e-07
-5.05033e-05
1.44274e-07
-5.06004e-05
1.43092e-07
-5.06974e-05
1.41921e-07
-5.07942e-05
1.4078e-07
-5.08908e-05
1.39659e-07
-5.09871e-05
1.38565e-07
-5.1083e-05
1.37489e-07
-5.11786e-05
1.36445e-07
-5.12737e-05
1.35416e-07
-5.13683e-05
1.34435e-07
-5.14624e-05
1.33512e-07
-5.1556e-05
1.32671e-07
-5.16491e-05
1.3188e-07
-5.17415e-05
1.31145e-07
-5.18334e-05
1.30444e-07
-5.19247e-05
1.29803e-07
-5.20154e-05
1.29208e-07
-5.21055e-05
1.28681e-07