/*--------------------------------*- C++ -*----------------------------------*\
| =========                 |                                                 |
| \\      /  F ield         | OpenFOAM: The Open Source CFD Toolbox           |
|  \\    /   O peration     | Version:  2.1.0                                 |
|   \\  /    A nd           | Web:      www.OpenFOAM.org                      |
|    \\/     M anipulation  |                                                 |
\*---------------------------------------------------------------------------*/
FoamFile
{
    version     2.0;
    format      ascii;
    class       volScalarField;
    location    "0.33";
    object      rho;
}
// * * * * * * * * * * * * * * * * * * * * * * * * * * * * * * * * * * * * * //

dimensions      [1 -3 0 0 0 0 0];

internalField   nonuniform List<scalar> 
6400
(
977.855
977.239
976.629
976.024
975.423
974.824
974.228
973.635
973.046
972.46
971.878
971.3
970.727
970.159
969.597
969.04
968.49
967.946
967.408
966.877
966.353
965.836
965.327
964.825
964.331
963.845
963.367
962.897
962.435
961.982
961.537
961.101
960.673
960.255
959.845
959.443
959.051
958.667
958.293
957.927
957.57
957.222
956.883
956.553
956.231
955.918
955.613
955.317
955.03
954.75
954.479
954.216
953.96
953.713
953.473
953.24
953.014
952.794
952.581
952.374
952.173
951.978
951.79
951.608
951.431
951.261
951.097
950.939
950.787
950.642
950.502
950.369
950.242
950.122
950.008
949.9
949.8
949.707
949.621
949.543
949.475
949.417
949.371
949.34
949.329
949.343
949.391
949.489
949.662
949.956
950.46
951.372
953.14
956.698
962.053
956.45
946.048
944.599
944.557
944.556
972.513
971.908
971.299
970.698
970.104
969.516
968.934
968.358
967.788
967.225
966.668
966.118
965.576
965.041
964.514
963.994
963.482
962.979
962.484
961.997
961.519
961.049
960.588
960.136
959.692
959.256
958.83
958.412
958.003
957.603
957.211
956.828
956.454
956.089
955.732
955.384
955.044
954.712
954.39
954.075
953.768
953.47
953.18
952.898
952.623
952.356
952.097
951.845
951.601
951.364
951.134
950.911
950.694
950.483
950.278
950.079
949.886
949.699
949.516
949.34
949.168
949.002
948.841
948.684
948.533
948.386
948.243
948.105
947.972
947.843
947.718
947.597
947.48
947.368
947.259
947.155
947.055
946.959
946.868
946.781
946.698
946.621
946.549
946.481
946.42
946.365
946.315
946.272
946.235
946.201
946.166
946.117
946.032
945.868
945.569
945.14
944.684
944.563
944.556
944.556
969.084
968.493
967.895
967.306
966.725
966.153
965.588
965.03
964.481
963.939
963.404
962.878
962.361
961.851
961.35
960.858
960.375
959.901
959.435
958.979
958.531
958.093
957.665
957.245
956.834
956.433
956.04
955.656
955.281
954.915
954.557
954.208
953.868
953.536
953.213
952.897
952.591
952.292
952.001
951.719
951.444
951.177
950.917
950.665
950.42
950.182
949.951
949.727
949.509
949.298
949.094
948.895
948.703
948.516
948.335
948.16
947.991
947.827
947.669
947.516
947.368
947.225
947.088
946.954
946.826
946.702
946.582
946.466
946.354
946.246
946.142
946.042
945.945
945.852
945.762
945.676
945.592
945.512
945.435
945.362
945.291
945.224
945.16
945.099
945.041
944.985
944.933
944.884
944.837
944.793
944.751
944.712
944.676
944.643
944.615
944.595
944.569
944.557
944.556
944.555
966.264
965.69
965.109
964.537
963.976
963.423
962.879
962.344
961.817
961.299
960.789
960.288
959.795
959.312
958.837
958.371
957.915
957.467
957.028
956.599
956.178
955.767
955.364
954.97
954.586
954.21
953.843
953.485
953.136
952.795
952.463
952.14
951.825
951.518
951.22
950.93
950.648
950.374
950.108
949.849
949.599
949.356
949.12
948.892
948.671
948.457
948.25
948.05
947.857
947.67
947.49
947.316
947.149
946.989
946.835
946.687
946.546
946.41
946.281
946.158
946.04
945.928
945.821
945.72
945.624
945.533
945.447
945.366
945.29
945.219
945.152
945.09
945.032
944.978
944.928
944.882
944.84
944.802
944.768
944.737
944.709
944.684
944.663
944.644
944.627
944.613
944.601
944.592
944.583
944.577
944.571
944.567
944.564
944.562
944.56
944.559
944.557
944.556
944.555
944.555
964.014
963.466
962.912
962.367
961.831
961.305
960.788
960.279
959.78
959.289
958.808
958.335
957.871
957.416
956.97
956.533
956.105
955.686
955.276
954.874
954.481
954.097
953.722
953.355
952.997
952.648
952.308
951.976
951.652
951.337
951.031
950.732
950.442
950.16
949.886
949.62
949.362
949.111
948.869
948.634
948.407
948.187
947.975
947.771
947.573
947.384
947.201
947.026
946.858
946.697
946.543
946.397
946.257
946.124
945.999
945.88
945.767
945.661
945.562
945.468
945.381
945.3
945.224
945.154
945.089
945.03
944.975
944.925
944.88
944.839
944.802
944.769
944.739
944.713
944.69
944.669
944.651
944.636
944.622
944.611
944.601
944.592
944.585
944.579
944.574
944.57
944.567
944.564
944.562
944.56
944.559
944.558
944.557
944.557
944.556
944.556
944.556
944.556
944.556
944.555
962.549
962.044
961.533
961.03
960.536
960.05
959.574
959.106
958.648
958.199
957.758
957.327
956.904
956.491
956.086
955.69
955.303
954.925
954.555
954.194
953.841
953.497
953.161
952.834
952.514
952.203
951.9
951.605
951.318
951.038
950.766
950.502
950.244
949.995
949.752
949.516
949.288
949.066
948.851
948.643
948.441
948.246
948.058
947.876
947.7
947.53
947.366
947.209
947.057
946.911
946.771
946.636
946.507
946.384
946.266
946.153
946.045
945.942
945.845
945.752
945.664
945.58
945.501
945.426
945.356
945.29
945.227
945.169
945.114
945.063
945.015
944.971
944.93
944.891
944.856
944.823
944.793
944.765
944.74
944.716
944.695
944.676
944.658
944.642
944.628
944.615
944.604
944.594
944.585
944.577
944.571
944.566
944.563
944.561
944.559
944.558
944.558
944.558
944.557
944.558
962.399
961.958
961.515
961.079
960.651
960.232
959.822
959.42
959.028
958.645
958.271
957.905
957.549
957.2
956.86
956.528
956.205
955.889
955.58
955.279
954.986
954.7
954.421
954.15
953.885
953.628
953.377
953.132
952.894
952.661
952.435
952.214
951.999
951.789
951.584
951.384
951.189
950.998
950.811
950.628
950.45
950.274
950.103
949.934
949.769
949.606
949.446
949.289
949.134
948.981
948.83
948.682
948.535
948.391
948.248
948.107
947.968
947.83
947.694
947.56
947.428
947.298
947.17
947.044
946.92
946.798
946.679
946.562
946.448
946.336
946.228
946.122
946.019
945.919
945.822
945.728
945.638
945.55
945.466
945.384
945.306
945.231
945.159
945.091
945.025
944.962
944.903
944.847
944.795
944.747
944.705
944.668
944.637
944.614
944.599
944.59
944.584
944.579
944.577
944.577
964.187
963.833
963.48
963.133
962.795
962.464
962.143
961.83
961.526
961.231
960.944
960.664
960.393
960.13
959.874
959.625
959.384
959.149
958.92
958.698
958.481
958.271
958.066
957.867
957.672
957.483
957.298
957.117
956.941
956.768
956.599
956.433
956.269
956.108
955.95
955.794
955.639
955.486
955.334
955.183
955.033
954.883
954.734
954.584
954.435
954.285
954.134
953.983
953.83
953.677
953.522
953.366
953.208
953.048
952.887
952.724
952.559
952.391
952.222
952.051
951.877
951.701
951.523
951.343
951.161
950.977
950.791
950.603
950.413
950.222
950.029
949.834
949.639
949.442
949.243
949.044
948.843
948.642
948.439
948.234
948.028
947.82
947.609
947.396
947.18
946.962
946.741
946.518
946.295
946.073
945.856
945.647
945.453
945.279
945.133
945.027
944.942
944.876
944.83
944.808
968.326
968.074
967.826
967.584
967.35
967.123
966.905
966.693
966.49
966.293
966.104
965.921
965.745
965.575
965.412
965.254
965.103
964.956
964.815
964.679
964.547
964.419
964.294
964.173
964.054
963.937
963.824
963.711
963.601
963.491
963.383
963.276
963.17
963.064
962.958
962.852
962.746
962.64
962.534
962.426
962.319
962.21
962.1
961.989
961.877
961.763
961.648
961.531
961.413
961.292
961.17
961.045
960.919
960.789
960.658
960.524
960.387
960.247
960.104
959.959
959.809
959.657
959.5
959.34
959.176
959.007
958.833
958.655
958.472
958.284
958.09
957.89
957.684
957.471
957.251
957.024
956.788
956.542
956.287
956.02
955.741
955.447
955.137
954.809
954.459
954.086
953.686
953.256
952.794
952.299
951.771
951.211
950.624
950.017
949.403
948.804
948.298
947.841
947.464
947.216
974.735
974.588
974.445
974.306
974.173
974.045
973.922
973.804
973.69
973.581
973.475
973.374
973.276
973.182
973.091
973.003
972.917
972.835
972.754
972.676
972.6
972.526
972.453
972.382
972.313
972.245
972.178
972.112
972.047
971.983
971.92
971.857
971.795
971.734
971.674
971.614
971.554
971.495
971.436
971.378
971.32
971.262
971.205
971.148
971.091
971.034
970.977
970.921
970.864
970.808
970.751
970.695
970.639
970.582
970.526
970.469
970.412
970.355
970.298
970.241
970.184
970.128
970.071
970.014
969.956
969.897
969.837
969.776
969.713
969.649
969.583
969.514
969.443
969.369
969.291
969.21
969.124
969.034
968.937
968.835
968.725
968.607
968.48
968.344
968.197
968.037
967.859
967.652
967.413
967.136
966.812
966.437
966.001
965.495
964.905
964.213
963.404
962.58
961.817
961.254
981.699
981.634
981.57
981.509
981.451
981.395
981.34
981.289
981.238
981.19
981.142
981.097
981.053
981.01
980.969
980.929
980.891
980.854
980.817
980.783
980.75
980.718
980.688
980.659
980.632
980.606
980.582
980.559
980.538
980.519
980.502
980.486
980.472
980.46
980.45
980.441
980.435
980.43
980.427
980.427
980.428
980.431
980.435
980.442
980.451
980.462
980.475
980.49
980.507
980.527
980.548
980.572
980.599
980.628
980.659
980.694
980.731
980.771
980.814
980.86
980.91
980.963
981.02
981.08
981.146
981.217
981.294
981.377
981.466
981.563
981.667
981.78
981.901
982.031
982.172
982.323
982.486
982.66
982.848
983.049
983.263
983.493
983.736
983.994
984.267
984.555
984.863
985.198
985.564
985.966
986.405
986.879
987.394
987.952
988.559
989.215
989.919
990.658
991.397
992.069
987.248
987.24
987.234
987.232
987.231
987.234
987.238
987.244
987.251
987.261
987.271
987.282
987.295
987.309
987.324
987.34
987.357
987.376
987.395
987.416
987.437
987.46
987.483
987.508
987.534
987.561
987.589
987.619
987.65
987.682
987.716
987.752
987.789
987.828
987.868
987.911
987.955
988.002
988.05
988.1
988.153
988.208
988.266
988.326
988.388
988.454
988.522
988.593
988.667
988.744
988.824
988.908
988.995
989.085
989.179
989.277
989.379
989.484
989.594
989.709
989.828
989.953
990.083
990.218
990.36
990.508
990.663
990.825
990.995
991.173
991.359
991.553
991.757
991.97
992.192
992.424
992.667
992.919
993.18
993.452
993.732
994.022
994.319
994.623
994.933
995.247
995.563
995.88
996.195
996.506
996.814
997.124
997.433
997.736
998.03
998.31
998.572
998.808
999.008
999.159
991.317
991.337
991.361
991.39
991.421
991.455
991.491
991.529
991.568
991.61
991.653
991.698
991.744
991.792
991.84
991.89
991.942
991.994
992.048
992.103
992.16
992.217
992.276
992.336
992.397
992.459
992.522
992.587
992.653
992.72
992.789
992.859
992.93
993.003
993.077
993.152
993.229
993.308
993.389
993.471
993.554
993.64
993.727
993.816
993.907
993.999
994.094
994.191
994.289
994.39
994.492
994.597
994.704
994.813
994.924
995.037
995.153
995.271
995.392
995.514
995.64
995.767
995.897
996.029
996.164
996.3
996.439
996.58
996.723
996.868
997.014
997.162
997.312
997.462
997.612
997.763
997.914
998.064
998.213
998.36
998.504
998.645
998.782
998.913
999.039
999.159
999.271
999.375
999.47
999.556
999.632
999.697
999.752
999.801
999.844
999.879
999.908
999.931
999.948
999.96
994.221
994.25
994.284
994.323
994.365
994.41
994.457
994.507
994.557
994.61
994.663
994.719
994.775
994.833
994.892
994.952
995.014
995.077
995.14
995.205
995.271
995.338
995.406
995.475
995.546
995.617
995.689
995.762
995.836
995.911
995.986
996.063
996.14
996.219
996.298
996.377
996.458
996.539
996.621
996.704
996.787
996.87
996.954
997.038
997.123
997.208
997.293
997.378
997.464
997.549
997.635
997.72
997.805
997.89
997.974
998.059
998.142
998.226
998.308
998.39
998.472
998.552
998.631
998.709
998.786
998.861
998.935
999.007
999.077
999.146
999.212
999.277
999.339
999.399
999.456
999.511
999.564
999.613
999.66
999.704
999.744
999.782
999.816
999.847
999.874
999.899
999.92
999.938
999.953
999.965
999.974
999.982
999.987
999.99
999.993
999.995
999.997
999.998
999.999
999.999
996.145
996.175
996.211
996.251
996.294
996.339
996.386
996.435
996.485
996.536
996.589
996.643
996.698
996.754
996.811
996.869
996.927
996.987
997.047
997.108
997.169
997.231
997.294
997.357
997.421
997.485
997.549
997.614
997.679
997.744
997.809
997.875
997.94
998.006
998.071
998.136
998.201
998.266
998.33
998.394
998.457
998.52
998.582
998.643
998.703
998.763
998.822
998.88
998.936
998.992
999.046
999.099
999.151
999.201
999.25
999.298
999.344
999.388
999.431
999.472
999.512
999.55
999.586
999.621
999.653
999.684
999.714
999.742
999.768
999.792
999.815
999.836
999.856
999.874
999.89
999.906
999.919
999.932
999.943
999.953
999.961
999.969
999.976
999.981
999.986
999.989
999.992
999.995
999.996
999.998
999.999
999.999
999.999
1000
1000
1000
1000
1000
1000
1000
997.392
997.419
997.451
997.487
997.525
997.565
997.606
997.649
997.693
997.738
997.784
997.83
997.878
997.925
997.974
998.023
998.072
998.122
998.172
998.223
998.273
998.324
998.375
998.426
998.477
998.528
998.578
998.629
998.679
998.729
998.778
998.827
998.875
998.923
998.97
999.017
999.063
999.108
999.152
999.195
999.238
999.279
999.32
999.359
999.397
999.434
999.47
999.505
999.538
999.57
999.601
999.63
999.659
999.686
999.711
999.735
999.758
999.78
999.8
999.819
999.837
999.853
999.869
999.883
999.896
999.908
999.919
999.929
999.939
999.947
999.954
999.961
999.967
999.972
999.977
999.981
999.984
999.987
999.99
999.992
999.994
999.995
999.997
999.998
999.998
999.999
999.999
1000
1000
1000
1000
1000
1000
1000
1000
1000
1000
1000
1000
1000
998.224
998.246
998.273
998.302
998.333
998.365
998.399
998.433
998.468
998.504
998.54
998.577
998.614
998.651
998.689
998.727
998.765
998.804
998.842
998.881
998.919
998.958
998.996
999.034
999.072
999.109
999.146
999.183
999.219
999.255
999.29
999.325
999.359
999.392
999.425
999.456
999.487
999.517
999.546
999.575
999.602
999.628
999.653
999.678
999.701
999.723
999.745
999.765
999.784
999.802
999.819
999.836
999.851
999.865
999.878
999.89
999.902
999.912
999.922
999.931
999.939
999.947
999.953
999.959
999.965
999.97
999.974
999.978
999.981
999.984
999.987
999.989
999.991
999.993
999.994
999.995
999.996
999.997
999.998
999.998
999.999
999.999
999.999
1000
1000
1000
1000
1000
1000
1000
1000
1000
1000
1000
1000
1000
1000
1000
1000
1000
998.805
998.822
998.842
998.864
998.888
998.912
998.936
998.962
998.988
999.014
999.04
999.067
999.095
999.122
999.15
999.178
999.205
999.233
999.261
999.289
999.316
999.344
999.371
999.398
999.425
999.451
999.477
999.503
999.528
999.552
999.577
999.6
999.623
999.645
999.667
999.688
999.708
999.727
999.746
999.764
999.781
999.798
999.813
999.828
999.842
999.855
999.868
999.88
999.891
999.901
999.911
999.92
999.928
999.936
999.943
999.95
999.955
999.961
999.966
999.97
999.974
999.978
999.981
999.984
999.986
999.988
999.99
999.992
999.993
999.995
999.996
999.996
999.997
999.998
999.998
999.999
999.999
999.999
999.999
1000
1000
1000
1000
1000
1000
1000
1000
1000
1000
1000
1000
1000
1000
1000
1000
1000
1000
1000
1000
1000
999.223
999.235
999.249
999.265
999.281
999.297
999.314
999.332
999.349
999.367
999.386
999.404
999.423
999.442
999.461
999.48
999.499
999.518
999.537
999.556
999.575
999.594
999.612
999.63
999.648
999.666
999.683
999.7
999.716
999.733
999.748
999.764
999.778
999.792
999.806
999.819
999.832
999.844
999.856
999.867
999.877
999.887
999.897
999.905
999.914
999.922
999.929
999.936
999.942
999.948
999.954
999.959
999.963
999.968
999.971
999.975
999.978
999.981
999.984
999.986
999.988
999.99
999.991
999.993
999.994
999.995
999.996
999.997
999.997
999.998
999.998
999.999
999.999
999.999
999.999
1000
1000
1000
1000
1000
1000
1000
1000
1000
1000
1000
1000
1000
1000
1000
1000
1000
1000
1000
1000
1000
1000
1000
1000
1000
999.588
999.595
999.602
999.61
999.618
999.627
999.636
999.645
999.655
999.665
999.675
999.685
999.695
999.706
999.716
999.727
999.737
999.748
999.758
999.769
999.779
999.789
999.8
999.809
999.819
999.829
999.838
999.848
999.856
999.865
999.874
999.882
999.89
999.897
999.904
999.911
999.918
999.924
999.93
999.936
999.941
999.946
999.951
999.955
999.96
999.963
999.967
999.97
999.974
999.976
999.979
999.981
999.984
999.986
999.987
999.989
999.99
999.992
999.993
999.994
999.995
999.996
999.996
999.997
999.997
999.998
999.998
999.999
999.999
999.999
999.999
999.999
1000
1000
1000
1000
1000
1000
1000
1000
1000
1000
1000
1000
1000
1000
1000
1000
1000
1000
1000
1000
1000
1000
1000
1000
1000
1000
1000
1000
944.556
944.555
944.555
944.555
944.555
944.555
944.555
944.555
944.555
944.556
944.556
944.557
944.559
944.562
944.566
944.574
944.587
944.613
944.664
944.787
944.555
944.555
944.555
944.555
944.555
944.555
944.555
944.555
944.556
944.557
944.558
944.56
944.562
944.567
944.575
944.588
944.612
944.657
944.756
945.025
944.555
944.555
944.555
944.555
944.555
944.555
944.556
944.556
944.557
944.559
944.561
944.564
944.57
944.579
944.593
944.619
944.665
944.759
944.979
945.665
944.555
944.555
944.555
944.555
944.556
944.556
944.557
944.559
944.561
944.564
944.569
944.576
944.588
944.606
944.637
944.692
944.796
945.019
945.582
947.518
944.556
944.556
944.556
944.557
944.558
944.56
944.563
944.566
944.572
944.579
944.591
944.608
944.635
944.677
944.75
944.88
945.135
945.698
947.195
952.651
944.559
944.56
944.562
944.565
944.569
944.575
944.583
944.594
944.609
944.63
944.66
944.703
944.769
944.874
945.049
945.364
945.977
947.321
950.929
964.186
944.583
944.59
944.6
944.613
944.631
944.653
944.681
944.715
944.758
944.813
944.889
944.997
945.156
945.403
945.807
946.511
947.834
950.619
957.699
980.884
944.836
944.879
944.93
944.991
945.06
945.136
945.218
945.303
945.403
945.53
945.701
945.939
946.282
946.801
947.628
949.021
951.53
956.5
967.598
993.551
947.243
947.411
947.587
947.774
947.956
948.099
948.228
948.347
948.509
948.716
948.998
949.378
949.932
950.766
952.161
954.53
958.736
966.328
979.684
998.06
961.198
961.49
961.793
962.092
962.361
962.533
962.696
962.901
963.132
963.377
963.678
964.031
964.554
965.292
966.693
969.277
973.978
981.391
991.348
998.06
992.414
992.358
992.332
992.331
992.392
992.602
992.867
993.147
993.445
993.789
994.167
994.624
995.138
995.778
996.343
996.817
997.111
997.604
998.838
999.463
999.209
999.178
999.152
999.13
999.119
999.137
999.174
999.233
999.294
999.36
999.426
999.502
999.576
999.659
999.725
999.774
999.801
999.838
999.932
999.865
999.961
999.957
999.953
999.948
999.943
999.94
999.939
999.941
999.946
999.953
999.959
999.966
999.972
999.978
999.983
999.986
999.989
999.992
999.996
999.974
999.999
999.999
999.999
999.998
999.998
999.998
999.997
999.997
999.997
999.997
999.998
999.998
999.999
999.999
999.999
999.999
999.999
1000
1000
999.998
1000
1000
1000
1000
1000
1000
1000
1000
1000
1000
1000
1000
1000
1000
1000
1000
1000
1000
1000
1000
1000
1000
1000
1000
1000
1000
1000
1000
1000
1000
1000
1000
1000
1000
1000
1000
1000
1000
1000
1000
1000
1000
1000
1000
1000
1000
1000
1000
1000
1000
1000
1000
1000
1000
1000
1000
1000
1000
1000
1000
1000
1000
1000
1000
1000
1000
1000
1000
1000
1000
1000
1000
1000
1000
1000
1000
1000
1000
1000
1000
1000
1000
1000
1000
1000
1000
1000
1000
1000
1000
1000
1000
1000
1000
1000
1000
1000
1000
1000
1000
1000
1000
1000
1000
1000
1000
1000
1000
1000
1000
1000
1000
1000
1000
1000
1000
1000
1000
1000
1000
944.555
944.555
944.555
944.555
944.555
944.555
944.555
944.555
944.555
944.555
944.555
944.555
944.555
944.555
944.555
944.555
944.555
944.555
944.555
944.555
944.555
944.555
944.555
944.555
944.555
944.555
944.555
944.555
944.555
944.555
944.555
944.555
944.555
944.555
944.555
944.555
944.555
944.555
944.555
944.555
944.555
944.555
944.555
944.555
944.555
944.555
944.555
944.555
944.555
944.555
944.555
944.555
944.555
944.555
944.555
944.555
944.555
944.555
944.555
944.555
944.555
944.555
944.555
944.555
944.555
944.555
944.555
944.555
944.555
944.555
944.555
944.555
944.555
944.555
944.555
944.555
944.555
944.555
944.555
944.555
944.555
944.555
944.555
944.555
944.555
944.555
944.555
944.555
944.555
944.555
944.555
944.555
944.555
944.555
944.555
944.555
944.555
944.555
944.555
944.555
944.555
944.555
944.555
944.555
944.555
944.555
944.555
944.555
944.555
944.555
944.555
944.555
944.555
944.555
944.555
944.555
944.555
944.555
944.555
944.555
944.555
944.555
944.555
944.555
944.555
944.555
944.555
944.555
944.555
944.555
944.555
944.555
944.555
944.555
944.555
944.555
944.555
944.555
944.555
944.555
944.555
944.555
944.555
944.555
944.555
944.555
944.555
944.555
944.555
944.555
944.555
944.555
944.555
944.555
944.555
944.555
944.555
944.555
944.555
944.555
944.555
944.555
944.555
944.555
944.555
944.555
944.555
944.555
944.555
944.555
944.555
944.555
944.555
944.555
944.555
944.555
944.555
944.555
944.555
944.555
944.555
944.555
944.555
944.555
944.555
944.555
944.555
944.555
944.555
944.555
944.555
944.555
944.555
944.555
944.555
944.555
944.555
944.555
944.555
944.555
944.555
944.555
944.555
944.555
944.555
944.555
944.555
944.555
944.555
944.555
944.555
944.555
944.555
944.555
944.555
944.555
944.555
944.555
944.555
944.555
944.555
944.555
944.555
944.555
944.555
944.555
944.555
944.555
944.555
944.555
944.555
944.555
944.555
944.555
944.555
944.555
944.555
944.555
944.555
944.555
944.555
944.555
944.555
944.555
944.555
944.555
944.555
944.555
944.555
944.555
944.555
944.555
944.555
944.555
944.555
944.555
944.555
944.555
944.555
944.555
944.555
944.555
944.555
944.555
944.555
944.555
944.555
944.555
944.555
944.555
944.555
944.555
944.555
944.555
944.555
944.555
944.555
944.555
944.555
944.555
944.555
944.555
944.555
944.555
944.555
944.555
944.555
944.555
944.555
944.555
944.555
944.555
944.555
944.555
944.555
944.555
944.555
944.555
944.555
944.555
944.555
944.555
944.555
944.555
944.555
944.555
944.555
944.555
944.555
944.555
944.555
944.555
944.555
944.555
944.555
944.555
944.555
944.555
944.555
944.555
944.555
944.555
944.555
944.555
944.555
944.555
944.555
944.555
944.555
944.555
944.555
944.555
944.555
944.555
944.555
944.555
944.555
944.555
944.555
944.555
944.555
944.555
944.555
944.555
944.555
944.555
944.555
944.555
944.555
944.555
944.555
944.555
944.555
944.555
944.555
944.555
944.555
944.555
944.555
944.555
944.555
944.555
944.555
944.555
944.555
944.555
944.555
944.555
944.555
944.555
944.555
944.555
944.555
944.555
944.555
944.555
944.555
944.555
944.555
944.555
944.555
944.555
944.555
944.555
944.555
944.555
944.555
944.555
944.555
944.555
944.555
944.555
944.555
944.555
944.555
944.555
944.555
944.555
944.555
944.555
944.555
944.555
944.555
944.555
944.555
944.555
944.555
944.555
944.555
944.555
944.555
944.555
944.555
944.555
944.555
944.555
944.555
944.555
944.555
944.555
944.555
944.555
944.555
944.555
944.555
944.555
944.555
944.555
944.555
944.555
944.555
944.555
944.555
944.555
944.555
944.555
944.555
944.555
944.555
944.555
944.555
944.555
944.555
944.555
944.555
944.555
944.555
944.555
944.555
944.555
944.555
944.555
944.555
944.555
944.555
944.555
944.555
944.555
944.555
944.555
944.555
944.555
944.555
944.555
944.555
944.555
944.555
944.555
944.555
944.555
944.555
944.555
944.555
944.555
944.555
944.555
944.555
944.555
944.555
944.555
944.555
944.555
944.555
944.555
944.555
944.555
944.555
944.555
944.555
944.555
944.555
944.555
944.555
944.555
944.555
944.555
944.555
944.555
944.555
944.555
944.555
944.555
944.555
944.555
944.555
944.555
944.555
944.555
944.555
944.555
944.555
944.555
944.555
944.555
944.555
944.555
944.555
944.555
944.555
944.555
944.555
944.555
944.555
944.555
944.555
944.555
944.555
944.555
944.555
944.555
944.555
944.555
944.555
944.555
944.555
944.555
944.555
944.555
944.555
944.555
944.555
944.555
944.555
944.555
944.555
944.555
944.555
944.555
944.555
944.555
944.555
944.555
944.555
944.555
944.555
944.555
944.555
944.555
944.555
944.555
944.555
944.555
944.555
944.555
944.555
944.555
944.555
944.555
944.555
944.555
944.555
944.555
944.555
944.555
944.555
944.555
944.555
944.555
944.555
944.555
944.555
944.555
944.555
944.555
944.555
944.555
944.555
944.555
944.555
944.555
944.555
944.555
944.555
944.555
944.555
944.555
944.555
944.555
944.555
944.555
944.555
944.555
944.555
944.555
944.555
944.555
944.555
944.555
944.555
944.555
944.555
944.555
944.555
944.555
944.555
944.555
944.555
944.555
944.555
944.555
944.555
944.555
944.555
944.555
944.555
944.555
944.555
944.555
944.555
944.555
944.555
944.555
944.555
944.555
944.555
944.555
944.555
944.555
944.555
944.555
944.555
944.555
944.555
944.555
944.555
944.555
944.555
944.555
944.555
944.555
944.555
944.555
944.555
944.555
944.555
944.555
944.555
944.555
944.555
944.555
944.555
944.555
944.555
944.555
944.555
944.555
944.555
944.555
944.555
944.555
944.555
944.555
944.555
944.555
944.555
944.555
944.555
944.555
944.555
944.555
944.555
944.555
944.555
944.555
944.555
944.555
944.555
944.555
944.555
944.555
944.555
944.555
944.555
944.555
944.555
944.555
944.555
944.555
944.555
944.555
944.555
944.555
944.555
944.555
944.555
944.555
944.555
944.555
944.555
944.555
944.555
944.555
944.555
944.555
944.555
944.555
944.555
944.555
944.555
944.555
944.555
944.555
944.555
944.555
944.555
944.555
944.555
944.555
944.555
944.555
944.555
944.555
944.555
944.555
944.555
944.555
944.555
944.555
944.555
944.555
944.555
944.555
944.555
944.555
944.555
944.555
944.555
944.555
944.555
944.555
944.555
944.555
944.555
944.555
944.555
944.555
944.555
944.555
944.555
944.555
944.555
944.555
944.555
944.555
944.555
944.555
944.555
944.555
944.555
944.555
944.555
944.555
944.555
944.555
944.555
944.555
944.555
944.555
944.555
944.555
944.555
944.555
944.555
944.555
944.555
944.555
944.555
944.555
944.555
944.555
944.555
944.555
944.555
944.555
944.555
944.555
944.555
944.555
944.555
944.555
944.555
944.555
944.555
944.555
944.555
944.555
944.555
944.555
944.555
944.555
944.555
944.555
944.555
944.555
944.555
944.555
944.555
944.555
944.555
944.555
944.555
944.555
944.555
944.555
944.555
944.555
944.555
944.555
944.555
944.555
944.555
944.555
944.555
944.555
944.555
944.555
944.555
944.555
944.555
944.555
944.555
944.555
944.555
944.555
944.555
944.555
944.555
944.555
944.555
944.555
944.555
944.555
944.555
944.555
944.555
944.555
944.555
944.555
944.555
944.555
944.555
944.555
944.555
944.555
944.555
944.555
944.555
944.555
944.555
944.555
944.555
944.555
944.555
944.555
944.555
944.555
944.555
944.555
944.555
944.555
944.555
944.555
944.555
944.555
944.555
944.555
944.555
944.555
944.555
944.555
944.555
944.555
944.555
944.555
944.555
944.555
944.555
944.555
944.555
944.555
944.555
944.555
944.555
944.555
944.555
944.555
944.555
944.555
944.555
944.555
944.555
944.555
944.555
944.555
944.555
944.555
944.555
944.555
944.555
944.555
944.555
944.555
944.555
944.555
944.555
944.555
944.555
944.555
944.555
944.555
944.555
944.555
944.555
944.555
944.555
944.555
944.555
944.555
944.555
944.555
944.555
944.555
944.555
944.555
944.555
944.555
944.555
944.555
944.555
944.555
944.555
944.555
944.555
944.555
944.555
944.555
944.555
944.555
944.555
944.555
944.555
944.555
944.555
944.555
944.555
944.555
944.555
944.555
944.555
944.555
944.555
944.555
944.555
944.555
944.555
944.555
944.555
944.555
944.555
944.555
944.555
944.555
944.555
944.555
944.555
944.555
944.555
944.555
944.555
944.555
944.555
944.555
944.555
944.555
944.555
944.555
944.555
944.555
944.555
944.555
944.555
944.555
944.555
944.555
944.555
944.555
944.555
944.555
944.555
944.555
944.555
944.555
944.555
944.555
944.555
944.555
944.555
944.555
944.555
944.555
944.555
944.555
944.555
944.555
944.555
944.555
944.555
944.555
944.555
944.555
944.555
944.555
944.555
944.555
944.555
944.555
944.555
944.555
944.555
944.555
944.555
944.555
944.555
944.555
944.555
944.555
944.555
944.555
944.555
944.555
944.555
944.555
944.555
944.555
944.555
944.555
944.555
944.555
944.555
944.555
944.555
944.555
944.555
944.555
944.555
944.555
944.555
944.555
944.555
944.555
944.555
944.555
944.555
944.555
944.555
944.555
944.555
944.555
944.555
944.555
944.555
944.555
944.555
944.555
944.555
944.555
944.555
944.555
944.555
944.555
944.555
944.555
944.555
944.555
944.555
944.555
944.555
944.555
944.555
944.555
944.555
944.555
944.555
944.555
944.555
944.555
944.555
944.555
944.555
944.555
944.555
944.555
944.555
944.555
944.555
944.555
944.555
944.555
944.555
944.555
944.555
944.555
944.555
944.555
944.555
944.555
944.555
944.555
944.555
944.555
944.555
944.555
944.555
944.555
944.555
944.555
944.555
944.555
944.555
944.555
944.555
944.555
944.555
944.555
944.555
944.555
944.555
944.555
944.555
944.555
944.555
944.555
944.555
944.555
944.555
944.555
944.555
944.555
944.555
944.555
944.555
944.555
944.555
944.555
944.555
944.555
944.555
944.555
944.555
944.555
944.555
944.555
944.555
944.555
944.555
944.555
944.555
944.555
944.555
944.555
944.555
944.555
944.555
944.555
944.555
944.555
944.555
944.555
944.555
944.555
944.555
944.555
944.555
944.555
944.555
944.555
944.555
944.555
944.555
944.555
944.555
944.555
944.555
944.555
944.555
944.555
944.555
944.555
944.555
944.555
944.555
944.555
944.555
944.555
944.555
944.555
944.555
944.555
944.555
944.555
944.555
944.555
944.555
944.555
944.555
944.555
944.555
944.555
944.555
944.555
944.555
944.555
944.555
944.555
944.555
944.555
944.555
944.555
944.555
944.555
944.555
944.555
944.555
944.555
944.555
944.555
944.555
944.555
944.555
944.555
944.555
944.555
944.555
944.555
944.555
944.555
944.555
944.555
944.555
944.555
944.555
944.555
944.555
944.555
944.555
944.555
944.555
944.555
944.555
944.555
944.555
944.555
944.555
944.555
944.555
944.555
944.555
944.555
944.555
944.555
944.555
944.555
944.555
944.555
944.555
944.555
944.555
944.555
944.555
944.555
944.555
944.555
944.555
944.555
944.555
944.555
944.555
944.555
944.555
944.555
944.555
944.555
944.555
944.555
944.555
944.555
944.555
944.555
944.555
944.555
944.555
944.555
944.555
944.555
944.555
944.555
944.555
944.555
944.555
944.555
944.555
944.555
944.555
944.555
944.555
944.555
944.555
944.555
944.555
944.555
944.555
944.555
944.555
944.555
944.555
944.555
944.555
944.555
944.555
944.555
944.555
944.555
944.555
944.555
944.555
944.555
944.555
944.555
944.555
944.555
944.555
944.555
944.555
944.555
944.555
944.555
944.555
944.555
944.555
944.555