/*--------------------------------*- C++ -*----------------------------------*\
| =========                 |                                                 |
| \\      /  F ield         | OpenFOAM: The Open Source CFD Toolbox           |
|  \\    /   O peration     | Version:  2.1.0                                 |
|   \\  /    A nd           | Web:      www.OpenFOAM.org                      |
|    \\/     M anipulation  |                                                 |
\*---------------------------------------------------------------------------*/
FoamFile
{
    version     2.0;
    format      ascii;
    class       volScalarField;
    location    "0.33";
    object      T;
}
// * * * * * * * * * * * * * * * * * * * * * * * * * * * * * * * * * * * * * //

dimensions      [0 0 0 1 0 0 0];

internalField   nonuniform List<scalar> 
6400
(
331.727
332.826
333.914
334.996
336.071
337.144
338.213
339.278
340.338
341.393
342.442
343.484
344.519
345.546
346.565
347.574
348.573
349.562
350.541
351.508
352.463
353.406
354.337
355.255
356.159
357.05
357.927
358.79
359.639
360.473
361.292
362.096
362.885
363.659
364.417
365.159
365.885
366.596
367.291
367.969
368.632
369.279
369.91
370.525
371.124
371.708
372.276
372.828
373.365
373.887
374.394
374.887
375.365
375.828
376.278
376.714
377.139
377.551
377.952
378.34
378.717
379.083
379.437
379.78
380.112
380.432
380.741
381.039
381.325
381.6
381.863
382.114
382.353
382.581
382.796
382.999
383.188
383.365
383.527
383.673
383.802
383.912
383.999
384.057
384.079
384.053
383.961
383.776
383.449
382.895
381.942
380.224
376.904
370.255
360.344
370.718
390.302
393.066
393.145
393.148
341.297
342.388
343.487
344.572
345.647
346.712
347.768
348.814
349.849
350.874
351.888
352.891
353.882
354.86
355.825
356.777
357.715
358.639
359.549
360.445
361.326
362.192
363.043
363.879
364.7
365.505
366.295
367.07
367.829
368.572
369.3
370.012
370.708
371.389
372.055
372.704
373.339
373.958
374.562
375.151
375.724
376.283
376.827
377.357
377.872
378.373
378.861
379.334
379.793
380.24
380.672
381.093
381.501
381.899
382.285
382.661
383.025
383.38
383.724
384.058
384.382
384.697
385.002
385.298
385.585
385.863
386.133
386.394
386.648
386.893
387.13
387.359
387.58
387.794
388
388.198
388.388
388.57
388.743
388.909
389.065
389.213
389.35
389.478
389.595
389.7
389.794
389.876
389.947
390.011
390.079
390.172
390.333
390.645
391.216
392.033
392.903
393.133
393.147
393.148
347.495
348.567
349.655
350.726
351.784
352.828
353.86
354.879
355.885
356.879
357.858
358.824
359.776
360.714
361.636
362.544
363.436
364.313
365.174
366.02
366.849
367.661
368.457
369.237
370.001
370.748
371.48
372.196
372.896
373.58
374.249
374.901
375.538
376.16
376.766
377.357
377.933
378.494
379.04
379.571
380.089
380.592
381.081
381.556
382.018
382.467
382.903
383.326
383.737
384.136
384.523
384.898
385.263
385.616
385.959
386.29
386.611
386.922
387.222
387.512
387.793
388.064
388.326
388.579
388.823
389.059
389.287
389.507
389.72
389.925
390.123
390.314
390.498
390.676
390.847
391.012
391.171
391.323
391.469
391.61
391.744
391.873
391.995
392.112
392.222
392.328
392.427
392.522
392.611
392.695
392.775
392.849
392.919
392.982
393.035
393.074
393.123
393.145
393.148
393.149
352.626
353.673
354.736
355.781
356.81
357.824
358.823
359.807
360.777
361.732
362.672
363.598
364.508
365.403
366.282
367.145
367.993
368.824
369.64
370.439
371.223
371.99
372.741
373.476
374.195
374.898
375.585
376.256
376.911
377.55
378.173
378.78
379.373
379.949
380.511
381.057
381.589
382.105
382.607
383.095
383.568
384.028
384.473
384.905
385.323
385.728
386.12
386.499
386.866
387.22
387.562
387.892
388.209
388.514
388.806
389.087
389.356
389.613
389.859
390.094
390.318
390.532
390.734
390.927
391.11
391.283
391.447
391.601
391.746
391.882
392.01
392.129
392.24
392.342
392.437
392.525
392.604
392.677
392.743
392.802
392.855
392.902
392.943
392.98
393.011
393.038
393.061
393.08
393.095
393.108
393.118
393.126
393.132
393.136
393.139
393.142
393.145
393.148
393.149
393.149
356.741
357.745
358.763
359.765
360.751
361.72
362.674
363.613
364.537
365.444
366.337
367.213
368.074
368.919
369.749
370.562
371.359
372.141
372.907
373.656
374.39
375.109
375.812
376.499
377.17
377.825
378.465
379.089
379.697
380.29
380.867
381.43
381.977
382.509
383.026
383.529
384.016
384.49
384.949
385.393
385.823
386.239
386.641
387.029
387.404
387.764
388.11
388.443
388.762
389.068
389.36
389.639
389.905
390.157
390.397
390.623
390.837
391.039
391.229
391.407
391.573
391.729
391.873
392.006
392.13
392.243
392.347
392.442
392.529
392.607
392.677
392.741
392.797
392.847
392.892
392.931
392.965
392.995
393.021
393.043
393.062
393.078
393.091
393.103
393.112
393.12
393.127
393.132
393.136
393.14
393.142
393.144
393.145
393.146
393.147
393.147
393.148
393.148
393.148
393.148
359.43
360.36
361.301
362.228
363.141
364.037
364.918
365.783
366.633
367.466
368.284
369.085
369.871
370.641
371.395
372.133
372.855
373.562
374.253
374.929
375.589
376.234
376.863
377.478
378.077
378.661
379.231
379.786
380.327
380.853
381.366
381.865
382.35
382.821
383.28
383.725
384.157
384.576
384.982
385.376
385.758
386.128
386.485
386.83
387.164
387.486
387.797
388.096
388.384
388.661
388.928
389.183
389.429
389.664
389.888
390.103
390.308
390.504
390.69
390.867
391.035
391.194
391.345
391.487
391.621
391.748
391.867
391.978
392.082
392.18
392.271
392.356
392.434
392.507
392.575
392.637
392.695
392.748
392.797
392.841
392.882
392.919
392.952
392.982
393.01
393.034
393.056
393.076
393.093
393.107
393.119
393.128
393.134
393.139
393.141
393.143
393.144
393.144
393.145
393.144
359.706
360.518
361.334
362.138
362.928
363.702
364.46
365.203
365.929
366.639
367.333
368.011
368.674
369.322
369.954
370.571
371.175
371.764
372.339
372.901
373.449
373.983
374.504
375.012
375.507
375.99
376.46
376.919
377.366
377.802
378.227
378.641
379.046
379.441
379.826
380.203
380.57
380.93
381.282
381.626
381.963
382.294
382.618
382.936
383.249
383.556
383.858
384.156
384.448
384.737
385.022
385.303
385.58
385.854
386.125
386.392
386.656
386.917
387.175
387.429
387.68
387.927
388.17
388.41
388.645
388.876
389.103
389.325
389.542
389.754
389.961
390.163
390.358
390.549
390.733
390.912
391.084
391.251
391.412
391.568
391.716
391.859
391.996
392.127
392.252
392.372
392.485
392.592
392.691
392.782
392.864
392.934
392.992
393.036
393.065
393.082
393.095
393.103
393.108
393.108
356.424
357.074
357.722
358.359
358.98
359.587
360.178
360.754
361.314
361.859
362.389
362.904
363.404
363.891
364.364
364.824
365.271
365.707
366.13
366.542
366.943
367.334
367.714
368.084
368.445
368.797
369.14
369.476
369.804
370.126
370.441
370.751
371.055
371.355
371.65
371.941
372.23
372.515
372.799
373.081
373.361
373.641
373.92
374.199
374.479
374.76
375.042
375.325
375.61
375.898
376.188
376.481
376.777
377.076
377.379
377.685
377.995
378.309
378.627
378.949
379.276
379.606
379.941
380.28
380.622
380.969
381.32
381.674
382.032
382.393
382.757
383.124
383.494
383.867
384.241
384.618
384.998
385.38
385.764
386.151
386.542
386.937
387.337
387.741
388.151
388.565
388.985
389.408
389.833
390.255
390.668
391.066
391.436
391.768
392.047
392.248
392.41
392.537
392.625
392.665
348.874
349.331
349.783
350.223
350.648
351.061
351.459
351.845
352.216
352.575
352.92
353.254
353.575
353.886
354.184
354.472
354.749
355.018
355.275
355.525
355.766
356.001
356.229
356.452
356.669
356.883
357.092
357.298
357.501
357.702
357.9
358.097
358.292
358.487
358.681
358.875
359.07
359.265
359.461
359.658
359.856
360.057
360.259
360.463
360.67
360.879
361.091
361.306
361.525
361.747
361.972
362.202
362.436
362.674
362.917
363.164
363.417
363.675
363.939
364.209
364.484
364.767
365.056
365.353
365.657
365.97
366.291
366.621
366.961
367.31
367.67
368.041
368.424
368.819
369.228
369.651
370.09
370.546
371.022
371.519
372.04
372.588
373.167
373.781
374.434
375.132
375.881
376.686
377.552
378.482
379.475
380.529
381.635
382.779
383.939
385.071
386.03
386.897
387.612
388.082
337.307
337.569
337.827
338.075
338.314
338.543
338.764
338.977
339.181
339.378
339.567
339.75
339.926
340.095
340.259
340.418
340.571
340.72
340.865
341.005
341.142
341.276
341.407
341.534
341.66
341.783
341.903
342.022
342.139
342.255
342.369
342.481
342.593
342.703
342.812
342.921
343.028
343.135
343.241
343.346
343.451
343.555
343.659
343.762
343.865
343.968
344.07
344.172
344.274
344.376
344.478
344.58
344.682
344.784
344.887
344.989
345.092
345.195
345.298
345.401
345.504
345.607
345.709
345.813
345.918
346.024
346.133
346.244
346.357
346.474
346.594
346.718
346.847
346.981
347.122
347.269
347.425
347.589
347.764
347.95
348.15
348.364
348.594
348.842
349.109
349.398
349.724
350.099
350.533
351.039
351.628
352.313
353.109
354.033
355.111
356.378
357.863
359.376
360.78
361.816
324.908
325.023
325.136
325.243
325.347
325.446
325.542
325.634
325.723
325.809
325.893
325.973
326.051
326.126
326.2
326.27
326.338
326.404
326.468
326.529
326.588
326.643
326.697
326.748
326.797
326.842
326.885
326.925
326.962
326.996
327.027
327.055
327.08
327.101
327.119
327.134
327.146
327.154
327.159
327.16
327.159
327.153
327.145
327.132
327.117
327.097
327.074
327.048
327.017
326.983
326.945
326.902
326.855
326.804
326.748
326.687
326.622
326.551
326.474
326.392
326.305
326.211
326.11
326.002
325.886
325.76
325.624
325.478
325.319
325.149
324.965
324.766
324.552
324.321
324.073
323.806
323.519
323.211
322.88
322.526
322.147
321.744
321.315
320.86
320.38
319.875
319.334
318.745
318.103
317.397
316.629
315.799
314.9
313.925
312.866
311.723
310.499
309.215
307.933
306.77
315.155
315.169
315.179
315.183
315.183
315.179
315.172
315.161
315.149
315.133
315.115
315.094
315.072
315.047
315.022
314.993
314.963
314.931
314.897
314.861
314.824
314.785
314.744
314.7
314.655
314.608
314.558
314.506
314.452
314.395
314.336
314.274
314.21
314.142
314.071
313.997
313.919
313.838
313.754
313.666
313.574
313.478
313.377
313.273
313.163
313.05
312.931
312.807
312.678
312.544
312.404
312.258
312.107
311.949
311.786
311.615
311.438
311.254
311.063
310.864
310.657
310.44
310.214
309.978
309.732
309.475
309.206
308.924
308.63
308.322
307.999
307.662
307.309
306.941
306.556
306.154
305.735
305.3
304.848
304.379
303.895
303.396
302.883
302.36
301.827
301.286
300.742
300.197
299.656
299.124
298.596
298.064
297.534
297.015
296.513
296.033
295.586
295.184
294.842
294.584
308.071
308.037
307.995
307.946
307.892
307.833
307.771
307.705
307.636
307.563
307.489
307.411
307.332
307.249
307.165
307.078
306.989
306.898
306.805
306.71
306.612
306.513
306.411
306.308
306.202
306.094
305.985
305.873
305.759
305.643
305.524
305.403
305.28
305.155
305.027
304.896
304.763
304.627
304.488
304.346
304.202
304.054
303.904
303.751
303.594
303.434
303.271
303.105
302.935
302.762
302.585
302.405
302.221
302.033
301.842
301.647
301.448
301.244
301.037
300.826
300.611
300.392
300.168
299.941
299.711
299.476
299.238
298.996
298.751
298.503
298.251
297.998
297.742
297.485
297.227
296.969
296.711
296.454
296.2
295.949
295.702
295.462
295.228
295.003
294.788
294.584
294.393
294.215
294.053
293.906
293.777
293.667
293.572
293.488
293.416
293.356
293.306
293.267
293.238
293.218
303.053
303.003
302.943
302.876
302.803
302.726
302.645
302.56
302.473
302.383
302.29
302.195
302.098
301.998
301.896
301.793
301.687
301.579
301.469
301.358
301.244
301.129
301.012
300.893
300.772
300.65
300.526
300.401
300.274
300.145
300.015
299.884
299.751
299.616
299.481
299.344
299.206
299.066
298.926
298.784
298.642
298.499
298.355
298.21
298.065
297.92
297.774
297.628
297.482
297.335
297.189
297.043
296.898
296.753
296.608
296.464
296.321
296.178
296.037
295.896
295.758
295.621
295.485
295.352
295.221
295.093
294.967
294.844
294.724
294.607
294.493
294.383
294.277
294.175
294.077
293.983
293.894
293.809
293.73
293.655
293.586
293.522
293.464
293.411
293.364
293.323
293.287
293.256
293.231
293.21
293.194
293.181
293.173
293.167
293.162
293.158
293.155
293.154
293.152
293.152
299.742
299.691
299.629
299.561
299.488
299.41
299.329
299.245
299.159
299.071
298.98
298.888
298.794
298.698
298.6
298.501
298.401
298.299
298.196
298.092
297.986
297.88
297.772
297.664
297.555
297.446
297.335
297.225
297.113
297.002
296.89
296.778
296.666
296.554
296.443
296.331
296.22
296.11
296
295.891
295.783
295.676
295.57
295.465
295.362
295.26
295.159
295.061
294.964
294.869
294.777
294.686
294.598
294.512
294.428
294.347
294.269
294.193
294.12
294.049
293.982
293.917
293.856
293.797
293.741
293.688
293.638
293.59
293.546
293.504
293.466
293.43
293.396
293.365
293.337
293.311
293.287
293.266
293.247
293.23
293.216
293.203
293.192
293.182
293.175
293.168
293.163
293.159
293.156
293.154
293.153
293.152
293.151
293.151
293.15
293.15
293.15
293.15
293.15
293.15
297.605
297.559
297.504
297.443
297.377
297.309
297.237
297.164
297.089
297.012
296.934
296.854
296.773
296.692
296.609
296.525
296.44
296.355
296.269
296.183
296.096
296.01
295.923
295.835
295.748
295.662
295.575
295.489
295.404
295.319
295.235
295.151
295.068
294.987
294.906
294.827
294.748
294.671
294.596
294.522
294.45
294.379
294.31
294.243
294.178
294.115
294.053
293.994
293.937
293.883
293.83
293.78
293.732
293.686
293.642
293.601
293.562
293.525
293.491
293.458
293.428
293.4
293.373
293.349
293.327
293.306
293.287
293.27
293.255
293.24
293.228
293.216
293.206
293.197
293.189
293.182
293.177
293.171
293.167
293.163
293.16
293.158
293.156
293.154
293.153
293.152
293.151
293.151
293.15
293.15
293.15
293.15
293.15
293.15
293.15
293.15
293.15
293.15
293.15
293.15
296.181
296.143
296.097
296.047
295.994
295.939
295.882
295.824
295.764
295.703
295.641
295.578
295.515
295.451
295.386
295.321
295.256
295.19
295.124
295.059
294.993
294.928
294.862
294.797
294.733
294.669
294.606
294.543
294.481
294.42
294.36
294.301
294.243
294.186
294.131
294.077
294.024
293.973
293.923
293.875
293.829
293.784
293.741
293.699
293.659
293.621
293.585
293.551
293.518
293.487
293.458
293.43
293.404
293.38
293.358
293.337
293.317
293.299
293.283
293.268
293.254
293.241
293.23
293.219
293.21
293.202
293.194
293.187
293.182
293.177
293.172
293.168
293.165
293.162
293.16
293.158
293.156
293.155
293.154
293.153
293.152
293.151
293.151
293.151
293.15
293.15
293.15
293.15
293.15
293.15
293.15
293.15
293.15
293.15
293.15
293.15
293.15
293.15
293.15
293.15
295.189
295.159
295.124
295.087
295.047
295.006
294.964
294.921
294.877
294.832
294.786
294.74
294.694
294.647
294.6
294.552
294.505
294.457
294.41
294.362
294.315
294.269
294.222
294.176
294.131
294.086
294.041
293.998
293.955
293.913
293.872
293.831
293.792
293.754
293.717
293.682
293.648
293.614
293.583
293.552
293.523
293.495
293.468
293.443
293.419
293.396
293.375
293.355
293.336
293.318
293.302
293.286
293.272
293.259
293.247
293.236
293.226
293.217
293.208
293.201
293.194
293.188
293.183
293.178
293.174
293.17
293.167
293.164
293.161
293.159
293.158
293.156
293.155
293.154
293.153
293.152
293.152
293.151
293.151
293.151
293.15
293.15
293.15
293.15
293.15
293.15
293.15
293.15
293.15
293.15
293.15
293.15
293.15
293.15
293.15
293.15
293.15
293.15
293.15
293.15
294.474
294.454
294.43
294.404
294.377
294.348
294.319
294.29
294.259
294.228
294.197
294.165
294.133
294.101
294.069
294.036
294.004
293.971
293.939
293.906
293.874
293.843
293.811
293.78
293.75
293.72
293.69
293.661
293.633
293.606
293.579
293.553
293.528
293.504
293.48
293.458
293.436
293.416
293.396
293.377
293.359
293.342
293.326
293.311
293.297
293.284
293.271
293.259
293.248
293.238
293.229
293.22
293.213
293.205
293.199
293.193
293.187
293.182
293.178
293.174
293.171
293.168
293.165
293.163
293.16
293.159
293.157
293.156
293.155
293.154
293.153
293.152
293.152
293.151
293.151
293.151
293.151
293.15
293.15
293.15
293.15
293.15
293.15
293.15
293.15
293.15
293.15
293.15
293.15
293.15
293.15
293.15
293.15
293.15
293.15
293.15
293.15
293.15
293.15
293.15
293.851
293.841
293.829
293.815
293.801
293.786
293.77
293.754
293.738
293.721
293.704
293.687
293.669
293.652
293.634
293.616
293.598
293.58
293.562
293.544
293.526
293.509
293.492
293.475
293.458
293.441
293.425
293.41
293.394
293.38
293.365
293.352
293.338
293.325
293.313
293.301
293.29
293.279
293.269
293.259
293.25
293.242
293.234
293.226
293.219
293.212
293.206
293.2
293.195
293.19
293.186
293.182
293.178
293.175
293.171
293.169
293.166
293.164
293.162
293.16
293.159
293.157
293.156
293.155
293.154
293.154
293.153
293.152
293.152
293.152
293.151
293.151
293.151
293.151
293.15
293.15
293.15
293.15
293.15
293.15
293.15
293.15
293.15
293.15
293.15
293.15
293.15
293.15
293.15
293.15
293.15
293.15
293.15
293.15
293.15
293.15
293.15
293.15
293.15
293.15
393.148
393.15
393.15
393.15
393.15
393.15
393.15
393.149
393.149
393.148
393.147
393.145
393.142
393.137
393.128
393.113
393.088
393.039
392.941
392.706
393.149
393.15
393.15
393.15
393.15
393.149
393.149
393.148
393.148
393.146
393.144
393.141
393.135
393.126
393.111
393.086
393.041
392.954
392.766
392.252
393.149
393.15
393.15
393.15
393.149
393.149
393.148
393.147
393.145
393.142
393.138
393.131
393.121
393.104
393.076
393.028
392.939
392.76
392.339
391.032
393.149
393.149
393.149
393.149
393.148
393.147
393.145
393.142
393.138
393.132
393.123
393.109
393.087
393.052
392.993
392.889
392.689
392.264
391.189
387.507
393.148
393.148
393.147
393.145
393.143
393.14
393.135
393.128
393.118
393.103
393.081
393.048
392.997
392.916
392.778
392.529
392.041
390.969
388.122
377.819
393.142
393.14
393.136
393.13
393.122
393.111
393.096
393.075
393.046
393.006
392.95
392.867
392.741
392.541
392.206
391.606
390.437
387.883
381.058
356.425
393.097
393.082
393.063
393.038
393.005
392.963
392.91
392.843
392.761
392.656
392.512
392.306
392.002
391.53
390.762
389.422
386.91
381.643
368.394
326.349
392.613
392.531
392.433
392.317
392.185
392.04
391.884
391.721
391.532
391.29
390.964
390.51
389.857
388.871
387.3
384.661
379.927
370.624
350.197
304.207
388.03
387.712
387.378
387.024
386.679
386.407
386.163
385.937
385.63
385.238
384.705
383.986
382.939
381.366
378.741
374.299
366.47
352.51
328.476
296.461
361.919
361.382
360.824
360.273
359.779
359.463
359.162
358.785
358.362
357.912
357.359
356.711
355.754
354.402
351.844
347.146
338.664
325.452
308.018
296.462
306.171
306.268
306.314
306.315
306.21
305.847
305.389
304.906
304.39
303.796
303.145
302.357
301.474
300.372
299.403
298.589
298.086
297.242
295.132
294.065
294.499
294.552
294.596
294.634
294.652
294.622
294.559
294.458
294.354
294.242
294.128
293.998
293.872
293.731
293.619
293.536
293.489
293.426
293.265
293.379
293.216
293.223
293.231
293.239
293.247
293.253
293.255
293.25
293.242
293.231
293.22
293.208
293.198
293.188
293.18
293.174
293.169
293.164
293.157
293.194
293.152
293.152
293.152
293.153
293.153
293.154
293.155
293.155
293.155
293.154
293.154
293.153
293.153
293.152
293.152
293.151
293.151
293.151
293.151
293.154
293.15
293.15
293.15
293.15
293.15
293.15
293.15
293.15
293.15
293.15
293.15
293.15
293.15
293.15
293.15
293.15
293.15
293.15
293.15
293.15
293.15
293.15
293.15
293.15
293.15
293.15
293.15
293.15
293.15
293.15
293.15
293.15
293.15
293.15
293.15
293.15
293.15
293.15
293.15
293.15
293.15
293.15
293.15
293.15
293.15
293.15
293.15
293.15
293.15
293.15
293.15
293.15
293.15
293.15
293.15
293.15
293.15
293.15
293.15
293.15
293.15
293.15
293.15
293.15
293.15
293.15
293.15
293.15
293.15
293.15
293.15
293.15
293.15
293.15
293.15
293.15
293.15
293.15
293.15
293.15
293.15
293.15
293.15
293.15
293.15
293.15
293.15
293.15
293.15
293.15
293.15
293.15
293.15
293.15
293.15
293.15
293.15
293.15
293.15
293.15
293.15
293.15
293.15
293.15
293.15
293.15
293.15
293.15
293.15
293.15
293.15
293.15
293.15
293.15
293.15
293.15
293.15
293.15
293.15
293.15
393.15
393.15
393.15
393.15
393.15
393.15
393.15
393.15
393.15
393.15
393.15
393.15
393.15
393.15
393.15
393.15
393.15
393.15
393.15
393.15
393.15
393.15
393.15
393.15
393.15
393.15
393.15
393.15
393.15
393.15
393.15
393.15
393.15
393.15
393.15
393.15
393.15
393.15
393.15
393.15
393.15
393.15
393.15
393.15
393.15
393.15
393.15
393.15
393.15
393.15
393.15
393.15
393.15
393.15
393.15
393.15
393.15
393.15
393.15
393.15
393.15
393.15
393.15
393.15
393.15
393.15
393.15
393.15
393.15
393.15
393.15
393.15
393.15
393.15
393.15
393.15
393.15
393.15
393.15
393.15
393.15
393.15
393.15
393.15
393.15
393.15
393.15
393.15
393.15
393.15
393.15
393.15
393.15
393.15
393.15
393.15
393.15
393.15
393.15
393.15
393.15
393.15
393.15
393.15
393.15
393.15
393.15
393.15
393.15
393.15
393.15
393.15
393.15
393.15
393.15
393.15
393.15
393.15
393.15
393.15
393.15
393.15
393.15
393.15
393.15
393.15
393.15
393.15
393.15
393.15
393.15
393.15
393.15
393.15
393.15
393.15
393.15
393.15
393.15
393.15
393.15
393.15
393.15
393.15
393.15
393.15
393.15
393.15
393.15
393.15
393.15
393.15
393.15
393.15
393.15
393.15
393.15
393.15
393.15
393.15
393.15
393.15
393.15
393.15
393.15
393.15
393.15
393.15
393.15
393.15
393.15
393.15
393.15
393.15
393.15
393.15
393.15
393.15
393.15
393.15
393.15
393.15
393.15
393.15
393.15
393.15
393.15
393.15
393.15
393.15
393.15
393.15
393.15
393.15
393.15
393.15
393.15
393.15
393.15
393.15
393.15
393.15
393.15
393.15
393.15
393.15
393.15
393.15
393.15
393.15
393.15
393.15
393.15
393.15
393.15
393.15
393.15
393.15
393.15
393.15
393.15
393.15
393.15
393.15
393.15
393.15
393.15
393.15
393.15
393.15
393.15
393.15
393.15
393.15
393.15
393.15
393.15
393.15
393.15
393.15
393.15
393.15
393.15
393.15
393.15
393.15
393.15
393.15
393.15
393.15
393.15
393.15
393.15
393.15
393.15
393.15
393.15
393.15
393.15
393.15
393.15
393.15
393.15
393.15
393.15
393.15
393.15
393.15
393.15
393.15
393.15
393.15
393.15
393.15
393.15
393.15
393.15
393.15
393.15
393.15
393.15
393.15
393.15
393.15
393.15
393.15
393.15
393.15
393.15
393.15
393.15
393.15
393.15
393.15
393.15
393.15
393.15
393.15
393.15
393.15
393.15
393.15
393.15
393.15
393.15
393.15
393.15
393.15
393.15
393.15
393.15
393.15
393.15
393.15
393.15
393.15
393.15
393.15
393.15
393.15
393.15
393.15
393.15
393.15
393.15
393.15
393.15
393.15
393.15
393.15
393.15
393.15
393.15
393.15
393.15
393.15
393.15
393.15
393.15
393.15
393.15
393.15
393.15
393.15
393.15
393.15
393.15
393.15
393.15
393.15
393.15
393.15
393.15
393.15
393.15
393.15
393.15
393.15
393.15
393.15
393.15
393.15
393.15
393.15
393.15
393.15
393.15
393.15
393.15
393.15
393.15
393.15
393.15
393.15
393.15
393.15
393.15
393.15
393.15
393.15
393.15
393.15
393.15
393.15
393.15
393.15
393.15
393.15
393.15
393.15
393.15
393.15
393.15
393.15
393.15
393.15
393.15
393.15
393.15
393.15
393.15
393.15
393.15
393.15
393.15
393.15
393.15
393.15
393.15
393.15
393.15
393.15
393.15
393.15
393.15
393.15
393.15
393.15
393.15
393.15
393.15
393.15
393.15
393.15
393.15
393.15
393.15
393.15
393.15
393.15
393.15
393.15
393.15
393.15
393.15
393.15
393.15
393.15
393.15
393.15
393.15
393.15
393.15
393.15
393.15
393.15
393.15
393.15
393.15
393.15
393.15
393.15
393.15
393.15
393.15
393.15
393.15
393.15
393.15
393.15
393.15
393.15
393.15
393.15
393.15
393.15
393.15
393.15
393.15
393.15
393.15
393.15
393.15
393.15
393.15
393.15
393.15
393.15
393.15
393.15
393.15
393.15
393.15
393.15
393.15
393.15
393.15
393.15
393.15
393.15
393.15
393.15
393.15
393.15
393.15
393.15
393.15
393.15
393.15
393.15
393.15
393.15
393.15
393.15
393.15
393.15
393.15
393.15
393.15
393.15
393.15
393.15
393.15
393.15
393.15
393.15
393.15
393.15
393.15
393.15
393.15
393.15
393.15
393.15
393.15
393.15
393.15
393.15
393.15
393.15
393.15
393.15
393.15
393.15
393.15
393.15
393.15
393.15
393.15
393.15
393.15
393.15
393.15
393.15
393.15
393.15
393.15
393.15
393.15
393.15
393.15
393.15
393.15
393.15
393.15
393.15
393.15
393.15
393.15
393.15
393.15
393.15
393.15
393.15
393.15
393.15
393.15
393.15
393.15
393.15
393.15
393.15
393.15
393.15
393.15
393.15
393.15
393.15
393.15
393.15
393.15
393.15
393.15
393.15
393.15
393.15
393.15
393.15
393.15
393.15
393.15
393.15
393.15
393.15
393.15
393.15
393.15
393.15
393.15
393.15
393.15
393.15
393.15
393.15
393.15
393.15
393.15
393.15
393.15
393.15
393.15
393.15
393.15
393.15
393.15
393.15
393.15
393.15
393.15
393.15
393.15
393.15
393.15
393.15
393.15
393.15
393.15
393.15
393.15
393.15
393.15
393.15
393.15
393.15
393.15
393.15
393.15
393.15
393.15
393.15
393.15
393.15
393.15
393.15
393.15
393.15
393.15
393.15
393.15
393.15
393.15
393.15
393.15
393.15
393.15
393.15
393.15
393.15
393.15
393.15
393.15
393.15
393.15
393.15
393.15
393.15
393.15
393.15
393.15
393.15
393.15
393.15
393.15
393.15
393.15
393.15
393.15
393.15
393.15
393.15
393.15
393.15
393.15
393.15
393.15
393.15
393.15
393.15
393.15
393.15
393.15
393.15
393.15
393.15
393.15
393.15
393.15
393.15
393.15
393.15
393.15
393.15
393.15
393.15
393.15
393.15
393.15
393.15
393.15
393.15
393.15
393.15
393.15
393.15
393.15
393.15
393.15
393.15
393.15
393.15
393.15
393.15
393.15
393.15
393.15
393.15
393.15
393.15
393.15
393.15
393.15
393.15
393.15
393.15
393.15
393.15
393.15
393.15
393.15
393.15
393.15
393.15
393.15
393.15
393.15
393.15
393.15
393.15
393.15
393.15
393.15
393.15
393.15
393.15
393.15
393.15
393.15
393.15
393.15
393.15
393.15
393.15
393.15
393.15
393.15
393.15
393.15
393.15
393.15
393.15
393.15
393.15
393.15
393.15
393.15
393.15
393.15
393.15
393.15
393.15
393.15
393.15
393.15
393.15
393.15
393.15
393.15
393.15
393.15
393.15
393.15
393.15
393.15
393.15
393.15
393.15
393.15
393.15
393.15
393.15
393.15
393.15
393.15
393.15
393.15
393.15
393.15
393.15
393.15
393.15
393.15
393.15
393.15
393.15
393.15
393.15
393.15
393.15
393.15
393.15
393.15
393.15
393.15
393.15
393.15
393.15
393.15
393.15
393.15
393.15
393.15
393.15
393.15
393.15
393.15
393.15
393.15
393.15
393.15
393.15
393.15
393.15
393.15
393.15
393.15
393.15
393.15
393.15
393.15
393.15
393.15
393.15
393.15
393.15
393.15
393.15
393.15
393.15
393.15
393.15
393.15
393.15
393.15
393.15
393.15
393.15
393.15
393.15
393.15
393.15
393.15
393.15
393.15
393.15
393.15
393.15
393.15
393.15
393.15
393.15
393.15
393.15
393.15
393.15
393.15
393.15
393.15
393.15
393.15
393.15
393.15
393.15
393.15
393.15
393.15
393.15
393.15
393.15
393.15
393.15
393.15
393.15
393.15
393.15
393.15
393.15
393.15
393.15
393.15
393.15
393.15
393.15
393.15
393.15
393.15
393.15
393.15
393.15
393.15
393.15
393.15
393.15
393.15
393.15
393.15
393.15
393.15
393.15
393.15
393.15
393.15
393.15
393.15
393.15
393.15
393.15
393.15
393.15
393.15
393.15
393.15
393.15
393.15
393.15
393.15
393.15
393.15
393.15
393.15
393.15
393.15
393.15
393.15
393.15
393.15
393.15
393.15
393.15
393.15
393.15
393.15
393.15
393.15
393.15
393.15
393.15
393.15
393.15
393.15
393.15
393.15
393.15
393.15
393.15
393.15
393.15
393.15
393.15
393.15
393.15
393.15
393.15
393.15
393.15
393.15
393.15
393.15
393.15
393.15
393.15
393.15
393.15
393.15
393.15
393.15
393.15
393.15
393.15
393.15
393.15
393.15
393.15
393.15
393.15
393.15
393.15
393.15
393.15
393.15
393.15
393.15
393.15
393.15
393.15
393.15
393.15
393.15
393.15
393.15
393.15
393.15
393.15
393.15
393.15
393.15
393.15
393.15
393.15
393.15
393.15
393.15
393.15
393.15
393.15
393.15
393.15
393.15
393.15
393.15
393.15
393.15
393.15
393.15
393.15
393.15
393.15
393.15
393.15
393.15
393.15
393.15
393.15
393.15
393.15
393.15
393.15
393.15
393.15
393.15
393.15
393.15
393.15
393.15
393.15
393.15
393.15
393.15
393.15
393.15
393.15
393.15
393.15
393.15
393.15
393.15
393.15
393.15
393.15
393.15
393.15
393.15
393.15
393.15
393.15
393.15
393.15
393.15
393.15
393.15
393.15
393.15
393.15
393.15
393.15
393.15
393.15
393.15
393.15
393.15
393.15
393.15
393.15
393.15
393.15
393.15
393.15
393.15
393.15
393.15
393.15
393.15
393.15
393.15
393.15
393.15
393.15
393.15
393.15
393.15
393.15
393.15
393.15
393.15
393.15
393.15
393.15
393.15
393.15
393.15
393.15
393.15
393.15
393.15
393.15
393.15
393.15
393.15
393.15
393.15
393.15
393.15
393.15
393.15
393.15
393.15
393.15
393.15
393.15
393.15
393.15
393.15
393.15
393.15
393.15
393.15
393.15
393.15
393.15
393.15
393.15
393.15
393.15
393.15
393.15
393.15
393.15
393.15
393.15
393.15
393.15
393.15
393.15
393.15
393.15
393.15
393.15
393.15
393.15
393.15
393.15
393.15
393.15
393.15
393.15
393.15
393.15
393.15
393.15
393.15
393.15
393.15
393.15
393.15
393.15
393.15
393.15
393.15
393.15
393.15
393.15
393.15
393.15
393.15
393.15
393.15
393.15
393.15
393.15
393.15
393.15
393.15
393.15
393.15
393.15
393.15
393.15
393.15
393.15
393.15
393.15
393.15
393.15
393.15
393.15
393.15
393.15
393.15
393.15
393.15
393.15
393.15
393.15
393.15
393.15
393.15
393.15
393.15
393.15
393.15
393.15
393.15
393.15
393.15
393.15
393.15
393.15
393.15
393.15
393.15
393.15
393.15
393.15
393.15
393.15
393.15
393.15
393.15
393.15
393.15
393.15
393.15
393.15
393.15
393.15
393.15
393.15
393.15
393.15
393.15
393.15
393.15
393.15
393.15
393.15
393.15
393.15
393.15
393.15
393.15
393.15
393.15
393.15
393.15
393.15
393.15
393.15
393.15
393.15
393.15
393.15
393.15
393.15
393.15
393.15
393.15
393.15
393.15
393.15
393.15
393.15
393.15
393.15
393.15
393.15
393.15
393.15
393.15
393.15
393.15
393.15
393.15
393.15
393.15
393.15
393.15
393.15
393.15
393.15
393.15
393.15
393.15
393.15
393.15
393.15
393.15
393.15
393.15
393.15
393.15
393.15
393.15
393.15
393.15
393.15
393.15
393.15
393.15
393.15
393.15
393.15
393.15
393.15
393.15
393.15
393.15
393.15
393.15
393.15
393.15
393.15
393.15
393.15
393.15
393.15
393.15
393.15
393.15
393.15
393.15
393.15
393.15
393.15
393.15
393.15
393.15
393.15
393.15
393.15
393.15
393.15
393.15
393.15
393.15
393.15
393.15
393.15
393.15
393.15
393.15
393.15
393.15
393.15
393.15
393.15
393.15
393.15
393.15
393.15
393.15
393.15
393.15
393.15
393.15
393.15
393.15
393.15
393.15
393.15
393.15
393.15
393.15
393.15
393.15
393.15
393.15
393.15
393.15
393.15
393.15
393.15
393.15
393.15
393.15
393.15
393.15
393.15
393.15
393.15
393.15
393.15
393.15
393.15
393.15
393.15
393.15
393.15
393.15
393.15
393.15
393.15
393.15
393.15
393.15
393.15
393.15
393.15
393.15
393.15
393.15
393.15
393.15
393.15
393.15
393.15
393.15
393.15
393.15
393.15
393.15
393.15
393.15
393.15
393.15
393.15
393.15
393.15
393.15
393.15
393.15
393.15
393.15
393.15
393.15
393.15
393.15
393.15
393.15
393.15
393.15
393.15
393.15
393.15
393.15
393.15
393.15
393.15
393.15
393.15
393.15
393.15
393.15
393.15
393.15
393.15
393.15
393.15