/*--------------------------------*- C++ -*----------------------------------*\
| =========                 |                                                 |
| \\      /  F ield         | OpenFOAM: The Open Source CFD Toolbox           |
|  \\    /   O peration     | Version:  2.1.0                                 |
|   \\  /    A nd           | Web:      www.OpenFOAM.org                      |
|    \\/     M anipulation  |                                                 |
\*---------------------------------------------------------------------------*/
FoamFile
{
    version     2.0;
    format      ascii;
    class       volVectorField;
    location    "0.33";
    object      U;
}
// * * * * * * * * * * * * * * * * * * * * * * * * * * * * * * * * * * * * * //

dimensions      [0 1 -1 0 0 0 0];

internalField   nonuniform List<vector> 
6400
(
(-1.27776 -5.11349e-05 0)
(-1.27733 -0.000489854 0)
(-1.2757 -0.000774614 0)
(-1.27314 -0.000922586 0)
(-1.27011 -0.00101173 0)
(-1.26677 -0.00107305 0)
(-1.26321 -0.00111839 0)
(-1.25949 -0.00115473 0)
(-1.25563 -0.00118591 0)
(-1.25164 -0.00121417 0)
(-1.24754 -0.00124087 0)
(-1.24332 -0.00126665 0)
(-1.239 -0.00129202 0)
(-1.23457 -0.00131714 0)
(-1.23003 -0.00134231 0)
(-1.22538 -0.00136747 0)
(-1.22062 -0.00139284 0)
(-1.21576 -0.00141824 0)
(-1.21078 -0.00144384 0)
(-1.20569 -0.00146956 0)
(-1.20048 -0.00149571 0)
(-1.19516 -0.001522 0)
(-1.18972 -0.00154837 0)
(-1.18417 -0.00157548 0)
(-1.17849 -0.00160393 0)
(-1.17269 -0.00163311 0)
(-1.16676 -0.00166303 0)
(-1.1607 -0.00169365 0)
(-1.1545 -0.00172514 0)
(-1.14817 -0.0017575 0)
(-1.14169 -0.00179089 0)
(-1.13506 -0.00182532 0)
(-1.12828 -0.00186095 0)
(-1.12135 -0.00189786 0)
(-1.11425 -0.00193613 0)
(-1.10699 -0.00197585 0)
(-1.09956 -0.00201715 0)
(-1.09194 -0.00206001 0)
(-1.08414 -0.00210466 0)
(-1.07615 -0.00215122 0)
(-1.06796 -0.00219983 0)
(-1.05955 -0.00225056 0)
(-1.05093 -0.00230348 0)
(-1.04209 -0.0023587 0)
(-1.03301 -0.00241624 0)
(-1.02368 -0.00247612 0)
(-1.0141 -0.00253832 0)
(-1.00427 -0.00260265 0)
(-0.994155 -0.00266937 0)
(-0.983767 -0.00273755 0)
(-0.973098 -0.0028063 0)
(-0.962138 -0.00287931 0)
(-0.950867 -0.00295805 0)
(-0.939267 -0.00303916 0)
(-0.927345 -0.0031188 0)
(-0.915103 -0.00319511 0)
(-0.902552 -0.00327026 0)
(-0.889693 -0.0033463 0)
(-0.876522 -0.00342402 0)
(-0.863031 -0.00350403 0)
(-0.849211 -0.00358638 0)
(-0.835051 -0.00367156 0)
(-0.820541 -0.00375989 0)
(-0.805667 -0.00385158 0)
(-0.790416 -0.00394699 0)
(-0.774773 -0.00404644 0)
(-0.75872 -0.0041506 0)
(-0.742238 -0.00425999 0)
(-0.725306 -0.00437515 0)
(-0.7079 -0.00449626 0)
(-0.689996 -0.00462395 0)
(-0.671567 -0.00475884 0)
(-0.652584 -0.0049015 0)
(-0.633015 -0.00505287 0)
(-0.612822 -0.005214 0)
(-0.591966 -0.00538628 0)
(-0.570399 -0.00557148 0)
(-0.548065 -0.00577182 0)
(-0.5249 -0.00599051 0)
(-0.500822 -0.00623198 0)
(-0.47573 -0.00650164 0)
(-0.4495 -0.0068064 0)
(-0.421977 -0.00715489 0)
(-0.39297 -0.00755609 0)
(-0.362261 -0.00801621 0)
(-0.329611 -0.00853753 0)
(-0.29479 -0.00911549 0)
(-0.257613 -0.00973002 0)
(-0.218036 -0.0103308 0)
(-0.176327 -0.0108084 0)
(-0.133409 -0.0109394 0)
(-0.0915126 -0.0102809 0)
(-0.0548077 -0.0082905 0)
(-0.0285953 -0.00494343 0)
(-0.0164679 -0.00115791 0)
(-0.0204664 0.0031435 0)
(-0.0492517 0.0113015 0)
(-0.129328 0.0291863 0)
(-0.329043 0.0711433 0)
(-0.948545 0.198964 0)
(-1.54544 -0.000347002 0)
(-1.54313 -0.00163124 0)
(-1.54184 -0.0023786 0)
(-1.53923 -0.00278388 0)
(-1.53626 -0.0030342 0)
(-1.533 -0.00320694 0)
(-1.52958 -0.00333482 0)
(-1.52599 -0.00343723 0)
(-1.52229 -0.00352505 0)
(-1.51847 -0.00360453 0)
(-1.51455 -0.00367962 0)
(-1.51054 -0.00375209 0)
(-1.50642 -0.00382355 0)
(-1.50221 -0.00389434 0)
(-1.49789 -0.0039654 0)
(-1.49349 -0.00403654 0)
(-1.48898 -0.00410837 0)
(-1.48437 -0.00418039 0)
(-1.47965 -0.00425302 0)
(-1.47484 -0.0043259 0)
(-1.46992 -0.00439992 0)
(-1.4649 -0.00447426 0)
(-1.45977 -0.00454811 0)
(-1.45455 -0.00462337 0)
(-1.44922 -0.00470215 0)
(-1.44378 -0.00478246 0)
(-1.43824 -0.00486449 0)
(-1.43259 -0.00494823 0)
(-1.42683 -0.00503408 0)
(-1.42097 -0.00512209 0)
(-1.41499 -0.00521263 0)
(-1.40889 -0.00530578 0)
(-1.40268 -0.00540188 0)
(-1.39635 -0.00550113 0)
(-1.3899 -0.00560378 0)
(-1.38333 -0.00571001 0)
(-1.37663 -0.00582024 0)
(-1.36979 -0.00593435 0)
(-1.36283 -0.00605289 0)
(-1.35573 -0.0061762 0)
(-1.34848 -0.00630461 0)
(-1.34109 -0.00643839 0)
(-1.33355 -0.00657774 0)
(-1.32586 -0.00672305 0)
(-1.318 -0.00687448 0)
(-1.30998 -0.0070322 0)
(-1.30178 -0.00719635 0)
(-1.29341 -0.00736669 0)
(-1.28484 -0.00754388 0)
(-1.27608 -0.00772634 0)
(-1.26711 -0.00791011 0)
(-1.25795 -0.00809868 0)
(-1.24861 -0.00829383 0)
(-1.2391 -0.00849169 0)
(-1.22944 -0.0086891 0)
(-1.2196 -0.00888235 0)
(-1.20958 -0.009074 0)
(-1.19938 -0.00926783 0)
(-1.18899 -0.00946558 0)
(-1.17842 -0.00966868 0)
(-1.16766 -0.00987749 0)
(-1.1567 -0.0100929 0)
(-1.14555 -0.0103153 0)
(-1.1342 -0.010545 0)
(-1.12265 -0.0107829 0)
(-1.1109 -0.0110299 0)
(-1.09893 -0.0112874 0)
(-1.08675 -0.0115567 0)
(-1.07435 -0.0118395 0)
(-1.06172 -0.0121367 0)
(-1.04885 -0.0124502 0)
(-1.03572 -0.0127819 0)
(-1.02232 -0.0131339 0)
(-1.00862 -0.013509 0)
(-0.994608 -0.0139106 0)
(-0.980244 -0.0143428 0)
(-0.965493 -0.0148109 0)
(-0.950311 -0.015321 0)
(-0.934647 -0.0158817 0)
(-0.91844 -0.0165043 0)
(-0.901618 -0.0172021 0)
(-0.8841 -0.0179913 0)
(-0.865795 -0.0188913 0)
(-0.846601 -0.0199227 0)
(-0.82641 -0.0210997 0)
(-0.805109 -0.022426 0)
(-0.782601 -0.0238862 0)
(-0.758833 -0.0254255 0)
(-0.733842 -0.0269146 0)
(-0.707831 -0.0280858 0)
(-0.681266 -0.0284199 0)
(-0.654937 -0.0269645 0)
(-0.630204 -0.0224517 0)
(-0.609991 -0.0142125 0)
(-0.602977 -0.00186615 0)
(-0.61721 0.0129117 0)
(-0.66512 0.039634 0)
(-0.768806 0.0919613 0)
(-0.971466 0.204305 0)
(-1.45991 0.526372 0)
(-1.69703 -0.000934 0)
(-1.69387 -0.00286826 0)
(-1.69345 -0.00394443 0)
(-1.69142 -0.00455458 0)
(-1.68905 -0.00493865 0)
(-1.68647 -0.00520372 0)
(-1.68373 -0.00539894 0)
(-1.68087 -0.00555476 0)
(-1.6779 -0.00568736 0)
(-1.67487 -0.00580711 0)
(-1.67173 -0.00591957 0)
(-1.66854 -0.00602816 0)
(-1.66526 -0.00613499 0)
(-1.66192 -0.0062411 0)
(-1.65849 -0.00634753 0)
(-1.655 -0.00645451 0)
(-1.65143 -0.00656272 0)
(-1.64778 -0.00667179 0)
(-1.64405 -0.00678214 0)
(-1.64025 -0.00689347 0)
(-1.63635 -0.00700698 0)
(-1.63237 -0.00712193 0)
(-1.62829 -0.00723614 0)
(-1.62413 -0.00735037 0)
(-1.61988 -0.00746681 0)
(-1.61556 -0.00758406 0)
(-1.61116 -0.00770295 0)
(-1.6067 -0.00782382 0)
(-1.60215 -0.00794712 0)
(-1.59754 -0.00807302 0)
(-1.59285 -0.00820191 0)
(-1.5881 -0.00833394 0)
(-1.58327 -0.00846946 0)
(-1.57837 -0.00860874 0)
(-1.5734 -0.00875197 0)
(-1.56836 -0.00889938 0)
(-1.56325 -0.00905165 0)
(-1.55808 -0.00920834 0)
(-1.55283 -0.00937012 0)
(-1.54752 -0.00953745 0)
(-1.54215 -0.00971054 0)
(-1.53671 -0.00988984 0)
(-1.53121 -0.0100755 0)
(-1.52566 -0.010268 0)
(-1.52004 -0.0104676 0)
(-1.51438 -0.0106746 0)
(-1.50866 -0.0108892 0)
(-1.5029 -0.0111112 0)
(-1.49709 -0.0113406 0)
(-1.49124 -0.0115764 0)
(-1.48535 -0.0118145 0)
(-1.47946 -0.012053 0)
(-1.47352 -0.0122901 0)
(-1.46757 -0.0125255 0)
(-1.46161 -0.0127631 0)
(-1.45564 -0.0130008 0)
(-1.44965 -0.0132377 0)
(-1.44365 -0.0134761 0)
(-1.43763 -0.0137174 0)
(-1.43162 -0.0139629 0)
(-1.42561 -0.0142133 0)
(-1.41961 -0.0144691 0)
(-1.41364 -0.0147301 0)
(-1.4077 -0.0149961 0)
(-1.40181 -0.0152676 0)
(-1.39599 -0.0155455 0)
(-1.39024 -0.0158311 0)
(-1.38459 -0.0161255 0)
(-1.37905 -0.0164307 0)
(-1.37364 -0.0167483 0)
(-1.36839 -0.0170805 0)
(-1.3633 -0.0174302 0)
(-1.35841 -0.0178002 0)
(-1.35371 -0.018195 0)
(-1.34924 -0.0186198 0)
(-1.345 -0.0190809 0)
(-1.34099 -0.0195864 0)
(-1.33723 -0.0201457 0)
(-1.3337 -0.0207708 0)
(-1.3304 -0.0214779 0)
(-1.32731 -0.0222852 0)
(-1.32438 -0.0232127 0)
(-1.32161 -0.0242836 0)
(-1.31893 -0.0255212 0)
(-1.31632 -0.0269426 0)
(-1.31373 -0.0285492 0)
(-1.31113 -0.0303138 0)
(-1.30852 -0.0321547 0)
(-1.30598 -0.0338938 0)
(-1.30364 -0.035184 0)
(-1.30178 -0.0353987 0)
(-1.30076 -0.0334878 0)
(-1.30112 -0.0279427 0)
(-1.30427 -0.0171628 0)
(-1.31283 0.000944247 0)
(-1.32981 0.0256875 0)
(-1.36881 0.069139 0)
(-1.4446 0.149369 0)
(-1.58815 0.311273 0)
(-1.85883 0.719219 0)
(-1.83443 -0.00161898 0)
(-1.83103 -0.0038874 0)
(-1.83165 -0.00520123 0)
(-1.83053 -0.00597391 0)
(-1.82915 -0.00646478 0)
(-1.82761 -0.00680116 0)
(-1.82593 -0.00704571 0)
(-1.82419 -0.0072387 0)
(-1.82237 -0.00740028 0)
(-1.82052 -0.00754483 0)
(-1.81859 -0.00767883 0)
(-1.81666 -0.00780762 0)
(-1.81466 -0.00793325 0)
(-1.81265 -0.00805784 0)
(-1.81058 -0.00818216 0)
(-1.80851 -0.0083071 0)
(-1.80639 -0.00843322 0)
(-1.80425 -0.00856052 0)
(-1.80207 -0.00868922 0)
(-1.79988 -0.00881935 0)
(-1.79765 -0.00895184 0)
(-1.79541 -0.00908614 0)
(-1.79313 -0.00922092 0)
(-1.79085 -0.00935518 0)
(-1.78854 -0.00948841 0)
(-1.7862 -0.00962093 0)
(-1.78384 -0.00975413 0)
(-1.78147 -0.00988869 0)
(-1.77909 -0.010025 0)
(-1.77669 -0.0101633 0)
(-1.77429 -0.0103039 0)
(-1.77188 -0.0104469 0)
(-1.76947 -0.0105926 0)
(-1.76706 -0.0107411 0)
(-1.76466 -0.0108926 0)
(-1.76227 -0.011047 0)
(-1.75989 -0.011205 0)
(-1.75753 -0.0113661 0)
(-1.7552 -0.0115308 0)
(-1.7529 -0.0116992 0)
(-1.75064 -0.0118714 0)
(-1.74841 -0.0120475 0)
(-1.74625 -0.0122276 0)
(-1.74414 -0.0124119 0)
(-1.7421 -0.0126002 0)
(-1.74015 -0.0127926 0)
(-1.73829 -0.0129889 0)
(-1.73653 -0.0131887 0)
(-1.73489 -0.0133909 0)
(-1.73339 -0.0135942 0)
(-1.73202 -0.0137986 0)
(-1.73082 -0.0140042 0)
(-1.72974 -0.0142067 0)
(-1.72879 -0.0144049 0)
(-1.72799 -0.0146028 0)
(-1.72734 -0.0148 0)
(-1.72684 -0.0149942 0)
(-1.72652 -0.0151858 0)
(-1.72638 -0.0153753 0)
(-1.72645 -0.0155634 0)
(-1.72672 -0.0157505 0)
(-1.72722 -0.0159371 0)
(-1.72797 -0.0161225 0)
(-1.72898 -0.0163057 0)
(-1.73026 -0.0164868 0)
(-1.73184 -0.0166664 0)
(-1.73372 -0.0168458 0)
(-1.73593 -0.0170257 0)
(-1.73848 -0.0172085 0)
(-1.74137 -0.0173961 0)
(-1.74463 -0.0175912 0)
(-1.74826 -0.0177979 0)
(-1.75225 -0.0180201 0)
(-1.75662 -0.018264 0)
(-1.76135 -0.0185368 0)
(-1.76643 -0.0188476 0)
(-1.77184 -0.0192077 0)
(-1.77755 -0.0196297 0)
(-1.78353 -0.0201287 0)
(-1.78973 -0.0207254 0)
(-1.79611 -0.0214421 0)
(-1.80262 -0.0223014 0)
(-1.80918 -0.0233277 0)
(-1.81575 -0.0245447 0)
(-1.82228 -0.0259678 0)
(-1.82872 -0.0275934 0)
(-1.83507 -0.0293822 0)
(-1.84133 -0.0312327 0)
(-1.84757 -0.0329372 0)
(-1.85388 -0.0341128 0)
(-1.86035 -0.0341054 0)
(-1.86704 -0.0318767 0)
(-1.87393 -0.0258686 0)
(-1.88147 -0.0141287 0)
(-1.89061 0.00518466 0)
(-1.90116 0.0355515 0)
(-1.92337 0.0886285 0)
(-1.96427 0.185394 0)
(-2.0332 0.375018 0)
(-2.13382 0.777821 0)
(-1.97367 -0.00221232 0)
(-1.9707 -0.00455208 0)
(-1.97243 -0.00597486 0)
(-1.97254 -0.0068432 0)
(-1.97257 -0.00740032 0)
(-1.9725 -0.00777688 0)
(-1.97239 -0.00804626 0)
(-1.97224 -0.0082534 0)
(-1.97208 -0.00842295 0)
(-1.97191 -0.0085708 0)
(-1.97175 -0.00870526 0)
(-1.9716 -0.00883206 0)
(-1.97146 -0.008954 0)
(-1.97134 -0.00907325 0)
(-1.97123 -0.00919084 0)
(-1.97117 -0.00930758 0)
(-1.97112 -0.00942421 0)
(-1.97111 -0.00954077 0)
(-1.97114 -0.0096569 0)
(-1.97122 -0.0097726 0)
(-1.97135 -0.00988886 0)
(-1.97153 -0.0100046 0)
(-1.97178 -0.0101208 0)
(-1.97209 -0.010238 0)
(-1.97246 -0.0103543 0)
(-1.97289 -0.010469 0)
(-1.97336 -0.010583 0)
(-1.97391 -0.0106967 0)
(-1.97451 -0.0108106 0)
(-1.97519 -0.0109248 0)
(-1.97593 -0.0110394 0)
(-1.97676 -0.0111545 0)
(-1.97767 -0.0112702 0)
(-1.97867 -0.0113866 0)
(-1.97976 -0.0115036 0)
(-1.98096 -0.0116212 0)
(-1.98226 -0.0117394 0)
(-1.98367 -0.0118582 0)
(-1.9852 -0.0119777 0)
(-1.98685 -0.0120977 0)
(-1.98864 -0.0122182 0)
(-1.99056 -0.0123392 0)
(-1.99263 -0.0124605 0)
(-1.99484 -0.0125821 0)
(-1.99722 -0.0127037 0)
(-1.99976 -0.0128251 0)
(-2.00247 -0.012946 0)
(-2.00535 -0.0130659 0)
(-2.00841 -0.0131838 0)
(-2.01166 -0.0132984 0)
(-2.01509 -0.0134117 0)
(-2.01871 -0.0135261 0)
(-2.02252 -0.0136385 0)
(-2.02654 -0.0137458 0)
(-2.03075 -0.0138491 0)
(-2.03517 -0.0139476 0)
(-2.0398 -0.0140403 0)
(-2.04465 -0.014127 0)
(-2.04971 -0.0142078 0)
(-2.05498 -0.0142833 0)
(-2.06047 -0.0143541 0)
(-2.06618 -0.0144215 0)
(-2.0721 -0.014485 0)
(-2.07823 -0.0145432 0)
(-2.08456 -0.0145963 0)
(-2.09109 -0.0146453 0)
(-2.09782 -0.014692 0)
(-2.10473 -0.014738 0)
(-2.11182 -0.014786 0)
(-2.11908 -0.0148387 0)
(-2.1265 -0.0148998 0)
(-2.13407 -0.0149741 0)
(-2.14178 -0.0150671 0)
(-2.14961 -0.0151861 0)
(-2.15754 -0.01534 0)
(-2.16558 -0.0155394 0)
(-2.17371 -0.0157979 0)
(-2.1819 -0.0161305 0)
(-2.19016 -0.0165524 0)
(-2.19846 -0.0170873 0)
(-2.20679 -0.0177601 0)
(-2.21513 -0.018593 0)
(-2.22348 -0.01961 0)
(-2.23183 -0.0208329 0)
(-2.24017 -0.0222734 0)
(-2.24851 -0.0239216 0)
(-2.25686 -0.0257287 0)
(-2.26525 -0.0275822 0)
(-2.27369 -0.0292645 0)
(-2.28218 -0.0303928 0)
(-2.29065 -0.0303398 0)
(-2.29887 -0.0281521 0)
(-2.3063 -0.0223746 0)
(-2.31291 -0.0111207 0)
(-2.31825 0.00781193 0)
(-2.32051 0.0398141 0)
(-2.32476 0.0963484 0)
(-2.33049 0.198694 0)
(-2.32825 0.392237 0)
(-2.31047 0.744069 0)
(-2.12149 -0.00254504 0)
(-2.11956 -0.00473305 0)
(-2.12245 -0.00611122 0)
(-2.12407 -0.00697658 0)
(-2.12581 -0.00753505 0)
(-2.12756 -0.00790562 0)
(-2.12938 -0.00816443 0)
(-2.13123 -0.00835532 0)
(-2.13313 -0.00850573 0)
(-2.13507 -0.00863079 0)
(-2.13707 -0.00874051 0)
(-2.13913 -0.00883989 0)
(-2.14125 -0.00893271 0)
(-2.14344 -0.00902052 0)
(-2.14569 -0.00910491 0)
(-2.14802 -0.0091862 0)
(-2.15042 -0.00926522 0)
(-2.15291 -0.00934272 0)
(-2.15548 -0.00941685 0)
(-2.15814 -0.00948736 0)
(-2.16089 -0.00955696 0)
(-2.16374 -0.00962412 0)
(-2.16668 -0.00969052 0)
(-2.16973 -0.00975779 0)
(-2.17288 -0.00982465 0)
(-2.17614 -0.0098893 0)
(-2.1795 -0.00995193 0)
(-2.18298 -0.0100128 0)
(-2.18657 -0.0100722 0)
(-2.19027 -0.0101301 0)
(-2.19409 -0.0101868 0)
(-2.19804 -0.0102423 0)
(-2.20211 -0.0102967 0)
(-2.2063 -0.01035 0)
(-2.21062 -0.0104024 0)
(-2.21507 -0.0104539 0)
(-2.21964 -0.0105041 0)
(-2.22435 -0.0105532 0)
(-2.22918 -0.0106016 0)
(-2.23415 -0.0106491 0)
(-2.23924 -0.0106957 0)
(-2.24446 -0.0107415 0)
(-2.24981 -0.0107864 0)
(-2.25528 -0.0108305 0)
(-2.26088 -0.0108738 0)
(-2.2666 -0.010916 0)
(-2.27243 -0.0109572 0)
(-2.27838 -0.0109971 0)
(-2.28444 -0.0110352 0)
(-2.29061 -0.0110709 0)
(-2.29687 -0.0111056 0)
(-2.30324 -0.0111404 0)
(-2.3097 -0.0111734 0)
(-2.31624 -0.0112028 0)
(-2.32288 -0.0112285 0)
(-2.32958 -0.0112498 0)
(-2.33637 -0.0112662 0)
(-2.34321 -0.0112775 0)
(-2.35012 -0.0112841 0)
(-2.35708 -0.0112864 0)
(-2.3641 -0.0112857 0)
(-2.37116 -0.0112838 0)
(-2.37826 -0.0112806 0)
(-2.38539 -0.0112738 0)
(-2.39256 -0.0112633 0)
(-2.39977 -0.0112507 0)
(-2.407 -0.0112381 0)
(-2.41426 -0.0112274 0)
(-2.42155 -0.0112212 0)
(-2.42887 -0.0112223 0)
(-2.43622 -0.0112346 0)
(-2.4436 -0.0112626 0)
(-2.45102 -0.0113121 0)
(-2.45846 -0.0113904 0)
(-2.46594 -0.0115062 0)
(-2.47347 -0.0116702 0)
(-2.48103 -0.0118962 0)
(-2.48864 -0.0121996 0)
(-2.49629 -0.0125943 0)
(-2.50401 -0.0131017 0)
(-2.5118 -0.0137473 0)
(-2.51968 -0.0145537 0)
(-2.52765 -0.0155439 0)
(-2.53573 -0.0167379 0)
(-2.54394 -0.0181458 0)
(-2.55228 -0.0197554 0)
(-2.56078 -0.0215152 0)
(-2.56944 -0.0233137 0)
(-2.57824 -0.024944 0)
(-2.58709 -0.0260525 0)
(-2.59581 -0.0260781 0)
(-2.60395 -0.0241914 0)
(-2.61064 -0.0191915 0)
(-2.61547 -0.00932807 0)
(-2.61694 0.00801017 0)
(-2.61134 0.0384983 0)
(-2.59948 0.0927729 0)
(-2.5737 0.190776 0)
(-2.51198 0.368377 0)
(-2.4157 0.65215 0)
(-2.27342 -0.0025145 0)
(-2.2727 -0.0043438 0)
(-2.27662 -0.00552799 0)
(-2.27973 -0.00628708 0)
(-2.28301 -0.00677576 0)
(-2.2865 -0.00709274 0)
(-2.29004 -0.00730571 0)
(-2.29373 -0.0074538 0)
(-2.29745 -0.00756274 0)
(-2.30129 -0.00764623 0)
(-2.30515 -0.00771408 0)
(-2.30913 -0.00777071 0)
(-2.31314 -0.00782009 0)
(-2.31725 -0.00786342 0)
(-2.3214 -0.00790254 0)
(-2.32565 -0.00793756 0)
(-2.32995 -0.00796929 0)
(-2.33434 -0.00799911 0)
(-2.33877 -0.00802466 0)
(-2.3433 -0.00804426 0)
(-2.34789 -0.00806085 0)
(-2.35257 -0.00807381 0)
(-2.35732 -0.00808511 0)
(-2.36218 -0.00809559 0)
(-2.36711 -0.00810489 0)
(-2.37214 -0.00811188 0)
(-2.37725 -0.00811676 0)
(-2.38246 -0.00811958 0)
(-2.38774 -0.00812077 0)
(-2.39311 -0.00812031 0)
(-2.39856 -0.00811866 0)
(-2.4041 -0.00811595 0)
(-2.40971 -0.00811272 0)
(-2.4154 -0.00810875 0)
(-2.42116 -0.00810475 0)
(-2.42699 -0.00810057 0)
(-2.43289 -0.00809629 0)
(-2.43885 -0.00809186 0)
(-2.44485 -0.00808807 0)
(-2.45092 -0.00808477 0)
(-2.45703 -0.00808225 0)
(-2.46319 -0.00808053 0)
(-2.46937 -0.00807976 0)
(-2.4756 -0.00807994 0)
(-2.48185 -0.0080814 0)
(-2.48813 -0.00808371 0)
(-2.49442 -0.0080871 0)
(-2.50073 -0.00809134 0)
(-2.50705 -0.00809614 0)
(-2.51337 -0.00810094 0)
(-2.5197 -0.00810676 0)
(-2.52603 -0.00811377 0)
(-2.53235 -0.00812092 0)
(-2.53868 -0.00812687 0)
(-2.54499 -0.00813114 0)
(-2.5513 -0.00813292 0)
(-2.55759 -0.00813149 0)
(-2.56388 -0.00812656 0)
(-2.57015 -0.00811808 0)
(-2.57642 -0.00810603 0)
(-2.58268 -0.00809133 0)
(-2.58894 -0.00807695 0)
(-2.59519 -0.00806284 0)
(-2.60144 -0.00804432 0)
(-2.60769 -0.00802072 0)
(-2.61395 -0.00799387 0)
(-2.62023 -0.00796588 0)
(-2.62654 -0.00793853 0)
(-2.63287 -0.00791395 0)
(-2.63924 -0.00789487 0)
(-2.64565 -0.00788474 0)
(-2.65212 -0.00788772 0)
(-2.65865 -0.00790935 0)
(-2.66524 -0.00795665 0)
(-2.67192 -0.00803839 0)
(-2.67869 -0.00816505 0)
(-2.68557 -0.0083494 0)
(-2.69255 -0.00860632 0)
(-2.69966 -0.00895224 0)
(-2.70694 -0.00940658 0)
(-2.71435 -0.00999124 0)
(-2.72191 -0.0107295 0)
(-2.72965 -0.0116434 0)
(-2.7376 -0.0127512 0)
(-2.74577 -0.014064 0)
(-2.75419 -0.0155714 0)
(-2.76286 -0.0172234 0)
(-2.77178 -0.0189188 0)
(-2.78088 -0.0204757 0)
(-2.79002 -0.0215896 0)
(-2.79888 -0.0217916 0)
(-2.80689 -0.0204022 0)
(-2.81296 -0.0165361 0)
(-2.81613 -0.00866362 0)
(-2.81451 0.0058895 0)
(-2.80203 0.0322601 0)
(-2.77621 0.079397 0)
(-2.72374 0.164325 0)
(-2.61604 0.312213 0)
(-2.47012 0.525153 0)
(-2.40907 -0.00213694 0)
(-2.40916 -0.00345265 0)
(-2.41365 -0.00434655 0)
(-2.41762 -0.00492706 0)
(-2.42173 -0.00529814 0)
(-2.4262 -0.00553313 0)
(-2.43065 -0.00568357 0)
(-2.43532 -0.00578081 0)
(-2.43995 -0.00584499 0)
(-2.44473 -0.00588759 0)
(-2.44946 -0.00591642 0)
(-2.45433 -0.00593537 0)
(-2.45915 -0.00594767 0)
(-2.46409 -0.0059545 0)
(-2.46898 -0.00595744 0)
(-2.47399 -0.00595668 0)
(-2.47896 -0.00595296 0)
(-2.48403 -0.0059462 0)
(-2.48906 -0.00593628 0)
(-2.49422 -0.00592215 0)
(-2.49934 -0.00590412 0)
(-2.50454 -0.00588222 0)
(-2.50971 -0.00585869 0)
(-2.51494 -0.00583416 0)
(-2.52016 -0.0058091 0)
(-2.52543 -0.00578276 0)
(-2.53068 -0.00575567 0)
(-2.53599 -0.00572755 0)
(-2.54126 -0.00569931 0)
(-2.54658 -0.00567047 0)
(-2.55187 -0.00564202 0)
(-2.5572 -0.00561373 0)
(-2.56249 -0.00558681 0)
(-2.56781 -0.00556053 0)
(-2.5731 -0.00553618 0)
(-2.57842 -0.00551314 0)
(-2.5837 -0.00549184 0)
(-2.58899 -0.00547226 0)
(-2.59425 -0.00545498 0)
(-2.59952 -0.00543991 0)
(-2.60476 -0.00542729 0)
(-2.61 -0.00541699 0)
(-2.61521 -0.00540914 0)
(-2.62042 -0.00540357 0)
(-2.62561 -0.00540059 0)
(-2.6308 -0.0053996 0)
(-2.63596 -0.00540068 0)
(-2.64113 -0.00540354 0)
(-2.64628 -0.00540793 0)
(-2.65143 -0.00541309 0)
(-2.65657 -0.00541952 0)
(-2.66171 -0.00542699 0)
(-2.66685 -0.00543453 0)
(-2.672 -0.0054409 0)
(-2.67716 -0.0054454 0)
(-2.68233 -0.00544706 0)
(-2.68751 -0.00544493 0)
(-2.69271 -0.00543842 0)
(-2.69793 -0.00542713 0)
(-2.70319 -0.00541069 0)
(-2.70847 -0.00538885 0)
(-2.7138 -0.00536629 0)
(-2.71916 -0.00534542 0)
(-2.72457 -0.00531576 0)
(-2.73002 -0.00527677 0)
(-2.73555 -0.00523131 0)
(-2.74113 -0.00518143 0)
(-2.74679 -0.00512877 0)
(-2.75254 -0.00507512 0)
(-2.75837 -0.00502287 0)
(-2.7643 -0.00497514 0)
(-2.77035 -0.00493583 0)
(-2.77651 -0.00491023 0)
(-2.7828 -0.004905 0)
(-2.78922 -0.00492856 0)
(-2.79581 -0.00499112 0)
(-2.80255 -0.00510427 0)
(-2.80948 -0.00528199 0)
(-2.81659 -0.00554425 0)
(-2.82392 -0.00591118 0)
(-2.83146 -0.00640101 0)
(-2.83924 -0.00703496 0)
(-2.84727 -0.00783353 0)
(-2.85559 -0.00881244 0)
(-2.8642 -0.00998595 0)
(-2.87313 -0.0113508 0)
(-2.88237 -0.012861 0)
(-2.89189 -0.0144323 0)
(-2.90158 -0.0159201 0)
(-2.91124 -0.0170832 0)
(-2.92047 -0.0175599 0)
(-2.92858 -0.0168474 0)
(-2.93441 -0.0143324 0)
(-2.93626 -0.00892606 0)
(-2.93248 0.0017312 0)
(-2.91459 0.0218489 0)
(-2.87771 0.0578682 0)
(-2.8046 0.122756 0)
(-2.66443 0.232433 0)
(-2.48894 0.378165 0)
(-2.50916 -0.00145727 0)
(-2.50994 -0.00225673 0)
(-2.51439 -0.00282724 0)
(-2.51859 -0.00320021 0)
(-2.52283 -0.00343927 0)
(-2.52752 -0.00359033 0)
(-2.53207 -0.00368541 0)
(-2.5369 -0.00374489 0)
(-2.54154 -0.00378147 0)
(-2.54638 -0.00380288 0)
(-2.55103 -0.00381417 0)
(-2.55584 -0.00381807 0)
(-2.56046 -0.00381665 0)
(-2.56522 -0.00381092 0)
(-2.56981 -0.00380191 0)
(-2.57452 -0.00378984 0)
(-2.57907 -0.00377521 0)
(-2.58373 -0.00375649 0)
(-2.58823 -0.00373562 0)
(-2.59284 -0.00371452 0)
(-2.59729 -0.00369194 0)
(-2.60182 -0.00366723 0)
(-2.60621 -0.00364164 0)
(-2.61067 -0.00361564 0)
(-2.61499 -0.0035898 0)
(-2.61936 -0.00356366 0)
(-2.62362 -0.00353782 0)
(-2.62792 -0.00351182 0)
(-2.6321 -0.00348657 0)
(-2.63633 -0.00346135 0)
(-2.64046 -0.00343717 0)
(-2.64462 -0.00341354 0)
(-2.64869 -0.00339188 0)
(-2.65278 -0.00337124 0)
(-2.65681 -0.00335289 0)
(-2.66085 -0.00333609 0)
(-2.66484 -0.00332118 0)
(-2.66884 -0.00330806 0)
(-2.67279 -0.00329701 0)
(-2.67676 -0.00328797 0)
(-2.68069 -0.00328128 0)
(-2.68464 -0.00327628 0)
(-2.68857 -0.00327327 0)
(-2.69251 -0.00327178 0)
(-2.69644 -0.00327209 0)
(-2.70039 -0.00327373 0)
(-2.70433 -0.00327633 0)
(-2.7083 -0.00327965 0)
(-2.71228 -0.0032832 0)
(-2.71628 -0.0032867 0)
(-2.72031 -0.00328995 0)
(-2.72437 -0.00329245 0)
(-2.72845 -0.00329334 0)
(-2.73258 -0.00329157 0)
(-2.73674 -0.00328628 0)
(-2.74095 -0.00327647 0)
(-2.7452 -0.00326116 0)
(-2.74952 -0.0032396 0)
(-2.75388 -0.00321104 0)
(-2.75832 -0.00317535 0)
(-2.76282 -0.00313029 0)
(-2.76739 -0.00308129 0)
(-2.77205 -0.0030399 0)
(-2.77677 -0.00298326 0)
(-2.78159 -0.00291158 0)
(-2.7865 -0.0028304 0)
(-2.79152 -0.0027419 0)
(-2.79664 -0.00264735 0)
(-2.80188 -0.00254813 0)
(-2.80725 -0.00244628 0)
(-2.81275 -0.0023446 0)
(-2.8184 -0.00224666 0)
(-2.8242 -0.00215742 0)
(-2.83016 -0.00208311 0)
(-2.83631 -0.00203164 0)
(-2.84264 -0.00201273 0)
(-2.84918 -0.00203751 0)
(-2.85593 -0.00211981 0)
(-2.86293 -0.00227888 0)
(-2.87018 -0.00253415 0)
(-2.87772 -0.00290329 0)
(-2.88556 -0.00340597 0)
(-2.89374 -0.00406211 0)
(-2.90228 -0.00488344 0)
(-2.91122 -0.00588782 0)
(-2.92056 -0.00708905 0)
(-2.93028 -0.0084429 0)
(-2.94035 -0.00988691 0)
(-2.95066 -0.0113245 0)
(-2.96095 -0.0125885 0)
(-2.9708 -0.0134303 0)
(-2.97945 -0.0135409 0)
(-2.9857 -0.012538 0)
(-2.98756 -0.00987701 0)
(-2.98268 -0.00390979 0)
(-2.96357 0.00817595 0)
(-2.91977 0.0302091 0)
(-2.83416 0.0700415 0)
(-2.67482 0.136396 0)
(-2.48441 0.220114 0)
(-2.55278 -0.000560293 0)
(-2.55369 -0.000932585 0)
(-2.55791 -0.00117964 0)
(-2.56195 -0.00134532 0)
(-2.56598 -0.00145995 0)
(-2.57049 -0.00154063 0)
(-2.57478 -0.0015991 0)
(-2.57936 -0.00164232 0)
(-2.58367 -0.00167527 0)
(-2.5882 -0.00170047 0)
(-2.59244 -0.00172025 0)
(-2.59686 -0.00173545 0)
(-2.601 -0.00174698 0)
(-2.60529 -0.00175532 0)
(-2.60932 -0.0017609 0)
(-2.61348 -0.00176389 0)
(-2.61741 -0.00176424 0)
(-2.62144 -0.00176107 0)
(-2.62525 -0.00175607 0)
(-2.62917 -0.00175162 0)
(-2.63287 -0.00174665 0)
(-2.63667 -0.00174043 -2.04587e-41)
(-2.64029 -0.00173309 0)
(-2.64399 -0.00172506 0)
(-2.64751 -0.00171649 0)
(-2.65112 -0.00170737 0)
(-2.65457 -0.00169783 0)
(-2.65809 -0.0016879 0)
(-2.66148 -0.00167765 0)
(-2.66493 -0.00166695 0)
(-2.66827 -0.00165602 0)
(-2.67166 -0.00164509 0)
(-2.67497 -0.00163456 0)
(-2.67831 -0.00162452 0)
(-2.68158 -0.00161515 0)
(-2.68489 -0.00160645 0)
(-2.68815 -0.00159846 0)
(-2.69144 -0.00159103 0)
(-2.69469 -0.00158421 0)
(-2.69797 -0.00157796 0)
(-2.70123 -0.00157282 0)
(-2.70452 -0.00156784 0)
(-2.7078 -0.00156339 0)
(-2.7111 -0.00155891 0)
(-2.71441 -0.0015546 0)
(-2.71775 -0.00155025 0)
(-2.7211 -0.0015452 0)
(-2.72448 -0.00153921 0)
(-2.72789 -0.00153159 0)
(-2.73133 -0.00152261 0)
(-2.73481 -0.00151169 0)
(-2.73833 -0.0014981 0)
(-2.74189 -0.00148102 0)
(-2.74549 -0.00145958 0)
(-2.74914 -0.00143297 0)
(-2.75285 -0.00140001 0)
(-2.75661 -0.00135987 0)
(-2.76043 -0.00131163 0)
(-2.76432 -0.00125421 0)
(-2.76828 -0.00118737 0)
(-2.7723 -0.00110965 0)
(-2.77642 -0.00101691 0)
(-2.78061 -0.000949302 0)
(-2.78487 -0.000855614 0)
(-2.78922 -0.000739473 0)
(-2.79368 -0.00061197 0)
(-2.79825 -0.000474998 0)
(-2.80293 -0.000329159 0)
(-2.80773 -0.000175331 0)
(-2.81266 -1.51588e-05 0)
(-2.81772 0.000148868 0)
(-2.82293 0.000313658 0)
(-2.8283 0.000474704 0)
(-2.83384 0.000626244 0)
(-2.83956 0.000760999 0)
(-2.84548 0.000869915 0)
(-2.85161 0.000942267 0)
(-2.85796 0.000964583 0)
(-2.86457 0.000920022 0)
(-2.87144 0.000790968 0)
(-2.87861 0.000559807 0)
(-2.8861 0.000207489 0)
(-2.89393 -0.000285283 -3.35349e-42)
(-2.90213 -0.000931939 0)
(-2.91076 -0.0017441 0)
(-2.91974 -0.00276468 0)
(-2.92909 -0.00394729 0)
(-2.93881 -0.00525626 -6.1787e-41)
(-2.94876 -0.00664942 0)
(-2.95867 -0.00804054 0)
(-2.9681 -0.00929267 0)
(-2.97632 -0.0102815 0)
(-2.98211 -0.0109027 0)
(-2.98358 -0.0110368 -6.48686e-41)
(-2.97738 -0.0100965 0)
(-2.9579 -0.0070762 0)
(-2.91227 -0.000768902 -9.0384e-42)
(-2.82223 0.0110683 0)
(-2.6562 0.0310735 0)
(-2.46107 0.0563506 0)
(-2.52427 0.000387639 0)
(-2.52487 0.000446234 0)
(-2.5291 0.000529283 0)
(-2.53314 0.000572426 0)
(-2.53719 0.000581154 0)
(-2.54175 0.000567647 0)
(-2.54613 0.000541199 0)
(-2.55082 0.000508375 0)
(-2.55527 0.000472495 0)
(-2.55995 0.000436124 0)
(-2.56439 0.000400145 0)
(-2.56899 0.000365429 0)
(-2.57337 0.000332515 0)
(-2.57788 0.000301377 0)
(-2.58218 0.000272366 0)
(-2.58659 0.000245386 0)
(-2.59081 0.000221049 0)
(-2.59511 0.000199388 0)
(-2.59923 0.000179605 0)
(-2.60344 0.000160353 0)
(-2.60746 0.000142402 0)
(-2.61156 0.000126007 1.48121e-42)
(-2.6155 0.000111477 0)
(-2.6195 9.83542e-05 0)
(-2.62335 8.68334e-05 0)
(-2.62726 7.66248e-05 0)
(-2.63102 6.80286e-05 0)
(-2.63484 6.04911e-05 0)
(-2.63853 5.47431e-05 0)
(-2.64226 5.03892e-05 0)
(-2.64588 4.79552e-05 0)
(-2.64954 4.64408e-05 0)
(-2.6531 4.6395e-05 0)
(-2.65669 4.67328e-05 0)
(-2.66021 4.82416e-05 0)
(-2.66375 5.02163e-05 0)
(-2.66722 5.29336e-05 0)
(-2.67072 5.64417e-05 0)
(-2.67416 6.08347e-05 0)
(-2.67763 6.61157e-05 0)
(-2.68105 7.22761e-05 0)
(-2.6845 7.93989e-05 0)
(-2.68792 8.7735e-05 0)
(-2.69136 9.74658e-05 0)
(-2.69479 0.000108776 0)
(-2.69824 0.000121805 0)
(-2.70169 0.000137149 0)
(-2.70515 0.000155132 0)
(-2.70864 0.000176277 0)
(-2.71214 0.000200534 0)
(-2.71566 0.000228471 0)
(-2.71922 0.000260835 0)
(-2.7228 0.000298432 0)
(-2.72642 0.000342102 0)
(-2.73007 0.000392611 0)
(-2.73377 0.00045134 0)
(-2.73751 0.000518834 0)
(-2.7413 0.0005962 0)
(-2.74514 0.000685027 0)
(-2.74904 0.000785565 0)
(-2.753 0.000898083 0)
(-2.75701 0.00102803 0)
(-2.76109 0.00113649 0)
(-2.76526 0.0012734 0)
(-2.76951 0.00143531 0)
(-2.77384 0.00161138 0)
(-2.77827 0.00180001 0)
(-2.78278 0.00200089 0)
(-2.7874 0.00221355 0)
(-2.79212 0.00243671 0)
(-2.79697 0.00266816 0)
(-2.80195 0.00290545 0)
(-2.80706 0.00314462 0)
(-2.81232 0.00338045 0)
(-2.81775 0.00360636 0)
(-2.82334 0.00381406 0)
(-2.82914 0.00399345 0)
(-2.83513 0.00413201 0)
(-2.84135 0.00421472 0)
(-2.84782 0.00422544 0)
(-2.85456 0.00414729 0)
(-2.86159 0.00396162 0)
(-2.86893 0.00364972 4.29023e-41)
(-2.87661 0.00319239 0)
(-2.88467 0.00257921 0)
(-2.89304 0.00176803 0)
(-2.90175 0.000780791 0)
(-2.91073 -0.000382044 -4.49091e-42)
(-2.91982 -0.00172709 0)
(-2.92865 -0.00323816 0)
(-2.93678 -0.00487817 0)
(-2.94363 -0.00670022 0)
(-2.94795 -0.00889393 0)
(-2.94783 -0.0117387 -6.89941e-41)
(-2.93996 -0.0156729 0)
(-2.91837 -0.0214981 0)
(-2.87206 -0.0310074 -3.6449e-40)
(-2.78168 -0.0472615 0)
(-2.61699 -0.0733688 0)
(-2.42334 -0.104339 0)
(-2.43989 0.00120526 0)
(-2.43959 0.0018272 0)
(-2.44384 0.00226093 0)
(-2.44768 0.00252817 0)
(-2.45164 0.00267646 0)
(-2.45608 0.00274732 0)
(-2.46046 0.00277188 0)
(-2.46514 0.00276833 0)
(-2.46971 0.00274924 0)
(-2.4745 0.00272082 0)
(-2.47918 0.00268805 0)
(-2.48402 0.00265259 0)
(-2.48877 0.00261663 0)
(-2.49364 0.00258033 0)
(-2.49843 0.00254486 0)
(-2.50332 0.00251017 0)
(-2.50813 0.0024771 0)
(-2.51303 0.00244543 0)
(-2.51786 0.00241493 0)
(-2.52276 0.00238473 0)
(-2.52758 0.00235548 0)
(-2.53247 0.00232718 0)
(-2.53728 0.0023003 0)
(-2.54214 0.00227448 0)
(-2.54694 0.00224999 0)
(-2.55177 0.00222652 0)
(-2.55653 0.00220446 0)
(-2.56132 0.00218328 0)
(-2.56604 0.00216384 0)
(-2.57078 0.00214607 0)
(-2.57546 0.00213065 0)
(-2.58014 0.00211658 0)
(-2.58476 0.0021043 0)
(-2.58939 0.00209288 0)
(-2.59395 0.00208318 0)
(-2.59851 0.00207458 0)
(-2.60302 0.00206757 0)
(-2.60752 0.00206209 0)
(-2.61197 0.00205836 0)
(-2.61641 0.00205633 0)
(-2.6208 0.00205672 0)
(-2.62519 0.00205875 0)
(-2.62953 0.00206343 0)
(-2.63386 0.00207055 0)
(-2.63816 0.00208078 0)
(-2.64244 0.00209429 0)
(-2.6467 0.00211163 0)
(-2.65096 0.00213324 0)
(-2.65519 0.00215953 0)
(-2.65942 0.00219084 0)
(-2.66364 0.00222773 0)
(-2.66786 0.00227093 0)
(-2.67208 0.00232109 0)
(-2.67631 0.00237909 0)
(-2.68054 0.0024461 0)
(-2.68479 0.00252334 0)
(-2.68906 0.0026115 0)
(-2.69335 0.00271156 0)
(-2.69767 0.0028252 0)
(-2.70201 0.00295242 0)
(-2.70639 0.00309374 0)
(-2.7108 0.00324623 0)
(-2.71526 0.00340037 0)
(-2.71977 0.00357747 0)
(-2.72434 0.00377772 0)
(-2.72896 0.00399607 0)
(-2.73364 0.0042311 0)
(-2.7384 0.00448245 0)
(-2.74323 0.00474985 0)
(-2.74815 0.00503241 0)
(-2.75316 0.00532831 0)
(-2.75827 0.00563566 0)
(-2.76351 0.00595117 0)
(-2.76887 0.00627017 0)
(-2.77437 0.0065868 0)
(-2.78003 0.00689355 0)
(-2.78586 0.00718106 0)
(-2.79188 0.00743785 0)
(-2.79812 0.00765026 0)
(-2.80459 0.00780333 0)
(-2.81133 0.00788086 0)
(-2.81835 0.00786486 0)
(-2.82569 0.00773456 0)
(-2.83336 0.00747037 0)
(-2.84139 0.00705387 0)
(-2.8498 0.00645801 0)
(-2.85858 0.00566593 0)
(-2.86763 0.0046388 0)
(-2.87685 0.00332638 0)
(-2.88588 0.00167642 0)