/*--------------------------------*- C++ -*----------------------------------*\
| =========                 |                                                 |
| \\      /  F ield         | OpenFOAM: The Open Source CFD Toolbox           |
|  \\    /   O peration     | Version:  2.1.0                                 |
|   \\  /    A nd           | Web:      www.OpenFOAM.org                      |
|    \\/     M anipulation  |                                                 |
\*---------------------------------------------------------------------------*/
FoamFile
{
    version     2.0;
    format      ascii;
    class       volScalarField;
    location    "0.17";
    object      k;
}
// * * * * * * * * * * * * * * * * * * * * * * * * * * * * * * * * * * * * * //

dimensions      [0 2 -2 0 0 0 0];

internalField   nonuniform List<scalar> 
6400
(
0.0294671
0.0295153
0.0295235
0.0295256
0.0295181
0.0295087
0.029489
0.0294747
0.0294486
0.0294299
0.0293989
0.0293759
0.0293411
0.0293139
0.0292756
0.0292444
0.029203
0.0291683
0.0291241
0.0290864
0.0290397
0.0289994
0.0289506
0.0289077
0.0288569
0.0288116
0.0287588
0.028711
0.0286562
0.0286058
0.0285489
0.0284956
0.0284366
0.0283804
0.0283191
0.0282595
0.0281955
0.0281319
0.028064
0.027995
0.027921
0.0278445
0.0277624
0.027676
0.027583
0.0274841
0.0273773
0.0272628
0.0271393
0.0270062
0.0268621
0.0267039
0.0265302
0.0263439
0.0261526
0.0259484
0.0257384
0.0255159
0.0252867
0.0250476
0.0247998
0.0245419
0.0242744
0.0239957
0.0237075
0.0234063
0.0230894
0.0227606
0.0224132
0.0220518
0.0216709
0.0212744
0.0208584
0.0204262
0.0199758
0.0195111
0.0190321
0.018543
0.0180445
0.0175395
0.0170247
0.0164914
0.0159214
0.015349
0.0147541
0.0141327
0.0134716
0.0127484
0.0119391
0.0110052
0.00990166
0.00855316
0.00688085
0.00486203
0.00266411
0.00167093
0.00209314
0.00420263
0.00622444
0.0068785
0.0485769
0.0488
0.0489034
0.0490851
0.0492031
0.0493852
0.0495154
0.0496967
0.0498368
0.050018
0.0501664
0.0503477
0.0505032
0.0506845
0.0508461
0.0510279
0.0511945
0.0513776
0.0515486
0.0517342
0.0519099
0.0520999
0.0522821
0.0524773
0.0526666
0.0528683
0.0530656
0.0532741
0.0534796
0.0536955
0.0539093
0.0541331
0.0543557
0.0545876
0.0548201
0.055061
0.0553037
0.0555545
0.0558083
0.0560696
0.056332
0.0565989
0.056866
0.0571345
0.0574011
0.0576655
0.0579244
0.0581765
0.0584197
0.0586537
0.0588809
0.0590937
0.0592871
0.0594643
0.0596411
0.0598019
0.0599542
0.0600881
0.0602056
0.0603092
0.0603984
0.0604693
0.060524
0.0605513
0.0605622
0.0605578
0.0605085
0.0604344
0.0603134
0.0601519
0.0599352
0.0596632
0.0593241
0.0589156
0.0584275
0.0578578
0.0571984
0.0564486
0.0556035
0.0546659
0.0536367
0.0525158
0.0512845
0.0498925
0.0483435
0.0465891
0.0446068
0.0423415
0.0397621
0.0368274
0.0335346
0.0298839
0.025932
0.0218606
0.0177447
0.0138296
0.0107808
0.0086436
0.00726276
0.00604678
0.0543854
0.0547489
0.0549146
0.0552094
0.0554113
0.0556945
0.0559183
0.0561949
0.0564328
0.0567072
0.0569553
0.0572296
0.0574853
0.0577605
0.0580219
0.0582983
0.058564
0.0588415
0.0591101
0.0593887
0.0596594
0.0599405
0.0602164
0.0605016
0.0607817
0.0610705
0.061355
0.0616488
0.0619388
0.062237
0.062532
0.0628347
0.0631341
0.0634396
0.0637416
0.0640484
0.0643512
0.064657
0.064958
0.0652598
0.065558
0.0658549
0.0661459
0.0664315
0.0667074
0.0669723
0.067222
0.0674521
0.0676531
0.0678196
0.0679697
0.0681031
0.0682176
0.0683149
0.0683922
0.0684493
0.0684828
0.0684977
0.0685008
0.0684598
0.0683946
0.0682884
0.0681504
0.0679687
0.0677486
0.06748
0.0671643
0.0667971
0.0663716
0.0658848
0.0653274
0.0646947
0.0639763
0.0631659
0.0622532
0.0612315
0.0600916
0.0588286
0.0574358
0.0559118
0.0542534
0.0524625
0.0505401
0.0485099
0.0463611
0.0441092
0.0417439
0.0392672
0.0366558
0.0338898
0.0309336
0.0277641
0.0243451
0.0207026
0.016904
0.0131906
0.0100829
0.00759302
0.0057272
0.00393035
0.0589179
0.0593346
0.0595232
0.0598714
0.0601138
0.0604446
0.0607144
0.061034
0.0613183
0.0616325
0.0619255
0.062237
0.062535
0.0628453
0.0631456
0.0634543
0.0637545
0.06406
0.0643566
0.0646546
0.0649409
0.0652259
0.0655087
0.0657938
0.066074
0.0663591
0.0666339
0.0669129
0.0671811
0.067451
0.0677101
0.0679686
0.0682161
0.0684603
0.0686907
0.0689171
0.0691272
0.0693309
0.0695164
0.069692
0.0698473
0.0699886
0.0701076
0.0702087
0.0702849
0.0703342
0.0703565
0.0703621
0.0703302
0.0702707
0.0701791
0.070055
0.0698939
0.069695
0.0694534
0.0691668
0.0688301
0.0684402
0.0679911
0.067484
0.0669126
0.0662746
0.0655662
0.0647839
0.0639255
0.0629879
0.061971
0.0608722
0.0596927
0.0584318
0.0570917
0.0556736
0.0541807
0.0526145
0.0509802
0.0492789
0.0475153
0.0456903
0.0438075
0.0418697
0.0398806
0.0378433
0.0357578
0.0336277
0.031455
0.0292544
0.027026
0.0247772
0.0225131
0.0202667
0.0180593
0.0158764
0.0136967
0.0115923
0.0095625
0.00766372
0.00590455
0.00444695
0.00346305
0.00301295
0.0605798
0.0609633
0.0611325
0.0614567
0.0616706
0.0619739
0.0622079
0.0624916
0.0627316
0.0630003
0.0632395
0.0634943
0.0637282
0.0639699
0.0641953
0.0644235
0.0646364
0.0648493
0.065048
0.0652433
0.0654259
0.0656023
0.065768
0.0659239
0.0660672
0.0662
0.0663163
0.0664231
0.0665095
0.0665841
0.0666373
0.0666691
0.066682
0.0666832
0.0666446
0.0665921
0.0665014
0.0663898
0.0662387
0.0660606
0.0658408
0.0655886
0.0652922
0.0649583
0.0645778
0.0641553
0.063685
0.0631693
0.0626031
0.06199
0.0613257
0.0606128
0.0598482
0.0590336
0.0581676
0.0572507
0.0562844
0.0552709
0.0542089
0.0531019
0.051948
0.050752
0.0495123
0.0482336
0.0469153
0.0455615
0.0441724
0.0427516
0.0413005
0.0398223
0.0383192
0.0367935
0.0352436
0.033672
0.0320825
0.0304835
0.0288729
0.0272585
0.0256441
0.0240412
0.0224521
0.0208794
0.0193258
0.0178097
0.0163524
0.0149565
0.0136004
0.0122776
0.011015
0.00989101
0.00884817
0.00777227
0.00671348
0.00586139
0.00508847
0.00430759
0.0036154
0.0032393
0.00306795
0.00304782
0.0578839
0.0580706
0.0581529
0.0583156
0.0584191
0.0585607
0.0586621
0.0587767
0.0588631
0.058952
0.0590167
0.0590765
0.0591165
0.0591417
0.0591522
0.0591534
0.0591298
0.059091
0.0590333
0.0589548
0.0588584
0.0587372
0.0585984
0.0584317
0.058245
0.0580295
0.0577888
0.0575212
0.0572224
0.0568964
0.0565377
0.0561531
0.055736
0.0552894
0.054807
0.0542955
0.0537458
0.0531663
0.0525482
0.0518998
0.0512132
0.0504964
0.0497426
0.0489591
0.0481408
0.047294
0.0464148
0.0455089
0.0445737
0.0436139
0.0426279
0.0416199
0.0405892
0.0395392
0.038469
0.0373775
0.0362685
0.0351435
0.0340068
0.0328587
0.0317021
0.0305383
0.0293688
0.0281952
0.0270191
0.0258429
0.0246689
0.0234987
0.022335
0.0211779
0.0200318
0.0188973
0.0178039
0.0167484
0.0157367
0.0147557
0.0138262
0.0129296
0.0120903
0.011279
0.0105231
0.00979133
0.009124
0.00848169
0.00790479
0.00733773
0.00682802
0.00632844
0.00589003
0.00545905
0.00506739
0.00467316
0.00432651
0.00399759
0.00370493
0.00344255
0.00326579
0.00318665
0.00317246
0.00327048
0.0495536
0.0493867
0.0493147
0.0491783
0.049087
0.048933
0.0488075
0.0486254
0.04846
0.0482477
0.048039
0.0477907
0.0475417
0.0472544
0.0469632
0.0466381
0.0463033
0.0459385
0.0455612
0.0451575
0.0447384
0.0442949
0.0438364
0.0433541
0.0428575
0.0423353
0.0417933
0.0412283
0.0406407
0.0400334
0.0394024
0.0387525
0.0380807
0.0373897
0.0366782
0.0359497
0.0352009
0.0344376
0.0336557
0.0328612
0.0320512
0.0312325
0.0304008
0.0295631
0.0287152
0.0278639
0.0270057
0.0261467
0.0252839
0.0244228
0.0235611
0.0227037
0.0218487
0.0210002
0.0201607
0.0193468
0.0185469
0.0177685
0.0170066
0.0162666
0.0155469
0.014849
0.014174
0.0135211
0.0128926
0.0122857
0.0117048
0.0111455
0.0106138
0.0101029
0.00962178
0.00916168
0.00873326
0.00832479
0.00794531
0.00758385
0.00725028
0.00693209
0.00664017
0.00636041
0.00610402
0.00585722
0.00563217
0.00541249
0.00521148
0.00501149
0.00482853
0.00464494
0.00447636
0.00430653
0.00415031
0.00399725
0.00386096
0.003736
0.00363503
0.00357662
0.0035514
0.00357457
0.0037432
0.00383296
0.0366348
0.0361712
0.0359726
0.0355856
0.0353434
0.0349473
0.0346573
0.0342432
0.033908
0.0334736
0.0330928
0.0326355
0.0322158
0.0317315
0.0312745
0.0307656
0.0302723
0.0297381
0.0292109
0.028653
0.0280941
0.0275122
0.0269254
0.0263191
0.0257061
0.0250855
0.0244669
0.0238449
0.0232255
0.022608
0.0219928
0.0213796
0.0207711
0.0201678
0.0195719
0.0189845
0.0184059
0.0178392
0.0172826
0.0167405
0.0162092
0.0156932
0.015189
0.0147018
0.0142271
0.0137708
0.0133279
0.0129038
0.0124942
0.0121035
0.0117279
0.0113712
0.0110297
0.010707
0.0104006
0.0101143
0.00984316
0.00959053
0.00935223
0.00913017
0.00892224
0.00872799
0.0085476
0.00837895
0.00822337
0.00808003
0.00794823
0.00782695
0.00771605
0.00761401
0.00752195
0.00743666
0.00736029
0.00728855
0.00722423
0.00716292
0.00710734
0.00705308
0.00700308
0.00695307
0.00690562
0.00685635
0.00680733
0.00675383
0.00669695
0.00663098
0.00655738
0.00647089
0.00637316
0.00626032
0.00613594
0.00600036
0.0058609
0.00572467
0.00561007
0.00555511
0.00554041
0.00565062
0.00587353
0.00599762
0.0224445
0.0218236
0.0215628
0.0210571
0.0207651
0.0202657
0.019945
0.0194491
0.0191065
0.0186151
0.0182537
0.0177702
0.0173972
0.0169213
0.0165427
0.016079
0.0156978
0.0152493
0.0148707
0.0144402
0.0140671
0.0136564
0.0132947
0.0129045
0.012559
0.0121955
0.0118731
0.0115403
0.0112422
0.0109407
0.0106674
0.0103966
0.0101497
0.00990855
0.00968849
0.00947706
0.0092831
0.0091008
0.0089327
0.00877804
0.00863539
0.00850709
0.00838928
0.0082861
0.00819232
0.0081131
0.00804252
0.00798588
0.0079377
0.00790254
0.00787613
0.00786314
0.00785786
0.00785763
0.007875
0.00789475
0.0079295
0.00796779
0.00801951
0.00807562
0.00814382
0.00821693
0.00830119
0.00839081
0.00849068
0.00859624
0.00871143
0.00883286
0.00896363
0.00910119
0.00924817
0.00940241
0.0095669
0.00973926
0.00992218
0.0101137
0.010316
0.0105275
0.0107493
0.0109797
0.0112197
0.0114673
0.0117224
0.0119827
0.0122476
0.0125145
0.0127811
0.0130402
0.0132869
0.0135154
0.0137204
0.0138975
0.0140446
0.0141634
0.0142606
0.0143666
0.0145521
0.014927
0.0154201
0.0158152
0.0125935
0.0120469
0.0118269
0.0114058
0.0111923
0.0107914
0.0105861
0.0102089
0.0100149
0.00966304
0.00948173
0.00915831
0.00899104
0.00869621
0.00854496
0.00827974
0.00814391
0.00790931
0.00778918
0.00758468
0.00748019
0.00730485
0.00721669
0.00706966
0.00699691
0.0068772
0.00681856
0.00672577
0.0066806
0.00661272
0.00657992
0.00653511
0.00651396
0.00649165
0.0064821
0.00647824
0.00647828
0.00649201
0.00650687
0.00653389
0.0065629
0.00660278
0.00664522
0.00669759
0.00675299
0.0068176
0.00688566
0.00696235
0.00704296
0.00713169
0.00722488
0.00732584
0.00743171
0.00754515
0.00766426
0.0077904
0.00792292
0.00806254
0.00820905
0.00836285
0.00852415
0.00869304
0.00887013
0.00905535
0.00924969
0.00945286
0.00966593
0.00988906
0.0101232
0.0103687
0.0106265
0.0108974
0.0111823
0.011482
0.0117977
0.0121303
0.0124814
0.012852
0.0132438
0.0136582
0.0140971
0.0145621
0.0150554
0.0155788
0.0161348
0.0167255
0.0173538
0.0180259
0.0187464
0.0195236
0.020365
0.0212801
0.0222787
0.0233736
0.0245776
0.0259013
0.0273322
0.0287929
0.0298441
0.0302719
0.0137872
0.0132367
0.0130135
0.0125846
0.0123616
0.0119493
0.0117285
0.0113362
0.0111192
0.0107486
0.0105396
0.0101931
0.00999312
0.00967276
0.00948486
0.00919135
0.00901605
0.00875145
0.00859021
0.00835323
0.00820822
0.00799864
0.00787021
0.00768707
0.00757612
0.00741897
0.00732405
0.00719385
0.0071144
0.00700948
0.00694621
0.00686492
0.00681724
0.00675835
0.0067255
0.00668749
0.00666872
0.0066533
0.00664708
0.00664565
0.00665486
0.00667014
0.00669356
0.00672334
0.00676041
0.00680396
0.0068543
0.00691114
0.00697444
0.00704424
0.00712033
0.00720293
0.00729176
0.00738714
0.00748875
0.00759691
0.00771141
0.00783223
0.00795938
0.00809313
0.00823328
0.0083807
0.00853461
0.00869625
0.00886472
0.00904143
0.00922541
0.00941816
0.00961882
0.00982884
0.0100475
0.0102762
0.0105144
0.0107634
0.0110227
0.0112937
0.0115761
0.0118712
0.0121791
0.0125008
0.0128369
0.0131885
0.0135566
0.0139428
0.0143486
0.0147764
0.015229
0.0157095
0.0162219
0.0167681
0.0173527
0.0179891
0.0186824
0.01945
0.0203077
0.0212852
0.0224113
0.0236907
0.024858
0.0254013
0.0249368
0.0243589
0.024115
0.0236451
0.0233687
0.0229017
0.0225921
0.0221257
0.0217839
0.0213119
0.0209428
0.0204674
0.0200754
0.0195979
0.0191897
0.0187136
0.0182922
0.0178211
0.0173939
0.0169282
0.0165009
0.0160445
0.0156212
0.0151768
0.0147628
0.0143329
0.0139294
0.0135179
0.0131293
0.0127385
0.0123692
0.0120067
0.0116639
0.0113322
0.0110174
0.0107165
0.0104303
0.0101601
0.00990321
0.00966273
0.00943546
0.00922417
0.00902549
0.00884267
0.00867167
0.00851586
0.00837186
0.00824175
0.00812345
0.00801789
0.0079238
0.00784146
0.00776998
0.00770941
0.00765893
0.00761807
0.00758669
0.00756445
0.00755248
0.00754738
0.00754663
0.00755782
0.00757199
0.0075957
0.00762222
0.00765679
0.00769394
0.00773678
0.00778103
0.00782912
0.0078777
0.00792841
0.0079783
0.00802861
0.0080765
0.008123
0.0081655
0.00820481
0.00823872
0.00826772
0.00829005
0.00830577
0.00831342
0.00831625
0.00831486
0.00830353
0.00829298
0.00827573
0.00826263
0.00825045
0.00824506
0.0082429
0.00825581
0.00828964
0.00835765
0.00847985
0.00869909
0.0090528
0.00956059
0.00994452
0.0390854
0.0387251
0.0385699
0.0382692
0.0380745
0.0377624
0.0375224
0.0371885
0.0369074
0.0365457
0.0362214
0.0358331
0.0354676
0.0350487
0.034643
0.0341959
0.0337493
0.0332717
0.0327888
0.0322787
0.0317597
0.0312183
0.0306645
0.0300908
0.0295035
0.0288998
0.0282807
0.0276478
0.0269989
0.026337
0.0256594
0.0249856
0.024303
0.0236273
0.0229454
0.022274
0.0215985
0.0209326
0.0202669
0.0196125
0.018963
0.0183264
0.017698
0.0170848
0.0164803
0.0158916
0.0153147
0.0147545
0.0142087
0.0136806
0.0131689
0.012676
0.0122008
0.0117453
0.0113088
0.0108923
0.0104973
0.0101237
0.0097695
0.0094349
0.00911819
0.00881884
0.00853581
0.00826783
0.00801463
0.00777324
0.00754551
0.0073286
0.00712674
0.00693312
0.00675241
0.00657837
0.00641471
0.00625649
0.00610658
0.00596057
0.00582086
0.00568348
0.00555122
0.00542091
0.00529492
0.00517093
0.0050502
0.00493168
0.00481711
0.00470676
0.00460218
0.00450291
0.00440969
0.00432439
0.00424799
0.00418427
0.00412526
0.00408476
0.00406605
0.00406337
0.00414265
0.00428246
0.00450386
0.00460343
0.0514626
0.0514059
0.05138
0.0513356
0.0512934
0.0512292
0.0511578
0.0510581
0.0509586
0.0508253
0.050688
0.0505211
0.0503473
0.050142
0.0499267
0.0496851
0.0494265
0.0491441
0.0488436
0.0485191
0.0481735
0.047806
0.0474164
0.0470043
0.0465702
0.0461142
0.0456356
0.0451356
0.044614
0.044071
0.0435076
0.0429178
0.0423045
0.0416664
0.0410026
0.0403166
0.0396041
0.0388703
0.0381114
0.0373313
0.0365276
0.0357041
0.0348577
0.0339937
0.0331106
0.032213
0.031299
0.0303729
0.0294333
0.0284843
0.027525
0.0265592
0.0255867
0.0246107
0.0236314
0.022652
0.0216875
0.0207462
0.0198267
0.0189319
0.0180652
0.0172182
0.016402
0.0156078
0.014849
0.0141123
0.0134151
0.0127378
0.0120996
0.0114817
0.0109024
0.0103445
0.00982273
0.00932607
0.00886345
0.00842491
0.00801498
0.00762544
0.00725764
0.00690852
0.00657787
0.00626855
0.00597398
0.00569512
0.00542112
0.00516399
0.00491681
0.00469482
0.00447233
0.00426179
0.00404938
0.00387528
0.00371363
0.00356656
0.0034144
0.00332199
0.00327671
0.00326802
0.00340604
0.00350116
0.0588885
0.0591403
0.0592494
0.0594622
0.0595955
0.0597882
0.0599227
0.0600885
0.0602169
0.0603582
0.0604694
0.0605854
0.0606784
0.060768
0.0608359
0.0608989
0.0609397
0.0609679
0.0609795
0.0609816
0.0609585
0.0609214
0.0608623
0.0607852
0.0606858
0.0605658
0.0604223
0.0602545
0.0600623
0.0598423
0.0595957
0.0593191
0.0590122
0.0586754
0.0583034
0.0579003
0.0574612
0.0569917
0.0564845
0.0559447
0.0553654
0.0547528
0.054099
0.0534115
0.0526829
0.0519203
0.0511176
0.0502813
0.0494067
0.0484999
0.0475573
0.0465846
0.0455793
0.0445468
0.0434851
0.0423994
0.0412845
0.0401438
0.0389763
0.0377869
0.0365743
0.0353489
0.0341065
0.0328545
0.0315915
0.0303224
0.0290482
0.0277712
0.0264939
0.0252173
0.0239448
0.0226771
0.0214179
0.0202005
0.01903
0.0179095
0.0168348
0.0158008
0.0148047
0.0138488
0.0129184
0.012036
0.0111952
0.0104215
0.00966084
0.00891877
0.00816351
0.00751166
0.00694887
0.00643807
0.00575308
0.00511462
0.0046965
0.00436479
0.00382497
0.00345969
0.00321027
0.00309254
0.003061
0.00311644
0.0608892
0.0612987
0.0614774
0.0618172
0.0620392
0.062358
0.062599
0.0628984
0.0631484
0.063434
0.0636844
0.0639575
0.0642059
0.0644685
0.0647104
0.0649625
0.0651966
0.065437
0.0656614
0.065889
0.0661003
0.0663131
0.0665106
0.0667071
0.0668892
0.0670688
0.0672342
0.0673931
0.0675383
0.0676736
0.0677937
0.067902
0.067991
0.0680682
0.0681235
0.068159
0.0681744
0.0681774
0.0681454
0.0680953
0.06801
0.067902
0.0677555
0.0675805
0.0673641
0.0671132
0.0668177
0.0664821
0.0660985
0.0656696
0.0651892
0.0646595
0.0640764
0.0634413
0.0627492
0.0620054
0.0612024
0.0603474
0.0594326
0.0584663
0.0574415
0.0563688
0.0552414
0.0540685
0.0528445
0.0515782
0.0502653
0.048914
0.0475222
0.0460982
0.0446409
0.0431543
0.0416348
0.0400815
0.0384974
0.0368904
0.0352559
0.0336015
0.0319161
0.0302251
0.0285278
0.0268054
0.0250195
0.0232144
0.0214877
0.0198575
0.0180905
0.0160031
0.0141272
0.0131275
0.0118954
0.00968245
0.00790723
0.00711299
0.00619781
0.00477635
0.00385776
0.00333947
0.00305169
0.00297846
0.0588032
0.0592257
0.0594148
0.0597596
0.0599966
0.0603231
0.0605836
0.0608978
0.0611719
0.0614807
0.0617627
0.0620685
0.0623562
0.0626615
0.0629529
0.0632582
0.0635524
0.0638578
0.0641528
0.0644568
0.0647501
0.06505
0.0653378
0.0656274
0.0659044
0.0661908
0.0664687
0.0667518
0.067029
0.0673094
0.0675846
0.0678636
0.0681372
0.0684119
0.0686788
0.0689449
0.0692038
0.0694597
0.0697057
0.0699481
0.0701785
0.0704034
0.0706145
0.0708173
0.0710043
0.0711794
0.0713362
0.071477
0.0715967
0.0716965
0.0717721
0.0718178
0.0718377
0.0718413
0.0718002
0.0717377
0.0716273
0.0714874
0.0712931
0.0710591
0.0707636
0.0704158
0.069997
0.0695183
0.0689646
0.0683412
0.0676348
0.0668482
0.0659746
0.0650136
0.0639632
0.0628241
0.0615952
0.0602771
0.0588711
0.0573804
0.05581
0.0541609
0.0524317
0.0506243
0.048739
0.0467787
0.0447293
0.0425797
0.0403277
0.0379965
0.0355705
0.0329792
0.030176
0.0273476
0.0245087
0.0214591
0.0182946
0.0152623
0.012325
0.00957862
0.00722072
0.00521219
0.00378164
0.00311012
0.0540114
0.0543658
0.0545258
0.0548071
0.0549981
0.055267
0.0554763
0.0557379
0.0559592
0.0562187
0.0564489
0.0567083
0.0569459
0.0572067
0.0574508
0.0577136
0.0579632
0.0582285
0.0584824
0.0587499
0.059007
0.0592765
0.059537
0.0598088
0.0600742
0.0603518
0.060625
0.0609085
0.0611897
0.0614798
0.0617678
0.062064
0.062357
0.0626591
0.06296
0.0632681
0.0635763
0.0638904
0.0642053
0.064525
0.0648454
0.0651695
0.0654936
0.06582
0.066145
0.0664733
0.0668
0.0671273
0.0674506
0.0677699
0.0680793
0.0683772
0.0686571
0.0689118
0.0691311
0.0693565
0.0695523
0.0697437
0.0699069
0.0700606
0.0701899
0.0703107
0.0704159
0.0704915
0.0705292
0.070543
0.0705273
0.0704557
0.0703501
0.0701875
0.0699766
0.069702
0.0693607
0.0689365
0.0684257
0.0678075
0.0670755
0.0662072
0.0651931
0.064011
0.0626497
0.0610912
0.059326
0.0573393
0.0551258
0.0526788
0.0500018
0.0470872
0.0439284
0.0405112
0.0368194
0.0328051
0.0284712
0.0238475
0.0192411
0.0150121
0.011424
0.00874955
0.00668304
0.00446572
0.0480011
0.0482094
0.0483056
0.0484684
0.0485762
0.0487388
0.048856
0.0490185
0.0491427
0.0493063
0.0494374
0.0496016
0.0497395
0.0499045
0.0500484
0.0502147
0.0503638
0.0505319
0.0506854
0.0508555
0.0510133
0.0511861
0.0513489
0.0515258
0.0516954
0.0518779
0.0520554
0.0522444
0.0524301
0.0526263
0.0528202
0.053024
0.0532267
0.0534389
0.0536515
0.0538731
0.0540963
0.0543279
0.0545627
0.0548053
0.0550524
0.0553072
0.0555678
0.0558365
0.0561124
0.0563935
0.0566795
0.0569698
0.0572628
0.0575577
0.0578525
0.0581471
0.058439
0.0587292
0.0590203
0.059319
0.0596138
0.0599131
0.0602018
0.060484
0.0607411
0.0609737
0.0611991
0.0614124
0.061617
0.0618107
0.0619881
0.0621469
0.0622867
0.0623987
0.0624718
0.0625038
0.0625096
0.0624327
0.0622995
0.0620718
0.0617556
0.0613201
0.0607619
0.0600547
0.05919
0.0581443
0.0569075
0.0554602
0.0537958
0.0518741
0.049681
0.0471512
0.0442199
0.040779
0.0367864
0.0323297
0.0276274
0.0228943
0.018497
0.0145599
0.0115391
0.00940413
0.00805799
0.00671859
0.0290075
0.0290492
0.0290548
0.0290551
0.029042
0.0290278
0.0290039
0.0289847
0.0289536
0.0289301
0.028894
0.0288665
0.0288267
0.0287953
0.0287522
0.0287173
0.0286713
0.0286333
0.0285846
0.0285437
0.0284927
0.0284492
0.0283965
0.0283508
0.0282967
0.028249
0.0281937
0.028144
0.0280875
0.0280359
0.0279782
0.0279248
0.0278662
0.027811
0.0277515
0.0276946
0.0276343
0.0275757
0.0275145
0.0274543
0.0273919
0.0273299
0.0272659
0.0272015
0.0271348
0.0270662
0.026995
0.0269209
0.0268434
0.0267623
0.0266771
0.0265879
0.0264944
0.0263969
0.0262955
0.0261888
0.0260744
0.0259518
0.0258165
0.025668
0.0255008
0.0253171
0.0251293
0.0249306
0.0247253
0.0245103
0.0242855
0.0240508
0.0238035
0.0235431
0.0232664
0.0229753
0.0226665
0.0223305
0.0219765
0.02159
0.0211793
0.0207327
0.0202554
0.0197389
0.0191861
0.0185907
0.0179538
0.0172697
0.0165351
0.0157325
0.0148474
0.0138262
0.0126191
0.0111709
0.00937922
0.00730386
0.00531463
0.00356342
0.0023764
0.00177912
0.00205484
0.0042714
0.00671479
0.00753417
0.00639319
0.00182891
0.00165319
0.00166599
0.00167343
0.00154516
0.00148736
0.00147077
0.00146442
0.00144734
0.00143921
0.00137002
0.00134313
0.00137663
0.00157641
0.00217553
0.00357594
0.00486365
0.00505756
0.00339891
0.00446229
0.00191548
0.00183625
0.00183102
0.00168847
0.00158374
0.00155263
0.00154733
0.00152675
0.00151399
0.00145366
0.00140619
0.00140158
0.0014942
0.0018202
0.00270713
0.00418413
0.00485166
0.00482997
0.00285411
0.00313043
0.00209809
0.00202218
0.00187073
0.0017323
0.00167815
0.00166557
0.00162206
0.00159986
0.00154926
0.00149547
0.00147892
0.00152683
0.00175884
0.00232503
0.00335084
0.00452617
0.00482002
0.00452064
0.0023014
0.00284999
0.00227595
0.00215613
0.00193386
0.00184549
0.00180776
0.00174652
0.0017137
0.00167895
0.00162709
0.00160233
0.00163892
0.00178786
0.00216985
0.00290311
0.00414987
0.00468612
0.00475138
0.00409978
0.00177223
0.00287808
0.00240475
0.00226838
0.00209016
0.00203236
0.00195001
0.00191039
0.00188254
0.00185271
0.0018387
0.00187849
0.00202419
0.00234998
0.00300442
0.00405898
0.00461242
0.00475306
0.00460277
0.00349574
0.00129804
0.00296634
0.00261636
0.00249969
0.00236049
0.00231157
0.00226999
0.00226556
0.00227952
0.00232849
0.00244839
0.0026246
0.00295234
0.00357779
0.00426181
0.00466434
0.00478941
0.00474634
0.00430805
0.00271116
0.000889541
0.00333656
0.0031957
0.00313545
0.0031063
0.00315388
0.00325025
0.00340266
0.00361771
0.00389054
0.00401745
0.00432524
0.0046263
0.00493723
0.00510058
0.00514779
0.0050134
0.00461958
0.00374221
0.00186426
0.000559293
0.00570327
0.0058275
0.00603385
0.0062227
0.0064923
0.00662316
0.00664029
0.00659252
0.00648036
0.00639745
0.00636533
0.00627922
0.00617797
0.0059365
0.00556446
0.00496888
0.00425081
0.00287904
0.00114364
0.000320423
0.0155312
0.0154377
0.0151913
0.0143846
0.0135351
0.0126026
0.011816
0.0110414
0.010361
0.00969165
0.00904805
0.00834588
0.00761071
0.00671829
0.00569554
0.0046783
0.00338973
0.00191733
0.000717313
0.000174875
0.027374
0.0255233
0.0239277
0.021605
0.0202315
0.0181988
0.0170827
0.0152863
0.0143389
0.0126382
0.011696
0.00994468
0.00881861
0.00682187
0.00535702
0.00352853
0.00220844
0.00108946
0.000402027
8.94483e-05
0.0238542
0.0222191
0.0211931
0.0191611
0.0181714
0.0164803
0.0156401
0.014218
0.0134794
0.0121837
0.0113964
0.0100549
0.00902554
0.0074784
0.0060632
0.00433125
0.00265484
0.00125414
0.000396039
8.06351e-05
0.00996476
0.0102758
0.0104706
0.0105153
0.0102233
0.0100802
0.00962437
0.00941212
0.00906848
0.00890143
0.00857215
0.00834975
0.0078074
0.00735499
0.00634185
0.00548976
0.00422513
0.00229441
0.000723577
0.000141088
0.00423665
0.00424023
0.00434869
0.00449089
0.00472739
0.00502657
0.00534585
0.00549094
0.00573255
0.00584329
0.00608801
0.0062793
0.00637062
0.00639474
0.00622224
0.00567735
0.00501609
0.00354735
0.00128551
0.000302529
0.00301958
0.00285994
0.00278064
0.00272188
0.00271601
0.00275443
0.0028545
0.00300547
0.00327799
0.00362988
0.00394578
0.00458895
0.00508514
0.00550911
0.00566644
0.00569529
0.00532707
0.00451256
0.00222293
0.000583918
0.00281521
0.00248718
0.00237489
0.00223427
0.00218452
0.00213761
0.00212635
0.00212417
0.00216414
0.00227461
0.00246745
0.00282766
0.00355699
0.00452505
0.00516697
0.00539102
0.00542039
0.0050347
0.00326864
0.000971081
0.00275614
0.00232299
0.00219797
0.00202663
0.00196809
0.00189249
0.00185883
0.00182794
0.00180184
0.00179311
0.00183783
0.00199524
0.00236497
0.0030996
0.00440814
0.00518629
0.00538789
0.0052944
0.00411581
0.00143443
0.00274672
0.00218209
0.00208375
0.00189307
0.00180696
0.00176806
0.0017181
0.00169312
0.00165313
0.00161408
0.00159894
0.00164085
0.00181383
0.00229412
0.00313929
0.00465499
0.00532555
0.00541464
0.00472322
0.00196701
0.00326131
0.00200062
0.00192215
0.00183892
0.00171091
0.00165182
0.00163247
0.00160322
0.0015864
0.00153785
0.00149908
0.00149103
0.00154624
0.00180818
0.00251006
0.0037184
0.00511885
0.0054692
0.00514231
0.00255143
0.00497988
0.00190569
0.00176084
0.00172987
0.0016715
0.00157317
0.00153965
0.00152792
0.00151267
0.00150412
0.00145202
0.00142281
0.00142152
0.00153466
0.00193353
0.00301625
0.00473747
0.00549423
0.00547078
0.00316672
0.00707213
0.00187647
0.00163843
0.00161627
0.00161021
0.00153633
0.00148634
0.00146572
0.00145695
0.00143929
0.00143187
0.00138034
0.001363
0.0014063
0.00165497
0.00237361
0.00407378
0.00550205
0.00569915
0.00376734
0.00397102
0.00375018
0.00374679
0.0037468
0.00374652
0.00374628
0.00374612
0.00374604
0.003746
0.00374598
0.00374598
0.003746
0.00374604
0.00374612
0.00374628
0.00374652
0.0037468
0.00374679
0.00375019
0.00397103
0.00441514
0.00375347
0.00374142
0.00374096
0.00374057
0.00374012
0.00373987
0.00373975
0.00373969
0.00373966
0.00373966
0.00373969
0.00373975
0.00373987
0.00374012
0.00374057
0.00374096
0.00374142
0.00375347
0.00441513
0.00486
0.0037606
0.00373285
0.00373263
0.00373284
0.00373273
0.00373256
0.00373242
0.00373235
0.00373231
0.00373231
0.00373235
0.00373242
0.00373256
0.00373273
0.00373284
0.00373263
0.00373285
0.0037606
0.00486001
0.00530077
0.00377203
0.0037243
0.00372395
0.00372491
0.00372524
0.00372525
0.00372519
0.00372514
0.00372512
0.00372512
0.00372514
0.00372519
0.00372525
0.00372524
0.00372491
0.00372395
0.0037243
0.00377203
0.00530076
0.00573873
0.00378548
0.00371554
0.00371484
0.00371666
0.00371758
0.00371789
0.00371796
0.00371795
0.00371795
0.00371795
0.00371795
0.00371796
0.00371789
0.00371758
0.00371666
0.00371484
0.00371554
0.00378548
0.00573873
0.00617157
0.00379766
0.00370575
0.00370509
0.003708
0.00370969
0.00371043
0.0037107
0.00371078
0.0037108
0.0037108
0.00371078
0.0037107
0.00371043
0.00370969
0.003708
0.00370509
0.00370575
0.00379766
0.00617157
0.0065926
0.00380836
0.00369492
0.00369471
0.00369892
0.00370154
0.00370284
0.0037034
0.00370361
0.00370368
0.00370368
0.00370361
0.0037034
0.00370284
0.00370154
0.00369892
0.00369471
0.00369492
0.00380836
0.0065926
0.00700003
0.00381675
0.00368274
0.00368363
0.00368941
0.00369311
0.00369508
0.00369602
0.00369642
0.00369656
0.00369656
0.00369642
0.00369602
0.00369508
0.00369311
0.00368941
0.00368363
0.00368274
0.00381675
0.00700003
0.00739252
0.00382351
0.00366925
0.00367178
0.00367944
0.00368439
0.00368714
0.00368855
0.00368919
0.00368944
0.00368944
0.00368919
0.00368855
0.00368714
0.00368439
0.00367944
0.00367178
0.00366925
0.00382351
0.00739252
0.00776826
0.00382729
0.00365403
0.00365902
0.00366893
0.00367532
0.00367898
0.00368095
0.0036819
0.00368228
0.00368228
0.0036819
0.00368095
0.00367899
0.00367532
0.00366893
0.00365902
0.00365403
0.00382729
0.00776826
0.008121
0.00383008
0.00363757
0.00364548
0.00365792
0.00366592
0.0036706
0.0036732
0.00367452
0.00367506
0.00367506
0.00367452
0.0036732
0.0036706
0.00366592
0.00365792
0.00364548
0.00363756
0.00383008
0.008121
0.00845001
0.00383067
0.00361985
0.00363119
0.00364644
0.00365619
0.003662
0.00366531
0.00366705
0.00366778
0.00366778
0.00366705
0.00366531
0.003662
0.00365619
0.00364644
0.00363119
0.00361985
0.00383067
0.00845001
0.00875471
0.00383021
0.00360096
0.00361616
0.00363447
0.00364614
0.00365317
0.00365725
0.00365946
0.00366041
0.00366041
0.00365946
0.00365725
0.00365317
0.00364614
0.00363447
0.00361616
0.00360096
0.00383021
0.00875472
0.00903556
0.00382894
0.0035809
0.00360035
0.00362201
0.00363574
0.00364409
0.00364902
0.00365173
0.00365292
0.00365292
0.00365173
0.00364902
0.00364409
0.00363574
0.00362201
0.00360035
0.0035809
0.00382894
0.00903556
0.00928931
0.00382656
0.00355985
0.00358381
0.00360905
0.003625
0.00363475
0.00364059
0.00364385
0.00364531
0.00364531
0.00364385
0.00364059
0.00363475
0.003625
0.00360905
0.00358381
0.00355984
0.00382656
0.00928932
0.00951742
0.00382322
0.00353782
0.00356658
0.00359562
0.00361392
0.00362517
0.00363197
0.00363582
0.00363755
0.00363755
0.00363582
0.00363197
0.00362517
0.00361392
0.00359562
0.00356658
0.00353782
0.00382322
0.00951742
0.00971904
0.00382
0.00351527
0.00354883
0.0035818
0.00360255
0.00361535
0.00362315
0.00362761
0.00362964
0.00362964
0.00362761
0.00362315
0.00361535
0.00360255
0.0035818
0.00354883
0.00351527
0.00382
0.00971905
0.00989726
0.00381677
0.0034922
0.00353057
0.00356758
0.00359087
0.00360529
0.00361414
0.00361924
0.00362157
0.00362157
0.00361924
0.00361414
0.00360529
0.00359087
0.00356758
0.00353057
0.0034922
0.00381677
0.00989726
0.0100504
0.00381362
0.00346862
0.00351177
0.00355296
0.00357889
0.003595
0.00360492
0.00361068
0.00361333
0.00361333
0.00361068
0.00360492
0.003595
0.00357889
0.00355297
0.00351177
0.00346863
0.00381362
0.0100504
0.0101815
0.00381043
0.00344454
0.00349244
0.00353794
0.0035666
0.00358445
0.0035955
0.00360193
0.0036049
0.0036049
0.00360193
0.0035955
0.00358445
0.0035666
0.00353794
0.00349244
0.00344452
0.00381042
0.0101815
0.0102896
0.00380844
0.00342044
0.00347278
0.00352259
0.00355403
0.00357366
0.00358586
0.00359299
0.00359629
0.00359629
0.00359299
0.00358586
0.00357366
0.00355404
0.00352259
0.00347278
0.00342046
0.00380844
0.0102896
0.0103795
0.00380713