/*--------------------------------*- C++ -*----------------------------------*\
| =========                 |                                                 |
| \\      /  F ield         | OpenFOAM: The Open Source CFD Toolbox           |
|  \\    /   O peration     | Version:  2.1.0                                 |
|   \\  /    A nd           | Web:      www.OpenFOAM.org                      |
|    \\/     M anipulation  |                                                 |
\*---------------------------------------------------------------------------*/
FoamFile
{
    version     2.0;
    format      ascii;
    class       volScalarField;
    location    "0.17";
    object      p;
}
// * * * * * * * * * * * * * * * * * * * * * * * * * * * * * * * * * * * * * //

dimensions      [1 -1 -2 0 0 0 0];

internalField   nonuniform List<scalar> 
6400
(
99997.7
99995.5
99994
99992.7
99991.5
99990.3
99989.1
99987.8
99986.5
99985.2
99983.8
99982.3
99980.7
99979.1
99977.5
99975.7
99973.9
99972
99970
99968
99965.9
99963.7
99961.4
99959
99956.6
99954.1
99951.5
99948.8
99946.1
99943.2
99940.3
99937.3
99934.2
99931
99927.7
99924.2
99920.7
99917.1
99913.4
99909.5
99905.6
99901.5
99897.3
99892.9
99888.5
99883.8
99879
99874.1
99869
99863.7
99858.2
99852.6
99846.8
99840.7
99834.5
99828.1
99821.4
99814.6
99807.5
99800.1
99792.5
99784.7
99776.5
99768.1
99759.3
99750.2
99740.8
99731
99720.9
99710.4
99699.5
99688.2
99676.5
99664.3
99651.8
99638.8
99625.3
99611.4
99597.1
99582.2
99566.9
99550.9
99534.4
99517
99498.7
99479.3
99458.4
99435.7
99410.8
99383.3
99353.1
99320.9
99288.6
99258.1
99229.5
99196.9
99145.3
99038.5
98688.8
97160
99996.1
99994.9
99993.6
99992.3
99991.1
99989.9
99988.7
99987.5
99986.2
99984.8
99983.4
99981.9
99980.4
99978.8
99977.1
99975.3
99973.5
99971.6
99969.6
99967.6
99965.5
99963.3
99961
99958.6
99956.2
99953.7
99951.1
99948.4
99945.6
99942.8
99939.9
99936.8
99933.7
99930.5
99927.2
99923.8
99920.3
99916.6
99912.9
99909.1
99905.1
99901
99896.8
99892.4
99888
99883.3
99878.6
99873.6
99868.5
99863.2
99857.8
99852.1
99846.3
99840.3
99834.1
99827.7
99821.1
99814.3
99807.2
99799.9
99792.3
99784.4
99776.3
99767.9
99759.2
99750.1
99740.7
99731
99720.9
99710.5
99699.6
99688.4
99676.7
99664.6
99652.1
99639.1
99625.7
99611.9
99597.6
99582.7
99567.4
99551.5
99534.9
99517.6
99499.4
99480
99459.1
99436.5
99411.8
99384.5
99354.6
99322.6
99290.3
99259.8
99233.1
99204.9
99158.9
99066.7
98784.7
98263.7
99994.9
99994.2
99993.2
99992
99990.9
99989.7
99988.5
99987.3
99986
99984.7
99983.3
99981.8
99980.2
99978.6
99976.9
99975.2
99973.4
99971.5
99969.5
99967.4
99965.3
99963.1
99960.8
99958.5
99956
99953.5
99950.9
99948.3
99945.5
99942.7
99939.7
99936.7
99933.6
99930.4
99927.1
99923.7
99920.2
99916.6
99912.8
99909
99905.1
99901
99896.8
99892.5
99888
99883.4
99878.6
99873.7
99868.7
99863.4
99858
99852.4
99846.7
99840.7
99834.6
99828.2
99821.6
99814.8
99807.8
99800.5
99793
99785.2
99777.1
99768.7
99760.1
99751.1
99741.8
99732.1
99722.2
99711.8
99701
99689.9
99678.3
99666.4
99654
99641.2
99627.9
99614.2
99600
99585.3
99570.1
99554.3
99537.7
99520.5
99502.2
99482.8
99462
99439.5
99414.9
99388.1
99359.1
99328.7
99298.7
99271.1
99247.7
99223.5
99192.6
99137.6
98994.7
99092.7
99993.3
99993.5
99992.8
99991.8
99990.8
99989.7
99988.6
99987.4
99986.1
99984.8
99983.4
99981.9
99980.4
99978.8
99977.1
99975.3
99973.5
99971.6
99969.7
99967.6
99965.5
99963.4
99961.1
99958.8
99956.3
99953.8
99951.3
99948.6
99945.9
99943
99940.1
99937.1
99934
99930.8
99927.5
99924.2
99920.7
99917.1
99913.4
99909.6
99905.7
99901.6
99897.4
99893.1
99888.7
99884.2
99879.4
99874.6
99869.6
99864.4
99859
99853.5
99847.8
99841.8
99835.7
99829.4
99822.9
99816.1
99809.1
99801.9
99794.4
99786.7
99778.7
99770.4
99761.8
99752.9
99743.7
99734.1
99724.1
99713.8
99703.1
99692
99680.5
99668.6
99656.2
99643.3
99630
99616.3
99602
99587.1
99571.7
99555.7
99538.9
99521.4
99502.9
99483.2
99462.2
99439.6
99415.3
99389.1
99361.5
99333.6
99307.7
99285.3
99268.7
99258.8
99257.1
99266.4
99299.6
99715.1
99991.5
99992.7
99992.5
99991.8
99990.9
99989.9
99988.8
99987.7
99986.4
99985.1
99983.7
99982.3
99980.8
99979.2
99977.5
99975.8
99974
99972.1
99970.2
99968.2
99966.1
99963.9
99961.7
99959.4
99957
99954.5
99952
99949.3
99946.6
99943.8
99940.9
99937.9
99934.8
99931.7
99928.4
99925
99921.6
99918
99914.3
99910.6
99906.7
99902.6
99898.5
99894.2
99889.8
99885.2
99880.6
99875.7
99870.7
99865.5
99860.2
99854.7
99849
99843.1
99837
99830.7
99824.1
99817.4
99810.4
99803.2
99795.8
99788
99780
99771.7
99763.1
99754.2
99744.9
99735.3
99725.3
99715
99704.2
99693.1
99681.5
99669.5
99657.1
99644.2
99630.8
99616.9
99602.4
99587.4
99571.8
99555.5
99538.5
99520.7
99501.9
99482
99460.8
99438.2
99414.2
99388.9
99363.2
99338.5
99317.9
99302.8
99297.4
99309.3
99348.5
99441.7
99640
100204
99989.7
99991.9
99992.2
99991.8
99991.1
99990.3
99989.3
99988.1
99986.9
99985.7
99984.3
99982.9
99981.4
99979.8
99978.1
99976.4
99974.6
99972.8
99970.9
99968.9
99966.8
99964.6
99962.4
99960.1
99957.7
99955.3
99952.7
99950.1
99947.4
99944.6
99941.7
99938.7
99935.7
99932.5
99929.3
99925.9
99922.4
99918.9
99915.2
99911.4
99907.5
99903.5
99899.3
99895
99890.6
99886
99881.3
99876.4
99871.4
99866.2
99860.9
99855.3
99849.6
99843.7
99837.6
99831.2
99824.7
99817.9
99811
99803.7
99796.3
99788.5
99780.5
99772.2
99763.6
99754.6
99745.4
99735.7
99725.8
99715.5
99704.7
99693.6
99682
99669.9
99657.4
99644.4
99630.9
99616.9
99602.3
99587.1
99571.3
99554.7
99537.4
99519.2
99500
99479.8
99458.4
99435.8
99412.1
99387.9
99364.1
99342.9
99327.9
99321.3
99330.1
99368
99454.8
99636.6
99965.4
100585
99988.2
99991.1
99992
99991.9
99991.4
99990.6
99989.7
99988.6
99987.4
99986.2
99984.8
99983.4
99981.9
99980.3
99978.7
99977
99975.2
99973.3
99971.4
99969.4
99967.3
99965.2
99962.9
99960.6
99958.2
99955.8
99953.2
99950.6
99947.9
99945.1
99942.2
99939.2
99936.1
99932.9
99929.7
99926.3
99922.8
99919.2
99915.5
99911.7
99907.8
99903.8
99899.6
99895.3
99890.8
99886.3
99881.5
99876.6
99871.6
99866.4
99861
99855.5
99849.8
99843.8
99837.7
99831.4
99824.9
99818.1
99811.1
99803.9
99796.4
99788.7
99780.6
99772.3
99763.7
99754.8
99745.5
99735.9
99726
99715.7
99705
99693.8
99682.1
99670.1
99657.5
99644.4
99630.9
99616.7
99601.9
99586.5
99570.4
99553.6
99535.9
99517.3
99497.7
99477.1
99455.4
99432.8
99409.5
99386.2
99364.3
99346.3
99336.5
99338.4
99361.3
99426.2
99560.4
99822.4
100243
100872
99987
99990.5
99991.7
99991.8
99991.5
99990.8
99989.9
99988.9
99987.7
99986.4
99985.1
99983.7
99982.2
99980.6
99978.9
99977.2
99975.4
99973.6
99971.6
99969.6
99967.5
99965.4
99963.1
99960.8
99958.4
99956
99953.4
99950.7
99948
99945.2
99942.3
99939.3
99936.2
99933
99929.7
99926.3
99922.8
99919.2
99915.5
99911.7
99907.7
99903.7
99899.5
99895.1
99890.7
99886.1
99881.4
99876.5
99871.4
99866.2
99860.8
99855.3
99849.6
99843.7
99837.6
99831.2
99824.7
99818
99811
99803.8
99796.3
99788.6
99780.6
99772.3
99763.7
99754.8
99745.6
99736
99726.1
99715.8
99705.1
99693.9
99682.3
99670.2
99657.6
99644.5
99630.8
99616.5
99601.6
99586
99569.6
99552.5
99534.4
99515.4
99495.4
99474.4
99452.4
99429.6
99406.5
99384
99363.7
99348.3
99342.6
99352.1
99388.5
99476
99650.8
99976.4
100456
101073
99986.4
99990.1
99991.4
99991.7
99991.5
99990.8
99990
99988.9
99987.8
99986.5
99985.1
99983.7
99982.2
99980.6
99978.9
99977.2
99975.4
99973.5
99971.5
99969.5
99967.4
99965.2
99963
99960.6
99958.2
99955.7
99953.2
99950.5
99947.7
99944.9
99941.9
99938.9
99935.8
99932.6
99929.3
99925.9
99922.4
99918.7
99915
99911.2
99907.2
99903.2
99899
99894.7
99890.2
99885.6
99880.9
99876
99871
99865.8
99860.4
99854.9
99849.2
99843.3
99837.2
99831
99824.5
99817.8
99810.8
99803.6
99796.2
99788.6
99780.6
99772.3
99763.8
99754.9
99745.7
99736.2
99726.3
99716
99705.2
99694.2
99682.6
99670.6
99658
99644.8
99631.1
99616.7
99601.6
99585.8
99569.2
99551.7
99533.2
99513.8
99493.3
99471.8
99449.5
99426.5
99403.5
99381.4
99362.1
99348.6
99345.6
99360.5
99407
99510.6
99714.3
100083
100595
101199
99986.2
99989.8
99991.2
99991.6
99991.4
99990.8
99989.9
99988.8
99987.6
99986.3
99984.9
99983.4
99981.9
99980.2
99978.5
99976.8
99974.9
99973
99971
99968.9
99966.8
99964.6
99962.3
99960
99957.5
99955
99952.4
99949.7
99947
99944.2
99941.3
99938.2
99935.2
99932
99928.7
99925.3
99921.8
99918.2
99914.5
99910.7
99906.8
99902.8
99898.6
99894.3
99889.9
99885.3
99880.6
99875.8
99870.8
99865.6
99860.2
99854.7
99849.1
99843.2
99837.1
99830.9
99824.4
99817.7
99810.8
99803.7
99796.3
99788.6
99780.6
99772.5
99764
99755.2
99746.1
99736.6
99726.7
99716.5
99705.8
99694.7
99683.2
99671.1
99658.5
99645.3
99631.5
99617
99601.7
99585.7
99568.8
99551
99532.1
99512.3
99491.3
99469.4
99446.5
99423.2
99400
99378.1
99359.3
99346.6
99345
99362.6
99414.1
99526
99743.5
100133
100659
101256
99986.4
99989.9
99991.3
99991.7
99991.4
99990.8
99989.9
99988.8
99987.6
99986.3
99984.9
99983.4
99981.9
99980.3
99978.6
99976.8
99974.9
99973
99971
99969
99966.8
99964.6
99962.3
99960
99957.6
99955
99952.5
99949.8
99947
99944.2
99941.3
99938.3
99935.2
99932
99928.7
99925.3
99921.8
99918.2
99914.5
99910.7
99906.8
99902.8
99898.6
99894.3
99889.9
99885.3
99880.6
99875.8
99870.8
99865.6
99860.3
99854.8
99849.1
99843.3
99837.2
99831
99824.6
99817.9
99811
99803.9
99796.5
99788.9
99781
99772.8
99764.4
99755.6
99746.5
99737.1
99727.3
99717
99706.4
99695.4
99683.8
99671.8
99659.1
99645.9
99632
99617.3
99601.9
99585.7
99568.5
99550.4
99531.1
99510.8
99489.4
99466.9
99443.6
99419.8
99396.2
99374
99355.1
99342.3
99340.6
99357.9
99409.1
99520.2
99736.1
100123
100647
101243
99986.8
99990.3
99991.6
99991.8
99991.5
99990.9
99990
99988.9
99987.7
99986.4
99985
99983.5
99982
99980.4
99978.7
99977
99975.1
99973.2
99971.3
99969.2
99967.1
99964.9
99962.7
99960.3
99957.9
99955.4
99952.8
99950.2
99947.4
99944.6
99941.7
99938.7
99935.6
99932.4
99929.1
99925.7
99922.2
99918.6
99914.9
99911.1
99907.2
99903.1
99898.9
99894.6
99890.2
99885.6
99880.9
99876
99871
99865.9
99860.5
99855
99849.4
99843.5
99837.5
99831.3
99824.8
99818.2
99811.3
99804.2
99796.8
99789.2
99781.4
99773.3
99764.8
99756.1
99747.1
99737.7
99727.9
99717.7
99707.1
99696.1
99684.6
99672.5
99659.8
99646.5
99632.6
99617.8
99602.2
99585.8
99568.4
99549.9
99530.3
99509.5
99487.6
99464.5
99440.6
99416.2
99392
99369.2
99349.5
99335.7
99332.4
99346.9
99392.6
99493.8
99692.5
100054
100561
101164
99987.7
99990.9
99991.9
99992
99991.6
99990.8
99989.9
99988.8
99987.6
99986.3
99984.9
99983.5
99981.9
99980.3
99978.7
99976.9
99975.1
99973.2
99971.3
99969.2
99967.1
99965
99962.7
99960.4
99958
99955.5
99952.9
99950.3
99947.6
99944.8
99941.9
99938.9
99935.8
99932.6
99929.3
99925.9
99922.5
99918.9
99915.2
99911.4
99907.5
99903.4
99899.3
99895
99890.5
99886
99881.3
99876.4
99871.4
99866.3
99860.9
99855.4
99849.8
99843.9
99837.9
99831.7
99825.3
99818.6
99811.8
99804.7
99797.3
99789.7
99781.9
99773.8
99765.4
99756.7
99747.7
99738.3
99728.6
99718.4
99707.9
99696.9
99685.4
99673.3
99660.6
99647.3
99633.2
99618.4
99602.7
99586.1
99568.4
99549.6
99529.7
99508.5
99486
99462.4
99437.8
99412.6
99387.6
99363.9
99343.1
99327.4
99321.1
99330.3
99366.2
99449.4
99616.5
99931.6
100402
101019
99989.1
99991.7
99992.3
99992.1
99991.5
99990.7
99989.7
99988.5
99987.3
99986
99984.6
99983.2
99981.6
99980
99978.4
99976.6
99974.8
99972.9
99971
99969
99966.9
99964.7
99962.5
99960.1
99957.7
99955.3
99952.7
99950.1
99947.3
99944.5
99941.6
99938.6
99935.6
99932.4
99929.1
99925.8
99922.3
99918.8
99915.1
99911.3
99907.4
99903.4
99899.2
99895
99890.5
99886
99881.3
99876.5
99871.5
99866.4
99861.1
99855.6
99850
99844.1
99838.1
99832
99825.5
99818.9
99812.1
99805
99797.7
99790.2
99782.4
99774.4
99766
99757.4
99748.4
99739
99729.4
99719.3
99708.7
99697.8
99686.3
99674.3
99661.6
99648.2
99634.1
99619.2
99603.4
99586.6
99568.7
99549.7
99529.4
99507.8
99484.9
99460.7
99435.4
99409.3
99383.2
99358.4
99336
99318.1
99307.7
99309.8
99332.6
99391.8
99516.4
99765.1
100174
100800
99990.7
99992.5
99992.6
99992.1
99991.3
99990.4
99989.3
99988.1
99986.8
99985.5
99984.1
99982.6
99981.1
99979.5
99977.8
99976.1
99974.3
99972.4
99970.4
99968.4
99966.3
99964.1
99961.9
99959.6
99957.2
99954.7
99952.2
99949.5
99946.8
99944
99941.1
99938.1
99935.1
99931.9
99928.6
99925.3
99921.8
99918.3
99914.6
99910.9
99907
99903
99898.8
99894.6
99890.2
99885.7
99881
99876.2
99871.2
99866.1
99860.8
99855.4
99849.8
99844
99838
99831.8
99825.5
99818.9
99812.1
99805.1
99797.9
99790.4
99782.6
99774.6
99766.3
99757.7
99748.8
99739.5
99729.9
99719.9
99709.4
99698.5
99687
99675
99662.4
99649
99634.9
99620
99604.1
99587.2
99569.2
99549.9
99529.4
99507.4
99484.1
99459.3
99433.3
99406.4
99379.1
99352.7
99328.6
99308.2
99293.4
99287.8
99296
99328.4
99404.7
99571.4
99883.7
100497
99992.5
99993.4
99993
99992.2
99991.2
99990.1
99988.9
99987.7
99986.4
99985
99983.6
99982.1
99980.6
99978.9
99977.2
99975.5
99973.7
99971.8
99969.8
99967.8
99965.7
99963.5
99961.2
99958.9
99956.5
99954
99951.4
99948.8
99946.1
99943.2
99940.3
99937.3
99934.3
99931.1
99927.8
99924.5
99921
99917.4
99913.8
99910
99906.1
99902.1
99898
99893.7
99889.3
99884.8
99880.2
99875.4
99870.4
99865.3
99860.1
99854.7
99849.1
99843.3
99837.4
99831.3
99824.9
99818.4
99811.7
99804.7
99797.5
99790.1
99782.4
99774.4
99766.2
99757.6
99748.8
99739.6
99730
99720
99709.6
99698.7
99687.3
99675.3
99662.7
99649.4
99635.3
99620.3
99604.4
99587.4
99569.3
99549.9
99529.2
99507
99483.2
99458
99431.4
99403.5
99375.1
99347.2
99321.1
99298.1
99280
99267.2
99261.1
99267.5
99296.1
99373.3
99551.4
100102
99994.3
99994.2
99993.4
99992.3
99991.1
99990
99988.7
99987.5
99986.1
99984.7
99983.3
99981.8
99980.2
99978.6
99976.9
99975.1
99973.3
99971.3
99969.4
99967.3
99965.2
99963
99960.7
99958.4
99955.9
99953.4
99950.8
99948.2
99945.4
99942.6
99939.7
99936.6
99933.5
99930.3
99927.1
99923.7
99920.2
99916.6
99912.9
99909.1
99905.2
99901.2
99897
99892.7
99888.3
99883.8
99879.1
99874.3
99869.4
99864.2
99859
99853.6
99848
99842.2
99836.3
99830.1
99823.8
99817.3
99810.5
99803.6
99796.4
99789
99781.3
99773.4
99765.1
99756.6
99747.8
99738.7
99729.2
99719.3
99708.9
99698.1
99686.8
99674.8
99662.3
99649
99635
99620
99604.1
99587.1
99568.9
99549.4
99528.5
99506.1
99482.1
99456.5
99429.3
99400.6
99371.3
99341.9
99313.9
99288.6
99267.6
99250
99232.3
99217.2
99205.3
99198.7
99208.9
99600.7
99995.8
99995
99993.8
99992.5
99991.3
99990
99988.8
99987.5
99986.1
99984.7
99983.3
99981.7
99980.2
99978.5
99976.8
99975
99973.2
99971.2
99969.2
99967.2
99965
99962.8
99960.5
99958.2
99955.7
99953.2
99950.6
99947.9
99945.1
99942.3
99939.4
99936.3
99933.2
99930
99926.7
99923.3
99919.8
99916.2
99912.5
99908.7
99904.7
99900.7
99896.5
99892.2
99887.8
99883.2
99878.5
99873.7
99868.7
99863.5
99858.2
99852.7
99847.1
99841.3
99835.3
99829.1
99822.7
99816.2
99809.4
99802.4
99795.2
99787.7
99780
99772.1
99763.8
99755.3
99746.4
99737.2
99727.7
99717.7
99707.4
99696.5
99685.2
99673.2
99660.7
99647.4
99633.3
99618.3
99602.4
99585.4
99567.1
99547.6
99526.6
99504.1
99480
99454.1
99426.6
99397.4
99367.2
99336.8
99307.4
99280.6
99257.4
99237.9
99212.6
99183.2
99142.8
99072.5
98904.9
98963.6
99997.1
99995.7
99994.2
99992.8
99991.5
99990.3
99989
99987.7
99986.3
99984.9
99983.5
99981.9
99980.4
99978.7
99977
99975.2
99973.4
99971.4
99969.4
99967.4
99965.2
99963
99960.7
99958.4
99955.9
99953.4
99950.8
99948.1
99945.3
99942.5
99939.5
99936.5
99933.4
99930.2
99926.9
99923.5
99919.9
99916.3
99912.6
99908.8
99904.8
99900.8
99896.6
99892.3
99887.8
99883.3
99878.6
99873.7
99868.7
99863.5
99858.2
99852.7
99847
99841.2
99835.1
99828.9
99822.5
99815.9
99809.1
99802.1
99794.8
99787.3
99779.6
99771.6
99763.3
99754.7
99745.8
99736.6
99727
99717
99706.6
99695.7
99684.2
99672.2
99659.6
99646.2
99632
99616.9
99600.8
99583.6
99565.2
99545.4
99524.2
99501.4
99476.9
99450.7
99422.7
99392.9
99361.9
99330.2
99299.3
99270.6
99244.2
99221.1
99200.1
99166.3
99110.6
99003
98695.4
98108.1
99998.6
99996.3
99994.7
99993.2
99991.9
99990.6
99989.3
99988
99986.7
99985.3
99983.8
99982.3
99980.7
99979.1
99977.4
99975.6
99973.7
99971.8
99969.8
99967.8
99965.6
99963.4
99961.2
99958.8
99956.3
99953.8
99951.2
99948.6
99945.8
99942.9
99940
99937
99933.9
99930.7
99927.4
99924
99920.5
99916.8
99913.1
99909.3
99905.4
99901.3
99897.1
99892.8
99888.4
99883.8
99879.1
99874.3
99869.3
99864.1
99858.8
99853.3
99847.6
99841.8
99835.8
99829.5
99823.1
99816.5
99809.7
99802.7
99795.4
99787.9
99780.2
99772.1
99763.9
99755.3
99746.4
99737.2
99727.6
99717.6
99707.1
99696.2
99684.8
99672.8
99660.1
99646.7
99632.5
99617.4
99601.3
99584.1
99565.6
99545.8
99524.6
99501.7
99477.2
99450.9
99422.7
99392.8
99361.6
99329.9
99299.3
99270.8
99245.2
99219.6
99188.2
99146.1
99087.9
98970.8
98598.2
96962.1
100618
101845
102366
102662
102863
103013
103130
103225
103302
103366
103420
103464
103501
103531
103555
103573
103586
103593
103595
103591
100570
101560
102170
102551
102805
102986
103123
103229
103315
103384
103441
103487
103525
103555
103579
103596
103607
103612
103611
103603
100844
101588
102112
102492
102764
102963
103114
103231
103323
103397
103457
103505
103543
103573
103596
103611
103621
103624
103623
103610
101105
101710
102154
102499
102763
102965
103121
103243
103339
103416
103477
103526
103564
103593
103614
103627
103635
103636
103633
103615
101327
101840
102228
102540
102788
102985
103140
103263
103361
103439
103501
103549
103586
103613
103632
103643
103648
103648
103643
103619
101512
101959
102308
102594
102827
103015
103167
103289
103386
103464
103525
103573
103608
103633
103649
103658
103661
103658
103650
103621
101661
102061
102381
102648
102868
103049
103197
103316
103413
103490
103550
103596
103630
103653
103666
103672
103672
103668
103656
103623
101771
102139
102440
102694
102905
103081
103225
103343
103438
103515
103574
103619
103650
103670
103681
103684
103682
103675
103660
103625
101843
102192
102482
102727
102934
103106
103248
103365
103460
103535
103594
103637
103667
103685
103693
103694
103690
103681
103662
103628
101877
102217
102503
102745
102949
103120
103261
103377
103472
103547
103605
103648
103678
103695
103702
103701
103695
103685
103663
103630
101866
102206
102492
102735
102940
103111
103254
103371
103465
103541
103600
103644
103674
103691
103699
103698
103692
103681
103663
103630
101813
102164
102456
102703
102911
103085
103230
103348
103445
103522
103582
103627
103659
103678
103688
103689
103685
103676
103659
103628
101726
102098
102402
102659
102874
103052
103199
103320
103418
103497
103559
103606
103639
103661
103673
103678
103676
103669
103655
103627
101602
102007
102332
102603
102828
103014
103165
103289
103389
103469
103532
103581
103617
103642
103657
103664
103665
103661
103650
103616
101442
101895
102249
102541
102780
102974
103131
103257
103359
103440
103505
103555
103594
103621
103639
103650
103653
103651
103644
103613
101246
101766
102161
102480
102735
102938
103100
103228
103331
103413
103478
103530
103570
103600
103620
103633
103640
103640
103635
103610
101014
101628
102080
102434
102706
102915
103078
103206
103307
103389
103454
103506
103547
103578
103601
103617
103625
103628
103625
103606
100742
101497
102032
102422
102704
102912
103069
103192
103290
103368
103432
103483
103525
103557
103582
103599
103610
103614
103613
103600
100456
101465
102089
102482
102745
102934
103078
103190
103281
103355
103415
103465
103506
103538
103564
103583
103595
103601
103601
103592
100496
101753
102289
102595
102804
102961
103084
103184
103267
103335
103392
103440
103480
103512
103538
103558
103573
103581
103583
103579
103426
103424
103423
103423
103422
103421
103421
103420
103420
103420
103420
103420
103420
103421
103421
103422
103423
103423
103424
103426
103423
103421
103421
103420
103420
103420
103419
103419
103419
103419
103419
103419
103419
103419
103420
103420
103420
103421
103421
103423
103422
103420
103420
103420
103420
103420
103420
103420
103420
103420
103420
103420
103420
103420
103420
103420
103420
103420
103420
103422
103422
103421
103421
103420
103420
103420
103420
103420
103420
103420
103420
103420
103420
103420
103420
103420
103420
103421
103421
103422
103422
103420
103420
103420
103420
103420
103420
103420
103420
103420
103420
103420
103420
103420
103420
103420
103420
103420
103420
103422
103421
103420
103420
103419
103419
103419
103419
103419
103419
103419
103419
103419
103419
103419
103419
103419
103419
103420
103420
103421
103421
103419
103419
103419
103419
103419
103419
103419
103419
103419
103419
103419
103419
103419
103419
103419
103419
103419
103419
103421
103420
103418
103418
103418
103418
103418
103418
103418
103418
103418
103418
103418
103418
103418
103418
103418
103418
103418
103418
103420
103419
103418
103418
103418
103417
103417
103417
103417
103417
103417
103417
103417
103417
103417
103417
103417
103418
103418
103418
103419
103419
103417
103417
103417
103417
103417
103417
103417
103417
103417
103417
103417
103417
103417
103417
103417
103417
103417
103417
103419
103418
103416
103416
103416
103416
103416
103416
103416
103416
103416
103416
103416
103416
103416
103416
103416
103416
103416
103416
103418
103417
103416
103416
103416
103415
103415
103415
103415
103415
103415
103415
103415
103415
103415
103415
103415
103416
103416
103416
103417
103417
103415
103415
103415
103415
103415
103415
103415
103415
103415
103415
103415
103415
103415
103415
103415
103415
103415
103415
103417
103416
103414
103414
103414
103414
103414
103414
103414
103414
103414
103414
103414
103414
103414
103414
103414
103414
103414
103414
103416
103415
103414
103413
103413
103413
103413
103413
103413
103413
103413
103413
103413
103413
103413
103413
103413
103413
103413
103414
103415
103414
103413
103413
103413
103412
103412
103412
103412
103412
103412
103412
103412
103412
103412
103412
103412
103413
103413
103413
103414
103413
103412
103412
103412
103412
103412
103412
103412
103412
103412
103412
103412
103412
103412
103412
103412
103412
103412
103412
103413
103413
103411
103411
103411
103411
103411
103411
103411
103411
103411
103411
103411
103411
103411
103411
103411
103411
103411
103411
103413
103412
103410
103410
103410
103410
103410
103410
103410
103410
103410
103410
103410
103410
103410
103410
103410
103410
103410
103410
103412
103411
103410
103410
103409
103409
103409
103409
103409
103409
103409
103409
103409
103409
103409
103409
103409
103409
103410
103410
103411
103410
103409
103409
103409
103409
103409
103408
103408
103408
103408
103408
103408
103408
103408
103409
103409
103409
103409
103409
103410
103409
103408
103408
103408
103408
103408
103408
103408
103408
103408
103408
103408
103408
103408
103408
103408
103408
103408
103408
103409
103409
103407
103407
103407
103407
103407
103407
103407
103407
103407
103407
103407
103407
103407
103407
103407
103407
103407
103407
103409
103408
103406
103406
103406
103406
103406
103406
103406
103406
103406
103406
103406
103406
103406
103406
103406
103406
103406
103406
103408
103407
103406
103406
103405
103405
103405
103405
103405
103405
103405
103405
103405
103405
103405
103405
103405
103405
103405
103406
103407
103406
103405
103405
103405
103405
103405
103404
103404
103404
103404
103404
103404
103404
103404
103405
103405
103405
103405
103405
103406
103405
103404
103404
103404
103404
103404
103404
103404
103404
103404
103404
103404
103404
103404
103404
103404
103404
103404
103404
103405
103404
103403
103403
103403
103403
103403
103403
103403
103403
103403
103403
103403
103403
103403
103403
103403
103403
103403
103403
103404
103403
103402
103402
103402
103402
103402
103402
103402
103402
103402
103402
103402
103402
103402
103402
103402
103402
103402
103402
103403
103403
103402
103401
103401
103401
103401
103401
103401
103401
103401
103401
103401
103401
103401
103401
103401
103401
103401
103402
103403
103402
103401
103401
103401
103401
103401
103400
103400
103400
103400
103400
103400
103400
103400
103401
103401
103401
103401
103401
103402
103401
103400
103400
103400
103400
103400
103400
103400
103400
103400
103400
103400
103400
103400
103400
103400
103400
103400
103400
103401
103400
103399
103399
103399
103399
103399
103399
103399
103399
103399
103399
103399
103399
103399
103399
103399
103399
103399
103399
103400
103399
103398
103398
103398
103398
103398
103398
103398
103398
103398
103398
103398
103398
103398
103398
103398
103398
103398
103398
103399
103398
103398
103397
103397
103397
103397
103397
103397
103397
103397
103397
103397
103397
103397
103397
103397
103397
103397
103398
103398
103398
103397
103397
103397
103397
103397
103397
103397
103396
103396
103396
103396
103397
103397
103397
103397
103397
103397
103397
103398
103397
103396
103396
103396
103396
103396
103396
103396
103396
103396
103396
103396
103396
103396
103396
103396
103396
103396
103396
103397
103396
103395
103395
103395
103395
103395
103395
103395
103395
103395
103395
103395
103395
103395
103395
103395
103395
103395
103395
103396
103395
103394
103394
103394
103394
103394
103394
103394
103394
103394
103394
103394
103394
103394
103394
103394
103394
103394
103394
103395
103394
103394
103394
103394
103394
103393
103393
103393
103393
103393
103393
103393
103393
103393
103393
103394
103394
103394
103394
103394
103393
103393
103393
103393
103393
103393
103393
103393
103393
103393
103393
103393
103393
103393
103393
103393
103393
103393
103393
103393
103393
103392
103392
103392
103392
103392
103392
103392
103392
103392
103392
103392
103392
103392
103392
103392
103392
103392
103392
103393
103392
103391
103391
103391
103391
103391
103391
103391
103391
103391
103391
103391
103391
103391
103391
103391
103391
103391
103391
103392
103391
103391
103391
103391
103390
103390
103390
103390
103390
103390
103390
103390
103390
103390
103390
103390
103391
103391
103391
103391
103390
103390
103390
103390
103390
103390
103390
103390
103390
103390
103390
103390
103390
103390
103390
103390
103390
103390
103390
103390
103390
103389
103389
103389
103389
103389
103389
103389
103389
103389
103389
103389
103389
103389
103389
103389
103389
103389
103389
103390
103389
103388
103388
103388
103388
103388
103388
103388
103388
103388
103388
103388
103388
103388
103388
103388
103388
103388
103388
103389
103388
103388
103388
103388
103388
103388
103388
103387
103387
103387
103387
103387
103387
103388
103388
103388
103388
103388
103388
103388
103387
103387
103387
103387
103387
103387
103387
103387
103387
103387
103387
103387
103387
103387
103387
103387
103387
103387
103387
103387
103387
103386
103386
103386
103386
103386
103386
103386
103386
103386
103386
103386
103386
103386
103386
103386
103386
103386
103386
103387
103386
103386
103385
103385
103385
103385
103385
103385
103385
103385
103385
103385
103385
103385
103385
103385
103385
103385
103386
103386
103385
103385
103385
103385
103385
103385
103385
103385
103385
103385
103385
103385
103385
103385
103385
103385
103385
103385
103385
103385
103384
103384
103384
103384
103384
103384
103384
103384
103384
103384
103384
103384
103384
103384
103384
103384
103384
103384
103384
103384
103384
103383
103383
103383
103383
103383
103383
103383
103383
103383
103383
103383
103383
103383
103383
103383
103383
103383
103383
103384
103383
103383
103383
103383
103383
103383
103383
103383
103383
103383
103383
103383
103383
103383
103383
103383
103383
103383
103383
103383
103382
103382
103382
103382
103382
103382
103382
103382
103382
103382
103382
103382
103382
103382
103382
103382
103382
103382
103382
103382
103382
103381
103381
103381
103381
103381
103381
103381
103381
103381
103381
103381
103381
103381
103381
103381
103381
103381
103381
103382
103381
103381
103381
103381
103381
103381
103381
103381
103381
103381
103381
103381
103381
103381
103381
103381
103381
103381
103381
103381
103380
103380
103380
103380
103380
103380
103380
103380
103380
103380
103380
103380
103380
103380
103380
103380
103380
103380
103380
103380
103380
103379
103379
103379
103379
103379
103379
103379
103379
103379
103379
103379
103379
103379
103379
103379
103379
103379
103379
103380
103379
103379
103379
103379
103379
103379
103379
103379
103379
103379
103379
103379
103379
103379
103379
103379
103379
103379
103379
103379
103378
103378
103378
103378
103378
103378
103378
103378
103378
103378
103378
103378
103378
103378
103378
103378
103378
103378
103378
103378
103378
103378
103378
103378
103378
103378
103378
103378
103378
103378
103378
103378
103378
103378
103378
103378
103378
103378
103378
103378
103377
103377
103377
103377
103377
103377
103377
103377
103377
103377
103377
103377
103377
103377
103377
103377
103377
103377
103377
103377
103377
103376
103376
103376
103376
103376
103376
103376
103376
103376
103376
103376
103376
103376
103376
103376
103376
103376
103376
103377
103376
103376
103376
103376
103376
103376
103376
103376
103376
103376
103376
103376
103376
103376
103376
103376
103376
103376
103376
103376
103376
103375
103375
103375
103375
103375
103375
103375
103375
103375
103375
103375
103375
103375
103375
103375
103375
103375
103375
103375
103375
103375
103375
103375
103375
103375
103375
103375
103375
103375
103375
103375
103375
103375
103375
103375
103375
103375
103375
103375
103375
103374
103374
103374
103374
103374
103374
103374
103374
103374
103374
103374
103374
103374
103374
103374
103374
103374
103374
103375
103374
103373
103373
103373
103373
103373
103374
103374
103374
103374
103374
103374
103374
103374
103374
103374
103374
103374
103374
103374
103374
103373
103373
103373
103373
103373
103373
103373
103373
103373
103373
103373
103373
103373
103373
103373
103373
103373
103373
103374
103373
103372
103372
103372
103372
103372
103372
103372
103372
103373
103373
103373
103373
103373
103373
103372
103372
103372
103373
103373
103372
103372
103372
103372
103372
103372
103372
103372
103372
103372
103372
103372
103372
103372
103372
103372
103372
103372
103372
103373
103372
103371
103371
103371
103371
103371
103371
103371
103371
103371
103371
103371
103371
103371
103371
103371
103371
103371
103372
103372
103372
103370
103370
103370
103370
103371
103371
103371
103371
103371
103371
103371
103371
103371
103371
103371
103371
103371
103371
103372
103371
103370
103370
103370
103370
103370
103370
103370
103370
103370
103370
103370
103370
103370
103370
103370
103370
103371
103371
103371
103371
103369
103369
103369
103369
103369
103369
103370
103370
103370
103370
103370