/*--------------------------------*- C++ -*----------------------------------*\
| =========                 |                                                 |
| \\      /  F ield         | OpenFOAM: The Open Source CFD Toolbox           |
|  \\    /   O peration     | Version:  2.1.0                                 |
|   \\  /    A nd           | Web:      www.OpenFOAM.org                      |
|    \\/     M anipulation  |                                                 |
\*---------------------------------------------------------------------------*/
FoamFile
{
    version     2.0;
    format      ascii;
    class       surfaceScalarField;
    location    "0.17";
    object      phi;
}
// * * * * * * * * * * * * * * * * * * * * * * * * * * * * * * * * * * * * * //

dimensions      [0 3 -1 0 0 0 0];

internalField   nonuniform List<scalar> 
12460
(
-2.4206e-05
6.40778e-10
-2.41783e-05
-2.76969e-08
-2.41318e-05
-4.64807e-08
-2.40749e-05
-5.68719e-08
-2.40115e-05
-6.33879e-08
-2.39435e-05
-6.80161e-08
-2.3872e-05
-7.15755e-08
-2.37974e-05
-7.45225e-08
-2.37203e-05
-7.71241e-08
-2.36408e-05
-7.95238e-08
-2.3559e-05
-8.18148e-08
-2.34749e-05
-8.40396e-08
-2.33887e-05
-8.62315e-08
-2.33003e-05
-8.84002e-08
-2.32097e-05
-9.05618e-08
-2.3117e-05
-9.27135e-08
-2.30222e-05
-9.48659e-08
-2.29251e-05
-9.70129e-08
-2.2826e-05
-9.91682e-08
-2.27246e-05
-1.01324e-07
-2.26212e-05
-1.03463e-07
-2.25155e-05
-1.05637e-07
-2.24077e-05
-1.07893e-07
-2.22975e-05
-1.10188e-07
-2.21849e-05
-1.12526e-07
-2.207e-05
-1.14919e-07
-2.19526e-05
-1.17374e-07
-2.18328e-05
-1.19894e-07
-2.17103e-05
-1.22482e-07
-2.15851e-05
-1.25142e-07
-2.14573e-05
-1.27878e-07
-2.13266e-05
-1.30702e-07
-2.11929e-05
-1.33613e-07
-2.10563e-05
-1.36617e-07
-2.09166e-05
-1.39727e-07
-2.07736e-05
-1.42956e-07
-2.06273e-05
-1.46306e-07
-2.04775e-05
-1.49796e-07
-2.03241e-05
-1.53434e-07
-2.01669e-05
-1.57239e-07
-2.00056e-05
-1.61216e-07
-1.98403e-05
-1.65372e-07
-1.96706e-05
-1.69708e-07
-1.94963e-05
-1.74226e-07
-1.93174e-05
-1.78927e-07
-1.91336e-05
-1.83807e-07
-1.89447e-05
-1.88861e-07
-1.87506e-05
-1.94096e-07
-1.85513e-05
-1.99381e-07
-1.83465e-05
-2.04773e-07
-1.81359e-05
-2.10554e-07
-1.79193e-05
-2.16683e-07
-1.76964e-05
-2.22883e-07
-1.74675e-05
-2.28876e-07
-1.72329e-05
-2.34628e-07
-1.69926e-05
-2.40295e-07
-1.67466e-05
-2.45994e-07
-1.64948e-05
-2.51775e-07
-1.62372e-05
-2.57624e-07
-1.59736e-05
-2.63558e-07
-1.5704e-05
-2.69604e-07
-1.54283e-05
-2.75764e-07
-1.51462e-05
-2.82063e-07
-1.48577e-05
-2.88523e-07
-1.45625e-05
-2.95173e-07
-1.42605e-05
-3.02025e-07
-1.39514e-05
-3.09078e-07
-1.36351e-05
-3.16306e-07
-1.33114e-05
-3.237e-07
-1.29802e-05
-3.31244e-07
-1.26412e-05
-3.38936e-07
-1.22943e-05
-3.4687e-07
-1.19392e-05
-3.55145e-07
-1.15754e-05
-3.63768e-07
-1.12027e-05
-3.72771e-07
-1.08204e-05
-3.82277e-07
-1.04279e-05
-3.92477e-07
-1.00243e-05
-4.03653e-07
-9.60809e-06
-4.16187e-07
-9.17751e-06
-4.30588e-07
-8.73003e-06
-4.47484e-07
-8.26241e-06
-4.67624e-07
-7.77062e-06
-4.918e-07
-7.24994e-06
-5.20697e-07
-6.69496e-06
-5.54998e-07
-6.09977e-06
-5.95205e-07
-5.45853e-06
-6.41266e-07
-4.76651e-06
-6.92048e-07
-4.02216e-06
-7.44383e-07
-3.23102e-06
-7.91178e-07
-2.41334e-06
-8.17735e-07
-1.61952e-06
-7.93872e-07
-9.459e-07
-6.73676e-07
-5.12313e-07
-4.33633e-07
-3.79281e-07
-1.33052e-07
-6.16628e-07
2.37377e-07
-1.49025e-06
8.736e-07
-3.69544e-06
2.20432e-06
-8.96852e-06
5.26975e-06
1.46049e-05
-2.35813e-05
-2.93881e-05
-1.30339e-08
-2.93454e-05
-7.04667e-08
-2.92898e-05
-1.0208e-07
-2.92266e-05
-1.19997e-07
-2.91585e-05
-1.31551e-07
-2.90867e-05
-1.39795e-07
-2.90121e-05
-1.46137e-07
-2.89353e-05
-1.51388e-07
-2.88563e-05
-1.56035e-07
-2.87755e-05
-1.60329e-07
-2.86929e-05
-1.64444e-07
-2.86085e-05
-1.68453e-07
-2.85223e-05
-1.7242e-07
-2.84344e-05
-1.76359e-07
-2.83446e-05
-1.80301e-07
-2.82531e-05
-1.84235e-07
-2.81598e-05
-1.8818e-07
-2.80647e-05
-1.92121e-07
-2.79678e-05
-1.96075e-07
-2.78691e-05
-2.00032e-07
-2.77686e-05
-2.03914e-07
-2.76664e-05
-2.07812e-07
-2.75625e-05
-2.11855e-07
-2.74567e-05
-2.15928e-07
-2.73492e-05
-2.20056e-07
-2.72399e-05
-2.2426e-07
-2.71287e-05
-2.28559e-07
-2.70156e-05
-2.32955e-07
-2.69006e-05
-2.3745e-07
-2.67837e-05
-2.42054e-07
-2.66648e-05
-2.46771e-07
-2.65439e-05
-2.51622e-07
-2.64209e-05
-2.56616e-07
-2.62958e-05
-2.61755e-07
-2.61684e-05
-2.67061e-07
-2.60389e-05
-2.72547e-07
-2.59069e-05
-2.78217e-07
-2.57726e-05
-2.84093e-07
-2.56359e-05
-2.90187e-07
-2.54966e-05
-2.96516e-07
-2.53547e-05
-3.03099e-07
-2.52101e-05
-3.09959e-07
-2.50627e-05
-3.17105e-07
-2.49124e-05
-3.24553e-07
-2.4759e-05
-3.3231e-07
-2.46025e-05
-3.40384e-07
-2.44425e-05
-3.48785e-07
-2.42791e-05
-3.57524e-07
-2.4112e-05
-3.66462e-07
-2.39414e-05
-3.75445e-07
-2.37675e-05
-3.84447e-07
-2.35907e-05
-3.93444e-07
-2.34112e-05
-4.02417e-07
-2.32287e-05
-4.11322e-07
-2.30432e-05
-4.20102e-07
-2.28547e-05
-4.28809e-07
-2.26632e-05
-4.37523e-07
-2.24687e-05
-4.46299e-07
-2.22712e-05
-4.55144e-07
-2.20707e-05
-4.64053e-07
-2.18673e-05
-4.73013e-07
-2.1661e-05
-4.82021e-07
-2.1452e-05
-4.91098e-07
-2.12402e-05
-5.00289e-07
-2.10258e-05
-5.09621e-07
-2.08087e-05
-5.19089e-07
-2.05891e-05
-5.28704e-07
-2.03669e-05
-5.38445e-07
-2.01423e-05
-5.48312e-07
-1.99153e-05
-5.58295e-07
-1.96858e-05
-5.684e-07
-1.94539e-05
-5.78817e-07
-1.92193e-05
-5.89786e-07
-1.89817e-05
-6.01362e-07
-1.87409e-05
-6.13625e-07
-1.84964e-05
-6.26805e-07
-1.82476e-05
-6.41241e-07
-1.79939e-05
-6.5741e-07
-1.77342e-05
-6.75926e-07
-1.74673e-05
-6.97578e-07
-1.71915e-05
-7.23298e-07
-1.6905e-05
-7.54198e-07
-1.66054e-05
-7.91526e-07
-1.62898e-05
-8.36392e-07
-1.59551e-05
-8.89816e-07
-1.55981e-05
-9.52449e-07
-1.52156e-05
-1.02399e-06
-1.48055e-05
-1.10236e-06
-1.43679e-05
-1.18238e-06
-1.39063e-05
-1.2532e-06
-1.34309e-05
-1.29363e-06
-1.29597e-05
-1.26577e-06
-1.25216e-05
-1.11266e-06
-1.21902e-05
-7.66108e-07
-1.21514e-05
-1.73394e-07
-1.25868e-05
6.70564e-07
-1.37971e-05
2.08083e-06
-1.628e-05
4.68278e-06
-2.10297e-05
1.0013e-05
2.49915e-05
-3.14272e-05
-3.23447e-05
-3.45368e-08
-3.23056e-05
-1.09565e-07
-3.22564e-05
-1.51243e-07
-3.2201e-05
-1.75415e-07
-3.21416e-05
-1.90986e-07
-3.20794e-05
-2.02005e-07
-3.20151e-05
-2.10376e-07
-3.19493e-05
-2.17275e-07
-3.1882e-05
-2.23326e-07
-3.18134e-05
-2.28918e-07
-3.17436e-05
-2.34256e-07
-3.16725e-05
-2.39471e-07
-3.16003e-05
-2.4463e-07
-3.15269e-05
-2.49778e-07
-3.14523e-05
-2.54944e-07
-3.13764e-05
-2.60134e-07
-3.12992e-05
-2.65362e-07
-3.12207e-05
-2.70634e-07
-3.11408e-05
-2.75963e-07
-3.10595e-05
-2.81359e-07
-3.09767e-05
-2.8672e-07
-3.08925e-05
-2.92004e-07
-3.08071e-05
-2.97259e-07
-3.07205e-05
-3.02463e-07
-3.06329e-05
-3.07688e-07
-3.05442e-05
-3.12989e-07
-3.04543e-05
-3.18391e-07
-3.03634e-05
-3.23887e-07
-3.02714e-05
-3.29477e-07
-3.01783e-05
-3.35169e-07
-3.00841e-05
-3.40964e-07
-2.99888e-05
-3.46883e-07
-2.98925e-05
-3.52943e-07
-2.97951e-05
-3.59133e-07
-2.96967e-05
-3.65478e-07
-2.95972e-05
-3.71991e-07
-2.94968e-05
-3.78667e-07
-2.93954e-05
-3.85527e-07
-2.9293e-05
-3.9258e-07
-2.91896e-05
-3.99834e-07
-2.90855e-05
-4.07297e-07
-2.89804e-05
-4.14991e-07
-2.88746e-05
-4.22918e-07
-2.87681e-05
-4.31094e-07
-2.86609e-05
-4.39519e-07
-2.85531e-05
-4.48187e-07
-2.84447e-05
-4.57101e-07
-2.8336e-05
-4.66216e-07
-2.8227e-05
-4.75461e-07
-2.81177e-05
-4.84754e-07
-2.80083e-05
-4.93895e-07
-2.7899e-05
-5.0277e-07
-2.77899e-05
-5.11468e-07
-2.76811e-05
-5.20132e-07
-2.75724e-05
-5.28765e-07
-2.7464e-05
-5.37301e-07
-2.73558e-05
-5.4571e-07
-2.72481e-05
-5.53991e-07
-2.71411e-05
-5.62138e-07
-2.7035e-05
-5.70125e-07
-2.69301e-05
-5.7789e-07
-2.68268e-05
-5.85391e-07
-2.67253e-05
-5.92616e-07
-2.6626e-05
-5.99607e-07
-2.65292e-05
-6.06367e-07
-2.64355e-05
-6.12833e-07
-2.63452e-05
-6.18983e-07
-2.62589e-05
-6.24778e-07
-2.6177e-05
-6.30186e-07
-2.61002e-05
-6.35172e-07
-2.60289e-05
-6.3969e-07
-2.59638e-05
-6.43961e-07
-2.59053e-05
-6.48406e-07
-2.58536e-05
-6.53117e-07
-2.58091e-05
-6.58182e-07
-2.5772e-05
-6.63925e-07
-2.57426e-05
-6.70818e-07
-2.57206e-05
-6.79534e-07
-2.57058e-05
-6.90922e-07
-2.56975e-05
-7.0605e-07
-2.56949e-05
-7.26152e-07
-2.56968e-05
-7.52654e-07
-2.57015e-05
-7.87144e-07
-2.57072e-05
-8.31215e-07
-2.57114e-05
-8.86178e-07
-2.57118e-05
-9.52747e-07
-2.57063e-05
-1.03045e-06
-2.56933e-05
-1.11643e-06
-2.56728e-05
-1.20419e-06
-2.56469e-05
-1.28076e-06
-2.56205e-05
-1.32195e-06
-2.56013e-05
-1.2873e-06
-2.56004e-05
-1.11637e-06
-2.56465e-05
-7.23326e-07
-2.57954e-05
-2.83291e-08
-2.62119e-05
1.08259e-06
-2.70902e-05
2.95377e-06
-2.88069e-05
6.39286e-06
-3.20574e-05
1.32551e-05
2.92655e-05
-3.63443e-05
-3.50453e-05
-5.68175e-08
-3.5016e-05
-1.38849e-07
-3.49805e-05
-1.86686e-07
-3.49406e-05
-2.15317e-07
-3.48979e-05
-2.33764e-07
-3.48533e-05
-2.46578e-07
-3.48076e-05
-2.56115e-07
-3.4761e-05
-2.63832e-07
-3.47138e-05
-2.70482e-07
-3.46662e-05
-2.76555e-07
-3.46182e-05
-2.82287e-07
-3.45698e-05
-2.87857e-07
-3.45211e-05
-2.93326e-07
-3.44721e-05
-2.98763e-07
-3.44229e-05
-3.04196e-07
-3.43733e-05
-3.09636e-07
-3.43236e-05
-3.15088e-07
-3.42737e-05
-3.20574e-07
-3.42236e-05
-3.26074e-07
-3.41734e-05
-3.31572e-07
-3.4123e-05
-3.37073e-07
-3.40724e-05
-3.42561e-07
-3.40218e-05
-3.47947e-07
-3.3971e-05
-3.53214e-07
-3.39203e-05
-3.5844e-07
-3.38695e-05
-3.63709e-07
-3.38189e-05
-3.69055e-07
-3.37683e-05
-3.74448e-07
-3.37179e-05
-3.79888e-07
-3.36677e-05
-3.85371e-07
-3.36178e-05
-3.90895e-07
-3.35682e-05
-3.96467e-07
-3.3519e-05
-4.021e-07
-3.34704e-05
-4.07787e-07
-3.34223e-05
-4.13543e-07
-3.33749e-05
-4.19366e-07
-3.33284e-05
-4.25251e-07
-3.32827e-05
-4.31204e-07
-3.3238e-05
-4.37231e-07
-3.31945e-05
-4.43323e-07
-3.31524e-05
-4.49474e-07
-3.31117e-05
-4.55683e-07
-3.30726e-05
-4.61934e-07
-3.30355e-05
-4.68218e-07
-3.30005e-05
-4.74524e-07
-3.29679e-05
-4.80827e-07
-3.29379e-05
-4.87094e-07
-3.29109e-05
-4.93256e-07
-3.28871e-05
-4.99258e-07
-3.28666e-05
-5.05242e-07
-3.28492e-05
-5.11243e-07
-3.28349e-05
-5.17083e-07
-3.28237e-05
-5.22676e-07
-3.28158e-05
-5.27995e-07
-3.28115e-05
-5.33079e-07
-3.28109e-05
-5.37908e-07
-3.28143e-05
-5.42361e-07
-3.28219e-05
-5.464e-07
-3.28341e-05
-5.4997e-07
-3.28511e-05
-5.53042e-07
-3.28735e-05
-5.55555e-07
-3.29015e-05
-5.5743e-07
-3.29355e-05
-5.58639e-07
-3.29759e-05
-5.59239e-07
-3.3023e-05
-5.59269e-07
-3.30772e-05
-5.58664e-07
-3.31388e-05
-5.57395e-07
-3.32082e-05
-5.55438e-07
-3.32857e-05
-5.52784e-07
-3.33715e-05
-5.49458e-07
-3.34659e-05
-5.45354e-07
-3.35692e-05
-5.40796e-07
-3.36811e-05
-5.36554e-07
-3.38016e-05
-5.3284e-07
-3.39302e-05
-5.29793e-07
-3.40664e-05
-5.27905e-07
-3.42097e-05
-5.27822e-07
-3.43592e-05
-5.30414e-07
-3.45139e-05
-5.36725e-07
-3.46724e-05
-5.48027e-07
-3.48334e-05
-5.65741e-07
-3.49954e-05
-5.91469e-07
-3.51565e-05
-6.2688e-07
-3.53152e-05
-6.73591e-07
-3.54698e-05
-7.32797e-07
-3.5619e-05
-8.05004e-07
-3.57618e-05
-8.89329e-07
-3.5898e-05
-9.82267e-07
-3.60282e-05
-1.0762e-06
-3.61545e-05
-1.15717e-06
-3.62785e-05
-1.20095e-06
-3.64005e-05
-1.16873e-06
-3.65191e-05
-1.00172e-06
-3.66334e-05
-6.13331e-07
-3.6748e-05
8.13694e-08
-3.69674e-05
1.29645e-06
-3.74196e-05
3.39958e-06
-3.82694e-05
7.23511e-06
-3.96922e-05
1.46688e-05
2.91839e-05
-3.96237e-05
-3.78208e-05
-7.29053e-08
-3.78067e-05
-1.5297e-07
-3.77918e-05
-2.01534e-07
-3.77757e-05
-2.31473e-07
-3.77587e-05
-2.50768e-07
-3.77414e-05
-2.63811e-07
-3.77243e-05
-2.73265e-07
-3.77075e-05
-2.80627e-07
-3.76912e-05
-2.86805e-07
-3.76754e-05
-2.92269e-07
-3.76604e-05
-2.97331e-07
-3.76461e-05
-3.02144e-07
-3.76326e-05
-3.06802e-07
-3.76201e-05
-3.11343e-07
-3.76084e-05
-3.15814e-07
-3.75979e-05
-3.20209e-07
-3.75884e-05
-3.24538e-07
-3.75802e-05
-3.2879e-07
-3.75733e-05
-3.3295e-07
-3.75679e-05
-3.36973e-07
-3.75641e-05
-3.40922e-07
-3.75617e-05
-3.44921e-07
-3.75607e-05
-3.48937e-07
-3.75611e-05
-3.52817e-07
-3.7563e-05
-3.56568e-07
-3.75664e-05
-3.60309e-07
-3.75714e-05
-3.6408e-07
-3.7578e-05
-3.67825e-07
-3.75863e-05
-3.71536e-07
-3.75965e-05
-3.75191e-07
-3.76086e-05
-3.78792e-07
-3.76227e-05
-3.82344e-07
-3.7639e-05
-3.85847e-07
-3.76575e-05
-3.89304e-07
-3.76783e-05
-3.92723e-07
-3.77016e-05
-3.96093e-07
-3.77274e-05
-3.9941e-07
-3.77559e-05
-4.02669e-07
-3.77873e-05
-4.05878e-07
-3.78216e-05
-4.0902e-07
-3.7859e-05
-4.12088e-07
-3.78996e-05
-4.1508e-07
-3.79435e-05
-4.17984e-07
-3.7991e-05
-4.20791e-07
-3.8042e-05
-4.23494e-07
-3.80967e-05
-4.26084e-07
-3.81553e-05
-4.2853e-07
-3.82178e-05
-4.30788e-07
-3.82842e-05
-4.32854e-07
-3.83546e-05
-4.34811e-07
-3.84292e-05
-4.36653e-07
-3.8508e-05
-4.38278e-07
-3.85911e-05
-4.39637e-07
-3.86785e-05
-4.40565e-07
-3.87704e-05
-4.4117e-07
-3.88668e-05
-4.41545e-07
-3.89677e-05
-4.41512e-07
-3.9073e-05
-4.41053e-07
-3.91829e-05
-4.4014e-07
-3.92972e-05
-4.3876e-07
-3.94159e-05
-4.36859e-07
-3.9539e-05
-4.34361e-07
-3.96665e-05
-4.31217e-07
-3.97982e-05
-4.2754e-07
-3.99341e-05
-4.23437e-07
-4.0074e-05
-4.18835e-07
-4.02178e-05
-4.13687e-07
-4.03654e-05
-4.0797e-07
-4.05166e-05
-4.01679e-07
-4.06714e-05
-3.94852e-07
-4.08296e-05
-3.87279e-07
-4.09916e-05
-3.79063e-07
-4.11574e-05
-3.70978e-07
-4.13272e-05
-3.6335e-07
-4.15008e-05
-3.56584e-07
-4.16779e-05
-3.51273e-07
-4.18581e-05
-3.4813e-07
-4.2041e-05
-3.48093e-07
-4.22261e-05
-3.52292e-07
-4.24129e-05
-3.62084e-07
-4.26006e-05
-3.78955e-07
-4.27886e-05
-4.04533e-07
-4.29762e-05
-4.4052e-07
-4.31626e-05
-4.88576e-07
-4.33471e-05
-5.4984e-07
-4.35293e-05
-6.24683e-07
-4.37087e-05
-7.12026e-07
-4.3885e-05
-8.0827e-07
-4.4058e-05
-9.05888e-07
-4.4227e-05
-9.91108e-07
-4.43903e-05
-1.04098e-06
-4.45424e-05
-1.02039e-06
-4.46703e-05
-8.77922e-07
-4.47525e-05
-5.35711e-07
-4.47849e-05
1.08724e-07
-4.4797e-05
1.30289e-06
-4.48084e-05
3.4046e-06
-4.48173e-05
7.23656e-06
-4.45122e-05
1.43548e-05
2.63516e-05
-4.16913e-05
-4.08233e-05
-7.72525e-08
-4.08297e-05
-1.46532e-07
-4.08417e-05
-1.89561e-07
-4.08567e-05
-2.16504e-07
-4.08737e-05
-2.33688e-07
-4.08927e-05
-2.44883e-07
-4.09133e-05
-2.52619e-07
-4.09357e-05
-2.58272e-07
-4.09597e-05
-2.62755e-07
-4.09855e-05
-2.66486e-07
-4.1013e-05
-2.69803e-07
-4.10424e-05
-2.7282e-07
-4.10735e-05
-2.75656e-07
-4.11065e-05
-2.78324e-07
-4.11415e-05
-2.80875e-07
-4.11784e-05
-2.8329e-07
-4.12173e-05
-2.85598e-07
-4.12583e-05
-2.87768e-07
-4.13015e-05
-2.89802e-07
-4.13468e-05
-2.91673e-07
-4.13943e-05
-2.93446e-07
-4.1444e-05
-2.95156e-07
-4.14961e-05
-2.96844e-07
-4.15506e-05
-2.98342e-07
-4.16076e-05
-2.99579e-07
-4.16671e-05
-3.00774e-07
-4.17292e-05
-3.01982e-07
-4.17939e-05
-3.03114e-07
-4.18613e-05
-3.04182e-07
-4.19313e-05
-3.05159e-07
-4.20041e-05
-3.06054e-07
-4.20795e-05
-3.0688e-07
-4.21577e-05
-3.07653e-07
-4.22386e-05
-3.08369e-07
-4.23223e-05
-3.09055e-07
-4.24087e-05
-3.09705e-07
-4.24978e-05
-3.10328e-07
-4.25895e-05
-3.10917e-07
-4.26839e-05
-3.1149e-07
-4.27809e-05
-3.12042e-07
-4.28804e-05
-3.12573e-07
-4.29824e-05
-3.13086e-07
-4.30868e-05
-3.13582e-07
-4.31936e-05
-3.14054e-07
-4.33025e-05
-3.14504e-07
-4.34137e-05
-3.14924e-07
-4.3527e-05
-3.15288e-07
-4.36422e-05
-3.15573e-07
-4.37592e-05
-3.15782e-07
-4.38781e-05
-3.15952e-07
-4.39987e-05
-3.16057e-07
-4.4121e-05
-3.16038e-07
-4.42448e-05
-3.15858e-07
-4.437e-05
-3.15322e-07
-4.44969e-05
-3.14323e-07
-4.46255e-05
-3.12918e-07
-4.47559e-05
-3.11121e-07
-4.4888e-05
-3.08958e-07
-4.50218e-05
-3.06407e-07
-4.51572e-05
-3.03445e-07
-4.52941e-05
-3.0001e-07
-4.54325e-05
-2.95994e-07
-4.55725e-05
-2.91262e-07
-4.57142e-05
-2.85942e-07
-4.58574e-05
-2.80271e-07
-4.60023e-05
-2.74081e-07
-4.61488e-05
-2.6729e-07
-4.62971e-05
-2.5985e-07
-4.64472e-05
-2.51748e-07
-4.65993e-05
-2.42989e-07
-4.67535e-05
-2.33285e-07
-4.69102e-05
-2.22724e-07
-4.70688e-05
-2.12682e-07
-4.72294e-05
-2.03133e-07
-4.7392e-05
-1.9441e-07
-4.75567e-05
-1.8714e-07
-4.77233e-05
-1.82095e-07
-4.78918e-05
-1.80251e-07
-4.80621e-05
-1.82795e-07
-4.82339e-05
-1.91128e-07
-4.8407e-05
-2.0681e-07
-4.85812e-05
-2.31427e-07
-4.87563e-05
-2.66672e-07
-4.8932e-05
-3.14296e-07
-4.91081e-05
-3.75321e-07
-4.92846e-05
-4.50017e-07
-4.94611e-05
-5.37443e-07
-4.96374e-05
-6.34197e-07
-4.98124e-05
-7.33361e-07
-4.99839e-05
-8.22342e-07
-5.01471e-05
-8.80884e-07
-5.02921e-05
-8.78769e-07
-5.0399e-05
-7.74674e-07
-5.04349e-05
-5.03939e-07
-5.03729e-05
4.21931e-08
-5.01885e-05
1.11336e-06
-4.98007e-05
3.01112e-06
-4.90488e-05
6.47819e-06
-4.73453e-05
1.26437e-05
2.18639e-05
-4.28661e-05
-4.39904e-05
-6.80992e-08
-4.40196e-05
-1.17413e-07
-4.40594e-05
-1.49688e-07
-4.41058e-05
-1.70142e-07
-4.41567e-05
-1.82837e-07
-4.42109e-05
-1.90613e-07
-4.42681e-05
-1.95494e-07
-4.43277e-05
-1.98626e-07
-4.43897e-05
-2.00771e-07
-4.44539e-05
-2.0228e-07
-4.45202e-05
-2.03455e-07
-4.45887e-05
-2.0438e-07
-4.46592e-05
-2.0517e-07
-4.47317e-05
-2.05829e-07
-4.48061e-05
-2.0641e-07
-4.48825e-05
-2.06873e-07
-4.49609e-05
-2.07273e-07
-4.50411e-05
-2.07565e-07
-4.51231e-05
-2.07778e-07
-4.52069e-05
-2.07873e-07
-4.52924e-05
-2.07926e-07
-4.53796e-05
-2.07929e-07
-4.54685e-05
-2.07939e-07
-4.55591e-05
-2.07821e-07
-4.56512e-05
-2.07418e-07
-4.57452e-05
-2.06763e-07
-4.58412e-05
-2.05992e-07
-4.59392e-05
-2.05132e-07
-4.60391e-05
-2.0426e-07
-4.61409e-05
-2.03346e-07
-4.62446e-05
-2.02418e-07
-4.635e-05
-2.01472e-07
-4.64571e-05
-2.00559e-07
-4.65658e-05
-1.99672e-07
-4.6676e-05
-1.98849e-07
-4.67876e-05
-1.98074e-07
-4.69006e-05
-1.97385e-07
-4.70147e-05
-1.96766e-07
-4.713e-05
-1.9623e-07
-4.72462e-05
-1.95776e-07
-4.73634e-05
-1.95408e-07
-4.74814e-05
-1.95119e-07
-4.76e-05
-1.94909e-07
-4.77193e-05
-1.94765e-07
-4.78392e-05
-1.94683e-07
-4.79594e-05
-1.94647e-07
-4.80801e-05
-1.94629e-07
-4.82011e-05
-1.94608e-07
-4.83223e-05
-1.94572e-07
-4.84437e-05
-1.94538e-07
-4.85653e-05
-1.94456e-07
-4.86871e-05
-1.94258e-07
-4.88092e-05
-1.93827e-07
-4.89313e-05
-1.93186e-07
-4.90534e-05
-1.92297e-07
-4.91753e-05
-1.9102e-07
-4.92971e-05
-1.89319e-07
-4.94189e-05
-1.87221e-07
-4.95406e-05
-1.84702e-07
-4.96624e-05
-1.81721e-07
-4.97842e-05
-1.78218e-07
-4.99062e-05
-1.74076e-07
-5.00285e-05
-1.69033e-07
-5.01514e-05
-1.63162e-07
-5.02747e-05
-1.57056e-07
-5.03985e-05
-1.50345e-07
-5.0523e-05
-1.42908e-07
-5.06483e-05
-1.34699e-07
-5.07746e-05
-1.2571e-07
-5.09018e-05
-1.1596e-07
-5.103e-05
-1.0531e-07
-5.116e-05
-9.29377e-08
-5.12912e-05
-8.18289e-08
-5.14234e-05
-7.12642e-08
-5.15569e-05
-6.1333e-08
-5.16918e-05
-5.26271e-08
-5.18285e-05
-4.59406e-08
-5.19671e-05
-4.22458e-08
-5.21078e-05
-4.27371e-08
-5.22508e-05
-4.88296e-08
-5.23963e-05
-6.21431e-08
-5.25444e-05
-8.42187e-08
-5.26955e-05
-1.16594e-07
-5.28496e-05
-1.613e-07
-5.3007e-05
-2.19273e-07
-5.31677e-05
-2.90691e-07
-5.33316e-05
-3.7517e-07
-5.34978e-05
-4.69705e-07
-5.36648e-05
-5.68288e-07
-5.3829e-05
-6.60365e-07
-5.39828e-05
-7.294e-07
-5.41126e-05
-7.51653e-07
-5.41963e-05
-6.93864e-07
-5.41897e-05
-5.13792e-07
-5.40508e-05
-1.00294e-07
-5.36853e-05
7.43871e-07
-5.29578e-05
2.27916e-06
-5.15694e-05
5.08483e-06
-4.88321e-05
9.90085e-06
1.64433e-05
-4.34169e-05
-4.69978e-05
-4.74296e-08
-4.70415e-05
-7.36677e-08
-4.70981e-05
-9.30448e-08
-4.71629e-05
-1.05358e-07
-4.72332e-05
-1.12578e-07
-4.73073e-05
-1.16516e-07
-4.73843e-05
-1.18478e-07
-4.74636e-05
-1.19286e-07
-4.7545e-05
-1.19423e-07
-4.76281e-05
-1.19165e-07
-4.77129e-05
-1.18701e-07
-4.77991e-05
-1.18106e-07
-4.78869e-05
-1.17444e-07
-4.7976e-05
-1.16721e-07
-4.80664e-05
-1.15975e-07
-4.81581e-05
-1.15168e-07
-4.8251e-05
-1.14349e-07
-4.83451e-05
-1.1347e-07
-4.84403e-05
-1.12572e-07
-4.85366e-05
-1.11618e-07
-4.86339e-05
-1.10661e-07
-4.87321e-05
-1.09687e-07
-4.88314e-05
-1.08659e-07
-4.89317e-05
-1.07518e-07
-4.90327e-05
-1.06372e-07
-4.91343e-05
-1.05153e-07
-4.92364e-05
-1.03897e-07
-4.93389e-05
-1.02621e-07
-4.94418e-05
-1.01429e-07
-4.95449e-05
-1.00267e-07
-4.96481e-05
-9.91744e-08
-4.97515e-05
-9.81175e-08
-4.98548e-05
-9.71824e-08
-4.99582e-05
-9.63446e-08
-5.00614e-05
-9.5644e-08
-5.01644e-05
-9.50459e-08
-5.02672e-05
-9.46007e-08
-5.03697e-05
-9.42842e-08
-5.04718e-05
-9.40905e-08
-5.05736e-05
-9.40183e-08
-5.06749e-05
-9.40639e-08
-5.07758e-05
-9.42174e-08
-5.08762e-05
-9.44673e-08
-5.09762e-05
-9.47964e-08
-5.10757e-05
-9.51892e-08
-5.11747e-05
-9.56256e-08
-5.12733e-05
-9.60744e-08
-5.13714e-05
-9.65123e-08
-5.14691e-05
-9.69163e-08
-5.15663e-05
-9.72815e-08
-5.16632e-05
-9.75611e-08
-5.17598e-05
-9.76828e-08
-5.18561e-05
-9.75329e-08
-5.19521e-05
-9.7196e-08
-5.20477e-05
-9.66936e-08
-5.21429e-05
-9.58394e-08
-5.22378e-05
-9.45121e-08
-5.23323e-05
-9.26897e-08
-5.24267e-05
-9.0342e-08
-5.2521e-05
-8.7421e-08
-5.26154e-05
-8.38679e-08
-5.27099e-05
-7.95931e-08
-5.28048e-05
-7.42322e-08
-5.29006e-05
-6.74573e-08
-5.29969e-05
-6.07928e-08
-5.3094e-05
-5.3363e-08
-5.3192e-05
-4.49976e-08
-5.32911e-05
-3.56605e-08
-5.33915e-05
-2.54016e-08
-5.34934e-05
-1.4179e-08
-5.35959e-05
-2.95506e-09
-5.37019e-05
1.28733e-08
-5.38097e-05
2.57351e-08
-5.39194e-05
3.82229e-08
-5.40314e-05
5.03937e-08
-5.41459e-05
6.16026e-08
-5.42632e-05
7.10376e-08
-5.43836e-05
7.77356e-08
-5.45073e-05
8.05324e-08
-5.46346e-05
7.80604e-08
-5.47661e-05
6.87851e-08
-5.4902e-05
5.10851e-08
-5.50426e-05
2.33516e-08
-5.51885e-05
-1.61022e-08
-5.53402e-05
-6.84299e-08
-5.54973e-05
-1.3451e-07
-5.5659e-05
-2.1443e-07
-5.58243e-05
-3.05553e-07
-5.59906e-05
-4.03213e-07
-5.6153e-05
-4.99417e-07
-5.63021e-05
-5.81787e-07
-5.64221e-05
-6.33398e-07
-5.64868e-05
-6.3106e-07
-5.64546e-05
-5.48158e-07
-5.62522e-05
-3.05123e-07
-5.57525e-05
2.41583e-07
-5.47639e-05
1.28763e-06
-5.2892e-05
3.20969e-06
-4.94456e-05
6.45106e-06
1.05511e-05
-4.35563e-05
-4.94675e-05
-1.66905e-08
-4.95179e-05
-2.3268e-08
-4.95805e-05
-3.03957e-08
-4.96512e-05
-3.47402e-08
-4.97268e-05
-3.69402e-08
-4.98056e-05
-3.77432e-08
-4.98863e-05
-3.7723e-08
-4.99683e-05
-3.72673e-08
-5.00512e-05
-3.65659e-08
-5.01346e-05
-3.57658e-08
-5.02184e-05
-3.49358e-08
-5.03024e-05
-3.41097e-08
-5.03865e-05
-3.33035e-08
-5.04707e-05
-3.25228e-08
-5.05549e-05
-3.17729e-08
-5.0639e-05
-3.10335e-08
-5.07231e-05
-3.03211e-08
-5.08069e-05
-2.96147e-08
-5.08906e-05
-2.89267e-08
-5.09739e-05
-2.82476e-08
-5.1057e-05
-2.75967e-08
-5.11397e-05
-2.69631e-08
-5.12221e-05
-2.62966e-08
-5.1304e-05
-2.55909e-08
-5.13854e-05
-2.50152e-08
-5.1466e-05
-2.45584e-08
-5.15457e-05
-2.41841e-08
-5.16244e-05
-2.38631e-08
-5.17022e-05
-2.36438e-08
-5.1779e-05
-2.3462e-08
-5.18549e-05
-2.33114e-08
-5.19298e-05
-2.31777e-08
-5.20039e-05
-2.31339e-08
-5.2077e-05
-2.31703e-08
-5.21494e-05
-2.33088e-08
-5.22209e-05
-2.35127e-08
-5.22917e-05
-2.3825e-08
-5.23618e-05
-2.42191e-08
-5.24312e-05
-2.46769e-08
-5.25e-05
-2.52008e-08
-5.25683e-05
-2.57822e-08
-5.26361e-05
-2.64073e-08
-5.27035e-05
-2.70618e-08
-5.27706e-05
-2.77268e-08
-5.28374e-05
-2.83821e-08
-5.2904e-05
-2.90059e-08
-5.29705e-05
-2.95662e-08
-5.3037e-05
-3.00446e-08
-5.31035e-05
-3.04199e-08
-5.31701e-05
-3.06546e-08
-5.3237e-05
-3.07129e-08
-5.33041e-05
-3.05255e-08
-5.33716e-05
-3.00567e-08
-5.34395e-05
-2.93121e-08
-5.3508e-05
-2.82404e-08
-5.35771e-05
-2.67099e-08
-5.3647e-05
-2.46171e-08
-5.37178e-05
-2.19381e-08
-5.37895e-05
-1.86361e-08
-5.38623e-05
-1.46598e-08
-5.39362e-05
-9.96637e-09
-5.40113e-05
-4.54812e-09
-5.40874e-05
1.82927e-09
-5.4166e-05
1.11789e-08
-5.4246e-05
1.91507e-08
-5.43276e-05
2.81952e-08
-5.4411e-05
3.83978e-08
-5.44965e-05
4.97311e-08
-5.45841e-05
6.21973e-08
-5.46739e-05
7.55202e-08
-5.47671e-05
9.01524e-08
-5.48614e-05
1.07102e-07
-5.49591e-05
1.23337e-07
-5.50604e-05
1.39411e-07
-5.51654e-05
1.55252e-07
-5.52743e-05
1.7031e-07
-5.53872e-05
1.83811e-07
-5.55045e-05
1.94812e-07
-5.56263e-05
2.02167e-07
-5.5753e-05
2.04528e-07
-5.58849e-05
2.00391e-07
-5.60221e-05
1.88004e-07
-5.61646e-05
1.65538e-07
-5.63129e-05
1.31852e-07
-5.64674e-05
8.5575e-08
-5.66278e-05
2.54547e-08
-5.67943e-05
-4.83734e-08
-5.69655e-05
-1.34904e-07
-5.71377e-05
-2.31647e-07
-5.73049e-05
-3.32888e-07
-5.74567e-05
-4.30647e-07
-5.75761e-05
-5.14847e-07
-5.76343e-05
-5.73785e-07
-5.7591e-05
-5.92465e-07
-5.73626e-05
-5.34664e-07
-5.67935e-05
-3.2887e-07
-5.56378e-05
1.30492e-07
-5.34588e-05
1.0291e-06
-4.95758e-05
2.56659e-06
4.44862e-06
-4.34744e-05
-5.09623e-05
2.08122e-08
-5.10108e-05
2.5267e-08
-5.10699e-05
2.87037e-08
-5.11357e-05
3.102e-08
-5.12051e-05
3.25131e-08
-5.12763e-05
3.34871e-08
-5.13481e-05
3.4058e-08
-5.14197e-05
3.43552e-08
-5.14908e-05
3.44464e-08
-5.15609e-05
3.4376e-08
-5.163e-05
3.41757e-08
-5.1698e-05
3.38832e-08
-5.17648e-05
3.35199e-08
-5.18305e-05
3.31091e-08
-5.18949e-05
3.26684e-08
-5.19581e-05
3.2214e-08
-5.20202e-05
3.17633e-08
-5.20812e-05
3.13155e-08
-5.2141e-05
3.08907e-08
-5.21997e-05
3.04782e-08
-5.22574e-05
3.00846e-08
-5.23141e-05
2.97145e-08
-5.23698e-05
2.94074e-08
-5.24245e-05
2.91342e-08
-5.24783e-05
2.88351e-08
-5.25314e-05
2.84862e-08
-5.25837e-05
2.81288e-08
-5.26353e-05
2.77429e-08
-5.26863e-05
2.73121e-08
-5.27366e-05
2.68897e-08
-5.27865e-05
2.65707e-08
-5.2836e-05
2.62915e-08
-5.28851e-05
2.60069e-08
-5.2934e-05
2.56928e-08
-5.29826e-05
2.53555e-08
-5.30311e-05
2.49943e-08
-5.30796e-05
2.46045e-08
-5.3128e-05
2.42006e-08
-5.31765e-05
2.37987e-08
-5.32251e-05
2.33974e-08
-5.32738e-05
2.30031e-08
-5.33229e-05
2.2633e-08
-5.33722e-05
2.22981e-08
-5.3422e-05
2.20176e-08
-5.34722e-05
2.18124e-08
-5.35229e-05
2.17037e-08
-5.35742e-05
2.1721e-08
-5.36261e-05
2.18829e-08
-5.36787e-05
2.22109e-08
-5.37322e-05
2.2753e-08
-5.37864e-05
2.35362e-08
-5.38416e-05
2.46249e-08
-5.38977e-05
2.60327e-08
-5.39547e-05
2.77778e-08
-5.40129e-05
2.99507e-08
-5.40723e-05
3.26787e-08
-5.4133e-05
3.60526e-08
-5.4195e-05
4.00833e-08
-5.42585e-05
4.4804e-08
-5.43234e-05
5.02829e-08
-5.439e-05
5.6564e-08
-5.44582e-05
6.36557e-08
-5.45286e-05
7.21846e-08
-5.45998e-05
8.2394e-08
-5.46734e-05
9.27061e-08
-5.47492e-05
1.04013e-07
-5.48274e-05
1.16531e-07
-5.4908e-05
1.30313e-07
-5.49911e-05
1.45343e-07
-5.50772e-05
1.61557e-07
-5.51664e-05
1.79333e-07
-5.5258e-05
1.98681e-07
-5.5353e-05
2.18286e-07
-5.54518e-05
2.38102e-07
-5.55545e-05
2.5789e-07
-5.56613e-05
2.77121e-07
-5.57727e-05
2.95063e-07
-5.58887e-05
3.10804e-07
-5.60099e-05
3.23238e-07
-5.61365e-05
3.31058e-07
-5.6269e-05
3.32768e-07
-5.64077e-05
3.26669e-07
-5.65533e-05
3.11027e-07
-5.6706e-05
2.84386e-07
-5.68652e-05
2.44662e-07
-5.70306e-05
1.90697e-07
-5.72016e-05
1.22436e-07
-5.7376e-05
3.93048e-08
-5.75514e-05
-5.6425e-08
-5.77218e-05
-1.62641e-07
-5.78759e-05
-2.7678e-07
-5.79959e-05
-3.94949e-07
-5.80537e-05
-5.16288e-07
-5.80046e-05
-6.41783e-07
-5.77677e-05
-7.71792e-07
-5.71828e-05
-9.1403e-07
-5.59754e-05
-1.07718e-06
-5.36743e-05
-1.27232e-06
-4.95936e-05
-1.51437e-06
-1.74117e-06
-4.34039e-05
-5.07699e-05
5.69207e-08
-5.08178e-05
7.31451e-08
-5.08764e-05
8.73524e-08
-5.09419e-05
9.64928e-08
-5.10113e-05
1.01937e-07
-5.10828e-05
1.04955e-07
-5.11551e-05
1.06384e-07
-5.12276e-05
1.06822e-07
-5.12997e-05
1.06595e-07
-5.13713e-05
1.05935e-07
-5.14421e-05
1.0498e-07
-5.1512e-05
1.03825e-07
-5.1581e-05
1.02532e-07
-5.16491e-05
1.01152e-07
-5.17161e-05
9.9725e-08
-5.17822e-05
9.8261e-08
-5.18472e-05
9.68081e-08
-5.19113e-05
9.53559e-08
-5.19743e-05
9.39401e-08
-5.20364e-05
9.25429e-08
-5.20975e-05
9.11934e-08
-5.21577e-05
8.98807e-08
-5.22169e-05
8.86491e-08
-5.22752e-05
8.74594e-08
-5.23327e-05
8.63177e-08
-5.23894e-05
8.51661e-08
-5.24453e-05
8.40595e-08
-5.25005e-05
8.29514e-08
-5.2555e-05
8.17924e-08
-5.26088e-05
8.06493e-08
-5.26619e-05
7.97527e-08
-5.27146e-05
7.89613e-08
-5.27668e-05
7.82243e-08
-5.28186e-05
7.74942e-08
-5.28701e-05
7.6818e-08
-5.29213e-05
7.61545e-08
-5.29722e-05
7.55658e-08
-5.3023e-05
7.50301e-08
-5.30738e-05
7.45503e-08
-5.31245e-05
7.41379e-08
-5.31753e-05
7.38066e-08
-5.32263e-05
7.35702e-08
-5.32774e-05
7.34385e-08
-5.33288e-05
7.34287e-08
-5.33806e-05
7.35622e-08
-5.34327e-05
7.38609e-08
-5.34854e-05
7.43508e-08
-5.35385e-05
7.50534e-08
-5.35923e-05
7.59941e-08
-5.36468e-05
7.72134e-08
-5.3702e-05
7.87426e-08
-5.3758e-05
8.06312e-08
-5.38149e-05
8.29026e-08
-5.38727e-05
8.55706e-08
-5.39315e-05
8.87346e-08
-5.39913e-05
9.25645e-08
-5.40524e-05
9.71496e-08
-5.41148e-05
1.02469e-07
-5.41786e-05
1.08544e-07
-5.42437e-05
1.15454e-07
-5.43104e-05
1.23251e-07
-5.43789e-05
1.32075e-07
-5.4449e-05
1.42311e-07
-5.45205e-05
1.53868e-07
-5.45939e-05
1.66171e-07
-5.46695e-05
1.79589e-07
-5.47473e-05
1.94311e-07
-5.48274e-05
2.10418e-07
-5.491e-05
2.27925e-07
-5.49954e-05
2.46875e-07
-5.50835e-05
2.67449e-07
-5.51743e-05
2.89457e-07
-5.52683e-05
3.12273e-07
-5.53659e-05
3.35688e-07
-5.54674e-05
3.59357e-07
-5.5573e-05
3.82746e-07
-5.56831e-05
4.05162e-07
-5.57981e-05
4.25737e-07
-5.59183e-05
4.43412e-07
-5.60442e-05
4.56927e-07
-5.61762e-05
4.64814e-07
-5.6315e-05
4.65425e-07
-5.6461e-05
4.5704e-07
-5.66146e-05
4.37876e-07
-5.67758e-05
4.05877e-07
-5.69446e-05
3.59504e-07
-5.71192e-05
2.96966e-07
-5.72972e-05
2.1727e-07
-5.74737e-05
1.20121e-07
-5.7643e-05
6.59452e-09
-5.77963e-05
-1.23523e-07
-5.79159e-05
-2.75349e-07
-5.79742e-05
-4.58003e-07
-5.79261e-05
-6.89777e-07
-5.76897e-05
-1.00822e-06
-5.71171e-05
-1.48654e-06
-5.59374e-05
-2.25681e-06
-5.3673e-05
-3.53668e-06
-4.96428e-05
-5.54447e-06
-7.88631e-06
-4.34975e-05
-4.90341e-05
8.32775e-08
-4.90803e-05
1.19255e-07
-4.91379e-05
1.4502e-07
-4.92033e-05
1.6191e-07
-4.92738e-05
1.72444e-07
-4.93477e-05
1.78763e-07
-4.94238e-05
1.82487e-07
-4.95015e-05
1.84538e-07
-4.95804e-05
1.85534e-07
-4.96603e-05
1.85829e-07
-4.9741e-05
1.85685e-07
-4.98224e-05
1.85214e-07
-4.99044e-05
1.84529e-07
-4.99869e-05
1.83677e-07
-5.00699e-05
1.82729e-07
-5.01533e-05
1.81674e-07
-5.02371e-05
1.80583e-07
-5.03212e-05
1.79437e-07
-5.04055e-05
1.78273e-07
-5.04901e-05
1.77069e-07
-5.05747e-05
1.75863e-07
-5.06595e-05
1.74632e-07
-5.07442e-05
1.73413e-07
-5.0829e-05
1.72183e-07
-5.09136e-05
1.70969e-07
-5.09982e-05
1.69709e-07
-5.10825e-05
1.68449e-07
-5.11667e-05
1.67141e-07
-5.12507e-05
1.65748e-07
-5.13343e-05
1.64281e-07
-5.14174e-05
1.62856e-07
-5.14998e-05
1.61341e-07
-5.15813e-05
1.59765e-07
-5.1662e-05
1.58159e-07
-5.17418e-05
1.56604e-07
-5.18207e-05
1.55072e-07
-5.18988e-05
1.53637e-07
-5.1976e-05
1.52265e-07
-5.20525e-05
1.50979e-07
-5.21281e-05
1.49799e-07
-5.22031e-05
1.48746e-07
-5.22773e-05
1.47833e-07
-5.2351e-05