/*--------------------------------*- C++ -*----------------------------------*\
| =========                 |                                                 |
| \\      /  F ield         | OpenFOAM: The Open Source CFD Toolbox           |
|  \\    /   O peration     | Version:  2.1.0                                 |
|   \\  /    A nd           | Web:      www.OpenFOAM.org                      |
|    \\/     M anipulation  |                                                 |
\*---------------------------------------------------------------------------*/
FoamFile
{
    version     2.0;
    format      ascii;
    class       volScalarField;
    location    "0.17";
    object      rho;
}
// * * * * * * * * * * * * * * * * * * * * * * * * * * * * * * * * * * * * * //

dimensions      [1 -3 0 0 0 0 0];

internalField   nonuniform List<scalar> 
6400
(
1000
1000
1000
1000
1000
1000
1000
1000
1000
1000
1000
1000
1000
1000
1000
1000
1000
1000
1000
1000
1000
1000
1000
1000
1000
1000
1000
1000
1000
1000
1000
1000
1000
1000
1000
1000
1000
1000
1000
1000
1000
1000
1000
1000
1000
1000
1000
1000
1000
1000
1000
1000
1000
1000
1000
1000
1000
1000
1000
1000
1000
1000
1000
1000
1000
1000
1000
1000
1000
1000
1000
1000
1000
999.999
999.999
999.999
999.999
999.999
999.998
999.998
999.998
999.997
999.996
999.995
999.994
999.993
999.991
999.989
999.987
999.984
999.981
999.978
999.975
999.976
999.982
999.979
999.896
999.532
998.841
998.178
1000
1000
1000
1000
1000
1000
1000
1000
1000
1000
1000
1000
1000
1000
1000
1000
1000
1000
1000
1000
1000
1000
1000
1000
1000
1000
1000
1000
1000
1000
1000
1000
1000
1000
1000
1000
1000
1000
1000
1000
1000
1000
1000
1000
1000
1000
1000
1000
1000
1000
1000
1000
1000
1000
1000
1000
1000
1000
1000
1000
1000
1000
1000
1000
1000
999.999
999.999
999.999
999.999
999.999
999.998
999.998
999.997
999.997
999.996
999.995
999.994
999.993
999.991
999.989
999.986
999.983
999.979
999.974
999.968
999.96
999.95
999.938
999.923
999.905
999.882
999.852
999.812
999.752
999.656
999.499
999.265
998.932
998.504
998.061
1000
1000
1000
1000
1000
1000
1000
1000
1000
1000
1000
1000
1000
1000
1000
1000
1000
1000
1000
1000
1000
1000
1000
1000
1000
1000
1000
1000
1000
1000
1000
1000
1000
1000
1000
1000
1000
1000
1000
1000
1000
1000
1000
1000
1000
1000
1000
1000
1000
1000
1000
1000
1000
1000
1000
1000
1000
1000
1000
1000
999.999
999.999
999.999
999.999
999.999
999.998
999.998
999.997
999.997
999.996
999.995
999.994
999.992
999.99
999.988
999.985
999.982
999.978
999.972
999.966
999.958
999.948
999.936
999.92
999.902
999.879
999.851
999.817
999.776
999.725
999.665
999.591
999.502
999.393
999.259
999.094
998.892
998.643
998.351
998.043
1000
1000
1000
1000
1000
1000
1000
1000
1000
1000
1000
1000
1000
1000
1000
1000
1000
1000
1000
1000
1000
1000
1000
1000
1000
1000
1000
1000
1000
1000
1000
1000
1000
1000
1000
1000
1000
1000
1000
1000
1000
1000
1000
1000
1000
1000
1000
1000
1000
1000
1000
1000
1000
1000
1000
999.999
999.999
999.999
999.999
999.999
999.998
999.998
999.998
999.997
999.996
999.996
999.994
999.993
999.992
999.99
999.987
999.984
999.981
999.977
999.971
999.965
999.957
999.948
999.937
999.924
999.908
999.889
999.866
999.84
999.809
999.773
999.73
999.681
999.625
999.559
999.485
999.399
999.301
999.19
999.063
998.92
998.755
998.567
998.359
998.15
1000
1000
1000
1000
1000
1000
1000
1000
1000
1000
1000
1000
1000
1000
1000
1000
1000
1000
1000
1000
1000
1000
1000
1000
1000
1000
1000
1000
1000
1000
1000
1000
1000
1000
1000
1000
1000
1000
1000
1000
1000
1000
1000
1000
1000
1000
1000
1000
1000
1000
1000
1000
999.999
999.999
999.999
999.999
999.999
999.998
999.998
999.997
999.997
999.996
999.995
999.994
999.993
999.991
999.989
999.986
999.984
999.98
999.976
999.971
999.965
999.958
999.95
999.941
999.929
999.916
999.901
999.884
999.863
999.84
999.813
999.783
999.748
999.709
999.664
999.613
999.557
999.493
999.421
999.341
999.252
999.153
999.045
998.925
998.794
998.652
998.507
998.382
1000
1000
1000
1000
1000
1000
1000
1000
1000
1000
1000
1000
1000
1000
1000
1000
1000
1000
1000
1000
1000
1000
1000
1000
1000
1000
1000
1000
1000
1000
1000
1000
1000
1000
1000
1000
1000
1000
1000
1000
1000
1000
1000
1000
1000
1000
1000
1000
1000
999.999
999.999
999.999
999.999
999.999
999.998
999.998
999.998
999.997
999.996
999.996
999.995
999.994
999.992
999.991
999.989
999.986
999.984
999.981
999.977
999.973
999.968
999.962
999.955
999.948
999.939
999.929
999.917
999.904
999.888
999.871
999.852
999.83
999.805
999.778
999.746
999.712
999.673
999.629
999.581
999.527
999.467
999.401
999.327
999.247
999.159
999.065
998.964
998.862
998.767
998.706
1000
1000
1000
1000
1000
1000
1000
1000
1000
1000
1000
1000
1000
1000
1000
1000
1000
1000
1000
1000
1000
1000
1000
1000
1000
1000
1000
1000
1000
1000
1000
1000
1000
1000
1000
1000
1000
1000
1000
1000
1000
1000
1000
1000
1000
1000
1000
1000
999.999
999.999
999.999
999.999
999.999
999.998
999.998
999.998
999.997
999.996
999.996
999.995
999.994
999.993
999.992
999.99
999.988
999.986
999.984
999.981
999.977
999.974
999.969
999.964
999.959
999.952
999.945
999.937
999.928
999.917
999.905
999.892
999.877
999.86
999.841
999.82
999.797
999.771
999.742
999.709
999.673
999.633
999.588
999.539
999.485
999.425
999.36
999.29
999.219
999.149
999.092
999.073
1000
1000
1000
1000
1000
1000
1000
1000
1000
1000
1000
1000
1000
1000
1000
1000
1000
1000
1000
1000
1000
1000
1000
1000
1000
1000
1000
1000
1000
1000
1000
1000
1000
1000
1000
1000
1000
1000
1000
1000
1000
1000
1000
1000
1000
1000
1000
1000
999.999
999.999
999.999
999.999
999.999
999.999
999.998
999.998
999.998
999.997
999.997
999.996
999.995
999.995
999.994
999.993
999.991
999.99
999.988
999.987
999.984
999.982
999.979
999.976
999.973
999.969
999.964
999.959
999.953
999.947
999.939
999.931
999.922
999.911
999.9
999.887
999.872
999.856
999.838
999.818
999.796
999.771
999.743
999.712
999.677
999.639
999.596
999.551
999.504
999.461
999.43
999.429
1000
1000
1000
1000
1000
1000
1000
1000
1000
1000
1000
1000
1000
1000
1000
1000
1000
1000
1000
1000
1000
1000
1000
1000
1000
1000
1000
1000
1000
1000
1000
1000
1000
1000
1000
1000
1000
1000
1000
1000
1000
1000
1000
1000
1000
1000
1000
1000
1000
1000
999.999
999.999
999.999
999.999
999.999
999.999
999.999
999.998
999.998
999.998
999.997
999.997
999.996
999.996
999.995
999.995
999.994
999.993
999.992
999.99
999.989
999.987
999.986
999.984
999.981
999.979
999.976
999.973
999.969
999.965
999.961
999.956
999.95
999.944
999.937
999.929
999.921
999.911
999.901
999.889
999.876
999.861
999.845
999.826
999.806
999.783
999.758
999.736
999.721
999.723
1000
1000
1000
1000
1000
1000
1000
1000
1000
1000
1000
1000
1000
1000
1000
1000
1000
1000
1000
1000
1000
1000
1000
1000
1000
1000
1000
1000
1000
1000
1000
1000
1000
1000
1000
1000
1000
1000
1000
1000
1000
1000
1000
1000
1000
1000
1000
1000
1000
1000
1000
1000
1000
1000
999.999
999.999
999.999
999.999
999.999
999.999
999.999
999.999
999.998
999.998
999.998
999.997
999.997
999.997
999.996
999.996
999.995
999.994
999.994
999.993
999.992
999.991
999.99
999.988
999.987
999.986
999.984
999.982
999.98
999.978
999.976
999.973
999.971
999.968
999.965
999.961
999.958
999.954
999.95
999.945
999.94
999.935
999.929
999.923
999.919
999.921
1000
1000
1000
1000
1000
1000
1000
1000
1000
1000
1000
1000
1000
1000
1000
1000
1000
1000
1000
1000
1000
1000
1000
1000
1000
1000
1000
1000
1000
1000
1000
1000
1000
1000
1000
1000
1000
1000
1000
1000
1000
1000
1000
1000
1000
1000
1000
1000
1000
1000
1000
1000
1000
1000
1000
1000
1000
1000
1000
1000
999.999
999.999
999.999
999.999
999.999
999.999
999.999
999.999
999.999
999.998
999.998
999.998
999.998
999.997
999.997
999.997
999.997
999.996
999.996
999.995
999.995
999.995
999.994
999.994
999.993
999.993
999.993
999.992
999.992
999.992
999.991
999.991
999.991
999.991
999.991
999.991
999.991
999.992
999.993
999.994
1000
1000
1000
1000
1000
1000
1000
1000
1000
1000
1000
1000
1000
1000
1000
1000
1000
1000
1000
1000
1000
1000
1000
1000
1000
1000
1000
1000
1000
1000
1000
1000
1000
1000
1000
1000
1000
1000
1000
1000
1000
1000
1000
1000
1000
1000
1000
1000
1000
1000
1000
1000
1000
1000
1000
1000
1000
1000
1000
1000
1000
1000
1000
1000
1000
1000
1000
1000
1000
1000
999.999
999.999
999.999
999.999
999.999
999.999
999.999
999.999
999.999
999.999
999.999
999.999
999.999
999.999
999.999
999.999
999.999
999.999
999.999
999.999
999.999
999.999
999.999
999.999
999.999
999.999
999.999
1000
1000
1000
1000
1000
1000
1000
1000
1000
1000
1000
1000
1000
1000
1000
1000
1000
1000
1000
1000
1000
1000
1000
1000
1000
1000
1000
1000
1000
1000
1000
1000
1000
1000
1000
1000
1000
1000
1000
1000
1000
1000
1000
1000
1000
1000
1000
1000
1000
1000
1000
1000
1000
1000
1000
1000
1000
1000
1000
1000
1000
1000
1000
1000
1000
1000
1000
1000
1000
1000
1000
1000
1000
1000
1000
1000
1000
1000
1000
1000
1000
1000
1000
1000
1000
1000
1000
1000
1000
1000
1000
1000
1000
1000
1000
1000
1000
1000
1000
1000
1000
1000
1000
1000
1000
1000
1000
1000
1000
1000
1000
1000
1000
1000
1000
1000
1000
1000
1000
1000
1000
1000
1000
1000
1000
1000
1000
1000
1000
1000
1000
1000
1000
1000
1000
1000
1000
1000
1000
1000
1000
1000
1000
1000
1000
1000
1000
1000
1000
1000
1000
1000
1000
1000
1000
1000
1000
1000
1000
1000
1000
1000
1000
1000
1000
1000
1000
1000
1000
1000
1000
1000
1000
1000
1000
1000
1000
1000
1000
1000
1000
1000
1000
1000
1000
1000
1000
1000
1000
1000
1000
1000
1000
1000
1000
1000
1000
1000
1000
1000
1000
1000
1000
1000
1000
1000
1000
1000
1000
1000
1000
1000
1000
1000
1000
1000
1000
1000
1000
1000
1000
1000
1000
1000
1000
1000
1000
1000
1000
1000
1000
1000
1000
1000
1000
1000
1000
1000
1000
1000
1000
1000
1000
1000
1000
1000
1000
1000
1000
1000
1000
1000
1000
1000
1000
1000
1000
1000
1000
1000
1000
1000
1000
1000
1000
1000
1000
1000
1000
1000
1000
1000
1000
1000
1000
1000
1000
1000
1000
1000
1000
1000
1000
1000
1000
1000
1000
1000
1000
1000
1000
1000
1000
1000
1000
1000
1000
1000
1000
1000
1000
1000
1000
1000
1000
1000
1000
1000
1000
1000
1000
1000
1000
1000
1000
1000
1000
1000
1000
1000
1000
1000
1000
1000
1000
1000
1000
1000
1000
1000
1000
1000
1000
1000
1000
1000
1000
1000
1000
1000
1000
1000
1000
1000
1000
1000
1000
1000
1000
1000
1000
1000
1000
1000
1000
1000
1000
1000
1000
1000
1000
1000
1000
1000
1000
1000
1000
1000
1000
1000
1000
1000
1000
1000
1000
1000
1000
1000
1000
1000
1000
1000
1000
1000
1000
1000
1000
1000
1000
1000
1000
1000
1000
1000
1000
1000
1000
1000
1000
1000
1000
1000
1000
1000
1000
1000
1000
1000
1000
1000
1000
1000
1000
1000
1000
1000
1000
1000
1000
1000
1000
1000
1000
1000
1000
1000
1000
1000
1000
1000
1000
1000
1000
1000
1000
1000
1000
1000
1000
1000
1000
1000
1000
1000
1000
1000
1000
1000
1000
1000
1000
1000
1000
1000
1000
1000
1000
1000
1000
1000
1000
1000
1000
1000
1000
1000
1000
1000
1000
1000
1000
1000
1000
1000
1000
1000
1000
1000
1000
1000
1000
1000
1000
1000
1000
1000
1000
1000
1000
1000
1000
1000
1000
1000
1000
1000
1000
1000
1000
1000
1000
1000
1000
1000
1000
1000
1000
1000
1000
1000
1000
1000
1000
1000
1000
1000
1000
1000
1000
1000
1000
1000
1000
1000
1000
1000
1000
1000
1000
1000
1000
1000
1000
1000
1000
1000
1000
1000
1000
1000
1000
1000
1000
1000
1000
1000
1000
1000
1000
1000
1000
1000
1000
1000
1000
1000
1000
1000
1000
1000
1000
1000
1000
1000
1000
1000
1000
1000
1000
1000
1000
1000
1000
1000
1000
1000
1000
1000
1000
1000
1000
1000
1000
1000
1000
1000
1000
1000
1000
1000
1000
1000
1000
1000
1000
1000
1000
1000
1000
1000
1000
1000
1000
1000
1000
1000
1000
1000
1000
1000
1000
1000
1000
1000
1000
1000
1000
1000
1000
1000
1000
1000
1000
1000
1000
1000
1000
1000
1000
1000
1000
1000
1000
1000
1000
1000
1000
1000
1000
1000
1000
1000
1000
1000
1000
1000
1000
1000
1000
1000
1000
1000
1000
1000
1000
1000
1000
1000
1000
1000
1000
1000
1000
1000
1000
1000
1000
1000
1000
1000
1000
1000
1000
1000
1000
1000
1000
1000
1000
1000
1000
1000
1000
1000
1000
1000
1000
1000
1000
1000
1000
1000
1000
1000
1000
1000
1000
1000
1000
1000
1000
1000
1000
1000
1000
1000
1000
1000
1000
1000
1000
1000
1000
1000
1000
1000
1000
1000
1000
1000
1000
1000
1000
1000
1000
1000
1000
1000
1000
1000
1000
1000
1000
1000
1000
1000
1000
1000
1000
1000
1000
1000
1000
1000
1000
1000
1000
1000
1000
1000
1000
1000
1000
1000
1000
1000
1000
1000
1000
1000
1000
1000
1000
1000
1000
1000
1000
1000
1000
1000
1000
1000
1000
1000
1000
1000
1000
1000
1000
1000
1000
1000
1000
1000
1000
1000
1000
1000
1000
1000
1000
1000
1000
1000
1000
1000
1000
1000
1000
1000
1000
1000
1000
997.805
997.056
997.091
997.366
997.635
997.848
998.002
998.107
998.175
998.22
998.25
998.275
998.308
998.364
998.467
998.642
998.911
999.27
999.66
999.95
997.706
997.32
997.46
997.734
997.977
998.163
998.296
998.389
998.453
998.498
998.535
998.57
998.615
998.684
998.794
998.961
999.194
999.482
999.773
999.971
997.766
997.657
997.849
998.097
998.304
998.46
998.573
998.654
998.714
998.761
998.802
998.845
998.899
998.975
999.083
999.233
999.427
999.65
999.858
999.985
997.995
998.049
998.247
998.451
998.618
998.743
998.836
998.907
998.962
999.009
999.053
999.1
999.158
999.233
999.332
999.46
999.613
999.777
999.918
999.993
998.344
998.463
998.633
998.789
998.915
999.012
999.087
999.147
999.197
999.241
999.285
999.333
999.388
999.456
999.54
999.641
999.755
999.868
999.958
999.997
998.745
998.864
998.992
999.103
999.193
999.266
999.324
999.373
999.415
999.455
999.494
999.536
999.583
999.639
999.704
999.779
999.857
999.93
999.981
999.999
999.138
999.228
999.313
999.387
999.448
999.498
999.54
999.577
999.61
999.641
999.672
999.705
999.742
999.782
999.828
999.877
999.926
999.968
999.993
1000
999.484
999.539
999.589
999.632
999.668
999.699
999.726
999.75
999.772
999.794
999.815
999.837
999.86
999.886
999.913
999.941
999.967
999.988
999.998
1000
999.754
999.78
999.803
999.823
999.841
999.857
999.871
999.884
999.895
999.907
999.918
999.929
999.94
999.952
999.965
999.978
999.989
999.997
1000
1000
999.931
999.938
999.945
999.951
999.956
999.961
999.966
999.97
999.973
999.976
999.979
999.982
999.985
999.989
999.992
999.995
999.998
1000
1000
1000
999.995
999.996
999.996
999.997
999.997
999.997
999.998
999.998
999.998
999.999
999.999
999.999
999.999
999.999
1000
1000
1000
1000
1000
1000
1000
1000
1000
1000
1000
1000
1000
1000
1000
1000
1000
1000
1000
1000
1000
1000
1000
1000
1000
1000
1000
1000
1000
1000
1000
1000
1000
1000
1000
1000
1000
1000
1000
1000
1000
1000
1000
1000
1000
1000
1000
1000
1000
1000
1000
1000
1000
1000
1000
1000
1000
1000
1000
1000
1000
1000
1000
1000
1000
1000
1000
1000
1000
1000
1000
1000
1000
1000
1000
1000
1000
1000
1000
1000
1000
1000
1000
1000
1000
1000
1000
1000
1000
1000
1000
1000
1000
1000
1000
1000
1000
1000
1000
1000
1000
1000
1000
1000
1000
1000
1000
1000
1000
1000
1000
1000
1000
1000
1000
1000
1000
1000
1000
1000
1000
1000
1000
1000
1000
1000
1000
1000
1000
1000
1000
1000
1000
1000
1000
1000
1000
1000
1000
1000
1000
1000
1000
1000
1000
1000
1000
1000
1000
1000
1000
1000
1000
1000
1000
1000
1000
1000
1000
1000
1000
1000
1000
1000
1000
1000
1000
1000
1000
1000
1000
1000
1000
1000
1000
1000
1000
1000
1000
1000
1000
1000
1000
1000
1000
1000
944.555
944.555
944.555
944.555
944.555
944.555
944.555
944.555
944.555
944.555
944.555
944.555
944.555
944.555
944.555
944.555
944.555
944.555
944.555
944.555
944.555
944.555
944.555
944.555
944.555
944.555
944.555
944.555
944.555
944.555
944.555
944.555
944.555
944.555
944.555
944.555
944.555
944.555
944.555
944.555
944.555
944.555
944.555
944.555
944.555
944.555
944.555
944.555
944.555
944.555
944.555
944.555
944.555
944.555
944.555
944.555
944.555
944.555
944.555
944.555
944.555
944.555
944.555
944.555
944.555
944.555
944.555
944.555
944.555
944.555
944.555
944.555
944.555
944.555
944.555
944.555
944.555
944.555
944.555
944.555
944.555
944.555
944.555
944.555
944.555
944.555
944.555
944.555
944.555
944.555
944.555
944.555
944.555
944.555
944.555
944.555
944.555
944.555
944.555
944.555
944.555
944.555
944.555
944.555
944.555
944.555
944.555
944.555
944.555
944.555
944.555
944.555
944.555
944.555
944.555
944.555
944.555
944.555
944.555
944.555
944.555
944.555
944.555
944.555
944.555
944.555
944.555
944.555
944.555
944.555
944.555
944.555
944.555
944.555
944.555
944.555
944.555
944.555
944.555
944.555
944.555
944.555
944.555
944.555
944.555
944.555
944.555
944.555
944.555
944.555
944.555
944.555
944.555
944.555
944.555
944.555
944.555
944.555
944.555
944.555
944.555
944.555
944.555
944.555
944.555
944.555
944.555
944.555
944.555
944.555
944.555
944.555
944.555
944.555
944.555
944.555
944.555
944.555
944.555
944.555
944.555
944.555
944.555
944.555
944.555
944.555
944.555
944.555
944.555
944.555
944.555
944.555
944.555
944.555
944.555
944.555
944.555
944.555
944.555
944.555
944.555
944.555
944.555
944.555
944.555
944.555
944.555
944.555
944.555
944.555
944.555
944.555
944.555
944.555
944.555
944.555
944.555
944.555
944.555
944.555
944.555
944.555
944.555
944.555
944.555
944.555
944.555
944.555
944.555
944.555
944.555
944.555
944.555
944.555
944.555
944.555
944.555
944.555
944.555
944.555
944.555
944.555
944.555
944.555
944.555
944.555
944.555
944.555
944.555
944.555
944.555
944.555
944.555
944.555
944.555
944.555
944.555
944.555
944.555
944.555
944.555
944.555
944.555
944.555
944.555
944.555
944.555
944.555
944.555
944.555
944.555
944.555
944.555
944.555
944.555
944.555
944.555
944.555
944.555
944.555
944.555
944.555
944.555
944.555
944.555
944.555
944.555
944.555
944.555
944.555
944.555
944.555
944.555
944.555
944.555
944.555
944.555
944.555
944.555
944.555
944.555
944.555
944.555
944.555
944.555
944.555
944.555
944.555
944.555
944.555
944.555
944.555
944.555
944.555
944.555
944.555
944.555
944.555
944.555
944.555
944.555
944.555
944.555
944.555
944.555
944.555
944.555
944.555
944.555
944.555
944.555
944.555
944.555
944.555
944.555
944.555
944.555
944.555
944.555
944.555
944.555
944.555
944.555
944.555
944.555
944.555
944.555
944.555
944.555
944.555
944.555
944.555
944.555
944.555
944.555
944.555
944.555
944.555
944.555
944.555
944.555
944.555
944.555
944.555
944.555
944.555
944.555
944.555
944.555
944.555
944.555
944.555
944.555
944.555
944.555
944.555
944.555
944.555
944.555
944.555
944.555
944.555
944.555
944.555
944.555
944.555
944.555
944.555
944.555
944.555
944.555
944.555
944.555
944.555
944.555
944.555
944.555
944.555
944.555
944.555
944.555
944.555
944.555
944.555
944.555
944.555
944.555
944.555
944.555
944.555
944.555
944.555
944.555
944.555
944.555
944.555
944.555
944.555
944.555
944.555
944.555
944.555
944.555
944.555
944.555
944.555
944.555
944.555
944.555
944.555
944.555
944.555
944.555
944.555
944.555
944.555
944.555
944.555
944.555
944.555
944.555
944.555
944.555
944.555
944.555
944.555
944.555
944.555
944.555
944.555
944.555
944.555
944.555
944.555
944.555
944.555
944.555
944.555
944.555
944.555
944.555
944.555
944.555
944.555
944.555
944.555
944.555
944.555
944.555
944.555
944.555
944.555
944.555
944.555
944.555
944.555
944.555
944.555
944.555
944.555
944.555
944.555
944.555
944.555
944.555
944.555
944.555
944.555
944.555
944.555
944.555
944.555
944.555
944.555
944.555
944.555
944.555
944.555
944.555
944.555
944.555
944.555
944.555
944.555
944.555
944.555
944.555
944.555
944.555
944.555
944.555
944.555
944.555
944.555
944.555
944.555
944.555
944.555
944.555
944.555
944.555
944.555
944.555
944.555
944.555
944.555
944.555
944.555
944.555
944.555
944.555
944.555
944.555
944.555
944.555
944.555
944.555
944.555
944.555
944.555
944.555
944.555
944.555
944.555
944.555
944.555
944.555
944.555
944.555
944.555
944.555
944.555
944.555
944.555
944.555
944.555
944.555
944.555
944.555
944.555
944.555
944.555
944.555
944.555
944.555
944.555
944.555
944.555
944.555
944.555
944.555
944.555
944.555
944.555
944.555
944.555
944.555
944.555
944.555
944.555
944.555
944.555
944.555
944.555
944.555
944.555
944.555
944.555
944.555
944.555
944.555
944.555
944.555
944.555
944.555
944.555
944.555
944.555
944.555
944.555
944.555
944.555
944.555
944.555
944.555
944.555
944.555
944.555
944.555
944.555
944.555
944.555
944.555
944.555
944.555
944.555
944.555
944.555
944.555
944.555
944.555
944.555
944.555
944.555
944.555
944.555
944.555
944.555
944.555
944.555
944.555
944.555
944.555
944.555
944.555
944.555
944.555
944.555
944.555
944.555
944.555
944.555
944.555
944.555
944.555
944.555
944.555
944.555
944.555
944.555
944.555
944.555
944.555
944.555
944.555
944.555
944.555
944.555
944.555
944.555
944.555
944.555
944.555
944.555
944.555
944.555
944.555
944.555
944.555
944.555
944.555
944.555
944.555
944.555
944.555
944.555
944.555
944.555
944.555
944.555
944.555
944.555
944.555
944.555
944.555
944.555
944.555
944.555
944.555
944.555
944.555
944.555
944.555
944.555
944.555
944.555
944.555
944.555
944.555
944.555
944.555
944.555
944.555
944.555
944.555
944.555
944.555
944.555
944.555
944.555
944.555
944.555
944.555
944.555
944.555
944.555
944.555
944.555
944.555
944.555
944.555
944.555
944.555
944.555
944.555
944.555
944.555
944.555
944.555
944.555
944.555
944.555
944.555
944.555
944.555
944.555
944.555
944.555
944.555
944.555
944.555
944.555
944.555
944.555
944.555
944.555
944.555
944.555
944.555
944.555
944.555
944.555
944.555
944.555
944.555
944.555
944.555
944.555
944.555
944.555
944.555
944.555
944.555
944.555
944.555
944.555
944.555
944.555
944.555
944.555
944.555
944.555
944.555
944.555
944.555
944.555
944.555
944.555
944.555
944.555
944.555
944.555
944.555
944.555
944.555
944.555
944.555
944.555
944.555
944.555
944.555
944.555
944.555
944.555
944.555
944.555
944.555
944.555
944.555
944.555
944.555
944.555
944.555
944.555
944.555
944.555
944.555
944.555
944.555
944.555
944.555
944.555
944.555
944.555
944.555
944.555
944.555
944.555
944.555
944.555
944.555
944.555
944.555
944.555
944.555
944.555
944.555
944.555
944.555
944.555
944.555
944.555
944.555
944.555
944.555
944.555
944.555
944.555
944.555
944.555
944.555
944.555
944.555
944.555
944.555
944.555
944.555
944.555
944.555
944.555
944.555
944.555
944.555
944.555
944.555
944.555
944.555
944.555
944.555
944.555
944.556
944.555
944.555
944.555
944.555
944.555
944.555
944.555
944.555
944.555
944.555
944.555
944.555
944.555
944.555
944.555
944.555
944.555
944.555
944.556
944.557
944.555
944.555
944.555
944.555
944.555
944.555
944.555
944.555
944.555
944.555
944.555
944.555
944.555
944.555
944.555
944.555
944.555
944.555
944.557
944.56
944.556
944.555
944.555
944.555
944.555
944.555
944.555
944.555
944.555
944.555
944.555
944.555
944.555
944.555
944.555
944.555
944.555
944.556
944.56
944.563
944.557
944.556
944.556
944.556
944.556
944.556
944.556
944.556
944.556
944.556
944.556
944.556
944.556
944.556
944.556
944.556
944.556
944.557
944.563
944.569
944.558
944.556
944.556
944.556
944.556
944.557
944.557
944.557
944.557
944.557
944.557
944.557
944.557
944.556
944.556
944.556
944.556
944.558
944.569
944.579
944.56
944.557
944.557
944.557
944.557
944.558
944.558
944.558
944.558
944.558
944.558
944.558
944.558
944.557
944.557
944.557
944.557
944.56
944.579
944.594
944.564
944.559
944.559
944.559
944.559
944.559
944.559
944.559
944.56
944.56
944.559
944.559
944.559
944.559
944.559
944.559
944.559
944.564
944.594
944.618
944.57
944.562
944.561
944.561
944.561
944.561
944.562
944.562
944.562
944.562
944.562
944.562
944.561
944.561
944.561
944.561
944.562
944.57
944.618
944.653
944.578
944.566
944.564
944.564
944.564
944.565
944.565
944.566
944.566
944.566
944.566
944.565
944.565
944.564
944.564
944.564
944.566
944.578
944.653
944.705
944.591
944.572
944.569
944.569
944.569
944.57
944.571
944.571
944.571
944.571
944.571
944.571
944.57
944.569
944.569
944.569
944.572
944.591
944.705
944.78
944.611
944.581
944.576
944.576
944.576
944.577
944.578
944.578
944.579
944.579
944.578
944.578
944.577
944.576
944.576
944.576
944.581
944.611
944.78
944.886
944.638
944.594
944.586
944.585
944.586
944.588
944.589
944.589
944.59
944.59
944.589
944.589
944.588
944.586
944.585
944.586
944.594
944.638
944.885
945.032
944.677
944.613
944.6
944.599
944.601
944.602
944.604
944.605
944.605
944.605
944.605
944.604
944.602
944.601
944.599
944.6
944.613
944.677
945.031
945.23
944.732
944.639
944.621
944.619
944.621
944.623
944.625
944.626
944.627
944.627
944.626
944.625
944.623
944.621
944.619
944.621
944.639
944.732
945.229
945.493
944.806
944.676
944.65
944.647
944.648
944.651
944.654
944.655
944.656
944.656
944.655
944.654
944.651
944.649
944.647
944.65
944.676
944.806
945.492
945.837
944.906
944.726
944.689
944.684
944.687
944.69
944.693
944.695
944.696
944.696
944.695
944.693
944.69
944.687
944.684
944.689
944.726
944.906
945.836
946.277
945.038
944.793
944.743
944.736
944.738
944.743
944.747
944.749
944.751
944.751
944.75
944.747
944.743
944.738
944.736
944.743
944.794
945.038
946.278
946.833
945.21
944.884
944.814
944.804
944.807
944.813
944.818
944.822
944.824
944.824
944.822
944.818
944.813
944.808
944.805
944.815
944.884
945.211
946.834
947.521
945.431
945.002
944.91
944.896
944.899
944.906
944.913
944.917
944.92
944.92
944.918
944.913
944.907
944.9
944.897
944.911
945.003
945.432
947.524
948.359
945.71
945.156
945.035
945.016
945.02
945.029
945.037
945.042
945.046
945.046
945.043
945.037
945.029
945.021
945.017
945.037
945.158
945.713
948.364
949.363
946.058
945.353
945.197
945.172
945.176
945.187
945.197
945.204
945.208
945.208
945.205
945.198
945.188
945.178
945.174
945.2
945.357
946.063
949.372
950.546
946.486
945.603
945.405
945.372
945.377
945.39
945.402
945.411
945.416
945.416
945.412
945.403
945.391
945.379
945.375
945.409
945.609
946.495
950.56
951.919
947.005
945.916
945.668
945.626
945.632
945.647
945.662
945.673
945.679
945.68
945.674
945.664
945.649
945.634
945.63
945.673
945.924
947.02
951.94
953.486
947.627
946.303
945.998
945.945
945.951
945.969
945.988
946.001
946.008
946.009
946.002
945.99
945.972
945.955
945.95
946.005
946.315
947.65
953.517
955.249
948.366
946.778
946.406
946.34
946.346
946.369
946.39
946.407
946.415
946.416
946.408
946.393
946.373
946.352
946.347
946.415
946.793
948.397
955.291
957.2
949.233
947.352
946.905
946.824
946.831
946.857
946.883
946.903
946.913
946.914
946.905
946.887
946.863
946.839
946.834
946.917
947.371
949.275
957.256
959.328
950.241
948.039
947.508
947.411
947.419
947.449
947.48
947.503
947.516
947.517
947.506
947.485
947.457
947.428
947.424
947.524
948.064
950.294
959.399
961.616
951.398
948.852
948.228
948.113
948.122
948.158
948.194
948.221
948.236
948.238
948.226
948.201
948.168
948.135
948.13
948.249
948.883
951.463
961.701
964.038
952.712
949.801
949.077
948.944
948.954
948.996
949.039
949.071
949.089
949.091
949.077
949.048
949.009
948.971
948.965
949.105
949.841
952.789
964.137
966.566
954.186
950.897
950.068
949.914
949.927
949.976
950.026
950.064
950.085
950.088
950.072
950.039
949.993
949.949
949.942
950.102
950.946
954.275
966.678
969.168
955.818
952.146
951.208
951.035
951.051
951.109
951.168
951.213
951.237
951.241
951.222
951.184
951.131
951.079
951.07
951.252
952.207
955.92
969.291
971.81
957.604
953.552
952.504
952.313
952.334
952.403
952.472
952.525
952.554
952.558
952.537
952.493
952.431
952.37
952.358
952.559
953.626
957.719
971.941
974.454
959.532
955.115
953.96
953.754
953.782
953.864
953.945
954.006
954.041
954.046
954.022
953.97
953.899
953.827
953.809
954.028
955.204
959.663
974.59
977.063
961.589
956.829
955.574
955.356
955.395
955.492
955.587
955.659
955.7
955.707
955.679
955.619
955.536
955.451
955.424
955.657
956.939
961.745
977.202
979.601
963.759
958.686
957.34
957.116
957.17
957.285
957.396
957.481
957.529
957.537
957.505
957.436
957.339
957.239
957.199
957.441
958.824
963.95
979.743
982.036
966.022
960.671
959.248
959.025
959.097
959.234
959.364
959.463
959.52
959.53
959.493
959.413
959.3
959.181
959.124
959.37
960.844
966.257
982.182
984.338
968.354
962.767
961.282
961.068
961.164
961.325
961.477
961.593
961.661
961.673
961.631
961.537
961.406
961.263
961.186
961.429
962.981
968.643
984.49
986.481
970.73
964.949
963.423
963.227
963.352
963.54
963.717
963.854
963.934
963.95
963.901
963.792
963.638
963.47
963.367
963.598
965.211
971.078
986.645
988.443
973.12
967.195
965.65
965.483
965.64
965.857
966.059
966.22
966.317
966.339
966.282
966.156
965.978
965.781
965.648
965.856
967.511
973.533
988.623
990.204
975.494
969.487
967.943
967.816
968.005
968.248
968.478
968.668
968.784
968.81
968.747
968.603
968.4
968.173
968.007
968.185
969.861
975.976
990.404
991.751
977.817
971.804
970.284
970.2
970.42
970.687
970.956
971.179
971.311
971.336
971.264
971.101
970.874
970.62
970.422
970.564
972.241
978.374
991.979
993.083
980.057
974.122
972.65
972.611
972.855
973.149
973.466
973.722
973.866
973.895
973.81
973.623
973.371
973.091
972.865
972.972
974.631
980.698
993.351
994.204
982.187
976.417
975.016
975.018
975.278
975.607
975.98
976.267
976.418
976.451
976.357
976.147
975.861
975.558
975.307
975.384
977.007
982.923
994.528
995.131
984.183
978.664
977.354
977.392
977.665
978.038
978.464
978.778
978.917
978.945
978.854
978.635
978.316
977.989
977.722
977.775
979.347
985.03
995.529
995.888
986.031
980.84
979.638
979.706
979.994
980.41
980.875
981.203
981.327
981.337
981.26
981.04
980.702
980.357
980.079
980.116
981.629
987.005
996.371
996.499
987.719
982.92
981.841
981.932
982.239
982.689
983.176
983.507
983.624
983.608
983.53
983.329
982.986
982.631
982.353
982.385
983.832
988.837
997.075
996.99
989.244
984.886
983.937
984.045
984.374
984.847
985.339
985.661
985.77
985.739
985.638
985.455
985.135
984.785
984.518
984.557
985.936
990.521
997.659
997.379
990.606
986.718
985.905
986.03
986.379
986.862
987.341
987.643
987.744
987.707
987.592
987.41
987.121
986.792
986.551
986.614
987.924
992.054
998.142
997.684
991.806
988.403
987.727
987.873
988.236
988.715
989.168
989.444
989.534
989.499
989.384
989.205
988.942
988.644
988.437
988.538
989.781
993.436
998.54
997.916
992.85
989.935
989.389
989.562
989.935
990.398
990.813
991.058
991.139
991.107
991
990.833
990.598
990.338
990.172
990.32
991.495
994.669
998.867
998.086
993.748
991.309
990.89
991.092
991.469
991.907
992.277
992.489
992.56
992.534
992.439
992.29
992.086
991.87
991.755
991.953
993.058
995.756
999.133
998.199
994.508
992.525
992.232
992.464
992.839
993.242
993.563
993.743
993.805
993.786
993.707