/*--------------------------------*- C++ -*----------------------------------*\
| =========                 |                                                 |
| \\      /  F ield         | OpenFOAM: The Open Source CFD Toolbox           |
|  \\    /   O peration     | Version:  2.1.0                                 |
|   \\  /    A nd           | Web:      www.OpenFOAM.org                      |
|    \\/     M anipulation  |                                                 |
\*---------------------------------------------------------------------------*/
FoamFile
{
    version     2.0;
    format      ascii;
    class       volScalarField;
    location    "0.17";
    object      T;
}
// * * * * * * * * * * * * * * * * * * * * * * * * * * * * * * * * * * * * * //

dimensions      [0 0 0 1 0 0 0];

internalField   nonuniform List<scalar> 
6400
(
293.15
293.15
293.15
293.15
293.15
293.15
293.15
293.15
293.15
293.15
293.15
293.15
293.15
293.15
293.15
293.15
293.15
293.15
293.15
293.15
293.15
293.15
293.15
293.15
293.15
293.15
293.15
293.15
293.15
293.15
293.15
293.15
293.15
293.15
293.15
293.15
293.15
293.15
293.15
293.15
293.15
293.15
293.15
293.15
293.15
293.15
293.15
293.15
293.15
293.15
293.15
293.15
293.15
293.15
293.15
293.15
293.15
293.15
293.15
293.15
293.15
293.15
293.15
293.15
293.15
293.15
293.15
293.15
293.15
293.15
293.151
293.151
293.151
293.151
293.151
293.152
293.152
293.152
293.153
293.153
293.154
293.155
293.156
293.158
293.16
293.162
293.165
293.168
293.172
293.177
293.183
293.188
293.192
293.191
293.181
293.186
293.327
293.948
295.126
296.26
293.15
293.15
293.15
293.15
293.15
293.15
293.15
293.15
293.15
293.15
293.15
293.15
293.15
293.15
293.15
293.15
293.15
293.15
293.15
293.15
293.15
293.15
293.15
293.15
293.15
293.15
293.15
293.15
293.15
293.15
293.15
293.15
293.15
293.15
293.15
293.15
293.15
293.15
293.15
293.15
293.15
293.15
293.15
293.15
293.15
293.15
293.15
293.15
293.15
293.15
293.15
293.15
293.15
293.15
293.15
293.15
293.15
293.15
293.15
293.15
293.15
293.15
293.151
293.151
293.151
293.151
293.151
293.152
293.152
293.152
293.153
293.154
293.154
293.155
293.157
293.158
293.16
293.162
293.165
293.169
293.173
293.179
293.186
293.195
293.205
293.218
293.235
293.255
293.28
293.312
293.351
293.402
293.471
293.573
293.736
294.004
294.403
294.971
295.702
296.46
293.15
293.15
293.15
293.15
293.15
293.15
293.15
293.15
293.15
293.15
293.15
293.15
293.15
293.15
293.15
293.15
293.15
293.15
293.15
293.15
293.15
293.15
293.15
293.15
293.15
293.15
293.15
293.15
293.15
293.15
293.15
293.15
293.15
293.15
293.15
293.15
293.15
293.15
293.15
293.15
293.15
293.15
293.15
293.15
293.15
293.15
293.15
293.15
293.15
293.15
293.15
293.15
293.15
293.15
293.15
293.15
293.15
293.151
293.151
293.151
293.151
293.151
293.152
293.152
293.152
293.153
293.154
293.155
293.156
293.157
293.159
293.161
293.163
293.166
293.17
293.175
293.181
293.188
293.197
293.208
293.222
293.239
293.26
293.286
293.317
293.356
293.404
293.462
293.532
293.618
293.721
293.846
293.999
294.185
294.414
294.695
295.04
295.465
295.964
296.49
293.15
293.15
293.15
293.15
293.15
293.15
293.15
293.15
293.15
293.15
293.15
293.15
293.15
293.15
293.15
293.15
293.15
293.15
293.15
293.15
293.15
293.15
293.15
293.15
293.15
293.15
293.15
293.15
293.15
293.15
293.15
293.15
293.15
293.15
293.15
293.15
293.15
293.15
293.15
293.15
293.15
293.15
293.15
293.15
293.15
293.15
293.15
293.15
293.15
293.15
293.15
293.15
293.15
293.151
293.151
293.151
293.151
293.151
293.152
293.152
293.153
293.153
293.154
293.155
293.156
293.158
293.159
293.162
293.164
293.168
293.172
293.177
293.183
293.19
293.199
293.21
293.223
293.239
293.257
293.28
293.307
293.34
293.378
293.423
293.476
293.538
293.61
293.693
293.79
293.901
294.028
294.174
294.341
294.531
294.748
294.992
295.274
295.596
295.951
296.307
293.15
293.15
293.15
293.15
293.15
293.15
293.15
293.15
293.15
293.15
293.15
293.15
293.15
293.15
293.15
293.15
293.15
293.15
293.15
293.15
293.15
293.15
293.15
293.15
293.15
293.15
293.15
293.15
293.15
293.15
293.15
293.15
293.15
293.15
293.15
293.15
293.15
293.15
293.15
293.15
293.15
293.15
293.15
293.15
293.15
293.15
293.15
293.15
293.15
293.151
293.151
293.151
293.151
293.151
293.152
293.152
293.152
293.153
293.154
293.155
293.156
293.157
293.159
293.16
293.163
293.166
293.169
293.173
293.178
293.184
293.191
293.199
293.209
293.221
293.235
293.251
293.27
293.292
293.318
293.348
293.383
293.423
293.468
293.52
293.579
293.647
293.723
293.809
293.906
294.015
294.137
294.273
294.425
294.593
294.779
294.983
295.207
295.449
295.696
295.911
293.15
293.15
293.15
293.15
293.15
293.15
293.15
293.15
293.15
293.15
293.15
293.15
293.15
293.15
293.15
293.15
293.15
293.15
293.15
293.15
293.15
293.15
293.15
293.15
293.15
293.15
293.15
293.15
293.15
293.15
293.15
293.15
293.15
293.15
293.15
293.15
293.15
293.15
293.15
293.15
293.15
293.15
293.15
293.15
293.15
293.15
293.15
293.151
293.151
293.151
293.151
293.151
293.152
293.152
293.153
293.153
293.154
293.155
293.156
293.157
293.159
293.161
293.163
293.166
293.169
293.173
293.178
293.183
293.189
293.196
293.205
293.215
293.226
293.239
293.254
293.272
293.292
293.314
293.34
293.369
293.402
293.44
293.482
293.529
293.582
293.641
293.708
293.782
293.865
293.956
294.059
294.172
294.297
294.434
294.584
294.745
294.916
295.091
295.253
295.356
293.15
293.15
293.15
293.15
293.15
293.15
293.15
293.15
293.15
293.15
293.15
293.15
293.15
293.15
293.15
293.15
293.15
293.15
293.15
293.15
293.15
293.15
293.15
293.15
293.15
293.15
293.15
293.15
293.15
293.15
293.15
293.15
293.15
293.15
293.15
293.15
293.15
293.15
293.15
293.15
293.15
293.15
293.15
293.15
293.15
293.151
293.151
293.151
293.151
293.151
293.152
293.152
293.152
293.153
293.153
293.154
293.155
293.156
293.157
293.159
293.16
293.162
293.164
293.167
293.17
293.174
293.178
293.183
293.188
293.195
293.202
293.211
293.22
293.231
293.243
293.258
293.273
293.291
293.312
293.334
293.36
293.388
293.42
293.456
293.496
293.541
293.59
293.646
293.707
293.776
293.851
293.936
294.028
294.13
294.241
294.36
294.482
294.601
294.698
294.731
293.15
293.15
293.15
293.15
293.15
293.15
293.15
293.15
293.15
293.15
293.15
293.15
293.15
293.15
293.15
293.15
293.15
293.15
293.15
293.15
293.15
293.15
293.15
293.15
293.15
293.15
293.15
293.15
293.15
293.15
293.15
293.15
293.15
293.15
293.15
293.15
293.15
293.15
293.15
293.15
293.15
293.15
293.15
293.15
293.15
293.151
293.151
293.151
293.151
293.151
293.151
293.152
293.152
293.152
293.153
293.153
293.154
293.155
293.156
293.157
293.158
293.159
293.161
293.163
293.165
293.167
293.17
293.173
293.176
293.181
293.185
293.191
293.197
293.204
293.211
293.22
293.23
293.241
293.254
293.268
293.283
293.301
293.321
293.343
293.368
293.395
293.426
293.46
293.498
293.541
293.588
293.642
293.701
293.766
293.838
293.916
293.995
294.068
294.122
294.124
293.15
293.15
293.15
293.15
293.15
293.15
293.15
293.15
293.15
293.15
293.15
293.15
293.15
293.15
293.15
293.15
293.15
293.15
293.15
293.15
293.15
293.15
293.15
293.15
293.15
293.15
293.15
293.15
293.15
293.15
293.15
293.15
293.15
293.15
293.15
293.15
293.15
293.15
293.15
293.15
293.15
293.15
293.15
293.15
293.15
293.15
293.15
293.151
293.151
293.151
293.151
293.151
293.151
293.151
293.152
293.152
293.152
293.153
293.153
293.154
293.154
293.155
293.156
293.157
293.158
293.159
293.161
293.162
293.164
293.166
293.169
293.171
293.175
293.178
293.182
293.186
293.191
293.197
293.203
293.209
293.217
293.226
293.235
293.246
293.257
293.27
293.285
293.301
293.319
293.339
293.361
293.386
293.414
293.446
293.481
293.52
293.562
293.599
293.625
293.621
293.15
293.15
293.15
293.15
293.15
293.15
293.15
293.15
293.15
293.15
293.15
293.15
293.15
293.15
293.15
293.15
293.15
293.15
293.15
293.15
293.15
293.15
293.15
293.15
293.15
293.15
293.15
293.15
293.15
293.15
293.15
293.15
293.15
293.15
293.15
293.15
293.15
293.15
293.15
293.15
293.15
293.15
293.15
293.15
293.15
293.15
293.15
293.15
293.15
293.15
293.15
293.151
293.151
293.151
293.151
293.151
293.151
293.151
293.152
293.152
293.152
293.152
293.153
293.153
293.154
293.154
293.155
293.156
293.157
293.157
293.159
293.16
293.161
293.162
293.164
293.166
293.168
293.17
293.172
293.175
293.177
293.18
293.184
293.187
293.191
293.195
293.2
293.205
293.21
293.216
293.222
293.229
293.236
293.243
293.252
293.261
293.27
293.281
293.287
293.285
293.15
293.15
293.15
293.15
293.15
293.15
293.15
293.15
293.15
293.15
293.15
293.15
293.15
293.15
293.15
293.15
293.15
293.15
293.15
293.15
293.15
293.15
293.15
293.15
293.15
293.15
293.15
293.15
293.15
293.15
293.15
293.15
293.15
293.15
293.15
293.15
293.15
293.15
293.15
293.15
293.15
293.15
293.15
293.15
293.15
293.15
293.15
293.15
293.15
293.15
293.15
293.15
293.15
293.15
293.15
293.15
293.15
293.151
293.151
293.151
293.151
293.151
293.151
293.151
293.151
293.152
293.152
293.152
293.152
293.153
293.153
293.154
293.154
293.154
293.155
293.155
293.156
293.157
293.157
293.158
293.158
293.159
293.16
293.16
293.161
293.162
293.163
293.163
293.164
293.164
293.165
293.165
293.166
293.166
293.166
293.165
293.165
293.164
293.162
293.16
293.15
293.15
293.15
293.15
293.15
293.15
293.15
293.15
293.15
293.15
293.15
293.15
293.15
293.15
293.15
293.15
293.15
293.15
293.15
293.15
293.15
293.15
293.15
293.15
293.15
293.15
293.15
293.15
293.15
293.15
293.15
293.15
293.15
293.15
293.15
293.15
293.15
293.15
293.15
293.15
293.15
293.15
293.15
293.15
293.15
293.15
293.15
293.15
293.15
293.15
293.15
293.15
293.15
293.15
293.15
293.15
293.15
293.15
293.15
293.15
293.15
293.15
293.15
293.15
293.15
293.151
293.151
293.151
293.151
293.151
293.151
293.151
293.151
293.151
293.151
293.151
293.151
293.151
293.152
293.152
293.152
293.152
293.152
293.152
293.152
293.152
293.152
293.152
293.152
293.152
293.152
293.152
293.151
293.151
293.151
293.151
293.151
293.151
293.151
293.15
293.15
293.15
293.15
293.15
293.15
293.15
293.15
293.15
293.15
293.15
293.15
293.15
293.15
293.15
293.15
293.15
293.15
293.15
293.15
293.15
293.15
293.15
293.15
293.15
293.15
293.15
293.15
293.15
293.15
293.15
293.15
293.15
293.15
293.15
293.15
293.15
293.15
293.15
293.15
293.15
293.15
293.15
293.15
293.15
293.15
293.15
293.15
293.15
293.15
293.15
293.15
293.15
293.15
293.15
293.15
293.15
293.15
293.15
293.15
293.15
293.15
293.15
293.15
293.15
293.15
293.15
293.15
293.15
293.15
293.15
293.15
293.15
293.15
293.15
293.15
293.15
293.15
293.15
293.15
293.15
293.15
293.15
293.15
293.15
293.15
293.15
293.15
293.15
293.15
293.15
293.15
293.15
293.15
293.15
293.15
293.15
293.15
293.15
293.15
293.15
293.15
293.15
293.15
293.15
293.15
293.15
293.15
293.15
293.15
293.15
293.15
293.15
293.15
293.15
293.15
293.15
293.15
293.15
293.15
293.15
293.15
293.15
293.15
293.15
293.15
293.15
293.15
293.15
293.15
293.15
293.15
293.15
293.15
293.15
293.15
293.15
293.15
293.15
293.15
293.15
293.15
293.15
293.15
293.15
293.15
293.15
293.15
293.15
293.15
293.15
293.15
293.15
293.15
293.15
293.15
293.15
293.15
293.15
293.15
293.15
293.15
293.15
293.15
293.15
293.15
293.15
293.15
293.15
293.15
293.15
293.15
293.15
293.15
293.15
293.15
293.15
293.15
293.15
293.15
293.15
293.15
293.15
293.15
293.15
293.15
293.15
293.15
293.15
293.15
293.15
293.15
293.15
293.15
293.15
293.15
293.15
293.15
293.15
293.15
293.15
293.15
293.15
293.15
293.15
293.15
293.15
293.15
293.15
293.15
293.15
293.15
293.15
293.15
293.15
293.15
293.15
293.15
293.15
293.15
293.15
293.15
293.15
293.15
293.15
293.15
293.15
293.15
293.15
293.15
293.15
293.15
293.15
293.15
293.15
293.15
293.15
293.15
293.15
293.15
293.15
293.15
293.15
293.15
293.15
293.15
293.15
293.15
293.15
293.15
293.15
293.15
293.15
293.15
293.15
293.15
293.15
293.15
293.15
293.15
293.15
293.15
293.15
293.15
293.15
293.15
293.15
293.15
293.15
293.15
293.15
293.15
293.15
293.15
293.15
293.15
293.15
293.15
293.15
293.15
293.15
293.15
293.15
293.15
293.15
293.15
293.15
293.15
293.15
293.15
293.15
293.15
293.15
293.15
293.15
293.15
293.15
293.15
293.15
293.15
293.15
293.15
293.15
293.15
293.15
293.15
293.15
293.15
293.15
293.15
293.15
293.15
293.15
293.15
293.15
293.15
293.15
293.15
293.15
293.15
293.15
293.15
293.15
293.15
293.15
293.15
293.15
293.15
293.15
293.15
293.15
293.15
293.15
293.15
293.15
293.15
293.15
293.15
293.15
293.15
293.15
293.15
293.15
293.15
293.15
293.15
293.15
293.15
293.15
293.15
293.15
293.15
293.15
293.15
293.15
293.15
293.15
293.15
293.15
293.15
293.15
293.15
293.15
293.15
293.15
293.15
293.15
293.15
293.15
293.15
293.15
293.15
293.15
293.15
293.15
293.15
293.15
293.15
293.15
293.15
293.15
293.15
293.15
293.15
293.15
293.15
293.15
293.15
293.15
293.15
293.15
293.15
293.15
293.15
293.15
293.15
293.15
293.15
293.15
293.15
293.15
293.15
293.15
293.15
293.15
293.15
293.15
293.15
293.15
293.15
293.15
293.15
293.15
293.15
293.15
293.15
293.15
293.15
293.15
293.15
293.15
293.15
293.15
293.15
293.15
293.15
293.15
293.15
293.15
293.15
293.15
293.15
293.15
293.15
293.15
293.15
293.15
293.15
293.15
293.15
293.15
293.15
293.15
293.15
293.15
293.15
293.15
293.15
293.15
293.15
293.15
293.15
293.15
293.15
293.15
293.15
293.15
293.15
293.15
293.15
293.15
293.15
293.15
293.15
293.15
293.15
293.15
293.15
293.15
293.15
293.15
293.15
293.15
293.15
293.15
293.15
293.15
293.15
293.15
293.15
293.15
293.15
293.15
293.15
293.15
293.15
293.15
293.15
293.15
293.15
293.15
293.15
293.15
293.15
293.15
293.15
293.15
293.15
293.15
293.15
293.15
293.15
293.15
293.15
293.15
293.15
293.15
293.15
293.15
293.15
293.15
293.15
293.15
293.15
293.15
293.15
293.15
293.15
293.15
293.15
293.15
293.15
293.15
293.15
293.15
293.15
293.15
293.15
293.15
293.15
293.15
293.15
293.15
293.15
293.15
293.15
293.15
293.15
293.15
293.15
293.15
293.15
293.15
293.15
293.15
293.15
293.15
293.15
293.15
293.15
293.15
293.15
293.15
293.15
293.15
293.15
293.15
293.15
293.15
293.15
293.15
293.15
293.15
293.15
293.15
293.15
293.15
293.15
293.15
293.15
293.15
293.15
293.15
293.15
293.15
293.15
293.15
293.15
293.15
293.15
293.15
293.15
293.15
293.15
293.15
293.15
293.15
293.15
293.15
293.15
293.15
293.15
293.15
293.15
293.15
293.15
293.15
293.15
293.15
293.15
293.15
293.15
293.15
293.15
293.15
293.15
293.15
293.15
293.15
293.15
293.15
293.15
293.15
293.15
293.15
293.15
293.15
293.15
293.15
293.15
293.15
293.15
293.15
293.15
293.15
293.15
293.15
293.15
293.15
293.15
293.15
293.15
293.15
293.15
293.15
293.15
293.15
293.15
293.15
293.15
293.15
293.15
293.15
293.15
293.15
293.15
293.15
293.15
293.15
293.15
293.15
293.15
293.15
293.15
293.15
293.15
293.15
293.15
293.15
293.15
293.15
293.15
293.15
293.15
293.15
293.15
293.15
293.15
293.15
293.15
293.15
293.15
293.15
293.15
293.15
293.15
293.15
293.15
293.15
293.15
293.15
293.15
293.15
293.15
293.15
293.15
293.15
293.15
293.15
293.15
293.15
293.15
293.15
293.15
293.15
293.15
293.15
293.15
293.15
293.15
293.15
293.15
293.15
293.15
293.15
293.15
293.15
293.15
293.15
293.15
293.15
293.15
293.15
293.15
293.15
293.15
293.15
293.15
293.15
293.15
293.15
293.15
293.15
293.15
293.15
293.15
293.15
293.15
293.15
293.15
293.15
293.15
293.15
293.15
293.15
293.15
293.15
293.15
293.15
293.15
293.15
293.15
293.15
293.15
293.15
293.15
293.15
293.15
293.15
293.15
293.15
293.15
293.15
293.15
293.15
293.15
293.15
293.15
293.15
293.15
293.15
293.15
293.15
293.15
293.15
293.15
293.15
293.15
293.15
293.15
293.15
293.15
293.15
293.15
293.15
293.15
293.15
293.15
293.15
293.15
293.15
293.15
293.15
293.15
293.15
293.15
293.15
293.15
293.15
293.15
293.15
293.15
293.15
293.15
293.15
293.15
293.15
293.15
293.15
293.15
293.15
296.897
298.18
298.12
297.649
297.188
296.823
296.56
296.382
296.265
296.189
296.137
296.093
296.038
295.942
295.766
295.467
295.008
294.395
293.729
293.235
297.067
297.728
297.487
297.019
296.603
296.285
296.057
295.899
295.79
295.712
295.65
295.59
295.512
295.394
295.207
294.922
294.524
294.032
293.536
293.199
296.965
297.151
296.822
296.399
296.044
295.777
295.585
295.446
295.344
295.264
295.194
295.12
295.027
294.898
294.713
294.457
294.127
293.747
293.392
293.176
296.572
296.48
296.142
295.792
295.508
295.294
295.135
295.015
294.92
294.841
294.765
294.684
294.585
294.457
294.288
294.071
293.81
293.531
293.29
293.162
295.975
295.773
295.482
295.215
295
294.834
294.706
294.605
294.52
294.443
294.369
294.288
294.193
294.078
293.935
293.762
293.568
293.375
293.222
293.155
295.29
295.088
294.869
294.679
294.525
294.402
294.303
294.219
294.147
294.08
294.013
293.941
293.86
293.765
293.654
293.527
293.393
293.27
293.182
293.152
294.619
294.467
294.321
294.195
294.091
294.005
293.933
293.871
293.815
293.762
293.709
293.652
293.59
293.521
293.443
293.36
293.276
293.205
293.162
293.15
294.029
293.936
293.851
293.778
293.716
293.663
293.617
293.576
293.538
293.501
293.465
293.428
293.388
293.345
293.298
293.25
293.205
293.171
293.153
293.15
293.569
293.526
293.486
293.451
293.421
293.394
293.37
293.348
293.328
293.309
293.29
293.271
293.252
293.231
293.209
293.188
293.168
293.156
293.151
293.15
293.268
293.256
293.244
293.234
293.225
293.216
293.209
293.202
293.196
293.19
293.185
293.18
293.175
293.169
293.164
293.158
293.153
293.151
293.15
293.15
293.158
293.157
293.156
293.156
293.155
293.154
293.154
293.153
293.153
293.152
293.152
293.152
293.151
293.151
293.151
293.15
293.15
293.15
293.15
293.15
293.15
293.15
293.15
293.15
293.15
293.15
293.15
293.15
293.15
293.15
293.15
293.15
293.15
293.15
293.15
293.15
293.15
293.15
293.15
293.15
293.15
293.15
293.15
293.15
293.15
293.15
293.15
293.15
293.15
293.15
293.15
293.15
293.15
293.15
293.15
293.15
293.15
293.15
293.15
293.15
293.15
293.15
293.15
293.15
293.15
293.15
293.15
293.15
293.15
293.15
293.15
293.15
293.15
293.15
293.15
293.15
293.15
293.15
293.15
293.15
293.15
293.15
293.15
293.15
293.15
293.15
293.15
293.15
293.15
293.15
293.15
293.15
293.15
293.15
293.15
293.15
293.15
293.15
293.15
293.15
293.15
293.15
293.15
293.15
293.15
293.15
293.15
293.15
293.15
293.15
293.15
293.15
293.15
293.15
293.15
293.15
293.15
293.15
293.15
293.15
293.15
293.15
293.15
293.15
293.15
293.15
293.15
293.15
293.15
293.15
293.15
293.15
293.15
293.15
293.15
293.15
293.15
293.15
293.15
293.15
293.15
293.15
293.15
293.15
293.15
293.15
293.15
293.15
293.15
293.15
293.15
293.15
293.15
293.15
293.15
293.15
293.15
293.15
293.15
293.15
293.15
293.15
293.15
293.15
293.15
293.15
293.15
293.15
293.15
293.15
293.15
293.15
293.15
293.15
293.15
293.15
293.15
293.15
293.15
293.15
293.15
293.15
293.15
293.15
293.15
293.15
293.15
293.15
293.15
293.15
293.15
293.15
293.15
293.15
293.15
293.15
293.15
293.15
293.15
293.15
393.15
393.15
393.15
393.15
393.15
393.15
393.15
393.15
393.15
393.15
393.15
393.15
393.15
393.15
393.15
393.15
393.15
393.15
393.15
393.15
393.15
393.15
393.15
393.15
393.15
393.15
393.15
393.15
393.15
393.15
393.15
393.15
393.15
393.15
393.15
393.15
393.15
393.15
393.15
393.15
393.15
393.15
393.15
393.15
393.15
393.15
393.15
393.15
393.15
393.15
393.15
393.15
393.15
393.15
393.15
393.15
393.15
393.15
393.15
393.15
393.15
393.15
393.15
393.15
393.15
393.15
393.15
393.15
393.15
393.15
393.15
393.15
393.15
393.15
393.15
393.15
393.15
393.15
393.15
393.15
393.15
393.15
393.15
393.15
393.15
393.15
393.15
393.15
393.15
393.15
393.15
393.15
393.15
393.15
393.15
393.15
393.15
393.15
393.15
393.15
393.15
393.15
393.15
393.15
393.15
393.15
393.15
393.15
393.15
393.15
393.15
393.15
393.15
393.15
393.15
393.15
393.15
393.15
393.15
393.15
393.15
393.15
393.15
393.15
393.15
393.15
393.15
393.15
393.15
393.15
393.15
393.15
393.15
393.15
393.15
393.15
393.15
393.15
393.15
393.15
393.15
393.15
393.15
393.15
393.15
393.15
393.15
393.15
393.15
393.15
393.15
393.15
393.15
393.15
393.15
393.15
393.15
393.15
393.15
393.15
393.15
393.15
393.15
393.15
393.15
393.15
393.15
393.15
393.15
393.15
393.15
393.15
393.15
393.15
393.15
393.15
393.15
393.15
393.15
393.15
393.15
393.15
393.15
393.15
393.15
393.15
393.15
393.15
393.15
393.15
393.15
393.15
393.15
393.15
393.15
393.15
393.15
393.15
393.15
393.15
393.15
393.15
393.15
393.15
393.15
393.15
393.15
393.15
393.15
393.15
393.15
393.15
393.15
393.15
393.15
393.15
393.15
393.15
393.15
393.15
393.15
393.15
393.15
393.15
393.15
393.15
393.15
393.15
393.15
393.15
393.15
393.15
393.15
393.15
393.15
393.15
393.15
393.15
393.15
393.15
393.15
393.15
393.15
393.15
393.15
393.15
393.15
393.15
393.15
393.15
393.15
393.15
393.15
393.15
393.15
393.15
393.15
393.15
393.15
393.15
393.15
393.15
393.15
393.15
393.15
393.15
393.15
393.15
393.15
393.15
393.15
393.15
393.15
393.15
393.15
393.15
393.15
393.15
393.15
393.15
393.15
393.15
393.15
393.15
393.15
393.15
393.15
393.15
393.15
393.15
393.15
393.15
393.15
393.15
393.15
393.15
393.15
393.15
393.15
393.15
393.15
393.15
393.15
393.15
393.15
393.15
393.15
393.15
393.15
393.15
393.15
393.15
393.15
393.15
393.15
393.15
393.15
393.15
393.15
393.15
393.15
393.15
393.15
393.15
393.15
393.15
393.15
393.15
393.15
393.15
393.15
393.15
393.15
393.15
393.15
393.15
393.15
393.15
393.15
393.15
393.15
393.15
393.15
393.15
393.15
393.15
393.15
393.15
393.15
393.15
393.15
393.15
393.15
393.15
393.15
393.15
393.15
393.15
393.15
393.15
393.15
393.15
393.15
393.15
393.15
393.15
393.15
393.15
393.15
393.15
393.15
393.15
393.15
393.15
393.15
393.15
393.15
393.15
393.15
393.15
393.15
393.15
393.15
393.15
393.15
393.15
393.15
393.15
393.15
393.15
393.15
393.15
393.15
393.15
393.15
393.15
393.15
393.15
393.15
393.15
393.15
393.15
393.15
393.15
393.15
393.15
393.15
393.15
393.15
393.15
393.15
393.15
393.15
393.15
393.15
393.15
393.15
393.15
393.15
393.15
393.15
393.15
393.15
393.15
393.15
393.15
393.15
393.15
393.15
393.15
393.15
393.15
393.15
393.15
393.15
393.15
393.15
393.15
393.15
393.15
393.15
393.15
393.15
393.15
393.15
393.15
393.15
393.15
393.15
393.15
393.15
393.15
393.15
393.15
393.15
393.15
393.15
393.15
393.15
393.15
393.15
393.15
393.15
393.15
393.15
393.15
393.15
393.15
393.15
393.15
393.15
393.15
393.15
393.15
393.15
393.15
393.15
393.15
393.15
393.15
393.15
393.15
393.15
393.15
393.15
393.15
393.15
393.15
393.15
393.15
393.15
393.15
393.15
393.15
393.15
393.15
393.15
393.15
393.15
393.15
393.15
393.15
393.15
393.15
393.15
393.15
393.15
393.15
393.15
393.15
393.15
393.15
393.15
393.15
393.15
393.15
393.15
393.15
393.15
393.15
393.15
393.15
393.15
393.15
393.15
393.15
393.15
393.15
393.15
393.15
393.15
393.15
393.15
393.15
393.15
393.15
393.15
393.15
393.15
393.15
393.15
393.15
393.15
393.15
393.15
393.15
393.15
393.15
393.15
393.15
393.15
393.15
393.15
393.15
393.15
393.15
393.15
393.15
393.15
393.15
393.15
393.15
393.15
393.15
393.15
393.15
393.15
393.15
393.15
393.15
393.15
393.15
393.15
393.15
393.15
393.15
393.15
393.15
393.15
393.15
393.15
393.15
393.15
393.15
393.15
393.15
393.15
393.15
393.15
393.15
393.15
393.15
393.15
393.15
393.15
393.15
393.15
393.15
393.15
393.15
393.15
393.15
393.15
393.15
393.15
393.15
393.15
393.15
393.15
393.15
393.15
393.15
393.15
393.15
393.15
393.15
393.15
393.15
393.15
393.15
393.15
393.15
393.15
393.15
393.15
393.15
393.15
393.15
393.15
393.15
393.15
393.15
393.15
393.15
393.15
393.15
393.15
393.15
393.15
393.15
393.15
393.15
393.15
393.15
393.15
393.15
393.15
393.15
393.15
393.15
393.15
393.15
393.15
393.15
393.15
393.15
393.15
393.15
393.15
393.15
393.15
393.15
393.15
393.15
393.15
393.15
393.15
393.15
393.15
393.15
393.15
393.15
393.15
393.15
393.15
393.15
393.15
393.15
393.15
393.15
393.15
393.15
393.15
393.15
393.15
393.15
393.15
393.15
393.15
393.15
393.15
393.15
393.15
393.15
393.15
393.15
393.15
393.15
393.15
393.15
393.15
393.15
393.15
393.15
393.15
393.15
393.15
393.15
393.15
393.15
393.15
393.15
393.15
393.15
393.15
393.15
393.15
393.15
393.15
393.15
393.15
393.15
393.15
393.15
393.15
393.15
393.15
393.15
393.15
393.15
393.15
393.15
393.15
393.15
393.15
393.15
393.15
393.15
393.15
393.15
393.15
393.15
393.15
393.15
393.15
393.15
393.15
393.15
393.15
393.15
393.15
393.15
393.15
393.15
393.15
393.15
393.15
393.15
393.15
393.15
393.15
393.15
393.15
393.15
393.15
393.15
393.15
393.15
393.15
393.15
393.15
393.15
393.15
393.15
393.15
393.15
393.15
393.15
393.15
393.15
393.15
393.15
393.15
393.15
393.15
393.15
393.15
393.15
393.15
393.15
393.15
393.15
393.15
393.15
393.15
393.15
393.15
393.15
393.15
393.15
393.15
393.15
393.15
393.15
393.15
393.15
393.15
393.15
393.15
393.15
393.15
393.15
393.15
393.15
393.15
393.15
393.15
393.15
393.15
393.15
393.149
393.15
393.15
393.15
393.15
393.15
393.15
393.15
393.15
393.15
393.15
393.15
393.15
393.15
393.15
393.15
393.15
393.15
393.15
393.149
393.148
393.15
393.15
393.15
393.15
393.15
393.15
393.15
393.15
393.15
393.15
393.15
393.15
393.15
393.15
393.15
393.15
393.15
393.15
393.148
393.147
393.149
393.15
393.15
393.15
393.149
393.149
393.149
393.149
393.149
393.149
393.149
393.149
393.149
393.149
393.15
393.15
393.15
393.149
393.147
393.145
393.149
393.149
393.149
393.149
393.149
393.149
393.149
393.149
393.149
393.149
393.149
393.149
393.149
393.149
393.149
393.149
393.149
393.149
393.145
393.141
393.148
393.149
393.149
393.149
393.149
393.149
393.148
393.148
393.148
393.148
393.148
393.148
393.149
393.149
393.149
393.149
393.149
393.148
393.141
393.134
393.146
393.148
393.148
393.148
393.148
393.148
393.148
393.147
393.147
393.147
393.147
393.148
393.148
393.148
393.148
393.148
393.148
393.146
393.134
393.122
393.143
393.147
393.147
393.147
393.147
393.146
393.146
393.146
393.146
393.146
393.146
393.146
393.146
393.147
393.147
393.147
393.147
393.144
393.122
393.104
393.139
393.145
393.145
393.145
393.145
393.144
393.144
393.144
393.144
393.144
393.144
393.144
393.144
393.145
393.145
393.145
393.145
393.139
393.104
393.074
393.132
393.141
393.143
393.142
393.142
393.141
393.141
393.141
393.141
393.141
393.141
393.141
393.141
393.142
393.142
393.143
393.141
393.132
393.075
393.03
393.121
393.136
393.139
393.138
393.138
393.137
393.136
393.136
393.136
393.136
393.136
393.136
393.137
393.138
393.138
393.139
393.136
393.121
393.03
392.962
393.105
393.129
393.132
393.132
393.131
393.13
393.13
393.129
393.129
393.129
393.129
393.13
393.13
393.131
393.132
393.132
393.129
393.105
392.962
392.863
393.08
393.117
393.123
393.123
393.122
393.121
393.12
393.119
393.119
393.119
393.119
393.12
393.121
393.122
393.123
393.123
393.117
393.08
392.863
392.72
393.043
393.1
393.11
393.11
393.109
393.107
393.105
393.104
393.104
393.104
393.104
393.105
393.107
393.109
393.11
393.11
393.1
393.043
392.72
392.518
392.99
393.075
393.09
393.091
393.089
393.087
393.085
393.084
393.083
393.083
393.084
393.085
393.087
393.089
393.091
393.09
393.075
392.991
392.519
392.239
392.916
393.039
393.063
393.064
393.062
393.059
393.056
393.055
393.054
393.054
393.055
393.056
393.059
393.062
393.064
393.062
393.039
392.916
392.24
391.861
392.812
392.989
393.023
393.027
393.024
393.02
393.016
393.014
393.013
393.013
393.014
393.016
393.02
393.024
393.027
393.023
392.989
392.812
391.862
391.359
392.67
392.919
392.969
392.974
392.971
392.966
392.961
392.958
392.956
392.956
392.958
392.961
392.965
392.971
392.974
392.968
392.919
392.67
391.36
390.704
392.479
392.823
392.893
392.902
392.898
392.891
392.885
392.881
392.879
392.879
392.881
392.885
392.891
392.898
392.902
392.893
392.823
392.479
390.705
389.865
392.227
392.694
392.791
392.804
392.799
392.791
392.783
392.778
392.775
392.775
392.778
392.783
392.791
392.799
392.804
392.79
392.693
392.226
389.864
388.808
391.899
392.522
392.654
392.673
392.667
392.656
392.647
392.64
392.636
392.636
392.639
392.646
392.656
392.666
392.672
392.652
392.52
391.897
388.806
387.501
391.477
392.295
392.471
392.498
392.492
392.478
392.466
392.457
392.452
392.452
392.457
392.465
392.477
392.49
392.497
392.469
392.293
391.474
387.496
385.912
390.945
392.002
392.232
392.269
392.261
392.245
392.23
392.218
392.212
392.212
392.218
392.229
392.244
392.26
392.267
392.229
391.997
390.94
385.902
384.012
390.282
391.625
391.923
391.971
391.963
391.943
391.924
391.91
391.902
391.902
391.909
391.922
391.941
391.96
391.968
391.918
391.618
390.272
383.995
381.778
389.468
391.149
391.526
391.589
391.58
391.555
391.532
391.515
391.505
391.505
391.513
391.53
391.553
391.576
391.584
391.52
391.138
389.451
381.75
379.193
388.481
390.552
391.024
391.105
391.095
391.065
391.036
391.015
391.004
391.003
391.013
391.033
391.061
391.089
391.098
391.015
390.537
388.453
379.152
376.25
387.299
389.815
390.396
390.498
390.486
390.451
390.416
390.391
390.377
390.376
390.388
390.412
390.445
390.479
390.488
390.383
389.794
387.257
376.192
372.953
385.899
388.913
389.62
389.745
389.733
389.691
389.65
389.619
389.602
389.601
389.615
389.644
389.683
389.723
389.732
389.602
388.884
385.839
372.874
369.317
384.257
387.822
388.671
388.824
388.811
388.761
388.712
388.675
388.655
388.653
388.67
388.704
388.751
388.797
388.806
388.648
387.785
384.178
369.213
365.368
382.353
386.518
387.526
387.709
387.695
387.637
387.578
387.534
387.51
387.508
387.528
387.568
387.623
387.676
387.686
387.495
386.47
382.254
365.238
361.144
380.171
384.979
386.16
386.377
386.361
386.293
386.224
386.172
386.143
386.141
386.164
386.21
386.274
386.336
386.346
386.12
384.918
380.05
360.987
356.693
377.701
383.183
384.551
384.804
384.785
384.705
384.624
384.563
384.529
384.526
384.552
384.606
384.68
384.753
384.763
384.5
383.108
377.557
356.511
352.071
374.939
381.116
382.68
382.969
382.946
382.852
382.758
382.686
382.646
382.641
382.672
382.734
382.82
382.904
382.917
382.614
381.023
374.772
351.866
347.339
371.89
378.764
380.53
380.855
380.826
380.716
380.605
380.521
380.474
380.468
380.503
380.575
380.674
380.772
380.789
380.447
378.651
371.7
347.116
342.562
368.566
376.126
378.091
378.45
378.411
378.281
378.151
378.053
377.998
377.99
378.03
378.113
378.228
378.343
378.367
377.989
375.989
368.353
342.325
337.806
364.991
373.202
375.362
375.748
375.694
375.542
375.39
375.275
375.21
375.2
375.246
375.342
375.475
375.61
375.645
375.235
373.037
364.75
337.561
333.138
361.193
370.007
372.345
372.752
372.678
372.497
372.32
372.186
372.11
372.097
372.149
372.26
372.415
372.574
372.625
372.19
369.802
360.907
332.889
328.621
357.204
366.558
369.055
369.473
369.372
369.158
368.951
368.794
368.705
368.69
368.749
368.877
369.057
369.244
369.318
368.868
366.302
356.854
328.368
324.31
353.063
362.885
365.516
365.93
365.795
365.543
365.301
365.118
365.013
364.994
365.062
365.211
365.419