/*--------------------------------*- C++ -*----------------------------------*\
| =========                 |                                                 |
| \\      /  F ield         | OpenFOAM: The Open Source CFD Toolbox           |
|  \\    /   O peration     | Version:  2.1.0                                 |
|   \\  /    A nd           | Web:      www.OpenFOAM.org                      |
|    \\/     M anipulation  |                                                 |
\*---------------------------------------------------------------------------*/
FoamFile
{
    version     2.0;
    format      ascii;
    class       volVectorField;
    location    "0.17";
    object      U;
}
// * * * * * * * * * * * * * * * * * * * * * * * * * * * * * * * * * * * * * //

dimensions      [0 1 -1 0 0 0 0];

internalField   nonuniform List<vector> 
6400
(
(-1.21034 8.09615e-06 0)
(-1.20953 -0.000350218 0)
(-1.20774 -0.000587741 0)
(-1.20516 -0.000719144 0)
(-1.20216 -0.000801545 0)
(-1.19887 -0.000860077 0)
(-1.19539 -0.000905092 0)
(-1.19173 -0.000942364 0)
(-1.18794 -0.000975269 0)
(-1.18403 -0.00100562 0)
(-1.17999 -0.0010346 0)
(-1.17585 -0.00106274 0)
(-1.17159 -0.00109047 0)
(-1.16722 -0.0011179 0)
(-1.16275 -0.00114524 0)
(-1.15817 -0.00117246 0)
(-1.15348 -0.00119969 0)
(-1.14868 -0.00122685 0)
(-1.14378 -0.00125411 0)
(-1.13876 -0.00128139 0)
(-1.13364 -0.00130845 0)
(-1.12842 -0.00133594 0)
(-1.12308 -0.00136449 0)
(-1.11763 -0.00139352 0)
(-1.11206 -0.0014231 0)
(-1.10637 -0.00145337 0)
(-1.10057 -0.00148443 0)
(-1.09463 -0.00151632 0)
(-1.08857 -0.00154906 0)
(-1.08238 -0.00158272 0)
(-1.07606 -0.00161734 0)
(-1.06959 -0.00165307 0)
(-1.06299 -0.00168991 0)
(-1.05623 -0.00172791 0)
(-1.04932 -0.00176727 0)
(-1.04225 -0.00180813 0)
(-1.03502 -0.00185052 0)
(-1.02762 -0.00189469 0)
(-1.02004 -0.00194073 0)
(-1.01227 -0.00198888 0)
(-1.00431 -0.00203921 0)
(-0.996146 -0.00209182 0)
(-0.987769 -0.00214669 0)
(-0.979171 -0.00220388 0)
(-0.970342 -0.00226338 0)
(-0.961273 -0.00232516 0)
(-0.951957 -0.00238913 0)
(-0.942383 -0.0024554 0)
(-0.932546 -0.0025223 0)
(-0.922442 -0.00259053 0)
(-0.912059 -0.00266369 0)
(-0.901377 -0.00274125 0)
(-0.890387 -0.0028197 0)
(-0.879095 -0.00289552 0)
(-0.867507 -0.00296829 0)
(-0.855635 -0.00303999 0)
(-0.843477 -0.0031121 0)
(-0.831033 -0.00318525 0)
(-0.818299 -0.00325926 0)
(-0.805269 -0.00333436 0)
(-0.79194 -0.00341088 0)
(-0.778306 -0.00348885 0)
(-0.76436 -0.00356859 0)
(-0.750096 -0.00365036 0)
(-0.735504 -0.00373456 0)
(-0.720574 -0.00382133 0)
(-0.705296 -0.00391066 0)
(-0.689662 -0.0040022 0)
(-0.673662 -0.00409588 0)
(-0.657288 -0.00419147 0)
(-0.640534 -0.00428895 0)
(-0.623389 -0.00438952 0)
(-0.605839 -0.00449443 0)
(-0.587867 -0.00460377 0)
(-0.569454 -0.00471796 0)
(-0.550578 -0.00483854 0)
(-0.531209 -0.00496794 0)
(-0.511306 -0.00510974 0)
(-0.490811 -0.0052688 0)
(-0.469642 -0.00545155 0)
(-0.44769 -0.00566599 0)
(-0.424813 -0.00592162 0)
(-0.400827 -0.00622851 0)
(-0.375516 -0.00659537 0)
(-0.348625 -0.00703095 0)
(-0.319871 -0.00754168 0)
(-0.288962 -0.00812701 0)
(-0.255633 -0.00877268 0)
(-0.219727 -0.00943862 0)
(-0.181344 -0.0100349 0)
(-0.141128 -0.0103748 0)
(-0.100844 -0.0100747 0)
(-0.064157 -0.00855054 0)
(-0.0364696 -0.0055033 0)
(-0.0222991 -0.00168801 0)
(-0.0249134 0.00301247 0)
(-0.0527531 0.0110968 0)
(-0.130114 0.0280473 0)
(-0.31991 0.0672367 0)
(-0.901412 0.187283 0)
(-1.4704 -0.000156222 0)
(-1.46767 -0.00123002 0)
(-1.46586 -0.0018604 0)
(-1.4629 -0.00221452 0)
(-1.45962 -0.00244062 0)
(-1.45612 -0.00260166 0)
(-1.45247 -0.00272555 0)
(-1.44868 -0.00282811 0)
(-1.44479 -0.0029188 0)
(-1.44079 -0.00300254 0)
(-1.43671 -0.0030827 0)
(-1.43253 -0.00316068 0)
(-1.42827 -0.00323774 0)
(-1.42391 -0.00331415 0)
(-1.41947 -0.00339052 0)
(-1.41494 -0.00346666 0)
(-1.41032 -0.00354296 0)
(-1.40561 -0.00361912 0)
(-1.40081 -0.00369555 0)
(-1.39592 -0.00377202 0)
(-1.39094 -0.00384734 0)
(-1.38587 -0.00392327 0)
(-1.38072 -0.00400204 0)
(-1.37548 -0.00408167 0)
(-1.37015 -0.00416251 0)
(-1.36472 -0.00424499 0)
(-1.35921 -0.00432943 0)
(-1.35361 -0.0044159 0)
(-1.3479 -0.00450444 0)
(-1.34211 -0.00459525 0)
(-1.33621 -0.00468843 0)
(-1.33022 -0.00478437 0)
(-1.32412 -0.00488318 0)
(-1.31792 -0.00498497 0)
(-1.3116 -0.00509017 0)
(-1.30518 -0.0051991 0)
(-1.29864 -0.00531184 0)
(-1.29199 -0.00542891 0)
(-1.28521 -0.00555055 0)
(-1.27831 -0.00567721 0)
(-1.27128 -0.00580918 0)
(-1.26412 -0.00594687 0)
(-1.25682 -0.00609036 0)
(-1.24938 -0.00623993 0)
(-1.24178 -0.00639564 0)
(-1.23403 -0.00655754 0)
(-1.22612 -0.00672574 0)
(-1.21804 -0.00690042 0)
(-1.20977 -0.00707824 0)
(-1.20133 -0.00725792 0)
(-1.19272 -0.00744264 0)
(-1.18395 -0.00763159 0)
(-1.17504 -0.00782114 0)
(-1.16599 -0.00800735 0)
(-1.1568 -0.00818903 0)
(-1.14745 -0.00836877 0)
(-1.13795 -0.00854901 0)
(-1.1283 -0.00873108 0)
(-1.11849 -0.00891486 0)
(-1.10854 -0.00910055 0)
(-1.09845 -0.00928828 0)
(-1.0882 -0.00947806 0)
(-1.07782 -0.00967045 0)
(-1.0673 -0.0098663 0)
(-1.05665 -0.0100663 0)
(-1.04586 -0.0102706 0)
(-1.03494 -0.0104793 0)
(-1.0239 -0.0106917 0)
(-1.01273 -0.0109079 0)
(-1.00144 -0.0111274 0)
(-0.990027 -0.0113504 0)
(-0.978492 -0.0115804 0)
(-0.966828 -0.0118217 0)
(-0.955023 -0.012075 0)
(-0.943062 -0.0123419 0)
(-0.930929 -0.0126266 0)
(-0.918598 -0.0129359 0)
(-0.906037 -0.0132793 0)
(-0.893201 -0.0136692 0)
(-0.880035 -0.014122 0)
(-0.866468 -0.0146572 0)
(-0.852411 -0.0152981 0)
(-0.837757 -0.0160703 0)
(-0.822377 -0.0169965 0)
(-0.806119 -0.0180979 0)
(-0.788825 -0.0193892 0)
(-0.770334 -0.0208661 0)
(-0.750519 -0.0224883 0)
(-0.729325 -0.0241513 0)
(-0.706841 -0.0256302 0)
(-0.683411 -0.0264753 0)
(-0.659736 -0.0258338 0)
(-0.637005 -0.0224173 0)
(-0.617814 -0.0150677 0)
(-0.60896 -0.00384081 0)
(-0.618978 0.011445 0)
(-0.66047 0.0372018 0)
(-0.754088 0.0866279 0)
(-0.940896 0.191953 0)
(-1.39655 0.49554 0)
(-1.61883 -0.000595585 0)
(-1.6152 -0.00225059 0)
(-1.61403 -0.00316632 0)
(-1.61143 -0.00369222 0)
(-1.60856 -0.00403114 0)
(-1.60552 -0.00427179 0)
(-1.60236 -0.00445559 0)
(-1.59911 -0.00460736 0)
(-1.59578 -0.00474098 0)
(-1.59238 -0.00486445 0)
(-1.58892 -0.00498251 0)
(-1.5854 -0.00509771 0)
(-1.58182 -0.00521169 0)
(-1.57818 -0.00532517 0)
(-1.57448 -0.00543892 0)
(-1.57072 -0.00555287 0)
(-1.56689 -0.00566744 0)
(-1.563 -0.00578252 0)
(-1.55903 -0.00589846 0)
(-1.555 -0.0060153 0)
(-1.5509 -0.00613075 0)
(-1.54673 -0.00624542 0)
(-1.54249 -0.00636153 0)
(-1.53819 -0.00647737 0)
(-1.53383 -0.00659414 0)
(-1.52942 -0.00671283 0)
(-1.52496 -0.00683394 0)
(-1.52044 -0.00695746 0)
(-1.51587 -0.00708337 0)
(-1.51124 -0.00721193 0)
(-1.50656 -0.00734319 0)
(-1.50182 -0.00747767 0)
(-1.49703 -0.00761569 0)
(-1.49219 -0.00775715 0)
(-1.48729 -0.00790264 0)
(-1.48235 -0.00805246 0)
(-1.47735 -0.00820662 0)
(-1.4723 -0.00836567 0)
(-1.46721 -0.00852985 0)
(-1.46206 -0.00869948 0)
(-1.45688 -0.00887489 0)
(-1.45164 -0.00905665 0)
(-1.44637 -0.00924491 0)
(-1.44106 -0.00944006 0)
(-1.43572 -0.00964217 0)
(-1.43035 -0.00985128 0)
(-1.42494 -0.0100676 0)
(-1.41951 -0.0102906 0)
(-1.41406 -0.0105178 0)
(-1.40861 -0.0107463 0)
(-1.40315 -0.0109732 0)
(-1.39768 -0.0111968 0)
(-1.39222 -0.0114179 0)
(-1.38677 -0.0116377 0)
(-1.38134 -0.0118556 0)
(-1.37591 -0.0120714 0)
(-1.37049 -0.0122858 0)
(-1.3651 -0.0124993 0)
(-1.35973 -0.012712 0)
(-1.3544 -0.0129236 0)
(-1.34913 -0.013133 0)
(-1.34392 -0.0133397 0)
(-1.3388 -0.0135439 0)
(-1.33378 -0.0137465 0)
(-1.32888 -0.013948 0)
(-1.32412 -0.0141475 0)
(-1.31952 -0.0143449 0)
(-1.3151 -0.0145393 0)
(-1.3109 -0.0147305 0)
(-1.30693 -0.0149177 0)
(-1.30323 -0.0151006 0)
(-1.29982 -0.0152841 0)
(-1.29673 -0.0154767 0)
(-1.29397 -0.01568 0)
(-1.29157 -0.0158963 0)
(-1.28953 -0.0161323 0)
(-1.28787 -0.0163983 0)
(-1.28659 -0.0167085 0)
(-1.28567 -0.0170814 0)
(-1.28509 -0.01754 0)
(-1.28482 -0.0181115 0)
(-1.2848 -0.0188276 0)
(-1.28496 -0.0197236 0)
(-1.28522 -0.0208335 0)
(-1.28547 -0.0221862 0)
(-1.28559 -0.0237986 0)
(-1.28545 -0.0256611 0)
(-1.28498 -0.0277117 0)
(-1.28414 -0.0298042 0)
(-1.28296 -0.0316409 0)
(-1.28163 -0.032655 0)
(-1.28045 -0.0318682 0)
(-1.27991 -0.0278164 0)
(-1.28101 -0.0185762 0)
(-1.28725 -0.00249084 0)
(-1.30113 0.0219468 0)
(-1.3342 0.0629583 0)
(-1.40112 0.138432 0)
(-1.53171 0.290598 0)
(-1.78185 0.675908 0)
(-1.75415 -0.00114205 0)
(-1.7502 -0.00310357 0)
(-1.74988 -0.00422172 0)
(-1.74801 -0.00488136 0)
(-1.74595 -0.00530629 0)
(-1.74378 -0.005604 0)
(-1.74151 -0.00582766 0)
(-1.73921 -0.00601021 0)
(-1.73686 -0.00616883 0)
(-1.7345 -0.00631451 0)
(-1.7321 -0.00645272 0)
(-1.7297 -0.00658742 0)
(-1.72727 -0.00672014 0)
(-1.72483 -0.00685232 0)
(-1.72237 -0.00698467 0)
(-1.7199 -0.00711742 0)
(-1.71742 -0.0072508 0)
(-1.71493 -0.00738516 0)
(-1.71243 -0.00752041 0)
(-1.70992 -0.00765648 0)
(-1.70739 -0.00779218 0)
(-1.70488 -0.00792686 0)
(-1.70235 -0.00805993 0)
(-1.69982 -0.00819087 0)
(-1.69728 -0.00832158 0)
(-1.69474 -0.00845378 0)
(-1.69221 -0.00858821 0)
(-1.68968 -0.00872442 0)
(-1.68715 -0.00886241 0)
(-1.68464 -0.0090022 0)
(-1.68214 -0.00914382 0)
(-1.67965 -0.00928758 0)
(-1.67718 -0.0094339 0)
(-1.67473 -0.00958251 0)
(-1.67232 -0.00973394 0)
(-1.66993 -0.0098883 0)
(-1.66758 -0.0100455 0)
(-1.66527 -0.0102058 0)
(-1.66302 -0.0103695 0)
(-1.66081 -0.0105366 0)
(-1.65867 -0.0107069 0)
(-1.6566 -0.0108809 0)
(-1.65461 -0.0110584 0)
(-1.6527 -0.0112393 0)
(-1.6509 -0.0114237 0)
(-1.64921 -0.011611 0)
(-1.64765 -0.011801 0)
(-1.64622 -0.0119921 0)
(-1.64494 -0.0121828 0)
(-1.64384 -0.0123739 0)
(-1.6429 -0.0125632 0)
(-1.6421 -0.0127472 0)
(-1.64147 -0.0129259 0)
(-1.64099 -0.0131007 0)
(-1.64069 -0.0132721 0)
(-1.64056 -0.0134391 0)
(-1.64063 -0.0135997 0)
(-1.64091 -0.0137535 0)
(-1.6414 -0.0138998 0)
(-1.64213 -0.0140377 0)
(-1.64312 -0.0141658 0)
(-1.64438 -0.0142826 0)
(-1.64593 -0.0143875 0)
(-1.64779 -0.0144817 0)
(-1.64998 -0.0145659 0)
(-1.65251 -0.0146383 0)
(-1.65541 -0.0146983 0)
(-1.65868 -0.0147452 0)
(-1.66235 -0.0147784 0)
(-1.66644 -0.0147977 0)
(-1.67094 -0.0148014 0)
(-1.67588 -0.0147961 0)
(-1.68127 -0.0147968 0)
(-1.68708 -0.0148074 0)
(-1.6933 -0.0148306 0)
(-1.69992 -0.0148767 0)
(-1.70691 -0.0149597 0)
(-1.71423 -0.0150989 0)
(-1.72184 -0.015318 0)
(-1.72967 -0.0156462 0)
(-1.73766 -0.0161166 0)
(-1.74573 -0.0167671 0)
(-1.75381 -0.0176384 0)
(-1.7618 -0.0187705 0)
(-1.76963 -0.0201947 0)
(-1.77722 -0.0219261 0)
(-1.78452 -0.0239476 0)
(-1.79148 -0.0261799 0)
(-1.79814 -0.0284464 0)
(-1.80452 -0.030411 0)
(-1.81074 -0.0314695 0)
(-1.81682 -0.0306333 0)
(-1.82275 -0.0264152 0)
(-1.82857 -0.0166642 0)
(-1.83642 0.000676654 0)
(-1.84397 0.0297108 0)
(-1.8618 0.0793171 0)
(-1.89654 0.170081 0)
(-1.95741 0.348298 0)
(-2.04632 0.72845 0)
(-1.89286 -0.00162126 0)
(-1.88927 -0.00364604 0)
(-1.88993 -0.00485034 0)
(-1.88915 -0.00558206 0)
(-1.88835 -0.00605364 0)
(-1.88749 -0.00637673 0)
(-1.88664 -0.00661409 0)
(-1.88579 -0.00680254 0)
(-1.88496 -0.00696291 0)
(-1.88416 -0.00710714 0)
(-1.88339 -0.00724211 0)
(-1.88266 -0.00737195 0)
(-1.88197 -0.00749859 0)
(-1.88132 -0.00762337 0)
(-1.88071 -0.00774724 0)
(-1.88016 -0.00787023 0)
(-1.87966 -0.00799259 0)
(-1.87921 -0.00811438 0)
(-1.87884 -0.00823523 0)
(-1.87853 -0.00835431 0)
(-1.87829 -0.00847251 0)
(-1.87814 -0.00859115 0)
(-1.87806 -0.00870874 0)
(-1.87805 -0.00882314 0)
(-1.8781 -0.00893541 0)
(-1.87823 -0.0090481 0)
(-1.87844 -0.00916214 0)
(-1.87873 -0.00927642 0)
(-1.87911 -0.00939088 0)
(-1.87957 -0.00950516 0)
(-1.88013 -0.00961928 0)
(-1.88078 -0.00973338 0)
(-1.88155 -0.00984763 0)
(-1.88241 -0.00996196 0)
(-1.8834 -0.0100767 0)
(-1.8845 -0.0101916 0)
(-1.88573 -0.0103066 0)
(-1.88708 -0.0104218 0)
(-1.88858 -0.0105372 0)
(-1.89022 -0.0106526 0)
(-1.89202 -0.0107677 0)
(-1.89397 -0.0108826 0)
(-1.89608 -0.0109969 0)
(-1.89837 -0.0111104 0)
(-1.90083 -0.0112228 0)
(-1.90347 -0.0113338 0)
(-1.90631 -0.0114424 0)
(-1.90933 -0.0115474 0)
(-1.91255 -0.0116479 0)
(-1.91597 -0.0117467 0)
(-1.9196 -0.0118443 0)
(-1.92344 -0.011937 0)
(-1.92748 -0.0120234 0)
(-1.93174 -0.0121008 0)
(-1.93623 -0.0121712 0)
(-1.94094 -0.0122355 0)
(-1.94587 -0.0122899 0)
(-1.95102 -0.0123338 0)
(-1.9564 -0.0123661 0)
(-1.96201 -0.0123863 0)
(-1.96783 -0.012393 0)
(-1.97388 -0.0123843 0)
(-1.98014 -0.0123591 0)
(-1.98662 -0.0123197 0)
(-1.99331 -0.0122677 0)
(-2.00021 -0.0122016 0)
(-2.0073 -0.0121205 0)
(-2.01458 -0.0120236 0)
(-2.02205 -0.0119108 0)
(-2.0297 -0.0117831 0)
(-2.03753 -0.0116362 0)
(-2.04553 -0.0114758 0)
(-2.05373 -0.0113209 0)
(-2.06212 -0.0111783 0)
(-2.07071 -0.0110549 0)
(-2.07947 -0.0109642 0)
(-2.08841 -0.0109232 0)
(-2.09748 -0.0109544 0)
(-2.10669 -0.011085 0)
(-2.11598 -0.0113479 0)
(-2.12534 -0.0117792 0)
(-2.13474 -0.0124194 0)
(-2.14413 -0.0133105 0)
(-2.15348 -0.0144934 0)
(-2.16276 -0.0159972 0)
(-2.17192 -0.0178329 0)
(-2.18095 -0.0199758 0)
(-2.18983 -0.0223374 0)
(-2.19856 -0.0247286 0)
(-2.20708 -0.0268031 0)
(-2.21532 -0.0279722 0)
(-2.22313 -0.0273137 0)
(-2.23002 -0.0234527 0)
(-2.23537 -0.0143366 0)
(-2.24049 0.00237548 0)
(-2.24066 0.0324447 0)
(-2.24232 0.0849198 0)
(-2.24465 0.180583 0)
(-2.23849 0.362052 0)
(-2.21489 0.692874 0)
(-2.04262 -0.00187685 0)
(-2.03999 -0.00374308 0)
(-2.04175 -0.0048877 0)
(-2.04243 -0.00559854 0)
(-2.04325 -0.00605447 0)
(-2.04415 -0.0063574 0)
(-2.04515 -0.00657228 0)
(-2.04622 -0.00673495 0)
(-2.04738 -0.00686824 0)
(-2.04863 -0.00698318 0)
(-2.04996 -0.00708793 0)
(-2.05138 -0.00718582 0)
(-2.0529 -0.00727951 0)
(-2.0545 -0.00736962 0)
(-2.0562 -0.00745741 0)
(-2.058 -0.00754251 0)
(-2.05989 -0.00762548 0)
(-2.06189 -0.00770574 0)
(-2.064 -0.00778313 0)
(-2.06621 -0.00785677 0)
(-2.06853 -0.00792824 0)
(-2.07096 -0.00799951 0)
(-2.07351 -0.00807071 0)
(-2.07617 -0.00813781 0)
(-2.07896 -0.00819999 0)
(-2.08187 -0.0082615 0)
(-2.08491 -0.00832355 0)
(-2.08808 -0.00838428 0)
(-2.09138 -0.0084438 0)
(-2.09482 -0.00850145 0)
(-2.09839 -0.00855741 0)
(-2.10209 -0.00861188 0)
(-2.10593 -0.00866505 0)
(-2.10991 -0.00871693 0)
(-2.11403 -0.00876795 0)
(-2.11828 -0.00881788 0)
(-2.12267 -0.0088668 0)
(-2.12719 -0.00891457 0)
(-2.13184 -0.00896149 0)
(-2.13662 -0.0090073 0)
(-2.14154 -0.00905192 0)
(-2.14657 -0.00909536 0)
(-2.15173 -0.00913746 0)
(-2.15701 -0.00917805 0)
(-2.16241 -0.00921706 0)
(-2.16791 -0.00925427 0)
(-2.17352 -0.00928898 0)
(-2.17923 -0.00932035 0)
(-2.18504 -0.00934838 0)
(-2.19094 -0.00937455 0)
(-2.19692 -0.00939846 0)
(-2.20299 -0.00941813 0)
(-2.20914 -0.00943248 0)
(-2.21536 -0.00943698 0)
(-2.22168 -0.00943165 0)
(-2.22806 -0.00941838 0)
(-2.23454 -0.00939511 0)
(-2.2411 -0.00936196 0)
(-2.24775 -0.00931831 0)
(-2.25448 -0.00926369 0)
(-2.26128 -0.00919668 0)
(-2.26817 -0.00911496 0)
(-2.27513 -0.00901626 0)
(-2.28217 -0.00890355 0)
(-2.28929 -0.00878118 0)
(-2.2965 -0.0086461 0)
(-2.30378 -0.00849671 0)
(-2.31115 -0.00833212 0)
(-2.31861 -0.00815213 0)
(-2.32616 -0.00795722 0)
(-2.33381 -0.00774122 0)
(-2.34158 -0.00750655 0)
(-2.34948 -0.00728007 0)
(-2.35746 -0.00706548 0)
(-2.36554 -0.00687194 0)
(-2.37373 -0.00671473 0)
(-2.38201 -0.00661237 0)
(-2.39039 -0.00658878 0)
(-2.39886 -0.00667291 0)
(-2.40741 -0.00689918 0)
(-2.41604 -0.00730566 0)
(-2.42473 -0.0079325 0)
(-2.43346 -0.00882206 0)
(-2.44223 -0.010017 0)
(-2.45102 -0.0115442 0)
(-2.45984 -0.0134117 0)
(-2.46865 -0.0155942 0)
(-2.47747 -0.0180044 0)
(-2.48623 -0.0204618 0)
(-2.49486 -0.0226372 0)
(-2.50316 -0.0239913 0)
(-2.51078 -0.0237085 0)
(-2.51695 -0.0206315 0)
(-2.52055 -0.0129814 0)
(-2.52224 0.00188024 0)
(-2.51502 0.0301591 0)
(-2.50159 0.080082 0)
(-2.47428 0.171182 0)
(-2.41222 0.336976 0)
(-2.3143 0.602149 0)
(-2.20049 -0.0018165 0)
(-2.19908 -0.00329842 0)
(-2.20193 -0.00423938 0)
(-2.20413 -0.00483162 0)
(-2.20654 -0.00520494 0)
(-2.20919 -0.00544193 0)
(-2.21196 -0.0055995 0)
(-2.2149 -0.00570918 0)
(-2.21793 -0.00579192 0)
(-2.2211 -0.00585728 0)
(-2.22435 -0.00591329 0)
(-2.22773 -0.00596244 0)
(-2.23119 -0.00600763 0)
(-2.23478 -0.00604906 0)
(-2.23844 -0.00608808 0)
(-2.24222 -0.00612389 0)
(-2.24608 -0.0061576 0)
(-2.25005 -0.00618821 0)
(-2.2541 -0.00621613 0)
(-2.25825 -0.00624054 0)
(-2.26248 -0.0062632 0)
(-2.2668 -0.00628445 0)
(-2.27121 -0.00630551 0)
(-2.27569 -0.00632257 0)
(-2.28025 -0.00633283 0)
(-2.28492 -0.00633938 0)
(-2.28966 -0.00634465 0)
(-2.29451 -0.00634783 0)
(-2.29946 -0.00635008 0)
(-2.3045 -0.00635065 0)
(-2.30964 -0.00635002 0)
(-2.31487 -0.00634831 0)
(-2.32018 -0.00634634 0)
(-2.32557 -0.006344 0)
(-2.33105 -0.00634207 0)
(-2.33659 -0.00634029 0)
(-2.34221 -0.00633927 0)
(-2.34788 -0.00633869 0)
(-2.35362 -0.00633895 0)
(-2.35941 -0.00633998 0)
(-2.36524 -0.00634183 0)
(-2.37112 -0.00634446 0)
(-2.37704 -0.00634785 0)
(-2.38299 -0.00635179 0)
(-2.38896 -0.00635624 0)
(-2.39497 -0.0063609 0)
(-2.40099 -0.00636509 0)
(-2.40703 -0.00636827 0)
(-2.41309 -0.00637033 0)
(-2.41915 -0.00637191 0)
(-2.42523 -0.00637212 0)
(-2.43131 -0.00636932 0)
(-2.4374 -0.00636162 0)
(-2.44349 -0.00634688 0)
(-2.44962 -0.00632333 0)
(-2.45572 -0.00628989 0)
(-2.46181 -0.00624625 0)
(-2.4679 -0.00619307 0)
(-2.47399 -0.0061298 0)
(-2.48008 -0.00605561 0)
(-2.48617 -0.00596898 0)
(-2.49226 -0.00586712 0)
(-2.49837 -0.00574505 0)
(-2.5045 -0.00560527 0)
(-2.51065 -0.00545819 0)
(-2.51683 -0.00529706 0)
(-2.52304 -0.00511932 0)
(-2.52929 -0.00492383 0)
(-2.53557 -0.00471033 0)
(-2.54191 -0.00447908 0)
(-2.54829 -0.0042248 0)
(-2.55475 -0.00393823 0)
(-2.56129 -0.00367395 0)
(-2.56787 -0.00342262 0)
(-2.57451 -0.0031895 0)
(-2.58123 -0.00298984 0)
(-2.58802 -0.0028432 0)
(-2.5949 -0.00277391 0)
(-2.60188 -0.00281174 0)
(-2.60898 -0.00299187 0)
(-2.61619 -0.00335402 0)
(-2.62354 -0.00393728 0)
(-2.63102 -0.00478198 0)
(-2.63866 -0.00593537 0)
(-2.64644 -0.00742199 0)
(-2.65439 -0.00924737 0)
(-2.6625 -0.011395 0)
(-2.67074 -0.0137848 0)
(-2.67905 -0.0162553 0)
(-2.6873 -0.0185175 0)
(-2.69519 -0.0201118 0)
(-2.7022 -0.0203643 0)
(-2.70741 -0.0183438 0)
(-2.70918 -0.0127158 0)
(-2.70768 -0.000732915 0)
(-2.69424 0.023186 0)
(-2.66739 0.0660604 0)
(-2.61503 0.144405 0)
(-2.51027 0.28161 0)
(-2.36594 0.478891 0)
(-2.35039 -0.00144326 0)
(-2.34997 -0.00238704 0)
(-2.35344 -0.00303225 0)
(-2.35656 -0.00344156 0)
(-2.35987 -0.00369027 0)
(-2.36354 -0.00383654 0)
(-2.36726 -0.00392191 0)
(-2.37123 -0.00397105 0)
(-2.37519 -0.00399946 0)
(-2.37935 -0.00401499 0)
(-2.38351 -0.00402377 0)
(-2.38782 -0.00402781 0)
(-2.39214 -0.0040293 0)
(-2.39659 -0.00402839 0)
(-2.40105 -0.00402624 0)
(-2.40563 -0.00402184 0)
(-2.41022 -0.0040165 0)
(-2.41492 -0.00400906 0)
(-2.41963 -0.00400041 0)
(-2.42443 -0.00398959 0)
(-2.42926 -0.0039782 0)
(-2.43416 -0.00396598 0)
(-2.43908 -0.00395317 0)
(-2.44406 -0.00393736 0)
(-2.44909 -0.00391797 0)
(-2.45418 -0.00389456 0)
(-2.45927 -0.00386925 0)
(-2.46439 -0.00384256 0)
(-2.46952 -0.00381679 0)
(-2.47467 -0.00379085 0)
(-2.47983 -0.00376562 0)
(-2.48499 -0.0037406 0)
(-2.49016 -0.00371752 0)
(-2.49533 -0.00369598 0)
(-2.50049 -0.00367695 0)
(-2.50565 -0.00365981 0)
(-2.51079 -0.00364565 0)
(-2.51592 -0.00363397 0)
(-2.52104 -0.00362486 0)
(-2.52614 -0.00361829 0)
(-2.53121 -0.00361426 0)
(-2.53627 -0.00361258 0)
(-2.5413 -0.00361308 0)
(-2.54631 -0.0036154 0)
(-2.5513 -0.00361929 0)
(-2.55626 -0.0036243 0)
(-2.5612 -0.00362969 0)
(-2.56612 -0.0036349 0)
(-2.57101 -0.0036395 0)
(-2.57589 -0.00364363 0)
(-2.58074 -0.0036461 0)
(-2.58558 -0.00364515 0)
(-2.5904 -0.00363788 0)
(-2.5952 -0.00362565 0)
(-2.6 -0.00360823 0)
(-2.60477 -0.00358158 0)
(-2.60952 -0.00354373 0)
(-2.61425 -0.00349472 0)
(-2.61898 -0.00343389 0)
(-2.6237 -0.00336013 0)
(-2.62841 -0.00327195 0)
(-2.63314 -0.00316677 0)
(-2.63787 -0.00303677 0)
(-2.64264 -0.00287874 0)
(-2.64744 -0.00271917 0)
(-2.65227 -0.00254247 0)
(-2.65715 -0.00234499 0)
(-2.66208 -0.00212572 0)
(-2.66707 -0.00188519 0)
(-2.67213 -0.00162308 0)
(-2.67725 -0.00134974 0)
(-2.68246 -0.000997229 0)
(-2.68779 -0.000697611 0)
(-2.69323 -0.000409457 0)
(-2.69877 -0.000133164 0)
(-2.70444 0.000115814 0)
(-2.71023 0.000317405 0)
(-2.71618 0.000447426 0)
(-2.72228 0.000476403 0)
(-2.72855 0.00036956 0)
(-2.73502 8.74779e-05 0)
(-2.74171 -0.000409376 0)
(-2.74864 -0.00116034 0)
(-2.75584 -0.00221183 0)
(-2.76324 -0.00358991 0)
(-2.77096 -0.00530778 0)
(-2.77893 -0.00736187 0)
(-2.78709 -0.00968174 0)
(-2.79536 -0.0121341 0)
(-2.80354 -0.0144872 0)
(-2.81128 -0.0163799 0)
(-2.81794 -0.0173044 0)
(-2.82245 -0.0165555 0)
(-2.82303 -0.0132732 0)
(-2.81828 -0.00507565 0)
(-2.80106 0.0123009 0)
(-2.76351 0.0445533 0)
(-2.69203 0.103646 0)
(-2.55735 0.204428 0)
(-2.38612 0.337799 0)
(-2.4734 -0.000800931 0)
(-2.47382 -0.00121095 0)
(-2.4774 -0.0015421 0)
(-2.48086 -0.00175025 0)
(-2.48439 -0.00186795 0)
(-2.48837 -0.0019272 0)
(-2.49225 -0.00195144 0)
(-2.49642 -0.00195586 0)
(-2.50044 -0.0019488 0)
(-2.50469 -0.0019356 0)
(-2.50878 -0.00191942 0)
(-2.51306 -0.00190168 0)
(-2.51719 -0.00188332 0)
(-2.52147 -0.00186455 0)
(-2.52561 -0.00184585 0)
(-2.52988 -0.00182654 0)
(-2.53403 -0.0018074 0)
(-2.53828 -0.00178759 0)
(-2.54241 -0.00176778 0)
(-2.54664 -0.00174738 0)
(-2.55075 -0.00172727 0)
(-2.55494 -0.00170719 0)
(-2.55903 -0.00168601 0)
(-2.56317 -0.00166294 0)
(-2.56722 -0.00164139 0)
(-2.5713 -0.00162044 0)
(-2.57528 -0.00160004 0)
(-2.57927 -0.00158006 0)
(-2.58316 -0.0015624 0)
(-2.58704 -0.00154559 0)
(-2.59084 -0.00153003 0)
(-2.59463 -0.00151514 0)
(-2.59834 -0.00150289 0)
(-2.60203 -0.00149286 0)
(-2.60566 -0.00148582 0)
(-2.60926 -0.00148088 0)
(-2.61282 -0.00147921 0)
(-2.61634 -0.00148016 0)
(-2.61983 -0.00148345 0)
(-2.62328 -0.00148908 0)
(-2.62671 -0.00149691 0)
(-2.63011 -0.00150662 0)
(-2.63349 -0.00151791 0)
(-2.63685 -0.00153032 0)
(-2.6402 -0.0015434 0)
(-2.64354 -0.00155664 0)
(-2.64687 -0.00156923 0)
(-2.65019 -0.00158067 0)
(-2.65351 -0.00159039 0)
(-2.65684 -0.00159787 0)
(-2.66018 -0.00160207 0)
(-2.66353 -0.00160123 0)
(-2.66689 -0.00159348 0)
(-2.67028 -0.00157994 0)
(-2.67369 -0.00156024 0)
(-2.67713 -0.00153041 0)
(-2.6806 -0.00148764 0)
(-2.68412 -0.00143136 0)
(-2.68768 -0.00136073 0)
(-2.6913 -0.00127451 0)
(-2.69496 -0.00117142 0)
(-2.69869 -0.00105027 0)
(-2.70248 -0.000903557 0)
(-2.70634 -0.000702011 0)
(-2.7103 -0.000519078 0)
(-2.71434 -0.000313178 0)
(-2.71847 -8.11134e-05 0)
(-2.72269 0.000177222 0)
(-2.72702 0.000461235 0)
(-2.73146 0.000767991 0)
(-2.73605 0.00109114 0)
(-2.74072 0.00150072 0)
(-2.74552 0.00186434 0)
(-2.7505 0.00222128 0)
(-2.75565 0.00257134 0)
(-2.761 0.00289959 0)
(-2.76654 0.00318625 0)
(-2.7723 0.00340748 0)
(-2.77827 0.00353444 0)
(-2.78448 0.0035332 0)
(-2.79094 0.00336581 0)
(-2.79767 0.00299013 0)
(-2.80468 0.00236318 0)
(-2.81198 0.00144962 0)
(-2.81952 0.000217853 0)
(-2.82746 -0.0013587 0)
(-2.83561 -0.00327931 0)
(-2.84401 -0.00549835 0)
(-2.85257 -0.00792663 0)
(-2.86103 -0.0103931 0)
(-2.86896 -0.0126436 0)
(-2.87568 -0.014341 0)
(-2.88003 -0.0150499 0)
(-2.88022 -0.0142509 0)
(-2.87347 -0.0104993 0)
(-2.85407 -0.00110897 0)
(-2.81111 0.017702 0)
(-2.72689 0.0529787 0)
(-2.57412 0.112833 0)
(-2.38942 0.187932 0)
(-2.54775 5.15999e-05 0)
(-2.54872 2.50478e-05 0)
(-2.55196 -2.10726e-05 0)
(-2.55522 -4.64193e-05 0)
(-2.55845 -5.52489e-05 0)
(-2.56211 -5.31123e-05 0)
(-2.56555 -4.57199e-05 0)
(-2.56927 -3.63109e-05 0)
(-2.5727 -2.64038e-05 0)
(-2.57636 -1.72854e-05 0)
(-2.57971 -9.41305e-06 0)
(-2.58326 -2.74733e-06 0)
(-2.58652 2.78968e-06 0)
(-2.58994 7.40903e-06 0)
(-2.59308 1.12745e-05 0)
(-2.59638 1.4833e-05 0)
(-2.59942 1.8105e-05 0)
(-2.60258 2.13336e-05 0)
(-2.60551 2.46233e-05 0)
(-2.60856 2.79523e-05 0)
(-2.61139 3.1169e-05 0)
(-2.61432 3.44604e-05 4.0508e-43)
(-2.61707 3.89522e-05 0)
(-2.61989 4.43552e-05 0)
(-2.62255 4.78147e-05 0)
(-2.62527 4.91642e-05 0)
(-2.62786 4.93784e-05 0)
(-2.6305 4.85684e-05 0)
(-2.63302 4.5927e-05 0)
(-2.63559 4.29205e-05 0)
(-2.63807 4.08192e-05 0)
(-2.64057 3.90014e-05 0)
(-2.64302 3.59937e-05 0)
(-2.64548 3.16161e-05 0)
(-2.64791 2.56702e-05 0)
(-2.65035 1.861e-05 0)
(-2.65277 9.83796e-06 0)
(-2.65519 -1.31915e-07 0)
(-2.65761 -1.08745e-05 0)
(-2.66004 -2.24352e-05 0)
(-2.66248 -3.46259e-05 0)
(-2.66492 -4.70593e-05 0)
(-2.66738 -5.94202e-05 0)
(-2.66986 -7.12327e-05 0)
(-2.67236 -8.19813e-05 0)
(-2.67488 -9.11323e-05 0)
(-2.67743 -9.79133e-05 0)
(-2.68001 -0.000101863 0)
(-2.68263 -0.00010245 0)
(-2.68528 -9.8602e-05 0)
(-2.68797 -8.95389e-05 0)
(-2.6907 -7.35859e-05 0)
(-2.69348 -5.01308e-05 0)
(-2.69631 -1.90111e-05 0)
(-2.69919 2.15384e-05 0)
(-2.70214 7.47589e-05 0)
(-2.70514 0.000143075 0)
(-2.70821 0.000226923 0)
(-2.71134 0.000327176 0)
(-2.71455 0.000445328 0)
(-2.71784 0.000582462 0)
(-2.72121 0.000738781 0)
(-2.72468 0.000925038 0)
(-2.72821 0.00116941 0)
(-2.73183 0.00139786 0)
(-2.73557 0.00165213 0)
(-2.73942 0.00193599 0)
(-2.74339 0.00224975 0)
(-2.74748 0.00259326 0)
(-2.75172 0.00296225 0)
(-2.7561 0.00336709 0)
(-2.76062 0.00382051 0)
(-2.76528 0.00426821 0)
(-2.77013 0.00471651 0)
(-2.77516 0.00516155 0)
(-2.7804 0.00558982 0)
(-2.78586 0.00598253 0)
(-2.79154 0.0063165 0)
(-2.79747 0.00656361 0)
(-2.80366 0.00669069 0)
(-2.81014 0.00666029 0)
(-2.81692 0.00642929 0)
(-2.82402 0.00595324 6.998e-41)
(-2.83148 0.00519973 0)
(-2.83927 0.00412562 0)
(-2.84746 0.00270076 0)
(-2.85585 0.000926019 0)
(-2.86453 -0.0011931 -1.40249e-41)
(-2.87326 -0.00359683 0)
(-2.88182 -0.00618712 0)
(-2.8899 -0.00883274 0)
(-2.89671 -0.0113592 0)
(-2.90109 -0.0136098 0)
(-2.90118 -0.0154101 -9.05722e-41)
(-2.89379 -0.0163131 0)
(-2.87305 -0.0155271 0)
(-2.82854 -0.0118447 -1.39233e-40)
(-2.73968 -0.0030658 0)
(-2.57962 0.0131575 0)
(-2.39033 0.0339787 0)
(-2.53819 0.00097137 0)
(-2.53906 0.00122998 0)
(-2.54229 0.00145051 0)
(-2.54554 0.00159371 0)
(-2.54876 0.00168041 0)
(-2.55243 0.0017303 0)
(-2.55588 0.00175528 0)
(-2.55963 0.00176448 0)
(-2.56312 0.00176276 0)
(-2.56684 0.00175363 0)
(-2.57028 0.00173916 0)
(-2.57391 0.00172107 0)
(-2.57728 0.00170036 0)
(-2.58081 0.00167797 0)
(-2.58409 0.00165461 0)
(-2.58751 0.00163063 0)
(-2.5907 0.00160682 0)
(-2.59401 0.00158307 0)
(-2.5971 0.00156005 0)
(-2.60031 0.00153743 0)
(-2.60332 0.00151563 0)
(-2.60641 0.0014946 1.75689e-41)
(-2.60934 0.00147535 0)
(-2.61233 0.00145706 0)
(-2.61517 0.00143904 0)
(-2.61808 0.00142029 0)
(-2.62085 0.00140198 0)
(-2.62367 0.0013833 0)
(-2.62637 0.00136342 0)
(-2.62911 0.00134385 0)
(-2.63176 0.00132864 0)
(-2.63443 0.00131524 0)
(-2.63703 0.00130246 0)
(-2.63965 0.00128939 0)
(-2.64221 0.00127671 0)
(-2.64479 0.00126389 0)
(-2.64734 0.00125164 0)
(-2.64988 0.00123988 0)
(-2.65242 0.00122885 0)
(-2.65496 0.00121866 0)
(-2.6575 0.00120958 0)
(-2.66004 0.00120199 0)
(-2.6626 0.00119614 0)
(-2.66516 0.0011925 0)
(-2.66774 0.00119158 0)
(-2.67034 0.00119394 0)
(-2.67296 0.00120026 0)
(-2.6756 0.00121105 0)
(-2.67828 0.00122688 0)
(-2.68098 0.00124887 0)
(-2.68372 0.00127775 0)
(-2.6865 0.00131493 0)
(-2.68933 0.00136087 0)
(-2.69219 0.00141599 0)
(-2.69511 0.00148265 0)
(-2.69807 0.00156457 0)
(-2.7011 0.00166398 0)
(-2.70419 0.00178078 0)
(-2.70734 0.00191563 0)
(-2.71056 0.00207038 0)
(-2.71386 0.00224625 0)
(-2.71724 0.00244505 0)
(-2.7207 0.00267946 0)
(-2.72424 0.00295135 0)
(-2.72787 0.00323385 0)
(-2.73159 0.0035427 0)
(-2.73543 0.00388296 0)
(-2.73938 0.00425629 0)
(-2.74344 0.00466271 0)
(-2.74764 0.00510192 0)
(-2.75198 0.00558094 0)
(-2.75645 0.00609748 0)
(-2.76107 0.00662731 0)
(-2.76586 0.00716724 0)
(-2.77084 0.00770997 0)
(-2.77601 0.00824222 0)
(-2.78141 0.00874619 0)
(-2.78703 0.00919964 0)
(-2.79291 0.00957554 0)
(-2.79906 0.00984181 0)
(-2.80551 0.00996144 0)
(-2.81228 0.00989261 0)
(-2.8194 0.00959221 1.12756e-40)
(-2.82688 0.00901976 0)
(-2.83475 0.00812359 0)
(-2.843 0.00687003 0)
(-2.85158 0.00523614 0)
(-2.86048 0.00320221 3.76418e-41)
(-2.86933 0.000792741 0)
(-2.87809 -0.00195222 0)
(-2.88598 -0.00500257 0)
(-2.89276 -0.00837372 0)
(-2.89717 -0.0121688 0)
(-2.89736 -0.0166282 -9.77317e-41)
(-2.89014 -0.0222252 0)
(-2.8697 -0.0299713 0)
(-2.82552 -0.041632 -4.89382e-40)
(-2.73879 -0.0600989 0)
(-2.58079 -0.0883588 0)
(-2.39365 -0.120768 0)
(-2.45192 0.00175146 0)
(-2.45197 0.0024036 0)
(-2.45539 0.00290298 0)
(-2.45859 0.00322823 0)
(-2.46187 0.00342786 0)
(-2.46559 0.00354453 0)
(-2.46924 0.00360891 0)
(-2.47317 0.00364003 0)
(-2.47701 0.00364964 0)
(-2.48106 0.00364511 0)
(-2.485 0.00363137 0)
(-2.48912 0.00361106 0)
(-2.49314 0.00358636 0)
(-2.49731 0.00355849 0)
(-2.5014 0.00352882 0)
(-2.50561 0.00349736 0)
(-2.50974 0.00346557 0)
(-2.51398 0.00343312 0)
(-2.51815 0.00340088 0)
(-2.52241 0.00336839 0)
(-2.52661 0.00333645 0)
(-2.53087 0.00330468 0)
(-2.53508 0.00327405 0)
(-2.53935 0.00324382 0)
(-2.54355 0.00321439 0)
(-2.54781 0.00318425 0)
(-2.55201 0.00315467 0)
(-2.55624 0.00312448 0)
(-2.56043 0.00309258 0)
(-2.56463 0.00305995 0)
(-2.56879 0.00303092 0)
(-2.57294 0.00300206 0)
(-2.57703 0.00297312 0)
(-2.58109 0.00294391 0)
(-2.5851 0.00291599 0)
(-2.58907 0.00288853 0)
(-2.59299 0.00286321 0)
(-2.59687 0.00283935 0)
(-2.60071 0.00281726 0)
(-2.60452 0.00279734 0)
(-2.60828 0.00278002 0)
(-2.61201 0.00276564 0)
(-2.61571 0.00275458 0)
(-2.61938 0.00274724 0)
(-2.62302 0.0027442 0)
(-2.62664 0.00274605 0)
(-2.63023 0.00275346 0)
(-2.63381 0.00276701 0)
(-2.63738 0.00278738 0)
(-2.64093 0.00281556 0)
(-2.64448 0.00285241 0)
(-2.64802 0.00289898 0)
(-2.65156 0.00295595 0)
(-2.65511 0.00302376 0)
(-2.65865 0.00310448 0)
(-2.66222 0.00320337 0)
(-2.66579 0.0033231 0)
(-2.66939 0.00346233 0)
(-2.67302 0.00362145 0)
(-2.67668 0.0038024 0)
(-2.68038 0.00400709 0)
(-2.68411 0.00423936 0)
(-2.6879 0.00450668 0)
(-2.69173 0.00480658 0)
(-2.69561 0.00512938 0)
(-2.69956 0.00548204 0)
(-2.70359 0.00586885 0)
(-2.70769 0.00629208 0)
(-2.71188 0.00675252 0)
(-2.71617 0.0072516 0)
(-2.72056 0.00779222 0)
(-2.72506 0.00836966 0)
(-2.72968 0.00897256 0)
(-2.73445 0.00959555 0)
(-2.73937 0.010229 0)
(-2.74447 0.0108596 0)
(-2.74976 0.0114704 0)
(-2.75527 0.0120405 0)
(-2.76102 0.0125441 0)
(-2.76702 0.0129504 0)
(-2.77332 0.0132234 0)
(-2.77993 0.0133223 0)
(-2.7869 0.0132038 0)
(-2.79423 0.0128214 0)
(-2.80197 0.012122 0)
(-2.81009 0.0110595 0)
(-2.81858 0.00958199 0)
(-2.82736 0.00765141 0)