/*--------------------------------*- C++ -*----------------------------------*\
| =========                 |                                                 |
| \\      /  F ield         | OpenFOAM: The Open Source CFD Toolbox           |
|  \\    /   O peration     | Version:  2.1.0                                 |
|   \\  /    A nd           | Web:      www.OpenFOAM.org                      |
|    \\/     M anipulation  |                                                 |
\*---------------------------------------------------------------------------*/
FoamFile
{
    version     2.0;
    format      ascii;
    class       volScalarField;
    location    "0.18";
    object      C0;
}
// * * * * * * * * * * * * * * * * * * * * * * * * * * * * * * * * * * * * * //

dimensions      [0 0 0 0 0 0 0];

internalField   nonuniform List<scalar> 
6400
(
9.13997e-11
1.07513e-10
1.30592e-10
1.59277e-10
1.94103e-10
2.36167e-10
2.8686e-10
3.47846e-10
4.21091e-10
5.08913e-10
6.14036e-10
7.39662e-10
8.89542e-10
1.06806e-09
1.28035e-09
1.53239e-09
1.83114e-09
2.18469e-09
2.60243e-09
3.09525e-09
3.67573e-09
4.35842e-09
5.1601e-09
6.10006e-09
7.20052e-09
8.48699e-09
9.98868e-09
1.17391e-08
1.37764e-08
1.61444e-08
1.88929e-08
2.20785e-08
2.57658e-08
3.0028e-08
3.49483e-08
4.06209e-08
4.71523e-08
5.46632e-08
6.32898e-08
7.31855e-08
8.45236e-08
9.74992e-08
1.12332e-07
1.29268e-07
1.48584e-07
1.70592e-07
1.95641e-07
2.24121e-07
2.56471e-07
2.93182e-07
3.34804e-07
3.8195e-07
4.3531e-07
4.95652e-07
5.63838e-07
6.40828e-07
7.27698e-07
8.25647e-07
9.36018e-07
1.06031e-06
1.20019e-06
1.35753e-06
1.53443e-06
1.7332e-06
1.95646e-06
2.20713e-06
2.48845e-06
2.80406e-06
3.15803e-06
3.55493e-06
3.99983e-06
4.49844e-06
5.05714e-06
5.68307e-06
6.38425e-06
7.16964e-06
8.04933e-06
9.03463e-06
1.01383e-05
1.13746e-05
1.27597e-05
1.4312e-05
1.60521e-05
1.80039e-05
2.01945e-05
2.26558e-05
2.54249e-05
2.85469e-05
3.20769e-05
3.60851e-05
4.06645e-05
4.59446e-05
5.21155e-05
5.94657e-05
6.84292e-05
7.96469e-05
9.39697e-05
0.000112507
0.000136166
0.000163763
1.00847e-10
1.18903e-10
1.44475e-10
1.7616e-10
2.14589e-10
2.60978e-10
3.16857e-10
3.84052e-10
4.64717e-10
5.61392e-10
6.77063e-10
8.15231e-10
9.80001e-10
1.17617e-09
1.40934e-09
1.68605e-09
2.01389e-09
2.4017e-09
2.85972e-09
3.3998e-09
4.03567e-09
4.78316e-09
5.66052e-09
6.68876e-09
7.89203e-09
9.29804e-09
1.09385e-08
1.28498e-08
1.50734e-08
1.76568e-08
2.06537e-08
2.41259e-08
2.81429e-08
3.27842e-08
3.81396e-08
4.43111e-08
5.14137e-08
5.95776e-08
6.895e-08
7.96964e-08
9.20038e-08
1.06082e-07
1.22168e-07
1.40528e-07
1.61458e-07
1.85295e-07
2.12414e-07
2.43235e-07
2.78228e-07
3.17922e-07
3.62906e-07
4.1384e-07
4.71463e-07
5.36599e-07
6.10169e-07
6.93204e-07
7.86855e-07
8.92404e-07
1.01129e-06
1.14511e-06
1.29565e-06
1.46491e-06
1.65513e-06
1.86878e-06
2.10866e-06
2.37787e-06
2.67988e-06
3.01857e-06
3.39829e-06
3.82389e-06
4.3008e-06
4.83509e-06
5.43358e-06
6.10387e-06
6.8545e-06
7.69504e-06
8.63625e-06
9.6902e-06
1.08705e-05
1.21925e-05
1.36735e-05
1.53332e-05
1.71939e-05
1.92813e-05
2.1625e-05
2.42594e-05
2.72251e-05
3.05709e-05
3.43566e-05
3.86573e-05
4.35709e-05
4.9229e-05
5.58172e-05
6.36072e-05
7.30012e-05
8.45669e-05
9.89409e-05
0.000116721
0.000137801
0.000159862
1.18001e-10
1.39419e-10
1.69444e-10
2.06527e-10
2.51452e-10
3.05646e-10
3.7089e-10
4.493e-10
5.43376e-10
6.5606e-10
7.90809e-10
9.51674e-10
1.1434e-09
1.37153e-09
1.64254e-09
1.96396e-09
2.34456e-09
2.7945e-09
3.32558e-09
3.95144e-09
4.68785e-09
5.553e-09
6.56782e-09
7.75641e-09
9.14644e-09
1.07696e-08
1.26623e-08
1.4866e-08
1.7428e-08
2.04025e-08
2.3851e-08
2.78435e-08
3.24594e-08
3.7789e-08
4.39342e-08
5.10108e-08
5.91493e-08
6.84972e-08
7.9221e-08
9.1508e-08
1.05569e-07
1.21642e-07
1.39993e-07
1.60922e-07
1.84764e-07
2.11896e-07
2.4274e-07
2.77767e-07
3.17506e-07
3.62547e-07
4.13549e-07
4.71252e-07
5.36477e-07
6.10145e-07
6.93282e-07
7.87032e-07
8.92674e-07
1.01163e-06
1.1455e-06
1.29604e-06
1.46523e-06
1.65529e-06
1.86866e-06
2.1081e-06
2.37666e-06
2.67775e-06
3.0152e-06
3.39325e-06
3.81666e-06
4.29073e-06
4.82141e-06
5.41532e-06
6.07989e-06
6.82341e-06
7.65518e-06
8.58561e-06
9.62638e-06
1.07906e-05
1.20931e-05
1.35505e-05
1.51816e-05
1.70078e-05
1.90534e-05
2.13462e-05
2.39185e-05
2.68076e-05
3.00575e-05
3.37204e-05
3.78598e-05
4.25535e-05
4.78995e-05
5.4024e-05
6.10927e-05
6.93261e-05
7.90112e-05
9.04802e-05
0.000104008
0.000119637
0.000136669
0.000152836
1.4205e-10
1.68117e-10
2.04347e-10
2.48973e-10
3.02982e-10
3.68095e-10
4.46439e-10
5.40541e-10
6.53384e-10
7.88471e-10
9.49916e-10
1.14254e-09
1.37199e-09
1.64485e-09
1.9688e-09
2.35277e-09
2.80716e-09
3.34401e-09
3.97727e-09
4.72307e-09
5.60004e-09
6.62964e-09
7.83655e-09
9.24915e-09
1.09e-08
1.28264e-08
1.50709e-08
1.76823e-08
2.07162e-08
2.42357e-08
2.83128e-08
3.30293e-08
3.84778e-08
4.47633e-08
5.20047e-08
6.03363e-08
6.99096e-08
8.08956e-08
9.34867e-08
1.079e-07
1.24378e-07
1.43195e-07
1.64658e-07
1.8911e-07
2.16937e-07
2.48569e-07
2.84489e-07
3.25236e-07
3.71411e-07
4.23686e-07
4.82808e-07
5.49615e-07
6.25035e-07
7.10106e-07
8.05983e-07
9.13951e-07
1.03544e-06
1.17205e-06
1.32555e-06
1.49791e-06
1.69132e-06
1.90822e-06
2.15134e-06
2.42369e-06
2.72863e-06
3.0699e-06
3.45166e-06
3.87855e-06
4.35572e-06
4.88891e-06
5.48452e-06
6.14968e-06
6.89234e-06
7.72135e-06
8.64658e-06
9.67908e-06
1.08311e-05
1.21166e-05
1.35508e-05
1.51513e-05
1.69374e-05
1.89312e-05
2.11577e-05
2.36455e-05
2.64269e-05
2.95397e-05
3.30274e-05
3.6941e-05
4.13407e-05
4.62979e-05
5.1898e-05
5.8243e-05
6.54532e-05
7.36652e-05
8.30159e-05
9.35963e-05
0.00010543
0.000118265
0.000131301
0.000142724
1.72008e-10
2.03861e-10
2.47801e-10
3.01804e-10
3.67111e-10
4.45801e-10
5.40436e-10
6.54051e-10
7.90221e-10
9.53148e-10
1.14776e-09
1.37984e-09
1.65612e-09
1.98447e-09
2.37409e-09
2.83561e-09
3.38144e-09
4.02591e-09
4.78564e-09
5.67979e-09
6.73048e-09
7.96317e-09
9.40712e-09
1.10959e-08
1.3068e-08
1.53675e-08
1.80447e-08
2.11568e-08
2.47693e-08
2.89565e-08
3.38027e-08
3.94037e-08
4.58678e-08
5.33178e-08
6.1892e-08
7.17467e-08
8.30581e-08
9.60243e-08
1.10868e-07
1.2784e-07
1.4722e-07
1.69322e-07
1.945e-07
2.23147e-07
2.55702e-07
2.92657e-07
3.34559e-07
3.8202e-07
4.35718e-07
4.96412e-07
5.64942e-07
6.42244e-07
7.29358e-07
8.27438e-07
9.37767e-07
1.06177e-06
1.20101e-06
1.35725e-06
1.53243e-06
1.72869e-06
1.94841e-06
2.19423e-06
2.46907e-06
2.77616e-06
3.11908e-06
3.5018e-06
3.9287e-06
4.40464e-06
4.93501e-06
5.52575e-06
6.18348e-06
6.91549e-06
7.72989e-06
8.63565e-06
9.64269e-06
1.0762e-05
1.20059e-05
1.33878e-05
1.49229e-05
1.66279e-05
1.85215e-05
2.06246e-05
2.29606e-05
2.55557e-05
2.84397e-05
3.16462e-05
3.52132e-05
3.91842e-05
4.36083e-05
4.85412e-05
5.40446e-05
6.0185e-05
6.70291e-05
7.46335e-05
8.30242e-05
9.2159e-05
0.000101938
0.000112035
0.000121727
0.000129519
2.06213e-10
2.44702e-10
2.97435e-10
3.6212e-10
4.40294e-10
5.34444e-10
6.4762e-10
7.83429e-10
9.46118e-10
1.14067e-09
1.37294e-09
1.64976e-09
1.97912e-09
2.37033e-09
2.83423e-09
3.38341e-09
4.03246e-09
4.79829e-09
5.70044e-09
6.76143e-09
8.00723e-09
9.46767e-09
1.1177e-08
1.31746e-08
1.55052e-08
1.82203e-08
2.13784e-08
2.50462e-08
2.92994e-08
3.42242e-08
3.99182e-08
4.64918e-08
5.40699e-08
6.27934e-08
7.28212e-08
8.43322e-08
9.75275e-08
1.12633e-07
1.29901e-07
1.49617e-07
1.72096e-07
1.97694e-07
2.26806e-07
2.59874e-07
2.97389e-07
3.39897e-07
3.88006e-07
4.42392e-07
5.03804e-07
5.73072e-07
6.51117e-07
7.38957e-07
8.37719e-07
9.48649e-07
1.07313e-06
1.21267e-06
1.36896e-06
1.54384e-06
1.73937e-06
1.95778e-06
2.20157e-06
2.47346e-06
2.77645e-06
3.11387e-06
3.48934e-06
3.90687e-06
4.37087e-06
4.88617e-06
5.45808e-06
6.09245e-06
6.79569e-06
7.57484e-06
8.43763e-06
9.39252e-06
1.04488e-05
1.16167e-05
1.29073e-05
1.4333e-05
1.59071e-05
1.76443e-05
1.95608e-05
2.16742e-05
2.4004e-05
2.65715e-05
2.94004e-05
3.25164e-05
3.59482e-05
3.97268e-05
4.3886e-05
4.84611e-05
5.3488e-05
5.90001e-05
6.50226e-05
7.15638e-05
7.86008e-05
8.60485e-05
9.37641e-05
0.000101442
0.000108448
0.000113462
2.4189e-10
2.8734e-10
3.49222e-10
4.25004e-10
5.1653e-10
6.26711e-10
7.59091e-10
9.17864e-10
1.10796e-09
1.33516e-09
1.60624e-09
1.92912e-09
2.31303e-09
2.76873e-09
3.30873e-09
3.94754e-09
4.70196e-09
5.59144e-09
6.63839e-09
7.86866e-09
9.31198e-09
1.10025e-08
1.29793e-08
1.52871e-08
1.79771e-08
2.11076e-08
2.4745e-08
2.89647e-08
3.38525e-08
3.95053e-08
4.6033e-08
5.35596e-08
6.22249e-08
7.21864e-08
8.36213e-08
9.67283e-08
1.11731e-07
1.28878e-07
1.48449e-07
1.70756e-07
1.96146e-07
2.25007e-07
2.57769e-07
2.94911e-07
3.36965e-07
3.84518e-07
4.38223e-07
4.98801e-07
5.67048e-07
6.43844e-07
7.30159e-07
8.27061e-07
9.35726e-07
1.05745e-06
1.19365e-06
1.34589e-06
1.51588e-06
1.7055e-06
1.91681e-06
2.15205e-06
2.4137e-06
2.70445e-06
3.02724e-06
3.38528e-06
3.78209e-06
4.22148e-06
4.70761e-06
5.24502e-06
5.83863e-06
6.49379e-06
7.21632e-06
8.01251e-06
8.88918e-06
9.85371e-06
1.09141e-05
1.20788e-05
1.33573e-05
1.47594e-05
1.62958e-05
1.7978e-05
1.98182e-05
2.18294e-05
2.40254e-05
2.64207e-05
2.9031e-05
3.18724e-05
3.4962e-05
3.83174e-05
4.19563e-05
4.58953e-05
5.0149e-05
5.47272e-05
5.96318e-05
6.48511e-05
7.03554e-05
7.60771e-05
8.18514e-05
8.7424e-05
9.22409e-05
9.51433e-05
2.74954e-10
3.26884e-10
3.97209e-10
4.83204e-10
5.86999e-10
7.11885e-10
8.61853e-10
1.04162e-09
1.25672e-09
1.51365e-09
1.82e-09
2.18464e-09
2.61791e-09
3.13183e-09
3.74035e-09
4.45966e-09
5.30848e-09
6.30841e-09
7.48436e-09
8.865e-09
1.04832e-08
1.23768e-08
1.45889e-08
1.71688e-08
2.01728e-08
2.36648e-08
2.77178e-08
3.24141e-08
3.78474e-08
4.41232e-08
5.1361e-08
5.96952e-08
6.9277e-08
8.02765e-08
9.28842e-08
1.07314e-07
1.23803e-07
1.4262e-07
1.64061e-07
1.88456e-07
2.16173e-07
2.4762e-07
2.83249e-07
3.2356e-07
3.69107e-07
4.20501e-07
4.78414e-07
5.43587e-07
6.16837e-07
6.99058e-07
7.91232e-07
8.94436e-07
1.00985e-06
1.13875e-06
1.28256e-06
1.44279e-06
1.62114e-06
1.8194e-06
2.03956e-06
2.28377e-06
2.55435e-06
2.85383e-06
3.18493e-06
3.5506e-06
3.95404e-06
4.39866e-06
4.88816e-06
5.42651e-06
6.01796e-06
6.66705e-06
7.37864e-06
8.15791e-06
9.01035e-06
9.94178e-06
1.09584e-05
1.20666e-05
1.32731e-05
1.45852e-05
1.60101e-05
1.75553e-05
1.92286e-05
2.10377e-05
2.29904e-05
2.50939e-05
2.73555e-05
2.97818e-05
3.23789e-05
3.51521e-05
3.81056e-05
4.12415e-05
4.45592e-05
4.80541e-05
5.17165e-05
5.55304e-05
5.94731e-05
6.35094e-05
6.74851e-05
7.1193e-05
7.41853e-05
7.55309e-05
3.00474e-10
3.5742e-10
4.34221e-10
5.28026e-10
6.41181e-10
7.77262e-10
9.40588e-10
1.13626e-09
1.37026e-09
1.6496e-09
1.98246e-09
2.3784e-09
2.84854e-09
3.40581e-09
4.06521e-09
4.84407e-09
5.76246e-09
6.84351e-09
8.11383e-09
9.60401e-09
1.13491e-08
1.33893e-08
1.57705e-08
1.8545e-08
2.17724e-08
2.55204e-08
2.98657e-08
3.48954e-08
4.07078e-08
4.74138e-08
5.51383e-08
6.4022e-08
7.42225e-08
8.59166e-08
9.93023e-08
1.146e-07
1.32057e-07
1.51946e-07
1.74574e-07
2.00277e-07
2.29431e-07
2.62449e-07
2.9979e-07
3.41958e-07
3.89508e-07
4.43051e-07
5.03257e-07
5.70858e-07
6.46659e-07
7.31536e-07
8.26446e-07
9.3243e-07
1.05062e-06
1.18225e-06
1.32865e-06
1.49126e-06
1.67164e-06
1.87147e-06
2.09257e-06
2.33688e-06
2.6065e-06
2.90365e-06
3.23074e-06
3.59032e-06
3.9851e-06
4.41796e-06
4.89196e-06
5.41032e-06
5.97642e-06
6.5938e-06
7.26617e-06
7.99737e-06
8.79134e-06
9.65214e-06
1.05839e-05
1.15907e-05
1.26767e-05
1.38459e-05
1.51022e-05
1.64491e-05
1.78899e-05
1.94274e-05
2.10638e-05
2.28008e-05
2.46386e-05
2.65758e-05
2.86089e-05
3.07339e-05
3.29449e-05
3.52338e-05
3.75902e-05
4.00003e-05
4.24473e-05
4.49113e-05
4.73709e-05
4.98038e-05
5.21446e-05
5.41896e-05
5.56489e-05
5.58989e-05
3.13727e-10
3.73274e-10
4.534e-10
5.51197e-10
6.6912e-10
8.10881e-10
9.80961e-10
1.18464e-09
1.42812e-09
1.71863e-09
2.06467e-09
2.47608e-09
2.96435e-09
3.54283e-09
4.22695e-09
5.03458e-09
5.98637e-09
7.10607e-09
8.42102e-09
9.96261e-09
1.17668e-08
1.38746e-08
1.6333e-08
1.91954e-08
2.25226e-08
2.63835e-08
3.08563e-08
3.60291e-08
4.20018e-08
4.88866e-08
5.68098e-08
6.5913e-08
7.6355e-08
8.83134e-08
1.01986e-07
1.17595e-07
1.35384e-07
1.55628e-07
1.78627e-07
2.04716e-07
2.34265e-07
2.67681e-07
3.0541e-07
3.47944e-07
3.95823e-07
4.49636e-07
5.10027e-07
5.77697e-07
6.53411e-07
7.37997e-07
8.32353e-07
9.37453e-07
1.05434e-06
1.18416e-06
1.32811e-06
1.4875e-06
1.66372e-06
1.85827e-06
2.07273e-06
2.30878e-06
2.5682e-06
2.85289e-06
3.16481e-06
3.50606e-06
3.8788e-06
4.28528e-06
4.72783e-06
5.20887e-06
5.73082e-06
6.29618e-06
6.90742e-06
7.56699e-06
8.27731e-06
9.04065e-06
9.85916e-06
1.07347e-05
1.1669e-05
1.26632e-05
1.37182e-05
1.4834e-05
1.60102e-05
1.72455e-05
1.85377e-05
1.98834e-05
2.12779e-05
2.27153e-05
2.41886e-05
2.56866e-05
2.71949e-05
2.86996e-05
3.01842e-05
3.16299e-05
3.30146e-05
3.43129e-05
3.54958e-05
3.653e-05
3.73748e-05
3.79757e-05
3.8161e-05
3.76603e-05
3.11701e-10
3.70816e-10
4.50376e-10
5.47476e-10
6.64548e-10
8.05271e-10
9.74086e-10
1.17623e-09
1.41784e-09
1.70609e-09
2.04937e-09
2.45746e-09
2.94172e-09
3.51533e-09
4.19359e-09
4.99415e-09
5.9374e-09
7.04683e-09
8.3494e-09
9.87609e-09
1.16623e-08
1.37486e-08
1.61811e-08
1.90125e-08
2.23023e-08
2.61184e-08
3.05374e-08
3.56457e-08
4.15411e-08
4.83332e-08
5.61453e-08
6.51154e-08
7.53982e-08
8.7166e-08
1.00611e-07
1.15947e-07
1.3341e-07
1.53264e-07
1.75799e-07
2.01335e-07
2.30224e-07
2.62853e-07
2.99646e-07
3.41069e-07
3.87627e-07
4.39872e-07
4.98404e-07
5.63873e-07
6.36982e-07
7.18491e-07
8.09215e-07
9.10032e-07
1.02188e-06
1.14576e-06
1.28275e-06
1.43397e-06
1.60063e-06
1.78398e-06
1.98536e-06
2.20616e-06
2.44782e-06
2.71184e-06
2.99978e-06
3.3132e-06
3.65373e-06
4.02297e-06
4.42256e-06
4.85408e-06
5.31907e-06
5.81901e-06
6.35524e-06
6.92897e-06
7.54119e-06
8.19266e-06
8.88381e-06
9.61469e-06
1.03849e-05
1.11935e-05
1.20388e-05
1.29186e-05
1.38296e-05
1.47678e-05
1.5728e-05
1.67038e-05
1.76877e-05
1.86708e-05
1.96428e-05
2.05915e-05
2.15041e-05
2.23618e-05
2.31426e-05
2.38278e-05
2.43953e-05
2.48195e-05
2.50715e-05
2.512e-05
2.49333e-05
2.44835e-05
2.37525e-05
2.2778e-05
2.94869e-10
3.50625e-10
4.25853e-10
5.17718e-10
6.285e-10
7.6168e-10
9.21468e-10
1.11283e-09
1.34158e-09
1.61455e-09
1.93967e-09
2.32623e-09
2.78501e-09
3.32854e-09
3.9713e-09
4.73008e-09
5.62423e-09
6.67602e-09
7.91108e-09
9.35877e-09
1.10527e-08
1.30314e-08
1.53385e-08
1.8024e-08
2.11444e-08
2.47639e-08
2.8955e-08
3.37996e-08
3.939e-08
4.58297e-08
5.32352e-08
6.17366e-08
7.14793e-08
8.26255e-08
9.53554e-08
1.09869e-07
1.26389e-07
1.45159e-07
1.66451e-07
1.9056e-07
2.17815e-07
2.48572e-07
2.83221e-07
3.22188e-07
3.65937e-07
4.14968e-07
4.69824e-07
5.3109e-07
5.99394e-07
6.75412e-07
7.59864e-07
8.53517e-07
9.57186e-07
1.07173e-06
1.19807e-06
1.33714e-06
1.48994e-06
1.65751e-06
1.84091e-06
2.04124e-06
2.25961e-06
2.49715e-06
2.755e-06
3.03426e-06
3.33604e-06
3.66136e-06
4.01122e-06
4.38649e-06
4.78794e-06
5.21617e-06
5.67159e-06
6.15439e-06
6.66444e-06
7.20129e-06
7.76411e-06
8.35157e-06
8.96184e-06
9.59246e-06
1.02403e-05
1.09015e-05
1.15713e-05
1.22441e-05
1.29134e-05
1.35717e-05
1.42102e-05
1.48194e-05
1.53886e-05
1.5906e-05
1.63589e-05
1.67329e-05
1.70126e-05
1.71739e-05
1.72014e-05
1.7077e-05
1.67821e-05
1.6301e-05
1.5628e-05
1.47794e-05
1.38174e-05
1.28824e-05
2.6682e-10
3.17032e-10
3.85064e-10
4.68228e-10
5.6855e-10
6.89185e-10
8.33959e-10
1.00739e-09
1.21476e-09
1.46229e-09
1.7572e-09
2.10795e-09
2.52436e-09
3.01783e-09
3.6016e-09
4.29096e-09
5.10354e-09
6.0597e-09
7.18279e-09
8.49964e-09
1.0041e-08
1.18418e-08
1.39422e-08
1.63876e-08
1.92298e-08
2.25274e-08
2.63464e-08
3.07618e-08
3.58576e-08
4.17284e-08
4.84803e-08
5.62318e-08
6.51154e-08
7.52785e-08
8.6885e-08
1.00117e-07
1.15174e-07
1.3228e-07
1.51677e-07
1.73634e-07
1.98445e-07
2.26429e-07
2.57937e-07
2.93347e-07
3.3307e-07
3.7755e-07
4.27265e-07
4.82727e-07
5.44484e-07
6.13119e-07
6.89251e-07
7.73535e-07
8.66658e-07
9.69342e-07
1.08234e-06
1.20642e-06
1.34239e-06
1.49105e-06
1.65325e-06
1.8298e-06
2.02152e-06
2.22922e-06
2.45366e-06
2.69557e-06
2.9556e-06
3.23432e-06
3.53219e-06
3.84952e-06
4.18649e-06
4.54303e-06
4.91887e-06
5.31343e-06
5.72585e-06
6.15484e-06
6.59875e-06
7.05542e-06
7.52217e-06
7.99574e-06
8.47226e-06
8.94715e-06
9.41518e-06
9.87034e-06
1.03059e-05
1.07145e-05
1.10878e-05
1.14172e-05
1.16932e-05
1.1906e-05
1.20456e-05
1.21015e-05
1.20632e-05
1.192e-05
1.1655e-05
1.1262e-05
1.07358e-05
1.00768e-05
9.29918e-06
8.44046e-06
7.57798e-06
6.84638e-06
2.32406e-10
2.75867e-10
3.3507e-10
4.07536e-10
4.94988e-10
6.00177e-10
7.2645e-10
8.77757e-10
1.05874e-09
1.27483e-09
1.53238e-09
1.8388e-09
2.20271e-09
2.63412e-09
3.14465e-09
3.74774e-09
4.4589e-09
5.29602e-09
6.27965e-09
7.4334e-09
8.7843e-09
1.03632e-08
1.22054e-08
1.4351e-08
1.68455e-08
1.97405e-08
2.30945e-08
2.69733e-08
3.1451e-08
3.66111e-08
4.25469e-08
4.93629e-08
5.71759e-08
6.61156e-08
7.63261e-08
8.79673e-08
1.01216e-07
1.16266e-07
1.33331e-07
1.52646e-07
1.74468e-07
1.99075e-07
2.26771e-07
2.57886e-07
2.92774e-07
3.31818e-07
3.75427e-07
4.24039e-07
4.7812e-07
5.38163e-07
6.04687e-07
6.78237e-07
7.59382e-07
8.4871e-07
9.46827e-07
1.05435e-06
1.17191e-06
1.30013e-06
1.43963e-06
1.59102e-06
1.75487e-06
1.93172e-06
2.12206e-06
2.3263e-06
2.54477e-06
2.77768e-06
3.02513e-06
3.28704e-06
3.56315e-06
3.85299e-06
4.15584e-06
4.47067e-06
4.79616e-06
5.13062e-06
5.47194e-06
5.81761e-06
6.16462e-06
6.50947e-06
6.84815e-06
7.17608e-06
7.48817e-06
7.77879e-06
8.04184e-06
8.27077e-06
8.45868e-06
8.59845e-06
8.68286e-06
8.70482e-06
8.65761e-06
8.5351e-06
8.33219e-06
8.04503e-06
7.66852e-06
7.19947e-06
6.64318e-06
6.01012e-06
5.32219e-06
4.61791e-06
3.95951e-06
3.44146e-06
1.96409e-10
2.32859e-10
2.8282e-10
3.44068e-10
4.18014e-10
5.0698e-10
6.13805e-10
7.41844e-10
8.95039e-10
1.07801e-09
1.29614e-09
1.55575e-09
1.86416e-09
2.22991e-09
2.66287e-09
3.17449e-09
3.77801e-09
4.48864e-09
5.32395e-09
6.30405e-09
7.45201e-09
8.7942e-09
1.03607e-08
1.21858e-08
1.43084e-08
1.67726e-08
1.96284e-08
2.29319e-08
2.67468e-08
3.11441e-08
3.62039e-08
4.20156e-08
4.86787e-08
5.63043e-08
6.50155e-08
7.49487e-08
8.62546e-08
9.9099e-08
1.13664e-07
1.3015e-07
1.48773e-07
1.69772e-07
1.93404e-07
2.19946e-07
2.49699e-07
2.82984e-07
3.20144e-07
3.61546e-07
4.07576e-07
4.58643e-07
5.15174e-07
5.77615e-07
6.46426e-07
7.22081e-07
8.0506e-07
8.9585e-07
9.94933e-07
1.10278e-06
1.21986e-06
1.34659e-06
1.48338e-06
1.63055e-06
1.78841e-06
1.95714e-06
2.13686e-06
2.32756e-06
2.52908e-06
2.74113e-06
2.96322e-06
3.19464e-06
3.43444e-06
3.68143e-06
3.9341e-06
4.19062e-06
4.4488e-06
4.7061e-06
4.95958e-06
5.20588e-06
5.44124e-06
5.6615e-06
5.86213e-06
6.03827e-06
6.18476e-06
6.29629e-06
6.36746e-06
6.39296e-06
6.36775e-06
6.2873e-06
6.14793e-06
5.94712e-06
5.68387e-06
5.35914e-06
4.97623e-06
4.53536e-06
4.04591e-06
3.52145e-06
2.98351e-06
2.46274e-06
2.0005e-06
1.65249e-06
1.62583e-10
1.92494e-10
2.33773e-10
2.84465e-10
3.45699e-10
4.19391e-10
5.07898e-10
6.14011e-10
7.41006e-10
8.92726e-10
1.07366e-09
1.28906e-09
1.54503e-09
1.84866e-09
2.20822e-09
2.63322e-09
3.13471e-09
3.72539e-09
4.41991e-09
5.23506e-09
6.19011e-09
7.30708e-09
8.61112e-09
1.01308e-08
1.18988e-08
1.39518e-08
1.63317e-08
1.90855e-08
2.22662e-08
2.59335e-08
3.01542e-08
3.5003e-08
4.05633e-08
4.69277e-08
5.41993e-08
6.24919e-08
7.19312e-08
8.26558e-08
9.48175e-08
1.08583e-07
1.24132e-07
1.41664e-07
1.61391e-07
1.83544e-07
2.08371e-07
2.36138e-07
2.67126e-07
3.01638e-07
3.39989e-07
3.82511e-07
4.29553e-07
4.81473e-07
5.38641e-07
6.01431e-07
6.70225e-07
7.45397e-07
8.2732e-07
9.16349e-07
1.01282e-06
1.11704e-06
1.22927e-06
1.34972e-06
1.47854e-06
1.61581e-06
1.7615e-06
1.91548e-06
2.07748e-06
2.2471e-06
2.42376e-06
2.60667e-06
2.79487e-06
2.98712e-06
3.18195e-06
3.37761e-06
3.57205e-06
3.76293e-06
3.94758e-06
4.12302e-06
4.28597e-06
4.43286e-06
4.55989e-06
4.66306e-06
4.73823e-06
4.78128e-06
4.78816e-06
4.75511e-06
4.67881e-06
4.55664e-06
4.38703e-06
4.16978e-06
3.9064e-06
3.60054e-06
3.25823e-06
2.88551e-06
2.48938e-06
2.08303e-06
1.68428e-06
1.31512e-06
1.00083e-06
7.7073e-07
1.33371e-10
1.57669e-10
1.91451e-10
2.33025e-10
2.83278e-10
3.43777e-10
4.16463e-10
5.03636e-10
6.07997e-10
7.32716e-10
8.815e-10
1.05868e-09
1.2693e-09
1.51923e-09
1.81527e-09
2.16532e-09
2.57849e-09
3.06531e-09
3.63787e-09
4.31008e-09
5.09789e-09
6.01954e-09
7.09584e-09
8.35051e-09
9.81048e-09
1.15063e-08
1.34726e-08
1.57483e-08
1.83775e-08
2.14094e-08
2.48996e-08
2.89099e-08
3.35092e-08
3.87745e-08
4.4791e-08
5.16528e-08
5.94641e-08
6.83393e-08
7.84038e-08
8.97949e-08
1.02662e-07
1.17168e-07
1.33488e-07
1.51812e-07
1.72343e-07
1.95298e-07
2.20909e-07
2.4942e-07
2.81089e-07
3.16184e-07
3.54987e-07
3.97784e-07
4.44871e-07
4.96545e-07
5.53104e-07
6.14842e-07
6.82042e-07
7.54974e-07
8.33883e-07
9.18986e-07
1.01046e-06
1.10844e-06
1.21299e-06
1.3241e-06
1.4417e-06
1.5656e-06
1.6955e-06
1.83097e-06
1.97143e-06
2.11614e-06
2.26419e-06
2.41444e-06
2.56557e-06
2.71602e-06
2.864e-06
3.00746e-06
3.14412e-06
3.27146e-06
3.38674e-06
3.48703e-06
3.56923e-06
3.63015e-06
3.66656e-06
3.67531e-06
3.6534e-06
3.59818e-06
3.50747e-06
3.37983e-06
3.21479e-06
3.0132e-06
2.77759e-06
2.51236e-06
2.22389e-06
1.92069e-06
1.60827e-06
1.29701e-06
1.00076e-06
7.35268e-07
5.16596e-07
3.59946e-07
1.10165e-10
1.30005e-10
1.57826e-10
1.92153e-10
2.33683e-10
2.83707e-10
3.43831e-10
4.15968e-10
5.02364e-10
6.05654e-10
7.28924e-10
8.75777e-10
1.05041e-09
1.25772e-09
1.50338e-09
1.79395e-09
2.13705e-09
2.54145e-09
3.01724e-09
3.57604e-09
4.23115e-09
4.9978e-09
5.89339e-09
6.93771e-09
8.15328e-09
9.56564e-09
1.12037e-08
1.31001e-08
1.52915e-08
1.78193e-08
2.07297e-08
2.40746e-08
2.79115e-08
3.23047e-08
3.73254e-08
4.30522e-08
4.95721e-08
5.69804e-08
6.53819e-08
7.48909e-08
8.56318e-08
9.77399e-08
1.11361e-07
1.26652e-07
1.43783e-07
1.62931e-07
1.84289e-07
2.08057e-07
2.34448e-07
2.63681e-07
2.95985e-07
3.31594e-07
3.70746e-07
4.13681e-07
4.60635e-07
5.11841e-07
5.6752e-07
6.2788e-07
6.93106e-07
7.63356e-07
8.38753e-07
9.19373e-07
1.00524e-06
1.09632e-06
1.19251e-06
1.29359e-06
1.39928e-06
1.50918e-06
1.62274e-06
1.73931e-06
1.85806e-06
1.97802e-06
2.09802e-06
2.21674e-06
2.33266e-06
2.44404e-06
2.54901e-06
2.64547e-06
2.73118e-06
2.80379e-06
2.8608e-06
2.89971e-06
2.918e-06
2.91323e-06
2.88317e-06
2.82587e-06
2.73982e-06
2.62414e-06
2.47875e-06
2.30469e-06
2.10446e-06
1.8821e-06
1.64323e-06
1.39519e-06
1.14459e-06
8.97909e-07
6.65937e-07
4.60788e-07
2.94747e-07
1.77939e-07
9.37531e-11
1.104e-10
1.33983e-10
1.63173e-10
1.98527e-10
2.41137e-10
2.92375e-10
3.53879e-10
4.27573e-10
5.15718e-10
6.20961e-10
7.46393e-10
8.95621e-10
1.07284e-09
1.28294e-09
1.53155e-09
1.82522e-09
2.1715e-09
2.57908e-09
3.05795e-09
3.61958e-09
4.27708e-09
5.04543e-09
5.94171e-09
6.98535e-09
8.19835e-09
9.60566e-09
1.12354e-08
1.31194e-08
1.52931e-08
1.77966e-08
2.06745e-08
2.39766e-08
2.77583e-08
3.20811e-08
3.70127e-08
4.26283e-08
4.901e-08
5.62481e-08
6.4441e-08
7.36961e-08
8.41295e-08
9.58668e-08
1.09043e-07
1.23802e-07
1.40299e-07
1.58696e-07
1.79166e-07
2.01889e-07
2.27051e-07
2.54847e-07
2.85475e-07
3.19135e-07
3.56027e-07
3.96349e-07
4.40294e-07
4.88044e-07
5.39766e-07
5.95609e-07
6.55695e-07
7.20113e-07
7.88914e-07
8.62099e-07
9.39616e-07
1.02135e-06
1.1071e-06
1.1966e-06
1.28947e-06
1.38523e-06
1.48328e-06
1.58291e-06
1.68324e-06
1.78327e-06
1.88186e-06
1.97771e-06
2.06935e-06
2.15518e-06
2.23347e-06
2.30237e-06
2.35992e-06
2.4041e-06
2.43288e-06
2.44425e-06
2.43628e-06
2.40722e-06
2.35556e-06
2.28016e-06
2.18035e-06
2.05612e-06
1.90828e-06
1.73882e-06
1.55104e-06
1.34951e-06
1.13953e-06
9.28262e-07
7.19953e-07
5.22696e-07
3.46529e-07
2.02766e-07
1.0159e-07
8.47853e-11
9.96042e-11
1.20836e-10
1.47199e-10
1.79159e-10
2.17698e-10
2.64063e-10
3.19738e-10
3.86476e-10
4.66331e-10
5.61712e-10
6.75435e-10
8.10783e-10
9.71582e-10
1.16228e-09
1.38802e-09
1.65477e-09
1.96941e-09
2.33989e-09
2.77531e-09
3.28616e-09
3.88441e-09
4.58376e-09
5.39982e-09
6.35034e-09
7.45547e-09
8.73802e-09
1.02237e-08
1.19417e-08
1.39244e-08
1.62085e-08
1.88349e-08
2.18492e-08
2.53022e-08
2.92499e-08
3.37548e-08
3.88854e-08
4.4717e-08
5.13324e-08
5.88217e-08
6.7283e-08
7.68227e-08
8.75556e-08
9.96052e-08
1.13104e-07
1.28192e-07
1.45018e-07
1.6374e-07
1.84521e-07
2.07532e-07
2.3295e-07
2.60953e-07
2.91724e-07
3.25443e-07
3.6229e-07
4.02438e-07
4.4605e-07
4.93273e-07
5.4424e-07
5.99054e-07
6.57793e-07
7.20494e-07
7.87153e-07
8.57713e-07
9.32061e-07
1.01001e-06
1.0913e-06
1.17558e-06
1.26239e-06
1.3512e-06
1.44133e-06
1.53199e-06
1.62227e-06
1.71112e-06
1.79736e-06
1.87969e-06
1.95666e-06
2.02673e-06
2.08824e-06
2.13946e-06
2.17863e-06
2.20396e-06
2.21368e-06
2.20612e-06
2.17977e-06
2.13332e-06
2.06578e-06
1.97655e-06
1.86552e-06
1.73326e-06
1.58122e-06
1.41212e-06
1.23005e-06
1.03997e-06
8.47905e-07
6.58052e-07
4.76736e-07
3.1204e-07
1.73994e-07
7.37729e-08
0.000186286
0.000185695
0.000181748
0.000176855
0.000171693
0.000166531
0.0001615
0.000156663
0.000152035
0.000147592
0.000143278
0.000139009
0.00013469
0.000130215
0.000125488
0.00012044
0.000115075
0.00010955
0.000104321
0.000100471
0.000175084
0.000174372
0.000169991
0.00016453
0.000158862
0.00015331
0.000147999
0.00014297
0.000138213
0.000133682
0.000129307
0.000124997
0.000120651
0.000116166
0.000111451
0.000106451
0.000101188
9.58407e-05
9.08875e-05
8.73832e-05
0.000162695
0.000161213
0.000156542
0.000150837
0.000144964
0.000139267
0.000133874
0.000128814
0.000124063
0.000119562
0.000115232
0.000110979
0.000106701
0.000102302
9.76985e-05
9.28497e-05
8.7794e-05
8.27222e-05
7.81118e-05
7.49493e-05
0.000148447
0.000146151
0.000141334
0.000135672
0.000129899
0.000124329
0.000119082
0.000114181
0.000109594
0.000105261
0.0001011
9.70176e-05
9.29191e-05
8.87146e-05
8.43339e-05
7.97483e-05
7.50092e-05
7.03144e-05
6.61266e-05
6.3348e-05
0.000132088
0.000129231
0.000124495
0.000119143
0.000113746
0.000108561
0.000103685
9.91358e-05
9.48816e-05
9.08629e-05
8.70029e-05
8.32166e-05
7.94172e-05
7.55263e-05
7.14854e-05
6.72783e-05
6.29668e-05
5.87518e-05
5.50712e-05
5.2718e-05
0.000113786
0.000110726
0.000106342
0.000101549
9.67662e-05
9.21847e-05
8.78785e-05
8.38568e-05
8.00905e-05
7.65267e-05
7.30981e-05
6.97309e-05
6.63505e-05
6.28904e-05
5.93043e-05
5.55868e-05
5.18079e-05
4.81672e-05
4.5069e-05
4.31626e-05
9.40835e-05
9.11792e-05
8.74e-05
8.33729e-05
7.93875e-05
7.55767e-05
7.19917e-05
6.86357e-05
6.54841e-05
6.24933e-05
5.96076e-05
5.67669e-05
5.39109e-05
5.09856e-05
4.79558e-05
4.48251e-05
4.16683e-05
3.8677e-05
3.62086e-05
3.47423e-05
7.38478e-05
7.13871e-05
6.83957e-05
6.52691e-05
6.21928e-05
5.9252e-05
5.64797e-05
5.38757e-05
5.14195e-05
4.9078e-05
4.68106e-05
4.45723e-05
4.23169e-05
4.00034e-05
3.76063e-05
3.51351e-05
3.26634e-05
3.03653e-05
2.85307e-05
2.74711e-05
5.41728e-05
5.23307e-05
5.02103e-05
4.80277e-05
4.58872e-05
4.3837e-05
4.18944e-05
4.00594e-05
3.83184e-05
3.66498e-05
3.50272e-05
3.34205e-05
3.17984e-05
3.0133e-05
2.84074e-05
2.66319e-05
2.48715e-05
2.32675e-05
2.20244e-05
2.13187e-05
3.62277e-05
3.50533e-05
3.37793e-05
3.24853e-05
3.12142e-05
2.99891e-05
2.88181e-05
2.77017e-05
2.66325e-05
2.56001e-05
2.45904e-05
2.35882e-05
2.2577e-05
2.15426e-05
2.04767e-05
1.93869e-05
1.83182e-05
1.73586e-05
1.66289e-05
1.62198e-05
2.17097e-05
2.11038e-05
2.05136e-05
1.99261e-05
1.93453e-05
1.87748e-05
1.82168e-05
1.76712e-05
1.71361e-05
1.66086e-05
1.60854e-05
1.5563e-05
1.50391e-05
1.45128e-05
1.39877e-05
1.34731e-05
1.29878e-05
1.25633e-05
1.22495e-05
1.2079e-05
1.21998e-05
1.19409e-05
1.17358e-05
1.15416e-05
1.13465e-05
1.11467e-05
1.09416e-05
1.0731e-05
1.05153e-05
1.02956e-05
1.00734e-05
9.85111e-06
9.63284e-06
9.42423e-06
9.23321e-06
9.06923e-06
8.9403e-06
8.84973e-06
8.7985e-06
8.7856e-06
6.43695e-06
6.35836e-06
6.33717e-06
6.32847e-06
6.31735e-06
6.29827e-06
6.26907e-06
6.22943e-06
6.18063e-06
6.12506e-06
6.06594e-06
6.00771e-06
5.95636e-06
5.91932e-06
5.90522e-06
5.92251e-06
5.97584e-06
6.06009e-06
6.15468e-06
6.22838e-06
3.1966e-06
3.19349e-06
3.23891e-06
3.29591e-06
3.35162e-06
3.40081e-06
3.44129e-06
3.47267e-06
3.49599e-06
3.51339e-06
3.5283e-06
3.54518e-06
3.56965e-06
3.60855e-06
3.66951e-06
3.75971e-06
3.88275e-06
4.03287e-06
4.18568e-06
4.29405e-06
1.49985e-06
1.51755e-06
1.57231e-06
1.63705e-06
1.7021e-06
1.76328e-06
1.81874e-06
1.86804e-06
1.91188e-06
1.95194e-06
1.99092e-06
2.03241e-06
2.0809e-06
2.14182e-06
2.22118e-06
2.32469e-06
2.4555e-06
2.60933e-06
2.7656e-06
2.87646e-06
6.69353e-07
6.85388e-07
7.28227e-07
7.793e-07
8.31783e-07
8.82602e-07
9.30326e-07
9.74554e-07
1.01571e-06
1.05496e-06
1.09421e-06
1.13601e-06
1.18362e-06
1.24098e-06
1.31248e-06
1.4024e-06
1.51335e-06
1.64278e-06
1.77569e-06
1.87309e-06
2.87744e-07
2.96298e-07
3.23803e-07
3.57812e-07
3.93615e-07
4.2906e-07
4.63142e-07
4.95563e-07
5.26577e-07
5.56927e-07
5.87838e-07
6.21012e-07
6.58645e-07
7.03407e-07
7.58342e-07
8.26491e-07
9.09897e-07
1.00721e-06
1.10839e-06
1.18524e-06
1.2212e-07
1.2406e-07
1.39501e-07
1.5982e-07
1.81757e-07
2.03901e-07
2.25632e-07
2.4677e-07
2.67464e-07
2.88158e-07
3.09596e-07
3.32837e-07
3.59273e-07
3.90635e-07
4.28934e-07
4.76245e-07
5.3407e-07
6.01789e-07
6.73082e-07
7.28928e-07
5.32204e-08
5.12495e-08
5.90795e-08
7.02451e-08
8.26024e-08
9.53313e-08
1.08094e-07
1.20792e-07
1.33507e-07
1.46487e-07
1.60161e-07
1.75154e-07
1.92306e-07
2.12686e-07
2.37572e-07
2.68329e-07
3.06034e-07
3.50501e-07
3.97962e-07
4.36147e-07
2.40934e-08
2.13541e-08
2.5068e-08
3.07525e-08
3.72215e-08
4.40559e-08
5.10821e-08
5.82462e-08
6.55864e-08
7.32344e-08
8.14246e-08
9.05082e-08
1.00968e-07
1.13435e-07
1.28683e-07
1.47582e-07
1.70899e-07
1.98748e-07
2.2918e-07
2.54766e-07
0.001
0.001
0.001
0.001
0.001
0.001
0.001
0.001
0.001
0.001
0.001
0.001
0.001
0.001
0.001
0.001
0.001
0.001
0.001
0.001
0.001
0.001
0.001
0.001
0.001
0.001
0.001
0.001
0.001
0.001
0.001
0.001
0.001
0.001
0.001
0.001
0.001
0.001
0.001
0.001
0.001
0.001
0.001
0.001
0.001
0.001
0.001
0.001
0.001
0.001
0.001
0.001
0.001
0.001
0.001
0.001
0.001
0.001
0.001
0.001
0.001
0.001
0.001
0.001
0.001
0.001
0.001
0.001
0.001
0.001
0.001
0.001
0.001
0.001
0.001
0.001
0.001
0.001
0.001
0.001
0.001
0.001
0.001
0.001
0.001
0.001
0.001
0.001
0.001
0.001
0.001
0.001
0.001
0.001
0.001
0.001
0.001
0.001
0.001
0.001
0.001
0.001
0.001
0.001