/*--------------------------------*- C++ -*----------------------------------*\
| =========                 |                                                 |
| \\      /  F ield         | OpenFOAM: The Open Source CFD Toolbox           |
|  \\    /   O peration     | Version:  2.1.0                                 |
|   \\  /    A nd           | Web:      www.OpenFOAM.org                      |
|    \\/     M anipulation  |                                                 |
\*---------------------------------------------------------------------------*/
FoamFile
{
    version     2.0;
    format      ascii;
    class       volScalarField;
    location    "0.18";
    object      k;
}
// * * * * * * * * * * * * * * * * * * * * * * * * * * * * * * * * * * * * * //

dimensions      [0 2 -2 0 0 0 0];

internalField   nonuniform List<scalar> 
6400
(
0.0296859
0.0297124
0.0297127
0.0296964
0.0296719
0.0296537
0.0296188
0.0295967
0.0295589
0.0295318
0.0294925
0.0294612
0.0294201
0.0293852
0.029342
0.0293038
0.0292586
0.0292175
0.0291706
0.0291268
0.0290785
0.0290327
0.0289829
0.0289353
0.028884
0.0288346
0.0287817
0.0287303
0.0286756
0.0286222
0.0285656
0.02851
0.0284511
0.0283931
0.028332
0.0282711
0.028207
0.0281425
0.0280744
0.0280047
0.0279304
0.0278533
0.0277707
0.0276837
0.02759
0.0274903
0.0273827
0.0272672
0.0271425
0.0270082
0.0268623
0.0267021
0.0265264
0.0263403
0.0261475
0.0259434
0.0257325
0.02551
0.0252804
0.0250412
0.0247933
0.0245354
0.0242677
0.0239888
0.0237005
0.0233992
0.0230818
0.0227528
0.0224048
0.022043
0.0216616
0.0212646
0.0208483
0.0204157
0.0199653
0.0195002
0.0190211
0.0185316
0.0180332
0.0175284
0.017015
0.0164844
0.0159168
0.0153473
0.0147552
0.0141363
0.0134774
0.0127572
0.0119518
0.0110231
0.00992419
0.00857792
0.0069032
0.00487946
0.00267728
0.0016751
0.0020966
0.00422308
0.00631932
0.00701919
0.0483926
0.0486126
0.0487162
0.0489014
0.0490211
0.0492072
0.0493413
0.0495247
0.0496719
0.0498529
0.0500112
0.0501909
0.0503575
0.0505373
0.0507097
0.0508905
0.0510671
0.0512495
0.0514299
0.0516146
0.0517994
0.0519887
0.0521796
0.0523746
0.0525724
0.0527744
0.0529796
0.0531891
0.053402
0.0536194
0.0538401
0.0540657
0.0542945
0.0545288
0.0547668
0.0550104
0.055258
0.0555118
0.0557701
0.0560344
0.0563006
0.0565706
0.0568409
0.0571122
0.0573816
0.0576482
0.0579092
0.0581631
0.0584077
0.0586431
0.0588717
0.0590841
0.059277
0.0594579
0.0596354
0.0597988
0.0599525
0.0600883
0.0602077
0.0603135
0.0604043
0.0604772
0.060533
0.0605617
0.0605732
0.0605705
0.060521
0.0604476
0.0603261
0.0601649
0.0599475
0.0596754
0.0593357
0.0589265
0.0584376
0.0578664
0.0572058
0.0564544
0.0556091
0.0546722
0.0536461
0.0525282
0.0513034
0.0499134
0.0483665
0.0466129
0.0446353
0.0423816
0.0398198
0.036903
0.0336177
0.0299601
0.0260012
0.0219452
0.0178476
0.0139227
0.0108667
0.00876341
0.00739776
0.00619202
0.0542314
0.0545762
0.0547362
0.0550236
0.0552259
0.0555036
0.0557312
0.0560033
0.0562483
0.0565183
0.056776
0.0570462
0.0573132
0.0575852
0.0578583
0.0581327
0.0584097
0.0586862
0.0589655
0.0592436
0.0595244
0.0598052
0.0600911
0.0603765
0.0606664
0.0609556
0.0612498
0.0615448
0.0618434
0.0621435
0.0624464
0.0627513
0.0630577
0.0633659
0.0636739
0.0639835
0.0642916
0.0646003
0.0649058
0.0652107
0.065513
0.0658129
0.0661073
0.0663956
0.0666741
0.0669412
0.0671924
0.0674237
0.0676251
0.067791
0.067945
0.068079
0.0681968
0.0682958
0.0683757
0.0684351
0.0684721
0.068489
0.0684934
0.0684566
0.0683924
0.0682894
0.0681528
0.0679735
0.0677548
0.0674881
0.0671735
0.066808
0.0663832
0.0658979
0.065341
0.0647096
0.0639916
0.0631822
0.0622701
0.0612496
0.0601115
0.0588508
0.0574618
0.0559417
0.0542885
0.0525021
0.0505844
0.0485591
0.0464169
0.0441722
0.0418146
0.0393456
0.0367432
0.0339871
0.0310374
0.027873
0.0244604
0.0208228
0.0170237
0.0133052
0.010194
0.00771071
0.00583971
0.00403288
0.0587857
0.0591728
0.0593517
0.0596867
0.0599274
0.0602478
0.0605203
0.0608315
0.0611225
0.0614294
0.0617316
0.0620372
0.0623463
0.0626519
0.0629643
0.0632701
0.0635823
0.0638869
0.0641951
0.0644939
0.0647917
0.065076
0.0653692
0.0656545
0.0659451
0.0662305
0.0665155
0.0667952
0.0670726
0.067344
0.0676112
0.0678714
0.0681256
0.0683724
0.0686085
0.0688372
0.0690526
0.0692585
0.0694485
0.0696264
0.0697854
0.0699292
0.0700514
0.070155
0.0702337
0.0702861
0.0703103
0.070317
0.0702891
0.0702308
0.0701427
0.0700203
0.0698624
0.0696657
0.069427
0.0691432
0.0688095
0.0684224
0.0679767
0.0674727
0.0669045
0.0662698
0.0655647
0.0647858
0.0639308
0.0629968
0.0619832
0.0608883
0.0597123
0.0584555
0.0571187
0.0557044
0.0542143
0.052651
0.0510188
0.0493194
0.0475571
0.0457339
0.0438539
0.0419183
0.0399307
0.0378936
0.0358107
0.0336853
0.0315172
0.0293156
0.0270851
0.024846
0.0226003
0.0203482
0.0181119
0.0159382
0.0137984
0.0116849
0.00964229
0.00775131
0.00598925
0.00452645
0.00354507
0.00309715
0.0604984
0.0608434
0.0609997
0.0613053
0.0615147
0.0618029
0.0620373
0.0623089
0.0625542
0.0628119
0.0630594
0.0633051
0.063549
0.0637836
0.0640192
0.0642431
0.0644654
0.0646762
0.0648836
0.0650785
0.0652688
0.0654462
0.065619
0.0657766
0.0659274
0.0660611
0.0661857
0.0662926
0.0663872
0.0664625
0.0665225
0.0665576
0.0665733
0.0665762
0.0665439
0.0664922
0.0664065
0.0662963
0.0661496
0.0659733
0.0657576
0.0655076
0.0652149
0.0648837
0.0645066
0.0640874
0.0636203
0.0631084
0.0625456
0.0619364
0.061276
0.0605673
0.0598069
0.0589971
0.0581352
0.0572235
0.0562618
0.0552535
0.0541966
0.0530944
0.0519458
0.0507543
0.0495197
0.0482454
0.0469318
0.0455822
0.0441974
0.0427809
0.0413339
0.0398597
0.0383592
0.0368358
0.0352902
0.0337207
0.0321328
0.030536
0.0289282
0.0273197
0.0257071
0.0241031
0.0225108
0.0209455
0.0194047
0.0178952
0.0164243
0.0150208
0.0136905
0.0124143
0.0111505
0.0099288
0.00884359
0.00789977
0.00693674
0.00591027
0.00506316
0.00437804
0.00372529
0.00331305
0.00314663
0.00313312
0.0578688
0.0580093
0.0580755
0.0582137
0.058309
0.0584299
0.0585289
0.0586267
0.058716
0.0587885
0.0588603
0.0589065
0.0589522
0.0589736
0.058984
0.0589848
0.0589624
0.0589244
0.0588689
0.0587917
0.0586981
0.0585791
0.0584431
0.0582788
0.0580958
0.0578819
0.0576463
0.0573787
0.0570861
0.0567599
0.0564079
0.0560242
0.0556127
0.0551679
0.0546911
0.0541818
0.0536376
0.0530613
0.0524486
0.0518041
0.0511232
0.0504107
0.0496627
0.048884
0.0480713
0.0472296
0.0463558
0.0454551
0.0445249
0.0435704
0.0425894
0.0415869
0.0405609
0.0395163
0.0384516
0.0373678
0.0362651
0.0351481
0.0340188
0.0328788
0.0317299
0.0305742
0.0294131
0.0282488
0.0270826
0.0259167
0.0247528
0.0235933
0.0224406
0.0212961
0.0201619
0.0190389
0.0179318
0.0168845
0.0158624
0.0148913
0.0139495
0.0130561
0.0121988
0.0113909
0.0106252
0.00990117
0.0092189
0.00857605
0.00798279
0.00742528
0.00691071
0.00641362
0.00595854
0.00552382
0.005137
0.0047529
0.00440015
0.00405128
0.00377168
0.00350736
0.00333784
0.00326148
0.0032507
0.00335687
0.0496056
0.0493867
0.0492958
0.0491293
0.049026
0.0488465
0.0487159
0.0485122
0.0483472
0.0481139
0.0479112
0.0476451
0.0474026
0.0471022
0.0468182
0.0464828
0.0461555
0.0457841
0.045414
0.0450057
0.0445936
0.0441479
0.0436954
0.0432126
0.0427217
0.0422001
0.0416643
0.0410999
0.0405196
0.039913
0.0392895
0.0386418
0.0379771
0.0372899
0.0365861
0.035862
0.0351218
0.0343644
0.0335913
0.0328043
0.0320037
0.0311934
0.0303717
0.029543
0.0287055
0.027864
0.0270163
0.0261676
0.0253156
0.0244655
0.0236152
0.0227695
0.0219263
0.0210902
0.020259
0.0194508
0.0186561
0.0178844
0.0171248
0.0163917
0.0156719
0.0149812
0.0143054
0.013659
0.013029
0.0124266
0.0118434
0.0112878
0.0107531
0.010245
0.00975903
0.00929894
0.00886271
0.00845419
0.00806742
0.0077051
0.00736266
0.00704232
0.00674266
0.00646173
0.00619934
0.00595027
0.00571881
0.00549679
0.00529102
0.00509018
0.00490294
0.00471741
0.00454575
0.00437465
0.004218
0.00406251
0.00392636
0.00379845
0.00370163
0.00364384
0.00361998
0.00364903
0.00382047
0.00391106
0.0367034
0.0361925
0.0359767
0.0355619
0.0353086
0.0348892
0.034595
0.0341618
0.0338266
0.0333751
0.0330008
0.0325282
0.0321168
0.0316221
0.0311751
0.0306574
0.0301768
0.0296361
0.0291228
0.0285602
0.0280168
0.0274323
0.0268609
0.0262547
0.025657
0.0250368
0.0244333
0.0238127
0.0232084
0.0225928
0.0219916
0.0213813
0.0207862
0.0201871
0.0196043
0.0190214
0.018456
0.0178941
0.0173501
0.0168134
0.0162934
0.015783
0.015289
0.0148069
0.0143415
0.0138897
0.0134548
0.0130351
0.0126319
0.0122452
0.0118747
0.0115214
0.0111836
0.0108638
0.0105594
0.0102746
0.0100047
0.00975322
0.00951514
0.00929465
0.00908625
0.0088943
0.00871336
0.00854723
0.00839174
0.00825097
0.00811987
0.00800166
0.00789163
0.00779315
0.00770158
0.00761981
0.00754384
0.00747529
0.00741125
0.00735239
0.00729662
0.00724419
0.00719378
0.00714487
0.00709643
0.00704689
0.00699621
0.0069412
0.00688166
0.00681275
0.0067351
0.00664398
0.00654072
0.00642133
0.00628958
0.00614504
0.00599677
0.0058508
0.00572705
0.00566711
0.0056502
0.00575557
0.00597953
0.00610074
0.0225332
0.0218798
0.0216076
0.0210842
0.0207868
0.0202737
0.0199533
0.0194472
0.0191085
0.0186094
0.0182573
0.0177662
0.0174059
0.0169248
0.0165604
0.0160918
0.015728
0.0152738
0.0149143
0.0144773
0.0141246
0.0137069
0.013365
0.0129691
0.0126415
0.0122722
0.0119672
0.011628
0.0113464
0.0110383
0.0107806
0.0105037
0.0102706
0.0100245
0.00981687
0.00960076
0.00941858
0.00923185
0.00907433
0.00891618
0.00878241
0.00865166
0.00854129
0.00843645
0.00834899
0.00826878
0.00820341
0.00814667
0.00810251
0.00806818
0.00804491
0.00803351
0.00802936
0.0080322
0.00805101
0.00807306
0.00810992
0.00815036
0.00820496
0.00826346
0.00833541
0.00841149
0.00850042
0.00859384
0.00869931
0.00880973
0.00893155
0.00905902
0.00919734
0.00934211
0.00949737
0.00965983
0.00983336
0.0100147
0.0102074
0.0104087
0.0106213
0.0108431
0.0110756
0.0113167
0.0115675
0.0118259
0.0120921
0.0123632
0.0126394
0.0129173
0.0131951
0.0134635
0.0137195
0.0139551
0.0141655
0.0143446
0.0144909
0.014605
0.0146947
0.0147904
0.014964
0.0153395
0.0158344
0.0162437
0.0127871
0.012217
0.0119889
0.0115548
0.0113375
0.0109267
0.0107214
0.0103365
0.0101443
0.00978736
0.00960942
0.00928198
0.00911899
0.008822
0.00867442
0.00840829
0.00827628
0.00804088
0.00792435
0.00771919
0.00761788
0.00744238
0.007356
0.00720942
0.0071376
0.00701896
0.00696113
0.00686869
0.00682397
0.00675626
0.00672392
0.00667968
0.00665911
0.0066374
0.00662838
0.00662479
0.00662658
0.00664017
0.00665721
0.00668429
0.0067157
0.00675602
0.00680102
0.00685426
0.00691238
0.00697831
0.00704916
0.00712772
0.00721112
0.00730227
0.00739824
0.00750205
0.00761074
0.00772743
0.00784947
0.00797924
0.00811511
0.00825879
0.00840936
0.00856777
0.00873402
0.00890826
0.00909129
0.00928276
0.00948418
0.00969462
0.00991603
0.0101476
0.0103912
0.0106463
0.0109147
0.0111963
0.0114928
0.0118043
0.0121327
0.0124783
0.0128431
0.0132278
0.0136345
0.0140643
0.0145193
0.0150012
0.0155122
0.0160543
0.0166303
0.0172422
0.0178934
0.0185913
0.0193395
0.0201487
0.0210247
0.0219794
0.0230221
0.0241679
0.0254296
0.0268199
0.0283261
0.0298634
0.030992
0.0314557
0.0141158
0.0135312
0.0132956
0.012846
0.0126155
0.0121859
0.0119615
0.0115538
0.0113372
0.0109531
0.0107464
0.0103875
0.0101928
0.00986
0.00967906
0.00937325
0.00920704
0.00892868
0.0087785
0.00852735
0.00839359
0.00816979
0.00805269
0.00785565
0.00775527
0.00758593
0.00750181
0.00736
0.00728987
0.00717495
0.00711849
0.00702991
0.00698667
0.00692299
0.00689225
0.00685213
0.00683328
0.00681674
0.00681034
0.00680875
0.00681806
0.00683337
0.00685751
0.00688747
0.00692573
0.00696982
0.0070216
0.00707951
0.00714447
0.00721584
0.00729385
0.0073785
0.00746954
0.00756747
0.00767162
0.00778294
0.0079005
0.00802507
0.00815611
0.0082942
0.00843921
0.00859179
0.00875139
0.00891909
0.00909415
0.0092778
0.00946932
0.00966987
0.00987891
0.0100975
0.0103253
0.0105633
0.0108112
0.0110701
0.0113398
0.0116214
0.0119147
0.0122208
0.01254
0.0128733
0.0132213
0.0135853
0.0139664
0.0143662
0.0147864
0.0152297
0.0156989
0.016198
0.0167307
0.0172989
0.0179089
0.0185738
0.0192997
0.0201045
0.0210043
0.0220311
0.0232147
0.0245636
0.0258129
0.0263985
0.025354
0.0247265
0.0244639
0.0239626
0.0236736
0.0231802
0.0228637
0.0223739
0.022031
0.0215399
0.0211724
0.0206795
0.0202931
0.0197998
0.0193992
0.018908
0.0184981
0.0180112
0.0175971
0.0171174
0.0167031
0.0162337
0.0158238
0.0153676
0.0149661
0.0145263
0.0141352
0.0137144
0.0133374
0.0129383
0.012579
0.0122067
0.0118734
0.0115318
0.0112257
0.0109153
0.0106366
0.0103578
0.0101066
0.00985906
0.0096356
0.00941872
0.00922266
0.00903531
0.00886583
0.00870685
0.00856302
0.00843112
0.00831211
0.00820561
0.00811061
0.00802788
0.00795562
0.00789531
0.00784429
0.00780443
0.00777303
0.00775244
0.00774215
0.00773824
0.00773898
0.0077542
0.00776969
0.00779782
0.00782646
0.0078655
0.00790536
0.00795255
0.00799974
0.0080519
0.00810339
0.0081576
0.0082101
0.00826325
0.00831329
0.00836183
0.00840571
0.00844588
0.00848003
0.00850869
0.00853051
0.00854493
0.00855176
0.00855393
0.00854943
0.00853737
0.00852317
0.00850551
0.00849006
0.00847753
0.00847157
0.00846906
0.008483
0.00851904
0.00858807
0.00871566
0.00894136
0.00930806
0.00983439
0.010258
0.0395133
0.039093
0.0389155
0.0385772
0.0383676
0.0380229
0.0377753
0.0374137
0.0371271
0.036744
0.0364187
0.0360107
0.0356471
0.0352134
0.0348114
0.0343501
0.0339114
0.0334212
0.0329465
0.0324272
0.031917
0.0313681
0.0308236
0.0302453
0.0296669
0.0290609
0.0284513
0.0278185
0.0271792
0.0265203
0.0258528
0.025176
0.0245024
0.0238247
0.0231511
0.022478
0.0218099
0.0211429
0.0204828
0.0198282
0.0191827
0.0185463
0.017921
0.0173081
0.0167062
0.0161184
0.0155424
0.0149834
0.0144375
0.0139103
0.0133978
0.0129053
0.012429
0.0119735
0.011535
0.011118
0.0107188
0.0103445
0.00998586
0.00965047
0.00932902
0.00902855
0.00874039
0.00847079
0.00821194
0.00796849
0.00773394
0.00751475
0.00730526
0.00710867
0.00692047
0.00674276
0.0065719
0.00640875
0.00625179
0.00609984
0.00595406
0.00581051
0.00567306
0.00553545
0.00540475
0.00527352
0.00514996
0.00502588
0.00490871
0.00479228
0.00468446
0.00458084
0.00448748
0.00439985
0.00432295
0.00425665
0.00419787
0.00415969
0.00414272
0.00414133
0.00422819
0.00437611
0.00460954
0.00471361
0.051822
0.0517058
0.0516582
0.0515757
0.0515225
0.0514248
0.0513494
0.0512249
0.0511196
0.050967
0.0508309
0.050647
0.0504752
0.0502586
0.050048
0.0497953
0.0495443
0.0492533
0.0489596
0.0486296
0.0482913
0.0479196
0.0475367
0.0471226
0.0466944
0.0462376
0.045764
0.0452645
0.0447465
0.0442049
0.0436441
0.0430587
0.0424489
0.0418145
0.0411555
0.0404724
0.0397653
0.0390348
0.0382809
0.0375045
0.0367059
0.0358861
0.0350453
0.0341856
0.0333076
0.0324151
0.0315065
0.0305861
0.0296523
0.0287097
0.0277569
0.0267984
0.0258331
0.0248653
0.0238942
0.0229239
0.021954
0.0210194
0.0200922
0.019203
0.0183275
0.0174848
0.0166592
0.015867
0.0150975
0.0143617
0.0136525
0.0129738
0.012322
0.0116998
0.0111069
0.0105436
0.0100107
0.00950508
0.00903207
0.00857946
0.00815981
0.00775738
0.00738677
0.00702592
0.00669179
0.00636479
0.0060663
0.00577742
0.00550981
0.00524284
0.00499021
0.00474745
0.00452965
0.00432428
0.00412751
0.00393107
0.00376069
0.00361611
0.00348433
0.00339027
0.00334905
0.00334377
0.00349817
0.00360124
0.0590818
0.0592791
0.0593689
0.0595519
0.059676
0.0598428
0.059976
0.0601226
0.060252
0.0603774
0.0604956
0.0605994
0.0606996
0.0607809
0.0608592
0.0609152
0.0609675
0.0609959
0.0610113
0.0610154
0.0610012
0.0609661
0.0609151
0.0608416
0.0607501
0.0606348
0.0604986
0.0603371
0.0601514
0.0599387
0.0596988
0.0594294
0.05913
0.0587991
0.0584356
0.0580381
0.0576067
0.0571435
0.0566442
0.0561099
0.0555387
0.0549309
0.0542847
0.053602
0.05288
0.0521221
0.0513251
0.050493
0.049623
0.0487199
0.0477807
0.0468111
0.0458082
0.0447777
0.0437174
0.0426329
0.0415228
0.0403843
0.0392216
0.0380347
0.0368258
0.0356019
0.0343619
0.0331119
0.0318501
0.0305834
0.0293099
0.028036
0.0267595
0.0254853
0.0242127
0.0229477
0.0216928
0.0204567
0.0192922
0.0181456
0.0170644
0.0160009
0.015006
0.0140361
0.0131214
0.0122167
0.011356
0.0105298
0.00977712
0.00906371
0.00836267
0.00763892
0.00695018
0.00640165
0.00595771
0.00538001
0.00470148
0.00427956
0.00394264
0.00356077
0.00329076
0.00317584
0.00315056
0.00321898
0.0609352
0.0612972
0.0614598
0.0617758
0.0619913
0.0622905
0.0625326
0.0628175
0.0630725
0.0633458
0.0636059
0.0638703
0.0641296
0.0643859
0.0646411
0.064889
0.0651368
0.0653752
0.0656128
0.0658411
0.0660653
0.0662801
0.0664895
0.0666893
0.0668825
0.067067
0.0672422
0.067408
0.0675621
0.0677051
0.0678343
0.0679501
0.0680494
0.0681329
0.0681985
0.068244
0.0682661
0.0682733
0.0682565
0.0682095
0.068137
0.0680338
0.0678984
0.0677296
0.067523
0.0672792
0.0669925
0.0666643
0.0662886
0.0658672
0.0653941
0.0648716
0.0642951
0.0636667
0.0629811
0.0622427
0.0614462
0.0605955
0.0596869
0.0587245
0.0577049
0.0566355
0.0555119
0.0543413
0.0531186
0.0518526
0.050539
0.0491881
0.0477956
0.0463695
0.0449056
0.0434118
0.0418882
0.0403405
0.0387574
0.0371466
0.0355038
0.0338458
0.032161
0.0304535
0.0287338
0.027022
0.0253022
0.0235102
0.0216287
0.0197909
0.0181835
0.0166954
0.0147275
0.0124948
0.0113541
0.0104882
0.00876178
0.00680745
0.00580405
0.00509319
0.00400496
0.00341707
0.0031468
0.0030818
0.0587441
0.0591288
0.0593053
0.0596319
0.0598653
0.0601773
0.0604404
0.0607439
0.0610249
0.0613244
0.0616169
0.0619162
0.0622161
0.0625168
0.0628219
0.0631251
0.0634332
0.0637384
0.0640478
0.0643536
0.0646616
0.064965
0.0652675
0.0655627
0.0658516
0.0661426
0.0664304
0.0667201
0.0670062
0.0672936
0.0675779
0.0678631
0.0681463
0.068428
0.0687048
0.0689779
0.0692459
0.0695092
0.0697647
0.0700136
0.0702537
0.0704852
0.0707054
0.0709151
0.0711106
0.0712928
0.0714574
0.0716056
0.0717325
0.0718394
0.0719218
0.0719759
0.072001
0.0720079
0.0719777
0.0719176
0.0718162
0.0716798
0.0714935
0.0712641
0.070976
0.0706341
0.0702224
0.0697499
0.0692024
0.0685853
0.0678846
0.0671037
0.0662357
0.06528
0.0642337
0.0630964
0.0618682
0.060551
0.0591461
0.0576565
0.0560835
0.0544308
0.0526976
0.0508852
0.0489888
0.0470133
0.0449592
0.042819
0.0405629
0.0381786
0.0356978
0.0331501
0.0304629
0.0275331
0.0245094
0.0215525
0.0184575
0.0153451
0.0124137
0.00970205
0.00730813
0.00533843
0.00390698
0.00323113
0.0538904
0.0542183
0.0543699
0.0546394
0.0548292
0.055089
0.0553018
0.0555564
0.0557856
0.0560387
0.0562801
0.0565343
0.056785
0.0570423
0.0573
0.0575616
0.0578248
0.0580905
0.0583581
0.058627
0.0588978
0.0591694
0.0594426
0.059717
0.0599937
0.0602748
0.060558
0.0608467
0.0611369
0.0614328
0.0617302
0.0620323
0.0623351
0.0626425
0.0629526
0.0632664
0.0635832
0.0639036
0.0642262
0.0645523
0.0648802
0.0652107
0.065542
0.0658747
0.0662066
0.066541
0.0668742
0.0672076
0.0675372
0.0678627
0.0681783
0.0684826
0.0687687
0.0690307
0.0692542
0.0694849
0.0696859
0.0698816
0.0700499
0.0702073
0.0703403
0.0704641
0.0705719
0.0706536
0.0706953
0.0707114
0.0707037
0.0706344
0.0705353
0.070376
0.0701709
0.0698998
0.0695632
0.0691428
0.0686358
0.0680218
0.0672933
0.0664283
0.0654162
0.0642354
0.0628741
0.0613131
0.0595434
0.0575522
0.055334
0.052879
0.0501864
0.0472566
0.0440895
0.0406716
0.0369537
0.0329183
0.0285703
0.0239384
0.0193324
0.0151033
0.0115215
0.00885757
0.00682436
0.00465037
0.0478094
0.0480106
0.0481055
0.048269
0.0483782
0.0485422
0.0486637
0.0488262
0.0489594
0.0491209
0.0492642
0.0494259
0.0495771
0.0497406
0.0498977
0.0500638
0.0502257
0.0503944
0.0505604
0.0507315
0.0509011
0.0510751
0.0512489
0.0514271
0.0516067
0.0517914
0.0519778
0.05217
0.0523639
0.0525639
0.0527657
0.0529734
0.0531837
0.0533999
0.0536197
0.0538456
0.0540755
0.0543117
0.0545524
0.0547998
0.0550523
0.0553119
0.0555775
0.0558508
0.0561313
0.0564171
0.0567078
0.0570027
0.0573002
0.0575995
0.0578987
0.0581974
0.0584934
0.0587875
0.0590814
0.0593843
0.0596821
0.059986
0.0602789
0.0605668
0.06083
0.0610645
0.0612955
0.06151
0.0617183
0.0619142
0.0620958
0.0622566
0.0624008
0.0625152
0.0625939
0.0626291
0.062637
0.0625676
0.0624368
0.0622148
0.0619021
0.0614708
0.0609154
0.0602103
0.0593461
0.0583
0.0570606
0.055609
0.053937
0.0520081
0.049802
0.0472585
0.0443244
0.0408777
0.0368945
0.0324256
0.0277211
0.022956
0.0185583
0.0146386
0.0116232
0.00948873
0.00817601
0.00685488
0.0292143
0.0292351
0.0292296
0.0292064
0.0291807
0.0291545
0.0291171
0.0290889
0.0290475
0.0290152
0.0289723
0.0289363
0.0288917
0.0288529
0.0288063
0.0287649
0.0287165
0.0286726
0.0286226
0.0285762
0.0285247
0.0284764
0.0284236
0.0283738
0.0283201
0.028269
0.0282143
0.028162
0.0281062
0.0280527
0.0279959
0.027941
0.0278833
0.0278271
0.0277685
0.0277112
0.0276516
0.027593
0.0275324
0.0274725
0.0274108
0.0273492
0.0272858
0.0272219
0.0271559
0.027088
0.0270174
0.026944
0.0268672
0.0267868
0.0267023
0.0266138
0.026521
0.0264241
0.0263234
0.0262179
0.0261043
0.0259833
0.0258494
0.0257029
0.0255372
0.0253527
0.0251659
0.0249659
0.0247614
0.0245456
0.0243212
0.024086
0.0238393
0.0235787
0.0233029
0.0230116
0.0227034
0.0223686
0.0220147
0.0216294
0.021219
0.0207729
0.0202954
0.0197784
0.0192241
0.0186267
0.0179866
0.0172986
0.016559
0.0157513
0.0148604
0.0138405
0.012627
0.0111689
0.00936112
0.00728535
0.0053021
0.00355169
0.00238336
0.0017854
0.00206279
0.00429295
0.00678951
0.00764767
0.00656848
0.00193369
0.00172002
0.00175277
0.00176534
0.00163622
0.00154868
0.00151697
0.00150098
0.00148577
0.00145131
0.00139345
0.00137189
0.00141604
0.001668
0.00241112
0.00397819
0.00498617
0.00506892
0.00324765
0.00462772
0.00199502
0.00190328
0.00191151
0.00179002
0.00164991
0.00159295
0.00157894
0.00155959
0.0015295
0.00146466
0.00142913
0.00143279
0.00155062
0.00195246
0.00298719
0.00444347
0.00497106
0.0048322
0.00270446
0.00320298
0.00216182
0.00210715
0.00198525
0.00179832
0.00171267
0.00169551
0.00164805
0.00161496
0.00155914
0.00151278
0.00150561
0.00157244
0.00185564
0.0025162
0.00372803
0.00472247
0.00493402
0.00451239
0.00216007
0.00293672
0.00237817
0.00226578
0.00200019
0.00188129
0.00184187
0.00176904
0.0017275
0.00168854
0.00164397
0.00162958
0.00168415
0.00187128
0.00233965
0.00324854
0.00440625
0.00483022
0.0048535
0.0040597
0.00164557
0.00296867
0.00248623
0.00233647
0.00212265
0.00206498
0.00197262
0.00192331
0.0018917
0.00187506
0.00187287
0.00193772
0.00211631
0.00251358
0.00331192
0.00431984
0.00478144
0.00487964
0.00467873
0.00343233
0.00119143
0.00304781
0.00266609
0.00253331
0.00238664
0.00233594
0.00228632
0.0022817
0.00231167
0.0023953
0.0025381
0.00276279
0.00317257
0.00388207
0.00454331
0.00486543
0.00495695
0.00485584
0.00433329
0.00262852
0.00080198
0.00338191
0.00322839
0.00316792
0.00314259
0.00319738
0.00330934
0.00349433
0.00376213
0.00407147
0.00420688
0.0045931
0.00487641
0.00517673
0.0053037
0.00532238
0.00514383
0.00470746
0.00374608
0.00177607
0.000491389
0.00579389
0.00593541
0.00616447
0.00637828
0.00668429
0.00685417
0.0068943
0.00689763
0.00676139
0.00670071
0.00667562
0.00654759
0.00645334
0.00613567
0.00576347
0.00507866
0.00431633
0.00283865
0.00108949
0.000273909
0.0160152
0.0159464
0.0157457
0.0149592
0.0141094
0.0131478
0.0123258
0.0115352
0.0107912
0.0101177
0.00939264
0.00867147
0.0078487
0.00691205
0.00582025
0.00473722
0.00341719
0.00188548
0.000696633
0.000149004
0.0285298
0.0267225
0.0249634
0.022658
0.0211056
0.019092
0.0177966
0.01602
0.0148792
0.0132
0.0120638
0.0103043
0.00901676
0.00695881
0.00538952
0.00355916
0.00222462
0.00110747
0.00040922
8.49616e-05
0.0248878
0.0233053
0.0221486
0.0200948
0.0190643
0.0172854
0.0164003
0.0148936
0.0140917
0.0127132
0.0118395
0.0104086
0.00928478
0.00764164
0.00612288
0.00436393
0.00261216
0.00123372
0.000387282
7.38938e-05
0.0102954
0.010661
0.0109089
0.0109781
0.0107595
0.0105845
0.0101268
0.00990993
0.00954166
0.00935883
0.00898287
0.00869627
0.00810679
0.00757742
0.00648051
0.00559343
0.00420325
0.00221208
0.000674508
0.000115164
0.00434083
0.004341
0.0044705
0.00463688
0.00491159
0.00526316
0.00561808
0.005775
0.00606099
0.00618296
0.00645493
0.00658693
0.00664631
0.00663883
0.00638506
0.00581168
0.00506907
0.00346965
0.00119751
0.000246594
0.00311344
0.00293011
0.00284145
0.00277346
0.00276627
0.00281596
0.00294349
0.00313252
0.00344794
0.00384788
0.00425191
0.00494299
0.00542444
0.00574099
0.00583758
0.00583729
0.00541824
0.00447927
0.0020743
0.000498344
0.00292678
0.0025832
0.0024605
0.00229615
0.00223641
0.0021763
0.0021646
0.00217463
0.00223279
0.00236461
0.00259909
0.0030254
0.00392221
0.00490271
0.00539484
0.00553322
0.00553076
0.005041
0.00312612
0.000863845
0.00286648
0.00243796
0.00230616
0.00210829
0.0020426
0.00194827
0.00189763
0.00186684
0.00184659
0.00184188
0.00190435
0.0020971
0.00254123
0.00343349
0.00476681
0.00538694
0.00552343
0.0053526
0.00398913
0.00130572
0.0028576
0.00230365
0.00222818
0.00201115
0.00190067
0.00184986
0.00177878
0.00173529
0.00169885
0.00165878
0.00164713
0.00170413
0.00191494
0.00246506
0.00349047
0.00492687
0.00545949
0.00549826
0.00464503
0.00181686
0.00344144
0.00213328
0.00202851
0.00198687
0.00183751
0.0017589
0.00172569
0.00167203
0.00164058
0.00158806
0.00155042
0.00154695
0.00162342
0.00191847
0.00274068
0.00414323
0.00531582
0.00556064
0.00509441
0.00239083
0.0051707
0.00208269
0.00189745
0.0018421
0.00181752
0.00171197
0.00166337
0.00162413
0.00159981
0.00156464
0.00151089
0.00148407
0.00149729
0.00162444
0.00208529
0.00330672
0.00500109
0.00558733
0.00543169
0.0030008
0.00722141
0.00207719
0.00181578
0.00177266
0.00173666
0.00168985
0.00163627
0.00159458
0.0015707
0.00153895
0.00150078
0.00145665
0.00144569
0.00149601
0.00177239
0.00261101
0.00448013
0.0055964
0.00568152
0.00360103
0.00397132
0.00375019
0.0037468
0.0037468
0.00374652
0.00374628
0.00374612
0.00374604
0.003746
0.00374598
0.00374598
0.003746
0.00374604
0.00374612
0.00374628
0.00374652
0.0037468
0.0037468
0.00375019
0.00397132
0.00441516
0.00375348
0.00374141
0.00374095
0.00374056
0.00374012
0.00373987
0.00373975
0.00373969
0.00373966
0.00373966
0.00373969
0.00373975
0.00373987
0.00374012
0.00374056
0.00374095
0.00374141
0.00375348
0.00441516
0.00485881
0.00376057
0.00373286
0.00373263
0.00373284
0.00373273
0.00373256
0.00373242
0.00373235
0.00373231
0.00373231
0.00373235
0.00373242
0.00373256
0.00373273
0.00373284
0.00373263
0.00373286
0.00376057
0.00485881
0.00530141
0.00377207
0.00372431
0.00372396
0.00372492
0.00372524
0.00372525
0.00372519
0.00372514
0.00372512
0.00372512
0.00372514
0.00372519
0.00372525
0.00372524
0.00372492
0.00372396
0.00372432
0.00377208
0.00530141
0.00573998
0.00378546
0.0037155
0.00371483
0.00371666
0.00371758
0.00371789
0.00371795
0.00371795
0.00371795
0.00371795
0.00371795
0.00371795
0.00371789
0.00371758
0.00371665
0.00371483
0.0037155
0.00378546
0.00573998
0.00617107
0.00379761
0.00370573
0.00370508
0.00370799
0.00370969
0.00371043
0.0037107
0.00371078
0.0037108
0.0037108
0.00371078
0.0037107
0.00371043
0.00370969
0.00370799
0.00370508
0.00370573
0.00379761
0.00617107
0.0065911
0.0038085
0.003695
0.00369475
0.00369894
0.00370155
0.00370284
0.0037034
0.00370361
0.00370368
0.00370368
0.00370361
0.0037034
0.00370284
0.00370155
0.00369894
0.00369475
0.003695
0.0038085
0.00659111
0.00700021
0.00381683
0.00368278
0.00368365
0.00368942
0.00369312
0.00369509
0.00369602
0.00369642
0.00369656
0.00369656
0.00369642
0.00369602
0.00369509
0.00369312
0.00368942
0.00368365
0.00368278
0.00381683
0.00700021
0.00739395
0.00382329
0.00366913
0.00367173
0.00367942
0.00368438
0.00368714
0.00368854
0.00368919
0.00368943
0.00368943
0.00368919
0.00368854
0.00368714
0.00368438
0.00367942
0.00367173
0.00366913
0.00382329
0.00739395
0.00776829
0.00382721
0.00365397
0.00365899
0.00366891
0.00367531
0.00367898
0.00368094
0.0036819
0.00368228
0.00368228
0.0036819
0.00368094
0.00367898
0.00367531
0.00366891
0.00365899
0.00365397
0.00382722
0.00776828
0.00811989
0.00383024
0.00363765
0.00364552
0.00365794
0.00366592
0.00367061
0.0036732
0.00367453
0.00367507
0.00367507
0.00367453
0.0036732
0.00367061
0.00366592
0.00365794
0.00364552
0.00363765
0.00383024
0.00811989
0.00844989
0.00383074
0.00361993
0.00363124
0.00364646
0.0036562
0.00366201
0.00366531
0.00366705
0.00366779
0.00366779
0.00366705
0.00366531
0.00366201
0.0036562
0.00364646
0.00363124
0.00361993
0.00383074
0.00844989
0.00875539
0.00383023
0.00360095
0.00361616
0.00363448
0.00364614
0.00365317
0.00365725
0.00365946
0.00366041
0.00366041
0.00365946
0.00365725
0.00365317
0.00364614
0.00363448
0.00361616
0.00360095
0.00383023
0.00875539
0.00903579
0.00382885
0.00358082
0.00360031
0.00362199
0.00363573
0.00364408
0.00364901
0.00365173
0.00365292
0.00365292
0.00365173
0.00364901
0.00364408
0.00363573
0.00362198
0.0036003
0.00358082
0.00382885
0.00903579
0.00928894
0.00382639
0.00355976
0.00358377
0.00360903
0.00362499
0.00363474
0.00364058
0.00364385
0.00364531
0.00364531
0.00364385
0.00364058
0.00363474
0.00362499
0.00360903
0.00358377
0.00355977
0.00382639
0.00928894
0.00951717
0.0038233
0.00353787
0.00356661
0.00359563
0.00361393
0.00362517
0.00363197
0.00363582
0.00363755
0.00363755
0.00363582
0.00363197
0.00362517
0.00361393
0.00359563
0.00356661
0.00353787
0.00382329
0.00951717
0.00971926
0.00382027
0.00351542
0.0035489
0.00358183
0.00360256
0.00361536
0.00362316
0.00362762
0.00362964
0.00362964
0.00362762
0.00362316
0.00361536
0.00360256
0.00358183
0.0035489
0.00351542
0.00382027
0.00971927
0.00989747
0.00381669
0.00349217
0.00353056
0.00356758
0.00359088
0.0036053
0.00361414
0.00361924
0.00362157
0.00362157
0.00361924
0.00361414
0.0036053
0.00359087
0.00356758
0.00353056
0.00349216
0.00381668
0.00989748
0.0100502
0.00381338
0.0034685
0.00351171
0.00355294
0.00357888
0.00359499
0.00360492
0.00361068
0.00361332
0.00361332
0.00361068
0.00360492
0.00359499
0.00357888
0.00355294
0.00351171
0.00346851
0.00381338
0.0100502
0.0101814
0.00381046
0.00344449
0.00349241
0.00353792
0.00356659
0.00358444
0.00359549
0.00360193
0.0036049
0.0036049
0.00360193
0.00359549
0.00358444
0.00356659
0.00353792
0.00349241
0.00344449
0.00381045
0.0101814
0.0102898
0.00380859
0.00342054
0.00347282
0.00352261
0.00355404
0.00357367
0.00358586
0.00359299
0.00359629
0.00359629
0.00359299
0.00358586
0.00357367
0.00355404
0.00352261
0.00347282
0.00342054
0.00380859
0.0102898