/*--------------------------------*- C++ -*----------------------------------*\
| =========                 |                                                 |
| \\      /  F ield         | OpenFOAM: The Open Source CFD Toolbox           |
|  \\    /   O peration     | Version:  2.1.0                                 |
|   \\  /    A nd           | Web:      www.OpenFOAM.org                      |
|    \\/     M anipulation  |                                                 |
\*---------------------------------------------------------------------------*/
FoamFile
{
    version     2.0;
    format      ascii;
    class       volScalarField;
    location    "0.18";
    object      nut;
}
// * * * * * * * * * * * * * * * * * * * * * * * * * * * * * * * * * * * * * //

dimensions      [0 2 -1 0 0 0 0];

internalField   nonuniform List<scalar> 
6400
(
6.83326e-06
6.84878e-06
6.85946e-06
6.8714e-06
6.88328e-06
6.89794e-06
6.90966e-06
6.92514e-06
6.93763e-06
6.95322e-06
6.96652e-06
6.9823e-06
6.99632e-06
7.01239e-06
7.02709e-06
7.04357e-06
7.059e-06
7.07599e-06
7.09225e-06
7.10991e-06
7.12709e-06
7.14556e-06
7.16374e-06
7.18314e-06
7.20238e-06
7.22282e-06
7.24318e-06
7.26473e-06
7.28629e-06
7.30904e-06
7.33188e-06
7.35593e-06
7.38014e-06
7.40559e-06
7.43131e-06
7.45823e-06
7.48549e-06
7.51388e-06
7.54261e-06
7.57228e-06
7.60216e-06
7.63278e-06
7.66348e-06
7.69464e-06
7.72572e-06
7.75693e-06
7.78784e-06
7.81856e-06
7.84871e-06
7.87822e-06
7.90651e-06
7.93279e-06
7.95661e-06
7.97948e-06
8.00247e-06
8.02419e-06
8.04599e-06
8.06641e-06
8.08684e-06
8.10649e-06
8.1257e-06
8.144e-06
8.16151e-06
8.17768e-06
8.19315e-06
8.20664e-06
8.21704e-06
8.22586e-06
8.23033e-06
8.23224e-06
8.22923e-06
8.22266e-06
8.21098e-06
8.19524e-06
8.17471e-06
8.15069e-06
8.12341e-06
8.09468e-06
8.06555e-06
8.03796e-06
8.01195e-06
7.98489e-06
7.94849e-06
7.92215e-06
7.89843e-06
7.87828e-06
7.85762e-06
7.82624e-06
7.7687e-06
7.65191e-06
7.41999e-06
6.96068e-06
6.09664e-06
4.63991e-06
2.64931e-06
1.62915e-06
1.83752e-06
2.93621e-06
2.89385e-06
3.1095e-06
7.2579e-05
7.29237e-05
7.29939e-05
7.31991e-05
7.3273e-05
7.34379e-05
7.35242e-05
7.36631e-05
7.37584e-05
7.38799e-05
7.39797e-05
7.40882e-05
7.41877e-05
7.42863e-05
7.43816e-05
7.44715e-05
7.45603e-05
7.46417e-05
7.47232e-05
7.47965e-05
7.48706e-05
7.49376e-05
7.50055e-05
7.50658e-05
7.51269e-05
7.51808e-05
7.52345e-05
7.5281e-05
7.53259e-05
7.53635e-05
7.53976e-05
7.54241e-05
7.54448e-05
7.54573e-05
7.54648e-05
7.54645e-05
7.54577e-05
7.54433e-05
7.54215e-05
7.53915e-05
7.53498e-05
7.52957e-05
7.52267e-05
7.51405e-05
7.50349e-05
7.4907e-05
7.47541e-05
7.45729e-05
7.43614e-05
7.41189e-05
7.38512e-05
7.35459e-05
7.30842e-05
7.24587e-05
7.18018e-05
7.11037e-05
7.03719e-05
6.95981e-05
6.87857e-05
6.79383e-05
6.70556e-05
6.61352e-05
6.51788e-05
6.41765e-05
6.31402e-05
6.20738e-05
6.09452e-05
5.97801e-05
5.85567e-05
5.72862e-05
5.59564e-05
5.45727e-05
5.31277e-05
5.16255e-05
5.00632e-05
4.84449e-05
4.67714e-05
4.50483e-05
4.32798e-05
4.14741e-05
3.96389e-05
3.77774e-05
3.58841e-05
3.39253e-05
3.19161e-05
2.98343e-05
2.76824e-05
2.54452e-05
2.31255e-05
2.07246e-05
1.82716e-05
1.58088e-05
1.34204e-05
1.1218e-05
9.17363e-06
7.29073e-06
5.79093e-06
4.73017e-06
4.1193e-06
4.95124e-06
0.000110663
0.00011078
0.000110822
0.000110823
0.00011084
0.000110804
0.000110802
0.00011074
0.000110718
0.000110634
0.00011059
0.000110485
0.000110415
0.000110289
0.00011019
0.000110041
0.00010991
0.000109736
0.000109572
0.000109369
0.000109171
0.00010894
0.000108715
0.000108461
0.000108207
0.000107925
0.000107641
0.000107335
0.000107022
0.000106688
0.000106345
0.000105983
0.00010561
0.000105218
0.000104804
0.00010437
0.000103911
0.000103428
0.000102916
0.000102375
0.000101812
0.000101221
0.000100604
9.99527e-05
9.92647e-05
9.85363e-05
9.77636e-05
9.69408e-05
9.60571e-05
9.48026e-05
9.33973e-05
9.19509e-05
9.04767e-05
8.89736e-05
8.74408e-05
8.58798e-05
8.42911e-05
8.26806e-05
8.10593e-05
7.93957e-05
7.77092e-05
7.59902e-05
7.42478e-05
7.24758e-05
7.06816e-05
6.88602e-05
6.70166e-05
6.51516e-05
6.3262e-05
6.13514e-05
5.94146e-05
5.74541e-05
5.54648e-05
5.34499e-05
5.14068e-05
4.93378e-05
4.7243e-05
4.5126e-05
4.29901e-05
4.08413e-05
3.86857e-05
3.65315e-05
3.43884e-05
3.22801e-05
3.02079e-05
2.81893e-05
2.62257e-05
2.43267e-05
2.24875e-05
2.06984e-05
1.89408e-05
1.72425e-05
1.5515e-05
1.3765e-05
1.19269e-05
1.00821e-05
8.32387e-06
6.77884e-06
5.99239e-06
7.26345e-06
0.000131159
0.000130727
0.000130554
0.000130164
0.000129972
0.000129562
0.000129332
0.000128907
0.000128632
0.00012819
0.000127868
0.000127406
0.000127037
0.000126552
0.000126135
0.000125622
0.000125153
0.000124606
0.000124083
0.000123491
0.000122906
0.000121939
0.000120944
0.000119915
0.000118878
0.000117816
0.000116737
0.000115635
0.000114516
0.000113374
0.000112212
0.000111027
0.000109822
0.000108595
0.000107342
0.000106071
0.000104771
0.000103452
0.000102105
0.000100738
9.93422e-05
9.79254e-05
9.64804e-05
9.50146e-05
9.35214e-05
9.20022e-05
9.04573e-05
8.89042e-05
8.73223e-05
8.57256e-05
8.41135e-05
8.24842e-05
8.08406e-05
7.91821e-05
7.75056e-05
7.58108e-05
7.40963e-05
7.23622e-05
7.06074e-05
6.88369e-05
6.70492e-05
6.52467e-05
6.34301e-05
6.16006e-05
5.97612e-05
5.7914e-05
5.60634e-05
5.42121e-05
5.23647e-05
5.05256e-05
4.86992e-05
4.68908e-05
4.5102e-05
4.33395e-05
4.16063e-05
3.99059e-05
3.82412e-05
3.66142e-05
3.50256e-05
3.34742e-05
3.19581e-05
3.04676e-05
2.90057e-05
2.75808e-05
2.61459e-05
2.47317e-05
2.33009e-05
2.18742e-05
2.04258e-05
1.89634e-05
1.74756e-05
1.59779e-05
1.44493e-05
1.28941e-05
1.12963e-05
9.74751e-06
8.3758e-06
7.58634e-06
7.1377e-06
6.80253e-06
0.000130857
0.00013068
0.00013034
0.000129969
0.000129172
0.000128432
0.000127497
0.000126599
0.000125608
0.000124623
0.000123595
0.000122552
0.000121489
0.0001204
0.000119299
0.000118171
0.000117029
0.000115862
0.000114682
0.000113477
0.000112257
0.000111022
0.000109774
0.000108501
0.000107217
0.000105908
0.00010459
0.000103249
0.000101897
0.000100526
9.91437e-05
9.77378e-05
9.63199e-05
9.49014e-05
9.34533e-05
9.20008e-05
9.0527e-05
8.90472e-05
8.75489e-05
8.60444e-05
8.45236e-05
8.29972e-05
8.14572e-05
7.99128e-05
7.83579e-05
7.68009e-05
7.5238e-05
7.36761e-05
7.21106e-05
7.05502e-05
6.89886e-05
6.74294e-05
6.58694e-05
6.4314e-05
6.27603e-05
6.12124e-05
5.96714e-05
5.81417e-05
5.66226e-05
5.5119e-05
5.36308e-05
5.2162e-05
5.07127e-05
4.92853e-05
4.78801e-05
4.64991e-05
4.51418e-05
4.38087e-05
4.24988e-05
4.12066e-05
3.99374e-05
3.86976e-05
3.74516e-05
3.62274e-05
3.49979e-05
3.37825e-05
3.2557e-05
3.13347e-05
3.00954e-05
2.88495e-05
2.75873e-05
2.63215e-05
2.50388e-05
2.37465e-05
2.24401e-05
2.11437e-05
1.98569e-05
1.85881e-05
1.73177e-05
1.59114e-05
1.46305e-05
1.35253e-05
1.2341e-05
1.09819e-05
9.89324e-06
9.05071e-06
8.19675e-06
7.73023e-06
7.62404e-06
7.73171e-06
0.000117196
0.000116402
0.000115908
0.000115186
0.000114246
0.000113238
0.000112154
0.000111026
0.000109882
0.000108696
0.00010752
0.0001063
0.000105095
0.000103859
0.000102623
0.000101387
0.000100136
9.88794e-05
9.76218e-05
9.63549e-05
9.50916e-05
9.38202e-05
9.25521e-05
9.12711e-05
8.99909e-05
8.86911e-05
8.73911e-05
8.60723e-05
8.47495e-05
8.341e-05
8.20693e-05
8.07202e-05
7.93711e-05
7.80153e-05
7.66585e-05
7.53004e-05
7.39411e-05
7.25851e-05
7.12293e-05
6.98809e-05
6.85351e-05
6.71996e-05
6.587e-05
6.45533e-05
6.32452e-05
6.19525e-05
6.06707e-05
5.94059e-05
5.81536e-05
5.69189e-05
5.56978e-05
5.44949e-05
5.33056e-05
5.21345e-05
5.09707e-05
4.98222e-05
4.86935e-05
4.75702e-05
4.64678e-05
4.53698e-05
4.42866e-05
4.32059e-05
4.21345e-05
4.10617e-05
3.99928e-05
3.89203e-05
3.7848e-05
3.67699e-05
3.56889e-05
3.46008e-05
3.35091e-05
3.23969e-05
3.08904e-05
2.94719e-05
2.80818e-05
2.67586e-05
2.54658e-05
2.42312e-05
2.30346e-05
2.18945e-05
2.08001e-05
1.9746e-05
1.87363e-05
1.77625e-05
1.68489e-05
1.59645e-05
1.51337e-05
1.43033e-05
1.35338e-05
1.27754e-05
1.20937e-05
1.1391e-05
1.07449e-05
1.00894e-05
9.58394e-06
9.09225e-06
8.80062e-06
8.6685e-06
8.6593e-06
8.94949e-06
0.000100462
9.91873e-05
9.86204e-05
9.76596e-05
9.6769e-05
9.56563e-05
9.46442e-05
9.34753e-05
9.24077e-05
9.122e-05
9.01237e-05
8.89309e-05
8.78175e-05
8.66262e-05
8.55021e-05
8.43168e-05
8.31855e-05
8.201e-05
8.08772e-05
7.97138e-05
7.85845e-05
7.74343e-05
7.6313e-05
7.51818e-05
7.4074e-05
7.2952e-05
7.18523e-05
7.07469e-05
6.96575e-05
6.85661e-05
6.74901e-05
6.64174e-05
6.53571e-05
6.43003e-05
6.32535e-05
6.22108e-05
6.11748e-05
6.01396e-05
5.91116e-05
5.80936e-05
5.70689e-05
5.60554e-05
5.50368e-05
5.40259e-05
5.30093e-05
5.19979e-05
5.098e-05
4.9965e-05
4.89426e-05
4.79211e-05
4.68928e-05
4.58641e-05
4.48289e-05
4.37924e-05
4.2548e-05
4.12141e-05
3.99042e-05
3.86375e-05
3.73848e-05
3.61793e-05
3.49847e-05
3.38391e-05
3.27038e-05
3.16152e-05
3.05377e-05
2.95006e-05
2.84768e-05
2.74909e-05
2.65213e-05
2.55866e-05
2.46713e-05
2.37897e-05
2.29341e-05
2.21166e-05
2.13234e-05
2.05637e-05
1.9828e-05
1.9124e-05
1.84505e-05
1.78038e-05
1.71854e-05
1.65842e-05
1.60133e-05
1.54533e-05
1.49238e-05
1.43975e-05
1.38997e-05
1.34008e-05
1.29345e-05
1.24669e-05
1.2036e-05
1.16068e-05
1.12256e-05
1.08628e-05
1.0573e-05
1.036e-05
1.02354e-05
1.01934e-05
1.06061e-05
1.08479e-05
8.56713e-05
8.40884e-05
8.35728e-05
8.25552e-05
8.18382e-05
8.07857e-05
7.99898e-05
7.89455e-05
7.81154e-05
7.70969e-05
7.62524e-05
7.5261e-05
7.44098e-05
7.34425e-05
7.25861e-05
7.16348e-05
7.07767e-05
6.98333e-05
6.8972e-05
6.80275e-05
6.71598e-05
6.62244e-05
6.53324e-05
6.43931e-05
6.32704e-05
6.18545e-05
6.05291e-05
5.91594e-05
5.78748e-05
5.65586e-05
5.53198e-05
5.40606e-05
5.28743e-05
5.16776e-05
5.05503e-05
4.94197e-05
4.83544e-05
4.72914e-05
4.62876e-05
4.52941e-05
4.43516e-05
4.3421e-05
4.2536e-05
4.16659e-05
4.08366e-05
4.00245e-05
3.92481e-05
3.8491e-05
3.77639e-05
3.70579e-05
3.63764e-05
3.57166e-05
3.5077e-05
3.44584e-05
3.38594e-05
3.32832e-05
3.27239e-05
3.21837e-05
3.16561e-05
3.11453e-05
3.06442e-05
3.01577e-05
2.96793e-05
2.92132e-05
2.87565e-05
2.83117e-05
2.78778e-05
2.74737e-05
2.70552e-05
2.66676e-05
2.62713e-05
2.58995e-05
2.55215e-05
2.51604e-05
2.47947e-05
2.44399e-05
2.40808e-05
2.37282e-05
2.33723e-05
2.30192e-05
2.26622e-05
2.23022e-05
2.19365e-05
2.15604e-05
2.11721e-05
2.07617e-05
2.03312e-05
1.98698e-05
1.9382e-05
1.88585e-05
1.83101e-05
1.77355e-05
1.71579e-05
1.6591e-05
1.60856e-05
1.57358e-05
1.54823e-05
1.55281e-05
1.5993e-05
1.62776e-05
6.95862e-05
6.74538e-05
6.65851e-05
6.49539e-05
6.40405e-05
6.24915e-05
6.15784e-05
6.0091e-05
5.91855e-05
5.77619e-05
5.68708e-05
5.55133e-05
5.46448e-05
5.33559e-05
5.25152e-05
5.1298e-05
5.04917e-05
4.93478e-05
4.85795e-05
4.75124e-05
4.67808e-05
4.57917e-05
4.5104e-05
4.41924e-05
4.35535e-05
4.27262e-05
4.21505e-05
4.14108e-05
4.0896e-05
4.02423e-05
3.97846e-05
3.92133e-05
3.88102e-05
3.83136e-05
3.79606e-05
3.75311e-05
3.72238e-05
3.68569e-05
3.65896e-05
3.62789e-05
3.60453e-05
3.57835e-05
3.55801e-05
3.53593e-05
3.51827e-05
3.49968e-05
3.48432e-05
3.46875e-05
3.45444e-05
3.44155e-05
3.43166e-05
3.42049e-05
3.41163e-05
3.40047e-05
3.39501e-05
3.38629e-05
3.38246e-05
3.37606e-05
3.37404e-05
3.36997e-05
3.36982e-05
3.36801e-05
3.3697e-05
3.37007e-05
3.37342e-05
3.37576e-05
3.38071e-05
3.38501e-05
3.39143e-05
3.39759e-05
3.40546e-05
3.41335e-05
3.42291e-05
3.43266e-05
3.44387e-05
3.45538e-05
3.4681e-05
3.48097e-05
3.49461e-05
3.50812e-05
3.52192e-05
3.5352e-05
3.54814e-05
3.55991e-05
3.57067e-05
3.57955e-05
3.58634e-05
3.58898e-05
3.58724e-05
3.57959e-05
3.56565e-05
3.54446e-05
3.51631e-05
3.48161e-05
3.44232e-05
3.40393e-05
3.37918e-05
3.38959e-05
3.42592e-05
3.38419e-05
5.31646e-05
5.13251e-05
5.05939e-05
4.92159e-05
4.85568e-05
4.72527e-05
4.66617e-05
4.54388e-05
4.49118e-05
4.37772e-05
4.33115e-05
4.22704e-05
4.18624e-05
4.0918e-05
4.05641e-05
3.97177e-05
3.94136e-05
3.86649e-05
3.84058e-05
3.77524e-05
3.75334e-05
3.69733e-05
3.67889e-05
3.63192e-05
3.61647e-05
3.5781e-05
3.56515e-05
3.53464e-05
3.5236e-05
3.50024e-05
3.49065e-05
3.47312e-05
3.46479e-05
3.45422e-05
3.44758e-05
3.44075e-05
3.43486e-05
3.43214e-05
3.42935e-05
3.4289e-05
3.42888e-05
3.43067e-05
3.43309e-05
3.43702e-05
3.44166e-05
3.44764e-05
3.45433e-05
3.46231e-05
3.47092e-05
3.48089e-05
3.49135e-05
3.5031e-05
3.51537e-05
3.5289e-05
3.54315e-05
3.55838e-05
3.57456e-05
3.59161e-05
3.60979e-05
3.62867e-05
3.64887e-05
3.66964e-05
3.69187e-05
3.71464e-05
3.73903e-05
3.76393e-05
3.79049e-05
3.8177e-05
3.84657e-05
3.87625e-05
3.90754e-05
3.93981e-05
3.97376e-05
4.00883e-05
4.04562e-05
4.08371e-05
4.12363e-05
4.1652e-05
4.20857e-05
4.25378e-05
4.30094e-05
4.35011e-05
4.40138e-05
4.45482e-05
4.5105e-05
4.56846e-05
4.62875e-05
4.69242e-05
4.75937e-05
4.83092e-05
4.90711e-05
4.98899e-05
5.07689e-05
5.17175e-05
5.27394e-05
5.38351e-05
5.49744e-05
5.6055e-05
5.6645e-05
5.68217e-05
5.51694e-05
5.32715e-05
5.25139e-05
5.10842e-05
5.03868e-05
4.90292e-05
4.83877e-05
4.71113e-05
4.65232e-05
4.5334e-05
4.48024e-05
4.37018e-05
4.32281e-05
4.22163e-05
4.1801e-05
4.08788e-05
4.05195e-05
3.96862e-05
3.9382e-05
3.86341e-05
3.83811e-05
3.77168e-05
3.75104e-05
3.69253e-05
3.67607e-05
3.62573e-05
3.61284e-05
3.57045e-05
3.55962e-05
3.52482e-05
3.51555e-05
3.48804e-05
3.47993e-05
3.45906e-05
3.45164e-05
3.43631e-05
3.42899e-05
3.42118e-05
3.41444e-05
3.40795e-05
3.40369e-05
3.40044e-05
3.39857e-05
3.39757e-05
3.39785e-05
3.39898e-05
3.40125e-05
3.40445e-05
3.40862e-05
3.41382e-05
3.41985e-05
3.42697e-05
3.43485e-05
3.4439e-05
3.4536e-05
3.4644e-05
3.47597e-05
3.48842e-05
3.50172e-05
3.51572e-05
3.53067e-05
3.54636e-05
3.5629e-05
3.58018e-05
3.59825e-05
3.61704e-05
3.6366e-05
3.65679e-05
3.67771e-05
3.69924e-05
3.72153e-05
3.74441e-05
3.76791e-05
3.79195e-05
3.81657e-05
3.84168e-05
3.86731e-05
3.89342e-05
3.92001e-05
3.9471e-05
3.97475e-05
4.003e-05
4.03197e-05
4.06181e-05
4.09269e-05
4.12495e-05
4.15893e-05
4.19512e-05
4.23397e-05
4.27534e-05
4.31998e-05
4.36936e-05
4.42402e-05
4.48578e-05
4.55621e-05
4.63855e-05
4.73572e-05
4.84873e-05
4.95353e-05
5.00121e-05
7.55393e-05
7.33888e-05
7.25087e-05
7.0852e-05
6.99192e-05
6.83497e-05
6.73681e-05
6.58812e-05
6.48605e-05
6.3414e-05
6.23982e-05
6.09961e-05
5.99855e-05
5.8631e-05
5.76323e-05
5.63307e-05
5.53511e-05
5.41047e-05
5.31528e-05
5.19644e-05
5.10455e-05
4.99189e-05
4.90395e-05
4.79771e-05
4.71415e-05
4.61467e-05
4.53525e-05
4.4427e-05
4.3678e-05
4.28215e-05
4.21219e-05
4.13408e-05
4.07044e-05
4.00012e-05
3.9426e-05
3.87966e-05
3.82777e-05
3.77186e-05
3.72501e-05
3.67556e-05
3.63336e-05
3.58977e-05
3.55184e-05
3.51333e-05
3.47907e-05
3.44491e-05
3.41376e-05
3.38331e-05
3.35485e-05
3.32745e-05
3.30143e-05
3.27656e-05
3.25185e-05
3.22916e-05
3.20848e-05
3.18666e-05
3.16741e-05
3.14784e-05
3.13148e-05
3.11364e-05
3.09669e-05
3.08205e-05
3.06656e-05
3.05309e-05
3.03891e-05
3.02625e-05
3.0131e-05
3.00064e-05
2.98746e-05
2.97429e-05
2.96021e-05
2.94561e-05
2.92988e-05
2.9132e-05
2.8951e-05
2.8756e-05
2.85438e-05
2.83135e-05
2.8064e-05
2.77941e-05
2.7505e-05
2.71928e-05
2.68637e-05
2.65244e-05
2.61727e-05
2.58036e-05
2.54363e-05
2.50639e-05
2.47042e-05
2.43553e-05
2.40287e-05
2.37146e-05
2.34406e-05
2.32198e-05
2.3065e-05
2.30279e-05
2.3178e-05
2.35969e-05
2.43974e-05
2.51597e-05
8.90587e-05
8.76248e-05
8.71149e-05
8.61657e-05
8.5439e-05
8.44279e-05
8.36104e-05
8.25902e-05
8.17344e-05
8.07285e-05
7.98594e-05
7.88729e-05
7.79979e-05
7.70317e-05
7.61523e-05
7.52029e-05
7.43211e-05
7.33835e-05
7.24985e-05
7.15688e-05
7.06779e-05
6.97513e-05
6.8852e-05
6.79199e-05
6.70125e-05
6.60661e-05
6.51527e-05
6.41963e-05
6.32558e-05
6.22837e-05
6.11266e-05
5.96675e-05
5.82464e-05
5.68311e-05
5.5453e-05
5.40876e-05
5.27583e-05
5.14461e-05
5.01706e-05
4.89175e-05
4.77009e-05
4.65087e-05
4.53519e-05
4.4223e-05
4.31229e-05
4.20522e-05
4.10052e-05
3.99912e-05
3.89981e-05
3.80385e-05
3.7099e-05
3.61923e-05
3.53049e-05
3.44496e-05
3.36124e-05
3.28064e-05
3.20172e-05
3.12612e-05
3.05168e-05
2.98033e-05
2.90979e-05
2.84181e-05
2.77422e-05
2.70872e-05
2.6433e-05
2.57937e-05
2.51527e-05
2.45315e-05
2.3916e-05
2.33184e-05
2.27231e-05
2.21478e-05
2.15855e-05
2.10215e-05
2.04787e-05
1.99337e-05
1.9411e-05
1.88839e-05
1.83806e-05
1.78711e-05
1.73894e-05
1.69039e-05
1.64442e-05
1.59808e-05
1.55415e-05
1.51038e-05
1.4695e-05
1.42974e-05
1.3932e-05
1.35815e-05
1.32637e-05
1.29727e-05
1.27026e-05
1.24913e-05
1.23332e-05
1.22028e-05
1.23022e-05
1.25458e-05
1.31135e-05
1.3394e-05
0.000104656
0.000103524
0.000103016
0.00010217
0.000101318
0.000100291
9.93045e-05
9.81981e-05
9.71481e-05
9.60102e-05
9.49306e-05
9.37763e-05
9.26743e-05
9.15119e-05
9.03916e-05
8.92222e-05
8.80885e-05
8.69144e-05
8.57704e-05
8.45961e-05
8.34445e-05
8.22715e-05
8.11175e-05
7.99488e-05
7.87954e-05
7.76338e-05
7.64862e-05
7.53358e-05
7.41972e-05
7.30629e-05
7.19386e-05
7.08131e-05
6.96968e-05
6.85853e-05
6.74793e-05
6.63778e-05
6.52823e-05
6.41962e-05
6.31148e-05
6.20407e-05
6.09697e-05
5.99038e-05
5.88361e-05
5.77711e-05
5.67151e-05
5.56536e-05
5.45944e-05
5.35315e-05
5.24676e-05
5.13983e-05
5.0325e-05
4.92446e-05
4.81573e-05
4.70611e-05
4.5956e-05
4.48409e-05
4.33198e-05
4.18145e-05
4.0322e-05
3.89012e-05
3.74993e-05
3.61564e-05
3.48345e-05
3.35673e-05
3.23275e-05
3.11384e-05
2.99807e-05
2.88639e-05
2.77768e-05
2.67263e-05
2.57083e-05
2.4725e-05
2.3776e-05
2.28564e-05
2.1976e-05
2.11128e-05
2.02963e-05
1.94954e-05
1.87435e-05
1.79923e-05
1.72855e-05
1.65788e-05
1.59296e-05
1.52893e-05
1.46908e-05
1.40836e-05
1.35098e-05
1.29577e-05
1.24651e-05
1.1995e-05
1.15442e-05
1.10972e-05
1.07145e-05
1.03878e-05
1.00877e-05
9.85835e-06
9.75407e-06
9.68635e-06
1.00789e-05
1.03724e-05
0.000121601
0.000120905
0.000120472
0.000119854
0.000118972
0.000118051
0.00011702
0.000115967
0.000114872
0.000113751
0.00011262
0.000111457
0.000110296
0.000109103
0.000107917
0.000106699
0.00010549
0.000104253
0.000103012
0.00010177
0.00010052
9.92585e-05
9.79974e-05
9.67261e-05
9.54579e-05
9.41797e-05
9.28985e-05
9.1607e-05
9.03105e-05
8.90069e-05
8.76967e-05
8.63748e-05
8.50448e-05
8.37038e-05
8.2352e-05
8.09899e-05
7.96203e-05
7.82485e-05
7.68709e-05
7.5492e-05
7.41107e-05
7.27302e-05
7.13498e-05
6.9974e-05
6.86011e-05
6.72364e-05
6.58775e-05
6.453e-05
6.31915e-05
6.18675e-05
6.05552e-05
5.926e-05
5.79786e-05
5.67149e-05
5.54656e-05
5.42369e-05
5.30191e-05
5.18126e-05
5.06157e-05
4.94281e-05
4.82556e-05
4.70914e-05
4.59406e-05
4.47979e-05
4.36628e-05
4.25315e-05
4.14028e-05
4.02739e-05
3.91427e-05
3.80067e-05
3.68646e-05
3.57163e-05
3.45268e-05
3.28652e-05
3.13139e-05
2.97826e-05
2.83473e-05
2.6924e-05
2.55974e-05
2.42902e-05
2.30518e-05
2.18047e-05
2.0613e-05
1.9463e-05
1.84191e-05
1.74068e-05
1.63775e-05
1.52863e-05
1.42625e-05
1.34867e-05
1.28592e-05
1.19363e-05
1.08009e-05
1.01849e-05
9.71355e-06
9.09081e-06
8.69909e-06
8.58049e-06
8.60362e-06
8.86037e-06
0.000134701
0.000134604
0.000134316
0.000134029
0.000133297
0.000132639
0.000131769
0.00013095
0.000130023
0.000129114
0.00012815
0.000127182
0.000126183
0.000125168
0.000124134
0.000123077
0.000122008
0.000120912
0.000119804
0.000118673
0.000117527
0.000116358
0.000115175
0.000113969
0.000112756
0.000111524
0.000110275
0.00010901
0.000107727
0.000106431
0.000105116
0.000103785
0.000102435
0.000101069
9.96873e-05
9.82878e-05
9.68684e-05
9.54441e-05
9.40042e-05
9.25431e-05
9.10704e-05
8.95819e-05
8.80791e-05
8.65634e-05
8.50327e-05
8.34909e-05
8.1935e-05
8.03699e-05
7.87923e-05
7.72081e-05
7.56142e-05
7.40172e-05
7.24155e-05
7.08135e-05
6.92109e-05
6.76109e-05
6.60054e-05
6.44018e-05
6.27967e-05
6.11963e-05
5.95992e-05
5.8015e-05
5.6442e-05
5.48884e-05
5.33504e-05
5.18362e-05
5.03424e-05
4.88775e-05
4.74372e-05
4.60267e-05
4.46409e-05
4.32839e-05
4.19538e-05
4.06467e-05
3.93498e-05
3.80705e-05
3.68123e-05
3.55505e-05
3.4301e-05
3.30375e-05
3.17777e-05
3.05113e-05
2.92346e-05
2.79001e-05
2.65063e-05
2.50976e-05
2.37417e-05
2.22563e-05
2.01253e-05
1.75956e-05
1.65603e-05
1.59258e-05
1.39588e-05
1.14877e-05
1.04683e-05
9.90034e-06
8.45134e-06
7.82646e-06
7.66385e-06
7.79111e-06
0.000133383
0.000133038
0.000132898
0.000132568
0.00013241
0.000132059
0.000131863
0.000131493
0.000131255
0.000130866
0.000130583
0.000130177
0.000129851
0.000129424
0.000129056
0.000128607
0.000128197
0.000127719
0.000127265
0.000126754
0.000126253
0.000125701
0.000125146
0.000124544
0.000123658
0.000122678
0.00012167
0.000120648
0.000119603
0.000118544
0.000117464
0.000116371
0.000115259
0.000114131
0.00011298
0.000111811
0.00011062
0.000109409
0.000108174
0.000106918
0.000105638
0.000104336
0.000103009
0.000101659
0.000100282
9.88819e-05
9.74537e-05
9.60012e-05
9.45201e-05
9.30144e-05
9.1481e-05
8.99181e-05
8.83282e-05
8.67258e-05
8.50982e-05
8.34494e-05
8.17727e-05
8.00801e-05
7.8361e-05
7.66275e-05
7.48675e-05
7.3092e-05
7.12865e-05
6.94645e-05
6.76166e-05
6.57531e-05
6.38661e-05
6.1965e-05
6.00484e-05
5.81218e-05
5.61879e-05
5.42522e-05
5.23199e-05
5.03943e-05
4.8482e-05
4.6588e-05
4.47179e-05
4.28777e-05
4.10716e-05
3.93026e-05
3.75709e-05
3.58797e-05
3.42298e-05
3.26154e-05
3.10206e-05
2.94163e-05
2.78415e-05
2.6291e-05
2.4686e-05
2.3033e-05
2.13005e-05
1.9512e-05
1.75893e-05
1.56009e-05
1.35419e-05
1.15057e-05
9.66794e-06
8.43262e-06
7.54082e-06
7.06271e-06
0.000111722
0.000111885
0.000111946
0.000111975
0.000112011
0.000112
0.000112018
0.000111982
0.000111982
0.000111925
0.000111904
0.000111829
0.000111786
0.000111694
0.000111626
0.000111515
0.000111421
0.00011129
0.000111167
0.000111012
0.00011086
0.000110679
0.000110495
0.000110286
0.000110074
0.000109845
0.000109609
0.000109359
0.0001091
0.000108828
0.000108545
0.000108249
0.00010794
0.000107618
0.000107285
0.000106933
0.000106567
0.000106181
0.000105778
0.000105353
0.000104908
0.000104439
0.000103945
0.000103422
0.000102868
0.000102292
0.000101687
0.000101056
0.000100394
9.97023e-05
9.89658e-05
9.81867e-05
9.73539e-05
9.64616e-05
9.50729e-05
9.36645e-05
9.21938e-05
9.06991e-05
8.91551e-05
8.75867e-05
8.59788e-05
8.43557e-05
8.27055e-05
8.10193e-05
7.92842e-05
7.75213e-05
7.57356e-05
7.38906e-05
7.20251e-05
7.01124e-05
6.81724e-05
6.61913e-05
6.41749e-05
6.21129e-05
6.00109e-05
5.78596e-05
5.56618e-05
5.34094e-05
5.11056e-05
4.87457e-05
4.63343e-05
4.3872e-05
4.13684e-05
3.88325e-05
3.628e-05
3.3726e-05
3.1194e-05
2.87098e-05
2.62973e-05
2.3968e-05
2.16806e-05
1.94486e-05
1.7263e-05
1.50609e-05
1.29481e-05
1.09577e-05
9.12335e-06
7.61465e-06
6.75497e-06
7.95124e-06
7.26496e-05
7.29875e-05
7.30818e-05
7.32707e-05
7.336e-05
7.35145e-05
7.36102e-05
7.3743e-05
7.38448e-05
7.39637e-05
7.40684e-05
7.41778e-05
7.42819e-05
7.43846e-05
7.44853e-05
7.45822e-05
7.46779e-05
7.47686e-05
7.48585e-05
7.49422e-05
7.50254e-05
7.51024e-05
7.51789e-05
7.52499e-05
7.53211e-05
7.53879e-05
7.54535e-05
7.55156e-05
7.5575e-05
7.56308e-05
7.56828e-05
7.57304e-05
7.57735e-05
7.58107e-05
7.5843e-05
7.58708e-05
7.58935e-05
7.59108e-05
7.59225e-05
7.59281e-05
7.59275e-05
7.59201e-05
7.59061e-05
7.58853e-05
7.58582e-05
7.58206e-05
7.5772e-05
7.57103e-05
7.56331e-05
7.55383e-05
7.54222e-05
7.52845e-05
7.51211e-05
7.49326e-05
7.47196e-05
7.44962e-05
7.42418e-05
7.39707e-05
7.36616e-05
7.33213e-05
7.29274e-05
7.22245e-05
7.14715e-05
7.06649e-05
6.98193e-05
6.89287e-05
6.79912e-05
6.70001e-05
6.59606e-05
6.48591e-05
6.36914e-05
6.24515e-05
6.11581e-05
5.97653e-05
5.82942e-05
5.67232e-05
5.50607e-05
5.32913e-05
5.14212e-05
4.94412e-05
4.73577e-05
4.51677e-05
4.28794e-05
4.04962e-05
3.80313e-05
3.54795e-05
3.28513e-05
3.01375e-05
2.7343e-05
2.44415e-05
2.14697e-05
1.84748e-05
1.55701e-05
1.27831e-05
1.03154e-05
8.17067e-06
6.50654e-06
5.3123e-06
4.60782e-06
5.05862e-06
6.80912e-06
6.82403e-06
6.83394e-06
6.84476e-06
6.85691e-06
6.87025e-06
6.88196e-06
6.89663e-06
6.90885e-06
6.92384e-06
6.93691e-06
6.95219e-06
6.96596e-06
6.98169e-06
6.99612e-06
7.01237e-06
7.02752e-06
7.04435e-06
7.0603e-06
7.07779e-06
7.09464e-06
7.11293e-06
7.1308e-06
7.15009e-06
7.16907e-06
7.18946e-06
7.20965e-06
7.23125e-06
7.25274e-06
7.27564e-06
7.29856e-06
7.32287e-06
7.34738e-06
7.37327e-06
7.39954e-06
7.42722e-06
7.45541e-06
7.48506e-06
7.51539e-06
7.5472e-06
7.57986e-06
7.61402e-06
7.6492e-06
7.68584e-06
7.72357e-06
7.76258e-06
7.80275e-06
7.84415e-06
7.88671e-06
7.93053e-06
7.97562e-06
8.02215e-06
8.0702e-06
8.12006e-06
8.17184e-06
8.2255e-06
8.28018e-06
8.33629e-06
8.39229e-06
8.44855e-06
8.50313e-06
8.55629e-06
8.61389e-06
8.67255e-06
8.73566e-06
8.80129e-06
8.87105e-06
8.94468e-06
9.02279e-06
9.10517e-06
9.19231e-06
9.28511e-06
9.38416e-06
9.48675e-06
9.59736e-06
9.71221e-06
9.83564e-06
9.96456e-06
1.01027e-05
1.02481e-05
1.04038e-05
1.05688e-05
1.07454e-05
1.09323e-05
1.11284e-05
1.1322e-05
1.14971e-05
1.16031e-05
1.1547e-05
1.12009e-05
1.01841e-05
8.74014e-06
6.79617e-06
4.68602e-06
3.10394e-06
2.16853e-06
2.12712e-06
3.29932e-06
3.23808e-06
3.43363e-06
8.649e-06
9.05461e-07
1.13673e-06
1.61005e-06
2.11514e-06
2.42295e-06
2.73178e-06
3.10708e-06
3.49485e-06
3.85356e-06
4.09634e-06
4.18219e-06
4.32835e-06
4.77053e-06
6.23919e-06
8.82114e-06
1.15673e-05
1.11131e-05
9.00041e-06
3.8072e-06
3.91688e-06
1.11401e-06
1.18078e-06
1.50951e-06
1.80197e-06
2.05177e-06
2.38604e-06
2.77798e-06
3.16393e-06
3.52587e-06
3.73545e-06
4.01229e-06
4.44326e-06
5.59095e-06
7.75438e-06
1.06141e-05
1.2146e-05
1.07056e-05
8.82831e-06
3.84005e-06
3.46792e-06
1.59521e-06
1.66251e-06
1.70143e-06
1.81609e-06
2.04647e-06
2.37244e-06
2.70107e-06
3.09186e-06
3.52659e-06
3.83341e-06
4.3286e-06
5.33531e-06
7.16419e-06
9.86458e-06
1.20699e-05
1.21397e-05
1.0513e-05
8.67447e-06
3.82712e-06
3.87886e-06
2.26564e-06
2.30179e-06
2.08719e-06
2.20875e-06
2.35098e-06
2.62426e-06
3.0204e-06
3.56993e-06
4.3004e-06
4.71028e-06
5.86393e-06
7.43098e-06
1.00243e-05
1.18034e-05
1.28902e-05
1.19063e-05
1.04786e-05
8.35796e-06
3.40898e-06
4.53824e-06
3.12967e-06
3.12375e-06
2.78788e-06
3.05213e-06
3.05516e-06
3.4393e-06
4.01246e-06
4.89815e-06
6.10078e-06
7.52459e-06
9.09157e-06
1.14054e-05
1.26665e-05
1.37622e-05
1.30882e-05
1.17342e-05
1.0555e-05
7.73549e-06
2.68447e-06
5.45606e-06
4.33347e-06
4.29402e-06
3.88517e-06
4.25104e-06
4.55417e-06
5.33213e-06
6.56439e-06
8.86425e-06
1.14226e-05
1.31913e-05
1.38085e-05
1.44669e-05
1.47267e-05
1.39875e-05
1.28443e-05
1.19341e-05
1.05561e-05
6.71216e-06
1.96795e-06
7.05414e-06
6.3422e-06
6.36032e-06
6.3331e-06
7.24568e-06
8.73098e-06
1.10112e-05
1.46839e-05
1.75041e-05
1.67425e-05
1.68272e-05
1.64147e-05
1.59546e-05
1.52078e-05
1.43652e-05
1.34589e-05
1.2197e-05
1.02994e-05
5.37252e-06
1.30666e-06
1.13042e-05
1.1978e-05
1.27712e-05
1.46985e-05
1.76542e-05
2.15907e-05
2.20859e-05
2.16212e-05
2.07924e-05
1.99487e-05
1.93812e-05
1.84119e-05
1.77398e-05
1.66761e-05
1.56098e-05
1.38087e-05
1.24819e-05
9.35522e-06
4.11176e-06
7.77354e-07
2.75776e-05
3.04039e-05
3.18863e-05
3.44347e-05
3.32147e-05
3.16338e-05
2.9979e-05
2.84641e-05
2.68621e-05
2.54741e-05
2.39056e-05
2.23812e-05
2.06776e-05
1.875e-05
1.63081e-05
1.36983e-05
1.10502e-05
7.9429e-06
3.46191e-06
4.40856e-07
4.84374e-05
5.1186e-05
4.85449e-05
4.5784e-05
4.34581e-05
4.06777e-05
3.86316e-05
3.59032e-05
3.40272e-05
3.11832e-05
2.92669e-05
2.60263e-05
2.38061e-05
1.96148e-05
1.47781e-05
1.04237e-05
8.16902e-06
6.20601e-06
2.68433e-06
2.57178e-07
4.43289e-05
4.64312e-05
4.47045e-05
4.19399e-05
4.04392e-05
3.76811e-05
3.62769e-05
3.37271e-05
3.23936e-05
2.99068e-05
2.84051e-05
2.56966e-05
2.36629e-05
2.0463e-05
1.64666e-05
1.1993e-05
9.05932e-06
6.52656e-06
2.52246e-06
2.24577e-07
2.04715e-05
2.31138e-05
2.46649e-05
2.77879e-05
2.79759e-05
2.76274e-05
2.64525e-05
2.57131e-05
2.45919e-05
2.38987e-05
2.28084e-05
2.20232e-05
2.05438e-05
1.95136e-05
1.69753e-05
1.53574e-05
1.23562e-05
8.57617e-06
3.1818e-06
3.44807e-07
9.58549e-06
9.59279e-06
9.93429e-06
1.09935e-05
1.31507e-05
1.63861e-05
2.03078e-05
2.00986e-05
2.00589e-05
1.93745e-05
1.91422e-05
1.85101e-05
1.78177e-05
1.7229e-05
1.63243e-05
1.47729e-05
1.35402e-05
1.05134e-05
4.23857e-06
7.05994e-07
6.65051e-06
5.84488e-06
5.78739e-06
5.56122e-06
6.20278e-06
7.16732e-06
8.86986e-06
1.1692e-05
1.63941e-05
1.64177e-05
1.62786e-05
1.68911e-05
1.65554e-05
1.59558e-05
1.49958e-05
1.43689e-05
1.31169e-05
1.14148e-05
5.85671e-06
1.32249e-06
5.24847e-06
4.11209e-06
4.0592e-06
3.66498e-06
3.99727e-06
4.20469e-06
4.8453e-06
5.86164e-06
7.55506e-06
9.84649e-06
1.20449e-05
1.35026e-05
1.45583e-05
1.54806e-05
1.48655e-05
1.35527e-05
1.27641e-05
1.14794e-05
7.48738e-06
2.08896e-06
4.36351e-06
2.98896e-06
2.97766e-06
2.67788e-06
2.92358e-06
2.93857e-06
3.30012e-06
3.84351e-06
4.65934e-06
5.5473e-06
6.82704e-06
8.62215e-06
1.12043e-05
1.28714e-05
1.46185e-05
1.40353e-05
1.25159e-05
1.13685e-05
8.45397e-06
2.87636e-06
3.77762e-06
2.15674e-06
2.19092e-06
2.04465e-06
2.18146e-06
2.3227e-06
2.57824e-06
2.96292e-06
3.4875e-06
4.1868e-06
4.51569e-06
5.57559e-06
7.34129e-06
1.02018e-05
1.22422e-05
1.37362e-05
1.27521e-05
1.12134e-05
9.0589e-06
3.65849e-06
3.61744e-06
1.54201e-06
1.56632e-06
1.67977e-06
1.84772e-06
2.10457e-06
2.41176e-06
2.72367e-06
3.09551e-06
3.50102e-06
3.8038e-06
4.25715e-06
5.24403e-06
7.24441e-06
1.03021e-05
1.28281e-05
1.29981e-05
1.12013e-05
9.15594e-06
4.01775e-06
4.39317e-06
1.13796e-06
1.17604e-06
1.46526e-06
1.8451e-06
2.14775e-06
2.50194e-06
2.85383e-06
3.21942e-06
3.55528e-06
3.77198e-06
4.04102e-06
4.47601e-06
5.63866e-06
8.04058e-06
1.12727e-05
1.30193e-05
1.14288e-05
9.33357e-06
4.03711e-06
9.16379e-06
9.74208e-07
1.21244e-06
1.6488e-06
2.10666e-06
2.5276e-06
2.89956e-06
3.25404e-06
3.6101e-06
3.90827e-06
4.12602e-06
4.24365e-06
4.40411e-06
4.85964e-06
6.38639e-06
9.22795e-06
1.23907e-05
1.18824e-05
9.52781e-06
4.00135e-06
1.23426e-06
0.000116562
0.000294187
0.000330906
0.00033481
0.000335356
0.000335357
0.000335342
0.000335343
0.000335345
0.000335345
0.000335343
0.000335342
0.000335357
0.000335356
0.00033481
0.000330906
0.000294187
0.000116562
1.23426e-06
1.36981e-06
6.81599e-05
0.000219564
0.000309492
0.000330907
0.000334527
0.000335273
0.000335315
0.000335296
0.000335287
0.000335287
0.000335296
0.000335315
0.000335273
0.000334527
0.000330907
0.000309492
0.000219564
6.81601e-05
1.36981e-06
1.5132e-06
5.29062e-05
0.000176485
0.000280599
0.000322154
0.000332505
0.000334604
0.000335101
0.000335168