/*--------------------------------*- C++ -*----------------------------------*\
| =========                 |                                                 |
| \\      /  F ield         | OpenFOAM: The Open Source CFD Toolbox           |
|  \\    /   O peration     | Version:  2.1.0                                 |
|   \\  /    A nd           | Web:      www.OpenFOAM.org                      |
|    \\/     M anipulation  |                                                 |
\*---------------------------------------------------------------------------*/
FoamFile
{
    version     2.0;
    format      ascii;
    class       volScalarField;
    location    "0.18";
    object      omega;
}
// * * * * * * * * * * * * * * * * * * * * * * * * * * * * * * * * * * * * * //

dimensions      [0 0 -1 0 0 0 0];

internalField   nonuniform List<scalar> 
6400
(
1567.46
1568.13
1568.14
1567.73
1567.11
1566.65
1565.77
1565.21
1564.26
1563.57
1562.57
1561.78
1560.74
1559.85
1558.75
1557.78
1556.63
1555.58
1554.39
1553.27
1552.04
1550.87
1549.6
1548.38
1547.06
1545.8
1544.44
1543.12
1541.71
1540.34
1538.88
1537.45
1535.93
1534.43
1532.85
1531.27
1529.61
1527.94
1526.17
1524.36
1522.42
1520.41
1518.26
1515.98
1513.53
1510.92
1508.09
1505.05
1501.76
1498.21
1494.34
1490.09
1485.4
1480.43
1475.25
1469.75
1464.05
1458.01
1451.75
1445.2
1438.39
1431.26
1423.82
1416.03
1407.93
1399.42
1390.4
1380.98
1370.95
1360.44
1349.28
1337.56
1325.16
1312.15
1298.46
1284.18
1269.3
1253.91
1238.05
1221.77
1204.99
1187.4
1168.28
1148.79
1128.16
1106.19
1082.31
1055.58
1024.88
988.283
943.154
884.735
806.179
699.578
561.019
485.036
518.356
661.317
776.865
811.772
666.758
666.623
667.402
668.06
669.021
670.052
671.089
672.314
673.441
674.783
676.013
677.447
678.784
680.304
681.75
683.355
684.91
686.606
688.273
690.067
691.853
693.761
695.677
697.715
699.781
701.966
704.193
706.541
708.946
711.477
714.082
716.822
719.659
722.645
725.726
728.958
732.305
735.809
739.445
743.246
747.19
751.311
755.595
760.073
764.732
769.597
774.663
779.949
785.456
791.204
797.167
803.363
809.788
816.498
823.521
830.846
838.515
846.521
854.914
863.695
872.908
882.569
892.725
903.408
914.593
926.205
938.238
950.953
964.255
978.269
992.99
1008.5
1024.84
1042.08
1060.29
1079.55
1099.95
1121.61
1144.66
1169.31
1195.24
1221.82
1249.67
1278.27
1307.31
1336.13
1364.04
1390.23
1413.91
1434.23
1449.3
1456.29
1457.64
1443.6
1406.34
1322.13
1200.12
1052.56
893.386
736.581
490.061
492.655
493.91
496.502
498.249
500.916
502.981
505.72
508.032
510.859
513.393
516.327
519.07
522.131
525.077
528.283
531.43
534.796
538.145
541.686
545.241
548.973
552.738
556.667
560.654
564.797
569.017
573.391
577.859
582.479
587.206
592.087
597.083
602.234
607.549
613.043
618.715
624.591
630.668
636.978
643.471
650.188
657.101
664.27
671.679
679.355
687.295
695.514
704.009
712.788
721.864
731.244
740.94
750.973
761.36
772.109
783.236
794.75
806.669
818.996
831.744
844.914
858.511
872.525
886.981
901.9
917.295
932.93
948.887
965.041
981.395
997.866
1014.43
1031.03
1047.65
1064.27
1080.87
1097.47
1114.09
1130.74
1147.43
1164.21
1181.12
1198.09
1214.99
1231.76
1247.98
1263.28
1276.82
1286.8
1291.37
1292.28
1279.86
1252.74
1201.65
1120.87
1007.69
863.936
704.726
555.229
448.202
452.644
454.616
458.552
461.081
465.011
467.944
471.903
475.174
479.207
482.777
486.924
490.771
495.067
499.183
503.656
508.036
512.712
517.357
522.254
527.164
532.293
537.468
542.842
548.286
553.918
559.642
565.547
571.561
577.754
584.073
590.571
597.209
604.029
610.987
618.121
625.399
632.847
640.438
648.188
656.12
664.233
672.536
680.984
689.586
698.328
707.206
716.212
725.334
734.566
743.902
753.329
762.841
772.433
782.099
791.828
801.611
811.437
821.294
831.17
841.051
850.92
860.76
870.545
880.284
889.975
899.589
909.109
918.516
927.782
936.896
945.806
954.464
962.847
970.861
978.468
985.541
992.011
997.726
1002.58
1006.38
1008.62
1009.57
1009.66
1006.78
1002.38
994.815
984.706
970.897
953.544
931.406
903.927
869.835
828.45
777.121
714.145
642.182
565.347
496.668
455.294
444.519
450.081
452.502
457.342
460.404
465.204
468.723
473.514
477.399
482.223
486.417
491.312
495.775
500.769
505.476
510.59
515.52
520.766
525.903
531.29
536.619
542.151
547.662
553.34
559.019
564.838
570.673
576.627
582.605
588.683
594.791
600.983
607.201
613.486
619.789
626.146
632.512
638.914
645.316
651.737
658.146
664.551
670.922
677.28
683.597
689.882
696.113
702.295
708.41
714.463
720.442
726.345
732.157
737.869
743.465
748.936
754.269
759.456
764.47
769.276
773.858
778.172
782.205
785.906
789.259
792.212
794.741
796.794
798.339
799.154
799.478
799.479
798.24
796.565
793.719
790.179
785.46
779.846
772.999
765.09
755.94
745.748
734.303
721.748
707.907
693.053
677.092
660.349
642.566
624.005
604.462
584.072
562.09
538.183
511.78
483.723
454.484
428.584
412.725
405.23
443.329
448.775
451.119
455.809
458.717
463.324
466.606
471.131
474.683
479.148
482.903
487.333
491.244
495.654
499.684
504.086
508.204
512.6
516.785
521.176
525.407
529.792
534.057
538.434
542.719
547.081
551.363
555.695
559.952
564.229
568.447
572.692
576.867
581.038
585.122
589.177
593.129
597.023
600.802
604.492
608.042
611.483
614.76
617.903
620.862
623.657
626.247
628.644
630.813
632.758
634.448
635.883
637.034
637.895
638.35
638.531
638.54
638.03
637.338
636.138
634.659
632.668
630.33
627.474
624.22
620.442
616.229
611.489
606.288
600.563
594.38
587.677
580.497
572.903
564.866
556.505
547.774
538.814
529.584
520.262
510.823
501.426
492.035
482.818
473.786
465.112
456.644
448.4
440.272
432.379
424.767
417.25
409.511
401.54
393.541
385.753
379.273
376.245
375.4
375.091
423.228
427.508
429.324
432.961
435.136
438.686
441.074
444.513
447.03
450.355
452.949
456.164
458.792
461.898
464.527
467.524
470.125
473.003
475.554
478.3
480.779
483.379
485.749
488.191
490.424
492.671
494.696
496.702
498.483
500.21
501.748
503.25
504.534
505.732
506.688
507.518
508.088
508.433
508.572
508.588
508.211
507.698
506.835
505.792
504.416
502.827
500.92
498.779
496.33
493.636
490.648
487.411
483.896
480.137
476.144
471.944
467.524
462.877
458.068
453.07
447.965
442.72
437.423
432.04
426.653
421.234
415.897
410.6
405.451
400.404
395.562
390.882
386.442
382.256
378.336
374.694
371.327
368.245
365.446
362.94
360.733
358.791
357.128
355.703
354.536
353.547
352.738
352.026
351.443
350.902
350.449
350.011
349.769
349.674
350.102
351.722
353.672
357.98
360.215
360.536
383.538
386.36
387.509
389.778
390.993
393.127
394.32
396.272
397.384
399.125
400.114
401.625
402.457
403.718
404.362
405.327
405.796
406.415
406.699
406.911
406.971
406.939
406.592
406.225
405.513
404.769
403.662
402.517
401.011
399.458
397.535
395.506
393.125
390.635
387.818
384.896
381.681
378.38
374.831
371.206
367.369
363.486
359.437
355.371
351.192
347.031
342.813
338.652
334.496
330.434
326.438
322.579
318.829
315.274
311.86
308.702
305.731
303.048
300.579
298.428
296.508
294.926
293.584
292.581
291.82
291.433
291.266
291.248
291.686
292.233
293.156
294.207
295.588
297.106
298.905
300.836
303.005
305.299
307.79
310.387
313.14
315.974
318.93
321.943
325.035
328.14
331.269
334.377
337.465
340.5
343.503
346.482
349.506
352.649
356.035
360.14
364.946
370.655
373.884
374.793
323.816
324.367
324.511
324.602
324.588
324.423
324.031
323.629
322.858
322.174
321.03
320.035
318.527
317.206
315.345
313.692
311.496
309.513
307.008
304.705
301.932
299.332
296.314
293.469
290.252
287.23
283.915
280.797
277.446
274.297
270.974
267.862
264.637
261.643
258.607
255.808
253.026
250.478
248.003
245.768
243.649
241.778
240.058
238.592
237.304
236.272
235.438
234.859
234.554
234.434
234.432
234.865
235.353
236.209
237.143
238.404
239.763
241.416
243.179
245.208
247.354
249.747
252.261
255.004
257.878
260.97
264.191
267.621
271.194
274.962
278.887
283.002
287.281
291.749
296.394
301.23
306.257
311.498
316.933
322.586
328.444
334.52
340.801
347.291
353.979
360.865
367.927
375.135
382.453
389.85
397.277
404.706
412.107
419.49
426.885
434.51
442.828
452.546
462.194
467.311
240.518
238.031
236.964
234.778
233.488
231.239
229.77
227.481
225.872
223.572
221.868
219.586
217.833
215.602
213.845
211.701
209.985
207.963
206.332
204.469
202.963
201.291
199.952
198.502
197.364
196.164
195.255
194.325
193.665
193.023
192.626
192.325
192.194
192.153
192.262
192.539
192.921
193.47
194.125
194.94
195.857
196.93
198.102
199.425
200.844
202.408
204.068
205.866
207.758
209.782
211.902
214.155
216.499
218.976
221.539
224.238
227.024
229.946
232.96
236.113
239.363
242.755
246.252
249.897
253.654
257.566
261.603
265.803
270.142
274.655
279.324
284.183
289.218
294.458
299.897
305.563
311.452
317.58
323.97
330.63
337.585
344.845
352.439
360.381
368.701
377.419
386.57
396.198
406.345
417.078
428.453
440.557
453.469
467.306
482.175
498.185
515.261
532.753
547.126
553.585
255.862
254.004
253.182
251.467
250.373
248.543
247.201
245.245
243.689
241.609
239.862
237.691
235.792
233.559
231.551
229.294
227.225
224.982
222.906
220.721
218.691
216.609
214.679
212.744
210.966
209.225
207.643
206.137
204.794
203.555
202.486
201.543
200.77
200.14
199.681
199.403
199.279
199.251
199.457
199.79
200.314
200.955
201.776
202.718
203.827
205.056
206.442
207.948
209.6
211.372
213.28
215.307
217.463
219.735
222.134
224.655
227.289
230.049
232.918
235.918
239.026
242.271
245.626
249.124
252.738
256.502
260.39
264.436
268.616
272.962
277.448
282.108
286.929
291.937
297.121
302.507
308.086
313.884
319.896
326.145
332.633
339.379
346.391
353.689
361.287
369.21
377.474
386.115
395.154
404.621
414.558
425.093
436.247
448.183
461.005
474.955
490.203
506.6
521.102
527.843
335.64
336.924
337.393
338.206
338.585
339.142
339.385
339.609
339.667
339.671
339.311
339.03
338.3
337.701
336.603
335.66
334.196
332.896
331.067
329.406
327.22
325.201
322.674
320.312
317.472
314.786
311.675
308.695
305.357
302.145
298.633
295.27
291.698
288.287
284.727
281.347
277.879
274.607
271.317
268.233
265.198
262.376
259.658
257.173
254.833
252.745
250.838
249.197
247.764
246.603
245.67
245.009
244.649
244.5
244.486
244.91
245.406
246.278
247.236
248.527
249.912
251.593
253.368
255.408
257.542
259.909
262.367
265.029
267.777
270.716
273.744
276.941
280.22
283.649
287.15
290.785
294.484
298.298
302.167
306.133
310.144
314.235
318.338
322.493
326.654
330.859
335.078
339.354
343.668
348.078
352.561
357.124
361.893
366.886
372.342
378.482
385.769
394.462
403.092
407.715
389.132
392.355
393.68
396.298
397.742
400.237
401.72
404.047
405.535
407.706
409.173
411.179
412.575
414.398
415.682
417.302
418.438
419.833
420.785
421.932
422.667
423.54
424.024
424.562
424.814
424.937
424.958
424.736
424.339
423.754
422.938
421.937
420.669
419.22
417.491
415.586
413.393
410.972
408.264
405.341
402.146
398.771
395.154
391.383
387.409
383.295
379.036
374.668
370.211
365.689
361.138
356.576
352.046
347.564
343.178
338.897
334.782
330.906
327.225
323.806
320.608
317.704
315.057
312.723
310.67
308.932
307.479
306.33
305.455
304.853
304.557
304.444
304.459
304.866
305.283
306.007
306.737
307.696
308.644
309.743
310.808
311.971
313.178
314.496
315.844
317.29
318.778
320.398
322.099
323.96
325.925
328.125
330.474
333.007
335.9
339.375
343.694
348.811
351.51
351.92
423.81
428.241
430.122
433.881
436.142
439.813
442.309
445.87
448.528
452.008
454.797
458.207
461.08
464.426
467.349
470.628
473.57
476.781
479.715
482.85
485.751
488.799
491.644
494.591
497.359
500.182
502.851
505.527
508.062
510.571
512.941
515.24
517.37
519.399
521.247
522.964
524.501
525.966
527.222
528.344
529.234
529.941
530.358
530.547
530.587
530.256
529.7
528.808
527.66
526.169
524.395
522.273
519.85
517.074
513.986
510.546
506.789
502.682
498.294
493.635
488.741
483.589
478.238
472.692
467.019
461.223
455.375
449.481
443.608
437.764
432.037
426.434
421.042
415.861
410.998
406.364
402.035
397.908
394.098
390.497
387.133
383.911
380.82
377.873
375.052
372.265
369.376
366.38
363.385
360.507
357.541
354.238
350.99
348.112
345.403
343.899
343.349
345.205
347.077
347.194
438.88
444.185
446.468
451.036
453.884
458.384
461.615
466.054
469.571
473.976
477.716
482.112
486.029
490.433
494.492
498.912
503.086
507.531
511.798
516.269
520.608
525.103
529.499
534.015
538.457
542.991
547.469
552.014
556.514
561.06
565.568
570.104
574.6
579.108
583.572
588.026
592.432
596.843
601.191
605.512
609.753
613.937
618.022
622.024
625.905
629.665
633.285
636.754
640.058
643.181
646.113
648.835
651.335
653.594
655.599
657.33
658.775
659.851
660.529
660.832
660.902
660.511
659.827
658.697
657.202
655.229
652.84
649.958
646.625
642.784
638.462
633.624
628.289
622.441
616.09
609.267
601.976
594.299
586.233
577.852
569.213
560.279
550.912
541.016
530.815
520.7
510.618
499.722
487.306
474.664
463.305
450.727
435.285
420.188
405.891
391.689
378.287
370.123
366.19
363.301
437.219
442.416
444.678
449.191
452.06
456.545
459.847
464.328
467.974
472.488
476.427
481.017
485.217
489.914
494.355
499.184
503.851
508.82
513.696
518.815
523.89
529.166
534.433
539.87
545.319
550.919
556.547
562.306
568.105
574.021
579.985
586.054
592.174
598.388
604.653
611.002
617.401
623.873
630.389
636.965
643.577
650.237
656.923
663.643
670.378
677.133
683.887
690.641
697.372
704.074
710.752
717.394
723.994
730.547
737.044
743.489
749.865
756.164
762.373
768.478
774.455
780.3
785.994
791.501
796.8
801.852
806.631
811.1
815.231
818.987
822.338
825.238
827.65
829.515
830.561
831.011
831.065
829.86
828.061
825.001
821.025
815.7
809.168
801.024
791.268
779.483
765.888
750.141
731.788
710.106
685.621
658.57
627.69
592.584
554.438
514.446
473.884
436.604
410.603
395.554
440.418
444.45
446.245
449.822
452.122
455.687
458.358
461.954
464.935
468.606
471.859
475.632
479.135
483.039
486.779
490.837
494.811
499.051
503.262
507.705
512.16
516.822
521.529
526.423
531.383
536.52
541.741
547.133
552.627
558.291
564.074
570.03
576.121
582.393
588.814
595.411
602.165
609.101
616.201
623.486
630.94
638.579
646.389
654.379
662.531
670.89
679.442
688.208
697.186
706.402
715.766
725.326
735.036
744.918
754.937
765.108
775.398
785.812
796.327
806.947
817.654
828.453
839.332
850.289
861.308
872.381
883.487
894.609
905.717
916.794
927.909
938.995
950.087
961.138
972.141
983.073
993.876
1004.47
1014.82
1024.77
1034.26
1043.03
1050.93
1057.71
1063.18
1065.91
1066.84
1064.9
1057.95
1047.76
1029.96
1003.4
967.318
921.332
861.108
785.441
697.632
602.657
518.11
457.492
482.362
484.589
485.681
487.962
489.499
491.864
493.686
496.12
498.168
500.683
502.931
505.543
507.979
510.704
513.323
516.176
518.976
521.975
524.956
528.113
531.28
534.606
537.964
541.472
545.031
548.727
552.492
556.392
560.374
564.493
568.703
573.052
577.5
582.084
586.777
591.645
596.65
601.836
607.182
612.723
618.449
624.391
630.547
636.949
643.605
650.501
657.649
665.056
672.724
680.653
688.907
697.474
706.379
715.622
725.214
735.182
745.523
756.265
767.417
779.006
791.048
803.572
816.613
830.175
844.291
858.965
874.222
890.069
906.528
923.631
941.298
959.382
977.969
996.947
1016.3
1035.96
1055.89
1076.03
1096.38
1116.89
1137.58
1158.41
1179.36
1200.48
1221.82
1243.27
1264.7
1285.56
1305.1
1322.27
1332.06
1335.55
1327.01
1294.25
1239.11
1158.64
1049.77
914.346
751.691
584.861
658.082
657.792
658.242
658.776
659.463
660.307
661.1
662.113
663.005
664.121
665.118
666.316
667.418
668.695
669.9
671.257
672.564
674.005
675.412
676.941
678.452
680.074
681.692
683.418
685.156
686.998
688.872
690.851
692.874
695.006
697.195
699.5
701.878
704.385
706.983
709.701
712.518
715.467
718.527
721.732
725.065
728.554
732.187
735.989
739.95
744.087
748.401
752.905
757.608
762.521
767.661
773.033
778.654
784.538
790.708
797.145
803.888
810.942
818.322
826.047
834.118
842.554
851.487
860.853
870.747
881.151
892.133
903.708
915.925
928.757
942.178
956.428
971.466
987.392
1004.26
1022.12
1041.08
1061.19
1082.56
1105.27
1129.43
1155.13
1182.49
1211.66
1241.92
1273.03
1303.94
1333.14
1358.51
1374.99
1381.76
1382.36
1370.93
1352.23
1318.98
1262.27
1174.43
1058.23
924.929
771.731
1555.48
1556.01
1555.88
1555.29
1554.64
1553.97
1553.02
1552.3
1551.24
1550.41
1549.32
1548.4
1547.26
1546.26
1545.07
1544.01
1542.76
1541.63
1540.35
1539.15
1537.82
1536.58
1535.22
1533.93
1532.54
1531.22
1529.8
1528.44
1526.99
1525.6
1524.13
1522.7
1521.19
1519.73
1518.2
1516.7
1515.14
1513.61
1512.02
1510.45
1508.82
1507.2
1505.54
1503.85
1502.11
1500.31
1498.45
1496.5
1494.47
1492.33
1490.08
1487.73
1485.25
1482.66
1479.96
1477.13
1474.08
1470.82
1467.21
1463.24
1458.74
1453.72
1448.61
1443.13
1437.5
1431.53
1425.3
1418.74
1411.83
1404.49
1396.68
1388.38
1379.55
1369.89
1359.61
1348.32
1336.19
1322.89
1308.49
1292.73
1275.61
1256.9
1236.54
1214.27
1189.87
1162.64
1131.85
1095.53
1050.69
994.129
919.191
824.783
723.159
619.775
539.849
493.971
515.759
665.498
800.521
841.929
759.45
302.461
168.725
114.698
90.1282
70.8702
57.2799
51.6635
47.8867
46.7357
48.2386
56.6105
73.8588
102.842
156.867
238.97
339.95
448.675
563.187
600.089
616.173
304.343
202.483
145.854
111.375
85.6682
72.8522
62.9528
58.3656
56.9449
59.7512
72.697
92.7701
131.211
191.513
273.541
365.838
464.344
547.353
563.046
498.092
297.911
227.996
166.341
127.609
102.573
85.3277
76.1626
72.3983
71.7417
77.8918
93.399
121.552
165.734
230.569
308.871
389.011
469.325
520.192
523.292
418.162
286.011
237.923
174.442
144.976
117.512
103.088
94.9116
91.6297
91.0566
101.32
125.784
158.952
211.051
275.221
341.83
405.685
463.182
485.728
482.715
365.763
276.284
240.938
186.581
162.891
136.095
124.012
116.832
114.514
119.659
142.611
170.139
210.422
261.47
313.891
365.325
415.846
443.273
443.711
443.822
331.543
270.626
243.859
198.712
179.642
160.128
152.868
150.581
156.743
174.853
200.063
229.756
268.341
308.508
347.843
385.927
406.886
410.501
391.606
407.521
317.473
276.519
257.444
228.233
216.893
211.316
210.975
219.381
232.601
251.27
272.958
297.075
324.467
348.75
370.506
382.187
385.953
363.718
330.583
376.064
341.287
324.963
318.665
312.616
310.996
311.199
312.159
319.021
325.185
335.898
344.438
355.617
363.778
367.932
369.222
367.786
345.807
303.43
264.97
352.361
459.266
449.82
445.393
431.132
424.793
415.624
411.148
405.253
401.726
397.176
392.906
387.444
379.575
368.643
356.894
331.407
288.712
237.379
201.228
337.987
540.132
522.068
514.233
494.888
485.655
469.348
460.676
446.2
437.274
423.304
412.199
395.918
378.759
354.772
321.98
277.338
228.341
178.451
152.448
330.362
517.75
501.933
495.445
479.133
471.43
458.728
452.087
441.591
435.016
425.093
416.81
405.055
392.377
373.437
344.097
299.566
247.96
189.031
153.533
329.035
398.152
394.382
393.198
387.897
384.599
383.115
382.83
385.403
388
391.603
393.841
394.868
394.61
388.316
381.761
361.045
317.201
257.933
211.99
333.994
314.338
291.014
281.01
269.652
267.509
269.896
276.646
287.333
302.16
319.128
337.21
355.857
373.018
385.329
391.138
393.403
374.372
330.023
282.528
349.287
305.809
264.077
244.399
212.566
199.436
190.077
188.079
194.691
210.316
234.374
261.196
292.639
327.654
359.806
389.281
406.246
413.075
392.41
354.175
376.824
321.185
261.068
234.841
191.152
172.699
152.374
144.324
141.101
143.509
161.483
190.804
224.06
269.415
316.7
362.909
408.276
433.304
439.134
417.519
413.528
352.795
266.272
231.935
179.846
156.976
131.454
119.91
113.215
110.913
112.968
134.943
165.552
209.119
266.753
326.081
383.814
441.315
470.827
471.865
453.949
404.885
274.311
227.371
168.436
140.524
113.726
99.3167
92.2039
89.4321
89.21
98.1682
121.891
158.407
214.188
285.118
358.679
428.124
490.33
512.759
496.614
494.838
286.035
215.28
158.696
124.031
101.369
83.7938
75.0523
71.2929
70.5866
76.6791
91.555
120.067
168.23
237.72
322.982
408.969
496.43
545.871
540.516
634.405
296.783
193.283
135.763
105.447
83.9881
71.7046
62.8359
58.6934
57.3013
59.5115
71.6673
92.2683
132.225
197.42
285.775
384.129
488.88
573.379
583.56
788.037
298.666
162.736
108.374
82.9963
69.0217
57.0513
51.466
48.5422
47.5664
49.2153
56.3911
73.0605
104.033
160.493
248.772
356.278
470.984
589.429
623.017
646.063
32.1735
12.7361
11.3229
11.19
11.171
11.1705
11.1708
11.1706
11.1705
11.1705
11.1706
11.1708
11.1705
11.171
11.19
11.3229
12.7361
32.1734
646.063
672.755
55.0687
17.0402
12.0874
11.3039
11.1803
11.1547
11.1529
11.1534
11.1536
11.1536
11.1534
11.1529
11.1547
11.1803
11.3039
12.0874
17.0401
55.0685
672.755
698.419
71.08
21.1512
13.3024
11.5871
11.2261
11.1551
11.1382
11.1358
11.1355
11.1355
11.1358
11.1382
11.1551
11.2261
11.5871
13.3024
21.1512
71.0798
698.419
723.118
85.8387
25.1342
14.6453
12.0428
11.337
11.1683
11.1265
11.1183
11.1171
11.1171
11.1183
11.1265
11.1683
11.337
12.0428
14.6453
25.1342
85.8385
723.118
746.783
101.894
29.2119
16.0674
12.589
11.5236
11.2064
11.1273
11.105
11.1003
11.1003
11.105
11.1273
11.2064
11.5236
12.589
16.0674
29.212
101.895
746.783
769.333
118.453
33.3716
17.542
13.1976
11.7626
11.2831
11.1366
11.0944
11.0843
11.0843
11.0944
11.1366
11.283
11.7626
13.1976
17.542
33.3716
118.453
769.333
790.69
134.94
37.5622
19.0496
13.8496
12.0429
11.3871
11.16
11.0918
11.0718
11.0718
11.0918
11.16
11.3871
12.0429
13.8496
19.0496
37.5623
134.94
790.69
810.953
151.222
41.773
20.5829
14.5343
12.3566
11.5176
11.203
11.0955
11.0625
11.0625
11.0955
11.203
11.5176
12.3566
14.5343
20.5829
41.773
151.222
810.952
829.985
167.098
45.9722
22.1309
15.2424
12.6969
11.6708
11.2604
11.1065
11.0594
11.0594
11.1065
11.2604
11.6708
12.6969
15.2424
22.1309
45.9723
167.099
829.985
847.68
182.43
50.128
23.682
15.9657
13.0573
11.8433
11.3325
11.1291
11.0619
11.0619
11.1291
11.3325
11.8433
13.0573
15.9657
23.682
50.128
182.43
847.68
863.974
197.086
54.2104
25.2252
16.6971
13.4323
12.0316
11.418
11.1609
11.0698
11.0698
11.1609
11.418
12.0316
13.4323
16.6971
25.2252
54.2103
197.086
863.974
878.993
211.135
58.2263
26.76
17.4339
13.8189
12.2333
11.5155
11.202
11.0862
11.0862
11.202
11.5155
12.2333
13.8189
17.4339
26.76
58.2263
211.135
878.993
892.67
224.49
62.1634
28.2835
18.174
14.2146
12.4465
11.6241
11.2527
11.1112
11.1112
11.2527
11.6241
12.4465
14.2146
18.174
28.2835
62.1633
224.49
892.67
905.041
237.133
66.0123
29.7916
18.9144
14.617
12.6691
11.7427
11.3126
11.1446
11.1446
11.3126
11.7427
12.6691
14.617
18.9143
29.7916
66.0123
237.133
905.041
916.067
248.976
69.7489
31.2768
19.6513
15.0234
12.8992
11.87
11.381
11.1861
11.1861
11.381
11.87
12.8992
15.0234
19.6513
31.2768
69.7488
248.975
916.067
925.895
260.085
73.3766
32.7375
20.3829
15.4319
13.1352
12.0048
11.4576
11.2357
11.2357
11.4576
12.0048
13.1352
15.4319
20.3829
32.7374
73.3765
260.085
925.895
934.512
270.414
76.888
34.1725
21.1084
15.8416
13.3761
12.1465
11.5417
11.293
11.293
11.5417
12.1465
13.376
15.8416
21.1084
34.1725
76.8878
270.413
934.512
942.044
280.04
80.2886
35.5819
21.8272
16.2517
13.621
12.2943
11.633
11.3579
11.3579
11.633
12.2943
13.621
16.2516
21.8272
35.5818
80.2885
280.04
942.044
948.452
288.888
83.5622
36.9616
22.5377
16.6611
13.8691
12.4475
11.7309
11.4299
11.4299
11.7309
12.4475
13.8691
16.6611
22.5377
36.9615
83.562
288.887
948.452
953.922
297.056
86.7126
38.3097
23.2384
17.0686
14.1194
12.6054
11.8349
11.5086
11.5086
11.8349
12.6054
14.1194
17.0686
23.2384
38.3097
86.7126
297.056
953.922
958.417
304.498
89.7333
39.6251
23.9284
17.4735
14.3712
12.7672
11.9443
11.5934
11.5934
11.9443
12.7672
14.3712
17.4735
23.9284
39.625
89.7332
304.498
958.417
962.123
311.331
92.6338
40.9081
24.6075
17.8755
14.624
12.9324
12.0587
11.684
11.684
12.0587
12.9324
14.624
17.8755
24.6075
40.9082
92.6338
311.331
962.124
964.967
317.496
95.4072
42.1581
25.2755
18.2741
14.8775
13.1008
12.1777
11.78
11.78
12.1777
13.1008
14.8775
18.2741
25.2755
42.1581
95.4074
317.497
964.967
967.18
323.113
98.0612
43.3744
25.9316
18.6689
15.1312
13.2719
12.3009
11.8808
11.8808
12.3009
13.2719
15.1312
18.6689
25.9316
43.3745
98.0613
323.112
967.18
968.65
328.135
100.59
44.556
26.5752
19.0594
15.3847
13.4451
12.4278
11.9862
11.9862
12.4278
13.4451
15.3847
19.0594
26.5752
44.556
100.59
328.136
968.65
969.637
332.666
103.003
45.7034
27.2061
19.4452
15.6374
13.62
12.5579
12.0955
12.0955
12.5579
13.62
15.6374
19.4452
27.206
45.7034
103.003
332.667
969.637
969.972
336.693
105.298
46.8157
27.8237
19.8259
15.8891
13.7964
12.691
12.2085
12.2085
12.691
13.7964
15.8891
19.8259
27.8237
46.8158
105.298
336.691
969.972
969.836
340.246
107.485
47.896
28.429
20.2018
16.1398
13.974
12.8266
12.3248
12.3248
12.8266
13.974
16.1398
20.2018
28.429
47.8959
107.485
340.247
969.836
969.427
343.393
109.56
48.9418
29.0212
20.5725
16.3892
14.1525
12.9646
12.444
12.444
12.9646
14.1525
16.3892
20.5725
29.0212
48.9418
109.56
343.392
969.427
968.583
346.15
111.536
49.9555
29.6003
20.9377
16.6369
14.3316
13.1045
12.5659
12.5659
13.1045
14.3316
16.6369
20.9377
29.6003
49.9555
111.536
346.151
968.583
967.383
348.526
113.404
50.9351
30.1658
21.2972
16.8827
14.511
13.2461
12.69
12.69
13.2461
14.511
16.8827
21.2972
30.1658
50.9351
113.404
348.526
967.383
965.896
350.559
115.183
51.8843
30.7184
21.651
17.1265
14.6905
13.3889
12.8161
12.8161
13.3889
14.6905
17.1265
21.6509
30.7183
51.8842
115.182
350.559
965.896
964.16
352.25
116.861
52.8021
31.2582
21.9992
17.3682
14.87
13.533
12.9439
12.9439
13.533
14.87
17.3682
21.9992
31.2582
52.8022
116.861
352.25
964.16
962.21
353.665
118.459
53.6916
31.7857
22.3418
17.6078
15.0494
13.6781
13.0733
13.0733
13.6781
15.0494
17.6078
22.3418
31.7857
53.6915
118.459
353.665
962.211
960.082
354.764
119.963
54.5498
32.3001
22.6784
17.8449
15.2283
13.8239
13.2039
13.2039
13.8239
15.2283
17.8449
22.6784
32.3001
54.5497
119.962
354.764
960.082
957.798
355.619
121.391
55.3818
32.8024
23.0093
18.0795
15.4065
13.9701
13.3355
13.3355
13.9701
15.4065
18.0795
23.0092
32.8024
55.3818
121.392
355.62
957.798
955.391
356.17
122.729
56.1828
33.2914
23.3339
18.3114
15.584
14.1166
13.4678
13.4678
14.1166
15.584
18.3114
23.3339
33.2914
56.1826
122.729
356.171
955.391
952.88
356.555
124.003
56.961
33.7695
23.653
18.5407
15.7606
14.2633
13.6009
13.6009
14.2633
15.7606
18.5407
23.653
33.7694
56.9608
124.003
356.555
952.881
950.301
356.607
125.196
57.7135
34.2364
23.9667
18.7675
15.9363
14.4101
13.7344
13.7344
14.4101
15.9363
18.7675
23.9666
34.2362
57.713
125.195
356.606
950.301
947.652
356.515
126.324
58.4415
34.6914
24.2745
18.9915
16.111
14.5567
13.8682
13.8682
14.5567
16.111
18.9915
24.2744
34.6914
58.4414
126.324
356.515
947.652
944.978
356.288
127.376
59.143
35.1345
24.5762
19.2125
16.2844
14.703
14.0022
14.0022
14.703
16.2843
19.2124
24.576
35.1341
59.1422
127.374
356.287
944.979
942.266
355.821
128.378
59.8256
35.5673
24.8724
19.4306
16.4564
14.8489
14.1361
14.1361
14.8489
16.4563
19.4304
24.8722
35.5669
59.8248
128.377
355.823
942.268
939.569
355.225
129.307
60.4849
35.9896
25.1631
19.6458
16.627
14.9942
14.2699
14.2699
14.9942
16.627
19.6456
25.1629
35.9892
60.4841
129.305
355.221
939.571
936.857
354.483
130.203
61.1265
36.4018
25.4483
19.8581
16.7962
15.1389
14.4034
14.4034
15.1389
16.7961
19.8579
25.448
36.4011
61.125
130.199
354.481
936.86
934.195
353.675
131.044
61.7486
36.8035
25.7278
20.0673
16.9638
15.2829
14.5365
14.5365
15.2828
16.9637
20.067
25.7274
36.8027
61.7471
131.041
353.674
934.198
931.527
352.841
131.902
62.3597
37.1956
26.0018
20.2734
17.1298
15.426
14.6692
14.6692
15.4259
17.1296
20.2731
26.0014
37.1947
62.3578
131.898
352.834
931.531
928.941
351.949
132.773
62.9665
37.5792
26.2706
20.4765
17.2941
15.5682
14.8013
14.8013
15.5681
17.294
20.4762
26.2701
37.5782
62.964
132.768
351.953
928.945
926.437
351.074
133.688
63.5729
37.9549
26.5343
20.6767
17.4567
15.7095
14.9329
14.9328
15.7094
17.4565
20.6763
26.5335
37.9534
63.5697
133.682
351.065
926.443
924.013
350.246
134.665
64.181
38.3224
26.7923
20.8734
17.6174
15.8495
15.0635
15.0634
15.8494
17.6171
20.8729
26.7914
38.3208
64.1779
134.66
350.24
924.021
921.666
349.542
135.739
64.7986
38.6836
27.0449
21.0667
17.7758
15.9881
15.193
15.193
15.9879
17.7754
21.0661
27.0438
38.6817
64.7943
135.73
349.538
921.675
919.394
348.967
136.896
65.4236
39.0385
27.292
21.2563
17.9319
16.1252
15.3214
15.3213
16.125
17.9315
21.2556
27.2907
39.0356
65.4168
136.88
348.951
919.406
917.201
348.54
138.126
66.0526
39.3865
27.5338
21.4425
18.0859
16.2609
15.4488
15.4487
16.2607
18.0854
21.4417
27.5322
39.3834
66.0457
138.113
348.534
917.216
915.09
348.272
139.442
66.691
39.7297
27.7707
21.6256
18.2379
16.3953
15.5752
15.5751
16.3951
18.2374
21.6246
27.769
39.7264
66.6841
139.427
348.252
915.109
913.063
348.122
140.833
67.3409
40.0694
28.0032
21.8054
18.3879
16.5284
15.7005
15.7004
16.528
18.3872
21.8042
28.001
40.0649
67.3311
140.812
348.097
913.085
911.119
348.152
142.259
67.9902
40.4023
28.23
21.9813
18.5351
16.6596
15.8244
15.8242
16.6592
18.5343
21.9797
28.2271
40.3964
67.9768
142.229
348.124
911.145
909.261
348.25
143.693
68.6295
40.725
28.4492
22.1521
18.679
16.7883
15.9461
15.946
16.7878
18.678
22.1503
28.446
40.7187
68.6151
143.661
348.216
909.293
907.494
348.44
145.148
69.2637
41.0385
28.6608
22.3174
18.8189
16.9141
16.0654
16.0652
16.9135
18.8179
22.3154
28.6572
41.0316
69.2485
145.115
348.398
907.532
905.818
348.741
146.625
69.8953
41.3439
28.8652
22.4774
18.9551
17.037
16.1823
16.1821
17.0364
18.9539
22.4752
28.8609
41.3353
69.8755
146.58
348.687
905.862
904.23
349.112
148.076
70.5107
41.6386
29.0623
22.6327
19.0882
17.1577
16.2974
16.2972
17.157
19.0867
22.6301
29.0574
41.6285
70.4868
148.022
349.048
904.282
902.73
349.524
149.481
71.1004
41.9199
29.2516
22.7833
19.2184
17.2766
16.4112
16.411
17.2759
19.2169
22.7806
29.2465
41.9094
71.0764
149.428
349.454
902.791
901.312
349.976
150.873
71.6701
42.1873
29.4323
22.9287
19.3454
17.3934
16.5233
16.5231
17.3927
19.3439
22.926
29.4273
42.1771
71.646
150.815
349.888
901.381
899.966
350.457
152.27
72.2261
42.4409
29.603
23.0672
19.4675
17.5066
16.6325
16.6322
17.5059
19.4661
23.0645
29.5979
42.4301
72.1986
152.199
350.356
900.043
898.679
350.976
153.65
72.7611
42.6773
29.7609
23.1965
19.5829
17.6145
16.7369
16.7367
17.6138
19.5815
23.1939
29.7557
42.6654
72.7282
153.559
350.861
898.762
897.437
351.533
154.955
73.2542
42.8902
29.9036
23.3151
19.6903
17.7158
16.8355
16.8353
17.7152
19.689
23.3126
29.8984
42.8779
73.2183
154.85
351.387
897.527
896.228
352.099
156.153
73.6921
43.076
30.0302
23.4229
19.7898
17.8109
16.9285
16.9283
17.8103
19.7885
23.4206
30.0254
43.065
73.6604
156.058