/*--------------------------------*- C++ -*----------------------------------*\
| =========                 |                                                 |
| \\      /  F ield         | OpenFOAM: The Open Source CFD Toolbox           |
|  \\    /   O peration     | Version:  2.1.0                                 |
|   \\  /    A nd           | Web:      www.OpenFOAM.org                      |
|    \\/     M anipulation  |                                                 |
\*---------------------------------------------------------------------------*/
FoamFile
{
    version     2.0;
    format      ascii;
    class       surfaceScalarField;
    location    "0.18";
    object      phi;
}
// * * * * * * * * * * * * * * * * * * * * * * * * * * * * * * * * * * * * * //

dimensions      [0 3 -1 0 0 0 0];

internalField   nonuniform List<scalar> 
12460
(
-2.43515e-05
-1.23348e-09
-2.43191e-05
-3.23809e-08
-2.42663e-05
-5.28008e-08
-2.42029e-05
-6.3466e-08
-2.4133e-05
-6.98792e-08
-2.40587e-05
-7.42658e-08
-2.39812e-05
-7.75343e-08
-2.3901e-05
-8.01781e-08
-2.38185e-05
-8.24764e-08
-2.37339e-05
-8.45822e-08
-2.36473e-05
-8.65934e-08
-2.35588e-05
-8.85491e-08
-2.34683e-05
-9.04899e-08
-2.33759e-05
-9.24141e-08
-2.32815e-05
-9.43488e-08
-2.31853e-05
-9.62823e-08
-2.3087e-05
-9.82329e-08
-2.29868e-05
-1.00187e-07
-2.28847e-05
-1.02163e-07
-2.27805e-05
-1.04156e-07
-2.26744e-05
-1.0613e-07
-2.25663e-05
-1.08135e-07
-2.2456e-05
-1.10248e-07
-2.23436e-05
-1.12413e-07
-2.2229e-05
-1.14632e-07
-2.21121e-05
-1.16912e-07
-2.19928e-05
-1.19265e-07
-2.18711e-05
-1.21687e-07
-2.17469e-05
-1.24188e-07
-2.16202e-05
-1.26765e-07
-2.14907e-05
-1.29427e-07
-2.13585e-05
-1.32175e-07
-2.12235e-05
-1.35021e-07
-2.10856e-05
-1.37962e-07
-2.09446e-05
-1.41015e-07
-2.08004e-05
-1.44187e-07
-2.06529e-05
-1.47489e-07
-2.05019e-05
-1.50933e-07
-2.03474e-05
-1.54526e-07
-2.01891e-05
-1.58288e-07
-2.00269e-05
-1.6223e-07
-1.98605e-05
-1.66352e-07
-1.96899e-05
-1.70658e-07
-1.95147e-05
-1.75152e-07
-1.93349e-05
-1.79832e-07
-1.91502e-05
-1.84694e-07
-1.89605e-05
-1.89733e-07
-1.87655e-05
-1.94957e-07
-1.85653e-05
-2.00208e-07
-1.83597e-05
-2.05591e-07
-1.81483e-05
-2.114e-07
-1.79308e-05
-2.17513e-07
-1.77072e-05
-2.23644e-07
-1.74776e-05
-2.29539e-07
-1.72424e-05
-2.35213e-07
-1.70016e-05
-2.40824e-07
-1.67551e-05
-2.46483e-07
-1.65029e-05
-2.52229e-07
-1.62448e-05
-2.5805e-07
-1.59809e-05
-2.6396e-07
-1.57109e-05
-2.69985e-07
-1.54348e-05
-2.76129e-07
-1.51524e-05
-2.82404e-07
-1.48635e-05
-2.88834e-07
-1.45681e-05
-2.95446e-07
-1.42658e-05
-3.02255e-07
-1.39566e-05
-3.09256e-07
-1.36402e-05
-3.16423e-07
-1.33164e-05
-3.23745e-07
-1.29852e-05
-3.31212e-07
-1.26464e-05
-3.38823e-07
-1.22998e-05
-3.46643e-07
-1.1945e-05
-3.54797e-07
-1.15817e-05
-3.63325e-07
-1.12095e-05
-3.72248e-07
-1.08278e-05
-3.81685e-07
-1.0436e-05
-3.91828e-07
-1.0033e-05
-4.02958e-07
-9.61762e-06
-4.15461e-07
-9.1878e-06
-4.29851e-07
-8.74109e-06
-4.46761e-07
-8.27418e-06
-4.66961e-07
-7.78298e-06
-4.91261e-07
-7.2627e-06
-5.20351e-07
-6.70786e-06
-5.54919e-07
-6.1125e-06
-5.95464e-07
-5.47068e-06
-6.41941e-07
-4.77759e-06
-6.93236e-07
-4.03165e-06
-7.46109e-07
-3.2384e-06
-7.93444e-07
-2.41791e-06
-8.20707e-07
-1.62045e-06
-7.97698e-07
-9.43305e-07
-6.77378e-07
-5.08169e-07
-4.35319e-07
-3.74055e-07
-1.34192e-07
-6.10922e-07
2.36968e-07
-1.48446e-06
8.73418e-07
-3.69375e-06
2.20668e-06
-8.98401e-06
5.28168e-06
1.46501e-05
-2.36519e-05
-2.94916e-05
-1.65572e-08
-2.94457e-05
-7.82563e-08
-2.93866e-05
-1.11864e-07
-2.93197e-05
-1.3041e-07
-2.92476e-05
-1.41976e-07
-2.91719e-05
-1.49951e-07
-2.90935e-05
-1.559e-07
-2.9013e-05
-1.60709e-07
-2.89306e-05
-1.64894e-07
-2.88464e-05
-1.68728e-07
-2.87606e-05
-1.72398e-07
-2.86732e-05
-1.75973e-07
-2.85842e-05
-1.79532e-07
-2.84935e-05
-1.83074e-07
-2.84012e-05
-1.86647e-07
-2.83073e-05
-1.90228e-07
-2.82117e-05
-1.93846e-07
-2.81144e-05
-1.97477e-07
-2.80154e-05
-2.01136e-07
-2.79147e-05
-2.0484e-07
-2.78124e-05
-2.08464e-07
-2.77084e-05
-2.12078e-07
-2.76028e-05
-2.15882e-07
-2.74955e-05
-2.19738e-07
-2.73864e-05
-2.23659e-07
-2.72757e-05
-2.27668e-07
-2.71632e-05
-2.31788e-07
-2.70488e-05
-2.36013e-07
-2.69327e-05
-2.40355e-07
-2.68146e-05
-2.44813e-07
-2.66946e-05
-2.49399e-07
-2.65727e-05
-2.54119e-07
-2.64487e-05
-2.58994e-07
-2.63227e-05
-2.64023e-07
-2.61945e-05
-2.69223e-07
-2.6064e-05
-2.74606e-07
-2.59313e-05
-2.80184e-07
-2.57963e-05
-2.85972e-07
-2.56589e-05
-2.91979e-07
-2.55189e-05
-2.98226e-07
-2.53764e-05
-3.04737e-07
-2.52312e-05
-3.1153e-07
-2.50833e-05
-3.18616e-07
-2.49324e-05
-3.26014e-07
-2.47785e-05
-3.33727e-07
-2.46215e-05
-3.41761e-07
-2.44611e-05
-3.50128e-07
-2.42972e-05
-3.58839e-07
-2.41297e-05
-3.67726e-07
-2.39586e-05
-3.76646e-07
-2.37844e-05
-3.85588e-07
-2.36074e-05
-3.94514e-07
-2.34277e-05
-4.03417e-07
-2.3245e-05
-4.12228e-07
-2.30593e-05
-4.20906e-07
-2.28706e-05
-4.29531e-07
-2.26789e-05
-4.38187e-07
-2.24842e-05
-4.46917e-07
-2.22865e-05
-4.55721e-07
-2.20859e-05
-4.64595e-07
-2.18824e-05
-4.73528e-07
-2.1676e-05
-4.82511e-07
-2.14669e-05
-4.91551e-07
-2.1255e-05
-5.00693e-07
-2.10405e-05
-5.09961e-07
-2.08235e-05
-5.19352e-07
-2.06039e-05
-5.28875e-07
-2.03818e-05
-5.38508e-07
-2.01574e-05
-5.48249e-07
-1.99305e-05
-5.58095e-07
-1.97013e-05
-5.68069e-07
-1.94698e-05
-5.78291e-07
-1.92356e-05
-5.89045e-07
-1.89986e-05
-6.00458e-07
-1.87584e-05
-6.12586e-07
-1.85145e-05
-6.25654e-07
-1.82665e-05
-6.40009e-07
-1.80135e-05
-6.56127e-07
-1.77546e-05
-6.74637e-07
-1.74884e-05
-6.96338e-07
-1.72133e-05
-7.22177e-07
-1.69274e-05
-7.5329e-07
-1.66282e-05
-7.90948e-07
-1.63129e-05
-8.36268e-07
-1.59783e-05
-8.90288e-07
-1.56209e-05
-9.53681e-07
-1.52377e-05
-1.02617e-06
-1.48264e-05
-1.10575e-06
-1.43869e-05
-1.18706e-06
-1.39229e-05
-1.25918e-06
-1.34445e-05
-1.30131e-06
-1.2969e-05
-1.27565e-06
-1.25253e-05
-1.12426e-06
-1.2187e-05
-7.77521e-07
-1.21426e-05
-1.83666e-07
-1.25794e-05
6.67058e-07
-1.37967e-05
2.08202e-06
-1.62935e-05
4.69193e-06
-2.10681e-05
1.00405e-05
2.50734e-05
-3.15162e-05
-3.24173e-05
-3.93212e-08
-3.23766e-05
-1.18934e-07
-3.23255e-05
-1.63001e-07
-3.22679e-05
-1.88052e-07
-3.22061e-05
-2.03763e-07
-3.21415e-05
-2.14549e-07
-3.20749e-05
-2.22498e-07
-3.20067e-05
-2.28891e-07
-3.19372e-05
-2.34393e-07
-3.18665e-05
-2.39428e-07
-3.17947e-05
-2.44215e-07
-3.17218e-05
-2.48892e-07
-3.16478e-05
-2.53537e-07
-3.15726e-05
-2.58184e-07
-3.14964e-05
-2.62881e-07
-3.1419e-05
-2.67621e-07
-3.13404e-05
-2.72433e-07
-3.12606e-05
-2.77311e-07
-3.11795e-05
-2.82267e-07
-3.1097e-05
-2.87336e-07
-3.1013e-05
-2.92405e-07
-3.09277e-05
-2.97396e-07
-3.08412e-05
-3.02377e-07
-3.07536e-05
-3.0731e-07
-3.0665e-05
-3.1227e-07
-3.05754e-05
-3.17318e-07
-3.04847e-05
-3.22483e-07
-3.03929e-05
-3.27757e-07
-3.03002e-05
-3.33144e-07
-3.02063e-05
-3.38644e-07
-3.01115e-05
-3.44266e-07
-3.00156e-05
-3.50012e-07
-2.99187e-05
-3.55911e-07
-2.98207e-05
-3.61952e-07
-2.97218e-05
-3.68154e-07
-2.96219e-05
-3.74524e-07
-2.9521e-05
-3.81069e-07
-2.94192e-05
-3.87804e-07
-2.93164e-05
-3.94732e-07
-2.92128e-05
-4.01863e-07
-2.91083e-05
-4.09217e-07
-2.9003e-05
-4.16807e-07
-2.8897e-05
-4.24639e-07
-2.87903e-05
-4.3273e-07
-2.86829e-05
-4.41077e-07
-2.8575e-05
-4.49674e-07
-2.84666e-05
-4.58523e-07
-2.83579e-05
-4.67567e-07
-2.82489e-05
-4.7674e-07
-2.81396e-05
-4.85954e-07
-2.80302e-05
-4.94987e-07
-2.7921e-05
-5.03755e-07
-2.7812e-05
-5.12394e-07
-2.77032e-05
-5.20998e-07
-2.75946e-05
-5.29536e-07
-2.74862e-05
-5.37983e-07
-2.7378e-05
-5.46332e-07
-2.72704e-05
-5.5457e-07
-2.71635e-05
-5.62682e-07
-2.70575e-05
-5.70638e-07
-2.69526e-05
-5.78384e-07
-2.68493e-05
-5.85868e-07
-2.67479e-05
-5.93062e-07
-2.66486e-05
-6.00004e-07
-2.65519e-05
-6.06696e-07
-2.64583e-05
-6.13075e-07
-2.63681e-05
-6.19121e-07
-2.6282e-05
-6.2479e-07
-2.62003e-05
-6.30047e-07
-2.61237e-05
-6.34864e-07
-2.60528e-05
-6.39246e-07
-2.5988e-05
-6.43282e-07
-2.59299e-05
-6.47443e-07
-2.58788e-05
-6.51958e-07
-2.58349e-05
-6.56875e-07
-2.57986e-05
-6.62511e-07
-2.57698e-05
-6.69353e-07
-2.57486e-05
-6.78077e-07
-2.57346e-05
-6.89553e-07
-2.57271e-05
-7.04873e-07
-2.57252e-05
-7.25285e-07
-2.57278e-05
-7.52242e-07
-2.57331e-05
-7.87355e-07
-2.57393e-05
-8.32228e-07
-2.57439e-05
-8.88218e-07
-2.57445e-05
-9.56104e-07
-2.57389e-05
-1.03541e-06
-2.57254e-05
-1.1234e-06
-2.57042e-05
-1.21326e-06
-2.56773e-05
-1.29185e-06
-2.56497e-05
-1.33552e-06
-2.56291e-05
-1.30402e-06
-2.56264e-05
-1.13582e-06
-2.56705e-05
-7.43426e-07
-2.58199e-05
-4.53721e-08
-2.62393e-05
1.07409e-06
-2.71254e-05
2.95392e-06
-2.88552e-05
6.4051e-06
-3.21269e-05
1.3292e-05
2.93616e-05
-3.64448e-05
-3.50906e-05
-6.22845e-08
-3.50607e-05
-1.48845e-07
-3.50245e-05
-1.99166e-07
-3.49837e-05
-2.28838e-07
-3.494e-05
-2.47542e-07
-3.48943e-05
-2.60194e-07
-3.48475e-05
-2.69332e-07
-3.47998e-05
-2.76538e-07
-3.47516e-05
-2.82608e-07
-3.4703e-05
-2.88085e-07
-3.4654e-05
-2.93218e-07
-3.46047e-05
-2.98194e-07
-3.45551e-05
-3.03097e-07
-3.45053e-05
-3.07976e-07
-3.44553e-05
-3.12884e-07
-3.44051e-05
-3.17821e-07
-3.43547e-05
-3.22803e-07
-3.43042e-05
-3.27846e-07
-3.42535e-05
-3.32943e-07
-3.42028e-05
-3.38056e-07
-3.4152e-05
-3.43201e-07
-3.4101e-05
-3.48376e-07
-3.40499e-05
-3.53464e-07
-3.39988e-05
-3.58438e-07
-3.39477e-05
-3.63371e-07
-3.38967e-05
-3.68361e-07
-3.38457e-05
-3.73441e-07
-3.37949e-05
-3.78589e-07
-3.37442e-05
-3.83801e-07
-3.36938e-05
-3.89069e-07
-3.36437e-05
-3.94396e-07
-3.35939e-05
-3.99774e-07
-3.35446e-05
-4.05222e-07
-3.34958e-05
-4.10733e-07
-3.34476e-05
-4.16319e-07
-3.34002e-05
-4.21974e-07
-3.33536e-05
-4.27698e-07
-3.33079e-05
-4.33496e-07
-3.32632e-05
-4.39369e-07
-3.32198e-05
-4.4531e-07
-3.31777e-05
-4.5132e-07
-3.31371e-05
-4.57395e-07
-3.30982e-05
-4.63519e-07
-3.30613e-05
-4.69688e-07
-3.30265e-05
-4.75888e-07
-3.29941e-05
-4.82091e-07
-3.29643e-05
-4.88269e-07
-3.29376e-05
-4.94336e-07
-3.29141e-05
-5.00251e-07
-3.28938e-05
-5.06182e-07
-3.28767e-05
-5.12123e-07
-3.28626e-05
-5.17882e-07
-3.28516e-05
-5.23427e-07
-3.28439e-05
-5.28711e-07
-3.28398e-05
-5.33713e-07
-3.28393e-05
-5.38454e-07
-3.28428e-05
-5.42864e-07
-3.28506e-05
-5.46878e-07
-3.28629e-05
-5.50438e-07
-3.28801e-05
-5.53504e-07
-3.29026e-05
-5.56022e-07
-3.29306e-05
-5.5791e-07
-3.29647e-05
-5.59117e-07
-3.30052e-05
-5.59694e-07
-3.30524e-05
-5.59679e-07
-3.31067e-05
-5.5901e-07
-3.31684e-05
-5.57659e-07
-3.3238e-05
-5.55594e-07
-3.33156e-05
-5.52816e-07
-3.34016e-05
-5.4931e-07
-3.34962e-05
-5.45149e-07
-3.35998e-05
-5.40388e-07
-3.37122e-05
-5.35825e-07
-3.38331e-05
-5.31938e-07
-3.39623e-05
-5.28772e-07
-3.40993e-05
-5.26815e-07
-3.42434e-05
-5.2673e-07
-3.43939e-05
-5.29403e-07
-3.45496e-05
-5.35905e-07
-3.47093e-05
-5.47541e-07
-3.48716e-05
-5.65743e-07
-3.50349e-05
-5.92136e-07
-3.51974e-05
-6.28441e-07
-3.53576e-05
-6.7629e-07
-3.55136e-05
-7.36921e-07
-3.56643e-05
-8.10902e-07
-3.58085e-05
-8.9734e-07
-3.59459e-05
-9.92874e-07
-3.60771e-05
-1.08981e-06
-3.62038e-05
-1.17385e-06
-3.63283e-05
-1.22067e-06
-3.64513e-05
-1.19164e-06
-3.65706e-05
-1.02813e-06
-3.66854e-05
-6.41286e-07
-3.6799e-05
5.45342e-08
-3.70281e-05
1.28827e-06
-3.74878e-05
3.39701e-06
-3.83474e-05
7.24577e-06
-3.97841e-05
1.47064e-05
2.9276e-05
-3.97299e-05
-3.78374e-05
-7.86195e-08
-3.78236e-05
-1.62575e-07
-3.78093e-05
-2.13453e-07
-3.77937e-05
-2.44464e-07
-3.77772e-05
-2.64106e-07
-3.77603e-05
-2.77072e-07
-3.77434e-05
-2.86196e-07
-3.77269e-05
-2.93096e-07
-3.77107e-05
-2.98725e-07
-3.76952e-05
-3.03616e-07
-3.76803e-05
-3.08095e-07
-3.76662e-05
-3.1232e-07
-3.76529e-05
-3.16413e-07
-3.76405e-05
-3.204e-07
-3.7629e-05
-3.24343e-07
-3.76186e-05
-3.28232e-07
-3.76093e-05
-3.32086e-07
-3.76013e-05
-3.3589e-07
-3.75946e-05
-3.39642e-07
-3.75894e-05
-3.43272e-07
-3.75857e-05
-3.46822e-07
-3.75837e-05
-3.50451e-07
-3.7583e-05
-3.5415e-07
-3.75837e-05
-3.57744e-07
-3.75858e-05
-3.61213e-07
-3.75895e-05
-3.64682e-07
-3.75947e-05
-3.68195e-07
-3.76016e-05
-3.71701e-07
-3.76102e-05
-3.75188e-07
-3.76207e-05
-3.78633e-07
-3.7633e-05
-3.82038e-07
-3.76474e-05
-3.85398e-07
-3.76639e-05
-3.88716e-07
-3.76827e-05
-3.9199e-07
-3.77038e-05
-3.95232e-07
-3.77273e-05
-3.98426e-07
-3.77534e-05
-4.0157e-07
-3.77823e-05
-4.04662e-07
-3.78139e-05
-4.07708e-07
-3.78486e-05
-4.10686e-07
-3.78863e-05
-4.13604e-07
-3.79272e-05
-4.16456e-07
-3.79715e-05
-4.1923e-07
-3.80193e-05
-4.21922e-07
-3.80707e-05
-4.24525e-07
-3.81258e-05
-4.27023e-07
-3.81846e-05
-4.29395e-07
-3.82474e-05
-4.31585e-07
-3.83141e-05
-4.33599e-07
-3.83848e-05
-4.35528e-07
-3.84596e-05
-4.37343e-07
-3.85386e-05
-4.38925e-07
-3.86218e-05
-4.40269e-07
-3.87093e-05
-4.41233e-07
-3.88013e-05
-4.41794e-07
-3.88978e-05
-4.42088e-07
-3.89987e-05
-4.42048e-07
-3.91041e-05
-4.4159e-07
-3.9214e-05
-4.40689e-07
-3.93283e-05
-4.39319e-07
-3.94471e-05
-4.37439e-07
-3.95703e-05
-4.34966e-07
-3.96979e-05
-4.31828e-07
-3.98298e-05
-4.28122e-07
-3.99659e-05
-4.23966e-07
-4.01061e-05
-4.19286e-07
-4.02503e-05
-4.14039e-07
-4.03984e-05
-4.08194e-07
-4.05502e-05
-4.01762e-07
-4.07057e-05
-3.94737e-07
-4.08648e-05
-3.87074e-07
-4.10275e-05
-3.78836e-07
-4.1194e-05
-3.70693e-07
-4.13645e-05
-3.62997e-07
-4.15389e-05
-3.56168e-07
-4.1717e-05
-3.50846e-07
-4.18983e-05
-3.47779e-07
-4.20824e-05
-3.47922e-07
-4.22689e-05
-3.52421e-07
-4.24572e-05
-3.62667e-07
-4.26466e-05
-3.80181e-07
-4.28364e-05
-4.06621e-07
-4.30259e-05
-4.43745e-07
-4.32143e-05
-4.93205e-07
-4.34009e-05
-5.56177e-07
-4.35852e-05
-6.33146e-07
-4.37667e-05
-7.23063e-07
-4.39452e-05
-8.22266e-07
-4.41206e-05
-9.23088e-07
-4.42922e-05
-1.01182e-06
-4.44578e-05
-1.06544e-06
-4.46124e-05
-1.04834e-06
-4.4744e-05
-9.08781e-07
-4.48295e-05
-5.6895e-07
-4.48626e-05
7.35117e-08
-4.48803e-05
1.29062e-06
-4.48977e-05
3.39743e-06
-4.4913e-05
7.24192e-06
-4.46146e-05
1.43854e-05
2.64278e-05
-4.1795e-05
-4.0811e-05
-8.26513e-08
-4.08188e-05
-1.54768e-07
-4.08326e-05
-1.99681e-07
-4.08495e-05
-2.27595e-07
-4.08684e-05
-2.45161e-07
-4.08891e-05
-2.56361e-07
-4.09114e-05
-2.63865e-07
-4.09354e-05
-2.69149e-07
-4.09609e-05
-2.73172e-07
-4.09881e-05
-2.76413e-07
-4.1017e-05
-2.79216e-07
-4.10476e-05
-2.81718e-07
-4.108e-05
-2.84042e-07
-4.11142e-05
-2.86216e-07
-4.11502e-05
-2.88288e-07
-4.11882e-05
-2.90247e-07
-4.12282e-05
-2.92123e-07
-4.12702e-05
-2.93889e-07
-4.13143e-05
-2.95547e-07
-4.13605e-05
-2.9706e-07
-4.14088e-05
-2.98488e-07
-4.14594e-05
-2.99878e-07
-4.15123e-05
-3.01283e-07
-4.15675e-05
-3.02545e-07
-4.16251e-05
-3.03552e-07
-4.16853e-05
-3.04515e-07
-4.1748e-05
-3.05509e-07
-4.18132e-05
-3.06443e-07
-4.18811e-05
-3.07323e-07
-4.19516e-05
-3.08123e-07
-4.20248e-05
-3.08852e-07
-4.21007e-05
-3.09513e-07
-4.21793e-05
-3.10124e-07
-4.22606e-05
-3.10678e-07
-4.23446e-05
-3.11201e-07
-4.24314e-05
-3.11687e-07
-4.25208e-05
-3.12146e-07
-4.26129e-05
-3.12572e-07
-4.27076e-05
-3.12988e-07
-4.28049e-05
-3.13381e-07
-4.29048e-05
-3.13764e-07
-4.30071e-05
-3.14139e-07
-4.31118e-05
-3.14506e-07
-4.32189e-05
-3.14864e-07
-4.33282e-05
-3.15217e-07
-4.34397e-05
-3.15547e-07
-4.35533e-05
-3.1584e-07
-4.36689e-05
-3.16063e-07
-4.37863e-05
-3.16227e-07
-4.39055e-05
-3.1637e-07
-4.40265e-05
-3.16456e-07
-4.41491e-05
-3.16407e-07
-4.42732e-05
-3.16221e-07
-4.43988e-05
-3.15772e-07
-4.45258e-05
-3.1489e-07
-4.46544e-05
-3.13565e-07
-4.47848e-05
-3.11835e-07
-4.49169e-05
-3.09721e-07
-4.50506e-05
-3.0722e-07
-4.51859e-05
-3.04303e-07
-4.53227e-05
-3.00918e-07
-4.54611e-05
-2.96958e-07
-4.56011e-05
-2.92263e-07
-4.57428e-05
-2.86933e-07
-4.58862e-05
-2.8123e-07
-4.60311e-05
-2.74978e-07
-4.61778e-05
-2.68106e-07
-4.63264e-05
-2.60554e-07
-4.64768e-05
-2.52328e-07
-4.66292e-05
-2.43469e-07
-4.6784e-05
-2.33643e-07
-4.69413e-05
-2.22939e-07
-4.71009e-05
-2.12835e-07
-4.72625e-05
-2.03258e-07
-4.74263e-05
-1.94509e-07
-4.75922e-05
-1.87267e-07
-4.77603e-05
-1.82334e-07
-4.79304e-05
-1.80723e-07
-4.81024e-05
-1.83643e-07
-4.82761e-05
-1.92541e-07
-4.84513e-05
-2.08993e-07
-4.86277e-05
-2.34598e-07
-4.88051e-05
-2.71138e-07
-4.89832e-05
-3.20361e-07
-4.91619e-05
-3.83303e-07
-4.93409e-05
-4.60397e-07
-4.95202e-05
-5.50684e-07
-4.96994e-05
-6.50592e-07
-4.98776e-05
-7.53082e-07
-5.00525e-05
-8.45809e-07
-5.02191e-05
-9.08551e-07
-5.03678e-05
-9.1007e-07
-5.04795e-05
-8.08387e-07
-5.05211e-05
-5.39545e-07
-5.04594e-05
-1.26614e-09
-5.02814e-05
1.09839e-06
-4.98978e-05
2.99821e-06
-4.91493e-05
6.47581e-06
-4.74463e-05
1.26621e-05
2.19179e-05
-4.29591e-05
-4.39592e-05
-7.2746e-08
-4.39902e-05
-1.23767e-07
-4.40324e-05
-1.57409e-07
-4.40814e-05
-1.78661e-07
-4.41348e-05
-1.91728e-07
-4.41916e-05
-1.99576e-07
-4.42511e-05
-2.04327e-07
-4.43131e-05
-2.07207e-07
-4.43772e-05
-2.09012e-07
-4.44435e-05
-2.10155e-07
-4.45118e-05
-2.10928e-07
-4.4582e-05
-2.11454e-07
-4.46542e-05
-2.11839e-07
-4.47284e-05
-2.12106e-07
-4.48043e-05
-2.12302e-07
-4.48822e-05
-2.12408e-07
-4.49618e-05
-2.12462e-07
-4.50433e-05
-2.12437e-07
-4.51265e-05
-2.12348e-07
-4.52114e-05
-2.12163e-07
-4.52979e-05
-2.11949e-07
-4.53861e-05
-2.11705e-07
-4.54759e-05
-2.11492e-07
-4.55672e-05
-2.11191e-07
-4.56602e-05
-2.1063e-07
-4.57549e-05
-2.09824e-07
-4.58515e-05
-2.08906e-07
-4.595e-05
-2.07906e-07
-4.60504e-05
-2.069e-07
-4.61527e-05
-2.05862e-07
-4.62567e-05
-2.04816e-07
-4.63625e-05
-2.0375e-07
-4.64699e-05
-2.02714e-07
-4.65789e-05
-2.01698e-07
-4.66894e-05
-2.00743e-07
-4.68012e-05
-1.99836e-07
-4.69143e-05
-1.9901e-07
-4.70287e-05
-1.9825e-07
-4.71441e-05
-1.97579e-07
-4.72605e-05
-1.96984e-07
-4.73778e-05
-1.96485e-07
-4.74959e-05
-1.96072e-07
-4.76147e-05
-1.95748e-07
-4.77341e-05
-1.95499e-07
-4.7854e-05
-1.95333e-07
-4.79743e-05
-1.95216e-07
-4.80951e-05
-1.95141e-07
-4.82161e-05
-1.95069e-07
-4.83374e-05
-1.95003e-07
-4.84589e-05
-1.94956e-07
-4.85805e-05
-1.94874e-07
-4.87023e-05
-1.94694e-07
-4.88244e-05
-1.94313e-07
-4.89465e-05
-1.93709e-07
-4.90687e-05
-1.92868e-07
-4.91908e-05
-1.91684e-07
-4.93127e-05
-1.90073e-07
-4.94346e-05
-1.88042e-07
-4.95565e-05
-1.85583e-07
-4.96785e-05
-1.8266e-07
-4.98005e-05
-1.79217e-07
-4.99227e-05
-1.75146e-07
-5.00453e-05
-1.70162e-07
-5.01685e-05
-1.64278e-07
-5.02922e-05
-1.58142e-07
-5.04164e-05
-1.51372e-07
-5.05414e-05
-1.43853e-07
-5.06673e-05
-1.35537e-07
-5.07942e-05
-1.26423e-07
-5.09221e-05
-1.16585e-07
-5.10512e-05
-1.0578e-07
-5.11823e-05
-9.31377e-08
-5.13148e-05
-8.18754e-08
-5.14485e-05
-7.1259e-08
-5.15835e-05
-6.13215e-08
-5.17202e-05
-5.26722e-08
-5.18586e-05
-4.6133e-08
-5.19992e-05
-4.2724e-08
-5.21419e-05
-4.36753e-08
-5.2287e-05
-5.04364e-08
-5.24347e-05
-6.46494e-08
-5.25852e-05
-8.7795e-08
-5.27388e-05
-1.216e-07
-5.28954e-05
-1.68103e-07
-5.30554e-05
-2.28107e-07
-5.32189e-05
-3.02102e-07
-5.33857e-05
-3.89605e-07
-5.3555e-05
-4.87416e-07
-5.37253e-05
-5.89544e-07
-5.38929e-05
-6.85501e-07
-5.40508e-05
-7.58598e-07
-5.41849e-05
-7.8449e-07
-5.42739e-05
-7.28676e-07
-5.42714e-05
-5.52176e-07
-5.41447e-05
-1.38847e-07
-5.3776e-05
7.17802e-07
-5.305e-05
2.25924e-06
-5.16621e-05
5.07362e-06
-4.8921e-05
9.905e-06
1.64735e-05
-4.34923e-05
-4.69567e-05
-5.11475e-08
-4.70021e-05
-7.83456e-08
-4.70608e-05
-9.86655e-08
-4.71279e-05
-1.11587e-07
-4.72005e-05
-1.19126e-07
-4.72769e-05
-1.2317e-07
-4.73562e-05
-1.25083e-07
-4.74376e-05
-1.25741e-07
-4.7521e-05
-1.25661e-07
-4.7606e-05
-1.2516e-07
-4.76925e-05
-1.24425e-07
-4.77804e-05
-1.23554e-07
-4.78696e-05
-1.22612e-07
-4.79601e-05
-1.21617e-07
-4.80518e-05
-1.20602e-07
-4.81446e-05
-1.19549e-07
-4.82386e-05
-1.18491e-07
-4.83337e-05
-1.17394e-07
-4.84297e-05
-1.16291e-07
-4.85267e-05
-1.15145e-07
-4.86247e-05
-1.14012e-07
-4.87235e-05
-1.12874e-07
-4.88233e-05
-1.11717e-07
-4.8924e-05
-1.10451e-07
-4.90255e-05
-1.09193e-07
-4.91274e-05
-1.07884e-07
-4.92298e-05
-1.06539e-07
-4.93325e-05
-1.0517e-07
-4.94355e-05
-1.03887e-07
-4.95387e-05
-1.02644e-07
-4.96421e-05
-1.01474e-07
-4.97455e-05
-1.00334e-07
-4.98489e-05
-9.9304e-08
-4.99523e-05
-9.83594e-08
-5.00555e-05
-9.7546e-08
-5.01585e-05
-9.68317e-08
-5.02612e-05
-9.626e-08
-5.03637e-05
-9.5811e-08
-5.04658e-05
-9.54843e-08
-5.05675e-05
-9.52716e-08
-5.06688e-05
-9.51807e-08
-5.07697e-05
-9.52017e-08
-5.08701e-05
-9.53249e-08
-5.09701e-05
-9.55347e-08
-5.10697e-05
-9.58243e-08
-5.11688e-05
-9.61631e-08
-5.12674e-05
-9.6532e-08
-5.13656e-05
-9.69013e-08
-5.14634e-05
-9.72527e-08
-5.15608e-05
-9.75837e-08
-5.16579e-05
-9.78429e-08
-5.17547e-05
-9.79683e-08
-5.18513e-05
-9.78445e-08
-5.19476e-05
-9.74791e-08
-5.20437e-05
-9.6931e-08
-5.21394e-05
-9.60998e-08
-5.22348e-05
-9.48234e-08
-5.233e-05
-9.30513e-08
-5.2425e-05
-9.07493e-08
-5.252e-05
-8.78781e-08
-5.26151e-05
-8.43796e-08
-5.27104e-05
-8.01741e-08
-5.2806e-05
-7.48938e-08
-5.29025e-05
-6.80854e-08
-5.29997e-05
-6.13886e-08
-5.30977e-05
-5.39012e-08
-5.31966e-05
-4.54512e-08
-5.32967e-05
-3.60092e-08
-5.33982e-05
-2.56297e-08
-5.35012e-05
-1.42849e-08
-5.36049e-05
-2.92002e-09
-5.37121e-05
1.31743e-08
-5.38211e-05
2.61304e-08
-5.39322e-05
3.86664e-08
-5.40456e-05
5.08332e-08
-5.41617e-05
6.19654e-08
-5.42806e-05
7.12246e-08
-5.44026e-05
7.7605e-08
-5.45281e-05
7.99031e-08
-5.46573e-05
7.67244e-08
-5.47907e-05
6.65149e-08
-5.49287e-05
4.76281e-08
-5.50715e-05
1.84473e-08
-5.52197e-05
-2.28884e-08
-5.53737e-05
-7.73187e-08
-5.55333e-05
-1.46081e-07
-5.56976e-05
-2.29179e-07
-5.58656e-05
-3.23628e-07
-5.60349e-05
-4.24951e-07
-5.62004e-05
-5.24968e-07
-5.63532e-05
-6.11296e-07
-5.64773e-05
-6.66395e-07
-5.65459e-05
-6.66652e-07
-5.65196e-05
-5.85636e-07
-5.63246e-05
-3.41842e-07
-5.58261e-05
2.10701e-07
-5.48384e-05
1.26233e-06
-5.29655e-05
3.19061e-06
-4.95129e-05
6.44162e-06
1.05592e-05
-4.36077e-05
-4.94152e-05
-1.9528e-08
-4.94667e-05
-2.68507e-08
-4.95307e-05
-3.46381e-08
-4.96029e-05
-3.94097e-08
-4.96802e-05
-4.18425e-08
-4.97606e-05
-4.27448e-08
-4.98429e-05
-4.27238e-08
-4.99265e-05
-4.21948e-08
-5.00108e-05
-4.13775e-08
-5.00955e-05
-4.04362e-08
-5.01805e-05
-3.94412e-08
-5.02656e-05
-3.8445e-08
-5.03507e-05
-3.74628e-08
-5.04358e-05
-3.65059e-08
-5.05209e-05
-3.55809e-08
-5.06057e-05
-3.46783e-08
-5.06904e-05
-3.38068e-08
-5.07749e-05
-3.29504e-08
-5.0859e-05
-3.21208e-08
-5.09429e-05
-3.13072e-08
-5.10264e-05
-3.05297e-08
-5.11095e-05
-2.97799e-08
-5.11921e-05
-2.90203e-08
-5.12744e-05
-2.82143e-08
-5.1356e-05
-2.75393e-08
-5.14369e-05
-2.69949e-08
-5.15169e-05
-2.6538e-08
-5.1596e-05
-2.61213e-08
-5.16741e-05
-2.58062e-08
-5.17512e-05
-2.55415e-08
-5.18273e-05
-2.53203e-08
-5.19026e-05
-2.50962e-08
-5.19769e-05
-2.495e-08
-5.20504e-05
-2.48663e-08
-5.21231e-05
-2.48825e-08
-5.2195e-05
-2.49556e-08
-5.22661e-05
-2.51285e-08
-5.23365e-05
-2.53749e-08
-5.24063e-05
-2.56829e-08
-5.24756e-05
-2.60519e-08
-5.25443e-05
-2.64774e-08
-5.26126e-05
-2.69535e-08
-5.26804e-05
-2.74627e-08
-5.2748e-05
-2.7991e-08
-5.28153e-05
-2.85235e-08
-5.28825e-05
-2.90351e-08
-5.29495e-05
-2.9496e-08
-5.30165e-05
-2.98932e-08
-5.30836e-05
-3.02019e-08
-5.31509e-05
-3.0385e-08
-5.32183e-05
-3.04096e-08
-5.32861e-05
-3.02118e-08
-5.33543e-05
-2.97376e-08
-5.34229e-05
-2.8962e-08
-5.3492e-05
-2.78746e-08
-5.35618e-05
-2.63778e-08
-5.36324e-05
-2.43383e-08
-5.37038e-05
-2.17135e-08
-5.37762e-05
-1.8466e-08
-5.38497e-05
-1.45508e-08
-5.39243e-05
-9.92478e-09
-5.4e-05
-4.58475e-09
-5.40768e-05
1.65128e-09
-5.41561e-05
1.10547e-08
-5.42368e-05
1.90413e-08
-5.43191e-05
2.81341e-08
-5.44032e-05
3.84141e-08
-5.44894e-05
4.98442e-08
-5.45778e-05
6.2432e-08
-5.46684e-05
7.58879e-08
-5.47625e-05
9.06916e-08
-5.48577e-05
1.07845e-07
-5.49563e-05
1.24192e-07
-5.50586e-05
1.40329e-07
-5.51646e-05
1.56183e-07
-5.52746e-05
1.71179e-07
-5.53887e-05
1.8452e-07
-5.55072e-05
1.9522e-07
-5.56304e-05
2.02092e-07
-5.57585e-05
2.03756e-07
-5.58919e-05
1.98692e-07
-5.60306e-05
1.8505e-07
-5.61747e-05
1.6111e-07
-5.63249e-05
1.25661e-07
-5.64811e-05
7.71756e-08
-5.66435e-05
1.44629e-08
-5.68122e-05
-6.24211e-08
-5.69857e-05
-1.52374e-07
-5.71601e-05
-2.52854e-07
-5.733e-05
-3.5768e-07
-5.74849e-05
-4.59249e-07
-5.76074e-05
-5.46952e-07
-5.7669e-05
-6.08479e-07
-5.76303e-05
-6.28136e-07
-5.7407e-05
-5.69424e-07
-5.68402e-05
-3.60871e-07
-5.56848e-05
1.01736e-07
-5.35043e-05
1.00484e-06
-4.96151e-05
2.54706e-06
4.43921e-06
-4.34989e-05
-5.089e-05
1.88304e-08
-5.09394e-05
2.2533e-08
-5.09996e-05
2.55951e-08
-5.10667e-05
2.7703e-08
-5.11377e-05
2.90916e-08
-5.12104e-05
3.00194e-08
-5.12838e-05
3.0591e-08
-5.13569e-05
3.09256e-08
-5.14293e-05
3.10819e-08
-5.15009e-05
3.10941e-08
-5.15713e-05
3.09956e-08
-5.16406e-05
3.08126e-08
-5.17086e-05
3.05703e-08
-5.17754e-05
3.02827e-08
-5.18409e-05
2.99701e-08
-5.19053e-05
2.96394e-08
-5.19684e-05
2.9312e-08
-5.20303e-05
2.89854e-08
-5.20911e-05
2.86791e-08
-5.21508e-05
2.83768e-08
-5.22094e-05
2.80955e-08
-5.2267e-05
2.7822e-08
-5.23236e-05
2.76041e-08
-5.23793e-05
2.74166e-08
-5.2434e-05
2.72036e-08
-5.2488e-05
2.69371e-08
-5.25412e-05
2.66614e-08
-5.25936e-05
2.63718e-08
-5.26455e-05
2.60486e-08
-5.26967e-05
2.5701e-08
-5.27475e-05
2.54221e-08
-5.27978e-05
2.52195e-08
-5.28478e-05
2.50375e-08
-5.28975e-05
2.48366e-08
-5.2947e-05
2.4611e-08
-5.29963e-05
2.43719e-08
-5.30456e-05
2.41088e-08
-5.30948e-05
2.38414e-08
-5.3144e-05
2.35759e-08
-5.31934e-05
2.33151e-08
-5.3243e-05
2.30634e-08
-5.32928e-05
2.28285e-08
-5.33428e-05
2.26244e-08
-5.33933e-05
2.24683e-08
-5.34442e-05
2.23731e-08
-5.34956e-05
2.23634e-08
-5.35476e-05
2.24689e-08
-5.36002e-05
2.27001e-08
-5.36535e-05
2.30842e-08
-5.37076e-05
2.3669e-08
-5.37625e-05
2.44769e-08
-5.38183e-05
2.55712e-08
-5.38751e-05
2.6986e-08
-5.39328e-05
2.87504e-08
-5.39916e-05
3.09072e-08
-5.40516e-05
3.35706e-08
-5.41129e-05
3.68699e-08
-5.41755e-05
4.08327e-08
-5.42395e-05
4.54827e-08
-5.4305e-05
5.08866e-08
-5.4372e-05
5.70829e-08
-5.44408e-05
6.40823e-08
-5.45117e-05
7.24974e-08
-5.45835e-05
8.2713e-08
-5.46576e-05
9.30307e-08
-5.4734e-05
1.04374e-07
-5.48126e-05
1.1696e-07
-5.48938e-05
1.30835e-07
-5.49775e-05
1.45991e-07
-5.50642e-05
1.62357e-07
-5.5154e-05
1.8032e-07
-5.52462e-05
1.99855e-07
-5.53419e-05
2.19584e-07
-5.54413e-05
2.39482e-07
-5.55447e-05
2.59311e-07
-5.56524e-05
2.78512e-07
-5.57645e-05
2.9633e-07
-5.58815e-05
3.11813e-07
-5.60036e-05
3.23808e-07
-5.61313e-05
3.30973e-07
-5.62648e-05
3.31781e-07
-5.64048e-05
3.24493e-07
-5.65516e-05
3.07401e-07
-5.67055e-05
2.79019e-07
-5.6866e-05
2.37019e-07
-5.70327e-05
1.80509e-07
-5.7205e-05
1.09205e-07
-5.73808e-05
2.27104e-08
-5.75579e-05
-7.64796e-08
-5.77302e-05
-1.86112e-07
-5.78863e-05
-3.03902e-07
-5.80084e-05
-4.25708e-07
-5.80682e-05
-5.49428e-07
-5.80215e-05
-6.75669e-07
-5.77873e-05
-8.04516e-07
-5.72042e-05
-9.45009e-07
-5.59972e-05
-1.10644e-06
-5.36946e-05
-1.29897e-06
-4.96099e-05
-1.5387e-06
-1.7639e-06
-4.3407e-05
-5.06827e-05
5.59353e-08
-5.07319e-05
7.17622e-08
-5.07922e-05
8.59477e-08
-5.08597e-05
9.51189e-08
-5.09311e-05
1.00587e-07
-5.10047e-05
1.03608e-07
-5.10792e-05
1.05024e-07
-5.11537e-05
1.0545e-07
-5.12278e-05
1.05223e-07
-5.13013e-05
1.04573e-07
-5.1374e-05
1.03634e-07
-5.14457e-05
1.02512e-07
-5.15163e-05
1.01265e-07
-5.1586e-05
9.99371e-08
-5.16546e-05
9.85672e-08
-5.17221e-05
9.71703e-08
-5.17886e-05
9.57809e-08
-5.1854e-05
9.43997e-08
-5.19184e-05
9.3056e-08
-5.19817e-05
9.17289e-08
-5.20441e-05
9.0452e-08
-5.21055e-05
8.92018e-08
-5.21659e-05
8.80312e-08
-5.22254e-05
8.68945e-08
-5.2284e-05
8.58064e-08
-5.23418e-05
8.47137e-08
-5.23988e-05
8.36743e-08
-5.2455e-05
8.26424e-08
-5.25106e-05
8.16151e-08
-5.25654e-05
8.05355e-08
-5.26197e-05
7.96322e-08
-5.26733e-05
7.88966e-08
-5.27266e-05
7.82636e-08
-5.27794e-05
7.76323e-08
-5.28318e-05
7.70581e-08
-5.28839e-05
7.65013e-08
-5.29359e-05
7.60245e-08
-5.29876e-05
7.56077e-08
-5.30393e-05
7.52481e-08
-5.30909e-05
7.49597e-08
-5.31426e-05
7.47536e-08
-5.31944e-05
7.46369e-08
-5.32464e-05
7.46179e-08
-5.32987e-05
7.47167e-08
-5.33513e-05
7.49438e-08
-5.34042e-05
7.53249e-08
-5.34577e-05
7.58865e-08
-5.35116e-05
7.66433e-08
-5.35662e-05
7.76253e-08
-5.36214e-05
7.88711e-08
-5.36773e-05
8.04103e-08
-5.3734e-05
8.22934e-08
-5.37916e-05
8.45609e-08
-5.38501e-05
8.724e-08
-5.39096e-05
9.03627e-08
-5.39701e-05
9.40819e-08
-5.40318e-05
9.85587e-08
-5.40948e-05
1.03797e-07
-5.41592e-05
1.09788e-07
-5.42249e-05
1.16606e-07
-5.42922e-05
1.24306e-07
-5.43611e-05
1.33025e-07
-5.44318e-05
1.43163e-07
-5.45039e-05
1.54699e-07
-5.45779e-05
1.67001e-07
-5.4654e-05
1.80451e-07
-5.47323e-05
1.9524e-07
-5.4813e-05
2.11447e-07
-5.48962e-05
2.2909e-07
-5.49821e-05
2.48217e-07
-5.50708e-05
2.69003e-07
-5.51623e-05
2.91204e-07
-5.52569e-05
3.1416e-07
-5.53552e-05
3.37681e-07
-5.54574e-05
3.61428e-07
-5.55639e-05
3.84833e-07
-5.56748e-05
4.07179e-07
-5.57907e-05
4.27554e-07
-5.59118e-05
4.44853e-07
-5.60387e-05
4.57771e-07
-5.61719e-05
4.64813e-07
-5.63118e-05
4.64301e-07
-5.6459e-05
4.54522e-07
-5.66138e-05
4.33639e-07
-5.67764e-05
3.99517e-07
-5.69467e-05
3.50679e-07
-5.71225e-05
2.84887e-07
-5.73015e-05
2.01698e-07
-5.74793e-05
1.01195e-07
-5.76503e-05
-1.51293e-08
-5.78057e-05
-1.48504e-07
-5.7927e-05
-3.0443e-07
-5.7987e-05
-4.89332e-07
-5.79411e-05
-7.2153e-07
-5.77065e-05
-1.03895e-06
-5.71352e-05
-1.51598e-06
-5.59562e-05
-2.2851e-06
-5.36908e-05
-3.56398e-06
-4.96572e-05
-5.57166e-06
-7.91909e-06
-4.35014e-05
-4.89438e-05
8.34259e-08
-4.89918e-05
1.19781e-07
-4.90519e-05
1.45995e-07
-4.91199e-05
1.6318e-07
-4.91932e-05
1.73846e-07
-4.92698e-05
1.80191e-07
-4.93486e-05
1.83851e-07
-4.9429e-05
1.85804e-07
-4.95104e-05
1.86687e-07
-4.95927e-05
1.86879e-07
-4.96757e-05
1.86621e-07
-4.97593e-05
1.86059e-07
-4.98433e-05
1.85294e-07
-4.99277e-05
1.84376e-07
-5.00125e-05
1.83363e-07
-5.00976e-05
1.82269e-07
-5.0183e-05
1.81132e-07
-5.02685e-05
1.79957e-07
-5.03542e-05
1.78769e-07
-5.04401e-05
1.77549e-07
-5.05259e-05
1.76327e-07
-5.06118e-05
1.75085e-07
-5.06977e-05
1.73855e-07
-5.07834e-05
1.72609e-07
-5.08689e-05
1.71383e-07
-5.09544e-05
1.70128e-07
-5.10396e-05
1.68887e-07
-5.11245e-05
1.67611e-07
-5.12092e-05
1.66306e-07
-5.12936e-05
1.64894e-07
-5.13775e-05
1.63513e-07
-5.14607e-05
1.62102e-07
-5.15431e-05
1.60649e-07
-5.16246e-05
1.59138e-07
-5.17052e-05
1.57684e-07
-5.17849e-05
1.56253e-07
-5.18639e-05
1.54932e-07
-5.19419e-05
1.53677e-07
-5.20192e-05
1.52516e-07
-5.20957e-05
1.5146e-07
-5.21715e-05
1.50535e-07