/*--------------------------------*- C++ -*----------------------------------*\
| =========                 |                                                 |
| \\      /  F ield         | OpenFOAM: The Open Source CFD Toolbox           |
|  \\    /   O peration     | Version:  2.1.0                                 |
|   \\  /    A nd           | Web:      www.OpenFOAM.org                      |
|    \\/     M anipulation  |                                                 |
\*---------------------------------------------------------------------------*/
FoamFile
{
    version     2.0;
    format      ascii;
    class       volScalarField;
    location    "0.18";
    object      rho;
}
// * * * * * * * * * * * * * * * * * * * * * * * * * * * * * * * * * * * * * //

dimensions      [1 -3 0 0 0 0 0];

internalField   nonuniform List<scalar> 
6400
(
1000
1000
1000
1000
1000
1000
1000
1000
1000
1000
1000
1000
1000
1000
1000
1000
1000
1000
1000
1000
1000
1000
1000
1000
1000
1000
1000
1000
1000
1000
1000
1000
1000
1000
1000
1000
1000
1000
1000
1000
1000
1000
1000
1000
1000
1000
1000
1000
1000
1000
1000
1000
1000
1000
1000
1000
1000
1000
1000
1000
999.999
999.999
999.999
999.999
999.999
999.999
999.998
999.998
999.998
999.997
999.997
999.996
999.996
999.995
999.994
999.993
999.991
999.989
999.987
999.985
999.982
999.979
999.975
999.97
999.964
999.956
999.948
999.937
999.925
999.912
999.897
999.883
999.875
999.883
999.914
999.903
999.567
998.313
996.324
994.689
1000
1000
1000
1000
1000
1000
1000
1000
1000
1000
1000
1000
1000
1000
1000
1000
1000
1000
1000
1000
1000
1000
1000
1000
1000
1000
1000
1000
1000
1000
1000
1000
1000
1000
1000
1000
1000
1000
1000
1000
1000
1000
1000
1000
1000
1000
1000
1000
1000
1000
1000
1000
999.999
999.999
999.999
999.999
999.999
999.999
999.998
999.998
999.998
999.997
999.997
999.996
999.995
999.994
999.993
999.992
999.99
999.988
999.986
999.983
999.979
999.975
999.97
999.964
999.957
999.949
999.939
999.927
999.912
999.895
999.874
999.848
999.817
999.781
999.736
999.684
999.62
999.544
999.452
999.337
999.187
998.976
998.656
998.161
997.467
996.534
995.413
994.336
1000
1000
1000
1000
1000
1000
1000
1000
1000
1000
1000
1000
1000
1000
1000
1000
1000
1000
1000
1000
1000
1000
1000
1000
1000
1000
1000
1000
1000
1000
1000
1000
1000
1000
1000
1000
1000
1000
1000
1000
1000
1000
1000
1000
1000
1000
1000
1000
999.999
999.999
999.999
999.999
999.999
999.998
999.998
999.998
999.997
999.997
999.996
999.995
999.994
999.993
999.991
999.989
999.987
999.984
999.981
999.977
999.973
999.968
999.961
999.953
999.944
999.933
999.919
999.903
999.884
999.861
999.833
999.799
999.759
999.712
999.655
999.587
999.506
999.411
999.298
999.167
999.012
998.833
998.624
998.38
998.096
997.762
997.368
996.904
996.354
995.703
994.967
994.22
1000
1000
1000
1000
1000
1000
1000
1000
1000
1000
1000
1000
1000
1000
1000
1000
1000
1000
1000
1000
1000
1000
1000
1000
1000
1000
1000
1000
1000
1000
1000
1000
1000
1000
1000
1000
1000
1000
1000
1000
1000
1000
1000
1000
999.999
999.999
999.999
999.999
999.999
999.998
999.998
999.997
999.997
999.996
999.995
999.994
999.993
999.992
999.99
999.988
999.986
999.983
999.979
999.975
999.97
999.964
999.957
999.948
999.938
999.926
999.911
999.894
999.874
999.85
999.821
999.788
999.749
999.704
999.651
999.59
999.519
999.437
999.344
999.237
999.116
998.979
998.825
998.652
998.458
998.243
998.003
997.738
997.444
997.12
996.763
996.373
995.937
995.452
994.932
994.419
1000
1000
1000
1000
1000
1000
1000
1000
1000
1000
1000
1000
1000
1000
1000
1000
1000
1000
1000
1000
1000
1000
1000
1000
1000
1000
1000
1000
1000
1000
1000
1000
1000
1000
1000
1000
1000
1000
1000
1000
999.999
999.999
999.999
999.999
999.999
999.998
999.998
999.998
999.997
999.996
999.996
999.995
999.994
999.992
999.991
999.989
999.986
999.984
999.98
999.976
999.971
999.966
999.959
999.951
999.942
999.931
999.919
999.904
999.887
999.867
999.843
999.817
999.786
999.75
999.71
999.664
999.611
999.552
999.485
999.41
999.325
999.231
999.126
999.01
998.881
998.739
998.582
998.41
998.222
998.016
997.791
997.546
997.281
996.994
996.687
996.361
996.011
995.643
995.274
994.96
1000
1000
1000
1000
1000
1000
1000
1000
1000
1000
1000
1000
1000
1000
1000
1000
1000
1000
1000
1000
1000
1000
1000
1000
1000
1000
1000
1000
1000
1000
1000
1000
1000
1000
1000
1000
1000
999.999
999.999
999.999
999.999
999.999
999.998
999.998
999.998
999.997
999.997
999.996
999.995
999.994
999.993
999.991
999.989
999.987
999.985
999.982
999.978
999.974
999.969
999.963
999.957
999.949
999.94
999.929
999.917
999.904
999.888
999.87
999.849
999.826
999.799
999.77
999.736
999.698
999.655
999.608
999.555
999.497
999.432
999.36
999.281
999.194
999.098
998.994
998.879
998.754
998.617
998.469
998.306
998.13
997.938
997.731
997.507
997.267
997.012
996.746
996.469
996.194
995.945
995.79
1000
1000
1000
1000
1000
1000
1000
1000
1000
1000
1000
1000
1000
1000
1000
1000
1000
1000
1000
1000
1000
1000
1000
1000
1000
1000
1000
1000
1000
1000
1000
1000
1000
1000
1000
999.999
999.999
999.999
999.999
999.999
999.999
999.998
999.998
999.997
999.997
999.996
999.995
999.994
999.993
999.992
999.991
999.989
999.987
999.984
999.981
999.978
999.974
999.97
999.965
999.959
999.952
999.945
999.936
999.926
999.915
999.902
999.888
999.872
999.854
999.833
999.811
999.785
999.757
999.726
999.691
999.652
999.61
999.563
999.511
999.455
999.393
999.325
999.251
999.169
999.081
998.984
998.878
998.763
998.637
998.5
998.351
998.189
998.015
997.827
997.627
997.419
997.21
997.012
996.855
996.805
1000
1000
1000
1000
1000
1000
1000
1000
1000
1000
1000
1000
1000
1000
1000
1000
1000
1000
1000
1000
1000
1000
1000
1000
1000
1000
1000
1000
1000
1000
1000
1000
1000
1000
1000
999.999
999.999
999.999
999.999
999.999
999.998
999.998
999.998
999.997
999.997
999.996
999.996
999.995
999.994
999.993
999.992
999.99
999.989
999.987
999.985
999.982
999.979
999.976
999.972
999.968
999.964
999.958
999.952
999.945
999.938
999.929
999.92
999.909
999.897
999.884
999.869
999.852
999.834
999.813
999.791
999.766
999.739
999.708
999.675
999.638
999.598
999.554
999.505
999.453
999.395
999.331
999.262
999.186
999.102
999.011
998.91
998.8
998.68
998.55
998.409
998.26
998.113
997.98
997.885
997.883
1000
1000
1000
1000
1000
1000
1000
1000
1000
1000
1000
1000
1000
1000
1000
1000
1000
1000
1000
1000
1000
1000
1000
1000
1000
1000
1000
1000
1000
1000
1000
1000
1000
1000
1000
1000
999.999
999.999
999.999
999.999
999.999
999.999
999.998
999.998
999.998
999.997
999.997
999.997
999.996
999.995
999.995
999.994
999.993
999.992
999.99
999.989
999.987
999.986
999.984
999.981
999.979
999.976
999.972
999.969
999.964
999.96
999.955
999.949
999.942
999.935
999.927
999.918
999.909
999.898
999.886
999.873
999.859
999.843
999.826
999.807
999.787
999.765
999.74
999.713
999.684
999.651
999.616
999.578
999.536
999.489
999.438
999.381
999.319
999.25
999.173
999.09
999.003
998.926
998.874
998.881
1000
1000
1000
1000
1000
1000
1000
1000
1000
1000
1000
1000
1000
1000
1000
1000
1000
1000
1000
1000
1000
1000
1000
1000
1000
1000
1000
1000
1000
1000
1000
1000
1000
1000
1000
1000
1000
1000
1000
999.999
999.999
999.999
999.999
999.999
999.999
999.999
999.998
999.998
999.998
999.998
999.997
999.997
999.996
999.996
999.995
999.994
999.994
999.993
999.992
999.991
999.989
999.988
999.986
999.984
999.982
999.98
999.978
999.975
999.972
999.969
999.965
999.961
999.957
999.953
999.948
999.942
999.936
999.93
999.923
999.916
999.908
999.9
999.891
999.881
999.871
999.86
999.849
999.836
999.823
999.809
999.794
999.778
999.762
999.743
999.724
999.703
999.681
999.657
999.642
999.647
1000
1000
1000
1000
1000
1000
1000
1000
1000
1000
1000
1000
1000
1000
1000
1000
1000
1000
1000
1000
1000
1000
1000
1000
1000
1000
1000
1000
1000
1000
1000
1000
1000
1000
1000
1000
1000
1000
1000
1000
1000
1000
1000
1000
999.999
999.999
999.999
999.999
999.999
999.999
999.999
999.999
999.998
999.998
999.998
999.998
999.997
999.997
999.996
999.996
999.995
999.995
999.994
999.994
999.993
999.992
999.991
999.99
999.989
999.988
999.987
999.985
999.984
999.982
999.981
999.979
999.977
999.976
999.974
999.972
999.97
999.968
999.966
999.965
999.963
999.961
999.959
999.958
999.956
999.955
999.954
999.953
999.953
999.953
999.954
999.955
999.958
999.961
999.965
999.97
1000
1000
1000
1000
1000
1000
1000
1000
1000
1000
1000
1000
1000
1000
1000
1000
1000
1000
1000
1000
1000
1000
1000
1000
1000
1000
1000
1000
1000
1000
1000
1000
1000
1000
1000
1000
1000
1000
1000
1000
1000
1000
1000
1000
1000
1000
1000
1000
1000
1000
1000
999.999
999.999
999.999
999.999
999.999
999.999
999.999
999.999
999.999
999.999
999.998
999.998
999.998
999.998
999.998
999.997
999.997
999.997
999.996
999.996
999.996
999.996
999.995
999.995
999.995
999.994
999.994
999.994
999.994
999.994
999.993
999.993
999.993
999.993
999.994
999.994
999.994
999.994
999.994
999.995
999.995
999.995
999.996
999.996
999.997
999.997
999.998
999.998
999.999
1000
1000
1000
1000
1000
1000
1000
1000
1000
1000
1000
1000
1000
1000
1000
1000
1000
1000
1000
1000
1000
1000
1000
1000
1000
1000
1000
1000
1000
1000
1000
1000
1000
1000
1000
1000
1000
1000
1000
1000
1000
1000
1000
1000
1000
1000
1000
1000
1000
1000
1000
1000
1000
1000
1000
1000
1000
1000
1000
1000
1000
1000
1000
1000
999.999
999.999
999.999
999.999
999.999
999.999
999.999
999.999
999.999
999.999
999.999
999.999
999.999
999.999
999.999
999.999
999.999
999.999
999.999
999.999
999.999
999.999
999.999
1000
1000
1000
1000
1000
1000
1000
1000
1000
1000
1000
1000
1000
1000
1000
1000
1000
1000
1000
1000
1000
1000
1000
1000
1000
1000
1000
1000
1000
1000
1000
1000
1000
1000
1000
1000
1000
1000
1000
1000
1000
1000
1000
1000
1000
1000
1000
1000
1000
1000
1000
1000
1000
1000
1000
1000
1000
1000
1000
1000
1000
1000
1000
1000
1000
1000
1000
1000
1000
1000
1000
1000
1000
1000
1000
1000
1000
1000
1000
1000
1000
1000
1000
1000
1000
1000
1000
1000
1000
1000
1000
1000
1000
1000
1000
1000
1000
1000
1000
1000
1000
1000
1000
1000
1000
1000
1000
1000
1000
1000
1000
1000
1000
1000
1000
1000
1000
1000
1000
1000
1000
1000
1000
1000
1000
1000
1000
1000
1000
1000
1000
1000
1000
1000
1000
1000
1000
1000
1000
1000
1000
1000
1000
1000
1000
1000
1000
1000
1000
1000
1000
1000
1000
1000
1000
1000
1000
1000
1000
1000
1000
1000
1000
1000
1000
1000
1000
1000
1000
1000
1000
1000
1000
1000
1000
1000
1000
1000
1000
1000
1000
1000
1000
1000
1000
1000
1000
1000
1000
1000
1000
1000
1000
1000
1000
1000
1000
1000
1000
1000
1000
1000
1000
1000
1000
1000
1000
1000
1000
1000
1000
1000
1000
1000
1000
1000
1000
1000
1000
1000
1000
1000
1000
1000
1000
1000
1000
1000
1000
1000
1000
1000
1000
1000
1000
1000
1000
1000
1000
1000
1000
1000
1000
1000
1000
1000
1000
1000
1000
1000
1000
1000
1000
1000
1000
1000
1000
1000
1000
1000
1000
1000
1000
1000
1000
1000
1000
1000
1000
1000
1000
1000
1000
1000
1000
1000
1000
1000
1000
1000
1000
1000
1000
1000
1000
1000
1000
1000
1000
1000
1000
1000
1000
1000
1000
1000
1000
1000
1000
1000
1000
1000
1000
1000
1000
1000
1000
1000
1000
1000
1000
1000
1000
1000
1000
1000
1000
1000
1000
1000
1000
1000
1000
1000
1000
1000
1000
1000
1000
1000
1000
1000
1000
1000
1000
1000
1000
1000
1000
1000
1000
1000
1000
1000
1000
1000
1000
1000
1000
1000
1000
1000
1000
1000
1000
1000
1000
1000
1000
1000
1000
1000
1000
1000
1000
1000
1000
1000
1000
1000
1000
1000
1000
1000
1000
1000
1000
1000
1000
1000
1000
1000
1000
1000
1000
1000
1000
1000
1000
1000
1000
1000
1000
1000
1000
1000
1000
1000
1000
1000
1000
1000
1000
1000
1000
1000
1000
1000
1000
1000
1000
1000
1000
1000
1000
1000
1000
1000
1000
1000
1000
1000
1000
1000
1000
1000
1000
1000
1000
1000
1000
1000
1000
1000
1000
1000
1000
1000
1000
1000
1000
1000
1000
1000
1000
1000
1000
1000
1000
1000
1000
1000
1000
1000
1000
1000
1000
1000
1000
1000
1000
1000
1000
1000
1000
1000
1000
1000
1000
1000
1000
1000
1000
1000
1000
1000
1000
1000
1000
1000
1000
1000
1000
1000
1000
1000
1000
1000
1000
1000
1000
1000
1000
1000
1000
1000
1000
1000
1000
1000
1000
1000
1000
1000
1000
1000
1000
1000
1000
1000
1000
1000
1000
1000
1000
1000
1000
1000
1000
1000
1000
1000
1000
1000
1000
1000
1000
1000
1000
1000
1000
1000
1000
1000
1000
1000
1000
1000
1000
1000
1000
1000
1000
1000
1000
1000
1000
1000
1000
1000
1000
1000
1000
1000
1000
1000
1000
1000
1000
1000
1000
1000
1000
1000
1000
1000
1000
1000
1000
1000
1000
1000
1000
1000
1000
1000
1000
1000
1000
1000
1000
1000
1000
1000
1000
1000
1000
1000
1000
1000
1000
1000
1000
1000
1000
1000
1000
1000
1000
1000
1000
1000
1000
1000
1000
1000
1000
1000
1000
1000
1000
1000
1000
1000
1000
1000
1000
1000
1000
1000
1000
1000
1000
1000
1000
1000
1000
1000
1000
1000
1000
1000
1000
1000
1000
1000
1000
1000
1000
1000
1000
1000
1000
1000
1000
1000
1000
1000
1000
1000
1000
1000
1000
1000
1000
1000
1000
1000
1000
1000
1000
1000
1000
1000
1000
1000
1000
1000
1000
1000
1000
1000
1000
1000
1000
1000
1000
1000
1000
1000
1000
1000
1000
1000
1000
1000
1000
1000
1000
1000
1000
1000
1000
1000
1000
1000
1000
1000
1000
1000
1000
1000
1000
1000
1000
1000
1000
1000
1000
1000
1000
1000
1000
993.861
991.945
991.946
992.525
993.122
993.611
993.973
994.222
994.385
994.492
994.57
994.649
994.764
994.962
995.305
995.858
996.673
997.733
998.884
999.8
993.507
992.471
992.741
993.35
993.914
994.358
994.683
994.911
995.071
995.188
995.289
995.4
995.555
995.792
996.158
996.696
997.426
998.314
999.217
999.879
993.546
993.207
993.631
994.209
994.71
995.098
995.385
995.593
995.75
995.879
996.002
996.142
996.327
996.588
996.955
997.453
998.082
998.8
999.481
999.934
994.028
994.121
994.589
995.091
995.511
995.837
996.085
996.275
996.43
996.569
996.709
996.869
997.071
997.335
997.68
998.117
998.636
999.192
999.682
999.968
994.86
995.144
995.572
995.978
996.313
996.578
996.789
996.962
997.113
997.255
997.403
997.569
997.769
998.015
998.319
998.68
999.087
999.494
999.825
999.987
995.894
996.205
996.548
996.855
997.111
997.322
997.498
997.651
997.791
997.926
998.067
998.222
998.401
998.612
998.858
999.138
999.435
999.712
999.917
999.996
996.993
997.245
997.493
997.712
997.899
998.059
998.198
998.323
998.44
998.555
998.674
998.803
998.947
999.11
999.292
999.489
999.686
999.857
999.968
999.999
998.055
998.223
998.382
998.522
998.646
998.754
998.852
998.942
999.028
999.113
999.2
999.292
999.391
999.499
999.616
999.736
999.851
999.942
999.99
1000
998.985
999.072
999.154
999.228
999.295
999.356
999.413
999.466
999.516
999.565
999.614
999.664
999.717
999.773
999.832
999.892
999.945
999.983
999.998
1000
999.684
999.711
999.738
999.763
999.787
999.808
999.828
999.845
999.862
999.877
999.892
999.907
999.923
999.939
999.957
999.974
999.989
999.997
1000
1000
999.976
999.978
999.98
999.982
999.984
999.986
999.988
999.989
999.991
999.992
999.993
999.994
999.996
999.997
999.998
999.999
1000
1000
1000
1000
999.999
999.999
999.999
999.999
999.999
999.999
999.999
999.999
1000
1000
1000
1000
1000
1000
1000
1000
1000
1000
1000
1000
1000
1000
1000
1000
1000
1000
1000
1000
1000
1000
1000
1000
1000
1000
1000
1000
1000
1000
1000
1000
1000
1000
1000
1000
1000
1000
1000
1000
1000
1000
1000
1000
1000
1000
1000
1000
1000
1000
1000
1000
1000
1000
1000
1000
1000
1000
1000
1000
1000
1000
1000
1000
1000
1000
1000
1000
1000
1000
1000
1000
1000
1000
1000
1000
1000
1000
1000
1000
1000
1000
1000
1000
1000
1000
1000
1000
1000
1000
1000
1000
1000
1000
1000
1000
1000
1000
1000
1000
1000
1000
1000
1000
1000
1000
1000
1000
1000
1000
1000
1000
1000
1000
1000
1000
1000
1000
1000
1000
1000
1000
1000
1000
1000
1000
1000
1000
1000
1000
1000
1000
1000
1000
1000
1000
1000
1000
1000
1000
1000
1000
1000
1000
1000
1000
1000
1000
1000
1000
1000
1000
1000
1000
1000
1000
1000
1000
1000
1000
1000
1000
1000
1000
1000
1000
1000
1000
1000
1000
1000
1000
944.555
944.555
944.555
944.555
944.555
944.555
944.555
944.555
944.555
944.555
944.555
944.555
944.555
944.555
944.555
944.555
944.555
944.555
944.555
944.555
944.555
944.555
944.555
944.555
944.555
944.555
944.555
944.555
944.555
944.555
944.555
944.555
944.555
944.555
944.555
944.555
944.555
944.555
944.555
944.555
944.555
944.555
944.555
944.555
944.555
944.555
944.555
944.555
944.555
944.555
944.555
944.555
944.555
944.555
944.555
944.555
944.555
944.555
944.555
944.555
944.555
944.555
944.555
944.555
944.555
944.555
944.555
944.555
944.555
944.555
944.555
944.555
944.555
944.555
944.555
944.555
944.555
944.555
944.555
944.555
944.555
944.555
944.555
944.555
944.555
944.555
944.555
944.555
944.555
944.555
944.555
944.555
944.555
944.555
944.555
944.555
944.555
944.555
944.555
944.555
944.555
944.555
944.555
944.555
944.555
944.555
944.555
944.555
944.555
944.555
944.555
944.555
944.555
944.555
944.555
944.555
944.555
944.555
944.555
944.555
944.555
944.555
944.555
944.555
944.555
944.555
944.555
944.555
944.555
944.555
944.555
944.555
944.555
944.555
944.555
944.555
944.555
944.555
944.555
944.555
944.555
944.555
944.555
944.555
944.555
944.555
944.555
944.555
944.555
944.555
944.555
944.555
944.555
944.555
944.555
944.555
944.555
944.555
944.555
944.555
944.555
944.555
944.555
944.555
944.555
944.555
944.555
944.555
944.555
944.555
944.555
944.555
944.555
944.555
944.555
944.555
944.555
944.555
944.555
944.555
944.555
944.555
944.555
944.555
944.555
944.555
944.555
944.555
944.555
944.555
944.555
944.555
944.555
944.555
944.555
944.555
944.555
944.555
944.555
944.555
944.555
944.555
944.555
944.555
944.555
944.555
944.555
944.555
944.555
944.555
944.555
944.555
944.555
944.555
944.555
944.555
944.555
944.555
944.555
944.555
944.555
944.555
944.555
944.555
944.555
944.555
944.555
944.555
944.555
944.555
944.555
944.555
944.555
944.555
944.555
944.555
944.555
944.555
944.555
944.555
944.555
944.555
944.555
944.555
944.555
944.555
944.555
944.555
944.555
944.555
944.555
944.555
944.555
944.555
944.555
944.555
944.555
944.555
944.555
944.555
944.555
944.555
944.555
944.555
944.555
944.555
944.555
944.555
944.555
944.555
944.555
944.555
944.555
944.555
944.555
944.555
944.555
944.555
944.555
944.555
944.555
944.555
944.555
944.555
944.555
944.555
944.555
944.555
944.555
944.555
944.555
944.555
944.555
944.555
944.555
944.555
944.555
944.555
944.555
944.555
944.555
944.555
944.555
944.555
944.555
944.555
944.555
944.555
944.555
944.555
944.555
944.555
944.555
944.555
944.555
944.555
944.555
944.555
944.555
944.555
944.555
944.555
944.555
944.555
944.555
944.555
944.555
944.555
944.555
944.555
944.555
944.555
944.555
944.555
944.555
944.555
944.555
944.555
944.555
944.555
944.555
944.555
944.555
944.555
944.555
944.555
944.555
944.555
944.555
944.555
944.555
944.555
944.555
944.555
944.555
944.555
944.555
944.555
944.555
944.555
944.555
944.555
944.555
944.555
944.555
944.555
944.555
944.555
944.555
944.555
944.555
944.555
944.555
944.555
944.555
944.555
944.555
944.555
944.555
944.555
944.555
944.555
944.555
944.555
944.555
944.555
944.555
944.555
944.555
944.555
944.555
944.555
944.555
944.555
944.555
944.555
944.555
944.555
944.555
944.555
944.555
944.555
944.555
944.555
944.555
944.555
944.555
944.555
944.555
944.555
944.555
944.555
944.555
944.555
944.555
944.555
944.555
944.555
944.555
944.555
944.555
944.555
944.555
944.555
944.555
944.555
944.555
944.555
944.555
944.555
944.555
944.555
944.555
944.555
944.555
944.555
944.555
944.555
944.555
944.555
944.555
944.555
944.555
944.555
944.555
944.555
944.555
944.555
944.555
944.555
944.555
944.555
944.555
944.555
944.555
944.555
944.555
944.555
944.555
944.555
944.555
944.555
944.555
944.555
944.555
944.555
944.555
944.555
944.555
944.555
944.555
944.555
944.555
944.555
944.555
944.555
944.555
944.555
944.555
944.555
944.555
944.555
944.555
944.555
944.555
944.555
944.555
944.555
944.555
944.555
944.555
944.555
944.555
944.555
944.555
944.555
944.555
944.555
944.555
944.555
944.555
944.555
944.555
944.555
944.555
944.555
944.555
944.555
944.555
944.555
944.555
944.555
944.555
944.555
944.555
944.555
944.555
944.555
944.555
944.555
944.555
944.555
944.555
944.555
944.555
944.555
944.555
944.555
944.555
944.555
944.555
944.555
944.555
944.555
944.555
944.555
944.555
944.555
944.555
944.555
944.555
944.555
944.555
944.555
944.555
944.555
944.555
944.555
944.555
944.555
944.555
944.555
944.555
944.555
944.555
944.555
944.555
944.555
944.555
944.555
944.555
944.555
944.555
944.555
944.555
944.555
944.555
944.555
944.555
944.555
944.555
944.555
944.555
944.555
944.555
944.555
944.555
944.555
944.555
944.555
944.555
944.555
944.555
944.555
944.555
944.555
944.555
944.555
944.555
944.555
944.555
944.555
944.555
944.555
944.555
944.555
944.555
944.555
944.555
944.555
944.555
944.555
944.555
944.555
944.555
944.555
944.555
944.555
944.555
944.555
944.555
944.555
944.555
944.555
944.555
944.555
944.555
944.555
944.555
944.555
944.555
944.555
944.555
944.555
944.555
944.555
944.555
944.555
944.555
944.555
944.555
944.555
944.555
944.555
944.555
944.555
944.555
944.555
944.555
944.555
944.555
944.555
944.555
944.555
944.555
944.555
944.555
944.555
944.555
944.555
944.555
944.555
944.555
944.555
944.555
944.555
944.555
944.555
944.555
944.555
944.555
944.555
944.555
944.555
944.555
944.555
944.555
944.555
944.555
944.555
944.555
944.555
944.555
944.555
944.555
944.555
944.555
944.555
944.555
944.555
944.555
944.555
944.555
944.555
944.555
944.555
944.555
944.555
944.555
944.555
944.555
944.555
944.555
944.555
944.555
944.555
944.555
944.555
944.555
944.555
944.555
944.555
944.555
944.555
944.555
944.555
944.555
944.555
944.555
944.555
944.555
944.555
944.555
944.555
944.555
944.555
944.555
944.555
944.555
944.555
944.555
944.555
944.555
944.555
944.555
944.555
944.555
944.555
944.555
944.555
944.555
944.555
944.555
944.555
944.555
944.555
944.555
944.555
944.555
944.555
944.555
944.555
944.555
944.555
944.555
944.555
944.555
944.555
944.555
944.555
944.555
944.555
944.555
944.555
944.555
944.555
944.555
944.555
944.555
944.555
944.555
944.555
944.555
944.555
944.555
944.555
944.555
944.555
944.555
944.555
944.555
944.555
944.555
944.555
944.555
944.555
944.555
944.555
944.555
944.555
944.555
944.555
944.555
944.555
944.555
944.555
944.555
944.555
944.555
944.555
944.555
944.555
944.555
944.555
944.555
944.555
944.555
944.555
944.555
944.555
944.555
944.555
944.555
944.555
944.555
944.555
944.555
944.555
944.555
944.555
944.555
944.555
944.555
944.555
944.555
944.555
944.555
944.555
944.555
944.555
944.555
944.555
944.555
944.555
944.555
944.555
944.555
944.555
944.555
944.555
944.555
944.555
944.555
944.555
944.555
944.555
944.555
944.555
944.555
944.555
944.555
944.555
944.555
944.555
944.555
944.555
944.555
944.555
944.555
944.555
944.555
944.555
944.555
944.555
944.555
944.555
944.555
944.555
944.555
944.555
944.555
944.555
944.555
944.555
944.555
944.555
944.555
944.555
944.555
944.555
944.555
944.555
944.555
944.555
944.555
944.555
944.555
944.555
944.555
944.555
944.555
944.555
944.555
944.555
944.555
944.555
944.555
944.555
944.555
944.555
944.555
944.555
944.555
944.555
944.555
944.555
944.555
944.555
944.555
944.555
944.555
944.555
944.555
944.555
944.555
944.555
944.555
944.555
944.555
944.555
944.555
944.555
944.555
944.555
944.555
944.555
944.555
944.555
944.555
944.555
944.556
944.555
944.555
944.555
944.555
944.555
944.555
944.555
944.555
944.555
944.555
944.555
944.555
944.555
944.555
944.555
944.555
944.555
944.555
944.556
944.557
944.555
944.555
944.555
944.555
944.555
944.555
944.555
944.555
944.555
944.555
944.555
944.555
944.555
944.555
944.555
944.555
944.555
944.555
944.557
944.559
944.556
944.555
944.555
944.555
944.555
944.555
944.555
944.555
944.555
944.555
944.555
944.555
944.555
944.555
944.555
944.555
944.555
944.556
944.559
944.562
944.556
944.555
944.555
944.555
944.555
944.555
944.555
944.555
944.555
944.555
944.555
944.555
944.555
944.555
944.555
944.555
944.555
944.556
944.562
944.568
944.558
944.556
944.556
944.556
944.556
944.556
944.556
944.556
944.556
944.556
944.556
944.556
944.556
944.556
944.556
944.556
944.556
944.557
944.568
944.576
944.559
944.557
944.556
944.556
944.556
944.557
944.557
944.557
944.557
944.557
944.557
944.557
944.557
944.556
944.556
944.556
944.557
944.559
944.576
944.589
944.562
944.558
944.557
944.557
944.557
944.557
944.558
944.558
944.558
944.558
944.558
944.558
944.557
944.557
944.557
944.557
944.558
944.562
944.589
944.609
944.567
944.56
944.559
944.559
944.559
944.559
944.559
944.559
944.559
944.559
944.559
944.559
944.559
944.559
944.559
944.559
944.56
944.567
944.609
944.64
944.574
944.563
944.561
944.561
944.561
944.561
944.561
944.562
944.562
944.562
944.562
944.561
944.561
944.561
944.561
944.561
944.563
944.574
944.639
944.684
944.585
944.567
944.564
944.564
944.564
944.564
944.565
944.565
944.565
944.565
944.565
944.565
944.564
944.564
944.564
944.564
944.567
944.585
944.683
944.747
944.6
944.574
944.569
944.568
944.568
944.569
944.569
944.57
944.57
944.57
944.57
944.569
944.569
944.568
944.568
944.569
944.574
944.6
944.747
944.836
944.623
944.583
944.576
944.575
944.575
944.576
944.576
944.577
944.577
944.577
944.577
944.576
944.576
944.575
944.575
944.576
944.583
944.622
944.836
944.959
944.654
944.597
944.585
944.584
944.584
944.585
944.586
944.586
944.587
944.587
944.586
944.586
944.585
944.584
944.584
944.585
944.597
944.654
944.958
945.125
944.698
944.617
944.599
944.597
944.597
944.598
944.599
944.6
944.6
944.6
944.6
944.599
944.598
944.597
944.597
944.599
944.617
944.698
945.125
945.346
944.758
944.644
944.619
944.615
944.615
944.616
944.618
944.619
944.619
944.619
944.619
944.618
944.616
944.615
944.615
944.619
944.644
944.758
945.346
945.635
944.839
944.681
944.646
944.639
944.64
944.641
944.643
944.644
944.645
944.645
944.644
944.643
944.641
944.64
944.64
944.646
944.681
944.838
945.635
946.006
944.945
944.731
944.682
944.673
944.673
944.676
944.678
944.679
944.68
944.68
944.679
944.678
944.676
944.674
944.674
944.683
944.731
944.945
946.007
946.475
945.084
944.797
944.732
944.719
944.719
944.722
944.724
944.727
944.728
944.728
944.727
944.725
944.722
944.719
944.72
944.732
944.798
945.085
946.476
947.058
945.263
944.886
944.798
944.781
944.78
944.783
944.787
944.789
944.791
944.791
944.789
944.787
944.783
944.78
944.781
944.799
944.886
945.264
947.06
947.77
945.49
945
944.885
944.862
944.86
944.864
944.868
944.872
944.874
944.874
944.872
944.869
944.864
944.861
944.862
944.886
945.002
945.492
947.774
948.626
945.773
945.148
944.998
944.967
944.965
944.97
944.975
944.98
944.982
944.982
944.98
944.976
944.97
944.966
944.969
945
945.15
945.777
948.634
949.642
946.123
945.335
945.145
945.105
945.101
945.107
945.113
945.119
945.122
945.122
945.119
945.114
945.108
945.102
945.106
945.147
945.339
946.129
949.654
950.826
946.548
945.571
945.331
945.28
945.275
945.282
945.29
945.296
945.3
945.3
945.297
945.291
945.283
945.277
945.282
945.334
945.577
946.559
950.845
952.189
947.06
945.864
945.566
945.502
945.496
945.503
945.513
945.521
945.525
945.526
945.522
945.515
945.505
945.498
945.505
945.571
945.873
947.077
952.215
953.732
947.667
946.224
945.86
945.781
945.772
945.781
945.793
945.802
945.808
945.808
945.803
945.795
945.783
945.775
945.785
945.867
946.237
947.693
953.769
955.455
948.383
946.663
946.223
946.126
946.114
946.125
946.139
946.15
946.157
946.157
946.152
946.142
946.128
946.119
946.132
946.232
946.68
948.42
955.506
957.352
949.217
947.192
946.666
946.548
946.534
946.547
946.563
946.577
946.585
946.585
946.579
946.567
946.551
946.541
946.557
946.678
947.214
949.266
957.417
959.41
950.181
947.823
947.201
947.061
947.044
947.058
947.078
947.094
947.103
947.104
947.097
947.083
947.065
947.052
947.072
947.217
947.851
950.242
959.492
961.613
951.281
948.568
947.84
947.676
947.655
947.672
947.695
947.714
947.725
947.727
947.718
947.702
947.681
947.667
947.691
947.861
948.603
951.357
961.711
963.938
952.524
949.436
948.596
948.405
948.381
948.401
948.428
948.451
948.464
948.465
948.456
948.436
948.412
948.396
948.424
948.623
949.48
952.616
964.053
966.358
953.911
950.438
949.478
949.259
949.232
949.256
949.289
949.315
949.331
949.333
949.322
949.3
949.272
949.253
949.285
949.513
950.495
954.024
966.49
968.845
955.443
951.579
950.496
950.249
950.221
950.249
950.288
950.319
950.338
950.341
950.328
950.302
950.27
950.248
950.284
950.542
951.654
955.582
968.994
971.366
957.113
952.865
951.658
951.384
951.355
951.39
951.436
951.473
951.495
951.499
951.484
951.455
951.417
951.39
951.429
951.719
952.963
957.289
971.534
973.889
958.914
954.296
952.968
952.669
952.642
952.685
952.74
952.784
952.81
952.815
952.799
952.764
952.72
952.687
952.727
953.047
954.426
959.139
974.08
976.379
960.832
955.869
954.427
954.108
954.085
954.139
954.204
954.257
954.288
954.294
954.276
954.236
954.183
954.142
954.181
954.53
956.042
961.124
976.601
978.802
962.854
957.578
956.033
955.699
955.684
955.752
955.83
955.893
955.93
955.938
955.917
955.87
955.808
955.757
955.792
956.167
957.806
963.231
979.065
981.128
964.96
959.411
957.779
957.436
957.436
957.52
957.614
957.689
957.733
957.744
957.719
957.664
957.59
957.527
957.555
957.951
959.711
965.446
981.445
983.328
967.131
961.353
959.652
959.312
959.33
959.435
959.547
959.636
959.69
959.703
959.675
959.611
959.523
959.444
959.461
959.872
961.742
967.749
983.715
985.381
969.343
963.385
961.637
961.31
961.352
961.482
961.615
961.721
961.786
961.804
961.772
961.697
961.593
961.495
961.498
961.917
963.884
970.118
985.853
987.264
971.571
965.484
963.716
963.414
963.485
963.639
963.793
963.919
964.001
964.027
963.995
963.909
963.786
963.665
963.648
964.068
966.117
972.532
987.839
988.953
973.79
967.629
965.867
965.603
965.706
965.882
966.061
966.214
966.314
966.349
966.319
966.224
966.082
965.935
965.893
966.307
968.426
974.967
989.656
990.426
975.966
969.804
968.073
967.857
967.988
968.19
968.408
968.591
968.708
968.75
968.718
968.617
968.458
968.286
968.218
968.621
970.798
977.397
991.287
991.679
978.065
971.985
970.317
970.152
970.306
970.551
970.819
971.037
971.165
971.205
971.163
971.054
970.885
970.692
970.6
970.995
973.217
979.791
992.729
992.717
980.056
974.152
972.575
972.459
972.647
972.951
973.278
973.531
973.661
973.686
973.628
973.502
973.323
973.123
973.016
973.412
975.669
982.124
993.988
993.556
981.912
976.28
974.824
974.755
974.995
975.363
975.747
976.031
976.164
976.174
976.094
975.944
975.747
975.542
975.44