/*--------------------------------*- C++ -*----------------------------------*\
| =========                 |                                                 |
| \\      /  F ield         | OpenFOAM: The Open Source CFD Toolbox           |
|  \\    /   O peration     | Version:  2.1.0                                 |
|   \\  /    A nd           | Web:      www.OpenFOAM.org                      |
|    \\/     M anipulation  |                                                 |
\*---------------------------------------------------------------------------*/
FoamFile
{
    version     2.0;
    format      ascii;
    class       volScalarField;
    location    "0.18";
    object      T;
}
// * * * * * * * * * * * * * * * * * * * * * * * * * * * * * * * * * * * * * //

dimensions      [0 0 0 1 0 0 0];

internalField   nonuniform List<scalar> 
6400
(
293.15
293.15
293.15
293.15
293.15
293.15
293.15
293.15
293.15
293.15
293.15
293.15
293.15
293.15
293.15
293.15
293.15
293.15
293.15
293.15
293.15
293.15
293.15
293.15
293.15
293.15
293.15
293.15
293.15
293.15
293.15
293.15
293.15
293.15
293.15
293.15
293.15
293.15
293.15
293.15
293.15
293.15
293.15
293.15
293.15
293.15
293.15
293.15
293.15
293.15
293.15
293.15
293.15
293.15
293.15
293.15
293.15
293.151
293.151
293.151
293.151
293.151
293.151
293.152
293.152
293.152
293.153
293.153
293.154
293.155
293.155
293.156
293.158
293.159
293.161
293.163
293.165
293.168
293.171
293.175
293.18
293.186
293.193
293.202
293.212
293.224
293.239
293.257
293.277
293.301
293.326
293.349
293.363
293.35
293.296
293.315
293.888
296.029
299.435
302.246
293.15
293.15
293.15
293.15
293.15
293.15
293.15
293.15
293.15
293.15
293.15
293.15
293.15
293.15
293.15
293.15
293.15
293.15
293.15
293.15
293.15
293.15
293.15
293.15
293.15
293.15
293.15
293.15
293.15
293.15
293.15
293.15
293.15
293.15
293.15
293.15
293.15
293.15
293.15
293.15
293.15
293.15
293.15
293.15
293.15
293.15
293.15
293.15
293.15
293.15
293.151
293.151
293.151
293.151
293.151
293.152
293.152
293.152
293.153
293.153
293.154
293.155
293.156
293.157
293.158
293.16
293.162
293.164
293.167
293.171
293.175
293.18
293.185
293.192
293.201
293.21
293.222
293.237
293.254
293.275
293.299
293.329
293.365
293.409
293.461
293.524
293.599
293.689
293.797
293.927
294.084
294.28
294.536
294.896
295.442
296.288
297.477
299.075
301.001
302.854
293.15
293.15
293.15
293.15
293.15
293.15
293.15
293.15
293.15
293.15
293.15
293.15
293.15
293.15
293.15
293.15
293.15
293.15
293.15
293.15
293.15
293.15
293.15
293.15
293.15
293.15
293.15
293.15
293.15
293.15
293.15
293.15
293.15
293.15
293.15
293.15
293.15
293.15
293.15
293.15
293.15
293.15
293.15
293.15
293.15
293.151
293.151
293.151
293.151
293.151
293.152
293.152
293.152
293.153
293.153
293.154
293.155
293.156
293.157
293.159
293.16
293.163
293.165
293.168
293.172
293.177
293.182
293.188
293.196
293.205
293.216
293.23
293.246
293.265
293.288
293.315
293.348
293.387
293.435
293.492
293.56
293.641
293.738
293.854
293.992
294.154
294.346
294.571
294.834
295.141
295.498
295.914
296.4
296.971
297.645
298.441
299.384
300.502
301.767
303.053
293.15
293.15
293.15
293.15
293.15
293.15
293.15
293.15
293.15
293.15
293.15
293.15
293.15
293.15
293.15
293.15
293.15
293.15
293.15
293.15
293.15
293.15
293.15
293.15
293.15
293.15
293.15
293.15
293.15
293.15
293.15
293.15
293.15
293.15
293.15
293.15
293.15
293.15
293.15
293.15
293.15
293.151
293.151
293.151
293.151
293.151
293.152
293.152
293.152
293.153
293.154
293.154
293.155
293.156
293.158
293.159
293.161
293.164
293.167
293.17
293.174
293.179
293.185
293.193
293.201
293.212
293.224
293.239
293.256
293.277
293.301
293.331
293.365
293.406
293.454
293.511
293.577
293.655
293.745
293.849
293.97
294.109
294.269
294.45
294.657
294.891
295.154
295.45
295.78
296.149
296.558
297.013
297.516
298.071
298.682
299.351
300.1
300.932
301.828
302.71
293.15
293.15
293.15
293.15
293.15
293.15
293.15
293.15
293.15
293.15
293.15
293.15
293.15
293.15
293.15
293.15
293.15
293.15
293.15
293.15
293.15
293.15
293.15
293.15
293.15
293.15
293.15
293.15
293.15
293.15
293.15
293.15
293.15
293.15
293.15
293.15
293.15
293.15
293.151
293.151
293.151
293.151
293.151
293.152
293.152
293.153
293.153
293.154
293.155
293.156
293.157
293.159
293.161
293.163
293.166
293.169
293.173
293.178
293.184
293.191
293.199
293.208
293.219
293.233
293.249
293.267
293.289
293.314
293.343
293.377
293.417
293.462
293.515
293.575
293.644
293.723
293.812
293.913
294.028
294.156
294.3
294.461
294.64
294.839
295.059
295.302
295.569
295.863
296.185
296.537
296.922
297.341
297.795
298.285
298.812
299.372
299.972
300.605
301.239
301.779
293.15
293.15
293.15
293.15
293.15
293.15
293.15
293.15
293.15
293.15
293.15
293.15
293.15
293.15
293.15
293.15
293.15
293.15
293.15
293.15
293.15
293.15
293.15
293.15
293.15
293.15
293.15
293.15
293.15
293.15
293.15
293.15
293.15
293.15
293.15
293.151
293.151
293.151
293.151
293.151
293.152
293.152
293.153
293.153
293.154
293.155
293.156
293.157
293.159
293.16
293.163
293.165
293.168
293.172
293.176
293.181
293.187
293.195
293.203
293.213
293.224
293.237
293.252
293.27
293.291
293.314
293.341
293.372
293.407
293.447
293.492
293.543
293.6
293.665
293.737
293.818
293.908
294.008
294.119
294.241
294.376
294.524
294.687
294.866
295.062
295.275
295.508
295.763
296.04
296.342
296.669
297.024
297.407
297.818
298.255
298.712
299.186
299.659
300.086
300.351
293.15
293.15
293.15
293.15
293.15
293.15
293.15
293.15
293.15
293.15
293.15
293.15
293.15
293.15
293.15
293.15
293.15
293.15
293.15
293.15
293.15
293.15
293.15
293.15
293.15
293.15
293.15
293.15
293.15
293.15
293.15
293.15
293.15
293.151
293.151
293.151
293.151
293.151
293.152
293.152
293.153
293.153
293.154
293.155
293.155
293.157
293.158
293.159
293.161
293.164
293.166
293.169
293.173
293.177
293.182
293.187
293.194
293.201
293.21
293.22
293.231
293.244
293.259
293.276
293.295
293.316
293.341
293.368
293.399
293.434
293.473
293.516
293.564
293.618
293.677
293.743
293.815
293.895
293.983
294.079
294.185
294.301
294.428
294.566
294.718
294.883
295.063
295.26
295.475
295.709
295.964
296.24
296.539
296.86
297.201
297.559
297.916
298.255
298.524
298.61
293.15
293.15
293.15
293.15
293.15
293.15
293.15
293.15
293.15
293.15
293.15
293.15
293.15
293.15
293.15
293.15
293.15
293.15
293.15
293.15
293.15
293.15
293.15
293.15
293.15
293.15
293.15
293.15
293.15
293.15
293.15
293.15
293.151
293.151
293.151
293.151
293.151
293.152
293.152
293.152
293.153
293.153
293.154
293.154
293.155
293.156
293.157
293.159
293.16
293.162
293.164
293.167
293.169
293.173
293.176
293.181
293.185
293.191
293.197
293.204
293.212
293.221
293.231
293.243
293.256
293.271
293.287
293.305
293.326
293.348
293.374
293.402
293.433
293.468
293.506
293.549
293.596
293.647
293.704
293.767
293.835
293.91
293.993
294.083
294.182
294.29
294.408
294.538
294.681
294.837
295.009
295.197
295.402
295.624
295.864
296.12
296.37
296.599
296.761
296.764
293.15
293.15
293.15
293.15
293.15
293.15
293.15
293.15
293.15
293.15
293.15
293.15
293.15
293.15
293.15
293.15
293.15
293.15
293.15
293.15
293.15
293.15
293.15
293.15
293.15
293.15
293.15
293.15
293.15
293.15
293.15
293.15
293.15
293.151
293.151
293.151
293.151
293.151
293.151
293.152
293.152
293.152
293.153
293.153
293.154
293.154
293.155
293.156
293.157
293.158
293.159
293.161
293.162
293.164
293.166
293.169
293.171
293.175
293.178
293.182
293.187
293.192
293.197
293.204
293.211
293.219
293.227
293.237
293.248
293.26
293.274
293.289
293.306
293.324
293.344
293.366
293.39
293.417
293.446
293.478
293.513
293.551
293.593
293.639
293.689
293.744
293.804
293.869
293.941
294.02
294.108
294.204
294.311
294.429
294.559
294.702
294.851
294.982
295.07
295.058
293.15
293.15
293.15
293.15
293.15
293.15
293.15
293.15
293.15
293.15
293.15
293.15
293.15
293.15
293.15
293.15
293.15
293.15
293.15
293.15
293.15
293.15
293.15
293.15
293.15
293.15
293.15
293.15
293.15
293.15
293.15
293.15
293.15
293.15
293.15
293.15
293.151
293.151
293.151
293.151
293.151
293.151
293.151
293.152
293.152
293.152
293.153
293.153
293.154
293.154
293.155
293.156
293.156
293.157
293.158
293.16
293.161
293.162
293.164
293.166
293.168
293.171
293.173
293.176
293.18
293.184
293.188
293.192
293.197
293.203
293.209
293.216
293.223
293.231
293.239
293.249
293.259
293.269
293.281
293.293
293.307
293.321
293.336
293.352
293.369
293.388
293.408
293.429
293.452
293.475
293.501
293.528
293.556
293.587
293.62
293.655
293.694
293.734
293.76
293.752
293.15
293.15
293.15
293.15
293.15
293.15
293.15
293.15
293.15
293.15
293.15
293.15
293.15
293.15
293.15
293.15
293.15
293.15
293.15
293.15
293.15
293.15
293.15
293.15
293.15
293.15
293.15
293.15
293.15
293.15
293.15
293.15
293.15
293.15
293.15
293.15
293.15
293.15
293.15
293.15
293.15
293.151
293.151
293.151
293.151
293.151
293.151
293.151
293.152
293.152
293.152
293.152
293.153
293.153
293.154
293.154
293.155
293.155
293.156
293.157
293.158
293.159
293.16
293.161
293.162
293.164
293.165
293.167
293.169
293.171
293.173
293.175
293.178
293.18
293.183
293.186
293.189
293.192
293.195
293.198
293.201
293.204
293.207
293.21
293.213
293.216
293.219
293.222
293.224
293.227
293.228
293.229
293.23
293.23
293.228
293.226
293.222
293.217
293.21
293.201
293.15
293.15
293.15
293.15
293.15
293.15
293.15
293.15
293.15
293.15
293.15
293.15
293.15
293.15
293.15
293.15
293.15
293.15
293.15
293.15
293.15
293.15
293.15
293.15
293.15
293.15
293.15
293.15
293.15
293.15
293.15
293.15
293.15
293.15
293.15
293.15
293.15
293.15
293.15
293.15
293.15
293.15
293.15
293.15
293.15
293.15
293.15
293.151
293.151
293.151
293.151
293.151
293.151
293.151
293.151
293.151
293.152
293.152
293.152
293.152
293.153
293.153
293.153
293.153
293.154
293.154
293.155
293.155
293.156
293.156
293.157
293.157
293.158
293.158
293.159
293.159
293.16
293.16
293.16
293.161
293.161
293.161
293.161
293.161
293.161
293.161
293.161
293.16
293.16
293.159
293.159
293.159
293.158
293.157
293.156
293.156
293.155
293.154
293.153
293.152
293.15
293.15
293.15
293.15
293.15
293.15
293.15
293.15
293.15
293.15
293.15
293.15
293.15
293.15
293.15
293.15
293.15
293.15
293.15
293.15
293.15
293.15
293.15
293.15
293.15
293.15
293.15
293.15
293.15
293.15
293.15
293.15
293.15
293.15
293.15
293.15
293.15
293.15
293.15
293.15
293.15
293.15
293.15
293.15
293.15
293.15
293.15
293.15
293.15
293.15
293.15
293.15
293.15
293.15
293.15
293.15
293.15
293.15
293.151
293.151
293.151
293.151
293.151
293.151
293.151
293.151
293.151
293.151
293.151
293.151
293.151
293.151
293.151
293.151
293.151
293.152
293.152
293.152
293.152
293.151
293.151
293.151
293.151
293.151
293.151
293.151
293.151
293.151
293.151
293.151
293.15
293.15
293.15
293.15
293.15
293.15
293.15
293.15
293.15
293.15
293.15
293.15
293.15
293.15
293.15
293.15
293.15
293.15
293.15
293.15
293.15
293.15
293.15
293.15
293.15
293.15
293.15
293.15
293.15
293.15
293.15
293.15
293.15
293.15
293.15
293.15
293.15
293.15
293.15
293.15
293.15
293.15
293.15
293.15
293.15
293.15
293.15
293.15
293.15
293.15
293.15
293.15
293.15
293.15
293.15
293.15
293.15
293.15
293.15
293.15
293.15
293.15
293.15
293.15
293.15
293.15
293.15
293.15
293.15
293.15
293.15
293.15
293.15
293.15
293.15
293.15
293.15
293.15
293.15
293.15
293.15
293.15
293.15
293.15
293.15
293.15
293.15
293.15
293.15
293.15
293.15
293.15
293.15
293.15
293.15
293.15
293.15
293.15
293.15
293.15
293.15
293.15
293.15
293.15
293.15
293.15
293.15
293.15
293.15
293.15
293.15
293.15
293.15
293.15
293.15
293.15
293.15
293.15
293.15
293.15
293.15
293.15
293.15
293.15
293.15
293.15
293.15
293.15
293.15
293.15
293.15
293.15
293.15
293.15
293.15
293.15
293.15
293.15
293.15
293.15
293.15
293.15
293.15
293.15
293.15
293.15
293.15
293.15
293.15
293.15
293.15
293.15
293.15
293.15
293.15
293.15
293.15
293.15
293.15
293.15
293.15
293.15
293.15
293.15
293.15
293.15
293.15
293.15
293.15
293.15
293.15
293.15
293.15
293.15
293.15
293.15
293.15
293.15
293.15
293.15
293.15
293.15
293.15
293.15
293.15
293.15
293.15
293.15
293.15
293.15
293.15
293.15
293.15
293.15
293.15
293.15
293.15
293.15
293.15
293.15
293.15
293.15
293.15
293.15
293.15
293.15
293.15
293.15
293.15
293.15
293.15
293.15
293.15
293.15
293.15
293.15
293.15
293.15
293.15
293.15
293.15
293.15
293.15
293.15
293.15
293.15
293.15
293.15
293.15
293.15
293.15
293.15
293.15
293.15
293.15
293.15
293.15
293.15
293.15
293.15
293.15
293.15
293.15
293.15
293.15
293.15
293.15
293.15
293.15
293.15
293.15
293.15
293.15
293.15
293.15
293.15
293.15
293.15
293.15
293.15
293.15
293.15
293.15
293.15
293.15
293.15
293.15
293.15
293.15
293.15
293.15
293.15
293.15
293.15
293.15
293.15
293.15
293.15
293.15
293.15
293.15
293.15
293.15
293.15
293.15
293.15
293.15
293.15
293.15
293.15
293.15
293.15
293.15
293.15
293.15
293.15
293.15
293.15
293.15
293.15
293.15
293.15
293.15
293.15
293.15
293.15
293.15
293.15
293.15
293.15
293.15
293.15
293.15
293.15
293.15
293.15
293.15
293.15
293.15
293.15
293.15
293.15
293.15
293.15
293.15
293.15
293.15
293.15
293.15
293.15
293.15
293.15
293.15
293.15
293.15
293.15
293.15
293.15
293.15
293.15
293.15
293.15
293.15
293.15
293.15
293.15
293.15
293.15
293.15
293.15
293.15
293.15
293.15
293.15
293.15
293.15
293.15
293.15
293.15
293.15
293.15
293.15
293.15
293.15
293.15
293.15
293.15
293.15
293.15
293.15
293.15
293.15
293.15
293.15
293.15
293.15
293.15
293.15
293.15
293.15
293.15
293.15
293.15
293.15
293.15
293.15
293.15
293.15
293.15
293.15
293.15
293.15
293.15
293.15
293.15
293.15
293.15
293.15
293.15
293.15
293.15
293.15
293.15
293.15
293.15
293.15
293.15
293.15
293.15
293.15
293.15
293.15
293.15
293.15
293.15
293.15
293.15
293.15
293.15
293.15
293.15
293.15
293.15
293.15
293.15
293.15
293.15
293.15
293.15
293.15
293.15
293.15
293.15
293.15
293.15
293.15
293.15
293.15
293.15
293.15
293.15
293.15
293.15
293.15
293.15
293.15
293.15
293.15
293.15
293.15
293.15
293.15
293.15
293.15
293.15
293.15
293.15
293.15
293.15
293.15
293.15
293.15
293.15
293.15
293.15
293.15
293.15
293.15
293.15
293.15
293.15
293.15
293.15
293.15
293.15
293.15
293.15
293.15
293.15
293.15
293.15
293.15
293.15
293.15
293.15
293.15
293.15
293.15
293.15
293.15
293.15
293.15
293.15
293.15
293.15
293.15
293.15
293.15
293.15
293.15
293.15
293.15
293.15
293.15
293.15
293.15
293.15
293.15
293.15
293.15
293.15
293.15
293.15
293.15
293.15
293.15
293.15
293.15
293.15
293.15
293.15
293.15
293.15
293.15
293.15
293.15
293.15
293.15
293.15
293.15
293.15
293.15
293.15
293.15
293.15
293.15
293.15
293.15
293.15
293.15
293.15
293.15
293.15
293.15
293.15
293.15
293.15
293.15
293.15
293.15
293.15
293.15
293.15
293.15
293.15
293.15
293.15
293.15
293.15
293.15
293.15
293.15
293.15
293.15
293.15
293.15
293.15
293.15
293.15
293.15
293.15
293.15
293.15
293.15
293.15
293.15
293.15
293.15
293.15
293.15
293.15
293.15
293.15
293.15
293.15
293.15
293.15
293.15
293.15
293.15
293.15
293.15
293.15
293.15
293.15
293.15
293.15
293.15
293.15
293.15
293.15
293.15
293.15
293.15
293.15
293.15
293.15
293.15
293.15
293.15
293.15
293.15
293.15
293.15
293.15
293.15
293.15
293.15
293.15
293.15
293.15
293.15
293.15
293.15
293.15
293.15
293.15
293.15
293.15
293.15
293.15
293.15
293.15
293.15
293.15
293.15
293.15
293.15
293.15
293.15
293.15
293.15
293.15
293.15
293.15
293.15
293.15
293.15
293.15
293.15
293.15
293.15
293.15
293.15
293.15
293.15
293.15
293.15
293.15
293.15
293.15
293.15
293.15
293.15
293.15
293.15
293.15
293.15
293.15
293.15
293.15
293.15
293.15
293.15
293.15
293.15
293.15
293.15
293.15
293.15
293.15
293.15
293.15
293.15
293.15
293.15
293.15
293.15
293.15
293.15
293.15
293.15
293.15
293.15
293.15
293.15
293.15
293.15
293.15
293.15
293.15
293.15
293.15
293.15
293.15
293.15
293.15
293.15
293.15
293.15
303.671
306.983
306.981
305.98
304.948
304.104
303.479
303.05
302.769
302.585
302.45
302.314
302.116
301.775
301.186
300.235
298.837
297.021
295.053
293.491
304.283
306.073
305.607
304.555
303.581
302.816
302.255
301.863
301.589
301.387
301.213
301.021
300.756
300.349
299.72
298.797
297.545
296.027
294.485
293.356
304.216
304.801
304.069
303.073
302.209
301.541
301.049
300.69
300.42
300.199
299.989
299.748
299.43
298.983
298.353
297.501
296.423
295.197
294.034
293.262
303.385
303.224
302.418
301.554
300.831
300.271
299.846
299.519
299.253
299.015
298.775
298.5
298.155
297.702
297.111
296.364
295.476
294.527
293.691
293.204
301.951
301.462
300.726
300.029
299.455
298.999
298.637
298.341
298.082
297.838
297.585
297.301
296.959
296.538
296.019
295.401
294.707
294.013
293.448
293.172
300.173
299.64
299.051
298.524
298.086
297.725
297.422
297.16
296.922
296.691
296.45
296.184
295.878
295.518
295.097
294.619
294.114
293.642
293.292
293.157
298.289
297.856
297.432
297.057
296.737
296.464
296.226
296.012
295.813
295.616
295.412
295.191
294.945
294.668
294.357
294.021
293.685
293.394
293.205
293.152
296.47
296.183
295.912
295.671
295.461
295.275
295.109
294.955
294.808
294.662
294.514
294.357
294.188
294.004
293.805
293.599
293.404
293.249
293.166
293.15
294.881
294.732
294.592
294.465
294.351
294.247
294.151
294.061
293.975
293.892
293.808
293.723
293.633
293.537
293.436
293.334
293.243
293.179
293.153
293.15
293.689
293.642
293.596
293.553
293.513
293.477
293.444
293.413
293.385
293.359
293.333
293.308
293.281
293.253
293.224
293.194
293.169
293.155
293.15
293.15
293.191
293.188
293.184
293.18
293.177
293.174
293.171
293.169
293.166
293.164
293.162
293.159
293.157
293.155
293.153
293.152
293.151
293.15
293.15
293.15
293.152
293.152
293.152
293.151
293.151
293.151
293.151
293.151
293.151
293.151
293.151
293.15
293.15
293.15
293.15
293.15
293.15
293.15
293.15
293.15
293.15
293.15
293.15
293.15
293.15
293.15
293.15
293.15
293.15
293.15
293.15
293.15
293.15
293.15
293.15
293.15
293.15
293.15
293.15
293.15
293.15
293.15
293.15
293.15
293.15
293.15
293.15
293.15
293.15
293.15
293.15
293.15
293.15
293.15
293.15
293.15
293.15
293.15
293.15
293.15
293.15
293.15
293.15
293.15
293.15
293.15
293.15
293.15
293.15
293.15
293.15
293.15
293.15
293.15
293.15
293.15
293.15
293.15
293.15
293.15
293.15
293.15
293.15
293.15
293.15
293.15
293.15
293.15
293.15
293.15
293.15
293.15
293.15
293.15
293.15
293.15
293.15
293.15
293.15
293.15
293.15
293.15
293.15
293.15
293.15
293.15
293.15
293.15
293.15
293.15
293.15
293.15
293.15
293.15
293.15
293.15
293.15
293.15
293.15
293.15
293.15
293.15
293.15
293.15
293.15
293.15
293.15
293.15
293.15
293.15
293.15
293.15
293.15
293.15
293.15
293.15
293.15
293.15
293.15
293.15
293.15
293.15
293.15
293.15
293.15
293.15
293.15
293.15
293.15
293.15
293.15
293.15
293.15
293.15
293.15
293.15
293.15
293.15
293.15
293.15
293.15
293.15
293.15
293.15
293.15
293.15
293.15
293.15
293.15
293.15
293.15
293.15
293.15
293.15
293.15
293.15
293.15
293.15
293.15
293.15
393.15
393.15
393.15
393.15
393.15
393.15
393.15
393.15
393.15
393.15
393.15
393.15
393.15
393.15
393.15
393.15
393.15
393.15
393.15
393.15
393.15
393.15
393.15
393.15
393.15
393.15
393.15
393.15
393.15
393.15
393.15
393.15
393.15
393.15
393.15
393.15
393.15
393.15
393.15
393.15
393.15
393.15
393.15
393.15
393.15
393.15
393.15
393.15
393.15
393.15
393.15
393.15
393.15
393.15
393.15
393.15
393.15
393.15
393.15
393.15
393.15
393.15
393.15
393.15
393.15
393.15
393.15
393.15
393.15
393.15
393.15
393.15
393.15
393.15
393.15
393.15
393.15
393.15
393.15
393.15
393.15
393.15
393.15
393.15
393.15
393.15
393.15
393.15
393.15
393.15
393.15
393.15
393.15
393.15
393.15
393.15
393.15
393.15
393.15
393.15
393.15
393.15
393.15
393.15
393.15
393.15
393.15
393.15
393.15
393.15
393.15
393.15
393.15
393.15
393.15
393.15
393.15
393.15
393.15
393.15
393.15
393.15
393.15
393.15
393.15
393.15
393.15
393.15
393.15
393.15
393.15
393.15
393.15
393.15
393.15
393.15
393.15
393.15
393.15
393.15
393.15
393.15
393.15
393.15
393.15
393.15
393.15
393.15
393.15
393.15
393.15
393.15
393.15
393.15
393.15
393.15
393.15
393.15
393.15
393.15
393.15
393.15
393.15
393.15
393.15
393.15
393.15
393.15
393.15
393.15
393.15
393.15
393.15
393.15
393.15
393.15
393.15
393.15
393.15
393.15
393.15
393.15
393.15
393.15
393.15
393.15
393.15
393.15
393.15
393.15
393.15
393.15
393.15
393.15
393.15
393.15
393.15
393.15
393.15
393.15
393.15
393.15
393.15
393.15
393.15
393.15
393.15
393.15
393.15
393.15
393.15
393.15
393.15
393.15
393.15
393.15
393.15
393.15
393.15
393.15
393.15
393.15
393.15
393.15
393.15
393.15
393.15
393.15
393.15
393.15
393.15
393.15
393.15
393.15
393.15
393.15
393.15
393.15
393.15
393.15
393.15
393.15
393.15
393.15
393.15
393.15
393.15
393.15
393.15
393.15
393.15
393.15
393.15
393.15
393.15
393.15
393.15
393.15
393.15
393.15
393.15
393.15
393.15
393.15
393.15
393.15
393.15
393.15
393.15
393.15
393.15
393.15
393.15
393.15
393.15
393.15
393.15
393.15
393.15
393.15
393.15
393.15
393.15
393.15
393.15
393.15
393.15
393.15
393.15
393.15
393.15
393.15
393.15
393.15
393.15
393.15
393.15
393.15
393.15
393.15
393.15
393.15
393.15
393.15
393.15
393.15
393.15
393.15
393.15
393.15
393.15
393.15
393.15
393.15
393.15
393.15
393.15
393.15
393.15
393.15
393.15
393.15
393.15
393.15
393.15
393.15
393.15
393.15
393.15
393.15
393.15
393.15
393.15
393.15
393.15
393.15
393.15
393.15
393.15
393.15
393.15
393.15
393.15
393.15
393.15
393.15
393.15
393.15
393.15
393.15
393.15
393.15
393.15
393.15
393.15
393.15
393.15
393.15
393.15
393.15
393.15
393.15
393.15
393.15
393.15
393.15
393.15
393.15
393.15
393.15
393.15
393.15
393.15
393.15
393.15
393.15
393.15
393.15
393.15
393.15
393.15
393.15
393.15
393.15
393.15
393.15
393.15
393.15
393.15
393.15
393.15
393.15
393.15
393.15
393.15
393.15
393.15
393.15
393.15
393.15
393.15
393.15
393.15
393.15
393.15
393.15
393.15
393.15
393.15
393.15
393.15
393.15
393.15
393.15
393.15
393.15
393.15
393.15
393.15
393.15
393.15
393.15
393.15
393.15
393.15
393.15
393.15
393.15
393.15
393.15
393.15
393.15
393.15
393.15
393.15
393.15
393.15
393.15
393.15
393.15
393.15
393.15
393.15
393.15
393.15
393.15
393.15
393.15
393.15
393.15
393.15
393.15
393.15
393.15
393.15
393.15
393.15
393.15
393.15
393.15
393.15
393.15
393.15
393.15
393.15
393.15
393.15
393.15
393.15
393.15
393.15
393.15
393.15
393.15
393.15
393.15
393.15
393.15
393.15
393.15
393.15
393.15
393.15
393.15
393.15
393.15
393.15
393.15
393.15
393.15
393.15
393.15
393.15
393.15
393.15
393.15
393.15
393.15
393.15
393.15
393.15
393.15
393.15
393.15
393.15
393.15
393.15
393.15
393.15
393.15
393.15
393.15
393.15
393.15
393.15
393.15
393.15
393.15
393.15
393.15
393.15
393.15
393.15
393.15
393.15
393.15
393.15
393.15
393.15
393.15
393.15
393.15
393.15
393.15
393.15
393.15
393.15
393.15
393.15
393.15
393.15
393.15
393.15
393.15
393.15
393.15
393.15
393.15
393.15
393.15
393.15
393.15
393.15
393.15
393.15
393.15
393.15
393.15
393.15
393.15
393.15
393.15
393.15
393.15
393.15
393.15
393.15
393.15
393.15
393.15
393.15
393.15
393.15
393.15
393.15
393.15
393.15
393.15
393.15
393.15
393.15
393.15
393.15
393.15
393.15
393.15
393.15
393.15
393.15
393.15
393.15
393.15
393.15
393.15
393.15
393.15
393.15
393.15
393.15
393.15
393.15
393.15
393.15
393.15
393.15
393.15
393.15
393.15
393.15
393.15
393.15
393.15
393.15
393.15
393.15
393.15
393.15
393.15
393.15
393.15
393.15
393.15
393.15
393.15
393.15
393.15
393.15
393.15
393.15
393.15
393.15
393.15
393.15
393.15
393.15
393.15
393.15
393.15
393.15
393.15
393.15
393.15
393.15
393.15
393.15
393.15
393.15
393.15
393.15
393.15
393.15
393.15
393.15
393.15
393.15
393.15
393.15
393.15
393.15
393.15
393.15
393.15
393.15
393.15
393.15
393.15
393.15
393.15
393.15
393.15
393.15
393.15
393.15
393.15
393.15
393.15
393.15
393.15
393.15
393.15
393.15
393.15
393.15
393.15
393.15
393.15
393.15
393.15
393.15
393.15
393.15
393.15
393.15
393.15
393.15
393.15
393.15
393.15
393.15
393.15
393.15
393.15
393.15
393.15
393.15
393.15
393.15
393.15
393.15
393.15
393.15
393.15
393.15
393.15
393.15
393.15
393.15
393.15
393.15
393.15
393.15
393.15
393.15
393.15
393.15
393.15
393.15
393.15
393.15
393.15
393.15
393.15
393.15
393.15
393.15
393.15
393.15
393.15
393.15
393.15
393.15
393.15
393.15
393.15
393.15
393.15
393.15
393.15
393.15
393.15
393.15
393.15
393.15
393.15
393.15
393.15
393.15
393.15
393.15
393.15
393.15
393.15
393.15
393.15
393.15
393.15
393.15
393.15
393.15
393.15
393.15
393.15
393.15
393.15
393.15
393.15
393.15
393.15
393.15
393.15
393.15
393.15
393.15
393.15
393.15
393.15
393.15
393.15
393.15
393.15
393.15
393.15
393.15
393.15
393.15
393.15
393.15
393.15
393.15
393.15
393.15
393.15
393.15
393.15
393.15
393.15
393.15
393.15
393.15
393.15
393.15
393.15
393.15
393.15
393.15
393.15
393.15
393.15
393.15
393.15
393.15
393.15
393.15
393.15
393.15
393.15
393.15
393.15
393.15
393.15
393.15
393.15
393.15
393.15
393.15
393.15
393.15
393.15
393.15
393.15
393.15
393.15
393.15
393.15
393.15
393.15
393.15
393.15
393.15
393.15
393.15
393.15
393.15
393.15
393.15
393.15
393.15
393.15
393.15
393.15
393.15
393.15
393.15
393.15
393.15
393.15
393.15
393.15
393.15
393.15
393.15
393.15
393.15
393.15
393.15
393.15
393.15
393.15
393.15
393.15
393.149
393.15
393.15
393.15
393.15
393.15
393.15
393.15
393.15
393.15
393.15
393.15
393.15
393.15
393.15
393.15
393.15
393.15
393.15
393.149
393.149
393.15
393.15
393.15
393.15
393.15
393.15
393.15
393.15
393.15
393.15
393.15
393.15
393.15
393.15
393.15
393.15
393.15
393.15
393.149
393.147
393.149
393.15
393.15
393.15
393.15
393.15
393.15
393.15
393.15
393.15
393.15
393.15
393.15
393.15
393.15
393.15
393.15
393.149
393.147
393.145
393.149
393.149
393.15
393.149
393.149
393.149
393.149
393.149
393.149
393.149
393.149
393.149
393.149
393.149
393.15
393.15
393.149
393.149
393.145
393.141
393.148
393.149
393.149
393.149
393.149
393.149
393.149
393.149
393.149
393.149
393.149
393.149
393.149
393.149
393.149
393.149
393.149
393.148
393.141
393.135
393.147
393.149
393.149
393.149
393.149
393.149
393.148
393.148
393.148
393.148
393.148
393.148
393.149
393.149
393.149
393.149
393.149
393.147
393.135
393.125
393.145
393.148
393.148
393.148
393.148
393.148
393.148
393.148
393.147
393.147
393.148
393.148
393.148
393.148
393.148
393.148
393.148
393.145
393.125
393.109
393.141
393.146
393.147
393.147
393.147
393.146
393.146
393.146
393.146
393.146
393.146
393.146
393.146
393.147
393.147
393.147
393.146
393.141
393.109
393.084
393.135
393.144
393.145
393.145
393.145
393.145
393.144
393.144
393.144
393.144
393.144
393.144
393.145
393.145
393.145
393.145
393.144
393.135
393.084
393.045
393.126
393.14
393.142
393.142
393.142
393.142
393.141
393.141
393.141
393.141
393.141
393.141
393.142
393.142
393.142
393.142
393.14
393.126
393.046
392.988
393.113
393.134
393.138
393.138
393.138
393.138
393.137
393.137
393.137
393.137
393.137
393.137
393.138
393.138
393.139
393.138
393.134
393.113
392.988
392.903
393.092
393.126
393.132
393.133
393.132
393.131
393.131
393.13
393.13
393.13
393.13
393.131
393.131
393.132
393.133
393.132
393.126
393.093
392.904
392.783
393.063
393.113
393.123
393.124
393.124
393.123
393.122
393.121
393.121
393.121
393.121
393.122
393.123
393.124
393.124
393.123
393.113
393.063
392.783
392.613
393.02
393.095
393.11
393.112
393.111
393.11
393.109
393.108
393.108
393.108
393.108
393.109
393.11
393.111
393.112
393.11
393.095
393.02
392.613
392.378
392.96
393.069
393.091
393.095
393.094
393.092
393.091
393.09
393.089
393.089
393.09
393.091
393.092
393.094
393.094
393.091
393.069
392.96
392.379
392.061
392.876
393.032
393.064
393.07
393.069
393.067
393.065
393.064
393.063
393.063
393.064
393.065
393.067
393.069
393.07
393.064
393.032
392.876
392.061
391.639
392.762
392.98
393.027
393.035
393.035
393.032
393.03
393.028
393.027
393.027
393.028
393.03
393.032
393.035
393.035
393.027
392.98
392.762
391.639
391.088
392.608
392.91
392.976
392.988
392.988
392.984
392.981
392.978
392.977
392.977
392.978
392.981
392.984
392.987
392.988
392.976
392.909
392.608
391.088
390.38
392.404
392.814
392.906
392.923
392.923
392.919
392.915
392.912
392.91
392.91
392.911
392.915
392.919
392.923
392.923
392.905
392.813
392.404
390.38
389.488
392.138
392.686
392.811
392.836
392.836
392.831
392.826
392.822
392.819
392.819
392.821
392.825
392.831
392.836
392.835
392.811
392.685
392.137
389.486
388.381
391.797
392.518
392.685
392.718
392.72
392.714
392.707
392.702
392.699
392.699
392.702
392.707
392.713
392.719
392.718
392.684
392.516
391.795
388.376
387.029
391.365
392.299
392.519
392.564
392.566
392.559
392.551
392.544
392.541
392.54
392.544
392.55
392.558
392.565
392.562
392.517
392.296
391.361
387.021
385.405
390.825
392.017
392.303
392.362
392.366
392.357
392.347
392.338
392.334
392.334
392.338
392.346
392.356
392.364
392.359
392.3
392.013
390.818
385.391
383.485
390.159
391.66
392.024
392.1
392.106
392.096
392.083
392.073
392.067
392.067
392.072
392.082
392.094
392.104
392.097
392.019
391.653
390.147
383.462
381.249
389.35
391.21
391.668
391.765
391.774
391.762
391.746
391.734
391.727
391.727
391.733
391.744
391.759
391.771
391.761
391.661
391.199
389.329
381.214
378.685
388.378
390.652
391.219
391.341
391.354
391.339
391.32
391.305
391.297
391.296
391.304
391.318
391.336
391.349
391.335
391.21
390.635
388.345
378.635
375.789
387.223
389.966
390.66
390.811
390.827
390.81
390.787
390.769
390.759
390.759
390.767
390.784
390.805
390.821
390.802
390.647
389.942
387.174
375.719
372.567
385.867
389.131
389.969
390.154
390.175
390.155
390.128
390.106
390.094
390.093
390.103
390.123
390.148
390.166
390.142
389.951
389.099
385.797
372.473
369.035
384.287
388.125
389.126
389.349
389.376
389.352
389.32
389.294
389.28
389.279
389.291
389.314
389.343
389.364
389.333
389.103
388.084
384.195
368.913
365.217
382.467
386.927
388.108
388.374
388.407
388.38
388.342
388.311
388.294
388.292
388.306
388.333
388.367
388.391
388.353
388.078
386.875
382.351
365.066
361.15
380.393
385.516
386.895
387.207
387.246
387.214
387.17
387.134
387.113
387.11
387.126
387.158
387.197
387.224
387.178
386.855
385.45
380.25
360.968
356.877
378.056
383.873
385.463
385.825
385.87
385.832
385.78
385.738
385.713
385.71
385.728
385.765
385.81
385.841
385.787
385.412
383.789
377.883
356.666
352.451
375.454
381.982
383.794
384.208
384.258
384.213
384.152
384.101
384.072
384.068
384.089
384.131
384.184
384.219
384.158
383.727
381.874
375.244
352.211
347.926
372.591
379.831
381.871
382.337
382.391
382.337
382.264
382.205
382.17
382.164
382.188
382.237
382.298