/*--------------------------------*- C++ -*----------------------------------*\
| =========                 |                                                 |
| \\      /  F ield         | OpenFOAM: The Open Source CFD Toolbox           |
|  \\    /   O peration     | Version:  2.1.0                                 |
|   \\  /    A nd           | Web:      www.OpenFOAM.org                      |
|    \\/     M anipulation  |                                                 |
\*---------------------------------------------------------------------------*/
FoamFile
{
    version     2.0;
    format      ascii;
    class       volVectorField;
    location    "0.18";
    object      U;
}
// * * * * * * * * * * * * * * * * * * * * * * * * * * * * * * * * * * * * * //

dimensions      [0 1 -1 0 0 0 0];

internalField   nonuniform List<vector> 
6400
(
(-1.21767 -1.55842e-05 0)
(-1.21668 -0.000409431 0)
(-1.21462 -0.000667635 0)
(-1.21172 -0.000802502 0)
(-1.20839 -0.000883603 0)
(-1.20479 -0.000939079 0)
(-1.201 -0.000980416 0)
(-1.19705 -0.00101386 0)
(-1.19299 -0.00104293 0)
(-1.18881 -0.00106956 0)
(-1.18453 -0.001095 0)
(-1.18015 -0.00111974 0)
(-1.17568 -0.0011443 0)
(-1.1711 -0.00116864 0)
(-1.16643 -0.00119311 0)
(-1.16167 -0.00121757 0)
(-1.15681 -0.00124225 0)
(-1.15185 -0.00126697 0)
(-1.14679 -0.00129197 0)
(-1.14163 -0.00131719 0)
(-1.13637 -0.00134216 0)
(-1.13102 -0.00136752 0)
(-1.12556 -0.00139425 0)
(-1.11999 -0.00142164 0)
(-1.11431 -0.00144972 0)
(-1.10852 -0.00147856 0)
(-1.10262 -0.00150833 0)
(-1.0966 -0.00153899 0)
(-1.09045 -0.00157062 0)
(-1.08418 -0.00160323 0)
(-1.07777 -0.00163691 0)
(-1.07123 -0.00167169 0)
(-1.06455 -0.0017077 0)
(-1.05773 -0.00174492 0)
(-1.05075 -0.00178354 0)
(-1.04362 -0.00182369 0)
(-1.03633 -0.00186548 0)
(-1.02887 -0.00190906 0)
(-1.02123 -0.00195453 0)
(-1.01341 -0.00200215 0)
(-1.0054 -0.00205204 0)
(-0.997184 -0.00210421 0)
(-0.988759 -0.00215871 0)
(-0.980114 -0.00221559 0)
(-0.971239 -0.00227483 0)
(-0.962126 -0.00233638 0)
(-0.952765 -0.00240016 0)
(-0.943148 -0.00246629 0)
(-0.933269 -0.00253276 0)
(-0.923124 -0.00260088 0)
(-0.912699 -0.00267438 0)
(-0.901975 -0.00275174 0)
(-0.890946 -0.00282932 0)
(-0.879618 -0.00290391 0)
(-0.867999 -0.00297569 0)
(-0.856099 -0.00304669 0)
(-0.843916 -0.00311829 0)
(-0.831448 -0.003191 0)
(-0.818692 -0.00326466 0)
(-0.805642 -0.00333945 0)
(-0.792293 -0.00341571 0)
(-0.77864 -0.00349347 0)
(-0.764677 -0.00357292 0)
(-0.750397 -0.00365432 0)
(-0.73579 -0.00373804 0)
(-0.720847 -0.00382425 0)
(-0.70556 -0.00391293 0)
(-0.689918 -0.0040037 0)
(-0.673915 -0.00409647 0)
(-0.657541 -0.00419107 0)
(-0.640791 -0.00428754 0)
(-0.623655 -0.00438666 0)
(-0.60612 -0.00449003 0)
(-0.588168 -0.00459817 0)
(-0.569779 -0.00471133 0)
(-0.550932 -0.00483103 0)
(-0.531595 -0.0049597 0)
(-0.511727 -0.0051009 0)
(-0.491268 -0.00525955 0)
(-0.470137 -0.00544214 0)
(-0.448224 -0.00565673 0)
(-0.425383 -0.00591307 0)
(-0.40143 -0.00622149 0)
(-0.376143 -0.00659074 0)
(-0.349266 -0.00702962 0)
(-0.320512 -0.00754453 0)
(-0.289584 -0.00813498 0)
(-0.256213 -0.00878697 0)
(-0.220241 -0.00945951 0)
(-0.181765 -0.0100624 0)
(-0.141427 -0.0104109 0)
(-0.100982 -0.0101214 0)
(-0.0641157 -0.00859544 0)
(-0.0363013 -0.0055229 0)
(-0.0220646 -0.0017017 0)
(-0.0246381 0.0030054 0)
(-0.0524511 0.0110865 0)
(-0.129885 0.0280615 0)
(-0.320223 0.0673724 0)
(-0.903989 0.187853 0)
(-1.47561 -0.000223768 0)
(-1.47276 -0.00138604 0)
(-1.47079 -0.00206177 0)
(-1.46764 -0.0024272 0)
(-1.46418 -0.00265217 0)
(-1.46048 -0.00280684 0)
(-1.45663 -0.00292218 0)
(-1.45266 -0.00301542 0)
(-1.44859 -0.00309654 0)
(-1.44442 -0.00317086 0)
(-1.44017 -0.00324194 0)
(-1.43585 -0.00331114 0)
(-1.43143 -0.00337996 0)
(-1.42694 -0.00344834 0)
(-1.42237 -0.00351726 0)
(-1.41771 -0.00358625 0)
(-1.41297 -0.00365593 0)
(-1.40815 -0.00372581 0)
(-1.40324 -0.00379631 0)
(-1.39825 -0.00386759 0)
(-1.39318 -0.00393762 0)
(-1.38802 -0.00400787 0)
(-1.38278 -0.00408186 0)
(-1.37746 -0.00415714 0)
(-1.37205 -0.00423392 0)
(-1.36655 -0.00431255 0)
(-1.36097 -0.00439346 0)
(-1.3553 -0.00447658 0)
(-1.34954 -0.0045621 0)
(-1.34368 -0.00465005 0)
(-1.33773 -0.00474065 0)
(-1.33168 -0.00483401 0)
(-1.32553 -0.00493052 0)
(-1.31928 -0.00503014 0)
(-1.31293 -0.00513331 0)
(-1.30646 -0.00524024 0)
(-1.29988 -0.00535124 0)
(-1.29319 -0.00546663 0)
(-1.28638 -0.0055866 0)
(-1.27944 -0.00571169 0)
(-1.27238 -0.00584234 0)
(-1.26519 -0.00597875 0)
(-1.25786 -0.00612112 0)
(-1.25039 -0.00626975 0)
(-1.24277 -0.00642464 0)
(-1.235 -0.00658585 0)
(-1.22706 -0.00675341 0)
(-1.21895 -0.00692761 0)
(-1.21066 -0.00710438 0)
(-1.2022 -0.00728314 0)
(-1.19357 -0.00746744 0)
(-1.18479 -0.00765529 0)
(-1.17587 -0.00784314 0)
(-1.16681 -0.00802696 0)
(-1.1576 -0.00820639 0)
(-1.14824 -0.00838442 0)
(-1.13873 -0.00856344 0)
(-1.12907 -0.00874449 0)
(-1.11927 -0.00892742 0)
(-1.10931 -0.00911236 0)
(-1.0992 -0.0092995 0)
(-1.08896 -0.00948875 0)
(-1.07857 -0.00968039 0)
(-1.06805 -0.00987526 0)
(-1.05739 -0.010074 0)
(-1.0466 -0.0102768 0)
(-1.03568 -0.0104836 0)
(-1.02464 -0.010694 0)
(-1.01348 -0.0109076 0)
(-1.0022 -0.0111245 0)
(-0.990796 -0.0113449 0)
(-0.979276 -0.011571 0)
(-0.967633 -0.011808 0)
(-0.955853 -0.0120581 0)
(-0.943922 -0.0123222 0)
(-0.93182 -0.0126047 0)
(-0.919525 -0.0129122 0)
(-0.907 -0.0132543 0)
(-0.894203 -0.0136438 0)
(-0.881074 -0.014097 0)
(-0.867543 -0.0146337 0)
(-0.853517 -0.015278 0)
(-0.838888 -0.0160558 0)
(-0.823525 -0.0169899 0)
(-0.807274 -0.018102 0)
(-0.789973 -0.0194069 0)
(-0.771457 -0.0209006 0)
(-0.751593 -0.0225441 0)
(-0.730321 -0.0242296 0)
(-0.707731 -0.0257312 0)
(-0.684163 -0.0266062 0)
(-0.660303 -0.026003 0)
(-0.637324 -0.0226071 0)
(-0.617815 -0.0152314 0)
(-0.608639 -0.00398516 0)
(-0.618555 0.011394 0)
(-0.660245 0.0372138 0)
(-0.754388 0.0867752 0)
(-0.942212 0.192452 0)
(-1.40012 0.49714 0)
(-1.6225 -0.000699403 0)
(-1.61878 -0.00246492 0)
(-1.61753 -0.00343539 0)
(-1.61482 -0.00398015 0)
(-1.61184 -0.00432097 0)
(-1.60869 -0.00455536 0)
(-1.6054 -0.00472897 0)
(-1.60204 -0.0048689 0)
(-1.59859 -0.00498988 0)
(-1.59509 -0.00510065 0)
(-1.59152 -0.00520626 0)
(-1.58791 -0.00530932 0)
(-1.58423 -0.00541178 0)
(-1.58051 -0.00551405 0)
(-1.57672 -0.00561733 0)
(-1.57289 -0.00572125 0)
(-1.56898 -0.00582653 0)
(-1.56503 -0.00593282 0)
(-1.561 -0.00604041 0)
(-1.55691 -0.00615001 0)
(-1.55274 -0.0062586 0)
(-1.54852 -0.00636608 0)
(-1.54422 -0.00647576 0)
(-1.53987 -0.0065855 0)
(-1.53546 -0.00669638 0)
(-1.53101 -0.00680947 0)
(-1.5265 -0.00692539 0)
(-1.52194 -0.007044 0)
(-1.51733 -0.00716546 0)
(-1.51266 -0.0072898 0)
(-1.50794 -0.00741725 0)
(-1.50317 -0.00754793 0)
(-1.49835 -0.00768246 0)
(-1.49348 -0.00782068 0)
(-1.48856 -0.00796306 0)
(-1.48359 -0.00810982 0)
(-1.47857 -0.0082612 0)
(-1.4735 -0.00841758 0)
(-1.46839 -0.00857911 0)
(-1.46323 -0.00874618 0)
(-1.45802 -0.00891934 0)
(-1.45278 -0.00909896 0)
(-1.4475 -0.00928528 0)
(-1.44218 -0.00947873 0)
(-1.43683 -0.00967932 0)
(-1.43145 -0.00988706 0)
(-1.42604 -0.0101021 0)
(-1.42061 -0.0103239 0)
(-1.41515 -0.0105496 0)
(-1.4097 -0.0107763 0)
(-1.40424 -0.0110011 0)
(-1.39878 -0.0112225 0)
(-1.39332 -0.0114419 0)
(-1.38788 -0.0116599 0)
(-1.38244 -0.0118753 0)
(-1.37702 -0.012089 0)
(-1.3716 -0.0123019 0)
(-1.36621 -0.0125143 0)
(-1.36085 -0.0127261 0)
(-1.35552 -0.0129368 0)
(-1.35025 -0.0131456 0)
(-1.34505 -0.0133518 0)
(-1.33993 -0.0135551 0)
(-1.33491 -0.0137565 0)
(-1.33001 -0.0139564 0)
(-1.32526 -0.0141538 0)
(-1.32066 -0.0143487 0)
(-1.31625 -0.0145402 0)
(-1.31206 -0.0147279 0)
(-1.3081 -0.0149113 0)
(-1.30442 -0.0150908 0)
(-1.30102 -0.015269 0)
(-1.29795 -0.0154553 0)
(-1.29522 -0.0156541 0)
(-1.29285 -0.0158667 0)
(-1.29084 -0.0161 0)
(-1.28921 -0.0163643 0)
(-1.28797 -0.016674 0)
(-1.28708 -0.0170479 0)
(-1.28655 -0.0175095 0)
(-1.28631 -0.0180864 0)
(-1.28633 -0.0188108 0)
(-1.28653 -0.0197188 0)
(-1.28682 -0.0208444 0)
(-1.28708 -0.0222175 0)
(-1.28721 -0.023856 0)
(-1.28708 -0.0257506 0)
(-1.2866 -0.0278417 0)
(-1.28572 -0.029977 0)
(-1.2845 -0.0318556 0)
(-1.28312 -0.0329225 0)
(-1.28187 -0.0322034 0)
(-1.28124 -0.0282075 0)
(-1.28225 -0.0189729 0)
(-1.28843 -0.00283366 0)
(-1.30243 0.0217972 0)
(-1.33575 0.0629792 0)
(-1.4032 0.138708 0)
(-1.53469 0.291415 0)
(-1.78642 0.678151 0)
(-1.75643 -0.0012701 0)
(-1.75245 -0.00334542 0)
(-1.7521 -0.00452442 0)
(-1.75019 -0.00520806 0)
(-1.74808 -0.00563795 0)
(-1.74586 -0.00593073 0)
(-1.74353 -0.00614414 0)
(-1.74119 -0.00631399 0)
(-1.73878 -0.00645849 0)
(-1.73637 -0.00658977 0)
(-1.73392 -0.00671364 0)
(-1.73147 -0.00683418 0)
(-1.72899 -0.00695341 0)
(-1.72651 -0.00707238 0)
(-1.72401 -0.00719231 0)
(-1.72151 -0.00731317 0)
(-1.71899 -0.00743547 0)
(-1.71647 -0.00755938 0)
(-1.71394 -0.00768493 0)
(-1.71141 -0.00781212 0)
(-1.70885 -0.00793971 0)
(-1.70632 -0.00806681 0)
(-1.70377 -0.00819273 0)
(-1.70122 -0.00831666 0)
(-1.69866 -0.00844038 0)
(-1.69611 -0.00856595 0)
(-1.69356 -0.00869412 0)
(-1.69101 -0.00882449 0)
(-1.68848 -0.00895709 0)
(-1.68595 -0.00909182 0)
(-1.68343 -0.00922881 0)
(-1.68094 -0.009368 0)
(-1.67846 -0.00950999 0)
(-1.67601 -0.00965454 0)
(-1.67359 -0.00980206 0)
(-1.67119 -0.00995255 0)
(-1.66884 -0.0101061 0)
(-1.66653 -0.0102629 0)
(-1.66428 -0.0104232 0)
(-1.66208 -0.0105868 0)
(-1.65994 -0.010754 0)
(-1.65787 -0.010925 0)
(-1.65588 -0.0110997 0)
(-1.65399 -0.0112782 0)
(-1.65219 -0.0114602 0)
(-1.65051 -0.0116454 0)
(-1.64896 -0.0118334 0)
(-1.64755 -0.0120225 0)
(-1.64629 -0.0122112 0)
(-1.6452 -0.0124006 0)
(-1.64427 -0.0125879 0)
(-1.64348 -0.0127695 0)
(-1.64286 -0.0129468 0)
(-1.64239 -0.0131204 0)
(-1.64209 -0.0132896 0)
(-1.64198 -0.0134544 0)
(-1.64206 -0.0136137 0)
(-1.64234 -0.0137667 0)
(-1.64284 -0.0139124 0)
(-1.64358 -0.0140499 0)
(-1.64457 -0.0141778 0)
(-1.64583 -0.0142945 0)
(-1.64739 -0.014399 0)
(-1.64925 -0.0144923 0)
(-1.65144 -0.014575 0)
(-1.65398 -0.0146456 0)
(-1.65688 -0.0147033 0)
(-1.66017 -0.0147472 0)
(-1.66384 -0.014777 0)
(-1.66794 -0.014792 0)
(-1.67245 -0.0147932 0)
(-1.67741 -0.0147825 0)
(-1.68281 -0.0147757 0)
(-1.68864 -0.0147816 0)
(-1.69489 -0.0148016 0)
(-1.70155 -0.0148455 0)
(-1.70858 -0.0149279 0)
(-1.71594 -0.0150683 0)
(-1.72359 -0.0152909 0)
(-1.73148 -0.0156257 0)
(-1.73953 -0.0161062 0)
(-1.74767 -0.0167709 0)
(-1.75581 -0.0176612 0)
(-1.76388 -0.0188177 0)
(-1.77178 -0.0202727 0)
(-1.77945 -0.0220429 0)
(-1.78681 -0.0241111 0)
(-1.79385 -0.0264012 0)
(-1.80055 -0.0287319 0)
(-1.80697 -0.0307604 0)
(-1.81321 -0.0318883 0)
(-1.81933 -0.0311313 0)
(-1.82529 -0.0269907 0)
(-1.83112 -0.0172665 0)
(-1.83902 0.000127675 0)
(-1.84676 0.0295048 0)
(-1.86501 0.0792921 0)
(-1.90021 0.170377 0)
(-1.9617 0.349244 0)
(-2.05159 0.730826 0)
(-1.8937 -0.00176092 0)
(-1.89011 -0.0038908 0)
(-1.89079 -0.00515502 0)
(-1.89004 -0.00591313 0)
(-1.88926 -0.00639227 0)
(-1.88842 -0.00671237 0)
(-1.88759 -0.00694064 0)
(-1.88675 -0.00711695 0)
(-1.88593 -0.00726324 0)
(-1.88515 -0.00739288 0)
(-1.88438 -0.00751309 0)
(-1.88367 -0.00762816 0)
(-1.88297 -0.00774069 0)
(-1.88234 -0.00785159 0)
(-1.88173 -0.00796232 0)
(-1.88119 -0.00807273 0)
(-1.8807 -0.00818327 0)
(-1.88027 -0.00829395 0)
(-1.87989 -0.00840464 0)
(-1.8796 -0.00851403 0)
(-1.87937 -0.00862281 0)
(-1.87923 -0.00873292 0)
(-1.87916 -0.00884282 0)
(-1.87917 -0.00894999 0)
(-1.87924 -0.00905508 0)
(-1.87938 -0.00916088 0)
(-1.87961 -0.00926838 0)
(-1.87991 -0.00937662 0)
(-1.8803 -0.00948541 0)
(-1.88077 -0.00959439 0)
(-1.88134 -0.0097036 0)
(-1.88201 -0.00981289 0)
(-1.88279 -0.0099225 0)
(-1.88367 -0.0100323 0)
(-1.88466 -0.0101427 0)
(-1.88578 -0.0102533 0)
(-1.88702 -0.0103642 0)
(-1.88839 -0.0104753 0)
(-1.88991 -0.0105868 0)
(-1.89156 -0.0106982 0)
(-1.89337 -0.0108097 0)
(-1.89534 -0.0109212 0)
(-1.89747 -0.0110323 0)
(-1.89977 -0.0111429 0)
(-1.90225 -0.0112527 0)
(-1.90491 -0.0113613 0)
(-1.90776 -0.0114679 0)
(-1.9108 -0.0115708 0)
(-1.91404 -0.0116696 0)
(-1.91748 -0.0117674 0)
(-1.92111 -0.0118638 0)
(-1.92496 -0.0119551 0)
(-1.92901 -0.0120406 0)
(-1.93328 -0.0121181 0)
(-1.93777 -0.0121869 0)
(-1.94248 -0.0122491 0)
(-1.94742 -0.0123029 0)
(-1.95257 -0.0123465 0)
(-1.95796 -0.0123788 0)
(-1.96356 -0.0123991 0)
(-1.96939 -0.0124061 0)
(-1.97544 -0.0123979 0)
(-1.98171 -0.0123727 0)
(-1.9882 -0.0123326 0)
(-1.9949 -0.0122795 0)
(-2.00181 -0.0122116 0)
(-2.00892 -0.0121282 0)
(-2.01622 -0.0120284 0)
(-2.02372 -0.0119123 0)
(-2.0314 -0.0117798 0)
(-2.03926 -0.0116312 0)
(-2.0473 -0.0114679 0)
(-2.05554 -0.0113084 0)
(-2.06397 -0.0111628 0)
(-2.07259 -0.0110372 0)
(-2.0814 -0.0109455 0)
(-2.09039 -0.0109054 0)
(-2.09952 -0.01094 0)
(-2.10879 -0.0110768 0)
(-2.11816 -0.0113495 0)
(-2.1276 -0.0117951 0)
(-2.13708 -0.0124544 0)
(-2.14656 -0.0133709 0)
(-2.15601 -0.0145857 0)
(-2.16539 -0.0161287 0)
(-2.17466 -0.0180132 0)
(-2.1838 -0.0202149 0)
(-2.19279 -0.022646 0)
(-2.20161 -0.0251148 0)
(-2.21027 -0.0272717 0)
(-2.21865 -0.0285258 0)
(-2.22656 -0.0279506 0)
(-2.23358 -0.0241691 0)
(-2.23906 -0.0151019 0)
(-2.24449 0.00160029 0)
(-2.24466 0.0321908 0)
(-2.24663 0.0848021 0)
(-2.2493 0.180791 0)
(-2.2435 0.362916 0)
(-2.22037 0.694994 0)
(-2.04199 -0.00201573 0)
(-2.03941 -0.00396602 0)
(-2.04125 -0.0051631 0)
(-2.04202 -0.00589947 0)
(-2.04293 -0.00636451 0)
(-2.04393 -0.00666654 0)
(-2.04501 -0.0068744 0)
(-2.04617 -0.00702671 0)
(-2.0474 -0.0071474 0)
(-2.04873 -0.00724906 0)
(-2.05013 -0.00734011 0)
(-2.05162 -0.0074242 0)
(-2.05319 -0.00750444 0)
(-2.05486 -0.00758147 0)
(-2.05661 -0.00765666 0)
(-2.05846 -0.00772975 0)
(-2.06041 -0.00780138 0)
(-2.06246 -0.00787099 0)
(-2.06461 -0.00793857 0)
(-2.06687 -0.00800283 0)
(-2.06923 -0.00806502 0)
(-2.07171 -0.00812765 0)
(-2.07429 -0.00819135 0)
(-2.077 -0.00825192 0)
(-2.07982 -0.00830772 0)
(-2.08276 -0.00836292 0)
(-2.08583 -0.00841906 0)
(-2.08903 -0.00847433 0)
(-2.09236 -0.0085287 0)
(-2.09582 -0.00858152 0)
(-2.09941 -0.00863295 0)
(-2.10314 -0.00868296 0)
(-2.107 -0.00873179 0)
(-2.111 -0.00877934 0)
(-2.11513 -0.00882611 0)
(-2.1194 -0.0088718 0)
(-2.12381 -0.00891651 0)
(-2.12835 -0.00896015 0)
(-2.13302 -0.00900308 0)
(-2.13782 -0.00904485 0)
(-2.14275 -0.00908574 0)
(-2.1478 -0.0091257 0)
(-2.15298 -0.00916456 0)
(-2.15827 -0.00920228 0)
(-2.16368 -0.00923883 0)
(-2.1692 -0.00927377 0)
(-2.17483 -0.00930667 0)
(-2.18056 -0.00933642 0)
(-2.18638 -0.00936322 0)
(-2.1923 -0.00938871 0)
(-2.1983 -0.00941206 0)
(-2.20439 -0.0094308 0)
(-2.21056 -0.00944489 0)
(-2.2168 -0.00945093 0)
(-2.22311 -0.00944655 0)
(-2.22951 -0.00943327 0)
(-2.23599 -0.00941075 0)
(-2.24255 -0.00937823 0)
(-2.24919 -0.00933536 0)
(-2.25592 -0.00928144 0)
(-2.26272 -0.00921531 0)
(-2.2696 -0.00913462 0)
(-2.27656 -0.00903646 0)
(-2.2836 -0.00892329 0)
(-2.29073 -0.00879984 0)
(-2.29793 -0.00866303 0)
(-2.30523 -0.00851141 0)
(-2.31261 -0.00834383 0)
(-2.32008 -0.00816053 0)
(-2.32765 -0.00796193 0)
(-2.33533 -0.00774327 0)
(-2.34311 -0.0075065 0)
(-2.35106 -0.00727852 0)
(-2.35909 -0.00706273 0)
(-2.36723 -0.00686812 0)
(-2.37547 -0.0067111 0)
(-2.38382 -0.00661111 0)
(-2.39227 -0.0065927 0)
(-2.40083 -0.00668527 0)
(-2.40947 -0.0069243 0)
(-2.4182 -0.00734844 0)
(-2.42699 -0.00799841 0)
(-2.43583 -0.00891838 0)
(-2.44473 -0.0101509 0)
(-2.45364 -0.0117234 0)
(-2.46259 -0.0136475 0)
(-2.47154 -0.015898 0)
(-2.48049 -0.0183847 0)
(-2.4894 -0.0209237 0)
(-2.4982 -0.0231898 0)
(-2.50668 -0.0246433 0)
(-2.51447 -0.0244496 0)
(-2.52084 -0.0214389 0)
(-2.52461 -0.0138419 0)
(-2.5267 0.000897127 0)
(-2.51947 0.0298197 0)
(-2.50636 0.0798335 0)
(-2.47926 0.171224 0)
(-2.41731 0.337594 0)
(-2.31948 0.603776 0)
(-2.1989 -0.00194207 0)
(-2.19756 -0.0034808 0)
(-2.20052 -0.0044624 0)
(-2.20284 -0.00507675 0)
(-2.20538 -0.00545948 0)
(-2.20817 -0.00569742 0)
(-2.21105 -0.00585048 0)
(-2.21412 -0.0059524 0)
(-2.21725 -0.00602512 0)
(-2.22053 -0.00607978 0)
(-2.22387 -0.00612436 0)
(-2.22736 -0.00616205 0)
(-2.2309 -0.00619579 0)
(-2.23457 -0.00622616 0)
(-2.23831 -0.00625435 0)
(-2.24217 -0.00628001 0)
(-2.2461 -0.00630399 0)
(-2.25013 -0.0063256 0)
(-2.25424 -0.00634504 0)
(-2.25845 -0.00636146 0)
(-2.26273 -0.00637649 0)
(-2.26711 -0.00639064 0)
(-2.27155 -0.00640537 0)
(-2.27608 -0.0064172 0)
(-2.28068 -0.0064226 0)
(-2.28538 -0.00642438 0)
(-2.29016 -0.00642513 0)
(-2.29504 -0.00642408 0)
(-2.30001 -0.00642231 0)
(-2.30508 -0.00641911 0)
(-2.31024 -0.00641495 0)
(-2.31549 -0.00640968 0)
(-2.32081 -0.00640415 0)
(-2.32622 -0.00639816 0)
(-2.33171 -0.00639255 0)
(-2.33727 -0.00638707 0)
(-2.34289 -0.00638228 0)
(-2.34858 -0.00637791 0)
(-2.35432 -0.00637453 0)
(-2.36012 -0.0063718 0)
(-2.36596 -0.00637018 0)
(-2.37184 -0.00636952 0)
(-2.37777 -0.00636989 0)
(-2.38372 -0.0063711 0)
(-2.3897 -0.00637327 0)
(-2.39571 -0.0063758 0)
(-2.40174 -0.00637839 0)
(-2.40778 -0.00638017 0)
(-2.41384 -0.00638127 0)
(-2.41991 -0.00638238 0)
(-2.42599 -0.00638233 0)
(-2.43207 -0.0063794 0)
(-2.43817 -0.00637225 0)
(-2.44426 -0.00635904 0)
(-2.45037 -0.00633753 0)
(-2.45649 -0.00630624 0)
(-2.46259 -0.00626455 0)
(-2.46869 -0.00621284 0)
(-2.47478 -0.00615094 0)
(-2.48088 -0.00607803 0)
(-2.48698 -0.00599278 0)
(-2.49308 -0.00589251 0)
(-2.4992 -0.00577165 0)
(-2.50535 -0.00563159 0)
(-2.51152 -0.00548372 0)
(-2.51772 -0.00532108 0)
(-2.52395 -0.00514132 0)
(-2.53022 -0.00494308 0)
(-2.53654 -0.00472647 0)
(-2.54291 -0.00449288 0)
(-2.54933 -0.00423514 0)
(-2.55583 -0.00394343 0)
(-2.56244 -0.00367643 0)
(-2.56909 -0.0034241 0)
(-2.57581 -0.00319059 0)
(-2.5826 -0.00299197 0)
(-2.58948 -0.00284856 0)
(-2.59646 -0.00278575 0)
(-2.60354 -0.00283401 0)
(-2.61074 -0.00302956 0)
(-2.61806 -0.00341257 0)
(-2.62552 -0.00402155 0)
(-2.63312 -0.00490028 0)
(-2.64088 -0.00609613 0)
(-2.64879 -0.0076321 0)
(-2.65688 -0.00951969 0)
(-2.66513 -0.0117409 0)
(-2.67352 -0.0142111 0)
(-2.68199 -0.0167676 0)
(-2.6904 -0.019125 0)
(-2.69848 -0.0208226 0)
(-2.7057 -0.0211661 0)
(-2.71115 -0.0192004 0)
(-2.7131 -0.0136408 0)
(-2.71209 -0.00175791 0)
(-2.69889 0.0226723 0)
(-2.67198 0.0656498 0)
(-2.61968 0.144235 0)
(-2.51486 0.281889 0)
(-2.37033 0.47993 0)
(-2.34831 -0.00154779 0)
(-2.34797 -0.00252491 0)
(-2.35152 -0.00319898 0)
(-2.35475 -0.00362586 0)
(-2.35817 -0.00388319 0)
(-2.36197 -0.00403167 0)
(-2.3658 -0.00411483 0)
(-2.36987 -0.00415894 0)
(-2.37394 -0.00418037 0)
(-2.3782 -0.00418829 0)
(-2.38244 -0.00418866 0)
(-2.38685 -0.00418424 0)
(-2.39123 -0.00417718 0)
(-2.39576 -0.00416799 0)
(-2.40028 -0.00415764 0)
(-2.40493 -0.00414571 0)
(-2.40957 -0.00413307 0)
(-2.41432 -0.00411895 0)
(-2.41907 -0.00410396 0)
(-2.42393 -0.00408723 0)
(-2.42878 -0.00407032 0)
(-2.43372 -0.00405296 0)
(-2.43866 -0.00403576 0)
(-2.44368 -0.0040161 0)
(-2.44871 -0.00399333 0)
(-2.45383 -0.00396691 0)
(-2.45892 -0.00393865 0)
(-2.46407 -0.00390905 0)
(-2.4692 -0.00388046 0)
(-2.47437 -0.00385197 0)
(-2.47952 -0.00382429 0)
(-2.4847 -0.00379674 0)
(-2.48986 -0.00377094 0)
(-2.49504 -0.00374646 0)
(-2.50019 -0.00372437 0)
(-2.50536 -0.00370412 0)
(-2.51049 -0.00368666 0)
(-2.51563 -0.00367157 0)
(-2.52074 -0.00365911 0)
(-2.52584 -0.00364902 0)
(-2.53091 -0.00364166 0)
(-2.53597 -0.00363677 0)
(-2.541 -0.00363426 0)
(-2.54601 -0.00363379 0)
(-2.551 -0.00363532 0)
(-2.55596 -0.00363811 0)
(-2.56091 -0.00364177 0)
(-2.56583 -0.0036455 0)
(-2.57073 -0.00364906 0)
(-2.57561 -0.00365261 0)
(-2.58047 -0.00365482 0)
(-2.58532 -0.00365413 0)
(-2.59015 -0.00364782 0)
(-2.59497 -0.0036357 0)
(-2.59978 -0.00361832 0)
(-2.60458 -0.00359312 0)
(-2.60936 -0.00355702 0)
(-2.61412 -0.00350948 0)
(-2.61888 -0.00344998 0)
(-2.62363 -0.00337756 0)
(-2.62838 -0.00329081 0)
(-2.63314 -0.00318738 0)
(-2.63791 -0.00305911 0)
(-2.64272 -0.0029005 0)
(-2.64756 -0.00274014 0)
(-2.65244 -0.00256198 0)
(-2.65736 -0.00236243 0)
(-2.66233 -0.0021405 0)
(-2.66737 -0.00189689 0)
(-2.67248 -0.00163216 0)
(-2.67767 -0.00135512 0)
(-2.68293 -0.000995907 0)
(-2.68834 -0.000693187 0)
(-2.69384 -0.000403776 0)
(-2.69945 -0.000127446 0)
(-2.70519 0.000119873 0)
(-2.71106 0.000317437 0)
(-2.71708 0.000439929 0)
(-2.72327 0.000456939 0)
(-2.72964 0.000332924 0)
(-2.73621 2.79423e-05 0)
(-2.74299 -0.0004971 0)
(-2.75004 -0.001284 0)
(-2.75733 -0.00238143 0)
(-2.76486 -0.00381112 0)
(-2.7727 -0.00559466 0)
(-2.78079 -0.00772624 0)
(-2.78909 -0.0101286 0)
(-2.7975 -0.012671 0)
(-2.80583 -0.0151202 0)
(-2.81374 -0.0171133 0)
(-2.82059 -0.0181269 0)
(-2.8253 -0.0174353 0)
(-2.82613 -0.0142215 0)
(-2.8216 -0.0060171 0)
(-2.80482 0.0115873 0)
(-2.76722 0.0439849 0)
(-2.69575 0.103262 0)
(-2.56091 0.204352 0)
(-2.38929 0.338259 0)
(-2.47076 -0.000882839 0)
(-2.47123 -0.00131417 0)
(-2.47487 -0.00166534 0)
(-2.47841 -0.00188643 0)
(-2.48202 -0.00201102 0)
(-2.48608 -0.00207283 0)
(-2.49003 -0.00209647 0)
(-2.49429 -0.0020981 0)
(-2.49838 -0.00208688 0)
(-2.50271 -0.00206888 0)
(-2.50685 -0.00204724 0)
(-2.5112 -0.00202392 0)
(-2.51537 -0.00199988 0)
(-2.51971 -0.0019755 0)
(-2.52388 -0.00195125 0)
(-2.52821 -0.00192682 0)
(-2.53237 -0.00190271 0)
(-2.53667 -0.00187831 0)
(-2.54082 -0.00185415 0)
(-2.54508 -0.00182967 0)
(-2.54921 -0.00180579 0)
(-2.55342 -0.00178221 0)
(-2.55752 -0.00175825 0)
(-2.56168 -0.00173236 0)
(-2.56574 -0.00170819 0)
(-2.56985 -0.001685 0)
(-2.57383 -0.00166246 0)
(-2.57784 -0.00164012 0)
(-2.58174 -0.00162013 0)
(-2.58565 -0.00160128 0)
(-2.58945 -0.00158387 0)
(-2.59326 -0.0015668 0)
(-2.59698 -0.00155209 0)
(-2.60069 -0.00153923 0)
(-2.60433 -0.00152925 0)
(-2.60796 -0.00152122 0)
(-2.61152 -0.00151622 0)
(-2.61507 -0.00151368 0)
(-2.61857 -0.00151343 0)
(-2.62205 -0.00151537 0)
(-2.6255 -0.00151954 0)
(-2.62893 -0.00152574 0)
(-2.63232 -0.00153363 0)
(-2.63571 -0.00154284 0)
(-2.63908 -0.0015531 0)
(-2.64245 -0.00156371 0)
(-2.6458 -0.00157406 0)
(-2.64915 -0.00158363 0)
(-2.65251 -0.00159186 0)
(-2.65587 -0.00159826 0)
(-2.65923 -0.00160179 0)
(-2.66261 -0.00160087 0)
(-2.66601 -0.00159337 0)
(-2.66943 -0.0015791 0)
(-2.67287 -0.00155863 0)
(-2.67635 -0.00152951 0)
(-2.67985 -0.00148804 0)
(-2.68341 -0.00143306 0)
(-2.687 -0.00136368 0)
(-2.69065 -0.00127884 0)
(-2.69435 -0.00117728 0)
(-2.69811 -0.00105797 0)
(-2.70193 -0.00091403 0)
(-2.70583 -0.000711391 0)
(-2.70982 -0.00052787 0)
(-2.7139 -0.000320644 0)
(-2.71806 -8.65533e-05 0)
(-2.72232 0.000174306 0)
(-2.72669 0.000461345 0)
(-2.73116 0.000771291 0)
(-2.7358 0.00109835 0)
(-2.74051 0.0015138 0)
(-2.74535 0.00188 0)
(-2.75038 0.00223833 0)
(-2.75558 0.0025885 0)
(-2.76098 0.00291503 0)
(-2.76658 0.00319749 0)
(-2.7724 0.003411 0)
(-2.77844 0.00352569 0)
(-2.78472 0.00350692 0)
(-2.79125 0.0033163 0)
(-2.79805 0.00291013 0)
(-2.80516 0.00224672 0)
(-2.81253 0.00128764 0)
(-2.82015 2.06164e-06 0)
(-2.82821 -0.00164032 0)
(-2.83644 -0.00363867 0)
(-2.84496 -0.00594187 0)
(-2.85364 -0.0084625 0)
(-2.86222 -0.0110213 0)
(-2.87029 -0.0133688 0)
(-2.87716 -0.0151535 0)
(-2.88168 -0.0159273 0)
(-2.88207 -0.0151644 0)
(-2.8755 -0.0113927 0)
(-2.85636 -0.0018971 0)
(-2.8135 0.0170213 0)
(-2.72921 0.0524272 0)
(-2.57626 0.112453 0)
(-2.39111 0.187889 0)
(-2.54412 -8.62669e-06 0)
(-2.54512 -5.39008e-05 0)
(-2.54841 -0.00011295 0)
(-2.55175 -0.000146239 0)
(-2.55504 -0.000159285 0)
(-2.55878 -0.000158967 0)
(-2.56229 -0.000151556 0)
(-2.56609 -0.000140765 0)
(-2.56959 -0.000128594 0)
(-2.57333 -0.000116679 0)
(-2.57674 -0.000105471 0)
(-2.58036 -9.53116e-05 0)
(-2.58367 -8.60615e-05 0)
(-2.58716 -7.76993e-05 0)
(-2.59035 -7.00436e-05 0)
(-2.59371 -6.28998e-05 0)
(-2.59679 -5.60976e-05 0)
(-2.60002 -4.94799e-05 0)
(-2.60299 -4.29386e-05 0)
(-2.6061 -3.65515e-05 0)
(-2.60897 -3.03475e-05 0)
(-2.61195 -2.43988e-05 -2.86807e-43)
(-2.61473 -1.76267e-05 0)
(-2.61761 -9.89877e-06 0)
(-2.6203 -4.12101e-06 0)
(-2.62308 -6.46253e-07 0)
(-2.6257 1.62118e-06 0)
(-2.6284 3.21036e-06 0)
(-2.63096 3.11342e-06 0)
(-2.63358 2.07679e-06 0)
(-2.63609 1.35945e-06 0)
(-2.63865 1.62999e-06 0)
(-2.64113 1.18373e-06 0)
(-2.64364 -2.77787e-07 0)
(-2.64611 -3.29819e-06 0)
(-2.64859 -7.19808e-06 0)
(-2.65105 -1.26447e-05 0)
(-2.65351 -1.90629e-05 0)
(-2.65597 -2.62287e-05 0)
(-2.65844 -3.40971e-05 0)
(-2.66091 -4.25577e-05 0)
(-2.6634 -5.1439e-05 0)
(-2.66589 -6.03512e-05 0)
(-2.66841 -6.88995e-05 0)
(-2.67094 -7.67403e-05 0)
(-2.6735 -8.32504e-05 0)
(-2.67608 -8.76873e-05 0)
(-2.6787 -8.97573e-05 0)
(-2.68135 -8.88097e-05 0)
(-2.68403 -8.37847e-05 0)
(-2.68675 -7.39908e-05 0)
(-2.68952 -5.78394e-05 0)
(-2.69234 -3.42272e-05 0)
(-2.6952 -2.48102e-06 0)
(-2.69811 3.8064e-05 0)
(-2.70108 9.00554e-05 0)
(-2.70411 0.000156773 0)
(-2.70721 0.000239096 0)
(-2.71038 0.000337786 0)
(-2.71362 0.000454237 0)
(-2.71693 0.00058947 0)
(-2.72033 0.000743657 0)
(-2.72383 0.000926726 0)
(-2.72738 0.00117185 0)
(-2.73103 0.00140055 0)
(-2.7348 0.00165587 0)
(-2.73867 0.00194155 0)
(-2.74267 0.0022577 0)
(-2.74679 0.00260428 0)
(-2.75105 0.00297684 0)
(-2.75546 0.00338615 0)
(-2.76001 0.00384445 0)
(-2.76471 0.00429509 0)
(-2.76959 0.00474521 0)
(-2.77466 0.0051909 0)
(-2.77993 0.00561802 0)
(-2.78543 0.00600718 0)
(-2.79116 0.00633416 0)
(-2.79713 0.00656973 0)
(-2.80337 0.00667991 0)
(-2.8099 0.00662667 0)
(-2.81674 0.00636515 0)
(-2.82391 0.00585258 6.87967e-41)
(-2.83142 0.00505534 0)
(-2.83928 0.00392527 0)
(-2.84755 0.00243628 0)
(-2.85597 0.000585414 0)
(-2.86477 -0.00161835 -1.90237e-41)
(-2.87351 -0.00411174 0)
(-2.88219 -0.00678925 0)
(-2.89037 -0.00952783 0)
(-2.89728 -0.0121432 0)
(-2.90176 -0.0144557 0)
(-2.90196 -0.0162773 -9.56696e-41)
(-2.89471 -0.0171546 0)
(-2.87403 -0.0163129 0)
(-2.82967 -0.0125712 -1.47774e-40)
(-2.74073 -0.00370832 0)
(-2.58053 0.0125947 0)
(-2.39078 0.0335541 0)
(-2.53381 0.000934288 0)
(-2.53473 0.00117853 0)
(-2.53804 0.0013941 0)
(-2.54138 0.00153508 0)
(-2.5447 0.00162077 0)
(-2.54847 0.00167014 0)
(-2.55203 0.00169496 0)
(-2.55589 0.00170447 0)
(-2.55948 0.00170356 0)
(-2.5633 0.00169559 0)
(-2.56682 0.0016826 0)
(-2.57055 0.00166629 0)
(-2.57399 0.00164765 0)
(-2.57762 0.00162746 0)
(-2.58096 0.00160641 0)
(-2.58447 0.00158482 0)
(-2.58772 0.00156334 0)
(-2.59112 0.00154199 0)
(-2.59427 0.00152136 0)
(-2.59755 0.00150099 0)
(-2.60061 0.0014815 0)
(-2.60378 0.00146245 1.7191e-41)
(-2.60675 0.00144508 0)
(-2.60982 0.00142853 0)
(-2.6127 0.00141226 0)
(-2.61568 0.00139526 0)
(-2.61849 0.00137882 0)
(-2.62137 0.00136229 0)
(-2.62412 0.00134541 0)
(-2.62692 0.00132756 0)
(-2.62961 0.00131278 0)
(-2.63234 0.00130103 0)
(-2.63499 0.00129083 0)
(-2.63766 0.00128041 0)
(-2.64027 0.0012704 0)
(-2.6429 0.00126044 0)
(-2.64549 0.00125118 0)
(-2.64809 0.00124261 0)
(-2.65067 0.00123478 0)
(-2.65326 0.0012279 0)
(-2.65584 0.00122216 0)
(-2.65843 0.00121776 0)
(-2.66102 0.00121495 0)
(-2.66363 0.00121422 0)
(-2.66625 0.00121585 0)
(-2.66889 0.00122047 0)
(-2.67155 0.00122879 0)
(-2.67423 0.00124112 0)
(-2.67695 0.00125817 0)
(-2.67969 0.00128103 0)
(-2.68247 0.00131033 0)
(-2.68529 0.00134751 0)
(-2.68815 0.0013935 0)
(-2.69105 0.001449 0)
(-2.694 0.00151494 0)
(-2.697 0.00159466 0)
(-2.70005 0.0016918 0)
(-2.70317 0.00180673 0)
(-2.70635 0.00193965 0)
(-2.70961 0.00209232 0)
(-2.71293 0.0022659 0)
(-2.71634 0.00246225 0)
(-2.71983 0.00269399 0)
(-2.7234 0.00296571 0)
(-2.72705 0.00324827 0)
(-2.7308 0.00355795 0)
(-2.73466 0.00389991 0)
(-2.73864 0.00427565 0)
(-2.74274 0.00468533 0)
(-2.74696 0.00512866 0)
(-2.75133 0.00561264 0)
(-2.75583 0.00613392 0)
(-2.76049 0.00666705 0)
(-2.76531 0.00720932 0)
(-2.77032 0.00775352 0)
(-2.77554 0.00828559 0)
(-2.78097 0.00878712 0)
(-2.78664 0.00923484 0)
(-2.79256 0.00960054 0)
(-2.79876 0.00985116 0)
(-2.80526 0.00994895 0)
(-2.81209 0.00985122 0)
(-2.81927 0.00951528 1.11852e-40)
(-2.82681 0.00889963 0)
(-2.83475 0.00794852 0)
(-2.84307 0.0066324 0)
(-2.85171 0.00491991 0)
(-2.8607 0.00280035 3.2918e-41)
(-2.86957 0.00030578 0)
(-2.87841 -0.00251669 0)
(-2.88639 -0.00565309 0)
(-2.89328 -0.00912074 0)
(-2.89777 -0.0129734 0)
(-2.89805 -0.0174472 -1.02545e-40)
(-2.89093 -0.0230166 0)
(-2.87058 -0.0307243 0)
(-2.82644 -0.0423479 -4.97797e-40)
(-2.7397 -0.0607691 0)
(-2.58159 -0.0889975 0)
(-2.39407 -0.121456 0)
(-2.44738 0.00174098 0)
(-2.4475 0.00239285 0)
(-2.45103 0.00289758 0)
(-2.45436 0.00322689 0)
(-2.45777 0.00342846 0)
(-2.46163 0.00354552 0)
(-2.46541 0.00360894 0)
(-2.46949 0.00363868 0)
(-2.47344 0.00364686 0)
(-2.47762 0.00364117 0)
(-2.48167 0.00362621 0)
(-2.48592 0.00360519 0)
(-2.49003 0.00358005 0)
(-2.49431 0.00355201 0)
(-2.49847 0.00352224 0)
(-2.50279 0.00349113 0)
(-2.50699 0.00345956 0)
(-2.51132 0.00342763 0)
(-2.51554 0.003396 0)
(-2.51989 0.00336419 0)
(-2.52413 0.00333296 0)
(-2.52847 0.00330183 0)
(-2.53272 0.00327182 0)
(-2.53705 0.00324206 0)
(-2.54129 0.00321314 0)
(-2.54561 0.00318381 0)
(-2.54983 0.00315531 0)
(-2.55412 0.00312647 0)
(-2.55833 0.00309731 0)
(-2.56258 0.00306617 0)
(-2.56676 0.00303761 0)
(-2.57097 0.00301076 0)
(-2.57509 0.00298465 0)
(-2.5792 0.00295785 0)
(-2.58324 0.00293247 0)
(-2.58726 0.00290761 0)
(-2.59122 0.00288511 0)
(-2.59515 0.0028642 0)
(-2.59903 0.00284516 0)
(-2.60288 0.00282834 0)
(-2.60668 0.00281419 0)
(-2.61046 0.00280281 0)
(-2.61419 0.0027946 0)
(-2.61791 0.00278997 0)
(-2.62159 0.00278932 0)
(-2.62525 0.00279322 0)
(-2.62889 0.00280245 0)
(-2.63251 0.00281736 0)
(-2.63611 0.00283878 0)
(-2.63971 0.00286761 0)
(-2.6433 0.00290471 0)
(-2.64689 0.00295115 0)
(-2.65047 0.00300792 0)
(-2.65406 0.00307626 0)
(-2.65765 0.00315597 0)
(-2.66126 0.00325145 0)
(-2.66487 0.00336806 0)
(-2.66851 0.00350527 0)
(-2.67218 0.00366231 0)
(-2.67588 0.00384082 0)
(-2.67961 0.00404298 0)
(-2.68339 0.00427265 0)
(-2.68721 0.00453762 0)
(-2.69108 0.0048369 0)
(-2.69501 0.00515967 0)
(-2.69899 0.00551317 0)
(-2.70306 0.00590174 0)
(-2.7072 0.00632758 0)
(-2.71143 0.00679159 0)
(-2.71576 0.00729535 0)
(-2.7202 0.00784164 0)
(-2.72474 0.00842411 0)
(-2.72941 0.00903048 0)
(-2.73421 0.00965628 0)
(-2.73918 0.0102922 0)
(-2.74433 0.0109236 0)
(-2.74967 0.0115332 0)
(-2.75523 0.012099 0)
(-2.76103 0.012594 0)
(-2.7671 0.0129861 0)
(-2.77345 0.0132386 0)
(-2.78013 0.0133102 0)
(-2.78716 0.0131576 0)
(-2.79457 0.0127329 0)
(-2.80237 0.0119821 0)
(-2.81058 0.0108589 0)
(-2.81915 0.00930211 0)
(-2.82801 0.00727979 0)
(-2.83697 0.00475354 0)