/*--------------------------------*- C++ -*----------------------------------*\
| =========                 |                                                 |
| \\      /  F ield         | OpenFOAM: The Open Source CFD Toolbox           |
|  \\    /   O peration     | Version:  2.1.0                                 |
|   \\  /    A nd           | Web:      www.OpenFOAM.org                      |
|    \\/     M anipulation  |                                                 |
\*---------------------------------------------------------------------------*/
FoamFile
{
    version     2.0;
    format      ascii;
    class       volScalarField;
    location    "0.44";
    object      C1;
}
// * * * * * * * * * * * * * * * * * * * * * * * * * * * * * * * * * * * * * //

dimensions      [0 0 0 0 0 0 0];

internalField   nonuniform List<scalar> 
6400
(
5.18465e-05
5.08634e-05
4.98352e-05
4.88015e-05
4.77678e-05
4.67365e-05
4.57086e-05
4.4685e-05
4.36663e-05
4.26528e-05
4.16451e-05
4.06432e-05
3.96477e-05
3.86586e-05
3.76764e-05
3.67013e-05
3.57334e-05
3.47733e-05
3.3821e-05
3.28768e-05
3.19412e-05
3.10143e-05
3.00965e-05
2.9188e-05
2.82892e-05
2.74003e-05
2.65218e-05
2.56538e-05
2.47967e-05
2.39508e-05
2.31163e-05
2.22936e-05
2.14829e-05
2.06846e-05
1.98989e-05
1.91261e-05
1.83666e-05
1.76205e-05
1.68882e-05
1.61699e-05
1.54658e-05
1.47764e-05
1.41017e-05
1.3442e-05
1.27976e-05
1.21686e-05
1.15553e-05
1.09579e-05
1.03766e-05
9.8115e-06
9.26282e-06
8.73075e-06
8.21546e-06
7.71708e-06
7.23571e-06
6.77142e-06
6.32426e-06
5.89432e-06
5.48166e-06
5.08631e-06
4.70826e-06
4.34744e-06
4.00378e-06
3.67717e-06
3.36744e-06
3.07442e-06
2.79789e-06
2.53758e-06
2.29323e-06
2.06451e-06
1.85107e-06
1.65252e-06
1.46846e-06
1.29845e-06
1.14201e-06
9.98665e-07
8.6789e-07
7.49153e-07
6.41901e-07
5.45564e-07
4.59558e-07
3.83286e-07
3.16146e-07
2.57527e-07
2.06815e-07
1.63399e-07
1.26673e-07
9.60418e-08
7.0921e-08
5.07372e-08
3.4925e-08
2.29258e-08
1.41969e-08
8.2087e-09
4.40533e-09
2.19403e-09
9.16819e-10
2.8816e-10
6.46347e-11
1.16976e-11
5.86171e-05
5.7616e-05
5.65535e-05
5.54744e-05
5.43887e-05
5.33009e-05
5.22134e-05
5.11277e-05
5.00449e-05
4.89655e-05
4.78901e-05
4.6819e-05
4.57527e-05
4.46913e-05
4.36351e-05
4.25846e-05
4.15398e-05
4.05011e-05
3.94688e-05
3.84431e-05
3.74243e-05
3.64127e-05
3.54086e-05
3.44123e-05
3.34242e-05
3.24445e-05
3.14737e-05
3.05121e-05
2.95599e-05
2.86176e-05
2.76854e-05
2.67638e-05
2.5853e-05
2.49534e-05
2.40653e-05
2.31891e-05
2.23252e-05
2.14738e-05
2.06353e-05
1.98101e-05
1.89985e-05
1.82009e-05
1.74175e-05
1.66488e-05
1.58951e-05
1.51567e-05
1.44338e-05
1.3727e-05
1.30363e-05
1.23622e-05
1.17049e-05
1.10647e-05
1.04419e-05
9.83683e-06
9.24984e-06
8.68119e-06
8.13113e-06
7.5999e-06
7.08776e-06
6.59491e-06
6.12152e-06
5.66771e-06
5.23356e-06
4.81909e-06
4.42431e-06
4.04917e-06
3.69358e-06
3.35742e-06
3.0405e-06
2.7426e-06
2.46347e-06
2.20277e-06
1.96015e-06
1.7352e-06
1.52746e-06
1.33645e-06
1.16163e-06
1.00241e-06
8.58173e-07
7.2828e-07
6.12048e-07
5.08766e-07
4.17711e-07
3.38139e-07
2.69298e-07
2.10434e-07
1.60794e-07
1.19633e-07
8.62087e-08
5.97765e-08
3.95734e-08
2.48003e-08
1.46022e-08
8.05755e-09
4.19335e-09
2.14559e-09
9.85864e-10
3.97243e-10
1.45584e-10
5.62493e-11
7.35174e-05
7.2467e-05
7.13281e-05
7.01548e-05
6.89634e-05
6.77621e-05
6.65552e-05
6.53453e-05
6.41342e-05
6.29227e-05
6.17117e-05
6.05016e-05
5.92929e-05
5.80858e-05
5.68806e-05
5.56777e-05
5.44772e-05
5.32795e-05
5.20848e-05
5.08933e-05
4.97055e-05
4.85214e-05
4.73415e-05
4.6166e-05
4.49952e-05
4.38294e-05
4.2669e-05
4.15144e-05
4.03661e-05
3.92245e-05
3.80899e-05
3.69628e-05
3.58437e-05
3.47328e-05
3.36307e-05
3.25378e-05
3.14545e-05
3.03813e-05
2.93187e-05
2.82672e-05
2.72272e-05
2.61993e-05
2.5184e-05
2.41818e-05
2.31932e-05
2.22188e-05
2.12592e-05
2.03148e-05
1.93862e-05
1.8474e-05
1.75788e-05
1.67012e-05
1.58418e-05
1.50012e-05
1.41802e-05
1.33794e-05
1.25995e-05
1.1841e-05
1.11046e-05
1.03908e-05
9.70013e-06
9.03315e-06
8.39029e-06
7.77194e-06
7.17846e-06
6.61015e-06
6.06725e-06
5.54996e-06
5.0584e-06
4.59262e-06
4.15262e-06
3.7383e-06
3.3495e-06
2.98596e-06
2.64737e-06
2.33331e-06
2.04329e-06
1.77674e-06
1.53303e-06
1.31143e-06
1.11115e-06
9.31356e-07
7.71151e-07
6.29608e-07
5.05767e-07
3.9865e-07
3.07264e-07
2.30606e-07
1.67657e-07
1.1735e-07
7.85331e-08
4.99183e-08
3.00344e-08
1.72211e-08
9.70012e-09
5.52889e-09
2.98614e-09
1.5368e-09
7.86923e-10
4.51182e-10
9.74904e-05
9.63613e-05
9.51156e-05
9.38154e-05
9.24828e-05
9.11298e-05
8.9763e-05
8.83864e-05
8.70026e-05
8.56129e-05
8.42182e-05
8.28193e-05
8.14165e-05
8.00102e-05
7.86006e-05
7.7188e-05
7.57726e-05
7.43547e-05
7.29344e-05
7.15121e-05
7.00879e-05
6.86622e-05
6.7235e-05
6.58068e-05
6.43778e-05
6.29484e-05
6.15187e-05
6.00893e-05
5.86606e-05
5.72332e-05
5.58073e-05
5.43835e-05
5.29623e-05
5.1544e-05
5.01293e-05
4.87186e-05
4.73124e-05
4.59114e-05
4.45162e-05
4.31273e-05
4.17454e-05
4.03711e-05
3.90053e-05
3.76486e-05
3.63017e-05
3.49655e-05
3.36407e-05
3.23284e-05
3.10293e-05
2.97444e-05
2.84748e-05
2.72215e-05
2.59856e-05
2.47681e-05
2.35701e-05
2.23927e-05
2.1237e-05
2.01042e-05
1.89953e-05
1.79115e-05
1.68539e-05
1.58237e-05
1.48219e-05
1.38496e-05
1.29076e-05
1.19971e-05
1.11187e-05
1.02734e-05
9.46185e-06
8.68466e-06
7.94239e-06
7.23549e-06
6.56426e-06
5.92893e-06
5.32956e-06
4.76609e-06
4.23835e-06
3.746e-06
3.28861e-06
2.8656e-06
2.47629e-06
2.1199e-06
1.79556e-06
1.50237e-06
1.2394e-06
1.0057e-06
8.00343e-07
6.22401e-07
4.70964e-07
3.45053e-07
2.43502e-07
1.64788e-07
1.0684e-07
6.69684e-08
4.1815e-08
2.62372e-08
1.59454e-08
9.52077e-09
5.84151e-09
4.0871e-09
0.000131601
0.000130384
0.000129029
0.000127601
0.000126127
0.000124621
0.000123092
0.000121545
0.000119984
0.000118411
0.000116826
0.00011523
0.000113623
0.000112007
0.00011038
0.000108744
0.000107098
0.000105443
0.000103779
0.000102105
0.000100422
9.87304e-05
9.70302e-05
9.53216e-05
9.3605e-05
9.18807e-05
9.01486e-05
8.84092e-05
8.66627e-05
8.49095e-05
8.31499e-05
8.13845e-05
7.96135e-05
7.78374e-05
7.60567e-05
7.42718e-05
7.24833e-05
7.06918e-05
6.88979e-05
6.71021e-05
6.53053e-05
6.35081e-05
6.17113e-05
5.99158e-05
5.81223e-05
5.6332e-05
5.45456e-05
5.27644e-05
5.09894e-05
4.92218e-05
4.7463e-05
4.57141e-05
4.39766e-05
4.22518e-05
4.05411e-05
3.8846e-05
3.7168e-05
3.55088e-05
3.387e-05
3.22533e-05
3.06605e-05
2.90935e-05
2.7554e-05
2.60437e-05
2.45644e-05
2.31178e-05
2.17055e-05
2.03292e-05
1.89903e-05
1.76904e-05
1.64309e-05
1.52131e-05
1.40381e-05
1.29071e-05
1.1821e-05
1.07806e-05
9.78656e-06
8.8395e-06
7.93977e-06
7.08771e-06
6.28353e-06
5.52727e-06
4.81903e-06
4.15891e-06
3.54707e-06
2.98384e-06
2.46975e-06
2.00557e-06
1.59242e-06
1.23159e-06
9.24278e-07
6.71084e-07
4.71367e-07
3.22706e-07
2.20375e-07
1.50563e-07
1.00813e-07
6.72367e-08
4.65628e-08
3.66002e-08
0.000177017
0.000175742
0.000174319
0.000172813
0.00017125
0.000169647
0.000168014
0.000166356
0.000164678
0.00016298
0.000161264
0.000159531
0.000157782
0.000156016
0.000154233
0.000152434
0.000150619
0.000148787
0.000146939
0.000145074
0.000143193
0.000141295
0.000139381
0.000137452
0.000135506
0.000133544
0.000131567
0.000129573
0.000127564
0.000125539
0.000123498
0.000121442
0.000119371
0.000117285
0.000115185
0.00011307
0.000110941
0.000108798
0.000106641
0.000104472
0.00010229
0.000100095
9.78892e-05
9.5672e-05
9.34443e-05
9.12067e-05
8.89598e-05
8.67045e-05
8.44416e-05
8.2172e-05
7.98967e-05
7.76168e-05
7.53333e-05
7.30474e-05
7.07602e-05
6.84731e-05
6.61876e-05
6.3905e-05
6.16269e-05
5.93552e-05
5.70917e-05
5.48385e-05
5.25977e-05
5.03711e-05
4.81609e-05
4.59693e-05
4.37984e-05
4.16503e-05
3.95275e-05
3.7432e-05
3.53663e-05
3.33326e-05
3.13331e-05
2.937e-05
2.74456e-05
2.55619e-05
2.3721e-05
2.19248e-05
2.01752e-05
1.84741e-05
1.68233e-05
1.52248e-05
1.36806e-05
1.21932e-05
1.07655e-05
9.40109e-06
8.10465e-06
6.88214e-06
5.74142e-06
4.69241e-06
3.74662e-06
2.91627e-06
2.21274e-06
1.64428e-06
1.21521e-06
8.97382e-07
6.53925e-07
4.77323e-07
3.61707e-07
3.05911e-07
0.000234783
0.000233534
0.000232148
0.000230681
0.000229157
0.000227589
0.000225988
0.000224359
0.000222706
0.000221031
0.000219334
0.000217616
0.000215878
0.00021412
0.000212341
0.000210542
0.000208722
0.000206882
0.00020502
0.000203138
0.000201234
0.000199309
0.000197362
0.000195393
0.000193402
0.000191389
0.000189355
0.000187297
0.000185218
0.000183115
0.00018099
0.000178841
0.000176669
0.000174474
0.000172254
0.000170011
0.000167744
0.000165452
0.000163135
0.000160793
0.000158426
0.000156033
0.000153615
0.00015117
0.000148699
0.000146201
0.000143676
0.000141124
0.000138545
0.000135939
0.000133305
0.000130643
0.000127954
0.000125237
0.000122493
0.000119721
0.000116922
0.000114096
0.000111244
0.000108366
0.000105463
0.000102536
9.95872e-05
9.66165e-05
9.36255e-05
9.06157e-05
8.75884e-05
8.45453e-05
8.1488e-05
7.84182e-05
7.53379e-05
7.2249e-05
6.91533e-05
6.60529e-05
6.29497e-05
5.98457e-05
5.67425e-05
5.3642e-05
5.05458e-05
4.74555e-05
4.43721e-05
4.12971e-05
3.82323e-05
3.51805e-05
3.21452e-05
2.91322e-05
2.615e-05
2.32107e-05
2.03326e-05
1.75429e-05
1.48771e-05
1.23801e-05
1.01039e-05
8.10316e-06
6.43869e-06
5.11202e-06
4.02187e-06
3.17334e-06
2.58386e-06
2.29532e-06
0.00030525
0.000304177
0.000302998
0.000301754
0.000300462
0.000299132
0.000297773
0.000296388
0.000294981
0.000293553
0.000292105
0.000290637
0.00028915
0.000287644
0.000286118
0.000284572
0.000283007
0.000281421
0.000279816
0.000278189
0.000276542
0.000274873
0.000273183
0.000271471
0.000269737
0.00026798
0.0002662
0.000264397
0.00026257
0.000260719
0.000258842
0.00025694
0.000255012
0.000253056
0.000251073
0.000249062
0.000247021
0.000244951
0.000242849
0.000240714
0.000238547
0.000236345
0.000234108
0.000231835
0.000229523
0.000227172
0.000224781
0.000222348
0.000219872
0.000217351
0.000214784
0.000212169
0.000209505
0.000206791
0.000204024
0.000201203
0.000198327
0.000195394
0.000192401
0.000189347
0.000186232
0.000183054
0.000179813
0.000176507
0.000173135
0.000169695
0.000166186
0.000162607
0.000158957
0.000155234
0.000151437
0.000147564
0.000143614
0.000139585
0.000135474
0.000131278
0.000126993
0.000122615
0.00011814
0.000113562
0.000108873
0.000104062
9.91187e-05
9.40339e-05
8.87961e-05
8.3396e-05
7.78277e-05
7.20886e-05
6.61853e-05
6.01472e-05
5.40234e-05
4.78903e-05
4.18572e-05
3.60642e-05
3.07016e-05
2.60967e-05
2.20516e-05
1.86646e-05
1.61543e-05
1.48737e-05
0.000387113
0.0003864
0.000385625
0.000384811
0.000383967
0.000383099
0.000382211
0.000381307
0.000380388
0.000379454
0.000378507
0.000377546
0.000376572
0.000375585
0.000374584
0.000373569
0.000372541
0.000371499
0.000370443
0.000369372
0.000368287
0.000367187
0.000366073
0.000364943
0.000363797
0.000362634
0.000361455
0.000360258
0.000359043
0.00035781
0.000356558
0.000355286
0.000353993
0.000352679
0.000351344
0.000349985
0.000348602
0.000347195
0.000345762
0.000344302
0.000342814
0.000341297
0.000339749
0.000338169
0.000336557
0.000334909
0.000333225
0.000331504
0.000329743
0.000327941
0.000326096
0.000324207
0.000322271
0.000320287
0.000318252
0.000316164
0.00031402
0.000311819
0.000309554
0.000307225
0.000304828
0.000302362
0.000299824
0.00029721
0.000294517
0.000291741
0.000288879
0.000285925
0.000282876
0.000279727
0.000276472
0.000273106
0.000269623
0.000266015
0.000262275
0.000258392
0.000254352
0.000250136
0.000245733
0.000241129
0.000236315
0.000231249
0.000225902
0.000220236
0.000214208
0.000207767
0.000200859
0.00019342
0.000185371
0.000176673
0.000167295
0.000157234
0.000146518
0.000135223
0.000123485
0.000111722
0.000101076
9.13954e-05
8.36247e-05
7.93133e-05
0.000476719
0.000476518
0.000476301
0.000476074
0.00047584
0.0004756
0.000475354
0.000475102
0.000474847
0.000474586
0.000474321
0.000474052
0.000473779
0.000473502
0.000473221
0.000472935
0.000472646
0.000472352
0.000472054
0.000471753
0.000471447
0.000471137
0.000470823
0.000470504
0.000470181
0.000469853
0.00046952
0.000469182
0.000468839
0.000468491
0.000468137
0.000467777
0.000467412
0.00046704
0.000466662
0.000466278
0.000465886
0.000465488
0.000465081
0.000464667
0.000464245
0.000463814
0.000463374
0.000462925
0.000462466
0.000461997
0.000461518
0.000461028
0.000460528
0.000460017
0.000459494
0.00045896
0.000458416
0.00045786
0.000457293
0.000456716
0.000456129
0.000455535
0.000454928
0.000454308
0.000453674
0.000453026
0.000452363
0.000451683
0.000450987
0.000450271
0.000449535
0.000448776
0.000447991
0.000447177
0.00044633
0.000445445
0.000444517
0.000443539
0.000442504
0.000441402
0.000440228
0.000438977
0.000437632
0.000436171
0.000434569
0.00043282
0.000430906
0.000428808
0.000426507
0.000423983
0.000421219
0.000418199
0.000414686
0.000410604
0.000405849
0.000400303
0.000393832
0.000386265
0.000377369
0.000366846
0.000354693
0.000342278
0.00033105
0.000323674
0.000568308
0.000568715
0.000569132
0.000569555
0.000569984
0.000570419
0.000570858
0.000571301
0.00057175
0.000572204
0.000572662
0.000573126
0.000573596
0.000574071
0.000574552
0.000575039
0.000575532
0.000576032
0.000576539
0.000577053
0.000577574
0.000578103
0.00057864
0.000579185
0.000579738
0.0005803
0.00058087
0.000581451
0.00058204
0.00058264
0.000583251
0.000583872
0.000584505
0.000585149
0.000585806
0.000586476
0.000587159
0.000587856
0.000588568
0.000589295
0.000590038
0.000590798
0.000591575
0.000592371
0.000593187
0.000594022
0.00059488
0.00059576
0.000596663
0.000597592
0.000598546
0.000599529
0.00060054
0.000601581
0.000602654
0.00060376
0.000604899
0.000606073
0.000607287
0.000608544
0.000609848
0.000611204
0.000612617
0.00061409
0.000615628
0.000617237
0.000618922
0.000620689
0.000622545
0.000624498
0.000626555
0.000628726
0.00063102
0.000633448
0.000636019
0.000638746
0.00064164
0.000644714
0.000647979
0.000651447
0.000655128
0.000659031
0.000663166
0.000667539
0.000672152
0.000677007
0.0006821
0.000687438
0.000693192
0.000699454
0.000706319
0.000713828
0.000721921
0.000730632
0.00073997
0.000749891
0.000760213
0.000770425
0.000779299
0.000784527
0.000654212
0.000655101
0.000656042
0.000657016
0.000658016
0.000659034
0.00066007
0.000661119
0.000662181
0.000663257
0.000664344
0.000665445
0.000666558
0.000667683
0.000668823
0.000669975
0.000671142
0.000672322
0.000673518
0.000674728
0.000675954
0.000677196
0.000678454
0.000679729
0.000681022
0.000682331
0.000683659
0.000685006
0.000686372
0.000687758
0.000689164
0.000690592
0.000692041
0.000693514
0.000695009
0.000696529
0.000698075
0.000699646
0.000701244
0.00070287
0.000704525
0.00070621
0.000707927
0.000709676
0.000711459
0.000713278
0.000715133
0.000717027
0.000718961
0.000720937
0.000722957
0.000725023
0.000727139
0.000729305
0.000731525
0.000733801
0.000736138
0.000738538
0.000741004
0.000743541
0.000746154
0.000748847
0.000751628
0.0007545
0.00075747
0.000760543
0.000763727
0.000767028
0.000770454
0.000774012
0.000777712
0.00078156
0.000785567
0.000789741
0.000794091
0.000798626
0.000803354
0.000808283
0.000813421
0.000818772
0.000824339
0.000830125
0.00083613
0.00084235
0.000848779
0.00085541
0.000862231
0.000869225
0.000876366
0.000883625
0.000890954
0.000898377
0.000906024
0.00091374
0.000921405
0.000928881
0.000935953
0.000942254
0.000947156
0.000949633
0.000729687
0.000730886
0.000732182
0.000733532
0.000734921
0.000736339
0.000737781
0.000739242
0.000740721
0.000742216
0.000743726
0.000745253
0.000746795
0.000748353
0.000749927
0.000751517
0.000753124
0.000754749
0.000756391
0.000758051
0.00075973
0.000761427
0.000763143
0.000764879
0.000766635
0.00076841
0.000770207
0.000772024
0.000773862
0.000775723
0.000777605
0.000779511
0.00078144
0.000783392
0.00078537
0.000787371
0.000789399
0.000791453
0.000793533
0.000795641
0.000797776
0.000799941
0.000802136
0.00080436
0.000806617
0.000808906
0.000811228
0.000813585
0.000815977
0.000818407
0.000820875
0.000823384
0.000825934
0.000828527
0.000831165
0.00083385
0.000836584
0.000839368
0.000842205
0.000845096
0.000848045
0.000851055
0.000854127
0.000857265
0.000860472
0.000863748
0.000867099
0.000870525
0.000874029
0.000877614
0.000881281
0.000885032
0.000888869
0.000892793
0.000896802
0.000900897
0.000905075
0.000909333
0.000913667
0.000918068
0.00092253
0.00092704
0.000931587
0.000936155
0.000940726
0.00094528
0.000949796
0.000954245
0.000958599
0.000962825
0.000966886
0.000970741
0.000974341
0.000977754
0.000980921
0.000983796
0.000986317
0.000988398
0.000989903
0.000990603
0.000792432
0.000793788
0.000795267
0.00079681
0.000798396
0.000800014
0.000801655
0.000803314
0.000804989
0.000806678
0.000808381
0.000810097
0.000811827
0.000813571
0.000815328
0.000817099
0.000818885
0.000820686
0.000822502
0.000824333
0.00082618
0.000828043
0.000829922
0.000831817
0.000833729
0.000835658
0.000837604
0.000839566
0.000841546
0.000843544
0.000845559
0.000847592
0.000849643
0.000851711
0.000853798
0.000855903
0.000858026
0.000860168
0.000862327
0.000864506
0.000866702
0.000868917
0.000871151
0.000873403
0.000875674
0.000877964
0.000880272
0.000882599
0.000884946
0.000887311
0.000889696
0.0008921
0.000894524
0.000896968
0.000899432
0.000901916
0.00090442
0.000906944
0.000909489
0.000912054
0.000914639
0.000917246
0.000919873
0.00092252
0.000925187
0.000927874
0.000930579
0.000933302
0.000936042
0.000938796
0.000941564
0.000944342
0.000947128
0.000949919
0.000952711
0.000955499
0.000958277
0.00096104
0.000963779
0.000966488
0.000969157
0.000971776
0.000974335
0.000976822
0.000979226
0.000981534
0.000983734
0.000985814
0.000987759
0.000989558
0.000991198
0.000992664
0.000993944
0.000995048
0.00099601
0.000996827
0.000997496
0.000998011
0.000998362
0.000998519
0.000842189
0.000843604
0.000845146
0.000846748
0.000848388
0.000850053
0.000851734
0.000853426
0.000855128
0.000856837
0.000858553
0.000860276
0.000862006
0.000863742
0.000865486
0.000867238
0.000868997
0.000870765
0.00087254
0.000874325
0.000876118
0.000877919
0.00087973
0.00088155
0.00088338
0.000885218
0.000887066
0.000888923
0.000890789
0.000892665
0.000894549
0.000896443
0.000898346
0.000900257
0.000902177
0.000904105
0.000906042
0.000907986
0.000909937
0.000911896
0.000913861
0.000915833
0.00091781
0.000919793
0.00092178
0.000923772
0.000925767
0.000927765
0.000929766
0.000931768
0.000933771
0.000935774
0.000937777
0.000939778
0.000941777
0.000943772
0.000945763
0.00094775
0.000949729
0.000951701
0.000953665
0.000955619
0.000957562
0.000959493
0.00096141
0.000963311
0.000965195
0.00096706
0.000968904
0.000970725
0.00097252
0.000974287
0.000976023
0.000977725
0.00097939
0.000981014
0.000982594
0.000984126
0.000985605
0.000987028
0.00098839
0.000989686
0.000990913
0.000992066
0.000993142
0.000994138
0.000995049
0.000995875
0.000996614
0.000997264
0.000997825
0.000998298
0.000998685
0.000998989
0.000999237
0.000999434
0.000999584
0.000999693
0.000999763
0.000999794
0.000879871
0.000881308
0.000882859
0.000884456
0.000886077
0.00088771
0.000889348
0.000890988
0.000892627
0.000894265
0.0008959
0.000897534
0.000899165
0.000900795
0.000902423
0.000904049
0.000905675
0.000907299
0.000908924
0.000910547
0.000912171
0.000913795
0.000915418
0.000917042
0.000918666
0.00092029
0.000921915
0.000923539
0.000925164
0.000926788
0.000928412
0.000930035
0.000931658
0.00093328
0.0009349
0.000936519
0.000938137
0.000939752
0.000941364
0.000942973
0.000944578
0.00094618
0.000947777
0.000949368
0.000950954
0.000952533
0.000954104
0.000955668
0.000957223
0.000958768
0.000960302
0.000961825
0.000963335
0.000964832
0.000966315
0.000967781
0.000969231
0.000970663
0.000972076
0.000973469
0.00097484
0.000976188
0.000977512
0.000978811
0.000980083
0.000981327
0.000982541
0.000983725
0.000984876
0.000985992
0.000987074
0.000988119
0.000989125
0.000990092
0.000991017
0.0009919
0.000992739
0.000993532
0.000994279
0.000994978
0.000995628
0.00099623
0.000996781
0.000997283
0.000997734
0.000998137
0.000998492
0.0009988
0.000999064
0.000999285
0.000999465
0.000999609
0.000999718
0.000999798
0.000999858
0.000999902
0.000999934
0.000999955
0.000999968
0.000999974
0.000906812
0.000908278
0.000909835
0.000911416
0.000913004
0.000914589
0.000916168
0.000917737
0.000919295
0.000920841
0.000922377
0.000923901
0.000925413
0.000926915
0.000928407
0.000929888
0.000931359
0.00093282
0.000934272
0.000935715
0.000937148
0.000938573
0.000939989
0.000941397
0.000942796
0.000944187
0.00094557
0.000946944
0.00094831
0.000949668
0.000951017
0.000952357
0.000953689
0.000955011
0.000956324
0.000957628
0.000958922
0.000960206
0.000961479
0.000962742
0.000963993
0.000965234
0.000966462
0.000967678
0.000968881
0.000970072
0.000971248
0.00097241
0.000973557
0.000974689
0.000975805
0.000976904
0.000977986
0.00097905
0.000980095
0.00098112
0.000982124
0.000983108
0.00098407
0.000985008
0.000985924
0.000986815
0.000987681
0.000988521
0.000989335
0.000990121
0.000990879
0.000991608
0.000992308
0.000992978
0.000993617
0.000994224
0.0009948
0.000995344
0.000995855
0.000996333
0.000996779
0.000997192
0.000997571
0.000997919
0.000998234
0.000998518
0.000998771
0.000998994
0.000999189
0.000999357
0.0009995
0.00099962
0.000999717
0.000999796
0.000999856
0.000999902
0.000999935
0.000999957
0.000999972
0.000999982
0.000999989
0.000999993
0.000999996
0.000999997
0.00092446
0.000925979
0.000927563
0.000929148
0.000930722
0.00093228
0.00093382
0.000935341
0.000936841
0.000938322
0.000939782
0.000941223
0.000942645
0.000944048
0.000945432
0.000946799
0.000948147
0.000949479
0.000950794
0.000952092
0.000953373
0.000954639
0.000955889
0.000957123
0.000958342
0.000959545
0.000960734
0.000961907
0.000963066
0.00096421
0.000965338
0.000966453
0.000967552
0.000968636
0.000969705
0.000970759
0.000971798
0.000972821
0.000973829
0.000974822
0.000975798
0.000976759
0.000977704
0.000978633
0.000979545
0.00098044
0.000981319
0.00098218
0.000983023
0.000983849
0.000984657
0.000985446
0.000986217
0.000986969
0.000987702
0.000988415
0.000989108
0.000989781
0.000990434
0.000991065
0.000991676
0.000992264
0.000992831
0.000993376
0.000993898
0.000994398
0.000994875
0.000995329
0.00099576
0.000996168
0.000996553
0.000996914
0.000997253
0.000997569
0.000997862
0.000998133
0.000998382
0.000998609
0.000998815
0.000999
0.000999166
0.000999312
0.000999441
0.000999552
0.000999647
0.000999727
0.000999793
0.000999847
0.000999891
0.000999924
0.000999949
0.000999967
0.00099998
0.000999988
0.000999993
0.000999996
0.000999998
0.000999999
0.000999999
0.001
0.000934327
0.000935916
0.000937547
0.000939161
0.000940751
0.000942314
0.000943849
0.000945358
0.000946839
0.000948293
0.000949721
0.000951124
0.000952501
0.000953853
0.00095518
0.000956484
0.000957765
0.000959022
0.000960257
0.000961471
0.000962662
0.000963832
0.000964981
0.00096611
0.000967218
0.000968305
0.000969374
0.000970422
0.000971451
0.00097246
0.000973451
0.000974422
0.000975374
0.000976308
0.000977223
0.000978119
0.000978997
0.000979856
0.000980697
0.000981519
0.000982323
0.000983109
0.000983876
0.000984625
0.000985355
0.000986067
0.000986761
0.000987436
0.000988092
0.000988731
0.00098935
0.000989952
0.000990534
0.000991098
0.000991644
0.000992171
0.000992679
0.000993169
0.00099364
0.000994092
0.000994525
0.00099494
0.000995337
0.000995714
0.000996074
0.000996415
0.000996738
0.000997042
0.000997329
0.000997599
0.00099785
0.000998085
0.000998303
0.000998505
0.00099869
0.00099886
0.000999015
0.000999156
0.000999282
0.000999395
0.000999496
0.000999584
0.000999661
0.000999727
0.000999784
0.000999832
0.000999871
0.000999903
0.000999929
0.00099995
0.000999965
0.000999977
0.000999985
0.000999991
0.000999995
0.000999998
0.000999999
0.001
0.001
0.001
0.000938032
0.00093968
0.000941362
0.000943015
0.000944636
0.000946224
0.00094778
0.000949303
0.000950796
0.000952257
0.000953688
0.00095509
0.000956463
0.000957808
0.000959124
0.000960414
0.000961677
0.000962914
0.000964125
0.000965311
0.000966472
0.000967609
0.000968722
0.000969811
0.000970877
0.000971921
0.000972942
0.00097394
0.000974917
0.000975872
0.000976805
0.000977717
0.000978608
0.000979478
0.000980328
0.000981157
0.000981966
0.000982755
0.000983524
0.000984272
0.000985002
0.000985711
0.000986401
0.000987072
0.000987724
0.000988356
0.000988969
0.000989564
0.000990139
0.000990696
0.000991235
0.000991754
0.000992256
0.000992739
0.000993204
0.000993651
0.00099408
0.000994491
0.000994885
0.000995261
0.000995619
0.000995961
0.000996285
0.000996593
0.000996885
0.00099716
0.00099742
0.000997663
0.000997892
0.000998105
0.000998304
0.000998488
0.000998659
0.000998816
0.000998961
0.000999092
0.000999212
0.000999321
0.000999419
0.000999506
0.000999583
0.000999652
0.000999712
0.000999764
0.000999809
0.000999847
0.000999879
0.000999906
0.000999928
0.000999945
0.00099996
0.000999971
0.00099998
0.000999987
0.000999992
0.000999996
0.000999999
0.001
0.001
0.001
2.87118e-12
5.91116e-12
1.21226e-11
2.29922e-11
4.12514e-11
7.12831e-11
1.20198e-10
1.99787e-10
3.30077e-10
5.46007e-10
9.10241e-10
1.53852e-09
2.65137e-09
4.68244e-09
8.51233e-09
1.59809e-08
3.10094e-08
6.18916e-08
1.24303e-07
2.30555e-07
3.29232e-11
5.57753e-11
9.81912e-11
1.68187e-10
2.79232e-10
4.52096e-10
7.19549e-10
1.13466e-09
1.78582e-09
2.82459e-09
4.5185e-09
7.35422e-09
1.2244e-08
2.09518e-08
3.69901e-08
6.75289e-08
1.27427e-07
2.4688e-07
4.79305e-07
8.52383e-07
3.80134e-10
5.68935e-10
8.76487e-10
1.34501e-09
2.04005e-09
3.05632e-09
4.53776e-09
6.71103e-09
9.94449e-09
1.48545e-08
2.2503e-08
3.4772e-08
5.50949e-08
8.99193e-08
1.51693e-07
2.65028e-07
4.79151e-07
8.89737e-07
1.65325e-06
2.79205e-06
4.00025e-09
5.44672e-09
7.58441e-09
1.05821e-08
1.47254e-08
2.04038e-08
2.81856e-08
3.89413e-08
5.40545e-08
7.57879e-08
1.0794e-07
1.57062e-07
2.34728e-07
3.61957e-07
5.77957e-07
9.57449e-07
1.64351e-06
2.899e-06
5.10747e-06
8.08564e-06
3.79413e-08
4.78218e-08
6.13582e-08
7.90154e-08
1.01818e-07
1.31129e-07
1.68884e-07
2.18002e-07
2.83058e-07
3.71398e-07
4.95113e-07
6.74467e-07
9.44055e-07
1.36459e-06
2.04513e-06
3.18435e-06
5.14252e-06
8.53199e-06
1.4091e-05
2.06881e-05
3.21698e-07
3.80343e-07
4.55996e-07
5.48762e-07
6.61409e-07
7.9766e-07
9.629e-07
1.16536e-06
1.41797e-06
1.74138e-06
2.16953e-06
2.75723e-06
3.5952e-06
4.83741e-06
6.74822e-06
9.78375e-06
1.47139e-05
2.26987e-05
3.46217e-05
4.68385e-05
2.39864e-06
2.69034e-06
3.04934e-06
3.46704e-06
3.94711e-06
4.4959e-06
5.12422e-06
5.85023e-06
6.70389e-06
7.73548e-06
9.02656e-06
1.07039e-05
1.29725e-05
1.61686e-05
2.08402e-05
2.78699e-05
3.85923e-05
5.46093e-05
7.56603e-05
9.41524e-05
1.53108e-05
1.64535e-05
1.78108e-05
1.93201e-05
2.09696e-05
2.27563e-05
2.46905e-05
2.67989e-05
2.91425e-05
3.18268e-05
3.50038e-05
3.89109e-05
4.39319e-05
5.06782e-05
6.00909e-05
7.35255e-05
9.26665e-05
0.000118409
0.000147106
0.000168782
8.02893e-05
8.33811e-05
8.69634e-05
9.07808e-05
9.47455e-05
9.87939e-05
0.000102923
0.000107173
0.000111669
0.000116532
0.00012194
0.000128203
0.000135866
0.000145737
0.00015907
0.000177294
0.000201384
0.000229543
0.000255198
0.000271995
0.000323531
0.000327161
0.000331328
0.000335531
0.000339576
0.000343293
0.00034673
0.000349933
0.000352897
0.000355566
0.000358053
0.000360417
0.000363081
0.00036629
0.000370924
0.000377487
0.000385832
0.000393542
0.00039723
0.000398312
0.000783445
0.000779847
0.000775657
0.000771187
0.000766517
0.00076169
0.00075657
0.000750996
0.000744842
0.000737942
0.000730072
0.000720814
0.000709532
0.000695267
0.000676539
0.00065209
0.00062209
0.000589005
0.000557425
0.000534551
0.000948444
0.000946002
0.000943134
0.000939977
0.000936553
0.000932861
0.000928855
0.000924452
0.00091948
0.00091373
0.000906928
0.000898626
0.000888095
0.000874247
0.000855421
0.000829464
0.000794167
0.000749686
0.000702536
0.000665319
0.000990162
0.000989299
0.000988259
0.000987067
0.000985716
0.000984188
0.00098245
0.000980452
0.000978106
0.00097528
0.000971769
0.000967268
0.000961281
0.000953026
0.000941263
0.000924101
0.000898867
0.000862969
0.000818708
0.000779613
0.000998416
0.000998194
0.000997916
0.000997583
0.000997186
0.000996713
0.000996145
0.000995456
0.000994604
0.000993524
0.00099211
0.000990198
0.000987521
0.000983639
0.000977812
0.000968806
0.000954632
0.000932518
0.000901277
0.000870241
0.000999777
0.000999731
0.00099967
0.000999593
0.000999496
0.000999373
0.000999218
0.000999018
0.000998756
0.000998405
0.00099792
0.000997228
0.000996207
0.000994648
0.000992183
0.000988159
0.000981437
0.00097018
0.000952561
0.000933083
0.000999972
0.000999964
0.000999952
0.000999937
0.000999916
0.000999888
0.00099985
0.000999799
0.000999728
0.000999627
0.00099948
0.000999258
0.000998915
0.000998363
0.000997447
0.000995875
0.000993106
0.000988189
0.000979874
0.000969462
0.000999997
0.000999996
0.000999994
0.000999991
0.000999987
0.000999981
0.000999973
0.000999961
0.000999943
0.000999917
0.000999877
0.000999813
0.00099971
0.000999536
0.000999233
0.000998689
0.000997686
0.000995815
0.000992453
0.000987751
0.001
0.001
0.000999999
0.000999999
0.000999998
0.000999997
0.000999995
0.000999993
0.000999989
0.000999982
0.000999972
0.000999956
0.000999928
0.000999878
0.000999789
0.000999621
0.000999299
0.000998673
0.000997491
0.00099569
0.001
0.001
0.001
0.001
0.001
0.001
0.000999999
0.000999999
0.000999998
0.000999996
0.000999994
0.00099999
0.000999983
0.00099997
0.000999946
0.0009999
0.000999808
0.000999623
0.000999258
0.000998667
0.001
0.001
0.001
0.001
0.001
0.001
0.001
0.001
0.001
0.000999999
0.000999999
0.000999998
0.000999996
0.000999993
0.000999987
0.000999976
0.000999952
0.000999904
0.000999805
0.000999636
6.81298e-141
7.96767e-141
1.20158e-140
2.24402e-140
4.63481e-140
9.82809e-140
2.07491e-139
4.31311e-139
8.78701e-139
1.74954e-138
3.3955e-138
6.39879e-138
1.1677e-137
2.05619e-137
3.47794e-137
5.61745e-137
8.59457e-137
1.23149e-136
1.62435e-136
1.91707e-136
1.71334e-139
1.95047e-139
2.87627e-139
5.32452e-139
1.09982e-138
2.33996e-138
4.96193e-138
1.0365e-137
2.12282e-137
4.25071e-137
8.30073e-137
1.57436e-136
2.89262e-136
5.13065e-136
8.7464e-136
1.42486e-135
2.20081e-135
3.18716e-135
4.25478e-135
5.09273e-135
3.9956e-138
4.41143e-138
6.33536e-138
1.16021e-137
2.396e-137
5.1165e-137
1.09025e-136
2.28969e-136
4.71665e-136
9.50343e-136
1.86825e-135
3.56864e-135
6.60671e-135
1.1814e-134
2.03169e-134
3.3414e-134
5.21553e-134