/*--------------------------------*- C++ -*----------------------------------*\
| =========                 |                                                 |
| \\      /  F ield         | OpenFOAM: The Open Source CFD Toolbox           |
|  \\    /   O peration     | Version:  2.1.0                                 |
|   \\  /    A nd           | Web:      www.OpenFOAM.org                      |
|    \\/     M anipulation  |                                                 |
\*---------------------------------------------------------------------------*/
FoamFile
{
    version     2.0;
    format      ascii;
    class       volScalarField;
    location    "0.44";
    object      C2;
}
// * * * * * * * * * * * * * * * * * * * * * * * * * * * * * * * * * * * * * //

dimensions      [0 0 0 0 0 0 0];

internalField   nonuniform List<scalar> 
6400
(
0.00242696
0.00242415
0.00242054
0.00241662
0.00241252
0.00240826
0.00240385
0.00239928
0.00239456
0.00238967
0.00238462
0.0023794
0.00237401
0.00236844
0.00236268
0.00235674
0.0023506
0.00234426
0.00233772
0.00233096
0.00232399
0.00231679
0.00230936
0.00230169
0.00229378
0.00228561
0.00227718
0.00226848
0.0022595
0.00225024
0.00224067
0.00223081
0.00222062
0.00221012
0.00219927
0.00218808
0.00217653
0.00216461
0.00215231
0.00213961
0.0021265
0.00211298
0.00209902
0.0020846
0.00206973
0.00205437
0.00203851
0.00202215
0.00200525
0.0019878
0.00196978
0.00195118
0.00193197
0.00191213
0.00189165
0.00187049
0.00184864
0.00182607
0.00180276
0.00177867
0.0017538
0.0017281
0.00170156
0.00167414
0.00164581
0.00161655
0.00158632
0.0015551
0.00152284
0.00148952
0.00145511
0.00141956
0.00138285
0.00134495
0.00130581
0.0012654
0.0012237
0.00118068
0.00113629
0.00109053
0.00104337
0.000994784
0.000944779
0.000893354
0.000840524
0.00078632
0.000730792
0.000674014
0.00061609
0.00055716
0.000497406
0.000437068
0.000376491
0.000316236
0.000257174
0.000200411
0.000146846
9.80545e-05
5.65646e-05
2.58187e-05
0.00242975
0.00242696
0.0024234
0.00241955
0.00241552
0.00241134
0.002407
0.00240251
0.00239787
0.00239307
0.00238811
0.00238297
0.00237767
0.00237219
0.00236653
0.00236069
0.00235465
0.00234842
0.00234198
0.00233533
0.00232847
0.00232138
0.00231407
0.00230652
0.00229873
0.00229068
0.00228238
0.00227381
0.00226497
0.00225584
0.00224642
0.0022367
0.00222666
0.0022163
0.00220561
0.00219457
0.00218318
0.00217142
0.00215928
0.00214675
0.00213381
0.00212045
0.00210666
0.00209243
0.00207773
0.00206255
0.00204688
0.00203069
0.00201398
0.00199671
0.00197888
0.00196047
0.00194145
0.0019218
0.00190149
0.00188052
0.00185885
0.00183646
0.00181332
0.00178942
0.00176471
0.00173918
0.0017128
0.00168553
0.00165735
0.00162823
0.00159813
0.00156702
0.00153486
0.00150163
0.00146728
0.00143179
0.00139511
0.0013572
0.00131804
0.00127758
0.00123579
0.00119264
0.00114808
0.00110209
0.00105464
0.00100572
0.000955288
0.000903356
0.000849921
0.000795003
0.000738641
0.000680901
0.000621886
0.000561753
0.000500729
0.000439147
0.000377494
0.000316466
0.000256981
0.000200289
0.000147377
0.000100084
6.10176e-05
3.30897e-05
0.0024357
0.00243299
0.00242956
0.00242587
0.002422
0.00241799
0.00241382
0.00240951
0.00240505
0.00240044
0.00239566
0.00239073
0.00238563
0.00238036
0.00237491
0.00236929
0.00236348
0.00235747
0.00235127
0.00234487
0.00233825
0.00233143
0.00232438
0.0023171
0.00230958
0.00230182
0.00229381
0.00228554
0.002277
0.00226818
0.00225908
0.00224968
0.00223998
0.00222996
0.00221962
0.00220894
0.00219791
0.00218652
0.00217476
0.00216262
0.00215008
0.00213713
0.00212375
0.00210993
0.00209566
0.00208092
0.00206568
0.00204995
0.00203369
0.00201688
0.00199952
0.00198158
0.00196303
0.00194386
0.00192405
0.00190357
0.00188239
0.0018605
0.00183787
0.00181446
0.00179026
0.00176523
0.00173935
0.00171258
0.0016849
0.00165626
0.00162664
0.001596
0.00156431
0.00153152
0.0014976
0.00146251
0.00142621
0.00138866
0.00134982
0.00130964
0.00126808
0.0012251
0.00118065
0.0011347
0.0010872
0.00103811
0.000987409
0.000935056
0.000881036
0.000825344
0.000767993
0.00070903
0.000648548
0.000586709
0.000523781
0.000460185
0.00039655
0.000333781
0.000273123
0.000215838
0.000162996
0.000116454
7.85254e-05
5.16541e-05
0.0024449
0.00244235
0.00243915
0.0024357
0.00243209
0.00242835
0.00242446
0.00242043
0.00241626
0.00241194
0.00240748
0.00240286
0.00239809
0.00239315
0.00238805
0.00238277
0.00237732
0.00237169
0.00236587
0.00235986
0.00235365
0.00234724
0.00234061
0.00233377
0.0023267
0.0023194
0.00231186
0.00230407
0.00229603
0.00228772
0.00227914
0.00227028
0.00226112
0.00225167
0.0022419
0.00223181
0.00222139
0.00221062
0.0021995
0.00218801
0.00217613
0.00216386
0.00215118
0.00213807
0.00212453
0.00211053
0.00209606
0.0020811
0.00206563
0.00204964
0.0020331
0.002016
0.00199831
0.00198002
0.0019611
0.00194153
0.00192128
0.00190033
0.00187866
0.00185623
0.00183302
0.001809
0.00178414
0.0017584
0.00173177
0.00170419
0.00167565
0.00164609
0.00161549
0.0015838
0.00155099
0.00151701
0.00148182
0.00144537
0.00140762
0.00136852
0.00132802
0.00128607
0.00124261
0.00119759
0.00115096
0.00110266
0.00105262
0.0010008
0.000947134
0.000891584
0.00083412
0.000774743
0.0007135
0.000650521
0.000586056
0.000520531
0.000454619
0.000389327
0.00032605
0.000265977
0.000210294
0.000160937
0.000120322
9.1482e-05
0.00245731
0.002455
0.00245212
0.00244902
0.00244577
0.0024424
0.00243889
0.00243526
0.00243149
0.00242759
0.00242355
0.00241937
0.00241505
0.00241058
0.00240595
0.00240117
0.00239623
0.00239112
0.00238584
0.00238038
0.00237473
0.0023689
0.00236287
0.00235665
0.00235021
0.00234356
0.00233669
0.00232959
0.00232225
0.00231467
0.00230684
0.00229875
0.00229038
0.00228174
0.0022728
0.00226357
0.00225403
0.00224416
0.00223397
0.00222343
0.00221253
0.00220127
0.00218962
0.00217757
0.00216512
0.00215224
0.00213891
0.00212513
0.00211087
0.00209613
0.00208087
0.00206508
0.00204874
0.00203183
0.00201433
0.00199621
0.00197746
0.00195805
0.00193795
0.00191714
0.00189559
0.00187328
0.00185017
0.00182623
0.00180144
0.00177576
0.00174915
0.00172159
0.00169303
0.00166343
0.00163276
0.00160097
0.00156802
0.00153386
0.00149844
0.00146171
0.00142361
0.00138409
0.00134308
0.00130051
0.00125631
0.0012104
0.00116268
0.00111308
0.00106148
0.0010078
0.000951933
0.000893804
0.00083337
0.000770656
0.000705798
0.000639101
0.000571109
0.000502704
0.000435187
0.000369703
0.000307622
0.00025124
0.000203818
0.000170412
0.00247279
0.00247079
0.00246832
0.00246567
0.00246288
0.00245998
0.00245696
0.00245383
0.00245058
0.00244721
0.00244372
0.00244011
0.00243637
0.0024325
0.0024285
0.00242435
0.00242006
0.00241563
0.00241104
0.0024063
0.00240139
0.00239632
0.00239107
0.00238565
0.00238005
0.00237425
0.00236826
0.00236207
0.00235567
0.00234905
0.0023422
0.00233513
0.00232782
0.00232026
0.00231244
0.00230435
0.002296
0.00228735
0.00227841
0.00226917
0.00225961
0.00224972
0.00223949
0.0022289
0.00221795
0.00220662
0.0021949
0.00218277
0.00217022
0.00215722
0.00214378
0.00212985
0.00211544
0.00210052
0.00208507
0.00206908
0.00205251
0.00203536
0.00201759
0.00199918
0.00198012
0.00196037
0.0019399
0.0019187
0.00189673
0.00187396
0.00185036
0.0018259
0.00180055
0.00177426
0.001747
0.00171873
0.0016894
0.00165897
0.00162739
0.00159461
0.00156056
0.00152518
0.00148841
0.00145015
0.00141033
0.00136884
0.00132556
0.00128037
0.00123314
0.00118368
0.00113185
0.00107744
0.00102031
0.000960297
0.000897346
0.000831506
0.000763018
0.000692394
0.000620575
0.000548739
0.000478403
0.000412431
0.000355609
0.000316263
0.00249104
0.00248944
0.00248746
0.00248534
0.00248311
0.00248078
0.00247835
0.00247583
0.00247321
0.00247049
0.00246768
0.00246475
0.00246172
0.00245859
0.00245534
0.00245197
0.00244849
0.00244488
0.00244115
0.00243728
0.00243329
0.00242915
0.00242488
0.00242045
0.00241588
0.00241114
0.00240625
0.00240118
0.00239595
0.00239053
0.00238493
0.00237914
0.00237314
0.00236695
0.00236054
0.00235391
0.00234705
0.00233996
0.00233262
0.00232503
0.00231718
0.00230905
0.00230064
0.00229194
0.00228294
0.00227362
0.00226398
0.002254
0.00224366
0.00223297
0.00222189
0.00221043
0.00219856
0.00218626
0.00217353
0.00216035
0.00214669
0.00213254
0.00211789
0.00210271
0.00208698
0.00207068
0.00205379
0.00203629
0.00201815
0.00199935
0.00197986
0.00195965
0.0019387
0.00191697
0.00189442
0.00187103
0.00184676
0.00182155
0.00179538
0.00176817
0.00173989
0.00171046
0.00167981
0.00164787
0.00161453
0.00157969
0.00154321
0.00150496
0.00146475
0.00142239
0.00137764
0.00133023
0.00127988
0.00122628
0.00116913
0.00110818
0.00104326
0.000974338
0.000901696
0.00082651
0.000750257
0.000676231
0.00061091
0.000566379
0.00251163
0.00251049
0.00250909
0.00250758
0.00250599
0.00250433
0.00250259
0.00250077
0.00249888
0.00249692
0.00249488
0.00249276
0.00249055
0.00248827
0.0024859
0.00248344
0.0024809
0.00247826
0.00247553
0.0024727
0.00246977
0.00246673
0.00246359
0.00246034
0.00245697
0.00245349
0.00244989
0.00244616
0.0024423
0.00243831
0.00243418
0.0024299
0.00242548
0.00242091
0.00241618
0.00241128
0.00240622
0.00240098
0.00239556
0.00238995
0.00238414
0.00237813
0.00237192
0.00236548
0.00235882
0.00235193
0.0023448
0.00233741
0.00232977
0.00232185
0.00231366
0.00230518
0.00229639
0.00228729
0.00227787
0.00226812
0.00225801
0.00224755
0.0022367
0.00222547
0.00221384
0.00220178
0.00218929
0.00217635
0.00216294
0.00214905
0.00213464
0.00211971
0.00210423
0.00208818
0.00207153
0.00205425
0.00203632
0.0020177
0.00199835
0.00197823
0.0019573
0.0019355
0.00191277
0.00188904
0.00186421
0.0018382
0.00181088
0.0017821
0.00175171
0.00171949
0.00168521
0.00164857
0.00160923
0.0015668
0.00152084
0.00147089
0.00141641
0.00135682
0.00129156
0.00122149
0.0011479
0.00107384
0.00100663
0.000960936
0.00253396
0.00253335
0.00253258
0.00253175
0.00253087
0.00252994
0.00252896
0.00252793
0.00252685
0.00252572
0.00252454
0.00252331
0.00252202
0.00252069
0.0025193
0.00251785
0.00251635
0.00251479
0.00251317
0.00251149
0.00250974
0.00250793
0.00250606
0.00250412
0.0025021
0.00250002
0.00249786
0.00249562
0.0024933
0.00249091
0.00248842
0.00248585
0.00248319
0.00248044
0.00247759
0.00247464
0.00247159
0.00246843
0.00246516
0.00246178
0.00245828
0.00245466
0.00245091
0.00244703
0.00244301
0.00243886
0.00243455
0.0024301
0.00242549
0.00242072
0.00241578
0.00241067
0.00240537
0.0023999
0.00239422
0.00238835
0.00238228
0.00237599
0.00236947
0.00236273
0.00235575
0.00234853
0.00234105
0.00233331
0.0023253
0.002317
0.00230842
0.00229953
0.00229033
0.0022808
0.00227093
0.0022607
0.00225009
0.0022391
0.00222768
0.00221583
0.0022035
0.00219066
0.00217727
0.00216327
0.00214862
0.00213323
0.00211702
0.00209989
0.0020817
0.00206232
0.00204158
0.00201925
0.00199503
0.00196861
0.00193961
0.00190757
0.00187191
0.00183188
0.00178648
0.00173485
0.00167898
0.00162043
0.00156526
0.00152689
0.00255727
0.00255721
0.00255713
0.00255702
0.00255689
0.00255673
0.00255655
0.00255635
0.00255613
0.00255588
0.00255562
0.00255533
0.00255502
0.00255469
0.00255433
0.00255396
0.00255356
0.00255314
0.0025527
0.00255224
0.00255176
0.00255125
0.00255072
0.00255016
0.00254958
0.00254898
0.00254835
0.00254769
0.00254701
0.0025463
0.00254557
0.00254481
0.00254401
0.00254319
0.00254234
0.00254146
0.00254054
0.0025396
0.00253861
0.0025376
0.00253654
0.00253545
0.00253433
0.00253316
0.00253195
0.0025307
0.0025294
0.00252807
0.00252668
0.00252525
0.00252377
0.00252224
0.00252067
0.00251903
0.00251735
0.00251561
0.00251382
0.00251197
0.00251007
0.0025081
0.00250608
0.002504
0.00250186
0.00249967
0.00249741
0.00249509
0.00249272
0.00249028
0.00248779
0.00248523
0.00248262
0.00247994
0.0024772
0.00247439
0.00247151
0.00246855
0.0024655
0.00246237
0.00245912
0.00245575
0.00245221
0.00244848
0.00244452
0.00244028
0.00243572
0.00243078
0.0024254
0.00241956
0.00241308
0.00240587
0.0023978
0.0023887
0.00237832
0.00236629
0.00235209
0.00233499
0.00231451
0.00229166
0.00226864
0.00225127
0.0025807
0.00258122
0.00258182
0.00258245
0.00258308
0.00258371
0.00258434
0.00258498
0.00258563
0.00258628
0.00258694
0.0025876
0.00258828
0.00258896
0.00258966
0.00259037
0.00259109
0.00259183
0.00259258
0.00259335
0.00259413
0.00259494
0.00259577
0.00259661
0.00259748
0.00259838
0.0025993
0.00260024
0.00260121
0.00260221
0.00260324
0.0026043
0.0026054
0.00260653
0.00260769
0.0026089
0.00261014
0.00261142
0.00261275
0.00261412
0.00261554
0.002617
0.00261852
0.00262009
0.00262171
0.00262339
0.00262513
0.00262693
0.0026288
0.00263074
0.00263275
0.00263483
0.002637
0.00263924
0.00264158
0.002644
0.00264652
0.00264914
0.00265186
0.00265469
0.00265765
0.00266072
0.00266393
0.00266728
0.00267079
0.00267444
0.00267827
0.00268228
0.00268647
0.00269087
0.00269549
0.00270033
0.00270542
0.00271076
0.00271639
0.0027223
0.00272852
0.00273507
0.00274196
0.00274922
0.00275685
0.00276488
0.00277332
0.0027822
0.00279154
0.00280134
0.00281163
0.0028224
0.00283378
0.00284592
0.00285904
0.00287341
0.00288919
0.00290653
0.00292563
0.00294674
0.00297006
0.0029953
0.0030201
0.00303801
0.0026034
0.00260447
0.00260575
0.00260708
0.00260845
0.00260985
0.00261127
0.00261273
0.00261421
0.00261573
0.00261729
0.00261888
0.0026205
0.00262217
0.00262389
0.00262564
0.00262745
0.0026293
0.00263121
0.00263317
0.00263518
0.00263726
0.00263939
0.00264159
0.00264386
0.0026462
0.00264861
0.0026511
0.00265366
0.00265631
0.00265904
0.00266186
0.00266478
0.00266778
0.00267089
0.0026741
0.00267742
0.00268085
0.0026844
0.00268806
0.00269186
0.00269578
0.00269983
0.00270403
0.00270837
0.00271287
0.00271752
0.00272234
0.00272733
0.00273249
0.00273784
0.00274338
0.00274913
0.00275508
0.00276125
0.00276765
0.00277428
0.00278117
0.00278831
0.00279572
0.00280342
0.00281141
0.00281971
0.00282835
0.00283732
0.00284666
0.00285638
0.0028665
0.00287704
0.00288803
0.00289949
0.00291144
0.00292392
0.00293696
0.00295059
0.00296484
0.00297976
0.00299538
0.00301176
0.00302893
0.00304694
0.00306587
0.00308576
0.00310669
0.00312874
0.003152
0.00317658
0.0032026
0.00323027
0.00325979
0.00329141
0.00332555
0.00336302
0.00340417
0.00344926
0.0034985
0.00355155
0.00360646
0.00365751
0.00369237
0.00262467
0.00262624
0.00262814
0.00263014
0.00263219
0.0026343
0.00263646
0.00263868
0.00264095
0.00264327
0.00264566
0.00264811
0.00265062
0.0026532
0.00265585
0.00265858
0.00266139
0.00266428
0.00266725
0.00267031
0.00267346
0.00267671
0.00268006
0.00268351
0.00268707
0.00269074
0.00269452
0.00269843
0.00270246
0.00270663
0.00271092
0.00271536
0.00271995
0.00272468
0.00272958
0.00273463
0.00273986
0.00274526
0.00275084
0.00275661
0.00276258
0.00276875
0.00277514
0.00278174
0.00278857
0.00279564
0.00280296
0.00281053
0.00281837
0.00282648
0.00283488
0.00284358
0.00285259
0.00286192
0.00287159
0.0028816
0.00289199
0.00290275
0.0029139
0.00292547
0.00293748
0.00294993
0.00296285
0.00297627
0.0029902
0.00300467
0.00301971
0.00303535
0.00305161
0.00306852
0.00308613
0.00310446
0.00312357
0.00314348
0.00316424
0.00318592
0.00320855
0.00323219
0.00325691
0.00328277
0.00330985
0.00333822
0.00336798
0.00339921
0.00343202
0.00346654
0.00350292
0.0035413
0.0035819
0.00362494
0.00367066
0.0037194
0.00377151
0.00382775
0.003888
0.00395202
0.00401875
0.00408529
0.0041451
0.00418535
0.00264392
0.00264593
0.00264838
0.00265097
0.00265365
0.0026564
0.00265922
0.00266211
0.00266508
0.00266813
0.00267126
0.00267447
0.00267777
0.00268117
0.00268466
0.00268825
0.00269194
0.00269575
0.00269966
0.0027037
0.00270786
0.00271214
0.00271656
0.00272111
0.0027258
0.00273065
0.00273565
0.0027408
0.00274612
0.00275162
0.00275729
0.00276315
0.0027692
0.00277544
0.0027819
0.00278856
0.00279545
0.00280258
0.00280994
0.00281754
0.00282541
0.00283354
0.00284195
0.00285065
0.00285964
0.00286895
0.00287857
0.00288853
0.00289884
0.0029095
0.00292054
0.00293197
0.0029438
0.00295605
0.00296874
0.00298188
0.00299549
0.0030096
0.00302421
0.00303936
0.00305506
0.00307134
0.00308822
0.00310574
0.00312391
0.00314277
0.00316235
0.00318268
0.00320381
0.00322575
0.00324857
0.0032723
0.00329698
0.00332267
0.00334941
0.00337727
0.00340631
0.00343658
0.00346816
0.00350112
0.00353553
0.00357148
0.00360906
0.00364836
0.00368948
0.00373253
0.00377764
0.00382492
0.00387451
0.00392653
0.0039811
0.00403828
0.00409813
0.00416083
0.00422623
0.00429357
0.00436138
0.0044267
0.0044839
0.00452265
0.00266071
0.00266309
0.00266602
0.00266913
0.00267234
0.00267565
0.00267904
0.00268252
0.00268609
0.00268975
0.00269352
0.00269739
0.00270136
0.00270545
0.00270966
0.00271398
0.00271843
0.00272302
0.00272774
0.0027326
0.0027376
0.00274276
0.00274808
0.00275357
0.00275922
0.00276505
0.00277106
0.00277727
0.00278367
0.00279028
0.00279709
0.00280413
0.0028114
0.00281891
0.00282666
0.00283466
0.00284293
0.00285147
0.0028603
0.00286942
0.00287885
0.00288859
0.00289866
0.00290908
0.00291984
0.00293098
0.00294249
0.0029544
0.00296672
0.00297946
0.00299265
0.00300629
0.00302042
0.00303503
0.00305016
0.00306583
0.00308204
0.00309884
0.00311624
0.00313426
0.00315293
0.00317228
0.00319233
0.00321311
0.00323467
0.00325702
0.0032802
0.00330425
0.00332922
0.00335513
0.00338203
0.00340997
0.003439
0.00346917
0.00350053
0.00353313
0.00356705
0.00360234
0.00363906
0.00367729
0.00371709
0.00375853
0.0038017
0.00384666
0.00389348
0.00394223
0.00399298
0.00404578
0.00410063
0.00415754
0.00421641
0.00427707
0.00433922
0.00440241
0.00446646
0.00453033
0.00459247
0.00465034
0.00469985
0.00473398
0.00267476
0.00267744
0.00268077
0.00268431
0.00268797
0.00269173
0.00269559
0.00269955
0.00270362
0.0027078
0.00271209
0.0027165
0.00272103
0.00272568
0.00273047
0.0027354
0.00274047
0.00274568
0.00275106
0.00275659
0.00276228
0.00276815
0.0027742
0.00278043
0.00278685
0.00279348
0.00280031
0.00280735
0.00281461
0.00282211
0.00282984
0.00283782
0.00284605
0.00285455
0.00286332
0.00287238
0.00288173
0.00289139
0.00290136
0.00291166
0.0029223
0.0029333
0.00294466
0.00295639
0.00296852
0.00298106
0.00299402
0.00300742
0.00302127
0.00303559
0.0030504
0.00306572
0.00308157
0.00309796
0.00311492
0.00313247
0.00315062
0.00316942
0.00318887
0.00320901
0.00322987
0.00325146
0.00327383
0.003297
0.003321
0.00334587
0.00337165
0.00339837
0.00342607
0.00345479
0.00348458
0.00351548
0.00354753
0.0035808
0.00361533
0.00365116
0.00368837
0.003727
0.00376711
0.00380876
0.00385201
0.0038969
0.00394349
0.00399183
0.00404195
0.00409387
0.00414759
0.00420309
0.00426029
0.00431906
0.00437914
0.00444018
0.0045016
0.00456264
0.00462283
0.00468116
0.00473616
0.0047858
0.00482727
0.00485635
0.00268589
0.00268881
0.00269244
0.00269632
0.00270033
0.00270446
0.00270869
0.00271303
0.00271749
0.00272207
0.00272677
0.00273159
0.00273656
0.00274165
0.0027469
0.00275229
0.00275784
0.00276355
0.00276942
0.00277547
0.0027817
0.00278811
0.00279472
0.00280152
0.00280853
0.00281576
0.00282321
0.00283089
0.00283881
0.00284697
0.00285539
0.00286408
0.00287304
0.00288228
0.00289182
0.00290166
0.00291182
0.0029223
0.00293312
0.00294429
0.00295582
0.00296773
0.00298003
0.00299273
0.00300584
0.00301939
0.00303339
0.00304785
0.00306279
0.00307823
0.00309418
0.00311067
0.00312772
0.00314534
0.00316356
0.0031824
0.00320188
0.00322203
0.00324287
0.00326442
0.00328673
0.0033098
0.00333368
0.00335839
0.00338397
0.00341045
0.00343786
0.00346625
0.00349565
0.00352609
0.00355763
0.0035903
0.00362415
0.00365923
0.00369557
0.00373323
0.00377226
0.0038127
0.0038546
0.00389801
0.00394296
0.0039895
0.00403765
0.00408744
0.00413887
0.00419192
0.00424657
0.00430272
0.00436026
0.00441898
0.00447855
0.00453852
0.00459825
0.00465688
0.00471356
0.00476749
0.00481729
0.00486117
0.00489705
0.00492237
0.00269404
0.0026971
0.00270096
0.00270509
0.00270936
0.00271375
0.00271825
0.00272287
0.00272761
0.00273248
0.00273748
0.00274261
0.00274788
0.0027533
0.00275887
0.0027646
0.00277049
0.00277655
0.00278279
0.0027892
0.00279581
0.00280261
0.00280962
0.00281683
0.00282426
0.00283192
0.0028398
0.00284793
0.00285631
0.00286495
0.00287385
0.00288303
0.0028925
0.00290226
0.00291233
0.00292271
0.00293343
0.00294448
0.00295588
0.00296764
0.00297978
0.00299231
0.00300525
0.00301859
0.00303237
0.0030466
0.00306128
0.00307645
0.0030921
0.00310827
0.00312497
0.00314222
0.00316004
0.00317844
0.00319745
0.0032171
0.0032374
0.00325838
0.00328006
0.00330246
0.00332562
0.00334957
0.00337432
0.00339991
0.00342638
0.00345374
0.00348204
0.00351131
0.00354158
0.0035729
0.00360529
0.0036388
0.00367347
0.00370934
0.00374644
0.00378482
0.00382452
0.00386558
0.00390804
0.00395192
0.00399726
0.00404408
0.0040924
0.00414222
0.00419353
0.00424629
0.00430045
0.00435593
0.00441256
0.00447015
0.00452838
0.00458682
0.00464487
0.00470177
0.00475655
0.00480844
0.00485616
0.00489798
0.00493185
0.00495568
0.00269924
0.00270238
0.00270637
0.00271065
0.00271508
0.00271964
0.00272432
0.00272911
0.00273404
0.00273909
0.00274427
0.0027496
0.00275507
0.00276069
0.00276646
0.0027724
0.00277851
0.00278479
0.00279125
0.0027979
0.00280474
0.00281179
0.00281904
0.00282651
0.0028342
0.00284212
0.00285028
0.00285868
0.00286735
0.00287627
0.00288547
0.00289496
0.00290473
0.00291481
0.0029252
0.00293592
0.00294696
0.00295836
0.00297011
0.00298223
0.00299474
0.00300764
0.00302095
0.00303468
0.00304885
0.00306347
0.00307856
0.00309413
0.0031102
0.00312679
0.00314391
0.00316158
0.00317983
0.00319867
0.00321812
0.00323821
0.00325895
0.00328037
0.00330249
0.00332533
0.00334893
0.00337331
0.00339849
0.0034245
0.00345137
0.00347914
0.00350782
0.00353746
0.00356809
0.00359973
0.00363242
0.0036662
0.0037011
0.00373716
0.0037744
0.00381287
0.00385259
0.00389361
0.00393594
0.00397961
0.00402463
0.00407104
0.00411882
0.00416796
0.00421846
0.00427026
0.00432331
0.00437751
0.00443273
0.00448879
0.00454545
0.00460235
0.00465901
0.0047148
0.00476891
0.00482055
0.00486857
0.00491127
0.00494634
0.00497123
0.00270163
0.00270478
0.00270883
0.00271318
0.00271769
0.00272232
0.00272708
0.00273196
0.00273696
0.0027421
0.00274737
0.00275278
0.00275834
0.00276405
0.00276992
0.00277596
0.00278216
0.00278854
0.00279511
0.00280186
0.00280881
0.00281596
0.00282333
0.00283091
0.00283871
0.00284675
0.00285503
0.00286356
0.00287235
0.00288141
0.00289074
0.00290035
0.00291026
0.00292048
0.00293101
0.00294187
0.00295307
0.00296461
0.00297651
0.00298879
0.00300145
0.00301451
0.00302798
0.00304187
0.0030562
0.00307099
0.00308624
0.00310198
0.00311822
0.00313498
0.00315227
0.00317012
0.00318854
0.00320755
0.00322717
0.00324742
0.00326833
0.00328991
0.00331219
0.00333519
0.00335894
0.00338346
0.00340878
0.00343492
0.00346191
0.00348978
0.00351857
0.00354829
0.00357898
0.00361067
0.00364339
0.00367717
0.00371204
0.00374805
0.0037852
0.00382355
0.00386311
0.00390391
0.00394598
0.00398933
0.00403398
0.00407994
0.0041272
0.00417575
0.00422558
0.00427663
0.00432883
0.00438212
0.00443637
0.00449143
0.00454712
0.00460318
0.00465921
0.00471458
0.00476853
0.00482027
0.00486883
0.00491281
0.00494997
0.00497734
1.01225e-05
1.01242e-05
1.26248e-05
1.61369e-05
2.0285e-05
2.4959e-05
3.01371e-05
3.58438e-05
4.21415e-05
4.91317e-05
5.69601e-05
6.5821e-05
7.59581e-05
8.7657e-05
0.000101219
0.000116892
0.000134732
0.000154283
0.000173885
0.000189134
1.97063e-05
2.05465e-05
2.49453e-05
3.09194e-05
3.78287e-05
4.54528e-05
5.37298e-05
6.26808e-05
7.23904e-05
8.30058e-05
9.47411e-05
0.000107881
0.000122776
0.000139829
0.000159446
0.000181929
0.000207257
0.000234605
0.00026138
0.000281313
3.94409e-05
4.2462e-05
4.99461e-05
5.95814e-05
7.04969e-05
8.23331e-05
9.49594e-05
0.000108379
0.000122697
0.000138117
0.000154938
0.000173556
0.000194452
0.000218163
0.000245205
0.000275927
0.000310186
0.000346703
0.000381809
0.000407141
8.03235e-05
8.68037e-05
9.88049e-05
0.000113477
0.000129728
0.000147063
0.000165268
0.000184316
0.00020433
0.000225575
0.000248448
0.000273479
0.000301295
0.000332577
0.000367959
0.000407818
0.000451831
0.000498145
0.000541847
0.00057229
0.000160846
0.000171874
0.000189619
0.000210476
0.00023308
0.0002568
0.000281344
0.000306656
0.000332876
0.000360329
0.000389525
0.000421133
0.00045593
0.000494748
0.000538338
0.000587065
0.000640351
0.000695655
0.000746713
0.000780901
0.000309083
0.000325048
0.000348846
0.000376046
0.000404975
0.000434862
0.00046535
0.000496358
0.000528046
0.000560795
0.000595234
0.000632153
0.000672463
0.00071714
0.000767023
0.000822426
0.000882445
0.000943789
0.000998924
0.0010345
0.000561935
0.000581763
0.000610091
0.000641848
0.000675102
0.000708964
0.000743025
0.000777194
0.000811642
0.000846824
0.000883444
0.000922354
0.000964546
0.0010111
0.00106289
0.00112016
0.00118164
0.00124335
0.00129702
0.00133071
0.000958458
0.000979003
0.00100777
0.00103959
0.00107248
0.00110548
0.00113819
0.00117051
0.00120268
0.0012352
0.00126871
0.00130399
0.00134201
0.00138386
0.00143041
0.00148178
0.00153644
0.00159
0.00163463
0.0016618
0.00152469
0.00154085
0.00156343
0.00158819
0.00161341
0.00163827
0.00166246
0.00168596
0.00170907
0.00173213
0.00175554
0.00177986
0.00180587
0.00183442
0.0018663
0.00190156
0.00193871
0.00197386
0.00200138
0.00201667
0.0022488
0.0022549
0.00226365
0.00227311
0.0022825
0.00229137
0.00229964
0.00230734
0.00231453
0.00232123
0.0023276
0.00233379
0.00234014
0.00234694
0.00235459
0.00236315
0.00237204
0.00237974
0.00238432
0.00238519
0.00303956
0.00303256
0.00302264
0.00301162
0.0030002
0.0029887
0.00297709
0.0029652
0.00295286
0.00293989
0.00292611
0.0029112
0.00289481
0.00287652
0.00285591
0.00283316
0.00280946
0.0027869
0.00276787
0.00275513
0.00369354
0.00367808
0.00365645
0.00363244
0.00360751
0.00358231
0.00355706
0.0035317
0.00350587
0.00347915
0.00345108
0.00342106
0.0033883
0.00335201
0.00331153
0.003267
0.00322015
0.00317508
0.00313785
0.00311464
0.00418706
0.00416845
0.00414228
0.00411303
0.00408242
0.00405119
0.00401963
0.00398776
0.0039553
0.00392175
0.00388644
0.00384861
0.00380732
0.00376159
0.00371068
0.0036546
0.00359496
0.00353614
0.00348622
0.00345505
0.00452639
0.00450898
0.00448393
0.00445559
0.0044256
0.00439466
0.00436308
0.00433086
0.00429779
0.00426343
0.00422709
0.00418796
0.0041451
0.00409754
0.00404449
0.00398582
0.00392276
0.00385922
0.0038034
0.00376785
0.00474028
0.00472657
0.00470593
0.00468211
0.00465653
0.0046298
0.0046022
0.00457372
0.00454419
0.00451322
0.00448021
0.00444442
0.004405
0.00436106
0.00431183
0.00425705
0.00419758
0.00413659
0.00408135
0.00404525
0.0048648
0.00485551
0.00484032
0.00482229
0.00480256
0.00478164
0.00475976
0.0047369
0.00471293
0.0046875
0.00466013
0.0046302
0.00459699
0.00455972
0.00451771
0.00447062
0.004419
0.00436523
0.00431529
0.0042814
0.00493223
0.00492688
0.00491671
0.00490413
0.00489007
0.00487492
0.00485885
0.00484184
0.00482377
0.00480436
0.00478324
0.00475991
0.0047338
0.00470427
0.00467072
0.00463282
0.00459085
0.00454656
0.00450457
0.00447499
0.00496647
0.00496408
0.00495778
0.00494956
0.00494016
0.00492988
0.0049188
0.00490691
0.00489408
0.00488013
0.00486476
0.00484761
0.00482822
0.0048061
0.00478077
0.00475191
0.00471963
0.00468515
0.00465189
0.00462772
0.00498307
0.00498251
0.00497883
0.00497374
0.00496781
0.00496121
0.00495397
0.00494607
0.00493742
0.00492788
0.00491724
0.00490523
0.00489153
0.00487577
0.00485756
0.00483664
0.00481301
0.00478744
0.00476236
0.00474364
0.00499122
0.00499133
0.00498924
0.00498625
0.00498269
0.00497864
0.00497412
0.00496909
0.0049635
0.00495725
0.00495018
0.00494214
0.00493288
0.00492214
0.00490965
0.00489517
0.00487866
0.00486055
0.00484236
0.00482821
2.41909e-52
2.41473e-52
2.40955e-52
2.4058e-52
2.40538e-52
2.40975e-52
2.41998e-52
2.43674e-52
2.46029e-52
2.49052e-52
2.52698e-52
2.56885e-52
2.615e-52
2.66394e-52
2.71389e-52
2.76273e-52
2.80799e-52
2.8469e-52
2.87642e-52
2.8932e-52
1.23047e-51
1.22703e-51
1.22347e-51
1.22081e-51
1.21999e-51
1.22176e-51
1.22666e-51
1.23504e-51
1.247e-51
1.26249e-51
1.28128e-51
1.30295e-51
1.32691e-51
1.35243e-51
1.37859e-51
1.40433e-51
1.42838e-51
1.44933e-51
1.46565e-51
1.47578e-51
4.29957e-51
4.28172e-51
4.26416e-51
4.25076e-51
4.2447e-51
4.24846e-51
4.26394e-51
4.29227e-51
4.33391e-51
4.38868e-51
4.45575e-51
4.53364e-51
4.62032e-51
4.71314e-51
4.8089e-51
4.9038e-51
4.99347e-51
5.07306e-51
5.13729e-51
5.1804e-51
1.38575e-50
1.37782e-50
1.37022e-50
1.36434e-50
1.36114e-50
1.36142e-50
1.36575e-50
1.37451e-50
1.38787e-50
1.40578e-50
1.42797e-50
1.45397e-50
1.4831e-50
1.5145e-50
1.54711e-50
1.57969e-50
1.61082e-50
1.63896e-50
1.66244e-50
1.67923e-50
4.36252e-50
4.3307e-50
4.30006e-50
4.27602e-50
4.26163e-50
4.25925e-50
4.27064e-50
4.29703e-50
4.33895e-50
4.39627e-50
4.46815e-50
4.55311e-50
4.64899e-50
4.75302e-50
4.86178e-50
4.97131e-50
5.07717e-50
5.17458e-50
5.25826e-50
5.32041e-50
1.36262e-49
1.35049e-49
1.33877e-49
1.32943e-49
1.32349e-49
1.32167e-49
1.32451e-49
1.33238e-49
1.34544e-49
1.36367e-49
1.3868e-49
1.41436e-49
1.44567e-49
1.47986e-49
1.51584e-49
1.55237e-49
1.58808e-49
1.62146e-49
1.65077e-49
1.6732e-49
4.24237e-49
4.19769e-49
4.15437e-49
4.11945e-49
4.09629e-49
4.08716e-49
4.09371e-49
4.11704e-49
4.15766e-49
4.21546e-49
4.28965e-49
4.37874e-49
4.4806e-49
4.59247e-49
4.71099e-49
4.83228e-49
4.95206e-49
5.06557e-49
5.16705e-49
5.24655e-49
1.31838e-48
1.30233e-48
1.28672e-48
1.27402e-48
1.26535e-48
1.26141e-48
1.26273e-48
1.26962e-48
1.28224e-48
1.30055e-48
1.3243e-48
1.35303e-48
1.38607e-48
1.42257e-48
1.46147e-48
1.50159e-48
1.54157e-48
1.57991e-48
1.61471e-48
1.6425e-48
4.09126e-48
4.03467e-48
3.97951e-48
3.93434e-48
3.90279e-48
3.88715e-48
3.88898e-48
3.90927e-48
3.94846e-48
4.00641e-48
4.08232e-48
4.17477e-48
4.28169e-48
4.40042e-48
4.52774e-48
4.65994e-48
4.79281e-48
4.92154e-48
5.03992e-48
5.13593e-48
1.26797e-47
1.24833e-47
1.22914e-47
1.21335e-47
1.20213e-47
1.19621e-47
1.19609e-47
1.20204e-47
1.21421e-47
1.23253e-47
1.25676e-47
1.28645e-47
1.32097e-47
1.3595e-47
1.40104e-47
1.44445e-47
1.48842e-47
1.5314e-47
1.57138e-47
1.60423e-47
3.92479e-47
3.85746e-47
3.79158e-47
3.73713e-47
3.69795e-47
3.67635e-47
3.67382e-47
3.69125e-47
3.72901e-47
3.78688e-47
3.86411e-47
3.9593e-47
4.07051e-47
4.19522e-47
4.33038e-47
4.47244e-47
4.6173e-47
4.7601e-47
4.89425e-47
5.00567e-47
1.21333e-46
1.1905e-46
1.16813e-46
1.14957e-46
1.13609e-46
1.1284e-46
1.12697e-46
1.13206e-46
1.14378e-46
1.16204e-46
1.18662e-46
1.21709e-46
1.25284e-46
1.2931e-46
1.33695e-46
1.38329e-46