/*--------------------------------*- C++ -*----------------------------------*\
| =========                 |                                                 |
| \\      /  F ield         | OpenFOAM: The Open Source CFD Toolbox           |
|  \\    /   O peration     | Version:  2.1.0                                 |
|   \\  /    A nd           | Web:      www.OpenFOAM.org                      |
|    \\/     M anipulation  |                                                 |
\*---------------------------------------------------------------------------*/
FoamFile
{
    version     2.0;
    format      ascii;
    class       volScalarField;
    location    "0.44";
    object      k;
}
// * * * * * * * * * * * * * * * * * * * * * * * * * * * * * * * * * * * * * //

dimensions      [0 2 -2 0 0 0 0];

internalField   nonuniform List<scalar> 
6400
(
0.0327965
0.0328357
0.032839
0.0328328
0.0328103
0.0327993
0.0327688
0.0327541
0.0327201
0.0327031
0.0326672
0.0326469
0.03261
0.0325858
0.0325482
0.0325197
0.0324811
0.0324484
0.0324084
0.0323717
0.0323303
0.0322901
0.032247
0.0322039
0.0321592
0.0321137
0.0320674
0.0320195
0.0319711
0.0319207
0.0318701
0.0318171
0.0317638
0.0317079
0.0316516
0.0315925
0.0315328
0.0314702
0.0314064
0.0313392
0.0312699
0.0311964
0.0311197
0.0310379
0.0309517
0.0308593
0.030761
0.0306553
0.0305422
0.0304206
0.0302902
0.0301501
0.0299997
0.0298359
0.0296563
0.0294589
0.0292437
0.029025
0.0287898
0.0285494
0.0282944
0.0280335
0.02776
0.0274789
0.0271846
0.0268815
0.0265646
0.0262373
0.0258931
0.0255333
0.0251573
0.024762
0.0243487
0.0239145
0.0234607
0.022986
0.0224919
0.0219793
0.0214502
0.0209074
0.0203529
0.0197884
0.0192094
0.0185972
0.017924
0.0172285
0.0164783
0.0156545
0.0147224
0.0136305
0.0123062
0.0106391
0.00854618
0.00606309
0.0034055
0.00235725
0.00274641
0.0055234
0.00876185
0.0099166
0.0518823
0.0522184
0.0523725
0.0526548
0.0528293
0.0531095
0.0533028
0.053577
0.053788
0.0540567
0.0542828
0.0545478
0.0547861
0.0550488
0.0552965
0.0555582
0.0558128
0.0560741
0.0563334
0.0565946
0.056857
0.0571186
0.0573835
0.0576469
0.0579152
0.0581829
0.0584566
0.0587299
0.0590102
0.0592901
0.059577
0.059864
0.0601578
0.0604522
0.060753
0.0610552
0.0613635
0.0616742
0.0619913
0.0623116
0.062638
0.0629653
0.0632968
0.0636285
0.0639619
0.0642937
0.0646237
0.0649494
0.0652692
0.065581
0.065883
0.0661744
0.0664588
0.0667343
0.0669915
0.0672282
0.0674358
0.0676475
0.0678343
0.0680124
0.0681639
0.0683035
0.068419
0.0685237
0.0686001
0.0686589
0.0686865
0.0686959
0.068672
0.0686014
0.0684902
0.0683232
0.0680975
0.0678019
0.0674285
0.0669681
0.066411
0.0657497
0.0649753
0.0640835
0.0630683
0.0619314
0.0606748
0.0592961
0.0577568
0.0559854
0.0539669
0.0516317
0.0489247
0.0457712
0.0421168
0.0379201
0.033241
0.0283516
0.0233623
0.0186257
0.0149768
0.0123961
0.0107885
0.0092205
0.0575987
0.0580987
0.0583263
0.05874
0.0590213
0.0594199
0.0597342
0.060123
0.0604609
0.0608446
0.0612001
0.0615822
0.0619512
0.0623341
0.0627133
0.0630982
0.0634852
0.0638724
0.0642647
0.0646537
0.0650487
0.0654379
0.0658326
0.0662209
0.0666155
0.0670054
0.0674042
0.067798
0.0682006
0.0685986
0.0690042
0.069406
0.0698139
0.0702188
0.0706283
0.0710351
0.0714449
0.0718514
0.0722586
0.0726616
0.0730638
0.0734622
0.0738573
0.0742472
0.0746305
0.0750055
0.0753691
0.0757192
0.0760505
0.0763589
0.0766379
0.0768775
0.0770827
0.0772775
0.07744
0.0775857
0.0777018
0.0777985
0.0778645
0.0779041
0.0779201
0.0779208
0.0778569
0.0777723
0.0776281
0.0774504
0.0772122
0.0769302
0.0765837
0.0761819
0.0757071
0.0751616
0.0745291
0.0738071
0.0729789
0.0720391
0.0709709
0.0697678
0.0684145
0.0669057
0.0652291
0.0633828
0.061358
0.0591551
0.056774
0.0542433
0.0515419
0.0486874
0.0456474
0.0424204
0.0389564
0.0352324
0.0312184
0.0269189
0.0224458
0.0180957
0.0144243
0.0114649
0.0092833
0.00710567
0.0618343
0.0623936
0.0626481
0.0631271
0.0634595
0.0639185
0.0642933
0.0647389
0.0651399
0.0655782
0.0659965
0.0664319
0.066862
0.0672971
0.0677352
0.0681713
0.0686149
0.0690522
0.0694987
0.0699365
0.0703833
0.0708199
0.0712636
0.0716928
0.0721224
0.0725319
0.0729542
0.0733618
0.0737759
0.0741775
0.0745814
0.0749734
0.0753642
0.0757427
0.0761168
0.0764776
0.0768309
0.0771693
0.0774985
0.0778101
0.0781057
0.0783853
0.0786433
0.0788828
0.0790966
0.0792879
0.0794494
0.0795837
0.0796843
0.0797461
0.0797733
0.079779
0.079732
0.0796524
0.0795216
0.0793501
0.0791223
0.0788445
0.0785028
0.0781
0.0776239
0.0770783
0.0764518
0.0757495
0.0749565
0.0740799
0.0731051
0.0720402
0.0708728
0.0696113
0.0682463
0.0667867
0.0652264
0.063575
0.0618281
0.0599966
0.058077
0.0560805
0.0540042
0.0518587
0.049641
0.0473607
0.0450148
0.0426119
0.0401506
0.0376385
0.0350755
0.0324873
0.0298692
0.0272404
0.0246017
0.0219704
0.0193514
0.0167668
0.014248
0.0118758
0.00969831
0.00786133
0.0065864
0.00598995
0.062992
0.0635257
0.0637637
0.0642267
0.0645353
0.0649763
0.0653222
0.0657431
0.0661088
0.0665136
0.0668888
0.0672803
0.067658
0.0680378
0.0684128
0.0687808
0.0691486
0.0695038
0.0698603
0.0702004
0.0705415
0.0708643
0.071186
0.0714888
0.0717871
0.0720684
0.0723445
0.072602
0.0728512
0.0730796
0.0732962
0.0734894
0.0736671
0.0738188
0.0739508
0.0740536
0.0741317
0.0741704
0.0741855
0.0741788
0.0741143
0.0740276
0.0738865
0.0737122
0.0734832
0.0732127
0.0728857
0.0725106
0.0720765
0.0715891
0.0710416
0.0704368
0.0697681
0.0690409
0.0682477
0.0673941
0.0664778
0.0655004
0.0644595
0.063358
0.0621933
0.06097
0.0596857
0.0583459
0.0569485
0.0555003
0.0539992
0.0524529
0.0508598
0.0492278
0.0475558
0.0458517
0.0441156
0.0423555
0.0405751
0.0387829
0.0369796
0.0351736
0.0333671
0.0315683
0.0297803
0.0280123
0.0262689
0.0245588
0.0228871
0.0212614
0.0196873
0.0181558
0.0166786
0.0152494
0.0138775
0.0125564
0.0112967
0.0100962
0.00897249
0.00794195
0.00703043
0.00639847
0.00612458
0.00612142
0.0595064
0.0598376
0.0599856
0.0602852
0.0604797
0.0607597
0.0609702
0.0612243
0.0614348
0.0616615
0.061862
0.062061
0.0622442
0.0624141
0.0625742
0.0627131
0.0628445
0.0629496
0.0630474
0.0631151
0.063171
0.0631973
0.0632075
0.0631999
0.0631568
0.0630944
0.0630011
0.0628826
0.0627397
0.0625669
0.0623675
0.0621345
0.0618723
0.0615734
0.0612426
0.0608726
0.0604683
0.0600229
0.0595421
0.0590183
0.0584552
0.0578518
0.0572064
0.0565214
0.0557942
0.0550281
0.0542207
0.0533757
0.0524913
0.0515711
0.0506142
0.0496239
0.0486
0.047546
0.0464623
0.0453525
0.0442169
0.0430593
0.0418813
0.0406896
0.0394835
0.038269
0.0370459
0.0358198
0.0345911
0.0333652
0.0321428
0.0309287
0.0297244
0.0285342
0.0273597
0.0262051
0.0250717
0.0239632
0.0228781
0.0218193
0.0207888
0.0197886
0.0188215
0.0178886
0.0169905
0.0161226
0.0152901
0.0144879
0.0137197
0.0129799
0.0122713
0.0115878
0.0109315
0.010295
0.00968035
0.00908036
0.00849884
0.00793284
0.00739626
0.0068992
0.0065355
0.00637742
0.00635092
0.00656801
0.0503911
0.0503622
0.0503529
0.0503483
0.0503415
0.0503224
0.0502989
0.0502527
0.050203
0.0501238
0.0500425
0.0499273
0.0498105
0.0496573
0.0495021
0.0493094
0.0491138
0.0488802
0.0486429
0.0483679
0.0480882
0.0477724
0.0474507
0.0470915
0.0467203
0.0463154
0.0458951
0.0454435
0.0449747
0.0444759
0.0439589
0.043413
0.0428488
0.0422571
0.0416476
0.0410123
0.0403601
0.0396845
0.0389936
0.0382815
0.0375564
0.0368142
0.0360626
0.0352977
0.0345263
0.0337455
0.0329613
0.0321719
0.0313824
0.0305917
0.0298045
0.0290198
0.0282423
0.0274709
0.0267101
0.0259586
0.0252174
0.024489
0.0237745
0.0230723
0.0223856
0.0217134
0.0210581
0.0204185
0.0197965
0.0191905
0.0186037
0.0180319
0.0174772
0.016937
0.0164128
0.0159019
0.0154053
0.0149203
0.0144474
0.0139842
0.0135307
0.0130844
0.0126445
0.0122081
0.0117903
0.0113826
0.0109914
0.0106088
0.0102408
0.00987987
0.00953167
0.00918975
0.00886027
0.00853847
0.00823207
0.00793901
0.00766989
0.00742678
0.00723044
0.00710025
0.00704687
0.00709093
0.00743143
0.00762354
0.0375242
0.0371763
0.0370296
0.0367545
0.0365801
0.0362992
0.0360913
0.0357938
0.035551
0.0352313
0.0349536
0.0346097
0.0342983
0.0339289
0.033585
0.0331895
0.032814
0.0323925
0.0319867
0.0315393
0.0311043
0.0306315
0.0301679
0.0296775
0.029198
0.0286969
0.0282068
0.0276975
0.0271952
0.0266773
0.0261687
0.025648
0.0251389
0.024621
0.0241168
0.0236069
0.0231127
0.0226157
0.022136
0.0216562
0.0211953
0.0207358
0.0202951
0.0198579
0.0194401
0.0190276
0.0186349
0.0182487
0.0178825
0.0175238
0.0171845
0.016853
0.0165409
0.0162383
0.0159536
0.0156794
0.0154215
0.0151747
0.0149423
0.0147208
0.0145125
0.0143147
0.0141289
0.0139529
0.0137882
0.0136327
0.0134856
0.0133485
0.0132202
0.0131009
0.0129888
0.0128846
0.0127863
0.0126944
0.012607
0.0125246
0.0124451
0.0123689
0.012294
0.0122203
0.0121459
0.012068
0.011986
0.0118966
0.011799
0.0116897
0.0115678
0.0114301
0.011277
0.0111073
0.0109243
0.0107318
0.010539
0.0103572
0.0102287
0.010173
0.010167
0.0104136
0.010776
0.0109542
0.024693
0.0241681
0.02395
0.0235366
0.0232986
0.0228949
0.0226368
0.0222392
0.0219634
0.0215706
0.0212815
0.0208924
0.0205933
0.0202085
0.0199031
0.0195237
0.0192154
0.0188431
0.018535
0.0181717
0.0178672
0.0175151
0.0172172
0.0168814
0.0165967
0.0162799
0.0160105
0.0157142
0.015462
0.0151875
0.0149545
0.0147033
0.0144908
0.0142638
0.0140726
0.0138706
0.0137011
0.0135244
0.0133768
0.0132256
0.0131001
0.0129737
0.0128705
0.0127683
0.0126875
0.0126091
0.0125506
0.0124957
0.0124595
0.0124296
0.0124155
0.01241
0.0124109
0.0124316
0.0124555
0.0124968
0.0125432
0.0126051
0.0126744
0.0127583
0.0128505
0.0129566
0.0130719
0.0132005
0.0133391
0.0134909
0.0136532
0.0138282
0.0140142
0.0142129
0.0144231
0.0146464
0.0148819
0.0151307
0.0153922
0.0156673
0.0159554
0.0162571
0.0165719
0.0168998
0.0172403
0.017592
0.0179542
0.0183246
0.0187011
0.0190801
0.0194584
0.0198301
0.0201901
0.0205334
0.0208551
0.0211522
0.0214248
0.0216776
0.0219257
0.022218
0.0226636
0.0232768
0.0241023
0.0250067
0.017655
0.0171239
0.0169088
0.0164991
0.0162839
0.0158934
0.01568
0.0153105
0.0151012
0.014754
0.0145513
0.0142273
0.0140339
0.0137337
0.0135515
0.0132758
0.0131068
0.0128557
0.0127014
0.0124752
0.0123369
0.0121356
0.0120142
0.0118378
0.0117337
0.0115816
0.0114951
0.0113665
0.0112976
0.0111926
0.0111403
0.0110603
0.0110214
0.0109672
0.0109415
0.010913
0.0109009
0.0108956
0.0108956
0.0109115
0.0109319
0.0109646
0.011004
0.0110541
0.0111125
0.01118
0.0112571
0.0113423
0.0114382
0.0115416
0.0116564
0.0117786
0.0119124
0.0120543
0.0122074
0.0123695
0.0125429
0.0127262
0.0129209
0.0131262
0.0133436
0.0135723
0.0138139
0.0140681
0.0143361
0.0146177
0.0149144
0.015226
0.0155541
0.0158988
0.0162617
0.0166431
0.017045
0.0174677
0.0179134
0.0183828
0.0188784
0.0194013
0.0199543
0.0205387
0.0211578
0.0218138
0.0225106
0.0232511
0.02404
0.0248814
0.0257813
0.0267452
0.0277822
0.0288996
0.0301093
0.0314224
0.0328546
0.034422
0.0361438
0.0380303
0.0400865
0.0422744
0.0438015
0.0444242
0.0206193
0.0200587
0.0198287
0.0193895
0.0191517
0.0187293
0.0184859
0.0180808
0.017835
0.017448
0.0172024
0.0168351
0.0165932
0.0162468
0.016012
0.0156874
0.0154626
0.0151606
0.0149483
0.0146693
0.0144715
0.0142161
0.0140343
0.0138026
0.0136379
0.01343
0.0132834
0.0130992
0.0129711
0.0128105
0.0127012
0.012564
0.0124736
0.0123597
0.012288
0.0121973
0.0121442
0.0120767
0.0120424
0.0120007
0.0119811
0.011968
0.0119639
0.0119672
0.0119872
0.012011
0.0120509
0.0120952
0.012155
0.0122198
0.0122997
0.012385
0.0124853
0.0125917
0.0127129
0.0128406
0.0129828
0.0131322
0.0132961
0.0134679
0.0136539
0.0138492
0.0140587
0.0142787
0.0145134
0.0147596
0.0150212
0.0152955
0.0155862
0.0158908
0.016213
0.0165506
0.0169074
0.0172813
0.0176763
0.0180908
0.0185286
0.0189887
0.0194749
0.019987
0.0205287
0.0211005
0.0217064
0.0223475
0.0230285
0.0237512
0.0245208
0.0253402
0.0262153
0.0271496
0.0281508
0.0292272
0.0303965
0.0316698
0.033074
0.0346333
0.0363876
0.0383076
0.0398577
0.040539
0.0311259
0.030584
0.0303554
0.0299201
0.0296627
0.029233
0.0289469
0.0285179
0.0282066
0.027777
0.0274393
0.0270032
0.026643
0.026202
0.025825
0.0253805
0.0249921
0.0245466
0.0241515
0.0237079
0.0233105
0.022872
0.0224765
0.0220463
0.0216563
0.0212374
0.0208566
0.0204519
0.0200834
0.0196956
0.0193425
0.018974
0.0186388
0.0182916
0.017976
0.017651
0.0173565
0.0170553
0.0167834
0.0165073
0.0162589
0.0160092
0.0157855
0.0155634
0.0153656
0.0151708
0.0149991
0.0148316
0.0146857
0.014545
0.0144248
0.0143104
0.0142156
0.0141275
0.014058
0.013995
0.0139495
0.0139105
0.0138886
0.0138774
0.013874
0.0138819
0.0139037
0.0139336
0.0139772
0.0140284
0.0140926
0.0141639
0.0142474
0.0143363
0.0144357
0.0145397
0.0146527
0.014769
0.0148925
0.0150179
0.0151483
0.0152787
0.0154118
0.0155426
0.0156737
0.0158001
0.0159239
0.0160405
0.0161518
0.0162536
0.0163479
0.0164316
0.0165078
0.0165735
0.0166346
0.016687
0.0167348
0.0167987
0.0168966
0.0170741
0.0173874
0.0179138
0.0186435
0.019688
0.0441232
0.0437915
0.0436516
0.0433849
0.0432156
0.0429397
0.0427332
0.0424367
0.0421918
0.0418693
0.0415866
0.0412354
0.0409152
0.0405338
0.0401767
0.0397647
0.0393714
0.0389289
0.0385008
0.0380287
0.0375674
0.0370669
0.0365749
0.0360479
0.0355275
0.0349764
0.0344308
0.0338588
0.033292
0.0327025
0.0321189
0.0315163
0.0309206
0.0303097
0.0297075
0.0290942
0.0284863
0.0278698
0.0272618
0.0266492
0.0260481
0.0254459
0.0248577
0.0242718
0.0237019
0.0231372
0.0225905
0.0220512
0.0215313
0.0210192
0.0205267
0.0200434
0.0195795
0.0191252
0.0186894
0.018264
0.0178565
0.0174588
0.0170798
0.0167115
0.0163606
0.0160203
0.0156961
0.0153804
0.015079
0.0147848
0.0145029
0.0142253
0.0139572
0.0136966
0.0134449
0.0131985
0.0129602
0.0127249
0.0124966
0.0122696
0.0120483
0.0118269
0.0116103
0.0113926
0.011179
0.0109642
0.0107535
0.010542
0.0103355
0.0101298
0.00992777
0.00972816
0.00953484
0.00934778
0.00917258
0.00901131
0.00887168
0.00875621
0.00869912
0.00868032
0.00878919
0.00904877
0.00945113
0.00962945
0.0556974
0.0556958
0.0557053
0.0557177
0.0557245
0.0557256
0.0557147
0.0556825
0.0556441
0.055574
0.0555066
0.0554025
0.0553016
0.0551607
0.0550221
0.0548417
0.0546613
0.0544386
0.054213
0.0539452
0.0536715
0.053356
0.0530318
0.0526678
0.0522907
0.0518742
0.0514437
0.0509737
0.0504885
0.0499644
0.0494238
0.0488456
0.0482499
0.0476183
0.0469689
0.0462858
0.0455851
0.0448527
0.0441033
0.0433249
0.0425306
0.0417103
0.040876
0.040019
0.039151
0.0382639
0.0373689
0.0364592
0.0355453
0.0346227
0.0337005
0.0327745
0.0318534
0.0309332
0.0300225
0.0291176
0.0282266
0.0273463
0.0264832
0.0256344
0.0248033
0.0239851
0.0231878
0.0224067
0.0216487
0.0209091
0.0201943
0.0195006
0.0188328
0.0181829
0.0175569
0.0169485
0.0163621
0.0157919
0.0152414
0.0147049
0.0141854
0.0136775
0.0131835
0.0126985
0.0122242
0.0117558
0.0112947
0.0108365
0.0103825
0.00995022
0.0095303
0.0091333
0.00874933
0.00838891
0.00804405
0.00772607
0.00742761
0.00716749
0.00692836
0.0067705
0.00670075
0.00669964
0.00703142
0.00721974
0.0623135
0.0626323
0.0627754
0.0630602
0.063251
0.0635165
0.0637234
0.0639651
0.0641733
0.0643913
0.0645922
0.0647867
0.0649733
0.0651432
0.0653099
0.0654535
0.0655953
0.06571
0.065822
0.0659044
0.0659822
0.0660284
0.0660583
0.0660685
0.0660674
0.0660244
0.065973
0.0658816
0.0657759
0.0656307
0.0654661
0.065261
0.0650316
0.0647599
0.0644593
0.0641143
0.0637419
0.0633258
0.0628773
0.0623846
0.0618552
0.0612782
0.060664
0.06
0.0592977
0.0585453
0.0577538
0.0569131
0.0560334
0.0551067
0.054142
0.0531334
0.0520891
0.0510047
0.0498878
0.0487351
0.0475544
0.0463428
0.0451082
0.0438483
0.0425753
0.0412847
0.0399874
0.0386798
0.037372
0.0360609
0.0347561
0.033455
0.0321663
0.0308878
0.0296277
0.028384
0.0271642
0.0259662
0.0247969
0.0236537
0.0225391
0.0214486
0.0203883
0.0193549
0.018353
0.0173805
0.0164403
0.0155313
0.0146553
0.01381
0.0129898
0.0121973
0.0114276
0.0106843
0.00996314
0.00926762
0.008596
0.00795604
0.00736147
0.00681286
0.00640052
0.00621266
0.0061741
0.00636074
0.0637922
0.0642739
0.06449
0.0649072
0.0651904
0.0655868
0.0659047
0.0662834
0.0666197
0.0669849
0.0673299
0.0676845
0.0680321
0.0683773
0.0687228
0.069059
0.0693986
0.0697248
0.0700553
0.0703699
0.070688
0.0709887
0.0712911
0.0715768
0.0718599
0.0721245
0.0723861
0.0726277
0.072865
0.0730833
0.0732939
0.0734839
0.0736628
0.0738188
0.0739598
0.074076
0.0741749
0.0742461
0.0742882
0.0743052
0.0743068
0.0742568
0.0741867
0.0740681
0.07392
0.0737217
0.0734859
0.073197
0.0728635
0.0724729
0.0720316
0.0715296
0.0709717
0.0703515
0.0696712
0.0689237
0.0681172
0.0672401
0.0663033
0.0652949
0.0642271
0.0630925
0.0619004
0.0606431
0.0593315
0.0579588
0.0565356
0.0550568
0.0535325
0.0519595
0.0503468
0.0486929
0.0470054
0.0452841
0.043535
0.0417594
0.0399658
0.0381591
0.0363405
0.0345152
0.0326839
0.0308528
0.0290223
0.0272002
0.0253873
0.023593
0.02182
0.0200784
0.0183735
0.0166952
0.0150691
0.0134918
0.0119904
0.0105687
0.00927459
0.0080803
0.00708203
0.00635314
0.00603089
0.00600387
0.0613505
0.0618498
0.062078
0.0625005
0.0627983
0.0632017
0.0635367
0.063928
0.0642857
0.0646707
0.0650429
0.0654256
0.0658076
0.0661902
0.0665787
0.0669626
0.0673554
0.0677407
0.068136
0.0685225
0.0689185
0.069305
0.0696998
0.0700843
0.0704742
0.0708527
0.0712324
0.0715968
0.0719552
0.07231
0.0726646
0.0730139
0.0733633
0.0737071
0.0740517
0.0743893
0.0747224
0.0750466
0.0753648
0.0756739
0.0759743
0.0762606
0.0765385
0.0767987
0.0770477
0.0772757
0.0774888
0.0776781
0.0778479
0.0779907
0.078109
0.078196
0.0782439
0.0782628
0.0782635
0.0781998
0.0781185
0.0779731
0.0777955
0.0775505
0.0772599
0.0768956
0.0764715
0.0759635
0.0753825
0.0747156
0.0739626
0.0731176
0.0721757
0.0711351
0.0699902
0.0687434
0.0673895
0.0659342
0.0643737
0.0627163
0.0609595
0.0591112
0.0571705
0.0551435
0.0530294
0.0508317
0.0485479
0.0461793
0.0437209
0.0411723
0.0385309
0.0357949
0.0329699
0.0300787
0.0271211
0.0241179
0.0210944
0.0180967
0.015231
0.0125126
0.0101221
0.00808802
0.00662576
0.00592611
0.0562743
0.0567064
0.0569047
0.0572617
0.0575082
0.0578517
0.058127
0.0584617
0.058757
0.0590874
0.0593975
0.0597267
0.0600482
0.0603787
0.0607092
0.0610422
0.0613798
0.0617161
0.0620593
0.0623988
0.062746
0.0630883
0.0634379
0.0637821
0.0641326
0.0644775
0.0648277
0.0651729
0.0655242
0.0658749
0.0662314
0.0665881
0.0669497
0.0673112
0.067676
0.0680408
0.0684106
0.0687807
0.0691543
0.0695284
0.0699047
0.0702811
0.070659
0.0710357
0.071413
0.0717874
0.0721616
0.0725326
0.0729009
0.0732614
0.0736145
0.0739536
0.0742767
0.0745771
0.0748449
0.0750633
0.0752882
0.0754717
0.0756482
0.0757852
0.0759075
0.075994
0.0760659
0.0761044
0.0761206
0.0761097
0.0760328
0.0759259
0.0757538
0.0755365
0.0752506
0.0749061
0.0744766
0.0739713
0.0733625
0.0726533
0.0718158
0.0708474
0.0697215
0.0684319
0.0669547
0.0652835
0.0633994
0.0612984
0.0589693
0.0564122
0.0536209
0.0505981
0.047356
0.0438797
0.0401473
0.036125
0.031813
0.0272237
0.0225277
0.0182204
0.0144574
0.0116246
0.00943547
0.00727283
0.0498915
0.0501789
0.0503111
0.0505499
0.050699
0.050936
0.051101
0.0513327
0.051513
0.0517401
0.0519336
0.052158
0.0523624
0.0525857
0.0527989
0.0530223
0.0532423
0.0534666
0.0536915
0.0539171
0.0541454
0.0543722
0.0546027
0.0548307
0.0550629
0.0552925
0.0555269
0.0557596
0.0559986
0.0562372
0.056482
0.0567276
0.056979
0.057232
0.0574904
0.0577512
0.0580176
0.058287
0.0585624
0.0588412
0.0591261
0.0594153
0.0597109
0.0600116
0.0603194
0.0606332
0.0609525
0.0612743
0.0615991
0.0619241
0.0622492
0.0625713
0.0628901
0.0632027
0.0635094
0.0638129
0.0641234
0.0644245
0.0647292
0.0650164
0.0652936
0.0655356
0.0657491
0.0659522
0.0661278
0.0662964
0.0664352
0.0665628
0.0666558
0.0667196
0.0667467
0.0667507
0.0666816
0.0665648
0.0663661
0.0660916
0.0657129
0.0652282
0.064612
0.0638581
0.0629439
0.061862
0.0605935
0.0591329
0.0574692
0.0555966
0.0534759
0.0510977
0.0482917
0.0450547
0.0412819
0.0369494
0.0322286
0.0273576
0.0224834
0.0180656
0.0146144
0.0122393
0.0107421
0.00922541
0.0310768
0.031104
0.031102
0.0310833
0.0310578
0.0310369
0.031002
0.0309801
0.0309414
0.0309175
0.0308775
0.0308508
0.0308104
0.0307804
0.0307396
0.030706
0.0306645
0.0306273
0.0305846
0.0305439
0.0304997
0.0304557
0.0304095
0.0303626
0.0303146
0.0302651
0.0302154
0.030164
0.0301129
0.0300599
0.0300071
0.0299523
0.0298977
0.0298412
0.0297846
0.0297262
0.0296676
0.0296074
0.0295468
0.0294846
0.0294218
0.0293573
0.029292
0.0292248
0.0291561
0.0290848
0.0290107
0.0289329
0.0288513
0.0287649
0.0286739
0.0285773
0.0284754
0.0283675
0.0282543
0.028136
0.0280113
0.0278765
0.0277322
0.0275713
0.0273943
0.0271928
0.0269722
0.0267454
0.0265026
0.0262547
0.0259912
0.0257205
0.0254327
0.0251345
0.0248196
0.0244903
0.0241355
0.0237648
0.0233651
0.0229435
0.0224901
0.0220094
0.0214942
0.0209478
0.0203655
0.0197502
0.0190991
0.0184148
0.0176943
0.0169311
0.0160989
0.0151432
0.0140454
0.0127677
0.0112094
0.00929602
0.00709882
0.00497707
0.00301699
0.00232236
0.00260792
0.00528007
0.00862426
0.00984811
0.00947215
0.00467547
0.0040304
0.00390134
0.00387303
0.00389708
0.00381776
0.00378068
0.00376597
0.00376303
0.00378541
0.00385674
0.00413378
0.00471677
0.00547377
0.00655162
0.00691992
0.00690154
0.00576415
0.00340312
0.00777602
0.00468054
0.00428946
0.00419012
0.00416622
0.00404596
0.00396683
0.00393218
0.00392033
0.00392277
0.00397614
0.00416375
0.00455784
0.00514183
0.00622001
0.00686846
0.00700437
0.00675932
0.00519333
0.00278305
0.0062135
0.00478477
0.00460508
0.00454123
0.00436896
0.00426775
0.00420001
0.0041729
0.00416487
0.00417782
0.00430539
0.00456691
0.00505141
0.00599207
0.00679651
0.00704957
0.00703851
0.00647827
0.00456284
0.002151
0.0057953
0.00511616
0.00503438
0.00479459
0.0046372
0.00452195
0.0044646
0.00444046
0.00443824
0.0045401
0.00476575
0.00519784
0.00606606
0.00686939
0.00719473
0.00725468
0.00697764
0.00602617
0.00378308
0.00154511
0.00591794
0.00548174
0.00534364
0.00505442
0.00493987
0.00486753
0.00484965
0.00488374
0.00500288
0.00528668
0.00568693
0.00651161
0.00718449
0.00748886
0.0075752
0.00739532
0.00678075
0.00540346
0.00293296
0.00101599
0.00628488
0.0059354
0.00580192
0.00561779
0.00558587
0.00559519
0.0057222
0.00595472
0.00637548
0.00689952
0.00752014
0.00800134
0.00820651
0.00824966
0.00796255
0.00732525
0.00636997
0.00458433
0.00189318
0.000562492
0.00721751
0.00709184
0.00707643
0.00710598
0.0073814
0.00770529
0.00825429
0.00895565
0.00962963
0.00982999
0.0098947
0.00975144
0.00942396
0.00883836
0.00801733
0.0070761
0.00563865
0.0034717
0.00114924
0.0002521
0.0108613
0.0113014
0.0118064
0.012466
0.0134251
0.014411
0.014891
0.0150412
0.0140096
0.0134133
0.0123208
0.0115312
0.0103081
0.00917497
0.00784168
0.00644367
0.00445237
0.00224954
0.000647152
9.16714e-05
0.0252618
0.0257419
0.0259446
0.0259444
0.0252481
0.0238871
0.0222284
0.0199598
0.0182175
0.0162744
0.0144722
0.0126654
0.0107292
0.00894295
0.00708439
0.00503952
0.00296843
0.00131684
0.000390978
3.96716e-05
0.0411679
0.0393865
0.0374149
0.0346212
0.0320806
0.0284905
0.0258673
0.0226955
0.0203137
0.0174324
0.0151791
0.012447
0.010119
0.0073289
0.00513866
0.00311136
0.00186692
0.000872725
0.000343462
6.33312e-05
0.0379903
0.0364542
0.0348553
0.0323779
0.0302104
0.0269052
0.0244894
0.0215837
0.0194221
0.0167657
0.0147764
0.0121837
0.010232
0.0074383
0.00539017
0.00309571
0.00179205
0.000740563
0.000252397
5.05317e-05
0.020077
0.0210004
0.021512
0.0217654
0.0218481
0.0211287
0.0199255
0.0180579
0.0167583
0.014966
0.0137681
0.0119426
0.0106073
0.00878934
0.00721107
0.00517184
0.00295893
0.00116396
0.000286596
3.50159e-05
0.00947027
0.00966875
0.0100758
0.0105421
0.0113339
0.0122489
0.0130371
0.0133477
0.013165
0.0122419
0.0117937
0.0108633
0.0100319
0.00897705
0.0078186
0.00648761
0.00455653
0.00224183
0.000567225
4.63006e-05
0.0068477
0.00666609
0.00661121
0.00658477
0.00675593
0.00699612
0.00742339
0.00801643
0.0087956
0.00916574
0.00934227
0.00940949
0.00914907
0.0087083
0.00794758
0.00707102
0.00567281
0.00352784
0.00107244
0.00012769
0.00610525
0.00576925
0.00563762
0.0054353
0.00538525
0.00537138
0.00545269
0.00562649
0.00598699
0.00644139
0.00713071
0.00772832
0.00801559
0.00809408
0.00792644
0.00731045
0.00639024
0.00465243
0.00191406
0.000435928
0.00578584
0.0053828
0.00525311
0.00496865
0.00485185
0.00476943
0.00474351
0.00475524
0.00485442
0.0050966
0.00547561
0.00624647
0.00702871
0.00738827
0.00749136
0.00738725
0.00679465
0.0054547
0.00300706
0.00093563
0.00568102
0.00502082
0.00494887
0.00474288
0.00458536
0.00447323
0.00440753
0.00437791
0.00436932
0.00445242
0.00466656
0.00506589
0.00588522
0.00677845
0.00715352
0.00722414
0.00698922
0.00607144
0.00385882
0.00151275
0.00617996
0.00473053
0.00453194
0.00446444
0.00432381
0.00421876
0.00415393
0.00412726
0.00411936
0.00412836
0.00424275
0.00449679
0.00495674
0.0058579
0.00674302
0.00703801
0.00704405
0.00651468
0.00463957
0.00215776
0.00780324
0.00465324
0.00425647
0.00414821
0.00411562
0.00402162
0.00393526
0.00389766
0.00388551
0.00388778
0.00393729
0.00410945
0.00449886
0.00507896
0.00613676
0.00684605
0.00700243
0.00678691
0.00525764
0.00281703
0.00947291
0.00465249
0.00399479
0.00386841
0.00383874
0.00385266
0.00379696
0.0037541
0.00373918
0.00373607
0.00375872
0.00382636
0.00407868
0.00464042
0.0054199
0.00652197
0.00691888
0.00692007
0.00582747
0.0034498
0.00397117
0.00375019
0.00374679
0.0037468
0.00374652
0.00374628
0.00374612
0.00374604
0.003746
0.00374598
0.00374598
0.003746
0.00374604
0.00374612
0.00374628
0.00374652
0.0037468
0.00374679
0.00375019
0.00397118
0.00441489
0.00375346
0.00374141
0.00374096
0.00374056
0.00374012
0.00373987
0.00373975
0.00373969
0.00373966
0.00373966
0.00373969
0.00373975
0.00373987
0.00374012
0.00374056
0.00374096
0.00374141
0.00375346
0.00441489
0.0048594
0.00376059
0.00373287
0.00373264
0.00373284
0.00373273
0.00373256
0.00373242
0.00373235
0.00373231
0.00373231
0.00373235
0.00373242
0.00373256
0.00373273
0.00373284
0.00373264
0.00373287
0.00376059
0.0048594
0.00530178
0.00377206
0.0037243
0.00372396
0.00372492
0.00372524
0.00372525
0.00372519
0.00372514
0.00372512
0.00372512
0.00372514
0.00372519
0.00372525
0.00372524
0.00372492
0.00372396
0.0037243
0.00377206
0.00530178
0.00573924
0.00378544
0.00371551
0.00371483
0.00371665
0.00371758
0.00371789
0.00371795
0.00371795
0.00371795
0.00371795
0.00371795
0.00371795
0.00371789
0.00371758
0.00371665
0.00371483
0.00371551
0.00378544
0.00573924
0.00617058
0.00379767
0.00370577
0.0037051
0.003708
0.00370969
0.00371043
0.0037107
0.00371078
0.0037108
0.0037108
0.00371078
0.0037107
0.00371043
0.00370969
0.003708
0.0037051
0.00370577
0.00379767
0.00617058
0.00659185
0.00380847
0.00369498
0.00369474
0.00369894
0.00370155
0.00370284
0.0037034
0.00370361
0.00370368
0.00370368
0.00370361
0.0037034
0.00370284
0.00370155
0.00369894
0.00369474
0.00369498
0.00380847
0.00659185
0.00700084
0.00381671
0.00368272
0.00368362
0.00368941
0.00369311
0.00369508
0.00369602
0.00369642
0.00369656
0.00369656
0.00369642
0.00369602
0.00369508
0.00369311
0.00368941
0.00368362
0.00368272
0.00381671
0.00700084
0.00739336
0.00382333
0.00366915
0.00367174
0.00367942
0.00368437
0.00368714
0.00368854
0.00368919
0.00368943
0.00368943
0.00368919
0.00368854
0.00368714
0.00368437
0.00367942
0.00367174
0.00366915
0.00382334
0.00739335
0.00776768
0.00382735
0.00365405
0.00365903
0.00366893
0.00367532
0.00367898
0.00368095
0.0036819
0.00368228
0.00368228
0.0036819
0.00368095
0.00367898
0.00367532
0.00366893
0.00365903
0.00365405
0.00382735
0.00776768
0.00812024
0.00383021
0.00363764
0.00364552
0.00365794
0.00366592
0.00367061
0.00367321
0.00367453
0.00367507
0.00367507
0.00367453
0.00367321
0.00367061
0.00366592
0.00365794
0.00364552
0.00363765
0.00383021
0.00812024
0.00845034
0.00383068
0.00361989
0.00363122
0.00364645
0.0036562
0.00366201
0.00366531
0.00366705
0.00366779
0.00366779
0.00366705
0.00366531
0.00366201
0.0036562
0.00364645
0.00363122
0.00361989
0.00383069
0.00845034
0.00875525
0.00383018
0.0036009
0.00361613
0.00363446
0.00364613
0.00365316
0.00365725
0.00365946
0.00366041
0.00366041
0.00365946
0.00365725
0.00365316
0.00364613
0.00363446
0.00361613
0.00360091
0.00383019
0.00875524
0.00903545
0.00382886
0.00358085
0.00360032
0.00362199
0.00363573
0.00364408
0.00364901
0.00365173
0.00365292
0.00365292
0.00365173
0.00364901
0.00364408
0.00363573
0.00362199
0.00360032
0.00358085
0.00382886
0.00903544
0.00928895
0.00382647
0.00355981
0.00358379
0.00360904
0.003625
0.00363475
0.00364059
0.00364385
0.00364531
0.00364531
0.00364385
0.00364059
0.00363475
0.003625
0.00360904
0.0035838
0.00355982
0.00382648
0.00928894
0.00951739
0.0038234
0.00353794
0.00356664
0.00359565
0.00361394
0.00362518
0.00363197
0.00363582
0.00363755
0.00363755
0.00363582
0.00363197
0.00362518
0.00361394
0.00359565
0.00356664
0.00353793
0.00382339
0.00951738
0.00971929
0.00382011
0.00351531
0.00354885
0.00358181
0.00360255
0.00361535
0.00362316
0.00362762
0.00362964
0.00362964
0.00362762
0.00362316
0.00361535
0.00360255
0.00358181
0.00354885
0.00351532
0.00382012
0.00971928
0.00989731
0.00381663
0.00349216
0.00353055
0.00356758
0.00359087
0.00360529
0.00361414
0.00361924
0.00362157
0.00362157
0.00361924
0.00361414
0.00360529
0.00359087
0.00356757
0.00353054
0.00349215
0.00381662
0.0098973
0.0100502
0.00381347
0.00346849
0.0035117
0.00355293
0.00357887
0.00359499
0.00360492
0.00361068
0.00361332
0.00361332
0.00361068
0.00360492
0.00359499
0.00357888
0.00355293
0.00351171
0.00346851
0.00381348
0.0100502
0.0101815
0.00381057
0.00344463
0.00349248
0.00353795
0.0035666
0.00358445
0.0035955
0.00360193
0.0036049
0.0036049
0.00360193
0.00359549
0.00358445
0.0035666
0.00353795
0.00349247
0.00344461
0.00381057
0.0101815
0.0102898
0.00380853
0.00342045
0.00347279
0.0035226
0.00355404
0.00357367
0.00358587
0.003593
0.0035963
0.0035963
0.003593
0.00358587
0.00357367
0.00355404
0.0035226
0.0034728
0.00342048
0.00380854
0.0102897
0.0103794
0.00380714
0.00339644
0.00345288
0.00350698
0.00354123
0.00356267
0.00357603
0.00358387
0.00358751
0.00358751
0.00358387
0.00357603
0.00356267
0.00354123
0.00350697
0.00345287
0.00339642
0.00380714
0.0103794
0.0104486
0.00380736
0.00337228
0.00343258
0.00349103
0.00352816
0.00355145
0.003566
0.00357455
0.00357853
0.00357853
0.00357455
0.003566
0.00355145
0.00352816
0.00349103
0.0034326