/*--------------------------------*- C++ -*----------------------------------*\
| =========                 |                                                 |
| \\      /  F ield         | OpenFOAM: The Open Source CFD Toolbox           |
|  \\    /   O peration     | Version:  2.1.0                                 |
|   \\  /    A nd           | Web:      www.OpenFOAM.org                      |
|    \\/     M anipulation  |                                                 |
\*---------------------------------------------------------------------------*/
FoamFile
{
    version     2.0;
    format      ascii;
    class       volScalarField;
    location    "0.44";
    object      nut;
}
// * * * * * * * * * * * * * * * * * * * * * * * * * * * * * * * * * * * * * //

dimensions      [0 2 -1 0 0 0 0];

internalField   nonuniform List<scalar> 
6400
(
7.08388e-06
7.10257e-06
7.11487e-06
7.13069e-06
7.1449e-06
7.1631e-06
7.178e-06
7.19721e-06
7.21282e-06
7.23284e-06
7.24925e-06
7.26972e-06
7.28707e-06
7.30784e-06
7.32621e-06
7.34725e-06
7.36664e-06
7.38802e-06
7.40843e-06
7.43027e-06
7.45172e-06
7.4742e-06
7.49676e-06
7.52008e-06
7.54383e-06
7.56817e-06
7.59317e-06
7.61865e-06
7.64495e-06
7.67168e-06
7.69934e-06
7.72743e-06
7.75651e-06
7.78606e-06
7.81665e-06
7.84777e-06
7.87996e-06
7.91274e-06
7.94661e-06
7.98107e-06
8.0165e-06
8.05241e-06
8.08921e-06
8.1264e-06
8.16428e-06
8.20246e-06
8.2411e-06
8.27989e-06
8.31893e-06
8.35799e-06
8.39709e-06
8.43605e-06
8.47466e-06
8.51215e-06
8.54785e-06
8.58113e-06
8.61193e-06
8.6445e-06
8.675e-06
8.70677e-06
8.73706e-06
8.76856e-06
8.79932e-06
8.83099e-06
8.86187e-06
8.8935e-06
8.92438e-06
8.95577e-06
8.98559e-06
9.01445e-06
9.04228e-06
9.06814e-06
9.09265e-06
9.11497e-06
9.13579e-06
9.15499e-06
9.1735e-06
9.19226e-06
9.2129e-06
9.23769e-06
9.26911e-06
9.30995e-06
9.3608e-06
9.41573e-06
9.46321e-06
9.5269e-06
9.59367e-06
9.65548e-06
9.68971e-06
9.65064e-06
9.45144e-06
8.92251e-06
7.82494e-06
5.96744e-06
3.45315e-06
2.31977e-06
2.40679e-06
3.78153e-06
3.87717e-06
4.18298e-06
7.5362e-05
7.58291e-05
7.59216e-05
7.62266e-05
7.63311e-05
7.65865e-05
7.67115e-05
7.69338e-05
7.70758e-05
7.72747e-05
7.74279e-05
7.76094e-05
7.77679e-05
7.79359e-05
7.80947e-05
7.8251e-05
7.84061e-05
7.85518e-05
7.87e-05
7.88349e-05
7.89738e-05
7.90979e-05
7.92262e-05
7.93404e-05
7.94584e-05
7.95642e-05
7.96732e-05
7.97701e-05
7.98692e-05
7.99565e-05
8.00443e-05
8.01206e-05
8.01955e-05
8.02589e-05
8.03186e-05
8.03665e-05
8.04082e-05
8.04373e-05
8.04617e-05
8.04749e-05
8.04813e-05
8.04727e-05
8.04531e-05
8.04169e-05
8.03649e-05
8.02932e-05
8.02005e-05
8.00834e-05
7.99396e-05
7.97663e-05
7.95608e-05
7.9322e-05
7.90544e-05
7.8758e-05
7.84205e-05
7.80008e-05
7.72983e-05
7.65703e-05
7.57873e-05
7.49707e-05
7.41018e-05
7.31984e-05
7.22476e-05
7.12652e-05
7.02325e-05
6.91624e-05
6.80414e-05
6.68836e-05
6.56749e-05
6.44046e-05
6.30805e-05
6.16917e-05
6.02392e-05
5.87173e-05
5.71246e-05
5.54592e-05
5.37201e-05
5.1909e-05
5.00268e-05
4.80789e-05
4.60694e-05
4.40082e-05
4.19043e-05
3.97636e-05
3.75681e-05
3.52834e-05
3.29161e-05
3.04444e-05
2.78635e-05
2.51675e-05
2.2375e-05
1.95214e-05
1.66881e-05
1.4019e-05
1.15063e-05
9.2364e-06
7.49577e-06
6.29041e-06
5.67985e-06
6.86428e-06
0.00011535
0.000115624
0.000115733
0.000115855
0.00011595
0.000116031
0.000116116
0.000116168
0.000116241
0.000116267
0.000116325
0.000116328
0.000116364
0.000116344
0.000116355
0.00011631
0.000116291
0.000116219
0.000116167
0.000116066
0.000115978
0.000115842
0.000115713
0.00011554
0.000115371
0.000115163
0.000114961
0.000114724
0.000114488
0.000114219
0.000113946
0.000113644
0.000113333
0.000112995
0.000112644
0.000112267
0.000111875
0.000111457
0.000111012
0.000110535
0.000110036
0.000109508
0.00010895
0.000108359
0.000107733
0.000107071
0.000106367
0.00010562
0.000104823
0.000103971
0.000103059
0.000101916
0.000100407
9.8868e-05
9.72774e-05
9.56605e-05
9.40071e-05
9.2327e-05
9.06098e-05
8.88635e-05
8.70944e-05
8.53137e-05
8.34702e-05
8.16155e-05
7.97117e-05
7.77907e-05
7.58287e-05
7.3847e-05
7.183e-05
6.97918e-05
6.77207e-05
6.56246e-05
6.34951e-05
6.13364e-05
5.91418e-05
5.69145e-05
5.46492e-05
5.23498e-05
5.00137e-05
4.76468e-05
4.52503e-05
4.28336e-05
4.04016e-05
3.79666e-05
3.55413e-05
3.31554e-05
3.08102e-05
2.85293e-05
2.63101e-05
2.41654e-05
2.20655e-05
2.0032e-05
1.80358e-05
1.59923e-05
1.39466e-05
1.19377e-05
1.01369e-05
8.62541e-06
8.12553e-06
1.13133e-05
0.000137396
0.000137125
0.000137022
0.000136758
0.000136655
0.000136364
0.000136235
0.000135924
0.000135758
0.000135428
0.000135222
0.000134872
0.000134622
0.000134248
0.000133954
0.000133553
0.000133213
0.000132782
0.000132392
0.000131924
0.000131484
0.000130973
0.000130477
0.000129912
0.000129344
0.000128328
0.000127295
0.000126214
0.000125125
0.000123998
0.000122858
0.000121683
0.000120491
0.000119266
0.000118021
0.000116744
0.000115444
0.000114113
0.000112759
0.000111374
0.000109959
0.000108518
0.000107045
0.000105547
0.000104015
0.000102459
0.000100869
9.92542e-05
9.76082e-05
9.59294e-05
9.42259e-05
9.25182e-05
9.07753e-05
8.90194e-05
8.72362e-05
8.54414e-05
8.3623e-05
8.17887e-05
7.99274e-05
7.80457e-05
7.6136e-05
7.42068e-05
7.22531e-05
7.02839e-05
6.82915e-05
6.62873e-05
6.42641e-05
6.22341e-05
6.01926e-05
5.81516e-05
5.61084e-05
5.4075e-05
5.2051e-05
5.00474e-05
4.80647e-05
4.61131e-05
4.41925e-05
4.23113e-05
4.0468e-05
3.86676e-05
3.69064e-05
3.51862e-05
3.34954e-05
3.18347e-05
3.02117e-05
2.85938e-05
2.69878e-05
2.53853e-05
2.378e-05
2.21644e-05
2.0534e-05
1.88851e-05
1.72075e-05
1.54798e-05
1.37116e-05
1.19847e-05
1.05115e-05
9.77624e-06
1.19118e-05
1.20611e-05
0.000139931
0.00014004
0.000139782
0.000139634
0.000138874
0.00013828
0.000137374
0.000136588
0.000135632
0.000134741
0.000133756
0.000132795
0.000131781
0.000130763
0.000129716
0.000128647
0.000127562
0.000126446
0.000125319
0.000124154
0.000122981
0.000121769
0.000120547
0.000119289
0.000118013
0.00011672
0.00011541
0.000114071
0.000112721
0.000111343
0.000109954
0.000108539
0.000107111
0.000105658
0.000104192
0.000102702
0.000101198
9.9663e-05
9.81212e-05
9.65777e-05
9.4989e-05
9.34047e-05
9.17877e-05
9.01682e-05
8.85238e-05
8.68742e-05
8.52057e-05
8.35318e-05
8.18444e-05
8.01539e-05
7.8456e-05
7.67569e-05
7.50527e-05
7.33472e-05
7.16347e-05
6.99228e-05
6.82121e-05
6.65068e-05
6.48066e-05
6.31158e-05
6.1434e-05
5.97663e-05
5.81124e-05
5.64771e-05
5.48595e-05
5.32643e-05
5.16897e-05
5.014e-05
4.86122e-05
4.71098e-05
4.56246e-05
4.41648e-05
4.27342e-05
4.13102e-05
3.99127e-05
3.85234e-05
3.71509e-05
3.57815e-05
3.442e-05
3.30544e-05
3.16874e-05
3.03117e-05
2.89285e-05
2.75376e-05
2.61413e-05
2.4739e-05
2.33439e-05
2.19492e-05
2.0574e-05
1.92173e-05
1.78964e-05
1.6611e-05
1.53819e-05
1.41931e-05
1.31022e-05
1.22698e-05
1.20802e-05
1.37498e-05
1.37876e-05
1.41369e-05
0.000126954
0.000126335
0.000125929
0.000125395
0.000124475
0.000123578
0.000122494
0.000121441
0.000120297
0.000119167
0.000117994
0.000116816
0.000115621
0.000114409
0.000113194
0.000111954
0.00011072
0.000109456
0.000108203
0.00010692
0.000105644
0.000104348
0.000103052
0.000101758
0.000100437
9.91185e-05
9.77813e-05
9.64334e-05
9.50794e-05
9.37114e-05
9.23384e-05
9.09508e-05
8.95593e-05
8.81539e-05
8.67457e-05
8.53254e-05
8.39035e-05
8.24723e-05
8.10426e-05
7.9605e-05
7.8169e-05
7.67325e-05
7.52971e-05
7.38659e-05
7.24377e-05
7.10169e-05
6.96017e-05
6.81964e-05
6.67991e-05
6.54134e-05
6.40373e-05
6.26729e-05
6.13189e-05
5.99778e-05
5.86477e-05
5.73305e-05
5.60249e-05
5.47384e-05
5.34674e-05
5.22065e-05
5.09624e-05
4.97277e-05
4.85065e-05
4.72935e-05
4.60911e-05
4.48958e-05
4.37086e-05
4.25273e-05
4.13523e-05
4.01824e-05
3.90181e-05
3.78609e-05
3.67116e-05
3.55693e-05
3.44359e-05
3.33083e-05
3.21929e-05
3.10859e-05
2.99981e-05
2.8922e-05
2.78664e-05
2.6827e-05
2.58108e-05
2.48143e-05
2.38438e-05
2.28955e-05
2.1969e-05
2.10675e-05
2.02031e-05
1.93759e-05
1.8602e-05
1.78888e-05
1.72647e-05
1.67641e-05
1.65183e-05
1.66372e-05
1.60618e-05
1.58181e-05
1.57932e-05
1.32102e-05
0.000111443
0.000110272
0.000109727
0.000108864
0.000107934
0.000106852
0.000105776
0.000104611
0.000103478
0.000102282
0.000101127
9.99182e-05
9.87521e-05
9.7539e-05
9.63671e-05
9.51533e-05
9.3979e-05
9.27677e-05
9.15942e-05
9.0389e-05
8.922e-05
8.80284e-05
8.68653e-05
8.56784e-05
8.45207e-05
8.33457e-05
8.21935e-05
8.10311e-05
7.98888e-05
7.8739e-05
7.76068e-05
7.64694e-05
7.53477e-05
7.42227e-05
7.31118e-05
7.19989e-05
7.08988e-05
6.97977e-05
6.87079e-05
6.76136e-05
6.65333e-05
6.54588e-05
6.43874e-05
6.33234e-05
6.22639e-05
6.12109e-05
6.01624e-05
5.91199e-05
5.80819e-05
5.70503e-05
5.60227e-05
5.5002e-05
5.39861e-05
5.29789e-05
5.19798e-05
5.0991e-05
5.00025e-05
4.90275e-05
4.80585e-05
4.71006e-05
4.6152e-05
4.52159e-05
4.42933e-05
4.33851e-05
4.24923e-05
4.16145e-05
4.07624e-05
3.99273e-05
3.91186e-05
3.83297e-05
3.75688e-05
3.68284e-05
3.61128e-05
3.54177e-05
3.47465e-05
3.40943e-05
3.34632e-05
3.28461e-05
3.22479e-05
3.1293e-05
3.03393e-05
2.9392e-05
2.8464e-05
2.75434e-05
2.66432e-05
2.57519e-05
2.48827e-05
2.4025e-05
2.31945e-05
2.23829e-05
2.16086e-05
2.08671e-05
2.01765e-05
1.95431e-05
1.90022e-05
1.85981e-05
1.83377e-05
1.82343e-05
1.89299e-05
1.49388e-05
0.000100472
9.87233e-05
9.81639e-05
9.70839e-05
9.62344e-05
9.50674e-05
9.4112e-05
9.29432e-05
9.19566e-05
9.08159e-05
8.98303e-05
8.87266e-05
8.77532e-05
8.66857e-05
8.57275e-05
8.46922e-05
8.37484e-05
8.27401e-05
8.18084e-05
8.0821e-05
7.98975e-05
7.89214e-05
7.77461e-05
7.64492e-05
7.52057e-05
7.39342e-05
7.27327e-05
7.14988e-05
7.03366e-05
6.91485e-05
6.80334e-05
6.68989e-05
6.58379e-05
6.47631e-05
6.37609e-05
6.27485e-05
6.18078e-05
6.08609e-05
5.99842e-05
5.91047e-05
5.82921e-05
5.7478e-05
5.67261e-05
5.59718e-05
5.5277e-05
5.45795e-05
5.39374e-05
5.32922e-05
5.26977e-05
5.20993e-05
5.15453e-05
5.09888e-05
5.04667e-05
4.99413e-05
4.94423e-05
4.89427e-05
4.84607e-05
4.79772e-05
4.75014e-05
4.70216e-05
4.65438e-05
4.60593e-05
4.55719e-05
4.50678e-05
4.45631e-05
4.40657e-05
4.35414e-05
4.3028e-05
4.24996e-05
4.19796e-05
4.14461e-05
4.09195e-05
4.03809e-05
3.98475e-05
3.93034e-05
3.87628e-05
3.82124e-05
3.76638e-05
3.71068e-05
3.6547e-05
3.5977e-05
3.53951e-05
3.47989e-05
3.41855e-05
3.35523e-05
3.28959e-05
3.22142e-05
3.15038e-05
3.07653e-05
3e-05
2.9215e-05
2.84208e-05
2.76369e-05
2.6889e-05
2.62702e-05
2.58105e-05
2.54332e-05
2.56031e-05
2.61367e-05
2.05159e-05
8.35916e-05
8.15074e-05
8.06611e-05
7.90863e-05
7.8204e-05
7.67376e-05
7.58261e-05
7.44614e-05
7.35328e-05
7.22333e-05
7.13367e-05
7.00955e-05
6.92265e-05
6.8047e-05
6.72097e-05
6.60945e-05
6.52934e-05
6.42447e-05
6.34845e-05
6.25042e-05
6.17896e-05
6.088e-05
6.02146e-05
5.9385e-05
5.87776e-05
5.80305e-05
5.74846e-05
5.68161e-05
5.63324e-05
5.57392e-05
5.53155e-05
5.47937e-05
5.44257e-05
5.39709e-05
5.36534e-05
5.32622e-05
5.29903e-05
5.26568e-05
5.24237e-05
5.21416e-05
5.1941e-05
5.17011e-05
5.15278e-05
5.13216e-05
5.11704e-05
5.09905e-05
5.08563e-05
5.0687e-05
5.0562e-05
5.04416e-05
5.03095e-05
5.01952e-05
5.0046e-05
4.99587e-05
4.98295e-05
4.9748e-05
4.96361e-05
4.95614e-05
4.94683e-05
4.94056e-05
4.93316e-05
4.92828e-05
4.92278e-05
4.91935e-05
4.91572e-05
4.91373e-05
4.91207e-05
4.91187e-05
4.91197e-05
4.91343e-05
4.91527e-05
4.91834e-05
4.92181e-05
4.92638e-05
4.93134e-05
4.93721e-05
4.94337e-05
4.95014e-05
4.95699e-05
4.96418e-05
4.97112e-05
4.97769e-05
4.9834e-05
4.98788e-05
4.99051e-05
4.99071e-05
4.98773e-05
4.98069e-05
4.96868e-05
4.95117e-05
4.92748e-05
4.89761e-05
4.86191e-05
4.82163e-05
4.77956e-05
4.744e-05
4.73083e-05
4.74356e-05
4.79762e-05
3.97746e-05
7.4189e-05
7.23275e-05
7.1582e-05
7.01829e-05
6.948e-05
6.81619e-05
6.74977e-05
6.62674e-05
6.56407e-05
6.45019e-05
6.39164e-05
6.2867e-05
6.23259e-05
6.13647e-05
6.08699e-05
5.9995e-05
5.95476e-05
5.87565e-05
5.8357e-05
5.76466e-05
5.72944e-05
5.66609e-05
5.63548e-05
5.57943e-05
5.55314e-05
5.50386e-05
5.48154e-05
5.43847e-05
5.41974e-05
5.38255e-05
5.36664e-05
5.33555e-05
5.32041e-05
5.29563e-05
5.2831e-05
5.2638e-05
5.25148e-05
5.23761e-05
5.22484e-05
5.21516e-05
5.20578e-05
5.19825e-05
5.19166e-05
5.18645e-05
5.18264e-05
5.17963e-05
5.17843e-05
5.17767e-05
5.17905e-05
5.18062e-05
5.18425e-05
5.1882e-05
5.1942e-05
5.20098e-05
5.20941e-05
5.21897e-05
5.22998e-05
5.24233e-05
5.25597e-05
5.27103e-05
5.2874e-05
5.30524e-05
5.32444e-05
5.3452e-05
5.36739e-05
5.39116e-05
5.41645e-05
5.44332e-05
5.47181e-05
5.50192e-05
5.53376e-05
5.56727e-05
5.60266e-05
5.63983e-05
5.67901e-05
5.72013e-05
5.76346e-05
5.80893e-05
5.85682e-05
5.90706e-05
5.95992e-05
6.01551e-05
6.07407e-05
6.13574e-05
6.20085e-05
6.26959e-05
6.34238e-05
6.41951e-05
6.50169e-05
6.58925e-05
6.68303e-05
6.78356e-05
6.89179e-05
7.00835e-05
7.13401e-05
7.26802e-05
7.40961e-05
7.55579e-05
7.62824e-05
6.6202e-05
7.91457e-05
7.71601e-05
7.63642e-05
7.48587e-05
7.40894e-05
7.26704e-05
7.19284e-05
7.06009e-05
6.98895e-05
6.86567e-05
6.7979e-05
6.6844e-05
6.6203e-05
6.51664e-05
6.4569e-05
6.36249e-05
6.30767e-05
6.22207e-05
6.17243e-05
6.09524e-05
6.05086e-05
5.98165e-05
5.94241e-05
5.88069e-05
5.84637e-05
5.79163e-05
5.76188e-05
5.71357e-05
5.68798e-05
5.64552e-05
5.62362e-05
5.58642e-05
5.56767e-05
5.53527e-05
5.51906e-05
5.49089e-05
5.47668e-05
5.45161e-05
5.4385e-05
5.42001e-05
5.40548e-05
5.39221e-05
5.37814e-05
5.3652e-05
5.35534e-05
5.34466e-05
5.33702e-05
5.32858e-05
5.32312e-05
5.31694e-05
5.31369e-05
5.30985e-05
5.30886e-05
5.30748e-05
5.30866e-05
5.30975e-05
5.31349e-05
5.31723e-05
5.32356e-05
5.32995e-05
5.33874e-05
5.34792e-05
5.35932e-05
5.37132e-05
5.38551e-05
5.40039e-05
5.41742e-05
5.43524e-05
5.45516e-05
5.47598e-05
5.49887e-05
5.52272e-05
5.54864e-05
5.57563e-05
5.60467e-05
5.63492e-05
5.66732e-05
5.70111e-05
5.73716e-05
5.77483e-05
5.81493e-05
5.85694e-05
5.9016e-05
5.94852e-05
5.99839e-05
6.05095e-05
6.10687e-05
6.16597e-05
6.22887e-05
6.2954e-05
6.36632e-05
6.44205e-05
6.52451e-05
6.61412e-05
6.71346e-05
6.82413e-05
6.95075e-05
7.09038e-05
7.1941e-05
6.3078e-05
9.72845e-05
9.50989e-05
9.42e-05
9.25125e-05
9.15545e-05
8.99566e-05
8.89475e-05
8.74285e-05
8.63811e-05
8.49416e-05
8.38578e-05
8.24977e-05
8.13946e-05
8.0085e-05
7.90146e-05
7.77488e-05
7.67118e-05
7.54969e-05
7.44979e-05
7.33395e-05
7.23833e-05
7.12856e-05
7.03767e-05
6.93428e-05
6.84851e-05
6.75175e-05
6.67118e-05
6.58132e-05
6.50643e-05
6.42334e-05
6.35427e-05
6.27792e-05
6.21468e-05
6.14496e-05
6.08731e-05
6.0238e-05
5.9715e-05
5.91389e-05
5.8666e-05
5.8145e-05
5.77165e-05
5.72455e-05
5.68505e-05
5.64219e-05
5.60574e-05
5.56637e-05
5.53242e-05
5.49581e-05
5.46371e-05
5.42914e-05
5.39834e-05
5.365e-05
5.33405e-05
5.30257e-05
5.27404e-05
5.2423e-05
5.21464e-05
5.18428e-05
5.15754e-05
5.13007e-05
5.10266e-05
5.07509e-05
5.04983e-05
5.02356e-05
4.99946e-05
4.97444e-05
4.95138e-05
4.92775e-05
4.90594e-05
4.88322e-05
4.86176e-05
4.83935e-05
4.81786e-05
4.7951e-05
4.77275e-05
4.74882e-05
4.7248e-05
4.69883e-05
4.67226e-05
4.64338e-05
4.61367e-05
4.58145e-05
4.54795e-05
4.51175e-05
4.47393e-05
4.43333e-05
4.39096e-05
4.34601e-05
4.29971e-05
4.25127e-05
4.20234e-05
4.15192e-05
4.10107e-05
4.05306e-05
4.01091e-05
3.98118e-05
3.97341e-05
3.9998e-05
4.06397e-05
3.43511e-05
0.000105095
0.000103549
0.000102903
0.000101793
0.000100894
9.96859e-05
9.86731e-05
9.74508e-05
9.6397e-05
9.51937e-05
9.41317e-05
9.29579e-05
9.19015e-05
9.07566e-05
8.97125e-05
8.85951e-05
8.75646e-05
8.64735e-05
8.54573e-05
8.43908e-05
8.33894e-05
8.23464e-05
8.13602e-05
8.03384e-05
7.9366e-05
7.83591e-05
7.7405e-05
7.64218e-05
7.54764e-05
7.45111e-05
7.35807e-05
7.26342e-05
7.17192e-05
7.07913e-05
6.98932e-05
6.89862e-05
6.80924e-05
6.71867e-05
6.62961e-05
6.53981e-05
6.45157e-05
6.36309e-05
6.27632e-05
6.18968e-05
6.105e-05
6.02078e-05
5.93894e-05
5.85782e-05
5.77941e-05
5.70176e-05
5.627e-05
5.55327e-05
5.48244e-05
5.41275e-05
5.34579e-05
5.28049e-05
5.21844e-05
5.14827e-05
5.07485e-05
5.00042e-05
4.92749e-05
4.85347e-05
4.78036e-05
4.70552e-05
4.6311e-05
4.55476e-05
4.47866e-05
4.40005e-05
4.32058e-05
4.24111e-05
4.16225e-05
4.08071e-05
4.00081e-05
3.91863e-05
3.83811e-05
3.75568e-05
3.67488e-05
3.59257e-05
3.51198e-05
3.43031e-05
3.34981e-05
3.26844e-05
3.18855e-05
3.10829e-05
3.0299e-05
2.95173e-05
2.87517e-05
2.79938e-05
2.72591e-05
2.65421e-05
2.58607e-05
2.52142e-05
2.46235e-05
2.40896e-05
2.37075e-05
2.33952e-05
2.33656e-05
2.36402e-05
2.43819e-05
1.89174e-05
0.000119018
0.000117869
0.000117333
0.000116444
0.00011547
0.000114351
0.000113215
0.000111988
0.000110785
0.00010951
0.000108281
0.000106993
0.00010575
0.000104452
0.000103199
0.000101894
0.00010063
9.93199e-05
9.80454e-05
9.67303e-05
9.54471e-05
9.41287e-05
9.28394e-05
9.15216e-05
9.02267e-05
8.89082e-05
8.76125e-05
8.62953e-05
8.49986e-05
8.36845e-05
8.23907e-05
8.10829e-05
7.97939e-05
7.84947e-05
7.72139e-05
7.59268e-05
7.46603e-05
7.33907e-05
7.21405e-05
7.08891e-05
6.96549e-05
6.84207e-05
6.72003e-05
6.59848e-05
6.47864e-05
6.35836e-05
6.23995e-05
6.1213e-05
6.00426e-05
5.88735e-05
5.77193e-05
5.65674e-05
5.54296e-05
5.42954e-05
5.31749e-05
5.20595e-05
5.096e-05
4.98675e-05
4.87916e-05
4.7727e-05
4.66774e-05
4.56324e-05
4.46039e-05
4.3585e-05
4.25846e-05
4.15969e-05
4.06303e-05
3.96862e-05
3.87672e-05
3.78702e-05
3.70006e-05
3.61556e-05
3.53396e-05
3.45489e-05
3.37822e-05
3.30406e-05
3.23224e-05
3.16283e-05
3.09556e-05
3.03042e-05
2.96665e-05
2.9048e-05
2.84405e-05
2.78487e-05
2.68369e-05
2.58603e-05
2.49059e-05
2.39966e-05
2.31141e-05
2.22813e-05
2.14824e-05
2.07416e-05
2.0042e-05
1.94161e-05
1.88202e-05
1.84104e-05
1.81792e-05
1.79928e-05
1.87264e-05
1.44605e-05
0.000135447
0.000134806
0.000134389
0.000133804
0.000132828
0.000131848
0.000130689
0.000129542
0.000128316
0.000127088
0.000125829
0.000124551
0.000123267
0.000121952
0.000120643
0.000119298
0.000117962
0.00011659
0.000115229
0.000113831
0.000112445
0.000111025
0.000109601
0.000108169
0.000106747
0.000105285
0.000103843
0.00010237
0.000100914
9.94317e-05
9.79551e-05
9.64531e-05
9.49535e-05
9.34318e-05
9.1911e-05
9.03714e-05
8.88402e-05
8.72967e-05
8.57597e-05
8.42145e-05
8.26736e-05
8.11256e-05
7.9585e-05
7.80388e-05
7.65025e-05
7.49634e-05
7.34362e-05
7.191e-05
7.03979e-05
6.88907e-05
6.73994e-05
6.59165e-05
6.44513e-05
6.2997e-05
6.15603e-05
6.01359e-05
5.87303e-05
5.73348e-05
5.59563e-05
5.45965e-05
5.32508e-05
5.19272e-05
5.06202e-05
4.93313e-05
4.80574e-05
4.67974e-05
4.555e-05
4.43131e-05
4.30862e-05
4.1867e-05
4.06561e-05
3.94508e-05
3.82525e-05
3.70604e-05
3.58801e-05
3.47067e-05
3.35422e-05
3.2385e-05
3.12366e-05
3.00993e-05
2.89731e-05
2.78636e-05
2.67682e-05
2.56946e-05
2.46364e-05
2.36003e-05
2.25817e-05
2.15872e-05
2.06099e-05
1.96592e-05
1.87459e-05
1.78728e-05
1.70533e-05
1.63913e-05
1.59611e-05
1.6131e-05
1.60765e-05
1.58676e-05
1.58839e-05
1.31644e-05
0.000147198
0.000147311
0.000147035
0.000146826
0.000146012
0.000145328
0.000144351
0.000143469
0.000142438
0.000141453
0.000140391
0.000139339
0.000138248
0.000137143
0.00013602
0.000134869
0.00013371
0.000132517
0.000131319
0.000130084
0.000128846
0.00012757
0.000126289
0.000124974
0.00012365
0.00012229
0.000120925
0.000119523
0.000118124
0.000116694
0.000115256
0.00011379
0.000112317
0.000110818
0.000109308
0.000107776
0.000106234
0.00010467
0.000103085
0.000101487
9.98914e-05
9.82526e-05
9.66164e-05
9.49481e-05
9.32762e-05
9.15779e-05
8.98731e-05
8.8146e-05
8.64117e-05
8.46592e-05
8.29006e-05
8.11283e-05
7.93528e-05
7.75707e-05
7.57872e-05
7.40011e-05
7.22175e-05
7.04269e-05
6.86417e-05
6.68534e-05
6.50759e-05
6.33054e-05
6.15511e-05
5.98085e-05
5.80877e-05
5.63834e-05
5.47048e-05
5.30474e-05
5.14183e-05
4.98139e-05
4.8239e-05
4.66899e-05
4.51692e-05
4.36673e-05
4.2194e-05
4.07515e-05
3.93127e-05
3.79054e-05
3.64987e-05
3.51097e-05
3.37142e-05
3.23229e-05
3.09172e-05
2.95046e-05
2.80698e-05
2.6622e-05
2.51559e-05
2.36739e-05
2.21865e-05
2.06878e-05
1.9197e-05
1.7708e-05
1.62199e-05
1.47946e-05
1.34797e-05
1.2437e-05
1.20866e-05
1.36424e-05
1.38508e-05
1.43367e-05
0.00014117
0.000140844
0.000140715
0.000140391
0.00014025
0.0001399
0.000139729
0.000139366
0.000139158
0.000138781
0.000138533
0.000138139
0.00013785
0.000137437
0.000137104
0.000136667
0.000136291
0.000135826
0.000135405
0.000134909
0.000134441
0.000133907
0.00013339
0.000132814
0.000132242
0.000131616
0.000130981
0.000130291
0.000129245
0.000128097
0.000126929
0.000125734
0.000124524
0.000123291
0.000122045
0.000120773
0.000119481
0.00011816
0.000116819
0.000115451
0.000114059
0.000112635
0.000111191
0.000109713
0.000108213
0.000106678
0.000105119
0.000103527
0.000101909
0.000100259
9.85828e-05
9.68749e-05
9.51296e-05
9.33636e-05
9.1591e-05
8.97692e-05
8.79476e-05
8.60812e-05
8.4211e-05
8.23046e-05
8.0391e-05
7.8446e-05
7.64892e-05
7.44988e-05
7.24903e-05
7.04557e-05
6.84018e-05
6.63284e-05
6.42379e-05
6.21345e-05
6.00201e-05
5.79022e-05
5.57831e-05
5.36724e-05
5.15729e-05
4.94954e-05
4.74421e-05
4.54229e-05
4.34393e-05
4.14983e-05
3.95994e-05
3.77456e-05
3.59331e-05
3.41603e-05
3.241e-05
3.06855e-05
2.90002e-05
2.72894e-05
2.55938e-05
2.38715e-05
2.21314e-05
2.03359e-05
1.84723e-05
1.65394e-05
1.46176e-05
1.26999e-05
1.10407e-05
1.0081e-05
1.19766e-05
1.21316e-05
0.000116752
0.000116979
0.000117067
0.000117142
0.000117211
0.000117248
0.000117305
0.000117316
0.000117359
0.000117348
0.000117374
0.000117341
0.000117346
0.000117294
0.000117276
0.000117204
0.000117162
0.000117069
0.000116998
0.000116881
0.00011678
0.000116636
0.000116502
0.000116327
0.000116156
0.000115948
0.000115737
0.000115493
0.000115245
0.000114975
0.000114697
0.000114398
0.00011409
0.00011376
0.000113416
0.000113052
0.000112678
0.000112284
0.000111869
0.000111431
0.00011097
0.000110482
0.000109968
0.000109422
0.000108845
0.000108238
0.000107603
0.000106938
0.000106245
0.000105511
0.000104737
0.000103915
0.000103042
0.000102111
0.000101111
9.95684e-05
9.7992e-05
9.63421e-05
9.46703e-05
9.29397e-05
9.11857e-05
8.9386e-05
8.75714e-05
8.57172e-05
8.38399e-05
8.19368e-05
7.99712e-05
7.79862e-05
7.59507e-05
7.38904e-05
7.17877e-05
6.96583e-05
6.7484e-05
6.52802e-05
6.30298e-05
6.07439e-05
5.8408e-05
5.60302e-05
5.36e-05
5.11246e-05
4.85987e-05
4.60315e-05
4.34245e-05
4.0791e-05
3.81411e-05
3.54944e-05
3.28687e-05
3.0288e-05
2.77829e-05
2.53644e-05
2.30178e-05
2.07421e-05
1.8538e-05
1.62994e-05
1.41354e-05
1.21317e-05
1.03199e-05
8.92165e-06
8.37946e-06
1.1538e-05
7.49502e-05
7.53886e-05
7.5472e-05
7.57448e-05
7.58359e-05
7.60605e-05
7.61697e-05
7.6363e-05
7.64879e-05
7.66598e-05
7.67951e-05
7.6952e-05
7.70927e-05
7.72387e-05
7.73805e-05
7.75177e-05
7.76571e-05
7.77862e-05
7.79204e-05
7.80415e-05
7.81679e-05
7.82803e-05
7.83972e-05
7.85001e-05
7.86064e-05
7.86996e-05
7.8795e-05
7.88791e-05
7.89654e-05
7.90423e-05
7.91192e-05
7.91875e-05
7.92538e-05
7.93114e-05
7.93652e-05
7.94102e-05
7.94495e-05
7.94783e-05
7.9503e-05
7.95179e-05
7.95266e-05
7.95258e-05
7.95175e-05
7.94996e-05
7.9474e-05
7.94394e-05
7.93936e-05
7.93327e-05
7.9256e-05
7.91591e-05
7.90415e-05
7.88983e-05
7.87287e-05
7.85285e-05
7.82971e-05
7.80367e-05
7.77625e-05
7.74517e-05
7.71205e-05
7.67439e-05
7.63304e-05
7.58015e-05
7.4969e-05
7.40872e-05
7.31422e-05
7.21601e-05
7.11174e-05
7.00359e-05
6.88912e-05
6.76906e-05
6.64276e-05
6.51178e-05
6.37139e-05
6.2245e-05
6.06831e-05
5.90402e-05
5.72979e-05
5.54636e-05
5.35257e-05
5.14909e-05
4.93539e-05
4.71231e-05
4.47992e-05
4.23942e-05
3.99161e-05
3.73776e-05
3.47711e-05
3.21128e-05
2.93271e-05
2.64568e-05
2.34917e-05
2.04661e-05
1.74887e-05
1.46369e-05
1.19478e-05
9.59303e-06
7.77152e-06
6.54311e-06
5.87334e-06
6.77675e-06
6.97837e-06
6.99514e-06
7.00699e-06
7.02064e-06
7.03468e-06
7.05121e-06
7.06546e-06
7.08348e-06
7.09829e-06
7.1171e-06
7.13275e-06
7.15203e-06
7.16868e-06
7.1883e-06
7.20598e-06
7.22593e-06
7.24463e-06
7.26497e-06
7.28466e-06
7.30547e-06
7.32613e-06
7.34755e-06
7.36919e-06
7.39137e-06
7.41407e-06
7.4372e-06
7.46109e-06
7.4854e-06
7.5106e-06
7.53623e-06
7.56283e-06
7.5899e-06
7.61801e-06
7.64666e-06
7.6764e-06
7.7068e-06
7.73833e-06
7.77067e-06
7.80423e-06
7.83871e-06
7.87451e-06
7.91135e-06
7.94957e-06
7.98895e-06
8.02973e-06
8.07165e-06
8.11483e-06
8.15907e-06
8.20453e-06
8.25102e-06
8.29874e-06
8.34755e-06
8.39772e-06
8.44924e-06
8.50248e-06
8.55754e-06
8.61431e-06
8.67178e-06
8.73028e-06
8.78785e-06
8.84485e-06
8.89871e-06
8.95123e-06
9.00702e-06
9.06295e-06
9.12306e-06
9.18412e-06
9.24959e-06
9.31639e-06
9.38756e-06
9.46149e-06
9.53974e-06
9.61873e-06
9.70318e-06
9.78862e-06
9.87904e-06
9.97119e-06
1.00681e-05
1.01679e-05
1.02732e-05
1.03834e-05
1.05013e-05
1.06276e-05
1.07657e-05
1.09165e-05
1.10786e-05
1.12353e-05
1.13426e-05
1.13671e-05
1.12388e-05
1.07853e-05
9.77375e-06
8.06029e-06
5.93619e-06
3.6195e-06
2.63647e-06
2.55648e-06
3.91774e-06
4.01841e-06
4.33076e-06
1.09393e-05
2.07735e-06
2.60063e-06
3.51746e-06
4.54837e-06
5.62314e-06
6.48747e-06
7.33707e-06
8.15034e-06
8.90643e-06
9.61992e-06
1.0338e-05
1.14565e-05
1.33353e-05
1.54698e-05
1.78507e-05
1.75968e-05
1.55418e-05
1.02873e-05
3.99565e-06
5.87969e-06
2.18617e-06
2.47516e-06
3.18434e-06
4.05641e-06
4.86407e-06
5.69333e-06
6.5524e-06
7.41578e-06
8.29948e-06
9.27505e-06
1.03725e-05
1.20257e-05
1.40993e-05
1.70535e-05
1.8324e-05
1.74933e-05
1.47073e-05
9.53318e-06
3.96695e-06
4.94609e-06
2.69541e-06
2.90124e-06
3.41684e-06
4.01112e-06
4.71744e-06
5.48174e-06
6.31639e-06
7.22226e-06
8.38989e-06
9.51018e-06
1.10215e-05
1.29396e-05
1.58368e-05
1.80265e-05
1.83049e-05
1.71509e-05
1.40016e-05
8.87023e-06
3.83941e-06
5.05651e-06
3.43954e-06
3.63823e-06
3.87599e-06
4.3689e-06
4.92964e-06
5.67446e-06
6.58288e-06
7.71571e-06
9.48927e-06
1.12194e-05
1.29541e-05
1.57413e-05
1.82209e-05
1.91982e-05
1.88217e-05
1.703e-05
1.32339e-05
7.97819e-06
3.2577e-06
5.68871e-06
4.47721e-06
4.61698e-06
4.63445e-06
5.19477e-06
5.69387e-06
6.58672e-06
7.84449e-06
9.60098e-06
1.31103e-05
1.47776e-05
1.70908e-05
1.93526e-05
2.04381e-05
2.04402e-05
1.9221e-05
1.6536e-05
1.24893e-05
6.87869e-06
2.37508e-06
6.8955e-06
5.97716e-06
6.04857e-06
6.02773e-06
6.77351e-06
7.77008e-06
9.35338e-06
1.16084e-05
1.61268e-05
1.95224e-05
2.09971e-05
2.23893e-05
2.30797e-05
2.28788e-05
2.16785e-05
1.91001e-05
1.596e-05
1.15539e-05
5.14598e-06
1.46701e-06
9.0438e-06
8.62777e-06
8.85939e-06
9.46589e-06
1.11855e-05
1.36767e-05
1.70887e-05
2.2043e-05
2.87885e-05
2.94393e-05
2.91201e-05
2.8328e-05
2.69233e-05
2.47845e-05
2.16791e-05
1.85284e-05
1.48185e-05
1.01024e-05
3.8224e-06
7.20591e-07
1.46603e-05
1.61401e-05
1.73687e-05
1.96671e-05
2.31986e-05
2.75252e-05
3.30996e-05
4.0066e-05
3.99377e-05
3.77741e-05
3.42821e-05
3.1665e-05
2.81041e-05
2.49261e-05
2.08579e-05
1.7083e-05
1.29166e-05
8.10388e-06
2.7813e-06
2.76814e-07
3.25334e-05
3.549e-05
3.67165e-05
3.91782e-05
4.3632e-05
4.79758e-05
5.20277e-05
4.78006e-05
4.41772e-05
4.02515e-05
3.63762e-05
3.25854e-05
2.83723e-05
2.33263e-05
1.85622e-05
1.40687e-05
1.01864e-05
6.45134e-06
2.41707e-06
1.22112e-07
5.28246e-05
5.57087e-05
5.59624e-05
5.74663e-05
6.23173e-05
5.94173e-05
5.51289e-05
5.01693e-05
4.60822e-05
4.11238e-05
3.70457e-05
3.18734e-05
2.70261e-05
1.97577e-05
1.40364e-05
9.63251e-06
7.57317e-06
6.08758e-06
2.94759e-06
1.93227e-07
5.03408e-05
5.30733e-05
5.34395e-05
5.50225e-05
5.9818e-05
5.77744e-05
5.36616e-05
4.88993e-05
4.50429e-05
4.02517e-05
3.65745e-05
3.14461e-05
2.76198e-05
2.04783e-05
1.4817e-05
9.77683e-06
7.20244e-06
5.14515e-06
2.2234e-06
1.54909e-07
2.80221e-05
3.09183e-05
3.22756e-05
3.47493e-05
3.91478e-05
4.36877e-05
4.96423e-05
4.56351e-05
4.2653e-05
3.84281e-05
3.5671e-05
3.13215e-05
2.8342e-05
2.39314e-05
1.9366e-05
1.46113e-05
1.00113e-05
5.48636e-06
1.67806e-06
1.0797e-07
1.31023e-05
1.40453e-05
1.50225e-05
1.70682e-05
2.02315e-05
2.42799e-05
2.9542e-05
3.64293e-05
3.97674e-05
3.6157e-05
3.4028e-05
3.06159e-05
2.76753e-05
2.45074e-05
2.12667e-05
1.73743e-05
1.29759e-05
7.81236e-06
2.36974e-06
1.42162e-07
8.63818e-06
8.11653e-06
8.26387e-06
8.65916e-06
1.00779e-05
1.22212e-05
1.52226e-05
1.98434e-05
2.63237e-05
2.74886e-05
2.77831e-05
2.75938e-05
2.66703e-05
2.47318e-05
2.14465e-05
1.86195e-05
1.48279e-05
1.00131e-05
3.48561e-06
3.8065e-07
6.73716e-06
5.80496e-06
5.86935e-06
5.83201e-06
6.51328e-06
7.37349e-06
8.7596e-06
1.07495e-05
1.48389e-05
1.81964e-05
1.99861e-05
2.17347e-05
2.27535e-05
2.27863e-05
2.18409e-05
1.89566e-05
1.58302e-05
1.14933e-05
5.11276e-06
1.17785e-06
5.62048e-06
4.42679e-06
4.56443e-06
4.6069e-06
5.15436e-06
5.6445e-06
6.48877e-06
7.64117e-06
9.24726e-06
1.23727e-05
1.41518e-05
1.65278e-05
1.90598e-05
2.03547e-05
2.04617e-05
1.93542e-05
1.64124e-05
1.24341e-05
6.93309e-06
2.22635e-06
5.04237e-06
3.43524e-06
3.63733e-06
3.91549e-06
4.41439e-06
4.9945e-06
5.72911e-06
6.61094e-06
7.68805e-06
9.33973e-06
1.09286e-05
1.26839e-05
1.54317e-05
1.81295e-05
1.92558e-05
1.8899e-05
1.70965e-05
1.31893e-05
8.0307e-06
3.20784e-06
5.04752e-06
2.73346e-06
2.93272e-06
3.46335e-06
4.09242e-06
4.80646e-06
5.58389e-06
6.42168e-06
7.31369e-06
8.42241e-06
9.50516e-06
1.09531e-05
1.28389e-05
1.56649e-05
1.80425e-05
1.83941e-05
1.72084e-05
1.3948e-05
8.94569e-06
3.79912e-06
6.12006e-06
2.24187e-06
2.53626e-06
3.25427e-06
4.13387e-06
4.98463e-06
5.81939e-06
6.68656e-06
7.55676e-06
8.43129e-06
9.36996e-06
1.04306e-05
1.20458e-05
1.40905e-05
1.69978e-05
1.8378e-05
1.75188e-05
1.47192e-05
9.58523e-06
3.95299e-06
1.09719e-05
2.13802e-06
2.66029e-06
3.59591e-06
4.64415e-06
5.72277e-06
6.63752e-06
7.48913e-06
8.31078e-06
9.06846e-06
9.77654e-06
1.04657e-05
1.15071e-05
1.33026e-05
1.54677e-05
1.78815e-05
1.76245e-05
1.55205e-05
1.03484e-05
3.99022e-06
1.23421e-06
0.000116558
0.000294184
0.000330906
0.00033481
0.000335356
0.000335357
0.000335342
0.000335343
0.000335345
0.000335345
0.000335343
0.000335342
0.000335357
0.000335356
0.00033481
0.000330906
0.000294184
0.000116558
1.23421e-06
1.36973e-06
6.81669e-05
0.000219584
0.000309504
0.000330909
0.000334527
0.000335273
0.000335315
0.000335296
0.000335287
0.000335287
0.000335296
0.000335315
0.000335273
0.000334527
0.000330909
0.000309504
0.000219584
6.81671e-05
1.36973e-06
1.51338e-06
5.28962e-05
0.00017646
0.00028058
0.000322148
0.000332504
0.000334604
0.0003351
0.000335168
0.000335172
0.000335172
0.000335168