/*--------------------------------*- C++ -*----------------------------------*\
| =========                 |                                                 |
| \\      /  F ield         | OpenFOAM: The Open Source CFD Toolbox           |
|  \\    /   O peration     | Version:  2.1.0                                 |
|   \\  /    A nd           | Web:      www.OpenFOAM.org                      |
|    \\/     M anipulation  |                                                 |
\*---------------------------------------------------------------------------*/
FoamFile
{
    version     2.0;
    format      ascii;
    class       volScalarField;
    location    "0.44";
    object      omega;
}
// * * * * * * * * * * * * * * * * * * * * * * * * * * * * * * * * * * * * * //

dimensions      [0 0 -1 0 0 0 0];

internalField   nonuniform List<scalar> 
6400
(
1644.31
1645.25
1645.33
1645.19
1644.64
1644.38
1643.64
1643.29
1642.47
1642.06
1641.19
1640.7
1639.81
1639.22
1638.31
1637.62
1636.68
1635.89
1634.92
1634.03
1633.02
1632.05
1631
1629.95
1628.87
1627.76
1626.63
1625.46
1624.28
1623.05
1621.81
1620.51
1619.21
1617.84
1616.46
1615.01
1613.54
1612
1610.43
1608.78
1607.07
1605.25
1603.36
1601.33
1599.2
1596.9
1594.46
1591.83
1589.01
1585.97
1582.7
1579.19
1575.41
1571.28
1566.74
1561.73
1556.26
1550.68
1544.65
1538.46
1531.88
1525.11
1517.98
1510.62
1502.87
1494.85
1486.42
1477.66
1468.39
1458.64
1448.38
1437.52
1426.07
1413.95
1401.16
1387.66
1373.47
1358.58
1343.05
1326.92
1310.25
1293.05
1275.16
1255.98
1234.54
1212
1187.19
1159.35
1127.01
1087.91
1038.51
972.765
883.327
763.75
610.343
537.933
565.897
735.19
892.956
942.849
688.442
688.633
689.823
690.767
692.107
693.457
694.848
696.404
697.858
699.54
701.076
702.85
704.481
706.335
708.07
710
711.842
713.849
715.799
717.888
719.948
722.125
724.3
726.576
728.875
731.27
733.705
736.24
738.835
741.529
744.3
747.173
750.14
753.215
756.401
759.709
763.15
766.736
770.445
774.298
778.293
782.443
786.754
791.234
795.893
800.736
805.777
811.021
816.481
822.164
828.083
834.251
840.671
847.333
854.26
861.446
868.917
876.77
884.946
893.53
902.493
911.909
921.771
932.142
943.039
954.528
966.56
979.054
992.102
1005.88
1020.37
1035.65
1051.77
1068.8
1086.82
1105.89
1126.12
1147.6
1170.47
1194.87
1220.98
1249.07
1278.81
1309.25
1341.45
1374.27
1407.32
1439.33
1469.05
1494.83
1513.52
1522.09
1523.8
1509.47
1474.11
1394.84
1285.03
1150.76
1005.88
848.264
499.339
502.478
503.971
507.014
509.024
512.104
514.434
517.554
520.134
523.315
526.115
529.384
532.391
535.772
538.983
542.499
545.917
549.589
553.209
557.045
560.873
564.888
568.93
573.14
577.405
581.828
586.32
590.965
595.701
600.587
605.584
610.732
616.006
621.435
627.005
632.734
638.613
644.656
650.909
657.362
663.996
670.84
677.904
685.198
692.734
700.522
708.575
716.902
725.515
734.423
743.633
753.148
762.98
773.144
783.644
794.502
805.733
817.373
829.419
841.905
854.832
868.229
882.097
896.456
911.304
926.653
942.521
958.966
975.9
993.18
1010.83
1028.76
1046.93
1065.28
1083.77
1102.36
1121.01
1139.71
1158.46
1177.27
1196.16
1215.16
1234.29
1253.58
1273
1292.36
1311.48
1329.85
1346.79
1361.13
1368.98
1371.79
1365.24
1339
1290.33
1210.6
1102.12
960.933
797.333
628.081
450.045
455.014
457.212
461.596
464.376
468.733
471.929
476.288
479.822
484.229
488.061
492.557
496.665
501.288
505.661
510.442
515.076
520.044
524.944
530.128
535.302
540.723
546.179
551.856
557.599
563.542
569.576
575.797
582.128
588.64
595.28
602.099
609.062
616.206
623.506
630.992
638.646
646.492
654.499
662.689
671.088
679.676
688.446
697.4
706.532
715.839
725.314
734.951
744.74
754.674
764.741
774.933
785.237
795.647
806.145
816.731
827.389
838.118
848.902
859.734
870.598
881.486
892.376
903.259
914.106
924.898
935.63
946.319
956.913
967.41
977.77
987.984
997.994
1007.75
1017.22
1026.3
1034.96
1043.07
1050.54
1057.22
1062.97
1067.59
1070.61
1071.97
1072.28
1069.73
1064.84
1056.75
1045.25
1029.52
1009.01
982.706
949.38
907.252
854.317
788.853
712.187
629.195
552.931
496.633
438.824
444.891
447.525
452.785
456.085
461.296
465.069
470.256
474.405
479.613
484.08
489.349
494.099
499.462
504.469
509.952
515.198
520.82
526.297
532.075
537.774
543.717
549.627
555.739
561.852
568.131
574.439
580.889
587.38
593.99
600.646
607.402
614.204
621.091
628.021
635.019
642.054
649.141
656.254
663.403
670.563
677.743
684.925
692.113
699.285
706.445
713.569
720.662
727.701
734.688
741.602
748.446
755.198
761.862
768.407
774.834
781.165
787.345
793.361
799.173
804.767
810.092
815.131
819.832
824.171
828.096
831.575
834.559
837.002
838.859
839.916
840.363
840.416
839.224
837.496
834.618
830.979
826.171
820.426
813.469
805.428
796.127
785.637
773.923
761.032
746.864
731.65
715.211
697.723
678.978
658.973
637.329
613.918
588.012
558.976
527.688
495.212
465.35
444.208
432.563
429.69
435.678
438.246
443.391
446.55
451.613
455.167
460.14
463.984
468.891
472.959
477.825
482.07
486.916
491.302
496.141
500.64
505.479
510.065
514.905
519.556
524.396
529.092
533.924
538.643
543.458
548.181
552.982
557.751
562.572
567.352
572.159
576.914
581.669
586.359
591.025
595.609
600.141
604.574
608.928
613.161
617.287
621.258
625.1
628.754
632.25
635.525
638.607
641.439
644.04
646.356
648.403
650.129
651.544
652.601
653.315
653.677
653.804
653.612
652.882
651.852
650.298
648.371
645.928
643.07
639.706
635.906
631.617
626.889
621.695
616.074
610.051
603.672
596.913
589.874
582.5
574.907
567.038
559.051
550.894
542.653
534.341
526.038
517.749
509.533
501.371
493.173
484.957
476.78
468.531
460.205
451.66
442.849
433.608
424.057
414.686
406.896
403.173
402.13
402.109
400.918
405.743
407.788
411.886
414.316
418.323
420.985
424.868
427.678
431.433
434.336
437.97
440.924
444.443
447.415
450.82
453.78
457.068
459.99
463.154
466.011
469.044
471.816
474.685
477.323
479.999
482.468
484.951
487.264
489.545
491.636
493.651
495.455
497.147
498.608
499.924
500.991
501.886
502.515
502.882
503.031
503.048
502.643
502.103
501.191
500.106
498.671
497.044
495.087
492.93
490.467
487.808
484.872
481.755
478.418
474.938
471.211
467.374
463.346
459.237
455.014
450.742
446.418
442.084
437.741
433.409
429.196
425.054
421.083
417.24
413.613
410.151
406.9
403.843
401.021
398.405
396.026
393.831
391.892
390.123
388.614
387.268
386.15
385.168
384.367
383.656
383.064
382.507
381.998
381.473
380.962
380.456
380.14
380.02
380.505
381.773
384.284
388.878
392.575
393.637
354.813
358.244
359.655
362.428
363.934
366.555
368.07
370.486
371.959
374.145
375.529
377.48
378.739
380.446
381.549
383.002
383.92
385.106
385.813
386.72
387.19
387.764
388.032
388.199
388.242
388.141
387.815
387.384
386.644
385.797
384.645
383.384
381.83
380.17
378.237
376.215
373.944
371.596
369.03
366.404
363.605
360.761
357.774
354.784
351.686
348.621
345.491
342.428
339.341
336.354
333.386
330.524
327.758
325.148
322.671
320.361
318.227
316.291
314.565
313.065
311.804
310.789
310.036
309.598
309.407
309.372
309.718
310.229
311.066
312.077
313.391
314.877
316.642
318.575
320.762
323.109
325.683
328.404
331.313
334.371
337.602
340.951
344.436
348.001
351.658
355.353
359.091
362.818
366.548
370.243
373.928
377.604
381.339
385.182
389.364
394.142
399.751
406.734
412.293
414.559
295.4
296.514
296.922
297.607
297.92
298.354
298.535
298.667
298.688
298.624
298.324
298.056
297.477
296.978
296.134
295.391
294.293
293.302
291.962
290.728
289.162
287.698
285.93
284.27
282.363
280.541
278.519
276.579
274.478
272.474
270.35
268.339
266.249
264.286
262.286
260.421
258.558
256.841
255.168
253.648
252.212
250.936
249.778
248.79
247.946
247.284
246.786
246.527
246.42
246.415
246.782
247.235
247.99
248.837
249.962
251.202
252.703
254.334
256.213
258.235
260.492
262.903
265.539
268.339
271.357
274.554
277.952
281.527
285.306
289.266
293.435
297.792
302.366
307.136
312.13
317.331
322.765
328.417
334.314
340.436
346.809
353.418
360.281
367.382
374.732
382.313
390.125
398.139
406.348
414.719
423.24
431.887
440.667
449.59
458.739
468.339
479.062
490.704
502.381
508.15
237.973
236.755
236.216
235.087
234.368
233.172
232.304
231.041
230.058
228.737
227.662
226.308
225.169
223.805
222.631
221.282
220.106
218.796
217.65
216.409
215.324
214.18
213.188
212.168
211.299
210.426
209.705
209.003
208.453
207.942
207.585
207.294
207.154
207.098
207.104
207.322
207.577
208.027
208.535
209.226
209.996
210.929
211.956
213.135
214.418
215.845
217.384
219.062
220.855
222.785
224.842
227.027
229.34
231.77
234.333
237.011
239.827
242.759
245.833
249.026
252.365
255.829
259.444
263.191
267.096
271.143
275.353
279.719
284.259
288.968
293.864
298.946
304.23
309.72
315.431
321.37
327.553
333.991
340.702
347.698
355
362.627
370.601
378.945
387.688
396.859
406.492
416.624
427.307
438.588
450.533
463.213
476.72
491.156
506.64
523.255
541.007
559.497
574.202
580.763
260.523
259.962
259.659
259.015
258.494
257.729
257.005
256.099
255.188
254.134
253.055
251.856
250.641
249.313
247.982
246.561
245.14
243.658
242.178
240.669
239.164
237.662
236.171
234.71
233.272
231.887
230.539
229.265
228.044
226.915
225.855
224.903
224.037
223.291
222.647
222.138
221.745
221.525
221.429
221.415
221.647
221.95
222.454
223.052
223.836
224.73
225.799
226.987
228.344
229.827
231.471
233.246
235.179
237.245
239.475
241.831
244.336
246.975
249.76
252.683
255.751
258.964
262.322
265.831
269.49
273.306
277.277
281.413
285.714
290.191
294.843
299.683
304.712
309.944
315.385
321.047
326.937
333.07
339.453
346.105
353.034
360.264
367.805
375.682
383.911
392.52
401.528
410.969
420.868
431.26
442.183
453.694
465.882
478.82
492.651
507.512
523.506
540.275
554.033
560.26
319.947
321.601
322.244
323.416
323.99
324.968
325.438
326.185
326.536
327.012
327.213
327.321
327.332
327.178
326.839
326.443
325.792
325.133
324.19
323.262
322.043
320.851
319.374
317.932
316.22
314.546
312.638
310.756
308.671
306.625
304.402
302.233
299.916
297.668
295.304
293.022
290.655
288.394
286.084
283.898
281.703
279.658
277.667
275.839
274.105
272.544
271.113
269.871
268.786
267.906
267.208
266.737
266.507
266.428
266.551
266.963
267.506
268.321
269.286
270.511
271.897
273.529
275.33
277.365
279.574
282.01
284.619
287.43
290.411
293.583
296.923
300.448
304.133
308.003
312.032
316.245
320.612
325.159
329.856
334.727
339.723
344.871
350.133
355.527
361.019
366.624
372.308
378.084
383.929
389.849
395.841
401.91
408.059
414.469
421.266
428.871
437.595
447.868
458.75
464.47
370.676
374.102
375.525
378.314
379.871
382.528
384.129
386.611
388.207
390.5
392.076
394.181
395.698
397.594
399.001
400.677
401.929
403.369
404.427
405.61
406.443
407.347
407.925
408.53
408.83
409.038
409.1
409.048
408.72
408.323
407.659
406.911
405.906
404.811
403.471
402.041
400.311
398.455
396.329
394.079
391.59
388.989
386.184
383.291
380.231
377.109
373.876
370.607
367.279
363.95
360.611
357.31
354.041
350.839
347.701
344.698
341.824
339.118
336.559
334.202
332.027
330.079
328.344
326.858
325.603
324.601
323.822
323.299
323.041
322.949
323.021
323.437
323.939
324.729
325.593
326.694
327.855
329.204
330.591
332.115
333.722
335.455
337.253
339.158
341.115
343.181
345.293
347.511
349.786
352.187
354.692
357.39
360.293
363.484
366.935
371.029
376.159
382.771
387.628
389.416
408.055
412.832
414.86
418.899
421.319
425.247
427.898
431.687
434.477
438.123
441.038
444.604
447.607
451.095
454.146
457.557
460.622
463.95
466.996
470.231
473.23
476.357
479.279
482.282
485.099
487.953
490.641
493.319
495.837
498.313
500.623
502.863
504.925
506.89
508.662
510.309
511.823
513.197
514.386
515.396
516.18
516.733
516.999
517.09
516.944
516.428
515.705
514.634
513.32
511.675
509.768
507.548
505.062
502.285
499.252
495.957
492.428
488.684
484.763
480.673
476.434
472.024
467.499
462.875
458.177
453.433
448.666
443.968
439.315
434.785
430.371
426.138
422.068
418.209
414.488
410.995
407.658
404.553
401.6
398.858
396.204
393.745
391.348
389.099
386.874
384.768
382.653
380.608
378.528
376.5
374.448
372.492
370.602
369.152
368.134
367.754
368.594
372.351
375.481
376.373
424.615
430.407
432.895
437.86
440.937
445.818
449.292
454.095
457.865
462.621
466.628
471.367
475.565
480.309
484.664
489.427
493.912
498.702
503.295
508.115
512.794
517.642
522.388
527.26
532.055
536.942
541.769
546.66
551.504
556.39
561.234
566.098
570.915
575.73
580.486
585.215
589.926
594.608
599.244
603.827
608.335
612.761
617.088
621.305
625.389
629.326
633.104
636.697
640.098
643.279
646.231
648.926
651.352
653.484
655.308
656.798
657.939
658.639
658.955
659.027
658.525
657.809
656.587
655.04
652.981
650.531
647.573
644.19
640.309
635.993
631.197
625.972
620.292
614.224
607.821
601.07
593.997
586.662
579.021
571.169
563.049
554.781
546.277
537.649
528.802
519.767
510.491
500.979
491.048
480.657
469.864
458.501
446.585
434.027
421.552
408.837
398.129
391.532
388.703
387.436
426.232
431.905
434.373
439.28
442.382
447.24
450.793
455.636
459.551
464.42
468.637
473.571
478.055
483.091
487.827
492.99
497.963
503.273
508.473
513.945
519.363
525.005
530.636
536.453
542.287
548.281
554.311
560.479
566.694
573.033
579.424
585.924
592.48
599.133
605.843
612.64
619.496
626.424
633.403
640.443
647.526
654.654
661.816
669.009
676.223
683.453
690.685
697.908
705.107
712.288
719.434
726.538
733.589
740.576
747.49
754.317
761.057
767.682
774.192
780.547
786.73
792.778
798.603
804.219
809.553
814.6
819.295
823.619
827.511
830.948
833.871
836.242
838.007
838.922
839.278
839.21
837.766
835.858
832.646
828.659
823.327
816.943
809.094
799.927
789.125
776.779
762.709
746.756
728.962
709.042
686.93
662.181
634.506
603.377
569.606
532.72
495.611
460.594
435.418
418.777
434.586
439.136
441.16
445.19
447.761
451.762
454.713
458.707
461.961
465.992
469.514
473.621
477.387
481.605
485.608
489.968
494.203
498.73
503.201
507.918
512.631
517.56
522.526
527.687
532.918
538.331
543.837
549.516
555.304
561.261
567.34
573.588
579.975
586.536
593.252
600.151
607.222
614.488
621.926
629.557
637.371
645.381
653.577
661.966
670.537
679.33
688.341
697.589
707.085
716.763
726.648
736.713
746.96
757.374
767.947
778.661
789.515
800.477
811.552
822.709
833.956
845.272
856.656
868.098
879.587
891.111
902.647
914.178
925.665
937.075
948.483
959.802
971.06
982.193
993.203
1004.01
1014.56
1024.81
1034.63
1043.96
1052.61
1060.45
1067.24
1072.74
1076.09
1077.52
1077.67
1073.22
1065.93
1053.25
1035.4
1010.24
976.75
932.432
876.918
807.206
725.078
634.447
553.226
488.484
481.997
484.756
486.089
488.822
490.64
493.411
495.52
498.327
500.66
503.524
506.054
509
511.721
514.765
517.661
520.819
523.89
527.179
530.429
533.865
537.3
540.897
544.524
548.299
552.126
556.092
560.13
564.301
568.564
572.952
577.446
582.072
586.816
591.696
596.704
601.854
607.136
612.561
618.173
623.959
629.944
636.133
642.544
649.191
656.097
663.239
670.629
678.268
686.156
694.351
702.849
711.675
720.838
730.352
740.225
750.462
761.094
772.117
783.56
795.432
807.761
820.564
833.874
847.721
862.114
877.082
892.626
908.773
925.523
942.905
960.95
979.361
998.257
1017.54
1037.17
1057.08
1077.22
1097.52
1117.96
1138.5
1159.12
1179.81
1200.51
1221.32
1242.23
1263.19
1283.99
1304.1
1323
1339.36
1349.22
1352.97
1348.27
1320.94
1271.28
1196.05
1093.13
963.525
802.429
630.335
665.662
665.604
666.619
667.372
668.536
669.677
670.884
672.22
673.479
674.932
676.262
677.799
679.213
680.821
682.328
684.004
685.607
687.353
689.056
690.878
692.68
694.583
696.488
698.479
700.489
702.577
704.701
706.9
709.153
711.482
713.884
716.371
718.944
721.611
724.377
727.252
730.246
733.37
736.606
739.974
743.476
747.12
750.916
754.867
758.982
763.264
767.725
772.371
777.217
782.273
787.551
793.063
798.821
804.838
811.134
817.73
824.605
831.803
839.325
847.188
855.408
863.984
872.964
882.453
892.404
902.909
913.945
925.598
937.861
950.815
964.207
978.498
993.492
1009.42
1026.24
1044.09
1063
1083.08
1104.41
1127.11
1151.26
1177
1204.43
1233.77
1264.89
1296.66
1329.15
1360.76
1389.94
1414.36
1428.33
1433.47
1431.24
1414.93
1382.92
1321.8
1233.65
1122.39
997.858
848.982
1602.29
1602.96
1602.91
1602.45
1601.82
1601.3
1600.44
1599.9
1598.94
1598.34
1597.35
1596.69
1595.68
1594.94
1593.92
1593.09
1592.05
1591.13
1590.06
1589.05
1587.94
1586.84
1585.69
1584.52
1583.31
1582.07
1580.83
1579.54
1578.25
1576.92
1575.59
1574.21
1572.84
1571.41
1569.98
1568.51
1567.03
1565.5
1563.97
1562.39
1560.79
1559.15
1557.49
1555.78
1554.03
1552.2
1550.31
1548.32
1546.23
1544.01
1541.67
1539.18
1536.56
1533.77
1530.84
1527.77
1524.53
1521.02
1517.25
1513.04
1508.4
1503.09
1497.26
1491.24
1484.77
1478.13
1471.04
1463.73
1455.91
1447.76
1439.11
1430.01
1420.13
1409.74
1398.45
1386.45
1373.42
1359.46
1344.35
1328.13
1310.63
1291.88
1271.73
1250.21
1227.14
1202.22
1174.45
1141.72
1102.93
1055.98
995.744
916.372
815.758
705.102
584.552
535.354
556.107
721.944
886.825
939.963
865.884
324.725
176.602
119.703
95.2645
82.3308
76.1291
73.1615
72.1895
74.0342
80.9579
97.4681
118.895
156.235
207.12
271.566
348.997
444.065
560.317
610.187
693.161
329.168
219.14
154.332
121.758
104.136
92.9371
87.4675
85.5422
87.5397
99.6648
115.598
144.58
184.766
237.975
299.985
372.419
459.59
544.764
568.459
544.579
318.73
242.267
180.155
147.625
125.46
111.881
105.981
104.314
108.676
120.223
144.147
174.744
218.792
269.558
326.188
390.27
462.68
514.399
522.506
444.619
305.165
256.285
198.161
171.197
146.158
134.089
128.452
126.903
131.266
154.174
177.734
213.982
256.459
302.095
352.289
406.647
455.359
474.178
474.294
388.184
300.418
266.29
214.677
191.994
168.733
159.19
155.463
155.22
175.089
195.481
222.879
257.399
292.854
330.846
370.814
410.059
432.647
426.384
427.769
360.078
300.363
273.83
232.024
214.528
201.046
197.448
197.436
211.71
227.899
247.92
272.681
299.475
326.82
355.891
383.519
398.912
396.777
367.895
383.427
352.314
312.84
296.049
273.01
265.95
263.433
263.074
269.922
279.16
291.198
306.019
322.375
339.255
355.561
369.818
376.625
374.918
343.65
300.658
349.852
386.879
375.224
371.407
361.627
356.868
351.352
349.151
348.622
350.786
355.093
359.393
364.163
366.783
367.785
366.31
357.915
331.064
277.588
232.679
331.166
499.037
483.807
476.421
457.515
448.622
434.28
427.241
417.564
412.372
404.317
397.848
388.682
378.157
365.467
349.189
316.738
268.495
204.119
161.757
324.88
563.306
541.91
532.253
509.191
498.145
479.498
469.215
452.379
440.814
423.9
409.739
390.512
370.44
341.806
302.303
251.97
198.182
143.362
116.523
327.756
544.467
524.31
515.25
493.488
483.097
465.693
456.367
441.391
431.19
416.522
404.008
387.446
369.697
345.12
309.424
259.724
203.633
143.313
113.519
326.203
457.7
446.502
440.868
424.91
417.61
406.647
401.381
395.703
392.899
389.456
385.975
381.292
374.26
364.767
353.384
326.924
279.39
212.155
170.79
324.311
358.959
343.853
338.866
330.908
327.506
324.395
323.552
326.182
331.05
338.576
346.589
354.824
362.486
366.299
367.646
363.231
339.583
286.959
239.362
325.688
336.687
296.808
279.274
254.076
245.682
242.716
242.524
250.899
261.611
275.607
292.937
311.756
331.983
352.11
370.577
379.764
380.959
352.321
307.677
335.452
346.79
288.186
262.29
221.044
203.63
189.127
184.784
184.303
198.099
215.365
236.834
263.152
291.966
321.687
353.794
385.642
403.674
404.794
374.368
370.104
374.517
289.319
256.035
206.265
184.314
161.48
151.826
147.747
147.151
165.194
186.569
214.633
250.463
287.674
327.734
370.165
413.996
438.689
433.725
420.253
429.596
294.006
246.221
190.01
163.834
140.063
128.553
123.205
121.75
125.963
147.12
171.319
207.658
251.231
298.659
350.872
407.705
460.332
480.509
471.581
531.593
308.231
233.695
173.718
141.926
120.379
107.42
101.738
100.159
104.696
116.026
139.017
169.944
213.86
265.781
324.083
390.666
467.07
518.637
523.019
686.655
318.116
211.261
148.259
116.992
99.8603
89.5199
84.425
82.6387
84.6832
96.1607
112.082
140.582
180.778
234.249
297.357
371.266
461.093
548.514
570.825
863.377
313.521
170.699
115.74
92.0791
79.5921
73.2015
70.4964
69.7137
72.0755
78.7662
94.3853
116.015
152.743
203.767
268.899
347.709
444.764
563.131
613.214
646.053
32.1745
12.7362
11.3229
11.19
11.171
11.1705
11.1708
11.1706
11.1705
11.1705
11.1706
11.1708
11.1705
11.171
11.19
11.3229
12.7362
32.1744
646.054
672.74
55.0628
17.0386
12.087
11.3039
11.1803
11.1547
11.1529
11.1534
11.1536
11.1536
11.1534
11.1529
11.1547
11.1803
11.3039
12.087
17.0386
55.0627
672.74
698.453
71.0937
21.1542
13.3033
11.5874
11.2261
11.1552
11.1382
11.1358
11.1355
11.1355
11.1358
11.1382
11.1552
11.2261
11.5874
13.3033
21.1542
71.0936
698.453
723.136
85.8503
25.1369
14.6461
12.0431
11.3371
11.1684
11.1265
11.1183
11.1171
11.1171
11.1183
11.1265
11.1684
11.3371
12.0431
14.6461
25.1369
85.8502
723.136
746.743
101.867
29.2065
16.0658
12.5885
11.5234
11.2064
11.1273
11.105
11.1003
11.1003
11.105
11.1273
11.2064
11.5234
12.5884
16.0658
29.2065
101.867
746.743
769.31
118.432
33.3669
17.5406
13.1971
11.7624
11.283
11.1366
11.0944
11.0843
11.0843
11.0944
11.1366
11.283
11.7624
13.1971
17.5406
33.3669
118.433
769.31
790.729
134.968
37.5676
19.0511
13.8502
12.0431
11.3872
11.16
11.0918
11.0718
11.0718
11.0918
11.16
11.3872
12.0431
13.8502
19.0511
37.5677
134.968
790.729
810.982
151.251
41.7801
20.5852
14.5352
12.3571
11.5178
11.2031
11.0955
11.0625
11.0625
11.0955
11.2031
11.5178
12.3571
14.5352
20.5852
41.7802
151.251
810.982
829.955
167.079
45.9691
22.1303
15.2422
12.6968
11.6708
11.2604
11.1065
11.0594
11.0594
11.1065
11.2604
11.6708
12.6968
15.2422
22.1303
45.9692
167.079
829.955
847.653
182.401
50.1208
23.6797
15.9648
13.0568
11.8431
11.3324
11.129
11.0619
11.0619
11.129
11.3324
11.8431
13.0568
15.9648
23.6797
50.121
182.402
847.653
863.991
197.096
54.2105
25.2247
16.6968
13.4321
12.0315
11.4179
11.1609
11.0697
11.0698
11.1609
11.4179
12.0315
13.4321
16.6968
25.2248
54.2106
197.096
863.991
879.013
211.155
58.2321
26.7619
17.4347
13.8193
12.2335
11.5156
11.2021
11.0862
11.0862
11.2021
11.5156
12.2335
13.8193
17.4347
26.7619
58.2323
211.156
879.013
892.663
224.491
62.1651
28.2844
18.1745
14.2149
12.4467
11.6242
11.2528
11.1113
11.1113
11.2528
11.6242
12.4467
14.2149
18.1745
28.2845
62.1653
224.491
892.663
905.026
237.118
66.009
29.7908
18.9141
14.6169
12.6691
11.7427
11.3126
11.1446
11.1446
11.3126
11.7427
12.6691
14.6169
18.9141
29.7908
66.0092
237.119
905.026
916.068
248.971
69.7457
31.2753
19.6506
15.023
12.899
11.8698
11.381
11.1861
11.1861
11.381
11.8698
12.899
15.023
19.6506
31.2754
69.7459
248.971
916.067
925.904
260.089
73.3781
32.7379
20.383
15.4319
13.1352
12.0048
11.4576
11.2357
11.2357
11.4576
12.0048
13.1352
15.4319
20.383
32.738
73.3783
260.09
925.904
934.512
270.424
76.8906
34.1733
21.1088
15.8417
13.3762
12.1466
11.5418
11.293
11.293
11.5418
12.1466
13.3762
15.8418
21.1088
34.1734
76.8907
270.423
934.512
942.037
280.035
80.2892
35.5826
21.8276
16.2519
13.6211
12.2944
11.6331
11.3579
11.3579
11.6331
12.2944
13.6211
16.2519
21.8276
35.5826
80.2893
280.036
942.036
948.451
288.886
83.5602
36.9606
22.5374
16.6609
13.8691
12.4475
11.7309
11.4299
11.4299
11.7309
12.4475
13.8691
16.6609
22.5374
36.9607
83.5603
288.885
948.45
953.925
297.051
86.7123
38.3098
23.2383
17.0685
14.1194
12.6053
11.8348
11.5085
11.5085
11.8348
12.6053
14.1194
17.0685
23.2383
38.3097
86.7124
297.052
953.924
958.416
304.506
89.734
39.6248
23.9282
17.4734
14.3712
12.7671
11.9442
11.5934
11.5934
11.9442
12.7671
14.3712
17.4735
23.9283
39.625
89.7341
304.504
958.415
962.12
311.326
92.6356
40.9093
24.608
17.8757
14.6242
12.9325
12.0587
11.684
11.684
12.0587
12.9325
14.6242
17.8757
24.608
40.9093
92.6356
311.327
962.12
964.967
317.506
95.4074
42.1578
25.2754
18.2741
14.8776
13.1009
12.1777
11.78
11.78
12.1777
13.1009
14.8776
18.2742
25.2755
42.158
95.4077
317.504
964.966
967.18
323.102
98.0618
43.3751
25.9318
18.669
15.1313
13.2719
12.3009
11.8809
11.8809
12.3009
13.2719
15.1313
18.669
25.9318
43.375
98.0618
323.105
967.179
968.649
328.148
100.59
44.5553
26.5748
19.0592
15.3846
13.445
12.4277
11.9862
11.9862
12.4277
13.445
15.3846
19.0593
26.5749
44.5555
100.59
328.144
968.648
969.635
332.653
103.005
45.7045
27.2064
19.4453
15.6374
13.62
12.5579
12.0955
12.0955
12.5579
13.62
15.6374
19.4453
27.2064
45.7043
103.005
332.657
969.634
969.97
336.705
105.299
46.8159
27.8239
19.826
15.8892
13.7964
12.691
12.2085
12.2085
12.691
13.7964
15.8892
19.826
27.824
46.8163
105.3
336.701
969.969
969.834
340.242
107.488
47.8975
28.4297
20.2021
16.14
13.9741
12.8267
12.3248
12.3248
12.8267
13.9741
16.14
20.2021
28.4296
47.8973
107.488
340.245
969.833
969.425
343.403
109.561
48.9414
29.021
20.5725
16.3892
14.1525
12.9646
12.4441
12.4441
12.9646
14.1525
16.3892
20.5725
29.0211
48.9417
109.561
343.398
969.424
968.579
346.14
111.539
49.9569
29.6008
20.9379
16.637
14.3316
13.1045
12.5659
12.5659
13.1045
14.3316
16.637
20.9379
29.6007
49.9566
111.538
346.144
968.578
967.379
348.534
113.406
50.9352
30.1658
21.2973
16.8828
14.511
13.2461
12.69
12.69
13.2461
14.511
16.8828
21.2973
30.166
50.9356
113.406
348.528
967.378
965.891
350.552
115.188
51.8872
30.7196
21.6515
17.1267
14.6907
13.389
12.8161
12.8161
13.389
14.6907
17.1267
21.6515
30.7195
51.8867
115.187
350.556
965.89
964.155
352.265
116.864
52.8028
31.2587
21.9995
17.3684
14.8702
13.5331
12.944
12.944
13.5331
14.8702
17.3684
21.9995
31.2588
52.8033
116.865
352.259
964.155
962.205
353.658
118.465
53.6944
31.7868
22.3423
17.608
15.0495
13.6782
13.0733
13.0733
13.6782
15.0495
17.608
22.3423
31.7867
53.6938
118.463
353.662
962.203
960.073
354.766
119.965
54.5507
32.3005
22.6787
17.8451
15.2283
13.8239
13.2039
13.2039
13.8239
15.2283
17.8451
22.6787
32.3006
54.5511
119.966
354.761
960.073
957.789
355.615
121.399
55.3853
32.8039
23.0099
18.0798
15.4067
13.9702
13.3355
13.3355
13.9702
15.4067
18.0799
23.0099
32.8037
55.3846
121.397
355.618
957.788
955.381
356.175
122.736
56.186
33.293
23.3347
18.3118
15.5842
14.1168
13.468
13.468
14.1168
15.5842
18.3118
23.3346
33.293
56.1865
122.737
356.171
955.382
952.87
356.557
124.016
56.9676
33.7724
23.6544
18.5414
15.761
14.2636
13.6011
13.6011
14.2636
15.761
18.5415
23.6544
33.7723
56.9668
124.013
356.558
952.868
950.286
356.613
125.204
57.7167
34.238
23.9676
18.7681
15.9367
14.4103
13.7346
13.7346
14.4103
15.9366
18.768
23.9676
34.238
57.7173
125.206
356.611
950.287
947.635
356.52
126.342
58.4494
34.6947
24.2759
18.9922
16.1114
14.557
13.8684
13.8684
14.557
16.1114
18.9923
24.276
34.6946
58.4486
126.339
356.519
947.634
944.957
356.291
127.392
59.1511
35.1381
24.5779
19.2134
16.2848
14.7033
14.0024
14.0024
14.7033
16.2848
19.2133
24.5778
35.138
59.1517
127.395
356.29
944.959
942.244
355.82
128.406
59.8395
35.5733
24.8751
19.4319
16.4571
14.8493
14.1364
14.1364
14.8494
16.4572
19.432
24.8753
35.5733
59.8386
128.402
355.825
942.242
939.539
355.244
129.335
60.4986
35.9959
25.1662
19.6474
16.628
14.9948
14.2703
14.2703
14.9947
16.6279
19.6473
25.1659
35.9957
60.4994
129.339
355.236
939.541
936.821
354.505
130.251
61.149
36.4113
25.4527
19.8603
16.7975
15.1397
14.404
14.404
15.1398
16.7976
19.8605
25.453
36.4115
61.148
130.246
354.511
936.818
934.145
353.722
131.099
61.7743
36.8149
25.7334
20.0701
16.9655
15.2839
14.5373
14.5373
15.2838
16.9653
20.0699
25.7329
36.8145
61.7751
131.104
353.714
934.147
931.466
352.872
131.987
62.3994
37.2125
26.0097
20.2774
17.132
15.4273
14.6702
14.6703
15.4274
17.1322
20.2777
26.0102
37.213
62.3986
131.981
352.877
931.463
928.859
352.024
132.869
63.0126
37.5999
26.2805
20.4816
17.2969
15.5699
14.8026
14.8025
15.5698
17.2967
20.4813
26.2799
37.5991
63.0132
132.875
352.019
928.862
926.333
351.164
133.826
63.6387
37.9833
26.5474
20.6833
17.4603
15.7116
14.9344
14.9344
15.7117
17.4605
20.6837
26.5482
37.9843
63.6384
133.819
351.166
926.33
923.871
350.422
134.84
64.2638
38.3588
26.8093
20.882
17.622
15.8522
15.0654
15.0654
15.8521
17.6217
20.8816
26.8085
38.3576
64.264
134.846
350.42
923.875
921.484
349.753
135.976
64.912
38.7329
27.0679
21.0783
17.7821
15.9919
15.1958
15.1959
15.992
17.7824
21.0789
27.0689
38.7345
64.9124
135.97
349.755
921.481
919.155
349.293
137.189
65.565
39.1016
27.3221
21.2718
17.9404
16.1304
15.3253
15.3252
16.1303
17.9402
21.2712
27.321
39.0999
65.5645
137.196
349.292
919.158
916.897
348.942
138.533
66.246
39.4712
27.5738
21.4631
18.0973
16.2679
15.4541
15.4541
16.2681
18.0977
21.4638
27.5752
39.4735
66.2476
138.527
348.943
916.893
914.693
348.851
139.937
66.9331
39.8374
27.8218
21.6517
18.2523
16.4041
15.5817
15.5816
16.404
18.252
21.651
27.8203
39.8351
66.9318
139.944
348.853
914.696
912.56
348.916
141.463
67.6495
40.2064
28.0679
21.8384
18.4059
16.5394
15.7086
15.7087
16.5396
18.4064
21.8394
28.0699
40.2097
67.6526
141.459
348.918
912.554
910.479
349.098
143.022
68.3711
40.5735
28.3111
22.0226
18.5577
16.6731
15.8342
15.8342
16.6729
18.5573
22.0217
28.3093
40.5705
68.3689
143.029
349.101
910.482
908.471
349.471
144.676
69.1203
40.9447
28.5532
22.2052
18.7081
16.806
15.9592
15.9593
16.8063
18.7088
22.2066
28.5559
40.9493
69.1254
144.675
349.481
908.463
906.512
349.99
146.342
69.873
41.315
28.793
22.3855
18.8567
16.9373
16.0827
16.0826
16.937
18.8562
22.3844
28.7907
41.3113
69.8699
146.347
349.989
906.516
904.629
350.63
148.077
70.6511
41.6902
29.0321
22.5644
19.0041
17.0677
16.2056
16.2058
17.0682
19.0051
22.5663
29.0357
41.6964
70.659
148.081
350.645
904.62
902.794
351.376
149.806
71.4301
42.065
29.2695
22.7414
19.1497
17.1965
16.3268
16.3268
17.1962
19.1491
22.74
29.2669
42.0607
71.4265
149.811
351.379
902.796
901.035
352.209
151.58
72.2317
42.4452
29.5067
22.9171
19.2942
17.3245
16.4477
16.4479
17.3252
19.2956
22.9198
29.5117
42.4537
72.2436
151.592
352.231
901.021
899.321
353.116
153.335
73.0313
42.8251
29.7426
23.0911
19.437
17.4508
16.5666
16.5665
17.4504
19.4362
23.0895
29.7397
42.8206
73.028
153.339
353.127
899.319
897.684
354.081
155.115
73.8509
43.2104
29.9786
23.264
19.5787
17.5764
16.6853
16.6856
17.5774
19.5808
23.2679
29.9856
43.2223
73.8686
155.138
354.116
897.665
896.089
355.096
156.864
74.6654
43.5954
30.2137
23.4356
19.7188
17.7001
16.8017
16.8017
17.6998
19.7181
23.434
30.2106
43.5913
74.6643
156.873
355.121
896.082
894.571
356.143
158.624
75.4974
43.9856
30.4488
23.6061
19.858
17.8234
16.9184
16.9188
17.8249
19.861
23.6117
30.4589
44.0027
75.5237
158.662
356.199
894.542
893.092
357.219
160.343
76.3209
44.3755
30.6836
23.7754
19.9955
17.9447
17.0324
17.0324
17.9445
19.995
23.7741
30.681
44.3729
76.3253
160.362