/*--------------------------------*- C++ -*----------------------------------*\
| =========                 |                                                 |
| \\      /  F ield         | OpenFOAM: The Open Source CFD Toolbox           |
|  \\    /   O peration     | Version:  2.1.0                                 |
|   \\  /    A nd           | Web:      www.OpenFOAM.org                      |
|    \\/     M anipulation  |                                                 |
\*---------------------------------------------------------------------------*/
FoamFile
{
    version     2.0;
    format      ascii;
    class       volScalarField;
    location    "0.44";
    object      p;
}
// * * * * * * * * * * * * * * * * * * * * * * * * * * * * * * * * * * * * * //

dimensions      [1 -1 -2 0 0 0 0];

internalField   nonuniform List<scalar> 
6400
(
99998.3
99995.7
99993.8
99992.2
99990.7
99989.3
99988
99986.6
99985.2
99983.7
99982.2
99980.7
99979.1
99977.4
99975.6
99973.8
99971.9
99969.9
99967.9
99965.8
99963.6
99961.3
99958.9
99956.5
99954
99951.4
99948.7
99945.9
99943
99940.1
99937
99933.8
99930.6
99927.2
99923.8
99920.2
99916.5
99912.7
99908.8
99904.8
99900.6
99896.3
99891.9
99887.3
99882.6
99877.7
99872.7
99867.5
99862.1
99856.6
99850.9
99844.9
99838.8
99832.4
99825.9
99819.1
99812.1
99804.9
99797.4
99789.7
99781.7
99773.4
99764.9
99756
99746.9
99737.4
99727.6
99717.4
99706.9
99696
99684.6
99672.9
99660.6
99648
99634.8
99621.1
99606.9
99592
99576.6
99560.5
99543.7
99526.2
99507.7
99488.2
99467.5
99445.4
99421.5
99395.6
99367.2
99336.2
99302.6
99267.8
99233.7
99201.3
99168.8
99135.8
99078.8
98963.5
98592.3
96984
99996.7
99995
99993.3
99991.8
99990.3
99989
99987.6
99986.2
99984.8
99983.4
99981.8
99980.3
99978.6
99977
99975.2
99973.4
99971.5
99969.5
99967.4
99965.3
99963.1
99960.8
99958.5
99956
99953.5
99950.9
99948.2
99945.4
99942.5
99939.6
99936.5
99933.3
99930.1
99926.7
99923.2
99919.7
99916
99912.2
99908.3
99904.2
99900.1
99895.8
99891.3
99886.8
99882
99877.2
99872.1
99866.9
99861.6
99856
99850.3
99844.3
99838.2
99831.9
99825.3
99818.6
99811.6
99804.4
99796.9
99789.2
99781.2
99773
99764.5
99755.7
99746.5
99737.1
99727.3
99717.2
99706.6
99695.7
99684.4
99672.7
99660.5
99647.9
99634.8
99621.1
99606.9
99592.1
99576.7
99560.6
99543.9
99526.3
99507.8
99488.4
99467.7
99445.6
99421.8
99396
99367.8
99337
99303.8
99269.1
99234.9
99203
99175.5
99146.3
99094.8
98993.8
98692.9
98138.4
99995.2
99994.2
99992.8
99991.4
99990
99988.7
99987.4
99986
99984.6
99983.2
99981.7
99980.1
99978.5
99976.8
99975
99973.2
99971.3
99969.3
99967.3
99965.1
99962.9
99960.7
99958.3
99955.9
99953.3
99950.7
99948
99945.2
99942.3
99939.4
99936.3
99933.2
99929.9
99926.6
99923.1
99919.5
99915.9
99912.1
99908.2
99904.1
99900
99895.7
99891.3
99886.7
99882
99877.1
99872.1
99867
99861.6
99856.1
99850.4
99844.5
99838.4
99832.1
99825.6
99818.9
99812
99804.8
99797.4
99789.7
99781.8
99773.6
99765.1
99756.4
99747.3
99737.9
99728.2
99718.1
99707.7
99696.8
99685.6
99674
99661.9
99649.4
99636.4
99622.8
99608.7
99594.1
99578.8
99562.9
99546.2
99528.8
99510.5
99491.1
99470.5
99448.6
99424.9
99399.3
99371.6
99341.5
99309.4
99276.5
99244.7
99216.4
99193.1
99165.3
99129.7
99067.6
98911.2
99001.1
99993.2
99993.2
99992.3
99991.1
99989.9
99988.7
99987.4
99986
99984.7
99983.2
99981.7
99980.2
99978.6
99976.9
99975.1
99973.3
99971.4
99969.4
99967.4
99965.3
99963.1
99960.9
99958.5
99956.1
99953.6
99951
99948.3
99945.5
99942.7
99939.7
99936.7
99933.5
99930.3
99927
99923.5
99920
99916.3
99912.6
99908.7
99904.7
99900.5
99896.3
99891.9
99887.3
99882.7
99877.8
99872.9
99867.7
99862.4
99857
99851.3
99845.5
99839.5
99833.2
99826.8
99820.1
99813.2
99806.1
99798.7
99791.1
99783.2
99775.1
99766.7
99758
99748.9
99739.6
99729.9
99719.9
99709.5
99698.8
99687.6
99676
99664
99651.5
99638.4
99624.9
99610.8
99596.1
99580.8
99564.8
99548
99530.4
99511.9
99492.3
99471.6
99449.5
99425.7
99400.2
99372.8
99343.5
99313
99282.7
99254.7
99231.5
99214.5
99201.9
99196.4
99201
99227.5
99647.8
99991.1
99992.2
99991.9
99991
99990
99988.8
99987.6
99986.3
99985
99983.6
99982.1
99980.5
99978.9
99977.3
99975.5
99973.7
99971.9
99969.9
99967.9
99965.8
99963.6
99961.4
99959.1
99956.7
99954.2
99951.6
99949
99946.2
99943.4
99940.5
99937.4
99934.3
99931.1
99927.8
99924.4
99920.9
99917.2
99913.5
99909.6
99905.6
99901.5
99897.3
99892.9
99888.4
99883.8
99879
99874
99868.9
99863.6
99858.2
99852.5
99846.7
99840.7
99834.5
99828
99821.4
99814.5
99807.4
99800.1
99792.5
99784.6
99776.5
99768
99759.3
99750.3
99740.9
99731.3
99721.2
99710.8
99700
99688.8
99677.1
99665
99652.4
99639.3
99625.7
99611.5
99596.7
99581.2
99565
99548.1
99530.4
99511.7
99491.9
99471
99448.7
99425
99399.6
99372.7
99344.6
99316.1
99289.3
99266.5
99250.2
99244.4
99254.4
99291.4
99383.5
99581.7
100158
99989
99991.2
99991.5
99991
99990.2
99989.2
99988
99986.8
99985.5
99984.1
99982.6
99981.1
99979.5
99977.9
99976.1
99974.4
99972.5
99970.6
99968.6
99966.5
99964.3
99962.1
99959.8
99957.4
99954.9
99952.4
99949.7
99947
99944.2
99941.3
99938.3
99935.2
99932
99928.7
99925.2
99921.7
99918.1
99914.4
99910.5
99906.5
99902.4
99898.2
99893.8
99889.3
99884.6
99879.8
99874.9
99869.7
99864.4
99859
99853.3
99847.5
99841.5
99835.2
99828.8
99822.1
99815.2
99808
99800.7
99793
99785.2
99777
99768.5
99759.8
99750.8
99741.4
99731.7
99721.6
99711.1
99700.3
99689
99677.4
99665.2
99652.6
99639.4
99625.7
99611.4
99596.5
99581
99564.7
99547.6
99529.7
99510.8
99490.8
99469.7
99447.2
99423.5
99398.3
99372
99345.2
99318.9
99295.9
99278.7
99270.7
99279.2
99316.4
99402.9
99587.6
99922.3
100558
99987.1
99990.2
99991
99990.9
99990.3
99989.5
99988.4
99987.3
99986
99984.6
99983.2
99981.7
99980.1
99978.4
99976.7
99974.9
99973.1
99971.1
99969.1
99967
99964.9
99962.6
99960.3
99957.9
99955.5
99952.9
99950.3
99947.5
99944.7
99941.8
99938.8
99935.6
99932.4
99929.1
99925.7
99922.2
99918.5
99914.8
99910.9
99906.9
99902.8
99898.5
99894.1
99889.6
99884.9
99880.1
99875.1
99870
99864.6
99859.2
99853.5
99847.6
99841.6
99835.3
99828.9
99822.2
99815.2
99808.1
99800.7
99793.1
99785.2
99777
99768.6
99759.8
99750.8
99741.4
99731.7
99721.6
99711.1
99700.3
99689
99677.3
99665.2
99652.5
99639.3
99625.6
99611.2
99596.2
99580.6
99564.1
99546.9
99528.8
99509.7
99489.5
99468.1
99445.5
99421.7
99396.8
99371.1
99345.4
99321.3
99301.7
99289.9
99290.4
99314
99378.7
99514.7
99783.7
100216
100861
99985.5
99989.3
99990.6
99990.8
99990.4
99989.6
99988.7
99987.5
99986.3
99984.9
99983.5
99982
99980.4
99978.7
99977
99975.2
99973.3
99971.4
99969.4
99967.3
99965.1
99962.9
99960.5
99958.1
99955.7
99953.1
99950.4
99947.7
99944.8
99941.9
99938.9
99935.7
99932.5
99929.2
99925.7
99922.2
99918.5
99914.7
99910.8
99906.8
99902.7
99898.4
99894
99889.5
99884.8
99879.9
99874.9
99869.8
99864.5
99859
99853.3
99847.4
99841.4
99835.1
99828.7
99822
99815.1
99807.9
99800.6
99793
99785.1
99776.9
99768.5
99759.8
99750.7
99741.4
99731.6
99721.6
99711.1
99700.3
99689
99677.3
99665.2
99652.5
99639.2
99625.5
99611
99596
99580.2
99563.6
99546.2
99527.9
99508.6
99488.2
99466.6
99443.8
99419.9
99395.1
99369.9
99345.3
99323
99306
99298.7
99306.9
99343.9
99432.6
99611.4
99947.5
100442
101077
99984.5
99988.7
99990.2
99990.6
99990.3
99989.7
99988.7
99987.6
99986.3
99985
99983.5
99982
99980.4
99978.7
99977
99975.2
99973.3
99971.4
99969.3
99967.2
99965.1
99962.8
99960.5
99958.1
99955.6
99953
99950.3
99947.5
99944.7
99941.7
99938.7
99935.5
99932.3
99928.9
99925.5
99921.9
99918.2
99914.5
99910.6
99906.5
99902.4
99898.1
99893.7
99889.2
99884.5
99879.6
99874.7
99869.5
99864.2
99858.7
99853
99847.2
99841.2
99834.9
99828.5
99821.8
99814.9
99807.8
99800.4
99792.9
99785
99776.9
99768.5
99759.7
99750.7
99741.4
99731.7
99721.6
99711.2
99700.4
99689.1
99677.4
99665.2
99652.5
99639.3
99625.4
99611
99595.8
99579.9
99563.2
99545.7
99527.2
99507.6
99487
99465.2
99442.2
99418.1
99393.5
99368.6
99344.7
99323.6
99308.5
99304.2
99318.1
99364.6
99471
99680.4
100062
100592
101214
99983.9
99988.2
99989.9
99990.4
99990.2
99989.6
99988.7
99987.6
99986.3
99984.9
99983.5
99982
99980.4
99978.7
99976.9
99975.1
99973.2
99971.2
99969.2
99967.1
99964.9
99962.6
99960.3
99957.9
99955.4
99952.8
99950.1
99947.3
99944.5
99941.5
99938.5
99935.3
99932.1
99928.7
99925.3
99921.7
99918.1
99914.3
99910.4
99906.4
99902.2
99898
99893.6
99889
99884.3
99879.5
99874.5
99869.4
99864.1
99858.6
99853
99847.1
99841.1
99834.9
99828.4
99821.7
99814.8
99807.8
99800.4
99792.9
99785
99776.9
99768.5
99759.8
99750.8
99741.5
99731.9
99721.8
99711.4
99700.6
99689.4
99677.7
99665.5
99652.7
99639.5
99625.6
99611.1
99595.8
99579.9
99563.1
99545.3
99526.6
99506.9
99486.1
99464.1
99440.8
99416.4
99391.8
99367.1
99343.5
99323
99308.9
99306
99322.9
99374.8
99489.7
99714.6
100119
100666
101282
99983.8
99988.2
99990
99990.5
99990.3
99989.6
99988.7
99987.6
99986.4
99985
99983.6
99982
99980.4
99978.8
99977
99975.2
99973.3
99971.3
99969.3
99967.2
99965
99962.7
99960.4
99958
99955.5
99952.9
99950.2
99947.4
99944.6
99941.6
99938.6
99935.4
99932.2
99928.8
99925.4
99921.8
99918.2
99914.4
99910.5
99906.5
99902.3
99898
99893.6
99889.1
99884.4
99879.6
99874.6
99869.5
99864.2
99858.7
99853
99847.2
99841.2
99835
99828.6
99821.9
99815.1
99808
99800.7
99793.1
99785.2
99777.1
99768.8
99760.1
99751.1
99741.8
99732.1
99722.1
99711.7
99700.9
99689.7
99678
99665.8
99653.1
99639.8
99625.9
99611.3
99596
99580
99563.1
99545.2
99526.3
99506.4
99485.4
99463.1
99439.8
99415.5
99390.3
99365.4
99341.7
99321.3
99307.1
99304.1
99321
99373.1
99487.8
99712
100115
100662
101278
99984.1
99988.5
99990.2
99990.6
99990.3
99989.7
99988.8
99987.7
99986.4
99985.1
99983.6
99982.1
99980.5
99978.9
99977.1
99975.3
99973.4
99971.5
99969.5
99967.4
99965.2
99963
99960.6
99958.2
99955.7
99953.1
99950.5
99947.7
99944.8
99941.9
99938.9
99935.7
99932.5
99929.1
99925.7
99922.1
99918.4
99914.7
99910.8
99906.7
99902.6
99898.3
99893.9
99889.4
99884.7
99879.8
99874.9
99869.7
99864.4
99858.9
99853.3
99847.4
99841.4
99835.2
99828.8
99822.2
99815.4
99808.3
99800.9
99793.4
99785.5
99777.4
99769.1
99760.4
99751.4
99742.1
99732.5
99722.5
99712.1
99701.3
99690.1
99678.4
99666.2
99653.5
99640.2
99626.3
99611.6
99596.3
99580.1
99563.1
99545.1
99526.1
99505.9
99484.7
99462.2
99438.5
99413.8
99388.4
99363
99338.9
99317.9
99302.6
99297.9
99311.8
99358.7
99463.7
99670.7
100049
100578
101200
99985.1
99989.1
99990.5
99990.7
99990.3
99989.6
99988.7
99987.5
99986.3
99984.9
99983.5
99982
99980.4
99978.8
99977
99975.3
99973.4
99971.5
99969.5
99967.4
99965.2
99963
99960.7
99958.3
99955.8
99953.2
99950.6
99947.8
99945
99942.1
99939
99935.9
99932.7
99929.3
99925.9
99922.4
99918.7
99914.9
99911
99907
99902.9
99898.6
99894.2
99889.6
99885
99880.1
99875.1
99870
99864.7
99859.2
99853.6
99847.7
99841.7
99835.5
99829.1
99822.5
99815.6
99808.6
99801.2
99793.7
99785.8
99777.8
99769.4
99760.7
99751.8
99742.5
99732.9
99722.9
99712.5
99701.7
99690.5
99678.8
99666.7
99653.9
99640.6
99626.6
99612
99596.5
99580.3
99563.2
99545.1
99525.9
99505.6
99484.1
99461.3
99437.4
99412.3
99386.3
99360.3
99335.4
99313.3
99296.1
99288.1
99296.7
99333.6
99420.4
99595.3
99925.6
100417
101053
99986.6
99989.9
99990.9
99990.8
99990.2
99989.4
99988.4
99987.2
99985.9
99984.6
99983.1
99981.6
99980.1
99978.4
99976.7
99974.9
99973.1
99971.1
99969.2
99967.1
99964.9
99962.7
99960.4
99958
99955.5
99953
99950.3
99947.6
99944.8
99941.9
99938.9
99935.7
99932.5
99929.2
99925.8
99922.3
99918.6
99914.8
99911
99907
99902.8
99898.6
99894.2
99889.7
99885
99880.2
99875.2
99870.1
99864.8
99859.3
99853.7
99847.9
99841.9
99835.7
99829.3
99822.7
99815.8
99808.8
99801.5
99793.9
99786.1
99778
99769.7
99761
99752.1
99742.8
99733.2
99723.3
99712.9
99702.2
99691
99679.3
99667.1
99654.4
99641
99627.1
99612.4
99596.9
99580.6
99563.4
99545.2
99525.9
99505.5
99483.8
99460.8
99436.5
99411
99384.5
99357.7
99331.5
99307.8
99288.2
99276
99277.2
99300.6
99362.8
99494
99755.6
100182
100827
99988.5
99990.9
99991.2
99990.8
99990
99989
99987.9
99986.7
99985.4
99984
99982.6
99981
99979.5
99977.8
99976.1
99974.3
99972.5
99970.5
99968.5
99966.4
99964.3
99962.1
99959.8
99957.4
99954.9
99952.3
99949.7
99947
99944.2
99941.2
99938.2
99935.1
99931.9
99928.6
99925.2
99921.7
99918
99914.3
99910.4
99906.4
99902.3
99898.1
99893.7
99889.2
99884.6
99879.8
99874.8
99869.7
99864.5
99859
99853.4
99847.6
99841.7
99835.5
99829.1
99822.6
99815.8
99808.7
99801.5
99794
99786.2
99778.2
99769.8
99761.2
99752.3
99743.1
99733.5
99723.6
99713.3
99702.6
99691.4
99679.7
99667.6
99654.9
99641.6
99627.6
99612.9
99597.4
99581.1
99563.8
99545.5
99526.2
99505.6
99483.7
99460.5
99435.9
99410
99382.9
99355.1
99327.5
99301.8
99279.3
99262.7
99255.5
99263.8
99298.4
99379.6
99556.1
99882.7
100515
99990.7
99991.9
99991.6
99990.8
99989.8
99988.7
99987.5
99986.2
99984.9
99983.5
99982
99980.5
99978.9
99977.2
99975.5
99973.7
99971.8
99969.8
99967.8
99965.7
99963.6
99961.3
99959
99956.6
99954.1
99951.5
99948.9
99946.2
99943.3
99940.4
99937.4
99934.2
99931
99927.7
99924.3
99920.7
99917.1
99913.3
99909.4
99905.5
99901.3
99897.1
99892.7
99888.2
99883.6
99878.8
99873.9
99868.8
99863.5
99858.1
99852.5
99846.8
99840.8
99834.7
99828.3
99821.8
99815.1
99808.1
99800.8
99793.4
99785.7
99777.7
99769.4
99760.9
99752
99742.8
99733.3
99723.4
99713.2
99702.5
99691.4
99679.8
99667.7
99655
99641.7
99627.8
99613.1
99597.6
99581.3
99564
99545.7
99526.3
99505.6
99483.6
99460.2
99435.4
99409.1
99381.3
99352.6
99323.6
99295.6
99270.2
99249.2
99234.3
99228.2
99236
99267.7
99351.1
99539
100108
99992.8
99992.9
99992.1
99990.9
99989.7
99988.5
99987.2
99985.9
99984.6
99983.1
99981.6
99980.1
99978.5
99976.8
99975
99973.2
99971.3
99969.4
99967.4
99965.3
99963.1
99960.8
99958.5
99956
99953.5
99950.9
99948.3
99945.5
99942.6
99939.7
99936.6
99933.5
99930.2
99926.9
99923.4
99919.9
99916.2
99912.4
99908.5
99904.5
99900.4
99896.1
99891.7
99887.2
99882.5
99877.7
99872.7
99867.6
99862.3
99856.9
99851.3
99845.5
99839.5
99833.4
99827.1
99820.5
99813.7
99806.7
99799.5
99792
99784.3
99776.4
99768.1
99759.6
99750.7
99741.6
99732.1
99722.3
99712
99701.4
99690.4
99678.8
99666.8
99654.2
99641
99627.1
99612.5
99597.1
99580.8
99563.5
99545.2
99525.8
99505.1
99483.1
99459.6
99434.5
99407.9
99379.6
99350
99319.7
99289.6
99261.5
99236.7
99216.3
99198.7
99184
99173.6
99169.9
99184.5
99591.3
99994.8
99993.8
99992.5
99991.2
99989.8
99988.5
99987.2
99985.9
99984.5
99983.1
99981.6
99980
99978.4
99976.7
99974.9
99973.1
99971.2
99969.3
99967.2
99965.1
99962.9
99960.6
99958.3
99955.9
99953.3
99950.7
99948
99945.2
99942.3
99939.4
99936.3
99933.1
99929.9
99926.5
99923
99919.5
99915.8
99912
99908.1
99904
99899.9
99895.6
99891.1
99886.6
99881.9
99877
99872.1
99866.9
99861.6
99856.1
99850.5
99844.7
99838.6
99832.4
99826
99819.4
99812.6
99805.5
99798.3
99790.8
99783
99775
99766.7
99758.1
99749.2
99740
99730.5
99720.6
99710.4
99699.7
99688.6
99677
99664.9
99652.3
99639.1
99625.2
99610.5
99595.1
99578.8
99561.5
99543.2
99523.8
99503.1
99481
99457.5
99432.4
99405.5
99377
99346.8
99315.5
99283.9
99253.7
99226.4
99202.9
99178.4
99148.6
99108.4
99038.6
98869.8
98936.7
99996.3
99994.7
99993
99991.5
99990.1
99988.8
99987.5
99986.1
99984.7
99983.3
99981.8
99980.2
99978.6
99976.9
99975.2
99973.3
99971.4
99969.5
99967.4
99965.3
99963.1
99960.8
99958.5
99956.1
99953.5
99950.9
99948.2
99945.4
99942.5
99939.6
99936.5
99933.3
99930.1
99926.7
99923.2
99919.6
99915.9
99912.1
99908.2
99904.2
99900
99895.7
99891.3
99886.7
99882
99877.1
99872.1
99867
99861.7
99856.2
99850.5
99844.6
99838.6
99832.4
99825.9
99819.2
99812.4
99805.3
99798
99790.5
99782.7
99774.6
99766.2
99757.6
99748.7
99739.4
99729.8
99719.9
99709.6
99698.9
99687.7
99676
99663.9
99651.1
99637.8
99623.8
99609
99593.5
99577
99559.6
99541.1
99521.4
99500.5
99478.2
99454.4
99429
99401.8
99372.7
99341.9
99309.5
99276.6
99244.7
99215
99188.6
99164.1
99130.6
99074.6
98966.2
98652.9
98060.3
99998
99995.4
99993.5
99992
99990.5
99989.2
99987.9
99986.5
99985.1
99983.7
99982.2
99980.6
99979
99977.3
99975.6
99973.8
99971.9
99969.9
99967.9
99965.8
99963.6
99961.3
99959
99956.5
99954
99951.4
99948.7
99945.9
99943.1
99940.1
99937
99933.9
99930.6
99927.2
99923.8
99920.2
99916.5
99912.7
99908.8
99904.7
99900.6
99896.3
99891.9
99887.3
99882.6
99877.8
99872.8
99867.6
99862.3
99856.8
99851.1
99845.3
99839.3
99833
99826.6
99819.9
99813.1
99806
99798.7
99791.1
99783.3
99775.2
99766.8
99758.2
99749.3
99740
99730.4
99720.5
99710.1
99699.4
99688.2
99676.6
99664.4
99651.6
99638.3
99624.2
99609.5
99593.9
99577.4
99559.9
99541.4
99521.7
99500.7
99478.4
99454.5
99429
99401.7
99372.5
99341.5
99308.9
99276
99244.1
99214.3
99187.2
99152.6
99114.4
99054.2
98934.1
98552.3
96886.6
100564
101839
102382
102692
102903
103062
103187
103287
103369
103436
103491
103537
103573
103602
103625
103641
103652
103658
103659
103656
100518
101544
102178
102577
102844
103036
103181
103294
103384
103456
103514
103560
103597
103626
103647
103662
103671
103675
103674
103666
100805
101575
102120
102517
102804
103014
103173
103296
103392
103469
103529
103577
103614
103642
103662
103675
103683
103686
103684
103673
101082
101708
102170
102530
102808
103020
103183
103310
103410
103488
103550
103597
103633
103659
103678
103689
103695
103696
103693
103677
101318
101850
102254
102579
102839
103044
103206
103334
103434
103512
103573
103619
103653
103678
103694
103703
103706
103705
103701
103680
101517
101981
102344
102642
102885
103081
103238
103363
103461
103538
103597
103641
103674
103696
103709
103716
103717
103714
103707
103682
101679
102094
102427
102704
102933
103121
103272
103393
103489
103564
103621
103664
103694
103713
103723
103727
103726
103722
103711
103683
101800
102182
102495
102758
102976
103157
103303
103422
103516
103589
103645
103685
103713
103729
103737
103738
103735
103728
103714
103685
101881
102243
102543
102797
103010
103186
103330
103447
103539
103612
103666
103704
103730
103743
103748
103747
103742
103733
103716
103688
101925
102277
102572
102821
103031
103206
103349
103465
103556
103627
103680
103718
103742
103754
103757
103754
103748
103737
103717
103693
101923
102275
102570
102819
103029
103203
103347
103462
103554
103625
103679
103716
103740
103752
103756
103753
103747
103736
103718
103692
101870
102233
102533
102788
103001
103178
103323
103440
103533
103606
103661
103700
103726
103740
103746
103745
103740
103731
103716
103690
101781
102165
102479
102743
102963
103144
103292
103412
103507
103581
103638
103679
103708
103725
103734
103735
103733
103726
103713
103690
101652
102070
102405
102684
102915
103104
103257
103380
103478
103555
103613
103657
103688
103708
103720
103724
103724
103720
103709
103687
101484
101951
102316
102617
102863
103061
103220
103347
103448
103527
103588
103634
103667
103690
103705
103712
103714
103712
103705
103683
101279
101814
102221
102551
102814
103022
103187
103317
103419
103500
103562
103610
103646
103672
103689
103699
103703
103703
103698
103680
101037
101668
102134
102499
102780
102996
103162
103292
103395
103475
103538
103588
103625
103653
103673
103685
103692
103693
103690
103677
100756
101530
102081
102484
102775
102989
103151
103277
103376
103455
103517
103567
103605
103635
103656
103671
103679
103683
103681
103672
100462
101496
102138
102544
102816
103011
103159
103275
103367
103442
103502
103550
103589
103619
103641
103657
103667
103672
103671
103665
100506
101794
102344
102659
102875
103037
103165
103268
103352
103422
103479
103526
103564
103594
103618
103636
103648
103654
103656
103653
103498
103496
103495
103495
103494
103493
103493
103493
103492
103492
103492
103492
103493
103493
103493
103494
103495
103495
103496
103498
103495
103493
103493
103492
103492
103492
103492
103491
103491
103491
103491
103491
103491
103492
103492
103492
103492
103493
103493
103495
103495
103492
103492
103492
103492
103492
103492
103492
103492
103492
103492
103492
103492
103492
103492
103492
103492
103492
103492
103494
103494
103493
103493
103493
103493
103493
103493
103493
103493
103493
103493
103493
103493
103493
103493
103493
103493
103493
103493
103494
103494
103492
103492
103492
103492
103492
103492
103492
103492
103492
103492
103492
103492
103492
103492
103492
103492
103492
103492
103494
103494
103492
103492
103492
103491
103491
103491
103491
103491
103491
103491
103491
103491
103491
103491
103491
103492
103492
103492
103494
103493
103491
103491
103491
103491
103491
103491
103491
103491
103491
103491
103491
103491
103491
103491
103491
103491
103491
103491
103493
103492
103491
103490
103490
103490
103490
103490
103490
103490
103490
103490
103490
103490
103490
103490
103490
103490
103490
103491
103492
103492
103490
103490
103490
103490
103490
103489
103489
103489
103489
103489
103489
103489
103489
103490
103490
103490
103490
103490
103492
103491
103489
103489
103489
103489
103489
103489
103489
103489
103489
103489
103489
103489
103489
103489
103489
103489
103489
103489
103491
103490
103489
103488
103488
103488
103488
103488
103488
103488
103488
103488
103488
103488
103488
103488
103488
103488
103488
103489
103490
103490
103488
103488
103488
103488
103487
103487
103487
103487
103487
103487
103487
103487
103487
103487
103488
103488
103488
103488
103490
103489
103487
103487
103487
103487
103487
103487
103487
103487
103487
103487
103487
103487
103487
103487
103487
103487
103487
103487
103489
103488
103486
103486
103486
103486
103486
103486
103486
103486
103486
103486
103486
103486
103486
103486
103486
103486
103486
103486
103488
103487
103486
103486
103485
103485
103485
103485
103485
103485
103485
103485
103485
103485
103485
103485
103485
103485
103486
103486
103487
103486
103485
103485
103485
103485
103485
103484
103484
103484
103484
103484
103484
103484
103484
103485
103485
103485
103485
103485
103486
103486
103484
103484
103484
103484
103484
103484
103484
103484
103484
103484
103484
103484
103484
103484
103484
103484
103484
103484
103486
103485
103483
103483
103483
103483
103483
103483
103483
103483
103483
103483
103483
103483
103483
103483
103483
103483
103483
103483
103485
103484
103483
103482
103482
103482
103482
103482
103482
103482
103482
103482
103482
103482
103482
103482
103482
103482
103482
103483
103484
103483
103482
103482
103482
103482
103481
103481
103481
103481
103481
103481
103481
103481
103481
103481
103482
103482
103482
103482
103483
103482
103481
103481
103481
103481
103481
103481
103481
103481
103481
103481
103481
103481
103481
103481
103481
103481
103481
103481
103482
103481
103480
103480
103480
103480
103480
103480
103480
103480
103480
103480
103480
103480
103480
103480
103480
103480
103480
103480
103481
103481
103479
103479
103479
103479
103479
103479
103479
103479
103479
103479
103479
103479
103479
103479
103479
103479
103479
103479
103481
103480
103479
103478
103478
103478
103478
103478
103478
103478
103478
103478
103478
103478
103478
103478
103478
103478
103478
103479
103480
103479
103478
103478
103478
103478
103477
103477
103477
103477
103477
103477
103477
103477
103477
103477
103478
103478
103478
103478
103479
103478
103477
103477
103477
103477
103477
103477
103477
103477
103477
103477
103477
103477
103477
103477
103477
103477
103477
103477
103478
103477
103476
103476
103476
103476
103476
103476
103476
103476
103476
103476
103476
103476
103476
103476
103476
103476
103476
103476
103477
103476
103475
103475
103475
103475
103475
103475
103475
103475
103475
103475
103475
103475
103475
103475
103475
103475
103475
103475
103476
103476
103475
103474
103474
103474
103474
103474
103474
103474
103474
103474
103474
103474
103474
103474
103474
103474
103474
103475
103476
103475
103474
103474
103474
103474
103473
103473
103473
103473
103473
103473
103473
103473
103473
103473
103474
103474
103474
103474
103475
103474
103473
103473
103473
103473
103473
103473
103473
103473
103473
103473
103473
103473
103473
103473
103473
103473
103473
103473
103474
103473
103472
103472
103472
103472
103472
103472
103472
103472
103472
103472
103472
103472
103472
103472
103472
103472
103472
103472
103473
103472
103471
103471
103471
103471
103471
103471
103471
103471
103471
103471
103471
103471
103471
103471
103471
103471
103471
103471
103472
103471
103471
103470
103470
103470
103470
103470
103470
103470
103470
103470
103470
103470
103470
103470
103470
103470
103470
103471
103471
103471
103470
103470
103470
103470
103469
103469
103469
103469
103469
103469
103469
103469
103469
103469
103470
103470
103470
103470
103471
103470
103469
103469
103469
103469
103469
103469
103469
103469
103469
103469
103469
103469
103469
103469
103469
103469
103469
103469
103470
103469
103468
103468
103468
103468
103468
103468
103468
103468
103468
103468
103468
103468
103468
103468
103468
103468
103468
103468
103469
103468
103467
103467
103467
103467
103467
103467
103467
103467
103467
103467
103467
103467
103467
103467
103467
103467
103467
103467
103468
103467
103467
103467
103466
103466
103466
103466
103466
103466
103466
103466
103466
103466
103466
103466
103466
103466
103466
103467
103467
103466
103466
103466
103466
103466
103466
103466
103466
103466
103466
103466
103466
103466
103466
103466
103466
103466
103466
103466
103466
103466
103465
103465
103465
103465
103465
103465
103465
103465
103465
103465
103465
103465
103465
103465
103465
103465
103465
103465
103466
103465
103464
103464
103464
103464
103464
103464
103464
103464
103464
103464
103464
103464
103464
103464
103464
103464
103464
103464
103465
103464
103464
103463
103463
103463
103463
103463
103463
103463
103463
103463
103463
103463
103463
103463
103463
103463
103463
103464
103464
103463
103463
103463
103463
103463
103463
103463
103463
103463
103463
103463
103463
103463
103463
103463
103463
103463
103463
103463
103463
103462
103462
103462
103462
103462
103462
103462
103462
103462
103462
103462
103462
103462
103462
103462
103462
103462
103462
103462
103462
103462
103461
103461
103461
103461
103461
103461
103461
103461
103461
103461
103461
103461
103461
103461
103461
103461
103461
103461
103462
103461
103461
103460
103460
103460
103460
103460
103460
103460
103460
103460
103460
103460
103460
103460
103460
103460
103460
103461
103461
103460
103460
103460
103460
103460
103460
103460
103460
103460
103460
103460
103460
103460
103460
103460
103460
103460
103460
103460
103460
103459
103459
103459
103459
103459
103459
103459
103459
103459
103459
103459
103459
103459
103459
103459
103459
103459
103459
103459
103459
103459
103458
103458
103458
103458
103458
103458
103458
103458
103458
103458
103458
103458
103458
103458
103458
103458
103458
103458
103459
103458
103458
103458
103458
103458
103458
103457
103457
103457
103457
103457
103457
103457
103457
103458
103458
103458
103458
103458
103458
103457
103457
103457
103457
103457
103457
103457
103457
103457
103457
103457
103457
103457
103457
103457
103457
103457
103457
103457
103457
103456
103456
103456
103456
103456
103456
103456
103456
103456
103456
103456
103456
103456
103456
103456
103456
103456
103456
103456
103456
103456
103456
103455
103455
103455
103455
103455
103455
103455
103455
103455
103455
103455
103455
103455
103455
103455
103455
103456
103456
103455
103455
103455
103455
103455
103455
103455
103455
103455
103455
103455
103455
103455
103455
103455
103455
103455
103455
103455
103455
103454
103454
103454
103454
103454
103454
103454
103454
103454
103454
103454
103454
103454
103454
103454
103454
103454
103454
103454
103454
103454
103454
103453
103453
103453
103453
103453
103453
103453
103453
103453
103453
103453
103453
103453
103453
103453
103453
103454
103454
103453
103453
103453
103453
103453
103453
103453
103453
103453
103453
103453
103453
103453
103453
103453
103453
103453
103453
103453
103453
103452
103452
103452
103452
103452
103452
103452
103452
103452
103452
103452
103452
103452
103452
103452
103452
103452
103452
103452
103452
103452
103451
103451
103451
103451
103451
103451
103451
103451
103451
103451
103451
103451
103451
103451
103451
103451
103451
103451
103452
103451
103451
103451
103451
103451
103451
103451
103451
103451
103451
103451
103451
103451
103451
103451
103451
103451
103451
103451
103451
103450
103450
103450
103450
103450
103450
103450
103450
103450
103450
103450
103450
103450
103450
103450
103450
103450
103450
103450
103450
103450
103449
103449
103449
103449
103449
103449
103449
103449
103449
103449
103449
103449
103449
103449
103449
103449
103449
103449
103450
103449
103449
103449
103449
103449
103449
103449
103449
103449
103449
103449
103449
103449
103449
103449
103449
103449
103449
103449
103449
103448
103448
103448
103448
103448
103448
103448
103448
103448
103448
103448
103448
103448
103448
103448
103448
103448
103448
103448
103448
103447
103447
103447
103447
103447
103447
103447
103447
103447
103447
103447
103447
103447
103447
103447
103447
103447
103447
103448
103448
103447
103447
103447
103447
103447
103447
103447
103447
103447
103447
103447
103447
103447
103447
103447
103447
103447
103447
103447
103447
103446
103446
103446
103446
103446
103446
103446
103446
103446
103446
103446
103446
103446
103446
103446
103446
103446
103446
103446
103446
103445
103445
103445
103445
103445
103445
103445
103445
103445
103445
103445
103445
103445
103445
103445
103445
103446
103446
103446
103446
103445
103445
103445
103445
103445
103445
103445
103445
103445
103445
103445
103445
103445
103445
103445
103445
103445
103445
103445
103445
103444
103444
103444
103444
103444
103444
103444
103444
103444
103444
103444
103444
103444
103444
103444
103444
103444
103444
103444
103444
103443
103443
103443
103443
103443
103443
103443
103443
103443
103443
103443
103443
103444
103444
103444
103444
103444
103444
103444
103444
103443
103443
103443
103443
103443
103443
103443
103443
103443
103443
103443
103443
103443
103443
103443
103443
103443
103443
103443
103443
103442
103442
103442
103442
103442
103442
103442
103442
103442
103442
103442
103442
103442
103442
103442
103443
103443
103443
103443
103443
103441
103441
103441
103441
103441
103441
103441
103441
103441
103442
103442
103442
103442
103442
103442
103442
103442
103442
103442
103442
103440
103441
103440
103440
103441
103441
103441
103441
103441
103441
103441
103441
103441
103441
103441
103442
103442
103442
103442
103442
103440
103440
103440
103440
103440
103440
103440
103440
103440
103440
103440
103441
103441
103441
103441
103441
103441