/*--------------------------------*- C++ -*----------------------------------*\
| =========                 |                                                 |
| \\      /  F ield         | OpenFOAM: The Open Source CFD Toolbox           |
|  \\    /   O peration     | Version:  2.1.0                                 |
|   \\  /    A nd           | Web:      www.OpenFOAM.org                      |
|    \\/     M anipulation  |                                                 |
\*---------------------------------------------------------------------------*/
FoamFile
{
    version     2.0;
    format      ascii;
    class       surfaceScalarField;
    location    "0.44";
    object      phi;
}
// * * * * * * * * * * * * * * * * * * * * * * * * * * * * * * * * * * * * * //

dimensions      [0 3 -1 0 0 0 0];

internalField   nonuniform List<scalar> 
12460
(
-2.60285e-05
-3.76754e-09
-2.5991e-05
-3.9676e-08
-2.59304e-05
-6.26086e-08
-2.58581e-05
-7.42792e-08
-2.57789e-05
-8.1177e-08
-2.56949e-05
-8.58069e-08
-2.56076e-05
-8.91452e-08
-2.55176e-05
-9.17702e-08
-2.54253e-05
-9.39868e-08
-2.53309e-05
-9.59865e-08
-2.52346e-05
-9.78715e-08
-2.51365e-05
-9.97068e-08
-2.50364e-05
-1.01529e-07
-2.49345e-05
-1.03356e-07
-2.48307e-05
-1.05204e-07
-2.47249e-05
-1.07076e-07
-2.46172e-05
-1.08983e-07
-2.45075e-05
-1.10918e-07
-2.43958e-05
-1.12891e-07
-2.42821e-05
-1.14893e-07
-2.41662e-05
-1.16928e-07
-2.40483e-05
-1.18983e-07
-2.39282e-05
-1.21083e-07
-2.3806e-05
-1.23228e-07
-2.36815e-05
-1.25369e-07
-2.35548e-05
-1.27566e-07
-2.34258e-05
-1.29911e-07
-2.32942e-05
-1.32338e-07
-2.31602e-05
-1.34841e-07
-2.30235e-05
-1.37415e-07
-2.28841e-05
-1.40073e-07
-2.2742e-05
-1.42814e-07
-2.2597e-05
-1.45652e-07
-2.2449e-05
-1.4859e-07
-2.22979e-05
-1.51638e-07
-2.21437e-05
-1.54795e-07
-2.19861e-05
-1.58071e-07
-2.18251e-05
-1.61469e-07
-2.16606e-05
-1.65001e-07
-2.14923e-05
-1.6868e-07
-2.13202e-05
-1.72529e-07
-2.1144e-05
-1.76544e-07
-2.09637e-05
-1.80734e-07
-2.07789e-05
-1.85108e-07
-2.05895e-05
-1.8967e-07
-2.03954e-05
-1.9442e-07
-2.01963e-05
-1.99363e-07
-1.99921e-05
-2.0449e-07
-1.97825e-05
-2.0979e-07
-1.95675e-05
-2.15279e-07
-1.93468e-05
-2.20889e-07
-1.91204e-05
-2.26524e-07
-1.88881e-05
-2.32491e-07
-1.86493e-05
-2.38939e-07
-1.84038e-05
-2.45713e-07
-1.81512e-05
-2.5267e-07
-1.78919e-05
-2.59467e-07
-1.7626e-05
-2.66003e-07
-1.73536e-05
-2.72437e-07
-1.70748e-05
-2.78949e-07
-1.67892e-05
-2.85609e-07
-1.64969e-05
-2.92423e-07
-1.61975e-05
-2.99449e-07
-1.58908e-05
-3.06744e-07
-1.55765e-05
-3.14319e-07
-1.52543e-05
-3.22221e-07
-1.49239e-05
-3.30473e-07
-1.45848e-05
-3.39138e-07
-1.42365e-05
-3.4825e-07
-1.38787e-05
-3.57842e-07
-1.35108e-05
-3.67941e-07
-1.31322e-05
-3.78596e-07
-1.27423e-05
-3.89847e-07
-1.23405e-05
-4.0176e-07
-1.19261e-05
-4.14406e-07
-1.14982e-05
-4.27883e-07
-1.10559e-05
-4.42316e-07
-1.0598e-05
-4.57864e-07
-1.01232e-05
-4.74756e-07
-9.62982e-06
-4.93327e-07
-9.11579e-06
-5.13983e-07
-8.57852e-06
-5.37232e-07
-8.01473e-06
-5.63737e-07
-7.42044e-06
-5.94233e-07
-6.79108e-06
-6.29292e-07
-6.12188e-06
-6.69126e-07
-5.40845e-06
-7.13351e-07
-4.64804e-06
-7.60316e-07
-3.84196e-06
-8.0596e-07
-3.00031e-06
-8.41518e-07
-2.15098e-06
-8.4916e-07
-1.35698e-06
-7.93803e-07
-7.2162e-07
-6.3516e-07
-3.47246e-07
-3.74259e-07
-2.75198e-07
-7.23077e-08
-5.29856e-07
2.5407e-07
-1.42319e-06
8.92867e-07
-3.71689e-06
2.29366e-06
-9.28799e-06
5.57111e-06
1.54964e-05
-2.47844e-05
-3.13507e-05
-2.27543e-08
-3.13006e-05
-9.23395e-08
-3.12358e-05
-1.29958e-07
-3.1162e-05
-1.50518e-07
-3.10825e-05
-1.63124e-07
-3.0999e-05
-1.71639e-07
-3.09127e-05
-1.77791e-07
-3.08241e-05
-1.82619e-07
-3.07336e-05
-1.86696e-07
-3.06413e-05
-1.90366e-07
-3.05474e-05
-1.9383e-07
-3.0452e-05
-1.97198e-07
-3.03549e-05
-2.00549e-07
-3.02563e-05
-2.03911e-07
-3.0156e-05
-2.07323e-07
-3.00541e-05
-2.10784e-07
-2.99505e-05
-2.14319e-07
-2.98452e-05
-2.17916e-07
-2.97381e-05
-2.21593e-07
-2.96292e-05
-2.25332e-07
-2.95185e-05
-2.29144e-07
-2.9406e-05
-2.33e-07
-2.92916e-05
-2.36919e-07
-2.91753e-05
-2.40936e-07
-2.90571e-05
-2.44888e-07
-2.89371e-05
-2.48865e-07
-2.88151e-05
-2.53098e-07
-2.86912e-05
-2.57427e-07
-2.85653e-05
-2.61858e-07
-2.84374e-05
-2.66394e-07
-2.83075e-05
-2.71055e-07
-2.81755e-05
-2.75845e-07
-2.80413e-05
-2.80782e-07
-2.79049e-05
-2.85874e-07
-2.77663e-05
-2.91135e-07
-2.76254e-05
-2.96568e-07
-2.74821e-05
-3.02187e-07
-2.73363e-05
-3.08008e-07
-2.7188e-05
-3.1404e-07
-2.70371e-05
-3.20281e-07
-2.68835e-05
-3.26774e-07
-2.67271e-05
-3.33527e-07
-2.65679e-05
-3.40551e-07
-2.64057e-05
-3.4787e-07
-2.62404e-05
-3.55493e-07
-2.60718e-05
-3.63435e-07
-2.59e-05
-3.71709e-07
-2.57246e-05
-3.80326e-07
-2.55455e-05
-3.89283e-07
-2.53625e-05
-3.98609e-07
-2.51755e-05
-4.08257e-07
-2.49844e-05
-4.17982e-07
-2.47895e-05
-4.2774e-07
-2.45912e-05
-4.37596e-07
-2.43896e-05
-4.47564e-07
-2.41848e-05
-4.57686e-07
-2.39767e-05
-4.67884e-07
-2.37649e-05
-4.78003e-07
-2.35495e-05
-4.88058e-07
-2.33305e-05
-4.98209e-07
-2.31078e-05
-5.08548e-07
-2.28813e-05
-5.19115e-07
-2.26509e-05
-5.29952e-07
-2.24168e-05
-5.41099e-07
-2.21787e-05
-5.52589e-07
-2.19366e-05
-5.64473e-07
-2.16904e-05
-5.76798e-07
-2.14401e-05
-5.89633e-07
-2.11854e-05
-6.03048e-07
-2.09263e-05
-6.17123e-07
-2.06625e-05
-6.3193e-07
-2.03937e-05
-6.47576e-07
-2.01195e-05
-6.64157e-07
-1.98396e-05
-6.8182e-07
-1.95534e-05
-7.00732e-07
-1.92604e-05
-7.21093e-07
-1.89597e-05
-7.43158e-07
-1.86505e-05
-7.67221e-07
-1.83317e-05
-7.93667e-07
-1.80022e-05
-8.23035e-07
-1.76604e-05
-8.55937e-07
-1.73048e-05
-8.93064e-07
-1.69335e-05
-9.35259e-07
-1.65445e-05
-9.83441e-07
-1.61356e-05
-1.03834e-06
-1.57049e-05
-1.10015e-06
-1.52505e-05
-1.16801e-06
-1.47721e-05
-1.23903e-06
-1.42717e-05
-1.30672e-06
-1.37554e-05
-1.35826e-06
-1.32355e-05
-1.36961e-06
-1.27304e-05
-1.29969e-06
-1.22757e-05
-1.09086e-06
-1.19518e-05
-6.99407e-07
-1.20213e-05
-4.12426e-09
-1.25643e-05
7.96267e-07
-1.39407e-05
2.26887e-06
-1.66721e-05
5.02507e-06
-2.17984e-05
1.06974e-05
2.65668e-05
-3.28688e-05
-3.43296e-05
-4.94736e-08
-3.42865e-05
-1.38391e-07
-3.42316e-05
-1.87809e-07
-3.41692e-05
-2.15781e-07
-3.41021e-05
-2.33099e-07
-3.40318e-05
-2.44771e-07
-3.39592e-05
-2.53113e-07
-3.38849e-05
-2.59625e-07
-3.38092e-05
-2.65046e-07
-3.37322e-05
-2.69909e-07
-3.36541e-05
-2.74449e-07
-3.35749e-05
-2.78862e-07
-3.34947e-05
-2.83225e-07
-3.34133e-05
-2.87612e-07
-3.33309e-05
-2.9205e-07
-3.32474e-05
-2.96569e-07
-3.31627e-05
-3.01182e-07
-3.30768e-05
-3.059e-07
-3.29898e-05
-3.10733e-07
-3.29014e-05
-3.15687e-07
-3.28118e-05
-3.20768e-07
-3.27207e-05
-3.25961e-07
-3.26282e-05
-3.3129e-07
-3.25341e-05
-3.36812e-07
-3.24384e-05
-3.42383e-07
-3.23411e-05
-3.47903e-07
-3.22424e-05
-3.53449e-07
-3.21424e-05
-3.58996e-07
-3.20412e-05
-3.64613e-07
-3.19388e-05
-3.70328e-07
-3.18351e-05
-3.76165e-07
-3.17302e-05
-3.82135e-07
-3.16241e-05
-3.88252e-07
-3.15167e-05
-3.94526e-07
-3.14081e-05
-4.00966e-07
-3.12983e-05
-4.07576e-07
-3.11872e-05
-4.14362e-07
-3.1075e-05
-4.21342e-07
-3.09616e-05
-4.28538e-07
-3.08469e-05
-4.35914e-07
-3.07311e-05
-4.43515e-07
-3.06142e-05
-4.51351e-07
-3.04962e-05
-4.59423e-07
-3.03772e-05
-4.67752e-07
-3.02571e-05
-4.76342e-07
-3.01361e-05
-4.85202e-07
-3.00142e-05
-4.94339e-07
-2.98914e-05
-5.03761e-07
-2.97679e-05
-5.13456e-07
-2.96437e-05
-5.23403e-07
-2.9519e-05
-5.33544e-07
-2.93937e-05
-5.43802e-07
-2.9268e-05
-5.54032e-07
-2.9142e-05
-5.64079e-07
-2.9016e-05
-5.73979e-07
-2.88903e-05
-5.83856e-07
-2.87647e-05
-5.93879e-07
-2.86391e-05
-6.03972e-07
-2.85136e-05
-6.13984e-07
-2.83882e-05
-6.23953e-07
-2.82632e-05
-6.33921e-07
-2.81387e-05
-6.43927e-07
-2.8015e-05
-6.53988e-07
-2.78923e-05
-6.64104e-07
-2.77709e-05
-6.74292e-07
-2.76511e-05
-6.84569e-07
-2.75332e-05
-6.94959e-07
-2.74176e-05
-7.05487e-07
-2.73048e-05
-7.16198e-07
-2.7195e-05
-7.27157e-07
-2.70888e-05
-7.38437e-07
-2.69865e-05
-7.50144e-07
-2.68885e-05
-7.62372e-07
-2.67953e-05
-7.75297e-07
-2.67072e-05
-7.89132e-07
-2.66244e-05
-8.04135e-07
-2.65472e-05
-8.20656e-07
-2.64756e-05
-8.39098e-07
-2.64096e-05
-8.5996e-07
-2.6349e-05
-8.83959e-07
-2.62934e-05
-9.11902e-07
-2.62422e-05
-9.44618e-07
-2.61947e-05
-9.8306e-07
-2.61503e-05
-1.02819e-06
-2.61082e-05
-1.08076e-06
-2.60678e-05
-1.14098e-06
-2.60286e-05
-1.20762e-06
-2.5991e-05
-1.27695e-06
-2.59571e-05
-1.34104e-06
-2.59309e-05
-1.38495e-06
-2.59183e-05
-1.38253e-06
-2.59273e-05
-1.29115e-06
-2.59695e-05
-1.049e-06
-2.60891e-05
-5.79998e-07
-2.62751e-05
1.81694e-07
-2.67892e-05
1.31031e-06
-2.78195e-05
3.29918e-06
-2.97492e-05
6.9547e-06
-3.33007e-05
1.42489e-05
3.11953e-05
-3.79292e-05
-3.7018e-05
-7.5965e-08
-3.69872e-05
-1.72538e-07
-3.69493e-05
-2.29149e-07
-3.69059e-05
-2.62577e-07
-3.68589e-05
-2.83486e-07
-3.68095e-05
-2.97431e-07
-3.67587e-05
-3.07232e-07
-3.67068e-05
-3.14737e-07
-3.66542e-05
-3.20843e-07
-3.6601e-05
-3.26228e-07
-3.65473e-05
-3.31164e-07
-3.64933e-05
-3.35915e-07
-3.64389e-05
-3.40556e-07
-3.63842e-05
-3.45198e-07
-3.63293e-05
-3.49856e-07
-3.62741e-05
-3.54584e-07
-3.62186e-05
-3.59382e-07
-3.61629e-05
-3.64275e-07
-3.6107e-05
-3.69265e-07
-3.6051e-05
-3.74367e-07
-3.59947e-05
-3.79588e-07
-3.59382e-05
-3.84898e-07
-3.58816e-05
-3.90332e-07
-3.58249e-05
-3.95848e-07
-3.57682e-05
-4.01472e-07
-3.57112e-05
-4.07184e-07
-3.5654e-05
-4.12818e-07
-3.55968e-05
-4.18391e-07
-3.55395e-05
-4.23974e-07
-3.54823e-05
-4.29607e-07
-3.54251e-05
-4.35311e-07
-3.53681e-05
-4.41097e-07
-3.53113e-05
-4.46972e-07
-3.52547e-05
-4.52941e-07
-3.51984e-05
-4.59007e-07
-3.51426e-05
-4.65167e-07
-3.50872e-05
-4.71414e-07
-3.50324e-05
-4.77749e-07
-3.49783e-05
-4.84192e-07
-3.4925e-05
-4.90723e-07
-3.48726e-05
-4.97355e-07
-3.48213e-05
-5.04073e-07
-3.47712e-05
-5.1087e-07
-3.47225e-05
-5.17749e-07
-3.46754e-05
-5.24697e-07
-3.46301e-05
-5.317e-07
-3.45868e-05
-5.38745e-07
-3.45459e-05
-5.45812e-07
-3.45075e-05
-5.52871e-07
-3.4472e-05
-5.59867e-07
-3.44398e-05
-5.66712e-07
-3.4411e-05
-5.735e-07
-3.43855e-05
-5.80407e-07
-3.43631e-05
-5.87279e-07
-3.43439e-05
-5.93947e-07
-3.43281e-05
-6.00449e-07
-3.43158e-05
-6.06858e-07
-3.43073e-05
-6.13102e-07
-3.43029e-05
-6.1904e-07
-3.43028e-05
-6.24658e-07
-3.43073e-05
-6.29949e-07
-3.43169e-05
-6.34918e-07
-3.43318e-05
-6.39598e-07
-3.43524e-05
-6.44001e-07
-3.4379e-05
-6.48138e-07
-3.44119e-05
-6.52027e-07
-3.44516e-05
-6.55698e-07
-3.44983e-05
-6.59193e-07
-3.45523e-05
-6.62581e-07
-3.46138e-05
-6.65957e-07
-3.46832e-05
-6.69434e-07
-3.47605e-05
-6.73184e-07
-3.48457e-05
-6.77401e-07
-3.4939e-05
-6.82344e-07
-3.50401e-05
-6.88341e-07
-3.51487e-05
-6.95792e-07
-3.52644e-05
-7.05197e-07
-3.53866e-05
-7.1714e-07
-3.55145e-05
-7.3222e-07
-3.56473e-05
-7.51339e-07
-3.57839e-05
-7.75485e-07
-3.59232e-05
-8.05538e-07
-3.60639e-05
-8.42481e-07
-3.62051e-05
-8.87219e-07
-3.63456e-05
-9.40348e-07
-3.6485e-05
-1.00175e-06
-3.66229e-05
-1.06976e-06
-3.67601e-05
-1.13989e-06
-3.68979e-05
-1.20332e-06
-3.70385e-05
-1.24444e-06
-3.71838e-05
-1.23731e-06
-3.7333e-05
-1.14194e-06
-3.74858e-05
-8.96224e-07
-3.76399e-05
-4.25906e-07
-3.78024e-05
3.44169e-07
-3.81049e-05
1.61285e-06
-3.86673e-05
3.86152e-06
-3.96617e-05
7.94909e-06
-4.1272e-05
1.58592e-05
3.12597e-05
-4.13364e-05
-3.9725e-05
-9.55177e-08
-3.97118e-05
-1.89562e-07
-3.96974e-05
-2.47446e-07
-3.96809e-05
-2.82888e-07
-3.9663e-05
-3.05306e-07
-3.96443e-05
-3.19979e-07
-3.96253e-05
-3.30092e-07
-3.96062e-05
-3.37531e-07
-3.95874e-05
-3.43395e-07
-3.9569e-05
-3.48353e-07
-3.9551e-05
-3.52777e-07
-3.95337e-05
-3.56905e-07
-3.95169e-05
-3.60864e-07
-3.95009e-05
-3.64739e-07
-3.94857e-05
-3.68575e-07
-3.94713e-05
-3.72399e-07
-3.94579e-05
-3.76227e-07
-3.94454e-05
-3.80064e-07
-3.94341e-05
-3.83915e-07
-3.94239e-05
-3.87785e-07
-3.94151e-05
-3.91687e-07
-3.94076e-05
-3.95547e-07
-3.94017e-05
-3.99384e-07
-3.93974e-05
-4.03177e-07
-3.93949e-05
-4.06965e-07
-3.93942e-05
-4.10915e-07
-3.9395e-05
-4.14952e-07
-3.93973e-05
-4.18937e-07
-3.94013e-05
-4.22873e-07
-3.94069e-05
-4.26781e-07
-3.94143e-05
-4.30672e-07
-3.94236e-05
-4.34552e-07
-3.94348e-05
-4.38425e-07
-3.9448e-05
-4.42289e-07
-3.94635e-05
-4.46141e-07
-3.94812e-05
-4.49969e-07
-3.95013e-05
-4.5377e-07
-3.95239e-05
-4.57542e-07
-3.95492e-05
-4.61274e-07
-3.95772e-05
-4.64966e-07
-3.96082e-05
-4.68629e-07
-3.96422e-05
-4.72233e-07
-3.96795e-05
-4.75774e-07
-3.972e-05
-4.79253e-07
-3.97641e-05
-4.8266e-07
-3.98118e-05
-4.85982e-07
-3.98632e-05
-4.89211e-07
-3.99185e-05
-4.92336e-07
-3.99778e-05
-4.95339e-07
-4.00412e-05
-4.98193e-07
-4.01087e-05
-5.0087e-07
-4.01804e-05
-5.03421e-07
-4.02564e-05
-5.05941e-07
-4.03368e-05
-5.08337e-07
-4.04217e-05
-5.10509e-07
-4.0511e-05
-5.12462e-07
-4.06049e-05
-5.14242e-07
-4.07034e-05
-5.15805e-07
-4.08066e-05
-5.17036e-07
-4.09144e-05
-5.17913e-07
-4.1027e-05
-5.18453e-07
-4.11441e-05
-5.18701e-07
-4.1266e-05
-5.18701e-07
-4.13923e-05
-5.18492e-07
-4.15231e-05
-5.18121e-07
-4.16583e-05
-5.17627e-07
-4.17976e-05
-5.17066e-07
-4.19409e-05
-5.16503e-07
-4.2088e-05
-5.16025e-07
-4.22388e-05
-5.15744e-07
-4.23929e-05
-5.15795e-07
-4.25502e-05
-5.1635e-07
-4.27104e-05
-5.17619e-07
-4.28732e-05
-5.19871e-07
-4.30384e-05
-5.23437e-07
-4.32058e-05
-5.28719e-07
-4.3375e-05
-5.36201e-07
-4.35459e-05
-5.46553e-07
-4.3718e-05
-5.60243e-07
-4.38913e-05
-5.78209e-07
-4.40654e-05
-6.01571e-07
-4.424e-05
-6.31075e-07
-4.44149e-05
-6.67663e-07
-4.459e-05
-7.12153e-07
-4.47655e-05
-7.64988e-07
-4.49413e-05
-8.25936e-07
-4.51179e-05
-8.93267e-07
-4.52955e-05
-9.62347e-07
-4.54745e-05
-1.02434e-06
-4.56545e-05
-1.06445e-06
-4.58329e-05
-1.05888e-06
-4.60028e-05
-9.72099e-07
-4.61491e-05
-7.49891e-07
-4.62522e-05
-3.22775e-07
-4.63161e-05
4.08026e-07
-4.63787e-05
1.67542e-06
-4.6456e-05
3.93888e-06
-4.65479e-05
8.041e-06
-4.63302e-05
1.56415e-05
2.84343e-05
-4.35048e-05
-4.25855e-05
-1.01449e-07
-4.25945e-05
-1.84683e-07
-4.2609e-05
-2.37188e-07
-4.26262e-05
-2.70048e-07
-4.26449e-05
-2.90838e-07
-4.2665e-05
-3.04097e-07
-4.26865e-05
-3.12895e-07
-4.27093e-05
-3.18957e-07
-4.27334e-05
-3.2342e-07
-4.27591e-05
-3.26894e-07
-4.27862e-05
-3.29788e-07
-4.28149e-05
-3.32304e-07
-4.28453e-05
-3.34597e-07
-4.28774e-05
-3.36727e-07
-4.29112e-05
-3.38757e-07
-4.2947e-05
-3.40697e-07
-4.29846e-05
-3.42573e-07
-4.30243e-05
-3.44376e-07
-4.30661e-05
-3.46118e-07
-4.311e-05
-3.47793e-07
-4.31562e-05
-3.49459e-07
-4.32047e-05
-3.50989e-07
-4.32556e-05
-3.52363e-07
-4.33089e-05
-3.53711e-07
-4.33646e-05
-3.55056e-07
-4.34229e-05
-3.56458e-07
-4.34838e-05
-3.57875e-07
-4.35472e-05
-3.59221e-07
-4.36134e-05
-3.60485e-07
-4.36822e-05
-3.61674e-07
-4.37538e-05
-3.62801e-07
-4.38281e-05
-3.6387e-07
-4.39053e-05
-3.64894e-07
-4.39853e-05
-3.65871e-07
-4.40683e-05
-3.66807e-07
-4.41541e-05
-3.67692e-07
-4.42429e-05
-3.68533e-07
-4.43346e-05
-3.69336e-07
-4.44293e-05
-3.70096e-07
-4.45269e-05
-3.70801e-07
-4.46275e-05
-3.71483e-07
-4.4731e-05
-3.72133e-07
-4.48374e-05
-3.72749e-07
-4.49466e-05
-3.73339e-07
-4.50587e-05
-3.73905e-07
-4.51735e-05
-3.74443e-07
-4.52909e-05
-3.7495e-07
-4.5411e-05
-3.75426e-07
-4.55336e-05
-3.75867e-07
-4.56586e-05
-3.7625e-07
-4.57859e-05
-3.76575e-07
-4.59154e-05
-3.7687e-07
-4.6047e-05
-3.77191e-07
-4.61807e-05
-3.77476e-07
-4.63163e-05
-3.77682e-07
-4.64536e-05
-3.77816e-07
-4.65925e-05
-3.77923e-07
-4.67329e-05
-3.77959e-07
-4.68746e-05
-3.77787e-07
-4.70175e-05
-3.77352e-07
-4.71616e-05
-3.76673e-07
-4.73067e-05
-3.75802e-07
-4.74528e-05
-3.74771e-07
-4.75997e-05
-3.73609e-07
-4.77474e-05
-3.72366e-07
-4.78958e-05
-3.71048e-07
-4.80449e-05
-3.69706e-07
-4.81947e-05
-3.68395e-07
-4.83451e-05
-3.67183e-07
-4.84962e-05
-3.66167e-07
-4.86479e-05
-3.65472e-07
-4.88003e-05
-3.65251e-07
-4.89534e-05
-3.65698e-07
-4.91074e-05
-3.67073e-07
-4.92621e-05
-3.69711e-07
-4.94178e-05
-3.74013e-07
-4.95745e-05
-3.80449e-07
-4.97322e-05
-3.89673e-07
-4.9891e-05
-4.02193e-07
-5.00511e-05
-4.1875e-07
-5.0213e-05
-4.40328e-07
-5.03768e-05
-4.67781e-07
-5.05429e-05
-5.02096e-07
-5.07114e-05
-5.44048e-07
-5.08828e-05
-5.93994e-07
-5.10574e-05
-6.51696e-07
-5.12352e-05
-7.15686e-07
-5.14162e-05
-7.81597e-07
-5.15997e-05
-8.41091e-07
-5.17832e-05
-8.81098e-07
-5.1961e-05
-8.81195e-07
-5.21217e-05
-8.11548e-07
-5.22412e-05
-6.30486e-07
-5.22914e-05
-2.72553e-07
-5.22549e-05
3.71444e-07
-5.21016e-05
1.52214e-06
-5.17512e-05
3.58844e-06
-5.10333e-05
7.32306e-06
-4.93316e-05
1.39397e-05
2.38431e-05
-4.47404e-05
-4.55347e-05
-9.20074e-08
-4.55675e-05
-1.56124e-07
-4.56113e-05
-1.97764e-07
-4.56615e-05
-2.24252e-07
-4.5716e-05
-2.40792e-07
-4.57735e-05
-2.50909e-07
-4.58336e-05
-2.57172e-07
-4.5896e-05
-2.61004e-07
-4.59603e-05
-2.63402e-07
-4.60267e-05
-2.64897e-07
-4.60949e-05
-2.65847e-07
-4.61651e-05
-2.66435e-07
-4.62372e-05
-2.66805e-07
-4.63112e-05
-2.67011e-07
-4.63872e-05
-2.67119e-07
-4.64651e-05
-2.67137e-07
-4.65449e-05
-2.67098e-07
-4.66266e-05
-2.66995e-07
-4.67102e-05
-2.66847e-07
-4.67957e-05
-2.66647e-07
-4.68831e-05
-2.66459e-07
-4.69724e-05
-2.66177e-07
-4.70635e-05
-2.65694e-07
-4.71566e-05
-2.65042e-07
-4.72518e-05
-2.64314e-07
-4.73491e-05
-2.63581e-07
-4.74486e-05
-2.62846e-07
-4.75502e-05
-2.62071e-07
-4.76539e-05
-2.61251e-07
-4.77597e-05
-2.6039e-07
-4.78674e-05
-2.59514e-07
-4.79772e-05
-2.58625e-07
-4.80888e-05
-2.57757e-07
-4.82023e-05
-2.56907e-07
-4.83176e-05
-2.56098e-07
-4.84345e-05
-2.55317e-07
-4.8553e-05
-2.54589e-07
-4.8673e-05
-2.53905e-07
-4.87945e-05
-2.53293e-07
-4.89172e-05
-2.52741e-07
-4.9041e-05
-2.52271e-07
-4.9166e-05
-2.51881e-07
-4.92918e-05
-2.51575e-07
-4.94185e-05
-2.51354e-07
-4.9546e-05
-2.51224e-07
-4.9674e-05
-2.51176e-07
-4.98026e-05
-2.51202e-07
-4.99315e-05
-2.51291e-07
-5.00608e-05
-2.51459e-07
-5.01902e-05
-2.51654e-07
-5.03198e-05
-2.51895e-07
-5.04494e-05
-2.52168e-07
-5.0579e-05
-2.52515e-07
-5.07085e-05
-2.52875e-07
-5.0838e-05
-2.53196e-07
-5.09672e-05
-2.53487e-07
-5.10963e-05
-2.53808e-07
-5.12251e-05
-2.54131e-07
-5.13535e-05
-2.54228e-07
-5.14818e-05
-2.54e-07
-5.16099e-05
-2.53469e-07
-5.17379e-05
-2.52692e-07
-5.18658e-05
-2.51691e-07
-5.19937e-05
-2.50477e-07
-5.21217e-05
-2.49084e-07
-5.22499e-05
-2.47515e-07
-5.23784e-05
-2.45796e-07
-5.25074e-05
-2.43968e-07
-5.26369e-05
-2.42089e-07
-5.27672e-05
-2.40241e-07
-5.28984e-05
-2.38535e-07
-5.30307e-05
-2.37111e-07
-5.31643e-05
-2.36158e-07
-5.32994e-05
-2.35913e-07
-5.34362e-05
-2.36703e-07
-5.3575e-05
-2.38933e-07
-5.37159e-05
-2.43056e-07
-5.38595e-05
-2.4953e-07
-5.40059e-05
-2.59063e-07
-5.41552e-05
-2.72639e-07
-5.43075e-05
-2.91043e-07
-5.44633e-05
-3.14857e-07
-5.46229e-05
-3.45092e-07
-5.4787e-05
-3.82499e-07
-5.4956e-05
-4.27388e-07
-5.51304e-05
-4.79541e-07
-5.531e-05
-5.38137e-07
-5.54939e-05
-5.99525e-07
-5.56807e-05
-6.56019e-07
-5.58663e-05
-6.97062e-07
-5.60424e-05
-7.06489e-07
-5.61941e-05
-6.6096e-07
-5.62933e-05
-5.32274e-07
-5.63025e-05
-2.64079e-07
-5.61775e-05
2.45987e-07
-5.5839e-05
1.18311e-06
-5.51244e-05
2.87317e-06
-5.37241e-05
5.92202e-06
-5.0914e-05
1.11286e-05
1.82274e-05
-4.52995e-05
-4.82011e-05
-7.01209e-08
-4.82506e-05
-1.10617e-07
-4.83135e-05
-1.38939e-07
-4.83849e-05
-1.56933e-07
-4.84618e-05
-1.67909e-07
-4.85424e-05
-1.74275e-07
-4.86258e-05
-1.77807e-07
-4.87111e-05
-1.79557e-07
-4.87982e-05
-1.80222e-07
-4.88868e-05
-1.80207e-07
-4.89768e-05
-1.79776e-07
-4.9068e-05
-1.79069e-07
-4.91605e-05
-1.78195e-07
-4.92541e-05
-1.772e-07
-4.93489e-05
-1.76135e-07
-4.94449e-05
-1.75013e-07
-4.9542e-05
-1.73858e-07
-4.96401e-05
-1.72667e-07
-4.97393e-05
-1.71459e-07
-4.98396e-05
-1.70222e-07
-4.9941e-05
-1.6892e-07
-5.00435e-05
-1.67578e-07
-5.01468e-05
-1.66259e-07
-5.02509e-05
-1.64885e-07
-5.03556e-05
-1.63491e-07
-5.0461e-05
-1.62117e-07
-5.05671e-05
-1.60798e-07
-5.06736e-05
-1.59507e-07
-5.07806e-05
-1.58256e-07
-5.0888e-05
-1.57034e-07
-5.09958e-05
-1.55883e-07
-5.11038e-05
-1.54781e-07
-5.12119e-05
-1.53781e-07
-5.13202e-05
-1.52861e-07
-5.14285e-05
-1.52061e-07
-5.15369e-05
-1.51339e-07
-5.16451e-05
-1.50746e-07
-5.17533e-05
-1.50232e-07
-5.18613e-05
-1.49851e-07
-5.19691e-05
-1.49577e-07
-5.20767e-05
-1.49418e-07
-5.2184e-05
-1.49368e-07
-5.22911e-05
-1.49419e-07
-5.23979e-05
-1.49574e-07
-5.25045e-05
-1.49824e-07
-5.26107e-05
-1.50156e-07
-5.27168e-05
-1.50553e-07
-5.28226e-05
-1.50997e-07
-5.29281e-05
-1.5149e-07
-5.30335e-05
-1.51997e-07
-5.31388e-05
-1.52515e-07
-5.3244e-05
-1.53019e-07
-5.33491e-05
-1.53521e-07
-5.34543e-05
-1.53976e-07
-5.35597e-05
-1.54325e-07
-5.36652e-05
-1.54551e-07
-5.3771e-05
-1.54762e-07
-5.38771e-05
-1.55021e-07
-5.39834e-05
-1.54957e-07
-5.40903e-05
-1.54399e-07
-5.41978e-05
-1.53415e-07
-5.4306e-05
-1.52082e-07
-5.4415e-05
-1.50429e-07
-5.45249e-05
-1.48463e-07
-5.46359e-05
-1.4618e-07
-5.47481e-05
-1.43591e-07
-5.48615e-05
-1.4071e-07
-5.49765e-05
-1.37562e-07
-5.50931e-05
-1.3419e-07
-5.52115e-05
-1.30666e-07
-5.53319e-05
-1.27085e-07
-5.54545e-05
-1.23576e-07
-5.55796e-05
-1.20321e-07
-5.57073e-05
-1.17534e-07
-5.58379e-05
-1.1552e-07
-5.59716e-05
-1.14696e-07
-5.61088e-05
-1.1548e-07
-5.62496e-05
-1.18294e-07
-5.63946e-05
-1.23808e-07
-5.65439e-05
-1.33094e-07
-5.66976e-05
-1.47179e-07
-5.68562e-05
-1.66101e-07
-5.70202e-05
-1.90987e-07
-5.719e-05
-2.22575e-07
-5.73661e-05
-2.61216e-07
-5.75489e-05
-3.06594e-07
-5.77381e-05
-3.58863e-07
-5.79315e-05
-4.15902e-07
-5.81271e-05
-4.70105e-07
-5.83193e-05
-5.14284e-07
-5.84981e-05
-5.36948e-07
-5.86455e-05
-5.22327e-07
-5.8734e-05
-4.5198e-07
-5.87151e-05
-2.90485e-07
-5.85199e-05
4.42678e-08
-5.80365e-05
6.93408e-07
-5.70374e-05
1.86699e-06
-5.51158e-05
3.99173e-06
-5.15361e-05
7.53745e-06
1.20524e-05
-4.5375e-05
-5.02211e-05
-3.65418e-08
-5.02779e-05
-5.67961e-08
-5.03483e-05
-7.14441e-08
-5.04273e-05
-8.0669e-08
-5.05118e-05
-8.6149e-08
-5.05995e-05
-8.92154e-08
-5.06892e-05
-9.07402e-08
-5.078e-05
-9.13131e-08
-5.08715e-05
-9.12977e-08
-5.09633e-05
-9.08951e-08
-5.10552e-05
-9.02673e-08
-5.11472e-05
-8.9481e-08
-5.12391e-05
-8.86037e-08
-5.13309e-05
-8.76634e-08
-5.14226e-05
-8.66907e-08
-5.15141e-05
-8.56924e-08
-5.16055e-05
-8.46843e-08
-5.16966e-05
-8.36655e-08
-5.17875e-05
-8.26457e-08
-5.18782e-05
-8.16176e-08
-5.19686e-05
-8.05271e-08
-5.20587e-05
-7.94469e-08
-5.21484e-05
-7.85144e-08
-5.22376e-05
-7.768e-08
-5.23263e-05
-7.69025e-08
-5.24143e-05
-7.61744e-08
-5.25016e-05
-7.55089e-08
-5.25884e-05
-7.48852e-08
-5.26745e-05
-7.4307e-08
-5.27601e-05
-7.37636e-08
-5.2845e-05
-7.3285e-08
-5.29293e-05
-7.28541e-08
-5.3013e-05
-7.25041e-08
-5.30962e-05
-7.22197e-08
-5.31789e-05
-7.20246e-08
-5.3261e-05
-7.18885e-08
-5.33427e-05
-7.18368e-08
-5.34241e-05
-7.18265e-08
-5.3505e-05
-7.19108e-08
-5.35857e-05
-7.20422e-08
-5.36661e-05
-7.22468e-08
-5.37463e-05
-7.25045e-08
-5.38264e-05
-7.27963e-08
-5.39064e-05
-7.31378e-08
-5.39864e-05
-7.35083e-08
-5.40665e-05
-7.38924e-08
-5.41468e-05
-7.42754e-08
-5.42273e-05
-7.46528e-08
-5.43081e-05
-7.49774e-08
-5.43892e-05
-7.52557e-08
-5.44709e-05
-7.54658e-08
-5.4553e-05
-7.56068e-08
-5.46358e-05
-7.56489e-08
-5.47193e-05
-7.55515e-08
-5.48036e-05
-7.52755e-08
-5.48889e-05
-7.47438e-08
-5.49752e-05
-7.41021e-08
-5.50625e-05
-7.36713e-08
-5.51507e-05
-7.28118e-08
-5.52402e-05
-7.12213e-08
-5.53312e-05
-6.90806e-08
-5.54236e-05
-6.65116e-08
-5.55176e-05
-6.35474e-08
-5.56133e-05
-6.01792e-08
-5.57109e-05
-5.63905e-08
-5.58104e-05
-5.21831e-08
-5.59119e-05
-4.75645e-08
-5.60157e-05
-4.25467e-08
-5.61219e-05
-3.71638e-08
-5.62306e-05
-3.14728e-08
-5.63421e-05
-2.55579e-08
-5.64566e-05
-1.95328e-08
-5.65742e-05
-1.35641e-08
-5.66952e-05
-7.86291e-09
-5.68198e-05
-2.70514e-09
-5.69485e-05
1.56096e-09
-5.70814e-05
4.49905e-09
-5.7219e-05
5.65469e-09
-5.73613e-05
4.32168e-09
-5.75093e-05
5.29886e-11
-5.76628e-05
-9.12689e-09
-5.78229e-05
-2.22778e-08
-5.79899e-05
-4.10053e-08
-5.81645e-05
-6.5936e-08
-5.83469e-05
-9.76885e-08
-5.85379e-05
-1.35583e-07
-5.87372e-05
-1.806e-07
-5.89412e-05
-2.34302e-07
-5.91483e-05
-2.86856e-07
-5.9352e-05
-3.35921e-07
-5.95413e-05
-3.74745e-07
-5.9697e-05
-3.95304e-07
-5.97915e-05
-3.87993e-07
-5.97746e-05
-3.39427e-07
-5.95612e-05
-2.02569e-07
-5.89987e-05
9.70443e-08
-5.78329e-05
6.65192e-07
-5.55904e-05
1.70732e-06
-5.15461e-05
3.44176e-06
5.5766e-06
-4.51303e-05
-5.11852e-05
2.83891e-09
-5.12414e-05
-1.43193e-09
-5.13107e-05
-3.05789e-09
-5.13882e-05
-3.96142e-09
-5.14704e-05
-4.60474e-09
-5.15552e-05
-5.1167e-09
-5.16411e-05
-5.5175e-09
-5.17272e-05
-5.83272e-09
-5.1813e-05
-6.10021e-09
-5.18982e-05
-6.29436e-09
-5.19826e-05
-6.46208e-09
-5.2066e-05
-6.58877e-09
-5.21485e-05
-6.6833e-09
-5.22299e-05
-6.76259e-09
-5.23102e-05
-6.81924e-09
-5.23896e-05
-6.86161e-09
-5.24678e-05
-6.88263e-09
-5.25451e-05
-6.88842e-09
-5.26214e-05
-6.87126e-09
-5.26966e-05
-6.82747e-09
-5.27709e-05
-6.73165e-09
-5.28442e-05
-6.64576e-09
-5.29167e-05
-6.63068e-09
-5.29882e-05
-6.67333e-09
-5.3059e-05
-6.73273e-09
-5.3129e-05
-6.80778e-09
-5.31982e-05
-6.89208e-09
-5.32668e-05
-6.97442e-09
-5.33348e-05
-7.03775e-09
-5.34022e-05
-7.09459e-09
-5.34691e-05
-7.14084e-09
-5.35355e-05
-7.20766e-09
-5.36016e-05
-7.28242e-09
-5.36673e-05
-7.37838e-09
-5.37327e-05
-7.48004e-09
-5.3798e-05
-7.61046e-09
-5.3863e-05
-7.73582e-09
-5.3928e-05
-7.87176e-09
-5.39929e-05
-8.02517e-09
-5.40578e-05
-8.16808e-09
-5.41228e-05
-8.31753e-09
-5.41879e-05
-8.4592e-09
-5.42533e-05
-8.57621e-09
-5.43189e-05
-8.67045e-09
-5.43848e-05
-8.73244e-09
-5.44512e-05
-8.74086e-09
-5.4518e-05
-8.68483e-09
-5.45854e-05
-8.55675e-09
-5.46533e-05
-8.30829e-09
-5.4722e-05
-7.94742e-09
-5.47913e-05
-7.45381e-09
-5.48615e-05
-6.82233e-09
-5.49325e-05
-6.01392e-09
-5.50045e-05
-4.99843e-09
-5.50776e-05
-3.7138e-09
-5.51517e-05
-2.11066e-09
-5.52273e-05
-9.86108e-11
-5.53039e-05
1.26652e-09
-5.53815e-05
3.15619e-09
-5.54606e-05
6.14616e-09
-5.55413e-05
9.79184e-09
-5.56237e-05
1.39038e-08
-5.57077e-05
1.84749e-08
-5.57936e-05
2.3539e-08
-5.58814e-05
2.91137e-08
-5.59713e-05
3.52116e-08
-5.60633e-05
4.18363e-08
-5.61577e-05
4.8986e-08
-5.62545e-05
5.66372e-08
-5.6354e-05
6.4745e-08
-5.64563e-05
7.32412e-08
-5.65617e-05
8.20293e-08
-5.66704e-05
9.09633e-08
-5.67826e-05
9.98373e-08
-5.68985e-05
1.08408e-07
-5.70186e-05
1.16406e-07
-5.71432e-05
1.23426e-07
-5.72726e-05
1.28959e-07
-5.74071e-05
1.32355e-07
-5.75471e-05
1.32961e-07
-5.76937e-05
1.29864e-07
-5.78469e-05
1.22837e-07
-5.80073e-05
1.10862e-07
-5.81755e-05
9.31962e-08
-5.8352e-05
6.93085e-08
-5.85359e-05
3.83769e-08
-5.87298e-05
2.92304e-09
-5.89264e-05
-4.87651e-08
-5.91267e-05
-9.90954e-08
-5.93232e-05
-1.53609e-07
-5.95045e-05
-2.09734e-07
-5.96528e-05
-2.66109e-07
-5.97386e-05
-3.24746e-07
-5.97167e-05
-3.88353e-07
-5.94972e-05
-4.55067e-07
-5.89187e-05
-5.21924e-07
-5.77014e-05
-5.98862e-07
-5.53453e-05
-6.99316e-07
-5.11189e-05
-8.36552e-07
-9.61589e-07
-4.46273e-05
-5.07396e-05
4.08778e-08
-5.07947e-05
5.47868e-08
-5.08634e-05
6.67899e-08
-5.09408e-05
7.44091e-08
-5.10232e-05
7.87953e-08
-5.11084e-05
8.10239e-08
-5.1195e-05
8.19313e-08
-5.1282e-05
8.20405e-08
-5.1369e-05
8.16729e-08
-5.14555e-05
8.10302e-08
-5.15414e-05
8.02259e-08
-5.16266e-05
7.93201e-08
-5.1711e-05
7.83791e-08
-5.17945e-05
7.7398e-08
-5.18771e-05
7.64192e-08
-5.19587e-05
7.54362e-08
-5.20394e-05
7.44762e-08
-5.21192e-05
7.35308e-08
-5.21981e-05
7.26223e-08
-5.22761e-05
7.17476e-08
-5.23531e-05
7.09249e-08
-5.24292e-05
7.01076e-08
-5.25045e-05
6.9276e-08
-5.25789e-05
6.84237e-08
-5.26526e-05
6.75881e-08
-5.27254e-05
6.67635e-08
-5.27975e-05
6.59664e-08
-5.28689e-05
6.52075e-08
-5.29397e-05
6.452e-08
-5.30098e-05
6.38816e-08
-5.30794e-05
6.3306e-08
-5.31484e-05
6.27474e-08
-5.32169e-05
6.22366e-08
-5.3285e-05
6.17486e-08
-5.33526e-05
6.13135e-08
-5.342e-05
6.08962e-08
-5.3487e-05
6.0545e-08
-5.35538e-05
6.02144e-08
-5.36205e-05
5.99622e-08
-5.3687e-05
5.97468e-08
-5.37534e-05
5.96059e-08
-5.38199e-05
5.95324e-08
-5.38863e-05
5.95238e-08
-5.39529e-05
5.96139e-08
-5.40197e-05
5.98025e-08
-5.40867e-05
6.01079e-08
-5.4154e-05
6.05444e-08
-5.42217e-05
6.11279e-08
-5.42898e-05
6.18868e-08
-5.43584e-05
6.28308e-08
-5.44275e-05
6.39724e-08
-5.44973e-05
6.53291e-08
-5.45678e-05
6.69315e-08
-5.46391e-05
6.88074e-08
-5.47112e-05
7.10195e-08
-5.47841e-05
7.35827e-08
-5.48578e-05
7.64089e-08
-5.49327e-05
7.92353e-08
-5.50091e-05
8.26487e-08
-5.50867e-05
8.69401e-08
-5.51654e-05
9.19397e-08
-5.52455e-05
9.75358e-08
-5.5327e-05
1.03716e-07
-5.541e-05
1.10505e-07
-5.54947e-05
1.17924e-07
-5.55811e-05
1.25989e-07
-5.56694e-05
1.34716e-07
-5.57597e-05
1.44123e-07
-5.58521e-05
1.54198e-07
-5.59468e-05
1.64905e-07
-5.6044e-05
1.76203e-07
-5.61439e-05
1.88015e-07
-5.62466e-05
2.00219e-07
-5.63525e-05
2.12639e-07
-5.64617e-05
2.25067e-07
-5.65746e-05
2.37239e-07
-5.66914e-05
2.48793e-07
-5.68125e-05
2.59255e-07
-5.69383e-05
2.68062e-07
-5.70692e-05
2.74567e-07
-5.72058e-05
2.78104e-07
-5.73485e-05
2.78144e-07
-5.74978e-05
2.73795e-07
-5.7654e-05
2.64339e-07
-5.78176e-05
2.49001e-07
-5.79884e-05
2.26785e-07
-5.8163e-05
1.96649e-07
-5.83456e-05
1.55154e-07
-5.85269e-05
1.06363e-07
-5.86995e-05
4.6317e-08
-5.88527e-05
-2.5442e-08
-5.89706e-05
-1.13453e-07
-5.90241e-05
-2.32439e-07
-5.89657e-05
-4.03516e-07
-5.87113e-05
-6.61156e-07
-5.81055e-05
-1.07386e-06
-5.68697e-05
-1.77498e-06
-5.45163e-05
-2.987e-06
-5.03427e-05
-4.93954e-06
-7.27748e-06
-4.39575e-05
-4.91375e-05
7.00719e-08
-4.91894e-05
1.09438e-07
-4.92556e-05
1.35698e-07
-4.9331e-05
1.52506e-07
-4.94122e-05
1.62669e-07
-4.9497e-05
1.68482e-07
-4.95842e-05
1.71677e-07
-4.96728e-05
1.73223e-07
-4.97624e-05
1.73832e-07
-4.98527e-05
1.73814e-07
-4.99434e-05
1.73472e-07
-5.00345e-05
1.72874e-07
-5.01258e-05
1.7215e-07
-5.02172e-05
1.71324e-07
-5.03088e-05
1.70444e-07
-5.04004e-05
1.69513e-07
-5.0492e-05
1.68562e-07
-5.05837e-05
1.67587e-07
-5.06752e-05
1.6661e-07
-5.07666e-05
1.65625e-07
-5.08579e-05
1.64643e-07
-5.09489e-05
1.63634e-07
-5.10397e-05
1.62592e-07
-5.11303e-05
1.61503e-07
-5.12205e-05
1.60398e-07
-5.13105e-05
1.5927e-07
-5.14e-05
1.58136e-07
-5.14892e-05
1.57017e-07
-5.15779e-05
1.55954e-07
-5.16662e-05
1.54934e-07
-5.17541e-05
1.53953e-07
-5.18414e-05
1.52985e-07
-5.19283e-05
1.5205e-07
-5.20147e-05
1.51139e-07
-5.21007e-05
1.50277e-07
-5.21861e-05
1.49451e-07
-5.2271e-05
1.48687e-07
-5.23554e-05
1.47964e-07