/*--------------------------------*- C++ -*----------------------------------*\
| =========                 |                                                 |
| \\      /  F ield         | OpenFOAM: The Open Source CFD Toolbox           |
|  \\    /   O peration     | Version:  2.1.0                                 |
|   \\  /    A nd           | Web:      www.OpenFOAM.org                      |
|    \\/     M anipulation  |                                                 |
\*---------------------------------------------------------------------------*/
FoamFile
{
    version     2.0;
    format      ascii;
    class       volScalarField;
    location    "0.44";
    object      rho;
}
// * * * * * * * * * * * * * * * * * * * * * * * * * * * * * * * * * * * * * //

dimensions      [1 -3 0 0 0 0 0];

internalField   nonuniform List<scalar> 
6400
(
947.046
946.968
946.892
946.819
946.747
946.677
946.609
946.543
946.479
946.417
946.357
946.298
946.242
946.187
946.133
946.082
946.032
945.984
945.937
945.892
945.848
945.806
945.766
945.727
945.689
945.653
945.618
945.585
945.553
945.522
945.493
945.465
945.438
945.412
945.388
945.364
945.342
945.321
945.301
945.282
945.264
945.247
945.231
945.216
945.201
945.188
945.175
945.164
945.153
945.143
945.133
945.125
945.117
945.11
945.103
945.097
945.092
945.087
945.083
945.08
945.077
945.074
945.072
945.071
945.07
945.069
945.069
945.07
945.071
945.073
945.075
945.078
945.081
945.085
945.09
945.096
945.103
945.111
945.119
945.129
945.141
945.154
945.17
945.188
945.211
945.238
945.273
945.319
945.381
945.473
945.616
945.864
946.34
947.307
948.633
946.194
944.611
944.555
944.555
944.555
947.186
947.108
947.03
946.952
946.877
946.803
946.73
946.659
946.59
946.522
946.457
946.392
946.329
946.268
946.209
946.151
946.094
946.039
945.986
945.934
945.884
945.835
945.787
945.741
945.697
945.654
945.612
945.572
945.533
945.496
945.46
945.425
945.392
945.36
945.33
945.3
945.272
945.246
945.22
945.196
945.172
945.15
945.129
945.11
945.091
945.073
945.056
945.041
945.026
945.012
944.999
944.986
944.975
944.964
944.954
944.945
944.936
944.928
944.921
944.914
944.907
944.901
944.896
944.891
944.886
944.882
944.877
944.874
944.87
944.867
944.864
944.861
944.858
944.856
944.854
944.852
944.85
944.848
944.847
944.845
944.845
944.844
944.844
944.844
944.844
944.845
944.846
944.848
944.85
944.851
944.851
944.846
944.831
944.795
944.723
944.623
944.559
944.555
944.555
944.555
947.548
947.467
947.383
947.299
947.216
947.134
947.054
946.975
946.897
946.821
946.747
946.674
946.602
946.532
946.463
946.396
946.33
946.266
946.203
946.141
946.081
946.023
945.966
945.91
945.856
945.803
945.751
945.701
945.653
945.606
945.56
945.516
945.474
945.433
945.393
945.355
945.318
945.283
945.249
945.216
945.185
945.156
945.127
945.1
945.074
945.049
945.026
945.004
944.983
944.963
944.944
944.926
944.91
944.894
944.879
944.865
944.852
944.839
944.828
944.817
944.806
944.796
944.787
944.779
944.77
944.762
944.755
944.748
944.741
944.734
944.727
944.721
944.714
944.708
944.701
944.695
944.689
944.682
944.675
944.668
944.661
944.654
944.647
944.64
944.632
944.625
944.617
944.609
944.602
944.594
944.587
944.58
944.573
944.566
944.561
944.558
944.555
944.555
944.555
944.555
948.18
948.093
948.001
947.909
947.816
947.725
947.634
947.544
947.455
947.368
947.282
947.197
947.113
947.031
946.95
946.87
946.792
946.715
946.639
946.565
946.492
946.42
946.35
946.281
946.213
946.146
946.082
946.018
945.956
945.895
945.836
945.778
945.722
945.668
945.614
945.563
945.513
945.464
945.417
945.371
945.327
945.285
945.244
945.205
945.167
945.131
945.096
945.063
945.031
945.001
944.972
944.944
944.918
944.894
944.87
944.848
944.827
944.807
944.789
944.771
944.755
944.74
944.725
944.712
944.699
944.687
944.676
944.666
944.656
944.647
944.638
944.63
944.623
944.616
944.609
944.603
944.598
944.592
944.587
944.583
944.579
944.575
944.572
944.569
944.566
944.564
944.562
944.56
944.559
944.557
944.557
944.556
944.555
944.555
944.555
944.555
944.555
944.555
944.555
944.555
949.196
949.102
949.003
948.901
948.799
948.697
948.595
948.494
948.393
948.294
948.195
948.097
948
947.904
947.809
947.715
947.622
947.53
947.44
947.35
947.261
947.174
947.087
947.002
946.918
946.835
946.754
946.673
946.594
946.516
946.439
946.363
946.289
946.216
946.144
946.074
946.005
945.937
945.871
945.806
945.743
945.682
945.622
945.563
945.507
945.452
945.398
945.346
945.297
945.248
945.202
945.158
945.115
945.074
945.035
944.998
944.962
944.928
944.897
944.867
944.838
944.812
944.787
944.764
944.743
944.723
944.704
944.687
944.672
944.658
944.645
944.633
944.623
944.613
944.605
944.597
944.591
944.585
944.58
944.575
944.571
944.568
944.565
944.563
944.561
944.56
944.558
944.557
944.556
944.556
944.555
944.555
944.555
944.555
944.555
944.555
944.555
944.555
944.555
944.555
950.82
950.721
950.616
950.508
950.399
950.289
950.179
950.069
949.96
949.851
949.742
949.634
949.527
949.42
949.313
949.207
949.101
948.996
948.892
948.788
948.685
948.582
948.48
948.378
948.278
948.177
948.078
947.979
947.881
947.784
947.687
947.591
947.496
947.402
947.308
947.215
947.123
947.032
946.942
946.853
946.765
946.678
946.592
946.507
946.424
946.341
946.26
946.181
946.102
946.026
945.951
945.877
945.805
945.736
945.667
945.601
945.537
945.475
945.415
945.357
945.301
945.247
945.196
945.147
945.1
945.056
945.014
944.974
944.937
944.901
944.868
944.837
944.809
944.782
944.757
944.734
944.713
944.693
944.676
944.659
944.645
944.631
944.619
944.608
944.599
944.59
944.583
944.576
944.57
944.566
944.562
944.559
944.557
944.556
944.555
944.555
944.555
944.555
944.555
944.555
953.392
953.292
953.188
953.079
952.97
952.86
952.749
952.638
952.528
952.418
952.308
952.198
952.088
951.978
951.869
951.76
951.65
951.541
951.431
951.321
951.211
951.101
950.99
950.879
950.769
950.658
950.548
950.438
950.328
950.218
950.108
949.998
949.889
949.779
949.669
949.56
949.45
949.341
949.231
949.121
949.011
948.902
948.792
948.682
948.572
948.461
948.351
948.241
948.131
948.02
947.91
947.8
947.69
947.581
947.471
947.362
947.254
947.146
947.038
946.932
946.826
946.721
946.618
946.516
946.416
946.317
946.22
946.125
946.032
945.942
945.853
945.767
945.684
945.603
945.525
945.449
945.377
945.307
945.239
945.175
945.113
945.054
944.998
944.944
944.893
944.845
944.8
944.757
944.718
944.682
944.65
944.623
944.602
944.586
944.575
944.569
944.565
944.562
944.56
944.559
957.213
957.121
957.026
956.928
956.83
956.731
956.633
956.534
956.436
956.338
956.241
956.144
956.048
955.951
955.856
955.76
955.665
955.57
955.475
955.38
955.285
955.189
955.094
954.999
954.903
954.807
954.712
954.615
954.519
954.422
954.325
954.227
954.129
954.03
953.93
953.829
953.728
953.625
953.521
953.416
953.31
953.202
953.092
952.981
952.869
952.754
952.637
952.519
952.398
952.276
952.151
952.024
951.895
951.763
951.629
951.492
951.353
951.212
951.068
950.921
950.772
950.621
950.467
950.311
950.153
949.993
949.83
949.666
949.5
949.333
949.164
948.993
948.822
948.649
948.475
948.301
948.125
947.949
947.773
947.595
947.417
947.237
947.055
946.872
946.687
946.501
946.313
946.124
945.935
945.748
945.565
945.39
945.228
945.084
944.965
944.878
944.807
944.75
944.707
944.68
962.66
962.594
962.527
962.459
962.391
962.324
962.257
962.191
962.126
962.062
961.999
961.936
961.875
961.815
961.756
961.697
961.64
961.583
961.527
961.472
961.418
961.365
961.312
961.259
961.207
961.153
961.1
961.045
960.99
960.934
960.877
960.818
960.759
960.698
960.636
960.572
960.507
960.44
960.371
960.301
960.228
960.154
960.077
959.998
959.917
959.834
959.748
959.66
959.57
959.476
959.38
959.281
959.18
959.075
958.967
958.856
958.742
958.624
958.503
958.377
958.248
958.115
957.978
957.836
957.69
957.539
957.383
957.222
957.056
956.885
956.707
956.524
956.334
956.137
955.934
955.723
955.503
955.274
955.035
954.786
954.525
954.251
953.963
953.657
953.333
952.987
952.617
952.221
951.794
951.337
950.849
950.333
949.792
949.234
948.669
948.124
947.648
947.212
946.839
946.564
969.925
969.904
969.882
969.861
969.841
969.82
969.801
969.781
969.763
969.744
969.726
969.709
969.692
969.675
969.659
969.642
969.627
969.611
969.595
969.579
969.563
969.547
969.531
969.514
969.497
969.48
969.462
969.443
969.424
969.405
969.385
969.364
969.343
969.321
969.299
969.276
969.253
969.228
969.204
969.179
969.153
969.127
969.1
969.073
969.045
969.017
968.989
968.959
968.929
968.899
968.868
968.837
968.805
968.773
968.74
968.706
968.673
968.638
968.603
968.567
968.53
968.492
968.453
968.413
968.371
968.328
968.283
968.237
968.188
968.137
968.083
968.026
967.966
967.902
967.834
967.762
967.684
967.601
967.511
967.414
967.307
967.191
967.064
966.925
966.773
966.606
966.423
966.223
965.988
965.714
965.394
965.02
964.584
964.075
963.477
962.772
961.959
961.114
960.301
959.64
977.702
977.728
977.753
977.778
977.802
977.825
977.847
977.868
977.889
977.909
977.928
977.947
977.965
977.983
978
978.017
978.033
978.05
978.065
978.082
978.097
978.114
978.13
978.146
978.163
978.18
978.198
978.216
978.234
978.254
978.274
978.295
978.317
978.34
978.363
978.388
978.414
978.44
978.468
978.497
978.528
978.559
978.592
978.626
978.661
978.698
978.736
978.775
978.816
978.859
978.903
978.949
978.997
979.047
979.099
979.153
979.209
979.268
979.329
979.393
979.46
979.531
979.606
979.685
979.769
979.858
979.953
980.053
980.159
980.272
980.393
980.522
980.66
980.807
980.964
981.132
981.313
981.505
981.712
981.932
982.167
982.418
982.686
982.97
983.27
983.588
983.923
984.276
984.658
985.077
985.537
986.041
986.586
987.175
987.811
988.496
989.225
989.984
990.732
991.394
984.048
984.113
984.178
984.244
984.31
984.376
984.441
984.507
984.571
984.636
984.7
984.763
984.826
984.889
984.951
985.013
985.075
985.137
985.198
985.26
985.321
985.383
985.444
985.506
985.569
985.631
985.694
985.758
985.823
985.888
985.954
986.021
986.088
986.157
986.228
986.299
986.372
986.446
986.522
986.6
986.679
986.76
986.843
986.928
987.016
987.106
987.198
987.292
987.389
987.489
987.592
987.698
987.806
987.918
988.034
988.153
988.275
988.401
988.531
988.666
988.806
988.95
989.1
989.256
989.418
989.586
989.761
989.943
990.134
990.332
990.538
990.754
990.979
991.213
991.458
991.713
991.978
992.254
992.541
992.838
993.145
993.462
993.788
994.122
994.462
994.808
995.157
995.508
995.858
996.204
996.542
996.874
997.207
997.534
997.85
998.151
998.432
998.683
998.896
999.054
988.823
988.905
988.991
989.079
989.168
989.259
989.349
989.44
989.53
989.621
989.712
989.803
989.894
989.984
990.075
990.166
990.257
990.348
990.44
990.531
990.623
990.715
990.807
990.9
990.993
991.087
991.181
991.275
991.371
991.466
991.563
991.66
991.759
991.858
991.958
992.059
992.161
992.264
992.369
992.474
992.581
992.69
992.799
992.91
993.023
993.137
993.253
993.371
993.49
993.611
993.734
993.858
993.985
994.114
994.244
994.377
994.512
994.65
994.789
994.931
995.075
995.221
995.369
995.52
995.673
995.828
995.985
996.144
996.305
996.468
996.633
996.799
996.966
997.135
997.304
997.473
997.642
997.81
997.977
998.142
998.304
998.463
998.617
998.766
998.909
999.044
999.172
999.292
999.401
999.5
999.587
999.662
999.725
999.779
999.825
999.865
999.897
999.922
999.941
999.953
992.308
992.392
992.481
992.574
992.669
992.765
992.861
992.958
993.055
993.152
993.249
993.346
993.443
993.54
993.638
993.735
993.832
993.93
994.028
994.126
994.224
994.322
994.42
994.519
994.618
994.717
994.816
994.916
995.016
995.116
995.216
995.317
995.418
995.519
995.621
995.723
995.825
995.927
996.029
996.131
996.234
996.337
996.439
996.542
996.644
996.746
996.849
996.951
997.052
997.154
997.255
997.355
997.456
997.555
997.654
997.753
997.851
997.948
998.044
998.139
998.233
998.326
998.417
998.507
998.595
998.682
998.767
998.849
998.93
999.009
999.085
999.159
999.231
999.3
999.366
999.429
999.49
999.547
999.601
999.652
999.699
999.742
999.782
999.818
999.851
999.88
999.905
999.926
999.944
999.959
999.97
999.979
999.985
999.989
999.992
999.995
999.996
999.998
999.998
999.999
994.676
994.755
994.841
994.929
995.019
995.11
995.202
995.294
995.386
995.478
995.569
995.661
995.752
995.843
995.934
996.025
996.115
996.206
996.296
996.385
996.475
996.564
996.653
996.742
996.83
996.918
997.005
997.092
997.179
997.265
997.35
997.435
997.52
997.604
997.687
997.769
997.851
997.932
998.012
998.091
998.168
998.245
998.321
998.395
998.469
998.541
998.611
998.68
998.748
998.814
998.879
998.942
999.003
999.062
999.12
999.176
999.23
999.282
999.332
999.381
999.427
999.471
999.513
999.553
999.592
999.628
999.662
999.695
999.725
999.754
999.78
999.805
999.828
999.849
999.869
999.887
999.903
999.918
999.931
999.943
999.953
999.962
999.97
999.977
999.982
999.987
999.99
999.993
999.996
999.997
999.998
999.999
999.999
1000
1000
1000
1000
1000
1000
1000
996.243
996.314
996.39
996.469
996.55
996.631
996.712
996.793
996.874
996.955
997.035
997.115
997.194
997.272
997.35
997.428
997.505
997.581
997.657
997.732
997.806
997.879
997.952
998.024
998.095
998.165
998.234
998.302
998.369
998.435
998.5
998.564
998.627
998.689
998.749
998.809
998.867
998.923
998.979
999.033
999.085
999.136
999.186
999.234
999.281
999.326
999.369
999.411
999.451
999.49
999.526
999.562
999.595
999.627
999.658
999.686
999.713
999.739
999.763
999.785
999.806
999.826
999.844
999.861
999.876
999.89
999.904
999.915
999.926
999.936
999.945
999.953
999.96
999.966
999.972
999.977
999.981
999.985
999.988
999.99
999.992
999.994
999.996
999.997
999.998
999.999
999.999
999.999
1000
1000
1000
1000
1000
1000
1000
1000
1000
1000
1000
1000
997.308
997.369
997.435
997.503
997.571
997.639
997.708
997.775
997.842
997.909
997.975
998.04
998.105
998.168
998.231
998.294
998.355
998.416
998.475
998.534
998.592
998.649
998.705
998.76
998.814
998.866
998.918
998.969
999.019
999.067
999.114
999.16
999.205
999.249
999.291
999.332
999.371
999.41
999.447
999.482
999.516
999.549
999.581
999.611
999.639
999.667
999.693
999.717
999.741
999.763
999.784
999.803
999.821
999.838
999.854
999.869
999.882
999.895
999.907
999.917
999.927
999.936
999.944
999.951
999.958
999.963
999.969
999.973
999.977
999.981
999.984
999.987
999.989
999.991
999.993
999.994
999.996
999.997
999.997
999.998
999.999
999.999
999.999
1000
1000
1000
1000
1000
1000
1000
1000
1000
1000
1000
1000
1000
1000
1000
1000
1000
998.066
998.117
998.172
998.227
998.283
998.338
998.393
998.447
998.5
998.553
998.605
998.656
998.707
998.756
998.805
998.853
998.9
998.946
998.991
999.036
999.079
999.122
999.163
999.204
999.243
999.282
999.319
999.356
999.392
999.426
999.459
999.491
999.522
999.552
999.581
999.609
999.635
999.66
999.685
999.708
999.73
999.75
999.77
999.789
999.807
999.823
999.839
999.853
999.867
999.88
999.892
999.903
999.913
999.922
999.931
999.939
999.946
999.953
999.958
999.964
999.969
999.973
999.977
999.98
999.983
999.986
999.988
999.99
999.992
999.993
999.995
999.996
999.996
999.997
999.998
999.998
999.999
999.999
999.999
999.999
1000
1000
1000
1000
1000
1000
1000
1000
1000
1000
1000
1000
1000
1000
1000
1000
1000
1000
1000
1000
998.623
998.665
998.708
998.752
998.796
998.839
998.882
998.924
998.965
999.005
999.045
999.084
999.123
999.16
999.197
999.233
999.268
999.302
999.335
999.368
999.399
999.43
999.46
999.489
999.517
999.544
999.571
999.596
999.621
999.644
999.667
999.689
999.71
999.729
999.748
999.767
999.784
999.8
999.816
999.83
999.844
999.857
999.869
999.881
999.892
999.902
999.911
999.92
999.928
999.935
999.942
999.949
999.954
999.96
999.965
999.969
999.973
999.976
999.98
999.982
999.985
999.987
999.989
999.991
999.992
999.994
999.995
999.996
999.996
999.997
999.998
999.998
999.999
999.999
999.999
999.999
1000
1000
1000
1000
1000
1000
1000
1000
1000
1000
1000
1000
1000
1000
1000
1000
1000
1000
1000
1000
1000
1000
1000
1000
999.119
999.15
999.182
999.213
999.245
999.275
999.305
999.334
999.363
999.391
999.419
999.445
999.471
999.496
999.521
999.545
999.568
999.591
999.613
999.634
999.654
999.674
999.693
999.711
999.729
999.745
999.762
999.777
999.792
999.806
999.82
999.832
999.845
999.856
999.867
999.878
999.887
999.897
999.905
999.913
999.921
999.928
999.935
999.941
999.947
999.952
999.957
999.961
999.965
999.969
999.973
999.976
999.979
999.981
999.984
999.986
999.988
999.989
999.991
999.992
999.993
999.994
999.995
999.996
999.997
999.997
999.998
999.998
999.999
999.999
999.999
999.999
999.999
1000
1000
1000
1000
1000
1000
1000
1000
1000
1000
1000
1000
1000
1000
1000
1000
1000
1000
1000
1000
1000
1000
1000
1000
1000
1000
1000
944.555
944.555
944.555
944.555
944.555
944.555
944.555
944.555
944.555
944.555
944.555
944.555
944.555
944.555
944.555
944.555
944.555
944.555
944.555
944.555
944.555
944.555
944.555
944.555
944.555
944.555
944.555
944.555
944.555
944.555
944.555
944.555
944.555
944.555
944.555
944.555
944.555
944.555
944.555
944.555
944.555
944.555
944.555
944.555
944.555
944.555
944.555
944.555
944.555
944.555
944.555
944.555
944.555
944.555
944.555
944.555
944.555
944.555
944.555
944.555
944.555
944.555
944.555
944.555
944.555
944.555
944.555
944.555
944.555
944.555
944.555
944.555
944.555
944.555
944.555
944.555
944.555
944.556
944.557
944.562
944.555
944.555
944.555
944.555
944.555
944.555
944.555
944.555
944.555
944.555
944.555
944.555
944.555
944.555
944.556
944.557
944.559
944.565
944.582
944.658
944.555
944.555
944.555
944.555
944.555
944.555
944.555
944.555
944.556
944.556
944.557
944.557
944.559
944.561
944.565
944.573
944.593
944.643
944.807
945.627
944.559
944.56
944.561
944.562
944.564
944.566
944.568
944.57
944.572
944.573
944.576
944.579
944.586
944.598
944.622
944.67
944.78
945.073
946.095
951.77
944.68
944.694
944.71
944.728
944.745
944.76
944.77
944.771
944.768
944.765
944.765
944.771
944.788
944.828
944.913
945.094
945.499
946.538
950.001
969.406
946.503
946.59
946.672
946.75
946.809
946.815
946.786
946.72
946.654
946.582
946.511
946.439
946.387
946.374
946.515
946.942
947.981
950.367
956.393
986.673
959.417
959.594
959.764
959.911
960.003
959.962
959.875
959.781
959.659
959.477
959.257
958.949
958.614
958.167
957.911
958.093
959.509
962.942
970.656
986.731
991.698
991.602
991.533
991.487
991.5
991.664
991.877
992.098
992.33
992.602
992.898
993.264
993.667
994.185
994.55
994.681
994.332
993.791
993.779
993.817
999.1
999.06
999.025
998.993
998.973
998.983
999.014
999.07
999.127
999.189
999.252
999.325
999.395
999.475
999.529
999.553
999.525
999.47
999.399
997.292
999.954
999.949
999.943
999.937
999.931
999.926
999.923
999.926
999.93
999.937
999.943
999.95
999.956
999.962
999.965
999.966
999.963
999.951
999.885
999.078
999.999
999.999
999.998
999.998
999.997
999.997
999.997
999.996
999.996
999.996
999.997
999.997
999.997
999.998
999.998
999.998
999.997
999.994
999.982
999.861
1000
1000
1000
1000
1000
1000
1000
1000
1000
1000
1000
1000
1000
1000
1000
1000
1000
1000
999.999
999.998
1000
1000
1000
1000
1000
1000
1000
1000
1000
1000
1000
1000
1000
1000
1000
1000
1000
1000
1000
1000
1000
1000
1000
1000
1000
1000
1000
1000
1000
1000
1000
1000
1000
1000
1000
1000
1000
1000
1000
1000
1000
1000
1000
1000
1000
1000
1000
1000
1000
1000
1000
1000
1000
1000
1000
1000
1000
1000
1000
1000
1000
1000
1000
1000
1000
1000
1000
1000
1000
1000
1000
1000
1000
1000
1000
1000
1000
1000
1000
1000
1000
1000
1000
1000
1000
1000
1000
1000
1000
1000
1000
1000
1000
1000
1000
1000
1000
1000
1000
1000
944.555
944.555
944.555
944.555
944.555
944.555
944.555
944.555
944.555
944.555
944.555
944.555
944.555
944.555
944.555
944.555
944.555
944.555
944.555
944.555
944.555
944.555
944.555
944.555
944.555
944.555
944.555
944.555
944.555
944.555
944.555
944.555
944.555
944.555
944.555
944.555
944.555
944.555
944.555
944.555
944.555
944.555
944.555
944.555
944.555
944.555
944.555
944.555
944.555
944.555
944.555
944.555
944.555
944.555
944.555
944.555
944.555
944.555
944.555
944.555
944.555
944.555
944.555
944.555
944.555
944.555
944.555
944.555
944.555
944.555
944.555
944.555
944.555
944.555
944.555
944.555
944.555
944.555
944.555
944.555
944.555
944.555
944.555
944.555
944.555
944.555
944.555
944.555
944.555
944.555
944.555
944.555
944.555
944.555
944.555
944.555
944.555
944.555
944.555
944.555
944.555
944.555
944.555
944.555
944.555
944.555
944.555
944.555
944.555
944.555
944.555
944.555
944.555
944.555
944.555
944.555
944.555
944.555
944.555
944.555
944.555
944.555
944.555
944.555
944.555
944.555
944.555
944.555
944.555
944.555
944.555
944.555
944.555
944.555
944.555
944.555
944.555
944.555
944.555
944.555
944.555
944.555
944.555
944.555
944.555
944.555
944.555
944.555
944.555
944.555
944.555
944.555
944.555
944.555
944.555
944.555
944.555
944.555
944.555
944.555
944.555
944.555
944.555
944.555
944.555
944.555
944.555
944.555
944.555
944.555
944.555
944.555
944.555
944.555
944.555
944.555
944.555
944.555
944.555
944.555
944.555
944.555
944.555
944.555
944.555
944.555
944.555
944.555
944.555
944.555
944.555
944.555
944.555
944.555
944.555
944.555
944.555
944.555
944.555
944.555
944.555
944.555
944.555
944.555
944.555
944.555
944.555
944.555
944.555
944.555
944.555
944.555
944.555
944.555
944.555
944.555
944.555
944.555
944.555
944.555
944.555
944.555
944.555
944.555
944.555
944.555
944.555
944.555
944.555
944.555
944.555
944.555
944.555
944.555
944.555
944.555
944.555
944.555
944.555
944.555
944.555
944.555
944.555
944.555
944.555
944.555
944.555
944.555
944.555
944.555
944.555
944.555
944.555
944.555
944.555
944.555
944.555
944.555
944.555
944.555
944.555
944.555
944.555
944.555
944.555
944.555
944.555
944.555
944.555
944.555
944.555
944.555
944.555
944.555
944.555
944.555
944.555
944.555
944.555
944.555
944.555
944.555
944.555
944.555
944.555
944.555
944.555
944.555
944.555
944.555
944.555
944.555
944.555
944.555
944.555
944.555
944.555
944.555
944.555
944.555
944.555
944.555
944.555
944.555
944.555
944.555
944.555
944.555
944.555
944.555
944.555
944.555
944.555
944.555
944.555
944.555
944.555
944.555
944.555
944.555
944.555
944.555
944.555
944.555
944.555
944.555
944.555
944.555
944.555
944.555
944.555
944.555
944.555
944.555
944.555
944.555
944.555
944.555
944.555
944.555
944.555
944.555
944.555
944.555
944.555
944.555
944.555
944.555
944.555
944.555
944.555
944.555
944.555
944.555
944.555
944.555
944.555
944.555
944.555
944.555
944.555
944.555
944.555
944.555
944.555
944.555
944.555
944.555
944.555
944.555
944.555
944.555
944.555
944.555
944.555
944.555
944.555
944.555
944.555
944.555
944.555
944.555
944.555
944.555
944.555
944.555
944.555
944.555
944.555
944.555
944.555
944.555
944.555
944.555
944.555
944.555
944.555
944.555
944.555
944.555
944.555
944.555
944.555
944.555
944.555
944.555
944.555
944.555
944.555
944.555
944.555
944.555
944.555
944.555
944.555
944.555
944.555
944.555
944.555
944.555
944.555
944.555
944.555
944.555
944.555
944.555
944.555
944.555
944.555
944.555
944.555
944.555
944.555
944.555
944.555
944.555
944.555
944.555
944.555
944.555
944.555
944.555
944.555
944.555
944.555
944.555
944.555
944.555
944.555
944.555
944.555
944.555
944.555
944.555
944.555
944.555
944.555
944.555
944.555
944.555
944.555
944.555
944.555
944.555
944.555
944.555
944.555
944.555
944.555
944.555
944.555
944.555
944.555
944.555
944.555
944.555
944.555
944.555
944.555
944.555
944.555
944.555
944.555
944.555
944.555
944.555
944.555
944.555
944.555
944.555
944.555
944.555
944.555
944.555
944.555
944.555
944.555
944.555
944.555
944.555
944.555
944.555
944.555
944.555
944.555
944.555
944.555
944.555
944.555
944.555
944.555
944.555
944.555
944.555
944.555
944.555
944.555
944.555
944.555
944.555
944.555
944.555
944.555
944.555
944.555
944.555
944.555
944.555
944.555
944.555
944.555
944.555
944.555
944.555
944.555
944.555
944.555
944.555
944.555
944.555
944.555
944.555
944.555
944.555
944.555
944.555
944.555
944.555
944.555
944.555
944.555
944.555
944.555
944.555
944.555
944.555
944.555
944.555
944.555
944.555
944.555
944.555
944.555
944.555
944.555
944.555
944.555
944.555
944.555
944.555
944.555
944.555
944.555
944.555
944.555
944.555
944.555
944.555
944.555
944.555
944.555
944.555
944.555
944.555
944.555
944.555
944.555
944.555
944.555
944.555
944.555
944.555
944.555
944.555
944.555
944.555
944.555
944.555
944.555
944.555
944.555
944.555
944.555
944.555
944.555
944.555
944.555
944.555
944.555
944.555
944.555
944.555
944.555
944.555
944.555
944.555
944.555
944.555
944.555
944.555
944.555
944.555
944.555
944.555
944.555
944.555
944.555
944.555
944.555
944.555
944.555
944.555
944.555
944.555
944.555
944.555
944.555
944.555
944.555
944.555
944.555
944.555
944.555
944.555
944.555
944.555
944.555
944.555
944.555
944.555
944.555
944.555
944.555
944.555
944.555
944.555
944.555
944.555
944.555
944.555
944.555
944.555
944.555
944.555
944.555
944.555
944.555
944.555
944.555
944.555
944.555
944.555
944.555
944.555
944.555
944.555
944.555
944.555
944.555
944.555
944.555
944.555
944.555
944.555
944.555
944.555
944.555
944.555
944.555
944.555
944.555
944.555
944.555
944.555
944.555
944.555
944.555
944.555
944.555
944.555
944.555
944.555
944.555
944.555
944.555
944.555
944.555
944.555
944.555
944.555
944.555
944.555
944.555
944.555
944.555
944.555
944.555
944.555
944.555
944.555
944.555
944.555
944.555
944.555
944.555
944.555
944.555
944.555
944.555
944.555
944.555
944.555
944.555
944.555
944.555
944.555
944.555
944.555
944.555
944.555
944.555
944.555
944.555
944.555
944.555
944.555
944.555
944.555
944.555
944.555
944.555
944.555
944.555
944.555
944.555
944.555
944.555
944.555
944.555
944.555
944.555
944.555
944.555
944.555
944.555
944.555
944.555
944.555
944.555
944.555
944.555
944.555
944.555
944.555
944.555
944.555
944.555
944.555
944.555
944.555
944.555
944.555
944.555
944.555
944.555
944.555
944.555
944.555
944.555
944.555
944.555
944.555
944.555
944.555
944.555
944.555
944.555
944.555
944.555
944.555
944.555
944.555
944.555
944.555
944.555
944.555
944.555
944.555
944.555
944.555
944.555
944.555
944.555
944.555
944.555
944.555
944.555
944.555
944.555
944.555
944.555
944.555
944.555
944.555
944.555
944.555
944.555
944.555
944.555
944.555
944.555
944.555
944.555
944.555
944.555
944.555
944.555
944.555
944.555
944.555
944.555
944.555
944.555
944.555
944.555
944.555
944.555
944.555
944.555
944.555
944.555
944.555
944.555
944.555
944.555
944.555
944.555
944.555
944.555
944.555
944.555
944.555
944.555
944.555
944.555
944.555
944.555
944.555
944.555
944.555
944.555
944.555
944.555
944.555
944.555
944.555
944.555
944.555
944.555
944.555
944.555
944.555
944.555
944.555
944.555
944.555
944.555
944.555
944.555
944.555
944.555
944.555
944.555
944.555
944.555
944.555
944.555
944.555
944.555
944.555
944.555
944.555
944.555
944.555
944.555
944.555
944.555
944.555
944.555
944.555
944.555
944.555
944.555
944.555
944.555
944.555
944.555
944.555
944.555
944.555
944.555
944.555
944.555
944.555
944.555
944.555
944.555
944.555
944.555
944.555
944.555
944.555
944.555
944.555
944.555
944.555
944.555
944.555
944.555
944.555
944.555
944.555
944.555
944.555
944.555
944.555
944.555
944.555
944.555
944.555
944.555
944.555
944.555
944.555
944.555
944.555
944.555
944.555
944.555
944.555
944.555
944.555
944.555
944.555
944.555
944.555
944.555
944.555
944.555
944.555
944.555
944.555
944.555
944.555
944.555
944.555
944.555
944.555
944.555
944.555
944.555
944.555
944.555
944.555
944.555
944.555
944.555
944.555
944.555
944.555
944.555
944.555
944.555
944.555
944.555
944.555
944.555
944.555
944.555
944.555
944.555
944.555
944.555
944.555
944.555
944.555
944.555
944.555
944.555
944.555
944.555
944.555
944.555
944.555
944.555
944.555
944.555
944.555
944.555
944.555
944.555
944.555
944.555
944.555
944.555
944.555
944.555
944.555
944.555
944.555
944.555
944.555
944.555
944.555
944.555
944.555
944.555
944.555
944.555
944.555
944.555
944.555
944.555
944.555
944.555
944.555
944.555
944.555
944.555
944.555
944.555
944.555
944.555
944.555
944.555
944.555
944.555
944.555
944.555
944.555
944.555
944.555
944.555
944.555
944.555
944.555
944.555
944.555
944.555
944.555
944.555
944.555
944.555
944.555
944.555
944.555
944.555
944.555
944.555
944.555
944.555
944.555
944.555
944.555
944.555
944.555
944.555
944.555
944.555
944.555
944.555
944.555
944.555
944.555
944.555
944.555
944.555
944.555
944.555
944.555
944.555
944.555
944.555
944.555
944.555
944.555
944.555
944.555
944.555
944.555
944.555
944.555
944.555
944.555
944.555
944.555
944.555
944.555
944.555
944.555
944.555
944.555
944.555
944.555
944.555
944.555
944.555
944.555
944.555
944.555
944.555
944.555
944.555
944.555
944.555
944.555
944.555
944.555
944.555
944.555
944.555
944.555
944.555
944.555
944.555
944.555
944.555
944.555
944.555
944.555
944.555
944.555
944.555
944.555
944.555
944.555
944.555
944.555
944.555
944.555
944.555
944.555
944.555
944.555
944.555
944.555
944.555
944.555
944.555
944.555
944.555
944.555
944.555
944.555
944.555
944.555
944.555
944.555
944.555
944.555
944.555
944.555
944.555
944.555
944.555
944.555
944.555
944.555
944.555
944.555
944.555
944.555
944.555
944.555
944.555
944.555
944.555
944.555
944.555
944.555
944.555
944.555
944.555
944.555
944.555
944.555
944.555
944.555
944.555
944.555
944.555
944.555
944.555
944.555
944.555
944.555
944.555
944.555
944.555
944.555
944.555
944.555
944.555
944.555
944.555
944.555
944.555
944.555
944.555
944.555
944.555
944.555
944.555
944.555
944.555
944.555
944.555
944.555
944.555
944.555
944.555
944.555
944.555
944.555
944.555
944.555
944.555
944.555
944.555
944.555
944.555
944.555
944.555
944.555
944.555
944.555
944.555
944.555
944.555
944.555
944.555
944.555
944.555
944.555
944.555
944.555
944.555
944.555
944.555
944.555
944.555
944.555
944.555
944.555
944.555
944.555
944.555
944.555
944.555
944.555
944.555
944.555
944.555
944.555
944.555
944.555
944.555
944.555
944.555
944.555
944.555
944.555
944.555
944.555
944.555
944.555
944.555
944.555
944.555
944.555
944.555
944.555
944.555
944.555
944.555
944.555
944.555
944.555
944.555
944.555
944.555
944.555
944.555
944.555
944.555
944.555
944.555
944.555
944.555
944.555
944.555
944.555
944.555
944.555
944.555
944.555
944.555
944.555
944.555
944.555
944.555
944.555
944.555
944.555
944.555
944.555
944.555
944.555
944.555
944.555
944.555
944.555
944.555
944.555
944.555
944.555
944.555
944.555
944.555
944.555
944.555
944.555
944.555
944.555