/*--------------------------------*- C++ -*----------------------------------*\
| =========                 |                                                 |
| \\      /  F ield         | OpenFOAM: The Open Source CFD Toolbox           |
|  \\    /   O peration     | Version:  2.1.0                                 |
|   \\  /    A nd           | Web:      www.OpenFOAM.org                      |
|    \\/     M anipulation  |                                                 |
\*---------------------------------------------------------------------------*/
FoamFile
{
    version     2.0;
    format      ascii;
    class       volScalarField;
    location    "0.44";
    object      T;
}
// * * * * * * * * * * * * * * * * * * * * * * * * * * * * * * * * * * * * * //

dimensions      [0 0 0 1 0 0 0];

internalField   nonuniform List<scalar> 
6400
(
388.406
388.553
388.697
388.837
388.973
389.106
389.235
389.36
389.482
389.6
389.715
389.826
389.934
390.039
390.14
390.238
390.333
390.425
390.514
390.6
390.683
390.763
390.84
390.914
390.986
391.055
391.121
391.184
391.245
391.304
391.36
391.414
391.465
391.514
391.561
391.605
391.648
391.688
391.726
391.762
391.797
391.829
391.86
391.889
391.916
391.941
391.965
391.988
392.008
392.028
392.045
392.062
392.077
392.091
392.103
392.114
392.124
392.133
392.141
392.148
392.154
392.158
392.162
392.165
392.167
392.168
392.168
392.167
392.165
392.161
392.157
392.152
392.145
392.137
392.127
392.116
392.104
392.089
392.072
392.053
392.031
392.005
391.976
391.941
391.898
391.846
391.78
391.692
391.573
391.399
391.125
390.653
389.748
387.91
385.396
390.025
393.042
393.149
393.15
393.15
388.14
388.287
388.436
388.583
388.727
388.868
389.005
389.14
389.272
389.4
389.526
389.648
389.767
389.883
389.997
390.107
390.215
390.319
390.421
390.52
390.616
390.709
390.799
390.887
390.971
391.053
391.133
391.209
391.283
391.354
391.423
391.489
391.552
391.613
391.671
391.727
391.78
391.832
391.88
391.927
391.971
392.013
392.053
392.091
392.127
392.161
392.192
392.223
392.251
392.278
392.303
392.326
392.348
392.368
392.387
392.405
392.421
392.437
392.451
392.464
392.477
392.488
392.499
392.508
392.517
392.526
392.534
392.541
392.548
392.554
392.56
392.565
392.57
392.575
392.579
392.583
392.587
392.59
392.593
392.595
392.597
392.598
392.598
392.598
392.598
392.596
392.593
392.59
392.586
392.584
392.584
392.593
392.622
392.691
392.828
393.02
393.141
393.15
393.15
393.15
387.451
387.606
387.766
387.925
388.083
388.238
388.39
388.54
388.687
388.832
388.974
389.113
389.249
389.382
389.513
389.641
389.766
389.888
390.008
390.125
390.239
390.351
390.46
390.566
390.669
390.77
390.868
390.963
391.055
391.145
391.231
391.315
391.396
391.475
391.55
391.623
391.693
391.76
391.825
391.887
391.946
392.003
392.058
392.109
392.159
392.206
392.25
392.292
392.333
392.371
392.406
392.44
392.472
392.503
392.531
392.558
392.583
392.607
392.629
392.65
392.67
392.688
392.706
392.723
392.738
392.753
392.768
392.782
392.795
392.808
392.821
392.833
392.845
392.857
392.87
392.882
392.894
392.907
392.92
392.933
392.946
392.96
392.973
392.988
393.002
393.016
393.031
393.045
393.06
393.074
393.089
393.102
393.116
393.128
393.137
393.143
393.149
393.15
393.15
393.15
386.253
386.418
386.593
386.768
386.943
387.117
387.289
387.46
387.628
387.794
387.957
388.118
388.277
388.433
388.587
388.739
388.888
389.034
389.178
389.32
389.459
389.595
389.729
389.86
389.989
390.115
390.239
390.36
390.478
390.594
390.706
390.816
390.923
391.027
391.129
391.227
391.323
391.415
391.505
391.592
391.676
391.757
391.834
391.909
391.982
392.051
392.117
392.18
392.241
392.299
392.354
392.406
392.456
392.503
392.548
392.59
392.63
392.667
392.703
392.736
392.767
392.797
392.824
392.85
392.874
392.897
392.918
392.938
392.956
392.974
392.99
393.005
393.02
393.033
393.046
393.057
393.068
393.078
393.088
393.096
393.104
393.111
393.118
393.123
393.128
393.133
393.137
393.14
393.142
393.145
393.146
393.148
393.148
393.149
393.149
393.15
393.15
393.15
393.15
393.15
384.331
384.508
384.696
384.888
385.082
385.275
385.468
385.66
385.85
386.039
386.226
386.411
386.595
386.777
386.957
387.135
387.311
387.486
387.658
387.828
387.997
388.163
388.327
388.489
388.649
388.806
388.961
389.114
389.265
389.413
389.559
389.703
389.845
389.984
390.12
390.254
390.385
390.514
390.64
390.763
390.883
391
391.115
391.226
391.334
391.439
391.541
391.639
391.734
391.826
391.915
392
392.081
392.159
392.234
392.305
392.372
392.436
392.497
392.554
392.608
392.659
392.706
392.75
392.791
392.829
392.864
392.897
392.926
392.953
392.978
393
393.02
393.038
393.054
393.069
393.081
393.092
393.102
393.111
393.118
393.124
393.129
393.134
393.138
393.141
393.143
393.145
393.147
393.148
393.149
393.149
393.15
393.15
393.15
393.15
393.15
393.15
393.15
393.15
381.265
381.451
381.649
381.853
382.059
382.266
382.474
382.681
382.888
383.094
383.299
383.503
383.706
383.908
384.11
384.31
384.51
384.708
384.906
385.102
385.298
385.493
385.686
385.878
386.069
386.259
386.447
386.635
386.821
387.005
387.189
387.371
387.551
387.73
387.908
388.084
388.259
388.431
388.603
388.772
388.939
389.105
389.268
389.43
389.589
389.745
389.899
390.051
390.2
390.345
390.488
390.628
390.765
390.898
391.028
391.154
391.276
391.395
391.509
391.62
391.726
391.828
391.926
392.019
392.108
392.193
392.273
392.349
392.421
392.488
392.551
392.61
392.665
392.716
392.764
392.808
392.848
392.885
392.919
392.95
392.978
393.004
393.027
393.047
393.066
393.082
393.097
393.109
393.12
393.129
393.136
393.142
393.145
393.148
393.149
393.149
393.149
393.15
393.15
393.15
376.432
376.619
376.815
377.018
377.223
377.43
377.638
377.845
378.053
378.26
378.467
378.673
378.879
379.085
379.291
379.497
379.702
379.908
380.115
380.321
380.528
380.736
380.945
381.154
381.362
381.57
381.778
381.986
382.193
382.401
382.608
382.815
383.022
383.229
383.436
383.643
383.85
384.058
384.265
384.472
384.68
384.888
385.096
385.304
385.512
385.721
385.93
386.138
386.347
386.556
386.765
386.974
387.182
387.39
387.598
387.805
388.011
388.216
388.42
388.623
388.823
389.022
389.218
389.412
389.603
389.791
389.975
390.156
390.333
390.506
390.674
390.837
390.996
391.15
391.299
391.443
391.582
391.715
391.844
391.967
392.085
392.197
392.305
392.407
392.504
392.596
392.682
392.763
392.839
392.907
392.967
393.019
393.06
393.091
393.111
393.122
393.13
393.136
393.14
393.143
369.299
369.47
369.647
369.829
370.011
370.196
370.379
370.563
370.745
370.927
371.108
371.289
371.468
371.648
371.826
372.004
372.182
372.36
372.537
372.714
372.892
373.07
373.247
373.426
373.604
373.783
373.962
374.142
374.322
374.503
374.685
374.868
375.052
375.237
375.424
375.612
375.803
375.995
376.19
376.387
376.586
376.788
376.994
377.202
377.413
377.629
377.847
378.07
378.296
378.526
378.761
379
379.243
379.491
379.743
380
380.261
380.528
380.799
381.075
381.355
381.641
381.931
382.225
382.523
382.826
383.132
383.442
383.756
384.072
384.392
384.714
385.039
385.366
385.695
386.025
386.357
386.691
387.026
387.363
387.702
388.043
388.388
388.736
389.087
389.441
389.799
390.158
390.518
390.875
391.224
391.557
391.866
392.14
392.368
392.533
392.669
392.778
392.859
392.911
359.229
359.349
359.473
359.599
359.723
359.848
359.97
360.092
360.211
360.33
360.445
360.561
360.673
360.784
360.893
361.001
361.106
361.211
361.313
361.415
361.514
361.613
361.71
361.807
361.905
362.003
362.102
362.203
362.304
362.408
362.513
362.621
362.73
362.843
362.957
363.075
363.195
363.319
363.446
363.576
363.71
363.848
363.99
364.135
364.285
364.439
364.597
364.761
364.928
365.101
365.279
365.462
365.65
365.844
366.044
366.249
366.461
366.679
366.904
367.137
367.376
367.624
367.878
368.141
368.413
368.693
368.983
369.282
369.591
369.91
370.24
370.582
370.935
371.301
371.681
372.075
372.484
372.912
373.358
373.824
374.311
374.823
375.363
375.935
376.542
377.191
377.885
378.629
379.431
380.291
381.21
382.184
383.204
384.259
385.327
386.36
387.263
388.091
388.798
389.321
345.974
346.012
346.051
346.089
346.126
346.163
346.199
346.234
346.268
346.302
346.334
346.365
346.396
346.427
346.456
346.485
346.514
346.543
346.572
346.6
346.629
346.658
346.688
346.718
346.749
346.781
346.813
346.847
346.881
346.916
346.953
346.99
347.028
347.068
347.108
347.15
347.192
347.236
347.28
347.326
347.372
347.42
347.468
347.518
347.568
347.619
347.671
347.724
347.778
347.833
347.889
347.946
348.004
348.063
348.122
348.183
348.245
348.307
348.371
348.436
348.503
348.572
348.643
348.716
348.792
348.87
348.952
349.036
349.125
349.218
349.316
349.419
349.528
349.644
349.768
349.9
350.042
350.193
350.356
350.533
350.728
350.939
351.171
351.424
351.701
352.004
352.338
352.703
353.132
353.632
354.217
354.9
355.698
356.632
357.728
359.023
360.518
362.076
363.576
364.798
332.002
331.955
331.911
331.867
331.825
331.784
331.745
331.706
331.67
331.634
331.6
331.566
331.534
331.502
331.472
331.442
331.413
331.383
331.355
331.326
331.298
331.269
331.241
331.211
331.182
331.151
331.12
331.088
331.054
331.02
330.984
330.946
330.908
330.867
330.825
330.781
330.735
330.688
330.638
330.586
330.532
330.477
330.418
330.358
330.295
330.23
330.162
330.092
330.019
329.943
329.864
329.783
329.697
329.609
329.517
329.421
329.321
329.217
329.108
328.995
328.875
328.749
328.616
328.475
328.326
328.168
328.001
327.823
327.635
327.434
327.219
326.991
326.747
326.487
326.208
325.91
325.592
325.251
324.886
324.496
324.081
323.637
323.166
322.665
322.135
321.576
320.986
320.366
319.693
318.958
318.15
317.267
316.313
315.282
314.17
312.976
311.705
310.386
309.086
307.938
320.765
320.652
320.538
320.421
320.306
320.189
320.074
319.959
319.846
319.732
319.621
319.508
319.398
319.288
319.179
319.069
318.961
318.853
318.745
318.637
318.529
318.421
318.313
318.204
318.095
317.985
317.874
317.762
317.65
317.535
317.42
317.303
317.184
317.063
316.94
316.815
316.687
316.557
316.424
316.289
316.15
316.008
315.862
315.713
315.56
315.404
315.243
315.077
314.908
314.733
314.554
314.369
314.179
313.984
313.782
313.575
313.362
313.142
312.915
312.68
312.437
312.185
311.923
311.652
311.371
311.078
310.773
310.456
310.126
309.782
309.423
309.049
308.659
308.252
307.828
307.386
306.927
306.449
305.953
305.439
304.908
304.361
303.799
303.223
302.636
302.041
301.44
300.836
300.236
299.642
299.061
298.492
297.921
297.361
296.82
296.305
295.826
295.396
295.033
294.763
312.407
312.264
312.114
311.96
311.805
311.647
311.491
311.332
311.175
311.016
310.859
310.701
310.543
310.385
310.227
310.069
309.911
309.752
309.594
309.435
309.276
309.116
308.956
308.795
308.633
308.471
308.308
308.144
307.979
307.813
307.645
307.477
307.307
307.135
306.962
306.787
306.61
306.431
306.251
306.068
305.883
305.696
305.506
305.314
305.119
304.922
304.722
304.519
304.313
304.105
303.893
303.677
303.459
303.237
303.012
302.783
302.55
302.314
302.074
301.83
301.582
301.331
301.076
300.817
300.554
300.288
300.018
299.744
299.468
299.188
298.905
298.62
298.334
298.045
297.756
297.466
297.177
296.889
296.603
296.321
296.044
295.773
295.509
295.255
295.011
294.779
294.561
294.358
294.171
294.003
293.854
293.726
293.619
293.527
293.448
293.381
293.326
293.283
293.251
293.23
306.356
306.211
306.056
305.895
305.731
305.566
305.399
305.232
305.065
304.897
304.729
304.561
304.394
304.226
304.058
303.89
303.722
303.554
303.385
303.217
303.048
302.878
302.709
302.539
302.369
302.198
302.027
301.855
301.683
301.511
301.338
301.165
300.991
300.817
300.643
300.468
300.293
300.118
299.942
299.766
299.59
299.414
299.238
299.062
298.886
298.711
298.536
298.361
298.186
298.013
297.84
297.667
297.496
297.325
297.155
296.987
296.819
296.653
296.489
296.326
296.166
296.007
295.851
295.697
295.547
295.399
295.254
295.112
294.974
294.84
294.709
294.583
294.461
294.343
294.231
294.123
294.02
293.922
293.83
293.744
293.663
293.589
293.521
293.459
293.404
293.355
293.312
293.276
293.246
293.221
293.201
293.186
293.176
293.169
293.163
293.159
293.156
293.154
293.153
293.152
302.268
302.132
301.985
301.833
301.678
301.521
301.363
301.205
301.047
300.889
300.732
300.574
300.417
300.261
300.105
299.949
299.793
299.639
299.484
299.33
299.177
299.023
298.871
298.719
298.568
298.417
298.267
298.118
297.97
297.823
297.676
297.53
297.386
297.242
297.1
296.959
296.819
296.681
296.544
296.409
296.276
296.145
296.015
295.888
295.763
295.64
295.519
295.401
295.285
295.172
295.062
294.955
294.85
294.749
294.65
294.555
294.463
294.374
294.288
294.206
294.127
294.052
293.98
293.911
293.846
293.784
293.726
293.67
293.619
293.57
293.525
293.482
293.443
293.407
293.373
293.343
293.315
293.29
293.268
293.247
293.23
293.214
293.201
293.19
293.18
293.172
293.166
293.161
293.158
293.155
293.153
293.152
293.151
293.151
293.15
293.15
293.15
293.15
293.15
293.15
299.574
299.453
299.322
299.186
299.048
298.909
298.77
298.63
298.492
298.354
298.216
298.08
297.944
297.809
297.676
297.543
297.411
297.281
297.151
297.023
296.896
296.77
296.646
296.523
296.402
296.282
296.164
296.047
295.933
295.82
295.709
295.6
295.492
295.387
295.283
295.182
295.083
294.986
294.892
294.799
294.71
294.622
294.538
294.456
294.376
294.299
294.225
294.154
294.086
294.02
293.957
293.897
293.84
293.785
293.734
293.685
293.639
293.595
293.554
293.516
293.48
293.447
293.416
293.387
293.361
293.337
293.314
293.294
293.276
293.259
293.244
293.23
293.218
293.207
293.198
293.19
293.183
293.176
293.171
293.167
293.163
293.16
293.157
293.155
293.154
293.153
293.152
293.151
293.151
293.15
293.15
293.15
293.15
293.15
293.15
293.15
293.15
293.15
293.15
293.15
297.748
297.643
297.53
297.415
297.298
297.181
297.064
296.949
296.834
296.72
296.607
296.495
296.385
296.276
296.168
296.062
295.957
295.853
295.751
295.651
295.552
295.455
295.359
295.266
295.174
295.083
294.995
294.908
294.824
294.741
294.66
294.582
294.505
294.431
294.359
294.289
294.221
294.156
294.093
294.033
293.974
293.918
293.865
293.813
293.764
293.718
293.673
293.631
293.592
293.554
293.519
293.486
293.455
293.426
293.399
293.374
293.35
293.329
293.309
293.291
293.275
293.259
293.246
293.233
293.222
293.212
293.203
293.195
293.188
293.182
293.177
293.172
293.168
293.165
293.162
293.16
293.157
293.156
293.154
293.153
293.152
293.152
293.151
293.151
293.151
293.15
293.15
293.15
293.15
293.15
293.15
293.15
293.15
293.15
293.15
293.15
293.15
293.15
293.15
293.15
296.452
296.364
296.27
296.175
296.08
295.986
295.893
295.8
295.709
295.619
295.53
295.443
295.356
295.272
295.188
295.107
295.026
294.947
294.87
294.794
294.72
294.648
294.577
294.508
294.44
294.374
294.31
294.248
294.187
294.128
294.072
294.017
293.964
293.913
293.864
293.817
293.772
293.729
293.687
293.648
293.611
293.575
293.541
293.51
293.48
293.451
293.425
293.4
293.376
293.355
293.335
293.316
293.298
293.282
293.268
293.254
293.242
293.231
293.221
293.212
293.204
293.196
293.19
293.184
293.179
293.174
293.17
293.167
293.164
293.161
293.159
293.158
293.156
293.155
293.154
293.153
293.152
293.152
293.151
293.151
293.151
293.15
293.15
293.15
293.15
293.15
293.15
293.15
293.15
293.15
293.15
293.15
293.15
293.15
293.15
293.15
293.15
293.15
293.15
293.15
295.5
295.428
295.353
295.278
295.204
295.13
295.057
294.985
294.915
294.846
294.778
294.711
294.646
294.582
294.52
294.458
294.399
294.34
294.283
294.228
294.174
294.121
294.07
294.021
293.973
293.926
293.881
293.838
293.796
293.756
293.717
293.68
293.645
293.611
293.579
293.548
293.518
293.491
293.464
293.439
293.416
293.393
293.372
293.353
293.334
293.317
293.301
293.286
293.273
293.26
293.248
293.237
293.228
293.219
293.21
293.203
293.196
293.19
293.185
293.18
293.176
293.172
293.168
293.166
293.163
293.161
293.159
293.157
293.156
293.155
293.154
293.153
293.152
293.152
293.151
293.151
293.151
293.151
293.15
293.15
293.15
293.15
293.15
293.15
293.15
293.15
293.15
293.15
293.15
293.15
293.15
293.15
293.15
293.15
293.15
293.15
293.15
293.15
293.15
293.15
294.652
294.599
294.545
294.491
294.438
294.386
294.335
294.285
294.236
294.188
294.141
294.096
294.051
294.008
293.966
293.925
293.886
293.847
293.81
293.774
293.74
293.706
293.674
293.642
293.612
293.584
293.556
293.53
293.504
293.48
293.457
293.435
293.415
293.395
293.376
293.359
293.342
293.326
293.312
293.298
293.285
293.273
293.261
293.251
293.241
293.232
293.224
293.216
293.209
293.202
293.197
293.191
293.186
293.182
293.178
293.174
293.171
293.168
293.166
293.163
293.161
293.16
293.158
293.157
293.156
293.155
293.154
293.153
293.152
293.152
293.152
293.151
293.151
293.151
293.151
293.15
293.15
293.15
293.15
293.15
293.15
293.15
293.15
293.15
293.15
293.15
293.15
293.15
293.15
293.15
293.15
293.15
293.15
293.15
293.15
293.15
293.15
293.15
293.15
293.15
393.15
393.15
393.15
393.15
393.15
393.15
393.15
393.15
393.15
393.15
393.15
393.15
393.15
393.15
393.15
393.15
393.15
393.15
393.15
393.15
393.15
393.15
393.15
393.15
393.15
393.15
393.15
393.15
393.15
393.15
393.15
393.15
393.15
393.15
393.15
393.15
393.15
393.15
393.15
393.15
393.15
393.15
393.15
393.15
393.15
393.15
393.15
393.15
393.15
393.15
393.15
393.15
393.15
393.15
393.15
393.15
393.15
393.15
393.15
393.149
393.15
393.15
393.15
393.15
393.15
393.15
393.15
393.15
393.15
393.15
393.15
393.15
393.15
393.15
393.15
393.15
393.149
393.148
393.146
393.135
393.15
393.15
393.15
393.15
393.15
393.15
393.15
393.15
393.15
393.15
393.15
393.15
393.149
393.149
393.148
393.146
393.141
393.13
393.097
392.952
393.15
393.15
393.15
393.15
393.149
393.149
393.149
393.148
393.148
393.147
393.146
393.145
393.143
393.138
393.131
393.114
393.077
392.982
392.669
391.104
393.142
393.141
393.138
393.136
393.132
393.128
393.124
393.12
393.117
393.114
393.11
393.103
393.09
393.067
393.022
392.929
392.719
392.161
390.213
379.476
392.911
392.883
392.853
392.819
392.786
392.758
392.739
392.736
392.742
392.748
392.749
392.737
392.705
392.629
392.466
392.12
391.348
389.371
382.809
346.914
389.438
389.273
389.117
388.968
388.855
388.844
388.899
389.025
389.149
389.288
389.422
389.56
389.659
389.683
389.414
388.602
386.63
382.118
370.824
316.159
365.211
364.883
364.57
364.297
364.127
364.203
364.363
364.537
364.764
365.1
365.507
366.077
366.698
367.528
368.002
367.664
365.04
358.71
344.65
316.059
307.412
307.577
307.697
307.777
307.755
307.471
307.101
306.719
306.317
305.846
305.335
304.704
304.007
303.114
302.485
302.259
302.862
303.794
303.814
303.748
294.685
294.752
294.812
294.867
294.902
294.884
294.831
294.735
294.638
294.532
294.425
294.3
294.182
294.046
293.953
293.913
293.959
294.054
294.175
297.777
293.228
293.237
293.247
293.258
293.268
293.276
293.28
293.277
293.269
293.258
293.247
293.235
293.225
293.215
293.209
293.208
293.213
293.234
293.347
294.722
293.152
293.152
293.153
293.154
293.154
293.155
293.156
293.157
293.157
293.156
293.156
293.155
293.154
293.154
293.154
293.154
293.155
293.16
293.181
293.387
293.15
293.15
293.15
293.15
293.15
293.15
293.15
293.15
293.15
293.15
293.15
293.15
293.15
293.15
293.15
293.15
293.15
293.151
293.151
293.154
293.15
293.15
293.15
293.15
293.15
293.15
293.15
293.15
293.15
293.15
293.15
293.15
293.15
293.15
293.15
293.15
293.15
293.15
293.15
293.15
293.15
293.15
293.15
293.15
293.15
293.15
293.15
293.15
293.15
293.15
293.15
293.15
293.15
293.15
293.15
293.15
293.15
293.15
293.15
293.15
293.15
293.15
293.15
293.15
293.15
293.15
293.15
293.15
293.15
293.15
293.15
293.15
293.15
293.15
293.15
293.15
293.15
293.15
293.15
293.15
293.15
293.15
293.15
293.15
293.15
293.15
293.15
293.15
293.15
293.15
293.15
293.15
293.15
293.15
293.15
293.15
293.15
293.15
293.15
293.15
293.15
293.15
293.15
293.15
293.15
293.15
293.15
293.15
293.15
293.15
293.15
293.15
293.15
293.15
293.15
293.15
293.15
293.15
293.15
293.15
393.15
393.15
393.15
393.15
393.15
393.15
393.15
393.15
393.15
393.15
393.15
393.15
393.15
393.15
393.15
393.15
393.15
393.15
393.15
393.15
393.15
393.15
393.15
393.15
393.15
393.15
393.15
393.15
393.15
393.15
393.15
393.15
393.15
393.15
393.15
393.15
393.15
393.15
393.15
393.15
393.15
393.15
393.15
393.15
393.15
393.15
393.15
393.15
393.15
393.15
393.15
393.15
393.15
393.15
393.15
393.15
393.15
393.15
393.15
393.15
393.15
393.15
393.15
393.15
393.15
393.15
393.15
393.15
393.15
393.15
393.15
393.15
393.15
393.15
393.15
393.15
393.15
393.15
393.15
393.15
393.15
393.15
393.15
393.15
393.15
393.15
393.15
393.15
393.15
393.15
393.15
393.15
393.15
393.15
393.15
393.15
393.15
393.15
393.15
393.15
393.15
393.15
393.15
393.15
393.15
393.15
393.15
393.15
393.15
393.15
393.15
393.15
393.15
393.15
393.15
393.15
393.15
393.15
393.15
393.15
393.15
393.15
393.15
393.15
393.15
393.15
393.15
393.15
393.15
393.15
393.15
393.15
393.15
393.15
393.15
393.15
393.15
393.15
393.15
393.15
393.15
393.15
393.15
393.15
393.15
393.15
393.15
393.15
393.15
393.15
393.15
393.15
393.15
393.15
393.15
393.15
393.15
393.15
393.15
393.15
393.15
393.15
393.15
393.15
393.15
393.15
393.15
393.15
393.15
393.15
393.15
393.15
393.15
393.15
393.15
393.15
393.15
393.15
393.15
393.15
393.15
393.15
393.15
393.15
393.15
393.15
393.15
393.15
393.15
393.15
393.15
393.15
393.15
393.15
393.15
393.15
393.15
393.15
393.15
393.15
393.15
393.15
393.15
393.15
393.15
393.15
393.15
393.15
393.15
393.15
393.15
393.15
393.15
393.15
393.15
393.15
393.15
393.15
393.15
393.15
393.15
393.15
393.15
393.15
393.15
393.15
393.15
393.15
393.15
393.15
393.15
393.15
393.15
393.15
393.15
393.15
393.15
393.15
393.15
393.15
393.15
393.15
393.15
393.15
393.15
393.15
393.15
393.15
393.15
393.15
393.15
393.15
393.15
393.15
393.15
393.15
393.15
393.15
393.15
393.15
393.15
393.15
393.15
393.15
393.15
393.15
393.15
393.15
393.15
393.15
393.15
393.15
393.15
393.15
393.15
393.15
393.15
393.15
393.15
393.15
393.15
393.15
393.15
393.15
393.15
393.15
393.15
393.15
393.15
393.15
393.15
393.15
393.15
393.15
393.15
393.15
393.15
393.15
393.15
393.15
393.15
393.15
393.15
393.15
393.15
393.15
393.15
393.15
393.15
393.15
393.15
393.15
393.15
393.15
393.15
393.15
393.15
393.15
393.15
393.15
393.15
393.15
393.15
393.15
393.15
393.15
393.15
393.15
393.15
393.15
393.15
393.15
393.15
393.15
393.15
393.15
393.15
393.15
393.15
393.15
393.15
393.15
393.15
393.15
393.15
393.15
393.15
393.15
393.15
393.15
393.15
393.15
393.15
393.15
393.15
393.15
393.15
393.15
393.15
393.15
393.15
393.15
393.15
393.15
393.15
393.15
393.15
393.15
393.15
393.15
393.15
393.15
393.15
393.15
393.15
393.15
393.15
393.15
393.15
393.15
393.15
393.15
393.15
393.15
393.15
393.15
393.15
393.15
393.15
393.15
393.15
393.15
393.15
393.15
393.15
393.15
393.15
393.15
393.15
393.15
393.15
393.15
393.15
393.15
393.15
393.15
393.15
393.15
393.15
393.15
393.15
393.15
393.15
393.15
393.15
393.15
393.15
393.15
393.15
393.15
393.15
393.15
393.15
393.15
393.15
393.15
393.15
393.15
393.15
393.15
393.15
393.15
393.15
393.15
393.15
393.15
393.15
393.15
393.15
393.15
393.15
393.15
393.15
393.15
393.15
393.15
393.15
393.15
393.15
393.15
393.15
393.15
393.15
393.15
393.15
393.15
393.15
393.15
393.15
393.15
393.15
393.15
393.15
393.15
393.15
393.15
393.15
393.15
393.15
393.15
393.15
393.15
393.15
393.15
393.15
393.15
393.15
393.15
393.15
393.15
393.15
393.15
393.15
393.15
393.15
393.15
393.15
393.15
393.15
393.15
393.15
393.15
393.15
393.15
393.15
393.15
393.15
393.15
393.15
393.15
393.15
393.15
393.15
393.15
393.15
393.15
393.15
393.15
393.15
393.15
393.15
393.15
393.15
393.15
393.15
393.15
393.15
393.15
393.15
393.15
393.15
393.15
393.15
393.15
393.15
393.15
393.15
393.15
393.15
393.15
393.15
393.15
393.15
393.15
393.15
393.15
393.15
393.15
393.15
393.15
393.15
393.15
393.15
393.15
393.15
393.15
393.15
393.15
393.15
393.15
393.15
393.15
393.15
393.15
393.15
393.15
393.15
393.15
393.15
393.15
393.15
393.15
393.15
393.15
393.15
393.15
393.15
393.15
393.15
393.15
393.15
393.15
393.15
393.15
393.15
393.15
393.15
393.15
393.15
393.15
393.15
393.15
393.15
393.15
393.15
393.15
393.15
393.15
393.15
393.15
393.15
393.15
393.15
393.15
393.15
393.15
393.15
393.15
393.15
393.15
393.15
393.15
393.15
393.15
393.15
393.15
393.15
393.15
393.15
393.15
393.15
393.15
393.15
393.15
393.15
393.15
393.15
393.15
393.15
393.15
393.15
393.15
393.15
393.15
393.15
393.15
393.15
393.15
393.15
393.15
393.15
393.15
393.15
393.15
393.15
393.15
393.15
393.15
393.15
393.15
393.15
393.15
393.15
393.15
393.15
393.15
393.15
393.15
393.15
393.15
393.15
393.15
393.15
393.15
393.15
393.15
393.15
393.15
393.15
393.15
393.15
393.15
393.15
393.15
393.15
393.15
393.15
393.15
393.15
393.15
393.15
393.15
393.15
393.15
393.15
393.15
393.15
393.15
393.15
393.15
393.15
393.15
393.15
393.15
393.15
393.15
393.15
393.15
393.15
393.15
393.15
393.15
393.15
393.15
393.15
393.15
393.15
393.15
393.15
393.15
393.15
393.15
393.15
393.15
393.15
393.15
393.15
393.15
393.15
393.15
393.15
393.15
393.15
393.15
393.15
393.15
393.15
393.15
393.15
393.15
393.15
393.15
393.15
393.15
393.15
393.15
393.15
393.15
393.15
393.15
393.15
393.15
393.15
393.15
393.15
393.15
393.15
393.15
393.15
393.15
393.15
393.15
393.15
393.15
393.15
393.15
393.15
393.15
393.15
393.15
393.15
393.15
393.15
393.15
393.15
393.15
393.15
393.15
393.15
393.15
393.15
393.15
393.15
393.15
393.15
393.15
393.15
393.15
393.15
393.15
393.15
393.15
393.15
393.15
393.15
393.15
393.15
393.15
393.15
393.15
393.15
393.15
393.15
393.15
393.15
393.15
393.15
393.15
393.15
393.15
393.15
393.15
393.15
393.15
393.15
393.15
393.15
393.15
393.15
393.15
393.15
393.15
393.15
393.15
393.15
393.15
393.15
393.15
393.15
393.15
393.15
393.15
393.15
393.15
393.15
393.15
393.15
393.15
393.15
393.15
393.15
393.15
393.15
393.15
393.15
393.15
393.15
393.15
393.15
393.15
393.15
393.15
393.15
393.15
393.15
393.15
393.15
393.15
393.15
393.15
393.15
393.15
393.15
393.15
393.15
393.15
393.15
393.15
393.15
393.15
393.15
393.15
393.15
393.15
393.15
393.15
393.15
393.15
393.15
393.15
393.15
393.15
393.15
393.15
393.15
393.15
393.15
393.15
393.15
393.15
393.15
393.15
393.15
393.15
393.15
393.15
393.15
393.15
393.15
393.15
393.15
393.15
393.15
393.15
393.15
393.15
393.15
393.15
393.15
393.15
393.15
393.15
393.15
393.15
393.15
393.15
393.15
393.15
393.15
393.15
393.15
393.15
393.15
393.15
393.15
393.15
393.15
393.15
393.15
393.15
393.15
393.15
393.15
393.15
393.15
393.15
393.15
393.15
393.15
393.15
393.15
393.15
393.15
393.15
393.15
393.15
393.15
393.15
393.15
393.15
393.15
393.15
393.15
393.15
393.15
393.15
393.15
393.15
393.15
393.15
393.15
393.15
393.15
393.15
393.15
393.15
393.15
393.15
393.15
393.15
393.15
393.15
393.15
393.15
393.15
393.15
393.15
393.15
393.15
393.15
393.15
393.15
393.15
393.15
393.15
393.15
393.15
393.15
393.15
393.15
393.15
393.15
393.15
393.15
393.15
393.15
393.15
393.15
393.15
393.15
393.15
393.15
393.15
393.15
393.15
393.15
393.15
393.15
393.15
393.15
393.15
393.15
393.15
393.15
393.15
393.15
393.15
393.15
393.15
393.15
393.15
393.15
393.15
393.15
393.15
393.15
393.15
393.15
393.15
393.15
393.15
393.15
393.15
393.15
393.15
393.15
393.15
393.15
393.15
393.15
393.15
393.15
393.15
393.15
393.15
393.15
393.15
393.15
393.15
393.15
393.15
393.15
393.15
393.15
393.15
393.15
393.15
393.15
393.15
393.15
393.15
393.15
393.15
393.15
393.15
393.15
393.15
393.15
393.15
393.15
393.15
393.15
393.15
393.15
393.15
393.15
393.15
393.15
393.15
393.15
393.15
393.15
393.15
393.15
393.15
393.15
393.15
393.15
393.15
393.15
393.15
393.15
393.15
393.15
393.15
393.15
393.15
393.15
393.15
393.15
393.15
393.15
393.15
393.15
393.15
393.15
393.15
393.15
393.15
393.15
393.15
393.15
393.15
393.15
393.15
393.15
393.15
393.15
393.15
393.15
393.15
393.15
393.15
393.15
393.15
393.15
393.15
393.15
393.15
393.15
393.15
393.15
393.15
393.15
393.15
393.15
393.15
393.15
393.15
393.15
393.15
393.15
393.15
393.15
393.15
393.15
393.15
393.15
393.15
393.15
393.15
393.15
393.15
393.15
393.15
393.15
393.15
393.15
393.15
393.15
393.15
393.15
393.15
393.15
393.15
393.15
393.15
393.15
393.15
393.15
393.15
393.15
393.15
393.15
393.15
393.15
393.15
393.15
393.15
393.15
393.15
393.15
393.15
393.15
393.15
393.15
393.15
393.15
393.15
393.15
393.15
393.15
393.15
393.15
393.15
393.15
393.15
393.15
393.15
393.15
393.15
393.15
393.15
393.15
393.15
393.15
393.15
393.15
393.15
393.15
393.15
393.15
393.15
393.15
393.15
393.15
393.15
393.15
393.15
393.15
393.15
393.15
393.15
393.15
393.15
393.15
393.15
393.15
393.15
393.15
393.15
393.15
393.15
393.15
393.15
393.15
393.15
393.15
393.15
393.15
393.15
393.15
393.15
393.15
393.15
393.15
393.15
393.15
393.15
393.15
393.15
393.15
393.15
393.15
393.15
393.15
393.15
393.15
393.15
393.15
393.15
393.15
393.15
393.15
393.15
393.15
393.15
393.15
393.15
393.15
393.15
393.15
393.15
393.15
393.15
393.15
393.15
393.15
393.15
393.15
393.15
393.15
393.15
393.15
393.15
393.15
393.15
393.15
393.15
393.15
393.15
393.15
393.15
393.15
393.15
393.15
393.15
393.15
393.15
393.15
393.15
393.15
393.15
393.15
393.15
393.15
393.15
393.15
393.15
393.15
393.15
393.15
393.15
393.15
393.15
393.15
393.15
393.15
393.15
393.15
393.15
393.15
393.15
393.15
393.15
393.15
393.15
393.15
393.15
393.15
393.15
393.15
393.15
393.15
393.15
393.15
393.15
393.15
393.15
393.15
393.15
393.15
393.15
393.15
393.15
393.15
393.15
393.15
393.15
393.15
393.15
393.15
393.15
393.15
393.15
393.15
393.15
393.15
393.15
393.15
393.15
393.15
393.15
393.15
393.15
393.15
393.15
393.15
393.15
393.15
393.15
393.15
393.15
393.15
393.15
393.15
393.15
393.15
393.15
393.15
393.15
393.15
393.15
393.15
393.15
393.15
393.15
393.15
393.15
393.15
393.15
393.15
393.15
393.15
393.15
393.15
393.15
393.15
393.15
393.15
393.15
393.15
393.15
393.15
393.15
393.15
393.15
393.15
393.15
393.15
393.15
393.15
393.15
393.15
393.15
393.15
393.15
393.15
393.15
393.15
393.15
393.15
393.15
393.15
393.15
393.15
393.15
393.15
393.15
393.15
393.15
393.15
393.15
393.15
393.15
393.15
393.15
393.15
393.15
393.15
393.15
393.15
393.15
393.15
393.15
393.15
393.15
393.15
393.15
393.15
393.15
393.15
393.15
393.15
393.15
393.15
393.15
393.15
393.15
393.15
393.15
393.15
393.15
393.15
393.15
393.15
393.15
393.15
393.15
393.15
393.15
393.15
393.15
393.15
393.15
393.15
393.15
393.15
393.15
393.15
393.15
393.15
393.15
393.15
393.15
393.15
393.15
393.15
393.15
393.15
393.15
393.15
393.15
393.15
393.15
393.15
393.15
393.15
393.15
393.15
393.15
393.15
393.15
393.15
393.15
393.15
393.15
393.15
393.15
393.15
393.15
393.15
393.15
393.15
393.15
393.15
393.15
393.15
393.15
393.15
393.15