/*--------------------------------*- C++ -*----------------------------------*\
| =========                 |                                                 |
| \\      /  F ield         | OpenFOAM: The Open Source CFD Toolbox           |
|  \\    /   O peration     | Version:  2.1.0                                 |
|   \\  /    A nd           | Web:      www.OpenFOAM.org                      |
|    \\/     M anipulation  |                                                 |
\*---------------------------------------------------------------------------*/
FoamFile
{
    version     2.0;
    format      ascii;
    class       volVectorField;
    location    "0.44";
    object      U;
}
// * * * * * * * * * * * * * * * * * * * * * * * * * * * * * * * * * * * * * //

dimensions      [0 1 -1 0 0 0 0];

internalField   nonuniform List<vector> 
6400
(
(-1.30154 -4.76209e-05 0)
(-1.30039 -0.000501905 0)
(-1.29802 -0.000792021 0)
(-1.2947 -0.000939678 0)
(-1.29092 -0.00102695 0)
(-1.28684 -0.00108554 0)
(-1.28256 -0.00112779 0)
(-1.27813 -0.00116102 0)
(-1.27357 -0.00118907 0)
(-1.2689 -0.00121439 0)
(-1.26414 -0.00123825 0)
(-1.25928 -0.00126149 0)
(-1.25432 -0.00128456 0)
(-1.24927 -0.00130768 0)
(-1.24413 -0.00133109 0)
(-1.23889 -0.00135479 0)
(-1.23355 -0.00137893 0)
(-1.22812 -0.00140343 0)
(-1.22258 -0.00142842 0)
(-1.21695 -0.00145375 0)
(-1.21121 -0.00147952 0)
(-1.20536 -0.00150554 0)
(-1.19941 -0.00153213 0)
(-1.19335 -0.00155929 0)
(-1.18719 -0.00158639 0)
(-1.18091 -0.00161421 0)
(-1.17451 -0.0016439 0)
(-1.168 -0.00167463 0)
(-1.16136 -0.00170632 0)
(-1.15459 -0.00173891 0)
(-1.14769 -0.00177256 0)
(-1.14065 -0.00180727 0)
(-1.13347 -0.0018432 0)
(-1.12615 -0.0018804 0)
(-1.11867 -0.001919 0)
(-1.11104 -0.00195897 0)
(-1.10324 -0.00200045 0)
(-1.09528 -0.00204348 0)
(-1.08714 -0.00208821 0)
(-1.07882 -0.0021348 0)
(-1.07031 -0.00218354 0)
(-1.0616 -0.00223439 0)
(-1.05269 -0.00228746 0)
(-1.04356 -0.00234286 0)
(-1.03421 -0.00240063 0)
(-1.02462 -0.0024608 0)
(-1.01479 -0.0025234 0)
(-1.00471 -0.00258834 0)
(-0.994363 -0.00265548 0)
(-0.983748 -0.002725 0)
(-0.972854 -0.00279607 0)
(-0.961678 -0.00286743 0)
(-0.950212 -0.00294298 0)
(-0.938434 -0.00302461 0)
(-0.926324 -0.00311038 0)
(-0.91387 -0.00319846 0)
(-0.901075 -0.00328452 0)
(-0.887944 -0.00336725 0)
(-0.874489 -0.0034487 0)
(-0.860708 -0.00353114 0)
(-0.846599 -0.00361546 0)
(-0.832151 -0.00370174 0)
(-0.817358 -0.0037907 0)
(-0.802206 -0.00388307 0)
(-0.786682 -0.00397901 0)
(-0.77077 -0.00407908 0)
(-0.754455 -0.00418361 0)
(-0.737716 -0.00429337 0)
(-0.720532 -0.00440882 0)
(-0.70288 -0.00453036 0)
(-0.684736 -0.00465833 0)
(-0.666073 -0.00479339 0)
(-0.646862 -0.004936 0)
(-0.627071 -0.00508702 0)
(-0.606667 -0.00524737 0)
(-0.585609 -0.00541828 0)
(-0.563853 -0.00560134 0)
(-0.541347 -0.00579856 0)
(-0.518031 -0.00601287 0)
(-0.493827 -0.00624851 0)
(-0.468643 -0.00651064 0)
(-0.442361 -0.00680574 0)
(-0.414834 -0.00714223 0)
(-0.385883 -0.00752946 0)
(-0.355293 -0.00797477 0)
(-0.32283 -0.00848086 0)
(-0.288266 -0.00904298 0)
(-0.251423 -0.00964024 0)
(-0.212265 -0.0102212 0)
(-0.171076 -0.0106744 0)
(-0.128806 -0.0107733 0)
(-0.0877249 -0.0100717 0)
(-0.0519865 -0.0080572 0)
(-0.0267302 -0.00474424 0)
(-0.0155527 -0.000915587 0)
(-0.0201378 0.00322308 0)
(-0.0489251 0.011349 0)
(-0.129038 0.0292108 0)
(-0.328825 0.071159 0)
(-0.948387 0.19898 0)
(-1.56867 -0.000333247 0)
(-1.56554 -0.00165389 0)
(-1.56339 -0.00241128 0)
(-1.55993 -0.00281456 0)
(-1.55611 -0.00305865 0)
(-1.55203 -0.00322314 0)
(-1.54779 -0.00334191 0)
(-1.54342 -0.00343517 0)
(-1.53894 -0.00351394 0)
(-1.53437 -0.00358487 0)
(-1.52972 -0.00365181 0)
(-1.52498 -0.00371692 0)
(-1.52017 -0.00378167 0)
(-1.51528 -0.00384658 0)
(-1.5103 -0.00391242 0)
(-1.50525 -0.00397914 0)
(-1.50011 -0.00404723 0)
(-1.49489 -0.00411645 0)
(-1.48958 -0.00418715 0)
(-1.48418 -0.00425899 0)
(-1.47869 -0.00433215 0)
(-1.47311 -0.00440612 0)
(-1.46744 -0.00448142 0)
(-1.46167 -0.00455852 0)
(-1.45581 -0.00463474 0)
(-1.44985 -0.00471196 0)
(-1.4438 -0.00479421 0)
(-1.43766 -0.00487866 0)
(-1.43141 -0.00496536 0)
(-1.42507 -0.00505424 0)
(-1.41862 -0.00514574 0)
(-1.41207 -0.00523989 0)
(-1.40542 -0.00533708 0)
(-1.39865 -0.00543746 0)
(-1.39178 -0.00554132 0)
(-1.38479 -0.00564868 0)
(-1.37768 -0.00575987 0)
(-1.37046 -0.00587509 0)
(-1.3631 -0.00599464 0)
(-1.35562 -0.00611863 0)
(-1.34801 -0.00624788 0)
(-1.34026 -0.00638246 0)
(-1.33237 -0.00652262 0)
(-1.32434 -0.00666876 0)
(-1.31615 -0.00682104 0)
(-1.3078 -0.00697969 0)
(-1.29929 -0.00714489 0)
(-1.29061 -0.00731668 0)
(-1.28175 -0.00749491 0)
(-1.2727 -0.00768012 0)
(-1.26345 -0.0078709 0)
(-1.25399 -0.00806293 0)
(-1.24435 -0.00825946 0)
(-1.23451 -0.00846313 0)
(-1.22451 -0.00867227 0)
(-1.21435 -0.00888563 0)
(-1.20404 -0.00909808 0)
(-1.19354 -0.00930634 0)
(-1.18286 -0.00951258 0)
(-1.172 -0.00972099 0)
(-1.16095 -0.00993366 0)
(-1.14972 -0.0101511 0)
(-1.1383 -0.0103746 0)
(-1.12669 -0.0106054 0)
(-1.11488 -0.0108441 0)
(-1.10288 -0.0110917 0)
(-1.09067 -0.0113493 0)
(-1.07826 -0.0116185 0)
(-1.06564 -0.0119006 0)
(-1.05279 -0.012197 0)
(-1.03972 -0.012509 0)
(-1.0264 -0.0128385 0)
(-1.01283 -0.0131874 0)
(-0.998974 -0.0135581 0)
(-0.984822 -0.0139539 0)
(-0.970342 -0.0143783 0)
(-0.955498 -0.0148363 0)
(-0.940251 -0.0153335 0)
(-0.924553 -0.0158776 0)
(-0.908346 -0.0164797 0)
(-0.891564 -0.0171524 0)
(-0.874128 -0.0179109 0)
(-0.855954 -0.0187741 0)
(-0.836946 -0.0197627 0)
(-0.817 -0.020893 0)
(-0.79601 -0.0221705 0)
(-0.77388 -0.0235795 0)
(-0.750559 -0.0250632 0)
(-0.726088 -0.0264896 0)
(-0.700666 -0.0275881 0)
(-0.674754 -0.0278343 0)
(-0.649121 -0.0262747 0)
(-0.625139 -0.0216799 0)
(-0.605722 -0.0135018 0)
(-0.599852 -0.000944497 0)
(-0.615138 0.0132596 0)
(-0.663616 0.0398532 0)
(-0.767742 0.0921206 0)
(-0.970784 0.204424 0)
(-1.45954 0.526478 0)
(-1.71826 -0.000904033 0)
(-1.71422 -0.00288448 0)
(-1.71292 -0.00397204 0)
(-1.71 -0.00457855 0)
(-1.70677 -0.00495249 0)
(-1.70334 -0.00520473 0)
(-1.69977 -0.00538578 0)
(-1.6961 -0.00552745 0)
(-1.69235 -0.00564607 0)
(-1.68854 -0.00575263 0)
(-1.68465 -0.00585257 0)
(-1.68073 -0.00594973 0)
(-1.67674 -0.00604606 0)
(-1.6727 -0.0061428 0)
(-1.6686 -0.00624082 0)
(-1.66446 -0.00634045 0)
(-1.66025 -0.00644219 0)
(-1.65599 -0.00654601 0)
(-1.65166 -0.00665227 0)
(-1.64728 -0.00676084 0)
(-1.64283 -0.0068719 0)
(-1.63831 -0.0069849 0)
(-1.63372 -0.0071004 0)
(-1.62906 -0.00721955 0)
(-1.6243 -0.00733849 0)
(-1.61949 -0.00745711 0)
(-1.61458 -0.0075792 0)
(-1.60962 -0.00770249 0)
(-1.60459 -0.00782792 0)
(-1.5995 -0.00795589 0)
(-1.59434 -0.00808695 0)
(-1.58913 -0.00822128 0)
(-1.58385 -0.00835929 0)
(-1.57852 -0.00850118 0)
(-1.57312 -0.00864726 0)
(-1.56766 -0.00879762 0)
(-1.56214 -0.00895251 0)
(-1.55655 -0.00911231 0)
(-1.55091 -0.00927748 0)
(-1.54521 -0.00944752 0)
(-1.53945 -0.0096235 0)
(-1.53363 -0.00980567 0)
(-1.52776 -0.00999418 0)
(-1.52183 -0.0101896 0)
(-1.51586 -0.0103921 0)
(-1.50983 -0.0106019 0)
(-1.50375 -0.0108194 0)
(-1.49764 -0.0110447 0)
(-1.49148 -0.0112776 0)
(-1.48529 -0.0115184 0)
(-1.47906 -0.0117656 0)
(-1.4728 -0.0120154 0)
(-1.46654 -0.0122655 0)
(-1.46025 -0.0125145 0)
(-1.45395 -0.0127631 0)
(-1.44765 -0.0130133 0)
(-1.44137 -0.0132664 0)
(-1.43509 -0.0135194 0)
(-1.42882 -0.0137706 0)
(-1.42254 -0.0140225 0)
(-1.41629 -0.0142768 0)
(-1.41005 -0.0145344 0)
(-1.40384 -0.0147961 0)
(-1.39768 -0.0150623 0)
(-1.39158 -0.0153338 0)
(-1.38555 -0.0156113 0)
(-1.37961 -0.0158958 0)
(-1.37377 -0.0161883 0)
(-1.36806 -0.0164904 0)
(-1.3625 -0.0168037 0)
(-1.3571 -0.0171302 0)
(-1.35188 -0.0174725 0)
(-1.34688 -0.0178329 0)
(-1.3421 -0.0182154 0)
(-1.33757 -0.0186249 0)
(-1.33329 -0.0190669 0)
(-1.32929 -0.0195491 0)
(-1.32558 -0.0200802 0)
(-1.32214 -0.0206711 0)
(-1.31897 -0.0213376 0)
(-1.31607 -0.0220973 0)
(-1.31339 -0.0229693 0)
(-1.31093 -0.0239759 0)
(-1.30863 -0.0251405 0)
(-1.30647 -0.0264816 0)
(-1.30441 -0.028004 0)
(-1.30241 -0.0296815 0)
(-1.30049 -0.031431 0)
(-1.2987 -0.0330721 0)
(-1.29718 -0.0342575 0)
(-1.29618 -0.0343607 0)
(-1.29605 -0.0323367 0)
(-1.29731 -0.0266959 0)
(-1.30143 -0.0159403 0)
(-1.31042 0.00225122 0)
(-1.32757 0.0263785 0)
(-1.36706 0.0696462 0)
(-1.44336 0.149756 0)
(-1.58734 0.311573 0)
(-1.85838 0.719477 0)
(-1.85296 -0.00156826 0)
(-1.84865 -0.00388509 0)
(-1.84838 -0.00520969 0)
(-1.84636 -0.00597686 0)
(-1.84411 -0.00645446 0)
(-1.84171 -0.00677451 0)
(-1.8392 -0.00700112 0)
(-1.83664 -0.00717621 0)
(-1.83402 -0.00732016 0)
(-1.83138 -0.00744814 0)
(-1.8287 -0.00756644 0)
(-1.82602 -0.00768088 0)
(-1.8233 -0.00779328 0)
(-1.82058 -0.00790602 0)
(-1.81783 -0.00801959 0)
(-1.81509 -0.00813505 0)
(-1.81231 -0.00825255 0)
(-1.80954 -0.00837256 0)
(-1.80674 -0.00849521 0)
(-1.80395 -0.00862079 0)
(-1.80114 -0.00874944 0)
(-1.79832 -0.0088806 0)
(-1.79549 -0.00901502 0)
(-1.79266 -0.00915287 0)
(-1.7898 -0.00929271 0)
(-1.78698 -0.00943317 0)
(-1.78413 -0.00957301 0)
(-1.78127 -0.00971211 0)
(-1.77841 -0.00985222 0)
(-1.77554 -0.0099942 0)
(-1.77268 -0.0101386 0)
(-1.76983 -0.0102857 0)
(-1.76698 -0.0104357 0)
(-1.76415 -0.0105889 0)
(-1.76133 -0.0107455 0)
(-1.75853 -0.0109053 0)
(-1.75574 -0.0110684 0)
(-1.75299 -0.011235 0)
(-1.75027 -0.0114057 0)
(-1.74758 -0.0115798 0)
(-1.74494 -0.0117579 0)
(-1.74235 -0.0119401 0)
(-1.73981 -0.0121262 0)
(-1.73734 -0.0123166 0)
(-1.73495 -0.0125111 0)
(-1.73264 -0.0127096 0)
(-1.73042 -0.0129122 0)
(-1.72832 -0.0131185 0)
(-1.72633 -0.0133282 0)
(-1.72449 -0.0135402 0)
(-1.72279 -0.0137527 0)
(-1.72127 -0.0139659 0)
(-1.71991 -0.0141802 0)
(-1.71872 -0.0143917 0)
(-1.71768 -0.0145989 0)
(-1.7168 -0.0148037 0)
(-1.7161 -0.0150091 0)
(-1.71558 -0.0152132 0)
(-1.71526 -0.0154124 0)
(-1.71515 -0.0156071 0)
(-1.71526 -0.0157976 0)
(-1.71561 -0.0159845 0)
(-1.71622 -0.0161684 0)
(-1.71711 -0.0163494 0)
(-1.71829 -0.0165279 0)
(-1.71978 -0.0167043 0)
(-1.7216 -0.0168793 0)
(-1.72375 -0.0170536 0)
(-1.72627 -0.0172288 0)
(-1.72916 -0.0174068 0)
(-1.73243 -0.0175899 0)
(-1.7361 -0.0177816 0)
(-1.74016 -0.0179854 0)
(-1.74463 -0.0182069 0)
(-1.74949 -0.0184528 0)
(-1.75473 -0.0187312 0)
(-1.76034 -0.0190529 0)
(-1.76628 -0.0194302 0)
(-1.77254 -0.0198768 0)
(-1.77906 -0.0204129 0)
(-1.78579 -0.021061 0)
(-1.79269 -0.0218425 0)
(-1.79969 -0.0227814 0)
(-1.80674 -0.0239011 0)
(-1.81378 -0.0252184 0)
(-1.82077 -0.0267342 0)
(-1.8277 -0.0284126 0)
(-1.83457 -0.0301508 0)
(-1.84143 -0.0317395 0)
(-1.84836 -0.0327973 0)
(-1.85547 -0.0326747 0)
(-1.86276 -0.0303411 0)
(-1.87023 -0.024251 0)
(-1.87839 -0.0125296 0)
(-1.88769 0.00658475 0)
(-1.89893 0.0365121 0)
(-1.9217 0.089404 0)
(-1.96308 0.186009 0)
(-2.03241 0.375508 0)
(-2.13336 0.778239 0)
(-1.98826 -0.00214343 0)
(-1.98432 -0.00452448 0)
(-1.9852 -0.00595494 0)
(-1.9844 -0.00681538 0)
(-1.98359 -0.00735682 0)
(-1.98266 -0.00771445 0)
(-1.98174 -0.0079634 0)
(-1.98078 -0.00815021 0)
(-1.97984 -0.00829992 0)
(-1.97891 -0.00842926 0)
(-1.978 -0.00854635 0)
(-1.97712 -0.00865742 0)
(-1.97626 -0.00876503 0)
(-1.97545 -0.00887159 0)
(-1.97466 -0.00897788 0)
(-1.97393 -0.0090849 0)
(-1.97323 -0.00919284 0)
(-1.97258 -0.0093021 0)
(-1.97199 -0.00941273 0)
(-1.97145 -0.009525 0)
(-1.97097 -0.00963918 0)
(-1.97057 -0.00975394 0)
(-1.97023 -0.00986996 0)
(-1.96998 -0.00998646 0)
(-1.9698 -0.0101042 0)
(-1.96973 -0.0102251 0)
(-1.96973 -0.0103461 0)
(-1.96981 -0.0104656 0)
(-1.96997 -0.0105847 0)
(-1.97021 -0.0107041 0)
(-1.97053 -0.0108241 0)
(-1.97095 -0.010945 0)
(-1.97146 -0.0110669 0)
(-1.97207 -0.0111899 0)
(-1.97279 -0.0113139 0)
(-1.97362 -0.0114388 0)
(-1.97456 -0.0115645 0)
(-1.97563 -0.0116908 0)
(-1.97683 -0.011818 0)
(-1.97816 -0.0119458 0)
(-1.97964 -0.0120745 0)
(-1.98126 -0.0122034 0)
(-1.98305 -0.0123326 0)
(-1.98499 -0.0124619 0)
(-1.98711 -0.0125912 0)
(-1.9894 -0.0127201 0)
(-1.99188 -0.0128484 0)
(-1.99455 -0.0129755 0)
(-1.99741 -0.013101 0)
(-2.00048 -0.0132238 0)
(-2.00375 -0.0133424 0)
(-2.00723 -0.0134587 0)
(-2.01093 -0.013576 0)
(-2.01484 -0.0136912 0)
(-2.01897 -0.0138011 0)
(-2.02332 -0.013906 0)
(-2.0279 -0.0140076 0)
(-2.03271 -0.0141044 0)
(-2.03776 -0.0141931 0)
(-2.04303 -0.0142733 0)
(-2.04854 -0.0143452 0)
(-2.05428 -0.0144094 0)
(-2.06026 -0.0144668 0)
(-2.06646 -0.014518 0)
(-2.07289 -0.0145639 0)
(-2.07954 -0.0146051 0)
(-2.0864 -0.0146427 0)
(-2.09347 -0.0146781 0)
(-2.10073 -0.0147132 0)
(-2.10818 -0.0147506 0)
(-2.1158 -0.0147935 0)
(-2.12359 -0.014846 0)
(-2.13152 -0.0149133 0)
(-2.1396 -0.0150021 0)
(-2.1478 -0.0151204 0)
(-2.15611 -0.0152784 0)
(-2.16453 -0.0154883 0)
(-2.17303 -0.0157657 0)
(-2.18161 -0.0161241 0)
(-2.19024 -0.0165863 0)
(-2.19893 -0.0171787 0)
(-2.20764 -0.0179215 0)
(-2.21638 -0.0188389 0)
(-2.22514 -0.0199522 0)
(-2.2339 -0.0212744 0)
(-2.24268 -0.0228011 0)
(-2.25149 -0.0244899 0)
(-2.26033 -0.0262271 0)
(-2.26922 -0.0277919 0)
(-2.27817 -0.028805 0)
(-2.28707 -0.0286461 0)
(-2.29569 -0.0263725 0)
(-2.30348 -0.0205336 0)
(-2.31057 -0.0093353 0)
(-2.31585 0.00939554 0)
(-2.31869 0.0410475 0)
(-2.32336 0.0973522 0)
(-2.32947 0.199509 0)
(-2.32758 0.392899 0)
(-2.31008 0.744635 0)
(-2.13086 -0.00246255 0)
(-2.12798 -0.00467823 0)
(-2.13005 -0.00605802 0)
(-2.13083 -0.00691174 0)
(-2.13177 -0.0074519 0)
(-2.13273 -0.00780106 0)
(-2.13379 -0.00803753 0)
(-2.13488 -0.00820632 0)
(-2.13607 -0.00833549 0)
(-2.13731 -0.00844094 0)
(-2.13863 -0.00853248 0)
(-2.14003 -0.00861557 0)
(-2.1415 -0.00869378 0)
(-2.14307 -0.00876889 0)
(-2.14471 -0.00884226 0)
(-2.14646 -0.00891435 0)
(-2.14829 -0.00898567 0)
(-2.15023 -0.00905619 0)
(-2.15226 -0.00912612 0)
(-2.15441 -0.00919541 0)
(-2.15666 -0.00926502 0)
(-2.15902 -0.00933236 0)
(-2.16151 -0.00939743 0)
(-2.16411 -0.00946161 0)
(-2.16684 -0.00952568 0)
(-2.16969 -0.00959242 0)
(-2.17267 -0.00966044 0)
(-2.17578 -0.00972689 0)
(-2.17902 -0.00979171 0)
(-2.18239 -0.00985521 0)
(-2.1859 -0.00991771 0)
(-2.18955 -0.00997934 0)
(-2.19334 -0.0100403 0)
(-2.19727 -0.0101006 0)
(-2.20134 -0.0101601 0)
(-2.20556 -0.0102187 0)
(-2.20993 -0.0102765 0)
(-2.21444 -0.0103333 0)
(-2.2191 -0.0103891 0)
(-2.22391 -0.0104437 0)
(-2.22887 -0.0104976 0)
(-2.23397 -0.0105504 0)
(-2.23921 -0.010602 0)
(-2.2446 -0.0106524 0)
(-2.25014 -0.0107016 0)
(-2.25581 -0.0107494 0)
(-2.26161 -0.0107956 0)
(-2.26755 -0.0108401 0)
(-2.27362 -0.0108827 0)
(-2.27981 -0.0109226 0)
(-2.28612 -0.0109596 0)
(-2.29254 -0.0109947 0)
(-2.29906 -0.0110296 0)
(-2.3057 -0.0110626 0)
(-2.31243 -0.0110918 0)
(-2.31925 -0.0111173 0)
(-2.32616 -0.0111404 0)
(-2.33314 -0.0111599 0)
(-2.34019 -0.0111726 0)
(-2.34731 -0.0111776 0)
(-2.35448 -0.0111754 0)
(-2.36171 -0.0111671 0)
(-2.36899 -0.0111538 0)
(-2.37632 -0.0111362 0)
(-2.38368 -0.0111156 0)
(-2.39108 -0.0110926 0)
(-2.39852 -0.0110684 0)
(-2.40599 -0.0110446 0)
(-2.4135 -0.0110232 0)
(-2.42104 -0.0110067 0)
(-2.42861 -0.0109983 0)
(-2.43621 -0.0110022 0)
(-2.44385 -0.0110234 0)
(-2.45153 -0.0110684 0)
(-2.45924 -0.0111457 0)
(-2.46701 -0.0112652 0)
(-2.47482 -0.0114388 0)
(-2.48268 -0.0116831 0)
(-2.49058 -0.0120102 0)
(-2.49856 -0.0124412 0)
(-2.50662 -0.0130022 0)
(-2.51476 -0.0137133 0)
(-2.52301 -0.0145985 0)
(-2.53138 -0.0156777 0)
(-2.53987 -0.0169609 0)
(-2.54852 -0.0184422 0)
(-2.55733 -0.0200816 0)
(-2.56629 -0.0217668 0)
(-2.57538 -0.0232834 0)
(-2.58452 -0.0242833 0)
(-2.59349 -0.0242148 0)
(-2.60186 -0.022262 0)
(-2.60873 -0.0172287 0)
(-2.61393 -0.00743034 0)
(-2.61515 0.00972973 0)
(-2.61002 0.0399107 0)
(-2.59844 0.0939491 0)
(-2.57293 0.191749 0)
(-2.51148 0.369182 0)
(-2.41542 0.65284 0)
(-2.27777 -0.00241828 0)
(-2.2762 -0.00425989 0)
(-2.27943 -0.00543652 0)
(-2.2818 -0.00617826 0)
(-2.28442 -0.00664479 0)
(-2.28724 -0.00693689 0)
(-2.29017 -0.00712507 0)
(-2.29324 -0.00724864 0)
(-2.2964 -0.0073343 0)
(-2.29968 -0.0073963 0)
(-2.30304 -0.00744424 0)
(-2.30651 -0.00748291 0)
(-2.31005 -0.00751608 0)
(-2.31372 -0.00754515 0)
(-2.31746 -0.00757175 0)
(-2.32131 -0.00759608 0)
(-2.32525 -0.00761889 0)
(-2.32929 -0.00763998 0)
(-2.33342 -0.00765977 0)
(-2.33766 -0.00767803 0)
(-2.34197 -0.00769636 0)
(-2.34639 -0.00771179 0)
(-2.35089 -0.00772276 0)
(-2.35551 -0.00773126 0)
(-2.36021 -0.00773879 0)
(-2.36503 -0.00774693 0)
(-2.36994 -0.00775525 0)
(-2.37498 -0.00776215 0)
(-2.3801 -0.00776748 0)
(-2.38534 -0.00777135 0)
(-2.39068 -0.00777425 0)
(-2.39612 -0.00777627 0)
(-2.40165 -0.00777798 0)
(-2.40728 -0.00777934 0)
(-2.413 -0.00778069 0)
(-2.41881 -0.00778175 0)
(-2.42469 -0.00778294 0)
(-2.43066 -0.0077842 0)
(-2.43669 -0.00778582 0)
(-2.44279 -0.00778752 0)
(-2.44896 -0.00778997 0)
(-2.45518 -0.00779302 0)
(-2.46145 -0.00779671 0)
(-2.46776 -0.00780114 0)
(-2.47411 -0.00780643 0)
(-2.4805 -0.00781241 0)
(-2.48692 -0.00781894 0)
(-2.49335 -0.00782588 0)
(-2.49981 -0.00783338 0)
(-2.50628 -0.00784051 0)
(-2.51275 -0.00784751 0)
(-2.51923 -0.00785455 0)
(-2.52571 -0.00786284 0)
(-2.53219 -0.00787087 0)
(-2.53866 -0.00787742 0)
(-2.54513 -0.00788272 0)
(-2.55159 -0.00788808 0)
(-2.55803 -0.00789258 0)
(-2.56447 -0.00789167 0)
(-2.57089 -0.0078834 0)
(-2.57729 -0.00786831 0)
(-2.5837 -0.00784775 0)
(-2.59009 -0.00782238 0)
(-2.59649 -0.00779272 0)
(-2.60289 -0.00775979 0)
(-2.60929 -0.00772373 0)
(-2.61571 -0.00768547 0)
(-2.62215 -0.00764624 0)
(-2.62861 -0.00760758 0)
(-2.63511 -0.00757175 0)
(-2.64165 -0.00754168 0)
(-2.64823 -0.00752105 0)
(-2.65488 -0.00751462 0)
(-2.6616 -0.00752864 0)
(-2.6684 -0.00757133 0)
(-2.67529 -0.00765279 0)
(-2.68228 -0.00778457 0)
(-2.6894 -0.00798052 0)
(-2.69662 -0.00825588 0)
(-2.70404 -0.0086323 0)
(-2.71158 -0.00913181 0)
(-2.71929 -0.00977231 0)
(-2.72718 -0.0105787 0)
(-2.73527 -0.0115702 0)
(-2.7436 -0.012755 0)
(-2.75218 -0.0141274 0)
(-2.76102 -0.0156588 0)
(-2.7701 -0.017249 0)
(-2.77935 -0.0186979 0)
(-2.78862 -0.0197103 0)
(-2.79761 -0.0198293 0)
(-2.80572 -0.0183909 0)
(-2.81185 -0.014523 0)
(-2.81529 -0.00670447 0)
(-2.8133 0.00770735 0)
(-2.80122 0.0337803 0)
(-2.77556 0.0806913 0)
(-2.72327 0.165415 0)
(-2.61575 0.31313 0)
(-2.46998 0.525942 0)
(-2.41065 -0.00202569 0)
(-2.41007 -0.00333237 0)
(-2.41405 -0.00420635 0)
(-2.41749 -0.00476201 0)
(-2.42113 -0.00510569 0)
(-2.42513 -0.00531154 0)
(-2.42918 -0.00543382 0)
(-2.43345 -0.00550345 0)
(-2.43772 -0.0055416 0)
(-2.44215 -0.00555998 0)
(-2.44658 -0.00556635 0)
(-2.45114 -0.00556474 0)
(-2.4557 -0.0055583 0)
(-2.46038 -0.00554832 0)
(-2.46507 -0.00553624 0)
(-2.46986 -0.0055223 0)
(-2.47466 -0.00550726 0)
(-2.47957 -0.00549094 0)
(-2.48448 -0.00547387 0)
(-2.48949 -0.00545578 0)
(-2.49451 -0.00543703 0)
(-2.49961 -0.00541661 0)
(-2.50474 -0.00539403 0)
(-2.50995 -0.00536867 0)
(-2.51516 -0.00534212 0)
(-2.52043 -0.00531576 0)
(-2.5257 -0.00529007 0)
(-2.53103 -0.00526422 0)
(-2.53635 -0.00523831 0)
(-2.54173 -0.00521226 0)
(-2.54709 -0.00518691 0)
(-2.5525 -0.00516201 0)
(-2.55789 -0.00513866 0)
(-2.56331 -0.00511654 0)
(-2.56872 -0.00509642 0)
(-2.57414 -0.00507763 0)
(-2.57955 -0.00506113 0)
(-2.58497 -0.00504618 0)
(-2.59036 -0.00503376 0)
(-2.59577 -0.00502346 0)
(-2.60114 -0.00501562 0)
(-2.60652 -0.00501013 0)
(-2.61188 -0.00500696 0)
(-2.61723 -0.00500616 0)
(-2.62256 -0.00500769 0)
(-2.62788 -0.00501128 0)
(-2.63319 -0.00501659 0)
(-2.63849 -0.00502329 0)
(-2.64377 -0.00503158 0)
(-2.64904 -0.00504038 0)
(-2.65431 -0.00504991 0)
(-2.65957 -0.00505967 0)
(-2.66483 -0.00507031 0)
(-2.67009 -0.00508053 0)
(-2.67535 -0.00508894 0)
(-2.68062 -0.00509543 0)
(-2.68591 -0.00510212 0)
(-2.6912 -0.00510943 0)
(-2.69651 -0.00510989 0)
(-2.70184 -0.0051001 0)
(-2.7072 -0.00508119 0)
(-2.71259 -0.00505485 0)
(-2.71802 -0.0050217 0)
(-2.7235 -0.00498197 0)
(-2.72902 -0.00493604 0)
(-2.7346 -0.00488406 0)
(-2.74024 -0.00482656 0)
(-2.74595 -0.00476435 0)
(-2.75174 -0.00469869 0)
(-2.75762 -0.00463151 0)
(-2.76359 -0.00456538 0)
(-2.76966 -0.00450367 0)
(-2.77586 -0.004451 0)
(-2.78218 -0.00441304 0)
(-2.78864 -0.00439767 0)
(-2.79524 -0.00441517 0)
(-2.80202 -0.00447647 0)
(-2.80897 -0.00459253 0)
(-2.81611 -0.00478062 0)
(-2.82348 -0.00506643 0)
(-2.83105 -0.00547267 0)
(-2.83886 -0.00600708 0)
(-2.84693 -0.00669641 0)
(-2.85527 -0.00755929 0)
(-2.86392 -0.00860401 0)
(-2.87289 -0.00982388 0)
(-2.88218 -0.0112106 0)
(-2.89173 -0.012692 0)
(-2.90144 -0.0140769 0)
(-2.91111 -0.0151433 0)
(-2.92033 -0.0155456 0)
(-2.92842 -0.0147948 0)
(-2.93419 -0.012308 0)
(-2.93617 -0.00693878 0)
(-2.93202 0.00361994 0)
(-2.91431 0.0234473 0)
(-2.87757 0.0592454 0)
(-2.80454 0.123937 0)
(-2.66446 0.23345 0)
(-2.48905 0.379049 0)
(-2.51116 -0.00133194 0)
(-2.51146 -0.00209072 0)
(-2.51559 -0.00262739 0)
(-2.51946 -0.00296734 0)
(-2.52342 -0.00317284 0)
(-2.52784 -0.00329064 0)
(-2.53217 -0.00335375 0)
(-2.53678 -0.00338273 0)
(-2.54125 -0.00339079 0)
(-2.54591 -0.00338553 0)
(-2.55043 -0.00337225 0)
(-2.5551 -0.00335356 0)
(-2.55963 -0.00333162 0)
(-2.56429 -0.00330741 0)
(-2.56881 -0.00328191 0)
(-2.57345 -0.00325537 0)
(-2.57797 -0.0032283 0)
(-2.58258 -0.00320065 0)
(-2.58708 -0.00317276 0)
(-2.59167 -0.00314443 0)
(-2.59615 -0.00311448 0)
(-2.6007 -0.00308417 0)
(-2.60516 -0.00305596 0)
(-2.60968 -0.00302833 0)
(-2.61408 -0.00300113 0)
(-2.61853 -0.00297483 0)
(-2.62288 -0.00294998 0)
(-2.62727 -0.00292602 0)
(-2.63156 -0.00290312 0)
(-2.63588 -0.00288102 0)
(-2.64011 -0.00286062 0)
(-2.64437 -0.00284143 0)
(-2.64855 -0.00282454 0)
(-2.65274 -0.00280946 0)
(-2.65687 -0.00279699 0)
(-2.66101 -0.00278625 0)
(-2.66509 -0.00277817 0)
(-2.66918 -0.00277161 0)
(-2.67322 -0.00276787 0)
(-2.67727 -0.00276608 0)
(-2.68129 -0.00276663 0)
(-2.68531 -0.0027692 0)
(-2.68931 -0.00277346 0)
(-2.69332 -0.00277964 0)
(-2.69732 -0.00278737 0)
(-2.70133 -0.0027963 0)
(-2.70533 -0.00280602 0)
(-2.70936 -0.00281626 0)
(-2.71338 -0.00282644 0)
(-2.71743 -0.00283622 0)
(-2.7215 -0.00284528 0)
(-2.72559 -0.0028533 0)
(-2.72972 -0.00286005 0)
(-2.73388 -0.00286446 0)
(-2.73808 -0.00286532 0)
(-2.74231 -0.00286143 0)
(-2.74661 -0.00285598 0)
(-2.75094 -0.00285377 0)
(-2.75533 -0.00284215 0)
(-2.75977 -0.00281521 0)
(-2.76429 -0.00277605 0)
(-2.76887 -0.00272717 0)
(-2.77353 -0.00266933 0)
(-2.77827 -0.00260253 0)
(-2.78311 -0.00252649 0)
(-2.78803 -0.00244137 0)
(-2.79306 -0.00234746 0)
(-2.79819 -0.00224519 0)
(-2.80344 -0.00213555 0)
(-2.80881 -0.00202012 0)
(-2.81432 -0.00190118 0)
(-2.81997 -0.00178173 0)
(-2.82577 -0.00166614 0)
(-2.83174 -0.00155973 0)
(-2.83788 -0.00146975 0)
(-2.84421 -0.00140577 0)
(-2.85075 -0.0013785 0)
(-2.85751 -0.00139888 0)
(-2.86451 -0.00148417 0)
(-2.87178 -0.00165331 0)
(-2.87931 -0.00194394 0)
(-2.88715 -0.00234474 0)
(-2.89533 -0.00288996 0)
(-2.90387 -0.00359667 0)
(-2.91279 -0.00447708 0)
(-2.92212 -0.00551873 0)
(-2.93187 -0.00673597 0)
(-2.94194 -0.00812229 0)
(-2.9522 -0.00945929 0)
(-2.96244 -0.0106281 0)
(-2.97222 -0.0114007 0)
(-2.98079 -0.0114797 0)
(-2.98695 -0.0105144 0)
(-2.98877 -0.00789508 0)
(-2.98373 -0.00200657 0)
(-2.96428 0.00985479 0)
(-2.92067 0.0316462 0)
(-2.83503 0.0713039 0)
(-2.67568 0.137522 0)
(-2.48527 0.221123 0)
(-2.55913 -0.000419324 0)
(-2.55976 -0.000725162 0)
(-2.56374 -0.000927951 0)
(-2.56756 -0.00105414 0)
(-2.5714 -0.00113042 0)
(-2.57572 -0.001175 0)
(-2.57985 -0.00119898 0)
(-2.58427 -0.00121005 0)
(-2.58845 -0.00121317 0)
(-2.59284 -0.00121057 0)
(-2.59697 -0.00120482 0)
(-2.60127 -0.0011966 0)
(-2.60532 -0.00118683 0)
(-2.60951 -0.0011761 0)
(-2.61346 -0.00116466 0)
(-2.61754 -0.00115275 0)
(-2.6214 -0.00114043 0)
(-2.62536 -0.0011278 0)
(-2.62913 -0.00111486 0)
(-2.63299 -0.0011015 0)
(-2.63666 -0.00108669 0)
(-2.64041 -0.00107215 -1.26031e-41)
(-2.644 -0.00106033 0)
(-2.64765 -0.00105045 0)
(-2.65116 -0.00104149 0)
(-2.65473 -0.00103335 0)
(-2.65816 -0.00102609 0)
(-2.66165 -0.00101934 0)
(-2.66502 -0.00101292 0)
(-2.66845 -0.00100685 0)
(-2.67177 -0.00100144 0)
(-2.67514 -0.000996899 0)
(-2.67842 -0.000993459 0)
(-2.68174 -0.000991102 0)
(-2.68499 -0.000989927 0)
(-2.68828 -0.00098985 0)
(-2.69152 -0.000990758 0)
(-2.69478 -0.000992314 0)
(-2.69802 -0.000995267 0)
(-2.70127 -0.000998672 0)
(-2.70451 -0.00100307 0)
(-2.70777 -0.00100803 0)
(-2.71103 -0.00101311 0)
(-2.71431 -0.00101851 0)
(-2.71759 -0.00102387 0)
(-2.72091 -0.00102873 0)
(-2.72423 -0.00103276 0)
(-2.72759 -0.00103582 0)
(-2.73097 -0.0010367 0)
(-2.73439 -0.0010356 0)
(-2.73783 -0.00103198 0)
(-2.74132 -0.00102577 0)
(-2.74485 -0.0010161 0)
(-2.74843 -0.00100209 0)
(-2.75206 -0.000982482 0)
(-2.75574 -0.00095569 0)
(-2.75948 -0.000922389 0)
(-2.76328 -0.000899834 0)
(-2.76714 -0.000865355 0)
(-2.77106 -0.000807961 0)
(-2.77505 -0.000735486 0)
(-2.77913 -0.000651824 0)
(-2.78329 -0.000557478 0)
(-2.78754 -0.000451913 0)
(-2.79188 -0.000334698 0)
(-2.79632 -0.000205703 0)
(-2.80087 -6.49696e-05 0)
(-2.80553 8.73272e-05 0)
(-2.81031 0.000250472 0)
(-2.81522 0.000423191 0)
(-2.82026 0.000603584 0)
(-2.82546 0.000789026 0)
(-2.83081 0.000975617 0)
(-2.83633 0.00115815 0)
(-2.84203 0.00133013 0)
(-2.84794 0.00148386 0)
(-2.85405 0.00160883 0)
(-2.8604 0.00169299 0)
(-2.86699 0.00171939 0)
(-2.87387 0.0016743 0)
(-2.88103 0.00152167 0)
(-2.88852 0.00127034 0)
(-2.89636 0.000887528 1.04328e-41)
(-2.90458 0.000356113 0)
(-2.91319 -0.000338285 0)
(-2.92221 -0.00119761 0)
(-2.93172 -0.00220229 0)
(-2.94139 -0.00351918 -4.13678e-41)
(-2.9513 -0.00480479 0)
(-2.96119 -0.00610002 0)
(-2.9706 -0.00728894 0)
(-2.9788 -0.00825538 0)
(-2.98457 -0.00890598 0)
(-2.98602 -0.00910974 -5.35422e-41)
(-2.97987 -0.00826208 0)
(-2.9601 -0.00540465 0)
(-2.91452 0.00065579 7.70877e-42)
(-2.82445 0.0123156 0)
(-2.65833 0.032179 0)
(-2.46317 0.0573227 0)
(-2.53698 0.000547752 0)
(-2.5374 0.000669089 0)
(-2.54139 0.000799363 0)
(-2.54519 0.000883672 0)
(-2.54903 0.000930673 0)
(-2.55336 0.000952263 0)
(-2.55752 0.000958657 0)
(-2.56199 0.000956119 0)
(-2.56622 0.000948183 0)
(-2.57067 0.000937723 0)
(-2.57488 0.000925551 0)
(-2.57925 0.00091263 0)
(-2.5834 0.000899655 0)
(-2.58768 0.000886379 0)
(-2.59175 0.000873401 0)
(-2.59593 0.00086056 0)
(-2.59992 0.000848262 0)
(-2.604 0.000836345 0)
(-2.6079 0.000825169 0)
(-2.61189 0.000814756 0)
(-2.6157 0.000805635 0)
(-2.61959 0.000796465 9.36241e-42)
(-2.62332 0.000786228 0)
(-2.62711 0.000775019 0)
(-2.63077 0.000763804 0)
(-2.63448 0.000752539 0)
(-2.63805 0.000741498 0)
(-2.64169 0.000730966 0)
(-2.6452 0.000721561 0)
(-2.64876 0.000712857 0)
(-2.65221 0.000705069 0)
(-2.65571 0.000697242 0)
(-2.65912 0.000689913 0)
(-2.66256 0.000682609 0)
(-2.66593 0.000675895 0)
(-2.66933 0.00066905 0)
(-2.67267 0.000663094 0)
(-2.67603 0.000657266 0)
(-2.67936 0.000652205 0)
(-2.68269 0.000647736 0)
(-2.68601 0.000644121 0)
(-2.68934 0.000641447 0)
(-2.69266 0.000639896 0)
(-2.69599 0.000639866 0)
(-2.69932 0.000641473 0)
(-2.70267 0.000645211 0)
(-2.70602 0.000651397 0)
(-2.7094 0.000660323 0)
(-2.71279 0.000672947 0)
(-2.71621 0.000689293 0)
(-2.71965 0.000709768 0)
(-2.72313 0.000734656 0)
(-2.72663 0.000764828 0)
(-2.73018 0.000801006 0)
(-2.73376 0.000844751 0)
(-2.73739 0.000896861 0)
(-2.74105 0.000957356 0)
(-2.74477 0.0010098 0)
(-2.74855 0.00107614 0)
(-2.7524 0.00116717 0)
(-2.75631 0.00127523 0)
(-2.76028 0.00139658 0)
(-2.76432 0.00153095 0)
(-2.76843 0.00167909 0)
(-2.77263 0.00184147 0)
(-2.77691 0.00201844 0)
(-2.78127 0.00221028 0)
(-2.78574 0.00241714 0)
(-2.7903 0.00263861 0)
(-2.79499 0.00287367 0)
(-2.79978 0.00312095 0)
(-2.80471 0.00337828 0)
(-2.80978 0.00364231 0)
(-2.81499 0.00390828 0)
(-2.82037 0.00417054 0)
(-2.82592 0.00442246 0)
(-2.83167 0.00465441 0)
(-2.83761 0.00485418 0)
(-2.84379 0.00500659 0)
(-2.8502 0.00509545 0)
(-2.85689 0.00510109 0)
(-2.86388 0.00501406 0)
(-2.87117 0.00481057 5.6548e-41)
(-2.87881 0.00447243 0)
(-2.88681 0.00398338 0)
(-2.89517 0.00332078 0)
(-2.90387 0.0025029 0)
(-2.91275 0.00134139 1.5768e-41)
(-2.92183 0.000105598 0)
(-2.93071 -0.00132266 0)
(-2.93889 -0.0029169 0)
(-2.94557 -0.00471664 0)
(-2.94982 -0.00693123 0)
(-2.94962 -0.00985844 -5.79427e-41)
(-2.94166 -0.0139067 0)
(-2.91994 -0.0198989 0)
(-2.87349 -0.029637 -3.48381e-40)
(-2.78298 -0.0460982 0)
(-2.61814 -0.0723964 0)
(-2.42435 -0.103553 0)
(-2.45738 0.00138631 0)
(-2.45699 0.0020523 0)
(-2.46106 0.00253054 0)
(-2.46473 0.00283591 0)
(-2.46852 0.00301775 0)
(-2.47279 0.00311832 0)
(-2.47698 0.0031696 0)
(-2.48147 0.00319032 0)
(-2.48584 0.00319336 0)
(-2.49042 0.00318514 0)
(-2.49487 0.00317083 0)
(-2.49948 0.00315206 0)
(-2.50398 0.00313128 0)
(-2.5086 0.00310873 0)
(-2.51313 0.00308551 0)
(-2.51776 0.00306163 0)
(-2.52229 0.00303777 0)
(-2.52692 0.0030138 0)
(-2.53145 0.00299025 0)
(-2.53607 0.00296704 0)
(-2.5406 0.0029445 0)
(-2.54519 0.00292169 0)
(-2.5497 0.00289829 0)
(-2.55427 0.00287406 0)
(-2.55876 0.00284982 0)
(-2.56329 0.00282543 0)
(-2.56775 0.00280131 0)
(-2.57225 0.00277786 0)
(-2.57667 0.00275599 0)
(-2.58112 0.00273527 0)
(-2.5855 0.00271582 0)
(-2.5899 0.00269675 0)
(-2.59424 0.00267867 0)
(-2.59859 0.00266119 0)
(-2.60288 0.00264497 0)
(-2.60718 0.00262944 0)
(-2.61142 0.00261549 0)
(-2.61567 0.00260232 0)
(-2.61987 0.00259136 0)
(-2.62407 0.00258143 0)
(-2.62823 0.00257382 0)
(-2.63238 0.0025682 0)
(-2.6365 0.0025647 0)
(-2.64061 0.00256417 0)
(-2.64469 0.00256672 0)
(-2.64878 0.0025728 0)
(-2.65284 0.00258289 0)
(-2.65691 0.00259743 0)
(-2.66095 0.00261711 0)
(-2.66501 0.00264229 0)
(-2.66906 0.00267335 0)
(-2.67312 0.00271065 0)
(-2.67718 0.00275499 0)
(-2.68126 0.00280727 0)
(-2.68534 0.00286882 0)
(-2.68946 0.00294003 0)
(-2.69358 0.0030187 0)
(-2.69775 0.00310112 0)
(-2.70194 0.00319898 0)
(-2.70618 0.00331767 0)
(-2.71046 0.00345448 0)
(-2.71477 0.00360772 0)
(-2.71912 0.00377708 0)
(-2.72353 0.00396313 0)
(-2.72799 0.00416639 0)
(-2.73252 0.00438733 0)
(-2.73711 0.00462653 0)
(-2.74177 0.00488452 0)
(-2.74651 0.00516123 0)
(-2.75134 0.00545602 0)
(-2.75627 0.00576807 0)
(-2.7613 0.0060957 0)
(-2.76645 0.00643617 0)
(-2.77173 0.00678547 0)
(-2.77714 0.0071387 0)
(-2.78272 0.00748956 0)
(-2.78847 0.00782937 0)
(-2.79441 0.00814693 0)
(-2.80055 0.00842884 0)
(-2.80694 0.00865973 0)
(-2.81359 0.00882389 0)
(-2.82053 0.00890705 0)
(-2.82778 0.00888659 0)
(-2.83537 0.0087448 0)
(-2.84331 0.00846122 0)
(-2.85164 0.00800625 0)
(-2.8603 0.00733935 0)
(-2.86929 0.00638673 0)