/*--------------------------------*- C++ -*----------------------------------*\
| =========                 |                                                 |
| \\      /  F ield         | OpenFOAM: The Open Source CFD Toolbox           |
|  \\    /   O peration     | Version:  2.1.0                                 |
|   \\  /    A nd           | Web:      www.OpenFOAM.org                      |
|    \\/     M anipulation  |                                                 |
\*---------------------------------------------------------------------------*/
FoamFile
{
    version     2.0;
    format      ascii;
    class       volScalarField;
    location    "0.13";
    object      C1;
}
// * * * * * * * * * * * * * * * * * * * * * * * * * * * * * * * * * * * * * //

dimensions      [0 0 0 0 0 0 0];

internalField   nonuniform List<scalar> 
6400
(
8.5013e-26
1.29048e-25
1.96089e-25
2.96302e-25
4.45603e-25
6.67369e-25
9.95758e-25
1.48064e-24
2.19447e-24
3.24244e-24
4.77649e-24
7.01588e-24
1.02755e-23
1.50068e-23
2.18545e-23
3.17373e-23
4.59592e-23
6.63666e-23
9.55639e-23
1.37215e-22
1.96455e-22
2.8046e-22
3.99214e-22
5.66575e-22
8.01693e-22
1.13095e-21
1.59052e-21
2.22989e-21
3.11639e-21
4.34135e-21
6.02807e-21
8.34233e-21
1.15061e-20
1.58153e-20
2.16624e-20
2.95661e-20
4.02084e-20
5.44819e-20
7.35484e-20
9.89134e-20
1.32518e-19
1.7685e-19
2.35081e-19
3.11234e-19
4.10375e-19
5.38851e-19
7.04562e-19
9.1727e-19
1.18898e-18
1.53435e-18
1.97109e-18
2.52055e-18
3.20817e-18
4.06409e-18
5.12363e-18
6.42782e-18
8.02391e-18
9.96566e-18
1.23136e-17
1.51349e-17
1.85035e-17
2.24991e-17
2.72063e-17
3.27134e-17
3.91099e-17
4.64836e-17
5.49172e-17
6.44835e-17
7.52404e-17
8.72254e-17
1.00449e-16
1.14882e-16
1.30452e-16
1.47027e-16
1.64407e-16
1.82318e-16
2.00399e-16
2.1819e-16
2.3513e-16
2.50549e-16
2.63666e-16
2.73604e-16
2.79414e-16
2.80113e-16
2.74784e-16
2.6269e-16
2.43434e-16
2.17158e-16
1.84766e-16
1.48112e-16
1.10039e-16
7.41252e-17
4.41339e-17
2.29022e-17
1.07886e-17
5.4856e-18
2.58108e-18
9.95492e-19
2.88047e-19
5.69129e-20
4.09012e-25
6.22708e-25
9.46072e-25
1.4282e-24
2.14503e-24
3.20789e-24
4.77919e-24
7.09568e-24
1.05008e-23
1.54922e-23
2.27877e-23
3.34212e-23
4.8875e-23
7.12713e-23
1.03635e-22
1.50271e-22
2.17277e-22
3.13276e-22
4.50412e-22
6.45741e-22
9.23132e-22
1.31589e-21
1.87028e-21
2.65043e-21
3.74483e-21
5.27519e-21
7.40826e-21
1.03717e-20
1.44749e-20
2.01372e-20
2.79237e-20
3.85939e-20
5.31638e-20
7.2986e-20
9.98541e-20
1.36135e-19
1.84942e-19
2.5034e-19
3.37626e-19
4.53653e-19
6.07257e-19
8.0976e-19
1.07559e-18
1.42305e-18
1.87518e-18
2.46085e-18
3.216e-18
4.18504e-18
5.42251e-18
6.99496e-18
8.98307e-18
1.14839e-17
1.46132e-17
1.85082e-17
2.33295e-17
2.92639e-17
3.65261e-17
4.53608e-17
5.60431e-17
6.88785e-17
8.42019e-17
1.02374e-16
1.23778e-16
1.48812e-16
1.77878e-16
2.11369e-16
2.49652e-16
2.93049e-16
3.41811e-16
3.96095e-16
4.55934e-16
5.2119e-16
5.91509e-16
6.66277e-16
7.44571e-16
8.2512e-16
9.06252e-16
9.85851e-16
1.06131e-15
1.12953e-15
1.18687e-15
1.22929e-15
1.2524e-15
1.25174e-15
1.22319e-15
1.1636e-15
1.07157e-15
9.48428e-16
7.99237e-16
6.33527e-16
4.65135e-16
3.105e-16
1.85007e-16
9.77749e-17
4.77247e-17
2.52152e-17
1.21619e-17
5.01204e-18
1.71952e-18
5.04005e-19
1.90133e-24
2.9029e-24
4.41842e-24
6.67988e-24
1.00451e-23
1.5039e-23
2.24277e-23
3.33279e-23
4.93604e-23
7.28733e-23
1.07255e-22
1.57385e-22
2.30259e-22
3.35892e-22
4.88557e-22
7.08557e-22
1.02465e-21
1.47749e-21
2.12429e-21
3.0454e-21
4.3532e-21
6.20439e-21
8.81666e-21
1.24914e-20
1.76445e-20
2.48474e-20
3.48827e-20
4.88182e-20
6.81047e-20
9.47059e-20
1.31269e-19
1.8135e-19
2.49702e-19
3.42654e-19
4.68591e-19
6.38585e-19
8.67174e-19
1.17337e-18
1.5819e-18
2.12481e-18
2.84335e-18
3.79041e-18
5.03341e-18
6.65785e-18
8.7715e-18
1.15094e-17
1.50397e-17
1.95706e-17
2.53579e-17
3.27139e-17
4.20177e-17
5.37256e-17
6.83829e-17
8.66358e-17
1.09242e-16
1.37085e-16
1.7118e-16
2.12688e-16
2.62914e-16
3.23313e-16
3.9548e-16
4.81139e-16
5.82123e-16
7.0034e-16
8.37729e-16
9.96191e-16
1.17751e-15
1.38327e-15
1.61474e-15
1.87275e-15
2.15757e-15
2.46872e-15
2.80469e-15
3.16279e-15
3.53887e-15
3.92714e-15
4.31991e-15
4.70734e-15
5.07718e-15
5.41466e-15
5.70245e-15
5.92091e-15
6.0487e-15
6.06399e-15
5.94632e-15
5.67964e-15
5.25637e-15
4.68187e-15
3.9792e-15
3.19256e-15
2.38642e-15
1.6375e-15
1.01792e-15
5.73003e-16
3.04846e-16
1.73234e-16
8.95425e-17
4.1174e-17
1.69079e-17
6.70767e-18
7.80414e-24
1.19409e-23
1.82144e-23
2.75994e-23
4.15978e-23
6.24153e-23
9.32772e-23
1.38888e-22
2.06084e-22
3.04777e-22
4.49284e-22
6.60232e-22
9.67228e-22
1.41266e-21
2.05697e-21
2.98616e-21
4.3221e-21
6.23705e-21
8.97354e-21
1.28721e-20
1.84092e-20
2.62489e-20
3.73141e-20
5.28821e-20
7.47148e-20
1.05234e-19
1.47755e-19
2.06802e-19
2.88518e-19
4.01222e-19
5.56124e-19
7.68277e-19
1.05781e-18
1.45151e-18
1.9849e-18
2.70484e-18
3.67293e-18
4.96968e-18
6.69991e-18
8.99938e-18
1.20431e-17
1.60553e-17
2.13223e-17
2.82072e-17
3.71682e-17
4.87801e-17
6.37598e-17
8.29963e-17
1.07585e-16
1.38865e-16
1.78465e-16
2.2835e-16
2.90874e-16
3.68836e-16
4.6553e-16
5.84807e-16
7.3112e-16
9.09572e-16
1.12595e-15
1.38672e-15
1.69905e-15
2.07074e-15
2.51016e-15
3.02614e-15
3.62778e-15
4.32419e-15
5.12418e-15
6.03587e-15
7.06627e-15
8.22071e-15
9.50251e-15
1.09121e-14
1.24457e-14
1.40949e-14
1.58452e-14
1.76748e-14
1.95537e-14
2.14423e-14
2.32895e-14
2.50319e-14
2.65929e-14
2.78825e-14
2.87993e-14
2.92347e-14
2.90796e-14
2.82381e-14
2.66441e-14
2.42845e-14
2.12236e-14
1.76249e-14
1.37581e-14
9.97734e-15
6.65762e-15
4.09767e-15
2.42263e-15
1.47574e-15
8.31895e-16
4.29064e-16
2.06217e-16
1.01501e-16
2.82663e-23
4.33157e-23
6.6214e-23
1.00591e-22
1.52032e-22
2.28756e-22
3.42812e-22
5.118e-22
7.61345e-22
1.12864e-21
1.66749e-21
2.45549e-21
3.60413e-21
5.27315e-21
7.6906e-21
1.11811e-20
1.62049e-20
2.34131e-20
3.37224e-20
4.8421e-20
6.9311e-20
9.89062e-20
1.407e-19
1.99529e-19
2.82066e-19
3.97486e-19
5.58352e-19
7.81805e-19
1.09114e-18
1.51792e-18
2.10465e-18
2.90849e-18
4.00584e-18
5.49851e-18
7.52148e-18
1.02531e-17
1.39277e-17
1.88523e-17
2.54265e-17
3.41688e-17
4.57481e-17
6.10235e-17
8.10925e-17
1.0735e-16
1.4156e-16
1.85941e-16
2.43264e-16
3.1698e-16
4.11348e-16
5.31602e-16
6.84128e-16
8.76665e-16
1.11854e-15
1.42091e-15
1.79697e-15
2.2623e-15
2.83502e-15
3.53613e-15
4.38965e-15
5.42282e-15
6.66618e-15
8.15353e-15
9.92186e-15
1.2011e-14
1.44631e-14
1.7322e-14
2.06318e-14
2.44357e-14
2.87745e-14
3.36842e-14
3.91944e-14
4.5326e-14
5.20873e-14
5.94691e-14
6.74389e-14
7.59372e-14
8.4871e-14
9.4106e-14
1.03458e-13
1.12686e-13
1.21477e-13
1.29447e-13
1.36134e-13
1.41004e-13
1.43474e-13
1.42955e-13
1.38923e-13
1.31016e-13
1.19168e-13
1.03757e-13
8.57185e-14
6.65633e-14
4.8211e-14
3.26081e-14
2.1214e-14
1.39662e-14
8.6222e-15
4.96445e-15
2.72682e-15
1.56199e-15
8.93788e-23
1.37125e-22
2.10048e-22
3.19961e-22
4.85032e-22
7.32064e-22
1.10044e-21
1.64784e-21
2.45838e-21
3.65442e-21
5.41323e-21
7.99086e-21
1.17558e-20
1.72364e-20
2.51883e-20
3.66876e-20
5.32622e-20
7.7074e-20
1.11171e-19
1.59837e-19
2.2907e-19
3.27242e-19
4.65993e-19
6.61451e-19
9.3588e-19
1.3199e-18
1.85548e-18
2.59992e-18
3.63113e-18
5.05471e-18
7.01317e-18
9.6981e-18
1.3366e-17
1.8359e-17
2.51314e-17
3.42841e-17
4.66083e-17
6.31415e-17
8.5238e-17
1.14658e-16
1.53678e-16
2.05229e-16
2.73069e-16
3.61986e-16
4.78059e-16
6.2896e-16
8.24324e-16
1.07619e-15
1.39951e-15
1.81275e-15
2.33859e-15
3.00472e-15
3.84475e-15
4.8992e-15
6.21665e-15
7.85484e-15
9.88197e-15
1.23779e-14
1.54356e-14
1.9162e-14
2.36793e-14
2.91259e-14
3.56565e-14
4.34425e-14
5.26716e-14
6.3546e-14
7.62792e-14
9.10932e-14
1.08214e-13
1.27864e-13
1.50256e-13
1.75582e-13
2.04005e-13
2.35637e-13
2.70521e-13
3.08609e-13
3.49741e-13
3.93602e-13
4.39689e-13
4.87251e-13
5.35235e-13
5.82216e-13
6.26335e-13
6.65257e-13
6.96142e-13
7.15754e-13
7.20703e-13
7.07755e-13
6.74441e-13
6.19877e-13
5.45623e-13
4.56405e-13
3.60333e-13
2.68025e-13
1.90887e-13
1.36048e-13
9.20527e-14
5.88217e-14
3.62243e-14
2.31349e-14
2.42417e-22
3.72345e-22
5.71541e-22
8.72973e-22
1.32733e-21
2.00962e-21
3.03031e-21
4.55156e-21
6.8105e-21
1.01526e-20
1.50796e-20
2.2317e-20
3.29111e-20
4.83643e-20
7.08278e-20
1.0337e-19
1.50351e-19
2.17948e-19
3.14881e-19
4.53414e-19
6.50733e-19
9.30849e-19
1.32717e-18
1.88605e-18
2.67152e-18
3.77173e-18
5.30764e-18
7.44456e-18
1.04076e-17
1.45022e-17
2.01411e-17
2.78803e-17
3.84655e-17
5.28928e-17
7.24883e-17
9.90101e-17
1.34779e-16
1.82847e-16
2.47212e-16
3.33086e-16
4.47238e-16
5.98421e-16
7.97903e-16
1.06012e-15
1.40351e-15
1.85146e-15
2.43356e-15
3.18701e-15
4.1584e-15
5.40578e-15
7.00106e-15
9.03291e-15
1.16101e-14
1.48652e-14
1.89592e-14
2.40861e-14
3.04784e-14
3.84129e-14
4.82173e-14
6.02764e-14
7.50393e-14
9.30258e-14
1.14833e-13
1.4114e-13
1.72717e-13
2.10423e-13
2.55205e-13
3.08097e-13
3.70216e-13
4.42744e-13
5.26909e-13
6.23948e-13
7.35072e-13
8.61423e-13
1.00398e-12
1.16355e-12
1.34058e-12
1.53515e-12
1.74669e-12
1.97388e-12
2.21433e-12
2.46425e-12
2.71807e-12
2.96793e-12
3.20288e-12
3.40827e-12
3.56707e-12
3.65975e-12
3.66625e-12
3.56923e-12
3.35809e-12
3.03427e-12
2.61642e-12
2.14343e-12
1.67388e-12
1.28993e-12
9.56667e-13
6.75806e-13
4.60649e-13
3.19456e-13
5.51121e-22
8.47764e-22
1.30415e-21
1.99731e-21
3.04572e-21
4.62513e-21
6.99508e-21
1.05374e-20
1.58119e-20
2.36357e-20
3.51977e-20
5.22213e-20
7.71951e-20
1.137e-19
1.66872e-19
2.44046e-19
3.55667e-19
5.16553e-19
7.4765e-19
1.07847e-18
1.55042e-18
2.22147e-18
3.17237e-18
4.51534e-18
6.40569e-18
9.05766e-18
1.27657e-17
1.79331e-17
2.51104e-17
3.50461e-17
4.87547e-17
6.7606e-17
9.34428e-17
1.28736e-16
1.76784e-16
2.41979e-16
3.30142e-16
4.48963e-16
6.08558e-16
8.22193e-16
1.10719e-15
1.48606e-15
1.98802e-15
2.65071e-15
3.52256e-15
4.66553e-15
6.15863e-15
8.10213e-15
1.06228e-14
1.38802e-14
1.80743e-14
2.34543e-14
3.03302e-14
3.90845e-14
5.0188e-14
6.42174e-14
8.18748e-14
1.04011e-13
1.31653e-13
1.6603e-13
2.08608e-13
2.61127e-13
3.25633e-13
4.0452e-13
5.00575e-13
6.17016e-13
7.57521e-13
9.26278e-13
1.12802e-12
1.36804e-12
1.65223e-12
1.98705e-12
2.37932e-12
2.83565e-12
3.36308e-12
3.9685e-12
4.65832e-12
5.4381e-12
6.31202e-12
7.28228e-12
8.3485e-12
9.50699e-12
1.07501e-11
1.20657e-11
1.34343e-11
1.48046e-11
1.61178e-11
1.72932e-11
1.82289e-11
1.88129e-11
1.89311e-11
1.84864e-11
1.74238e-11
1.57643e-11
1.36341e-11
1.13565e-11
9.23608e-12
7.2103e-12
5.40874e-12
4.01996e-12
1.02509e-21
1.58019e-21
2.43695e-21
3.74262e-21
5.72385e-21
8.71774e-21
1.32235e-20
1.99774e-20
3.00614e-20
4.50591e-20
6.72798e-20
1.00079e-19
1.48313e-19
2.18986e-19
3.22165e-19
4.72265e-19
6.89855e-19
1.00419e-18
1.45671e-18
2.10596e-18
3.03432e-18
4.35732e-18
6.23648e-18
8.89678e-18
1.26506e-17
1.79302e-17
2.53317e-17
3.56745e-17
5.00811e-17
7.00842e-17
9.77694e-17
1.35966e-16
1.88497e-16
2.60515e-16
3.58937e-16
4.93019e-16
6.75106e-16
9.21606e-16
1.25425e-15
1.70173e-15
2.30178e-15
3.10385e-15
4.17257e-15
5.59201e-15
7.47122e-15
9.95114e-15
1.32132e-14
1.749e-14
2.30792e-14
3.03591e-14
3.98101e-14
5.20388e-14
6.78085e-14
8.8076e-14
1.14036e-13
1.47173e-13
1.89325e-13
2.42761e-13
3.10264e-13
3.95237e-13
5.01825e-13
6.35051e-13
8.0098e-13
1.0069e-12
1.26153e-12
1.57507e-12
1.95961e-12
2.42934e-12
3.00074e-12
3.69284e-12
4.52742e-12
5.52919e-12
6.72613e-12
8.15012e-12
9.83562e-12
1.18203e-11
1.41443e-11
1.68498e-11
1.99794e-11
2.35747e-11
2.76738e-11
3.2308e-11
3.74975e-11
4.32463e-11
4.95379e-11
5.63516e-11
6.36307e-11
7.12301e-11
7.88146e-11
8.59991e-11
9.22721e-11
9.70431e-11
9.96529e-11
9.9435e-11
9.58127e-11
8.8607e-11
7.89724e-11
6.84614e-11
5.66866e-11
4.51484e-11
1.5118e-21
2.33721e-21
3.6154e-21
5.57002e-21
8.5461e-21
1.30585e-20
1.98722e-20
3.01198e-20
4.54707e-20
6.83778e-20
1.0243e-19
1.52862e-19
2.27275e-19
3.36679e-19
4.96952e-19
7.30925e-19
1.07131e-18
1.5648e-18
2.27789e-18
3.30485e-18
4.77899e-18
6.88817e-18
9.8963e-18
1.41729e-17
2.02337e-17
2.87963e-17
4.0856e-17
5.77891e-17
8.14923e-17
1.14572e-16
1.60597e-16
2.24444e-16
3.12745e-16
4.34505e-16
6.01903e-16
8.31361e-16
1.14495e-15
1.57227e-15
2.15281e-15
2.93919e-15
4.00124e-15
5.43135e-15
7.35134e-15
9.92135e-15
1.33512e-14
1.79148e-14
2.39688e-14
3.19757e-14
4.25334e-14
5.64124e-14
7.4602e-14
9.83677e-14
1.29324e-13
1.6952e-13
2.21553e-13
2.88697e-13
3.75067e-13
4.85814e-13
6.27363e-13
8.07697e-13
1.03669e-12
1.32651e-12
1.69209e-12
2.15167e-12
2.72743e-12
3.4465e-12
4.3414e-12
5.45131e-12
6.82312e-12
8.51264e-12
1.05861e-11
1.31214e-11
1.62102e-11
1.99594e-11
2.44924e-11
2.99511e-11
3.64974e-11
4.43142e-11
5.36058e-11
6.45975e-11
7.75334e-11
9.2673e-11
1.10285e-10
1.30636e-10
1.53979e-10
1.80534e-10
2.10462e-10
2.4389e-10
2.80978e-10
3.21577e-10
3.64633e-10
4.08957e-10
4.52808e-10
4.93781e-10
5.28601e-10
5.52963e-10
5.61163e-10
5.47333e-10
5.08286e-10
4.41309e-10
1.70374e-21
2.64371e-21
4.10527e-21
6.34991e-21
9.78268e-21
1.50112e-20
2.29434e-20
3.49306e-20
5.29768e-20
8.00427e-20
1.20488e-19
1.80708e-19
2.70055e-19
4.02153e-19
5.96791e-19
8.82609e-19
1.30093e-18
1.91116e-18
2.7985e-18
4.08463e-18
5.94293e-18
8.61958e-18
1.24631e-17
1.79653e-17
2.58182e-17
3.69925e-17
5.28457e-17
7.52706e-17
1.06898e-16
1.51376e-16
2.13742e-16
3.00938e-16
4.22501e-16
5.9149e-16
8.25735e-16
1.14951e-15
1.59576e-15
2.20906e-15
3.04956e-15
4.19815e-15
5.76328e-15
7.88996e-15
1.07714e-14
1.46644e-14
1.9909e-14
2.69543e-14
3.63911e-14
4.89949e-14
6.57801e-14
8.80689e-14
1.1758e-13
1.56539e-13
2.07821e-13
2.75125e-13
3.63196e-13
4.781e-13
6.27568e-13
8.21415e-13
1.07206e-12
1.39519e-12
1.81048e-12
2.34261e-12
3.02239e-12
3.88813e-12
4.98732e-12
6.37871e-12
8.13452e-12
1.03433e-11
1.31134e-11
1.65765e-11
2.08926e-11
2.6255e-11
3.28962e-11
4.10953e-11
5.1185e-11
6.35607e-11
7.86901e-11
9.71232e-11
1.19504e-10
1.46579e-10
1.79212e-10
2.18389e-10
2.6523e-10
3.2099e-10
3.87057e-10
4.64947e-10
5.56284e-10
6.62779e-10
7.86194e-10
9.28454e-10
1.09227e-09
1.27865e-09
1.48718e-09
1.71677e-09
1.96423e-09
2.22223e-09
2.47507e-09
2.68975e-09
2.79878e-09
2.68009e-09
1.4578e-21
2.27114e-21
3.54166e-21
5.50227e-21
8.51594e-21
1.31308e-20
2.01714e-20
3.08738e-20
4.7085e-20
7.15544e-20
1.08363e-19
1.63545e-19
2.45999e-19
3.68801e-19
5.5111e-19
8.20902e-19
1.21891e-18
1.80426e-18
2.6625e-18
3.91708e-18
5.74553e-18
8.40248e-18
1.2252e-17
1.78132e-17
2.58239e-17
3.73298e-17
5.38087e-17
7.73426e-17
1.10857e-16
1.5845e-16
2.25844e-16
3.21013e-16
4.55027e-16
6.43214e-16
9.06738e-16
1.27474e-15
1.7872e-15
2.49886e-15
3.4844e-15
4.84545e-15
6.71987e-15
9.29414e-15
1.28197e-14
1.76348e-14
2.41925e-14
3.30989e-14
4.51612e-14
6.14519e-14
8.33916e-14
1.12856e-13
1.52314e-13
2.05007e-13
2.75174e-13
3.68345e-13
4.91709e-13
6.54584e-13
8.69012e-13
1.1505e-12
1.51895e-12
1.99986e-12
2.62572e-12
3.43786e-12
4.48868e-12
5.84436e-12
7.58828e-12
9.82508e-12
1.26857e-11
1.63333e-11
2.0971e-11
2.685e-11
3.42808e-11
4.36454e-11
5.54125e-11
7.01547e-11
8.85694e-11
1.11502e-10
1.39976e-10
1.75221e-10
2.18711e-10
2.72205e-10
3.37789e-10
4.17923e-10
5.15492e-10
6.33854e-10
7.76887e-10
9.49035e-10
1.15534e-09
1.40145e-09
1.69365e-09
2.03885e-09
2.44465e-09
2.92086e-09
3.47561e-09
4.11235e-09
4.83242e-09
5.62776e-09
6.46821e-09
7.27387e-09
7.85666e-09
7.83311e-09
9.70892e-22
1.51819e-21
2.37626e-21
3.70538e-21
5.75674e-21
8.91191e-21
1.37484e-20
2.11376e-20
3.239e-20
4.94707e-20
7.53171e-20
1.14307e-19
1.72947e-19
2.60876e-19
3.92336e-19
5.88307e-19
8.79613e-19
1.31141e-18
1.94965e-18
2.89045e-18
4.27341e-18
6.30083e-18
9.26497e-18
1.3587e-17
1.98722e-17
2.8988e-17
4.21741e-17
6.11974e-17
8.85699e-17
1.27852e-16
1.84078e-16
2.64346e-16
3.78632e-16
5.40929e-16
7.70799e-16
1.09552e-15
1.55302e-15
2.19588e-15
3.09683e-15
4.35614e-15
6.11164e-15
8.55235e-15
1.19366e-14
1.66167e-14
2.30714e-14
3.19495e-14
4.41278e-14
6.07879e-14
8.35171e-14
1.14441e-13
1.564e-13
2.13175e-13
2.89784e-13
3.92871e-13
5.312e-13
7.16304e-13
9.6331e-13
1.29199e-12
1.72814e-12
2.30527e-12
3.06678e-12
4.06876e-12
5.38342e-12
7.10342e-12
9.34738e-12
1.22666e-11
1.60533e-11
2.09515e-11
2.72691e-11
3.5394e-11
4.58134e-11
5.91368e-11
7.61243e-11
9.77211e-11
1.25098e-10
1.59699e-10
2.03302e-10
2.58084e-10
3.267e-10
4.12379e-10
5.19021e-10
6.51323e-10
8.14901e-10
1.01644e-09
1.26382e-09
1.56633e-09
1.93472e-09
2.38145e-09
2.92069e-09
3.56852e-09
4.34294e-09
5.26406e-09
6.35772e-09
7.64231e-09
9.13218e-09
1.08288e-08
1.26965e-08
1.46101e-08
1.62366e-08
1.68099e-08
5.15784e-22
8.09056e-22
1.26986e-21
1.98518e-21
3.09199e-21
4.79921e-21
7.42447e-21
1.14493e-20
1.76016e-20
2.69787e-20
4.123e-20
6.28291e-20
9.54744e-20
1.44682e-19
2.18657e-19
3.29576e-19
4.95457e-19
7.42903e-19
1.11109e-18
1.65755e-18
2.46661e-18
3.66152e-18
5.42198e-18
8.00939e-18
1.18031e-17
1.7352e-17
2.5449e-17
3.7236e-17
5.43541e-17
7.91553e-17
1.15003e-16
1.66695e-16
2.41056e-16
3.47773e-16
5.0056e-16
7.18781e-16
1.02971e-15
1.47167e-15
2.09834e-15
2.98479e-15
4.23565e-15
5.99638e-15
8.46873e-15
1.19318e-14
1.67704e-14
2.35143e-14
3.28899e-14
4.58918e-14
6.38768e-14
8.86914e-14
1.22842e-13
1.6972e-13
2.33903e-13
3.21552e-13
4.40932e-13
6.03106e-13
8.22834e-13
1.11976e-12
1.51992e-12
2.05779e-12
2.77881e-12
3.74272e-12
5.02787e-12
6.73664e-12
9.00244e-12
1.19986e-11
1.59495e-11
2.11451e-11
2.79583e-11
3.68676e-11
4.8485e-11
6.35909e-11
8.31766e-11
1.08498e-10
1.41142e-10
1.83102e-10
2.3688e-10
3.05598e-10
3.93142e-10
5.04325e-10
6.45083e-10
8.22703e-10
1.04608e-09
1.32602e-09
1.67556e-09
2.11032e-09
2.64889e-09
3.3132e-09
4.12884e-09
5.12539e-09
6.33668e-09
7.80099e-09
9.56097e-09
1.16699e-08
1.41693e-08
1.70904e-08
2.04192e-08
2.40225e-08
2.74655e-08
2.9595e-08
2.23847e-22
3.51962e-22
5.53406e-22
8.66311e-22
1.35094e-21
2.09943e-21
3.25225e-21
5.02301e-21
7.73565e-21
1.18803e-20
1.81965e-20
2.77981e-20
4.23578e-20
6.43825e-20
9.76198e-20
1.47661e-19
2.22825e-19
3.35469e-19
5.03898e-19
7.55177e-19
1.12923e-18
1.68483e-18
2.50827e-18
3.72608e-18
5.52325e-18
8.16974e-18
1.20586e-17
1.77611e-17
2.61053e-17
3.82891e-17
5.60419e-17
8.18547e-17
1.19307e-16
1.73534e-16
2.51879e-16
3.6483e-16
5.27324e-16
7.60594e-16
1.09475e-15
1.57238e-15
2.25363e-15
3.22319e-15
4.60007e-15
6.55113e-15
9.30974e-15
1.32016e-14
1.868e-14
2.63747e-14
3.7158e-14
5.2236e-14
7.32716e-14
1.02552e-13
1.43217e-13
1.99562e-13
2.77456e-13
3.8489e-13
5.32721e-13
7.35661e-13
1.01359e-12
1.39331e-12
1.91084e-12
2.61448e-12
3.56881e-12
4.85994e-12
6.6024e-12
8.94805e-12
1.20977e-11
1.63163e-11
2.1952e-11
2.94616e-11
3.94422e-11
5.26722e-11
7.01636e-11
9.32281e-11
1.2356e-10
1.63344e-10
2.15381e-10
2.8326e-10
3.71554e-10
4.86077e-10
6.34185e-10
8.2515e-10
1.0706e-09
1.38505e-09
1.78649e-09
2.29714e-09
2.94418e-09
3.76064e-09
4.78627e-09
6.06835e-09
7.6625e-09
9.63319e-09
1.20543e-08
1.50147e-08
1.86155e-08
2.29501e-08
2.80743e-08
3.39179e-08
4.00507e-08
4.50751e-08
8.14501e-23
1.28271e-22
2.01874e-22
3.16158e-22
4.93156e-22
7.66599e-22
1.188e-21
1.83581e-21
2.82929e-21
4.34928e-21
6.66945e-21
1.02031e-20
1.55728e-20
2.37151e-20
3.6035e-20
5.46367e-20
8.26645e-20
1.24808e-19
1.88048e-19
2.82753e-19
4.24295e-19
6.35421e-19
9.49719e-19
1.4167e-18
2.10917e-18
3.13404e-18
4.64793e-18
6.87992e-18
1.01643e-17
1.49881e-17
2.20594e-17
3.24054e-17
4.75141e-17
6.95354e-17
1.01571e-16
1.48086e-16
2.15495e-16
3.12999e-16
4.53762e-16
6.56591e-16
9.48296e-16
1.36702e-15
1.96694e-15
2.82481e-15
4.04923e-15
5.79351e-15
8.27365e-15
1.17934e-14
1.6779e-14
2.38277e-14
3.3774e-14
4.77824e-14
6.74742e-14
9.51021e-14
1.33789e-13
1.87858e-13
2.63273e-13
3.68255e-13
5.14106e-13
7.16326e-13
9.96138e-13
1.38252e-12
1.91497e-12
2.64719e-12
3.65203e-12
5.0281e-12
6.90856e-12
9.47289e-12
1.29623e-11
1.77005e-11
2.41205e-11
3.28009e-11
4.45124e-11
6.02799e-11
8.14624e-11
1.09859e-10
1.47843e-10
1.98546e-10
2.6608e-10
3.55843e-10
4.74893e-10
6.32448e-10
8.40501e-10
1.11461e-09
1.47491e-09
1.94727e-09
2.56491e-09
3.37008e-09
4.41629e-09
5.77057e-09
7.51611e-09
9.7547e-09
1.26086e-08
1.62215e-08
2.07808e-08
2.64998e-08
3.35793e-08
4.21169e-08
5.18219e-08
6.12492e-08
2.53728e-23
3.99869e-23
6.29481e-23
9.85745e-23
1.53728e-22
2.38924e-22
3.70234e-22
5.72178e-22
8.82073e-22
1.35663e-21
2.08181e-21
3.1878e-21
4.87117e-21
7.42841e-21
1.13056e-20
1.71729e-20
2.60348e-20
3.93951e-20
5.94993e-20
8.96964e-20
1.3497e-19
2.02724e-19
3.0394e-19
4.54869e-19
6.79525e-19
1.01333e-18
1.50841e-18
2.24142e-18
3.32475e-18
4.92302e-18
7.27687e-18
1.07374e-17
1.58159e-17
2.32558e-17
3.4136e-17
5.0019e-17
7.31644e-17
1.06834e-16
1.55728e-16
2.26605e-16
3.29172e-16
4.77342e-16
6.91021e-16
9.98646e-16
1.44077e-15
2.07511e-15
2.98372e-15
4.28298e-15
6.13775e-15
8.78111e-15
1.25421e-14
1.78842e-14
2.54597e-14
3.61843e-14
5.13417e-14
7.27279e-14
1.02852e-13
1.45214e-13
2.04685e-13
2.8804e-13
4.04674e-13
5.67607e-13
7.94844e-13
1.11125e-12
1.55109e-12
2.16155e-12
3.00744e-12
4.17771e-12
5.7942e-12
8.02356e-12
1.10934e-11
1.53141e-11
2.11082e-11
2.90503e-11
3.99206e-11
5.47774e-11
7.50553e-11
1.02697e-10
1.40333e-10
1.91521e-10
2.61079e-10
3.55528e-10
4.83706e-10
6.5759e-10
8.93444e-10
1.21338e-09
1.64754e-09
2.23701e-09
3.03786e-09
4.12668e-09
5.60821e-09
7.62471e-09
1.03665e-08
1.40813e-08
1.9073e-08
2.57745e-08
3.46737e-08
4.62129e-08
6.04059e-08
7.57973e-08
6.85496e-24
1.0801e-23
1.70003e-23
2.66156e-23
4.14988e-23
6.44914e-23
9.99393e-23
1.54483e-22
2.38243e-22
3.66629e-22
5.63044e-22
8.62996e-22
1.32022e-21
2.01597e-21
3.07274e-21
4.67512e-21
7.10053e-21
1.07654e-20
1.62937e-20
2.46186e-20
3.71334e-20
5.59157e-20
8.40563e-20
1.26148e-19
1.89e-19
2.82697e-19
4.22142e-19
6.29328e-19
9.36653e-19
1.39177e-18
2.06464e-18
3.05782e-18
4.52132e-18
6.6743e-18
9.83633e-18
1.44725e-17
2.12589e-17
3.11763e-17
4.56452e-17
6.67198e-17
9.73657e-17
1.41857e-16
2.06346e-16
2.9967e-16
4.34506e-16
6.29011e-16
9.09149e-16
1.31198e-15
1.89035e-15
2.71943e-15
3.90604e-15
5.60171e-15
8.02105e-15
1.14675e-14
1.63697e-14
2.3332e-14
3.32051e-14
4.71852e-14
6.69514e-14
9.48574e-14
1.34198e-13
1.89579e-13
2.6743e-13
3.76715e-13
5.29918e-13
7.44396e-13
1.04426e-12
1.46296e-12
2.04685e-12
2.86007e-12
3.9913e-12
5.56305e-12
7.74425e-12
1.07677e-11
1.4954e-11
2.07447e-11
2.87475e-11
3.97991e-11
5.50515e-11
7.60936e-11
1.05119e-10
1.45165e-10
2.00446e-10
2.7684e-10
3.82586e-10
5.29333e-10
7.33721e-10
1.01981e-09
1.42303e-09
1.99708e-09
2.82588e-09
4.04422e-09
5.87149e-09
8.661e-09
1.29539e-08
1.94684e-08
2.93248e-08
4.3766e-08
6.35042e-08
8.67743e-08
1.60746e-24
2.53014e-24
3.982e-24
6.23579e-24
9.72733e-24
1.51265e-23
2.3459e-23
3.62957e-23
5.60345e-23
8.6335e-23
1.32766e-22
2.03797e-22
3.12273e-22
4.77663e-22
7.29402e-22
1.11195e-21
1.69233e-21
2.57143e-21
3.90084e-21
5.90802e-21
8.93363e-21
1.34872e-20
2.03295e-20
3.05944e-20
4.59696e-20
6.89626e-20
1.03294e-19
1.54473e-19
2.30649e-19
3.43852e-19
5.11814e-19
7.60626e-19
1.12861e-18
1.67197e-18
2.47298e-18
3.65194e-18
5.38434e-18
7.92591e-18
1.16486e-17
1.70927e-17
2.50413e-17
3.66284e-17
5.34928e-17
7.79998e-17
1.13557e-16
1.65068e-16
2.39575e-16
3.47175e-16
5.02329e-16
7.25707e-16
1.04681e-15
1.50769e-15
2.16815e-15
3.11324e-15
4.46362e-15
6.3903e-15
9.1352e-15
1.30402e-14
1.85875e-14
2.64566e-14
3.76038e-14
5.33733e-14
7.56517e-14
1.07084e-13
1.51375e-13
2.13705e-13
3.0131e-13
4.24292e-13
5.96724e-13
8.38206e-13
1.17599e-12
1.64794e-12
2.30658e-12
3.22472e-12
4.5032e-12
6.28166e-12
8.75337e-12
1.21858e-11
1.69492e-11
2.35566e-11
3.27193e-11
4.54262e-11
6.30542e-11
8.7526e-11
1.21535e-10
1.68869e-10
2.34892e-10
3.27219e-10
4.56814e-10
6.40071e-10
9.03495e-10
1.29557e-09
1.91689e-09
2.9905e-09
5.06677e-09
9.16857e-09
1.73246e-08
3.2875e-08
5.89166e-08
9.30877e-08
3.57169e-25
5.61479e-25
8.8523e-25
1.38974e-24
2.17404e-24
3.39081e-24
5.2747e-24
8.18618e-24
1.26775e-23
1.95944e-23
3.02283e-23
4.65504e-23
7.15615e-23
1.09827e-22
1.68275e-22
2.57409e-22
3.93123e-22
5.99437e-22
9.12579e-22
1.38712e-21
2.10512e-21
3.1898e-21
4.82584e-21
7.28966e-21
1.09943e-20
1.65558e-20
2.48922e-20
3.73684e-20
5.60113e-20
8.38249e-20
1.25254e-19
1.86864e-19
2.78335e-19
4.13922e-19
6.14574e-19
9.11032e-19
1.34833e-18
1.99233e-18
2.93921e-18
4.32917e-18
6.36625e-18
9.34695e-18
1.37014e-17
2.00527e-17
2.93016e-17
4.27489e-17
6.22692e-17
9.05601e-17
1.31497e-16
1.90639e-16
2.75947e-16
3.98803e-16
5.75465e-16
8.29112e-16
1.19273e-15
1.71321e-15
2.45706e-15
3.51851e-15
5.03085e-15
7.18235e-15
1.02387e-14
1.45743e-14
2.07158e-14
2.94033e-14
4.16751e-14
5.89861e-14
8.33724e-14
1.17679e-13
1.65878e-13
2.33502e-13
3.28252e-13
4.60835e-13
6.46105e-13
9.04646e-13
1.26497e-12
1.76651e-12
2.46382e-12
3.43225e-12
4.77595e-12
6.63882e-12
9.21989e-12
1.27947e-11
1.77453e-11
2.46021e-11
3.41024e-11
4.72709e-11
6.55302e-11
9.08418e-11
1.25889e-10
1.74386e-10
2.41861e-10
3.38915e-10
4.92307e-10
7.63856e-10
1.31758e-09
2.55551e-09
5.91109e-09
1.69147e-08
4.66094e-08
9.43124e-08
8.40326e-21
1.18095e-20
1.79536e-20
2.53153e-20
3.3359e-20
4.14969e-20
4.90766e-20
5.54688e-20
6.0167e-20
6.28632e-20
6.34913e-20
6.22342e-20
5.94982e-20
5.58711e-20
5.20894e-20
4.90746e-20
4.81468e-20
5.16654e-20
6.44439e-20
9.30849e-20
1.78154e-19
2.2885e-19
3.09948e-19
4.04587e-19
5.04432e-19
6.01231e-19
6.86925e-19
7.54481e-19
7.98792e-19
8.17292e-19
8.10247e-19
7.80611e-19
7.33574e-19
6.75989e-19
6.15806e-19
5.62076e-19
5.26274e-19
5.26638e-19
5.97957e-19
7.86931e-19
3.59273e-18
4.28598e-18
5.26957e-18
6.36826e-18
7.48471e-18
8.51909e-18
9.38005e-18
9.99469e-18
1.03162e-17
1.03277e-17
1.00435e-17
9.50503e-18
8.77435e-18
7.92812e-18
7.0497e-18
6.22667e-18
5.55669e-18
5.17323e-18
5.30972e-18
6.27855e-18
6.68429e-17
7.4817e-17
8.55038e-17
9.67328e-17
1.07534e-16
1.16908e-16
1.23961e-16
1.28024e-16
1.28724e-16
1.26009e-16
1.20139e-16
1.11623e-16
1.01152e-16
8.95364e-17
7.76209e-17
6.62452e-17
5.62366e-17
4.85431e-17
4.46326e-17
4.6567e-17
1.13969e-15
1.20724e-15
1.29964e-15
1.39094e-15
1.47167e-15
1.533e-15
1.56749e-15
1.56992e-15
1.53792e-15
1.47208e-15
1.37589e-15
1.25479e-15
1.11577e-15
9.66882e-16
8.16361e-16
6.72156e-16
5.4152e-16
4.31708e-16
3.52399e-16
3.19332e-16
1.7702e-14
1.78733e-14
1.82893e-14
1.86619e-14
1.89038e-14
1.89436e-14
1.87257e-14
1.82162e-14
1.74038e-14
1.63004e-14
1.49421e-14
1.33788e-14
1.16738e-14
9.90023e-15
8.1343e-15
6.45014e-15
4.91748e-15
3.6033e-15
2.58755e-15
2.01519e-15
2.48806e-13
2.40876e-13
2.35834e-13
2.30752e-13
2.24853e-13
2.17574e-13
2.08497e-13
1.97395e-13
1.84208e-13
1.69025e-13
1.52105e-13
1.33808e-13
1.14627e-13
9.51459e-14
7.6015e-14
5.79405e-14
4.16481e-14
2.78807e-14
1.7467e-14
1.16475e-14
3.14167e-12
2.93019e-12
2.75771e-12
2.59782e-12
2.44346e-12
2.28959e-12
2.13214e-12
1.96846e-12
1.79725e-12
1.61821e-12
1.43153e-12
1.23869e-12
1.04263e-12
8.47257e-13
6.57823e-13
4.80954e-13
3.24448e-13
1.96991e-13
1.0714e-13
6.13647e-14
3.53507e-11
3.18785e-11
2.89189e-11
2.62857e-11
2.39103e-11
2.17336e-11
1.97024e-11
1.77689e-11
1.58976e-11
1.40628e-11
1.22445e-11
1.04351e-11
8.63981e-12
6.87794e-12
5.18779e-12
3.62984e-12
2.28584e-12
1.25043e-12
5.91135e-13
2.93319e-13
3.51069e-10
3.06981e-10
2.68655e-10
2.35711e-10
2.07402e-10
1.82918e-10
1.61453e-10
1.42292e-10
1.24829e-10
1.08594e-10
9.31798e-11
7.83324e-11
6.38833e-11
4.98777e-11
3.65433e-11
2.44244e-11
1.42999e-11
7.03546e-12
2.91245e-12
1.26555e-12
2.22105e-09
1.90138e-09
1.61552e-09
1.3739e-09
1.17304e-09
1.00697e-09
8.68746e-10
7.52e-10
6.51253e-10
5.621e-10
4.8084e-10
4.04781e-10
3.31718e-10
2.60743e-10
1.92059e-10
1.2807e-10
7.33584e-11
3.41398e-11
1.27417e-11
4.8922e-12
6.71081e-09
5.73034e-09
4.83444e-09
4.0764e-09
3.45349e-09
2.94719e-09
2.53469e-09
2.19382e-09
1.90553e-09
1.65398e-09
1.4267e-09
1.21411e-09
1.00885e-09
8.06768e-10
6.07904e-10
4.17981e-10
2.49623e-10
1.21037e-10
4.56638e-11
1.67498e-11
1.50442e-08
1.29142e-08
1.08929e-08
9.15866e-09
7.73331e-09
6.58573e-09
5.66539e-09
4.91914e-09
4.29878e-09
3.76425e-09
3.28406e-09
2.83366e-09
2.39443e-09
1.9546e-09
1.51197e-09
1.0771e-09
6.76419e-10
3.50373e-10
1.39625e-10
5.11457e-11
2.79478e-08
2.42927e-08
2.06012e-08
1.734e-08
1.46332e-08
1.24622e-08
1.07416e-08
9.36805e-09
8.24495e-09
7.29165e-09
6.44182e-09
5.64274e-09
4.85419e-09
4.04902e-09
3.21726e-09
2.37369e-09
1.5642e-09
8.66711e-10
3.72955e-10
1.40491e-10
4.52714e-08
4.0164e-08
3.44602e-08
2.91578e-08
2.46571e-08
2.1033e-08
1.81826e-08
1.59402e-08
1.41393e-08
1.26352e-08
1.13072e-08
1.00579e-08
8.81044e-09
7.50861e-09
6.12403e-09
4.66991e-09
3.21577e-09
1.89456e-09
8.84772e-10
3.50454e-10
6.57512e-08
6.00546e-08
5.24961e-08
4.48688e-08
3.81434e-08
3.26544e-08
2.83443e-08
2.49932e-08
2.23488e-08
2.01808e-08
1.82929e-08
1.65214e-08
1.47314e-08
1.28176e-08
1.07164e-08
8.42554e-09
6.03593e-09
3.75418e-09
1.89255e-09
7.99815e-10
8.71493e-08
8.26784e-08
7.41764e-08
6.4384e-08
5.52344e-08
4.75794e-08
4.15318e-08
3.68605e-08
3.32315e-08
3.03161e-08
2.78227e-08
2.54985e-08
2.31252e-08
2.05209e-08
1.75581e-08
1.4197e-08
1.05367e-08
6.87147e-09
3.70471e-09
1.68249e-09
1.06841e-07
1.06175e-07
9.84731e-08
8.72866e-08
7.59023e-08
6.59959e-08
5.80392e-08
5.18892e-08
4.71688e-08
4.34555e-08
4.03506e-08
3.74909e-08
3.45465e-08
3.12245e-08
2.72939e-08
2.26385e-08
1.73405e-08
1.17846e-08
6.73153e-09
3.2852e-09
1.22712e-07
1.28617e-07
1.24115e-07
1.13004e-07
1.00077e-07
8.81186e-08
7.82188e-08
7.04934e-08
6.4607e-08
6.00741e-08
5.63884e-08
5.30588e-08
4.96133e-08
4.56066e-08
4.06544e-08
3.45085e-08
2.71863e-08
1.91521e-08
1.14963e-08
5.99318e-09
1.34115e-07
1.4871e-07
1.50216e-07
1.41237e-07
1.27885e-07
1.14316e-07
1.02556e-07
9.32069e-08
8.61017e-08
8.07458e-08
7.65382e-08
7.2848e-08
6.90297e-08
6.44378e-08
5.84719e-08
5.06791e-08
4.09409e-08
2.97638e-08
1.86377e-08
1.0287e-08
1.1501e-187
8.83375e-188
6.05862e-188
4.10422e-188
3.02533e-188
2.57089e-188
2.47103e-188
2.52544e-188
2.60691e-188
2.64393e-188
2.60563e-188
2.49407e-188
2.34196e-188
2.21579e-188
2.22514e-188
2.53374e-188
3.35317e-188
4.86883e-188
7.01135e-188
9.01804e-188
7.33224e-186
5.5611e-186
3.77823e-186
2.54448e-186
1.87298e-186
1.5953e-186
1.53856e-186
1.57673e-186
1.63048e-186
1.65538e-186
1.63229e-186
1.56261e-186
1.46695e-186
1.38718e-186
1.3927e-186
1.58832e-186
2.11219e-186
3.09171e-186
4.49931e-186
5.86338e-186
4.55913e-184
3.41218e-184
2.29539e-184
1.53676e-184
1.12991e-184
9.64929e-185