/*--------------------------------*- C++ -*----------------------------------*\
| =========                 |                                                 |
| \\      /  F ield         | OpenFOAM: The Open Source CFD Toolbox           |
|  \\    /   O peration     | Version:  2.1.0                                 |
|   \\  /    A nd           | Web:      www.OpenFOAM.org                      |
|    \\/     M anipulation  |                                                 |
\*---------------------------------------------------------------------------*/
FoamFile
{
    version     2.0;
    format      ascii;
    class       volScalarField;
    location    "0.13";
    object      k;
}
// * * * * * * * * * * * * * * * * * * * * * * * * * * * * * * * * * * * * * //

dimensions      [0 2 -2 0 0 0 0];

internalField   nonuniform List<scalar> 
6400
(
0.0220245
0.0222914
0.0224009
0.0226263
0.0227528
0.0229858
0.0231268
0.0233741
0.0235292
0.0237902
0.023957
0.0242259
0.0244022
0.0246663
0.0248501
0.0250988
0.0252837
0.025512
0.0256893
0.0258948
0.0260586
0.0262393
0.0263865
0.0265415
0.0266701
0.0267996
0.0269083
0.0270136
0.0271016
0.0271831
0.0272479
0.0273035
0.0273452
0.0273793
0.0274036
0.027413
0.0274134
0.0274077
0.0273941
0.0273723
0.0273422
0.0273041
0.0272576
0.0272027
0.0271387
0.0270659
0.0269839
0.0268921
0.0267898
0.0266765
0.0265513
0.0264173
0.0262733
0.0261184
0.0259532
0.0257783
0.0255921
0.0253942
0.0251855
0.0249664
0.024737
0.0244978
0.0242449
0.0239804
0.0237052
0.0234167
0.0231108
0.0227924
0.0224556
0.0220999
0.0217298
0.021337
0.0209279
0.0204997
0.0200532
0.0195913
0.0191149
0.0186267
0.0181291
0.0176231
0.0171066
0.0165696
0.0159958
0.0154196
0.0148208
0.0141944
0.0135287
0.0127979
0.0119802
0.0110356
0.00992017
0.00855707
0.00686716
0.00482378
0.00262141
0.00167706
0.00211054
0.00421905
0.00617866
0.00679724
0.0324
0.0340126
0.0346596
0.0359019
0.0365428
0.0377476
0.0383901
0.0395532
0.0402036
0.0413081
0.0419549
0.042983
0.0436166
0.0445492
0.0451665
0.0459975
0.0465909
0.0473265
0.0478854
0.0485386
0.0490593
0.0496401
0.0501239
0.0506406
0.0510905
0.0515524
0.0519709
0.0523884
0.0527772
0.0531564
0.0535103
0.0538507
0.0541765
0.0544944
0.0548037
0.0551075
0.0554054
0.0557009
0.0559916
0.05628
0.0565648
0.0568482
0.0571269
0.0574001
0.0576678
0.057931
0.0581868
0.0584328
0.0586683
0.0588956
0.0591085
0.0593169
0.0595166
0.0597055
0.0598882
0.0600616
0.0602183
0.0603589
0.0604843
0.0605969
0.0606897
0.0607724
0.060828
0.0608626
0.0608766
0.060878
0.0608365
0.060766
0.0606524
0.0604941
0.0602863
0.0600153
0.0596857
0.0592793
0.058797
0.0582314
0.0575746
0.0568255
0.0559797
0.0550378
0.0540036
0.0528798
0.0516452
0.0502494
0.0486956
0.0469302
0.0449333
0.0426434
0.0400396
0.0370781
0.033761
0.0300708
0.0260577
0.0219202
0.0177691
0.0138378
0.0107525
0.00858326
0.00719051
0.00595299
0.0336977
0.0358231
0.0366921
0.0383369
0.0392302
0.0407972
0.0417069
0.0431923
0.0441072
0.0454945
0.0463873
0.0476546
0.0485182
0.0496658
0.0504958
0.0515309
0.0523178
0.0532493
0.053987
0.0548259
0.0555133
0.0562681
0.0569081
0.057586
0.058183
0.0587927
0.0593505
0.059903
0.0604235
0.0609276
0.0614112
0.0618751
0.0623266
0.0627608
0.063184
0.0635904
0.0639862
0.0643702
0.0647435
0.0651045
0.0654558
0.0657996
0.0661292
0.0664435
0.0667462
0.0670351
0.0673017
0.0675429
0.0677559
0.0679537
0.0681265
0.068287
0.0684269
0.0685402
0.0686402
0.0687169
0.068767
0.0687949
0.0688052
0.0687903
0.068725
0.0686404
0.068503
0.0683361
0.0681226
0.0678616
0.0675549
0.0671919
0.0667726
0.0662917
0.0657386
0.0651092
0.0643955
0.0635845
0.0626728
0.0616476
0.0605021
0.0592307
0.0578252
0.0562848
0.054607
0.0527919
0.0508439
0.0487851
0.0466069
0.0443227
0.0419255
0.0394162
0.0367746
0.0339804
0.0309951
0.0277959
0.0243484
0.0206827
0.0168645
0.0131437
0.0100236
0.00753061
0.00566831
0.00384861
0.0355574
0.0378549
0.0388009
0.0406004
0.0415957
0.0433056
0.0443274
0.0459394
0.0469666
0.0484718
0.0494828
0.050872
0.051851
0.0531187
0.0540542
0.055203
0.0560849
0.0571213
0.0579443
0.0588778
0.059639
0.0604767
0.0611768
0.0619242
0.0625663
0.0632298
0.063819
0.0644077
0.0649463
0.0654664
0.0659514
0.0664076
0.0668434
0.0672499
0.0676349
0.0679871
0.0683218
0.0686331
0.0689228
0.0691804
0.0694146
0.0696317
0.0698163
0.0699705
0.0701056
0.0702121
0.0702834
0.070318
0.0703304
0.0703249
0.0702616
0.0701748
0.0700497
0.0698729
0.0696659
0.0694033
0.0690863
0.0687212
0.068291
0.0678005
0.0672455
0.0666211
0.0659214
0.0651517
0.064298
0.0633652
0.0623514
0.0612509
0.0600702
0.0588053
0.057458
0.056031
0.0545256
0.0529459
0.0512969
0.0495783
0.0477972
0.0459515
0.0440463
0.042085
0.0400717
0.0380098
0.0359021
0.0337515
0.031559
0.0293318
0.0270687
0.0247959
0.0225349
0.0202888
0.0180358
0.0158086
0.0136402
0.0115359
0.00947926
0.00757167
0.00581455
0.00435123
0.00334557
0.00288307
0.0360635
0.0383259
0.039261
0.0410539
0.0420472
0.0437488
0.0447663
0.046362
0.0473767
0.0488563
0.0498458
0.0512023
0.0521499
0.0533791
0.0542715
0.0553738
0.0561997
0.0571785
0.0579313
0.0587935
0.0594703
0.0602238
0.0608223
0.0614697
0.061988
0.0625323
0.0629761
0.0634235
0.0638001
0.0641588
0.0644583
0.0647165
0.0649441
0.0651305
0.0652748
0.0653683
0.065418
0.0654344
0.0654304
0.0653554
0.0652328
0.0650847
0.0648731
0.0646116
0.0643155
0.063959
0.0635474
0.0630928
0.0625825
0.0620141
0.0613949
0.0607232
0.0599919
0.0592061
0.0583705
0.057473
0.0565241
0.0555278
0.054475
0.0533759
0.0522284
0.051032
0.0497927
0.0485102
0.0471852
0.045824
0.044426
0.0429951
0.0415341
0.0400411
0.0385204
0.0369668
0.0353902
0.0337927
0.0321796
0.0305485
0.0289033
0.0272502
0.0255993
0.0239588
0.0223309
0.0207219
0.0191415
0.0176006
0.016098
0.014631
0.0132239
0.0119628
0.0107929
0.00965465
0.00849434
0.00743948
0.00655414
0.00572594
0.00488914
0.00410688
0.0035068
0.00309769
0.00292476
0.00289966
0.0335686
0.035551
0.0363703
0.0379501
0.0388123
0.0403043
0.0411715
0.0425549
0.0433999
0.0446626
0.0454648
0.0465995
0.0473432
0.0483445
0.0490164
0.049882
0.0504696
0.0511968
0.0516919
0.052286
0.0526894
0.0531565
0.0534653
0.0538083
0.0540085
0.0542206
0.054322
0.0543864
0.0544046
0.0543988
0.0543121
0.0541535
0.0539724
0.0537416
0.0534448
0.0530989
0.0527207
0.0522839
0.0517993
0.0512671
0.0506942
0.050073
0.0494067
0.0487014
0.0479581
0.0471684
0.0463451
0.0454896
0.0445938
0.0436674
0.0427147
0.0417292
0.0407166
0.0396759
0.0386078
0.037512
0.0363968
0.0352611
0.0341067
0.0329393
0.0317565
0.0305618
0.0293593
0.0281496
0.0269349
0.0257181
0.0244983
0.0232783
0.02206
0.0208463
0.0196453
0.0185127
0.0173985
0.0163473
0.0153141
0.0143407
0.0133951
0.0125103
0.0116592
0.0108654
0.0101053
0.00940329
0.00873517
0.0081178
0.00753345
0.00699459
0.00649468
0.00603769
0.00560282
0.00518837
0.00480005
0.00444168
0.00411403
0.00379481
0.0035132
0.0032622
0.00309546
0.00301799
0.00300313
0.00308423
0.0276677
0.0291467
0.0297531
0.0309228
0.0315344
0.0326243
0.0332092
0.0341944
0.0347317
0.0355989
0.0360748
0.0368167
0.0372203
0.0378311
0.0381549
0.0386345
0.0388729
0.0391957
0.0393475
0.0395274
0.0396039
0.0396418
0.0396476
0.0396114
0.0394779
0.0393034
0.0390944
0.038837
0.0385173
0.0381677
0.0377683
0.0373195
0.0368375
0.0363201
0.035756
0.0351581
0.0345347
0.0338711
0.0331775
0.0324593
0.0317157
0.0309444
0.0301558
0.0293487
0.0285224
0.0276803
0.0268288
0.025964
0.0250892
0.02421
0.0233246
0.0224343
0.0215465
0.020683
0.0198257
0.0189948
0.0181786
0.0173811
0.0166009
0.0158434
0.0151055
0.014392
0.0137049
0.0130401
0.0124041
0.0117912
0.0112051
0.010643
0.0101124
0.00960412
0.00913056
0.00868322
0.00826388
0.00786989
0.00749942
0.00715386
0.00682927
0.00652757
0.00624383
0.00598098
0.005733
0.00550431
0.00528459
0.00508304
0.00488699
0.00470585
0.00452988
0.00436352
0.00420105
0.00404731
0.00389892
0.00376063
0.0036324
0.00351659
0.00342442
0.00336806
0.00334417
0.00336356
0.00351852
0.00360298
0.0198906
0.0207998
0.0211659
0.0218586
0.0222015
0.0228172
0.0231187
0.0236349
0.0238851
0.0242922
0.0244864
0.0247763
0.0249092
0.025071
0.0251374
0.025172
0.0251755
0.0251384
0.0250103
0.0248606
0.0246713
0.0244396
0.0241533
0.0238484
0.0235011
0.0231204
0.022723
0.0222988
0.0218467
0.0213828
0.0209027
0.0204025
0.019894
0.0193763
0.0188515
0.0183214
0.0177925
0.0172631
0.0167365
0.0162143
0.0157028
0.0151919
0.0146961
0.0142085
0.0137331
0.0132695
0.0128243
0.0123888
0.0119727
0.0115725
0.0111885
0.0108218
0.0104747
0.0101467
0.00983636
0.00954637
0.0092715
0.00901437
0.00877308
0.00854784
0.00833655
0.00814081
0.00795855
0.00778836
0.00763184
0.00748638
0.00735355
0.00723099
0.00712051
0.00701664
0.00692596
0.00683866
0.00676283
0.00668924
0.00662468
0.00656157
0.00650565
0.00644995
0.00639973
0.0063488
0.00630171
0.00625276
0.00620486
0.00615441
0.00610132
0.00604248
0.00597712
0.00590236
0.00581875
0.00572374
0.00561995
0.00550778
0.00539354
0.00528283
0.00519631
0.00515652
0.00514942
0.00527549
0.00548752
0.00561605
0.0119931
0.0123613
0.0125036
0.0127563
0.0128769
0.0130697
0.0131588
0.0132814
0.0133341
0.0133795
0.0133919
0.0133939
0.0133638
0.0132945
0.0131998
0.013099
0.0129634
0.0128062
0.0126249
0.0124402
0.0122332
0.0120139
0.0117812
0.0115513
0.0113088
0.0110639
0.0108228
0.0105806
0.0103387
0.010102
0.00987332
0.00964611
0.0094286
0.00921858
0.00901843
0.00882483
0.0086441
0.00847241
0.0083119
0.00816052
0.00802414
0.00789404
0.00777914
0.00767334
0.00757993
0.00749599
0.0074258
0.00736273
0.00731345
0.0072727
0.00724279
0.00722287
0.00721341
0.00721027
0.0072155
0.00723236
0.00725451
0.00728715
0.00732533
0.00737345
0.007427
0.00749006
0.00755866
0.00763577
0.00771903
0.00780996
0.00790716
0.00801183
0.00812337
0.00824161
0.00836787
0.00850009
0.00864128
0.00878898
0.00894583
0.00910973
0.00928308
0.00946375
0.00965395
0.00985083
0.0100564
0.0102677
0.010486
0.0107083
0.0109347
0.0111636
0.0113924
0.0116175
0.0118326
0.0120358
0.0122221
0.0123898
0.0125374
0.0126684
0.0127897
0.0129304
0.0131549
0.0135326
0.014016
0.0143569
0.0070068
0.00710287
0.00713517
0.00717654
0.00719333
0.00720367
0.00720537
0.00720208
0.00718223
0.00714938
0.00710911
0.00706453
0.00701046
0.00694675
0.00687927
0.00681042
0.00673602
0.00665778
0.00658043
0.00650547
0.00642954
0.00635531
0.00628544
0.00622046
0.00615749
0.00609994
0.00604894
0.00600259
0.00596132
0.00592621
0.00589824
0.00587481
0.00585835
0.00584829
0.00584382
0.00584287
0.00585132
0.0058623
0.00588219
0.00590488
0.00593574
0.00597051
0.00601153
0.00605822
0.00611012
0.00616742
0.00623085
0.00629841
0.00637303
0.00645139
0.00653653
0.00662583
0.00672153
0.0068217
0.00692821
0.00703962
0.00715703
0.00728012
0.0074092
0.00754457
0.00768615
0.00783447
0.00798939
0.00815158
0.00832095
0.00849845
0.00868383
0.00887823
0.0090817
0.00929506
0.00951889
0.00975361
0.0100003
0.0102592
0.0105317
0.0108181
0.01112
0.0114379
0.0117736
0.0121277
0.0125023
0.0128981
0.0133173
0.0137609
0.0142312
0.0147295
0.015258
0.0158203
0.016422
0.0170662
0.0177624
0.0185141
0.0193324
0.0202236
0.0211996
0.0222648
0.0234065
0.0245636
0.0253112
0.0255964
0.00728077
0.00739871
0.00744008
0.00750043
0.00752726
0.00755628
0.00756599
0.00756929
0.00756629
0.00754853
0.0075136
0.00747327
0.00742707
0.00737243
0.00730691
0.00723504
0.00716172
0.0070843
0.00700115
0.00691728
0.00683466
0.00675188
0.00666919
0.00658974
0.00651348
0.00644098
0.00637141
0.00630831
0.00625016
0.00619665
0.00614856
0.00610806
0.0060725
0.00604208
0.0060187
0.00600106
0.00599029
0.00598539
0.00598425
0.00599199
0.00600317
0.00602319
0.00604675
0.00607743
0.00611356
0.00615503
0.00620314
0.00625522
0.00631518
0.00637814
0.00644859
0.00652326
0.00660387
0.0066894
0.00678096
0.00687701
0.00697925
0.0070867
0.00719946
0.00731789
0.00744199
0.00757189
0.00770778
0.00784984
0.00799799
0.00815286
0.0083143
0.00848292
0.00865863
0.00884221
0.00903334
0.00923293
0.00944063
0.00965741
0.00988291
0.0101183
0.0103631
0.0106188
0.0108848
0.0111626
0.0114522
0.0117549
0.0120712
0.0124026
0.0127502
0.0131158
0.0135016
0.01391
0.0143446
0.0148076
0.0153012
0.015835
0.0164169
0.0170586
0.0177756
0.0185887
0.0195205
0.020563
0.0214406
0.0218336
0.0124673
0.0128877
0.0130527
0.0133554
0.0135023
0.0137517
0.0138702
0.014053
0.0141367
0.0142441
0.0142889
0.0143198
0.014326
0.0143208
0.0142688
0.0141867
0.0140863
0.0139715
0.0138197
0.0136532
0.0134631
0.013264
0.0130435
0.0128116
0.0125633
0.0123145
0.0120464
0.01178
0.0115116
0.0112434
0.0109693
0.0107066
0.0104452
0.0101848
0.00993409
0.00969155
0.00945425
0.0092249
0.00901027
0.00879934
0.00860322
0.00841543
0.00824166
0.00807502
0.00792375
0.00778101
0.00765165
0.00753086
0.00742518
0.00732623
0.00724057
0.00716494
0.00709854
0.00704221
0.00699613
0.00695673
0.00692702
0.00690514
0.00689206
0.006886
0.00688437
0.00689069
0.00690276
0.00692054
0.00694288
0.00697026
0.00700141
0.00703663
0.00707335
0.00711361
0.00715377
0.0071962
0.0072373
0.00727939
0.00731827
0.00735753
0.00739147
0.00742448
0.00745122
0.00747502
0.00749233
0.00750497
0.00751099
0.00751318
0.00751171
0.00750279
0.0074938
0.00748071
0.00747127
0.00746486
0.0074628
0.00746628
0.00748517
0.007523
0.0075944
0.00771604
0.00792747
0.00826011
0.0087273
0.0090433
0.0201665
0.0211399
0.0215346
0.0222924
0.02267
0.0233655
0.0237099
0.0243189
0.0246172
0.0251209
0.0253652
0.0257593
0.025948
0.0262268
0.0263548
0.0265087
0.0265723
0.0266046
0.0266081
0.0265718
0.026448
0.0263025
0.0261178
0.0258894
0.0256065
0.0253044
0.0249425
0.0245505
0.0241361
0.0236975
0.0232186
0.0227314
0.0222261
0.0216942
0.0211528
0.0206038
0.0200369
0.0194614
0.0188896
0.0183048
0.017725
0.0171451
0.016572
0.0159988
0.0154363
0.01488
0.0143337
0.0137967
0.013277
0.0127669
0.0122739
0.0117992
0.01134
0.0108991
0.0104817
0.0100836
0.00970644
0.00935188
0.00901505
0.00869652
0.00839861
0.0081151
0.00784919
0.00759784
0.00736168
0.00713578
0.00692573
0.00672365
0.00653766
0.00635935
0.00619486
0.0060349
0.00588769
0.0057436
0.00560746
0.00547712
0.00535037
0.00522865
0.00511075
0.00499492
0.00488267
0.00477394
0.00466628
0.00456499
0.00446358
0.00436863
0.00427563
0.0041892
0.00410828
0.00403475
0.00396899
0.00391148
0.00386344
0.0038293
0.00381449
0.00381322
0.0038899
0.00401946
0.00422489
0.0043173
0.0275683
0.0291026
0.0297339
0.0309576
0.0316069
0.0327579
0.0333938
0.034449
0.0350494
0.0359937
0.0365411
0.037366
0.0378494
0.0385505
0.0389608
0.0395354
0.0398639
0.0403132
0.0405598
0.0408719
0.0410203
0.0411925
0.041267
0.0413032
0.0413092
0.0412766
0.041155
0.0409906
0.0407945
0.04055
0.0402425
0.039906
0.0395222
0.039083
0.0386111
0.0381022
0.0375442
0.0369479
0.0363246
0.035657
0.0349548
0.0342237
0.0334614
0.0326652
0.031847
0.0310034
0.0301341
0.0292428
0.0283336
0.0274045
0.0264581
0.025499
0.0245281
0.0235442
0.0225656
0.0216078
0.0206599
0.0197367
0.0188347
0.0179552
0.0171035
0.016273
0.0154713
0.0146944
0.0139523
0.0132333
0.0125539
0.011899
0.0112808
0.0106875
0.0101343
0.0096042
0.0091179
0.00865347
0.00822173
0.00781172
0.00743106
0.0070675
0.00673329
0.00641207
0.00611092
0.00582472
0.00555101
0.00529677
0.00505366
0.00482535
0.00460258
0.00438834
0.00418338
0.00399372
0.00381914
0.00365169
0.00349647
0.00335716
0.00322985
0.00314228
0.00310052
0.00309183
0.00321544
0.00329921
0.0329494
0.0349621
0.0357953
0.0374071
0.0382936
0.0398243
0.0407273
0.0421578
0.0430503
0.0443682
0.0452282
0.0464257
0.0472369
0.048309
0.0490574
0.0500026
0.0506761
0.0514936
0.0520833
0.0527727
0.0532697
0.053835
0.0542404
0.0546884
0.0550034
0.0553348
0.0555456
0.0557535
0.0558737
0.0559462
0.0559717
0.0559738
0.0559144
0.0557697
0.0556006
0.055388
0.0551093
0.0547809
0.0544207
0.0540022
0.0535359
0.0530243
0.0524661
0.0518604
0.0512108
0.0505155
0.0497809
0.0489996
0.0481774
0.0473203
0.046421
0.045485
0.0445187
0.0435178
0.0424823
0.0414155
0.0403156
0.0391831
0.0380245
0.0368377
0.0356292
0.0344028
0.0331604
0.0319027
0.0306335
0.0293542
0.028067
0.0267738
0.0254793
0.0241811
0.0228872
0.0215968
0.0203867
0.0191929
0.0180801
0.0169794
0.0159457
0.0149239
0.0139699
0.0130433
0.012179
0.0113384
0.0105341
0.00974966
0.00901982
0.00835134
0.00774288
0.00713192
0.00648799
0.00589485
0.00542333
0.00498195
0.00449509
0.00403051
0.00360383
0.00330413
0.00305491
0.00294006
0.00291079
0.00295709
0.0350145
0.0372836
0.0382226
0.0400277
0.041032
0.042752
0.043789
0.0454108
0.046455
0.0479686
0.048997
0.0503946
0.0513892
0.0526656
0.0536112
0.0547666
0.0556512
0.0566877
0.0575031
0.0584256
0.0591664
0.0599814
0.0606464
0.0613593
0.0619492
0.0625611
0.0630746
0.0635887
0.0640317
0.0644562
0.0648322
0.0651775
0.0654808
0.0657345
0.0659655
0.0661578
0.066312
0.0664205
0.0664919
0.0665223
0.0665306
0.0665026
0.0664063
0.0662871
0.0661243
0.0659025
0.065648
0.0653439
0.0649806
0.0645742
0.0641162
0.0635981
0.0630299
0.0624078
0.0617235
0.060986
0.0601924
0.0593389
0.0584312
0.0574649
0.0564462
0.0553735
0.0542492
0.0530793
0.0518573
0.0505942
0.0492879
0.04794
0.0465566
0.0451373
0.0436866
0.0422091
0.0406933
0.0391478
0.037571
0.0359686
0.0343568
0.0327138
0.0310418
0.029326
0.0276123
0.0259218
0.0242564
0.022511
0.0206256
0.0186813
0.0170454
0.0157867
0.0142002
0.0121723
0.0104409
0.00939052
0.00843577
0.00696908
0.00539603
0.00456076
0.00387664
0.00319153
0.00292239
0.00284518
0.0342569
0.0365508
0.0374959
0.0392979
0.0402968
0.042014
0.0430454
0.0446709
0.0457163
0.0472422
0.0482808
0.0496979
0.0507122
0.0520125
0.0529866
0.0541712
0.0550936
0.0561671
0.05703
0.0579995
0.0587997
0.0596728
0.0604116
0.0611939
0.0618743
0.0625718
0.0631967
0.0638161
0.0643876
0.0649393
0.065459
0.06595
0.0664167
0.0668516
0.0672709
0.0676643
0.0680383
0.0683852
0.0687157
0.0690276
0.0693229
0.0695954
0.0698437
0.0700794
0.0702949
0.070482
0.0706535
0.0708066
0.0709293
0.0710282
0.0711047
0.0711447
0.071161
0.0711623
0.071114
0.0710374
0.0709236
0.0707618
0.0705639
0.0703062
0.0700011
0.0696347
0.0692003
0.0687063
0.0681387
0.0674967
0.0667778
0.065976
0.0650896
0.064118
0.0630577
0.0619094
0.0606762
0.059355
0.0579536
0.0564681
0.0549107
0.053275
0.0515668
0.0497758
0.0479019
0.0459503
0.0439333
0.0418411
0.039639
0.0372953
0.0348395
0.0323264
0.029744
0.0269311
0.0239492
0.0209971
0.0180186
0.0149812
0.0120881
0.00942024
0.0070593
0.00507733
0.00367971
0.00302627
0.0322681
0.0343818
0.0352473
0.0368914
0.0377856
0.0393556
0.0402709
0.0417636
0.0426928
0.0441006
0.0450247
0.0463211
0.0472185
0.0483942
0.0492573
0.050321
0.0511411
0.0521019
0.0528712
0.0537371
0.0544533
0.0552319
0.0558979
0.0565956
0.0572142
0.0578387
0.0584118
0.0589744
0.0595051
0.0600171
0.0605079
0.0609764
0.0614293
0.0618626
0.0622853
0.0626938
0.0630918
0.0634776
0.0638548
0.0642247
0.0645869
0.0649405
0.0652869
0.0656312
0.0659701
0.0663001
0.0666254
0.0669473
0.0672586
0.0675573
0.0678431
0.0681094
0.0683507
0.0685818
0.068794
0.0689971
0.0691835
0.0693516
0.0695094
0.0696452
0.0697688
0.0698832
0.0699698
0.070025
0.0700497
0.0700553
0.0700135
0.069935
0.0698111
0.069639
0.0694165
0.0691301
0.0687808
0.0683427
0.0678266
0.0671959
0.0664588
0.0655841
0.0645668
0.0633841
0.062025
0.0604696
0.058711
0.0567394
0.054548
0.0521273
0.0494712
0.0465834
0.0434849
0.0401281
0.0364854
0.0325094
0.0282253
0.0236544
0.0190547
0.0148585
0.0112647
0.00859204
0.00653285
0.00430715
0.031062
0.0326531
0.0332929
0.0345272
0.0351678
0.0363683
0.0370134
0.0381739
0.0388331
0.0399415
0.0406073
0.0416466
0.0423084
0.0432576
0.0439053
0.0447553
0.0453783
0.0461348
0.0467206
0.047393
0.0479356
0.0485322
0.0490335
0.0495618
0.0500239
0.0504927
0.0509175
0.0513371
0.0517251
0.0520949
0.0524365
0.0527626
0.053072
0.0533713
0.0536607
0.0539447
0.0542226
0.0544972
0.0547679
0.0550381
0.0553068
0.0555759
0.0558453
0.0561169
0.0563892
0.0566611
0.0569331
0.057207
0.0574813
0.057754
0.0580251
0.0582948
0.0585628
0.0588334
0.0591031
0.0593733
0.0596388
0.0598966
0.0601429
0.0603806
0.060609
0.0608285
0.0610376
0.0612378
0.0614301
0.0616104
0.0617734
0.0619216
0.062048
0.0621508
0.0622089
0.0622321
0.0622316
0.0621341
0.0619953
0.0617508
0.0614254
0.0609782
0.0604116
0.0596983
0.0588317
0.057791
0.0565643
0.0551411
0.05351
0.0516289
0.0494865
0.0470109
0.0440942
0.0407157
0.0367741
0.0323612
0.0276712
0.0228974
0.0184707
0.0145232
0.0114371
0.00926979
0.00791872
0.00656096
0.0215889
0.0218193
0.0219143
0.0221126
0.0222275
0.0224369
0.0225668
0.0227934
0.0229388
0.0231823
0.0233427
0.0235979
0.0237726
0.0240282
0.0242143
0.0244599
0.0246498
0.0248799
0.0250645
0.0252753
0.0254479
0.0256358
0.0257925
0.0259558
0.0260943
0.0262327
0.026351
0.0264654
0.0265623
0.0266506
0.0267214
0.0267821
0.0268282
0.0268652
0.026891
0.0269097
0.0269159
0.0269152
0.0269084
0.026895
0.0268752
0.0268493
0.0268176
0.0267807
0.0267385
0.0266908
0.0266373
0.0265785
0.0265146
0.0264452
0.0263701
0.0262892
0.0262025
0.0261099
0.0260104
0.0259032
0.0257861
0.0256577
0.0255169
0.0253672
0.0252073
0.0250389
0.0248631
0.0246782
0.024485
0.0242814
0.0240678
0.0238429
0.0236046
0.0233524
0.0230841
0.0228013
0.0224993
0.0221678
0.0218213
0.0214386
0.0210342
0.0205926
0.0201207
0.0196115
0.0190654
0.0184816
0.0178572
0.0171924
0.0164797
0.0157011
0.0148372
0.0138167
0.0126378
0.0112284
0.00949178
0.00744914
0.00543265
0.00363131
0.00237779
0.00178005
0.00206411
0.0042654
0.00662481
0.00740307
0.00628437
0.00174487
0.00161102
0.00156633
0.00149856
0.00142092
0.00139168
0.00138762
0.00138601
0.00138353
0.00138177
0.00137076
0.00133141
0.00132953
0.00137906
0.00165958
0.002405
0.00404056
0.00489624
0.00426383
0.00434897
0.00182533
0.00171715
0.0016756
0.00153285
0.00147774
0.00145959
0.00145327
0.00145182
0.00145251
0.00144365
0.00140273
0.00138599
0.00138965
0.00150427
0.00189669
0.0029002
0.00430883
0.00475033
0.00372095
0.00306125
0.00199271
0.00189068
0.00170308
0.00160595
0.00157471
0.00155998
0.00155355
0.00154498
0.00152583
0.00148476
0.00146027
0.00145639
0.0015101
0.00174336
0.00237439
0.00342265
0.00438862
0.00452015
0.00314168
0.00271053
0.00209742
0.00196296
0.00179954
0.00175229
0.00170401
0.00168183
0.00165995
0.00163734
0.00160641
0.00157212
0.00156711
0.00160595
0.00176334
0.00219273
0.00287267
0.00395027
0.00435875
0.00420927
0.00255347
0.00271084
0.0022338
0.00211644
0.00198223
0.00193261
0.00187545
0.00185461
0.00182922
0.00181026
0.0017812
0.0017703
0.00181413
0.00194438
0.00225787
0.00279067
0.00369201
0.0041738
0.00427788
0.00374833
0.00198323
0.00277495
0.0024668
0.00237088
0.00226244
0.00222479
0.00219609
0.00219119
0.00218982
0.00220654
0.00223319
0.00229112
0.00243454
0.00272627
0.00314834
0.00375668
0.00413596
0.00425478
0.00409132
0.00309737
0.00145996
0.00316455
0.00304999
0.00299834
0.00297062
0.00299885
0.00305607
0.00314468
0.00325901
0.0034012
0.00346204
0.00348746
0.00371759
0.00389162
0.00423029
0.00439334
0.00443802
0.00420656
0.00371227
0.00231644
0.00101029
0.00535415
0.0054603
0.0055997
0.00573016
0.00591797
0.00599778
0.00588134
0.00569285
0.00553446
0.00537624
0.00530794
0.00527981
0.00521285
0.00517958
0.0048959
0.00452001
0.0039969
0.00307265
0.00151913
0.000645135
0.0139295
0.0137191
0.0133477
0.0124557
0.0116386
0.0107012
0.0100246
0.00928417
0.00875204
0.00814829
0.00768806
0.00712917
0.00659936
0.00597151
0.00515409
0.00438276
0.00343835
0.00210132
0.000903775
0.000367687
0.0227845
0.0209434
0.0197403
0.0175906
0.016542
0.0147753
0.0139133
0.0124471
0.0117243
0.0104077
0.00974357
0.00841898
0.00766478
0.00617112
0.0051551
0.00343464
0.00224002
0.00104652
0.000430112
0.000160763
0.0201041
0.0184204
0.0176132
0.0157553
0.0148897
0.0134564
0.0127517
0.0115992
0.0110268
0.0100291
0.00948316
0.00848721
0.00779662
0.00664099
0.00566555
0.00428316
0.00282865
0.00143224
0.000511097
0.000159825
0.00900736
0.00917698
0.00925069
0.00917013
0.0087478
0.00854043
0.00804014
0.00780514
0.00746576
0.00731338
0.00708107
0.00696957
0.0066392
0.00635713
0.00570289
0.00502328
0.00417604
0.00270599
0.00107203
0.000367485
0.00396583
0.00395832
0.00400001
0.0040742
0.00422103
0.00439819
0.00458954
0.00466226
0.00467139
0.00469632
0.00478784
0.00499649
0.00519397
0.00530062
0.00534138
0.0050937
0.00465832
0.00372355
0.00186424
0.000688986
0.00285199
0.00271711
0.00265048
0.00259207
0.00258067
0.00257978
0.00263919
0.00271355
0.00284729
0.00302689
0.00312385
0.00343777
0.00385785
0.00433319
0.00470717
0.00484793
0.00480923
0.00437997
0.00282162
0.00111124
0.00263898
0.00233092
0.00223517
0.00212862
0.00209078
0.00204816
0.00203419
0.00202589
0.00203253
0.00205474
0.00211326
0.00226574
0.0025699
0.0031701
0.00399329
0.0046137
0.00480916
0.00472186
0.00370173
0.00162328
0.00261051
0.00215388
0.00203721
0.00190862
0.00186771
0.00181537
0.00179321
0.00175874
0.00173953
0.00171616
0.00170664
0.00175327
0.00189943
0.00224249
0.00286488
0.00402147
0.00473455
0.00489023
0.00438101
0.00221183
0.00266875
0.00204128
0.00191257
0.00174397
0.00168153
0.00165377
0.00163537
0.001627
0.00159856
0.00157259
0.00154473
0.00154133
0.00158951
0.00179117
0.00229888
0.00310226
0.00444497
0.00496761
0.00484019
0.00284412
0.00319297
0.00194093
0.00183824
0.00167471
0.00157477
0.00153667
0.00152179
0.0015175
0.0015181
0.00150128
0.00146679
0.00144746
0.00144501
0.00151318
0.00178804
0.00257151
0.00384317
0.00499695
0.00514662
0.00349383
0.00478867
0.00181008
0.00168662
0.00164356
0.00151186
0.00145601
0.00143564
0.00142968
0.00142905
0.00143242
0.0014256
0.0013908
0.00137851
0.00139069
0.00153659
0.00201129
0.00324863
0.00490178
0.00537673
0.00412735
0.00691986
0.00174939
0.00158509
0.00154167
0.00148249
0.0014064
0.00137581
0.00136906
0.00137063
0.00137305
0.00137245
0.00135646
0.00132539
0.00132723
0.00139483
0.00173716
0.00265162
0.0046332
0.00553854
0.00471858
0.00397065
0.00375018
0.00374679
0.0037468
0.00374652
0.00374628
0.00374612
0.00374604
0.003746
0.00374598
0.00374598
0.003746
0.00374604
0.00374612
0.00374628
0.00374652
0.0037468
0.00374679
0.00375018
0.00397065
0.00441579
0.00375348
0.00374143
0.00374097
0.00374057
0.00374012
0.00373987
0.00373975
0.00373969
0.00373966
0.00373966
0.00373969
0.00373975
0.00373987
0.00374012
0.00374057
0.00374097
0.00374143
0.00375348
0.00441578
0.00486084
0.00376063
0.00373284
0.00373262
0.00373283
0.00373273
0.00373255
0.00373242
0.00373234
0.00373231
0.00373231
0.00373234
0.00373242
0.00373255
0.00373273
0.00373283
0.00373262
0.00373284
0.00376063
0.00486085
0.00529939
0.00377198
0.00372429
0.00372395
0.00372491
0.00372524
0.00372525
0.00372519
0.00372514
0.00372512
0.00372512
0.00372514
0.00372519
0.00372525
0.00372524
0.00372491
0.00372395
0.00372429
0.00377198
0.0052994
0.0057375
0.00378555
0.00371559
0.00371487
0.00371668
0.00371759
0.0037179
0.00371796
0.00371795
0.00371795
0.00371795
0.00371795
0.00371796
0.0037179
0.00371759
0.00371668
0.00371487
0.00371559
0.00378555
0.00573749
0.00617311
0.00379768
0.00370575
0.00370509
0.003708
0.00370969
0.00371043
0.0037107
0.00371078
0.0037108
0.0037108
0.00371078
0.0037107
0.00371043
0.00370969
0.003708
0.00370509
0.00370575
0.00379768
0.00617311
0.00659432
0.00380813
0.00369479
0.00369466
0.00369889
0.00370152
0.00370283
0.00370339
0.00370361
0.00370367
0.00370367
0.00370361
0.00370339
0.00370283
0.00370152
0.00369889
0.00369466
0.00369479
0.00380813
0.00659432
0.00699839
0.00381682
0.00368279
0.00368364
0.00368942
0.00369311
0.00369508
0.00369602
0.00369642
0.00369656
0.00369656
0.00369642
0.00369602
0.00369508
0.00369311
0.00368942
0.00368364
0.00368279
0.00381682
0.00699838
0.00739091
0.00382384
0.00366941
0.00367186
0.00367947
0.0036844
0.00368715
0.00368855
0.0036892
0.00368944
0.00368944
0.0036892
0.00368855
0.00368715
0.0036844
0.00367947
0.00367186
0.00366941
0.00382384
0.00739091
0.00776911
0.00382723
0.00365402
0.00365903
0.00366894
0.00367532
0.00367899
0.00368095
0.0036819
0.00368228
0.00368228
0.0036819
0.00368095
0.00367899
0.00367532
0.00366894
0.00365903
0.00365402
0.00382723
0.00776911
0.00812287
0.0038298
0.0036374
0.00364541
0.00365789
0.0036659
0.00367059
0.0036732
0.00367452
0.00367506
0.00367506
0.00367452
0.0036732
0.00367059
0.0036659
0.00365789
0.00364541
0.0036374
0.0038298
0.00812287
0.0084495
0.00383062
0.00361976
0.00363114
0.0036464
0.00365617
0.00366199
0.0036653
0.00366704
0.00366778
0.00366778
0.00366704
0.0036653
0.00366199
0.00365617
0.0036464
0.00363114
0.00361976
0.00383063
0.00844949
0.00875314
0.00383024
0.00360106
0.00361621
0.0036345
0.00364615
0.00365317
0.00365725
0.00365946
0.00366041
0.00366041
0.00365946
0.00365725
0.00365317
0.00364615
0.0036345
0.00361621
0.00360106
0.00383024
0.00875315
0.00903562
0.00382908
0.00358107
0.00360044
0.00362206
0.00363577
0.0036441
0.00364902
0.00365174
0.00365293
0.00365293
0.00365174
0.00364902
0.0036441
0.00363577
0.00362206
0.00360044
0.00358107
0.00382908
0.0090356
0.00929063
0.00382659
0.00355982
0.00358381
0.00360906
0.00362501
0.00363476
0.00364059
0.00364385
0.00364531
0.00364531
0.00364385
0.00364059
0.00363476
0.00362501
0.00360906
0.00358381
0.00355982
0.00382658
0.00929064
0.00951788
0.00382309
0.00353767
0.0035665
0.00359558
0.0036139
0.00362515
0.00363195
0.00363581
0.00363754
0.00363754
0.00363581
0.00363195
0.00362515
0.0036139
0.00359558
0.00356649
0.00353766
0.00382309
0.00951786
0.00971799
0.00381965
0.0035151
0.00354874
0.00358175
0.00360252
0.00361533
0.00362314
0.0036276
0.00362963
0.00362963
0.0036276
0.00362314
0.00361533
0.00360252
0.00358175
0.00354874
0.00351511
0.00381965
0.00971801
0.00989667
0.00381685
0.00349228
0.0035306
0.0035676
0.00359088
0.00360529
0.00361414
0.00361923
0.00362156
0.00362156
0.00361923
0.00361414
0.00360529
0.00359088
0.0035676
0.0035306
0.00349228
0.00381684
0.00989665
0.0100515
0.00381415
0.00346887
0.00351189
0.00355303
0.00357893
0.00359501
0.00360493
0.00361068
0.00361333
0.00361333
0.00361068
0.00360493
0.00359501
0.00357893
0.00355303
0.00351189
0.00346887
0.00381415
0.0100516
0.0101817
0.00381023
0.00344456
0.00349248
0.00353797
0.00356662
0.00358446
0.0035955
0.00360193
0.0036049
0.0036049
0.00360193
0.0035955
0.00358446
0.00356662
0.00353797
0.00349248
0.00344455
0.00381023
0.0101817
0.0102901
0.00380795
0.00342014
0.00347264
0.00352252
0.003554
0.00357364
0.00358584
0.00359298
0.00359628
0.00359628
0.00359298
0.00358584
0.00357364
0.003554