/*--------------------------------*- C++ -*----------------------------------*\
| =========                 |                                                 |
| \\      /  F ield         | OpenFOAM: The Open Source CFD Toolbox           |
|  \\    /   O peration     | Version:  2.1.0                                 |
|   \\  /    A nd           | Web:      www.OpenFOAM.org                      |
|    \\/     M anipulation  |                                                 |
\*---------------------------------------------------------------------------*/
FoamFile
{
    version     2.0;
    format      ascii;
    class       volScalarField;
    location    "0.13";
    object      nut;
}
// * * * * * * * * * * * * * * * * * * * * * * * * * * * * * * * * * * * * * //

dimensions      [0 2 -1 0 0 0 0];

internalField   nonuniform List<scalar> 
6400
(
5.19099e-06
5.26305e-06
5.29941e-06
5.36728e-06
5.41287e-06
5.48549e-06
5.53652e-06
5.61409e-06
5.6696e-06
5.75154e-06
5.81078e-06
5.89558e-06
5.95806e-06
6.0427e-06
6.108e-06
6.18999e-06
6.2567e-06
6.3349e-06
6.40098e-06
6.4749e-06
6.53904e-06
6.60829e-06
6.66987e-06
6.73432e-06
6.79298e-06
6.85286e-06
6.9084e-06
6.96414e-06
7.01655e-06
7.06842e-06
7.11716e-06
7.16476e-06
7.21003e-06
7.25462e-06
7.29802e-06
7.33885e-06
7.37875e-06
7.41854e-06
7.45774e-06
7.49635e-06
7.53436e-06
7.57193e-06
7.609e-06
7.64558e-06
7.68158e-06
7.71712e-06
7.75218e-06
7.78661e-06
7.82022e-06
7.85291e-06
7.8844e-06
7.91558e-06
7.94613e-06
7.97576e-06
8.0047e-06
8.03311e-06
8.06053e-06
8.08682e-06
8.1123e-06
8.13706e-06
8.1611e-06
8.18469e-06
8.20642e-06
8.227e-06
8.2467e-06
8.26462e-06
8.27925e-06
8.29226e-06
8.30146e-06
8.30645e-06
8.30876e-06
8.30513e-06
8.29786e-06
8.28571e-06
8.26887e-06
8.24844e-06
8.22484e-06
8.19945e-06
8.17366e-06
8.14867e-06
8.12453e-06
8.09772e-06
8.06152e-06
8.03499e-06
8.01073e-06
7.9891e-06
7.96662e-06
7.93007e-06
7.86448e-06
7.73431e-06
7.4839e-06
6.99891e-06
6.10216e-06
4.6043e-06
2.59672e-06
1.62946e-06
1.84689e-06
2.93196e-06
2.83613e-06
3.02581e-06
4.17536e-05
4.4116e-05
4.5116e-05
4.70104e-05
4.80925e-05
4.99526e-05
5.10322e-05
5.2831e-05
5.39127e-05
5.56223e-05
5.66907e-05
5.82888e-05
5.93314e-05
6.07891e-05
6.1798e-05
6.31021e-05
6.40623e-05
6.52164e-05
6.61087e-05
6.71256e-05
6.79402e-05
6.88288e-05
6.95635e-05
7.03308e-05
7.09854e-05
7.16401e-05
7.22133e-05
7.27647e-05
7.32531e-05
7.35946e-05
7.38327e-05
7.40398e-05
7.42229e-05
7.43813e-05
7.45186e-05
7.46341e-05
7.47319e-05
7.48117e-05
7.48718e-05
7.49129e-05
7.4934e-05
7.49371e-05
7.49175e-05
7.48736e-05
7.48052e-05
7.47131e-05
7.45929e-05
7.44414e-05
7.42575e-05
7.40454e-05
7.37182e-05
7.32706e-05
7.27803e-05
7.22461e-05
7.16751e-05
7.10638e-05
7.04045e-05
6.96991e-05
6.89498e-05
6.81605e-05
6.73245e-05
6.64541e-05
6.55313e-05
6.45648e-05
6.35559e-05
6.25143e-05
6.14106e-05
6.0261e-05
5.90544e-05
5.77923e-05
5.64736e-05
5.509e-05
5.3651e-05
5.21455e-05
5.05805e-05
4.89564e-05
4.72734e-05
4.55377e-05
4.37527e-05
4.19258e-05
4.00663e-05
3.81817e-05
3.62622e-05
3.428e-05
3.22468e-05
3.01381e-05
2.79552e-05
2.56781e-05
2.33174e-05
2.0877e-05
1.83948e-05
1.59046e-05
1.34794e-05
1.12292e-05
9.15379e-06
7.26337e-06
5.74909e-06
4.6559e-06
4.02509e-06
4.80859e-06
6.74315e-05
7.18109e-05
7.33702e-05
7.65128e-05
7.80175e-05
8.08908e-05
8.23682e-05
8.50124e-05
8.64567e-05
8.84283e-05
8.96182e-05
9.12473e-05
9.2345e-05
9.37238e-05
9.4715e-05
9.58765e-05
9.67357e-05
9.77043e-05
9.84255e-05
9.92177e-05
9.9806e-05
0.000100431
0.000100898
0.000101366
0.000101724
0.000102047
0.000102302
0.000102498
0.000102651
0.000102733
0.000102786
0.000102768
0.000102726
0.000102623
0.000102492
0.000102305
0.000102078
0.000101804
0.000101489
0.000101127
0.000100727
0.000100288
9.98015e-05
9.92653e-05
9.8686e-05
9.80606e-05
9.73778e-05
9.6635e-05
9.56573e-05
9.44438e-05
9.31696e-05
9.1858e-05
9.0499e-05
8.90888e-05
8.7649e-05
8.61689e-05
8.46477e-05
8.30945e-05
8.15169e-05
7.9909e-05
7.8245e-05
7.65644e-05
7.48339e-05
7.30832e-05
7.12976e-05
6.94809e-05
6.76401e-05
6.57688e-05
6.38729e-05
6.1952e-05
6.0001e-05
5.80231e-05
5.60174e-05
5.398e-05
5.19153e-05
4.98204e-05
4.76979e-05
4.55514e-05
4.33827e-05
4.11995e-05
3.90083e-05
3.68176e-05
3.4639e-05
3.24955e-05
3.03891e-05
2.83369e-05
2.63419e-05
2.44136e-05
2.25481e-05
2.07344e-05
1.89571e-05
1.72433e-05
1.54963e-05
1.37311e-05
1.18792e-05
1.00271e-05
8.25434e-06
6.69282e-06
5.8799e-06
6.99817e-06
7.62632e-05
8.07931e-05
8.2391e-05
8.56017e-05
8.69274e-05
8.96846e-05
9.09222e-05
9.33456e-05
9.45165e-05
9.6644e-05
9.77273e-05
9.95519e-05
0.000100518
0.000102034
0.000102859
0.000104076
0.00010474
0.000105674
0.000106166
0.000106837
0.00010715
0.000107573
0.000107709
0.0001079
0.000107865
0.000107839
0.000107647
0.000107425
0.000107083
0.000106682
0.000106193
0.000105629
0.000105004
0.000104306
0.000103547
0.000102711
0.000101824
0.000100879
9.98814e-05
9.88164e-05
9.77008e-05
9.65468e-05
9.53342e-05
9.40705e-05
9.27745e-05
9.14358e-05
9.005e-05
8.86191e-05
8.71671e-05
8.57014e-05
8.41759e-05
8.26359e-05
8.10661e-05
7.94564e-05
7.78352e-05
7.61779e-05
7.44913e-05
7.27867e-05
7.10506e-05
6.92937e-05
6.75166e-05
6.57193e-05
6.39016e-05
6.20734e-05
6.02262e-05
5.83702e-05
5.65087e-05
5.46415e-05
5.27791e-05
5.09228e-05
4.90747e-05
4.72419e-05
4.54263e-05
4.36352e-05
4.18744e-05
4.01466e-05
3.84571e-05
3.68051e-05
3.51924e-05
3.36192e-05
3.2084e-05
3.05771e-05
2.91009e-05
2.76635e-05
2.6218e-05
2.47937e-05
2.33517e-05
2.1912e-05
2.04554e-05
1.89873e-05
1.7489e-05
1.59729e-05
1.44295e-05
1.28551e-05
1.12365e-05
9.67164e-06
8.29337e-06
7.48378e-06
6.79226e-06
6.38149e-06
7.68235e-05
8.08763e-05
8.22684e-05
8.51152e-05
8.61026e-05
8.84112e-05
8.9252e-05
9.11864e-05
9.19329e-05
9.35539e-05
9.4204e-05
9.55315e-05
9.60671e-05
9.71076e-05
9.75065e-05
9.82686e-05
9.85126e-05
9.90091e-05
9.90885e-05
9.93375e-05
9.92509e-05
9.92716e-05
9.90162e-05
9.88223e-05
9.84009e-05
9.80062e-05
9.74384e-05
9.68637e-05
9.6169e-05
9.54403e-05
9.46142e-05
9.37234e-05
9.27871e-05
9.17941e-05
9.0744e-05
8.96312e-05
8.8469e-05
8.72754e-05
8.60703e-05
8.47916e-05
8.34744e-05
8.21504e-05
8.07763e-05
7.93739e-05
7.79655e-05
7.65239e-05
7.50604e-05
7.35925e-05
7.21088e-05
7.06088e-05
6.91024e-05
6.75897e-05
6.60616e-05
6.45289e-05
6.29961e-05
6.14536e-05
5.99146e-05
5.83858e-05
5.68599e-05
5.53493e-05
5.38529e-05
5.23719e-05
5.09118e-05
4.94728e-05
4.80546e-05
4.66624e-05
4.52943e-05
4.3952e-05
4.26351e-05
4.13365e-05
4.00557e-05
3.88e-05
3.7545e-05
3.63088e-05
3.50743e-05
3.3845e-05
3.26081e-05
3.13669e-05
3.01158e-05
2.88563e-05
2.75856e-05
2.63022e-05
2.50072e-05
2.37021e-05
2.23857e-05
2.10313e-05
1.94675e-05
1.80704e-05
1.67643e-05
1.54532e-05
1.40485e-05
1.27499e-05
1.16831e-05
1.06695e-05
9.59178e-06
8.53399e-06
7.76188e-06
7.27625e-06
7.1386e-06
7.21015e-06
7.24415e-05
7.57901e-05
7.68919e-05
7.92153e-05
7.9855e-05
8.16419e-05
8.20947e-05
8.35115e-05
8.38451e-05
8.49533e-05
8.51754e-05
8.60047e-05
8.61113e-05
8.66804e-05
8.66627e-05
8.69872e-05
8.68354e-05
8.69289e-05
8.66397e-05
8.65263e-05
8.61161e-05
8.58194e-05
8.52881e-05
8.48239e-05
8.41559e-05
8.35229e-05
8.27437e-05
8.19331e-05
8.10753e-05
8.02115e-05
7.92557e-05
7.82315e-05
7.72045e-05
7.61458e-05
7.50303e-05
7.38898e-05
7.27436e-05
7.15641e-05
7.03634e-05
6.91491e-05
6.79283e-05
6.6695e-05
6.54537e-05
6.42145e-05
6.29781e-05
6.17362e-05
6.05044e-05
5.92832e-05
5.80638e-05
5.6856e-05
5.56644e-05
5.44821e-05
5.33073e-05
5.21446e-05
5.09887e-05
4.98374e-05
4.87036e-05
4.75828e-05
4.64649e-05
4.53645e-05
4.42625e-05
4.31714e-05
4.20782e-05
4.09911e-05
3.98976e-05
3.8805e-05
3.77035e-05
3.65969e-05
3.54799e-05
3.43441e-05
3.27123e-05
3.1188e-05
2.96851e-05
2.8273e-05
2.68748e-05
2.55581e-05
2.4266e-05
2.30531e-05
2.18698e-05
2.07576e-05
1.96726e-05
1.86603e-05
1.76737e-05
1.67473e-05
1.58468e-05
1.49998e-05
1.41945e-05
1.3443e-05
1.27065e-05
1.19889e-05
1.13029e-05
1.06592e-05
1.00636e-05
9.4721e-06
8.95583e-06
8.494e-06
8.20304e-06
8.06735e-06
8.05029e-06
8.27788e-06
6.54821e-05
6.80486e-05
6.887e-05
7.06369e-05
7.09969e-05
7.22936e-05
7.24493e-05
7.34216e-05
7.34504e-05
7.41558e-05
7.40783e-05
7.45473e-05
7.43697e-05
7.46202e-05
7.43449e-05
7.43994e-05
7.40302e-05
7.3865e-05
7.34085e-05
7.30626e-05
7.25529e-05
7.20418e-05
7.14889e-05
7.093e-05
7.0239e-05
6.95451e-05
6.88192e-05
6.80811e-05
6.72711e-05
6.64756e-05
6.56324e-05
6.47773e-05
6.39006e-05
6.30275e-05
6.21152e-05
6.12044e-05
6.02835e-05
5.93492e-05
5.83966e-05
5.74416e-05
5.64783e-05
5.55103e-05
5.45321e-05
5.35461e-05
5.25548e-05
5.15459e-05
5.05415e-05
4.95178e-05
4.84877e-05
4.74486e-05
4.63983e-05
4.53009e-05
4.38198e-05
4.23905e-05
4.09788e-05
3.96182e-05
3.8282e-05
3.69818e-05
3.5707e-05
3.4469e-05
3.3258e-05
3.20806e-05
3.0942e-05
2.98271e-05
2.87539e-05
2.77048e-05
2.66901e-05
2.56996e-05
2.47526e-05
2.38242e-05
2.29479e-05
2.20968e-05
2.12857e-05
2.05045e-05
1.97556e-05
1.90392e-05
1.83519e-05
1.76964e-05
1.70669e-05
1.64694e-05
1.58932e-05
1.53485e-05
1.48132e-05
1.43116e-05
1.38137e-05
1.33445e-05
1.28815e-05
1.24371e-05
1.19992e-05
1.15814e-05
1.11756e-05
1.07948e-05
1.04371e-05
1.01085e-05
9.84038e-06
9.64195e-06
9.52577e-06
9.47401e-06
9.85391e-06
1.0084e-05
5.899e-05
6.08211e-05
6.14348e-05
6.27221e-05
6.2922e-05
6.38242e-05
6.38511e-05
6.44867e-05
6.44185e-05
6.48364e-05
6.4701e-05
6.49234e-05
6.47281e-05
6.47529e-05
6.44961e-05
6.43426e-05
6.40366e-05
6.38103e-05
6.33368e-05
6.29668e-05
6.24526e-05
6.18435e-05
6.09564e-05
5.99698e-05
5.89981e-05
5.79513e-05
5.6922e-05
5.58496e-05
5.47473e-05
5.36753e-05
5.25824e-05
5.14765e-05
5.0396e-05
4.93015e-05
4.82338e-05
4.71665e-05
4.61234e-05
4.50963e-05
4.40925e-05
4.30995e-05
4.21521e-05
4.11997e-05
4.02936e-05
3.94016e-05
3.85385e-05
3.76959e-05
3.6892e-05
3.60989e-05
3.53424e-05
3.46093e-05
3.39e-05
3.32134e-05
3.25588e-05
3.19249e-05
3.1316e-05
3.07345e-05
3.01669e-05
2.9623e-05
2.90928e-05
2.85819e-05
2.80808e-05
2.75976e-05
2.71256e-05
2.66631e-05
2.62155e-05
2.57776e-05
2.53505e-05
2.49396e-05
2.45574e-05
2.4156e-05
2.37985e-05
2.34186e-05
2.30772e-05
2.27159e-05
2.23848e-05
2.20371e-05
2.17136e-05
2.1375e-05
2.10552e-05
2.07221e-05
2.04037e-05
2.00721e-05
1.97479e-05
1.94115e-05
1.90725e-05
1.87154e-05
1.83462e-05
1.79519e-05
1.75401e-05
1.71003e-05
1.66438e-05
1.61684e-05
1.56931e-05
1.52288e-05
1.48304e-05
1.45451e-05
1.43351e-05
1.44645e-05
1.49343e-05
1.52607e-05
4.75011e-05
4.77001e-05
4.77631e-05
4.7823e-05
4.78378e-05
4.77731e-05
4.77239e-05
4.75228e-05
4.74031e-05
4.70542e-05
4.68578e-05
4.64904e-05
4.62131e-05
4.5732e-05
4.53003e-05
4.48489e-05
4.43486e-05
4.37987e-05
4.32092e-05
4.26713e-05
4.20961e-05
4.14825e-05
4.08975e-05
4.03199e-05
3.9735e-05
3.91506e-05
3.86133e-05
3.80628e-05
3.75406e-05
3.70332e-05
3.65625e-05
3.6089e-05
3.56575e-05
3.5234e-05
3.48479e-05
3.44658e-05
3.41199e-05
3.37885e-05
3.34834e-05
3.31859e-05
3.29295e-05
3.26669e-05
3.24412e-05
3.22212e-05
3.20242e-05
3.18333e-05
3.16701e-05
3.15031e-05
3.13621e-05
3.12207e-05
3.11039e-05
3.1002e-05
3.09007e-05
3.08079e-05
3.07143e-05
3.06508e-05
3.05774e-05
3.05297e-05
3.04751e-05
3.04439e-05
3.04086e-05
3.03934e-05
3.03772e-05
3.03764e-05
3.03781e-05
3.03912e-05
3.0408e-05
3.04349e-05
3.04679e-05
3.05064e-05
3.0556e-05
3.06063e-05
3.06713e-05
3.07377e-05
3.08177e-05
3.09e-05
3.09948e-05
3.10919e-05
3.11975e-05
3.13024e-05
3.14125e-05
3.15182e-05
3.16241e-05
3.17208e-05
3.18104e-05
3.18877e-05
3.19492e-05
3.19859e-05
3.19875e-05
3.19509e-05
3.18694e-05
3.17421e-05
3.15698e-05
3.13613e-05
3.11325e-05
3.09367e-05
3.08873e-05
3.11121e-05
3.15792e-05
3.12852e-05
3.74711e-05
3.73649e-05
3.73087e-05
3.7149e-05
3.70601e-05
3.68354e-05
3.67165e-05
3.65147e-05
3.63331e-05
3.60731e-05
3.5834e-05
3.55918e-05
3.53179e-05
3.50107e-05
3.47218e-05
3.44418e-05
3.41528e-05
3.38508e-05
3.35676e-05
3.32992e-05
3.30326e-05
3.27705e-05
3.25361e-05
3.23151e-05
3.21015e-05
3.1906e-05
3.17367e-05
3.15739e-05
3.14294e-05
3.12993e-05
3.11913e-05
3.10866e-05
3.10061e-05
3.09391e-05
3.08822e-05
3.08219e-05
3.07946e-05
3.07595e-05
3.0752e-05
3.07395e-05
3.07507e-05
3.07609e-05
3.07873e-05
3.08193e-05
3.08642e-05
3.09116e-05
3.09782e-05
3.10387e-05
3.11251e-05
3.12016e-05
3.13032e-05
3.13964e-05
3.15107e-05
3.16196e-05
3.17465e-05
3.18719e-05
3.20101e-05
3.21516e-05
3.23023e-05
3.24593e-05
3.26236e-05
3.27952e-05
3.29735e-05
3.31596e-05
3.33524e-05
3.35543e-05
3.37632e-05
3.39818e-05
3.4209e-05
3.4446e-05
3.46933e-05
3.49499e-05
3.52186e-05
3.54967e-05
3.57876e-05
3.60891e-05
3.64039e-05
3.67308e-05
3.70741e-05
3.74301e-05
3.78027e-05
3.81892e-05
3.85927e-05
3.90112e-05
3.94467e-05
3.98976e-05
4.03649e-05
4.08506e-05
4.13612e-05
4.18961e-05
4.24661e-05
4.3069e-05
4.37144e-05
4.4402e-05
4.51382e-05
4.59162e-05
4.67089e-05
4.74413e-05
4.76483e-05
4.76463e-05
3.79958e-05
3.79125e-05
3.78653e-05
3.77263e-05
3.76502e-05
3.7447e-05
3.73325e-05
3.70952e-05
3.69646e-05
3.67159e-05
3.6476e-05
3.62038e-05
3.59525e-05
3.56774e-05
3.53632e-05
3.50447e-05
3.47572e-05
3.44578e-05
3.41502e-05
3.38457e-05
3.35626e-05
3.32819e-05
3.30121e-05
3.27519e-05
3.25134e-05
3.22849e-05
3.20685e-05
3.18727e-05
3.16961e-05
3.15241e-05
3.13736e-05
3.12403e-05
3.11199e-05
3.10055e-05
3.09059e-05
3.08223e-05
3.0754e-05
3.06945e-05
3.06294e-05
3.05926e-05
3.05512e-05
3.05339e-05
3.05154e-05
3.05119e-05
3.05171e-05
3.05266e-05
3.05544e-05
3.05762e-05
3.0625e-05
3.06619e-05
3.07247e-05
3.07806e-05
3.08553e-05
3.09273e-05
3.10158e-05
3.11011e-05
3.12017e-05
3.1303e-05
3.14139e-05
3.15277e-05
3.16503e-05
3.17763e-05
3.19104e-05
3.20484e-05
3.2193e-05
3.23424e-05
3.24976e-05
3.26583e-05
3.28242e-05
3.29963e-05
3.31738e-05
3.33576e-05
3.35459e-05
3.374e-05
3.39375e-05
3.41414e-05
3.43478e-05
3.45608e-05
3.47768e-05
3.49987e-05
3.52247e-05
3.54567e-05
3.56946e-05
3.594e-05
3.61939e-05
3.64582e-05
3.6736e-05
3.70294e-05
3.73434e-05
3.76786e-05
3.8036e-05
3.84268e-05
3.88594e-05
3.93456e-05
3.99012e-05
4.05452e-05
4.12965e-05
4.21362e-05
4.27385e-05
4.2973e-05
4.87339e-05
4.90291e-05
4.9132e-05
4.92785e-05
4.93382e-05
4.93706e-05
4.93708e-05
4.9269e-05
4.91995e-05
4.8949e-05
4.88039e-05
4.8414e-05
4.81999e-05
4.78122e-05
4.74657e-05
4.69476e-05
4.65054e-05
4.6003e-05
4.54568e-05
4.48909e-05
4.42727e-05
4.36822e-05
4.30726e-05
4.24255e-05
4.17906e-05
4.11624e-05
4.05071e-05
3.98663e-05
3.92558e-05
3.86346e-05
3.80262e-05
3.74493e-05
3.68911e-05
3.63293e-05
3.58064e-05
3.53006e-05
3.48096e-05
3.43331e-05
3.3898e-05
3.34563e-05
3.30571e-05
3.26624e-05
3.23013e-05
3.1943e-05
3.16166e-05
3.12954e-05
3.10007e-05
3.07057e-05
3.04443e-05
3.01761e-05
2.99326e-05
2.96966e-05
2.94619e-05
2.92442e-05
2.90537e-05
2.88377e-05
2.86583e-05
2.84653e-05
2.83042e-05
2.81337e-05
2.79744e-05
2.78167e-05
2.76745e-05
2.75301e-05
2.73955e-05
2.72616e-05
2.71327e-05
2.70058e-05
2.68754e-05
2.6747e-05
2.66092e-05
2.64714e-05
2.63204e-05
2.61679e-05
2.59971e-05
2.58245e-05
2.56288e-05
2.54285e-05
2.52047e-05
2.49714e-05
2.47168e-05
2.44487e-05
2.41618e-05
2.38657e-05
2.35643e-05
2.32437e-05
2.29293e-05
2.26062e-05
2.22986e-05
2.20019e-05
2.17191e-05
2.14539e-05
2.12295e-05
2.10508e-05
2.09468e-05
2.09488e-05
2.11392e-05
2.15856e-05
2.24189e-05
2.30469e-05
5.84644e-05
6.04106e-05
6.10688e-05
6.24709e-05
6.27257e-05
6.37609e-05
6.38467e-05
6.46254e-05
6.46135e-05
6.51679e-05
6.50816e-05
6.54382e-05
6.52936e-05
6.54682e-05
6.52643e-05
6.52524e-05
6.49913e-05
6.48136e-05
6.45067e-05
6.42603e-05
6.37973e-05
6.34152e-05
6.29102e-05
6.24412e-05
6.18327e-05
6.12841e-05
6.05932e-05
5.94756e-05
5.83952e-05
5.7279e-05
5.61059e-05
5.49319e-05
5.37807e-05
5.25864e-05
5.13993e-05
5.02342e-05
4.90486e-05
4.78695e-05
4.67298e-05
4.55682e-05
4.44475e-05
4.33294e-05
4.22439e-05
4.11637e-05
4.01126e-05
3.90765e-05
3.80671e-05
3.70691e-05
3.61114e-05
3.51628e-05
3.42432e-05
3.33552e-05
3.24836e-05
3.16401e-05
3.08308e-05
3.00442e-05
2.9285e-05
2.85545e-05
2.78438e-05
2.71513e-05
2.64884e-05
2.58332e-05
2.52003e-05
2.45791e-05
2.39732e-05
2.33713e-05
2.27887e-05
2.22078e-05
2.16526e-05
2.11009e-05
2.05731e-05
2.00479e-05
1.95514e-05
1.90464e-05
1.85633e-05
1.80867e-05
1.76197e-05
1.71618e-05
1.67161e-05
1.62741e-05
1.58456e-05
1.54277e-05
1.50168e-05
1.46266e-05
1.42354e-05
1.38658e-05
1.35024e-05
1.31601e-05
1.2834e-05
1.25299e-05
1.22477e-05
1.19882e-05
1.1752e-05
1.15565e-05
1.14085e-05
1.12855e-05
1.13651e-05
1.15832e-05
1.2098e-05
1.23662e-05
6.49291e-05
6.76062e-05
6.84917e-05
7.03838e-05
7.08331e-05
7.22612e-05
7.2521e-05
7.36291e-05
7.37713e-05
7.46117e-05
7.46499e-05
7.52477e-05
7.51854e-05
7.55633e-05
7.54006e-05
7.55736e-05
7.53093e-05
7.52992e-05
7.49435e-05
7.47475e-05
7.42814e-05
7.39087e-05
7.33858e-05
7.28577e-05
7.22917e-05
7.17214e-05
7.1033e-05
7.03261e-05
6.95979e-05
6.88524e-05
6.80395e-05
6.72373e-05
6.63944e-05
6.55265e-05
6.46412e-05
6.37543e-05
6.28338e-05
6.19099e-05
6.09793e-05
6.00349e-05
5.90724e-05
5.81117e-05
5.71364e-05
5.61445e-05
5.51508e-05
5.41584e-05
5.31423e-05
5.21195e-05
5.10868e-05
5.00376e-05
4.8979e-05
4.79006e-05
4.68156e-05
4.55615e-05
4.3939e-05
4.23698e-05
4.08271e-05
3.9337e-05
3.78883e-05
3.64767e-05
3.51149e-05
3.37855e-05
3.25001e-05
3.12507e-05
3.00522e-05
2.88806e-05
2.77677e-05
2.66805e-05
2.56441e-05
2.46321e-05
2.3678e-05
2.27418e-05
2.18692e-05
2.10151e-05
2.02023e-05
1.94135e-05
1.86649e-05
1.79349e-05
1.72501e-05
1.65761e-05
1.59306e-05
1.53076e-05
1.47001e-05
1.41306e-05
1.35776e-05
1.30526e-05
1.25351e-05
1.20373e-05
1.1562e-05
1.11216e-05
1.07161e-05
1.03283e-05
9.9716e-06
9.64582e-06
9.34996e-06
9.13035e-06
9.0215e-06
8.94734e-06
9.26014e-06
9.5028e-06
7.14837e-05
7.49341e-05
7.60982e-05
7.85419e-05
7.92762e-05
8.11956e-05
8.17614e-05
8.3319e-05
8.37802e-05
8.50352e-05
8.53948e-05
8.63725e-05
8.66226e-05
8.73426e-05
8.74735e-05
8.79519e-05
8.79528e-05
8.82041e-05
8.80695e-05
8.81082e-05
8.78317e-05
8.76764e-05
8.72733e-05
8.69481e-05
8.64275e-05
8.59484e-05
8.53005e-05
8.4662e-05
8.39125e-05
8.31134e-05
8.22626e-05
8.14031e-05
8.04773e-05
7.9461e-05
7.84363e-05
7.73855e-05
7.62758e-05
7.51375e-05
7.39926e-05
7.28125e-05
7.16104e-05
7.0395e-05
6.91656e-05
6.79236e-05
6.66751e-05
6.54211e-05
6.41686e-05
6.2912e-05
6.16584e-05
6.04151e-05
5.91747e-05
5.79423e-05
5.67256e-05
5.55178e-05
5.43154e-05
5.31256e-05
5.19433e-05
5.07664e-05
4.95935e-05
4.84275e-05
4.72787e-05
4.61306e-05
4.49982e-05
4.38653e-05
4.274e-05
4.1613e-05
4.0486e-05
3.93539e-05
3.82182e-05
3.70737e-05
3.5922e-05
3.42402e-05
3.26161e-05
3.10122e-05
2.95322e-05
2.80594e-05
2.66834e-05
2.53089e-05
2.40296e-05
2.27725e-05
2.15934e-05
2.04272e-05
1.92991e-05
1.81892e-05
1.7154e-05
1.61981e-05
1.53095e-05
1.43871e-05
1.3397e-05
1.24901e-05
1.17884e-05
1.11183e-05
1.03397e-05
9.5865e-06
8.88721e-06
8.42453e-06
8.04225e-06
7.9056e-06
7.90577e-06
8.10002e-06
7.52546e-05
7.93845e-05
8.08264e-05
8.37719e-05
8.48434e-05
8.727e-05
8.82168e-05
9.02835e-05
9.11562e-05
9.29162e-05
9.3708e-05
9.51899e-05
9.58826e-05
9.70907e-05
9.76612e-05
9.86017e-05
9.90274e-05
9.97094e-05
9.99761e-05
0.000100414
0.000100513
0.000100721
0.000100654
0.000100647
0.000100416
0.000100203
9.98106e-05
9.94031e-05
9.88665e-05
9.82871e-05
9.76185e-05
9.68947e-05
9.60975e-05
9.52192e-05
9.43034e-05
9.33302e-05
9.23014e-05
9.1212e-05
9.00775e-05
8.88957e-05
8.76953e-05
8.64615e-05
8.51565e-05
8.38422e-05
8.24968e-05
8.11058e-05
7.97052e-05
7.82788e-05
7.68198e-05
7.53514e-05
7.38677e-05
7.23629e-05
7.08528e-05
6.9334e-05
6.77956e-05
6.6251e-05
6.46972e-05
6.31333e-05
6.15681e-05
6.00005e-05
5.84398e-05
5.68866e-05
5.53457e-05
5.38239e-05
5.23169e-05
5.08348e-05
4.93761e-05
4.79417e-05
4.65358e-05
4.51567e-05
4.38073e-05
4.2484e-05
4.11785e-05
3.98938e-05
3.86191e-05
3.73653e-05
3.61377e-05
3.48983e-05
3.36654e-05
3.24069e-05
3.11562e-05
2.99056e-05
2.86575e-05
2.73535e-05
2.59625e-05
2.41574e-05
2.24452e-05
2.12325e-05
1.95783e-05
1.72865e-05
1.53532e-05
1.43754e-05
1.35381e-05
1.18288e-05
9.77335e-06
8.89604e-06
8.19136e-06
7.30419e-06
7.09091e-06
7.149e-06
7.41664e-05
7.87464e-05
8.03773e-05
8.3658e-05
8.50461e-05
8.78948e-05
8.92181e-05
9.17531e-05
9.30389e-05
9.52878e-05
9.65111e-05
9.84888e-05
9.9615e-05
0.0001013
0.000102299
0.000103696
0.000104542
0.000105661
0.000106339
0.000107196
0.000107696
0.000108306
0.000108631
0.000109007
0.00010916
0.000109316
0.000109306
0.000109258
0.000109092
0.000108868
0.000108556
0.000108169
0.00010771
0.000107167
0.00010657
0.000105901
0.000105171
0.00010437
0.000103516
0.000102607
0.000101648
0.000100632
9.9557e-05
9.84448e-05
9.72856e-05
9.60702e-05
9.48199e-05
9.35325e-05
9.21951e-05
9.082e-05
8.94121e-05
8.79561e-05
8.64745e-05
8.49798e-05
8.34315e-05
8.18616e-05
8.02649e-05
7.86338e-05
7.69865e-05
7.53016e-05
7.35961e-05
7.18598e-05
7.00916e-05
6.83057e-05
6.64937e-05
6.46602e-05
6.28089e-05
6.09393e-05
5.90553e-05
5.71625e-05
5.52634e-05
5.336e-05
5.14606e-05
4.95657e-05
4.76857e-05
4.58226e-05
4.39901e-05
4.21869e-05
4.04212e-05
3.86881e-05
3.69906e-05
3.5332e-05
3.37187e-05
3.21434e-05
3.05874e-05
2.90116e-05
2.7456e-05
2.59181e-05
2.43537e-05
2.27281e-05
2.10163e-05
1.92473e-05
1.73516e-05
1.53677e-05
1.33541e-05
1.13473e-05
9.52363e-06
8.2884e-06
7.12344e-06
6.60605e-06
6.51333e-05
6.95149e-05
7.10884e-05
7.42673e-05
7.58051e-05
7.87319e-05
8.02623e-05
8.29799e-05
8.45093e-05
8.70116e-05
8.8317e-05
9.00599e-05
9.12795e-05
9.27722e-05
9.38825e-05
9.51621e-05
9.61398e-05
9.72271e-05
9.80639e-05
9.89676e-05
9.9669e-05
0.000100402
0.00010098
0.000101551
0.000102016
0.000102435
0.000102789
0.000103076
0.000103325
0.0001035
0.000103648
0.000103723
0.000103772
0.000103757
0.000103717
0.000103627
0.0001035
0.000103326
0.000103114
0.000102861
0.00010257
0.000102234
0.000101857
0.000101448
0.000101002
0.000100514
9.99908e-05
9.94342e-05
9.88311e-05
9.81796e-05
9.74803e-05
9.67245e-05
9.57431e-05
9.45155e-05
9.32282e-05
9.19012e-05
9.05284e-05
8.911e-05
8.76602e-05
8.61658e-05
8.46398e-05
8.30881e-05
8.14909e-05
7.9848e-05
7.81641e-05
7.64558e-05
7.4696e-05
7.29005e-05
7.10654e-05
6.91928e-05
6.72859e-05
6.53362e-05
6.3352e-05
6.1317e-05
5.92485e-05
5.71228e-05
5.49567e-05
5.27343e-05
5.04631e-05
4.8137e-05
4.5761e-05
4.33346e-05
4.08684e-05
3.83733e-05
3.58637e-05
3.33526e-05
3.08595e-05
2.84119e-05
2.60448e-05
2.37526e-05
2.15079e-05
1.93078e-05
1.71539e-05
1.49677e-05
1.28496e-05
1.08633e-05
9.01363e-06
7.4813e-06
6.56945e-06
7.4261e-06
4.03097e-05
4.2646e-05
4.36429e-05
4.55355e-05
4.6623e-05
4.84894e-05
4.95818e-05
5.13932e-05
5.24994e-05
5.42394e-05
5.53526e-05
5.69925e-05
5.80996e-05
5.96128e-05
6.06961e-05
6.20653e-05
6.31055e-05
6.43333e-05
6.53085e-05
6.64027e-05
6.72998e-05
6.82666e-05
6.90835e-05
6.99287e-05
7.06642e-05
7.13952e-05
7.20461e-05
7.26709e-05
7.31464e-05
7.34456e-05
7.371e-05
7.3943e-05
7.41512e-05
7.43339e-05
7.44961e-05
7.46372e-05
7.47613e-05
7.48683e-05
7.49583e-05
7.5034e-05
7.50939e-05
7.51395e-05
7.51702e-05
7.51875e-05
7.51891e-05
7.51727e-05
7.51384e-05
7.50877e-05
7.50177e-05
7.49251e-05
7.48096e-05
7.46704e-05
7.45062e-05
7.4323e-05
7.41154e-05
7.38852e-05
7.36254e-05
7.33321e-05
7.29268e-05
7.23525e-05
7.17298e-05
7.10608e-05
7.03447e-05
6.95839e-05
6.87797e-05
6.79282e-05
6.70233e-05
6.60686e-05
6.50572e-05
6.39884e-05
6.2842e-05
6.16305e-05
6.03677e-05
5.89864e-05
5.75457e-05
5.59917e-05
5.43554e-05
5.26094e-05
5.07673e-05
4.88178e-05
4.67695e-05
4.46205e-05
4.23772e-05
4.00486e-05
3.76433e-05
3.51504e-05
3.25853e-05
2.993e-05
2.71551e-05
2.42976e-05
2.13472e-05
1.83827e-05
1.5491e-05
1.27095e-05
1.02385e-05
8.09265e-06
6.40592e-06
5.2003e-06
4.47644e-06
4.87925e-06
5.12296e-06
5.18729e-06
5.22106e-06
5.2835e-06
5.32727e-06
5.39539e-06
5.44479e-06
5.51867e-06
5.57298e-06
5.65205e-06
5.71098e-06
5.79389e-06
5.85729e-06
5.94143e-06
6.00873e-06
6.09159e-06
6.16107e-06
6.2414e-06
6.31093e-06
6.38789e-06
6.45588e-06
6.52866e-06
6.59428e-06
6.6625e-06
6.72524e-06
6.78894e-06
6.84838e-06
6.90785e-06
6.96382e-06
7.0186e-06
7.06995e-06
7.11983e-06
7.16706e-06
7.21307e-06
7.25741e-06
7.30113e-06
7.34279e-06
7.38401e-06
7.42497e-06
7.46562e-06
7.50603e-06
7.54636e-06
7.5867e-06
7.62731e-06
7.66824e-06
7.70948e-06
7.75107e-06
7.79321e-06
7.83607e-06
7.87966e-06
7.92403e-06
7.96931e-06
8.01559e-06
8.06295e-06
8.11128e-06
8.16042e-06
8.20986e-06
8.25939e-06
8.30881e-06
8.35937e-06
8.41094e-06
8.46437e-06
8.52028e-06
8.57851e-06
8.63974e-06
8.70373e-06
8.77116e-06
8.84216e-06
8.9166e-06
8.99514e-06
9.07771e-06
9.16591e-06
9.25908e-06
9.35403e-06
9.45811e-06
9.56354e-06
9.67817e-06
9.79651e-06
9.92335e-06
1.00572e-05
1.01999e-05
1.03532e-05
1.05177e-05
1.06956e-05
1.08844e-05
1.10721e-05
1.12411e-05
1.13231e-05
1.12798e-05
1.09784e-05
1.01888e-05
8.72373e-06
6.81557e-06
4.7165e-06
3.06343e-06
2.14359e-06
2.1168e-06
3.27082e-06
3.16236e-06
3.33621e-06
8.4024e-06
8.21802e-07
1.06424e-06
1.44066e-06
1.79812e-06
2.10479e-06
2.45026e-06
2.82787e-06
3.20172e-06
3.55907e-06
3.88409e-06
4.12759e-06
4.20866e-06
4.34141e-06
4.76171e-06
6.13997e-06
8.18128e-06
9.62702e-06
8.58247e-06
4.14742e-06
3.73354e-06
1.05265e-06
1.08493e-06
1.33773e-06
1.5545e-06
1.84206e-06
2.1842e-06
2.54404e-06
2.92024e-06
3.31136e-06
3.62397e-06
3.82222e-06
4.05113e-06
4.42091e-06
5.42257e-06
7.29494e-06
9.03209e-06
9.8749e-06
8.39312e-06
4.24814e-06
3.40102e-06
1.53235e-06
1.56592e-06
1.52876e-06
1.67401e-06
1.91833e-06
2.2058e-06
2.54306e-06
2.92494e-06
3.3572e-06
3.55345e-06
3.80858e-06
4.27471e-06
5.11518e-06
6.76823e-06
8.9305e-06
9.69988e-06
9.68713e-06
8.16907e-06
4.33267e-06
3.7949e-06
2.16162e-06
2.17961e-06
1.99356e-06
2.14327e-06
2.24217e-06
2.52581e-06
2.87848e-06
3.37104e-06
4.02097e-06
4.03204e-06
4.61532e-06
5.43591e-06
6.90797e-06
9.00277e-06
9.57357e-06
1.04125e-05
9.50463e-06
7.97106e-06
4.42053e-06
4.45837e-06
3.05467e-06
3.06261e-06
2.75595e-06
3.02419e-06
3.00986e-06
3.38571e-06
3.84067e-06
4.60462e-06
5.28389e-06
5.79418e-06
6.78212e-06
8.13012e-06
1.00681e-05
1.01113e-05
1.09394e-05
1.04671e-05
9.4337e-06
7.58947e-06
3.89023e-06
5.39062e-06
4.28475e-06
4.26111e-06
3.86102e-06
4.22484e-06
4.42195e-06
5.06392e-06
6.0705e-06
7.54359e-06
9.04755e-06
1.00509e-05
1.14412e-05
1.17402e-05
1.14307e-05
1.17362e-05
1.13523e-05
1.05391e-05
9.36575e-06
6.90794e-06
3.1243e-06
6.97286e-06
6.25956e-06
6.2654e-06
6.12511e-06
6.9049e-06
7.95425e-06
9.80118e-06
1.22938e-05
1.61938e-05
1.54035e-05
1.42017e-05
1.38269e-05
1.31115e-05
1.29601e-05
1.24345e-05
1.174e-05
1.06267e-05
9.23552e-06
5.93671e-06
2.36385e-06
1.08327e-05
1.12768e-05
1.18692e-05
1.3294e-05
1.58037e-05
1.92064e-05
2.01625e-05
1.91744e-05
1.81863e-05
1.7106e-05
1.63e-05
1.56457e-05
1.48802e-05
1.43549e-05
1.32759e-05
1.2124e-05
1.0707e-05
8.78818e-06
4.672e-06
1.64574e-06
2.52086e-05
2.78367e-05
2.92011e-05
3.02374e-05
2.86685e-05
2.68943e-05
2.54398e-05
2.38202e-05
2.2577e-05
2.11599e-05
2.00465e-05
1.87198e-05
1.7467e-05
1.60622e-05
1.41358e-05
1.2431e-05
1.03008e-05
7.38954e-06
3.51651e-06
1.01348e-06
4.35729e-05
4.1419e-05
3.96359e-05
3.66962e-05
3.51556e-05
3.24537e-05
3.1082e-05
2.86388e-05
2.74255e-05
2.5035e-05
2.38987e-05
2.13123e-05
2.00143e-05
1.69115e-05
1.5067e-05
1.02535e-05
7.29054e-06
4.73367e-06
2.14211e-06
4.73703e-07
4.0338e-05
3.81663e-05
3.69808e-05
3.42034e-05
3.28418e-05
3.04587e-05
2.92418e-05
2.71429e-05
2.60929e-05
2.41503e-05
2.31286e-05
2.11073e-05
1.97909e-05
1.73627e-05
1.54935e-05
1.20477e-05
8.59551e-06
5.96607e-06
2.39182e-06
4.71083e-07
1.83708e-05
2.06006e-05
2.18658e-05
2.45739e-05
2.42859e-05
2.38163e-05
2.24354e-05
2.15528e-05
2.03941e-05
1.96528e-05
1.87484e-05
1.81761e-05
1.71753e-05
1.6398e-05
1.47441e-05
1.31281e-05
1.16029e-05
8.58551e-06
3.83357e-06
1.01294e-06
9.2919e-06
9.1092e-06
9.29641e-06
9.84123e-06
1.14817e-05
1.39203e-05
1.75941e-05
1.80263e-05
1.71697e-05
1.62984e-05
1.5528e-05
1.51869e-05
1.47634e-05
1.42563e-05
1.37597e-05
1.27697e-05
1.15505e-05
9.74882e-06
5.29039e-06
1.73797e-06
6.60726e-06
5.7803e-06
5.70589e-06
5.36493e-06
5.90621e-06
6.50639e-06
7.83915e-06
9.60655e-06
1.31931e-05
1.45287e-05
1.38182e-05
1.34573e-05
1.3255e-05
1.31254e-05
1.28182e-05
1.20665e-05
1.1318e-05
1.01144e-05
6.72873e-06
2.54477e-06
5.22767e-06
4.06694e-06
4.0214e-06
3.62115e-06
3.94224e-06
4.02931e-06
4.53977e-06
5.3012e-06
6.47817e-06
7.60418e-06
8.69541e-06
1.02635e-05
1.13983e-05
1.15163e-05
1.21596e-05
1.20743e-05
1.11292e-05
1.00854e-05
7.76282e-06
3.375e-06
4.35903e-06
2.92502e-06
2.90426e-06
2.58883e-06
2.82472e-06
2.81332e-06
3.15202e-06
3.55739e-06
4.22811e-06
4.82117e-06
5.17258e-06
6.21205e-06
7.63354e-06
9.82863e-06
1.01786e-05
1.14374e-05
1.12545e-05
1.00763e-05
8.40752e-06
4.19462e-06
3.77348e-06
2.09958e-06
2.10267e-06
1.91869e-06
2.04315e-06
2.14392e-06
2.40166e-06
2.75212e-06
3.19567e-06
3.78665e-06
3.84467e-06
4.33773e-06
5.21571e-06
6.79369e-06
9.11609e-06
9.93359e-06
1.10896e-05
1.01517e-05
8.68823e-06
4.58572e-06
3.51922e-06
1.48845e-06
1.4994e-06
1.49242e-06
1.63341e-06
1.86901e-06
2.14403e-06
2.47417e-06
2.84914e-06
3.24902e-06
3.44606e-06
3.70917e-06
4.11873e-06
5.0347e-06
6.80509e-06
9.27512e-06
1.03587e-05
1.04024e-05
8.82374e-06
4.49984e-06
4.13469e-06
1.04377e-06
1.06464e-06
1.31186e-06
1.53662e-06
1.81958e-06
2.14977e-06
2.50348e-06
2.87123e-06
3.25335e-06
3.5597e-06
3.75588e-06
3.97796e-06
4.34525e-06
5.45136e-06
7.54976e-06
9.58861e-06
1.06058e-05
9.01146e-06
4.41286e-06
8.89277e-06
8.28425e-07
1.05126e-06
1.42204e-06
1.78175e-06
2.0845e-06
2.42014e-06
2.78253e-06
3.15147e-06
3.5075e-06
3.82206e-06
4.03555e-06
4.12142e-06
4.24852e-06
4.71281e-06
6.26727e-06
8.60278e-06
1.04472e-05
9.20667e-06
4.31036e-06
1.23405e-06
0.000116565
0.000294218
0.000330909
0.00033481
0.000335356
0.000335357
0.000335342
0.000335343
0.000335345
0.000335345
0.000335343
0.000335342
0.000335357
0.000335356
0.00033481
0.000330909
0.000294218
0.000116565
1.23405e-06
1.37001e-06
6.81617e-05
0.000219567
0.000309497
0.000330907
0.000334527
0.000335273
0.000335315
0.000335296
0.000335287
0.000335287
0.000335296
0.000335315
0.000335273
0.000334527
0.000330907
0.000309498
0.000219567
6.81618e-05
1.37e-06
1.51383e-06
5.28641e-05
0.000176377
0.000280522
0.000322124
0.000332501
0.000334603
0.0003351
0.000335167
0.000335172
0.000335172
0.000335167
0.0003351