/*--------------------------------*- C++ -*----------------------------------*\
| =========                 |                                                 |
| \\      /  F ield         | OpenFOAM: The Open Source CFD Toolbox           |
|  \\    /   O peration     | Version:  2.1.0                                 |
|   \\  /    A nd           | Web:      www.OpenFOAM.org                      |
|    \\/     M anipulation  |                                                 |
\*---------------------------------------------------------------------------*/
FoamFile
{
    version     2.0;
    format      ascii;
    class       volScalarField;
    location    "0.13";
    object      omega;
}
// * * * * * * * * * * * * * * * * * * * * * * * * * * * * * * * * * * * * * //

dimensions      [0 0 -1 0 0 0 0];

internalField   nonuniform List<scalar> 
6400
(
1359.41
1367.1
1370.24
1376.7
1380.32
1386.95
1390.96
1397.95
1402.33
1409.66
1414.34
1421.84
1426.75
1434.07
1439.16
1446
1451.08
1457.32
1462.17
1467.75
1472.2
1477.08
1481.06
1485.23
1488.69
1492.16
1495.08
1497.89
1500.25
1502.43
1504.17
1505.67
1506.79
1507.71
1508.38
1508.65
1508.67
1508.54
1508.2
1507.64
1506.86
1505.87
1504.65
1503.21
1501.53
1499.62
1497.45
1495.03
1492.32
1489.31
1485.98
1482.4
1478.55
1474.4
1469.96
1465.23
1460.19
1454.81
1449.12
1443.11
1436.8
1430.19
1423.16
1415.77
1408.04
1399.9
1391.21
1382.1
1372.41
1362.09
1351.28
1339.7
1327.53
1314.68
1301.14
1286.99
1272.22
1256.91
1241.11
1224.84
1208
1190.24
1170.97
1151.29
1130.47
1108.27
1084.19
1057.12
1025.99
988.798
942.997
883.81
804.412
696.418
557.051
485.202
519.432
661.109
769.741
800.977
673.929
673.009
672.872
672.922
673.391
674.284
675.033
676.471
677.555
679.285
680.694
682.716
684.277
686.526
688.252
690.562
692.472
694.78
696.822
699.127
701.252
703.567
705.747
708.084
710.315
712.689
714.982
717.41
719.789
722.286
724.751
727.321
729.915
732.635
735.436
738.369
741.389
744.548
747.834
751.272
754.862
758.613
762.531
766.627
770.905
775.379
780.058
784.95
790.065
795.398
800.961
806.785
812.878
819.256
825.937
832.942
840.284
847.981
856.063
864.553
873.477
882.863
892.737
903.148
914.103
925.498
937.347
949.823
962.929
976.73
991.269
1006.58
1022.74
1039.8
1057.83
1076.92
1097.16
1118.66
1141.56
1166.04
1192.03
1218.67
1246.59
1275.37
1304.65
1333.78
1362.02
1388.5
1412.37
1432.78
1447.79
1454.67
1455.9
1441.45
1403.74
1318.69
1196.38
1047
885.297
726.853
475.591
482.067
484.808
490.236
493.202
498.456
501.485
506.566
509.633
514.479
517.61
522.258
525.401
529.917
533.134
537.471
540.833
545.005
548.506
552.582
556.212
560.266
564.015
568.099
571.97
576.132
580.15
584.432
588.629
593.067
597.468
602.087
606.728
611.567
616.475
621.579
626.836
632.297
637.938
643.788
649.834
656.107
662.608
669.353
676.349
683.609
691.14
698.949
707.04
715.433
724.132
733.156
742.513
752.219
762.287
772.731
783.563
794.798
806.45
818.528
831.043
844.002
857.403
871.252
885.552
900.34
915.621
931.231
947.159
963.339
979.733
996.272
1012.92
1029.62
1046.34
1063.05
1079.75
1096.43
1113.11
1129.81
1146.55
1163.35
1180.27
1197.25
1214.16
1230.9
1247.1
1262.35
1275.82
1285.48
1289.83
1290.56
1277.36
1249.57
1197.44
1115.97
1001.76
857.485
697.708
549.945
426.986
436.322
440.186
447.726
451.814
459.007
463.177
470.015
474.222
480.716
484.965
491.153
495.438
501.393
505.746
511.501
515.974
521.574
526.194
531.703
536.486
541.966
546.929
552.449
557.609
563.231
568.607
574.384
580
585.971
591.854
598.052
604.228
610.684
617.183
623.931
630.759
637.804
644.977
652.363
659.915
667.656
675.56
683.643
691.889
700.303
708.871
717.593
726.459
735.465
744.596
753.853
763.22
772.685
782.247
791.884
801.589
811.356
821.162
831
840.855
850.709
860.541
870.34
880.079
889.791
899.431
908.989
918.445
927.779
936.98
945.996
954.778
963.287
971.434
979.163
986.367
992.955
998.786
1003.73
1007.62
1009.92
1010.89
1010.99
1008.08
1003.58
995.963
985.612
971.394
953.396
930.801
903.026
868.411
826
773.738
710.576
638.313
561.313
492.556
451.787
410.19
420.945
425.402
434.137
438.949
447.302
452.273
460.211
465.261
472.803
477.902
485.083
490.214
497.089
502.259
508.876
514.103
520.519
525.819
532.087
537.467
543.631
549.114
555.223
560.82
566.914
572.626
578.735
584.564
590.712
596.654
602.855
608.908
615.162
621.31
627.608
633.836
640.173
646.464
652.815
659.129
665.488
671.808
678.134
684.439
690.722
696.961
703.173
709.336
715.447
721.5
727.493
733.406
739.228
744.957
750.56
756.027
761.365
766.521
771.496
776.235
780.735
784.935
788.835
792.364
795.517
798.231
800.483
802.221
803.262
803.711
803.772
802.662
800.956
798.191
794.595
789.891
784.162
777.247
769.166
759.936
749.509
737.881
725.017
710.919
695.678
679.279
662.011
643.804
624.766
604.643
583.493
560.992
536.666
509.721
481.238
451.798
425.726
409.711
402.164
387.883
398.856
403.411
412.358
417.304
425.86
430.971
439.08
444.254
451.925
457.113
464.371
469.538
476.418
481.544
488.079
493.156
499.384
504.412
510.368
515.329
521.045
525.946
531.449
536.287
541.605
546.373
551.5
556.2
561.157
565.757
570.567
575.097
579.762
584.173
588.658
592.933
597.222
601.307
605.364
609.229
613.024
616.616
620.092
623.387
626.503
629.425
632.15
634.651
636.914
638.931
640.689
642.148
643.271
644.017
644.365
644.47
644.281
643.611
642.68
641.218
639.435
637.088
634.36
631.063
627.323
623.023
618.23
612.871
606.984
600.547
593.586
586.103
578.196
569.831
561.1
552.01
542.674
533.118
523.444
513.676
503.919
494.247
484.723
475.394
466.311
457.55
449.133
440.943
432.766
424.673
416.698
408.802
400.63
392.281
384.06
377.356
374.1
373.046
372.587
353.773
364.093
368.353
376.705
381.23
389.193
393.787
401.292
405.862
412.9
417.394
423.969
428.352
434.482
438.724
444.419
448.492
453.775
457.689
462.568
466.268
470.753
474.243
478.334
481.545
485.237
488.177
491.444
494.086
496.917
499.223
501.675
503.674
505.733
507.345
508.931
510.142
511.221
511.923
512.404
512.596
512.633
512.272
511.613
510.714
509.403
507.884
505.969
503.777
501.244
498.387
495.228
491.707
487.915
483.804
479.446
474.862
469.99
464.919
459.642
454.19
448.62
442.922
437.189
431.387
425.602
419.821
414.133
408.538
403.124
397.883
392.963
388.237
383.813
379.61
375.743
372.128
368.865
365.844
363.157
360.721
358.623
356.748
355.17
353.78
352.644
351.657
350.847
350.109
349.468
348.878
348.374
348.029
347.883
347.997
349.313
351.065
355.03
357.068
357.297
309.544
318.638
322.336
329.511
333.21
339.973
343.543
349.809
353.187
358.921
362.054
367.225
370.087
374.698
377.265
381.27
383.493
386.919
388.784
391.571
393.036
395.185
396.238
397.673
398.336
398.963
399.195
399.265
399.046
398.374
397.523
396.345
394.754
393.017
390.835
388.441
385.759
382.806
379.576
376.206
372.526
368.739
364.726
360.607
356.348
352.013
347.617
343.19
338.763
334.377
330.045
325.825
321.717
317.831
314.1
310.608
307.34
304.303
301.555
299.065
296.877
294.982
293.396
292.103
291.12
290.422
290.075
289.941
289.953
290.473
291.025
292.018
293.053
294.474
295.946
297.751
299.611
301.753
303.95
306.378
308.851
311.515
314.204
317.05
319.901
322.861
325.796
328.787
331.74
334.716
337.66
340.651
343.688
346.897
350.383
354.519
359.217
364.721
367.443
368.008
252.481
259.146
261.784
266.74
269.179
273.578
275.727
279.475
281.292
284.342
285.8
288.1
289.177
290.704
291.385
292.07
292.306
292.387
292.182
291.536
290.601
289.614
288.068
286.491
284.607
282.598
280.286
277.977
275.4
272.783
270.04
267.287
264.421
261.639
258.794
256.046
253.345
250.748
248.239
245.903
243.676
241.652
239.792
238.145
236.694
235.476
234.473
233.714
233.194
232.945
232.858
232.981
233.438
234.039
234.924
235.96
237.251
238.691
240.371
242.198
244.24
246.437
248.827
251.372
254.098
256.981
260.036
263.245
266.621
270.16
273.854
277.723
281.738
285.935
290.282
294.813
299.504
304.38
309.446
314.699
320.138
325.769
331.581
337.581
343.746
350.09
356.578
363.206
369.914
376.697
383.506
390.326
397.132
403.949
410.815
417.964
425.899
434.962
443.838
448.272
186.992
190.095
191.247
193.183
194.099
195.564
196.244
197.238
197.677
198.191
198.39
198.487
198.496
198.418
198.126
197.737
197.232
196.68
196.035
195.364
194.642
193.934
193.184
192.494
191.814
191.185
190.598
190.112
189.674
189.34
189.099
188.982
188.942
189.026
189.229
189.569
190.011
190.585
191.278
192.094
193.028
194.094
195.26
196.572
197.968
199.518
201.137
202.921
204.756
206.765
208.814
211.038
213.309
215.742
218.235
220.872
223.586
226.431
229.371
232.432
235.601
238.891
242.297
245.829
249.486
253.274
257.198
261.264
265.476
269.844
274.372
279.074
283.95
289.02
294.284
299.762
305.462
311.399
317.571
324.01
330.726
337.742
345.072
352.742
360.769
369.182
378.002
387.272
397.038
407.346
418.273
429.872
442.242
455.465
469.66
484.902
501.114
517.768
531.208
537.218
191.62
195.152
196.488
198.812
199.926
201.786
202.665
204.051
204.69
205.593
205.988
206.422
206.58
206.641
206.624
206.452
206.05
205.593
205.01
204.377
203.639
202.869
202.023
201.202
200.332
199.505
198.681
197.922
197.19
196.568
195.979
195.519
195.132
194.871
194.743
194.699
194.781
194.999
195.376
195.864
196.495
197.262
198.154
199.182
200.332
201.628
203.019
204.578
206.21
208.015
209.883
211.927
214.027
216.294
218.629
221.118
223.682
226.39
229.181
232.11
235.131
238.287
241.544
244.937
248.439
252.08
255.843
259.748
263.788
267.976
272.303
276.786
281.425
286.231
291.209
296.366
301.711
307.248
312.99
318.944
325.12
331.529
338.181
345.093
352.275
359.749
367.529
375.647
384.126
392.997
402.282
412.081
422.469
433.557
445.491
458.469
472.692
488.012
501.669
508.078
255.824
262.858
265.665
271.018
273.668
278.54
280.939
285.231
287.333
290.999
292.783
295.778
297.221
299.523
300.613
302.181
302.895
303.708
304.019
304.142
304.096
303.648
302.826
301.979
300.625
299.168
297.391
295.487
293.245
291.02
288.466
285.896
283.135
280.348
277.439
274.543
271.599
268.688
265.805
263.01
260.253
257.649
255.149
252.794
250.62
248.631
246.822
245.26
243.894
242.783
241.895
241.272
240.94
240.807
240.8
241.237
241.711
242.581
243.499
244.76
246.095
247.717
249.426
251.381
253.432
255.681
258.043
260.56
263.19
265.959
268.846
271.849
274.969
278.181
281.504
284.906
288.405
291.975
295.628
299.343
303.127
306.968
310.863
314.811
318.775
322.788
326.823
330.915
335.056
339.282
343.606
348.015
352.584
357.374
362.556
368.328
375.013
382.667
389.284
392.386
310.479
319.701
323.462
330.792
334.613
341.561
345.301
351.786
355.385
361.382
364.803
370.299
373.504
378.481
381.457
385.938
388.647
392.586
395.022
398.445
400.557
403.422
405.184
407.541
408.919
410.705
411.638
412.783
413.324
413.721
413.835
413.812
413.272
412.543
411.54
410.155
408.512
406.552
404.23
401.701
398.785
395.691
392.293
388.662
384.824
380.791
376.538
372.188
367.668
363.079
358.433
353.744
349.099
344.47
339.974
335.626
331.447
327.51
323.772
320.299
317.067
314.134
311.472
309.118
307.08
305.322
303.91
302.76
301.935
301.378
301.114
301.024
301.139
301.558
302.072
302.826
303.658
304.667
305.738
306.926
308.142
309.44
310.738
312.102
313.554
315.064
316.656
318.325
320.108
322.01
324.061
326.278
328.749
331.354
334.356
337.888
342.268
347.009
349.223
349.121
352.73
363.04
367.298
375.658
380.203
388.192
392.828
400.376
405.011
412.114
416.705
423.376
427.889
434.144
438.552
444.416
448.702
454.184
458.334
463.46
467.469
472.258
476.089
480.556
484.224
488.361
491.825
495.648
498.882
502.34
505.328
508.438
511.097
513.81
516.154
518.48
520.504
522.485
524.134
525.697
526.905
527.983
528.721
529.171
529.355
529.382
528.955
528.266
527.231
525.838
524.147
522.015
519.609
516.756
513.567
509.982
506.034
501.735
497.111
492.238
487.072
481.658
476.038
470.209
464.27
458.206
452.105
445.979
439.897
433.884
428.006
422.315
416.928
411.775
406.969
402.385
398.129
394.063
390.333
386.826
383.595
380.513
377.617
374.845
372.205
369.686
367.176
364.561
361.821
359.095
356.392
353.563
350.643
348.043
345.44
344.157
343.681
345.559
347.235
347.183
384.57
395.463
399.979
408.849
413.745
422.231
427.288
435.334
440.456
448.071
453.211
460.424
465.552
472.396
477.492
483.999
489.058
495.263
500.278
506.224
511.196
516.919
521.844
527.372
532.259
537.613
542.465
547.681
552.49
557.567
562.337
567.305
572.004
576.843
581.472
586.196
590.747
595.36
599.815
604.288
608.609
612.906
617.054
621.136
625.075
628.898
632.57
636.1
639.447
642.627
645.614
648.376
650.929
653.232
655.258
656.963
658.352
659.385
659.955
660.192
660.215
659.696
658.925
657.652
656.004
653.864
651.274
648.182
644.595
640.505
635.875
630.744
625.05
618.883
612.216
605.124
597.589
589.67
581.362
572.764
564.016
555.066
545.834
536.014
525.815
515.574
505.755
495.718
484.288
471.96
460.056
448.084
434.743
420.436
405.508
392.204
379.858
371.896
368.185
365.072
405.19
415.843
420.247
428.867
433.588
441.819
446.67
454.477
459.387
466.788
471.731
478.761
483.718
490.422
495.398
501.82
506.833
513.026
518.081
524.098
529.221
535.124
540.341
546.179
551.505
557.325
562.769
568.613
574.18
580.072
585.769
591.733
597.558
603.603
609.564
615.697
621.784
628.004
634.208
640.513
646.824
653.204
659.591
666.033
672.485
678.952
685.429
691.908
698.374
704.84
711.291
717.715
724.116
730.491
736.826
743.117
749.355
755.521
761.598
767.573
773.422
779.144
784.702
790.078
795.231
800.142
804.777
809.103
813.086
816.703
819.898
822.656
824.804
826.385
827.159
827.443
827.14
825.691
823.582
820.254
815.949
810.314
803.46
795.19
785.228
773.315
759.424
743.519
725.302
704.15
680.049
653.235
623.111
589.161
552.117
512.673
473.26
436.945
412.132
397.984
420.887
430.172
434.003
441.46
445.466
452.558
456.603
463.319
467.371
473.719
477.787
483.808
487.872
493.621
497.726
503.229
507.425
512.732
517.034
522.207
526.635
531.746
536.319
541.436
546.169
551.353
556.266
561.568
566.686
572.145
577.496
583.148
588.763
594.647
600.565
606.729
612.975
619.44
626.032
632.827
639.778
646.923
654.235
661.757
669.475
677.407
685.554
693.92
702.477
711.228
720.168
729.292
738.592
748.065
757.694
767.474
777.394
787.443
797.618
807.903
818.299
828.793
839.368
850.026
860.743
871.508
882.309
893.121
903.914
914.752
925.581
936.443
947.281
958.122
968.902
979.618
990.18
1000.54
1010.64
1020.36
1029.6
1038.11
1045.68
1052.14
1057.32
1059.88
1060.7
1058.19
1050.84
1039.8
1022.4
996.675
960.381
913.358
854.511
779.948
692.592
598.608
516.563
458.105
468.473
474.952
477.683
483.08
485.987
491.196
494.125
499.126
502.082
506.816
509.808
514.337
517.296
521.645
524.669
528.793
531.945
535.879
539.151
542.976
546.341
550.11
553.552
557.315
560.838
564.64
568.268
572.145
575.905
579.877
583.782
587.875
591.963
596.224
600.531
604.993
609.58
614.346
619.266
624.383
629.688
635.213
640.967
646.944
653.156
659.611
666.315
673.283
680.541
688.099
695.968
704.159
712.68
721.551
730.78
740.384
750.378
760.781
771.613
782.9
794.661
806.919
819.69
832.995
846.852
861.274
876.277
891.875
908.081
924.996
942.354
960.216
978.446
997.131
1016.13
1035.45
1055.01
1074.79
1094.75
1114.88
1135.16
1155.57
1176.15
1196.96
1217.98
1239.16
1260.32
1280.93
1300.25
1317.14
1326.92
1330.47
1322.6
1290.73
1235.54
1154.72
1044.75
908.012
743.809
580.001
666.376
665.238
665.01
664.972
665.206
666.008
666.612
667.862
668.85
670.36
671.617
673.458
674.856
676.924
678.51
680.629
682.398
684.52
686.407
688.53
690.482
692.606
694.592
696.719
698.729
700.866
702.906
705.063
707.145
709.299
711.389
713.558
715.727
717.994
720.316
722.759
725.276
727.907
730.645
733.508
736.501
739.636
742.919
746.36
749.966
753.747
757.71
761.869
766.237
770.823
775.638
780.695
786.012
791.59
797.447
803.588
810.03
816.786
823.866
831.321
839.169
847.444
856.175
865.385
875.112
885.384
896.244
907.727
919.877
932.479
945.882
959.997
974.956
990.773
1007.55
1025.32
1044.18
1064.19
1085.45
1108.06
1132.11
1157.73
1185.07
1214.34
1244.23
1275.26
1305.95
1335.05
1360.44
1377.42
1384.58
1385.48
1374.42
1355.46
1321.79
1263.28
1172.96
1053.83
916.945
761.99
1346.71
1353.4
1356.15
1361.87
1365.19
1371.21
1374.94
1381.42
1385.57
1392.48
1397.03
1404.23
1409.15
1416.32
1421.53
1428.36
1433.64
1440
1445.1
1450.89
1455.63
1460.76
1465.04
1469.48
1473.25
1477
1480.2
1483.29
1485.91
1488.3
1490.22
1491.87
1493.13
1494.13
1494.84
1495.37
1495.56
1495.55
1495.39
1495.05
1494.53
1493.86
1493.03
1492.06
1490.94
1489.68
1488.26
1486.7
1485
1483.15
1481.15
1478.98
1476.66
1474.17
1471.5
1468.61
1465.44
1461.96
1458.14
1454.07
1449.7
1445.09
1440.26
1435.17
1429.82
1424.16
1418.21
1411.91
1405.2
1398.06
1390.44
1382.35
1373.66
1364.05
1353.94
1342.69
1330.69
1317.46
1303.18
1287.6
1270.66
1252.31
1232.38
1210.8
1187.23
1160.93
1131.04
1094.67
1051.09
996.5
924.809
832.623
730.288
624.85
539.447
493.549
515.875
663.882
792.389
830.424
747.925
299.531
166.546
113.073
88.7917
69.6983
56.5585
50.7981
45.7921
43.9312
43.7035
47.3582
59.3711
79.5581
118.28
185.985
289.382
419.71
570.493
663.938
608.33
302.526
200.437
143.234
108.548
84.9341
72.4491
62.0774
56.3612
54.1689
53.9844
60.9874
74.7998
100.684
146.865
220.941
321.1
436.341
565.979
630.68
494.914
295.978
225.475
163.584
127.478
103.244
85.5302
74.7416
69.6407
67.9805
69.6729
78.675
98.3218
130.473
184.418
260.114
352.855
453.036
553.325
593.134
415.047
283.251
235.253
173.551
145.067
117.08
102.129
92.2609
87.8996
86.5713
88.9303
105.402
129.479
169.381
227.452
300.062
379.379
458.593
528.068
552.397
363.159
274.775
239.953
186.753
163.418
135.996
123.432
113.755
110.145
109.338
121.614
143.317
174.08
219.25
275.996
337.496
398.753
453.468
493.885
509.798
329.508
269.33
242.913
198.198
179.124
157.254
148.052
143.71
142.966
153.655
172.385
198.977
232.216
275.429
320.093
364.327
403.713
436.839
448.379
467.291
314.67
273.879
254.627
223.414
210.584
200.149
197.511
198.925
210.031
224.757
245.565
268.866
296.81
326.41
353.32
378.025
395.847
401.955
390.189
427.39
332.645
313.475
305.343
295.079
291.979
291.12
291.697
296.899
304.32
314.289
325.64
337.46
350.321
360.822
368.78
372.814
373.298
349.634
325.156
392.002
437.786
428.839
424.751
411.929
405.973
397.899
394.051
389.761
387.653
385.082
383.511
380.836
377.819
371.774
364.611
352.565
324.906
284.364
257.009
362.797
522.906
505.647
498.043
479.358
470.536
455.272
447.633
434.622
427.496
415.727
407.703
395.029
382.964
364.907
342.145
307.456
264.466
221.081
200.789
339.375
498.391
482.636
476.278
460.634
453.378
441.794
436.077
427.339
422.597
415.28
410.019
402.098
393.95
382.487
365.673
334.713
289.526
240.064
213.685
339.271
375.801
370.577
368.338
362.584
360.201
358.596
358.369
362.14
366.075
372.129
377.69
383.446
386.556
387.676
386.79
382.635
358.752
315.181
279.641
362.791
309.191
282.837
270.943
253.652
248.174
246.675
250.252
258.636
272.072
288.146
308.336
329.001
351.814
371.809
388.19
398.889
403.299
381.949
352.382
396.43
305.312
262.973
242.653
208.344
193.79
179.699
175.187
174.356
184.771
201.303
226.068
255.458
291.049
330.139
367.226
401.769
424.918
433.045
419.339
436.675
322.301
261.53
235.165
191.078
172.089
148.863
138.804
132.727
131.028
139.338
159.106
187.744
225.464
275.27
328.408
382.109
432.121
468.189
476.854
480.972
355.624
267.346
232.268
179.318
156.109
129.461
117.155
107.796
104.057
103.052
113.097
136.129
168.481
218.012
281.46
351.608
420.68
485.319
521.082
527.301
408.705
277.216
229.424
168.904
140.374
112.447
97.0237
87.8448
83.6896
82.5096
85.3919
100.559
126.528
168.741
231.446
312.3
400.824
489.336
557.097
572.905
495.057
289.027
217.819
159.439
123.96
100.461
82.3801
72.0218
66.9408
65.238
66.7289
76.4296
95.4193
130.539
187.737
269.937
371.01
480.365
583.269
616.252
628.237
298.262
195.465
137.936
105.855
82.8188
69.4722
60.0239
54.8136
52.7899
52.6502
59.3754
73.8934
100.524
149.968
230.023
338.801
462.179
596.655
655.757
778.145
299.037
163.73
110.347
85.7693
69.4116
55.3781
48.591
44.4179
42.8151
42.7199
46.8568
58.1734
80.2224
120.592
193.182
305.231
443.487
601.579
690.584
646.022
32.1723
12.7347
11.3227
11.19
11.171
11.1705
11.1708
11.1706
11.1705
11.1705
11.1706
11.1708
11.1705
11.171
11.19
11.3227
12.7347
32.1724
646.022
672.796
55.0673
17.0401
12.0872
11.304
11.1803
11.1547
11.1529
11.1534
11.1536
11.1536
11.1534
11.1529
11.1547
11.1803
11.304
12.0872
17.04
55.0672
672.796
698.531
71.1377
21.164
13.306
11.5882
11.2262
11.1552
11.1382
11.1358
11.1355
11.1355
11.1358
11.1382
11.1552
11.2262
11.5882
13.306
21.164
71.1378
698.531
723.001
85.7681
25.1214
14.6418
12.0416
11.3367
11.1683
11.1265
11.1183
11.1171
11.1171
11.1183
11.1265
11.1683
11.3367
12.0416
14.6418
25.1214
85.7682
723.001
746.656
101.801
29.192
16.0615
12.5869
11.5228
11.2063
11.1273
11.105
11.1003
11.1003
11.105
11.1273
11.2063
11.5228
12.5869
16.0615
29.192
101.8
746.656
769.445
118.527
33.3856
17.5457
13.199
11.7632
11.2831
11.1366
11.0944
11.0843
11.0843
11.0944
11.1366
11.2831
11.7632
13.199
17.5457
33.3855
118.527
769.445
790.846
135.073
37.5921
19.0585
13.8531
12.0443
11.3877
11.1602
11.0919
11.0719
11.0719
11.0919
11.1602
11.3877
12.0443
13.8531
19.0586
37.5922
135.074
790.847
810.856
151.164
41.7647
20.5814
14.5339
12.3565
11.5175
11.203
11.0955
11.0625
11.0625
11.0955
11.203
11.5175
12.3565
14.5339
20.5814
41.7646
151.164
810.856
829.842
166.967
45.9414
22.1214
15.2386
12.6952
11.67
11.2601
11.1065
11.0594
11.0594
11.1065
11.2601
11.67
12.6952
15.2386
22.1214
45.9414
166.967
829.842
847.726
182.441
50.1233
23.679
15.9641
13.0565
11.8429
11.3324
11.129
11.0619
11.0619
11.129
11.3324
11.8429
13.0565
15.9641
23.679
50.1234
182.441
847.726
864.109
197.208
54.2379
25.2331
16.7001
13.4337
12.0323
11.4183
11.161
11.0698
11.0698
11.161
11.4183
12.0323
13.4337
16.7001
25.2332
54.2379
197.208
864.109
878.969
211.147
58.2384
26.7656
17.4367
13.8203
12.2341
11.5159
11.2023
11.0863
11.0863
11.2023
11.5159
12.2341
13.8203
17.4367
26.7656
58.2384
211.147
878.969
892.57
224.401
62.1431
28.2782
18.1722
14.214
12.4462
11.624
11.2527
11.1112
11.1112
11.2527
11.624
12.4462
14.214
18.1723
28.2782
62.1432
224.401
892.571
905.038
237.092
65.9936
29.7841
18.9109
14.6153
12.6682
11.7422
11.3123
11.1444
11.1444
11.3123
11.7422
12.6682
14.6153
18.9109
29.7841
65.9936
237.091
905.037
916.141
249.023
69.7559
31.2774
19.651
15.023
12.8989
11.8698
11.3809
11.1861
11.1861
11.3809
11.8698
12.8989
15.023
19.6509
31.2772
69.7556
249.024
916.141
925.922
260.135
73.3959
32.7444
20.3858
15.4332
13.1359
12.0052
11.4578
11.2359
11.2359
11.4578
12.0052
13.1359
15.4332
20.3858
32.7445
73.396
260.134
925.922
934.456
270.393
76.8876
34.1743
21.1098
15.8425
13.3766
12.1469
11.542
11.2932
11.2932
11.542
12.1469
13.3766
15.8425
21.1098
34.1742
76.8874
270.393
934.457
942.012
279.984
80.2699
35.5761
21.8252
16.2509
13.6206
12.2941
11.6329
11.3578
11.3578
11.6329
12.2941
13.6206
16.2508
21.8251
35.5759
80.2694
279.983
942.011
948.508
288.895
83.5548
36.9566
22.535
16.6596
13.8682
12.447
11.7305
11.4296
11.4296
11.7305
12.447
13.8682
16.6595
22.535
36.9566
83.5546
288.895
948.509
953.934
297.069
86.7146
38.3095
23.2378
17.0681
14.1191
12.6051
11.8347
11.5084
11.5084
11.8347
12.6051
14.1191
17.0681
23.2378
38.3095
86.7146
297.068
953.934
958.427
304.533
89.7466
39.6302
23.9307
17.4747
14.3719
12.7675
11.9445
11.5936
11.5936
11.9445
12.7675
14.3718
17.4746
23.9306
39.6299
89.7458
304.533
958.429
962.072
311.296
92.6317
40.9099
24.609
17.8765
14.6247
12.9329
12.059
11.6842
11.6842
12.059
12.9329
14.6247
17.8764
24.6089
40.9096
92.631
311.295
962.072
964.982
317.469
95.3886
42.1512
25.2728
18.273
14.877
13.1006
12.1776
11.7799
11.7799
12.1776
13.1006
14.877
18.273
25.2727
42.1511
95.3884
317.469
964.983
967.229
323.109
98.0423
43.3646
25.9267
18.6664
15.1298
13.271
12.3003
11.8804
11.8804
12.3003
13.271
15.1298
18.6664
25.9267
43.3646
98.0421
323.108
967.23
968.661
328.141
100.585
44.5521
26.5728
19.0579
15.3837
13.4444
12.4273
11.9858
11.9858
12.4273
13.4444
15.3836
19.0577
26.5724
44.5512
100.583
328.139
968.663
969.617
332.643
102.999
45.7033
27.2063
19.4453
15.6374
13.62
12.5579
12.0955
12.0954
12.5578
13.6199
15.6373
19.4451
27.206
45.7027
102.998
332.642
969.618
969.986
336.67
105.279
46.8095
27.8219
19.8254
15.8891
13.7965
12.6911
12.2087
12.2087
12.6911
13.7965
15.889
19.8254
27.8219
46.8095
105.278
336.668
969.988
969.859
340.201
107.433
47.8749
28.4206
20.1982
16.1382
13.9732
12.8263
12.3246
12.3246
12.8263
13.9732
16.1381
20.198
28.4201
47.8736
107.429
340.197
969.862
969.466
343.319
109.489
48.9109
29.0076
20.5659
16.3857
14.1505
12.9633
12.443
12.443
12.9632
14.1504
16.3855
20.5655
29.0068
48.9091
109.485
343.316
969.47
968.651
346.063
111.451
49.919
29.5839
20.9294
16.6323
14.3287
13.1025
12.5642
12.5642
13.1024
14.3286
16.632
20.929
29.583
49.917
111.446
346.056
968.656
967.454
348.41
113.291
50.8874
30.1449
21.287
16.8772
14.5077
13.2438
12.6882
12.6882
13.2437
14.5076
16.8769
21.2864
30.1439
50.8853
113.287
348.407
967.46
965.98
350.396
115.006
51.8117
30.6879
21.6368
17.1193
14.6866
13.3866
12.8144
12.8143
13.3865
14.6864
17.1189
21.636
30.6864
51.8079
114.996
350.382
965.989
964.3
352.026
116.608
52.6961
31.2137
21.9787
17.358
14.8647
13.5299
12.9417
12.9417
13.5298
14.8644
17.3575
21.9777
31.2117
52.6913
116.597
352.022
964.313
962.451
353.357
118.097
53.5396
31.7218
22.312
17.5927
15.0411
13.6731
13.0695
13.0695
13.6729
15.0407
17.592
22.3107
31.7191
53.5338
118.084
353.341
962.467
960.433
354.369
119.469
54.3375
32.2089
22.635
17.8223
15.2154
13.8157
13.1975
13.1974
13.8154
15.2148
17.8213
22.6332
32.2052
54.3289
119.448
354.356
960.455
958.26
355.055
120.707
55.0825
32.6722
22.9465
18.0464
15.3874
13.9578
13.3259
13.3258
13.9574
15.3867
18.045
22.944
32.6673
55.0718
120.682
355.035
958.289
956.004
355.552
121.811
55.7756
33.1128
23.2472
18.2654
15.5575
14.0997
13.4548
13.4547
14.0993
15.5567
18.264
23.2445
33.1074
55.7641
121.787
355.535
956.041
953.738
355.803
122.814
56.4251
33.5335
23.5386
18.4804
15.7263
14.2418
13.5846
13.5844
14.2414
15.7255
18.479
23.5359
33.5279
56.4112
122.78
355.793
953.786
951.497
355.767
123.688
57.0207
33.9312
23.82
18.6912
15.8937
14.3839
13.7149
13.7147
14.3833
15.8927
18.6893
23.8165
33.924
57.0035
123.647
355.759
951.557
949.28
355.602
124.357
57.5341
34.2937
24.0847
18.8936
16.0568
14.5236
13.8437
13.8435
14.5229
16.0553
18.8909
24.0798
34.284
57.5137
124.318
355.597
949.353
947.093
355.213
124.849
57.9631
34.613
24.3256
19.082
16.2111
14.6574
13.9678
13.9675
14.6564
16.2093
19.0787
24.3196
34.6014
57.9389
124.803
355.206
947.18
944.975
354.699
125.261
58.3199
34.8885
24.5403
19.254
16.3548
14.7837
14.0859
14.0856
14.7828
16.3529
19.2508
24.5343
34.8769
58.2939
125.202
354.726
945.083
942.967
354.12
125.544
58.6071
35.1262
24.7331
19.4132
16.4908
14.9055
14.201
14.2007
14.9047
16.4892
19.4104
24.728
35.1159
58.5836
125.495
354.167
943.093
941.068
353.517
125.633
58.8271
35.3325
24.9101
19.5649
16.6243
15.0275
14.3174
14.3172
15.0269
16.6231
19.5627
24.9058
35.3232
58.8064
125.607
353.587
941.214
939.257
352.943
125.63
58.9836
35.5079
25.0746
19.7133
16.7591
15.153
14.4383
14.4382
15.1527
16.7585
19.712
25.0715
35.5007
58.9669
125.612
353.04
939.41
937.538
352.327
125.596
59.0757
35.653
25.2286
19.8604
16.8964
15.2825
14.5639
14.5639
15.2828
16.8967
19.8605
25.228
35.6509
59.0698
125.591
352.471
937.69
935.916
351.532
125.494
59.1064
35.7731
25.3741
20.0059
17.0349
15.4145
14.6924
14.6925
15.4152
17.0361
20.0076
25.3769
35.7782
59.1192
125.52
351.764
936.062
934.455
350.56
125.22
59.1093
35.8755
25.5108
20.1479
17.1735
15.5486
14.8239
14.824
15.5494
17.1751
20.151
25.5169
35.8875
59.1318
125.302
350.854
934.581
933.081
349.63
124.976
59.115
35.9686
25.6424
20.2907
17.3174
15.691
14.965
14.9651
15.6916
17.319
20.2945
25.6507
35.9854
59.1442
125.068
349.943
933.186
931.676
348.859
124.88
59.1374
36.0714
25.7874
20.4517
17.4826
15.8561
15.1295
15.1295
15.8567
17.4842
20.4557
25.7966
36.0905
59.174
124.991
349.228
931.752
930.109
348.246
124.878
59.1976
36.2166
25.977
20.6566
17.6896
16.061
15.3328
15.3329
16.062
17.6916
20.661
25.9863
36.2363
59.2406
124.998
348.716
930.136
928.28
347.825
124.894
59.3335
36.4388
26.2373
20.9239
17.9519
16.3168
15.5846
15.585
16.3186
17.9553
20.9298
26.2484
36.4607
59.3816
125.033
348.373
928.232
926.143
347.489
124.96
59.5825
36.7569
26.576
21.2556
18.2691
16.6212
15.8824
15.8833
16.6247
18.2752
21.2657
26.5935
36.7892
59.6484
125.135
348.072
926
923.708
346.861
125.172
59.9726
37.171
26.9824
21.637
18.624
16.9561
16.2072
16.2088
16.9621
18.6346
21.6547
27.0124
37.2243
60.076
125.414
347.504
923.454
921.015
345.661
125.719
60.5008
37.656
27.4284
22.0381
18.9851
17.2885
16.5252
16.5276
17.2973
19.0013
22.0654
27.4747
37.7366
60.6502
126.057
346.288
920.64
918.096
344.608
126.54
61.0948
38.1558
27.8679
22.4165
19.3106
17.5761
16.7935
16.7964
17.5868
19.331
22.4522
27.9295
38.262
61.2831
126.91
345.151
917.6
914.97
344.297
127.381
61.6358
38.5979
28.2453
22.7243
19.557
17.7785
16.9736
16.9764
17.7892
19.5782
22.7632
28.3154
38.7215
61.8493
127.763
344.762
914.363
911.645
344.378
128.01
62.0327
38.9251
28.5121
22.9228
19.6953
17.8756
17.0512
17.0534
17.8847
19.7136
22.9587
28.5819
39.0551
62.2609
128.386
344.82
910.947
908.127
344.797
128.484
62.3104
39.1184
28.6467
23.0025
19.7318
17.889
17.056
17.0579
17.8969
19.7469
23.0324
28.71
39.2437
62.5427
128.845
345.205
907.355
904.422
345.952
129.23
62.5945
39.1906
28.6728
23.003
19.7107
17.8479
17.003
17.0043
17.8541
19.7231
23.0295
28.7304
39.3058
62.8036
129.557
346.333
903.594
900.556
348.779
130.864
62.9312
39.1825
28.636
22.9254
19.5592
17.6299
16.7516
16.751
17.6304
19.5615
22.9399
28.6857
39.2899
63.0788
131.081
349.037
899.701
896.624
354.761
134.799
63.1453
39.0286
28.4144
22.5873
19.0083
16.8979
15.9363
15.9296
16.8815
18.982
22.5668
28.4367
39.1115
63.23
134.749
354.801
895.779
892.812
362.154
139.985
63.1213
38.3935
27.6281
21.5073
17.5122
15.2367
14.2576
14.2442
15.1923
17.4241
21.4036
27.5792
38.4106
63.1717
139.829
362.073
892.006
889.307
369.992
145.078
62.7179
36.6723
25.7699
19.5543
15.5751
13.386
12.4508
12.4303
13.3199
15.4433
19.3997
25.653
36.5933
62.6644
144.799
369.835
888.562
886.2
377.488
149.344
61.3375
34.5457
23.7404
17.5755
13.6669
11.5624
10.6826
10.6517
11.4694
13.488
17.3686
23.5843
34.4239
61.0912