/*--------------------------------*- C++ -*----------------------------------*\
| =========                 |                                                 |
| \\      /  F ield         | OpenFOAM: The Open Source CFD Toolbox           |
|  \\    /   O peration     | Version:  2.1.0                                 |
|   \\  /    A nd           | Web:      www.OpenFOAM.org                      |
|    \\/     M anipulation  |                                                 |
\*---------------------------------------------------------------------------*/
FoamFile
{
    version     2.0;
    format      ascii;
    class       surfaceScalarField;
    location    "0.13";
    object      phi;
}
// * * * * * * * * * * * * * * * * * * * * * * * * * * * * * * * * * * * * * //

dimensions      [0 3 -1 0 0 0 0];

internalField   nonuniform List<scalar> 
12460
(
-2.3143e-05
-1.10859e-08
-2.31135e-05
-2.94952e-08
-2.30737e-05
-3.98017e-08
-2.3026e-05
-4.77059e-08
-2.29726e-05
-5.34065e-08
-2.29148e-05
-5.77581e-08
-2.28542e-05
-6.05953e-08
-2.27915e-05
-6.26992e-08
-2.27276e-05
-6.39145e-08
-2.26626e-05
-6.4965e-08
-2.25971e-05
-6.55776e-08
-2.25307e-05
-6.63618e-08
-2.24637e-05
-6.7019e-08
-2.23958e-05
-6.78966e-08
-2.2327e-05
-6.87783e-08
-2.22571e-05
-6.98931e-08
-2.2186e-05
-7.10735e-08
-2.21136e-05
-7.24755e-08
-2.20396e-05
-7.39689e-08
-2.19639e-05
-7.56815e-08
-2.18864e-05
-7.74997e-08
-2.18069e-05
-7.95365e-08
-2.17252e-05
-8.16948e-08
-2.16411e-05
-8.40669e-08
-2.15545e-05
-8.65633e-08
-2.14653e-05
-8.92656e-08
-2.13732e-05
-9.21179e-08
-2.1278e-05
-9.51859e-08
-2.11795e-05
-9.84759e-08
-2.10775e-05
-1.02019e-07
-2.09717e-05
-1.05728e-07
-2.08622e-05
-1.09539e-07
-2.07488e-05
-1.13432e-07
-2.06314e-05
-1.17391e-07
-2.051e-05
-1.21416e-07
-2.03845e-05
-1.25491e-07
-2.02548e-05
-1.2966e-07
-2.01209e-05
-1.33938e-07
-1.99826e-05
-1.38316e-07
-1.98398e-05
-1.42794e-07
-1.96924e-05
-1.4741e-07
-1.95402e-05
-1.52166e-07
-1.93831e-05
-1.5705e-07
-1.92211e-05
-1.62084e-07
-1.90538e-05
-1.67273e-07
-1.88812e-05
-1.72598e-07
-1.87031e-05
-1.78079e-07
-1.85195e-05
-1.83626e-07
-1.83302e-05
-1.89295e-07
-1.8135e-05
-1.95223e-07
-1.79337e-05
-2.01239e-07
-1.77265e-05
-2.07221e-07
-1.75133e-05
-2.13197e-07
-1.72941e-05
-2.19243e-07
-1.70687e-05
-2.25385e-07
-1.68371e-05
-2.31607e-07
-1.65992e-05
-2.37914e-07
-1.63549e-05
-2.44311e-07
-1.61041e-05
-2.50783e-07
-1.58468e-05
-2.57312e-07
-1.55828e-05
-2.63932e-07
-1.53122e-05
-2.70652e-07
-1.50347e-05
-2.77458e-07
-1.47503e-05
-2.84381e-07
-1.44589e-05
-2.91431e-07
-1.41602e-05
-2.98669e-07
-1.38541e-05
-3.06092e-07
-1.35405e-05
-3.13678e-07
-1.32191e-05
-3.21401e-07
-1.28898e-05
-3.29247e-07
-1.25525e-05
-3.37287e-07
-1.2207e-05
-3.45568e-07
-1.18529e-05
-3.54108e-07
-1.14899e-05
-3.62953e-07
-1.11177e-05
-3.72157e-07
-1.07359e-05
-3.81831e-07
-1.03437e-05
-3.9217e-07
-9.9403e-06
-4.03444e-07
-9.52427e-06
-4.16023e-07
-9.09387e-06
-4.30401e-07
-8.64669e-06
-4.47184e-07
-8.17958e-06
-4.67103e-07
-7.68864e-06
-4.90942e-07
-7.16927e-06
-5.19373e-07
-6.61622e-06
-5.53046e-07
-6.02378e-06
-5.92442e-07
-5.38616e-06
-6.37625e-07
-4.69868e-06
-6.87473e-07
-3.96008e-06
-7.38599e-07
-3.17635e-06
-7.83735e-07
-2.36809e-06
-8.08261e-07
-1.58584e-06
-7.82254e-07
-9.24607e-07
-6.61228e-07
-5.01026e-07
-4.23581e-07
-3.76331e-07
-1.24695e-07
-6.18327e-07
2.41996e-07
-1.49487e-06
8.76548e-07
-3.69953e-06
2.20465e-06
-8.95976e-06
5.26023e-06
1.45627e-05
-2.35224e-05
-2.94345e-05
-3.83213e-08
-2.93639e-05
-1.00104e-07
-2.92735e-05
-1.30184e-07
-2.91734e-05
-1.47866e-07
-2.90691e-05
-1.57732e-07
-2.89632e-05
-1.63607e-07
-2.88574e-05
-1.66433e-07
-2.87521e-05
-1.68001e-07
-2.86476e-05
-1.68363e-07
-2.8544e-05
-1.68632e-07
-2.84411e-05
-1.6844e-07
-2.8339e-05
-1.68504e-07
-2.82376e-05
-1.68418e-07
-2.81368e-05
-1.68698e-07
-2.80365e-05
-1.69009e-07
-2.79367e-05
-1.69737e-07
-2.78372e-05
-1.70595e-07
-2.77378e-05
-1.7186e-07
-2.76384e-05
-1.73315e-07
-2.75389e-05
-1.75181e-07
-2.74392e-05
-1.77274e-07
-2.73389e-05
-1.79775e-07
-2.72381e-05
-1.82534e-07
-2.71365e-05
-1.8569e-07
-2.70339e-05
-1.89096e-07
-2.69303e-05
-1.92884e-07
-2.68255e-05
-1.96946e-07
-2.67193e-05
-2.01369e-07
-2.66117e-05
-2.06087e-07
-2.65026e-05
-2.11135e-07
-2.63918e-05
-2.16447e-07
-2.62793e-05
-2.22035e-07
-2.61649e-05
-2.27868e-07
-2.60484e-05
-2.33907e-07
-2.59297e-05
-2.40131e-07
-2.58086e-05
-2.46542e-07
-2.56851e-05
-2.53177e-07
-2.5559e-05
-2.60034e-07
-2.54302e-05
-2.67093e-07
-2.52987e-05
-2.74348e-07
-2.51642e-05
-2.81861e-07
-2.50268e-05
-2.8963e-07
-2.48862e-05
-2.97629e-07
-2.47424e-05
-3.05906e-07
-2.45952e-05
-3.14468e-07
-2.44445e-05
-3.23292e-07
-2.42902e-05
-3.32409e-07
-2.4132e-05
-3.41742e-07
-2.39702e-05
-3.51161e-07
-2.38048e-05
-3.6058e-07
-2.36361e-05
-3.69959e-07
-2.3464e-05
-3.79314e-07
-2.32885e-05
-3.88663e-07
-2.31097e-05
-3.98091e-07
-2.29275e-05
-4.07606e-07
-2.27419e-05
-4.17173e-07
-2.2553e-05
-4.26813e-07
-2.23608e-05
-4.36521e-07
-2.21653e-05
-4.46281e-07
-2.19665e-05
-4.56083e-07
-2.17645e-05
-4.65924e-07
-2.15594e-05
-4.75779e-07
-2.13512e-05
-4.85639e-07
-2.11401e-05
-4.95527e-07
-2.0926e-05
-5.05468e-07
-2.07092e-05
-5.1552e-07
-2.04896e-05
-5.25688e-07
-2.02673e-05
-5.35964e-07
-2.00424e-05
-5.4632e-07
-1.98149e-05
-5.56721e-07
-1.95849e-05
-5.6734e-07
-1.93521e-05
-5.78299e-07
-1.91166e-05
-5.89651e-07
-1.8878e-05
-6.01519e-07
-1.86361e-05
-6.14023e-07
-1.83906e-05
-6.27383e-07
-1.81408e-05
-6.41935e-07
-1.78861e-05
-6.58134e-07
-1.76256e-05
-6.76575e-07
-1.7358e-05
-6.98014e-07
-1.70818e-05
-7.23352e-07
-1.67953e-05
-7.53657e-07
-1.6496e-05
-7.90151e-07
-1.61815e-05
-8.33914e-07
-1.58487e-05
-8.85901e-07
-1.54944e-05
-9.46678e-07
-1.51159e-05
-1.01616e-06
-1.4711e-05
-1.09238e-06
-1.42798e-05
-1.16979e-06
-1.38263e-05
-1.23717e-06
-1.3361e-05
-1.27357e-06
-1.29017e-05
-1.24163e-06
-1.24779e-05
-1.08501e-06
-1.21631e-05
-7.38389e-07
-1.2143e-05
-1.44786e-07
-1.25911e-05
6.90072e-07
-1.38054e-05
2.09094e-06
-1.62835e-05
4.68265e-06
-2.10139e-05
9.99072e-06
2.49112e-05
-3.13625e-05
-3.27237e-05
-7.4636e-08
-3.26534e-05
-1.70448e-07
-3.25642e-05
-2.19388e-07
-3.24658e-05
-2.46216e-07
-3.23634e-05
-2.60144e-07
-3.22598e-05
-2.67226e-07
-3.21563e-05
-2.69916e-07
-3.20538e-05
-2.70492e-07
-3.19526e-05
-2.69577e-07
-3.18529e-05
-2.6829e-07
-3.17547e-05
-2.66661e-07
-3.16579e-05
-2.65291e-07
-3.15624e-05
-2.6391e-07
-3.14681e-05
-2.62976e-07
-3.13749e-05
-2.62211e-07
-3.12827e-05
-2.61981e-07
-3.11913e-05
-2.62019e-07
-3.11006e-05
-2.62584e-07
-3.10104e-05
-2.63475e-07
-3.09207e-05
-2.64908e-07
-3.08312e-05
-2.66703e-07
-3.0742e-05
-2.69023e-07
-3.06528e-05
-2.71742e-07
-3.05635e-05
-2.7497e-07
-3.0474e-05
-2.78555e-07
-3.03843e-05
-2.82622e-07
-3.02942e-05
-2.87042e-07
-3.02037e-05
-2.91888e-07
-3.01127e-05
-2.97048e-07
-3.00213e-05
-3.02558e-07
-2.99294e-05
-3.0835e-07
-2.98369e-05
-3.14521e-07
-2.97437e-05
-3.21045e-07
-2.96498e-05
-3.27859e-07
-2.9555e-05
-3.34914e-07
-2.94593e-05
-3.42222e-07
-2.93627e-05
-3.49798e-07
-2.92651e-05
-3.57631e-07
-2.91665e-05
-3.65689e-07
-2.90669e-05
-3.73946e-07
-2.89663e-05
-3.82463e-07
-2.88647e-05
-3.9122e-07
-2.87622e-05
-4.00177e-07
-2.86587e-05
-4.09389e-07
-2.85543e-05
-4.1884e-07
-2.84491e-05
-4.28492e-07
-2.83432e-05
-4.38335e-07
-2.82366e-05
-4.48322e-07
-2.81294e-05
-4.58368e-07
-2.80217e-05
-4.68317e-07
-2.79135e-05
-4.78143e-07
-2.78049e-05
-4.87881e-07
-2.7696e-05
-4.97573e-07
-2.75868e-05
-5.07277e-07
-2.74775e-05
-5.16928e-07
-2.73682e-05
-5.26481e-07
-2.72591e-05
-5.35942e-07
-2.71503e-05
-5.45276e-07
-2.70421e-05
-5.54447e-07
-2.69348e-05
-5.63435e-07
-2.68285e-05
-5.72196e-07
-2.67236e-05
-5.80661e-07
-2.66205e-05
-5.88786e-07
-2.65195e-05
-5.96552e-07
-2.6421e-05
-6.03977e-07
-2.63254e-05
-6.11076e-07
-2.62333e-05
-6.17811e-07
-2.61451e-05
-6.24171e-07
-2.60613e-05
-6.30098e-07
-2.59826e-05
-6.35457e-07
-2.59094e-05
-6.40501e-07
-2.58423e-05
-6.45422e-07
-2.57817e-05
-6.50252e-07
-2.5728e-05
-6.55168e-07
-2.56817e-05
-6.60336e-07
-2.5643e-05
-6.66065e-07
-2.56121e-05
-6.72822e-07
-2.5589e-05
-6.81248e-07
-2.55734e-05
-6.92164e-07
-2.55649e-05
-7.06592e-07
-2.55625e-05
-7.25729e-07
-2.55652e-05
-7.50927e-07
-2.55716e-05
-7.83728e-07
-2.55799e-05
-8.25677e-07
-2.55877e-05
-8.78045e-07
-2.55931e-05
-9.41349e-07
-2.55937e-05
-1.01547e-06
-2.55882e-05
-1.0979e-06
-2.55764e-05
-1.18163e-06
-2.55603e-05
-1.25324e-06
-2.5545e-05
-1.28893e-06
-2.55374e-05
-1.24922e-06
-2.55486e-05
-1.07374e-06
-2.5608e-05
-6.79065e-07
-2.57626e-05
9.80497e-09
-2.61878e-05
1.11533e-06
-2.70705e-05
2.97358e-06
-2.87843e-05
6.39648e-06
-3.20208e-05
1.32273e-05
2.91664e-05
-3.6276e-05
-3.55937e-05
-1.08267e-07
-3.55368e-05
-2.27303e-07
-3.54661e-05
-2.90134e-07
-3.53882e-05
-3.2409e-07
-3.5307e-05
-3.41333e-07
-3.52249e-05
-3.49352e-07
-3.5143e-05
-3.51838e-07
-3.50621e-05
-3.51381e-07
-3.49826e-05
-3.49046e-07
-3.49049e-05
-3.45987e-07
-3.4829e-05
-3.42539e-07
-3.4755e-05
-3.39352e-07
-3.46826e-05
-3.36284e-07
-3.46119e-05
-3.33701e-07
-3.45426e-05
-3.31424e-07
-3.44749e-05
-3.29734e-07
-3.44085e-05
-3.2844e-07
-3.43433e-05
-3.27718e-07
-3.42794e-05
-3.27425e-07
-3.42166e-05
-3.27741e-07
-3.41548e-05
-3.28502e-07
-3.40939e-05
-3.29838e-07
-3.4034e-05
-3.31667e-07
-3.39749e-05
-3.34052e-07
-3.39166e-05
-3.36849e-07
-3.38591e-05
-3.40157e-07
-3.38023e-05
-3.43844e-07
-3.37462e-05
-3.4795e-07
-3.36909e-05
-3.52395e-07
-3.36362e-05
-3.57206e-07
-3.35823e-05
-3.62275e-07
-3.35292e-05
-3.67674e-07
-3.34768e-05
-3.73404e-07
-3.34253e-05
-3.79377e-07
-3.33747e-05
-3.85539e-07
-3.3325e-05
-3.9191e-07
-3.32763e-05
-3.98473e-07
-3.32287e-05
-4.05194e-07
-3.31824e-05
-4.12069e-07
-3.31372e-05
-4.19085e-07
-3.30935e-05
-4.26231e-07
-3.30512e-05
-4.33457e-07
-3.30107e-05
-4.40741e-07
-3.29719e-05
-4.48107e-07
-3.29353e-05
-4.555e-07
-3.29009e-05
-4.62873e-07
-3.2869e-05
-4.70192e-07
-3.284e-05
-4.7739e-07
-3.28138e-05
-4.8454e-07
-3.27904e-05
-4.91703e-07
-3.27698e-05
-4.9878e-07
-3.27521e-05
-5.05581e-07
-3.27375e-05
-5.12174e-07
-3.27261e-05
-5.18633e-07
-3.27182e-05
-5.24806e-07
-3.27141e-05
-5.30637e-07
-3.27139e-05
-5.36097e-07
-3.27181e-05
-5.41123e-07
-3.27269e-05
-5.45667e-07
-3.27406e-05
-5.4967e-07
-3.27597e-05
-5.53095e-07
-3.27845e-05
-5.55873e-07
-3.28154e-05
-5.57916e-07
-3.28528e-05
-5.59177e-07
-3.2897e-05
-5.59691e-07
-3.29486e-05
-5.59518e-07
-3.30078e-05
-5.58612e-07
-3.3075e-05
-5.56957e-07
-3.31505e-05
-5.54618e-07
-3.32347e-05
-5.51272e-07
-3.33278e-05
-5.47354e-07
-3.34299e-05
-5.43319e-07
-3.3541e-05
-5.39199e-07
-3.36608e-05
-5.3536e-07
-3.3789e-05
-5.32101e-07
-3.39252e-05
-5.29894e-07
-3.40687e-05
-5.29365e-07
-3.42186e-05
-5.31333e-07
-3.43739e-05
-5.3681e-07
-3.45335e-05
-5.47012e-07
-3.46959e-05
-5.63335e-07
-3.48595e-05
-5.87281e-07
-3.50228e-05
-6.20462e-07
-3.5184e-05
-6.64448e-07
-3.53417e-05
-7.20406e-07
-3.54944e-05
-7.88586e-07
-3.56419e-05
-8.68043e-07
-3.57842e-05
-9.55592e-07
-3.59219e-05
-1.04391e-06
-3.60561e-05
-1.11905e-06
-3.61883e-05
-1.1567e-06
-3.63189e-05
-1.11867e-06
-3.64465e-05
-9.46081e-07
-3.65692e-05
-5.56445e-07
-3.6694e-05
1.34676e-07
-3.69141e-05
1.33537e-06
-3.73704e-05
3.42993e-06
-3.82208e-05
7.24684e-06
-3.96375e-05
1.46439e-05
2.90832e-05
-3.95543e-05
-3.84778e-05
-1.30903e-07
-3.84451e-05
-2.60063e-07
-3.84055e-05
-3.29717e-07
-3.83623e-05
-3.67236e-07
-3.83176e-05
-3.86071e-07
-3.82726e-05
-3.94305e-07
-3.82282e-05
-3.96328e-07
-3.81846e-05
-3.9492e-07
-3.81422e-05
-3.91432e-07
-3.81012e-05
-3.86997e-07
-3.80617e-05
-3.82073e-07
-3.80238e-05
-3.77233e-07
-3.79876e-05
-3.72478e-07
-3.79532e-05
-3.68098e-07
-3.79206e-05
-3.64011e-07
-3.78899e-05
-3.6045e-07
-3.78611e-05
-3.5728e-07
-3.78342e-05
-3.54625e-07
-3.78092e-05
-3.52365e-07
-3.77863e-05
-3.50704e-07
-3.77653e-05
-3.49438e-07
-3.77465e-05
-3.4871e-07
-3.77296e-05
-3.4848e-07
-3.77149e-05
-3.48786e-07
-3.77023e-05
-3.49493e-07
-3.76918e-05
-3.50648e-07
-3.76834e-05
-3.52178e-07
-3.76774e-05
-3.54003e-07
-3.76737e-05
-3.56105e-07
-3.76723e-05
-3.58533e-07
-3.76734e-05
-3.61194e-07
-3.7677e-05
-3.641e-07
-3.76832e-05
-3.67224e-07
-3.76921e-05
-3.70497e-07
-3.77037e-05
-3.73877e-07
-3.77183e-05
-3.77382e-07
-3.77357e-05
-3.80992e-07
-3.77563e-05
-3.8465e-07
-3.778e-05
-3.88337e-07
-3.7807e-05
-3.92089e-07
-3.78374e-05
-3.95875e-07
-3.78712e-05
-3.99617e-07
-3.79086e-05
-4.0332e-07
-3.79497e-05
-4.07e-07
-3.79946e-05
-4.10587e-07
-3.80435e-05
-4.14053e-07
-3.80963e-05
-4.1738e-07
-3.81531e-05
-4.20533e-07
-3.82141e-05
-4.23549e-07
-3.82794e-05
-4.26429e-07
-3.8349e-05
-4.29168e-07
-3.84231e-05
-4.31479e-07
-3.85018e-05
-4.33491e-07
-3.8585e-05
-4.35388e-07
-3.86729e-05
-4.36934e-07
-3.87654e-05
-4.38098e-07
-3.88627e-05
-4.38863e-07
-3.89646e-05
-4.39195e-07
-3.90712e-05
-4.39065e-07
-3.91824e-05
-4.38444e-07
-3.92982e-05
-4.37287e-07
-3.94186e-05
-4.35555e-07
-3.95433e-05
-4.33156e-07
-3.96725e-05
-4.30004e-07
-3.9806e-05
-4.26185e-07
-3.99437e-05
-4.21839e-07
-4.00854e-05
-4.16898e-07
-4.0231e-05
-4.11329e-07
-4.03805e-05
-4.05185e-07
-4.05335e-05
-3.98178e-07
-4.06907e-05
-3.90195e-07
-4.08525e-05
-3.81517e-07
-4.10189e-05
-3.72767e-07
-4.11897e-05
-3.64632e-07
-4.13644e-05
-3.57405e-07
-4.15427e-05
-3.51565e-07
-4.17243e-05
-3.4778e-07
-4.19087e-05
-3.46921e-07
-4.20954e-05
-3.50077e-07
-4.22839e-05
-3.58526e-07
-4.24735e-05
-3.73739e-07
-4.26635e-05
-3.97247e-07
-4.28534e-05
-4.30655e-07
-4.30422e-05
-4.75563e-07
-4.32296e-05
-5.33012e-07
-4.34149e-05
-6.03289e-07
-4.35975e-05
-6.85492e-07
-4.3777e-05
-7.76044e-07
-4.39536e-05
-8.67338e-07
-4.41267e-05
-9.45902e-07
-4.42941e-05
-9.89296e-07
-4.44499e-05
-9.62958e-07
-4.45807e-05
-8.1529e-07
-4.46665e-05
-4.70634e-07
-4.47056e-05
1.73831e-07
-4.47225e-05
1.3522e-06
-4.47382e-05
3.44568e-06
-4.47505e-05
7.25908e-06
-4.44466e-05
1.43401e-05
2.62629e-05
-4.16264e-05
-4.13952e-05
-1.37373e-07
-4.13937e-05
-2.61595e-07
-4.13939e-05
-3.29539e-07
-4.13952e-05
-3.6594e-07
-4.13974e-05
-3.83832e-07
-4.14007e-05
-3.91025e-07
-4.1405e-05
-3.91974e-07
-4.14106e-05
-3.89405e-07
-4.14173e-05
-3.84726e-07
-4.14253e-05
-3.78995e-07
-4.14346e-05
-3.72692e-07
-4.14455e-05
-3.66332e-07
-4.14581e-05
-3.5996e-07
-4.14724e-05
-3.53813e-07
-4.14885e-05
-3.47858e-07
-4.15067e-05
-3.42295e-07
-4.15269e-05
-3.37066e-07
-4.15493e-05
-3.3219e-07
-4.15741e-05
-3.2761e-07
-4.16012e-05
-3.23518e-07
-4.1631e-05
-3.19712e-07
-4.16634e-05
-3.16287e-07
-4.16986e-05
-3.13249e-07
-4.17367e-05
-3.10728e-07
-4.17776e-05
-3.08583e-07
-4.18215e-05
-3.06758e-07
-4.18684e-05
-3.05283e-07
-4.19183e-05
-3.04039e-07
-4.19714e-05
-3.03017e-07
-4.20277e-05
-3.02236e-07
-4.20873e-05
-3.01656e-07
-4.215e-05
-3.01328e-07
-4.22161e-05
-3.01174e-07
-4.22855e-05
-3.01138e-07
-4.23581e-05
-3.01235e-07
-4.2434e-05
-3.01472e-07
-4.25132e-05
-3.01843e-07
-4.25955e-05
-3.02321e-07
-4.2681e-05
-3.02849e-07
-4.27696e-05
-3.03483e-07
-4.28612e-05
-3.04232e-07
-4.29558e-05
-3.0503e-07
-4.30532e-05
-3.05891e-07
-4.31534e-05
-3.06822e-07
-4.32562e-05
-3.0776e-07
-4.33616e-05
-3.08694e-07
-4.34694e-05
-3.09616e-07
-4.35794e-05
-3.10485e-07
-4.36916e-05
-3.11321e-07
-4.3806e-05
-3.12113e-07
-4.39223e-05
-3.12867e-07
-4.40404e-05
-3.13309e-07
-4.41606e-05
-3.13298e-07
-4.42831e-05
-3.12927e-07
-4.44078e-05
-3.12219e-07
-4.45347e-05
-3.11229e-07
-4.46636e-05
-3.09941e-07
-4.47945e-05
-3.08316e-07
-4.49272e-05
-3.06318e-07
-4.50618e-05
-3.03899e-07
-4.5198e-05
-3.00996e-07
-4.5336e-05
-2.97563e-07
-4.54757e-05
-2.93488e-07
-4.56171e-05
-2.88588e-07
-4.57604e-05
-2.82935e-07
-4.59054e-05
-2.76823e-07
-4.60522e-05
-2.70085e-07
-4.62009e-05
-2.62645e-07
-4.63517e-05
-2.54346e-07
-4.65046e-05
-2.45261e-07
-4.66594e-05
-2.35472e-07
-4.6816e-05
-2.24842e-07
-4.69749e-05
-2.13918e-07
-4.71357e-05
-2.03783e-07
-4.72986e-05
-1.94565e-07
-4.74634e-05
-1.86747e-07
-4.76301e-05
-1.81037e-07
-4.77987e-05
-1.78346e-07
-4.7969e-05
-1.79801e-07
-4.81408e-05
-1.8673e-07
-4.83139e-05
-2.0065e-07
-4.8488e-05
-2.2308e-07
-4.86632e-05
-2.55507e-07
-4.88391e-05
-2.9968e-07
-4.90155e-05
-3.56606e-07
-4.91923e-05
-4.26468e-07
-4.93691e-05
-5.08681e-07
-4.95455e-05
-5.99687e-07
-4.97207e-05
-6.92153e-07
-4.98926e-05
-7.73929e-07
-5.00562e-05
-8.25706e-07
-5.02014e-05
-8.17824e-07
-5.03073e-05
-7.09346e-07
-5.03431e-05
-4.34868e-07
-5.02847e-05
1.15451e-07
-5.01032e-05
1.17068e-06
-4.97198e-05
3.06231e-06
-4.89736e-05
6.51289e-06
-4.72783e-05
1.26448e-05
2.17978e-05
-4.28131e-05
-4.42187e-05
-1.25215e-07
-4.4251e-05
-2.29289e-07
-4.42938e-05
-2.867e-07
-4.43427e-05
-3.17064e-07
-4.43952e-05
-3.3128e-07
-4.44502e-05
-3.36082e-07
-4.45068e-05
-3.35361e-07
-4.45647e-05
-3.31509e-07
-4.46236e-05
-3.25767e-07
-4.46836e-05
-3.19019e-07
-4.47446e-05
-3.1173e-07
-4.48066e-05
-3.04297e-07
-4.48697e-05
-2.96849e-07
-4.49341e-05
-2.89464e-07
-4.49997e-05
-2.82256e-07
-4.50667e-05
-2.75288e-07
-4.51351e-05
-2.68622e-07
-4.52051e-05
-2.62218e-07
-4.52766e-05
-2.56116e-07
-4.53497e-05
-2.50403e-07
-4.54245e-05
-2.44968e-07
-4.55009e-05
-2.39809e-07
-4.55793e-05
-2.34871e-07
-4.56598e-05
-2.30254e-07
-4.57424e-05
-2.25964e-07
-4.58272e-05
-2.21994e-07
-4.59141e-05
-2.18325e-07
-4.60033e-05
-2.14905e-07
-4.60946e-05
-2.11715e-07
-4.61881e-05
-2.08738e-07
-4.62837e-05
-2.05974e-07
-4.63816e-05
-2.03504e-07
-4.64815e-05
-2.01263e-07
-4.65834e-05
-1.99182e-07
-4.66874e-05
-1.97314e-07
-4.67932e-05
-1.95675e-07
-4.69008e-05
-1.94242e-07
-4.70101e-05
-1.93013e-07
-4.71209e-05
-1.91974e-07
-4.72333e-05
-1.91155e-07
-4.73469e-05
-1.90552e-07
-4.74619e-05
-1.90122e-07
-4.75779e-05
-1.89886e-07
-4.76949e-05
-1.89822e-07
-4.78127e-05
-1.89876e-07
-4.79314e-05
-1.90044e-07
-4.80507e-05
-1.90297e-07
-4.81706e-05
-1.90591e-07
-4.8291e-05
-1.90929e-07
-4.84118e-05
-1.91264e-07
-4.85332e-05
-1.91483e-07
-4.8655e-05
-1.91574e-07
-4.87767e-05
-1.91529e-07
-4.88985e-05
-1.91191e-07
-4.90202e-05
-1.90536e-07
-4.91418e-05
-1.89606e-07
-4.92633e-05
-1.88376e-07
-4.93849e-05
-1.868e-07
-4.95063e-05
-1.84829e-07
-4.96278e-05
-1.824e-07
-4.97494e-05
-1.79447e-07
-4.98711e-05
-1.75905e-07
-4.99929e-05
-1.71682e-07
-5.0115e-05
-1.66479e-07
-5.02377e-05
-1.60212e-07
-5.03609e-05
-1.53612e-07
-5.04847e-05
-1.46294e-07
-5.06092e-05
-1.38141e-07
-5.07346e-05
-1.28988e-07
-5.08608e-05
-1.19024e-07
-5.09877e-05
-1.08549e-07
-5.11153e-05
-9.72501e-08
-5.12441e-05
-8.51174e-08
-5.13738e-05
-7.4062e-08
-5.15047e-05
-6.36872e-08
-5.1637e-05
-5.44477e-08
-5.1771e-05
-4.70742e-08
-5.19068e-05
-4.24877e-08
-5.20448e-05
-4.18128e-08
-5.21851e-05
-4.6402e-08
-5.2328e-05
-5.77771e-08
-5.24736e-05
-7.75362e-08
-5.26222e-05
-1.06828e-07
-5.27742e-05
-1.47718e-07
-5.29294e-05
-2.01456e-07
-5.30881e-05
-2.67735e-07
-5.32502e-05
-3.46524e-07
-5.34151e-05
-4.34796e-07
-5.3581e-05
-5.26303e-07
-5.3744e-05
-6.10953e-07
-5.38967e-05
-6.72966e-07
-5.40255e-05
-6.88996e-07
-5.41074e-05
-6.27463e-07
-5.41006e-05
-4.41667e-07
-5.3955e-05
-3.01466e-08
-5.35999e-05
8.15604e-07
-5.28783e-05
2.34063e-06
-5.14982e-05
5.1328e-06
-4.87755e-05
9.92208e-06
1.64085e-05
-4.33862e-05
-4.66885e-05
-9.46848e-08
-4.67508e-05
-1.66995e-07
-4.68304e-05
-2.07042e-07
-4.69201e-05
-2.27392e-07
-4.70154e-05
-2.35973e-07
-4.71138e-05
-2.37662e-07
-4.72139e-05
-2.35322e-07
-4.73147e-05
-2.30667e-07
-4.74158e-05
-2.24652e-07
-4.7517e-05
-2.17828e-07
-4.76181e-05
-2.10609e-07
-4.77192e-05
-2.03231e-07
-4.78202e-05
-1.95885e-07
-4.79211e-05
-1.88547e-07
-4.8022e-05
-1.81352e-07
-4.81229e-05
-1.74323e-07
-4.82241e-05
-1.67492e-07
-4.83254e-05
-1.60863e-07
-4.8427e-05
-1.54524e-07
-4.8529e-05
-1.48453e-07
-4.86313e-05
-1.4264e-07
-4.8734e-05
-1.37119e-07
-4.88369e-05
-1.31911e-07
-4.89402e-05
-1.26996e-07
-4.90438e-05
-1.22411e-07
-4.91475e-05
-1.18218e-07
-4.92515e-05
-1.14315e-07
-4.93558e-05
-1.10688e-07
-4.94601e-05
-1.07346e-07
-4.95646e-05
-1.0425e-07
-4.96692e-05
-1.01429e-07
-4.97737e-05
-9.89269e-08
-4.98783e-05
-9.66935e-08
-4.99828e-05
-9.46858e-08
-5.00872e-05
-9.29358e-08
-5.01914e-05
-9.14674e-08
-5.02954e-05
-9.02516e-08
-5.03991e-05
-8.92851e-08
-5.05025e-05
-8.85851e-08
-5.06055e-05
-8.81485e-08
-5.07081e-05
-8.7964e-08
-5.08102e-05
-8.80097e-08
-5.09118e-05
-8.82768e-08
-5.10129e-05
-8.87377e-08
-5.11134e-05
-8.93505e-08
-5.12134e-05
-9.00961e-08
-5.13127e-05
-9.09256e-08
-5.14115e-05
-9.18093e-08
-5.15097e-05
-9.27201e-08
-5.16074e-05
-9.35954e-08
-5.17046e-05
-9.43229e-08
-5.18012e-05
-9.49783e-08
-5.1897e-05
-9.56394e-08
-5.19921e-05
-9.61019e-08
-5.20865e-05
-9.62182e-08
-5.21801e-05
-9.59561e-08
-5.22732e-05
-9.5287e-08
-5.23658e-05
-9.41593e-08
-5.24581e-05
-9.25194e-08
-5.25503e-05
-9.02955e-08
-5.26423e-05
-8.74266e-08
-5.27343e-05
-8.3835e-08
-5.28266e-05
-7.94566e-08
-5.2919e-05
-7.40116e-08
-5.30125e-05
-6.67322e-08
-5.31066e-05
-5.95043e-08
-5.32015e-05
-5.13823e-08
-5.32975e-05
-4.21766e-08
-5.33946e-05
-3.18539e-08
-5.34931e-05
-2.05703e-08
-5.3593e-05
-8.61269e-09
-5.36946e-05
4.35327e-09
-5.37994e-05
1.96892e-08
-5.3906e-05
3.25375e-08
-5.40148e-05
4.51084e-08
-5.41261e-05
5.68711e-08
-5.42403e-05
6.7043e-08
-5.43574e-05
7.46991e-08
-5.4478e-05
7.87374e-08
-5.46023e-05
7.78555e-08
-5.47306e-05
7.06032e-08
-5.48636e-05
5.54474e-08
-5.50013e-05
3.08506e-08
-5.51445e-05
-4.53691e-09
-5.52934e-05
-5.25095e-08
-5.54481e-05
-1.13108e-07
-5.56077e-05
-1.86916e-07
-5.57709e-05
-2.71553e-07
-5.59353e-05
-3.61887e-07
-5.60958e-05
-4.50503e-07
-5.62433e-05
-5.25477e-07
-5.63614e-05
-5.70851e-07
-5.64252e-05
-5.63655e-07
-5.6389e-05
-4.77866e-07
-5.61871e-05
-2.32106e-07
-5.56887e-05
3.17209e-07
-5.47049e-05
1.35689e-06
-5.28431e-05
3.27096e-06
-4.9417e-05
6.49601e-06
1.05559e-05
-4.35644e-05
-4.86283e-05
-4.54795e-08
-4.87154e-05
-7.98842e-08
-4.8824e-05
-9.85023e-08
-4.89443e-05
-1.07018e-07
-4.90708e-05
-1.09562e-07
-4.91998e-05
-1.0861e-07
-4.93295e-05
-1.05646e-07
-4.94586e-05
-1.01514e-07
-4.95865e-05
-9.67826e-08
-4.97127e-05
-9.16593e-08
-4.98369e-05
-8.63541e-08
-4.99592e-05
-8.09515e-08
-5.00795e-05
-7.55979e-08
-5.01977e-05
-7.03751e-08
-5.03138e-05
-6.52665e-08
-5.04278e-05
-6.02694e-08
-5.05399e-05
-5.54077e-08
-5.065e-05
-5.07685e-08
-5.07581e-05
-4.64152e-08
-5.08643e-05
-4.22543e-08
-5.09686e-05
-3.83316e-08
-5.1071e-05
-3.47542e-08
-5.11713e-05
-3.15708e-08
-5.12696e-05
-2.87228e-08
-5.13657e-05
-2.62465e-08
-5.14598e-05
-2.41472e-08
-5.15519e-05
-2.22789e-08
-5.16419e-05
-2.06382e-08
-5.173e-05
-1.92537e-08
-5.18162e-05
-1.8068e-08
-5.19005e-05
-1.709e-08
-5.19831e-05
-1.6351e-08
-5.2064e-05
-1.58061e-08
-5.21433e-05
-1.54126e-08
-5.2221e-05
-1.51932e-08
-5.22973e-05
-1.51681e-08
-5.23722e-05
-1.5309e-08
-5.24459e-05
-1.5607e-08
-5.25184e-05
-1.60933e-08
-5.25898e-05
-1.67516e-08
-5.26602e-05
-1.75668e-08
-5.27297e-05
-1.8539e-08
-5.27983e-05
-1.96339e-08
-5.28662e-05
-2.08265e-08
-5.29335e-05
-2.20839e-08
-5.30002e-05
-2.33758e-08
-5.30665e-05
-2.4651e-08
-5.31324e-05
-2.58867e-08
-5.31981e-05
-2.70458e-08
-5.32636e-05
-2.80625e-08
-5.33291e-05
-2.88786e-08
-5.33945e-05
-2.95252e-08
-5.34602e-05
-2.99914e-08
-5.35261e-05
-3.01406e-08
-5.35925e-05
-2.98308e-08
-5.36594e-05
-2.90239e-08
-5.3727e-05
-2.77024e-08
-5.37954e-05
-2.58106e-08
-5.38646e-05
-2.32906e-08
-5.39348e-05
-2.00693e-08
-5.40062e-05
-1.60825e-08
-5.40787e-05
-1.12758e-08
-5.41526e-05
-5.57211e-09
-5.42273e-05
6.92824e-10
-5.43049e-05
1.0853e-08
-5.43839e-05
1.94769e-08
-5.44646e-05
2.93422e-08
-5.45473e-05
4.05157e-08
-5.46321e-05
5.29359e-08
-5.47191e-05
6.64681e-08
-5.48087e-05
8.093e-08
-5.49013e-05
9.69418e-08
-5.49958e-05
1.1427e-07
-5.50942e-05
1.30871e-07
-5.51963e-05
1.4719e-07
-5.53022e-05
1.62837e-07
-5.54123e-05
1.77108e-07
-5.55267e-05
1.89103e-07
-5.56457e-05
1.9774e-07
-5.57696e-05
2.01738e-07
-5.58986e-05
1.99661e-07
-5.60332e-05
1.89975e-07
-5.61731e-05
1.70736e-07
-5.63185e-05
1.40939e-07
-5.64705e-05
9.94143e-08
-5.66284e-05
4.48407e-08
-5.67923e-05
-2.30025e-08
-5.69612e-05
-1.02699e-07
-5.71312e-05
-1.91854e-07
-5.72962e-05
-2.85475e-07
-5.74463e-05
-3.75452e-07
-5.75639e-05
-4.53162e-07
-5.76204e-05
-5.07216e-07
-5.75749e-05
-5.23354e-07
-5.73448e-05
-4.62166e-07
-5.67753e-05
-2.52343e-07
-5.56253e-05
2.06893e-07
-5.3457e-05
1.10264e-06
-4.95969e-05
2.63594e-06
4.49688e-06
-4.35379e-05
-4.97739e-05
1.54483e-08
-4.98747e-05
2.09817e-08
-4.99982e-05
2.49641e-08
-5.01333e-05
2.804e-08
-5.02734e-05
3.0558e-08
-5.04147e-05
3.27086e-08
-5.0555e-05
3.46299e-08
-5.06929e-05
3.63863e-08
-5.08276e-05
3.79793e-08
-5.09587e-05
3.94082e-08
-5.10858e-05
4.07781e-08
-5.12089e-05
4.21345e-08
-5.13279e-05
4.34025e-08
-5.14428e-05
4.44592e-08
-5.15534e-05
4.54264e-08
-5.16601e-05
4.64022e-08
-5.17628e-05
4.73049e-08
-5.18616e-05
4.80353e-08
-5.19566e-05
4.85786e-08
-5.20479e-05
4.90575e-08
-5.21357e-05
4.94333e-08
-5.222e-05
4.9582e-08
-5.23011e-05
4.95137e-08
-5.23791e-05
4.92877e-08
-5.24542e-05
4.88158e-08
-5.25265e-05
4.81078e-08
-5.25961e-05
4.7367e-08
-5.26634e-05
4.66187e-08
-5.27284e-05
4.57727e-08
-5.27913e-05
4.48785e-08
-5.28524e-05
4.39606e-08
-5.29117e-05
4.29691e-08
-5.29694e-05
4.19433e-08
-5.30258e-05
4.09405e-08
-5.30809e-05
3.99093e-08
-5.31349e-05
3.88291e-08
-5.3188e-05
3.77428e-08
-5.32402e-05
3.6641e-08
-5.32918e-05
3.54875e-08
-5.33428e-05
3.42983e-08
-5.33935e-05
3.30874e-08
-5.34439e-05
3.18413e-08
-5.34941e-05
3.05954e-08
-5.35443e-05
2.93741e-08
-5.35946e-05
2.81936e-08
-5.3645e-05
2.70865e-08
-5.36958e-05
2.60927e-08
-5.37469e-05
2.52387e-08
-5.37985e-05
2.45546e-08
-5.38507e-05
2.41001e-08
-5.39035e-05
2.3908e-08
-5.39569e-05
2.3966e-08
-5.40113e-05
2.43328e-08
-5.40665e-05
2.51196e-08
-5.41228e-05
2.64709e-08
-5.41803e-05
2.84054e-08
-5.42389e-05
3.09304e-08
-5.42988e-05
3.41018e-08
-5.43601e-05
3.79841e-08
-5.44228e-05
4.26618e-08
-5.44871e-05
4.8194e-08
-5.4553e-05
5.46731e-08
-5.46206e-05
6.2004e-08
-5.46907e-05
7.07866e-08
-5.47616e-05
8.17288e-08
-5.48349e-05
9.28411e-08
-5.49107e-05
1.05105e-07
-5.49889e-05
1.18727e-07
-5.50697e-05
1.33709e-07
-5.51532e-05
1.49975e-07
-5.52398e-05
1.6755e-07
-5.53296e-05
1.86705e-07
-5.54223e-05
2.06949e-07
-5.55187e-05
2.27284e-07
-5.56191e-05
2.47579e-07
-5.57237e-05
2.67421e-07
-5.58327e-05
2.86148e-07
-5.59465e-05
3.02902e-07
-5.60654e-05
3.16636e-07
-5.61898e-05
3.26107e-07
-5.632e-05
3.29913e-07
-5.64565e-05
3.26468e-07
-5.65998e-05
3.14076e-07
-5.67503e-05
2.91382e-07
-5.69076e-05
2.56779e-07
-5.70713e-05
2.08474e-07
-5.72407e-05
1.46371e-07
-5.74137e-05
7.02974e-08
-5.75871e-05
-1.83748e-08
-5.7756e-05
-1.16623e-07
-5.79092e-05
-2.22241e-07
-5.80288e-05
-3.33515e-07
-5.80859e-05
-4.50115e-07
-5.80369e-05
-5.72372e-07
-5.77996e-05
-6.9945e-07
-5.72146e-05
-8.37395e-07
-5.60112e-05
-9.96488e-07
-5.37198e-05
-1.18875e-06
-4.96576e-05
-1.42625e-06
-1.64692e-06
-4.35138e-05
-4.96768e-05
7.5166e-08
-4.97758e-05
1.19944e-07
-4.98971e-05
1.46309e-07
-5.003e-05
1.60902e-07
-5.01679e-05
1.68489e-07
-5.03071e-05
1.71909e-07
-5.04453e-05
1.72857e-07
-5.05812e-05
1.72303e-07
-5.07141e-05
1.70869e-07
-5.08435e-05
1.68791e-07
-5.09691e-05
1.66389e-07
-5.10908e-05
1.63801e-07
-5.12085e-05
1.61101e-07
-5.13223e-05
1.58239e-07
-5.14322e-05
1.55313e-07
-5.15382e-05
1.52411e-07
-5.16404e-05
1.49528e-07
-5.1739e-05
1.46605e-07
-5.1834e-05
1.43597e-07
-5.19255e-05
1.40589e-07
-5.20137e-05
1.37609e-07
-5.20987e-05
1.3457e-07
-5.21806e-05
1.31456e-07
-5.22596e-05
1.28314e-07
-5.23359e-05
1.25081e-07
-5.24095e-05
1.21684e-07
-5.24805e-05
1.18406e-07
-5.25493e-05
1.15363e-07
-5.26159e-05
1.12369e-07
-5.26804e-05
1.09435e-07
-5.27431e-05
1.06638e-07
-5.28041e-05
1.03935e-07
-5.28634e-05
1.01334e-07
-5.29214e-05
9.89071e-08
-5.29781e-05
9.6608e-08
-5.30337e-05
9.43977e-08
-5.30883e-05
9.23336e-08
-5.3142e-05
9.03818e-08
-5.3195e-05
8.85112e-08
-5.32475e-05
8.67393e-08
-5.32995e-05
8.5069e-08
-5.33511e-05
8.34939e-08
-5.34025e-05
8.2032e-08
-5.34539e-05
8.07162e-08
-5.35052e-05
7.95471e-08
-5.35567e-05
7.85575e-08
-5.36084e-05
7.77742e-08
-5.36604e-05
7.72336e-08
-5.37128e-05
7.69567e-08
-5.37657e-05
7.69923e-08
-5.38191e-05
7.7367e-08
-5.38732e-05
7.80657e-08
-5.39281e-05
7.91567e-08
-5.39837e-05
8.07959e-08
-5.40404e-05
8.31274e-08
-5.40981e-05
8.61293e-08
-5.4157e-05
8.97932e-08
-5.42171e-05
9.41735e-08
-5.42784e-05
9.93541e-08
-5.43412e-05
1.05418e-07
-5.44054e-05
1.12439e-07
-5.44712e-05
1.20483e-07
-5.45389e-05
1.29628e-07
-5.46084e-05
1.40322e-07
-5.46793e-05
1.52644e-07
-5.47523e-05
1.65862e-07
-5.48276e-05
1.80363e-07
-5.49052e-05
1.96314e-07
-5.49852e-05
2.13743e-07
-5.50679e-05
2.3263e-07
-5.51534e-05
2.53081e-07
-5.52419e-05
2.7519e-07
-5.53334e-05
2.98502e-07
-5.54285e-05
3.22386e-07
-5.55275e-05
3.46531e-07
-5.56306e-05
3.70501e-07
-5.57381e-05
3.93673e-07
-5.58504e-05
4.15231e-07
-5.5968e-05
4.3417e-07
-5.60912e-05
4.49296e-07
-5.62205e-05
4.5923e-07
-5.63564e-05
4.62415e-07
-5.64996e-05
4.57213e-07
-5.66502e-05
4.42033e-07
-5.68085e-05
4.15086e-07
-5.69746e-05
3.74545e-07
-5.71471e-05
3.18906e-07
-5.73229e-05
2.46122e-07
-5.74978e-05
1.56441e-07
-5.76653e-05
5.09387e-08
-5.78167e-05
-7.08728e-08
-5.79353e-05
-2.14882e-07
-5.79926e-05
-3.92839e-07
-5.79434e-05
-6.21595e-07
-5.77064e-05
-9.36462e-07
-5.71338e-05
-1.40995e-06
-5.5956e-05
-2.17426e-06
-5.36991e-05
-3.44572e-06
-4.96849e-05
-5.44042e-06
-7.75062e-06
-4.35812e-05
-4.84084e-05
1.21327e-07
-4.8491e-05
2.02514e-07
-4.8594e-05
2.49309e-07
-4.87083e-05
2.75177e-07
-4.88282e-05
2.88442e-07
-4.89506e-05
2.94259e-07
-4.90734e-05
2.95641e-07
-4.91955e-05
2.9443e-07
-4.93163e-05
2.91659e-07
-4.94354e-05
2.87913e-07
-4.95526e-05
2.83597e-07
-4.96678e-05
2.78976e-07
-4.9781e-05
2.74263e-07
-4.98922e-05
2.69466e-07
-5.00015e-05
2.64659e-07
-5.0109e-05
2.59852e-07
-5.02146e-05
2.55168e-07
-5.03185e-05
2.50526e-07
-5.04208e-05
2.45904e-07
-5.05216e-05
2.41324e-07
-5.06208e-05
2.36822e-07
-5.07186e-05
2.3236e-07
-5.0815e-05
2.27903e-07
-5.09102e-05
2.23465e-07
-5.10041e-05
2.19001e-07
-5.10968e-05
2.14432e-07
-5.11884e-05
2.09931e-07
-5.12786e-05
2.05573e-07
-5.13674e-05
2.012e-07
-5.14548e-05
1.96855e-07
-5.15408e-05
1.92647e-07
-5.16255e-05
1.88566e-07
-5.17087e-05
1.84608e-07
-5.17907e-05
1.8085e-07
-5.18714e-05
1.77276e-07
-5.19508e-05
1.73829e-07
-5.2029e-05
1.70552e-07
-5.21061e-05
1.67446e-07
-5.2182e-05
1.64483e-07
-5.2257e-05
1.61671e-07
-5.23309e-05
1.59021e-07
-5.2404e-05