/*--------------------------------*- C++ -*----------------------------------*\
| =========                 |                                                 |
| \\      /  F ield         | OpenFOAM: The Open Source CFD Toolbox           |
|  \\    /   O peration     | Version:  2.1.0                                 |
|   \\  /    A nd           | Web:      www.OpenFOAM.org                      |
|    \\/     M anipulation  |                                                 |
\*---------------------------------------------------------------------------*/
FoamFile
{
    version     2.0;
    format      ascii;
    class       volScalarField;
    location    "0.13";
    object      rho;
}
// * * * * * * * * * * * * * * * * * * * * * * * * * * * * * * * * * * * * * //

dimensions      [1 -3 0 0 0 0 0];

internalField   nonuniform List<scalar> 
6400
(
1000
1000
1000
1000
1000
1000
1000
1000
1000
1000
1000
1000
1000
1000
1000
1000
1000
1000
1000
1000
1000
1000
1000
1000
1000
1000
1000
1000
1000
1000
1000
1000
1000
1000
1000
1000
1000
1000
1000
1000
1000
1000
1000
1000
1000
1000
1000
1000
1000
1000
1000
1000
1000
1000
1000
1000
1000
1000
1000
1000
1000
1000
1000
1000
1000
1000
1000
1000
1000
1000
1000
1000
1000
1000
1000
1000
1000
1000
1000
1000
1000
1000
1000
1000
1000
1000
1000
1000
1000
1000
1000
1000
1000
1000
1000
1000
1000
1000
1000
999.999
1000
1000
1000
1000
1000
1000
1000
1000
1000
1000
1000
1000
1000
1000
1000
1000
1000
1000
1000
1000
1000
1000
1000
1000
1000
1000
1000
1000
1000
1000
1000
1000
1000
1000
1000
1000
1000
1000
1000
1000
1000
1000
1000
1000
1000
1000
1000
1000
1000
1000
1000
1000
1000
1000
1000
1000
1000
1000
1000
1000
1000
1000
1000
1000
1000
1000
1000
1000
1000
1000
1000
1000
1000
1000
1000
1000
1000
1000
1000
1000
1000
1000
1000
1000
1000
1000
1000
1000
1000
1000
1000
1000
1000
1000
1000
1000
1000
1000
1000
999.999
1000
1000
1000
1000
1000
1000
1000
1000
1000
1000
1000
1000
1000
1000
1000
1000
1000
1000
1000
1000
1000
1000
1000
1000
1000
1000
1000
1000
1000
1000
1000
1000
1000
1000
1000
1000
1000
1000
1000
1000
1000
1000
1000
1000
1000
1000
1000
1000
1000
1000
1000
1000
1000
1000
1000
1000
1000
1000
1000
1000
1000
1000
1000
1000
1000
1000
1000
1000
1000
1000
1000
1000
1000
1000
1000
1000
1000
1000
1000
1000
1000
1000
1000
1000
1000
1000
1000
1000
1000
1000
1000
1000
1000
1000
1000
1000
1000
1000
999.999
999.999
1000
1000
1000
1000
1000
1000
1000
1000
1000
1000
1000
1000
1000
1000
1000
1000
1000
1000
1000
1000
1000
1000
1000
1000
1000
1000
1000
1000
1000
1000
1000
1000
1000
1000
1000
1000
1000
1000
1000
1000
1000
1000
1000
1000
1000
1000
1000
1000
1000
1000
1000
1000
1000
1000
1000
1000
1000
1000
1000
1000
1000
1000
1000
1000
1000
1000
1000
1000
1000
1000
1000
1000
1000
1000
1000
1000
1000
1000
1000
1000
1000
1000
1000
1000
1000
1000
1000
1000
1000
1000
1000
1000
1000
1000
1000
1000
1000
1000
999.999
999.999
1000
1000
1000
1000
1000
1000
1000
1000
1000
1000
1000
1000
1000
1000
1000
1000
1000
1000
1000
1000
1000
1000
1000
1000
1000
1000
1000
1000
1000
1000
1000
1000
1000
1000
1000
1000
1000
1000
1000
1000
1000
1000
1000
1000
1000
1000
1000
1000
1000
1000
1000
1000
1000
1000
1000
1000
1000
1000
1000
1000
1000
1000
1000
1000
1000
1000
1000
1000
1000
1000
1000
1000
1000
1000
1000
1000
1000
1000
1000
1000
1000
1000
1000
1000
1000
1000
1000
1000
1000
1000
1000
1000
1000
1000
1000
1000
1000
1000
1000
999.999
1000
1000
1000
1000
1000
1000
1000
1000
1000
1000
1000
1000
1000
1000
1000
1000
1000
1000
1000
1000
1000
1000
1000
1000
1000
1000
1000
1000
1000
1000
1000
1000
1000
1000
1000
1000
1000
1000
1000
1000
1000
1000
1000
1000
1000
1000
1000
1000
1000
1000
1000
1000
1000
1000
1000
1000
1000
1000
1000
1000
1000
1000
1000
1000
1000
1000
1000
1000
1000
1000
1000
1000
1000
1000
1000
1000
1000
1000
1000
1000
1000
1000
1000
1000
1000
1000
1000
1000
1000
1000
1000
1000
1000
1000
1000
1000
1000
1000
1000
1000
1000
1000
1000
1000
1000
1000
1000
1000
1000
1000
1000
1000
1000
1000
1000
1000
1000
1000
1000
1000
1000
1000
1000
1000
1000
1000
1000
1000
1000
1000
1000
1000
1000
1000
1000
1000
1000
1000
1000
1000
1000
1000
1000
1000
1000
1000
1000
1000
1000
1000
1000
1000
1000
1000
1000
1000
1000
1000
1000
1000
1000
1000
1000
1000
1000
1000
1000
1000
1000
1000
1000
1000
1000
1000
1000
1000
1000
1000
1000
1000
1000
1000
1000
1000
1000
1000
1000
1000
1000
1000
1000
1000
1000
1000
1000
1000
1000
1000
1000
1000
1000
1000
1000
1000
1000
1000
1000
1000
1000
1000
1000
1000
1000
1000
1000
1000
1000
1000
1000
1000
1000
1000
1000
1000
1000
1000
1000
1000
1000
1000
1000
1000
1000
1000
1000
1000
1000
1000
1000
1000
1000
1000
1000
1000
1000
1000
1000
1000
1000
1000
1000
1000
1000
1000
1000
1000
1000
1000
1000
1000
1000
1000
1000
1000
1000
1000
1000
1000
1000
1000
1000
1000
1000
1000
1000
1000
1000
1000
1000
1000
1000
1000
1000
1000
1000
1000
1000
1000
1000
1000
1000
1000
1000
1000
1000
1000
1000
1000
1000
1000
1000
1000
1000
1000
1000
1000
1000
1000
1000
1000
1000
1000
1000
1000
1000
1000
1000
1000
1000
1000
1000
1000
1000
1000
1000
1000
1000
1000
1000
1000
1000
1000
1000
1000
1000
1000
1000
1000
1000
1000
1000
1000
1000
1000
1000
1000
1000
1000
1000
1000
1000
1000
1000
1000
1000
1000
1000
1000
1000
1000
1000
1000
1000
1000
1000
1000
1000
1000
1000
1000
1000
1000
1000
1000
1000
1000
1000
1000
1000
1000
1000
1000
1000
1000
1000
1000
1000
1000
1000
1000
1000
1000
1000
1000
1000
1000
1000
1000
1000
1000
1000
1000
1000
1000
1000
1000
1000
1000
1000
1000
1000
1000
1000
1000
1000
1000
1000
1000
1000
1000
1000
1000
1000
1000
1000
1000
1000
1000
1000
1000
1000
1000
1000
1000
1000
1000
1000
1000
1000
1000
1000
1000
1000
1000
1000
1000
1000
1000
1000
1000
1000
1000
1000
1000
1000
1000
1000
1000
1000
1000
1000
1000
1000
1000
1000
1000
1000
1000
1000
1000
1000
1000
1000
1000
1000
1000
1000
1000
1000
1000
1000
1000
1000
1000
1000
1000
1000
1000
1000
1000
1000
1000
1000
1000
1000
1000
1000
1000
1000
1000
1000
1000
1000
1000
1000
1000
1000
1000
1000
1000
1000
1000
1000
1000
1000
1000
1000
1000
1000
1000
1000
1000
1000
1000
1000
1000
1000
1000
1000
1000
1000
1000
1000
1000
1000
1000
1000
1000
1000
1000
1000
1000
1000
1000
1000
1000
1000
1000
1000
1000
1000
1000
1000
1000
1000
1000
1000
1000
1000
1000
1000
1000
1000
1000
1000
1000
1000
1000
1000
1000
1000
1000
1000
1000
1000
1000
1000
1000
1000
1000
1000
1000
1000
1000
1000
1000
1000
1000
1000
1000
1000
1000
1000
1000
1000
1000
1000
1000
1000
1000
1000
1000
1000
1000
1000
1000
1000
1000
1000
1000
1000
1000
1000
1000
1000
1000
1000
1000
1000
1000
1000
1000
1000
1000
1000
1000
1000
1000
1000
1000
1000
1000
1000
1000
1000
1000
1000
1000
1000
1000
1000
1000
1000
1000
1000
1000
1000
1000
1000
1000
1000
1000
1000
1000
1000
1000
1000
1000
1000
1000
1000
1000
1000
1000
1000
1000
1000
1000
1000
1000
1000
1000
1000
1000
1000
1000
1000
1000
1000
1000
1000
1000
1000
1000
1000
1000
1000
1000
1000
1000
1000
1000
1000
1000
1000
1000
1000
1000
1000
1000
1000
1000
1000
1000
1000
1000
1000
1000
1000
1000
1000
1000
1000
1000
1000
1000
1000
1000
1000
1000
1000
1000
1000
1000
1000
1000
1000
1000
1000
1000
1000
1000
1000
1000
1000
1000
1000
1000
1000
1000
1000
1000
1000
1000
1000
1000
1000
1000
1000
1000
1000
1000
1000
1000
1000
1000
1000
1000
1000
1000
1000
1000
1000
1000
1000
1000
1000
1000
1000
1000
1000
1000
1000
1000
1000
1000
1000
1000
1000
1000
1000
1000
1000
1000
1000
1000
1000
1000
1000
1000
1000
1000
1000
1000
1000
1000
1000
1000
1000
1000
1000
1000
1000
1000
1000
1000
1000
1000
1000
1000
1000
1000
1000
1000
1000
1000
1000
1000
1000
1000
1000
1000
1000
1000
1000
1000
1000
1000
1000
1000
1000
1000
1000
1000
1000
1000
1000
1000
1000
1000
1000
1000
1000
1000
1000
1000
1000
1000
1000
1000
1000
1000
1000
1000
1000
1000
1000
1000
1000
1000
1000
1000
1000
1000
1000
1000
1000
1000
1000
1000
1000
1000
1000
1000
1000
1000
1000
1000
1000
1000
1000
1000
1000
1000
1000
1000
1000
1000
1000
1000
1000
1000
1000
1000
1000
1000
1000
1000
1000
1000
1000
1000
1000
1000
1000
1000
1000
1000
1000
1000
1000
1000
1000
1000
1000
1000
1000
1000
1000
1000
1000
1000
1000
1000
1000
1000
1000
1000
1000
1000
1000
1000
1000
1000
1000
1000
1000
1000
1000
1000
1000
1000
1000
1000
1000
1000
1000
1000
1000
1000
1000
1000
1000
1000
1000
1000
1000
1000
1000
1000
1000
1000
1000
1000
1000
1000
1000
1000
1000
1000
1000
1000
1000
1000
1000
1000
1000
1000
1000
1000
1000
1000
1000
1000
1000
1000
1000
1000
1000
1000
1000
1000
1000
1000
1000
1000
1000
1000
1000
1000
1000
1000
1000
1000
1000
1000
1000
1000
1000
1000
1000
1000
1000
1000
1000
1000
1000
1000
1000
1000
1000
1000
1000
1000
1000
1000
1000
1000
1000
1000
1000
1000
1000
1000
1000
1000
1000
1000
1000
1000
1000
1000
1000
1000
1000
1000
1000
1000
1000
1000
1000
1000
1000
1000
1000
1000
1000
1000
1000
1000
1000
1000
1000
1000
1000
1000
1000
1000
1000
1000
1000
1000
1000
1000
1000
1000
1000
1000
1000
1000
1000
1000
1000
1000
1000
1000
1000
1000
1000
1000
1000
1000
1000
1000
1000
1000
1000
1000
1000
1000
1000
1000
1000
1000
1000
1000
1000
1000
1000
1000
1000
1000
1000
1000
1000
1000
1000
1000
1000
1000
1000
1000
1000
1000
1000
1000
1000
1000
1000
1000
1000
1000
1000
1000
1000
1000
1000
1000
1000
1000
1000
1000
1000
1000
1000
1000
1000
1000
1000
1000
1000
1000
1000
1000
1000
1000
1000
1000
1000
1000
1000
1000
1000
1000
1000
1000
1000
1000
1000
1000
1000
1000
1000
1000
1000
1000
1000
1000
1000
1000
1000
1000
1000
1000
1000
1000
1000
1000
1000
1000
1000
1000
1000
1000
1000
1000
1000
1000
1000
1000
1000
1000
1000
1000
1000
1000
1000
1000
1000
1000
1000
1000
1000
1000
1000
1000
1000
1000
1000
1000
1000
1000
1000
1000
1000
1000
1000
1000
1000
1000
1000
1000
1000
1000
1000
1000
1000
1000
1000
1000
1000
1000
1000
1000
1000
1000
1000
1000
1000
1000
1000
1000
1000
1000
1000
1000
1000
1000
1000
1000
1000
1000
1000
1000
1000
1000
1000
1000
1000
1000
1000
1000
1000
1000
1000
1000
1000
1000
1000
1000
1000
1000
1000
1000
1000
1000
1000
1000
1000
1000
1000
1000
1000
1000
1000
1000
1000
1000
1000
1000
1000
1000
1000
1000
1000
1000
1000
1000
1000
1000
1000
1000
1000
1000
1000
1000
1000
1000
1000
1000
1000
1000
1000
1000
1000
1000
1000
1000
1000
1000
1000
1000
1000
1000
1000
1000
1000
1000
1000
1000
1000
1000
1000
1000
1000
1000
1000
1000
1000
1000
1000
1000
1000
1000
1000
1000
1000
1000
1000
1000
1000
1000
1000
1000
1000
1000
1000
1000
1000
1000
1000
1000
1000
1000
1000
1000
1000
1000
1000
1000
1000
1000
1000
1000
1000
1000
1000
1000
1000
1000
1000
1000
1000
1000
1000
1000
1000
1000
1000
1000
1000
1000
1000
1000
1000
1000
1000
1000
1000
1000
1000
1000
1000
1000
1000
1000
1000
1000
1000
1000
1000
1000
1000
1000
1000
1000
1000
1000
1000
1000
1000
1000
1000
1000
1000
1000
1000
1000
1000
1000
1000
1000
1000
1000
1000
1000
1000
1000
1000
1000
1000
1000
1000
1000
1000
1000
1000
1000
1000
1000
1000
1000
1000
1000
1000
1000
1000
1000
1000
1000
1000
1000
1000
1000
1000
1000
1000
1000
1000
1000
1000
1000
1000
1000
1000
1000
1000
1000
1000
1000
1000
1000
1000
1000
1000
1000
1000
1000
1000
1000
999.999
999.998
999.998
999.999
999.999
999.999
999.999
999.999
999.999
999.999
999.999
999.999
999.999
999.999
999.999
1000
1000
1000
1000
1000
999.999
999.999
999.999
999.999
999.999
999.999
999.999
999.999
1000
1000
1000
1000
1000
1000
1000
1000
1000
1000
1000
1000
999.999
999.999
999.999
999.999
999.999
1000
1000
1000
1000
1000
1000
1000
1000
1000
1000
1000
1000
1000
1000
1000
999.999
999.999
999.999
1000
1000
1000
1000
1000
1000
1000
1000
1000
1000
1000
1000
1000
1000
1000
1000
1000
999.999
1000
1000
1000
1000
1000
1000
1000
1000
1000
1000
1000
1000
1000
1000
1000
1000
1000
1000
1000
1000
1000
1000
1000
1000
1000
1000
1000
1000
1000
1000
1000
1000
1000
1000
1000
1000
1000
1000
1000
1000
1000
1000
1000
1000
1000
1000
1000
1000
1000
1000
1000
1000
1000
1000
1000
1000
1000
1000
1000
1000
1000
1000
1000
1000
1000
1000
1000
1000
1000
1000
1000
1000
1000
1000
1000
1000
1000
1000
1000
1000
1000
1000
1000
1000
1000
1000
1000
1000
1000
1000
1000
1000
1000
1000
1000
1000
1000
1000
1000
1000
1000
1000
1000
1000
1000
1000
1000
1000
1000
1000
1000
1000
1000
1000
1000
1000
1000
1000
1000
1000
1000
1000
1000
1000
1000
1000
1000
1000
1000
1000
1000
1000
1000
1000
1000
1000
1000
1000
1000
1000
1000
1000
1000
1000
1000
1000
1000
1000
1000
1000
1000
1000
1000
1000
1000
1000
1000
1000
1000
1000
1000
1000
1000
1000
1000
1000
1000
1000
1000
1000
1000
1000
1000
1000
1000
1000
1000
1000
1000
1000
1000
1000
1000
1000
1000
1000
1000
1000
1000
1000
1000
1000
1000
1000
1000
1000
1000
1000
1000
1000
1000
1000
1000
1000
1000
1000
1000
1000
1000
1000
1000
1000
1000
1000
1000
1000
1000
1000
1000
1000
1000
1000
1000
1000
1000
1000
1000
1000
1000
1000
1000
1000
1000
1000
1000
1000
1000
1000
1000
1000
1000
1000
1000
1000
1000
1000
1000
1000
1000
1000
1000
1000
1000
1000
1000
1000
1000
1000
1000
1000
1000
1000
1000
1000
1000
1000
1000
1000
1000
1000
1000
1000
1000
1000
1000
1000
1000
1000
1000
1000
1000
1000
1000
1000
1000
1000
1000
1000
1000
1000
1000
1000
1000
1000
1000
1000
1000
1000
1000
1000
1000
1000
1000
1000
1000
1000
1000
1000
1000
1000
1000
1000
1000
1000
1000
1000
1000
1000
1000
944.555
944.555
944.555
944.555
944.555
944.555
944.555
944.555
944.555
944.555
944.555
944.555
944.555
944.555
944.555
944.555
944.555
944.555
944.555
944.555
944.555
944.555
944.555
944.555
944.555
944.555
944.555
944.555
944.555
944.555
944.555
944.555
944.555
944.555
944.555
944.555
944.555
944.555
944.555
944.555
944.555
944.555
944.555
944.555
944.555
944.555
944.555
944.555
944.555
944.555
944.555
944.555
944.555
944.555
944.555
944.555
944.555
944.555
944.555
944.555
944.555
944.555
944.555
944.555
944.555
944.555
944.555
944.555
944.555
944.555
944.555
944.555
944.555
944.555
944.555
944.555
944.555
944.555
944.555
944.555
944.555
944.555
944.555
944.555
944.555
944.555
944.555
944.555
944.555
944.555
944.555
944.555
944.555
944.555
944.555
944.555
944.555
944.555
944.555
944.555
944.555
944.555
944.555
944.555
944.555
944.555
944.555
944.555
944.555
944.555
944.555
944.555
944.555
944.555
944.555
944.555
944.555
944.555
944.555
944.555
944.555
944.555
944.555
944.555
944.555
944.555
944.555
944.555
944.555
944.555
944.555
944.555
944.555
944.555
944.555
944.555
944.555
944.555
944.555
944.555
944.555
944.555
944.555
944.555
944.555
944.555
944.555
944.555
944.555
944.555
944.555
944.555
944.555
944.555
944.555
944.555
944.555
944.555
944.555
944.555
944.555
944.555
944.555
944.555
944.555
944.555
944.555
944.555
944.555
944.555
944.555
944.555
944.555
944.555
944.555
944.555
944.555
944.555
944.555
944.555
944.555
944.555
944.555
944.555
944.555
944.555
944.555
944.555
944.555
944.555
944.555
944.555
944.555
944.555
944.555
944.555
944.555
944.555
944.555
944.555
944.555
944.555
944.555
944.555
944.555
944.555
944.555
944.555
944.555
944.555
944.555
944.555
944.555
944.555
944.555
944.555
944.555
944.555
944.555
944.555
944.555
944.555
944.555
944.555
944.555
944.555
944.555
944.555
944.555
944.555
944.555
944.555
944.555
944.555
944.555
944.555
944.555
944.555
944.555
944.555
944.555
944.555
944.555
944.555
944.555
944.555
944.555
944.555
944.555
944.555
944.555
944.555
944.555
944.555
944.555
944.555
944.555
944.555
944.555
944.555
944.555
944.555
944.555
944.555
944.555
944.555
944.555
944.555
944.555
944.555
944.555
944.555
944.555
944.555
944.555
944.555
944.555
944.555
944.555
944.555
944.555
944.555
944.555
944.555
944.555
944.555
944.555
944.555
944.555
944.555
944.555
944.555
944.555
944.555
944.555
944.555
944.555
944.555
944.555
944.555
944.555
944.555
944.555
944.555
944.555
944.555
944.555
944.555
944.555
944.555
944.555
944.555
944.555
944.555
944.555
944.555
944.555
944.555
944.555
944.555
944.555
944.555
944.555
944.555
944.555
944.555
944.555
944.555
944.555
944.555
944.555
944.555
944.555
944.555
944.555
944.555
944.555
944.555
944.555
944.555
944.555
944.555
944.555
944.555
944.555
944.555
944.555
944.555
944.555
944.555
944.555
944.555
944.555
944.555
944.555
944.555
944.555
944.555
944.555
944.555
944.555
944.555
944.555
944.555
944.555
944.555
944.555
944.555
944.555
944.555
944.555
944.555
944.555
944.555
944.555
944.555
944.555
944.555
944.555
944.555
944.555
944.555
944.555
944.555
944.555
944.555
944.555
944.555
944.555
944.555
944.555
944.555
944.555
944.555
944.555
944.555
944.555
944.555
944.555
944.555
944.555
944.555
944.555
944.555
944.555
944.555
944.555
944.555
944.555
944.555
944.555
944.555
944.555
944.555
944.555
944.555
944.555
944.555
944.555
944.555
944.555
944.555
944.555
944.555
944.555
944.555
944.555
944.555
944.555
944.555
944.555
944.555
944.555
944.555
944.555
944.555
944.555
944.555
944.555
944.555
944.555
944.555
944.555
944.555
944.555
944.555
944.555
944.555
944.555
944.555
944.555
944.555
944.555
944.555
944.555
944.555
944.555
944.555
944.555
944.555
944.555
944.555
944.555
944.555
944.555
944.555
944.555
944.555
944.555
944.555
944.555
944.555
944.555
944.555
944.555
944.555
944.555
944.555
944.555
944.555
944.555
944.555
944.555
944.555
944.555
944.555
944.555
944.555
944.555
944.555
944.555
944.555
944.555
944.555
944.555
944.555
944.555
944.555
944.555
944.555
944.555
944.555
944.555
944.555
944.555
944.555
944.555
944.555
944.555
944.555
944.555
944.555
944.555
944.555
944.555
944.555
944.555
944.555
944.555
944.555
944.555
944.555
944.555
944.555
944.555
944.555
944.555
944.555
944.555
944.555
944.555
944.555
944.555
944.555
944.555
944.555
944.555
944.555
944.555
944.555
944.555
944.555
944.555
944.555
944.555
944.555
944.555
944.555
944.555
944.555
944.555
944.555
944.555
944.555
944.555
944.555
944.555
944.555
944.555
944.555
944.555
944.555
944.555
944.555
944.555
944.555
944.555
944.555
944.555
944.555
944.555
944.555
944.555
944.555
944.555
944.555
944.555
944.555
944.555
944.555
944.555
944.555
944.555
944.555
944.555
944.555
944.555
944.555
944.555
944.555
944.555
944.555
944.555
944.555
944.555
944.555
944.555
944.555
944.555
944.555
944.556
944.555
944.555
944.555
944.555
944.556
944.556
944.556
944.556
944.556
944.556
944.556
944.556
944.556
944.556
944.555
944.555
944.555
944.555
944.556
944.557
944.555
944.556
944.556
944.556
944.556
944.556
944.556
944.556
944.556
944.556
944.556
944.556
944.556
944.556
944.556
944.556
944.556
944.555
944.557
944.559
944.556
944.556
944.557
944.557
944.557
944.557
944.557
944.558
944.558
944.558
944.558
944.557
944.557
944.557
944.557
944.557
944.556
944.556
944.559
944.562
944.557
944.557
944.558
944.558
944.559
944.559
944.559
944.559
944.56
944.56
944.559
944.559
944.559
944.559
944.558
944.558
944.557
944.557
944.562
944.569
944.56
944.559
944.56
944.561
944.561
944.562
944.562
944.562
944.563
944.563
944.562
944.562
944.562
944.561
944.561
944.56
944.559
944.56
944.568
944.58
944.563
944.562
944.563
944.564
944.565
944.566
944.566
944.567
944.567
944.567
944.567
944.566
944.566
944.565
944.564
944.563
944.562
944.563
944.58
944.598
944.57
944.567
944.568
944.57
944.571
944.572
944.573
944.574
944.574
944.574
944.574
944.573
944.572
944.571
944.57
944.568
944.567
944.57
944.598
944.629
944.58
944.574
944.576
944.578
944.58
944.582
944.583
944.584
944.584
944.584
944.584
944.583
944.582
944.58
944.578
944.576
944.574
944.58
944.629
944.677
944.596
944.586
944.588
944.591
944.594
944.596
944.598
944.599
944.6
944.6
944.599
944.598
944.596
944.594
944.591
944.588
944.586
944.596
944.677
944.752
944.62
944.604
944.605
944.61
944.614
944.617
944.62
944.622
944.623
944.623
944.622
944.62
944.617
944.614
944.61
944.605
944.604
944.62
944.751
944.863
944.657
944.63
944.632
944.637
944.643
944.648
944.651
944.654
944.655
944.655
944.654
944.652
944.648
944.643
944.638
944.632
944.63
944.657
944.862
945.026
944.712
944.668
944.669
944.677
944.685
944.692
944.697
944.7
944.702
944.702
944.7
944.697
944.692
944.685
944.677
944.67
944.669
944.712
945.025
945.257
944.791
944.724
944.724
944.734
944.744
944.753
944.76
944.765
944.767
944.767
944.765
944.761
944.754
944.745
944.734
944.724
944.724
944.791
945.256
945.578
944.903
944.802
944.8
944.813
944.827
944.84
944.849
944.855
944.858
944.858
944.855
944.849
944.84
944.828
944.814
944.801
944.803
944.903
945.577
946.011
945.057
944.912
944.906
944.923
944.942
944.958
944.97
944.978
944.983
944.983
944.979
944.971
944.959
944.943
944.924
944.907
944.913
945.058
946.01
946.584
945.267
945.061
945.051
945.072
945.097
945.118
945.134
945.145
945.151
945.151
945.146
945.135
945.119
945.098
945.074
945.052
945.063
945.268
946.583
947.322
945.548
945.263
945.245
945.272
945.304
945.331
945.352
945.367
945.374
945.374
945.368
945.354
945.333
945.306
945.275
945.248
945.266
945.55
947.323
948.256
945.914
945.53
945.502
945.536
945.576
945.612
945.639
945.658
945.667
945.668
945.659
945.641
945.614
945.58
945.54
945.506
945.534
945.918
948.258
949.41
946.385
945.879
945.838
945.879
945.93
945.975
946.01
946.033
946.046
946.046
946.035
946.013
945.979
945.935
945.885
945.844
945.885
946.392
949.414
950.808
946.982
946.326
946.268
946.319
946.382
946.438
946.482
946.511
946.527
946.528
946.514
946.486
946.444
946.389
946.327
946.277
946.335
946.992
950.816
952.465
947.724
946.891
946.813
946.873
946.95
947.02
947.074
947.111
947.13
947.131
947.114
947.08
947.028
946.96
946.884
946.825
946.904
947.739
952.48
954.393
948.633
947.594
947.49
947.561
947.655
947.739
947.805
947.85
947.874
947.876
947.855
947.813
947.75
947.669
947.577
947.507
947.612
948.655
954.414
956.587
949.728
948.454
948.319
948.402
948.514
948.615
948.695
948.749
948.778
948.78
948.756
948.706
948.63
948.532
948.423
948.343
948.479
949.759
956.617
959.036
951.027
949.492
949.32
949.414
949.546
949.666
949.761
949.827
949.861
949.864
949.836
949.776
949.686
949.571
949.442
949.351
949.525
951.068
959.077
961.715
952.541
950.722
950.507
950.613
950.767
950.909
951.02
951.098
951.139
951.142
951.109
951.039
950.935
950.8
950.651
950.548
950.765
952.594
961.767
964.589
954.278
952.157
951.895
952.013
952.19
952.354
952.484
952.574
952.622
952.627
952.589
952.508
952.387
952.232
952.061
951.947
952.212
954.342
964.651
967.611
956.236
953.805
953.492
953.621
953.822
954.009
954.159
954.263
954.319
954.325
954.282
954.19
954.051
953.874
953.681
953.556
953.872
956.312
967.684
970.726
958.407
955.665
955.298
955.438
955.663
955.874
956.045
956.164
956.229
956.237
956.188
956.084
955.927
955.727
955.512
955.377
955.746
958.495
970.808
973.875
960.774
957.729
957.308
957.458
957.706
957.942
958.134
958.271
958.345
958.355
958.3
958.182
958.007
957.785
957.547
957.403
957.826
960.873
973.963
976.993
963.315
959.983
959.509
959.668
959.938
960.198
960.412
960.567
960.653
960.666
960.603
960.47
960.275
960.031
959.773
959.62
960.094
963.422
977.085
980.019
965.995
962.401
961.879
962.048
962.338
962.619
962.856
963.036
963.136
963.15
963.078
962.925
962.71
962.447
962.169
962.007
962.525
966.108
980.111
982.895
968.771
964.95
964.392
964.573
964.882
965.185
965.452
965.663
965.777
965.793
965.711
965.531
965.29
965.007
964.711
964.536
965.087
968.885
982.984
985.567
971.595
967.599
967.022
967.218
967.543
967.873
968.188
968.425
968.552
968.569
968.48
968.276
967.992
967.683
967.371
967.179
967.744
971.708
985.65
987.987
974.417
970.316
969.737
969.947
970.287
970.652
971.014
971.266
971.399
971.417
971.324
971.113
970.785
970.44
970.113
969.905
970.466
974.526
988.062
990.128
977.191
973.063
972.498
972.719
973.071
973.467
973.858
974.124
974.259
974.28
974.184
973.965
973.612
973.235
972.894
972.674
973.216
977.292
990.194
991.983
979.873
975.802
975.263
975.49
975.843
976.264
976.689
976.969
977.104
977.122
977.029
976.801
976.419
976.015
975.67
975.443
975.954
979.964
992.038
993.56
982.422
978.49
977.988
978.214
978.566
979.012
979.459
979.738
979.851
979.871
979.793
979.57
979.172
978.741
978.396
978.167
978.637
982.501
993.605
994.878
984.807
981.085
980.63
980.852
981.197
981.657
982.106
982.369
982.472
982.49
982.423
982.211
981.816
981.372
981.029
980.804
981.225
984.875
994.914
995.964
987.006
983.551
983.147
983.36
983.697
984.156
984.595
984.838
984.943
984.953
984.884
984.692
984.308
983.864
983.529
983.311
983.681
987.063
995.992
996.848
989.003
985.856
985.504
985.706
986.029
986.474
986.888
987.108
987.195
987.202
987.142
986.976
986.615
986.185
985.862
985.655
985.974
989.05
996.868
997.558
990.793
987.976
987.674
987.862
988.165
988.585
988.963
989.149
989.226
989.232
989.178
989.031
988.711
988.307
988.002
987.809
988.081
990.831
997.572
998.123
992.374
989.894
989.639
989.811
990.09
990.474
990.809
990.972
991.031
991.038
990.992
990.868
990.581
990.213
989.933
989.757
989.985
992.404
998.133
998.569
993.751
991.602
991.389
991.543
991.795
992.139
992.43
992.56
992.605
992.611
992.577
992.474
992.23
991.9
991.648
991.489
991.679
993.775
998.575
998.917
994.932
993.099
992.923
993.059
993.282
993.584
993.826
993.929
993.966
993.97
993.946
993.86
993.655
993.368
993.146
993.006
993.163
994.953
998.922
999.187
995.933
994.392
994.248
994.366
994.559
994.818
995.018
995.103
995.132
995.13
995.113
995.044
994.874
994.629
994.436
994.315
994.445
995.952
999.19
999.394
996.77
995.492
995.375
995.476
995.641
995.858
996.02
996.083
996.11
996.107
996.09
996.04
995.9
995.696
995.532
995.429
995.535
996.787
999.396
999.551
997.462
996.415
996.321
996.405
996.544
996.722
996.85
996.899
996.914
996.919
996.904
996.863
996.755
996.586
996.449
996.363
996.45
997.477
999.554
999.67
998.026
997.179
997.104
997.174
997.287
997.432
997.531
997.569
997.58
997.586
997.573
997.54
997.455
997.32
997.208
997.137
997.207
998.04
999.673
999.759
998.479
997.803
997.744
997.8
997.892
998.007
998.084
998.113
998.124
998.125
998.116
998.091
998.024
997.917
997.826
997.769
997.826
998.493
999.762
999.825
998.84
998.306
998.26
998.305
998.378
998.469
998.528
998.549
998.557
998.558
998.552
998.533
998.481
998.398
998.325
998.28
998.325
998.853
999.828
999.874
999.124
998.707
998.671
998.706
998.764
998.834
998.879
998.894
998.901
998.904
998.897
998.882
998.844
998.779
998.722
998.687
998.723
999.136
999.877
999.909
999.345
999.022
998.995
999.022
999.067
999.121
999.155
999.167
999.171
999.173
999.168
999.158
999.128
999.079
999.035
999.007
999.036
999.356
999.913
999.935
999.514
999.268
999.247
999.268
999.302
999.344
999.369
999.378
999.38
999.381
999.379
999.371
999.349
999.312
999.278
999.257
999.28
999.525
999.939
999.954
999.643
999.457
999.441
999.457
999.483
999.514
999.533
999.539
999.542
999.541
999.54
999.534
999.518
999.491
999.466
999.45
999.468
999.653
999.957
999.967
999.74
999.601
999.589
999.601
999.621
999.644
999.658
999.662
999.664
999.663
999.662
999.658
999.647
999.627
999.608
999.596
999.611
999.75
999.97
999.977
999.812
999.709
999.7
999.709
999.724
999.741
999.751
999.755
999.756
999.755
999.755
999.751
999.744
999.73
999.716
999.707
999.718
999.821
999.98
999.983
999.865
999.79
999.783
999.79
999.801
999.814
999.821
999.824
999.824
999.824
999.823
999.821
999.816
999.806
999.796
999.789
999.798
999.874
999.986
999.988
999.904
999.85
999.845
999.849
999.858
999.867
999.873
999.874
999.875
999.874
999.874
999.872
999.869
999.862
999.855
999.85
999.857
999.912
999.991
999.992
999.932
999.893
999.89
999.893
999.899
999.906
999.91
999.911
999.911
999.911
999.911
999.91
999.907
999.902
999.898
999.895
999.9
999.939
999.994
999.994
999.952
999.925
999.922
999.925
999.929
999.934
999.937
999.938
999.938
999.938
999.937
999.937
999.935
999.932
999.929
999.927
999.931
999.959
999.996
999.995
999.966
999.947
999.945
999.947
999.951
999.954
999.956
999.957
999.957
999.957
999.957
999.956
999.955
999.953
999.951
999.95
999.953
999.972
999.997
999.997
999.976
999.963
999.962
999.963
999.966
999.968
999.97
999.97
999.971
999.971
999.97
999.97
999.969
999.968
999.966
999.966
999.969
999.982
999.998
999.997
999.983
999.974
999.974
999.975
999.977
999.978
999.979
999.98
999.98
999.98
999.98
999.98
999.979
999.978
999.977
999.977
999.979
999.988
999.999
999.998
999.988
999.982
999.982
999.983
999.984
999.985
999.986
999.986
999.987
999.987
999.987
999.986
999.986
999.985
999.985
999.985
999.987
999.993
999.999
999.998
999.992
999.988
999.988
999.988
999.989
999.99
999.991
999.991
999.991
999.991
999.991
999.991
999.991
999.99
999.99
999.99
999.992
999.996
1000
999.999
999.994
999.991
999.991
999.992
999.993
999.993
999.994
999.994
999.994
999.994
999.994
999.994
999.994
999.994
999.994
999.994
999.995
999.997
1000
999.999
999.996
999.994
999.994
999.995
999.995
999.996
999.996
999.996
999.996
999.996
999.996
999.996
999.996
999.996
999.996
999.996
999.997
999.999
1000
999.999
999.997
999.996
999.996
999.996
999.997
999.997
999.997
999.998
999.998
999.998
999.998
999.998
999.998
999.998
999.998
999.998
999.998
999.999
1000
999.999
999.998
999.997
999.997
999.998
999.998
999.998
999.998
999.998
999.999
999.999
999.999
999.999
999.999
999.999
999.999
999.999
999.999
1000
1000
999.999
999.998
999.998
999.998
999.999
999.999
999.999
999.999
999.999
999.999
999.999
999.999
999.999
999.999
999.999
999.999
999.999
1000
1000
1000
1000
1000
1000
1000
1000
1000
1000
1000
1000
1000
1000
1000
1000
1000
1000
1000
1000
1000
1000
1000
1000
1000
1000
1000
1000
1000
1000
1000
1000
1000
1000
1000
1000
1000
1000
1000
1000
1000
1000
1000
1000
1000
1000
1000
1000
1000
1000
1000
1000
1000
1000
1000
1000
1000
1000
1000
1000
1000
1000
1000
1000
1000
1000
1000
1000
1000
1000
1000
1000
1000
1000
1000
1000
1000
1000
1000
1000
1000
1000
1000
1000
1000
1000
1000
1000
1000
1000
1000
1000
1000
1000
1000
1000
1000
1000
1000
1000
1000
1000
1000
1000
1000
1000
1000
1000
1000
1000
1000
1000
1000
1000
1000
1000
1000
1000
1000
1000
1000
1000
1000
1000
1000
1000
1000
1000
1000
1000
1000
1000
1000
1000
1000
1000
1000
1000
1000
1000
1000
1000
1000
1000
1000
1000
1000
1000
1000
1000
1000
1000
1000
1000
1000
1000
1000
1000
1000
1000
1000
1000
1000
1000
1000
1000
1000
1000
1000
1000
1000
1000
1000
1000
1000
1000
1000
1000
1000
1000
1000
1000
1000
1000
1000
1000
1000
1000
1000
1000
1000
1000
1000
1000
1000
1000
1000
1000
1000
1000
1000
1000
1000
1000
1000
1000
1000
1000
1000
1000
1000
1000
1000
1000
1000
1000
1000
1000
1000
1000
1000
1000
1000
1000
1000
1000
1000
1000
1000
1000
1000
1000
1000
1000
1000
1000
1000
1000
1000
1000
1000
1000
1000