/*--------------------------------*- C++ -*----------------------------------*\
| =========                 |                                                 |
| \\      /  F ield         | OpenFOAM: The Open Source CFD Toolbox           |
|  \\    /   O peration     | Version:  2.1.0                                 |
|   \\  /    A nd           | Web:      www.OpenFOAM.org                      |
|    \\/     M anipulation  |                                                 |
\*---------------------------------------------------------------------------*/
FoamFile
{
    version     2.0;
    format      ascii;
    class       volVectorField;
    location    "0.13";
    object      U;
}
// * * * * * * * * * * * * * * * * * * * * * * * * * * * * * * * * * * * * * //

dimensions      [0 1 -1 0 0 0 0];

internalField   nonuniform List<vector> 
6400
(
(-1.15749 -0.000139979 0)
(-1.15634 -0.000372651 0)
(-1.15468 -0.000502895 0)
(-1.15247 -0.000602822 0)
(-1.14997 -0.000674883 0)
(-1.14717 -0.000729936 0)
(-1.14423 -0.000765822 0)
(-1.14113 -0.000792476 0)
(-1.13799 -0.000807871 0)
(-1.13475 -0.000821206 0)
(-1.1315 -0.000828982 0)
(-1.12819 -0.000838946 0)
(-1.12486 -0.000847285 0)
(-1.12148 -0.000858426 0)
(-1.11807 -0.000869604 0)
(-1.1146 -0.000883739 0)
(-1.11108 -0.000898694 0)
(-1.10749 -0.000916458 0)
(-1.10383 -0.00093537 0)
(-1.10008 -0.00095706 0)
(-1.09626 -0.000980079 0)
(-1.09233 -0.00100587 0)
(-1.0883 -0.00103319 0)
(-1.08415 -0.00106321 0)
(-1.07989 -0.00109481 0)
(-1.07549 -0.00112901 0)
(-1.07096 -0.00116511 0)
(-1.06628 -0.00120394 0)
(-1.06143 -0.00124557 0)
(-1.05642 -0.00129041 0)
(-1.05123 -0.00133733 0)
(-1.04585 -0.00138554 0)
(-1.04027 -0.0014348 0)
(-1.0345 -0.0014849 0)
(-1.02853 -0.00153582 0)
(-1.02236 -0.00158739 0)
(-1.01598 -0.00164015 0)
(-1.00939 -0.00169427 0)
(-1.00258 -0.00174968 0)
(-0.995556 -0.00180635 0)
(-0.988301 -0.00186477 0)
(-0.980812 -0.00192496 0)
(-0.973081 -0.00198678 0)
(-0.965103 -0.00205049 0)
(-0.956869 -0.00211615 0)
(-0.948372 -0.00218355 0)
(-0.939605 -0.00225293 0)
(-0.930562 -0.00232314 0)
(-0.92124 -0.00239488 0)
(-0.911626 -0.0024699 0)
(-0.901714 -0.00254602 0)
(-0.891504 -0.0026217 0)
(-0.880993 -0.00269731 0)
(-0.870182 -0.00277379 0)
(-0.859067 -0.00285151 0)
(-0.847642 -0.00293022 0)
(-0.835904 -0.00301003 0)
(-0.823848 -0.00309096 0)
(-0.811471 -0.00317286 0)
(-0.798769 -0.00325548 0)
(-0.785738 -0.00333926 0)
(-0.772373 -0.00342431 0)
(-0.758671 -0.00351046 0)
(-0.744625 -0.00359809 0)
(-0.73023 -0.00368735 0)
(-0.715477 -0.00377899 0)
(-0.700359 -0.00387299 0)
(-0.684864 -0.00396906 0)
(-0.668988 -0.0040669 0)
(-0.652722 -0.00416629 0)
(-0.636058 -0.00426817 0)
(-0.618987 -0.00437313 0)
(-0.601496 -0.00448138 0)
(-0.583569 -0.00459352 0)
(-0.565192 -0.00471024 0)
(-0.546342 -0.00483294 0)
(-0.526992 -0.0049641 0)
(-0.507102 -0.00510713 0)
(-0.486616 -0.00526675 0)
(-0.465455 -0.0054492 0)
(-0.443516 -0.00566219 0)
(-0.420658 -0.00591501 0)
(-0.396707 -0.00621763 0)
(-0.37145 -0.00657858 0)
(-0.34464 -0.00700621 0)
(-0.316003 -0.00750666 0)
(-0.285253 -0.00808085 0)
(-0.252128 -0.00871468 0)
(-0.216479 -0.00936532 0)
(-0.178425 -0.00994057 0)
(-0.138629 -0.0102548 0)
(-0.0988699 -0.00992753 0)
(-0.0627818 -0.0083929 0)
(-0.0356546 -0.00537612 0)
(-0.021943 -0.0015822 0)
(-0.0248826 0.00307185 0)
(-0.0529175 0.0111378 0)
(-0.130355 0.0280599 0)
(-0.319821 0.0671251 0)
(-0.899356 0.186743 0)
(-1.47294 -0.000619219 0)
(-1.46946 -0.00162457 0)
(-1.46597 -0.00213071 0)
(-1.46111 -0.00245118 0)
(-1.45611 -0.00264595 0)
(-1.45075 -0.00277387 0)
(-1.44556 -0.00284461 0)
(-1.44019 -0.00289047 0)
(-1.43502 -0.00291011 0)
(-1.42975 -0.00292656 0)
(-1.42465 -0.00293176 0)
(-1.41947 -0.0029423 0)
(-1.41443 -0.00294937 0)
(-1.40934 -0.00296378 0)
(-1.40434 -0.0029786 0)
(-1.39931 -0.00300156 0)
(-1.39435 -0.00302696 0)
(-1.38936 -0.00306023 0)
(-1.38441 -0.003097 0)
(-1.37942 -0.00314167 0)
(-1.37445 -0.00319048 0)
(-1.36944 -0.00324714 0)
(-1.36442 -0.00330854 0)
(-1.35936 -0.00337758 0)
(-1.35426 -0.00345131 0)
(-1.3491 -0.00353238 0)
(-1.34389 -0.00361874 0)
(-1.33861 -0.00371233 0)
(-1.33327 -0.00381237 0)
(-1.32785 -0.00391971 0)
(-1.32236 -0.00403242 0)
(-1.31678 -0.00414987 0)
(-1.3111 -0.00427142 0)
(-1.30533 -0.00439638 0)
(-1.29945 -0.00452448 0)
(-1.29346 -0.00465554 0)
(-1.28734 -0.00479059 0)
(-1.2811 -0.00492976 0)
(-1.27473 -0.00507271 0)
(-1.26822 -0.00521938 0)
(-1.26157 -0.005371 0)
(-1.25477 -0.00552755 0)
(-1.24782 -0.0056886 0)
(-1.24071 -0.00585499 0)
(-1.23344 -0.00602688 0)
(-1.22599 -0.00620376 0)
(-1.21836 -0.00638626 0)
(-1.21055 -0.00657229 0)
(-1.20255 -0.00676091 0)
(-1.19437 -0.00695271 0)
(-1.18602 -0.00714511 0)
(-1.1775 -0.00733681 0)
(-1.16881 -0.0075284 0)
(-1.15995 -0.00772184 0)
(-1.15093 -0.0079176 0)
(-1.14173 -0.008115 0)
(-1.13237 -0.0083144 0)
(-1.12284 -0.00851578 0)
(-1.11315 -0.00871879 0)
(-1.10329 -0.00892303 0)
(-1.09327 -0.00912894 0)
(-1.0831 -0.00933629 0)
(-1.07276 -0.00954479 0)
(-1.06228 -0.00975512 0)
(-1.05165 -0.00996774 0)
(-1.04088 -0.0101841 0)
(-1.02997 -0.0104043 0)
(-1.01892 -0.0106279 0)
(-1.00774 -0.0108543 0)
(-0.996431 -0.0110828 0)
(-0.984992 -0.0113166 0)
(-0.973423 -0.0115577 0)
(-0.961716 -0.0118071 0)
(-0.949863 -0.0120668 0)
(-0.937853 -0.0123391 0)
(-0.925667 -0.0126282 0)
(-0.913285 -0.0129407 0)
(-0.900673 -0.0132857 0)
(-0.887793 -0.0136752 0)
(-0.874589 -0.0141251 0)
(-0.860994 -0.014654 0)
(-0.846926 -0.0152847 0)
(-0.832281 -0.0160423 0)
(-0.816937 -0.0169488 0)
(-0.800751 -0.0180244 0)
(-0.783573 -0.0192823 0)
(-0.765252 -0.0207224 0)
(-0.745664 -0.022306 0)
(-0.72476 -0.0239211 0)
(-0.702641 -0.0253363 0)
(-0.679666 -0.0261053 0)
(-0.65654 -0.0253859 0)
(-0.634467 -0.0219145 0)
(-0.616048 -0.0145929 0)
(-0.608089 -0.00337464 0)
(-0.618869 0.0117507 0)
(-0.6608 0.0373673 0)
(-0.754402 0.0866291 0)
(-0.940577 0.191547 0)
(-1.3942 0.493992 0)
(-1.63809 -0.00141303 0)
(-1.63355 -0.00338308 0)
(-1.63051 -0.00437103 0)
(-1.62562 -0.00492734 0)
(-1.62081 -0.00522464 0)
(-1.61548 -0.00538638 0)
(-1.61048 -0.00545515 0)
(-1.60517 -0.0054817 0)
(-1.60021 -0.00547461 0)
(-1.59508 -0.00546173 0)
(-1.59023 -0.00543887 0)
(-1.58527 -0.00542243 0)
(-1.58054 -0.00540399 0)
(-1.57573 -0.00539572 0)
(-1.5711 -0.00538994 0)
(-1.56641 -0.00539607 0)
(-1.56186 -0.00540716 0)
(-1.55727 -0.00542994 0)
(-1.55278 -0.00545916 0)
(-1.54826 -0.00550028 0)
(-1.5438 -0.00554877 0)
(-1.53932 -0.00560892 0)
(-1.53487 -0.00567728 0)
(-1.5304 -0.00575694 0)
(-1.52594 -0.0058442 0)
(-1.52145 -0.00594225 0)
(-1.51696 -0.00604812 0)
(-1.51244 -0.00616384 0)
(-1.5079 -0.00628715 0)
(-1.50335 -0.00641894 0)
(-1.49876 -0.00655755 0)
(-1.49415 -0.00670435 0)
(-1.48951 -0.00685862 0)
(-1.48483 -0.00701908 0)
(-1.48012 -0.00718487 0)
(-1.47535 -0.00735616 0)
(-1.47055 -0.0075336 0)
(-1.46569 -0.00771702 0)
(-1.46079 -0.00790579 0)
(-1.45583 -0.00809949 0)
(-1.45083 -0.00829968 0)
(-1.44577 -0.00850606 0)
(-1.44067 -0.00871782 0)
(-1.43552 -0.00893622 0)
(-1.43032 -0.00916121 0)
(-1.42508 -0.00939198 0)
(-1.4198 -0.0096288 0)
(-1.41448 -0.00987015 0)
(-1.40914 -0.0101134 0)
(-1.40377 -0.0103556 0)
(-1.39837 -0.0105957 0)
(-1.39296 -0.0108345 0)
(-1.38752 -0.0110727 0)
(-1.38207 -0.011312 0)
(-1.37661 -0.0115518 0)
(-1.37114 -0.011791 0)
(-1.36568 -0.01203 0)
(-1.36023 -0.0122683 0)
(-1.35481 -0.0125052 0)
(-1.34942 -0.0127404 0)
(-1.34408 -0.0129733 0)
(-1.3388 -0.0132026 0)
(-1.3336 -0.0134278 0)
(-1.3285 -0.0136488 0)
(-1.32351 -0.0138662 0)
(-1.31866 -0.0140809 0)
(-1.31397 -0.0142925 0)
(-1.30946 -0.0145007 0)
(-1.30516 -0.0147045 0)
(-1.3011 -0.0149016 0)
(-1.2973 -0.0150975 0)
(-1.2938 -0.015296 0)
(-1.2906 -0.0154981 0)
(-1.28775 -0.0157077 0)
(-1.28525 -0.0159283 0)
(-1.28312 -0.0161664 0)
(-1.28139 -0.0164321 0)
(-1.28004 -0.0167391 0)
(-1.27907 -0.0171051 0)
(-1.27847 -0.0175523 0)
(-1.27819 -0.018107 0)
(-1.2782 -0.0187993 0)
(-1.27843 -0.0196637 0)
(-1.2788 -0.0207332 0)
(-1.2792 -0.0220353 0)
(-1.27953 -0.0235836 0)
(-1.27967 -0.0253753 0)
(-1.27955 -0.0273543 0)
(-1.2791 -0.0293636 0)
(-1.27839 -0.0310951 0)
(-1.27758 -0.0319897 0)
(-1.27697 -0.0310885 0)
(-1.27702 -0.0269359 0)
(-1.27877 -0.0176743 0)
(-1.2855 -0.00165609 0)
(-1.29967 0.0226003 0)
(-1.33311 0.0633307 0)
(-1.40005 0.138471 0)
(-1.53019 0.289961 0)
(-1.77895 0.673654 0)
(-1.78177 -0.0022868 0)
(-1.77719 -0.00497182 0)
(-1.77515 -0.00636878 0)
(-1.77119 -0.00712835 0)
(-1.76748 -0.00751788 0)
(-1.76317 -0.00770646 0)
(-1.75928 -0.00777109 0)
(-1.75503 -0.00777243 0)
(-1.75118 -0.00773172 0)
(-1.74711 -0.00767726 0)
(-1.7434 -0.0076137 0)
(-1.73954 -0.0075566 0)
(-1.73598 -0.0075009 0)
(-1.73231 -0.00745682 0)
(-1.72889 -0.0074187 0)
(-1.7254 -0.00739461 0)
(-1.7221 -0.00737883 0)
(-1.71876 -0.00737678 0)
(-1.71558 -0.00738418 0)
(-1.71237 -0.00740596 0)
(-1.70929 -0.00743784 0)
(-1.7062 -0.00748349 0)
(-1.7032 -0.0075403 0)
(-1.70021 -0.0076104 0)
(-1.69729 -0.00769013 0)
(-1.69438 -0.00778229 0)
(-1.69153 -0.0078836 0)
(-1.68871 -0.00799548 0)
(-1.68592 -0.00811552 0)
(-1.68317 -0.00824453 0)
(-1.68046 -0.0083803 0)
(-1.67778 -0.00852491 0)
(-1.67514 -0.00867811 0)
(-1.67255 -0.00883796 0)
(-1.66999 -0.0090032 0)
(-1.66749 -0.00917424 0)
(-1.66503 -0.00935104 0)
(-1.66262 -0.00953303 0)
(-1.66027 -0.00971978 0)
(-1.65799 -0.00991079 0)
(-1.65577 -0.0101067 0)
(-1.65361 -0.0103066 0)
(-1.65154 -0.0105097 0)
(-1.64956 -0.0107171 0)
(-1.64768 -0.0109278 0)
(-1.6459 -0.0111407 0)
(-1.64425 -0.0113554 0)
(-1.64272 -0.0115703 0)
(-1.64134 -0.0117853 0)
(-1.6401 -0.0119993 0)
(-1.63901 -0.0122106 0)
(-1.63805 -0.0124174 0)
(-1.63724 -0.012621 0)
(-1.63659 -0.012823 0)
(-1.63611 -0.0130208 0)
(-1.63581 -0.013213 0)
(-1.6357 -0.0133994 0)
(-1.6358 -0.0135788 0)
(-1.63613 -0.01375 0)
(-1.63669 -0.0139121 0)
(-1.63751 -0.0140641 0)
(-1.63861 -0.0142042 0)
(-1.64 -0.0143308 0)
(-1.64171 -0.014443 0)
(-1.64375 -0.0145415 0)
(-1.64615 -0.0146272 0)
(-1.64892 -0.0146991 0)
(-1.65208 -0.0147568 0)
(-1.65565 -0.0148004 0)
(-1.65964 -0.0148242 0)
(-1.66407 -0.0148367 0)
(-1.66895 -0.014846 0)
(-1.67428 -0.014853 0)
(-1.68005 -0.0148645 0)
(-1.68626 -0.0148864 0)
(-1.69287 -0.0149283 0)
(-1.69986 -0.015004 0)
(-1.70719 -0.0151318 0)
(-1.71482 -0.0153345 0)
(-1.7227 -0.0156401 0)
(-1.73075 -0.016081 0)
(-1.7389 -0.016693 0)
(-1.74707 -0.0175152 0)
(-1.75518 -0.0185867 0)
(-1.76315 -0.0199378 0)
(-1.77091 -0.021578 0)
(-1.77842 -0.0234938 0)
(-1.78565 -0.025614 0)
(-1.79264 -0.0277599 0)
(-1.79941 -0.0295896 0)
(-1.80603 -0.0305028 0)
(-1.81254 -0.0295307 0)
(-1.8189 -0.0251863 0)
(-1.82522 -0.0153997 0)
(-1.83341 0.00181973 0)
(-1.84126 0.0306041 0)
(-1.85923 0.0799406 0)
(-1.89408 0.170267 0)
(-1.95478 0.34763 0)
(-2.04295 0.725946 0)
(-1.92579 -0.00298973 0)
(-1.92194 -0.00609147 0)
(-1.92134 -0.00774725 0)
(-1.91901 -0.00864049 0)
(-1.9171 -0.0090914 0)
(-1.91462 -0.00929451 0)
(-1.91261 -0.00935088 0)
(-1.91022 -0.00932757 0)
(-1.90824 -0.00925483 0)
(-1.906 -0.00916114 0)
(-1.90413 -0.00905651 0)
(-1.90207 -0.00895614 0)
(-1.90033 -0.00885837 0)
(-1.89847 -0.0087713 0)
(-1.89688 -0.00869176 0)
(-1.89522 -0.0086261 0)
(-1.8938 -0.0085703 0)
(-1.89235 -0.00852807 0)
(-1.8911 -0.00849614 0)
(-1.88986 -0.0084793 0)
(-1.8888 -0.00847299 0)
(-1.88777 -0.00848057 0)
(-1.88691 -0.00850056 0)
(-1.8861 -0.00853419 0)
(-1.88543 -0.00857798 0)
(-1.88484 -0.00863376 0)
(-1.88438 -0.00869899 0)
(-1.88401 -0.00877312 0)
(-1.88378 -0.00885495 0)
(-1.88364 -0.00894544 0)
(-1.88364 -0.00904207 0)
(-1.88376 -0.00914588 0)
(-1.884 -0.00925654 0)
(-1.88438 -0.00937211 0)
(-1.88489 -0.00949136 0)
(-1.88555 -0.0096148 0)
(-1.88635 -0.00974192 0)
(-1.8873 -0.00987162 0)
(-1.8884 -0.0100036 0)
(-1.88968 -0.0101381 0)
(-1.89111 -0.0102747 0)
(-1.89271 -0.0104117 0)
(-1.8945 -0.0105489 0)
(-1.89646 -0.0106868 0)
(-1.89861 -0.0108238 0)
(-1.90095 -0.0109591 0)
(-1.9035 -0.0110919 0)
(-1.90624 -0.011221 0)
(-1.90918 -0.0113477 0)
(-1.91234 -0.0114728 0)
(-1.91571 -0.0115951 0)
(-1.91931 -0.0117085 0)
(-1.92313 -0.0118154 0)
(-1.92718 -0.0119192 0)
(-1.93145 -0.012015 0)
(-1.93596 -0.0121016 0)
(-1.94071 -0.0121787 0)
(-1.94569 -0.0122448 0)
(-1.9509 -0.0122991 0)
(-1.95635 -0.0123405 0)
(-1.96202 -0.0123679 0)
(-1.96793 -0.01238 0)
(-1.97405 -0.0123745 0)
(-1.9804 -0.0123499 0)
(-1.98697 -0.0123076 0)
(-1.99375 -0.0122501 0)
(-2.00073 -0.012176 0)
(-2.00792 -0.0120848 0)
(-2.01529 -0.0119778 0)
(-2.02284 -0.0118475 0)
(-2.03062 -0.0116978 0)
(-2.03859 -0.011538 0)
(-2.0468 -0.0113763 0)
(-2.05522 -0.0112258 0)
(-2.06386 -0.0110939 0)
(-2.07268 -0.0109926 0)
(-2.08168 -0.0109379 0)
(-2.09083 -0.010951 0)
(-2.10011 -0.0110582 0)
(-2.10949 -0.0112905 0)
(-2.11895 -0.0116837 0)
(-2.12844 -0.0122758 0)
(-2.13794 -0.0131067 0)
(-2.1474 -0.0142162 0)
(-2.15681 -0.0156317 0)
(-2.16611 -0.0173601 0)
(-2.17533 -0.0193782 0)
(-2.18437 -0.0216014 0)
(-2.19325 -0.0238435 0)
(-2.20195 -0.025762 0)
(-2.21043 -0.0267738 0)
(-2.21843 -0.0259711 0)
(-2.22547 -0.0219753 0)
(-2.23113 -0.0128131 0)
(-2.2362 0.00385455 0)
(-2.23684 0.0335462 0)
(-2.23867 0.0858098 0)
(-2.24119 0.181007 0)
(-2.23512 0.361552 0)
(-2.21138 0.690508 0)
(-2.07126 -0.00335302 0)
(-2.06861 -0.00651937 0)
(-2.06976 -0.00823888 0)
(-2.06955 -0.00916262 0)
(-2.0699 -0.0096216 0)
(-2.06982 -0.0098144 0)
(-2.07023 -0.00985155 0)
(-2.07029 -0.00980187 0)
(-2.07076 -0.00969984 0)
(-2.07098 -0.00957282 0)
(-2.07155 -0.00943253 0)
(-2.07194 -0.00929258 0)
(-2.07263 -0.00915353 0)
(-2.07321 -0.00902197 0)
(-2.07405 -0.00889649 0)
(-2.07484 -0.00878244 0)
(-2.07586 -0.00867748 0)
(-2.07687 -0.00858334 0)
(-2.0781 -0.00849782 0)
(-2.07936 -0.00842586 0)
(-2.08082 -0.00836244 0)
(-2.08234 -0.00831045 0)
(-2.08406 -0.00826949 0)
(-2.08587 -0.00824169 0)
(-2.08786 -0.00822358 0)
(-2.08997 -0.00821507 0)
(-2.09225 -0.0082156 0)
(-2.09466 -0.00822272 0)
(-2.09725 -0.00823603 0)
(-2.09997 -0.00825642 0)
(-2.10287 -0.00828223 0)
(-2.10593 -0.00831424 0)
(-2.10915 -0.00835113 0)
(-2.11254 -0.00839134 0)
(-2.11609 -0.00843453 0)
(-2.1198 -0.00848104 0)
(-2.12368 -0.0085305 0)
(-2.12772 -0.0085819 0)
(-2.13191 -0.00863427 0)
(-2.13627 -0.00868876 0)
(-2.14077 -0.00874509 0)
(-2.14543 -0.00880149 0)
(-2.15023 -0.00885817 0)
(-2.15517 -0.00891543 0)
(-2.16024 -0.00897161 0)
(-2.16545 -0.00902621 0)
(-2.17078 -0.00907893 0)
(-2.17622 -0.00912879 0)
(-2.18178 -0.00917654 0)
(-2.18744 -0.00922203 0)
(-2.19321 -0.00926528 0)
(-2.19906 -0.00929928 0)
(-2.20503 -0.00932388 0)
(-2.2111 -0.00934251 0)
(-2.21728 -0.00935255 0)
(-2.22357 -0.0093543 0)
(-2.22996 -0.00934736 0)
(-2.23645 -0.00933079 0)
(-2.24305 -0.00930381 0)
(-2.24973 -0.00926544 0)
(-2.2565 -0.00921434 0)
(-2.26336 -0.00914947 0)
(-2.2703 -0.00906825 0)
(-2.27732 -0.00896734 0)
(-2.28444 -0.0088487 0)
(-2.29165 -0.00871778 0)
(-2.29894 -0.00857162 0)
(-2.30633 -0.00840886 0)
(-2.31381 -0.00822819 0)
(-2.32138 -0.00802699 0)
(-2.32911 -0.00780495 0)
(-2.33689 -0.00756374 0)
(-2.34478 -0.00731794 0)
(-2.35277 -0.00708966 0)
(-2.36087 -0.00688419 0)
(-2.36906 -0.00671351 0)
(-2.37735 -0.00659483 0)
(-2.38573 -0.00655037 0)
(-2.39421 -0.00660785 0)
(-2.40276 -0.00679981 0)
(-2.41139 -0.00716357 0)
(-2.42007 -0.00773721 0)
(-2.4288 -0.00855934 0)
(-2.43758 -0.00967179 0)
(-2.44639 -0.0111001 0)
(-2.45521 -0.0128502 0)
(-2.46406 -0.0149033 0)
(-2.47287 -0.0171706 0)
(-2.48164 -0.0194653 0)
(-2.49028 -0.0214675 0)
(-2.49862 -0.0226562 0)
(-2.50626 -0.0222297 0)
(-2.51239 -0.0190331 0)
(-2.51615 -0.0113057 0)
(-2.51753 0.00360857 0)
(-2.5107 0.0314907 0)
(-2.49742 0.0812339 0)
(-2.47035 0.171896 0)
(-2.4086 0.336805 0)
(-2.31112 0.600224 0)
(-2.2119 -0.00328109 0)
(-2.21071 -0.00613341 0)
(-2.21368 -0.00769954 0)
(-2.21575 -0.00853361 0)
(-2.21853 -0.00893473 0)
(-2.22102 -0.00908449 0)
(-2.224 -0.0090873 0)
(-2.22669 -0.00900698 0)
(-2.22977 -0.00887674 0)
(-2.23261 -0.00872071 0)
(-2.23576 -0.00855085 0)
(-2.23872 -0.00837842 0)
(-2.24195 -0.0082057 0)
(-2.24505 -0.00803653 0)
(-2.24837 -0.007872 0)
(-2.25162 -0.00771533 0)
(-2.25506 -0.00756663 0)
(-2.25848 -0.00742559 0)
(-2.26206 -0.00729203 0)
(-2.26564 -0.00716941 0)
(-2.26936 -0.00705385 0)
(-2.27312 -0.00694648 0)
(-2.27701 -0.00684667 0)
(-2.28097 -0.00675734 0)
(-2.28506 -0.00667679 0)
(-2.28924 -0.00660424 0)
(-2.29353 -0.00653979 0)
(-2.29793 -0.00648134 0)
(-2.30245 -0.00642854 0)
(-2.30706 -0.0063814 0)
(-2.31179 -0.00633945 0)
(-2.31663 -0.00630429 0)
(-2.32158 -0.00627418 0)
(-2.32662 -0.00624753 0)
(-2.33177 -0.0062252 0)
(-2.33702 -0.00620749 0)
(-2.34235 -0.00619403 0)
(-2.34777 -0.00618444 0)
(-2.35328 -0.00617787 0)
(-2.35886 -0.00617537 0)
(-2.36451 -0.006177 0)
(-2.37022 -0.00618142 0)
(-2.37599 -0.00618906 0)
(-2.38182 -0.00619972 0)
(-2.38769 -0.00621197 0)
(-2.39361 -0.00622558 0)
(-2.39955 -0.00624011 0)
(-2.40553 -0.00625452 0)
(-2.41154 -0.00626906 0)
(-2.41757 -0.00628303 0)
(-2.42362 -0.00629508 0)
(-2.42968 -0.00630167 0)
(-2.43579 -0.006301 0)
(-2.44188 -0.00629219 0)
(-2.44797 -0.00627521 0)
(-2.45405 -0.00625128 0)
(-2.46013 -0.00621987 0)
(-2.46621 -0.00617993 0)
(-2.47228 -0.00613041 0)
(-2.47836 -0.00606989 0)
(-2.48443 -0.00599678 0)
(-2.49051 -0.0059097 0)
(-2.4966 -0.00580608 0)
(-2.5027 -0.00567991 0)
(-2.50882 -0.00553101 0)
(-2.51497 -0.00537223 0)
(-2.52114 -0.00519665 0)
(-2.52735 -0.00500185 0)
(-2.53359 -0.00478383 0)
(-2.53988 -0.00454584 0)
(-2.54622 -0.00429263 0)
(-2.55258 -0.00401864 0)
(-2.55899 -0.00373054 0)
(-2.56546 -0.00346577 0)
(-2.57197 -0.00322094 0)
(-2.57855 -0.00300778 0)
(-2.58521 -0.00284424 0)
(-2.59196 -0.00275323 0)
(-2.59881 -0.00276288 0)
(-2.60577 -0.00290669 0)
(-2.61285 -0.00322261 0)
(-2.62006 -0.00374959 0)
(-2.62742 -0.00452054 0)
(-2.63494 -0.00558311 0)
(-2.64262 -0.00696557 0)
(-2.65046 -0.00866633 0)
(-2.65848 -0.0106776 0)
(-2.66664 -0.0129173 0)
(-2.67489 -0.0152157 0)
(-2.68308 -0.017295 0)
(-2.69092 -0.018717 0)
(-2.69788 -0.0188197 0)
(-2.70301 -0.0166977 0)
(-2.70484 -0.0109514 0)
(-2.70305 0.00105907 0)
(-2.68961 0.0247989 0)
(-2.66325 0.0674685 0)
(-2.61123 0.145439 0)
(-2.50702 0.281892 0)
(-2.36367 0.47764 0)
(-2.3348 -0.00274701 0)
(-2.33508 -0.00495024 0)
(-2.33957 -0.00616754 0)
(-2.34366 -0.00680094 0)
(-2.34844 -0.00708562 0)
(-2.35315 -0.00716661 0)
(-2.35824 -0.00712827 0)
(-2.36315 -0.00702192 0)
(-2.3683 -0.00687497 0)
(-2.37327 -0.00670533 0)
(-2.37841 -0.006524 0)
(-2.38339 -0.00633892 0)
(-2.3885 -0.00615402 0)
(-2.3935 -0.00597004 0)
(-2.39859 -0.00579002 0)
(-2.4036 -0.00561511 0)
(-2.40868 -0.00544643 0)
(-2.41371 -0.00528354 0)
(-2.41882 -0.00512805 0)
(-2.42389 -0.00498077 0)
(-2.429 -0.00484019 0)
(-2.43411 -0.00470674 0)
(-2.43927 -0.00457999 0)
(-2.44443 -0.00446094 0)
(-2.44959 -0.00435007 0)
(-2.45478 -0.00424812 0)
(-2.45997 -0.00415353 0)
(-2.46518 -0.0040655 0)
(-2.4704 -0.00398389 0)
(-2.47562 -0.00390804 0)
(-2.48084 -0.00383827 0)
(-2.48608 -0.00377617 0)
(-2.4913 -0.00372028 0)
(-2.49653 -0.0036692 0)
(-2.50175 -0.00362401 0)
(-2.50697 -0.0035852 0)
(-2.51217 -0.00355211 0)
(-2.51736 -0.00352468 0)
(-2.52254 -0.00350296 0)
(-2.5277 -0.00348728 0)
(-2.53284 -0.00347745 0)
(-2.53796 -0.00347266 0)
(-2.54305 -0.00347305 0)
(-2.54812 -0.00347801 0)
(-2.55316 -0.00348635 0)
(-2.55817 -0.00349777 0)
(-2.56315 -0.00351129 0)
(-2.56811 -0.00352602 0)
(-2.57303 -0.00354162 0)
(-2.57793 -0.00355674 0)
(-2.5828 -0.00356857 0)
(-2.58763 -0.00357789 0)
(-2.59246 -0.00358556 0)
(-2.59723 -0.00358709 0)
(-2.60197 -0.00358034 0)
(-2.60666 -0.00356543 0)
(-2.61133 -0.00354168 0)
(-2.61598 -0.00350788 0)
(-2.6206 -0.00346276 0)
(-2.62521 -0.00340461 0)
(-2.62982 -0.00333184 0)
(-2.63442 -0.00324271 0)
(-2.63902 -0.00313522 0)
(-2.64364 -0.00300217 0)
(-2.64829 -0.00283289 0)
(-2.65298 -0.00266011 0)
(-2.65771 -0.00246718 0)
(-2.66248 -0.00225026 0)
(-2.6673 -0.00200689 0)
(-2.6722 -0.00174136 0)
(-2.67716 -0.001461 0)
(-2.68221 -0.00115774 0)
(-2.68735 -0.000814374 0)
(-2.69264 -0.000515596 0)
(-2.69803 -0.000228773 0)
(-2.70353 3.37808e-05 0)
(-2.70917 0.000253154 0)
(-2.71495 0.00040628 0)
(-2.72089 0.000465334 0)
(-2.72701 0.000397139 0)
(-2.73333 0.000164552 0)
(-2.73986 -0.000271558 0)
(-2.74664 -0.000944783 0)
(-2.75372 -0.00189779 0)
(-2.76097 -0.00316852 0)
(-2.76856 -0.0047537 0)
(-2.77641 -0.00666023 0)
(-2.78447 -0.00882074 0)
(-2.79264 -0.011093 0)
(-2.80073 -0.0132584 0)
(-2.80838 -0.0149709 0)
(-2.81495 -0.0157395 0)
(-2.81939 -0.0148828 0)
(-2.81986 -0.0114929 0)
(-2.81523 -0.0032856 0)
(-2.7976 0.0141432 0)
(-2.76044 0.0461879 0)
(-2.68932 0.105011 0)
(-2.55538 0.205254 0)
(-2.38563 0.33742 0)
(-2.43106 -0.00175101 0)
(-2.43291 -0.00308451 0)
(-2.4385 -0.00381755 0)
(-2.44418 -0.00417833 0)
(-2.45039 -0.00431733 0)
(-2.45674 -0.00432662 0)
(-2.46324 -0.0042603 0)
(-2.46969 -0.00415056 0)
(-2.47612 -0.00401624 0)
(-2.48247 -0.00386699 0)
(-2.48874 -0.00371045 0)
(-2.49489 -0.00355077 0)
(-2.50096 -0.00339204 0)
(-2.50692 -0.00323511 0)
(-2.51279 -0.00308135 0)
(-2.51853 -0.00293108 0)
(-2.52419 -0.00278496 0)
(-2.52974 -0.00264416 0)
(-2.53521 -0.00251054 0)
(-2.54055 -0.00238268 0)
(-2.54581 -0.00226101 0)
(-2.55098 -0.00214731 0)
(-2.55605 -0.00204243 0)
(-2.56102 -0.0019454 0)
(-2.56588 -0.00185714 0)
(-2.57064 -0.00177849 0)
(-2.57529 -0.00170635 0)
(-2.57984 -0.00164051 0)
(-2.5843 -0.00158142 0)
(-2.58866 -0.00152791 0)
(-2.59292 -0.00148042 0)
(-2.59709 -0.00143991 0)
(-2.60118 -0.00140518 0)
(-2.60518 -0.00137516 0)
(-2.60911 -0.00135054 0)
(-2.61296 -0.00133187 0)
(-2.61674 -0.00131843 0)
(-2.62046 -0.00131007 0)
(-2.62411 -0.00130739 0)
(-2.62771 -0.00131015 0)
(-2.63125 -0.00131803 0)
(-2.63475 -0.00133074 0)
(-2.6382 -0.00134775 0)
(-2.64162 -0.0013684 0)
(-2.64499 -0.00139176 0)
(-2.64835 -0.00141722 0)
(-2.65167 -0.0014435 0)
(-2.65498 -0.00146998 0)
(-2.65826 -0.00149583 0)
(-2.66155 -0.00151946 0)
(-2.66482 -0.00153873 0)
(-2.66809 -0.00155498 0)
(-2.67137 -0.00156904 0)
(-2.67466 -0.00157666 0)
(-2.67797 -0.00157421 0)
(-2.6813 -0.00156082 0)
(-2.68466 -0.00153591 0)
(-2.68806 -0.00149815 0)
(-2.6915 -0.00144614 0)
(-2.69499 -0.00137806 0)
(-2.69853 -0.00129236 0)
(-2.70212 -0.00118738 0)
(-2.70579 -0.00106136 0)
(-2.70951 -0.00091501 0)
(-2.71331 -0.000697029 0)
(-2.71722 -0.000498912 0)
(-2.72122 -0.000274106 0)
(-2.7253 -1.94111e-05 0)
(-2.72949 0.000264817 0)
(-2.73379 0.000574949 0)
(-2.73821 0.000905122 0)
(-2.74277 0.00126726 0)
(-2.74743 0.00167542 0)
(-2.75226 0.00204345 0)
(-2.75727 0.00240448 0)
(-2.76247 0.00274702 0)
(-2.76787 0.00305249 0)
(-2.77348 0.00329811 0)
(-2.77931 0.00345658 0)
(-2.78538 0.00349564 0)
(-2.7917 0.00337926 0)
(-2.79829 0.00306908 0)
(-2.80515 0.00252163 0)
(-2.81235 0.00170745 0)
(-2.81973 0.000589445 0)
(-2.82752 -0.000849355 0)
(-2.83561 -0.00261895 0)
(-2.84385 -0.00467171 0)
(-2.85231 -0.00691372 0)
(-2.86065 -0.00919029 0)
(-2.86849 -0.0112512 0)
(-2.87512 -0.0127895 0)
(-2.87939 -0.0133765 0)
(-2.87948 -0.0125093 0)
(-2.87274 -0.0086807 0)
(-2.85318 0.000795005 0)
(-2.81022 0.0195265 0)
(-2.72652 0.0546693 0)
(-2.57458 0.114269 0)
(-2.39175 0.188603 0)
(-2.48783 -0.000375162 0)
(-2.49072 -0.000736059 0)
(-2.49683 -0.000918985 0)
(-2.5033 -0.000986999 0)
(-2.51015 -0.000987322 0)
(-2.51721 -0.000948567 0)
(-2.52423 -0.000887491 0)
(-2.5312 -0.000813909 0)
(-2.53799 -0.000734845 0)
(-2.54466 -0.000652955 0)
(-2.5511 -0.000569519 0)
(-2.55736 -0.000485044 0)
(-2.56341 -0.000402281 0)
(-2.56926 -0.000323795 0)
(-2.5749 -0.000247856 0)
(-2.58033 -0.000173206 0)
(-2.58557 -0.000101158 0)
(-2.59061 -3.4046e-05 0)
(-2.59545 2.71557e-05 0)
(-2.60011 8.51424e-05 0)
(-2.60459 0.000138865 0)
(-2.60889 0.000185435 2.17978e-42)
(-2.61303 0.000224369 0)
(-2.617 0.000257139 0)
(-2.62083 0.000282189 0)
(-2.62452 0.000299579 0)
(-2.62806 0.000313668 0)
(-2.63149 0.000324818 0)
(-2.63479 0.000331546 0)
(-2.63799 0.000335186 0)
(-2.64109 0.000335935 0)
(-2.6441 0.000332777 0)
(-2.64703 0.000326764 0)
(-2.64988 0.000319146 0)
(-2.65267 0.000308999 0)
(-2.6554 0.000295811 0)
(-2.65807 0.000280472 0)
(-2.66071 0.000262977 0)
(-2.6633 0.000242483 0)
(-2.66587 0.000219395 0)
(-2.66841 0.000194073 0)
(-2.67094 0.000166352 0)
(-2.67345 0.000137098 0)
(-2.67596 0.000106934 0)
(-2.67847 7.64706e-05 0)
(-2.68099 4.64928e-05 0)
(-2.68352 1.81408e-05 0)
(-2.68607 -7.97027e-06 0)
(-2.68864 -3.09993e-05 0)
(-2.69123 -4.93792e-05 0)
(-2.69385 -6.19737e-05 0)
(-2.69651 -6.93239e-05 0)
(-2.69921 -7.05609e-05 0)
(-2.70195 -6.25862e-05 0)
(-2.70474 -4.1824e-05 0)
(-2.70758 -7.56137e-06 0)
(-2.71048 4.05113e-05 0)
(-2.71345 0.000103786 0)
(-2.71648 0.000183792 0)
(-2.71958 0.000282501 0)
(-2.72275 0.000401451 0)
(-2.72601 0.000542477 0)
(-2.72935 0.00070535 0)
(-2.7328 0.000893376 0)
(-2.73631 0.00115704 0)
(-2.73992 0.00140363 0)
(-2.74365 0.00168011 0)
(-2.7475 0.0019899 0)
(-2.75147 0.00233224 0)
(-2.75558 0.00270451 0)
(-2.75983 0.00310473 0)
(-2.76424 0.00354403 0)
(-2.7688 0.00401339 0)
(-2.77353 0.00447479 0)
(-2.77845 0.00493215 0)
(-2.78357 0.00537545 0)
(-2.78891 0.00578761 0)
(-2.79448 0.00614668 0)
(-2.8003 0.00642606 0)
(-2.80638 0.00659423 0)
(-2.81274 0.00661577 0)
(-2.81941 0.00645166 0)
(-2.82641 0.0060565 7.11938e-41)
(-2.83375 0.00540081 0)
(-2.84144 0.00444999 0)
(-2.8495 0.00316504 0)
(-2.85788 0.00154192 0)
(-2.86639 -0.000403855 -4.74729e-42)
(-2.87514 -0.00262501 0)
(-2.88357 -0.00502107 0)
(-2.89159 -0.00746339 0)
(-2.89837 -0.00982311 0)
(-2.90272 -0.011954 0)
(-2.90279 -0.0136824 -8.04177e-41)
(-2.8954 -0.0145067 0)
(-2.87477 -0.0136164 0)
(-2.83011 -0.00988068 -1.16147e-40)
(-2.74171 -0.00109557 0)
(-2.58238 0.0151433 0)
(-2.39502 0.0357894 0)
(-2.48302 0.00113221 0)
(-2.48581 0.00176112 0)
(-2.49183 0.00214041 0)
(-2.49819 0.0023613 0)
(-2.50494 0.00248758 0)
(-2.51188 0.00255725 0)
(-2.51879 0.0025931 0)
(-2.52567 0.00260815 0)
(-2.53236 0.00261011 0)
(-2.53894 0.00260201 0)
(-2.5453 0.0025891 0)
(-2.5515 0.00257371 0)
(-2.55747 0.00255581 0)
(-2.56326 0.00253325 0)
(-2.56885 0.00250876 0)
(-2.57426 0.00248469 0)
(-2.57946 0.00245993 0)
(-2.58448 0.00243252 0)
(-2.58932 0.00240171 0)
(-2.59398 0.0023701 0)
(-2.59848 0.00233754 0)
(-2.60281 0.00230142 2.7053e-41)
(-2.60698 0.00226163 0)
(-2.611 0.00221954 0)
(-2.61489 0.00217322 0)
(-2.61863 0.00212192 0)
(-2.62225 0.00207167 0)
(-2.62574 0.00202428 0)
(-2.62913 0.00197626 0)
(-2.63241 0.00192839 0)
(-2.63559 0.00188195 0)
(-2.63868 0.00183577 0)
(-2.64169 0.00179042 0)
(-2.64462 0.00174754 0)
(-2.64749 0.0017059 0)
(-2.6503 0.00166476 0)
(-2.65305 0.00162538 0)
(-2.65576 0.0015872 0)
(-2.65843 0.00154939 0)
(-2.66106 0.00151237 0)
(-2.66367 0.00147635 0)
(-2.66627 0.00144108 0)
(-2.66884 0.00140723 0)
(-2.67141 0.00137551 0)
(-2.67398 0.00134613 0)
(-2.67655 0.00131991 0)
(-2.67913 0.00129769 0)
(-2.68172 0.00128024 0)
(-2.68433 0.00126822 0)
(-2.68697 0.00126296 0)
(-2.68962 0.00126523 0)
(-2.69231 0.00127466 0)
(-2.69504 0.00129285 0)
(-2.6978 0.00132315 0)
(-2.70061 0.00136914 0)
(-2.70347 0.00143079 0)
(-2.70638 0.0015081 0)
(-2.70936 0.00160243 0)
(-2.71239 0.00171564 0)
(-2.7155 0.00184982 0)
(-2.71867 0.00200662 0)
(-2.72192 0.00218805 0)
(-2.72526 0.00239385 0)
(-2.72869 0.00263714 0)
(-2.7322 0.00292776 0)
(-2.7358 0.00323169 0)
(-2.7395 0.00356602 0)
(-2.74333 0.00393543 0)
(-2.74727 0.00434028 0)
(-2.75133 0.00477939 0)
(-2.75554 0.00525437 0)
(-2.75989 0.00576978 0)
(-2.76439 0.00631381 0)
(-2.76906 0.00686612 0)
(-2.77391 0.00742116 0)
(-2.77896 0.00796832 0)
(-2.78422 0.00849159 0)
(-2.78972 0.00897 0)
(-2.79546 0.00937795 0)
(-2.80148 0.00968501 0)
(-2.80779 0.00985642 0)
(-2.81442 0.00985292 0)
(-2.8214 0.00963288 1.13234e-40)
(-2.82874 0.00915952 0)
(-2.83646 0.00839042 0)
(-2.84457 0.00728038 0)
(-2.85303 0.00580951 0)
(-2.86176 0.00395006 4.64327e-41)
(-2.87062 0.00172207 0)
(-2.87917 -0.000823251 0)
(-2.88712 -0.00366384 0)
(-2.89376 -0.0068515 0)
(-2.89812 -0.0105291 0)
(-2.89825 -0.0149109 -8.76383e-41)
(-2.89098 -0.0204275 0)
(-2.87054 -0.0280609 0)
(-2.8264 -0.0395995 -4.6549e-40)
(-2.7399 -0.0579284 0)
(-2.58252 -0.0859722 0)
(-2.39711 -0.117909 0)
(-2.42017 0.00245477 0)
(-2.42178 0.00402868 0)
(-2.42714 0.00494279 0)
(-2.43252 0.00544845 0)
(-2.43843 0.00570897 0)
(-2.44444 0.00582447 0)
(-2.45061 0.00585355 0)
(-2.4567 0.00583158 0)
(-2.46279 0.00577898 0)
(-2.46878 0.00570627 0)
(-2.47469 0.0056223 0)
(-2.4805 0.00553228 0)
(-2.48621 0.00543962 0)
(-2.49182 0.00534395 0)
(-2.49733 0.00524731 0)
(-2.50276 0.00515102 0)
(-2.50809 0.00505646 0)
(-2.51332 0.00496194 0)
(-2.51848 0.0048666 0)
(-2.52355 0.00477179 0)
(-2.52856 0.0046783 0)
(-2.53348 0.00458457 0)
(-2.53834 0.00448997 0)
(-2.54313 0.00439526 0)
(-2.54786 0.00429906 0)
(-2.55252 0.00419953 0)
(-2.55712 0.0041023 0)
(-2.56168 0.00400979 0)
(-2.56615 0.0039177 0)
(-2.57055 0.00382669 0)
(-2.57489 0.00373914 0)
(-2.57916 0.00365434 0)
(-2.58335 0.00357234 0)
(-2.58749 0.00349503 0)
(-2.59155 0.0034216 0)
(-2.59555 0.00335089 0)
(-2.5995 0.00328413 0)
(-2.60338 0.00322091 0)
(-2.6072 0.00316049 0)
(-2.61098 0.00310318 0)
(-2.6147 0.00304919 0)
(-2.61837 0.00299846 0)
(-2.622 0.00295147 0)
(-2.6256 0.00290906 0)
(-2.62915 0.0028712 0)
(-2.63268 0.00283877 0)
(-2.63617 0.00281237 0)
(-2.63964 0.00279296 0)
(-2.64308 0.00278123 0)
(-2.64651 0.00277809 0)
(-2.64993 0.00278444 0)
(-2.65333 0.0027998 0)
(-2.65673 0.0028252 0)
(-2.66012 0.00286613 0)
(-2.66352 0.00292661 0)
(-2.66693 0.00300499 0)
(-2.67035 0.00310077 0)
(-2.6738 0.00321559 0)
(-2.67727 0.00335182 0)
(-2.68077 0.00351143 0)
(-2.6843 0.00369629 0)
(-2.68787 0.0039083 0)
(-2.6915 0.00415019 0)
(-2.69517 0.00443092 0)
(-2.6989 0.00475119 0)
(-2.70269 0.00509849 0)
(-2.70655 0.00548 0)
(-2.71049 0.0058994 0)
(-2.71452 0.00635761 0)
(-2.71865 0.00685421 0)
(-2.72287 0.0073924 0)
(-2.72721 0.00797447 0)
(-2.73168 0.00858977 0)
(-2.73629 0.00922385 0)
(-2.74105 0.00986847 0)
(-2.74599 0.0105128 0)
(-2.75112 0.0111419 0)
(-2.75646 0.011736 0)
(-2.76203 0.0122704 0)
(-2.76786 0.0127162 0)
(-2.77398 0.0130393 0)
(-2.78041 0.0132013 0)
(-2.78719 0.0131612 0)
(-2.79434 0.0128774 0)
(-2.80188 0.0123037 0)
(-2.80982 0.0113911 0)
(-2.81813 0.0100881 0)
(-2.82675 0.00833196 0)
(-2.83548 0.00609029 0)