/*--------------------------------*- C++ -*----------------------------------*\
| =========                 |                                                 |
| \\      /  F ield         | OpenFOAM: The Open Source CFD Toolbox           |
|  \\    /   O peration     | Version:  2.1.0                                 |
|   \\  /    A nd           | Web:      www.OpenFOAM.org                      |
|    \\/     M anipulation  |                                                 |
\*---------------------------------------------------------------------------*/
FoamFile
{
    version     2.0;
    format      ascii;
    class       volScalarField;
    location    "0.42";
    object      C1;
}
// * * * * * * * * * * * * * * * * * * * * * * * * * * * * * * * * * * * * * //

dimensions      [0 0 0 0 0 0 0];

internalField   nonuniform List<scalar> 
6400
(
5.14273e-05
5.04646e-05
4.94565e-05
4.84419e-05
4.74266e-05
4.64126e-05
4.54013e-05
4.43935e-05
4.33899e-05
4.23908e-05
4.13966e-05
4.04078e-05
3.94246e-05
3.84474e-05
3.74764e-05
3.65119e-05
3.55542e-05
3.46037e-05
3.36605e-05
3.27252e-05
3.17978e-05
3.08788e-05
2.99685e-05
2.90672e-05
2.81752e-05
2.72928e-05
2.64204e-05
2.55583e-05
2.47067e-05
2.3866e-05
2.30366e-05
2.22186e-05
2.14124e-05
2.06183e-05
1.98366e-05
1.90677e-05
1.83117e-05
1.7569e-05
1.68398e-05
1.61246e-05
1.54234e-05
1.47365e-05
1.40644e-05
1.3407e-05
1.27648e-05
1.21379e-05
1.15266e-05
1.0931e-05
1.03514e-05
9.78787e-06
9.24071e-06
8.71006e-06
8.1961e-06
7.69898e-06
7.21879e-06
6.75561e-06
6.30951e-06
5.88057e-06
5.46886e-06
5.07441e-06
4.6972e-06
4.33718e-06
3.99428e-06
3.66837e-06
3.35931e-06
3.06692e-06
2.79097e-06
2.53123e-06
2.2874e-06
2.05917e-06
1.84618e-06
1.64807e-06
1.46441e-06
1.29477e-06
1.13868e-06
9.95655e-07
8.65178e-07
7.46717e-07
6.39718e-07
5.43614e-07
4.57822e-07
3.81748e-07
3.1479e-07
2.56339e-07
2.05784e-07
1.62512e-07
1.2592e-07
9.54121e-08
7.04043e-08
5.03226e-08
3.46015e-08
2.2682e-08
1.40211e-08
8.0893e-09
4.331e-09
2.15287e-09
8.98061e-10
2.81736e-10
6.30071e-11
1.13258e-11
5.82333e-05
5.72512e-05
5.62074e-05
5.5146e-05
5.40772e-05
5.30054e-05
5.19332e-05
5.08621e-05
4.97931e-05
4.87269e-05
4.7664e-05
4.66049e-05
4.55499e-05
4.44993e-05
4.34535e-05
4.24127e-05
4.13772e-05
4.03474e-05
3.93235e-05
3.83058e-05
3.72946e-05
3.62903e-05
3.52931e-05
3.43035e-05
3.33216e-05
3.23479e-05
3.13827e-05
3.04265e-05
2.94794e-05
2.8542e-05
2.76144e-05
2.66971e-05
2.57904e-05
2.48947e-05
2.40103e-05
2.31376e-05
2.22769e-05
2.14286e-05
2.0593e-05
1.97706e-05
1.89615e-05
1.81663e-05
1.73852e-05
1.66186e-05
1.58668e-05
1.51302e-05
1.44091e-05
1.37038e-05
1.30146e-05
1.23419e-05
1.16858e-05
1.10468e-05
1.04252e-05
9.82121e-06
9.23522e-06
8.66751e-06
8.11835e-06
7.58799e-06
7.07667e-06
6.5846e-06
6.11195e-06
5.65883e-06
5.22532e-06
4.81147e-06
4.41727e-06
4.04268e-06
3.68761e-06
3.35194e-06
3.03548e-06
2.73803e-06
2.45929e-06
2.19897e-06
1.9567e-06
1.73208e-06
1.52464e-06
1.33391e-06
1.15933e-06
1.00033e-06
8.56308e-07
7.26603e-07
6.10541e-07
5.07418e-07
4.1651e-07
3.37075e-07
2.68365e-07
2.09625e-07
1.60103e-07
1.19054e-07
8.57346e-08
5.93994e-08
3.92836e-08
2.45868e-08
1.44528e-08
7.95924e-09
4.13335e-09
2.1114e-09
9.68545e-10
3.89411e-10
1.4222e-10
5.46448e-11
7.31798e-05
7.21467e-05
7.10247e-05
6.98673e-05
6.86912e-05
6.75042e-05
6.6311e-05
6.51141e-05
6.39153e-05
6.27157e-05
6.15158e-05
6.03164e-05
5.91177e-05
5.79203e-05
5.67243e-05
5.553e-05
5.43379e-05
5.3148e-05
5.19609e-05
5.07766e-05
4.95955e-05
4.8418e-05
4.72442e-05
4.60746e-05
4.49093e-05
4.37488e-05
4.25935e-05
4.14438e-05
4.03e-05
3.91627e-05
3.80323e-05
3.69091e-05
3.57936e-05
3.46862e-05
3.35873e-05
3.24975e-05
3.14171e-05
3.03466e-05
2.92865e-05
2.82373e-05
2.71995e-05
2.61737e-05
2.51602e-05
2.41597e-05
2.31727e-05
2.21998e-05
2.12414e-05
2.02983e-05
1.93708e-05
1.84597e-05
1.75654e-05
1.66887e-05
1.58301e-05
1.49903e-05
1.41699e-05
1.33698e-05
1.25905e-05
1.18327e-05
1.10969e-05
1.03836e-05
9.6935e-06
9.02703e-06
8.38464e-06
7.76673e-06
7.17368e-06
6.60577e-06
6.06326e-06
5.54633e-06
5.0551e-06
4.58964e-06
4.14993e-06
3.73587e-06
3.34729e-06
2.98396e-06
2.64555e-06
2.33164e-06
2.04175e-06
1.77532e-06
1.53169e-06
1.31016e-06
1.10995e-06
9.30219e-07
7.70076e-07
6.28595e-07
5.04823e-07
3.97782e-07
3.0648e-07
2.29914e-07
1.67061e-07
1.16853e-07
7.81338e-08
4.96102e-08
2.98073e-08
1.70606e-08
9.59002e-09
5.4584e-09
2.94283e-09
1.5109e-09
7.71126e-10
4.40264e-10
9.72008e-05
9.60875e-05
9.48571e-05
9.35712e-05
9.22523e-05
9.09121e-05
8.95575e-05
8.81925e-05
8.68197e-05
8.54404e-05
8.40557e-05
8.26662e-05
8.12723e-05
7.98745e-05
7.84731e-05
7.70682e-05
7.56602e-05
7.42493e-05
7.28358e-05
7.14199e-05
7.00018e-05
6.85817e-05
6.71601e-05
6.57372e-05
6.43132e-05
6.28884e-05
6.14632e-05
6.00381e-05
5.86135e-05
5.71899e-05
5.57677e-05
5.43473e-05
5.29293e-05
5.15142e-05
5.01023e-05
4.86942e-05
4.72906e-05
4.58919e-05
4.44987e-05
4.31117e-05
4.17316e-05
4.03589e-05
3.89945e-05
3.76391e-05
3.62933e-05
3.49581e-05
3.36343e-05
3.23227e-05
3.10244e-05
2.97401e-05
2.8471e-05
2.72181e-05
2.59826e-05
2.47654e-05
2.35677e-05
2.23905e-05
2.12351e-05
2.01026e-05
1.8994e-05
1.79104e-05
1.68531e-05
1.58231e-05
1.48215e-05
1.38493e-05
1.29076e-05
1.19972e-05
1.1119e-05
1.02738e-05
9.46235e-06
8.68525e-06
7.94303e-06
7.23613e-06
6.56489e-06
5.9295e-06
5.33004e-06
4.76646e-06
4.23858e-06
3.74607e-06
3.28849e-06
2.86528e-06
2.47578e-06
2.11919e-06
1.79468e-06
1.50135e-06
1.23826e-06
1.00449e-06
7.99104e-07
6.21179e-07
4.69802e-07
3.43988e-07
2.42562e-07
1.6399e-07
1.06191e-07
6.64581e-08
4.14223e-08
2.59579e-08
1.57512e-08
9.38579e-09
5.74366e-09
4.00615e-09
0.000131358
0.000130156
0.000128815
0.0001274
0.000125938
0.000124444
0.000122926
0.00012139
0.000119839
0.000118275
0.000116699
0.000115112
0.000113513
0.000111904
0.000110285
0.000108656
0.000107017
0.000105368
0.00010371
0.000102042
0.000100364
9.86781e-05
9.6983e-05
9.52792e-05
9.35672e-05
9.18471e-05
9.01192e-05
8.83836e-05
8.66408e-05
8.48911e-05
8.31349e-05
8.13725e-05
7.96045e-05
7.78311e-05
7.60529e-05
7.42704e-05
7.24841e-05
7.06945e-05
6.89023e-05
6.71081e-05
6.53126e-05
6.35166e-05
6.17207e-05
5.9926e-05
5.81333e-05
5.63434e-05
5.45575e-05
5.27766e-05
5.10018e-05
4.92344e-05
4.74755e-05
4.57266e-05
4.39889e-05
4.22638e-05
4.05528e-05
3.88573e-05
3.71791e-05
3.55197e-05
3.38808e-05
3.2264e-05
3.06711e-05
2.91039e-05
2.75642e-05
2.60537e-05
2.45743e-05
2.31274e-05
2.17149e-05
2.03383e-05
1.89992e-05
1.7699e-05
1.64391e-05
1.52208e-05
1.40454e-05
1.29138e-05
1.18271e-05
1.0786e-05
9.79133e-06
8.84351e-06
7.94299e-06
7.09009e-06
6.28506e-06
5.52799e-06
4.81898e-06
4.15812e-06
3.54564e-06
2.98186e-06
2.46734e-06
2.00286e-06
1.58955e-06
1.2287e-06
9.21478e-07
6.68484e-07
4.69046e-07
3.207e-07
2.18681e-07
1.49252e-07
9.98105e-08
6.64646e-08
4.59388e-08
3.60289e-08
0.000176817
0.000175556
0.000174147
0.000172653
0.000171103
0.000169512
0.000167889
0.000166242
0.000164572
0.000162884
0.000161176
0.000159452
0.00015771
0.000155951
0.000154175
0.000152383
0.000150574
0.000148748
0.000146905
0.000145046
0.00014317
0.000141278
0.000139369
0.000137444
0.000135502
0.000133545
0.000131571
0.000129581
0.000127575
0.000125553
0.000123516
0.000121463
0.000119395
0.000117311
0.000115213
0.0001131
0.000110973
0.000108832
0.000106677
0.000104508
0.000102327
0.000100133
9.79279e-05
9.5711e-05
9.34835e-05
9.12459e-05
8.89989e-05
8.67434e-05
8.44801e-05
8.221e-05
7.99341e-05
7.76534e-05
7.53691e-05
7.30822e-05
7.0794e-05
6.85059e-05
6.62194e-05
6.39361e-05
6.16576e-05
5.93854e-05
5.71214e-05
5.48676e-05
5.26261e-05
5.03989e-05
4.81881e-05
4.59959e-05
4.38243e-05
4.16756e-05
3.95519e-05
3.74557e-05
3.53891e-05
3.33543e-05
3.13537e-05
2.93895e-05
2.74637e-05
2.55786e-05
2.37361e-05
2.19382e-05
2.01867e-05
1.84835e-05
1.68305e-05
1.52298e-05
1.36835e-05
1.21939e-05
1.07641e-05
9.39781e-06
8.09965e-06
6.87571e-06
5.73389e-06
4.68411e-06
3.73789e-06
2.90747e-06
2.20419e-06
1.63625e-06
1.20785e-06
8.91235e-07
6.48838e-07
4.7307e-07
3.5799e-07
3.02294e-07
0.000234617
0.000233383
0.000232012
0.000230558
0.000229046
0.000227491
0.000225901
0.000224282
0.000222639
0.000220973
0.000219285
0.000217575
0.000215845
0.000214094
0.000212322
0.00021053
0.000208716
0.000206882
0.000205026
0.000203149
0.00020125
0.00019933
0.000197387
0.000195423
0.000193436
0.000191428
0.000189397
0.000187343
0.000185267
0.000183168
0.000181045
0.000178899
0.00017673
0.000174537
0.00017232
0.000170078
0.000167812
0.000165522
0.000163206
0.000160865
0.000158498
0.000156105
0.000153687
0.000151242
0.00014877
0.000146272
0.000143746
0.000141193
0.000138613
0.000136005
0.00013337
0.000130707
0.000128016
0.000125297
0.000122551
0.000119778
0.000116977
0.000114151
0.000111298
0.000108419
0.000105515
0.000102587
9.96373e-05
9.66656e-05
9.36738e-05
9.06632e-05
8.7635e-05
8.4591e-05
8.15328e-05
7.84621e-05
7.53807e-05
7.22906e-05
6.91937e-05
6.60918e-05
6.2987e-05
5.9881e-05
5.67755e-05
5.36723e-05
5.05729e-05
4.74788e-05
4.43912e-05
4.13117e-05
3.82423e-05
3.51856e-05
3.21452e-05
2.91271e-05
2.61399e-05
2.3196e-05
2.03138e-05
1.75204e-05
1.48517e-05
1.23524e-05
1.00749e-05
8.07371e-06
6.40955e-06
5.08581e-06
3.99856e-06
3.15243e-06
2.56442e-06
2.27564e-06
0.000305094
0.000304038
0.000302876
0.000301647
0.000300369
0.000299053
0.000297706
0.000296333
0.000294937
0.000293519
0.000292081
0.000290622
0.000289143
0.000287645
0.000286127
0.000284588
0.00028303
0.00028145
0.00027985
0.00027823
0.000276587
0.000274924
0.000273238
0.000271531
0.000269801
0.000268048
0.000266272
0.000264472
0.000262649
0.0002608
0.000258926
0.000257027
0.0002551
0.000253147
0.000251166
0.000249156
0.000247116
0.000245046
0.000242944
0.00024081
0.000238642
0.00023644
0.000234202
0.000231927
0.000229614
0.000227262
0.000224869
0.000222434
0.000219955
0.000217432
0.000214863
0.000212246
0.000209579
0.000206862
0.000204093
0.00020127
0.000198391
0.000195456
0.000192462
0.000189408
0.000186292
0.000183114
0.000179871
0.000176564
0.000173191
0.00016975
0.00016624
0.000162661
0.00015901
0.000155286
0.000151489
0.000147615
0.000143665
0.000139635
0.000135522
0.000131325
0.000127039
0.00012266
0.000118182
0.0001136
0.000108905
0.000104087
9.9137e-05
9.40439e-05
8.87969e-05
8.33868e-05
7.78077e-05
7.20574e-05
6.61435e-05
6.00947e-05
5.39603e-05
4.78174e-05
4.17752e-05
3.59748e-05
3.06061e-05
2.60033e-05
2.19625e-05
1.85792e-05
1.60704e-05
1.47862e-05
0.000386911
0.000386221
0.000385467
0.000384672
0.000383845
0.000382994
0.000382122
0.000381232
0.000380326
0.000379405
0.00037847
0.00037752
0.000376556
0.000375578
0.000374586
0.000373579
0.000372559
0.000371524
0.000370475
0.00036941
0.000368331
0.000367237
0.000366127
0.000365002
0.00036386
0.000362702
0.000361526
0.000360332
0.000359121
0.00035789
0.00035664
0.00035537
0.000354079
0.000352767
0.000351432
0.000350074
0.000348692
0.000347285
0.000345851
0.00034439
0.000342901
0.000341382
0.000339833
0.000338251
0.000336636
0.000334985
0.000333299
0.000331574
0.00032981
0.000328005
0.000326157
0.000324264
0.000322324
0.000320336
0.000318297
0.000316204
0.000314057
0.000311852
0.000309587
0.000307257
0.000304859
0.000302392
0.000299852
0.000297237
0.000294542
0.000291765
0.000288901
0.000285946
0.000282895
0.000279745
0.000276488
0.00027312
0.000269635
0.000266024
0.00026228
0.000258393
0.000254353
0.00025014
0.000245741
0.000241145
0.000236325
0.000231254
0.0002259
0.000220225
0.000214187
0.000207733
0.00020081
0.000193354
0.000185286
0.000176569
0.00016717
0.000157086
0.000146348
0.000135029
0.000123269
0.000111474
0.000100821
9.11334e-05
8.33524e-05
7.90204e-05
0.000476375
0.000476205
0.000476017
0.000475816
0.000475607
0.000475389
0.000475164
0.000474932
0.000474695
0.000474451
0.000474202
0.000473948
0.000473689
0.000473424
0.000473155
0.000472881
0.000472601
0.000472317
0.000472029
0.000471735
0.000471437
0.000471134
0.000470826
0.000470513
0.000470195
0.000469872
0.000469544
0.00046921
0.000468871
0.000468525
0.000468174
0.000467817
0.000467454
0.000467084
0.000466707
0.000466323
0.000465932
0.000465533
0.000465126
0.000464711
0.000464288
0.000463855
0.000463413
0.000462962
0.000462501
0.000462029
0.000461547
0.000461055
0.000460551
0.000460035
0.000459508
0.00045897
0.000458419
0.000457857
0.000457284
0.000456699
0.000456105
0.000455501
0.000454891
0.000454268
0.000453632
0.000452982
0.000452317
0.000451636
0.000450937
0.000450219
0.000449481
0.000448719
0.000447932
0.000447115
0.000446266
0.000445378
0.000444448
0.000443468
0.00044243
0.000441327
0.000440148
0.000438885
0.000437527
0.00043605
0.000434442
0.000432687
0.000430768
0.000428665
0.000426361
0.000423836
0.000421074
0.000418042
0.000414509
0.000410404
0.000405622
0.000400047
0.000393544
0.000385945
0.000377016
0.000366459
0.000354254
0.000341787
0.000330501
0.000323054
0.00056768
0.000568128
0.000568586
0.000569048
0.000569513
0.000569982
0.000570453
0.000570926
0.000571403
0.000571883
0.000572366
0.000572853
0.000573343
0.000573839
0.000574338
0.000574843
0.000575352
0.000575867
0.000576388
0.000576915
0.000577448
0.000577988
0.000578535
0.000579089
0.000579651
0.00058022
0.000580798
0.000581385
0.000581981
0.000582586
0.000583201
0.000583827
0.000584463
0.000585111
0.000585771
0.000586442
0.000587127
0.000587826
0.000588538
0.000589266
0.000590009
0.000590769
0.000591546
0.000592341
0.000593156
0.000593991
0.000594847
0.000595726
0.000596628
0.000597556
0.00059851
0.000599491
0.000600501
0.000601542
0.000602616
0.000603722
0.000604863
0.000606041
0.000607255
0.000608511
0.000609813
0.000611166
0.000612576
0.000614046
0.000615582
0.000617188
0.00061887
0.000620634
0.000622487
0.000624437
0.000626491
0.000628658
0.000630948
0.000633371
0.000635937
0.000638657
0.000641544
0.00064461
0.000647865
0.000651321
0.000654989
0.000658878
0.000662995
0.000667348
0.000671937
0.000676765
0.000681827
0.000687142
0.000692886
0.000699138
0.000705995
0.000713478
0.000721544
0.000730225
0.000739534
0.000749424
0.000759714
0.000769893
0.000778726
0.000783898
0.000653125
0.000654085
0.000655095
0.000656133
0.000657192
0.000658268
0.000659356
0.000660455
0.000661564
0.000662684
0.000663813
0.000664952
0.000666101
0.000667261
0.000668432
0.000669615
0.000670809
0.000672016
0.000673236
0.000674469
0.000675716
0.000676978
0.000678254
0.000679546
0.000680855
0.000682179
0.000683521
0.00068488
0.000686258
0.000687654
0.00068907
0.000690507
0.000691965
0.000693445
0.000694948
0.000696474
0.000698024
0.0006996
0.000701203
0.000702833
0.000704491
0.000706179
0.000707898
0.000709649
0.000711434
0.000713253
0.000715109
0.000717004
0.000718938
0.000720914
0.000722934
0.000725
0.000727114
0.000729279
0.000731497
0.000733772
0.000736106
0.000738505
0.00074097
0.000743506
0.000746117
0.000748809
0.000751587
0.000754457
0.000757425
0.000760496
0.000763678
0.000766977
0.000770401
0.000773957
0.000777654
0.0007815
0.000785504
0.000789675
0.000794021
0.000798552
0.000803276
0.0008082
0.000813331
0.000818674
0.000824233
0.00083001
0.000836004
0.000842213
0.00084863
0.000855247
0.000862052
0.000869032
0.000876158
0.0008834
0.000890711
0.000898134
0.000905782
0.000913495
0.000921157
0.000928632
0.000935703
0.000942001
0.000946896
0.000949354
0.000727802
0.000729115
0.000730521
0.000731975
0.000733462
0.000734973
0.000736502
0.000738045
0.000739602
0.00074117
0.00074275
0.000744342
0.000745945
0.000747561
0.00074919
0.000750832
0.000752488
0.000754158
0.000755842
0.000757543
0.000759259
0.000760991
0.00076274
0.000764507
0.000766291
0.000768094
0.000769915
0.000771756
0.000773616
0.000775497
0.000777398
0.000779321
0.000781266
0.000783234
0.000785225
0.00078724
0.000789279
0.000791343
0.000793433
0.000795549
0.000797693
0.000799865
0.000802065
0.000804296
0.000806557
0.00080885
0.000811176
0.000813536
0.000815931
0.000818363
0.000820833
0.000823343
0.000825893
0.000828487
0.000831125
0.000833809
0.000836542
0.000839327
0.000842164
0.000845056
0.000848005
0.000851014
0.000854086
0.000857223
0.000860429
0.000863706
0.000867055
0.000870481
0.000873985
0.000877569
0.000881235
0.000884986
0.000888822
0.000892745
0.000896753
0.000900846
0.000905023
0.000909279
0.00091361
0.000918008
0.000922466
0.000926973
0.000931516
0.00093608
0.000940646
0.000945196
0.000949707
0.000954152
0.000958503
0.000962726
0.000966785
0.000970639
0.000974237
0.000977655
0.000980827
0.000983707
0.000986233
0.000988318
0.000989824
0.000990521
0.000789247
0.000790783
0.000792436
0.000794143
0.000795885
0.000797651
0.000799432
0.000801224
0.000803025
0.000804833
0.00080665
0.000808473
0.000810305
0.000812145
0.000813993
0.000815851
0.000817718
0.000819595
0.000821484
0.000823383
0.000825295
0.000827218
0.000829154
0.000831104
0.000833066
0.000835042
0.000837032
0.000839037
0.000841056
0.00084309
0.000845139
0.000847204
0.000849284
0.000851381
0.000853493
0.000855622
0.000857768
0.00085993
0.000862108
0.000864304
0.000866517
0.000868747
0.000870994
0.000873258
0.00087554
0.00087784
0.000880158
0.000882494
0.000884848
0.00088722
0.000889611
0.000892021
0.000894449
0.000896897
0.000899365
0.000901852
0.000904359
0.000906886
0.000909433
0.000912001
0.000914589
0.000917197
0.000919826
0.000922475
0.000925144
0.000927832
0.000930539
0.000933263
0.000936004
0.000938759
0.000941528
0.000944307
0.000947094
0.000949886
0.000952678
0.000955466
0.000958244
0.000961007
0.000963746
0.000966455
0.000969123
0.000971741
0.000974299
0.000976786
0.000979189
0.000981496
0.000983696
0.000985775
0.000987721
0.00098952
0.00099116
0.000992627
0.000993909
0.000995017
0.000995982
0.000996802
0.000997474
0.000997991
0.000998343
0.0009985
0.000837049
0.000838735
0.000840539
0.000842391
0.000844268
0.000846158
0.000848053
0.00084995
0.000851847
0.000853742
0.000855635
0.000857527
0.000859417
0.000861306
0.000863195
0.000865085
0.000866975
0.000868866
0.00087076
0.000872655
0.000874554
0.000876456
0.000878361
0.00088027
0.000882184
0.000884102
0.000886025
0.000887952
0.000889885
0.000891823
0.000893767
0.000895716
0.00089767
0.00089963
0.000901596
0.000903567
0.000905543
0.000907524
0.000909511
0.000911502
0.000913497
0.000915496
0.0009175
0.000919506
0.000921516
0.000923528
0.000925542
0.000927558
0.000929575
0.000931592
0.000933609
0.000935625
0.000937639
0.00093965
0.000941659
0.000943663
0.000945663
0.000947656
0.000949643
0.000951622
0.000953592
0.000955551
0.0009575
0.000959435
0.000961356
0.000963262
0.00096515
0.000967018
0.000968865
0.000970689
0.000972486
0.000974256
0.000975994
0.000977698
0.000979364
0.00098099
0.000982571
0.000984104
0.000985585
0.000987008
0.000988371
0.000989668
0.000990895
0.000992049
0.000993126
0.000994121
0.000995034
0.00099586
0.0009966
0.000997251
0.000997813
0.000998287
0.000998676
0.000998981
0.00099923
0.000999428
0.000999579
0.000999689
0.000999759
0.000999791
0.000872029
0.000873853
0.000875779
0.000877733
0.000879694
0.000881653
0.000883603
0.000885541
0.000887465
0.000889376
0.000891272
0.000893155
0.000895025
0.000896883
0.000898728
0.000900562
0.000902386
0.000904199
0.000906003
0.000907797
0.000909583
0.000911361
0.000913132
0.000914895
0.000916651
0.000918401
0.000920144
0.000921881
0.000923611
0.000925336
0.000927055
0.000928768
0.000930476
0.000932178
0.000933874
0.000935563
0.000937247
0.000938925
0.000940596
0.00094226
0.000943917
0.000945567
0.000947209
0.000948843
0.000950468
0.000952084
0.00095369
0.000955286
0.00095687
0.000958443
0.000960004
0.000961551
0.000963083
0.000964601
0.000966102
0.000967587
0.000969053
0.0009705
0.000971927
0.000973333
0.000974716
0.000976075
0.00097741
0.000978718
0.000979999
0.000981251
0.000982473
0.000983663
0.00098482
0.000985943
0.000987029
0.000988079
0.00098909
0.00099006
0.000990989
0.000991875
0.000992716
0.000993512
0.000994261
0.000994962
0.000995614
0.000996217
0.00099677
0.000997272
0.000997725
0.000998129
0.000998485
0.000998794
0.000999058
0.00099928
0.000999461
0.000999605
0.000999715
0.000999796
0.000999856
0.000999901
0.000999933
0.000999954
0.000999967
0.000999973
0.000895587
0.00089757
0.000899632
0.000901694
0.000903743
0.000905771
0.000907774
0.000909751
0.000911701
0.000913624
0.00091552
0.000917391
0.000919236
0.000921056
0.000922853
0.000924626
0.000926377
0.000928106
0.000929814
0.000931501
0.000933168
0.000934815
0.000936444
0.000938054
0.000939646
0.000941221
0.000942778
0.000944318
0.000945842
0.000947349
0.000948841
0.000950316
0.000951776
0.000953219
0.000954647
0.000956059
0.000957455
0.000958836
0.000960201
0.00096155
0.000962883
0.000964199
0.0009655
0.000966784
0.000968051
0.000969301
0.000970534
0.000971748
0.000972945
0.000974123
0.000975282
0.000976422
0.000977541
0.00097864
0.000979718
0.000980774
0.000981807
0.000982817
0.000983804
0.000984765
0.000985702
0.000986613
0.000987497
0.000988355
0.000989184
0.000989985
0.000990756
0.000991498
0.000992209
0.000992889
0.000993537
0.000994154
0.000994738
0.000995288
0.000995806
0.000996291
0.000996741
0.000997159
0.000997543
0.000997894
0.000998213
0.0009985
0.000998755
0.000998981
0.000999179
0.000999349
0.000999493
0.000999614
0.000999713
0.000999792
0.000999854
0.0009999
0.000999933
0.000999956
0.000999971
0.000999982
0.000999989
0.000999993
0.000999996
0.000999997
0.000909477
0.000911643
0.000913862
0.000916056
0.000918216
0.000920338
0.000922421
0.000924465
0.000926469
0.000928435
0.000930363
0.000932254
0.000934108
0.000935927
0.000937711
0.000939461
0.000941178
0.000942863
0.000944517
0.000946139
0.000947732
0.000949296
0.00095083
0.000952337
0.000953816
0.000955268
0.000956694
0.000958094
0.000959468
0.000960818
0.000962143
0.000963443
0.00096472
0.000965973
0.000967202
0.000968408
0.000969592
0.000970752
0.00097189
0.000973006
0.000974099
0.00097517
0.000976219
0.000977246
0.000978251
0.000979234
0.000980194
0.000981133
0.00098205
0.000982945
0.000983818
0.000984668
0.000985496
0.000986301
0.000987084
0.000987845
0.000988582
0.000989296
0.000989987
0.000990655
0.000991298
0.000991918
0.000992514
0.000993086
0.000993634
0.000994157
0.000994656
0.00099513
0.00099558
0.000996005
0.000996406
0.000996782
0.000997134
0.000997463
0.000997767
0.000998049
0.000998307
0.000998543
0.000998757
0.000998949
0.000999121
0.000999274
0.000999407
0.000999523
0.000999623
0.000999707
0.000999777
0.000999834
0.00099988
0.000999915
0.000999943
0.000999962
0.000999976
0.000999986
0.000999992
0.000999995
0.000999998
0.000999999
0.000999999
0.001
0.0009158
0.000918145
0.000920526
0.000922862
0.000925147
0.000927382
0.000929567
0.000931703
0.000933789
0.000935828
0.000937819
0.000939765
0.000941666
0.000943523
0.000945337
0.000947108
0.000948839
0.000950529
0.00095218
0.000953792
0.000955367
0.000956905
0.000958407
0.000959873
0.000961305
0.000962703
0.000964068
0.0009654
0.0009667
0.000967969
0.000969207
0.000970414
0.000971592
0.00097274
0.00097386
0.000974951
0.000976014
0.000977049
0.000978057
0.000979039
0.000979993
0.000980922
0.000981825
0.000982703
0.000983555
0.000984382
0.000985185
0.000985963
0.000986717
0.000987447
0.000988154
0.000988837
0.000989496
0.000990133
0.000990747
0.000991338
0.000991906
0.000992452
0.000992976
0.000993478
0.000993958
0.000994417
0.000994854
0.00099527
0.000995665
0.00099604
0.000996394
0.000996727
0.000997041
0.000997335
0.00099761
0.000997867
0.000998105
0.000998325
0.000998528
0.000998713
0.000998883
0.000999037
0.000999176
0.0009993
0.000999411
0.000999509
0.000999595
0.000999669
0.000999733
0.000999787
0.000999833
0.000999871
0.000999902
0.000999927
0.000999947
0.000999962
0.000999975
0.000999984
0.000999991
0.000999996
0.000999998
0.001
0.001
0.001
0.000917045
0.000919516
0.000922022
0.000924472
0.000926862
0.000929195
0.000931471
0.000933691
0.000935857
0.00093797
0.00094003
0.000942039
0.000943997
0.000945907
0.000947769
0.000949584
0.000951352
0.000953076
0.000954756
0.000956392
0.000957987
0.00095954
0.000961052
0.000962525
0.00096396
0.000965356
0.000966715
0.000968037
0.000969324
0.000970575
0.000971792
0.000972975
0.000974125
0.000975242
0.000976328
0.000977382
0.000978405
0.000979397
0.00098036
0.000981294
0.000982199
0.000983075
0.000983924
0.000984745
0.000985539
0.000986307
0.000987048
0.000987764
0.000988454
0.00098912
0.00098976
0.000990377
0.00099097
0.000991539
0.000992086
0.000992609
0.00099311
0.000993589
0.000994047
0.000994483
0.000994898
0.000995292
0.000995666
0.000996021
0.000996356
0.000996672
0.000996969
0.000997249
0.00099751
0.000997755
0.000997982
0.000998194
0.000998389
0.00099857
0.000998736
0.000998888
0.000999026
0.000999152
0.000999266
0.000999368
0.000999459
0.00099954
0.000999612
0.000999675
0.000999729
0.000999776
0.000999817
0.000999851
0.000999881
0.000999905
0.000999926
0.000999943
0.000999958
0.000999971
0.000999982
0.000999991
0.000999997
0.000999999
0.001
0.001
2.74651e-12
5.63524e-12
1.15352e-11
2.1842e-11
3.91275e-11
6.75142e-11
1.13688e-10
1.88732e-10
3.11474e-10
5.14763e-10
8.57534e-10
1.44868e-09
2.49573e-09
4.40702e-09
8.01201e-09
1.50446e-08
2.92022e-08
5.8309e-08
1.17162e-07
2.17402e-07
3.17909e-11
5.37331e-11
9.44058e-11
1.6139e-10
2.6744e-10
4.32203e-10
6.86662e-10
1.08097e-09
1.69866e-09
2.68293e-09
4.28666e-09
6.96982e-09
1.15949e-08
1.98298e-08
3.49968e-08
6.38801e-08
1.20544e-07
2.33585e-07
4.53623e-07
8.0697e-07
3.69426e-10
5.51924e-10
8.48786e-10
1.30016e-09
1.96839e-09
2.94346e-09
4.36202e-09
6.43923e-09
9.52471e-09
1.42036e-08
2.14839e-08
3.31526e-08
5.24698e-08
8.55585e-08
1.44243e-07
2.5191e-07
4.55356e-07
8.45584e-07
1.57154e-06
2.65481e-06
3.90926e-09
5.3152e-09
7.39037e-09
1.02953e-08
1.43027e-08
1.97841e-08
2.72808e-08
3.76224e-08
5.21276e-08
7.29542e-08
1.03725e-07
1.50688e-07
2.24885e-07
3.46367e-07
5.52552e-07
9.14763e-07
1.56964e-06
2.7684e-06
4.87797e-06
7.72422e-06
3.72661e-08
4.69182e-08
6.01278e-08
7.73323e-08
9.9513e-08
1.27971e-07
1.64558e-07
2.12064e-07
2.74867e-07
3.60006e-07
4.79065e-07
6.5147e-07
9.10381e-07
1.314e-06
1.96691e-06
3.05967e-06
4.93798e-06
8.18987e-06
1.35254e-05
1.98615e-05
3.17385e-07
3.7493e-07
4.49105e-07
5.39945e-07
6.50089e-07
7.83095e-07
9.44111e-07
1.14103e-06
1.38628e-06
1.69972e-06
2.11405e-06
2.68206e-06
3.49117e-06
4.68973e-06
6.53249e-06
9.459e-06
1.42114e-05
2.19086e-05
3.3405e-05
4.51926e-05
2.37542e-06
2.66271e-06
3.01612e-06
3.42689e-06
3.89839e-06
4.43663e-06
5.05187e-06
5.76153e-06
6.59448e-06
7.59934e-06
8.85505e-06
1.04844e-05
1.26857e-05
1.57849e-05
2.03122e-05
2.71219e-05
3.75047e-05
5.30083e-05
7.33765e-05
9.12609e-05
1.52093e-05
1.63379e-05
1.76781e-05
1.91673e-05
2.07929e-05
2.25515e-05
2.44523e-05
2.65208e-05
2.88161e-05
3.14406e-05
3.45419e-05
3.83509e-05
4.32408e-05
4.98062e-05
5.89616e-05
7.20215e-05
9.06132e-05
0.000115585
0.000143368
0.000164283
7.99541e-05
8.30116e-05
8.65542e-05
9.03264e-05
9.42399e-05
9.82301e-05
0.000102293
0.000106466
0.000110872
0.000115627
0.000120904
0.000127004
0.000134459
0.000144054
0.000157011
0.000174707
0.000198057
0.000225255
0.000249884
0.00026591
0.000322814
0.000326382
0.000330482
0.000334611
0.000338575
0.000342203
0.000345538
0.000348627
0.00035146
0.000353977
0.000356283
0.000358428
0.000360819
0.00036368
0.000367853
0.0003738
0.000381305
0.000387981
0.000390655
0.000391105
0.000782732
0.000779076
0.000774822
0.00077028
0.000765529
0.000760612
0.000755389
0.000749697
0.000743406
0.000736343
0.000728279
0.000718784
0.000707205
0.000692559
0.000673325
0.000648199
0.000617296
0.000583117
0.00055048
0.00052699
0.000948124
0.000945648
0.00094274
0.000939536
0.000936058
0.000932303
0.000928224
0.000923736
0.000918661
0.000912787
0.000905831
0.000897335
0.000886552
0.000872369
0.000853084
0.00082649
0.000790311
0.000744694
0.000696346
0.000658319
0.000990065
0.000989188
0.000988129
0.000986916
0.000985539
0.00098398
0.000982205
0.00098016
0.000977757
0.000974859
0.000971256
0.000966632
0.000960479
0.000951993
0.0009399
0.000922256
0.000896316
0.000859421
0.000813961
0.000773901
0.000998393
0.000998167
0.000997883
0.000997542
0.000997135
0.00099665
0.000996067
0.000995359
0.000994481
0.000993368
0.000991908
0.000989934
0.00098717
0.000983158
0.000977137
0.000967832
0.000953193
0.000930366
0.000898145
0.000866195
0.000999773
0.000999725
0.000999663
0.000999584
0.000999484
0.000999357
0.000999196
0.00099899
0.000998718
0.000998354
0.000997851
0.000997133
0.000996072
0.000994453
0.000991891
0.000987713
0.000980734
0.000969055
0.000950792
0.000930626
0.000999971
0.000999963
0.000999951
0.000999935
0.000999913
0.000999884
0.000999845
0.000999792
0.000999717
0.000999612
0.000999459
0.000999228
0.000998869
0.000998293
0.000997336
0.000995695
0.000992806
0.000987678
0.000979014
0.000968176
0.000999997
0.000999995
0.000999993
0.00099999
0.000999986
0.00099998
0.000999972
0.000999959
0.000999941
0.000999913
0.000999871
0.000999804
0.000999696
0.000999513
0.000999195
0.000998625
0.000997573
0.000995612
0.000992092
0.000987171
0.001
0.000999999
0.000999999
0.000999999
0.000999998
0.000999997
0.000999995
0.000999992
0.000999988
0.000999982
0.000999971
0.000999953
0.000999924
0.000999871
0.000999777
0.0009996
0.000999261
0.000998602
0.000997359
0.000995464
0.001
0.001
0.001
0.001
0.001
0.000999999
0.000999999
0.000999999
0.000999998
0.000999996
0.000999994
0.00099999
0.000999982
0.000999969
0.000999943
0.000999894
0.000999797
0.000999601
0.000999216
0.000998591
0.001
0.001
0.001
0.001
0.001
0.001
0.001
0.001
0.001
0.000999999
0.000999999
0.000999998
0.000999996
0.000999993
0.000999986
0.000999974
0.000999949
0.000999898
0.000999793
0.000999614
1.4754e-141
1.62712e-141
2.26781e-141
4.03428e-141
8.20594e-141
1.74075e-140
3.69605e-140
7.73876e-140
1.58868e-139
3.18755e-139
6.23373e-139
1.18357e-138
2.17571e-138
3.85837e-138
6.5706e-138
1.06807e-137
1.64379e-137
2.36769e-137
3.13638e-137
3.71182e-137
3.8147e-140
4.10222e-140
5.58774e-140
9.83673e-140
1.99937e-139
4.25428e-139
9.07135e-139
1.90842e-138
3.93801e-138
7.94522e-138
1.5632e-137
2.98676e-137
5.52728e-137
9.87228e-137
1.69423e-136
2.77748e-136
4.31508e-136
6.28134e-136
8.42095e-136
1.01071e-135
9.16752e-139
9.58233e-139
1.27089e-138
2.20947e-138
4.48589e-138
9.57704e-138
2.05164e-137
4.33869e-137
9.00323e-137
1.82747e-136
3.61896e-136
6.9627e-136
1.29811e-135
2.33711e-135
4.0455e-135
6.69448e-135