/*--------------------------------*- C++ -*----------------------------------*\
| =========                 |                                                 |
| \\      /  F ield         | OpenFOAM: The Open Source CFD Toolbox           |
|  \\    /   O peration     | Version:  2.1.0                                 |
|   \\  /    A nd           | Web:      www.OpenFOAM.org                      |
|    \\/     M anipulation  |                                                 |
\*---------------------------------------------------------------------------*/
FoamFile
{
    version     2.0;
    format      ascii;
    class       volScalarField;
    location    "0.42";
    object      C2;
}
// * * * * * * * * * * * * * * * * * * * * * * * * * * * * * * * * * * * * * //

dimensions      [0 0 0 0 0 0 0];

internalField   nonuniform List<scalar> 
6400
(
0.00241745
0.00241501
0.00241185
0.00240838
0.00240472
0.00240087
0.00239686
0.00239267
0.0023883
0.00238376
0.00237903
0.00237411
0.00236901
0.00236372
0.00235822
0.00235253
0.00234662
0.00234051
0.00233418
0.00232762
0.00232084
0.00231382
0.00230656
0.00229905
0.00229129
0.00228327
0.00227498
0.00226641
0.00225755
0.00224841
0.00223896
0.00222919
0.00221911
0.0022087
0.00219794
0.00218684
0.00217537
0.00216352
0.00215129
0.00213866
0.00212562
0.00211215
0.00209825
0.00208389
0.00206906
0.00205375
0.00203794
0.00202162
0.00200476
0.00198735
0.00196937
0.0019508
0.00193162
0.00191182
0.00189136
0.00187023
0.0018484
0.00182585
0.00180256
0.0017785
0.00175364
0.00172796
0.00170144
0.00167403
0.00164572
0.00161647
0.00158626
0.00155504
0.0015228
0.00148949
0.00145508
0.00141955
0.00138285
0.00134495
0.00130582
0.00126542
0.00122373
0.00118071
0.00113633
0.00109057
0.0010434
0.000994825
0.000944821
0.000893396
0.000840565
0.000786359
0.000730829
0.000674048
0.000616121
0.000557186
0.000497427
0.000437084
0.000376502
0.000316243
0.000257187
0.000200429
0.000146859
9.80593e-05
5.65666e-05
2.58197e-05
0.00242039
0.00241797
0.00241485
0.00241145
0.00240785
0.00240408
0.00240013
0.00239602
0.00239173
0.00238726
0.00238261
0.00237778
0.00237277
0.00236756
0.00236216
0.00235656
0.00235075
0.00234474
0.00233851
0.00233206
0.00232538
0.00231847
0.00231133
0.00230394
0.0022963
0.0022884
0.00228023
0.00227179
0.00226307
0.00225406
0.00224475
0.00223513
0.00222519
0.00221492
0.00220432
0.00219336
0.00218205
0.00217036
0.00215829
0.00214583
0.00213296
0.00211966
0.00210593
0.00209174
0.00207709
0.00206196
0.00204633
0.00203019
0.00201352
0.00199629
0.0019785
0.00196011
0.00194112
0.0019215
0.00190122
0.00188028
0.00185863
0.00183626
0.00181315
0.00178926
0.00176457
0.00173906
0.00171269
0.00168544
0.00165728
0.00162817
0.00159808
0.00156698
0.00153484
0.00150161
0.00146728
0.00143179
0.00139512
0.00135723
0.00131807
0.00127762
0.00123584
0.00119269
0.00114813
0.00110215
0.00105471
0.00100578
0.000955352
0.000903419
0.000849983
0.000795063
0.000738697
0.000680952
0.000621933
0.000561794
0.000500763
0.000439174
0.000377514
0.000316481
0.000256994
0.000200302
0.000147386
0.000100088
6.10199e-05
3.30912e-05
0.00242657
0.00242423
0.00242125
0.00241799
0.00241454
0.00241093
0.00240715
0.0024032
0.00239909
0.0023948
0.00239034
0.0023857
0.00238088
0.00237587
0.00237068
0.00236529
0.0023597
0.00235392
0.00234792
0.00234171
0.00233528
0.00232862
0.00232174
0.00231461
0.00230724
0.00229962
0.00229175
0.0022836
0.00227518
0.00226648
0.00225748
0.00224818
0.00223858
0.00222865
0.00221839
0.00220779
0.00219684
0.00218553
0.00217384
0.00216176
0.00214928
0.00213639
0.00212307
0.0021093
0.00209508
0.00208038
0.00206519
0.00204949
0.00203327
0.0020165
0.00199918
0.00198126
0.00196275
0.00194361
0.00192382
0.00190336
0.00188221
0.00186034
0.00183773
0.00181434
0.00179016
0.00176515
0.00173928
0.00171253
0.00168486
0.00165624
0.00162663
0.00159601
0.00156432
0.00153155
0.00149764
0.00146256
0.00142627
0.00138873
0.0013499
0.00130972
0.00126817
0.0012252
0.00118076
0.00113481
0.00108731
0.00103823
0.000987521
0.000935167
0.000881145
0.000825448
0.000768093
0.000709123
0.000648632
0.000586784
0.000523846
0.000460238
0.000396592
0.000333812
0.000273143
0.000215854
0.000163006
0.000116461
7.85295e-05
5.16569e-05
0.00243606
0.00243387
0.00243111
0.00242809
0.0024249
0.00242154
0.00241802
0.00241435
0.00241051
0.00240652
0.00240235
0.00239802
0.00239352
0.00238884
0.00238398
0.00237894
0.00237371
0.00236829
0.00236267
0.00235684
0.00235081
0.00234456
0.0023381
0.00233141
0.00232448
0.00231732
0.0023099
0.00230224
0.00229431
0.00228611
0.00227764
0.00226887
0.00225981
0.00225045
0.00224076
0.00223075
0.00222041
0.00220971
0.00219865
0.00218722
0.00217541
0.00216319
0.00215057
0.00213751
0.00212401
0.00211006
0.00209563
0.00208071
0.00206528
0.00204932
0.00203282
0.00201575
0.00199809
0.00197983
0.00196093
0.00194138
0.00192116
0.00190023
0.00187858
0.00185617
0.00183298
0.00180898
0.00178413
0.00175841
0.00173179
0.00170423
0.0016757
0.00164616
0.00161557
0.00158389
0.00155109
0.00151712
0.00148194
0.0014455
0.00140776
0.00136867
0.00132818
0.00128624
0.00124279
0.00119777
0.00115115
0.00110284
0.00105281
0.00100098
0.000947313
0.000891757
0.000834285
0.000774897
0.000713642
0.000650649
0.000586167
0.000520624
0.000454693
0.000389381
0.000326085
0.000266002
0.000210311
0.000160949
0.000120329
9.14878e-05
0.00244878
0.00244683
0.00244438
0.00244169
0.00243885
0.00243585
0.00243271
0.00242942
0.00242598
0.00242239
0.00241864
0.00241474
0.00241068
0.00240646
0.00240208
0.00239752
0.00239279
0.00238788
0.00238279
0.00237751
0.00237204
0.00236637
0.0023605
0.00235442
0.00234812
0.00234161
0.00233486
0.00232788
0.00232065
0.00231318
0.00230545
0.00229745
0.00228917
0.00228061
0.00227176
0.00226261
0.00225313
0.00224334
0.00223321
0.00222273
0.00221189
0.00220068
0.00218909
0.00217709
0.00216468
0.00215184
0.00213856
0.00212482
0.0021106
0.00209588
0.00208066
0.0020649
0.00204859
0.0020317
0.00201423
0.00199614
0.00197741
0.00195802
0.00193794
0.00191715
0.00189562
0.00187333
0.00185024
0.00182632
0.00180154
0.00177587
0.00174928
0.00172173
0.00169318
0.0016636
0.00163294
0.00160117
0.00156823
0.00153408
0.00149867
0.00146195
0.00142386
0.00138435
0.00134334
0.00130078
0.00125658
0.00121067
0.00116296
0.00111335
0.00106175
0.00100806
0.000952177
0.000894034
0.000833583
0.000770849
0.000705969
0.000639245
0.000571226
0.000502793
0.000435248
0.000369747
0.000307653
0.000251262
0.000203834
0.000170423
0.00246455
0.00246292
0.00246086
0.00245861
0.00245621
0.00245368
0.00245102
0.00244822
0.00244529
0.00244222
0.00243902
0.00243568
0.0024322
0.00242857
0.00242479
0.00242087
0.00241679
0.00241255
0.00240815
0.00240358
0.00239884
0.00239393
0.00238884
0.00238356
0.00237809
0.00237242
0.00236655
0.00236047
0.00235418
0.00234766
0.00234092
0.00233394
0.00232671
0.00231923
0.00231149
0.00230348
0.0022952
0.00228662
0.00227774
0.00226856
0.00225905
0.00224922
0.00223904
0.0022285
0.0022176
0.00220631
0.00219463
0.00218254
0.00217002
0.00215706
0.00214364
0.00212975
0.00211537
0.00210048
0.00208505
0.00206908
0.00205254
0.00203541
0.00201766
0.00199928
0.00198023
0.0019605
0.00194005
0.00191887
0.00189691
0.00187416
0.00185058
0.00182613
0.00180079
0.00177452
0.00174727
0.00171901
0.0016897
0.00165928
0.00162771
0.00159494
0.0015609
0.00152553
0.00148876
0.00145051
0.00141069
0.0013692
0.00132592
0.00128073
0.00123349
0.00118402
0.00113217
0.00107775
0.0010206
0.000960562
0.000897583
0.000831711
0.000763188
0.000692528
0.000620672
0.000548811
0.000478456
0.00041247
0.000355637
0.000316283
0.00248305
0.0024818
0.00248024
0.00247851
0.00247666
0.00247469
0.00247261
0.00247042
0.00246811
0.00246569
0.00246315
0.00246049
0.00245771
0.00245481
0.00245179
0.00244863
0.00244535
0.00244194
0.00243839
0.0024347
0.00243086
0.00242688
0.00242275
0.00241847
0.00241402
0.00240941
0.00240464
0.00239968
0.00239455
0.00238924
0.00238373
0.00237803
0.00237213
0.00236601
0.00235968
0.00235312
0.00234633
0.00233931
0.00233203
0.0023245
0.0023167
0.00230863
0.00230027
0.00229162
0.00228266
0.00227338
0.00226378
0.00225384
0.00224354
0.00223288
0.00222183
0.0022104
0.00219855
0.00218629
0.00217358
0.00216042
0.00214679
0.00213267
0.00211803
0.00210287
0.00208716
0.00207088
0.00205401
0.00203653
0.00201841
0.00199962
0.00198015
0.00195996
0.00193902
0.0019173
0.00189477
0.0018714
0.00184713
0.00182194
0.00179578
0.00176858
0.00174031
0.00171089
0.00168025
0.00164831
0.00161497
0.00158013
0.00154365
0.0015054
0.00146518
0.00142281
0.00137804
0.00133062
0.00128024
0.00122661
0.00116944
0.00110845
0.0010435
0.000974527
0.00090184
0.000826621
0.000750341
0.000676293
0.000610956
0.000566414
0.0025038
0.00250302
0.00250202
0.00250091
0.00249969
0.00249838
0.00249698
0.00249549
0.00249391
0.00249223
0.00249046
0.0024886
0.00248665
0.0024846
0.00248245
0.00248021
0.00247786
0.00247541
0.00247286
0.00247019
0.00246742
0.00246454
0.00246154
0.00245843
0.00245519
0.00245183
0.00244835
0.00244473
0.00244097
0.00243708
0.00243305
0.00242886
0.00242453
0.00242003
0.00241538
0.00241055
0.00240556
0.00240038
0.00239502
0.00238947
0.00238372
0.00237776
0.0023716
0.00236521
0.0023586
0.00235175
0.00234465
0.00233731
0.0023297
0.00232182
0.00231365
0.0023052
0.00229644
0.00228737
0.00227798
0.00226824
0.00225816
0.00224772
0.0022369
0.00222569
0.00221408
0.00220204
0.00218957
0.00217665
0.00216326
0.00214938
0.00213499
0.00212007
0.00210461
0.00208857
0.00207193
0.00205467
0.00203675
0.00201814
0.0019988
0.0019787
0.00195778
0.00193598
0.00191326
0.00188953
0.00186471
0.0018387
0.00181137
0.00178259
0.00175219
0.00171996
0.00168566
0.00164901
0.00160964
0.00156719
0.0015212
0.00147121
0.00141669
0.00135707
0.00129177
0.00122165
0.00114803
0.00107393
0.0010067
0.000960988
0.00252618
0.00252592
0.00252556
0.00252512
0.00252462
0.00252404
0.0025234
0.00252269
0.00252191
0.00252107
0.00252016
0.00251919
0.00251815
0.00251705
0.00251588
0.00251465
0.00251334
0.00251197
0.00251053
0.00250902
0.00250743
0.00250578
0.00250404
0.00250224
0.00250035
0.00249839
0.00249635
0.00249422
0.00249201
0.00248971
0.00248732
0.00248484
0.00248226
0.00247959
0.00247682
0.00247394
0.00247096
0.00246786
0.00246465
0.00246133
0.00245788
0.00245431
0.00245061
0.00244678
0.00244281
0.00243869
0.00243443
0.00243001
0.00242544
0.0024207
0.0024158
0.00241071
0.00240545
0.0024
0.00239435
0.0023885
0.00238245
0.00237618
0.00236969
0.00236297
0.00235601
0.00234881
0.00234135
0.00233363
0.00232563
0.00231736
0.00230879
0.00229992
0.00229073
0.00228121
0.00227136
0.00226114
0.00225055
0.00223956
0.00222816
0.00221631
0.00220399
0.00219116
0.00217777
0.00216378
0.00214913
0.00213374
0.00211753
0.00210039
0.00208219
0.0020628
0.00204205
0.0020197
0.00199546
0.00196902
0.00193999
0.00190793
0.00187223
0.00183217
0.00178674
0.00173504
0.00167914
0.00162055
0.00156535
0.00152696
0.0025494
0.00254971
0.00255003
0.00255032
0.00255056
0.00255077
0.00255093
0.00255105
0.00255113
0.00255118
0.00255119
0.00255116
0.0025511
0.00255101
0.00255088
0.00255071
0.00255052
0.00255029
0.00255003
0.00254974
0.00254941
0.00254906
0.00254867
0.00254825
0.00254781
0.00254732
0.00254681
0.00254627
0.00254569
0.00254509
0.00254445
0.00254377
0.00254307
0.00254233
0.00254155
0.00254074
0.00253989
0.00253901
0.00253809
0.00253713
0.00253613
0.0025351
0.00253402
0.0025329
0.00253173
0.00253053
0.00252927
0.00252797
0.00252662
0.00252523
0.00252378
0.00252228
0.00252073
0.00251913
0.00251747
0.00251576
0.00251399
0.00251216
0.00251028
0.00250834
0.00250634
0.00250428
0.00250216
0.00249998
0.00249774
0.00249544
0.00249308
0.00249066
0.00248818
0.00248564
0.00248304
0.00248037
0.00247764
0.00247485
0.00247198
0.00246903
0.00246599
0.00246285
0.00245961
0.00245623
0.00245269
0.00244895
0.00244499
0.00244074
0.00243617
0.00243121
0.00242583
0.00241998
0.00241348
0.00240625
0.00239816
0.00238903
0.00237862
0.00236656
0.00235232
0.00233519
0.00231466
0.00229178
0.00226872
0.00225131
0.00257261
0.00257349
0.00257451
0.00257554
0.00257656
0.00257756
0.00257854
0.00257951
0.00258047
0.00258142
0.00258236
0.0025833
0.00258423
0.00258515
0.00258608
0.002587
0.00258793
0.00258886
0.0025898
0.00259074
0.0025917
0.00259266
0.00259363
0.00259462
0.00259563
0.00259665
0.00259768
0.00259874
0.00259982
0.00260093
0.00260205
0.00260321
0.00260439
0.0026056
0.00260685
0.00260812
0.00260944
0.00261079
0.00261218
0.00261361
0.00261508
0.0026166
0.00261817
0.00261978
0.00262145
0.00262318
0.00262496
0.0026268
0.0026287
0.00263068
0.00263272
0.00263483
0.00263703
0.0026393
0.00264166
0.00264411
0.00264665
0.0026493
0.00265204
0.0026549
0.00265787
0.00266097
0.0026642
0.00266757
0.00267109
0.00267476
0.00267861
0.00268263
0.00268684
0.00269125
0.00269588
0.00270074
0.00270584
0.00271119
0.00271683
0.00272275
0.00272897
0.00273553
0.00274242
0.00274968
0.00275731
0.00276533
0.00277377
0.00278264
0.00279196
0.00280174
0.002812
0.00282275
0.00283411
0.00284623
0.00285934
0.00287368
0.00288943
0.00290674
0.0029258
0.00294686
0.00297014
0.00299534
0.00302009
0.00303797
0.00259496
0.0025964
0.0025981
0.00259986
0.00260163
0.0026034
0.00260519
0.00260699
0.0026088
0.00261063
0.00261247
0.00261434
0.00261623
0.00261815
0.0026201
0.00262208
0.0026241
0.00262616
0.00262826
0.0026304
0.00263259
0.00263483
0.00263712
0.00263947
0.00264187
0.00264434
0.00264688
0.00264949
0.00265216
0.00265492
0.00265775
0.00266067
0.00266367
0.00266677
0.00266995
0.00267324
0.00267664
0.00268013
0.00268375
0.00268748
0.00269133
0.0026953
0.00269941
0.00270366
0.00270805
0.00271259
0.00271728
0.00272214
0.00272717
0.00273237
0.00273775
0.00274333
0.0027491
0.00275508
0.00276128
0.00276771
0.00277437
0.00278127
0.00278844
0.00279587
0.00280359
0.0028116
0.00281993
0.00282858
0.00283757
0.00284693
0.00285667
0.0028668
0.00287736
0.00288836
0.00289983
0.0029118
0.00292429
0.00293734
0.00295098
0.00296524
0.00298017
0.00299579
0.00301217
0.00302934
0.00304736
0.00306628
0.00308617
0.00310709
0.00312912
0.00315236
0.00317691
0.00320292
0.00323056
0.00326005
0.00329163
0.00332575
0.0033632
0.00340432
0.00344936
0.00349857
0.00355158
0.00360645
0.00365747
0.00369229
0.00261575
0.00261771
0.00262005
0.00262248
0.00262496
0.00262746
0.00263
0.00263257
0.00263518
0.00263783
0.00264052
0.00264326
0.00264605
0.0026489
0.0026518
0.00265477
0.0026578
0.0026609
0.00266407
0.00266732
0.00267066
0.00267408
0.00267759
0.00268119
0.0026849
0.00268871
0.00269263
0.00269666
0.00270081
0.00270508
0.00270949
0.00271403
0.00271871
0.00272354
0.00272851
0.00273365
0.00273895
0.00274443
0.00275008
0.00275592
0.00276195
0.00276818
0.00277462
0.00278127
0.00278816
0.00279527
0.00280263
0.00281025
0.00281812
0.00282627
0.00283471
0.00284344
0.00285248
0.00286184
0.00287154
0.00288158
0.00289199
0.00290278
0.00291396
0.00292555
0.00293758
0.00295005
0.00296299
0.00297643
0.00299038
0.00300487
0.00301993
0.00303558
0.00305185
0.00306879
0.00308641
0.00310475
0.00312387
0.00314379
0.00316457
0.00318625
0.00320889
0.00323254
0.00325726
0.00328313
0.00331021
0.00333858
0.00336832
0.00339954
0.00343235
0.00346685
0.00350321
0.00354157
0.00358215
0.00362515
0.00367085
0.00371956
0.00377163
0.00382784
0.00388806
0.00395205
0.00401875
0.00408526
0.00414505
0.00418527
0.00263442
0.00263684
0.00263976
0.00264281
0.00264592
0.00264909
0.0026523
0.00265557
0.0026589
0.00266229
0.00266574
0.00266926
0.00267285
0.00267653
0.00268028
0.00268412
0.00268805
0.00269208
0.00269621
0.00270045
0.0027048
0.00270926
0.00271385
0.00271857
0.00272342
0.00272841
0.00273355
0.00273884
0.00274428
0.0027499
0.00275568
0.00276164
0.00276779
0.00277414
0.00278068
0.00278744
0.00279441
0.00280161
0.00280904
0.00281672
0.00282465
0.00283284
0.00284131
0.00285006
0.00285911
0.00286846
0.00287814
0.00288814
0.00289849
0.00290919
0.00292027
0.00293173
0.0029436
0.00295588
0.0029686
0.00298177
0.00299541
0.00300954
0.00302418
0.00303935
0.00305507
0.00307137
0.00308828
0.00310581
0.003124
0.00314288
0.00316248
0.00318283
0.00320397
0.00322593
0.00324876
0.0032725
0.0032972
0.0033229
0.00334965
0.00337752
0.00340657
0.00343685
0.00346843
0.00350139
0.00353581
0.00357176
0.00360933
0.00364862
0.00368974
0.00373278
0.00377787
0.00382514
0.0038747
0.0039267
0.00398124
0.00403839
0.0040982
0.00416088
0.00422626
0.00429358
0.00436137
0.00442667
0.00448385
0.00452259
0.0026506
0.0026534
0.00265682
0.00266041
0.00266408
0.00266782
0.00267163
0.0026755
0.00267945
0.00268347
0.00268758
0.00269177
0.00269606
0.00270044
0.00270492
0.00270951
0.00271421
0.00271903
0.00272398
0.00272905
0.00273426
0.00273962
0.00274512
0.00275077
0.00275659
0.00276258
0.00276874
0.00277509
0.00278162
0.00278835
0.00279529
0.00280245
0.00280982
0.00281743
0.00282527
0.00283337
0.00284173
0.00285035
0.00285926
0.00286845
0.00287795
0.00288776
0.00289789
0.00290836
0.00291918
0.00293037
0.00294193
0.00295389
0.00296625
0.00297904
0.00299226
0.00300595
0.0030201
0.00303475
0.00304991
0.00306561
0.00308186
0.00309868
0.0031161
0.00313415
0.00315284
0.00317221
0.00319228
0.00321309
0.00323466
0.00325703
0.00328023
0.0033043
0.00332928
0.00335521
0.00338212
0.00341008
0.00343912
0.0034693
0.00350067
0.00353329
0.00356721
0.00360251
0.00363924
0.00367747
0.00371728
0.00375873
0.00380189
0.00384684
0.00389366
0.00394241
0.00399314
0.00404592
0.00410076
0.00415765
0.00421649
0.00427713
0.00433926
0.00440243
0.00446646
0.00453031
0.00459244
0.00465031
0.00469981
0.00473393
0.00266402
0.00266714
0.00267097
0.00267501
0.00267915
0.00268337
0.00268767
0.00269205
0.00269652
0.00270107
0.00270572
0.00271047
0.00271532
0.00272029
0.00272537
0.00273057
0.00273591
0.00274138
0.00274699
0.00275274
0.00275865
0.00276473
0.00277097
0.00277738
0.00278398
0.00279077
0.00279776
0.00280495
0.00281235
0.00281998
0.00282784
0.00283594
0.00284429
0.00285289
0.00286177
0.00287092
0.00288037
0.00289011
0.00290017
0.00291054
0.00292126
0.00293232
0.00294375
0.00295555
0.00296774
0.00298033
0.00299334
0.00300679
0.00302069
0.00303505
0.00304991
0.00306526
0.00308115
0.00309757
0.00311456
0.00313214
0.00315033
0.00316915
0.00318864
0.0032088
0.00322968
0.0032513
0.00327368
0.00329687
0.00332089
0.00334578
0.00337158
0.00339831
0.00342603
0.00345477
0.00348457
0.00351548
0.00354756
0.00358084
0.00361537
0.00365122
0.00368844
0.00372708
0.0037672
0.00380886
0.00385211
0.003897
0.00394359
0.00399193
0.00404204
0.00409396
0.00414768
0.00420317
0.00426036
0.00431911
0.00437918
0.0044402
0.0045016
0.00456262
0.00462281
0.00468113
0.00473613
0.00478577
0.00482724
0.00485632
0.00267455
0.00267791
0.00268207
0.00268647
0.00269099
0.00269559
0.00270028
0.00270506
0.00270994
0.00271491
0.00271998
0.00272517
0.00273047
0.00273589
0.00274144
0.00274713
0.00275295
0.00275893
0.00276505
0.00277134
0.00277779
0.00278442
0.00279123
0.00279823
0.00280543
0.00281283
0.00282044
0.00282828
0.00283635
0.00284465
0.00285321
0.00286202
0.0028711
0.00288046
0.0028901
0.00290005
0.0029103
0.00292087
0.00293178
0.00294303
0.00295465
0.00296663
0.00297899
0.00299176
0.00300494
0.00301854
0.0030326
0.00304711
0.0030621
0.00307758
0.00309358
0.00311011
0.0031272
0.00314486
0.00316311
0.00318198
0.00320149
0.00322167
0.00324254
0.00326412
0.00328644
0.00330954
0.00333344
0.00335818
0.00338377
0.00341027
0.00343771
0.00346611
0.00349552
0.00352598
0.00355754
0.00359022
0.00362408
0.00365917
0.00369553
0.0037332
0.00377224
0.00381269
0.0038546
0.00389801
0.00394297
0.00398952
0.00403767
0.00408746
0.00413889
0.00419194
0.00424658
0.00430274
0.00436027
0.00441898
0.00447854
0.00453851
0.00459823
0.00465684
0.00471353
0.00476746
0.00481725
0.00486115
0.00489703
0.00492234
0.00268218
0.00268569
0.00269009
0.00269476
0.00269955
0.00270444
0.00270942
0.00271449
0.00271966
0.00272494
0.00273033
0.00273583
0.00274146
0.00274722
0.00275311
0.00275914
0.00276532
0.00277166
0.00277815
0.00278482
0.00279166
0.00279869
0.00280591
0.00281332
0.00282095
0.00282878
0.00283685
0.00284514
0.00285367
0.00286246
0.0028715
0.00288081
0.00289041
0.00290029
0.00291047
0.00292096
0.00293178
0.00294292
0.00295442
0.00296627
0.00297849
0.0029911
0.0030041
0.00301752
0.00303136
0.00304565
0.00306039
0.00307561
0.00309132
0.00310754
0.00312428
0.00314157
0.00315943
0.00317787
0.00319692
0.0032166
0.00323693
0.00325794
0.00327965
0.00330208
0.00332527
0.00334924
0.00337401
0.00339962
0.00342611
0.00345349
0.00348181
0.0035111
0.00354139
0.00357272
0.00360513
0.00363865
0.00367333
0.00370921
0.00374633
0.00378472
0.00382443
0.0038655
0.00390796
0.00395185
0.0039972
0.00404403
0.00409235
0.00414217
0.00419348
0.00424625
0.00430042
0.00435589
0.00441252
0.0044701
0.00452833
0.00458677
0.00464482
0.00470173
0.00475651
0.0048084
0.00485613
0.00489796
0.00493183
0.00495566
0.00268697
0.00269056
0.0026951
0.00269994
0.00270491
0.00270998
0.00271515
0.00272041
0.00272578
0.00273125
0.00273684
0.00274255
0.00274839
0.00275435
0.00276046
0.00276672
0.00277312
0.00277969
0.00278642
0.00279332
0.00280041
0.00280769
0.00281516
0.00282284
0.00283072
0.00283883
0.00284717
0.00285575
0.00286457
0.00287365
0.002883
0.00289262
0.00290253
0.00291273
0.00292324
0.00293406
0.00294521
0.00295671
0.00296856
0.00298077
0.00299336
0.00300634
0.00301972
0.00303352
0.00304776
0.00306245
0.00307759
0.00309322
0.00310935
0.00312598
0.00314315
0.00316087
0.00317916
0.00319804
0.00321753
0.00323765
0.00325843
0.00327988
0.00330203
0.0033249
0.00334852
0.00337292
0.00339813
0.00342416
0.00345106
0.00347884
0.00350754
0.0035372
0.00356784
0.0035995
0.00363221
0.003666
0.00370091
0.00373698
0.00377424
0.00381272
0.00385245
0.00389347
0.00393581
0.00397949
0.00402453
0.00407093
0.00411872
0.00416787
0.00421837
0.00427018
0.00432323
0.00437743
0.00443266
0.00448872
0.00454538
0.00460228
0.00465895
0.00471474
0.00476886
0.0048205
0.00486853
0.00491124
0.00494632
0.00497122
0.00268913
0.00269273
0.00269733
0.00270224
0.0027073
0.00271246
0.00271771
0.00272307
0.00272852
0.00273409
0.00273977
0.00274558
0.00275151
0.00275757
0.00276378
0.00277013
0.00277664
0.00278332
0.00279015
0.00279717
0.00280437
0.00281176
0.00281934
0.00282714
0.00283515
0.00284338
0.00285184
0.00286055
0.0028695
0.00287871
0.00288819
0.00289795
0.00290799
0.00291833
0.00292899
0.00293996
0.00295126
0.0029629
0.0029749
0.00298727
0.00300002
0.00301316
0.0030267
0.00304067
0.00305507
0.00306992
0.00308524
0.00310104
0.00311733
0.00313414
0.00315149
0.00316938
0.00318784
0.00320689
0.00322655
0.00324684
0.00326778
0.00328939
0.00331171
0.00333474
0.00335851
0.00338305
0.00340839
0.00343456
0.00346157
0.00348946
0.00351826
0.003548
0.00357871
0.00361041
0.00364315
0.00367694
0.00371183
0.00374785
0.00378502
0.00382337
0.00386294
0.00390375
0.00394583
0.00398919
0.00403385
0.00407981
0.00412708
0.00417564
0.00422547
0.00427652
0.00432874
0.00438203
0.00443628
0.00449135
0.00454705
0.00460311
0.00465914
0.00471452
0.00476848
0.00482022
0.00486879
0.00491278
0.00494995
0.00497734
1.0123e-05
1.01248e-05
1.26257e-05
1.61382e-05
2.02869e-05
2.49615e-05
3.01405e-05
3.58483e-05
4.21475e-05
4.91397e-05
5.69707e-05
6.58348e-05
7.59762e-05
8.76806e-05
0.000101249
0.000116932
0.000134782
0.000154345
0.000173961
0.00018922
1.97074e-05
2.05478e-05
2.49471e-05
3.09218e-05
3.7832e-05
4.54571e-05
5.37355e-05
6.26882e-05
7.24001e-05
8.30185e-05
9.47577e-05
0.000107902
0.000122804
0.000139866
0.000159494
0.000181991
0.000207337
0.000234706
0.000261502
0.000281451
3.94434e-05
4.24648e-05
4.99495e-05
5.95858e-05
7.05025e-05
8.23402e-05
9.49684e-05
0.00010839
0.000122712
0.000138136
0.000154963
0.000173588
0.000194494
0.000218218
0.000245277
0.00027602
0.000310308
0.000346858
0.000382
0.000407359
8.03285e-05
8.68092e-05
9.88112e-05
0.000113484
0.000129737
0.000147074
0.000165281
0.000184332
0.000204351
0.000225602
0.000248483
0.000273524
0.000301353
0.000332653
0.00036806
0.000407951
0.000452006
0.000498373
0.000542136
0.000572631
0.000160856
0.000171884
0.00018963
0.000210488
0.000233094
0.000256816
0.000281363
0.000306679
0.000332903
0.000360364
0.00038957
0.00042119
0.000456004
0.000494846
0.000538468
0.00058724
0.000640587
0.000695972
0.000747132
0.000781422
0.000309101
0.000325065
0.000348863
0.000376063
0.000404994
0.000434883
0.000465374
0.000496386
0.000528079
0.000560836
0.000595286
0.000632219
0.000672549
0.000717255
0.000767177
0.000822636
0.000882734
0.000944188
0.000999473
0.00103522
0.000561963
0.000581789
0.000610115
0.000641872
0.000675126
0.000708988
0.000743051
0.000777223
0.000811675
0.000846864
0.000883494
0.000922418
0.000964632
0.00101121
0.00106305
0.00112038
0.00118194
0.00124377
0.00129758
0.0013314
0.000958498
0.000979037
0.00100779
0.00103962
0.0010725
0.0011055
0.00113821
0.00117053
0.0012027
0.00123522
0.00126874
0.00130403
0.00134207
0.00138394
0.00143052
0.00148194
0.00153666
0.00159029
0.00163496
0.00166199
0.00152473
0.00154088
0.00156345
0.0015882
0.00161341
0.00163827
0.00166245
0.00168594
0.00170905
0.0017321
0.00175551
0.00177983
0.00180583
0.00183438
0.00186627
0.00190154
0.00193869
0.00197381
0.00200124
0.00201628
0.0022488
0.00225488
0.00226361
0.00227306
0.00228243
0.00229128
0.00229953
0.00230721
0.00231438
0.00232106
0.00232741
0.00233357
0.00233989
0.00234665
0.00235425
0.00236274
0.00237153
0.0023791
0.00238352
0.00238431
0.00303948
0.00303246
0.00302251
0.00301148
0.00300003
0.00298851
0.00297688
0.00296496
0.00295259
0.00293959
0.00292577
0.00291082
0.00289437
0.00287601
0.00285532
0.00283245
0.0028086
0.00278586
0.00276666
0.00275391
0.00369344
0.00367796
0.00365631
0.00363228
0.00360733
0.00358211
0.00355682
0.00353144
0.00350558
0.00347882
0.00345072
0.00342065
0.00338784
0.00335148
0.00331091
0.00326628
0.0032193
0.00317407
0.0031367
0.00311341
0.00418696
0.00416833
0.00414215
0.00411289
0.00408226
0.004051
0.00401942
0.00398753
0.00395504
0.00392146
0.00388611
0.00384824
0.00380689
0.00376111
0.00371012
0.00365396
0.00359421
0.00353527
0.00348524
0.00345398
0.00452631
0.00450889
0.00448383
0.00445548
0.00442547
0.00439451
0.0043629
0.00433066
0.00429757
0.00426319
0.00422681
0.00418764
0.00414474
0.00409713
0.00404403
0.00398528
0.00392214
0.00385851
0.0038026
0.00376699
0.00474022
0.00472651
0.00470585
0.00468202
0.00465643
0.00462969
0.00460207
0.00457357
0.00454402
0.00451303
0.00447999
0.00444417
0.00440471
0.00436073
0.00431145
0.00425662
0.00419709
0.00413603
0.00408073
0.00404458
0.00486476
0.00485547
0.00484027
0.00482223
0.00480249
0.00478156
0.00475966
0.0047368
0.0047128
0.00468735
0.00465997
0.00463001
0.00459677
0.00455947
0.00451743
0.00447029
0.00441862
0.0043648
0.00431482
0.00428089
0.0049322
0.00492686
0.00491668
0.00490409
0.00489002
0.00487487
0.00485878
0.00484177
0.00482368
0.00480426
0.00478312
0.00475978
0.00473364
0.00470409
0.00467051
0.00463257
0.00459057
0.00454624
0.00450421
0.00447461
0.00496646
0.00496406
0.00495776
0.00494954
0.00494013
0.00492984
0.00491876
0.00490686
0.00489402
0.00488006
0.00486468
0.00484751
0.00482811
0.00480598
0.00478062
0.00475173
0.00471943
0.00468492
0.00465163
0.00462744
0.00498306
0.0049825
0.00497882
0.00497373
0.00496779
0.00496118
0.00495394
0.00494604
0.00493738
0.00492783
0.00491718
0.00490516
0.00489146
0.00487568
0.00485746
0.00483652
0.00481287
0.00478728
0.00476218
0.00474344
0.00499121
0.00499132
0.00498923
0.00498624
0.00498267
0.00497862
0.0049741
0.00496907
0.00496348
0.00495722
0.00495015
0.00494209
0.00493283
0.00492208
0.00490958
0.00489509
0.00487857
0.00486044
0.00484223
0.00482807
1.4996e-52
1.49693e-52
1.49391e-52
1.49197e-52
1.49229e-52
1.49581e-52
1.50318e-52
1.51483e-52
1.5309e-52
1.55131e-52
1.57575e-52
1.60367e-52
1.63432e-52
1.66672e-52
1.6997e-52
1.73187e-52
1.76161e-52
1.78714e-52
1.80646e-52
1.81742e-52
7.67587e-52
7.65459e-52
7.63331e-52
7.61859e-52
7.61638e-52
7.63147e-52
7.66732e-52
7.72596e-52
7.80813e-52
7.91336e-52
8.04003e-52
8.18534e-52
8.34541e-52
8.51529e-52
8.68899e-52
8.85944e-52
9.01836e-52
9.15647e-52
9.26376e-52
9.33011e-52
2.70944e-51
2.69821e-51
2.68744e-51
2.67962e-51
2.67679e-51
2.68058e-51
2.69216e-51
2.71227e-51
2.74119e-51
2.77875e-51
2.82438e-51
2.87709e-51
2.93549e-51
2.99783e-51
3.06196e-51
3.12536e-51
3.18511e-51
3.23801e-51
3.28056e-51
3.30896e-51
8.84115e-51
8.79048e-51
8.74285e-51
8.70724e-51
8.69001e-51
8.69628e-51
8.72984e-51
8.79312e-51
8.88711e-51
9.01137e-51
9.16402e-51
9.34182e-51
9.54021e-51
9.75334e-51
9.97404e-51
1.01939e-50
1.04035e-50
1.05924e-50
1.07494e-50
1.08611e-50
2.82075e-50
2.80012e-50
2.78054e-50
2.76558e-50
2.75727e-50
2.75715e-50
2.76641e-50
2.78581e-50
2.81571e-50
2.85598e-50
2.90602e-50
2.9648e-50
3.03084e-50
3.10225e-50
3.17668e-50
3.25144e-50
3.3235e-50
3.38961e-50
3.44616e-50
3.48791e-50
8.93182e-50
8.85206e-50
8.77587e-50
8.71643e-50
8.68057e-50
8.67313e-50
8.6977e-50
8.75669e-50
8.85119e-50
8.98082e-50
9.14376e-50
9.33669e-50
9.5549e-50
9.79227e-50
1.00414e-49
1.02936e-49
1.05394e-49
1.07685e-49
1.09688e-49
1.11212e-49
2.81904e-49
2.78925e-49
2.76064e-49
2.73798e-49
2.72355e-49
2.71889e-49
2.72512e-49
2.74296e-49
2.77276e-49
2.81439e-49
2.86728e-49
2.93038e-49
3.00219e-49
3.08076e-49
3.16376e-49
3.24846e-49
3.33186e-49
3.41064e-49
3.48079e-49
3.53544e-49
8.87967e-49
8.77113e-49
8.66651e-49
8.58265e-49
8.52719e-49
8.50511e-49
8.51985e-49
8.57365e-49
8.66749e-49
8.80098e-49
8.9723e-49
9.17814e-49
9.41376e-49
9.67306e-49
9.94862e-49
1.0232e-48
1.05136e-48
1.07827e-48
1.10261e-48
1.12194e-48
2.79244e-48
2.75366e-48
2.71616e-48
2.68584e-48
2.66523e-48
2.65593e-48
2.65902e-48
2.6752e-48
2.70472e-48
2.74747e-48
2.80287e-48
2.86987e-48
2.94698e-48
3.0323e-48
3.12351e-48
3.21794e-48
3.31259e-48
3.40399e-48
3.48773e-48
3.55532e-48
8.76813e-48
8.63177e-48
8.4995e-48
8.39183e-48
8.31712e-48
8.28052e-48
8.28542e-48
8.33388e-48
8.42672e-48
8.56346e-48
8.74229e-48
8.9599e-48
9.21168e-48
9.49164e-48
9.79259e-48
1.01062e-47
1.04229e-47
1.07316e-47
1.10177e-47
1.12517e-47
2.74903e-47
2.70169e-47
2.65566e-47
2.61799e-47
2.59144e-47
2.57765e-47
2.57769e-47
2.59218e-47
2.62135e-47
2.66504e-47
2.72267e-47
2.79321e-47
2.87521e-47
2.96684e-47
3.06584e-47
3.16961e-47
3.27514e-47
3.37885e-47
3.47595e-47
3.55627e-47
8.60602e-47
8.4435e-47
8.28509e-47
8.15496e-47
8.0621e-47
8.01175e-47
8.00723e-47