/*--------------------------------*- C++ -*----------------------------------*\
| =========                 |                                                 |
| \\      /  F ield         | OpenFOAM: The Open Source CFD Toolbox           |
|  \\    /   O peration     | Version:  2.1.0                                 |
|   \\  /    A nd           | Web:      www.OpenFOAM.org                      |
|    \\/     M anipulation  |                                                 |
\*---------------------------------------------------------------------------*/
FoamFile
{
    version     2.0;
    format      ascii;
    class       volScalarField;
    location    "0.42";
    object      k;
}
// * * * * * * * * * * * * * * * * * * * * * * * * * * * * * * * * * * * * * //

dimensions      [0 2 -2 0 0 0 0];

internalField   nonuniform List<scalar> 
6400
(
0.0328083
0.032848
0.0328514
0.0328454
0.0328229
0.032812
0.0327815
0.0327667
0.0327326
0.0327156
0.0326795
0.0326591
0.032622
0.0325976
0.0325597
0.032531
0.0324922
0.0324593
0.0324192
0.0323823
0.0323407
0.0323004
0.0322572
0.032214
0.0321693
0.0321237
0.0320774
0.0320293
0.031981
0.0319305
0.0318798
0.0318267
0.0317734
0.0317174
0.031661
0.031602
0.0315421
0.0314793
0.0314153
0.031348
0.0312783
0.0312044
0.0311273
0.0310451
0.0309582
0.0308652
0.0307661
0.0306596
0.0305456
0.030423
0.0302915
0.0301502
0.0299984
0.0298327
0.0296514
0.0294517
0.0292376
0.0290171
0.0287829
0.0285411
0.028287
0.0280253
0.0277523
0.0274709
0.0271768
0.0268736
0.0265569
0.0262295
0.0258854
0.0255257
0.0251498
0.0247549
0.0243418
0.0239081
0.0234547
0.0229808
0.0224875
0.0219758
0.0214477
0.0209061
0.0203528
0.0197894
0.0192109
0.0185982
0.0179263
0.0172313
0.0164815
0.0156583
0.0147267
0.0136356
0.012312
0.0106457
0.00855302
0.00606901
0.00341164
0.00235758
0.00274678
0.00552375
0.00876196
0.00991663
0.0519101
0.0522442
0.0523974
0.0526783
0.0528517
0.0531305
0.0533227
0.0535955
0.0538054
0.0540728
0.0542977
0.0545613
0.0547983
0.0550597
0.0553061
0.0555664
0.0558196
0.0560795
0.0563374
0.0565973
0.0568584
0.0571188
0.0573827
0.0576451
0.0579128
0.0581797
0.0584529
0.0587258
0.0590055
0.0592851
0.0595716
0.0598583
0.0601518
0.060446
0.0607466
0.0610488
0.0613571
0.0616678
0.061985
0.0623054
0.0626314
0.0629586
0.0632897
0.0636211
0.0639538
0.064285
0.0646143
0.0649389
0.0652577
0.0655681
0.0658687
0.0661587
0.066442
0.0667146
0.0669695
0.0672014
0.0674114
0.0676198
0.0678073
0.0679827
0.0681336
0.0682724
0.0683872
0.0684914
0.0685671
0.0686254
0.0686527
0.068662
0.0686372
0.0685666
0.0684546
0.0682875
0.0680614
0.0677658
0.0673923
0.0669322
0.0663753
0.0657149
0.0649414
0.0640511
0.0630378
0.0619034
0.0606499
0.0592742
0.0577355
0.0559667
0.0539494
0.051617
0.0489121
0.0457617
0.0421098
0.0379155
0.0332379
0.0283506
0.0233633
0.018627
0.0149761
0.0123965
0.0107884
0.00922044
0.0576015
0.0580984
0.0583247
0.0587362
0.0590161
0.0594127
0.0597257
0.0601126
0.0604491
0.0608311
0.0611851
0.0615656
0.0619332
0.0623145
0.0626923
0.0630755
0.063461
0.0638466
0.0642373
0.0646245
0.0650178
0.065405
0.0657979
0.0661849
0.0665784
0.0669675
0.0673652
0.0677585
0.06816
0.0685575
0.0689621
0.0693634
0.0697704
0.0701747
0.0705834
0.0709896
0.0713986
0.0718045
0.0722108
0.0726131
0.0730146
0.0734122
0.0738066
0.0741955
0.0745778
0.0749515
0.0753138
0.0756622
0.0759916
0.0762975
0.0765737
0.0768096
0.0770153
0.0772076
0.07737
0.0775144
0.0776305
0.0777262
0.0777927
0.0778321
0.0778482
0.0778485
0.0777835
0.077699
0.077554
0.0773766
0.077138
0.0768563
0.0765097
0.0761084
0.0756338
0.075089
0.0744571
0.0737359
0.0729087
0.0719701
0.0709033
0.069702
0.0683507
0.0668444
0.0651706
0.0633274
0.0613059
0.0591067
0.0567304
0.0542042
0.051508
0.0486581
0.0456232
0.0424007
0.0389413
0.0352212
0.0312111
0.0269145
0.022444
0.0180937
0.0144239
0.0114644
0.00928306
0.00710534
0.0618059
0.0623609
0.0626136
0.0630898
0.0634204
0.0638768
0.0642499
0.0646931
0.0650924
0.0655286
0.0659451
0.0663785
0.0668069
0.0672401
0.0676766
0.0681109
0.0685528
0.0689885
0.0694333
0.0698695
0.0703148
0.0707497
0.0711916
0.0716179
0.0720446
0.0724538
0.072874
0.073281
0.0736933
0.0740941
0.0744963
0.0748873
0.0752765
0.0756539
0.0760266
0.0763862
0.076738
0.0770752
0.0774028
0.077713
0.0780074
0.0782854
0.0785422
0.0787801
0.0789926
0.0791822
0.0793425
0.0794751
0.0795744
0.0796343
0.0796605
0.0796656
0.079617
0.0795367
0.0794049
0.0792328
0.0790044
0.0787259
0.0783836
0.07798
0.0775033
0.0769578
0.0763311
0.0756293
0.0748365
0.0739608
0.0729866
0.071923
0.0707569
0.0694974
0.0681344
0.0666775
0.0651199
0.063472
0.0617288
0.0599014
0.0579861
0.0559943
0.0539229
0.0517826
0.0495701
0.0472954
0.044955
0.0425577
0.0401021
0.0375955
0.035038
0.0324554
0.0298425
0.0272188
0.0245846
0.0219576
0.0193422
0.0167608
0.0142442
0.0118736
0.00969751
0.00786052
0.00658622
0.00598992
0.0629188
0.0634476
0.0636835
0.064143
0.0644494
0.0648874
0.0652309
0.065649
0.0660124
0.0664145
0.0667874
0.0671764
0.0675518
0.067929
0.0683017
0.0686673
0.0690328
0.0693855
0.0697397
0.0700775
0.0704162
0.0707367
0.0710561
0.0713568
0.0716534
0.071933
0.0722075
0.0724633
0.0727108
0.0729375
0.0731523
0.073344
0.0735199
0.0736699
0.0738001
0.0739013
0.0739773
0.0740148
0.074029
0.0740196
0.0739546
0.0738657
0.0737241
0.0735479
0.0733185
0.0730465
0.0727192
0.072343
0.071909
0.071421
0.070874
0.0702693
0.0696015
0.0688751
0.0680834
0.0672318
0.0663175
0.0653425
0.0643041
0.0632053
0.0620437
0.0608237
0.0595429
0.0582069
0.0568134
0.0553692
0.0538724
0.0523305
0.0507419
0.0491147
0.0474476
0.0457486
0.0440176
0.0422629
0.0404882
0.0387015
0.036904
0.0351036
0.033303
0.0315098
0.0297276
0.0279652
0.0262273
0.0245225
0.022856
0.0212351
0.0196655
0.0181379
0.0166644
0.0152383
0.0138692
0.0125504
0.0112926
0.0100936
0.00897103
0.00794113
0.00703009
0.00639833
0.00612458
0.00612146
0.0593693
0.0596952
0.0598409
0.0601367
0.0603287
0.0606052
0.0608132
0.061064
0.061272
0.0614957
0.0616936
0.0618897
0.0620704
0.0622375
0.062395
0.0625312
0.0626603
0.0627627
0.0628582
0.0629234
0.0629765
0.0630009
0.0630101
0.0629985
0.0629549
0.0628894
0.0627953
0.062676
0.0625324
0.0623588
0.0621589
0.0619251
0.0616626
0.0613633
0.0610325
0.0606624
0.0602584
0.0598134
0.0593334
0.0588105
0.058249
0.0576468
0.0570036
0.0563204
0.055596
0.0548322
0.0540282
0.053186
0.0523056
0.0513889
0.0504365
0.0494503
0.0484314
0.047382
0.0463038
0.045199
0.0440691
0.0429168
0.0417444
0.0405584
0.0393582
0.0381494
0.0369323
0.0357119
0.0344891
0.0332688
0.0320521
0.0308436
0.0296449
0.0284601
0.027291
0.0261416
0.0250135
0.0239099
0.0228294
0.0217752
0.0207489
0.0197529
0.0187898
0.0178608
0.0169661
0.0161015
0.015272
0.0144725
0.0137068
0.0129693
0.0122627
0.0115809
0.0109261
0.0102908
0.00967734
0.00907813
0.00849742
0.00793184
0.00739574
0.00689885
0.00653549
0.00637751
0.00635105
0.00656816
0.0501804
0.0501475
0.0501365
0.0501293
0.0501209
0.0500994
0.0500745
0.0500262
0.0499753
0.0498944
0.049812
0.0496956
0.049578
0.0494238
0.0492682
0.0490749
0.0488793
0.0486457
0.0484088
0.0481343
0.0478556
0.0475411
0.0472202
0.0468615
0.0464917
0.0460876
0.0456691
0.0452188
0.0447523
0.0442551
0.0437408
0.0431972
0.0426361
0.0420471
0.0414411
0.040809
0.040161
0.0394891
0.0388029
0.0380952
0.0373751
0.0366379
0.0358919
0.0351323
0.0343668
0.0335915
0.0328136
0.0320299
0.0312469
0.0304621
0.0296814
0.0289029
0.0281319
0.0273666
0.0266123
0.0258663
0.0251313
0.0244082
0.0236995
0.0230021
0.0223209
0.0216532
0.0210029
0.0203675
0.01975
0.0191477
0.0185651
0.0179966
0.0174457
0.0169084
0.0163875
0.0158791
0.0153853
0.0149025
0.014432
0.0139706
0.0135191
0.0130742
0.0126359
0.0122005
0.0117845
0.0113775
0.0109877
0.0106056
0.0102386
0.00987802
0.00953064
0.00918883
0.00885995
0.00853809
0.00823209
0.00793887
0.00767004
0.00742671
0.00723062
0.00710056
0.00704726
0.00709139
0.00743182
0.00762387
0.0372924
0.0369431
0.036796
0.0365203
0.0363459
0.0360648
0.0358572
0.0355598
0.0353177
0.0349987
0.0347224
0.0343796
0.03407
0.0337021
0.0333602
0.0329666
0.0325935
0.0321741
0.0317709
0.031326
0.0308937
0.0304235
0.0299646
0.0294789
0.0290047
0.0285087
0.0280244
0.0275189
0.0270226
0.026509
0.0260067
0.0254908
0.0249881
0.0244754
0.0239776
0.0234731
0.0229854
0.0224939
0.0220207
0.0215464
0.0210918
0.0206374
0.0202028
0.0197705
0.0193584
0.0189505
0.0185632
0.0181815
0.0178202
0.0174656
0.0171309
0.0168032
0.0164955
0.0161963
0.0159156
0.0156444
0.0153903
0.0151461
0.014917
0.0146977
0.0144925
0.0142965
0.0141135
0.0139391
0.0137768
0.0136226
0.0134776
0.0133419
0.0132154
0.0130973
0.0129869
0.0128837
0.0127868
0.0126958
0.0126097
0.012528
0.0124496
0.012374
0.0122999
0.0122267
0.012153
0.0120753
0.0119937
0.0119044
0.0118069
0.0116974
0.0115755
0.0114375
0.0112839
0.0111137
0.0109301
0.0107368
0.0105434
0.0103607
0.0102314
0.0101753
0.0101691
0.0104151
0.0107772
0.0109552
0.0245124
0.0239889
0.0237718
0.0233603
0.023124
0.0227227
0.022467
0.0220721
0.0217995
0.0214097
0.0211237
0.0207378
0.0204423
0.020061
0.0197594
0.0193838
0.0190795
0.0187111
0.0184073
0.0180481
0.017748
0.0174
0.0171073
0.0167764
0.0164968
0.0161846
0.0159202
0.0156281
0.0153809
0.0151105
0.0148823
0.0146348
0.0144269
0.0142035
0.0140166
0.0138179
0.0136524
0.0134787
0.0133349
0.0131864
0.0130643
0.0129403
0.0128401
0.0127402
0.0126621
0.0125857
0.0125296
0.0124765
0.0124425
0.0124147
0.0124019
0.0123973
0.0124012
0.0124219
0.0124485
0.0124898
0.0125385
0.0126006
0.0126719
0.0127558
0.0128498
0.012956
0.0130729
0.0132016
0.0133418
0.0134936
0.0136572
0.0138324
0.0140195
0.0142184
0.0144297
0.0146532
0.0148897
0.0151387
0.0154011
0.0156765
0.0159655
0.0162676
0.0165832
0.0169116
0.0172525
0.0176047
0.0179673
0.0183379
0.0187147
0.0190938
0.0194722
0.0198438
0.0202039
0.0205468
0.0208681
0.0211644
0.0214363
0.021688
0.0219349
0.0222251
0.022671
0.0232822
0.0241078
0.0250104
0.0176169
0.0170861
0.0168713
0.0164619
0.0162472
0.0158573
0.0156446
0.0152758
0.0150673
0.0147209
0.0145193
0.0141961
0.0140038
0.0137045
0.0135236
0.0132488
0.0130811
0.0128311
0.0126781
0.012453
0.012316
0.0121158
0.0119957
0.0118203
0.0117176
0.0115663
0.011481
0.0113533
0.0112855
0.0111814
0.0111298
0.0110507
0.0110125
0.0109591
0.0109339
0.0109064
0.0108947
0.0108898
0.0108907
0.0109067
0.010928
0.0109608
0.011001
0.0110511
0.0111102
0.0111776
0.0112555
0.0113406
0.0114372
0.0115405
0.0116558
0.0117779
0.0119123
0.012054
0.0122077
0.0123696
0.0125436
0.0127266
0.0129219
0.0131269
0.0133448
0.0135733
0.0138153
0.0140693
0.0143377
0.0146191
0.0149161
0.0152275
0.015556
0.0159005
0.0162637
0.016645
0.0170471
0.0174696
0.0179156
0.0183848
0.0188806
0.0194033
0.0199564
0.0205405
0.0211598
0.0218156
0.0225125
0.0232528
0.0240419
0.0248832
0.0257831
0.0267471
0.0277842
0.0289017
0.0301117
0.0314249
0.0328575
0.0344253
0.0361476
0.0380346
0.0400903
0.0422785
0.0438053
0.0444278
0.020748
0.0201827
0.0199505
0.0195073
0.019267
0.0188405
0.0185943
0.0181852
0.0179363
0.0175454
0.0172968
0.0169254
0.0166804
0.01633
0.016092
0.0157635
0.0155356
0.0152297
0.0150144
0.0147318
0.014531
0.0142721
0.0140875
0.0138525
0.0136853
0.0134743
0.0133252
0.0131382
0.0130079
0.0128447
0.0127333
0.0125938
0.0125015
0.0123854
0.012312
0.0122194
0.0121647
0.0120954
0.0120597
0.0120161
0.0119955
0.011981
0.0119762
0.0119773
0.0119973
0.0120191
0.012059
0.0121015
0.0121613
0.0122245
0.0123044
0.0123884
0.0124886
0.0125939
0.012715
0.0128417
0.0129838
0.0131324
0.0132962
0.0134673
0.0136532
0.0138478
0.0140573
0.0142767
0.0145114
0.014757
0.0150187
0.0152924
0.0155831
0.0158872
0.0162095
0.0165466
0.0169033
0.0172768
0.0176718
0.0180859
0.0185236
0.0189833
0.0194696
0.0199812
0.020523
0.0210944
0.0217003
0.0223412
0.0230222
0.0237447
0.0245144
0.0253336
0.0262087
0.0271428
0.028144
0.029221
0.0303905
0.0316644
0.033069
0.0346288
0.0363836
0.0383043
0.0398553
0.040537
0.0313538
0.030808
0.0305777
0.0301387
0.0298787
0.0294449
0.0291555
0.028722
0.0284066
0.0279722
0.0276319
0.0271908
0.0268272
0.026381
0.026
0.0255502
0.0251573
0.0247063
0.0243065
0.0238572
0.0234549
0.0230108
0.0226102
0.0221743
0.0217792
0.0213547
0.0209689
0.0205587
0.0201853
0.0197921
0.0194342
0.0190606
0.0187208
0.0183687
0.0180488
0.0177192
0.0174206
0.0171151
0.0168394
0.0165592
0.0163073
0.0160537
0.0158268
0.0156011
0.0154004
0.0152023
0.015028
0.0148574
0.0147093
0.0145658
0.0144436
0.0143267
0.0142301
0.0141398
0.0140686
0.0140037
0.0139568
0.013916
0.0138928
0.0138803
0.0138762
0.0138817
0.0139035
0.0139314
0.0139748
0.0140243
0.0140883
0.014158
0.0142413
0.0143289
0.0144281
0.0145309
0.0146436
0.0147589
0.0148822
0.0150065
0.0151367
0.0152662
0.0153992
0.0155294
0.0156605
0.0157863
0.0159102
0.0160265
0.0161382
0.01624
0.0163349
0.0164188
0.0164959
0.0165623
0.0166245
0.0166771
0.0167261
0.0167909
0.0168901
0.0170686
0.0173828
0.0179099
0.0186401
0.0196849
0.0443664
0.0440341
0.0438939
0.0436263
0.0434565
0.0431794
0.0429721
0.042674
0.042428
0.0421035
0.0418192
0.0414658
0.0411438
0.0407599
0.0404005
0.0399858
0.0395899
0.0391445
0.0387134
0.0382379
0.0377734
0.0372692
0.0367735
0.0362425
0.0357182
0.0351628
0.0346129
0.0340363
0.033465
0.0328706
0.0322821
0.0316745
0.0310737
0.0304575
0.0298499
0.0292311
0.0286186
0.0279964
0.0273834
0.026765
0.0261585
0.0255506
0.0249571
0.0243655
0.0237904
0.0232203
0.0226684
0.0221239
0.021599
0.0210821
0.0205849
0.0200971
0.0196289
0.0191705
0.0187308
0.0183016
0.0178907
0.0174896
0.0171072
0.0167361
0.0163821
0.0160391
0.0157123
0.0153943
0.0150907
0.0147945
0.0145109
0.0142315
0.013962
0.0136996
0.0134468
0.0131989
0.0129597
0.0127232
0.0124943
0.0122661
0.0120445
0.0118221
0.0116054
0.011387
0.0111735
0.0109581
0.0107477
0.0105359
0.0103298
0.010124
0.00992268
0.00972303
0.00953051
0.00934361
0.00916922
0.00900826
0.0088694
0.00875413
0.00869726
0.0086786
0.00878792
0.00904749
0.00945013
0.00962855
0.0559105
0.0559099
0.0559213
0.0559341
0.0559423
0.0559439
0.0559349
0.055903
0.0558664
0.0557969
0.055729
0.055625
0.055524
0.0553831
0.0552443
0.0550638
0.0548832
0.0546603
0.0544344
0.0541661
0.053892
0.0535758
0.0532507
0.0528858
0.0525077
0.0520898
0.051658
0.0511865
0.0506995
0.0501736
0.0496309
0.0490504
0.0484523
0.0478181
0.0471658
0.0464796
0.0457756
0.0450398
0.0442866
0.0435043
0.0427058
0.0418812
0.0410424
0.0401807
0.0393078
0.0384158
0.0375156
0.0366007
0.0356812
0.0347531
0.0338251
0.0328933
0.0319661
0.0310401
0.0301232
0.0292125
0.0283154
0.0274294
0.0265608
0.0257065
0.0248704
0.0240473
0.0232453
0.0224597
0.0216973
0.0209537
0.0202348
0.0195375
0.0188659
0.018213
0.0175838
0.0169726
0.0163834
0.0158109
0.015258
0.0147196
0.0141981
0.0136886
0.013193
0.0127067
0.0122312
0.0117617
0.0112997
0.0108408
0.0103862
0.00995337
0.00953274
0.00913534
0.00875087
0.0083902
0.008045
0.00772688
0.00742805
0.00716793
0.00692815
0.00677028
0.00670043
0.00669927
0.007031
0.0072194
0.0624677
0.0627883
0.0629322
0.0632182
0.0634102
0.0636767
0.0638848
0.0641274
0.0643368
0.0645555
0.0647575
0.0649528
0.0651405
0.0653114
0.0654792
0.0656239
0.0657668
0.0658825
0.0659957
0.0660792
0.0661581
0.0662055
0.0662365
0.0662473
0.0662476
0.0662055
0.066155
0.0660645
0.0659595
0.0658151
0.0656511
0.0654468
0.0652179
0.0649468
0.0646467
0.0643022
0.063929
0.0635129
0.0630637
0.0625707
0.0620405
0.0614628
0.0608473
0.0601823
0.0594784
0.0587246
0.0579309
0.0570884
0.0562061
0.0552769
0.0543092
0.0532974
0.0522495
0.0511614
0.0500402
0.0488833
0.0476979
0.0464818
0.0452423
0.0439777
0.0426991
0.0414036
0.0401007
0.0387879
0.0374745
0.0361583
0.034848
0.0335419
0.0322478
0.0309644
0.029699
0.0284505
0.0272256
0.026023
0.0248488
0.0237012
0.0225825
0.021488
0.0204237
0.0193866
0.018381
0.0174052
0.0164616
0.0155497
0.0146707
0.0138229
0.0130003
0.0122058
0.0114342
0.0106894
0.00996684
0.00927022
0.00859761
0.00795712
0.00736187
0.00681315
0.00640049
0.0062125
0.00617389
0.00636049
0.0638953
0.0643781
0.0645948
0.0650128
0.0652968
0.065694
0.0660127
0.0663921
0.0667292
0.067095
0.067441
0.0677963
0.0681448
0.0684909
0.0688372
0.0691743
0.0695148
0.069842
0.0701734
0.070489
0.0708082
0.0711099
0.0714133
0.0717
0.0719843
0.0722498
0.0725125
0.072755
0.0729932
0.0732122
0.0734239
0.0736146
0.0737946
0.0739515
0.0740939
0.0742108
0.0743108
0.074383
0.0744264
0.0744443
0.0744464
0.0743983
0.0743286
0.0742117
0.0740641
0.0738673
0.0736322
0.0733445
0.0730116
0.0726221
0.0721812
0.0716798
0.0711219
0.0705018
0.069821
0.069073
0.0682653
0.0673873
0.0664488
0.0654389
0.0643686
0.0632317
0.0620365
0.0607763
0.0594612
0.0580852
0.056658
0.0551757
0.053647
0.0520702
0.0504527
0.0487946
0.047102
0.0453761
0.0436219
0.0418416
0.040042
0.0382303
0.0364057
0.0345753
0.032738
0.0309017
0.0290653
0.0272382
0.0254198
0.0236209
0.0218429
0.0200972
0.0183881
0.0167067
0.0150772
0.0134978
0.0119942
0.0105713
0.00927588
0.00808103
0.00708221
0.00635311
0.00603075
0.00600367
0.061415
0.0619154
0.0621441
0.0625672
0.0628655
0.0632694
0.063605
0.0639967
0.064355
0.0647405
0.0651133
0.0654966
0.0658791
0.0662623
0.0666514
0.0670358
0.0674292
0.0678152
0.0682111
0.0685982
0.0689948
0.0693821
0.0697776
0.0701629
0.0705537
0.0709332
0.0713141
0.0716801
0.0720404
0.0723944
0.0727501
0.073099
0.0734489
0.0737923
0.0741368
0.0744751
0.0748087
0.0751335
0.0754523
0.075762
0.0760631
0.0763502
0.0766288
0.07689
0.0771398
0.077369
0.077583
0.0777735
0.0779443
0.0780884
0.0782079
0.0782962
0.0783456
0.0783655
0.0783668
0.0783051
0.0782237
0.0780801
0.0779026
0.0776591
0.0773687
0.0770056
0.0765815
0.0760745
0.0754928
0.0748263
0.0740723
0.0732272
0.0722839
0.0712426
0.0700958
0.0688475
0.067491
0.0660333
0.0644694
0.0628088
0.0610479
0.0591957
0.0572501
0.0552187
0.0530992
0.0508966
0.0486071
0.0462332
0.043769
0.0412151
0.038568
0.0358268
0.0329964
0.0301001
0.0271375
0.0241301
0.0211027
0.018102
0.0152345
0.012514
0.0101231
0.00808826
0.00662579
0.00592598
0.0563068
0.0567396
0.0569383
0.0572957
0.0575426
0.0578866
0.0581623
0.0584975
0.0587933
0.0591241
0.0594347
0.0597644
0.0600864
0.0604174
0.0607484
0.061082
0.0614201
0.0617569
0.0621006
0.0624407
0.0627885
0.0631314
0.0634817
0.0638264
0.0641776
0.0645231
0.0648739
0.0652197
0.0655712
0.0659218
0.0662786
0.0666351
0.0669973
0.0673589
0.0677245
0.0680888
0.0684591
0.068829
0.0692028
0.0695769
0.0699535
0.07033
0.0707083
0.0710853
0.071463
0.0718379
0.0722124
0.072584
0.0729528
0.0733143
0.0736683
0.0740088
0.0743333
0.0746357
0.0749058
0.0751273
0.0753516
0.0755375
0.0757139
0.0758526
0.0759747
0.0760619
0.0761328
0.0761715
0.076188
0.0761782
0.076101
0.075995
0.0758224
0.0756056
0.075319
0.0749746
0.0745442
0.0740387
0.0734289
0.0727189
0.07188
0.0709104
0.0697827
0.0684912
0.0670114
0.0653376
0.0634502
0.0613459
0.0590126
0.0564515
0.0536554
0.0506284
0.0473802
0.0438997
0.0401618
0.0361356
0.0318189
0.027227
0.0225284
0.0182216
0.0144571
0.011625
0.00943527
0.00727335
0.0498886
0.050177
0.0503095
0.050549
0.0506986
0.0509361
0.0511016
0.0513339
0.0515147
0.0517424
0.0519364
0.0521614
0.0523664
0.0525903
0.0528041
0.0530282
0.0532487
0.0534737
0.0536993
0.0539255
0.0541545
0.0543819
0.0546131
0.0548417
0.0550746
0.0553047
0.0555396
0.0557726
0.0560117
0.0562504
0.0564953
0.056741
0.0569925
0.0572454
0.0575039
0.0577644
0.058031
0.0583001
0.0585755
0.058854
0.0591389
0.0594278
0.0597232
0.0600237
0.0603312
0.0606447
0.0609642
0.061286
0.0616112
0.0619365
0.0622621
0.0625848
0.0629043
0.0632178
0.0635253
0.0638294
0.06414
0.0644424
0.0647478
0.0650374
0.0653169
0.0655634
0.0657753
0.0659822
0.0661562
0.066327
0.0664651
0.0665941
0.0666869
0.0667514
0.0667787
0.066783
0.0667142
0.0665976
0.066399
0.0661245
0.0657457
0.0652607
0.0646439
0.0638893
0.0629739
0.0618905
0.0606199
0.0591569
0.0574896
0.0556139
0.0534884
0.0511059
0.0482983
0.0450572
0.0412829
0.0369484
0.032228
0.0273561
0.0224814
0.0180642
0.0146144
0.012239
0.0107417
0.00922557
0.0310471
0.031075
0.0310741
0.0310556
0.0310311
0.0310106
0.0309766
0.0309551
0.0309172
0.0308939
0.0308547
0.0308286
0.0307889
0.0307595
0.0307193
0.0306864
0.0306455
0.030609
0.0305669
0.0305268
0.0304831
0.0304397
0.030394
0.0303476
0.0303
0.030251
0.0302016
0.0301506
0.0300997
0.030047
0.0299945
0.02994
0.0298856
0.0298292
0.0297729
0.0297147
0.0296563
0.0295962
0.0295359
0.0294737
0.0294112
0.0293469
0.0292818
0.0292147
0.0291463
0.0290753
0.0290017
0.0289242
0.0288432
0.0287573
0.0286668
0.0285707
0.0284694
0.0283622
0.0282497
0.0281322
0.0280084
0.0278749
0.0277319
0.0275729
0.0273977
0.0271984
0.0269769
0.0267519
0.0265079
0.0262613
0.025997
0.025727
0.0254388
0.0251407
0.0248257
0.0244964
0.0241414
0.0237705
0.0233706
0.0229486
0.0224948
0.0220135
0.0214977
0.0209505
0.0203673
0.0197508
0.0190984
0.0184126
0.0176906
0.0169263
0.0160929
0.0151383
0.0140392
0.0127602
0.0112014
0.0092875
0.00709154
0.00497246
0.0030172
0.0023224
0.00260781
0.00527983
0.00862411
0.00984806
0.00947212
0.00467546
0.00403038
0.00390131
0.003873
0.00389706
0.00381777
0.0037807
0.00376599
0.00376304
0.00378538
0.0038567
0.00413374
0.00471661
0.00547361
0.00655149
0.00691986
0.00690152
0.00576432
0.00340336
0.00777597
0.00468051
0.00428941
0.00419008
0.0041662
0.00404596
0.00396684
0.00393219
0.00392033
0.00392274
0.00397607
0.0041637
0.00455775
0.00514163
0.00621975
0.00686832
0.00700427
0.00675931
0.00519349
0.00278338
0.00621353
0.00478473
0.00460505
0.00454122
0.00436895
0.00426778
0.00420001
0.00417289
0.00416485
0.00417778
0.00430535
0.00456686
0.00505125
0.00599181
0.00679636
0.00704948
0.00703849
0.0064784
0.0045632
0.0021515
0.00579532
0.00511615
0.00503439
0.00479459
0.00463722
0.00452196
0.00446459
0.00444045
0.00443822
0.00454004
0.00476567
0.00519768
0.00606565
0.00686912
0.00719455
0.00725454
0.00697768
0.00602641
0.00378342
0.00154574
0.00591798
0.00548176
0.00534366
0.00505443
0.00493989
0.00486753
0.00484965
0.00488372
0.00500283
0.00528657
0.00568674
0.00651134
0.00718434
0.00748878
0.00757513
0.00739536
0.00678094
0.00540388
0.00293364
0.00101683
0.00628495
0.00593546
0.00580198
0.00561785
0.00558592
0.00559522
0.0057222
0.00595468
0.00637538
0.00689935
0.00751984
0.00800101
0.00820619
0.00824935
0.0079624
0.00732548
0.00637033
0.00458508
0.00189421
0.000563301
0.00721771
0.00709203
0.00707661
0.00710613
0.00738152
0.00770535
0.00825427
0.00895542
0.00962917
0.00982948
0.00989419
0.00975115
0.00942383
0.00883857
0.00801795
0.0070766
0.0056397
0.00347322
0.00115003
0.000252313
0.0108621
0.0113021
0.0118071
0.0124666
0.0134255
0.0144112
0.0148912
0.0150414
0.0140099
0.0134137
0.0123212
0.0115318
0.0103087
0.00917561
0.00784241
0.00644443
0.00445349
0.00225024
0.000647261
9.16092e-05
0.025265
0.0257448
0.0259474
0.0259468
0.0252506
0.0238892
0.0222306
0.0199617
0.0182195
0.016276
0.014474
0.0126667
0.0107303
0.00894359
0.00708499
0.00503923
0.00296926
0.00131867
0.000391758
4.00086e-05
0.0411715
0.0393902
0.0374187
0.0346251
0.032085
0.0284952
0.0258711
0.0226997
0.0203169
0.0174358
0.0151817
0.0124496
0.0101211
0.00733273
0.00514399
0.00312071
0.00187736
0.000884091
0.000350569
6.50018e-05
0.0379904
0.0364541
0.0348563
0.0323789
0.0302125
0.0269074
0.0244915
0.0215862
0.0194242
0.0167683
0.0147785
0.0121861
0.0102338
0.00744181
0.00539483
0.00310424
0.00180205
0.000750303
0.00025995
5.23318e-05
0.0200741
0.020998
0.02151
0.0217636
0.0218466
0.0211282
0.0199248
0.018058
0.0167583
0.0149664
0.0137685
0.0119433
0.010608
0.00878976
0.00721132
0.00517094
0.00295903
0.00116484
0.000287746
3.58094e-05
0.00946948
0.00966784
0.0100748
0.010541
0.0113327
0.0122473
0.0130359
0.0133466
0.0131646
0.0122415
0.0117934
0.0108632
0.0100321
0.00897734
0.00781883
0.00648793
0.00455742
0.00224245
0.000567783
4.68005e-05
0.00684754
0.00666585
0.00661098
0.00658455
0.00675569
0.00699578
0.00742293
0.00801575
0.00879483
0.00916508
0.00934176
0.00940907
0.00914889
0.00870826
0.00794771
0.00707115
0.00567302
0.00352857
0.00107305
0.0001281
0.00610516
0.00576917
0.00563753
0.00543522
0.0053852
0.00537135
0.00545264
0.0056264
0.00598677
0.00644101
0.00713017
0.00772805
0.00801539
0.0080939
0.00792636
0.00731051
0.00639041
0.00465259
0.00191451
0.000436379
0.00578566
0.00538278
0.00525308
0.00496859
0.00485179
0.00476943
0.00474353
0.00475528
0.00485444
0.00509655
0.00547527
0.00624605
0.00702852
0.00738819
0.00749131
0.00738726
0.00679473
0.005455
0.00300737
0.000935982
0.00568074
0.00502076
0.00494889
0.00474284
0.00458531
0.0044732
0.00440754
0.00437797
0.00436941
0.00445257
0.00466645
0.00506568
0.00588478
0.00677831
0.00715345
0.00722409
0.00698924
0.0060715
0.00385907
0.00151303
0.00617959
0.00473037
0.00453187
0.00446447
0.00432381
0.00421874
0.00415383
0.00412717
0.00411931
0.00412853
0.00424297
0.00449675
0.00495643
0.00585768
0.00674295
0.007038
0.00704405
0.00651481
0.00463972
0.00215798
0.00780344
0.00465312
0.0042562
0.00414804
0.00411559
0.00402183
0.00393533
0.00389757
0.00388536
0.00388758
0.00393735
0.00410984
0.00449866
0.00507859
0.00613665
0.00684598
0.0070024
0.00678694
0.00525779
0.0028172
0.00947295
0.0046525
0.00399466
0.00386813
0.00383841
0.00385245
0.00379728
0.0037542
0.0037392
0.00373603
0.00375839
0.00382653
0.00407901
0.0046402
0.00541969
0.00652191
0.00691887
0.00692007
0.00582756
0.00344994
0.00397117
0.00375019
0.00374679
0.0037468
0.00374652
0.00374628
0.00374612
0.00374604
0.003746
0.00374598
0.00374598
0.003746
0.00374604
0.00374612
0.00374628
0.00374652
0.0037468
0.00374679
0.00375019
0.00397118
0.00441489
0.00375346
0.00374141
0.00374096
0.00374056
0.00374012
0.00373987
0.00373975
0.00373969
0.00373966
0.00373966
0.00373969
0.00373975
0.00373987
0.00374012
0.00374056
0.00374096
0.00374141
0.00375346
0.00441489
0.00485939
0.00376059
0.00373287
0.00373264
0.00373284
0.00373273
0.00373256
0.00373242
0.00373235
0.00373231
0.00373231
0.00373235
0.00373242
0.00373256
0.00373273
0.00373284
0.00373264
0.00373286
0.00376058
0.0048594
0.00530178
0.00377206
0.0037243
0.00372396
0.00372492
0.00372524
0.00372525
0.00372519
0.00372514
0.00372512
0.00372512
0.00372514
0.00372519
0.00372525
0.00372524
0.00372492
0.00372396
0.0037243
0.00377207
0.00530178
0.00573925
0.00378544
0.00371551
0.00371483
0.00371665
0.00371758
0.00371789
0.00371795
0.00371795
0.00371795
0.00371795
0.00371795
0.00371795
0.00371789
0.00371758
0.00371665
0.00371483
0.0037155
0.00378544
0.00573925
0.00617058
0.00379767
0.00370577
0.0037051
0.003708
0.00370969
0.00371043
0.0037107
0.00371078
0.0037108
0.0037108
0.00371078
0.0037107
0.00371043
0.00370969
0.003708
0.0037051
0.00370577
0.00379767
0.00617058
0.00659185
0.00380847
0.00369498
0.00369474
0.00369894
0.00370155
0.00370284
0.0037034
0.00370361
0.00370368
0.00370368
0.00370361
0.0037034
0.00370284
0.00370155
0.00369894
0.00369474
0.00369498
0.00380847
0.00659185
0.00700084
0.00381671
0.00368272
0.00368362
0.00368941
0.00369311
0.00369508
0.00369602
0.00369642
0.00369656
0.00369656
0.00369642
0.00369602
0.00369508
0.00369311
0.00368941
0.00368362
0.00368272
0.00381671
0.00700084
0.00739336
0.00382333
0.00366915
0.00367174
0.00367942
0.00368437
0.00368714
0.00368854
0.00368919
0.00368943
0.00368943
0.00368919
0.00368854
0.00368714
0.00368437
0.00367942
0.00367174
0.00366915
0.00382334
0.00739336
0.00776768
0.00382735
0.00365405
0.00365903
0.00366893
0.00367532
0.00367898
0.00368095
0.0036819
0.00368228
0.00368228
0.0036819
0.00368095
0.00367898
0.00367532
0.00366893
0.00365903
0.00365405
0.00382735
0.00776768
0.00812024
0.00383021
0.00363764
0.00364552
0.00365794
0.00366592
0.00367061
0.00367321
0.00367453
0.00367507
0.00367507
0.00367453
0.00367321
0.00367061
0.00366592
0.00365794
0.00364552
0.00363764
0.00383021
0.00812024
0.00845034
0.00383068
0.00361989
0.00363122
0.00364645
0.0036562
0.00366201
0.00366531
0.00366705
0.00366779
0.00366779
0.00366705
0.00366531
0.00366201
0.0036562
0.00364645
0.00363122
0.00361989
0.00383069
0.00845034
0.00875525
0.00383018
0.0036009
0.00361613
0.00363446
0.00364613
0.00365316
0.00365725
0.00365946
0.00366041
0.00366041
0.00365946
0.00365725
0.00365316
0.00364613
0.00363446
0.00361613
0.0036009
0.00383019
0.00875524
0.00903545
0.00382886
0.00358085
0.00360032
0.00362199
0.00363573
0.00364408
0.00364901
0.00365173
0.00365292
0.00365292
0.00365173
0.00364901
0.00364408
0.00363573
0.00362199
0.00360032
0.00358085
0.00382886
0.00903544
0.00928895
0.00382647
0.00355981
0.0035838
0.00360904
0.003625
0.00363475
0.00364059
0.00364385
0.00364531
0.00364531
0.00364385
0.00364059
0.00363475
0.003625
0.00360904
0.0035838
0.00355981
0.00382648
0.00928894
0.00951739
0.0038234
0.00353794
0.00356664
0.00359565
0.00361394
0.00362518
0.00363197
0.00363582
0.00363755
0.00363755
0.00363582
0.00363197
0.00362518
0.00361394
0.00359565
0.00356664
0.00353793
0.0038234
0.00951738
0.00971929
0.00382011
0.00351531
0.00354885
0.00358181
0.00360255
0.00361535
0.00362316
0.00362762
0.00362964
0.00362964
0.00362762
0.00362316
0.00361535
0.00360255
0.00358181
0.00354885
0.00351532
0.00382011
0.00971928
0.00989731
0.00381663
0.00349216
0.00353055
0.00356758
0.00359087
0.00360529
0.00361414
0.00361924
0.00362157
0.00362157
0.00361924
0.00361414
0.00360529
0.00359087
0.00356757
0.00353055
0.00349216
0.00381663
0.0098973
0.0100502
0.00381347
0.00346849
0.0035117
0.00355293
0.00357887
0.00359499
0.00360492
0.00361068
0.00361332
0.00361332
0.00361068
0.00360492
0.00359499
0.00357888
0.00355293
0.0035117
0.0034685
0.00381347
0.0100502
0.0101815
0.00381057
0.00344463
0.00349248
0.00353795
0.0035666
0.00358445
0.0035955
0.00360193
0.0036049
0.0036049
0.00360193
0.0035955
0.00358445
0.0035666
0.00353795
0.00349247
0.00344462
0.00381057
0.0101815
0.0102898
0.00380853
0.00342045
0.00347279
0.0035226
0.00355404
0.00357367
0.00358587
0.003593
0.0035963
0.0035963
0.003593
0.00358587
0.00357367
0.00355404
0.0035226
0.0034728
0.00342047
0.00380853
0.0102897
0.0103794
0.00380714
0.00339644
0.00345288
0.00350698
0.00354123
0.00356267
0.00357603
0.00358387
0.00358751
0.00358751
0.00358387
0.00357603
0.00356267
0.00354123
0.00350697
0.00345287
0.00339643
0.00380714
0.0103794
0.0104486
0.00380736
0.00337228
0.00343259
0.00349103
0.00352816
0.00355145
0.003566
0.00357455
0.00357853
0.00357853
0.00357455
0.003566
0.00355145
0.00352816
0.00349103
0.0034326
0.00337231