/*--------------------------------*- C++ -*----------------------------------*\
| =========                 |                                                 |
| \\      /  F ield         | OpenFOAM: The Open Source CFD Toolbox           |
|  \\    /   O peration     | Version:  2.1.0                                 |
|   \\  /    A nd           | Web:      www.OpenFOAM.org                      |
|    \\/     M anipulation  |                                                 |
\*---------------------------------------------------------------------------*/
FoamFile
{
    version     2.0;
    format      ascii;
    class       volScalarField;
    location    "0.42";
    object      nut;
}
// * * * * * * * * * * * * * * * * * * * * * * * * * * * * * * * * * * * * * //

dimensions      [0 2 -1 0 0 0 0];

internalField   nonuniform List<scalar> 
6400
(
7.085e-06
7.1036e-06
7.11576e-06
7.13147e-06
7.14553e-06
7.16361e-06
7.17837e-06
7.19745e-06
7.21292e-06
7.23281e-06
7.24907e-06
7.2694e-06
7.28661e-06
7.30724e-06
7.32547e-06
7.34637e-06
7.36562e-06
7.38686e-06
7.40715e-06
7.42886e-06
7.45021e-06
7.47257e-06
7.49503e-06
7.51824e-06
7.54191e-06
7.56615e-06
7.59105e-06
7.61644e-06
7.64266e-06
7.6693e-06
7.69687e-06
7.72488e-06
7.75388e-06
7.78336e-06
7.81386e-06
7.84491e-06
7.87701e-06
7.90971e-06
7.94347e-06
7.97783e-06
8.01311e-06
8.04891e-06
8.08553e-06
8.12257e-06
8.16026e-06
8.19824e-06
8.23664e-06
8.27519e-06
8.31395e-06
8.35272e-06
8.39148e-06
8.43006e-06
8.46823e-06
8.50515e-06
8.54026e-06
8.57281e-06
8.60382e-06
8.63572e-06
8.66636e-06
8.69757e-06
8.72794e-06
8.75904e-06
8.78975e-06
8.82111e-06
8.85185e-06
8.88323e-06
8.91393e-06
8.94505e-06
8.97463e-06
9.00328e-06
9.03085e-06
9.05655e-06
9.08083e-06
9.10304e-06
9.12372e-06
9.14291e-06
9.16143e-06
9.18033e-06
9.20116e-06
9.22624e-06
9.25797e-06
9.29915e-06
9.35015e-06
9.4047e-06
9.45283e-06
9.51682e-06
9.58396e-06
9.6464e-06
9.68131e-06
9.64345e-06
9.44586e-06
8.91942e-06
7.8247e-06
5.96932e-06
3.45773e-06
2.31937e-06
2.40664e-06
3.78139e-06
3.87706e-06
4.1829e-06
7.53497e-05
7.58144e-05
7.59053e-05
7.62086e-05
7.63115e-05
7.65655e-05
7.66889e-05
7.69097e-05
7.70502e-05
7.72476e-05
7.73993e-05
7.75793e-05
7.77364e-05
7.79028e-05
7.80601e-05
7.8215e-05
7.83685e-05
7.85127e-05
7.86594e-05
7.87929e-05
7.89305e-05
7.90534e-05
7.91807e-05
7.9294e-05
7.94114e-05
7.95166e-05
7.9625e-05
7.97215e-05
7.98201e-05
7.99071e-05
7.99944e-05
8.00706e-05
8.0145e-05
8.02084e-05
8.02678e-05
8.03159e-05
8.03576e-05
8.03869e-05
8.04114e-05
8.04251e-05
8.04309e-05
8.04223e-05
8.04022e-05
8.03656e-05
8.03132e-05
8.02408e-05
8.01473e-05
8.00293e-05
7.98844e-05
7.97098e-05
7.95031e-05
7.92629e-05
7.89951e-05
7.86961e-05
7.83569e-05
7.78948e-05
7.71963e-05
7.64665e-05
7.56867e-05
7.48696e-05
7.40028e-05
7.31014e-05
7.21528e-05
7.11727e-05
7.01424e-05
6.90748e-05
6.79565e-05
6.68016e-05
6.55951e-05
6.43278e-05
6.30062e-05
6.16205e-05
6.01706e-05
5.8652e-05
5.70623e-05
5.54005e-05
5.36648e-05
5.18574e-05
4.9979e-05
4.80353e-05
4.603e-05
4.39733e-05
4.18741e-05
3.97377e-05
3.75448e-05
3.52636e-05
3.28988e-05
3.04303e-05
2.78519e-05
2.51588e-05
2.23684e-05
1.95166e-05
1.66846e-05
1.4017e-05
1.15056e-05
9.23622e-06
7.49498e-06
6.29031e-06
5.6797e-06
6.86452e-06
0.000115248
0.000115518
0.000115626
0.000115744
0.000115838
0.000115916
0.000116
0.000116049
0.000116121
0.000116146
0.000116201
0.000116203
0.000116238
0.000116216
0.000116226
0.000116179
0.000116159
0.000116085
0.000116032
0.000115928
0.000115839
0.000115701
0.00011557
0.000115397
0.000115227
0.00011502
0.000114818
0.000114582
0.000114345
0.000114077
0.000113804
0.000113503
0.000113192
0.000112854
0.000112503
0.000112127
0.000111735
0.000111317
0.000110872
0.000110397
0.0001099
0.000109371
0.000108814
0.000108224
0.000107599
0.000106937
0.000106233
0.000105486
0.000104689
0.000103836
0.000102923
0.000101741
0.000100238
9.8701e-05
9.71158e-05
9.55037e-05
9.38556e-05
9.21793e-05
9.04679e-05
8.87266e-05
8.69628e-05
8.5187e-05
8.33475e-05
8.14979e-05
7.95985e-05
7.76826e-05
7.5725e-05
7.37484e-05
7.1736e-05
6.97027e-05
6.76361e-05
6.55448e-05
6.34197e-05
6.12657e-05
5.90755e-05
5.68526e-05
5.45916e-05
5.22966e-05
4.99648e-05
4.76022e-05
4.521e-05
4.27974e-05
4.03694e-05
3.79383e-05
3.55173e-05
3.31351e-05
3.07935e-05
2.85157e-05
2.62994e-05
2.4157e-05
2.20592e-05
2.00272e-05
1.80327e-05
1.59904e-05
1.39455e-05
1.19366e-05
1.01365e-05
8.62491e-06
8.12542e-06
1.13129e-05
0.000137185
0.00013691
0.000136806
0.000136541
0.000136437
0.000136144
0.000136014
0.000135702
0.000135535
0.000135205
0.000134997
0.000134647
0.000134396
0.000134022
0.000133728
0.000133327
0.000132986
0.000132555
0.000132166
0.000131697
0.000131257
0.000130746
0.00013025
0.000129684
0.000129055
0.000128032
0.000127
0.000125925
0.000124839
0.000123716
0.00012258
0.000121409
0.000120221
0.000119001
0.00011776
0.000116487
0.000115192
0.000113865
0.000112516
0.000111134
0.000109724
0.000108288
0.000106819
0.000105325
0.000103799
0.000102246
0.000100662
9.90513e-05
9.74104e-05
9.57362e-05
9.40382e-05
9.23371e-05
9.0599e-05
8.88495e-05
8.7072e-05
8.52836e-05
8.34706e-05
8.16414e-05
7.97849e-05
7.79078e-05
7.60029e-05
7.40792e-05
7.21304e-05
7.01666e-05
6.81791e-05
6.61802e-05
6.41619e-05
6.21372e-05
6.01005e-05
5.80648e-05
5.60265e-05
5.39983e-05
5.19793e-05
4.99808e-05
4.8003e-05
4.60563e-05
4.41402e-05
4.22635e-05
4.04244e-05
3.86282e-05
3.68708e-05
3.51541e-05
3.34666e-05
3.18089e-05
3.01887e-05
2.85735e-05
2.69698e-05
2.53697e-05
2.37664e-05
2.21527e-05
2.05242e-05
1.88771e-05
1.72011e-05
1.54752e-05
1.37082e-05
1.19826e-05
1.05108e-05
9.77576e-06
1.19116e-05
1.2061e-05
0.000139502
0.000139603
0.000139349
0.000139202
0.000138447
0.000137857
0.000136956
0.000136174
0.000135224
0.000134337
0.000133358
0.0001324
0.000131392
0.000130378
0.000129336
0.000128273
0.000127193
0.000126081
0.000124958
0.000123798
0.000122629
0.000121422
0.000120204
0.00011895
0.000117682
0.000116393
0.000115088
0.000113755
0.00011241
0.000111038
0.000109655
0.000108245
0.000106823
0.000105376
0.000103916
0.000102432
0.000100934
9.94046e-05
9.78698e-05
9.63305e-05
9.47492e-05
9.31699e-05
9.156e-05
8.99458e-05
8.83083e-05
8.66644e-05
8.50026e-05
8.33346e-05
8.1654e-05
7.99696e-05
7.82786e-05
7.65858e-05
7.4888e-05
7.31885e-05
7.14824e-05
6.97771e-05
6.80726e-05
6.63733e-05
6.46789e-05
6.29939e-05
6.1318e-05
5.96561e-05
5.80078e-05
5.63781e-05
5.47657e-05
5.31757e-05
5.1606e-05
5.0061e-05
4.85377e-05
4.70396e-05
4.55585e-05
4.41026e-05
4.26759e-05
4.12553e-05
3.98615e-05
3.84753e-05
3.71061e-05
3.57395e-05
3.43812e-05
3.30183e-05
3.16541e-05
3.0281e-05
2.89005e-05
2.75122e-05
2.61185e-05
2.4719e-05
2.33264e-05
2.19342e-05
2.05614e-05
1.92069e-05
1.78881e-05
1.66048e-05
1.53775e-05
1.41907e-05
1.3101e-05
1.22695e-05
1.20806e-05
1.37497e-05
1.37874e-05
1.41356e-05
0.000126472
0.000125852
0.00012545
0.00012492
0.000124007
0.000123116
0.00012204
0.000120994
0.000119858
0.000118735
0.00011757
0.000116399
0.000115213
0.000114008
0.000112801
0.000111569
0.000110343
0.000109087
0.000107843
0.000106568
0.0001053
0.000104012
0.000102725
0.000101435
0.000100123
9.8809e-05
9.74787e-05
9.61378e-05
9.47906e-05
9.34291e-05
9.20629e-05
9.06817e-05
8.92969e-05
8.78978e-05
8.64964e-05
8.50825e-05
8.36675e-05
8.22428e-05
8.082e-05
7.9389e-05
7.79603e-05
7.65304e-05
7.51022e-05
7.36774e-05
7.22565e-05
7.0842e-05
6.94338e-05
6.80346e-05
6.66442e-05
6.52645e-05
6.38949e-05
6.25361e-05
6.11884e-05
5.98528e-05
5.85287e-05
5.72173e-05
5.59176e-05
5.46357e-05
5.33692e-05
5.2113e-05
5.08734e-05
4.96432e-05
4.84261e-05
4.72171e-05
4.60184e-05
4.48267e-05
4.36428e-05
4.24648e-05
4.1293e-05
4.01263e-05
3.89651e-05
3.78112e-05
3.6665e-05
3.55258e-05
3.43953e-05
3.32708e-05
3.21582e-05
3.10541e-05
2.99694e-05
2.88963e-05
2.78436e-05
2.68069e-05
2.57934e-05
2.47995e-05
2.38314e-05
2.28852e-05
2.19608e-05
2.10609e-05
2.01982e-05
1.93721e-05
1.85996e-05
1.78875e-05
1.72647e-05
1.67651e-05
1.65202e-05
1.66369e-05
1.60618e-05
1.5818e-05
1.57931e-05
1.32098e-05
0.000110999
0.000109831
0.000109291
0.000108433
0.000107509
0.000106434
0.000105365
0.000104207
0.000103082
0.000101893
0.000100746
9.95447e-05
9.83867e-05
9.71811e-05
9.60176e-05
9.48116e-05
9.36458e-05
9.24428e-05
9.12781e-05
9.00815e-05
8.89223e-05
8.77389e-05
8.65829e-05
8.5405e-05
8.42558e-05
8.30884e-05
8.19448e-05
8.079e-05
7.9656e-05
7.85135e-05
7.73892e-05
7.62587e-05
7.51446e-05
7.40261e-05
7.29226e-05
7.1816e-05
7.07229e-05
6.96278e-05
6.85448e-05
6.74562e-05
6.63825e-05
6.53145e-05
6.42486e-05
6.31908e-05
6.21367e-05
6.10894e-05
6.00464e-05
5.90092e-05
5.79766e-05
5.69501e-05
5.59279e-05
5.49124e-05
5.39021e-05
5.29e-05
5.19069e-05
5.09223e-05
4.99398e-05
4.89681e-05
4.80034e-05
4.70488e-05
4.61055e-05
4.51733e-05
4.42555e-05
4.33509e-05
4.24624e-05
4.15884e-05
4.07404e-05
3.99086e-05
3.91039e-05
3.8318e-05
3.75607e-05
3.68228e-05
3.61103e-05
3.54172e-05
3.47487e-05
3.40979e-05
3.34689e-05
3.28526e-05
3.22559e-05
3.12929e-05
3.03407e-05
2.93931e-05
2.84662e-05
2.7545e-05
2.66456e-05
2.57536e-05
2.48851e-05
2.40266e-05
2.31966e-05
2.23842e-05
2.16102e-05
2.08678e-05
2.01776e-05
1.95435e-05
1.90028e-05
1.85987e-05
1.83381e-05
1.8235e-05
1.89303e-05
1.49388e-05
0.000100182
9.84324e-05
9.78774e-05
9.68011e-05
9.59562e-05
9.47926e-05
9.38417e-05
9.26763e-05
9.16941e-05
9.05573e-05
8.9577e-05
8.84773e-05
8.75092e-05
8.64458e-05
8.54926e-05
8.44612e-05
8.35222e-05
8.25175e-05
8.15901e-05
8.0606e-05
7.96863e-05
7.86541e-05
7.74161e-05
7.61318e-05
7.49e-05
7.36424e-05
7.24525e-05
7.12314e-05
7.00817e-05
6.89059e-05
6.7804e-05
6.66812e-05
6.56336e-05
6.457e-05
6.35805e-05
6.25786e-05
6.16504e-05
6.07135e-05
5.98487e-05
5.89786e-05
5.81771e-05
5.7371e-05
5.66293e-05
5.58821e-05
5.51967e-05
5.45054e-05
5.38719e-05
5.32321e-05
5.26454e-05
5.20516e-05
5.15046e-05
5.09524e-05
5.04362e-05
4.99138e-05
4.94207e-05
4.89233e-05
4.84468e-05
4.79647e-05
4.7494e-05
4.70149e-05
4.65417e-05
4.60574e-05
4.55742e-05
4.50691e-05
4.4569e-05
4.40732e-05
4.35488e-05
4.30387e-05
4.25105e-05
4.19932e-05
4.14602e-05
4.09358e-05
4.03978e-05
3.98662e-05
3.93227e-05
3.87836e-05
3.82337e-05
3.76862e-05
3.71295e-05
3.65704e-05
3.60005e-05
3.54188e-05
3.48221e-05
3.42084e-05
3.35744e-05
3.29172e-05
3.22343e-05
3.15226e-05
3.07825e-05
3.00155e-05
2.92286e-05
2.84324e-05
2.76465e-05
2.68966e-05
2.62759e-05
2.58149e-05
2.54372e-05
2.56052e-05
2.61384e-05
2.05166e-05
8.32408e-05
8.11671e-05
8.03256e-05
7.87604e-05
7.78848e-05
7.64278e-05
7.55245e-05
7.41687e-05
7.3249e-05
7.19608e-05
7.10712e-05
6.98406e-05
6.89797e-05
6.78103e-05
6.69818e-05
6.58763e-05
6.50846e-05
6.40453e-05
6.32947e-05
6.23237e-05
6.16189e-05
6.07185e-05
6.00643e-05
5.92447e-05
5.86481e-05
5.79102e-05
5.73744e-05
5.67144e-05
5.62399e-05
5.56543e-05
5.5239e-05
5.47237e-05
5.43632e-05
5.3914e-05
5.36037e-05
5.32174e-05
5.29516e-05
5.26223e-05
5.23945e-05
5.21157e-05
5.19197e-05
5.16822e-05
5.15128e-05
5.13085e-05
5.11607e-05
5.09822e-05
5.08503e-05
5.06817e-05
5.05621e-05
5.04416e-05
5.03108e-05
5.01922e-05
5.00532e-05
4.99593e-05
4.98391e-05
4.97517e-05
4.96478e-05
4.95682e-05
4.94823e-05
4.94154e-05
4.93477e-05
4.92955e-05
4.9246e-05
4.92089e-05
4.91774e-05
4.91554e-05
4.91428e-05
4.91393e-05
4.91436e-05
4.91571e-05
4.91783e-05
4.92083e-05
4.92454e-05
4.92906e-05
4.93422e-05
4.94006e-05
4.94639e-05
4.95316e-05
4.96015e-05
4.96735e-05
4.97432e-05
4.9809e-05
4.98661e-05
4.99106e-05
4.99366e-05
4.99379e-05
4.99073e-05
4.98358e-05
4.97148e-05
4.9538e-05
4.92997e-05
4.89987e-05
4.86396e-05
4.8234e-05
4.78106e-05
4.74509e-05
4.73194e-05
4.74431e-05
4.79839e-05
3.97779e-05
7.41402e-05
7.22814e-05
7.15371e-05
7.01402e-05
6.94389e-05
6.81228e-05
6.74605e-05
6.6232e-05
6.56075e-05
6.44704e-05
6.3887e-05
6.28393e-05
6.23004e-05
6.13409e-05
6.08482e-05
5.9975e-05
5.95298e-05
5.87403e-05
5.83429e-05
5.76339e-05
5.72839e-05
5.66517e-05
5.63477e-05
5.57881e-05
5.55271e-05
5.50349e-05
5.48133e-05
5.4383e-05
5.41972e-05
5.38267e-05
5.36665e-05
5.33568e-05
5.32056e-05
5.29607e-05
5.28322e-05
5.26431e-05
5.25175e-05
5.23797e-05
5.22526e-05
5.21557e-05
5.20627e-05
5.19865e-05
5.19218e-05
5.18685e-05
5.1832e-05
5.18003e-05
5.17902e-05
5.17809e-05
5.17967e-05
5.18104e-05
5.18488e-05
5.18864e-05
5.19489e-05
5.20144e-05
5.21015e-05
5.21947e-05
5.23077e-05
5.24287e-05
5.25679e-05
5.27161e-05
5.28824e-05
5.30585e-05
5.32529e-05
5.34584e-05
5.36826e-05
5.39183e-05
5.41732e-05
5.44401e-05
5.47268e-05
5.50264e-05
5.53463e-05
5.568e-05
5.60352e-05
5.64057e-05
5.67986e-05
5.72088e-05
5.76428e-05
5.80963e-05
5.85756e-05
5.90769e-05
5.96063e-05
6.0161e-05
6.07472e-05
6.13631e-05
6.20146e-05
6.27013e-05
6.34296e-05
6.42004e-05
6.50227e-05
6.5898e-05
6.68364e-05
6.78417e-05
6.89245e-05
7.00905e-05
7.13477e-05
7.26885e-05
7.41033e-05
7.55654e-05
7.62896e-05
6.62037e-05
7.9361e-05
7.73624e-05
7.65626e-05
7.50458e-05
7.42713e-05
7.28418e-05
7.20939e-05
7.07564e-05
7.00386e-05
6.87965e-05
6.81126e-05
6.69685e-05
6.63215e-05
6.52762e-05
6.46735e-05
6.3721e-05
6.31681e-05
6.23043e-05
6.18038e-05
6.10247e-05
6.05771e-05
5.98785e-05
5.94829e-05
5.88599e-05
5.85138e-05
5.79612e-05
5.76614e-05
5.71737e-05
5.69159e-05
5.64872e-05
5.62667e-05
5.58913e-05
5.57025e-05
5.53756e-05
5.52125e-05
5.49285e-05
5.47855e-05
5.45345e-05
5.44015e-05
5.42115e-05
5.40725e-05
5.39324e-05
5.37976e-05
5.3658e-05
5.35664e-05
5.34511e-05
5.33802e-05
5.32887e-05
5.32386e-05
5.31708e-05
5.31419e-05
5.30984e-05
5.30913e-05
5.30734e-05
5.30876e-05
5.30945e-05
5.31341e-05
5.3168e-05
5.32332e-05
5.3294e-05
5.33835e-05
5.34724e-05
5.35881e-05
5.37054e-05
5.38489e-05
5.39952e-05
5.41671e-05
5.4343e-05
5.45437e-05
5.47498e-05
5.49799e-05
5.52166e-05
5.54769e-05
5.57452e-05
5.60366e-05
5.63377e-05
5.66625e-05
5.69992e-05
5.73605e-05
5.77363e-05
5.8138e-05
5.85573e-05
5.90047e-05
5.94733e-05
5.99728e-05
6.0498e-05
6.1058e-05
6.16487e-05
6.22783e-05
6.29435e-05
6.36532e-05
6.44116e-05
6.52371e-05
6.61343e-05
6.71287e-05
6.82363e-05
6.95036e-05
7.09011e-05
7.19397e-05
6.30757e-05
9.77393e-05
9.55391e-05
9.46338e-05
9.2934e-05
9.19678e-05
9.03577e-05
8.9339e-05
8.78077e-05
8.67496e-05
8.52957e-05
8.42042e-05
8.28291e-05
8.17172e-05
8.0391e-05
7.93119e-05
7.80304e-05
7.69838e-05
7.5754e-05
7.4745e-05
7.35724e-05
7.26059e-05
7.14947e-05
7.05756e-05
6.9529e-05
6.86613e-05
6.76816e-05
6.68664e-05
6.59564e-05
6.51988e-05
6.43571e-05
6.36581e-05
6.28846e-05
6.22446e-05
6.15381e-05
6.0955e-05
6.03114e-05
5.97823e-05
5.91986e-05
5.87201e-05
5.81924e-05
5.77591e-05
5.72825e-05
5.68836e-05
5.64499e-05
5.60824e-05
5.5684e-05
5.53424e-05
5.49718e-05
5.46494e-05
5.42997e-05
5.39908e-05
5.36553e-05
5.33434e-05
5.30233e-05
5.27417e-05
5.24172e-05
5.21435e-05
5.18338e-05
5.15682e-05
5.12889e-05
5.10179e-05
5.07342e-05
5.04859e-05
5.02165e-05
4.99787e-05
4.97229e-05
4.94947e-05
4.92537e-05
4.90372e-05
4.88061e-05
4.8593e-05
4.83654e-05
4.81518e-05
4.7921e-05
4.76988e-05
4.74568e-05
4.72177e-05
4.69558e-05
4.66914e-05
4.6401e-05
4.61052e-05
4.57819e-05
4.54485e-05
4.5086e-05
4.47098e-05
4.4304e-05
4.38828e-05
4.34341e-05
4.29737e-05
4.2491e-05
4.20047e-05
4.15011e-05
4.09955e-05
4.05171e-05
4.00984e-05
3.98029e-05
3.9727e-05
3.9992e-05
4.06348e-05
3.43478e-05
0.000105445
0.000103897
0.000103245
0.000102129
0.000101223
0.000100008
9.89883e-05
9.77579e-05
9.66973e-05
9.54854e-05
9.44163e-05
9.3234e-05
9.21704e-05
9.10172e-05
8.9966e-05
8.88406e-05
8.7803e-05
8.67042e-05
8.5681e-05
8.46072e-05
8.35989e-05
8.25487e-05
8.15557e-05
8.0527e-05
7.95479e-05
7.85342e-05
7.75734e-05
7.65843e-05
7.56322e-05
7.4661e-05
7.3724e-05
7.27716e-05
7.18502e-05
7.09165e-05
7.0012e-05
6.9099e-05
6.82016e-05
6.72901e-05
6.63951e-05
6.54912e-05
6.4604e-05
6.37131e-05
6.28402e-05
6.19678e-05
6.11157e-05
6.02673e-05
5.94434e-05
5.8626e-05
5.78364e-05
5.70539e-05
5.63007e-05
5.55575e-05
5.48439e-05
5.41412e-05
5.34668e-05
5.28073e-05
5.21812e-05
5.14971e-05
5.07589e-05
5.00119e-05
4.92793e-05
4.85365e-05
4.78032e-05
4.70522e-05
4.63065e-05
4.55407e-05
4.47788e-05
4.39914e-05
4.31952e-05
4.23971e-05
4.16105e-05
4.07909e-05
3.99937e-05
3.91684e-05
3.8365e-05
3.75376e-05
3.67314e-05
3.59059e-05
3.51018e-05
3.42831e-05
3.34803e-05
3.26652e-05
3.18685e-05
3.10649e-05
3.02834e-05
2.95011e-05
2.87383e-05
2.79802e-05
2.72482e-05
2.65314e-05
2.58526e-05
2.52066e-05
2.46183e-05
2.4085e-05
2.37037e-05
2.33918e-05
2.33636e-05
2.36381e-05
2.43806e-05
1.89165e-05
0.000119434
0.000118283
0.000117747
0.000116852
0.000115875
0.000114749
0.000113611
0.000112377
0.000111169
0.000109888
0.00010865
0.000107355
0.000106104
0.000104799
0.000103538
0.000102227
0.000100955
9.96375e-05
9.83559e-05
9.70334e-05
9.57432e-05
9.44173e-05
9.31208e-05
9.17955e-05
9.04934e-05
8.91675e-05
8.78647e-05
8.65403e-05
8.52367e-05
8.39155e-05
8.26147e-05
8.13001e-05
8.00043e-05
7.86984e-05
7.74109e-05
7.61172e-05
7.48436e-05
7.35678e-05
7.23108e-05
7.10533e-05
6.98127e-05
6.85728e-05
6.73465e-05
6.6125e-05
6.49218e-05
6.37133e-05
6.25243e-05
6.13326e-05
6.01576e-05
5.89833e-05
5.78244e-05
5.66676e-05
5.55249e-05
5.43857e-05
5.32603e-05
5.21398e-05
5.1035e-05
4.99386e-05
4.88591e-05
4.779e-05
4.67363e-05
4.56871e-05
4.46547e-05
4.36319e-05
4.26279e-05
4.16366e-05
4.06662e-05
3.97186e-05
3.87959e-05
3.78957e-05
3.70227e-05
3.61748e-05
3.53556e-05
3.45628e-05
3.37933e-05
3.305e-05
3.23293e-05
3.16338e-05
3.0959e-05
3.03065e-05
2.96671e-05
2.9048e-05
2.84391e-05
2.78471e-05
2.68372e-05
2.58606e-05
2.49061e-05
2.39969e-05
2.31145e-05
2.22818e-05
2.1483e-05
2.07423e-05
2.00425e-05
1.94166e-05
1.88197e-05
1.841e-05
1.81791e-05
1.79924e-05
1.87261e-05
1.44605e-05
0.000135905
0.000135264
0.000134846
0.000134258
0.000133279
0.000132294
0.00013113
0.000129977
0.000128745
0.000127509
0.000126244
0.00012496
0.000123669
0.000122348
0.000121032
0.00011968
0.000118338
0.000116958
0.00011559
0.000114185
0.000112793
0.000111366
0.000109935
0.000108495
0.000107065
0.000105596
0.000104147
0.000102667
0.000101203
9.97135e-05
9.82301e-05
9.67219e-05
9.52158e-05
9.36879e-05
9.21607e-05
9.0615e-05
8.9076e-05
8.75261e-05
8.59818e-05
8.44302e-05
8.28824e-05
8.1328e-05
7.97807e-05
7.82283e-05
7.66854e-05
7.51401e-05
7.36065e-05
7.20744e-05
7.05559e-05
6.90428e-05
6.75453e-05
6.60566e-05
6.45853e-05
6.31252e-05
6.16826e-05
6.02526e-05
5.88412e-05
5.74412e-05
5.6058e-05
5.46936e-05
5.33433e-05
5.20147e-05
5.07034e-05
4.94101e-05
4.81324e-05
4.68687e-05
4.56179e-05
4.43777e-05
4.31477e-05
4.19254e-05
4.07115e-05
3.95034e-05
3.83022e-05
3.71071e-05
3.5924e-05
3.47476e-05
3.35805e-05
3.24206e-05
3.12693e-05
3.01294e-05
2.90002e-05
2.78881e-05
2.67898e-05
2.57136e-05
2.46525e-05
2.36139e-05
2.25928e-05
2.15962e-05
2.0617e-05
1.96646e-05
1.87495e-05
1.78744e-05
1.70541e-05
1.63906e-05
1.59594e-05
1.61292e-05
1.60766e-05
1.58676e-05
1.58839e-05
1.31648e-05
0.000147627
0.000147744
0.000147467
0.000147257
0.00014644
0.000145752
0.000144771
0.000143885
0.000142849
0.000141859
0.000140793
0.000139736
0.00013864
0.00013753
0.000136402
0.000135246
0.000134082
0.000132883
0.000131681
0.00013044
0.000129197
0.000127915
0.000126629
0.000125308
0.000123979
0.000122614
0.000121243
0.000119835
0.000118429
0.000116994
0.00011555
0.000114078
0.000112598
0.000111093
0.000109578
0.000108039
0.000106492
0.000104921
0.000103331
0.000101726
0.000100125
9.84813e-05
9.68384e-05
9.51652e-05
9.34872e-05
9.17838e-05
9.0073e-05
8.83408e-05
8.66006e-05
8.48429e-05
8.30783e-05
8.13005e-05
7.95189e-05
7.7731e-05
7.59411e-05
7.41488e-05
7.23591e-05
7.05633e-05
6.87723e-05
6.69786e-05
6.51952e-05
6.34189e-05
6.16587e-05
5.99107e-05
5.81842e-05
5.64748e-05
5.47908e-05
5.31287e-05
5.14947e-05
4.98859e-05
4.83064e-05
4.67534e-05
4.52285e-05
4.37231e-05
4.22458e-05
4.08004e-05
3.93577e-05
3.79477e-05
3.65375e-05
3.51458e-05
3.37472e-05
3.23535e-05
3.09448e-05
2.95299e-05
2.80924e-05
2.66422e-05
2.51735e-05
2.36893e-05
2.21994e-05
2.06986e-05
1.92056e-05
1.77147e-05
1.62246e-05
1.47981e-05
1.34814e-05
1.24375e-05
1.20865e-05
1.36413e-05
1.38506e-05
1.43368e-05
0.000141433
0.000141107
0.000140978
0.000140652
0.00014051
0.000140159
0.000139987
0.000139622
0.000139413
0.000139034
0.000138785
0.00013839
0.000138099
0.000137685
0.000137351
0.000136913
0.000136535
0.000136069
0.000135646
0.000135148
0.000134679
0.000134144
0.000133626
0.000133048
0.000132475
0.000131847
0.000131212
0.000130521
0.000129533
0.000128378
0.000127207
0.000126005
0.000124791
0.000123551
0.000122299
0.000121023
0.000119726
0.000118401
0.000117055
0.000115682
0.000114286
0.000112858
0.000111409
0.000109927
0.000108422
0.000106883
0.00010532
0.000103723
0.000102101
0.000100447
9.87663e-05
9.70541e-05
9.53046e-05
9.35336e-05
9.17555e-05
8.99292e-05
8.81017e-05
8.62314e-05
8.43553e-05
8.24445e-05
8.0525e-05
7.85752e-05
7.66129e-05
7.46184e-05
7.26042e-05
7.05652e-05
6.85058e-05
6.6428e-05
6.4332e-05
6.22242e-05
6.01044e-05
5.79818e-05
5.58574e-05
5.3742e-05
5.16372e-05
4.9555e-05
4.74967e-05
4.54729e-05
4.34846e-05
4.15395e-05
3.96363e-05
3.77788e-05
3.59626e-05
3.41866e-05
3.2433e-05
3.07058e-05
2.9018e-05
2.73048e-05
2.5607e-05
2.38827e-05
2.21406e-05
2.03432e-05
1.84776e-05
1.65435e-05
1.46204e-05
1.27014e-05
1.10419e-05
1.00813e-05
1.19766e-05
1.21315e-05
0.000116905
0.000117132
0.00011722
0.000117295
0.000117363
0.000117401
0.000117458
0.000117469
0.000117512
0.0001175
0.000117526
0.000117494
0.000117498
0.000117446
0.000117428
0.000117356
0.000117314
0.000117221
0.00011715
0.000117033
0.000116932
0.000116788
0.000116653
0.000116479
0.000116307
0.000116099
0.000115888
0.000115643
0.000115395
0.000115122
0.000114844
0.000114543
0.000114234
0.000113903
0.000113559
0.000113193
0.000112818
0.000112422
0.000112006
0.000111567
0.000111105
0.000110616
0.000110101
0.000109554
0.000108977
0.000108368
0.000107732
0.000107065
0.000106371
0.000105636
0.000104862
0.000104039
0.000103166
0.000102235
0.000101236
9.97231e-05
9.81418e-05
9.64906e-05
9.4814e-05
9.30805e-05
9.13211e-05
8.95166e-05
8.76961e-05
8.58372e-05
8.39554e-05
8.20487e-05
8.00778e-05
7.8089e-05
7.60482e-05
7.39837e-05
7.18758e-05
6.9742e-05
6.75627e-05
6.53546e-05
6.30993e-05
6.0809e-05
5.84684e-05
5.60863e-05
5.36515e-05
5.11717e-05
4.86412e-05
4.60697e-05
4.34583e-05
4.08207e-05
3.81665e-05
3.55161e-05
3.28865e-05
3.03026e-05
2.77938e-05
2.53728e-05
2.30234e-05
2.0746e-05
1.85399e-05
1.63005e-05
1.41356e-05
1.21324e-05
1.032e-05
8.92203e-06
8.37947e-06
1.15388e-05
7.49962e-05
7.54359e-05
7.5519e-05
7.57926e-05
7.58836e-05
7.61089e-05
7.62182e-05
7.6412e-05
7.65371e-05
7.67095e-05
7.68451e-05
7.70024e-05
7.71436e-05
7.729e-05
7.74323e-05
7.75699e-05
7.77098e-05
7.78394e-05
7.7974e-05
7.80956e-05
7.82225e-05
7.83353e-05
7.84527e-05
7.8556e-05
7.86626e-05
7.87561e-05
7.88518e-05
7.89359e-05
7.90221e-05
7.90988e-05
7.91757e-05
7.92438e-05
7.931e-05
7.93674e-05
7.94211e-05
7.94655e-05
7.95047e-05
7.9533e-05
7.95576e-05
7.9572e-05
7.95805e-05
7.95791e-05
7.95705e-05
7.95521e-05
7.9526e-05
7.94906e-05
7.9445e-05
7.93839e-05
7.93075e-05
7.92108e-05
7.90936e-05
7.89509e-05
7.8782e-05
7.85825e-05
7.83517e-05
7.80918e-05
7.78171e-05
7.75073e-05
7.71762e-05
7.68015e-05
7.63897e-05
7.58971e-05
7.50615e-05
7.4182e-05
7.32327e-05
7.22505e-05
7.12042e-05
7.01214e-05
6.89735e-05
6.77707e-05
6.6505e-05
6.51924e-05
6.37859e-05
6.23141e-05
6.07492e-05
5.91032e-05
5.73576e-05
5.552e-05
5.35784e-05
5.154e-05
4.93989e-05
4.71641e-05
4.48359e-05
4.24264e-05
3.99433e-05
3.74006e-05
3.4789e-05
3.21266e-05
2.93386e-05
2.64649e-05
2.34982e-05
2.04706e-05
1.74927e-05
1.46393e-05
1.19489e-05
9.59358e-06
7.77224e-06
6.54343e-06
5.87335e-06
6.77667e-06
6.97935e-06
6.99622e-06
7.00828e-06
7.02194e-06
7.03616e-06
7.05274e-06
7.06713e-06
7.08523e-06
7.10016e-06
7.11906e-06
7.13483e-06
7.15421e-06
7.17096e-06
7.19069e-06
7.20847e-06
7.22854e-06
7.24734e-06
7.26779e-06
7.28759e-06
7.30851e-06
7.32927e-06
7.35079e-06
7.37252e-06
7.39479e-06
7.41758e-06
7.44079e-06
7.46476e-06
7.48913e-06
7.51441e-06
7.54009e-06
7.56676e-06
7.59389e-06
7.62205e-06
7.65075e-06
7.68054e-06
7.71099e-06
7.74258e-06
7.77495e-06
7.80857e-06
7.84308e-06
7.87894e-06
7.91581e-06
7.9541e-06
7.99353e-06
8.03438e-06
8.07639e-06
8.11969e-06
8.16404e-06
8.20964e-06
8.25626e-06
8.30415e-06
8.35311e-06
8.40347e-06
8.45518e-06
8.50864e-06
8.56396e-06
8.62107e-06
8.67899e-06
8.73799e-06
8.79624e-06
8.85391e-06
8.90863e-06
8.96099e-06
9.01754e-06
9.07326e-06
9.13403e-06
9.19507e-06
9.26103e-06
9.32799e-06
9.39954e-06
9.47375e-06
9.55233e-06
9.63167e-06
9.71641e-06
9.8022e-06
9.89288e-06
9.9853e-06
1.00824e-05
1.01824e-05
1.02878e-05
1.03979e-05
1.05156e-05
1.06416e-05
1.07792e-05
1.09294e-05
1.10908e-05
1.12467e-05
1.13545e-05
1.13774e-05
1.12467e-05
1.07905e-05
9.77508e-06
8.05897e-06
5.93441e-06
3.6213e-06
2.63728e-06
2.55683e-06
3.91797e-06
4.01856e-06
4.33089e-06
1.09393e-05
2.07731e-06
2.60058e-06
3.5174e-06
4.54829e-06
5.62307e-06
6.48744e-06
7.33705e-06
8.15033e-06
8.90642e-06
9.6198e-06
1.03378e-05
1.14563e-05
1.33349e-05
1.54694e-05
1.78506e-05
1.7597e-05
1.55423e-05
1.02877e-05
3.99572e-06
5.87947e-06
2.18611e-06
2.4751e-06
3.18427e-06
4.05634e-06
4.86403e-06
5.6933e-06
6.55236e-06
7.41572e-06
8.29934e-06
9.2748e-06
1.03723e-05
1.20253e-05
1.40986e-05
1.70527e-05
1.83236e-05
1.74933e-05
1.47078e-05
9.53348e-06
3.96709e-06
4.94598e-06
2.69535e-06
2.90118e-06
3.41679e-06
4.01106e-06
4.71742e-06
5.48168e-06
6.31632e-06
7.22217e-06
8.38972e-06
9.50995e-06
1.1021e-05
1.29389e-05
1.58358e-05
1.80258e-05
1.83046e-05
1.71511e-05
1.40026e-05
8.87082e-06
3.83984e-06
5.05645e-06
3.43951e-06
3.63821e-06
3.87595e-06
4.36888e-06
4.9296e-06
5.6744e-06
6.5828e-06
7.71561e-06
9.48897e-06
1.12188e-05
1.29532e-05
1.574e-05
1.82197e-05
1.91972e-05
1.88209e-05
1.70298e-05
1.32348e-05
7.9786e-06
3.25867e-06
5.68871e-06
4.47722e-06
4.617e-06
4.63445e-06
5.19478e-06
5.69385e-06
6.58667e-06
7.8444e-06
9.60084e-06
1.31095e-05
1.47768e-05
1.70896e-05
1.93513e-05
2.04368e-05
2.04389e-05
1.922e-05
1.65372e-05
1.24904e-05
6.87997e-06
2.37662e-06
6.89553e-06
5.97725e-06
6.04867e-06
6.02782e-06
6.77362e-06
7.77016e-06
9.3534e-06
1.16084e-05
1.61261e-05
1.95214e-05
2.09956e-05
2.23876e-05
2.30779e-05
2.28768e-05
2.16769e-05
1.91012e-05
1.59599e-05
1.15555e-05
5.1483e-06
1.4688e-06
9.04394e-06
8.62802e-06
8.85966e-06
9.46606e-06
1.11855e-05
1.36765e-05
1.70884e-05
2.2042e-05
2.8787e-05
2.94374e-05
2.9118e-05
2.8326e-05
2.69216e-05
2.47832e-05
2.16812e-05
1.85277e-05
1.48196e-05
1.01061e-05
3.82447e-06
7.2115e-07
1.4661e-05
1.61411e-05
1.73697e-05
1.96681e-05
2.31996e-05
2.7526e-05
3.31004e-05
4.00666e-05
3.99381e-05
3.77746e-05
3.42832e-05
3.16664e-05
2.81058e-05
2.49256e-05
2.08575e-05
1.70831e-05
1.29187e-05
8.10513e-06
2.78148e-06
2.76632e-07
3.25357e-05
3.54927e-05
3.67193e-05
3.91809e-05
4.3635e-05
4.79785e-05
5.20319e-05
4.78043e-05
4.41817e-05
4.02553e-05
3.63807e-05
3.25891e-05
2.8376e-05
2.33269e-05
1.85633e-05
1.40681e-05
1.01877e-05
6.46344e-06
2.42324e-06
1.23133e-07
5.28255e-05
5.57097e-05
5.59634e-05
5.74671e-05
6.2318e-05
5.94294e-05
5.51392e-05
5.01807e-05
4.60919e-05
4.11344e-05
3.70546e-05
3.18827e-05
2.70263e-05
1.97594e-05
1.40418e-05
9.64846e-06
7.60944e-06
6.16537e-06
3.00351e-06
1.98202e-07
5.03397e-05
5.3072e-05
5.34387e-05
5.50218e-05
5.98176e-05
5.7781e-05
5.36678e-05
4.89063e-05
4.5049e-05
4.02588e-05
3.65805e-05
3.14531e-05
2.76211e-05
2.04809e-05
1.48215e-05
9.79018e-06
7.23447e-06
5.21151e-06
2.28243e-06
1.60319e-07
2.80198e-05
3.0916e-05
3.22741e-05
3.47478e-05
3.91463e-05
4.36866e-05
4.96412e-05
4.56357e-05
4.26531e-05
3.8429e-05
3.5672e-05
3.13232e-05
2.83439e-05
2.3931e-05
1.93651e-05
1.46095e-05
1.0011e-05
5.49189e-06
1.6846e-06
1.10384e-07
1.31015e-05
1.4044e-05
1.5021e-05
1.70666e-05
2.02296e-05
2.42776e-05
2.95395e-05
3.64268e-05
3.97678e-05
3.61567e-05
3.40279e-05
3.06162e-05
2.7676e-05
2.45084e-05
2.12674e-05
1.73749e-05
1.29783e-05
7.81355e-06
2.37178e-06
1.43671e-07
8.63808e-06
8.11627e-06
8.26356e-06
8.65873e-06
1.00773e-05
1.22203e-05
1.52214e-05
1.98418e-05
2.63216e-05
2.74867e-05
2.77814e-05
2.75922e-05
2.66693e-05
2.47321e-05
2.14471e-05
1.86201e-05
1.48283e-05
1.0015e-05
3.48728e-06
3.81817e-07
6.73718e-06
5.80489e-06
5.86926e-06
5.83193e-06
6.51318e-06
7.37331e-06
8.75927e-06
1.07489e-05
1.48378e-05
1.8195e-05
1.99848e-05
2.17336e-05
2.27525e-05
2.27854e-05
2.18404e-05
1.8957e-05
1.58307e-05
1.14937e-05
5.11365e-06
1.17892e-06
5.62048e-06
4.4268e-06
4.56444e-06
4.6069e-06
5.15434e-06
5.64452e-06
6.48878e-06
7.64114e-06
9.24708e-06
1.23719e-05
1.41508e-05
1.65267e-05
1.9059e-05
2.03541e-05
2.04612e-05
1.93541e-05
1.64127e-05
1.24347e-05
6.93369e-06
2.22701e-06
5.04232e-06
3.43525e-06
3.63739e-06
3.91552e-06
4.4144e-06
4.99454e-06
5.72919e-06
6.61106e-06
7.68818e-06
9.33985e-06
1.09281e-05
1.26832e-05
1.54308e-05
1.8129e-05
1.92553e-05
1.88988e-05
1.70965e-05
1.31895e-05
8.03108e-06
3.20826e-06
5.04748e-06
2.73344e-06
2.93274e-06
3.46344e-06
4.09251e-06
4.80653e-06
5.58385e-06
6.42162e-06
7.31367e-06
8.42276e-06
9.50561e-06
1.09528e-05
1.28381e-05
1.56644e-05
1.80423e-05
1.83941e-05
1.72085e-05
1.39484e-05
8.94588e-06
3.79928e-06
6.12043e-06
2.24187e-06
2.53617e-06
3.25421e-06
4.13392e-06
4.98498e-06
5.81959e-06
6.6865e-06
7.55659e-06
8.43096e-06
9.37023e-06
1.04316e-05
1.20453e-05
1.40897e-05
1.69975e-05
1.83779e-05
1.75188e-05
1.47195e-05
9.58548e-06
3.95305e-06
1.0972e-05
2.13809e-06
2.66027e-06
3.59573e-06
4.64384e-06
5.72255e-06
6.6382e-06
7.48945e-06
8.31096e-06
9.06849e-06
9.77581e-06
1.04663e-05
1.15081e-05
1.33021e-05
1.54673e-05
1.78815e-05
1.76246e-05
1.55206e-05
1.03485e-05
3.99024e-06
1.23421e-06
0.000116558
0.000294184
0.000330906
0.00033481
0.000335356
0.000335357
0.000335342
0.000335343
0.000335345
0.000335345
0.000335343
0.000335342
0.000335357
0.000335356
0.00033481
0.000330906
0.000294184
0.000116558
1.23421e-06
1.36973e-06
6.81669e-05
0.000219584
0.000309504
0.000330909
0.000334527
0.000335273
0.000335315
0.000335296
0.000335287
0.000335287
0.000335296
0.000335315
0.000335273
0.000334527
0.000330909
0.000309504
0.000219584
6.81671e-05
1.36973e-06
1.51338e-06
5.28962e-05
0.00017646
0.00028058
0.000322148
0.000332504
0.000334604
0.0003351
0.000335168
0.000335172
0.000335172
0.000335168