/*--------------------------------*- C++ -*----------------------------------*\
| =========                 |                                                 |
| \\      /  F ield         | OpenFOAM: The Open Source CFD Toolbox           |
|  \\    /   O peration     | Version:  2.1.0                                 |
|   \\  /    A nd           | Web:      www.OpenFOAM.org                      |
|    \\/     M anipulation  |                                                 |
\*---------------------------------------------------------------------------*/
FoamFile
{
    version     2.0;
    format      ascii;
    class       volScalarField;
    location    "0.42";
    object      omega;
}
// * * * * * * * * * * * * * * * * * * * * * * * * * * * * * * * * * * * * * //

dimensions      [0 0 -1 0 0 0 0];

internalField   nonuniform List<scalar> 
6400
(
1644.59
1645.55
1645.63
1645.49
1644.95
1644.68
1643.95
1643.59
1642.77
1642.36
1641.48
1640.99
1640.09
1639.5
1638.59
1637.89
1636.95
1636.16
1635.18
1634.29
1633.28
1632.3
1631.25
1630.2
1629.11
1628
1626.87
1625.7
1624.52
1623.29
1622.05
1620.75
1619.44
1618.07
1616.69
1615.24
1613.77
1612.23
1610.65
1608.99
1607.27
1605.45
1603.54
1601.51
1599.36
1597.05
1594.59
1591.94
1589.09
1586.03
1582.74
1579.19
1575.37
1571.2
1566.61
1561.55
1556.1
1550.47
1544.47
1538.25
1531.68
1524.89
1517.78
1510.41
1502.67
1494.64
1486.21
1477.45
1468.19
1458.44
1448.18
1437.32
1425.88
1413.77
1400.99
1387.51
1373.34
1358.48
1342.98
1326.89
1310.24
1293.08
1275.21
1256.01
1234.62
1212.08
1187.3
1159.48
1127.16
1088.1
1038.73
973.036
883.635
764.058
610.743
537.957
565.923
735.209
892.961
942.85
688.924
689.107
690.3
691.238
692.578
693.923
695.312
696.863
698.316
699.993
701.527
703.296
704.925
706.774
708.506
710.432
712.27
714.273
716.22
718.304
720.361
722.534
724.706
726.979
729.275
731.668
734.103
736.636
739.232
741.925
744.697
747.57
750.537
753.612
756.799
760.109
763.55
767.137
770.848
774.702
778.698
782.85
787.163
791.645
796.306
801.152
806.194
811.44
816.901
822.585
828.505
834.674
841.09
847.75
854.672
861.851
869.333
877.178
885.361
893.938
902.906
912.317
922.183
932.553
943.453
954.945
966.965
979.451
992.498
1006.27
1020.76
1036.04
1052.15
1069.18
1087.18
1106.25
1126.47
1147.95
1170.81
1195.2
1221.31
1249.4
1279.1
1309.53
1341.69
1374.49
1407.5
1439.48
1469.18
1494.95
1513.62
1522.19
1523.9
1509.57
1474.22
1394.95
1285.07
1150.78
1005.88
848.259
499.805
502.936
504.427
507.465
509.472
512.548
514.876
517.991
520.569
523.747
526.545
529.811
532.815
536.193
539.402
542.915
546.329
550
553.618
557.452
561.278
565.291
569.331
573.539
577.802
582.223
586.713
591.356
596.091
600.975
605.971
611.118
616.391
621.82
627.39
633.119
639
645.044
651.298
657.745
664.375
671.22
678.282
685.576
693.11
700.897
708.947
717.272
725.882
734.786
743.991
753.499
763.324
773.479
783.971
794.82
806.046
817.676
829.715
842.19
855.108
868.492
882.348
896.692
911.525
926.856
942.713
959.141
976.05
993.308
1010.93
1028.83
1046.98
1065.3
1083.77
1102.32
1120.95
1139.63
1158.35
1177.14
1196.02
1215
1234.12
1253.39
1272.81
1292.16
1311.27
1329.64
1346.58
1360.93
1368.79
1371.61
1365.1
1338.88
1290.26
1210.53
1102.09
960.895
797.315
628.073
450.53
455.488
457.682
462.058
464.834
469.185
472.377
476.73
480.261
484.663
488.492
492.984
497.088
501.708
506.078
510.857
515.488
520.453
525.351
530.532
535.704
541.122
546.576
552.25
557.989
563.928
569.958
576.174
582.5
589.007
595.642
602.456
609.413
616.551
623.845
631.324
638.971
646.809
654.808
662.996
671.391
679.965
688.727
697.667
706.786
716.078
725.537
735.157
744.928
754.842
764.89
775.06
785.342
795.729
806.205
816.768
827.406
838.113
848.874
859.683
870.524
881.388
892.255
903.113
913.935
924.702
935.415
946.081
956.655
967.131
977.471
987.666
997.657
1007.39
1016.84
1025.91
1034.55
1042.64
1050.1
1056.77
1062.51
1067.13
1070.15
1071.52
1071.82
1069.29
1064.42
1056.34
1044.87
1029.18
1008.7
982.439
949.157
907.077
854.19
788.754
712.14
629.165
552.926
496.635
439.272
445.322
447.948
453.196
456.488
461.688
465.452
470.629
474.769
479.966
484.424
489.683
494.424
499.777
504.775
510.247
515.484
521.095
526.562
532.329
538.016
543.948
549.846
555.946
562.045
568.313
574.608
581.046
587.521
594.118
600.756
607.498
614.283
621.154
628.065
635.046
642.061
649.13
656.223
663.352
670.49
677.652
684.813
691.981
699.132
706.271
713.374
720.447
727.464
734.43
741.324
748.148
754.881
761.525
768.052
774.467
780.78
786.946
792.944
798.74
804.315
809.623
814.643
819.328
823.648
827.557
831.02
833.988
836.415
838.258
839.299
839.736
839.784
838.576
836.848
833.961
830.324
825.515
819.777
812.828
804.802
795.517
785.049
773.364
760.503
746.375
731.199
714.805
697.362
678.666
658.71
637.117
613.754
587.896
558.901
527.641
495.192
465.342
444.216
432.571
429.899
435.859
438.414
443.539
446.684
451.727
455.266
460.221
464.049
468.937
472.987
477.835
482.062
486.889
491.256
496.076
500.556
505.375
509.942
514.762
519.393
524.212
528.888
533.7
538.398
543.192
547.894
552.69
557.438
562.249
567.009
571.802
576.536
581.276
585.945
590.593
595.156
599.67
604.081
608.415
612.628
616.734
620.684
624.507
628.14
631.617
634.872
637.936
640.748
643.332
645.63
647.661
649.37
650.771
651.813
652.532
652.889
653.013
652.81
652.078
651.04
649.485
647.553
645.112
642.252
638.894
635.096
630.815
626.094
620.912
615.303
609.3
602.938
596.203
589.187
581.84
574.275
566.437
558.485
550.363
542.16
533.887
525.624
517.376
509.2
501.075
492.915
484.733
476.592
468.373
460.08
451.561
442.778
433.559
424.03
414.672
406.896
403.18
402.14
402.12
400.69
405.49
407.525
411.603
414.021
418.01
420.658
424.523
427.317
431.055
433.941
437.558
440.495
443.996
446.951
450.338
453.281
456.551
459.455
462.602
465.442
468.458
471.209
474.056
476.674
479.33
481.778
484.254
486.545
488.813
490.879
492.878
494.657
496.33
497.766
499.063
500.107
500.983
501.591
501.937
502.073
502.082
501.652
501.112
500.181
499.096
497.65
496.025
494.063
491.912
489.45
486.802
483.874
480.773
477.452
473.984
470.278
466.458
462.452
458.366
454.167
449.923
445.627
441.323
437.008
432.712
428.531
424.425
420.487
416.681
413.09
409.66
406.445
403.42
400.632
398.046
395.7
393.532
391.626
389.882
388.404
387.081
385.991
385.029
384.252
383.559
382.987
382.444
381.951
381.434
380.936
380.435
380.127
380.009
380.504
381.776
384.296
388.89
392.588
393.65
354.234
357.635
359.034
361.783
363.274
365.873
367.373
369.767
371.224
373.389
374.757
376.687
377.93
379.618
380.704
382.138
383.04
384.209
384.901
385.791
386.246
386.801
387.059
387.21
387.246
387.124
386.798
386.331
385.587
384.714
383.556
382.279
380.721
379.052
377.122
375.098
372.835
370.493
367.94
365.325
362.545
359.719
356.754
353.789
350.717
347.681
344.58
341.551
338.496
335.544
332.609
329.783
327.056
324.486
322.044
319.774
317.674
315.776
314.082
312.618
311.387
310.407
309.681
309.282
309.113
309.091
309.483
309.998
310.874
311.89
313.237
314.729
316.522
318.461
320.671
323.024
325.618
328.345
331.27
334.332
337.578
340.93
344.428
347.996
351.663
355.359
359.105
362.834
366.569
370.263
373.952
377.627
381.363
385.204
389.385
394.165
399.773
406.755
412.312
414.578
294.476
295.55
295.943
296.6
296.9
297.31
297.479
297.594
297.608
297.519
297.219
296.931
296.352
295.84
294.997
294.245
293.149
292.154
290.819
289.586
288.028
286.569
284.817
283.171
281.284
279.478
277.48
275.558
273.488
271.506
269.417
267.431
265.38
263.447
261.485
259.65
257.827
256.142
254.509
253.021
251.625
250.382
249.261
248.305
247.496
246.864
246.402
246.173
246.084
246.12
246.506
246.997
247.761
248.641
249.774
251.043
252.549
254.207
256.089
258.133
260.393
262.823
265.462
268.278
271.299
274.508
277.909
281.493
285.276
289.244
293.416
297.779
302.357
307.131
312.129
317.334
322.772
328.429
334.329
340.455
346.832
353.444
360.31
367.414
374.769
382.352
390.167
398.183
406.395
414.768
423.291
431.939
440.718
449.641
458.788
468.38
479.106
490.74
502.414
508.181
237.616
236.383
235.839
234.701
233.979
232.776
231.908
230.64
229.659
228.335
227.265
225.911
224.778
223.416
222.252
220.905
219.741
218.437
217.304
216.071
215
213.865
212.888
211.879
211.024
210.163
209.456
208.765
208.231
207.73
207.387
207.11
206.979
206.929
206.956
207.176
207.449
207.901
208.425
209.117
209.901
210.839
211.876
213.059
214.35
215.783
217.328
219.011
220.809
222.744
224.804
226.995
229.308
231.743
234.306
236.99
239.804
242.742
245.813
249.012
252.348
255.817
259.429
263.181
267.082
271.134
275.342
279.711
284.248
288.961
293.854
298.94
304.221
309.714
315.423
321.364
327.545
333.985
340.694
347.691
354.993
362.62
370.594
378.939
387.681
396.852
406.484
416.618
427.301
438.583
450.528
463.209
476.717
491.154
506.64
523.256
541.005
559.496
574.198
580.758
261.438
260.885
260.578
259.939
259.414
258.65
257.919
257.012
256.092
255.034
253.944
252.737
251.508
250.168
248.819
247.383
245.94
244.441
242.936
241.407
239.877
238.351
236.834
235.348
233.882
232.471
231.095
229.795
228.546
227.391
226.303
225.326
224.433
223.662
222.993
222.459
222.042
221.793
221.679
221.652
221.841
222.148
222.617
223.215
223.97
224.862
225.907
227.093
228.43
229.91
231.538
233.31
235.229
237.292
239.509
241.865
244.359
246.999
249.773
252.698
255.757
258.972
262.321
265.833
269.484
273.302
277.266
281.405
285.7
290.178
294.826
299.667
304.691
309.925
315.362
321.026
326.911
333.045
339.425
346.078
353.004
360.235
367.773
375.651
383.877
392.487
401.494
410.935
420.832
431.224
442.146
453.66
465.847
478.788
492.621
507.484
523.478
540.25
554.01
560.238
320.79
322.465
323.116
324.302
324.882
325.871
326.347
327.101
327.456
327.944
328.153
328.276
328.293
328.159
327.82
327.439
326.787
326.138
325.192
324.269
323.044
321.853
320.368
318.921
317.198
315.517
313.593
311.701
309.596
307.536
305.29
303.104
300.762
298.493
296.101
293.796
291.4
289.113
286.774
284.559
282.333
280.255
278.232
276.37
274.603
273.011
271.546
270.274
269.157
268.249
267.519
267.014
266.764
266.671
266.746
267.159
267.662
268.474
269.407
270.629
271.987
273.617
275.394
277.427
279.615
282.049
284.642
287.451
290.419
293.588
296.917
300.44
304.114
307.983
312.003
316.214
320.574
325.119
329.809
334.678
339.668
344.815
350.071
355.466
360.953
366.559
372.24
378.017
383.861
389.784
395.777
401.848
407.999
414.415
421.217
428.828
437.557
447.835
458.721
464.444
371.224
374.668
376.099
378.902
380.468
383.138
384.749
387.243
388.849
391.152
392.733
394.851
396.377
398.288
399.705
401.399
402.663
404.12
405.191
406.391
407.237
408.159
408.75
409.372
409.682
409.904
409.973
409.941
409.615
409.234
408.571
407.835
406.83
405.742
404.399
402.97
401.249
399.392
397.267
395.013
392.518
389.909
387.092
384.187
381.111
377.97
374.717
371.424
368.072
364.715
361.347
358.015
354.715
351.48
348.31
345.271
342.361
339.623
337.029
334.642
332.433
330.456
328.688
327.175
325.888
324.863
324.057
323.505
323.23
323.127
323.16
323.575
324.044
324.832
325.668
326.767
327.906
329.252
330.621
332.145
333.734
335.468
337.252
339.158
341.104
343.173
345.276
347.497
349.767
352.171
354.673
357.377
360.277
363.468
366.916
371.01
376.137
382.751
387.609
389.397
408.276
413.069
415.105
419.157
421.587
425.528
428.192
431.995
434.8
438.462
441.377
444.957
447.964
451.467
454.526
457.951
461.026
464.369
467.427
470.677
473.689
476.832
479.769
482.788
485.619
488.491
491.194
493.89
496.423
498.917
501.243
503.501
505.579
507.562
509.35
511.015
512.531
513.925
515.122
516.151
516.947
517.52
517.797
517.896
517.774
517.26
516.555
515.487
514.185
512.542
510.641
508.42
505.934
503.151
500.113
496.807
493.266
489.506
485.572
481.462
477.205
472.776
468.23
463.582
458.861
454.092
449.297
444.571
439.888
435.329
430.882
426.619
422.515
418.631
414.877
411.36
407.989
404.861
401.877
399.115
396.43
393.951
391.526
389.258
387.007
384.885
382.747
380.689
378.588
376.55
374.482
372.518
370.615
369.166
368.133
367.749
368.578
372.338
375.465
376.357
424.489
430.292
432.785
437.758
440.841
445.73
449.212
454.023
457.801
462.566
466.581
471.33
475.537
480.291
484.657
489.431
493.928
498.73
503.335
508.168
512.86
517.722
522.482
527.368
532.178
537.079
541.922
546.828
551.686
556.588
561.448
566.328
571.162
575.994
580.769
585.516
590.236
594.937
599.585
604.187
608.709
613.155
617.497
621.734
625.835
629.791
633.587
637.199
640.619
643.818
646.788
649.501
651.944
654.093
655.932
657.436
658.589
659.306
659.631
659.709
659.226
658.502
657.294
655.742
653.693
651.24
648.287
644.9
641.02
636.697
631.898
626.663
620.975
614.889
608.472
601.7
594.606
587.246
579.579
571.699
563.546
555.245
546.705
538.041
529.155
520.083
510.766
501.216
491.25
480.825
469.998
458.603
446.655
434.077
421.575
408.849
398.125
391.522
388.689
387.42
425.919
431.595
434.065
438.973
442.076
446.936
450.49
455.333
459.249
464.121
468.34
473.278
477.765
482.804
487.544
492.712
497.69
503.005
508.211
513.689
519.114
524.763
530.401
536.227
542.07
548.073
554.113
560.292
566.517
572.868
579.272
585.784
592.353
599.019
605.743
612.554
619.424
626.367
633.361
640.417
647.516
654.661
661.84
669.05
676.282
683.53
690.782
698.026
705.246
712.444
719.612
726.735
733.806
740.812
747.745
754.59
761.347
767.99
774.518
780.892
787.093
793.155
798.998
804.628
809.98
815.042
819.754
824.093
828.001
831.451
834.388
836.771
838.547
839.47
839.831
839.773
838.327
836.423
833.205
829.214
823.869
817.473
809.605
800.417
789.588
777.209
763.105
747.114
729.277
709.314
687.156
662.363
634.643
603.474
569.677
532.756
495.633
460.593
435.413
418.76
434.233
438.783
440.807
444.838
447.409
451.41
454.363
458.358
461.614
465.645
469.168
473.275
477.041
481.26
485.264
489.624
493.86
498.387
502.859
507.576
512.291
517.22
522.187
527.349
532.581
537.995
543.503
549.184
554.974
560.934
567.016
573.268
579.658
586.223
592.943
599.846
606.922
614.193
621.636
629.273
637.094
645.111
653.315
661.713
670.295
679.092
688.112
697.365
706.866
716.563
726.459
736.542
746.805
757.238
767.83
778.565
789.439
800.424
811.52
822.7
833.969
845.308
856.713
868.176
879.687
891.233
902.791
914.345
925.854
937.289
948.714
960.054
971.329
982.481
993.507
1004.33
1014.89
1025.17
1034.99
1044.34
1052.99
1060.85
1067.64
1073.14
1076.49
1077.91
1078.06
1073.58
1066.28
1053.57
1035.69
1010.49
976.951
932.585
877.041
807.275
725.131
634.468
553.23
488.478
481.646
484.406
485.74
488.475
490.294
493.066
495.177
497.984
500.319
503.183
505.715
508.661
511.384
514.428
517.325
520.483
523.555
526.844
530.095
533.53
536.966
540.564
544.192
547.967
551.795
555.761
559.8
563.972
568.235
572.626
577.12
581.747
586.49
591.371
596.379
601.529
606.811
612.235
617.847
623.632
629.617
635.804
642.214
648.859
655.762
662.908
670.298
677.942
685.836
694.028
702.529
711.356
720.522
730.039
739.916
750.159
760.795
771.825
783.274
795.154
807.491
820.302
833.618
847.476
861.876
876.856
892.41
908.571
925.334
942.729
960.794
979.223
998.146
1017.45
1037.11
1057.05
1077.21
1097.54
1118
1138.57
1159.21
1179.93
1200.66
1221.47
1242.4
1263.36
1284.17
1304.28
1323.18
1339.53
1349.38
1353.12
1348.37
1321
1271.29
1196.06
1093.14
963.538
802.444
630.34
665.216
665.161
666.184
666.939
668.109
669.254
670.465
671.805
673.068
674.524
675.858
677.399
678.817
680.428
681.939
683.618
685.225
686.976
688.681
690.507
692.313
694.22
696.128
698.122
700.137
702.227
704.354
706.555
708.81
711.141
713.544
716.031
718.604
721.271
724.038
726.912
729.906
733.029
736.265
739.632
743.133
746.776
750.57
754.52
758.635
762.916
767.376
772.021
776.864
781.919
787.195
792.705
798.461
804.477
810.771
817.364
824.24
831.437
838.96
846.825
855.048
863.63
872.6
882.095
892.038
902.549
913.58
925.236
937.495
950.448
963.842
978.132
993.13
1009.06
1025.88
1043.73
1062.64
1082.73
1104.06
1126.76
1150.92
1176.66
1204.09
1233.42
1264.56
1296.34
1328.85
1360.47
1389.66
1414.09
1428.07
1433.21
1430.99
1414.71
1382.72
1321.69
1233.58
1122.36
997.852
848.985
1601.55
1602.24
1602.22
1601.77
1601.16
1600.65
1599.81
1599.28
1598.34
1597.76
1596.78
1596.14
1595.15
1594.42
1593.42
1592.6
1591.58
1590.67
1589.62
1588.62
1587.53
1586.44
1585.3
1584.14
1582.95
1581.72
1580.48
1579.2
1577.92
1576.6
1575.27
1573.9
1572.53
1571.11
1569.69
1568.22
1566.74
1565.22
1563.69
1562.11
1560.52
1558.89
1557.23
1555.52
1553.78
1551.96
1550.08
1548.1
1546.02
1543.81
1541.49
1539.01
1536.4
1533.63
1530.72
1527.67
1524.46
1520.98
1517.24
1513.08
1508.49
1503.24
1497.38
1491.41
1484.91
1478.31
1471.2
1463.9
1456.07
1447.93
1439.28
1430.18
1420.3
1409.9
1398.61
1386.59
1373.55
1359.58
1344.45
1328.21
1310.68
1291.89
1271.71
1250.14
1227.02
1202.06
1174.24
1141.55
1102.7
1055.7
995.424
916.002
815.403
704.843
584.566
535.358
556.099
721.931
886.818
939.961
865.884
324.73
176.604
119.704
95.2655
82.331
76.1288
73.1612
72.189
74.0335
80.9562
97.4643
118.891
156.228
207.113
271.558
348.988
444.049
560.313
610.203
693.164
329.173
219.144
154.335
121.76
104.137
92.9372
87.4672
85.5416
87.538
99.6618
115.595
144.573
184.757
237.964
299.97
372.401
459.573
544.764
568.482
544.587
318.735
242.271
180.158
147.627
125.461
111.882
105.981
104.313
108.675
120.221
144.141
174.736
218.781
269.546
326.177
390.261
462.658
514.405
522.545
444.629
305.171
256.29
198.164
171.2
146.159
134.09
128.453
126.902
131.263
154.167
177.727
213.973
256.448
302.082
352.272
406.617
455.345
474.196
474.347
388.194
300.424
266.295
214.68
191.997
168.735
159.191
155.463
155.22
175.083
195.476
222.87
257.389
292.842
330.831
370.794
410.043
432.642
426.403
427.847
360.086
300.369
273.835
232.029
214.533
201.05
197.45
197.437
211.706
227.893
247.912
272.671
299.463
326.807
355.878
383.508
398.901
396.79
367.93
383.51
352.322
312.847
296.056
273.014
265.952
263.434
263.074
269.917
279.155
291.191
306.012
322.366
339.247
355.553
369.811
376.617
374.915
343.675
300.703
349.876
386.894
375.238
371.421
361.639
356.88
351.361
349.159
348.629
350.791
355.098
359.396
364.164
366.783
367.784
366.307
357.919
331.097
277.631
232.704
331.159
499.058
483.825
476.437
457.529
448.635
434.29
427.25
417.571
412.377
404.319
397.847
388.678
378.148
365.459
349.176
316.724
268.444
204.02
161.667
324.921
563.297
541.899
532.24
509.176
498.129
479.48
469.196
452.358
440.792
423.875
409.711
390.482
370.405
341.758
302.242
251.898
198.099
143.396
116.72
327.958
544.449
524.292
515.233
493.471
483.081
465.679
456.353
441.378
431.179
416.512
403.999
387.438
369.69
345.113
309.41
259.688
203.599
143.465
113.892
326.422
457.682
446.486
440.859
424.9
417.602
406.641
401.376
395.699
392.896
389.456
385.975
381.293
374.261
364.769
353.388
326.929
279.374
212.102
170.809
324.408
358.943
343.834
338.845
330.89
327.489
324.38
323.537
326.17
331.038
338.567
346.581
354.818
362.482
366.297
367.644
363.234
339.609
286.995
239.391
325.749
336.678
296.798
279.264
254.066
245.67
242.704
242.512
250.887
261.6
275.596
292.927
311.746
331.974
352.103
370.572
379.76
380.956
352.329
307.703
335.501
346.782
288.179
262.283
221.038
203.624
189.12
184.776
184.295
198.089
215.356
236.825
263.143
291.957
321.678
353.786
385.637
403.673
404.796
374.393
370.152
374.506
289.312
256.029
206.261
184.31
161.477
151.822
147.743
147.146
165.185
186.561
214.624
250.456
287.664
327.725
370.158
413.992
438.692
433.733
420.286
429.58
293.998
246.215
190.005
163.83
140.06
128.55
123.202
121.748
125.96
147.112
171.31
207.652
251.224
298.65
350.864
407.695
460.33
480.516
471.604
531.581
308.222
233.689
173.716
141.922
120.376
107.417
101.735
100.156
104.695
116.025
139.009
169.936
213.855
265.772
324.076
390.661
467.064
518.644
523.036
686.65
318.106
211.253
148.255
116.991
99.8594
89.5173
84.4218
82.6353
84.6797
96.1617
112.081
140.574
180.772
234.242
297.349
371.257
461.086
548.517
570.837
863.376
313.514
170.695
115.737
92.0771
79.5914
73.2007
70.4949
69.7116
72.0705
78.763
94.3866
116.013
152.737
203.761
268.893
347.703
444.758
563.131
613.222
646.053
32.1745
12.7362
11.3229
11.19
11.171
11.1705
11.1708
11.1706
11.1705
11.1705
11.1706
11.1708
11.1705
11.171
11.19
11.3229
12.7362
32.1745
646.054
672.74
55.0629
17.0386
12.087
11.3039
11.1803
11.1547
11.1529
11.1534
11.1536
11.1536
11.1534
11.1529
11.1547
11.1803
11.3039
12.087
17.0386
55.0627
672.74
698.453
71.0937
21.1542
13.3033
11.5874
11.2261
11.1552
11.1382
11.1358
11.1355
11.1355
11.1358
11.1382
11.1552
11.2261
11.5874
13.3033
21.1542
71.0936
698.453
723.136
85.8503
25.1369
14.6461
12.0431
11.3371
11.1684
11.1265
11.1183
11.1171
11.1171
11.1183
11.1265
11.1684
11.3371
12.0431
14.6461
25.1368
85.8502
723.136
746.743
101.867
29.2065
16.0658
12.5885
11.5234
11.2064
11.1273
11.105
11.1003
11.1003
11.105
11.1273
11.2064
11.5234
12.5885
16.0658
29.2065
101.867
746.743
769.31
118.433
33.3669
17.5406
13.1971
11.7624
11.283
11.1366
11.0944
11.0843
11.0843
11.0944
11.1366
11.283
11.7624
13.1971
17.5406
33.3669
118.433
769.31
790.728
134.968
37.5676
19.0511
13.8502
12.0431
11.3872
11.16
11.0918
11.0718
11.0718
11.0918
11.16
11.3872
12.0431
13.8502
19.0511
37.5677
134.968
790.728
810.982
151.251
41.7801
20.5851
14.5352
12.3571
11.5178
11.2031
11.0955
11.0625
11.0625
11.0955
11.2031
11.5178
12.3571
14.5352
20.5852
41.7801
151.251
810.982
829.955
167.079
45.9691
22.1303
15.2422
12.6968
11.6708
11.2604
11.1065
11.0594
11.0594
11.1065
11.2604
11.6708
12.6968
15.2422
22.1303
45.9692
167.079
829.955
847.653
182.401
50.1209
23.6797
15.9648
13.0568
11.8431
11.3324
11.129
11.0619
11.0619
11.129
11.3324
11.8431
13.0568
15.9648
23.6798
50.121
182.402
847.653
863.991
197.096
54.2105
25.2247
16.6968
13.4321
12.0315
11.4179
11.1609
11.0697
11.0698
11.1609
11.4179
12.0315
13.4321
16.6968
25.2248
54.2106
197.097
863.991
879.013
211.155
58.2321
26.7619
17.4347
13.8193
12.2335
11.5156
11.2021
11.0862
11.0862
11.2021
11.5156
12.2335
13.8193
17.4347
26.7619
58.2323
211.156
879.012
892.663
224.491
62.1651
28.2844
18.1745
14.2149
12.4467
11.6242
11.2528
11.1113
11.1113
11.2528
11.6242
12.4467
14.2149
18.1745
28.2844
62.1653
224.492
892.663
905.026
237.118
66.009
29.7908
18.9141
14.6169
12.6691
11.7427
11.3126
11.1446
11.1446
11.3126
11.7427
12.6691
14.617
18.9141
29.7909
66.0093
237.119
905.026
916.068
248.971
69.7457
31.2753
19.6506
15.023
12.899
11.8698
11.381
11.1861
11.1861
11.381
11.8698
12.899
15.023
19.6506
31.2754
69.7458
248.971
916.067
925.904
260.09
73.3781
32.7379
20.383
15.4319
13.1352
12.0048
11.4576
11.2357
11.2357
11.4576
12.0048
13.1352
15.4319
20.383
32.738
73.3783
260.09
925.904
934.512
270.424
76.8906
34.1733
21.1088
15.8417
13.3762
12.1466
11.5418
11.293
11.293
11.5418
12.1466
13.3762
15.8418
21.1088
34.1734
76.8907
270.424
934.512
942.037
280.035
80.2891
35.5825
21.8276
16.2519
13.6211
12.2944
11.6331
11.3579
11.3579
11.6331
12.2944
13.6211
16.2519
21.8277
35.5826
80.2893
280.035
942.036
948.451
288.886
83.5603
36.9606
22.5374
16.6609
13.8691
12.4475
11.7309
11.4299
11.4299
11.7309
12.4475
13.8691
16.6609
22.5374
36.9607
83.5603
288.886
948.45
953.925
297.051
86.7123
38.3097
23.2383
17.0685
14.1194
12.6053
11.8348
11.5085
11.5085
11.8348
12.6053
14.1194
17.0685
23.2383
38.3098
86.7125
297.051
953.924
958.416
304.506
89.734
39.6249
23.9282
17.4734
14.3712
12.7671
11.9442
11.5934
11.5934
11.9442
12.7671
14.3712
17.4735
23.9283
39.6249
89.734
304.505
958.416
962.12
311.326
92.6356
40.9093
24.608
17.8757
14.6242
12.9325
12.0587
11.684
11.684
12.0587
12.9325
14.6242
17.8757
24.608
40.9093
92.6357
311.327
962.12
964.967
317.506
95.4075
42.1578
25.2754
18.2741
14.8776
13.1009
12.1777
11.78
11.78
12.1777
13.1009
14.8776
18.2742
25.2755
42.158
95.4076
317.504
964.966
967.18
323.102
98.0618
43.3751
25.9318
18.669
15.1313
13.2719
12.3009
11.8809
11.8809
12.3009
13.2719
15.1313
18.669
25.9318
43.3751
98.0619
323.104
967.179
968.649
328.148
100.59
44.5553
26.5748
19.0592
15.3846
13.445
12.4277
11.9862
11.9862
12.4277
13.445
15.3846
19.0593
26.5749
44.5554
100.59
328.145
968.648
969.635
332.653
103.005
45.7044
27.2064
19.4453
15.6374
13.62
12.5579
12.0955
12.0955
12.5579
13.62
15.6374
19.4453
27.2064
45.7044
103.005
332.656
969.634
969.97
336.705
105.299
46.816
27.8239
19.826
15.8892
13.7964
12.691
12.2085
12.2085
12.691
13.7964
15.8892
19.826
27.8239
46.8161
105.3
336.701
969.969
969.834
340.242
107.488
47.8975
28.4297
20.2021
16.14
13.9741
12.8267
12.3248
12.3248
12.8267
13.9741
16.14
20.2021
28.4297
47.8974
107.488
340.244
969.833
969.425
343.403
109.561
48.9414
29.021
20.5725
16.3892
14.1525
12.9646
12.4441
12.4441
12.9646
14.1525
16.3892
20.5725
29.0211
48.9416
109.561
343.399
969.424
968.579
346.14
111.539
49.9569
29.6008
20.9379
16.637
14.3316
13.1045
12.5659
12.5659
13.1045
14.3316
16.637
20.9379
29.6007
49.9567
111.538
346.143
968.578
967.379
348.534
113.406
50.9352
30.1658
21.2973
16.8828
14.511
13.2461
12.69
12.69
13.2461
14.511
16.8828
21.2973
30.1659
50.9354
113.406
348.529
967.378
965.891
350.552
115.188
51.8872
30.7196
21.6515
17.1267
14.6907
13.389
12.8161
12.8161
13.389
14.6907
17.1268
21.6515
30.7195
51.8869
115.187
350.555
965.89
964.155
352.265
116.864
52.8029
31.2587
21.9995
17.3684
14.8702
13.5331
12.944
12.944
13.5331
14.8702
17.3684
21.9995
31.2587
52.8031
116.864
352.26
964.155
962.205
353.658
118.465
53.6944
31.7868
22.3423
17.608
15.0495
13.6782
13.0733
13.0733
13.6782
15.0495
17.6081
22.3423
31.7868
53.694
118.464
353.661
962.204
960.073
354.766
119.965
54.5507
32.3006
22.6787
17.8451
15.2283
13.8239
13.2039
13.2039
13.8239
15.2283
17.845
22.6786
32.3005
54.5509
119.965
354.761
960.073
957.789
355.615
121.399
55.3853
32.8038
23.0099
18.0798
15.4067
13.9702
13.3355
13.3355
13.9702
15.4067
18.0799
23.0099
32.8038
55.3848
121.397
355.617
957.788
955.381
356.175
122.736
56.186
33.293
23.3347
18.3118
15.5842
14.1168
13.468
13.468
14.1168
15.5842
18.3118
23.3346
33.293
56.1863
122.737
356.171
955.382
952.87
356.557
124.016
56.9676
33.7724
23.6544
18.5414
15.761
14.2636
13.6011
13.6011
14.2636
15.761
18.5415
23.6544
33.7724
56.967
124.014
356.558
952.869
950.286
356.613
125.204
57.7167
34.238
23.9676
18.7681
15.9367
14.4103
13.7346
13.7346
14.4103
15.9366
18.768
23.9675
34.238
57.7171
125.205
356.611
950.287
947.635
356.52
126.342
58.4494
34.6947
24.2759
18.9922
16.1114
14.557
13.8684
13.8684
14.557
16.1114
18.9923
24.276
34.6947
58.4487
126.339
356.519
947.634
944.957
356.292
127.392
59.1511
35.1381
24.5779
19.2134
16.2848
14.7033
14.0024
14.0024
14.7033
16.2848
19.2133
24.5778
35.1379
59.1516
127.394
356.29
944.959
942.244
355.82
128.406
59.8395
35.5733
24.8751
19.4319
16.4571
14.8493
14.1364
14.1364
14.8494
16.4572
19.4321
24.8753
35.5734
59.8387
128.403
355.825
942.242
939.539
355.244
129.335
60.4986
35.9959
25.1662
19.6474
16.628
14.9948
14.2703
14.2703
14.9947
16.6279
19.6472
25.1659
35.9956
60.4993
129.339
355.236
939.541
936.821
354.505
130.251
61.149
36.4113
25.4527
19.8603
16.7975
15.1397
14.404
14.404
15.1398
16.7976
19.8605
25.453
36.4115
61.1481
130.246
354.511
936.819
934.145
353.722
131.099
61.7743
36.8149
25.7334
20.0701
16.9655
15.2839
14.5373
14.5373
15.2838
16.9653
20.0699
25.7329
36.8144
61.775
131.104
353.714
934.147
931.466
352.872
131.987
62.3994
37.2125
26.0097
20.2774
17.132
15.4273
14.6702
14.6703
15.4274
17.1322
20.2777
26.0102
37.2131
62.3986
131.981
352.877
931.463
928.859
352.024
132.869
63.0126
37.5999
26.2805
20.4816
17.2969
15.5699
14.8026
14.8025
15.5698
17.2967
20.4813
26.2799
37.5991
63.0132
132.875
352.019
928.862
926.333
351.164
133.826
63.6387
37.9833
26.5474
20.6833
17.4603
15.7116
14.9344
14.9344
15.7117
17.4605
20.6837
26.5482
37.9843
63.6385
133.819
351.167
926.33
923.871
350.422
134.84
64.2638
38.3588
26.8093
20.882
17.622
15.8522
15.0654
15.0654
15.8521
17.6217
20.8816
26.8085
38.3576
64.2639
134.846
350.42
923.875
921.484
349.753
135.976
64.912
38.7329
27.0679
21.0783
17.7821
15.9919
15.1958
15.1959
15.992
17.7824
21.0789
27.069
38.7345
64.9125
135.97
349.755
921.481
919.155
349.293
137.189
65.565
39.1016
27.3221
21.2718
17.9404
16.1304
15.3253
15.3252
16.1303
17.9402
21.2712
27.321
39.0998
65.5645
137.196
349.292
919.158
916.897
348.942
138.533
66.246
39.4712
27.5738
21.4631
18.0973
16.2679
15.4541
15.4541
16.2681
18.0977
21.4638
27.5752
39.4736
66.2476
138.527
348.943
916.893
914.693
348.851
139.937
66.9331
39.8374
27.8218
21.6517
18.2523
16.4041
15.5817
15.5816
16.404
18.252
21.651
27.8203
39.835
66.9317
139.944
348.853
914.696
912.56
348.916
141.463
67.6495
40.2064
28.0679
21.8384
18.4059
16.5394
15.7086
15.7087
16.5396
18.4065
21.8394
28.0699
40.2097
67.6526
141.459
348.918
912.554
910.479
349.098
143.022
68.3711
40.5735
28.3111
22.0226
18.5577
16.6731
15.8342
15.8342
16.6729
18.5573
22.0217
28.3093
40.5705
68.3688
143.029
349.101
910.482
908.471
349.471
144.676
69.1203
40.9447
28.5532
22.2052
18.7081
16.806
15.9592
15.9593
16.8063
18.7088
22.2066
28.5559
40.9493
69.1255
144.675
349.481
908.463
906.513
349.99
146.342
69.873
41.315
28.7929
22.3855
18.8567
16.9373
16.0827
16.0826
16.937
18.8562
22.3844
28.7907
41.3113
69.8699
146.347
349.989
906.516
904.629
350.63
148.077
70.6511
41.6902
29.0321
22.5644
19.0041
17.0677
16.2056
16.2058
17.0682
19.0051
22.5663
29.0357
41.6964
70.6591
148.081
350.645
904.62
902.794
351.376
149.806
71.4301
42.065
29.2695
22.7414
19.1497
17.1965
16.3268
16.3268
17.1962
19.1491
22.74
29.2669
42.0607
71.4264
149.811
351.379
902.796
901.035
352.209
151.58
72.2317
42.4452
29.5067
22.9171
19.2942
17.3245
16.4477
16.4479
17.3252
19.2956
22.9198
29.5117
42.4537
72.2437
151.592
352.231
901.021
899.321
353.116
153.335
73.0313
42.8251
29.7426
23.0911
19.437
17.4508
16.5666
16.5665
17.4504
19.4362
23.0895
29.7397
42.8205
73.0279
153.339
353.127
899.319
897.684
354.081
155.115
73.8509
43.2104
29.9786
23.264
19.5787
17.5764
16.6853
16.6856
17.5774
19.5808
23.2679
29.9856
43.2223
73.8687
155.138
354.116
897.665
896.089
355.096
156.865
74.6654
43.5954
30.2137
23.4356
19.7188
17.7001
16.8017
16.8017
17.6998
19.7181
23.4339
30.2106
43.5912
74.6642
156.873
355.121
896.082
894.571
356.143
158.624
75.4974
43.9856
30.4488
23.6061
19.858
17.8234
16.9184
16.9188
17.8249
19.861
23.6117
30.4589
44.0028
75.5238
158.662
356.199
894.542
893.092
357.219
160.343
76.3209
44.3755
30.6836
23.7754
19.9955
17.9447
17.0324
17.0324
17.9445
19.995
23.7741
30.681
44.3728
76.3251
160.362