/*--------------------------------*- C++ -*----------------------------------*\
| =========                 |                                                 |
| \\      /  F ield         | OpenFOAM: The Open Source CFD Toolbox           |
|  \\    /   O peration     | Version:  2.1.0                                 |
|   \\  /    A nd           | Web:      www.OpenFOAM.org                      |
|    \\/     M anipulation  |                                                 |
\*---------------------------------------------------------------------------*/
FoamFile
{
    version     2.0;
    format      ascii;
    class       volScalarField;
    location    "0.42";
    object      p;
}
// * * * * * * * * * * * * * * * * * * * * * * * * * * * * * * * * * * * * * //

dimensions      [1 -1 -2 0 0 0 0];

internalField   nonuniform List<scalar> 
6400
(
99998.4
99995.7
99993.8
99992.2
99990.7
99989.3
99988
99986.6
99985.2
99983.7
99982.2
99980.6
99979
99977.3
99975.6
99973.7
99971.8
99969.9
99967.8
99965.7
99963.5
99961.2
99958.9
99956.4
99953.9
99951.3
99948.6
99945.8
99943
99940
99936.9
99933.8
99930.5
99927.2
99923.7
99920.1
99916.5
99912.7
99908.7
99904.7
99900.5
99896.2
99891.8
99887.2
99882.5
99877.7
99872.6
99867.4
99862.1
99856.5
99850.8
99844.8
99838.7
99832.4
99825.8
99819
99812
99804.8
99797.3
99789.6
99781.6
99773.3
99764.8
99755.9
99746.8
99737.3
99727.5
99717.4
99706.8
99695.9
99684.6
99672.8
99660.6
99647.9
99634.7
99621.1
99606.8
99592
99576.6
99560.5
99543.7
99526.2
99507.7
99488.2
99467.5
99445.4
99421.5
99395.6
99367.2
99336.2
99302.6
99267.7
99233.5
99201.1
99168.6
99135.6
99078.5
98963.2
98592.1
96983.8
99996.7
99995
99993.3
99991.8
99990.3
99989
99987.6
99986.2
99984.8
99983.3
99981.8
99980.2
99978.6
99976.9
99975.2
99973.3
99971.4
99969.4
99967.4
99965.3
99963.1
99960.8
99958.4
99956
99953.4
99950.8
99948.1
99945.3
99942.5
99939.5
99936.4
99933.3
99930
99926.6
99923.2
99919.6
99915.9
99912.1
99908.2
99904.2
99900
99895.7
99891.3
99886.7
99882
99877.1
99872
99866.9
99861.5
99855.9
99850.2
99844.2
99838.1
99831.8
99825.3
99818.5
99811.5
99804.3
99796.8
99789.1
99781.2
99772.9
99764.4
99755.6
99746.4
99737
99727.2
99717.1
99706.6
99695.7
99684.4
99672.7
99660.5
99647.8
99634.7
99621.1
99606.9
99592.1
99576.7
99560.6
99543.9
99526.3
99507.8
99488.4
99467.7
99445.6
99421.8
99396
99367.8
99337
99303.7
99269
99234.8
99202.8
99175.2
99146.1
99094.5
98993.5
98692.7
98138.1
99995.2
99994.2
99992.8
99991.4
99990
99988.7
99987.4
99986
99984.6
99983.1
99981.6
99980.1
99978.4
99976.7
99975
99973.1
99971.2
99969.3
99967.2
99965.1
99962.9
99960.6
99958.2
99955.8
99953.3
99950.6
99947.9
99945.2
99942.3
99939.3
99936.3
99933.1
99929.8
99926.5
99923
99919.5
99915.8
99912
99908.1
99904
99899.9
99895.6
99891.2
99886.6
99881.9
99877.1
99872
99866.9
99861.5
99856
99850.3
99844.4
99838.3
99832
99825.5
99818.8
99811.9
99804.7
99797.3
99789.6
99781.7
99773.5
99765
99756.3
99747.2
99737.8
99728.1
99718
99707.6
99696.8
99685.6
99673.9
99661.9
99649.3
99636.3
99622.8
99608.7
99594.1
99578.8
99562.9
99546.2
99528.8
99510.4
99491.1
99470.5
99448.5
99424.9
99399.3
99371.5
99341.4
99309.3
99276.4
99244.5
99216.2
99192.8
99165.1
99129.4
99067.3
98910.9
99000.8
99993.3
99993.3
99992.4
99991.2
99989.9
99988.7
99987.4
99986
99984.6
99983.2
99981.7
99980.1
99978.5
99976.8
99975.1
99973.3
99971.4
99969.4
99967.4
99965.2
99963.1
99960.8
99958.4
99956
99953.5
99950.9
99948.2
99945.5
99942.6
99939.7
99936.6
99933.5
99930.2
99926.9
99923.5
99919.9
99916.3
99912.5
99908.6
99904.6
99900.5
99896.2
99891.8
99887.3
99882.6
99877.8
99872.8
99867.7
99862.4
99856.9
99851.2
99845.4
99839.4
99833.1
99826.7
99820
99813.1
99806
99798.6
99791
99783.1
99775
99766.6
99757.9
99748.9
99739.5
99729.9
99719.8
99709.5
99698.7
99687.5
99675.9
99663.9
99651.4
99638.4
99624.8
99610.7
99596.1
99580.7
99564.7
99548
99530.4
99511.9
99492.3
99471.6
99449.4
99425.7
99400.2
99372.7
99343.4
99312.9
99282.6
99254.6
99231.3
99214.2
99201.6
99196.1
99200.8
99227.3
99647.5
99991.1
99992.3
99991.9
99991
99990
99988.8
99987.6
99986.3
99985
99983.5
99982.1
99980.5
99978.9
99977.2
99975.5
99973.7
99971.8
99969.9
99967.8
99965.7
99963.6
99961.3
99959
99956.6
99954.1
99951.6
99948.9
99946.2
99943.3
99940.4
99937.4
99934.3
99931
99927.7
99924.3
99920.8
99917.2
99913.4
99909.5
99905.6
99901.4
99897.2
99892.8
99888.3
99883.7
99878.9
99873.9
99868.8
99863.5
99858.1
99852.4
99846.6
99840.6
99834.4
99828
99821.3
99814.4
99807.3
99800
99792.4
99784.5
99776.4
99767.9
99759.2
99750.2
99740.9
99731.2
99721.1
99710.7
99699.9
99688.7
99677
99664.9
99652.3
99639.2
99625.6
99611.4
99596.6
99581.2
99565
99548.1
99530.3
99511.7
99491.9
99471
99448.7
99424.9
99399.6
99372.7
99344.5
99316
99289.2
99266.4
99250.1
99244.2
99254.2
99291.2
99383.3
99581.5
100157
99989
99991.2
99991.5
99991
99990.2
99989.1
99988
99986.8
99985.5
99984.1
99982.6
99981.1
99979.5
99977.8
99976.1
99974.3
99972.4
99970.5
99968.5
99966.4
99964.3
99962
99959.7
99957.3
99954.9
99952.3
99949.7
99946.9
99944.1
99941.2
99938.2
99935.1
99931.9
99928.6
99925.2
99921.7
99918
99914.3
99910.4
99906.4
99902.3
99898.1
99893.7
99889.2
99884.6
99879.7
99874.8
99869.7
99864.4
99858.9
99853.2
99847.4
99841.4
99835.1
99828.7
99822
99815.1
99807.9
99800.6
99792.9
99785.1
99776.9
99768.4
99759.7
99750.7
99741.3
99731.6
99721.5
99711
99700.2
99689
99677.3
99665.1
99652.5
99639.3
99625.6
99611.4
99596.5
99580.9
99564.6
99547.5
99529.6
99510.7
99490.8
99469.6
99447.2
99423.4
99398.3
99372
99345.1
99318.9
99295.8
99278.6
99270.5
99279
99316.2
99402.7
99587.5
99922.1
100557
99987.1
99990.2
99991
99990.9
99990.3
99989.5
99988.4
99987.2
99985.9
99984.6
99983.1
99981.6
99980
99978.4
99976.7
99974.9
99973
99971.1
99969.1
99967
99964.8
99962.6
99960.3
99957.9
99955.4
99952.8
99950.2
99947.4
99944.6
99941.7
99938.7
99935.6
99932.4
99929
99925.6
99922.1
99918.4
99914.7
99910.8
99906.8
99902.7
99898.4
99894
99889.5
99884.8
99880
99875
99869.9
99864.6
99859.1
99853.4
99847.5
99841.5
99835.2
99828.8
99822.1
99815.1
99808
99800.6
99793
99785.1
99776.9
99768.5
99759.7
99750.7
99741.3
99731.6
99721.5
99711.1
99700.2
99688.9
99677.2
99665.1
99652.4
99639.2
99625.5
99611.1
99596.2
99580.5
99564.1
99546.8
99528.7
99509.6
99489.4
99468.1
99445.5
99421.7
99396.7
99371
99345.4
99321.3
99301.6
99289.8
99290.3
99313.9
99378.5
99514.5
99783.5
100215
100861
99985.5
99989.4
99990.6
99990.8
99990.4
99989.6
99988.6
99987.5
99986.2
99984.9
99983.4
99981.9
99980.3
99978.7
99976.9
99975.1
99973.3
99971.3
99969.3
99967.2
99965
99962.8
99960.5
99958.1
99955.6
99953
99950.3
99947.6
99944.7
99941.8
99938.8
99935.6
99932.4
99929.1
99925.6
99922.1
99918.4
99914.7
99910.8
99906.7
99902.6
99898.3
99893.9
99889.4
99884.7
99879.8
99874.8
99869.7
99864.4
99858.9
99853.2
99847.3
99841.3
99835
99828.6
99821.9
99815
99807.8
99800.5
99792.8
99785
99776.8
99768.4
99759.7
99750.6
99741.3
99731.6
99721.5
99711.1
99700.2
99689
99677.3
99665.1
99652.4
99639.2
99625.4
99611
99595.9
99580.1
99563.6
99546.2
99527.9
99508.5
99488.1
99466.6
99443.8
99419.8
99395.1
99369.9
99345.2
99322.9
99305.9
99298.6
99306.8
99343.8
99432.5
99611.2
99947.3
100442
101077
99984.5
99988.7
99990.2
99990.6
99990.3
99989.6
99988.7
99987.6
99986.3
99984.9
99983.5
99982
99980.4
99978.7
99977
99975.1
99973.3
99971.3
99969.3
99967.2
99965
99962.7
99960.4
99958
99955.5
99952.9
99950.2
99947.4
99944.6
99941.6
99938.6
99935.4
99932.2
99928.8
99925.4
99921.8
99918.2
99914.4
99910.5
99906.5
99902.3
99898
99893.6
99889.1
99884.4
99879.6
99874.6
99869.4
99864.1
99858.6
99853
99847.1
99841.1
99834.8
99828.4
99821.7
99814.8
99807.7
99800.3
99792.7
99784.9
99776.8
99768.4
99759.6
99750.6
99741.3
99731.6
99721.6
99711.1
99700.3
99689
99677.3
99665.2
99652.5
99639.2
99625.4
99610.9
99595.7
99579.9
99563.2
99545.6
99527.1
99507.6
99486.9
99465.1
99442.1
99418.1
99393.4
99368.5
99344.6
99323.5
99308.4
99304.1
99318
99364.5
99470.8
99680.3
100062
100592
101214
99983.9
99988.2
99989.9
99990.4
99990.2
99989.6
99988.7
99987.5
99986.3
99984.9
99983.5
99981.9
99980.3
99978.6
99976.9
99975.1
99973.2
99971.2
99969.2
99967
99964.8
99962.6
99960.2
99957.8
99955.3
99952.7
99950
99947.3
99944.4
99941.4
99938.4
99935.2
99932
99928.7
99925.2
99921.7
99918
99914.2
99910.3
99906.3
99902.2
99897.9
99893.5
99888.9
99884.3
99879.4
99874.4
99869.3
99864
99858.5
99852.9
99847
99841
99834.8
99828.3
99821.7
99814.8
99807.7
99800.3
99792.8
99784.9
99776.8
99768.4
99759.8
99750.8
99741.4
99731.8
99721.7
99711.3
99700.5
99689.3
99677.6
99665.4
99652.7
99639.4
99625.5
99611
99595.8
99579.8
99563
99545.2
99526.6
99506.8
99486
99464
99440.7
99416.4
99391.7
99367
99343.4
99323
99308.8
99305.9
99322.8
99374.7
99489.6
99714.5
100119
100666
101281
99983.7
99988.2
99989.9
99990.4
99990.2
99989.6
99988.7
99987.6
99986.3
99985
99983.5
99982
99980.4
99978.7
99977
99975.1
99973.2
99971.3
99969.2
99967.1
99964.9
99962.7
99960.3
99957.9
99955.4
99952.8
99950.1
99947.3
99944.5
99941.5
99938.5
99935.3
99932.1
99928.7
99925.3
99921.7
99918.1
99914.3
99910.4
99906.4
99902.2
99898
99893.6
99889
99884.3
99879.5
99874.5
99869.4
99864.1
99858.6
99853
99847.1
99841.1
99834.9
99828.5
99821.8
99815
99808
99800.6
99793
99785.2
99777.1
99768.7
99760
99751
99741.7
99732.1
99722
99711.7
99700.9
99689.6
99677.9
99665.7
99653
99639.7
99625.8
99611.2
99595.9
99579.9
99562.9
99545.1
99526.2
99506.3
99485.3
99463
99439.7
99415.4
99390.2
99365.3
99341.6
99321.2
99307
99304.1
99321
99373
99487.7
99711.9
100115
100662
101278
99984.1
99988.5
99990.1
99990.6
99990.3
99989.7
99988.7
99987.6
99986.4
99985
99983.6
99982.1
99980.5
99978.8
99977.1
99975.3
99973.4
99971.4
99969.4
99967.3
99965.2
99962.9
99960.6
99958.2
99955.7
99953.1
99950.4
99947.6
99944.8
99941.8
99938.8
99935.6
99932.4
99929.1
99925.6
99922
99918.4
99914.6
99910.7
99906.7
99902.5
99898.2
99893.8
99889.3
99884.6
99879.8
99874.8
99869.6
99864.3
99858.8
99853.2
99847.4
99841.3
99835.1
99828.7
99822.1
99815.3
99808.2
99800.9
99793.3
99785.5
99777.4
99769
99760.3
99751.4
99742.1
99732.4
99722.4
99712
99701.3
99690
99678.3
99666.2
99653.4
99640.1
99626.2
99611.5
99596.2
99580
99563
99545
99525.9
99505.8
99484.5
99462.1
99438.4
99413.7
99388.3
99362.9
99338.8
99317.8
99302.5
99297.8
99311.8
99358.6
99463.6
99670.6
100049
100577
101200
99985
99989.1
99990.5
99990.7
99990.3
99989.6
99988.6
99987.5
99986.2
99984.9
99983.5
99982
99980.4
99978.7
99977
99975.2
99973.4
99971.4
99969.4
99967.3
99965.2
99962.9
99960.6
99958.2
99955.7
99953.2
99950.5
99947.8
99944.9
99942
99939
99935.8
99932.6
99929.3
99925.8
99922.3
99918.6
99914.8
99911
99906.9
99902.8
99898.5
99894.1
99889.6
99884.9
99880
99875.1
99869.9
99864.6
99859.1
99853.5
99847.6
99841.6
99835.4
99829
99822.4
99815.5
99808.5
99801.2
99793.6
99785.8
99777.7
99769.3
99760.7
99751.7
99742.4
99732.8
99722.8
99712.4
99701.7
99690.4
99678.8
99666.6
99653.8
99640.5
99626.5
99611.9
99596.4
99580.2
99563
99544.9
99525.7
99505.5
99484
99461.2
99437.2
99412.1
99386.2
99360.2
99335.3
99313.2
99296
99288.1
99296.6
99333.5
99420.3
99595.3
99925.6
100417
101053
99986.6
99989.9
99990.8
99990.7
99990.2
99989.3
99988.3
99987.2
99985.9
99984.5
99983.1
99981.6
99980
99978.4
99976.7
99974.9
99973
99971.1
99969.1
99967
99964.9
99962.7
99960.4
99958
99955.5
99952.9
99950.3
99947.6
99944.7
99941.8
99938.8
99935.7
99932.5
99929.1
99925.7
99922.2
99918.5
99914.8
99910.9
99906.9
99902.8
99898.5
99894.1
99889.6
99884.9
99880.1
99875.1
99870
99864.7
99859.3
99853.6
99847.8
99841.8
99835.6
99829.2
99822.6
99815.8
99808.7
99801.4
99793.8
99786
99778
99769.6
99761
99752
99742.8
99733.1
99723.2
99712.8
99702.1
99690.9
99679.2
99667
99654.3
99640.9
99627
99612.3
99596.8
99580.5
99563.3
99545.1
99525.8
99505.3
99483.7
99460.7
99436.4
99410.8
99384.4
99357.5
99331.4
99307.8
99288.2
99276
99277.1
99300.5
99362.8
99494
99755.6
100182
100827
99988.5
99990.8
99991.2
99990.7
99990
99989
99987.9
99986.7
99985.4
99984
99982.5
99981
99979.4
99977.8
99976
99974.3
99972.4
99970.5
99968.5
99966.4
99964.2
99962
99959.7
99957.3
99954.8
99952.3
99949.6
99946.9
99944.1
99941.2
99938.2
99935
99931.8
99928.5
99925.1
99921.6
99917.9
99914.2
99910.3
99906.3
99902.2
99898
99893.6
99889.1
99884.5
99879.7
99874.8
99869.7
99864.4
99859
99853.3
99847.6
99841.6
99835.4
99829.1
99822.5
99815.7
99808.7
99801.4
99793.9
99786.1
99778.1
99769.8
99761.2
99752.3
99743
99733.4
99723.5
99713.2
99702.5
99691.3
99679.6
99667.5
99654.8
99641.4
99627.5
99612.8
99597.3
99581
99563.7
99545.4
99526
99505.4
99483.6
99460.4
99435.8
99409.8
99382.7
99354.9
99327.4
99301.7
99279.3
99262.7
99255.5
99263.8
99298.4
99379.6
99556.1
99882.7
100515
99990.6
99991.8
99991.6
99990.8
99989.8
99988.6
99987.4
99986.2
99984.8
99983.4
99982
99980.4
99978.8
99977.1
99975.4
99973.6
99971.7
99969.8
99967.8
99965.7
99963.5
99961.3
99958.9
99956.5
99954
99951.5
99948.8
99946.1
99943.3
99940.3
99937.3
99934.2
99930.9
99927.6
99924.2
99920.6
99917
99913.2
99909.4
99905.4
99901.3
99897
99892.7
99888.1
99883.5
99878.7
99873.8
99868.7
99863.4
99858
99852.4
99846.7
99840.7
99834.6
99828.3
99821.7
99815
99808
99800.8
99793.3
99785.6
99777.6
99769.3
99760.8
99751.9
99742.7
99733.2
99723.3
99713.1
99702.4
99691.3
99679.7
99667.6
99654.9
99641.6
99627.6
99613
99597.5
99581.2
99563.9
99545.5
99526.1
99505.4
99483.5
99460.1
99435.2
99408.9
99381.2
99352.5
99323.5
99295.5
99270.1
99249.2
99234.4
99228.3
99236
99267.7
99351.1
99539
100108
99992.8
99992.9
99992
99990.9
99989.7
99988.5
99987.2
99985.9
99984.5
99983.1
99981.6
99980
99978.4
99976.7
99975
99973.2
99971.3
99969.3
99967.3
99965.2
99963
99960.7
99958.4
99956
99953.5
99950.9
99948.2
99945.4
99942.6
99939.6
99936.6
99933.4
99930.2
99926.8
99923.4
99919.8
99916.1
99912.3
99908.4
99904.4
99900.3
99896
99891.6
99887.1
99882.4
99877.6
99872.6
99867.5
99862.2
99856.8
99851.2
99845.4
99839.5
99833.3
99827
99820.4
99813.7
99806.7
99799.4
99792
99784.3
99776.3
99768
99759.5
99750.7
99741.5
99732
99722.2
99711.9
99701.3
99690.3
99678.7
99666.7
99654.1
99640.8
99626.9
99612.3
99596.9
99580.6
99563.4
99545.1
99525.6
99504.9
99482.9
99459.4
99434.3
99407.7
99379.5
99349.9
99319.6
99289.5
99261.4
99236.7
99216.3
99198.7
99184.1
99173.6
99169.9
99184.5
99591.3
99994.7
99993.8
99992.5
99991.1
99989.8
99988.5
99987.2
99985.9
99984.5
99983
99981.5
99980
99978.3
99976.7
99974.9
99973.1
99971.2
99969.2
99967.2
99965.1
99962.9
99960.6
99958.2
99955.8
99953.3
99950.7
99948
99945.2
99942.3
99939.3
99936.2
99933.1
99929.8
99926.4
99923
99919.4
99915.7
99911.9
99908
99903.9
99899.8
99895.5
99891.1
99886.5
99881.8
99877
99872
99866.8
99861.5
99856
99850.4
99844.6
99838.5
99832.3
99825.9
99819.3
99812.5
99805.5
99798.2
99790.7
99782.9
99774.9
99766.6
99758
99749.2
99739.9
99730.4
99720.5
99710.3
99699.6
99688.5
99676.9
99664.8
99652.2
99638.9
99625
99610.4
99594.9
99578.6
99561.4
99543
99523.6
99502.9
99480.8
99457.3
99432.2
99405.4
99376.8
99346.7
99315.3
99283.8
99253.7
99226.4
99203
99178.4
99148.6
99108.5
99038.7
98869.8
98936.7
99996.3
99994.6
99993
99991.5
99990.1
99988.8
99987.4
99986.1
99984.7
99983.2
99981.7
99980.2
99978.5
99976.9
99975.1
99973.3
99971.4
99969.4
99967.4
99965.3
99963.1
99960.8
99958.4
99956
99953.5
99950.9
99948.2
99945.4
99942.5
99939.5
99936.4
99933.3
99930
99926.6
99923.1
99919.6
99915.9
99912.1
99908.1
99904.1
99899.9
99895.6
99891.2
99886.6
99881.9
99877.1
99872
99866.9
99861.6
99856.1
99850.4
99844.5
99838.5
99832.3
99825.8
99819.1
99812.3
99805.2
99797.9
99790.4
99782.6
99774.5
99766.2
99757.5
99748.6
99739.3
99729.7
99719.8
99709.5
99698.7
99687.6
99675.9
99663.8
99651
99637.7
99623.6
99608.9
99593.3
99576.8
99559.4
99540.9
99521.2
99500.3
99478
99454.2
99428.8
99401.6
99372.5
99341.7
99309.4
99276.5
99244.6
99215
99188.7
99164.2
99130.7
99074.7
98966.2
98653
98060.4
99998
99995.3
99993.5
99991.9
99990.5
99989.1
99987.8
99986.5
99985.1
99983.6
99982.1
99980.6
99979
99977.3
99975.5
99973.7
99971.8
99969.8
99967.8
99965.7
99963.5
99961.2
99958.9
99956.5
99953.9
99951.3
99948.7
99945.9
99943
99940
99936.9
99933.8
99930.5
99927.2
99923.7
99920.1
99916.4
99912.6
99908.7
99904.7
99900.5
99896.2
99891.8
99887.2
99882.5
99877.7
99872.7
99867.5
99862.2
99856.7
99851
99845.2
99839.2
99832.9
99826.5
99819.8
99813
99805.9
99798.6
99791
99783.2
99775.1
99766.8
99758.1
99749.2
99739.9
99730.3
99720.4
99710
99699.3
99688.1
99676.4
99664.3
99651.5
99638.1
99624.1
99609.3
99593.7
99577.2
99559.7
99541.2
99521.5
99500.5
99478.2
99454.3
99428.8
99401.5
99372.3
99341.3
99308.8
99275.9
99244.1
99214.3
99187.3
99152.6
99114.4
99054.2
98934.1
98552.4
96886.7
100563
101839
102382
102691
102903
103062
103187
103287
103369
103436
103491
103536
103573
103602
103625
103641
103652
103658
103659
103656
100518
101544
102178
102577
102844
103036
103181
103294
103383
103456
103514
103560
103597
103626
103647
103662
103671
103675
103674
103666
100805
101575
102120
102517
102804
103014
103173
103296
103392
103469
103529
103577
103613
103641
103662
103675
103683
103685
103684
103672
101082
101708
102170
102530
102807
103020
103183
103310
103410
103488
103549
103597
103633
103659
103678
103689
103695
103696
103693
103677
101318
101849
102253
102579
102839
103044
103206
103333
103434
103512
103573
103619
103653
103677
103694
103703
103706
103705
103700
103680
101517
101981
102343
102642
102885
103081
103238
103362
103461
103538
103597
103641
103673
103695
103709
103715
103717
103714
103706
103682
101679
102094
102427
102704
102933
103120
103272
103393
103489
103564
103621
103664
103694
103713
103723
103727
103726
103722
103711
103683
101800
102182
102495
102757
102976
103156
103303
103421
103516
103589
103645
103685
103712
103729
103736
103738
103735
103728
103714
103685
101881
102242
102543
102796
103009
103186
103330
103446
103539
103611
103666
103704
103729
103743
103748
103747
103742
103733
103716
103687
101925
102277
102572
102821
103031
103206
103349
103464
103556
103627
103680
103718
103741
103753
103757
103754
103748
103737
103717
103692
101922
102275
102569
102819
103029
103203
103346
103462
103554
103625
103678
103716
103740
103752
103755
103753
103746
103736
103718
103691
101870
102233
102533
102787
103001
103178
103322
103439
103533
103606
103660
103700
103726
103740
103746
103745
103740
103731
103716
103690
101781
102165
102479
102743
102963
103144
103292
103412
103507
103581
103638
103679
103708
103725
103733
103735
103733
103726
103713
103689
101652
102070
102404
102684
102915
103104
103257
103380
103478
103554
103613
103657
103688
103708
103720
103724
103724
103719
103709
103687
101484
101951
102316
102617
102862
103061
103220
103347
103448
103527
103587
103633
103667
103690
103705
103712
103714
103712
103704
103682
101279
101814
102221
102550
102814
103022
103187
103317
103419
103499
103562
103610
103646
103672
103689
103699
103703
103703
103698
103680
101037
101668
102134
102499
102780
102996
103162
103292
103394
103475
103538
103587
103625
103653
103673
103685
103692
103693
103690
103676
100755
101530
102081
102484
102775
102989
103151
103277
103376
103455
103517
103567
103605
103635
103656
103671
103679
103682
103681
103672
100462
101496
102138
102544
102816
103011
103159
103275
103367
103441
103502
103550
103588
103618
103641
103657
103667
103672
103671
103665
100506
101794
102344
102659
102875
103037
103165
103268
103352
103421
103479
103525
103564
103594
103618
103636
103648
103654
103656
103653
103498
103496
103495
103495
103494
103493
103493
103492
103492
103492
103492
103492
103492
103493
103493
103494
103495
103495
103496
103498
103495
103493
103493
103492
103492
103492
103491
103491
103491
103491
103491
103491
103491
103491
103492
103492
103492
103493
103493
103495
103494
103492
103492
103492
103492
103492
103492
103492
103492
103492
103492
103492
103492
103492
103492
103492
103492
103492
103492
103494
103494
103493
103493
103492
103492
103492
103492
103492
103492
103492
103492
103492
103492
103492
103492
103492
103492
103493
103493
103494
103494
103492
103492
103492
103492
103492
103492
103492
103492
103492
103492
103492
103492
103492
103492
103492
103492
103492
103492
103494
103493
103492
103492
103491
103491
103491
103491
103491
103491
103491
103491
103491
103491
103491
103491
103491
103491
103492
103492
103493
103493
103491
103491
103491
103491
103491
103491
103491
103491
103491
103491
103491
103491
103491
103491
103491
103491
103491
103491
103493
103492
103490
103490
103490
103490
103490
103490
103490
103490
103490
103490
103490
103490
103490
103490
103490
103490
103490
103490
103492
103491
103490
103490
103490
103489
103489
103489
103489
103489
103489
103489
103489
103489
103489
103489
103489
103490
103490
103490
103491
103491
103489
103489
103489
103489
103489
103489
103489
103489
103489
103489
103489
103489
103489
103489
103489
103489
103489
103489
103491
103490
103488
103488
103488
103488
103488
103488
103488
103488
103488
103488
103488
103488
103488
103488
103488
103488
103488
103488
103490
103489
103488
103488
103488
103487
103487
103487
103487
103487
103487
103487
103487
103487
103487
103487
103487
103488
103488
103488
103489
103489
103487
103487
103487
103487
103487
103487
103487
103487
103487
103487
103487
103487
103487
103487
103487
103487
103487
103487
103489
103488
103486
103486
103486
103486
103486
103486
103486
103486
103486
103486
103486
103486
103486
103486
103486
103486
103486
103486
103488
103487
103486
103485
103485
103485
103485
103485
103485
103485
103485
103485
103485
103485
103485
103485
103485
103485
103485
103486
103487
103486
103485
103485
103485
103484
103484
103484
103484
103484
103484
103484
103484
103484
103484
103484
103484
103485
103485
103485
103486
103485
103484
103484
103484
103484
103484
103484
103484
103484
103484
103484
103484
103484
103484
103484
103484
103484
103484
103484
103485
103485
103483
103483
103483
103483
103483
103483
103483
103483
103483
103483
103483
103483
103483
103483
103483
103483
103483
103483
103485
103484
103482
103482
103482
103482
103482
103482
103482
103482
103482
103482
103482
103482
103482
103482
103482
103482
103482
103482
103484
103483
103482
103481
103481
103481
103481
103481
103481
103481
103481
103481
103481
103481
103481
103481
103481
103481
103481
103482
103483
103482
103481
103481
103481
103481
103481
103480
103480
103480
103480
103480
103480
103480
103480
103481
103481
103481
103481
103481
103482
103481
103480
103480
103480
103480
103480
103480
103480
103480
103480
103480
103480
103480
103480
103480
103480
103480
103480
103480
103481
103480
103479
103479
103479
103479
103479
103479
103479
103479
103479
103479
103479
103479
103479
103479
103479
103479
103479
103479
103480
103480
103478
103478
103478
103478
103478
103478
103478
103478
103478
103478
103478
103478
103478
103478
103478
103478
103478
103478
103480
103479
103478
103477
103477
103477
103477
103477
103477
103477
103477
103477
103477
103477
103477
103477
103477
103477
103477
103478
103479
103478
103477
103477
103477
103477
103477
103476
103476
103476
103476
103476
103476
103476
103476
103477
103477
103477
103477
103477
103478
103477
103476
103476
103476
103476
103476
103476
103476
103476
103476
103476
103476
103476
103476
103476
103476
103476
103476
103476
103477
103476
103475
103475
103475
103475
103475
103475
103475
103475
103475
103475
103475
103475
103475
103475
103475
103475
103475
103475
103476
103475
103474
103474
103474
103474
103474
103474
103474
103474
103474
103474
103474
103474
103474
103474
103474
103474
103474
103474
103475
103475
103474
103473
103473
103473
103473
103473
103473
103473
103473
103473
103473
103473
103473
103473
103473
103473
103473
103474
103475
103474
103473
103473
103473
103473
103473
103472
103472
103472
103472
103472
103472
103472
103472
103473
103473
103473
103473
103473
103474
103473
103472
103472
103472
103472
103472
103472
103472
103472
103472
103472
103472
103472
103472
103472
103472
103472
103472
103472
103473
103472
103471
103471
103471
103471
103471
103471
103471
103471
103471
103471
103471
103471
103471
103471
103471
103471
103471
103471
103472
103471
103470
103470
103470
103470
103470
103470
103470
103470
103470
103470
103470
103470
103470
103470
103470
103470
103470
103470
103471
103470
103470
103469
103469
103469
103469
103469
103469
103469
103469
103469
103469
103469
103469
103469
103469
103469
103469
103470
103470
103470
103469
103469
103469
103469
103469
103469
103468
103468
103468
103468
103468
103468
103469
103469
103469
103469
103469
103469
103470
103469
103468
103468
103468
103468
103468
103468
103468
103468
103468
103468
103468
103468
103468
103468
103468
103468
103468
103468
103469
103468
103467
103467
103467
103467
103467
103467
103467
103467
103467
103467
103467
103467
103467
103467
103467
103467
103467
103467
103468
103467
103466
103466
103466
103466
103466
103466
103466
103466
103466
103466
103466
103466
103466
103466
103466
103466
103466
103466
103467
103466
103466
103466
103466
103465
103465
103465
103465
103465
103465
103465
103465
103465
103465
103465
103465
103466
103466
103466
103466
103465
103465
103465
103465
103465
103465
103465
103465
103465
103465
103465
103465
103465
103465
103465
103465
103465
103465
103465
103465
103465
103464
103464
103464
103464
103464
103464
103464
103464
103464
103464
103464
103464
103464
103464
103464
103464
103464
103464
103465
103464
103463
103463
103463
103463
103463
103463
103463
103463
103463
103463
103463
103463
103463
103463
103463
103463
103463
103463
103464
103463
103463
103463
103463
103462
103462
103462
103462
103462
103462
103462
103462
103462
103462
103462
103462
103463
103463
103463
103463
103462
103462
103462
103462
103462
103462
103462
103462
103462
103462
103462
103462
103462
103462
103462
103462
103462
103462
103462
103462
103462
103461
103461
103461
103461
103461
103461
103461
103461
103461
103461
103461
103461
103461
103461
103461
103461
103461
103461
103462
103461
103460
103460
103460
103460
103460
103460
103460
103460
103460
103460
103460
103460
103460
103460
103460
103460
103460
103460
103461
103460
103460
103460
103460
103460
103460
103459
103459
103459
103459
103459
103459
103459
103459
103460
103460
103460
103460
103460
103460
103459
103459
103459
103459
103459
103459
103459
103459
103459
103459
103459
103459
103459
103459
103459
103459
103459
103459
103459
103459
103459
103458
103458
103458
103458
103458
103458
103458
103458
103458
103458
103458
103458
103458
103458
103458
103458
103458
103458
103459
103458
103458
103457
103457
103457
103457
103457
103457
103457
103457
103457
103457
103457
103457
103457
103457
103457
103457
103458
103458
103457
103457
103457
103457
103457
103457
103457
103457
103457
103457
103457
103457
103457
103457
103457
103457
103457
103457
103457
103457
103456
103456
103456
103456
103456
103456
103456
103456
103456
103456
103456
103456
103456
103456
103456
103456
103456
103456
103456
103456
103456
103455
103455
103455
103455
103455
103455
103455
103455
103455
103455
103455
103455
103455
103455
103455
103455
103455
103455
103456
103455
103455
103455
103455
103455
103455
103455
103454
103454
103454
103454
103454
103454
103455
103455
103455
103455
103455
103455
103455
103454
103454
103454
103454
103454
103454
103454
103454
103454
103454
103454
103454
103454
103454
103454
103454
103454
103454
103454
103454
103453
103453
103453
103453
103453
103453
103453
103453
103453
103453
103453
103453
103453
103453
103453
103453
103453
103453
103453
103453
103453
103453
103453
103453
103452
103452
103452
103452
103452
103452
103452
103452
103452
103452
103452
103453
103453
103453
103453
103453
103452
103452
103452
103452
103452
103452
103452
103452
103452
103452
103452
103452
103452
103452
103452
103452
103452
103452
103452
103452
103451
103451
103451
103451
103451
103451
103451
103451
103451
103451
103451
103451
103451
103451
103451
103451
103451
103451
103451
103451
103451
103451
103451
103450
103450
103450
103450
103450
103450
103450
103450
103450
103450
103450
103450
103450
103451
103451
103451
103451
103450
103450
103450
103450
103450
103450
103450
103450
103450
103450
103450
103450
103450
103450
103450
103450
103450
103450
103450
103450
103449
103449
103449
103449
103449
103449
103449
103449
103449
103449
103449
103449
103449
103449
103449
103449
103449
103449
103449
103449
103449
103449
103449
103448
103448
103448
103448
103448
103448
103448
103448
103448
103448
103448
103448
103449
103449
103449
103449
103449
103448
103448
103448
103448
103448
103448
103448
103448
103448
103448
103448
103448
103448
103448
103448
103448
103448
103448
103448
103448
103447
103447
103447
103447
103447
103447
103447
103447
103447
103447
103447
103447
103447
103447
103447
103447
103447
103447
103447
103447
103447
103447
103447
103447
103446
103446
103446
103446
103446
103446
103446
103446
103446
103447
103447
103447
103447
103447
103447
103447
103446
103446
103446
103446
103446
103446
103446
103446
103446
103446
103446
103446
103446
103446
103446
103446
103446
103446
103446
103446
103445
103445
103445
103445
103445
103445
103445
103445
103445
103445
103445
103445
103445
103445
103445
103445
103445
103445
103446
103446
103445
103445
103445
103445
103445
103445
103445
103445
103445
103445
103445
103445
103445
103445
103445
103445
103445
103445
103445
103445
103444
103444
103444
103444
103444
103444
103444
103444
103444
103444
103444
103444
103444
103444
103444
103444
103444
103444
103444
103444
103443
103443
103443
103443
103443
103443
103443
103443
103443
103443
103443
103443
103443
103443
103443
103444
103444
103444
103444
103444
103443
103443
103443
103443
103442
103443
103443
103443
103443
103443
103443
103443
103443
103443
103443
103443
103443
103443
103443
103443
103442
103442
103442
103442
103442
103442
103442
103442
103442
103442
103442
103442
103442
103442
103442
103442
103442
103443
103443
103443
103441
103441
103441
103441
103441
103441
103441
103441
103441
103441
103441
103442
103442
103442
103442
103442
103442
103442
103442
103442
103440
103440
103440
103440
103440
103440
103440
103441
103441
103441
103441
103441
103441
103441
103441
103441
103441
103442
103442
103442
103440
103440
103440
103440
103440
103440
103440
103440
103440
103440
103440
103440
103441
103441
103441
103441
103441
103441
103441