/*--------------------------------*- C++ -*----------------------------------*\
| =========                 |                                                 |
| \\      /  F ield         | OpenFOAM: The Open Source CFD Toolbox           |
|  \\    /   O peration     | Version:  2.1.0                                 |
|   \\  /    A nd           | Web:      www.OpenFOAM.org                      |
|    \\/     M anipulation  |                                                 |
\*---------------------------------------------------------------------------*/
FoamFile
{
    version     2.0;
    format      ascii;
    class       surfaceScalarField;
    location    "0.42";
    object      phi;
}
// * * * * * * * * * * * * * * * * * * * * * * * * * * * * * * * * * * * * * //

dimensions      [0 3 -1 0 0 0 0];

internalField   nonuniform List<scalar> 
12460
(
-2.60322e-05
-3.98737e-09
-2.59952e-05
-4.01761e-08
-2.59353e-05
-6.30492e-08
-2.58636e-05
-7.46905e-08
-2.57849e-05
-8.15845e-08
-2.57015e-05
-8.6216e-08
-2.56146e-05
-8.95557e-08
-2.55251e-05
-9.218e-08
-2.54332e-05
-9.43941e-08
-2.53393e-05
-9.63889e-08
-2.52434e-05
-9.8268e-08
-2.51456e-05
-1.00096e-07
-2.50459e-05
-1.0191e-07
-2.49443e-05
-1.03727e-07
-2.48408e-05
-1.05565e-07
-2.47353e-05
-1.07426e-07
-2.46279e-05
-1.0932e-07
-2.45185e-05
-1.11243e-07
-2.44071e-05
-1.13204e-07
-2.42936e-05
-1.15192e-07
-2.4178e-05
-1.17213e-07
-2.40603e-05
-1.19256e-07
-2.39405e-05
-1.21348e-07
-2.38185e-05
-1.23476e-07
-2.36942e-05
-1.2561e-07
-2.35678e-05
-1.27815e-07
-2.34389e-05
-1.30159e-07
-2.33075e-05
-1.32581e-07
-2.31736e-05
-1.35079e-07
-2.30371e-05
-1.37649e-07
-2.28978e-05
-1.40303e-07
-2.27558e-05
-1.43042e-07
-2.26109e-05
-1.45879e-07
-2.2463e-05
-1.48818e-07
-2.2312e-05
-1.51867e-07
-2.21578e-05
-1.55026e-07
-2.20003e-05
-1.58306e-07
-2.18394e-05
-1.61709e-07
-2.16748e-05
-1.65248e-07
-2.15066e-05
-1.68935e-07
-2.13344e-05
-1.7279e-07
-2.11582e-05
-1.76812e-07
-2.09778e-05
-1.81008e-07
-2.07929e-05
-1.85388e-07
-2.06035e-05
-1.89956e-07
-2.04092e-05
-1.94712e-07
-2.021e-05
-1.99659e-07
-2.00057e-05
-2.0479e-07
-1.9796e-05
-2.10094e-07
-1.95807e-05
-2.15589e-07
-1.93599e-05
-2.21185e-07
-1.91334e-05
-2.26825e-07
-1.89009e-05
-2.32821e-07
-1.86619e-05
-2.39272e-07
-1.84161e-05
-2.46021e-07
-1.81634e-05
-2.52887e-07
-1.79041e-05
-2.59574e-07
-1.76382e-05
-2.66041e-07
-1.7366e-05
-2.72448e-07
-1.70872e-05
-2.78944e-07
-1.68018e-05
-2.85592e-07
-1.65095e-05
-2.92393e-07
-1.62102e-05
-2.99406e-07
-1.59036e-05
-3.06688e-07
-1.55895e-05
-3.14251e-07
-1.52674e-05
-3.2214e-07
-1.49371e-05
-3.30382e-07
-1.45982e-05
-3.39039e-07
-1.42501e-05
-3.48144e-07
-1.38924e-05
-3.57732e-07
-1.35246e-05
-3.67828e-07
-1.31462e-05
-3.78486e-07
-1.27564e-05
-3.89744e-07
-1.23548e-05
-4.01668e-07
-1.19405e-05
-4.14333e-07
-1.15126e-05
-4.27837e-07
-1.10703e-05
-4.42309e-07
-1.06124e-05
-4.57908e-07
-1.01375e-05
-4.74857e-07
-9.64398e-06
-4.93488e-07
-9.12974e-06
-5.14212e-07
-8.59215e-06
-5.37544e-07
-8.02796e-06
-5.64144e-07
-7.43316e-06
-5.94742e-07
-6.80319e-06
-6.299e-07
-6.13329e-06
-6.69824e-07
-5.41905e-06
-7.14142e-07
-4.65773e-06
-7.61213e-07
-3.85061e-06
-8.06983e-07
-3.00775e-06
-8.4269e-07
-2.15704e-06
-8.50511e-07
-1.36145e-06
-7.95341e-07
-7.24459e-07
-6.36726e-07
-3.48922e-07
-3.75379e-07
-2.75904e-07
-7.33329e-08
-5.30286e-07
2.53609e-07
-1.42358e-06
8.92633e-07
-3.71722e-06
2.29357e-06
-9.2883e-06
5.57108e-06
1.54965e-05
-2.47848e-05
-3.13594e-05
-2.32711e-08
-3.13101e-05
-9.30465e-08
-3.12459e-05
-1.30688e-07
-3.11728e-05
-1.51259e-07
-3.10938e-05
-1.63879e-07
-3.10109e-05
-1.72405e-07
-3.09251e-05
-1.78564e-07
-3.08369e-05
-1.83395e-07
-3.07468e-05
-1.87471e-07
-3.0655e-05
-1.91135e-07
-3.05615e-05
-1.94591e-07
-3.04664e-05
-1.97949e-07
-3.03696e-05
-2.01288e-07
-3.02713e-05
-2.04636e-07
-3.01713e-05
-2.08033e-07
-3.00697e-05
-2.11477e-07
-2.99663e-05
-2.14994e-07
-2.98613e-05
-2.18572e-07
-2.97544e-05
-2.2223e-07
-2.96458e-05
-2.25949e-07
-2.95353e-05
-2.29736e-07
-2.9423e-05
-2.33568e-07
-2.93088e-05
-2.37473e-07
-2.91926e-05
-2.4145e-07
-2.90746e-05
-2.45377e-07
-2.89548e-05
-2.49367e-07
-2.8833e-05
-2.5359e-07
-2.87093e-05
-2.57906e-07
-2.85835e-05
-2.62327e-07
-2.84558e-05
-2.66854e-07
-2.8326e-05
-2.71509e-07
-2.81941e-05
-2.76295e-07
-2.806e-05
-2.8123e-07
-2.79237e-05
-2.86322e-07
-2.77852e-05
-2.91583e-07
-2.76443e-05
-2.97019e-07
-2.75011e-05
-3.02643e-07
-2.73554e-05
-3.08469e-07
-2.72071e-05
-3.14507e-07
-2.70562e-05
-3.20757e-07
-2.69026e-05
-3.2726e-07
-2.67462e-05
-3.34021e-07
-2.6587e-05
-3.41055e-07
-2.64248e-05
-3.48382e-07
-2.62594e-05
-3.56014e-07
-2.60909e-05
-3.63964e-07
-2.59189e-05
-3.72248e-07
-2.57435e-05
-3.80873e-07
-2.55643e-05
-3.89836e-07
-2.53813e-05
-3.99172e-07
-2.51942e-05
-4.08808e-07
-2.5003e-05
-4.18504e-07
-2.48081e-05
-4.28236e-07
-2.46097e-05
-4.3805e-07
-2.44082e-05
-4.4796e-07
-2.42035e-05
-4.57996e-07
-2.39954e-05
-4.68081e-07
-2.37837e-05
-4.78112e-07
-2.35684e-05
-4.8813e-07
-2.33494e-05
-4.98262e-07
-2.31267e-05
-5.08587e-07
-2.29003e-05
-5.19135e-07
-2.267e-05
-5.29951e-07
-2.24359e-05
-5.41075e-07
-2.21979e-05
-5.52543e-07
-2.19559e-05
-5.64407e-07
-2.17098e-05
-5.76715e-07
-2.14596e-05
-5.89539e-07
-2.1205e-05
-6.02948e-07
-2.09459e-05
-6.17023e-07
-2.06822e-05
-6.31838e-07
-2.04134e-05
-6.47501e-07
-2.01393e-05
-6.64109e-07
-1.98594e-05
-6.81812e-07
-1.95731e-05
-7.00777e-07
-1.928e-05
-7.21209e-07
-1.89792e-05
-7.43366e-07
-1.86698e-05
-7.67542e-07
-1.83508e-05
-7.94112e-07
-1.80209e-05
-8.23607e-07
-1.76788e-05
-8.56648e-07
-1.73226e-05
-8.93936e-07
-1.69508e-05
-9.36311e-07
-1.65611e-05
-9.84687e-07
-1.61516e-05
-1.03978e-06
-1.572e-05
-1.10178e-06
-1.52646e-05
-1.16984e-06
-1.47852e-05
-1.24107e-06
-1.42837e-05
-1.309e-06
-1.37662e-05
-1.36081e-06
-1.3245e-05
-1.37244e-06
-1.27385e-05
-1.30279e-06
-1.22825e-05
-1.09411e-06
-1.19571e-05
-7.02379e-07
-1.20255e-05
-6.55741e-09
-1.2567e-05
7.93958e-07
-1.39427e-05
2.2677e-06
-1.66735e-05
5.02433e-06
-2.17993e-05
1.06969e-05
2.65665e-05
-3.28693e-05
-3.43419e-05
-5.02354e-08
-3.42996e-05
-1.39278e-07
-3.42453e-05
-1.88761e-07
-3.41836e-05
-2.16779e-07
-3.4117e-05
-2.34133e-07
-3.40472e-05
-2.45829e-07
-3.39751e-05
-2.54186e-07
-3.39012e-05
-2.60706e-07
-3.38259e-05
-2.6613e-07
-3.37494e-05
-2.70989e-07
-3.36716e-05
-2.75521e-07
-3.35928e-05
-2.79923e-07
-3.35128e-05
-2.84273e-07
-3.34318e-05
-2.88643e-07
-3.33496e-05
-2.93064e-07
-3.32664e-05
-2.97565e-07
-3.31819e-05
-3.02159e-07
-3.30963e-05
-3.06859e-07
-3.30095e-05
-3.11674e-07
-3.29213e-05
-3.16609e-07
-3.28318e-05
-3.21668e-07
-3.27409e-05
-3.26839e-07
-3.26485e-05
-3.32161e-07
-3.25546e-05
-3.37654e-07
-3.24589e-05
-3.43176e-07
-3.23617e-05
-3.4866e-07
-3.22632e-05
-3.5417e-07
-3.21634e-05
-3.59692e-07
-3.20623e-05
-3.65291e-07
-3.196e-05
-3.70993e-07
-3.18565e-05
-3.7682e-07
-3.17517e-05
-3.82783e-07
-3.16457e-05
-3.88896e-07
-3.15384e-05
-3.95166e-07
-3.14299e-05
-4.01606e-07
-3.13202e-05
-4.08217e-07
-3.12092e-05
-4.15006e-07
-3.1097e-05
-4.2199e-07
-3.09836e-05
-4.2919e-07
-3.08691e-05
-4.36573e-07
-3.07533e-05
-4.44181e-07
-3.06365e-05
-4.52023e-07
-3.05185e-05
-4.60101e-07
-3.03995e-05
-4.68437e-07
-3.02795e-05
-4.77033e-07
-3.01585e-05
-4.85898e-07
-3.00366e-05
-4.95042e-07
-2.99138e-05
-5.04469e-07
-2.97903e-05
-5.1417e-07
-2.96662e-05
-5.24114e-07
-2.95415e-05
-5.34246e-07
-2.94162e-05
-5.44481e-07
-2.92904e-05
-5.54661e-07
-2.91645e-05
-5.64642e-07
-2.90386e-05
-5.74463e-07
-2.89129e-05
-5.84264e-07
-2.87874e-05
-5.94196e-07
-2.86618e-05
-6.04206e-07
-2.85363e-05
-6.14179e-07
-2.84109e-05
-6.24134e-07
-2.82859e-05
-6.34089e-07
-2.81614e-05
-6.44074e-07
-2.80377e-05
-6.54111e-07
-2.7915e-05
-6.64199e-07
-2.77936e-05
-6.74361e-07
-2.76738e-05
-6.84614e-07
-2.75559e-05
-6.94985e-07
-2.74403e-05
-7.05502e-07
-2.73274e-05
-7.16211e-07
-2.72177e-05
-7.2718e-07
-2.71114e-05
-7.38481e-07
-2.70091e-05
-7.50225e-07
-2.6911e-05
-7.62508e-07
-2.68177e-05
-7.75506e-07
-2.67295e-05
-7.89438e-07
-2.66465e-05
-8.04563e-07
-2.6569e-05
-8.21239e-07
-2.64971e-05
-8.3987e-07
-2.64307e-05
-8.60939e-07
-2.63696e-05
-8.85152e-07
-2.63133e-05
-9.13323e-07
-2.62614e-05
-9.46295e-07
-2.62132e-05
-9.85017e-07
-2.61679e-05
-1.03044e-06
-2.61249e-05
-1.08332e-06
-2.60833e-05
-1.14383e-06
-2.60429e-05
-1.21077e-06
-2.60041e-05
-1.2804e-06
-2.59688e-05
-1.34482e-06
-2.59412e-05
-1.38905e-06
-2.59272e-05
-1.38695e-06
-2.59347e-05
-1.29582e-06
-2.59755e-05
-1.0538e-06
-2.60937e-05
-5.84458e-07
-2.62787e-05
1.78269e-07
-2.67925e-05
1.30761e-06
-2.78219e-05
3.29712e-06
-2.97508e-05
6.95322e-06
-3.33018e-05
1.42479e-05
3.11945e-05
-3.79298e-05
-3.70342e-05
-7.69144e-08
-3.70041e-05
-1.7357e-07
-3.69668e-05
-2.30271e-07
-3.6924e-05
-2.6377e-07
-3.68775e-05
-2.84734e-07
-3.68286e-05
-2.98716e-07
-3.67783e-05
-3.08542e-07
-3.67268e-05
-3.1606e-07
-3.66746e-05
-3.22172e-07
-3.66218e-05
-3.27555e-07
-3.65685e-05
-3.32483e-07
-3.65148e-05
-3.37222e-07
-3.64607e-05
-3.41847e-07
-3.64064e-05
-3.46471e-07
-3.63517e-05
-3.5111e-07
-3.62968e-05
-3.55817e-07
-3.62416e-05
-3.60592e-07
-3.61861e-05
-3.65464e-07
-3.61305e-05
-3.70433e-07
-3.60746e-05
-3.75516e-07
-3.60185e-05
-3.80711e-07
-3.59623e-05
-3.85995e-07
-3.59059e-05
-3.91403e-07
-3.58494e-05
-3.96903e-07
-3.57927e-05
-4.02502e-07
-3.57359e-05
-4.08162e-07
-3.56789e-05
-4.1375e-07
-3.56218e-05
-4.1929e-07
-3.55646e-05
-4.2485e-07
-3.55075e-05
-4.30466e-07
-3.54505e-05
-4.36157e-07
-3.53936e-05
-4.41932e-07
-3.53369e-05
-4.478e-07
-3.52804e-05
-4.53764e-07
-3.52242e-05
-4.59827e-07
-3.51684e-05
-4.65986e-07
-3.51131e-05
-4.72234e-07
-3.50584e-05
-4.78572e-07
-3.50043e-05
-4.8502e-07
-3.49511e-05
-4.91555e-07
-3.48988e-05
-4.98191e-07
-3.48475e-05
-5.04913e-07
-3.47974e-05
-5.11714e-07
-3.47487e-05
-5.18596e-07
-3.47017e-05
-5.25548e-07
-3.46564e-05
-5.32555e-07
-3.46132e-05
-5.39604e-07
-3.45722e-05
-5.46675e-07
-3.45339e-05
-5.53737e-07
-3.44984e-05
-5.60729e-07
-3.44662e-05
-5.67568e-07
-3.44374e-05
-5.74369e-07
-3.44118e-05
-5.81274e-07
-3.43893e-05
-5.88104e-07
-3.437e-05
-5.94707e-07
-3.4354e-05
-6.0112e-07
-3.43416e-05
-6.07415e-07
-3.43331e-05
-6.13567e-07
-3.43285e-05
-6.19472e-07
-3.43283e-05
-6.25087e-07
-3.43327e-05
-6.30375e-07
-3.43421e-05
-6.3533e-07
-3.43569e-05
-6.39992e-07
-3.43773e-05
-6.44374e-07
-3.44037e-05
-6.48491e-07
-3.44365e-05
-6.52363e-07
-3.4476e-05
-6.56026e-07
-3.45225e-05
-6.59522e-07
-3.45762e-05
-6.62924e-07
-3.46375e-05
-6.66327e-07
-3.47066e-05
-6.69849e-07
-3.47836e-05
-6.73665e-07
-3.48685e-05
-6.77969e-07
-3.49614e-05
-6.83026e-07
-3.5062e-05
-6.89165e-07
-3.51701e-05
-6.96789e-07
-3.52853e-05
-7.06405e-07
-3.54068e-05
-7.186e-07
-3.55341e-05
-7.33957e-07
-3.56662e-05
-7.53353e-07
-3.5802e-05
-7.77782e-07
-3.59404e-05
-8.08147e-07
-3.60802e-05
-8.45423e-07
-3.62203e-05
-8.90509e-07
-3.63598e-05
-9.43986e-07
-3.64981e-05
-1.00572e-06
-3.6635e-05
-1.07403e-06
-3.6771e-05
-1.14448e-06
-3.69077e-05
-1.20822e-06
-3.70472e-05
-1.24965e-06
-3.71914e-05
-1.24279e-06
-3.73397e-05
-1.14761e-06
-3.74916e-05
-9.01966e-07
-3.76448e-05
-4.31204e-07
-3.78063e-05
3.39748e-07
-3.8108e-05
1.60932e-06
-3.86696e-05
3.85872e-06
-3.96634e-05
7.94693e-06
-4.12731e-05
1.58576e-05
3.12585e-05
-4.1337e-05
-3.97462e-05
-9.65663e-08
-3.97336e-05
-1.90711e-07
-3.97197e-05
-2.48707e-07
-3.97038e-05
-2.84244e-07
-3.96864e-05
-3.06734e-07
-3.96681e-05
-3.21458e-07
-3.96495e-05
-3.31604e-07
-3.96308e-05
-3.39063e-07
-3.96124e-05
-3.44935e-07
-3.95943e-05
-3.49892e-07
-3.95767e-05
-3.54307e-07
-3.95596e-05
-3.58421e-07
-3.95432e-05
-3.6236e-07
-3.95275e-05
-3.66213e-07
-3.95125e-05
-3.70023e-07
-3.94984e-05
-3.7382e-07
-3.94852e-05
-3.77618e-07
-3.9473e-05
-3.81425e-07
-3.94619e-05
-3.85248e-07
-3.9452e-05
-3.89092e-07
-3.94434e-05
-3.92957e-07
-3.94361e-05
-3.96771e-07
-3.94305e-05
-4.00572e-07
-3.94264e-05
-4.04348e-07
-3.94242e-05
-4.08137e-07
-3.94236e-05
-4.12078e-07
-3.94245e-05
-4.16084e-07
-3.94269e-05
-4.2004e-07
-3.9431e-05
-4.23955e-07
-3.94367e-05
-4.27845e-07
-3.94441e-05
-4.31723e-07
-3.94534e-05
-4.35594e-07
-3.94647e-05
-4.39461e-07
-3.9478e-05
-4.43321e-07
-3.94934e-05
-4.47173e-07
-3.95112e-05
-4.51004e-07
-3.95313e-05
-4.5481e-07
-3.95539e-05
-4.5859e-07
-3.95791e-05
-4.62332e-07
-3.96072e-05
-4.66035e-07
-3.96381e-05
-4.6971e-07
-3.96721e-05
-4.73326e-07
-3.97092e-05
-4.76881e-07
-3.97497e-05
-4.80374e-07
-3.97936e-05
-4.83797e-07
-3.98412e-05
-4.87137e-07
-3.98925e-05
-4.90385e-07
-3.99476e-05
-4.93533e-07
-4.00067e-05
-4.96558e-07
-4.00699e-05
-4.99432e-07
-4.01371e-05
-5.02129e-07
-4.02085e-05
-5.04708e-07
-4.02842e-05
-5.07239e-07
-4.03643e-05
-5.09616e-07
-4.04488e-05
-5.11739e-07
-4.05378e-05
-5.13598e-07
-4.06314e-05
-5.1524e-07
-4.07295e-05
-5.16693e-07
-4.08324e-05
-5.17904e-07
-4.09398e-05
-5.18807e-07
-4.1052e-05
-5.19368e-07
-4.11687e-05
-5.19621e-07
-4.12901e-05
-5.19614e-07
-4.1416e-05
-5.19394e-07
-4.15464e-05
-5.19013e-07
-4.1681e-05
-5.1851e-07
-4.18199e-05
-5.17948e-07
-4.19627e-05
-5.17395e-07
-4.21093e-05
-5.16939e-07
-4.22595e-05
-5.16694e-07
-4.24131e-05
-5.16799e-07
-4.25698e-05
-5.17429e-07
-4.27294e-05
-5.18799e-07
-4.28917e-05
-5.2118e-07
-4.30563e-05
-5.24904e-07
-4.3223e-05
-5.30376e-07
-4.33916e-05
-5.38085e-07
-4.35618e-05
-5.48715e-07
-4.37332e-05
-5.62715e-07
-4.39058e-05
-5.8098e-07
-4.40791e-05
-6.04634e-07
-4.42529e-05
-6.34465e-07
-4.4427e-05
-6.71406e-07
-4.46014e-05
-7.1626e-07
-4.4776e-05
-7.69458e-07
-4.4951e-05
-8.30746e-07
-4.51267e-05
-8.98379e-07
-4.53035e-05
-9.67746e-07
-4.54817e-05
-1.03003e-06
-4.5661e-05
-1.07041e-06
-4.58387e-05
-1.06507e-06
-4.60079e-05
-9.78415e-07
-4.61537e-05
-7.56201e-07
-4.62562e-05
-3.2865e-07
-4.63194e-05
4.02907e-07
-4.63813e-05
1.67125e-06
-4.64581e-05
3.93548e-06
-4.65495e-05
8.0383e-06
-4.63312e-05
1.56394e-05
2.84327e-05
-4.35054e-05
-4.26123e-05
-1.02561e-07
-4.26219e-05
-1.85941e-07
-4.26369e-05
-2.38598e-07
-4.26544e-05
-2.71579e-07
-4.26735e-05
-2.92461e-07
-4.26939e-05
-3.05787e-07
-4.27157e-05
-3.14631e-07
-4.27388e-05
-3.20722e-07
-4.27632e-05
-3.252e-07
-4.2789e-05
-3.28677e-07
-4.28164e-05
-3.31565e-07
-4.28453e-05
-3.34068e-07
-4.28758e-05
-3.36342e-07
-4.29081e-05
-3.38449e-07
-4.29421e-05
-3.40451e-07
-4.2978e-05
-3.42362e-07
-4.30158e-05
-3.44205e-07
-4.30556e-05
-3.45975e-07
-4.30975e-05
-3.47684e-07
-4.31415e-05
-3.49339e-07
-4.31878e-05
-3.50967e-07
-4.32363e-05
-3.52429e-07
-4.32873e-05
-3.53781e-07
-4.33406e-05
-3.55133e-07
-4.33964e-05
-3.56477e-07
-4.34547e-05
-3.57872e-07
-4.35156e-05
-3.59271e-07
-4.3579e-05
-3.60599e-07
-4.36451e-05
-3.6185e-07
-4.37139e-05
-3.63031e-07
-4.37853e-05
-3.64155e-07
-4.38596e-05
-3.65225e-07
-4.39367e-05
-3.66255e-07
-4.40166e-05
-3.67241e-07
-4.40993e-05
-3.6819e-07
-4.4185e-05
-3.69092e-07
-4.42736e-05
-3.69953e-07
-4.43651e-05
-3.7078e-07
-4.44595e-05
-3.71564e-07
-4.45569e-05
-3.72297e-07
-4.46572e-05
-3.73008e-07
-4.47603e-05
-3.73689e-07
-4.48664e-05
-3.74336e-07
-4.49753e-05
-3.74958e-07
-4.50869e-05
-3.75558e-07
-4.52013e-05
-3.76132e-07
-4.53183e-05
-3.76676e-07
-4.54379e-05
-3.77191e-07
-4.556e-05
-3.77672e-07
-4.56845e-05
-3.78093e-07
-4.58113e-05
-3.78455e-07
-4.59403e-05
-3.78786e-07
-4.60714e-05
-3.79125e-07
-4.62045e-05
-3.79406e-07
-4.63395e-05
-3.79574e-07
-4.64762e-05
-3.79611e-07
-4.66146e-05
-3.79539e-07
-4.67545e-05
-3.79423e-07
-4.68957e-05
-3.79235e-07
-4.70381e-05
-3.78851e-07
-4.71816e-05
-3.78206e-07
-4.73261e-05
-3.77342e-07
-4.74716e-05
-3.76299e-07
-4.7618e-05
-3.75117e-07
-4.77651e-05
-3.73855e-07
-4.7913e-05
-3.72519e-07
-4.80616e-05
-3.71167e-07
-4.82108e-05
-3.69858e-07
-4.83607e-05
-3.68659e-07
-4.85112e-05
-3.67673e-07
-4.86624e-05
-3.67026e-07
-4.88143e-05
-3.66876e-07
-4.89669e-05
-3.67421e-07
-4.91203e-05
-3.68927e-07
-4.92746e-05
-3.71724e-07
-4.94297e-05
-3.76216e-07
-4.95859e-05
-3.82883e-07
-4.9743e-05
-3.92388e-07
-4.99013e-05
-4.05246e-07
-5.00608e-05
-4.22113e-07
-5.02221e-05
-4.43952e-07
-5.03854e-05
-4.71732e-07
-5.05509e-05
-5.06405e-07
-5.07189e-05
-5.48723e-07
-5.08897e-05
-5.99035e-07
-5.10637e-05
-6.57083e-07
-5.1241e-05
-7.21358e-07
-5.14215e-05
-7.87518e-07
-5.16045e-05
-8.47273e-07
-5.17876e-05
-8.87525e-07
-5.1965e-05
-8.87803e-07
-5.21253e-05
-8.1822e-07
-5.22445e-05
-6.37085e-07
-5.22944e-05
-2.78791e-07
-5.22573e-05
3.65843e-07
-5.21037e-05
1.51757e-06
-5.17528e-05
3.58463e-06
-5.10345e-05
7.31995e-06
-4.93324e-05
1.39372e-05
2.38411e-05
-4.47409e-05
-4.55645e-05
-9.317e-08
-4.55977e-05
-1.57532e-07
-4.56418e-05
-1.99378e-07
-4.56922e-05
-2.26025e-07
-4.57468e-05
-2.42685e-07
-4.58045e-05
-2.52893e-07
-4.58647e-05
-2.59223e-07
-4.59271e-05
-2.631e-07
-4.59915e-05
-2.65529e-07
-4.60579e-05
-2.67041e-07
-4.61261e-05
-2.67999e-07
-4.61963e-05
-2.68587e-07
-4.62683e-05
-2.68951e-07
-4.63422e-05
-2.69147e-07
-4.64181e-05
-2.69241e-07
-4.64958e-05
-2.69243e-07
-4.65754e-05
-2.69185e-07
-4.6657e-05
-2.69063e-07
-4.67404e-05
-2.68895e-07
-4.68256e-05
-2.68688e-07
-4.69128e-05
-2.68479e-07
-4.70017e-05
-2.68128e-07
-4.70926e-05
-2.67579e-07
-4.71855e-05
-2.66892e-07
-4.72804e-05
-2.6615e-07
-4.73775e-05
-2.65411e-07
-4.74768e-05
-2.64671e-07
-4.75781e-05
-2.63891e-07
-4.76815e-05
-2.63071e-07
-4.7787e-05
-2.62215e-07
-4.78944e-05
-2.61348e-07
-4.80038e-05
-2.60474e-07
-4.81151e-05
-2.59626e-07
-4.82282e-05
-2.58799e-07
-4.83431e-05
-2.58016e-07
-4.84596e-05
-2.57266e-07
-4.85776e-05
-2.56573e-07
-4.86972e-05
-2.55925e-07
-4.88181e-05
-2.55351e-07
-4.89403e-05
-2.54839e-07
-4.90637e-05
-2.54409e-07
-4.91881e-05
-2.54058e-07
-4.93134e-05
-2.53791e-07
-4.94396e-05
-2.53609e-07
-4.95665e-05
-2.53518e-07
-4.9694e-05
-2.5351e-07
-4.98219e-05
-2.53575e-07
-4.99503e-05
-2.53706e-07
-5.0079e-05
-2.53915e-07
-5.02079e-05
-2.54149e-07
-5.03369e-05
-2.54423e-07
-5.04659e-05
-2.54728e-07
-5.05949e-05
-2.55087e-07
-5.07239e-05
-2.55435e-07
-5.08528e-05
-2.55716e-07
-5.09815e-05
-2.55903e-07
-5.111e-05
-2.55986e-07
-5.12384e-05
-2.56063e-07
-5.13665e-05
-2.56147e-07
-5.14943e-05
-2.56004e-07
-5.16219e-05
-2.55515e-07
-5.17494e-05
-2.54733e-07
-5.18769e-05
-2.53702e-07
-5.20044e-05
-2.52449e-07
-5.2132e-05
-2.51019e-07
-5.22598e-05
-2.49416e-07
-5.2388e-05
-2.47672e-07
-5.25166e-05
-2.45831e-07
-5.26458e-05
-2.43952e-07
-5.27757e-05
-2.42122e-07
-5.29066e-05
-2.40453e-07
-5.30386e-05
-2.3909e-07
-5.31719e-05
-2.38227e-07
-5.33066e-05
-2.38111e-07
-5.34432e-05
-2.39058e-07
-5.35817e-05
-2.41474e-07
-5.37223e-05
-2.45825e-07
-5.38656e-05
-2.52563e-07
-5.40117e-05
-2.62465e-07
-5.41606e-05
-2.76398e-07
-5.43126e-05
-2.94999e-07
-5.44681e-05
-3.1914e-07
-5.46275e-05
-3.49739e-07
-5.47913e-05
-3.87513e-07
-5.49599e-05
-4.32767e-07
-5.5134e-05
-4.85282e-07
-5.53133e-05
-5.44151e-07
-5.5497e-05
-6.05733e-07
-5.56836e-05
-6.62462e-07
-5.58689e-05
-7.03728e-07
-5.60448e-05
-7.13309e-07
-5.61964e-05
-6.67801e-07
-5.62954e-05
-5.38974e-07
-5.63044e-05
-2.7052e-07
-5.61791e-05
2.39971e-07
-5.58404e-05
1.17836e-06
-5.51255e-05
2.8691e-06
-5.37249e-05
5.91861e-06
-5.09145e-05
1.11258e-05
1.82251e-05
-4.52998e-05
-4.82267e-05
-7.13488e-08
-4.82765e-05
-1.12213e-07
-4.83395e-05
-1.40814e-07
-4.84109e-05
-1.59005e-07
-4.84878e-05
-1.70132e-07
-4.85684e-05
-1.76614e-07
-4.86516e-05
-1.80235e-07
-4.87369e-05
-1.8205e-07
-4.88239e-05
-1.82764e-07
-4.89123e-05
-1.82783e-07
-4.9002e-05
-1.82375e-07
-4.9093e-05
-1.81682e-07
-4.91853e-05
-1.80813e-07
-4.92786e-05
-1.79819e-07
-4.93732e-05
-1.78751e-07
-4.94688e-05
-1.77621e-07
-4.95656e-05
-1.76457e-07
-4.96634e-05
-1.75254e-07
-4.97623e-05
-1.74031e-07
-4.98622e-05
-1.72766e-07
-4.99633e-05
-1.71434e-07
-5.00653e-05
-1.70084e-07
-5.01682e-05
-1.68746e-07
-5.02718e-05
-1.6734e-07
-5.03761e-05
-1.65927e-07
-5.0481e-05
-1.6455e-07
-5.05865e-05
-1.6323e-07
-5.06926e-05
-1.61941e-07
-5.07991e-05
-1.60696e-07
-5.0906e-05
-1.59482e-07
-5.10132e-05
-1.58344e-07
-5.11206e-05
-1.57256e-07
-5.12282e-05
-1.56277e-07
-5.1336e-05
-1.55377e-07
-5.14438e-05
-1.54601e-07
-5.15516e-05
-1.53908e-07
-5.16593e-05
-1.53343e-07
-5.17669e-05
-1.52861e-07
-5.18744e-05
-1.52509e-07
-5.19817e-05
-1.52267e-07
-5.20888e-05
-1.52138e-07
-5.21956e-05
-1.52117e-07
-5.23022e-05
-1.52195e-07
-5.24085e-05
-1.52376e-07
-5.25146e-05
-1.52653e-07
-5.26204e-05
-1.53013e-07
-5.2726e-05
-1.53436e-07
-5.28313e-05
-1.53909e-07
-5.29365e-05
-1.54431e-07
-5.30414e-05
-1.54965e-07
-5.31463e-05
-1.55504e-07
-5.32511e-05
-1.56023e-07
-5.33559e-05
-1.56523e-07
-5.34607e-05
-1.56953e-07
-5.35657e-05
-1.57254e-07
-5.36709e-05
-1.57391e-07
-5.37764e-05
-1.57311e-07
-5.38822e-05
-1.5716e-07
-5.39884e-05
-1.57094e-07
-5.4095e-05
-1.56699e-07
-5.42023e-05
-1.55773e-07
-5.43102e-05
-1.5442e-07
-5.4419e-05
-1.52718e-07
-5.45287e-05
-1.50698e-07
-5.46395e-05
-1.48361e-07
-5.47515e-05
-1.45726e-07
-5.48648e-05
-1.42809e-07
-5.49796e-05
-1.39637e-07
-5.5096e-05
-1.36256e-07
-5.52143e-05
-1.32739e-07
-5.53345e-05
-1.29187e-07
-5.5457e-05
-1.25732e-07
-5.5582e-05
-1.22559e-07
-5.57095e-05
-1.19902e-07
-5.584e-05
-1.18049e-07
-5.59737e-05
-1.17396e-07
-5.61107e-05
-1.18418e-07
-5.62515e-05
-1.21466e-07
-5.63964e-05
-1.27365e-07
-5.65455e-05
-1.37144e-07
-5.66991e-05
-1.51264e-07
-5.68576e-05
-1.70535e-07
-5.70215e-05
-1.95801e-07
-5.71912e-05
-2.27762e-07
-5.73672e-05
-2.66757e-07
-5.75499e-05
-3.12526e-07
-5.77389e-05
-3.65086e-07
-5.79323e-05
-4.2222e-07
-5.81279e-05
-4.76637e-07
-5.83202e-05
-5.21036e-07
-5.84989e-05
-5.4384e-07
-5.86464e-05
-5.29226e-07
-5.8735e-05
-4.58657e-07
-5.87161e-05
-2.96953e-07
-5.85205e-05
3.77367e-08
-5.80371e-05
6.88708e-07
-5.70379e-05
1.86275e-06
-5.51162e-05
3.98809e-06
-5.15363e-05
7.53435e-06
1.20498e-05
-4.5375e-05
-5.02361e-05
-3.77706e-08
-5.02929e-05
-5.86151e-08
-5.03632e-05
-7.35845e-08
-5.04422e-05
-8.30384e-08
-5.05266e-05
-8.86939e-08
-5.06142e-05
-9.1897e-08
-5.07037e-05
-9.35283e-08
-5.07944e-05
-9.41847e-08
-5.08856e-05
-9.42319e-08
-5.09772e-05
-9.38766e-08
-5.10688e-05
-9.32834e-08
-5.11605e-05
-9.25209e-08
-5.12522e-05
-9.16583e-08
-5.13437e-05
-9.07258e-08
-5.14351e-05
-8.97552e-08
-5.15263e-05
-8.87545e-08
-5.16173e-05
-8.774e-08
-5.17081e-05
-8.67113e-08
-5.17987e-05
-8.56778e-08
-5.1889e-05
-8.46183e-08
-5.1979e-05
-8.35024e-08
-5.20688e-05
-8.24442e-08
-5.21581e-05
-8.15353e-08
-5.22468e-05
-8.06913e-08
-5.2335e-05
-7.98962e-08
-5.24225e-05
-7.91546e-08
-5.25094e-05
-7.84788e-08
-5.25958e-05
-7.78467e-08
-5.26815e-05
-7.72642e-08
-5.27666e-05
-7.67176e-08
-5.28511e-05
-7.62375e-08
-5.2935e-05
-7.58071e-08
-5.30183e-05
-7.54616e-08
-5.31011e-05
-7.51825e-08
-5.31834e-05
-7.49956e-08
-5.32653e-05
-7.48707e-08
-5.33467e-05
-7.48314e-08
-5.34277e-05
-7.48362e-08
-5.35083e-05
-7.49319e-08
-5.35887e-05
-7.50787e-08
-5.36688e-05
-7.52969e-08
-5.37488e-05
-7.55683e-08
-5.38286e-05
-7.58712e-08
-5.39084e-05
-7.62245e-08
-5.39883e-05
-7.66081e-08
-5.40682e-05
-7.7006e-08
-5.41482e-05
-7.74059e-08
-5.42285e-05
-7.78e-08
-5.43091e-05
-7.81422e-08
-5.43901e-05
-7.84374e-08
-5.44716e-05
-7.86643e-08
-5.45536e-05
-7.88091e-08
-5.46362e-05
-7.88405e-08
-5.47196e-05
-7.87155e-08
-5.48038e-05
-7.8383e-08
-5.48889e-05
-7.78111e-08
-5.4975e-05
-7.68912e-08
-5.50623e-05
-7.57376e-08
-5.51506e-05
-7.49123e-08
-5.52401e-05
-7.36493e-08
-5.53309e-05
-7.15954e-08
-5.54232e-05
-6.89864e-08
-5.55171e-05
-6.59551e-08
-5.56128e-05
-6.25205e-08
-5.57102e-05
-5.86689e-08
-5.58096e-05
-5.44095e-08
-5.59111e-05
-4.97494e-08
-5.60149e-05
-4.47027e-08
-5.6121e-05
-3.93058e-08
-5.62297e-05
-3.36189e-08
-5.63411e-05
-2.77293e-08
-5.64555e-05
-2.17544e-08
-5.65731e-05
-1.58655e-08
-5.66941e-05
-1.02789e-08
-5.68187e-05
-5.27498e-09
-5.69473e-05
-1.20515e-09
-5.70802e-05
1.52272e-09
-5.72176e-05
2.40122e-09
-5.736e-05
8.5005e-10
-5.75078e-05
-4.24942e-09
-5.76614e-05
-1.31353e-08
-5.78215e-05
-2.67326e-08
-5.79885e-05
-4.58569e-08
-5.81631e-05
-7.11778e-08
-5.83455e-05
-1.03254e-07
-5.85364e-05
-1.41556e-07
-5.87357e-05
-1.8699e-07
-5.89398e-05
-2.40567e-07
-5.9147e-05
-2.93329e-07
-5.93508e-05
-3.42638e-07
-5.95402e-05
-3.81604e-07
-5.96961e-05
-4.02168e-07
-5.97907e-05
-3.94627e-07
-5.97739e-05
-3.45904e-07
-5.9561e-05
-2.08773e-07
-5.89982e-05
9.19318e-08
-5.78323e-05
6.60811e-07
-5.55898e-05
1.70353e-06
-5.15455e-05
3.43847e-06
5.57377e-06
-4.51296e-05
-5.11822e-05
1.55563e-09
-5.12385e-05
-3.31712e-09
-5.13079e-05
-5.2664e-09
-5.13855e-05
-6.40466e-09
-5.14679e-05
-7.23137e-09
-5.15527e-05
-7.88754e-09
-5.16387e-05
-8.40264e-09
-5.17249e-05
-8.809e-09
-5.18107e-05
-9.14518e-09
-5.18959e-05
-9.3929e-09
-5.19803e-05
-9.60129e-09
-5.20638e-05
-9.75732e-09
-5.21462e-05
-9.87135e-09
-5.22276e-05
-9.96254e-09
-5.23079e-05
-1.00253e-08
-5.23872e-05
-1.00684e-08
-5.24655e-05
-1.00858e-08
-5.25427e-05
-1.00836e-08
-5.2619e-05
-1.00531e-08
-5.26942e-05
-9.98748e-09
-5.27684e-05
-9.87905e-09
-5.28417e-05
-9.80422e-09
-5.29141e-05
-9.79731e-09
-5.29856e-05
-9.8282e-09
-5.30563e-05
-9.86823e-09
-5.31262e-05
-9.92459e-09
-5.31955e-05
-9.99214e-09
-5.3264e-05
-1.00614e-08
-5.33319e-05
-1.01138e-08
-5.33993e-05
-1.01623e-08
-5.34662e-05
-1.02014e-08
-5.35326e-05
-1.02631e-08
-5.35986e-05
-1.03337e-08
-5.36643e-05
-1.04295e-08
-5.37297e-05
-1.05329e-08
-5.37949e-05
-1.06673e-08
-5.386e-05
-1.08005e-08
-5.39249e-05
-1.09452e-08
-5.39898e-05
-1.11057e-08
-5.40548e-05
-1.12574e-08
-5.41198e-05
-1.14162e-08
-5.41849e-05
-1.1567e-08
-5.42503e-05
-1.16915e-08
-5.43159e-05
-1.1794e-08
-5.43819e-05
-1.1866e-08
-5.44483e-05
-1.1886e-08
-5.45151e-05
-1.18452e-08
-5.45825e-05
-1.17326e-08
-5.46505e-05
-1.15008e-08
-5.47191e-05
-1.11565e-08
-5.47885e-05
-1.06814e-08
-5.48587e-05
-1.00555e-08
-5.49297e-05
-9.23766e-09
-5.50018e-05
-8.19834e-09
-5.50748e-05
-6.87549e-09
-5.5149e-05
-5.22233e-09
-5.52242e-05
-3.21085e-09
-5.53011e-05
-4.89683e-10
-5.53791e-05
1.30508e-09
-5.54581e-05
3.6384e-09
-5.55387e-05
7.19398e-09
-5.56211e-05
1.13885e-08
-5.57051e-05
1.60479e-08
-5.5791e-05
2.11885e-08
-5.58788e-05
2.68302e-08
-5.59687e-05
3.2984e-08
-5.60607e-05
3.9653e-08
-5.61551e-05
4.68341e-08
-5.62519e-05
5.4502e-08
-5.63514e-05
6.26079e-08
-5.64537e-05
7.10813e-08
-5.65591e-05
7.9822e-08
-5.66678e-05
8.8678e-08
-5.678e-05
9.7454e-08
-5.6896e-05
1.05881e-07
-5.70161e-05
1.13663e-07
-5.71406e-05
1.20446e-07
-5.727e-05
1.25689e-07
-5.74044e-05
1.28765e-07
-5.75447e-05
1.28976e-07
-5.76911e-05
1.25796e-07
-5.78443e-05
1.18422e-07
-5.80047e-05
1.06071e-07
-5.81728e-05
8.80363e-08
-5.83493e-05
6.37684e-08
-5.85332e-05
3.25729e-08
-5.87267e-05
-3.69983e-09
-5.89235e-05
-5.47226e-08
-5.91239e-05
-1.05364e-07
-5.93204e-05
-1.60174e-07
-5.95018e-05
-2.16446e-07
-5.96502e-05
-2.72784e-07
-5.9736e-05
-3.31289e-07
-5.97142e-05
-3.94608e-07
-5.9495e-05
-4.60886e-07
-5.89164e-05
-5.26982e-07
-5.7699e-05
-6.03155e-07
-5.53431e-05
-7.02935e-07
-5.11167e-05
-8.39577e-07
-9.64038e-07
-4.46252e-05
-5.07171e-05
3.96113e-08
-5.07726e-05
5.31546e-08
-5.08418e-05
6.48836e-08
-5.09196e-05
7.22956e-08
-5.10025e-05
7.65177e-08
-5.10882e-05
7.86142e-08
-5.11753e-05
7.94159e-08
-5.12628e-05
7.94402e-08
-5.13503e-05
7.90068e-08
-5.14373e-05
7.83125e-08
-5.15238e-05
7.74688e-08
-5.16094e-05
7.65332e-08
-5.16943e-05
7.55708e-08
-5.17783e-05
7.4575e-08
-5.18613e-05
7.3586e-08
-5.19435e-05
7.25976e-08
-5.20246e-05
7.16358e-08
-5.21049e-05
7.06924e-08
-5.21842e-05
6.97903e-08
-5.22626e-05
6.89248e-08
-5.23401e-05
6.81035e-08
-5.24166e-05
6.72757e-08
-5.24923e-05
6.6436e-08
-5.25671e-05
6.55867e-08
-5.26411e-05
6.47595e-08
-5.27144e-05
6.39446e-08
-5.27869e-05
6.31552e-08
-5.28586e-05
6.23998e-08
-5.29297e-05
6.17132e-08
-5.30002e-05
6.10736e-08
-5.307e-05
6.04963e-08
-5.31393e-05
5.99346e-08
-5.32082e-05
5.94199e-08
-5.32765e-05
5.89236e-08
-5.33445e-05
5.84786e-08
-5.34121e-05
5.80489e-08
-5.34794e-05
5.76821e-08
-5.35465e-05
5.73369e-08
-5.36133e-05
5.70653e-08
-5.36801e-05
5.6835e-08
-5.37467e-05
5.66777e-08
-5.38134e-05
5.65891e-08
-5.388e-05
5.65646e-08
-5.39468e-05
5.66391e-08
-5.40138e-05
5.68117e-08
-5.40809e-05
5.70992e-08
-5.41484e-05
5.75162e-08
-5.42162e-05
5.80788e-08
-5.42845e-05
5.88165e-08
-5.43532e-05
5.97393e-08
-5.44225e-05
6.0862e-08
-5.44925e-05
6.22099e-08
-5.45631e-05
6.38202e-08
-5.46345e-05
6.57203e-08
-5.47067e-05
6.79786e-08
-5.47798e-05
7.0619e-08
-5.48538e-05
7.37015e-08
-5.49286e-05
7.71933e-08
-5.50047e-05
8.05741e-08
-5.50824e-05
8.45426e-08
-5.51613e-05
8.94626e-08
-5.52415e-05
9.51013e-08
-5.53231e-05
1.01349e-07
-5.54062e-05
1.08207e-07
-5.54909e-05
1.15689e-07
-5.55774e-05
1.23808e-07
-5.56657e-05
1.32579e-07
-5.57561e-05
1.42015e-07
-5.58486e-05
1.52107e-07
-5.59434e-05
1.62811e-07
-5.60406e-05
1.74085e-07
-5.61406e-05
1.85849e-07
-5.62434e-05
1.97977e-07
-5.63493e-05
2.10294e-07
-5.64585e-05
2.22573e-07
-5.65715e-05
2.34543e-07
-5.66883e-05
2.45856e-07
-5.68095e-05
2.56041e-07
-5.69353e-05
2.64528e-07
-5.70664e-05
2.70725e-07
-5.7203e-05
2.74052e-07
-5.73458e-05
2.7376e-07
-5.74951e-05
2.69048e-07
-5.76515e-05
2.5922e-07
-5.78151e-05
2.43497e-07
-5.79858e-05
2.20875e-07
-5.81608e-05
1.90435e-07
-5.83433e-05
1.49058e-07
-5.85245e-05
1.00017e-07
-5.86969e-05
3.97449e-08
-5.88503e-05
-3.19865e-08
-5.89683e-05
-1.19998e-07
-5.90219e-05
-2.38922e-07
-5.89636e-05
-4.09682e-07
-5.87094e-05
-6.66809e-07
-5.81038e-05
-1.0788e-06
-5.6868e-05
-1.77918e-06
-5.45148e-05
-2.99049e-06
-5.03414e-05
-4.94239e-06
-7.27973e-06
-4.39564e-05
-4.91017e-05
6.88648e-08
-4.9154e-05
1.08083e-07
-4.92206e-05
1.34153e-07
-4.92965e-05
1.50803e-07
-4.93783e-05
1.60835e-07
-4.94637e-05
1.66543e-07
-4.95514e-05
1.69654e-07
-4.96407e-05
1.71134e-07
-4.97309e-05
1.7169e-07
-4.98218e-05
1.71634e-07
-4.99131e-05
1.71265e-07
-5.00048e-05
1.70648e-07
-5.00968e-05
1.69911e-07
-5.01889e-05
1.69077e-07
-5.02811e-05
1.68193e-07
-5.03734e-05
1.67262e-07
-5.04657e-05
1.66313e-07
-5.05579e-05
1.65343e-07
-5.06501e-05
1.64373e-07
-5.07422e-05
1.63395e-07
-5.08341e-05
1.62413e-07
-5.09258e-05
1.61397e-07
-5.10173e-05
1.60349e-07
-5.11085e-05
1.59261e-07
-5.11994e-05
1.58159e-07
-5.129e-05
1.57035e-07
-5.13802e-05
1.55903e-07
-5.147e-05
1.5478e-07
-5.15593e-05
1.53708e-07
-5.16482e-05
1.52677e-07
-5.17367e-05
1.51686e-07
-5.18246e-05
1.50706e-07
-5.19121e-05
1.49756e-07
-5.19991e-05
1.48826e-07
-5.20855e-05
1.47942e-07
-5.21715e-05
1.47091e-07
-5.22569e-05
1.46301e-07
-5.23419e-05
1.4555e-07