/*--------------------------------*- C++ -*----------------------------------*\
| =========                 |                                                 |
| \\      /  F ield         | OpenFOAM: The Open Source CFD Toolbox           |
|  \\    /   O peration     | Version:  2.1.0                                 |
|   \\  /    A nd           | Web:      www.OpenFOAM.org                      |
|    \\/     M anipulation  |                                                 |
\*---------------------------------------------------------------------------*/
FoamFile
{
    version     2.0;
    format      ascii;
    class       volScalarField;
    location    "0.42";
    object      rho;
}
// * * * * * * * * * * * * * * * * * * * * * * * * * * * * * * * * * * * * * //

dimensions      [1 -3 0 0 0 0 0];

internalField   nonuniform List<scalar> 
6400
(
948.292
948.175
948.061
947.951
947.844
947.74
947.639
947.54
947.445
947.353
947.263
947.176
947.092
947.011
946.931
946.855
946.781
946.709
946.64
946.573
946.509
946.446
946.386
946.328
946.272
946.218
946.166
946.117
946.069
946.023
945.978
945.936
945.896
945.857
945.819
945.784
945.75
945.717
945.686
945.657
945.629
945.602
945.577
945.553
945.53
945.509
945.489
945.47
945.452
945.435
945.419
945.405
945.391
945.378
945.367
945.356
945.346
945.337
945.329
945.321
945.314
945.309
945.303
945.299
945.295
945.292
945.29
945.288
945.288
945.288
945.289
945.29
945.293
945.297
945.302
945.307
945.314
945.323
945.333
945.344
945.358
945.374
945.393
945.416
945.443
945.478
945.522
945.581
945.661
945.779
945.965
946.287
946.905
948.167
949.94
946.904
944.647
944.556
944.555
944.555
948.109
948.001
947.894
947.788
947.685
947.585
947.487
947.391
947.298
947.207
947.119
947.033
946.949
946.868
946.788
946.712
946.637
946.564
946.494
946.425
946.359
946.294
946.232
946.172
946.113
946.057
946.002
945.95
945.899
945.85
945.803
945.758
945.714
945.672
945.632
945.593
945.556
945.521
945.487
945.455
945.424
945.394
945.366
945.34
945.314
945.29
945.268
945.246
945.226
945.206
945.188
945.171
945.155
945.14
945.125
945.112
945.099
945.087
945.076
945.066
945.056
945.047
945.038
945.03
945.022
945.015
945.008
945.002
944.996
944.99
944.985
944.98
944.975
944.97
944.966
944.962
944.959
944.956
944.953
944.95
944.948
944.946
944.945
944.944
944.944
944.944
944.946
944.947
944.95
944.951
944.951
944.945
944.926
944.879
944.786
944.653
944.562
944.555
944.555
944.555
948.28
948.174
948.065
947.958
947.853
947.749
947.648
947.549
947.452
947.357
947.264
947.173
947.084
946.997
946.913
946.83
946.749
946.67
946.593
946.518
946.445
946.374
946.305
946.237
946.172
946.108
946.046
945.986
945.928
945.872
945.817
945.764
945.713
945.664
945.616
945.571
945.527
945.484
945.444
945.405
945.367
945.331
945.297
945.264
945.233
945.203
945.174
945.147
945.121
945.097
945.074
945.052
945.031
945.011
944.992
944.974
944.957
944.941
944.926
944.912
944.898
944.885
944.873
944.861
944.85
944.839
944.829
944.819
944.809
944.8
944.791
944.781
944.772
944.763
944.754
944.745
944.736
944.727
944.718
944.708
944.699
944.689
944.679
944.669
944.659
944.649
944.639
944.628
944.618
944.608
944.598
944.589
944.579
944.571
944.564
944.56
944.555
944.555
944.555
944.555
948.758
948.65
948.538
948.427
948.316
948.206
948.098
947.992
947.887
947.784
947.683
947.583
947.485
947.39
947.295
947.203
947.112
947.023
946.936
946.851
946.767
946.685
946.604
946.526
946.449
946.373
946.3
946.228
946.158
946.089
946.023
945.958
945.894
945.833
945.773
945.715
945.659
945.605
945.552
945.501
945.452
945.404
945.358
945.314
945.272
945.231
945.192
945.154
945.119
945.084
945.052
945.021
944.991
944.963
944.936
944.911
944.886
944.864
944.842
944.822
944.803
944.785
944.768
944.752
944.736
944.722
944.709
944.696
944.684
944.673
944.662
944.652
944.643
944.634
944.626
944.618
944.61
944.604
944.597
944.592
944.586
944.581
944.577
944.573
944.57
944.567
944.564
944.562
944.56
944.558
944.557
944.556
944.556
944.555
944.555
944.555
944.555
944.555
944.555
944.555
949.646
949.536
949.42
949.303
949.185
949.068
948.952
948.837
948.724
948.611
948.5
948.39
948.282
948.175
948.069
947.965
947.862
947.76
947.66
947.561
947.464
947.368
947.273
947.18
947.089
946.999
946.91
946.823
946.737
946.652
946.569
946.488
946.408
946.329
946.252
946.177
946.103
946.03
945.96
945.891
945.823
945.757
945.693
945.631
945.571
945.512
945.455
945.4
945.347
945.296
945.246
945.199
945.153
945.11
945.068
945.029
944.991
944.955
944.921
944.889
944.859
944.831
944.804
944.779
944.756
944.735
944.715
944.697
944.681
944.665
944.652
944.639
944.628
944.618
944.608
944.6
944.593
944.587
944.582
944.577
944.573
944.569
944.566
944.564
944.562
944.56
944.558
944.557
944.556
944.556
944.555
944.555
944.555
944.555
944.555
944.555
944.555
944.555
944.555
944.555
951.168
951.055
950.937
950.816
950.695
950.573
950.452
950.331
950.211
950.091
949.973
949.856
949.739
949.623
949.508
949.394
949.28
949.168
949.056
948.945
948.835
948.725
948.617
948.509
948.403
948.297
948.192
948.088
947.985
947.883
947.781
947.681
947.582
947.483
947.385
947.289
947.193
947.099
947.005
946.913
946.821
946.731
946.642
946.555
946.468
946.383
946.3
946.218
946.137
946.059
945.981
945.906
945.832
945.761
945.691
945.623
945.557
945.494
945.432
945.373
945.316
945.261
945.209
945.159
945.111
945.066
945.023
944.982
944.944
944.908
944.874
944.843
944.814
944.786
944.761
944.738
944.716
944.696
944.678
944.662
944.646
944.633
944.621
944.61
944.6
944.591
944.583
944.576
944.571
944.566
944.562
944.559
944.557
944.556
944.555
944.555
944.555
944.555
944.555
944.555
953.664
953.554
953.439
953.322
953.203
953.084
952.964
952.845
952.727
952.609
952.491
952.374
952.258
952.142
952.026
951.91
951.795
951.68
951.565
951.45
951.335
951.22
951.105
950.99
950.875
950.761
950.647
950.533
950.419
950.306
950.193
950.08
949.968
949.855
949.743
949.631
949.519
949.407
949.295
949.183
949.071
948.959
948.847
948.735
948.623
948.511
948.399
948.287
948.176
948.064
947.952
947.84
947.729
947.618
947.507
947.397
947.287
947.177
947.069
946.961
946.854
946.748
946.644
946.541
946.439
946.34
946.242
946.146
946.052
945.96
945.871
945.784
945.7
945.618
945.539
945.462
945.389
945.318
945.25
945.184
945.121
945.062
945.005
944.95
944.899
944.85
944.804
944.761
944.721
944.684
944.652
944.625
944.603
944.586
944.576
944.57
944.565
944.562
944.56
944.559
957.443
957.344
957.241
957.137
957.032
956.927
956.822
956.717
956.614
956.511
956.408
956.306
956.205
956.105
956.005
955.905
955.806
955.707
955.608
955.509
955.411
955.313
955.214
955.116
955.018
954.919
954.821
954.722
954.624
954.525
954.426
954.326
954.226
954.124
954.023
953.92
953.817
953.713
953.607
953.5
953.392
953.283
953.172
953.059
952.945
952.829
952.711
952.591
952.469
952.345
952.219
952.091
951.96
951.827
951.691
951.554
951.413
951.271
951.125
950.978
950.828
950.675
950.52
950.363
950.204
950.042
949.879
949.714
949.547
949.378
949.208
949.036
948.863
948.689
948.514
948.339
948.162
947.985
947.807
947.628
947.447
947.266
947.083
946.898
946.711
946.523
946.333
946.142
945.951
945.762
945.577
945.4
945.237
945.091
944.97
944.883
944.811
944.754
944.711
944.684
962.877
962.806
962.734
962.661
962.589
962.517
962.446
962.375
962.307
962.239
962.172
962.106
962.042
961.978
961.916
961.854
961.794
961.735
961.677
961.619
961.563
961.507
961.452
961.397
961.342
961.287
961.231
961.174
961.117
961.059
961
960.94
960.878
960.816
960.752
960.686
960.619
960.551
960.48
960.408
960.334
960.258
960.18
960.099
960.017
959.932
959.845
959.755
959.663
959.569
959.471
959.371
959.268
959.162
959.053
958.941
958.826
958.707
958.584
958.458
958.328
958.194
958.056
957.913
957.766
957.615
957.458
957.297
957.13
956.957
956.779
956.595
956.404
956.207
956.002
955.79
955.57
955.341
955.101
954.852
954.59
954.315
954.025
953.719
953.392
953.045
952.673
952.274
951.846
951.386
950.896
950.376
949.832
949.271
948.703
948.154
947.676
947.239
946.866
946.592
970.139
970.114
970.089
970.064
970.04
970.016
969.992
969.97
969.948
969.926
969.905
969.884
969.864
969.844
969.825
969.806
969.787
969.769
969.75
969.732
969.714
969.695
969.676
969.657
969.638
969.618
969.598
969.578
969.557
969.535
969.513
969.491
969.468
969.444
969.42
969.395
969.37
969.345
969.319
969.292
969.265
969.237
969.209
969.18
969.151
969.121
969.091
969.06
969.029
968.997
968.965
968.933
968.899
968.866
968.831
968.796
968.761
968.725
968.689
968.653
968.615
968.576
968.537
968.496
968.454
968.41
968.365
968.317
968.268
968.217
968.162
968.105
968.045
967.981
967.913
967.84
967.762
967.678
967.588
967.49
967.383
967.267
967.14
967.002
966.85
966.684
966.502
966.302
966.067
965.793
965.472
965.098
964.661
964.152
963.554
962.85
962.036
961.192
960.381
959.725
977.89
977.913
977.935
977.956
977.977
977.997
978.016
978.035
978.053
978.07
978.087
978.103
978.118
978.134
978.148
978.163
978.177
978.191
978.204
978.218
978.232
978.246
978.26
978.274
978.289
978.304
978.32
978.336
978.353
978.371
978.389
978.408
978.429
978.45
978.472
978.495
978.519
978.544
978.571
978.598
978.627
978.657
978.689
978.721
978.756
978.791
978.828
978.866
978.906
978.948
978.991
979.037
979.084
979.133
979.184
979.237
979.293
979.35
979.411
979.474
979.541
979.611
979.685
979.763
979.846
979.934
980.028
980.127
980.233
980.346
980.466
980.594
980.731
980.877
981.034
981.201
981.38
981.572
981.778
981.997
982.231
982.481
982.747
983.029
983.328
983.644
983.976
984.328
984.71
985.128
985.587
986.09
986.633
987.22
987.855
988.538
989.266
990.024
990.772
991.435
984.199
984.261
984.324
984.388
984.451
984.515
984.578
984.642
984.704
984.767
984.829
984.89
984.951
985.012
985.073
985.133
985.193
985.253
985.313
985.373
985.433
985.493
985.553
985.613
985.674
985.735
985.797
985.859
985.922
985.986
986.051
986.116
986.183
986.251
986.319
986.39
986.461
986.534
986.609
986.685
986.763
986.843
986.925
987.009
987.095
987.184
987.275
987.368
987.464
987.563
987.664
987.769
987.877
987.987
988.101
988.219
988.34
988.465
988.595
988.728
988.867
989.01
989.159
989.314
989.475
989.642
989.816
989.997
990.186
990.383
990.589
990.803
991.027
991.26
991.504
991.757
992.022
992.296
992.581
992.877
993.183
993.498
993.822
994.154
994.492
994.836
995.183
995.531
995.879
996.222
996.558
996.889
997.221
997.547
997.861
998.161
998.44
998.691
998.903
999.061
988.938
989.018
989.102
989.189
989.276
989.365
989.453
989.542
989.631
989.72
989.809
989.898
989.987
990.077
990.166
990.256
990.345
990.435
990.525
990.615
990.705
990.796
990.887
990.979
991.07
991.163
991.256
991.349
991.443
991.538
991.633
991.73
991.827
991.925
992.023
992.123
992.224
992.327
992.43
992.535
992.64
992.748
992.856
992.966
993.078
993.191
993.306
993.422
993.54
993.66
993.782
993.905
994.031
994.158
994.288
994.419
994.553
994.689
994.828
994.968
995.111
995.256
995.404
995.553
995.705
995.859
996.015
996.173
996.333
996.495
996.659
996.824
996.99
997.157
997.325
997.493
997.661
997.828
997.994
998.157
998.318
998.476
998.629
998.776
998.918
999.053
999.179
999.297
999.406
999.504
999.59
999.665
999.726
999.78
999.826
999.866
999.897
999.923
999.941
999.954
992.395
992.477
992.565
992.656
992.749
992.843
992.937
993.033
993.128
993.223
993.319
993.414
993.51
993.606
993.702
993.798
993.894
993.99
994.086
994.183
994.28
994.377
994.474
994.571
994.669
994.767
994.865
994.964
995.063
995.162
995.261
995.361
995.461
995.561
995.661
995.762
995.863
995.964
996.066
996.167
996.269
996.37
996.472
996.573
996.675
996.776
996.877
996.979
997.079
997.18
997.28
997.38
997.479
997.578
997.676
997.773
997.87
997.967
998.062
998.156
998.249
998.341
998.432
998.521
998.608
998.694
998.778
998.861
998.941
999.019
999.095
999.168
999.239
999.307
999.373
999.436
999.495
999.552
999.605
999.656
999.702
999.745
999.785
999.821
999.853
999.881
999.906
999.927
999.945
999.959
999.97
999.979
999.985
999.989
999.992
999.995
999.996
999.998
999.998
999.999
994.741
994.818
994.902
994.989
995.077
995.167
995.257
995.347
995.437
995.528
995.618
995.708
995.798
995.888
995.978
996.067
996.156
996.245
996.334
996.423
996.511
996.599
996.687
996.775
996.862
996.949
997.035
997.121
997.207
997.292
997.377
997.461
997.544
997.627
997.71
997.791
997.872
997.952
998.031
998.109
998.186
998.263
998.337
998.411
998.484
998.555
998.625
998.694
998.761
998.826
998.89
998.952
999.013
999.072
999.129
999.184
999.238
999.29
999.339
999.387
999.433
999.477
999.518
999.558
999.596
999.632
999.666
999.698
999.728
999.756
999.783
999.807
999.83
999.851
999.871
999.888
999.904
999.919
999.932
999.944
999.954
999.963
999.97
999.977
999.983
999.987
999.991
999.993
999.996
999.997
999.998
999.999
999.999
1000
1000
1000
1000
1000
1000
1000
996.292
996.361
996.436
996.513
996.592
996.672
996.752
996.832
996.911
996.99
997.069
997.148
997.226
997.303
997.38
997.456
997.532
997.608
997.682
997.756
997.829
997.902
997.974
998.045
998.115
998.184
998.252
998.32
998.386
998.451
998.516
998.579
998.641
998.702
998.762
998.821
998.878
998.934
998.989
999.043
999.095
999.145
999.194
999.242
999.288
999.333
999.376
999.417
999.457
999.495
999.531
999.566
999.6
999.631
999.661
999.69
999.716
999.742
999.765
999.788
999.808
999.828
999.846
999.862
999.878
999.892
999.905
999.917
999.927
999.937
999.946
999.954
999.961
999.967
999.972
999.977
999.981
999.985
999.988
999.99
999.993
999.994
999.996
999.997
999.998
999.999
999.999
999.999
1000
1000
1000
1000
1000
1000
1000
1000
1000
1000
1000
1000
997.346
997.406
997.47
997.536
997.603
997.67
997.737
997.804
997.87
997.935
998
998.064
998.128
998.19
998.252
998.314
998.374
998.434
998.493
998.551
998.608
998.664
998.719
998.773
998.827
998.879
998.93
998.98
999.029
999.077
999.124
999.169
999.214
999.257
999.298
999.339
999.378
999.416
999.452
999.488
999.521
999.554
999.585
999.615
999.643
999.67
999.696
999.72
999.744
999.765
999.786
999.805
999.823
999.84
999.856
999.87
999.884
999.896
999.908
999.918
999.928
999.936
999.944
999.952
999.958
999.964
999.969
999.974
999.978
999.981
999.984
999.987
999.989
999.991
999.993
999.994
999.996
999.997
999.997
999.998
999.999
999.999
999.999
1000
1000
1000
1000
1000
1000
1000
1000
1000
1000
1000
1000
1000
1000
1000
1000
1000
998.096
998.146
998.199
998.254
998.308
998.362
998.415
998.469
998.521
998.573
998.624
998.674
998.724
998.772
998.82
998.867
998.914
998.959
999.004
999.048
999.09
999.132
999.173
999.213
999.252
999.29
999.327
999.363
999.398
999.432
999.465
999.497
999.528
999.557
999.586
999.613
999.639
999.664
999.688
999.711
999.733
999.753
999.773
999.791
999.809
999.825
999.841
999.855
999.869
999.881
999.893
999.904
999.914
999.923
999.932
999.939
999.947
999.953
999.959
999.964
999.969
999.973
999.977
999.98
999.983
999.986
999.988
999.99
999.992
999.993
999.995
999.996
999.997
999.997
999.998
999.998
999.999
999.999
999.999
1000
1000
1000
1000
1000
1000
1000
1000
1000
1000
1000
1000
1000
1000
1000
1000
1000
1000
1000
1000
1000
998.647
998.688
998.73
998.773
998.816
998.858
998.9
998.941
998.981
999.021
999.06
999.098
999.135
999.172
999.208
999.243
999.278
999.311
999.344
999.376
999.407
999.438
999.467
999.496
999.523
999.55
999.576
999.601
999.626
999.649
999.671
999.693
999.713
999.733
999.752
999.769
999.786
999.803
999.818
999.832
999.846
999.859
999.871
999.882
999.893
999.903
999.912
999.921
999.929
999.936
999.943
999.949
999.955
999.96
999.965
999.969
999.973
999.977
999.98
999.983
999.985
999.987
999.989
999.991
999.992
999.994
999.995
999.996
999.997
999.997
999.998
999.998
999.999
999.999
999.999
999.999
1000
1000
1000
1000
1000
1000
1000
1000
1000
1000
1000
1000
1000
1000
1000
1000
1000
1000
1000
1000
1000
1000
1000
1000
999.138
999.169
999.199
999.23
999.26
999.29
999.319
999.347
999.375
999.403
999.429
999.455
999.481
999.505
999.53
999.553
999.576
999.598
999.619
999.64
999.66
999.679
999.698
999.716
999.733
999.749
999.765
999.781
999.795
999.809
999.822
999.835
999.847
999.858
999.869
999.879
999.889
999.898
999.907
999.915
999.922
999.929
999.936
999.942
999.947
999.953
999.957
999.962
999.966
999.97
999.973
999.976
999.979
999.982
999.984
999.986
999.988
999.99
999.991
999.992
999.993
999.994
999.995
999.996
999.997
999.997
999.998
999.998
999.999
999.999
999.999
999.999
999.999
1000
1000
1000
1000
1000
1000
1000
1000
1000
1000
1000
1000
1000
1000
1000
1000
1000
1000
1000
1000
1000
1000
1000
1000
1000
1000
1000
944.555
944.555
944.555
944.555
944.555
944.555
944.555
944.555
944.555
944.555
944.555
944.555
944.555
944.555
944.555
944.555
944.555
944.555
944.555
944.555
944.555
944.555
944.555
944.555
944.555
944.555
944.555
944.555
944.555
944.555
944.555
944.555
944.555
944.555
944.555
944.555
944.555
944.555
944.555
944.555
944.555
944.555
944.555
944.555
944.555
944.555
944.555
944.555
944.555
944.555
944.555
944.555
944.555
944.555
944.555
944.555
944.555
944.555
944.555
944.556
944.555
944.555
944.555
944.555
944.555
944.555
944.555
944.555
944.555
944.555
944.555
944.555
944.555
944.555
944.555
944.555
944.556
944.557
944.56
944.574
944.555
944.555
944.555
944.555
944.555
944.555
944.555
944.555
944.555
944.555
944.555
944.555
944.555
944.556
944.557
944.559
944.563
944.575
944.611
944.773
944.555
944.555
944.555
944.555
944.555
944.555
944.555
944.556
944.556
944.557
944.557
944.559
944.561
944.564
944.571
944.585
944.618
944.703
944.985
946.4
944.559
944.56
944.561
944.563
944.565
944.567
944.57
944.573
944.575
944.578
944.582
944.588
944.598
944.617
944.652
944.724
944.885
945.309
946.77
954.645
944.685
944.7
944.717
944.736
944.755
944.772
944.784
944.788
944.788
944.79
944.795
944.81
944.84
944.9
945.021
945.267
945.805
947.149
951.452
973.692
946.534
946.625
946.711
946.795
946.86
946.872
946.85
946.793
946.738
946.68
946.627
946.58
946.563
946.603
946.83
947.404
948.721
951.675
958.895
989.393
959.512
959.696
959.874
960.03
960.133
960.106
960.036
959.962
959.864
959.713
959.532
959.275
959.011
958.666
958.567
959.005
960.845
964.998
973.847
989.334
991.742
991.65
991.584
991.541
991.558
991.726
991.945
992.171
992.41
992.69
992.996
993.373
993.793
994.331
994.728
994.917
994.678
994.356
994.824
995.385
999.107
999.068
999.034
999.003
998.983
998.995
999.026
999.083
999.14
999.204
999.268
999.342
999.413
999.495
999.553
999.583
999.57
999.543
999.552
998.137
999.955
999.949
999.944
999.938
999.932
999.927
999.925
999.927
999.931
999.938
999.945
999.952
999.958
999.964
999.968
999.97
999.969
999.964
999.928
999.418
999.999
999.999
999.998
999.998
999.998
999.997
999.997
999.996
999.996
999.997
999.997
999.997
999.998
999.998
999.998
999.998
999.998
999.996
999.99
999.92
1000
1000
1000
1000
1000
1000
1000
1000
1000
1000
1000
1000
1000
1000
1000
1000
1000
1000
1000
999.999
1000
1000
1000
1000
1000
1000
1000
1000
1000
1000
1000
1000
1000
1000
1000
1000
1000
1000
1000
1000
1000
1000
1000
1000
1000
1000
1000
1000
1000
1000
1000
1000
1000
1000
1000
1000
1000
1000
1000
1000
1000
1000
1000
1000
1000
1000
1000
1000
1000
1000
1000
1000
1000
1000
1000
1000
1000
1000
1000
1000
1000
1000
1000
1000
1000
1000
1000
1000
1000
1000
1000
1000
1000
1000
1000
1000
1000
1000
1000
1000
1000
1000
1000
1000
1000
1000
1000
1000
1000
1000
1000
1000
1000
1000
1000
1000
1000
1000
1000
1000
944.555
944.555
944.555
944.555
944.555
944.555
944.555
944.555
944.555
944.555
944.555
944.555
944.555
944.555
944.555
944.555
944.555
944.555
944.555
944.555
944.555
944.555
944.555
944.555
944.555
944.555
944.555
944.555
944.555
944.555
944.555
944.555
944.555
944.555
944.555
944.555
944.555
944.555
944.555
944.555
944.555
944.555
944.555
944.555
944.555
944.555
944.555
944.555
944.555
944.555
944.555
944.555
944.555
944.555
944.555
944.555
944.555
944.555
944.555
944.555
944.555
944.555
944.555
944.555
944.555
944.555
944.555
944.555
944.555
944.555
944.555
944.555
944.555
944.555
944.555
944.555
944.555
944.555
944.555
944.555
944.555
944.555
944.555
944.555
944.555
944.555
944.555
944.555
944.555
944.555
944.555
944.555
944.555
944.555
944.555
944.555
944.555
944.555
944.555
944.555
944.555
944.555
944.555
944.555
944.555
944.555
944.555
944.555
944.555
944.555
944.555
944.555
944.555
944.555
944.555
944.555
944.555
944.555
944.555
944.555
944.555
944.555
944.555
944.555
944.555
944.555
944.555
944.555
944.555
944.555
944.555
944.555
944.555
944.555
944.555
944.555
944.555
944.555
944.555
944.555
944.555
944.555
944.555
944.555
944.555
944.555
944.555
944.555
944.555
944.555
944.555
944.555
944.555
944.555
944.555
944.555
944.555
944.555
944.555
944.555
944.555
944.555
944.555
944.555
944.555
944.555
944.555
944.555
944.555
944.555
944.555
944.555
944.555
944.555
944.555
944.555
944.555
944.555
944.555
944.555
944.555
944.555
944.555
944.555
944.555
944.555
944.555
944.555
944.555
944.555
944.555
944.555
944.555
944.555
944.555
944.555
944.555
944.555
944.555
944.555
944.555
944.555
944.555
944.555
944.555
944.555
944.555
944.555
944.555
944.555
944.555
944.555
944.555
944.555
944.555
944.555
944.555
944.555
944.555
944.555
944.555
944.555
944.555
944.555
944.555
944.555
944.555
944.555
944.555
944.555
944.555
944.555
944.555
944.555
944.555
944.555
944.555
944.555
944.555
944.555
944.555
944.555
944.555
944.555
944.555
944.555
944.555
944.555
944.555
944.555
944.555
944.555
944.555
944.555
944.555
944.555
944.555
944.555
944.555
944.555
944.555
944.555
944.555
944.555
944.555
944.555
944.555
944.555
944.555
944.555
944.555
944.555
944.555
944.555
944.555
944.555
944.555
944.555
944.555
944.555
944.555
944.555
944.555
944.555
944.555
944.555
944.555
944.555
944.555
944.555
944.555
944.555
944.555
944.555
944.555
944.555
944.555
944.555
944.555
944.555
944.555
944.555
944.555
944.555
944.555
944.555
944.555
944.555
944.555
944.555
944.555
944.555
944.555
944.555
944.555
944.555
944.555
944.555
944.555
944.555
944.555
944.555
944.555
944.555
944.555
944.555
944.555
944.555
944.555
944.555
944.555
944.555
944.555
944.555
944.555
944.555
944.555
944.555
944.555
944.555
944.555
944.555
944.555
944.555
944.555
944.555
944.555
944.555
944.555
944.555
944.555
944.555
944.555
944.555
944.555
944.555
944.555
944.555
944.555
944.555
944.555
944.555
944.555
944.555
944.555
944.555
944.555
944.555
944.555
944.555
944.555
944.555
944.555
944.555
944.555
944.555
944.555
944.555
944.555
944.555
944.555
944.555
944.555
944.555
944.555
944.555
944.555
944.555
944.555
944.555
944.555
944.555
944.555
944.555
944.555
944.555
944.555
944.555
944.555
944.555
944.555
944.555
944.555
944.555
944.555
944.555
944.555
944.555
944.555
944.555
944.555
944.555
944.555
944.555
944.555
944.555
944.555
944.555
944.555
944.555
944.555
944.555
944.555
944.555
944.555
944.555
944.555
944.555
944.555
944.555
944.555
944.555
944.555
944.555
944.555
944.555
944.555
944.555
944.555
944.555
944.555
944.555
944.555
944.555
944.555
944.555
944.555
944.555
944.555
944.555
944.555
944.555
944.555
944.555
944.555
944.555
944.555
944.555
944.555
944.555
944.555
944.555
944.555
944.555
944.555
944.555
944.555
944.555
944.555
944.555
944.555
944.555
944.555
944.555
944.555
944.555
944.555
944.555
944.555
944.555
944.555
944.555
944.555
944.555
944.555
944.555
944.555
944.555
944.555
944.555
944.555
944.555
944.555
944.555
944.555
944.555
944.555
944.555
944.555
944.555
944.555
944.555
944.555
944.555
944.555
944.555
944.555
944.555
944.555
944.555
944.555
944.555
944.555
944.555
944.555
944.555
944.555
944.555
944.555
944.555
944.555
944.555
944.555
944.555
944.555
944.555
944.555
944.555
944.555
944.555
944.555
944.555
944.555
944.555
944.555
944.555
944.555
944.555
944.555
944.555
944.555
944.555
944.555
944.555
944.555
944.555
944.555
944.555
944.555
944.555
944.555
944.555
944.555
944.555
944.555
944.555
944.555
944.555
944.555
944.555
944.555
944.555
944.555
944.555
944.555
944.555
944.555
944.555
944.555
944.555
944.555
944.555
944.555
944.555
944.555
944.555
944.555
944.555
944.555
944.555
944.555
944.555
944.555
944.555
944.555
944.555
944.555
944.555
944.555
944.555
944.555
944.555
944.555
944.555
944.555
944.555
944.555
944.555
944.555
944.555
944.555
944.555
944.555
944.555
944.555
944.555
944.555
944.555
944.555
944.555
944.555
944.555
944.555
944.555
944.555
944.555
944.555
944.555
944.555
944.555
944.555
944.555
944.555
944.555
944.555
944.555
944.555
944.555
944.555
944.555
944.555
944.555
944.555
944.555
944.555
944.555
944.555
944.555
944.555
944.555
944.555
944.555
944.555
944.555
944.555
944.555
944.555
944.555
944.555
944.555
944.555
944.555
944.555
944.555
944.555
944.555
944.555
944.555
944.555
944.555
944.555
944.555
944.555
944.555
944.555
944.555
944.555
944.555
944.555
944.555
944.555
944.555
944.555
944.555
944.555
944.555
944.555
944.555
944.555
944.555
944.555
944.555
944.555
944.555
944.555
944.555
944.555
944.555
944.555
944.555
944.555
944.555
944.555
944.555
944.555
944.555
944.555
944.555
944.555
944.555
944.555
944.555
944.555
944.555
944.555
944.555
944.555
944.555
944.555
944.555
944.555
944.555
944.555
944.555
944.555
944.555
944.555
944.555
944.555
944.555
944.555
944.555
944.555
944.555
944.555
944.555
944.555
944.555
944.555
944.555
944.555
944.555
944.555
944.555
944.555
944.555
944.555
944.555
944.555
944.555
944.555
944.555
944.555
944.555
944.555
944.555
944.555
944.555
944.555
944.555
944.555
944.555
944.555
944.555
944.555
944.555
944.555
944.555
944.555
944.555
944.555
944.555
944.555
944.555
944.555
944.555
944.555
944.555
944.555
944.555
944.555
944.555
944.555
944.555
944.555
944.555
944.555
944.555
944.555
944.555
944.555
944.555
944.555
944.555
944.555
944.555
944.555
944.555
944.555
944.555
944.555
944.555
944.555
944.555
944.555
944.555
944.555
944.555
944.555
944.555
944.555
944.555
944.555
944.555
944.555
944.555
944.555
944.555
944.555
944.555
944.555
944.555
944.555
944.555
944.555
944.555
944.555
944.555
944.555
944.555
944.555
944.555
944.555
944.555
944.555
944.555
944.555
944.555
944.555
944.555
944.555
944.555
944.555
944.555
944.555
944.555
944.555
944.555
944.555
944.555
944.555
944.555
944.555
944.555
944.555
944.555
944.555
944.555
944.555
944.555
944.555
944.555
944.555
944.555
944.555
944.555
944.555
944.555
944.555
944.555
944.555
944.555
944.555
944.555
944.555
944.555
944.555
944.555
944.555
944.555
944.555
944.555
944.555
944.555
944.555
944.555
944.555
944.555
944.555
944.555
944.555
944.555
944.555
944.555
944.555
944.555
944.555
944.555
944.555
944.555
944.555
944.555
944.555
944.555
944.555
944.555
944.555
944.555
944.555
944.555
944.555
944.555
944.555
944.555
944.555
944.555
944.555
944.555
944.555
944.555
944.555
944.555
944.555
944.555
944.555
944.555
944.555
944.555
944.555
944.555
944.555
944.555
944.555
944.555
944.555
944.555
944.555
944.555
944.555
944.555
944.555
944.555
944.555
944.555
944.555
944.555
944.555
944.555
944.555
944.555
944.555
944.555
944.555
944.555
944.555
944.555
944.555
944.555
944.555
944.555
944.555
944.555
944.555
944.555
944.555
944.555
944.555
944.555
944.555
944.555
944.555
944.555
944.555
944.555
944.555
944.555
944.555
944.555
944.555
944.555
944.555
944.555
944.555
944.555
944.555
944.555
944.555
944.555
944.555
944.555
944.555
944.555
944.555
944.555
944.555
944.555
944.555
944.555
944.555
944.555
944.555
944.555
944.555
944.555
944.555
944.555
944.555
944.555
944.555
944.555
944.555
944.555
944.555
944.555
944.555
944.555
944.555
944.555
944.555
944.555
944.555
944.555
944.555
944.555
944.555
944.555
944.555
944.555
944.555
944.555
944.555
944.555
944.555
944.555
944.555
944.555
944.555
944.555
944.555
944.555
944.555
944.555
944.555
944.555
944.555
944.555
944.555
944.555
944.555
944.555
944.555
944.555
944.555
944.555
944.555
944.555
944.555
944.555
944.555
944.555
944.555
944.555
944.555
944.555
944.555
944.555
944.555
944.555
944.555
944.555
944.555
944.555
944.555
944.555
944.555
944.555
944.555
944.555
944.555
944.555
944.555
944.555
944.555
944.555
944.555
944.555
944.555
944.555
944.555
944.555
944.555
944.555
944.555
944.555
944.555
944.555
944.555
944.555
944.555
944.555
944.555
944.555
944.555
944.555
944.555
944.555
944.555
944.555
944.555
944.555
944.555
944.555
944.555
944.555
944.555
944.555
944.555
944.555
944.555
944.555
944.555
944.555
944.555
944.555
944.555
944.555
944.555
944.555
944.555
944.555
944.555
944.555
944.555
944.555
944.555
944.555
944.555
944.555
944.555
944.555
944.555
944.555
944.555
944.555
944.555
944.555
944.555
944.555
944.555
944.555
944.555
944.555
944.555
944.555
944.555
944.555
944.555
944.555
944.555
944.555
944.555
944.555
944.555
944.555
944.555
944.555
944.555
944.555
944.555
944.555
944.555
944.555
944.555
944.555
944.555
944.555
944.555
944.555
944.555
944.555
944.555
944.555
944.555
944.555
944.555
944.555
944.555
944.555
944.555
944.555
944.555
944.555
944.555
944.555
944.555
944.555
944.555
944.555
944.555
944.555
944.555
944.555
944.555
944.555
944.555
944.555
944.555
944.555
944.555
944.555
944.555
944.555
944.555
944.555
944.555
944.555
944.555
944.555
944.555
944.555
944.555
944.555
944.555
944.555
944.555
944.555
944.555
944.555
944.555
944.555
944.555
944.555
944.555
944.555
944.555
944.555
944.555
944.555
944.555
944.555
944.555
944.555
944.555
944.555
944.555
944.555
944.555
944.555
944.555
944.555
944.555
944.555
944.555
944.555
944.555
944.555
944.555
944.555
944.555
944.555
944.555
944.555
944.555
944.555
944.555
944.555
944.555
944.555
944.555
944.555
944.555
944.555
944.555
944.555
944.555
944.555
944.555
944.555
944.555
944.555
944.555
944.555
944.555
944.555
944.555
944.555
944.555
944.555
944.555
944.555
944.555
944.555
944.555
944.555
944.555
944.555
944.555
944.555
944.555
944.555
944.555
944.555
944.555
944.555
944.555
944.555
944.555
944.555
944.555
944.555
944.555
944.555
944.555
944.555
944.555
944.555
944.555
944.555
944.555
944.555
944.555
944.555
944.555
944.555
944.555
944.555
944.555
944.555
944.555
944.555
944.555
944.555
944.555
944.555
944.555
944.555
944.555
944.555
944.555
944.555
944.555
944.555
944.555
944.555
944.555
944.555
944.555
944.555
944.555
944.555
944.555
944.555
944.555
944.555
944.555
944.555
944.555
944.555
944.555
944.555
944.555
944.555
944.555
944.555