/*--------------------------------*- C++ -*----------------------------------*\
| =========                 |                                                 |
| \\      /  F ield         | OpenFOAM: The Open Source CFD Toolbox           |
|  \\    /   O peration     | Version:  2.1.0                                 |
|   \\  /    A nd           | Web:      www.OpenFOAM.org                      |
|    \\/     M anipulation  |                                                 |
\*---------------------------------------------------------------------------*/
FoamFile
{
    version     2.0;
    format      ascii;
    class       volScalarField;
    location    "0.42";
    object      T;
}
// * * * * * * * * * * * * * * * * * * * * * * * * * * * * * * * * * * * * * //

dimensions      [0 0 0 1 0 0 0];

internalField   nonuniform List<scalar> 
6400
(
386.041
386.262
386.478
386.688
386.891
387.088
387.28
387.466
387.647
387.822
387.992
388.157
388.317
388.472
388.622
388.768
388.908
389.045
389.176
389.303
389.426
389.545
389.659
389.77
389.876
389.979
390.077
390.172
390.263
390.351
390.435
390.516
390.593
390.667
390.738
390.806
390.871
390.932
390.991
391.047
391.101
391.152
391.2
391.245
391.289
391.329
391.368
391.404
391.438
391.47
391.5
391.528
391.554
391.579
391.601
391.621
391.64
391.658
391.673
391.687
391.7
391.711
391.721
391.73
391.737
391.743
391.747
391.75
391.751
391.751
391.749
391.746
391.741
391.734
391.725
391.714
391.7
391.684
391.665
391.643
391.617
391.587
391.55
391.507
391.454
391.388
391.304
391.193
391.039
390.814
390.46
389.849
388.673
386.279
382.924
388.674
392.974
393.148
393.15
393.15
386.388
386.592
386.796
386.996
387.192
387.382
387.568
387.75
387.927
388.099
388.267
388.43
388.589
388.744
388.894
389.041
389.183
389.321
389.455
389.585
389.711
389.834
389.952
390.067
390.178
390.286
390.39
390.49
390.586
390.68
390.769
390.856
390.939
391.019
391.095
391.169
391.239
391.307
391.371
391.433
391.492
391.548
391.601
391.652
391.7
391.746
391.789
391.831
391.87
391.906
391.941
391.974
392.004
392.033
392.061
392.086
392.111
392.133
392.155
392.175
392.193
392.211
392.228
392.243
392.258
392.272
392.285
392.297
392.308
392.319
392.329
392.339
392.348
392.357
392.364
392.372
392.379
392.385
392.39
392.395
392.399
392.403
392.405
392.407
392.407
392.406
392.404
392.4
392.396
392.393
392.393
392.405
392.442
392.531
392.709
392.962
393.135
393.15
393.15
393.15
386.065
386.266
386.471
386.675
386.874
387.07
387.262
387.451
387.635
387.815
387.992
388.164
388.333
388.498
388.659
388.816
388.969
389.119
389.265
389.408
389.547
389.682
389.814
389.942
390.067
390.188
390.306
390.421
390.531
390.639
390.743
390.843
390.94
391.034
391.125
391.212
391.296
391.376
391.454
391.529
391.6
391.668
391.734
391.796
391.856
391.913
391.967
392.019
392.068
392.115
392.159
392.201
392.241
392.279
392.315
392.349
392.381
392.412
392.441
392.468
392.494
392.519
392.542
392.564
392.586
392.606
392.626
392.645
392.664
392.682
392.7
392.717
392.734
392.752
392.769
392.786
392.803
392.821
392.839
392.857
392.875
392.894
392.912
392.932
392.951
392.97
392.99
393.009
393.029
393.048
393.067
393.085
393.103
393.119
393.132
393.14
393.149
393.15
393.15
393.15
385.159
385.363
385.575
385.787
385.997
386.204
386.409
386.611
386.81
387.005
387.197
387.385
387.571
387.753
387.932
388.107
388.279
388.448
388.614
388.776
388.936
389.092
389.244
389.394
389.541
389.684
389.824
389.961
390.094
390.224
390.351
390.475
390.595
390.712
390.826
390.936
391.043
391.147
391.248
391.345
391.439
391.529
391.617
391.701
391.782
391.859
391.934
392.005
392.074
392.139
392.201
392.261
392.317
392.371
392.422
392.471
392.517
392.56
392.601
392.64
392.676
392.711
392.743
392.774
392.803
392.83
392.856
392.88
392.903
392.924
392.945
392.964
392.982
392.999
393.015
393.029
393.043
393.056
393.068
393.079
393.09
393.099
393.107
393.115
393.121
393.127
393.132
393.136
393.14
393.143
393.145
393.147
393.148
393.149
393.149
393.149
393.15
393.15
393.15
393.15
383.48
383.688
383.907
384.129
384.351
384.572
384.792
385.009
385.224
385.437
385.648
385.856
386.061
386.264
386.464
386.662
386.857
387.05
387.24
387.427
387.612
387.794
387.973
388.15
388.324
388.495
388.664
388.83
388.993
389.153
389.311
389.466
389.618
389.768
389.914
390.058
390.199
390.336
390.471
390.603
390.731
390.856
390.978
391.097
391.212
391.324
391.432
391.537
391.638
391.736
391.83
391.921
392.007
392.09
392.17
392.246
392.318
392.386
392.451
392.512
392.569
392.623
392.674
392.721
392.765
392.805
392.843
392.878
392.91
392.939
392.965
392.989
393.011
393.03
393.047
393.063
393.076
393.088
393.099
393.108
393.116
393.122
393.128
393.133
393.137
393.14
393.143
393.145
393.147
393.148
393.149
393.149
393.15
393.15
393.15
393.15
393.15
393.15
393.15
393.15
380.611
380.822
381.045
381.273
381.502
381.731
381.96
382.188
382.414
382.639
382.863
383.085
383.305
383.524
383.741
383.957
384.172
384.385
384.596
384.806
385.014
385.221
385.427
385.63
385.832
386.032
386.231
386.428
386.624
386.817
387.01
387.2
387.389
387.576
387.761
387.944
388.126
388.305
388.483
388.659
388.832
389.003
389.172
389.339
389.503
389.665
389.824
389.98
390.133
390.283
390.43
390.573
390.714
390.85
390.983
391.112
391.238
391.359
391.476
391.589
391.698
391.802
391.902
391.997
392.088
392.175
392.256
392.334
392.407
392.475
392.54
392.6
392.656
392.708
392.756
392.801
392.842
392.88
392.914
392.946
392.975
393.001
393.024
393.045
393.064
393.081
393.096
393.108
393.12
393.129
393.136
393.141
393.145
393.147
393.149
393.149
393.149
393.15
393.15
393.15
375.922
376.128
376.343
376.564
376.786
377.01
377.234
377.457
377.679
377.901
378.121
378.341
378.56
378.778
378.996
379.213
379.43
379.646
379.862
380.079
380.295
380.512
380.729
380.946
381.162
381.377
381.592
381.807
382.02
382.234
382.447
382.66
382.873
383.085
383.297
383.509
383.721
383.932
384.144
384.355
384.567
384.779
384.991
385.202
385.414
385.626
385.838
386.05
386.263
386.475
386.686
386.898
387.109
387.32
387.53
387.74
387.948
388.156
388.362
388.567
388.77
388.971
389.169
389.365
389.558
389.748
389.934
390.117
390.296
390.47
390.64
390.806
390.966
391.122
391.273
391.418
391.559
391.694
391.824
391.949
392.068
392.182
392.291
392.395
392.493
392.586
392.674
392.757
392.833
392.902
392.964
393.016
393.058
393.09
393.11
393.121
393.13
393.136
393.14
393.142
368.872
369.056
369.246
369.441
369.636
369.832
370.026
370.221
370.414
370.606
370.796
370.986
371.174
371.362
371.549
371.735
371.919
372.104
372.288
372.472
372.656
372.84
373.023
373.207
373.39
373.574
373.758
373.942
374.126
374.311
374.497
374.684
374.871
375.06
375.25
375.442
375.636
375.831
376.029
376.229
376.431
376.636
376.844
377.056
377.27
377.488
377.709
377.934
378.163
378.396
378.633
378.874
379.12
379.37
379.625
379.884
380.148
380.417
380.69
380.968
381.251
381.538
381.83
382.127
382.427
382.732
383.04
383.353
383.668
383.987
384.309
384.633
384.96
385.289
385.621
385.953
386.288
386.624
386.962
387.301
387.643
387.988
388.336
388.687
389.041
389.399
389.76
390.124
390.487
390.848
391.2
391.537
391.849
392.126
392.357
392.523
392.661
392.77
392.852
392.903
358.83
358.96
359.092
359.227
359.36
359.493
359.622
359.752
359.878
360.004
360.126
360.248
360.366
360.483
360.598
360.711
360.821
360.931
361.038
361.144
361.248
361.351
361.452
361.553
361.655
361.757
361.86
361.965
362.07
362.178
362.286
362.397
362.51
362.626
362.744
362.865
362.988
363.115
363.245
363.378
363.515
363.656
363.8
363.949
364.101
364.258
364.419
364.584
364.755
364.93
365.11
365.295
365.486
365.682
365.884
366.092
366.306
366.526
366.753
366.987
367.228
367.477
367.733
367.998
368.271
368.552
368.843
369.144
369.454
369.775
370.107
370.45
370.804
371.172
371.553
371.948
372.359
372.787
373.234
373.7
374.189
374.703
375.246
375.82
376.431
377.083
377.78
378.529
379.335
380.2
381.123
382.102
383.128
384.189
385.263
386.303
387.209
388.039
388.747
389.268
345.586
345.631
345.677
345.722
345.766
345.81
345.852
345.893
345.933
345.972
346.01
346.048
346.084
346.12
346.155
346.189
346.223
346.257
346.29
346.323
346.357
346.39
346.424
346.459
346.494
346.529
346.566
346.603
346.641
346.68
346.72
346.761
346.802
346.845
346.888
346.933
346.979
347.025
347.073
347.121
347.17
347.221
347.272
347.324
347.377
347.431
347.485
347.541
347.598
347.655
347.713
347.773
347.833
347.894
347.957
348.02
348.084
348.149
348.214
348.281
348.349
348.419
348.491
348.566
348.642
348.722
348.804
348.89
348.979
349.073
349.171
349.275
349.385
349.501
349.625
349.758
349.9
350.052
350.216
350.395
350.589
350.801
351.031
351.284
351.56
351.862
352.194
352.559
352.988
353.489
354.074
354.759
355.557
356.491
357.587
358.881
360.376
361.932
363.428
364.64
331.667
331.626
331.588
331.549
331.513
331.477
331.443
331.409
331.378
331.347
331.317
331.288
331.261
331.234
331.208
331.182
331.157
331.132
331.108
331.083
331.059
331.034
331.009
330.983
330.957
330.93
330.902
330.873
330.843
330.812
330.779
330.745
330.709
330.671
330.632
330.591
330.548
330.503
330.456
330.407
330.355
330.302
330.246
330.188
330.127
330.064
329.998
329.93
329.859
329.785
329.708
329.628
329.544
329.457
329.366
329.271
329.173
329.07
328.962
328.85
328.732
328.608
328.476
328.337
328.189
328.033
327.867
327.691
327.504
327.304
327.091
326.864
326.621
326.362
326.085
325.789
325.472
325.132
324.769
324.382
323.968
323.527
323.058
322.561
322.034
321.478
320.892
320.274
319.603
318.869
318.062
317.182
316.231
315.204
314.095
312.903
311.634
310.316
309.016
307.867
320.5
320.391
320.281
320.168
320.057
319.944
319.833
319.722
319.612
319.502
319.394
319.285
319.178
319.071
318.965
318.859
318.754
318.648
318.544
318.438
318.334
318.228
318.123
318.016
317.91
317.803
317.695
317.585
317.475
317.363
317.25
317.135
317.019
316.9
316.779
316.656
316.531
316.403
316.273
316.139
316.003
315.863
315.719
315.572
315.422
315.267
315.108
314.945
314.777
314.604
314.427
314.245
314.057
313.863
313.664
313.459
313.247
313.029
312.804
312.571
312.33
312.08
311.82
311.551
311.271
310.98
310.678
310.362
310.034
309.692
309.335
308.963
308.574
308.17
307.748
307.309
306.851
306.376
305.883
305.372
304.844
304.299
303.74
303.168
302.585
301.993
301.396
300.797
300.2
299.61
299.034
298.466
297.897
297.34
296.801
296.288
295.811
295.382
295.021
294.751
312.206
312.066
311.92
311.769
311.617
311.463
311.309
311.154
311
310.845
310.69
310.535
310.38
310.224
310.069
309.914
309.758
309.602
309.446
309.29
309.133
308.975
308.817
308.659
308.499
308.339
308.178
308.016
307.853
307.689
307.524
307.357
307.189
307.019
306.848
306.675
306.5
306.323
306.145
305.964
305.781
305.595
305.408
305.217
305.025
304.829
304.631
304.43
304.227
304.02
303.81
303.597
303.38
303.161
302.937
302.71
302.48
302.245
302.007
301.765
301.519
301.27
301.017
300.76
300.499
300.234
299.966
299.694
299.42
299.142
298.861
298.578
298.293
298.007
297.719
297.431
297.144
296.858
296.575
296.295
296.02
295.751
295.49
295.237
294.995
294.766
294.549
294.348
294.163
293.996
293.848
293.721
293.616
293.525
293.446
293.379
293.325
293.282
293.25
293.229
306.206
306.063
305.911
305.754
305.593
305.431
305.267
305.103
304.938
304.773
304.608
304.443
304.278
304.113
303.948
303.782
303.616
303.45
303.284
303.118
302.951
302.784
302.616
302.448
302.28
302.111
301.942
301.773
301.603
301.432
301.261
301.09
300.918
300.746
300.573
300.4
300.227
300.053
299.879
299.705
299.531
299.356
299.182
299.008
298.834
298.66
298.486
298.313
298.14
297.968
297.797
297.626
297.456
297.287
297.119
296.952
296.786
296.621
296.458
296.297
296.138
295.981
295.826
295.673
295.524
295.377
295.234
295.093
294.956
294.823
294.694
294.569
294.448
294.331
294.219
294.112
294.01
293.914
293.822
293.737
293.658
293.584
293.517
293.456
293.401
293.352
293.31
293.274
293.244
293.22
293.201
293.186
293.176
293.169
293.163
293.159
293.156
293.154
293.153
293.152
302.157
302.024
301.88
301.73
301.578
301.424
301.269
301.114
300.958
300.803
300.648
300.493
300.338
300.184
300.03
299.876
299.723
299.57
299.418
299.266
299.114
298.963
298.813
298.663
298.513
298.364
298.216
298.069
297.922
297.776
297.631
297.487
297.344
297.202
297.061
296.921
296.783
296.646
296.511
296.377
296.245
296.115
295.987
295.861
295.737
295.615
295.496
295.379
295.264
295.152
295.043
294.937
294.833
294.733
294.635
294.541
294.449
294.361
294.276
294.195
294.117
294.042
293.971
293.903
293.838
293.777
293.719
293.665
293.613
293.565
293.52
293.478
293.439
293.404
293.371
293.34
293.313
293.288
293.266
293.246
293.229
293.213
293.2
293.189
293.18
293.172
293.166
293.161
293.158
293.155
293.153
293.152
293.151
293.151
293.15
293.15
293.15
293.15
293.15
293.15
299.491
299.373
299.244
299.111
298.975
298.839
298.702
298.565
298.428
298.293
298.157
298.023
297.889
297.757
297.625
297.494
297.364
297.236
297.108
296.981
296.856
296.732
296.609
296.488
296.368
296.249
296.133
296.017
295.904
295.792
295.683
295.574
295.468
295.364
295.262
295.161
295.063
294.967
294.874
294.783
294.694
294.607
294.524
294.442
294.364
294.288
294.214
294.144
294.076
294.011
293.949
293.889
293.833
293.779
293.727
293.679
293.633
293.59
293.55
293.512
293.476
293.443
293.413
293.385
293.358
293.334
293.312
293.292
293.274
293.257
293.243
293.229
293.217
293.207
293.197
293.189
293.182
293.176
293.171
293.166
293.163
293.16
293.157
293.155
293.154
293.152
293.152
293.151
293.151
293.15
293.15
293.15
293.15
293.15
293.15
293.15
293.15
293.15
293.15
293.15
297.684
297.581
297.471
297.357
297.243
297.128
297.014
296.9
296.787
296.675
296.564
296.454
296.346
296.238
296.132
296.028
295.924
295.822
295.722
295.623
295.525
295.429
295.335
295.242
295.151
295.062
294.975
294.889
294.806
294.724
294.644
294.566
294.491
294.417
294.346
294.277
294.21
294.146
294.083
294.023
293.966
293.91
293.857
293.806
293.758
293.712
293.668
293.626
293.587
293.55
293.515
293.482
293.451
293.423
293.396
293.371
293.348
293.327
293.307
293.289
293.273
293.258
293.245
293.232
293.221
293.212
293.203
293.195
293.188
293.182
293.177
293.172
293.168
293.165
293.162
293.159
293.157
293.156
293.154
293.153
293.152
293.152
293.151
293.151
293.151
293.15
293.15
293.15
293.15
293.15
293.15
293.15
293.15
293.15
293.15
293.15
293.15
293.15
293.15
293.15
296.4
296.315
296.223
296.13
296.038
295.945
295.854
295.763
295.673
295.585
295.498
295.412
295.327
295.244
295.162
295.082
295.003
294.925
294.849
294.774
294.701
294.63
294.56
294.492
294.425
294.36
294.297
294.235
294.175
294.117
294.061
294.007
293.955
293.904
293.856
293.809
293.765
293.722
293.681
293.643
293.606
293.57
293.537
293.506
293.476
293.448
293.422
293.397
293.374
293.352
293.332
293.314
293.297
293.281
293.266
293.253
293.241
293.23
293.22
293.211
293.203
293.196
293.189
293.183
293.178
293.174
293.17
293.167
293.164
293.161
293.159
293.157
293.156
293.155
293.154
293.153
293.152
293.152
293.151
293.151
293.151
293.15
293.15
293.15
293.15
293.15
293.15
293.15
293.15
293.15
293.15
293.15
293.15
293.15
293.15
293.15
293.15
293.15
293.15
293.15
295.458
295.388
295.315
295.242
295.17
295.098
295.026
294.956
294.888
294.82
294.753
294.688
294.624
294.561
294.5
294.44
294.381
294.324
294.268
294.213
294.16
294.109
294.058
294.01
293.962
293.916
293.872
293.829
293.788
293.749
293.71
293.674
293.639
293.605
293.573
293.543
293.514
293.486
293.46
293.436
293.412
293.39
293.37
293.35
293.332
293.315
293.299
293.285
293.271
293.259
293.247
293.236
293.227
293.218
293.21
293.202
293.196
293.19
293.184
293.179
293.175
293.172
293.168
293.165
293.163
293.161
293.159
293.157
293.156
293.155
293.154
293.153
293.152
293.152
293.151
293.151
293.151
293.151
293.15
293.15
293.15
293.15
293.15
293.15
293.15
293.15
293.15
293.15
293.15
293.15
293.15
293.15
293.15
293.15
293.15
293.15
293.15
293.15
293.15
293.15
294.619
294.567
294.515
294.463
294.411
294.361
294.311
294.262
294.215
294.168
294.123
294.078
294.035
293.993
293.952
293.912
293.873
293.836
293.799
293.764
293.73
293.697
293.665
293.635
293.605
293.577
293.55
293.524
293.499
293.475
293.453
293.431
293.411
293.391
293.373
293.356
293.339
293.324
293.309
293.296
293.283
293.271
293.26
293.249
293.24
293.231
293.223
293.215
293.208
293.202
293.196
293.191
293.186
293.181
293.177
293.174
293.171
293.168
293.165
293.163
293.161
293.159
293.158
293.157
293.155
293.155
293.154
293.153
293.152
293.152
293.152
293.151
293.151
293.151
293.151
293.15
293.15
293.15
293.15
293.15
293.15
293.15
293.15
293.15
293.15
293.15
293.15
293.15
293.15
293.15
293.15
293.15
293.15
293.15
293.15
293.15
293.15
293.15
293.15
293.15
393.15
393.15
393.15
393.15
393.15
393.15
393.15
393.15
393.15
393.15
393.15
393.15
393.15
393.15
393.15
393.15
393.15
393.15
393.15
393.15
393.15
393.15
393.15
393.15
393.15
393.15
393.15
393.15
393.15
393.15
393.15
393.15
393.15
393.15
393.15
393.15
393.15
393.15
393.15
393.15
393.15
393.15
393.15
393.15
393.15
393.15
393.15
393.15
393.15
393.15
393.15
393.15
393.15
393.15
393.15
393.15
393.15
393.15
393.149
393.147
393.15
393.15
393.15
393.15
393.15
393.15
393.15
393.15
393.15
393.15
393.15
393.15
393.15
393.15
393.15
393.149
393.148
393.146
393.139
393.112
393.15
393.15
393.15
393.15
393.15
393.15
393.15
393.15
393.15
393.15
393.15
393.149
393.149
393.148
393.146
393.142
393.133
393.111
393.043
392.734
393.15
393.15
393.15
393.149
393.149
393.149
393.148
393.148
393.147
393.146
393.145
393.142
393.138
393.132
393.118
393.091
393.029
392.867
392.328
389.632
393.142
393.14
393.137
393.134
393.13
393.125
393.12
393.115
393.111
393.106
393.099
393.087
393.067
393.031
392.964
392.827
392.519
391.711
388.93
374.085
392.902
392.873
392.84
392.804
392.767
392.736
392.713
392.705
392.704
392.701
392.691
392.663
392.606
392.491
392.26
391.79
390.765
388.21
380.074
339.178
389.378
389.206
389.042
388.883
388.76
388.736
388.778
388.887
388.99
389.101
389.201
389.291
389.323
389.247
388.816
387.726
385.228
379.656
366.175
311.414
365.035
364.694
364.366
364.076
363.886
363.936
364.066
364.203
364.384
364.663
364.998
365.473
365.963
366.602
366.785
365.973
362.571
354.941
338.9
311.516
307.335
307.495
307.609
307.683
307.654
307.363
306.985
306.593
306.178
305.694
305.166
304.514
303.791
302.863
302.178
301.854
302.265
302.819
302.014
301.049
294.673
294.739
294.797
294.85
294.884
294.864
294.81
294.714
294.616
294.508
294.399
294.272
294.151
294.011
293.912
293.86
293.883
293.928
293.914
296.33
293.227
293.236
293.246
293.256
293.267
293.274
293.278
293.274
293.267
293.255
293.244
293.232
293.222
293.212
293.205
293.201
293.203
293.212
293.273
294.142
293.152
293.152
293.153
293.153
293.154
293.155
293.156
293.156
293.156
293.156
293.155
293.155
293.154
293.154
293.153
293.153
293.154
293.156
293.168
293.287
293.15
293.15
293.15
293.15
293.15
293.15
293.15
293.15
293.15
293.15
293.15
293.15
293.15
293.15
293.15
293.15
293.15
293.15
293.151
293.152
293.15
293.15
293.15
293.15
293.15
293.15
293.15
293.15
293.15
293.15
293.15
293.15
293.15
293.15
293.15
293.15
293.15
293.15
293.15
293.15
293.15
293.15
293.15
293.15
293.15
293.15
293.15
293.15
293.15
293.15
293.15
293.15
293.15
293.15
293.15
293.15
293.15
293.15
293.15
293.15
293.15
293.15
293.15
293.15
293.15
293.15
293.15
293.15
293.15
293.15
293.15
293.15
293.15
293.15
293.15
293.15
293.15
293.15
293.15
293.15
293.15
293.15
293.15
293.15
293.15
293.15
293.15
293.15
293.15
293.15
293.15
293.15
293.15
293.15
293.15
293.15
293.15
293.15
293.15
293.15
293.15
293.15
293.15
293.15
293.15
293.15
293.15
293.15
293.15
293.15
293.15
293.15
293.15
293.15
293.15
293.15
293.15
293.15
293.15
293.15
393.15
393.15
393.15
393.15
393.15
393.15
393.15
393.15
393.15
393.15
393.15
393.15
393.15
393.15
393.15
393.15
393.15
393.15
393.15
393.15
393.15
393.15
393.15
393.15
393.15
393.15
393.15
393.15
393.15
393.15
393.15
393.15
393.15
393.15
393.15
393.15
393.15
393.15
393.15
393.15
393.15
393.15
393.15
393.15
393.15
393.15
393.15
393.15
393.15
393.15
393.15
393.15
393.15
393.15
393.15
393.15
393.15
393.15
393.15
393.15
393.15
393.15
393.15
393.15
393.15
393.15
393.15
393.15
393.15
393.15
393.15
393.15
393.15
393.15
393.15
393.15
393.15
393.15
393.15
393.15
393.15
393.15
393.15
393.15
393.15
393.15
393.15
393.15
393.15
393.15
393.15
393.15
393.15
393.15
393.15
393.15
393.15
393.15
393.15
393.15
393.15
393.15
393.15
393.15
393.15
393.15
393.15
393.15
393.15
393.15
393.15
393.15
393.15
393.15
393.15
393.15
393.15
393.15
393.15
393.15
393.15
393.15
393.15
393.15
393.15
393.15
393.15
393.15
393.15
393.15
393.15
393.15
393.15
393.15
393.15
393.15
393.15
393.15
393.15
393.15
393.15
393.15
393.15
393.15
393.15
393.15
393.15
393.15
393.15
393.15
393.15
393.15
393.15
393.15
393.15
393.15
393.15
393.15
393.15
393.15
393.15
393.15
393.15
393.15
393.15
393.15
393.15
393.15
393.15
393.15
393.15
393.15
393.15
393.15
393.15
393.15
393.15
393.15
393.15
393.15
393.15
393.15
393.15
393.15
393.15
393.15
393.15
393.15
393.15
393.15
393.15
393.15
393.15
393.15
393.15
393.15
393.15
393.15
393.15
393.15
393.15
393.15
393.15
393.15
393.15
393.15
393.15
393.15
393.15
393.15
393.15
393.15
393.15
393.15
393.15
393.15
393.15
393.15
393.15
393.15
393.15
393.15
393.15
393.15
393.15
393.15
393.15
393.15
393.15
393.15
393.15
393.15
393.15
393.15
393.15
393.15
393.15
393.15
393.15
393.15
393.15
393.15
393.15
393.15
393.15
393.15
393.15
393.15
393.15
393.15
393.15
393.15
393.15
393.15
393.15
393.15
393.15
393.15
393.15
393.15
393.15
393.15
393.15
393.15
393.15
393.15
393.15
393.15
393.15
393.15
393.15
393.15
393.15
393.15
393.15
393.15
393.15
393.15
393.15
393.15
393.15
393.15
393.15
393.15
393.15
393.15
393.15
393.15
393.15
393.15
393.15
393.15
393.15
393.15
393.15
393.15
393.15
393.15
393.15
393.15
393.15
393.15
393.15
393.15
393.15
393.15
393.15
393.15
393.15
393.15
393.15
393.15
393.15
393.15
393.15
393.15
393.15
393.15
393.15
393.15
393.15
393.15
393.15
393.15
393.15
393.15
393.15
393.15
393.15
393.15
393.15
393.15
393.15
393.15
393.15
393.15
393.15
393.15
393.15
393.15
393.15
393.15
393.15
393.15
393.15
393.15
393.15
393.15
393.15
393.15
393.15
393.15
393.15
393.15
393.15
393.15
393.15
393.15
393.15
393.15
393.15
393.15
393.15
393.15
393.15
393.15
393.15
393.15
393.15
393.15
393.15
393.15
393.15
393.15
393.15
393.15
393.15
393.15
393.15
393.15
393.15
393.15
393.15
393.15
393.15
393.15
393.15
393.15
393.15
393.15
393.15
393.15
393.15
393.15
393.15
393.15
393.15
393.15
393.15
393.15
393.15
393.15
393.15
393.15
393.15
393.15
393.15
393.15
393.15
393.15
393.15
393.15
393.15
393.15
393.15
393.15
393.15
393.15
393.15
393.15
393.15
393.15
393.15
393.15
393.15
393.15
393.15
393.15
393.15
393.15
393.15
393.15
393.15
393.15
393.15
393.15
393.15
393.15
393.15
393.15
393.15
393.15
393.15
393.15
393.15
393.15
393.15
393.15
393.15
393.15
393.15
393.15
393.15
393.15
393.15
393.15
393.15
393.15
393.15
393.15
393.15
393.15
393.15
393.15
393.15
393.15
393.15
393.15
393.15
393.15
393.15
393.15
393.15
393.15
393.15
393.15
393.15
393.15
393.15
393.15
393.15
393.15
393.15
393.15
393.15
393.15
393.15
393.15
393.15
393.15
393.15
393.15
393.15
393.15
393.15
393.15
393.15
393.15
393.15
393.15
393.15
393.15
393.15
393.15
393.15
393.15
393.15
393.15
393.15
393.15
393.15
393.15
393.15
393.15
393.15
393.15
393.15
393.15
393.15
393.15
393.15
393.15
393.15
393.15
393.15
393.15
393.15
393.15
393.15
393.15
393.15
393.15
393.15
393.15
393.15
393.15
393.15
393.15
393.15
393.15
393.15
393.15
393.15
393.15
393.15
393.15
393.15
393.15
393.15
393.15
393.15
393.15
393.15
393.15
393.15
393.15
393.15
393.15
393.15
393.15
393.15
393.15
393.15
393.15
393.15
393.15
393.15
393.15
393.15
393.15
393.15
393.15
393.15
393.15
393.15
393.15
393.15
393.15
393.15
393.15
393.15
393.15
393.15
393.15
393.15
393.15
393.15
393.15
393.15
393.15
393.15
393.15
393.15
393.15
393.15
393.15
393.15
393.15
393.15
393.15
393.15
393.15
393.15
393.15
393.15
393.15
393.15
393.15
393.15
393.15
393.15
393.15
393.15
393.15
393.15
393.15
393.15
393.15
393.15
393.15
393.15
393.15
393.15
393.15
393.15
393.15
393.15
393.15
393.15
393.15
393.15
393.15
393.15
393.15
393.15
393.15
393.15
393.15
393.15
393.15
393.15
393.15
393.15
393.15
393.15
393.15
393.15
393.15
393.15
393.15
393.15
393.15
393.15
393.15
393.15
393.15
393.15
393.15
393.15
393.15
393.15
393.15
393.15
393.15
393.15
393.15
393.15
393.15
393.15
393.15
393.15
393.15
393.15
393.15
393.15
393.15
393.15
393.15
393.15
393.15
393.15
393.15
393.15
393.15
393.15
393.15
393.15
393.15
393.15
393.15
393.15
393.15
393.15
393.15
393.15
393.15
393.15
393.15
393.15
393.15
393.15
393.15
393.15
393.15
393.15
393.15
393.15
393.15
393.15
393.15
393.15
393.15
393.15
393.15
393.15
393.15
393.15
393.15
393.15
393.15
393.15
393.15
393.15
393.15
393.15
393.15
393.15
393.15
393.15
393.15
393.15
393.15
393.15
393.15
393.15
393.15
393.15
393.15
393.15
393.15
393.15
393.15
393.15
393.15
393.15
393.15
393.15
393.15
393.15
393.15
393.15
393.15
393.15
393.15
393.15
393.15
393.15
393.15
393.15
393.15
393.15
393.15
393.15
393.15
393.15
393.15
393.15
393.15
393.15
393.15
393.15
393.15
393.15
393.15
393.15
393.15
393.15
393.15
393.15
393.15
393.15
393.15
393.15
393.15
393.15
393.15
393.15
393.15
393.15
393.15
393.15
393.15
393.15
393.15
393.15
393.15
393.15
393.15
393.15
393.15
393.15
393.15
393.15
393.15
393.15
393.15
393.15
393.15
393.15
393.15
393.15
393.15
393.15
393.15
393.15
393.15
393.15
393.15
393.15
393.15
393.15
393.15
393.15
393.15
393.15
393.15
393.15
393.15
393.15
393.15
393.15
393.15
393.15
393.15
393.15
393.15
393.15
393.15
393.15
393.15
393.15
393.15
393.15
393.15
393.15
393.15
393.15
393.15
393.15
393.15
393.15
393.15
393.15
393.15
393.15
393.15
393.15
393.15
393.15
393.15
393.15
393.15
393.15
393.15
393.15
393.15
393.15
393.15
393.15
393.15
393.15
393.15
393.15
393.15
393.15
393.15
393.15
393.15
393.15
393.15
393.15
393.15
393.15
393.15
393.15
393.15
393.15
393.15
393.15
393.15
393.15
393.15
393.15
393.15
393.15
393.15
393.15
393.15
393.15
393.15
393.15
393.15
393.15
393.15
393.15
393.15
393.15
393.15
393.15
393.15
393.15
393.15
393.15
393.15
393.15
393.15
393.15
393.15
393.15
393.15
393.15
393.15
393.15
393.15
393.15
393.15
393.15
393.15
393.15
393.15
393.15
393.15
393.15
393.15
393.15
393.15
393.15
393.15
393.15
393.15
393.15
393.15
393.15
393.15
393.15
393.15
393.15
393.15
393.15
393.15
393.15
393.15
393.15
393.15
393.15
393.15
393.15
393.15
393.15
393.15
393.15
393.15
393.15
393.15
393.15
393.15
393.15
393.15
393.15
393.15
393.15
393.15
393.15
393.15
393.15
393.15
393.15
393.15
393.15
393.15
393.15
393.15
393.15
393.15
393.15
393.15
393.15
393.15
393.15
393.15
393.15
393.15
393.15
393.15
393.15
393.15
393.15
393.15
393.15
393.15
393.15
393.15
393.15
393.15
393.15
393.15
393.15
393.15
393.15
393.15
393.15
393.15
393.15
393.15
393.15
393.15
393.15
393.15
393.15
393.15
393.15
393.15
393.15
393.15
393.15
393.15
393.15
393.15
393.15
393.15
393.15
393.15
393.15
393.15
393.15
393.15
393.15
393.15
393.15
393.15
393.15
393.15
393.15
393.15
393.15
393.15
393.15
393.15
393.15
393.15
393.15
393.15
393.15
393.15
393.15
393.15
393.15
393.15
393.15
393.15
393.15
393.15
393.15
393.15
393.15
393.15
393.15
393.15
393.15
393.15
393.15
393.15
393.15
393.15
393.15
393.15
393.15
393.15
393.15
393.15
393.15
393.15
393.15
393.15
393.15
393.15
393.15
393.15
393.15
393.15
393.15
393.15
393.15
393.15
393.15
393.15
393.15
393.15
393.15
393.15
393.15
393.15
393.15
393.15
393.15
393.15
393.15
393.15
393.15
393.15
393.15
393.15
393.15
393.15
393.15
393.15
393.15
393.15
393.15
393.15
393.15
393.15
393.15
393.15
393.15
393.15
393.15
393.15
393.15
393.15
393.15
393.15
393.15
393.15
393.15
393.15
393.15
393.15
393.15
393.15
393.15
393.15
393.15
393.15
393.15
393.15
393.15
393.15
393.15
393.15
393.15
393.15
393.15
393.15
393.15
393.15
393.15
393.15
393.15
393.15
393.15
393.15
393.15
393.15
393.15
393.15
393.15
393.15
393.15
393.15
393.15
393.15
393.15
393.15
393.15
393.15
393.15
393.15
393.15
393.15
393.15
393.15
393.15
393.15
393.15
393.15
393.15
393.15
393.15
393.15
393.15
393.15
393.15
393.15
393.15
393.15
393.15
393.15
393.15
393.15
393.15
393.15
393.15
393.15
393.15
393.15
393.15
393.15
393.15
393.15
393.15
393.15
393.15
393.15
393.15
393.15
393.15
393.15
393.15
393.15
393.15
393.15
393.15
393.15
393.15
393.15
393.15
393.15
393.15
393.15
393.15
393.15
393.15
393.15
393.15
393.15
393.15
393.15
393.15
393.15
393.15
393.15
393.15
393.15
393.15
393.15
393.15
393.15
393.15
393.15
393.15
393.15
393.15
393.15
393.15
393.15
393.15
393.15
393.15
393.15
393.15
393.15
393.15
393.15
393.15
393.15
393.15
393.15
393.15
393.15
393.15
393.15
393.15
393.15
393.15
393.15
393.15
393.15
393.15
393.15
393.15
393.15
393.15
393.15
393.15
393.15
393.15
393.15
393.15
393.15
393.15
393.15
393.15
393.15
393.15
393.15
393.15
393.15
393.15
393.15
393.15
393.15
393.15
393.15
393.15
393.15
393.15
393.15
393.15
393.15
393.15
393.15
393.15
393.15
393.15
393.15
393.15
393.15
393.15
393.15
393.15
393.15
393.15
393.15
393.15
393.15
393.15
393.15
393.15
393.15
393.15
393.15
393.15
393.15
393.15
393.15
393.15
393.15
393.15
393.15
393.15
393.15
393.15
393.15
393.15
393.15
393.15
393.15
393.15
393.15
393.15
393.15
393.15
393.15
393.15
393.15
393.15
393.15
393.15
393.15
393.15
393.15
393.15
393.15
393.15
393.15
393.15
393.15
393.15
393.15
393.15
393.15
393.15
393.15
393.15
393.15
393.15
393.15
393.15
393.15
393.15
393.15
393.15
393.15
393.15
393.15
393.15
393.15
393.15
393.15
393.15
393.15
393.15
393.15
393.15
393.15
393.15
393.15
393.15
393.15
393.15
393.15
393.15
393.15
393.15
393.15
393.15
393.15
393.15
393.15
393.15
393.15
393.15
393.15
393.15
393.15
393.15
393.15
393.15
393.15
393.15
393.15
393.15
393.15
393.15
393.15
393.15
393.15
393.15
393.15
393.15
393.15
393.15
393.15
393.15
393.15
393.15
393.15
393.15
393.15
393.15
393.15
393.15
393.15
393.15
393.15
393.15
393.15
393.15
393.15
393.15
393.15
393.15
393.15
393.15
393.15
393.15
393.15
393.15
393.15
393.15
393.15
393.15
393.15
393.15
393.15
393.15
393.15
393.15
393.15
393.15
393.15
393.15
393.15
393.15
393.15
393.15
393.15
393.15
393.15
393.15
393.15
393.15
393.15
393.15
393.15
393.15
393.15
393.15
393.15
393.15
393.15
393.15
393.15
393.15
393.15
393.15
393.15
393.15
393.15
393.15