/*--------------------------------*- C++ -*----------------------------------*\
| =========                 |                                                 |
| \\      /  F ield         | OpenFOAM: The Open Source CFD Toolbox           |
|  \\    /   O peration     | Version:  2.1.0                                 |
|   \\  /    A nd           | Web:      www.OpenFOAM.org                      |
|    \\/     M anipulation  |                                                 |
\*---------------------------------------------------------------------------*/
FoamFile
{
    version     2.0;
    format      ascii;
    class       volVectorField;
    location    "0.42";
    object      U;
}
// * * * * * * * * * * * * * * * * * * * * * * * * * * * * * * * * * * * * * //

dimensions      [0 1 -1 0 0 0 0];

internalField   nonuniform List<vector> 
6400
(
(-1.3017 -5.0391e-05 0)
(-1.30059 -0.000508148 0)
(-1.29825 -0.000797469 0)
(-1.29496 -0.000944736 0)
(-1.29121 -0.00103196 0)
(-1.28715 -0.00109056 0)
(-1.2829 -0.00113282 0)
(-1.27849 -0.00116604 0)
(-1.27396 -0.00119407 0)
(-1.26931 -0.00121932 0)
(-1.26457 -0.00124311 0)
(-1.25972 -0.00126625 0)
(-1.25479 -0.00128922 0)
(-1.24975 -0.00131222 0)
(-1.24463 -0.0013355 0)
(-1.2394 -0.00135906 0)
(-1.23408 -0.00138305 0)
(-1.22866 -0.0014074 0)
(-1.22314 -0.00143223 0)
(-1.21752 -0.0014574 0)
(-1.21179 -0.00148298 0)
(-1.20596 -0.00150886 0)
(-1.20002 -0.00153534 0)
(-1.19397 -0.00156228 0)
(-1.18782 -0.0015893 0)
(-1.18155 -0.00161722 0)
(-1.17517 -0.00164689 0)
(-1.16866 -0.00167756 0)
(-1.16203 -0.00170919 0)
(-1.15527 -0.00174172 0)
(-1.14837 -0.00177534 0)
(-1.14134 -0.00181002 0)
(-1.13417 -0.00184594 0)
(-1.12685 -0.00188314 0)
(-1.11938 -0.00192175 0)
(-1.11175 -0.00196176 0)
(-1.10395 -0.00200329 0)
(-1.09599 -0.00204639 0)
(-1.08785 -0.0020912 0)
(-1.07953 -0.00213789 0)
(-1.07102 -0.00218671 0)
(-1.06231 -0.00223765 0)
(-1.0534 -0.0022908 0)
(-1.04427 -0.00234627 0)
(-1.03491 -0.00240412 0)
(-1.02532 -0.00246436 0)
(-1.01548 -0.00252702 0)
(-1.00539 -0.00259201 0)
(-0.995038 -0.00265919 0)
(-0.984415 -0.00272879 0)
(-0.973514 -0.00279966 0)
(-0.96233 -0.00287109 0)
(-0.950854 -0.00294701 0)
(-0.939066 -0.00302868 0)
(-0.926945 -0.00311413 0)
(-0.914484 -0.00320106 0)
(-0.901686 -0.00328571 0)
(-0.888556 -0.00336756 0)
(-0.875104 -0.00344867 0)
(-0.861328 -0.00353091 0)
(-0.847222 -0.00361508 0)
(-0.83278 -0.00370118 0)
(-0.817992 -0.00378997 0)
(-0.802845 -0.00388218 0)
(-0.787328 -0.00397795 0)
(-0.771423 -0.00407787 0)
(-0.755114 -0.00418226 0)
(-0.738382 -0.00429192 0)
(-0.721206 -0.00440727 0)
(-0.703562 -0.00452875 0)
(-0.685425 -0.00465669 0)
(-0.666769 -0.00479176 0)
(-0.647565 -0.00493445 0)
(-0.627781 -0.00508561 0)
(-0.607381 -0.00524618 0)
(-0.586327 -0.00541741 0)
(-0.564574 -0.00560095 0)
(-0.542068 -0.0057988 0)
(-0.518748 -0.00601381 0)
(-0.494539 -0.00625019 0)
(-0.469345 -0.00651317 0)
(-0.44305 -0.00680929 0)
(-0.415506 -0.00714695 0)
(-0.386532 -0.00753544 0)
(-0.355914 -0.00798194 0)
(-0.323418 -0.00848912 0)
(-0.288817 -0.00905232 0)
(-0.251931 -0.00965082 0)
(-0.212723 -0.0102332 0)
(-0.171479 -0.0106882 0)
(-0.129144 -0.0107891 0)
(-0.0879883 -0.0100896 0)
(-0.0521694 -0.0080751 0)
(-0.0268424 -0.00475652 0)
(-0.015608 -0.000927967 0)
(-0.0201637 0.00321608 0)
(-0.04895 0.0113459 0)
(-0.129057 0.0292097 0)
(-0.328841 0.0711587 0)
(-0.948405 0.19898 0)
(-1.56909 -0.000342453 0)
(-1.56599 -0.00166894 0)
(-1.56388 -0.00242588 0)
(-1.56045 -0.00282894 0)
(-1.55667 -0.00307315 0)
(-1.55261 -0.0032378 0)
(-1.5484 -0.00335668 0)
(-1.54405 -0.00344997 0)
(-1.53959 -0.00352868 0)
(-1.53504 -0.00359949 0)
(-1.53041 -0.00366626 0)
(-1.5257 -0.00373114 0)
(-1.5209 -0.00379563 0)
(-1.51602 -0.00386025 0)
(-1.51106 -0.00392576 0)
(-1.50602 -0.00399214 0)
(-1.5009 -0.00405986 0)
(-1.49569 -0.0041287 0)
(-1.49039 -0.00419901 0)
(-1.48501 -0.00427041 0)
(-1.47953 -0.00434309 0)
(-1.47396 -0.0044166 0)
(-1.46829 -0.00449163 0)
(-1.46253 -0.00456801 0)
(-1.45668 -0.00464384 0)
(-1.45074 -0.0047213 0)
(-1.44469 -0.00480341 0)
(-1.43856 -0.00488765 0)
(-1.43232 -0.00497415 0)
(-1.42598 -0.00506288 0)
(-1.41954 -0.00515425 0)
(-1.413 -0.00524833 0)
(-1.40635 -0.00534548 0)
(-1.39959 -0.00544585 0)
(-1.39272 -0.00554974 0)
(-1.38574 -0.00565716 0)
(-1.37863 -0.00576845 0)
(-1.37141 -0.00588381 0)
(-1.36406 -0.00600352 0)
(-1.35658 -0.00612772 0)
(-1.34897 -0.00625718 0)
(-1.34122 -0.00639195 0)
(-1.33333 -0.00653231 0)
(-1.32529 -0.00667863 0)
(-1.3171 -0.0068311 0)
(-1.30876 -0.00698991 0)
(-1.30024 -0.00715529 0)
(-1.29156 -0.00732724 0)
(-1.28269 -0.00750559 0)
(-1.27364 -0.00769101 0)
(-1.26438 -0.00788144 0)
(-1.25492 -0.00807317 0)
(-1.24527 -0.00826973 0)
(-1.23544 -0.00847291 0)
(-1.22544 -0.00868101 0)
(-1.21528 -0.00889219 0)
(-1.20497 -0.00910185 0)
(-1.19447 -0.00930816 0)
(-1.1838 -0.00951358 0)
(-1.17294 -0.00972159 0)
(-1.1619 -0.00993393 0)
(-1.15067 -0.010151 0)
(-1.13925 -0.0103741 0)
(-1.12764 -0.0106044 0)
(-1.11584 -0.0108426 0)
(-1.10384 -0.0110899 0)
(-1.09164 -0.0113471 0)
(-1.07923 -0.0116161 0)
(-1.06661 -0.011898 0)
(-1.05377 -0.0121944 0)
(-1.0407 -0.0125064 0)
(-1.02739 -0.0128362 0)
(-1.01381 -0.0131855 0)
(-0.999963 -0.0135569 0)
(-0.98581 -0.0139535 0)
(-0.971326 -0.0143792 0)
(-0.956477 -0.0148388 0)
(-0.941222 -0.0153381 0)
(-0.925513 -0.0158845 0)
(-0.909291 -0.0164889 0)
(-0.89249 -0.0171642 0)
(-0.875033 -0.0179258 0)
(-0.856833 -0.0187924 0)
(-0.837794 -0.0197847 0)
(-0.817814 -0.0209188 0)
(-0.796784 -0.0221998 0)
(-0.774611 -0.0236124 0)
(-0.751241 -0.0251002 0)
(-0.726716 -0.0265313 0)
(-0.701236 -0.0276352 0)
(-0.67526 -0.0278874 0)
(-0.649561 -0.0263339 0)
(-0.625511 -0.0217418 0)
(-0.606022 -0.0135549 0)
(-0.600089 -0.00098867 0)
(-0.615315 0.0132255 0)
(-0.663738 0.0398356 0)
(-0.767826 0.0921101 0)
(-0.97084 0.204417 0)
(-1.45957 0.526474 0)
(-1.71886 -0.000919993 0)
(-1.71486 -0.00290436 0)
(-1.7136 -0.00399302 0)
(-1.71071 -0.00460025 0)
(-1.70751 -0.00497479 0)
(-1.7041 -0.00522748 0)
(-1.70055 -0.00540882 0)
(-1.69691 -0.00555061 0)
(-1.69318 -0.00566924 0)
(-1.68939 -0.00577569 0)
(-1.68552 -0.00587544 0)
(-1.68161 -0.00597234 0)
(-1.67764 -0.00606833 0)
(-1.67362 -0.00616471 0)
(-1.66953 -0.00626232 0)
(-1.6654 -0.00636152 0)
(-1.6612 -0.00646281 0)
(-1.65696 -0.00656616 0)
(-1.65264 -0.00667197 0)
(-1.64827 -0.00678003 0)
(-1.64382 -0.00689051 0)
(-1.63932 -0.00700293 0)
(-1.63473 -0.00711819 0)
(-1.63008 -0.00723646 0)
(-1.62533 -0.0073545 0)
(-1.62052 -0.0074728 0)
(-1.61562 -0.00759431 0)
(-1.61066 -0.00771714 0)
(-1.60564 -0.00784222 0)
(-1.60056 -0.00796993 0)
(-1.59541 -0.00810079 0)
(-1.5902 -0.00823498 0)
(-1.58493 -0.0083729 0)
(-1.5796 -0.00851475 0)
(-1.57421 -0.00866083 0)
(-1.56875 -0.00881123 0)
(-1.56323 -0.00896621 0)
(-1.55765 -0.00912615 0)
(-1.55202 -0.00929144 0)
(-1.54632 -0.00946167 0)
(-1.54056 -0.00963786 0)
(-1.53474 -0.00982023 0)
(-1.52887 -0.0100089 0)
(-1.52295 -0.0102045 0)
(-1.51697 -0.0104072 0)
(-1.51095 -0.0106172 0)
(-1.50487 -0.0108348 0)
(-1.49876 -0.0110603 0)
(-1.4926 -0.0112935 0)
(-1.48641 -0.0115343 0)
(-1.48018 -0.0117813 0)
(-1.47393 -0.0120305 0)
(-1.46766 -0.0122795 0)
(-1.46137 -0.0125272 0)
(-1.45508 -0.0127741 0)
(-1.44878 -0.0130223 0)
(-1.44251 -0.0132728 0)
(-1.43623 -0.0135237 0)
(-1.42995 -0.013774 0)
(-1.42368 -0.0140255 0)
(-1.41742 -0.0142794 0)
(-1.41118 -0.0145365 0)
(-1.40498 -0.0147976 0)
(-1.39881 -0.0150633 0)
(-1.39271 -0.0153341 0)
(-1.38668 -0.0156111 0)
(-1.38074 -0.0158951 0)
(-1.37491 -0.0161874 0)
(-1.3692 -0.0164893 0)
(-1.36363 -0.0168028 0)
(-1.35823 -0.0171297 0)
(-1.35301 -0.0174726 0)
(-1.34801 -0.0178341 0)
(-1.34322 -0.018218 0)
(-1.33868 -0.0186294 0)
(-1.3344 -0.0190738 0)
(-1.33039 -0.0195591 0)
(-1.32666 -0.020094 0)
(-1.3232 -0.0206891 0)
(-1.32001 -0.0213598 0)
(-1.31708 -0.0221242 0)
(-1.31438 -0.0230014 0)
(-1.31187 -0.0240138 0)
(-1.30954 -0.0251846 0)
(-1.30733 -0.026532 0)
(-1.30521 -0.0280605 0)
(-1.30316 -0.0297442 0)
(-1.30118 -0.0315002 0)
(-1.29932 -0.0331485 0)
(-1.29773 -0.0343414 0)
(-1.29666 -0.0344521 0)
(-1.29646 -0.0324347 0)
(-1.29764 -0.0267974 0)
(-1.30169 -0.0160337 0)
(-1.31063 0.00217793 0)
(-1.32775 0.0263161 0)
(-1.3672 0.0696057 0)
(-1.44346 0.149728 0)
(-1.58741 0.311554 0)
(-1.85842 0.719464 0)
(-1.85376 -0.00158962 0)
(-1.84948 -0.00390906 0)
(-1.84924 -0.00523558 0)
(-1.84725 -0.00600423 0)
(-1.84502 -0.00648294 0)
(-1.84265 -0.00680376 0)
(-1.84016 -0.00703088 0)
(-1.83763 -0.00720624 0)
(-1.83503 -0.00735028 0)
(-1.83241 -0.00747819 0)
(-1.82975 -0.00759631 0)
(-1.82709 -0.00771046 0)
(-1.82438 -0.0078225 0)
(-1.82168 -0.00793481 0)
(-1.81895 -0.00804792 0)
(-1.81621 -0.00816289 0)
(-1.81345 -0.00827989 0)
(-1.81069 -0.0083994 0)
(-1.80791 -0.00852158 0)
(-1.80513 -0.00864667 0)
(-1.80232 -0.00877471 0)
(-1.79952 -0.00890527 0)
(-1.7967 -0.00903929 0)
(-1.79388 -0.00917658 0)
(-1.79103 -0.00931554 0)
(-1.78821 -0.0094549 0)
(-1.78537 -0.0095937 0)
(-1.78252 -0.00973209 0)
(-1.77966 -0.00987169 0)
(-1.7768 -0.0100133 0)
(-1.77395 -0.0101574 0)
(-1.7711 -0.0103043 0)
(-1.76826 -0.0104542 0)
(-1.76543 -0.0106073 0)
(-1.76261 -0.0107637 0)
(-1.75981 -0.0109236 0)
(-1.75704 -0.0110867 0)
(-1.75429 -0.0112535 0)
(-1.75157 -0.0114243 0)
(-1.74888 -0.0115985 0)
(-1.74625 -0.0117768 0)
(-1.74365 -0.0119591 0)
(-1.74112 -0.0121453 0)
(-1.73865 -0.0123358 0)
(-1.73626 -0.0125304 0)
(-1.73395 -0.0127291 0)
(-1.73174 -0.0129317 0)
(-1.72963 -0.0131382 0)
(-1.72765 -0.013348 0)
(-1.72581 -0.0135599 0)
(-1.72411 -0.0137722 0)
(-1.72259 -0.0139853 0)
(-1.72123 -0.014199 0)
(-1.72003 -0.0144092 0)
(-1.71898 -0.0146145 0)
(-1.7181 -0.0148172 0)
(-1.71739 -0.0150201 0)
(-1.71687 -0.015222 0)
(-1.71654 -0.0154204 0)
(-1.71642 -0.0156148 0)
(-1.71653 -0.0158051 0)
(-1.71687 -0.0159916 0)
(-1.71748 -0.0161749 0)
(-1.71836 -0.0163553 0)
(-1.71953 -0.0165333 0)
(-1.72101 -0.0167091 0)
(-1.72282 -0.0168838 0)
(-1.72497 -0.017058 0)
(-1.72747 -0.0172334 0)
(-1.73035 -0.0174118 0)
(-1.73361 -0.0175957 0)
(-1.73726 -0.0177887 0)
(-1.74131 -0.0179943 0)
(-1.74576 -0.0182182 0)
(-1.75059 -0.018467 0)
(-1.75581 -0.0187492 0)
(-1.76139 -0.0190755 0)
(-1.76731 -0.0194583 0)
(-1.77353 -0.0199109 0)
(-1.78002 -0.0204532 0)
(-1.78671 -0.0211077 0)
(-1.79357 -0.0218962 0)
(-1.80052 -0.0228428 0)
(-1.80752 -0.0239706 0)
(-1.81451 -0.025296 0)
(-1.82145 -0.0268197 0)
(-1.82833 -0.0285056 0)
(-1.83514 -0.0302514 0)
(-1.84195 -0.031848 0)
(-1.84883 -0.0329138 0)
(-1.85588 -0.0327984 0)
(-1.86312 -0.0304704 0)
(-1.87054 -0.0243828 0)
(-1.87865 -0.0126515 0)
(-1.88792 0.00648672 0)
(-1.89911 0.0364343 0)
(-1.92184 0.0893431 0)
(-1.96318 0.185964 0)
(-2.03249 0.375474 0)
(-2.13341 0.778214 0)
(-1.98931 -0.0021684 0)
(-1.9854 -0.00455177 0)
(-1.9863 -0.00598476 0)
(-1.98554 -0.0068473 0)
(-1.98475 -0.00739032 0)
(-1.98384 -0.00774905 0)
(-1.98294 -0.00799873 0)
(-1.982 -0.00818596 0)
(-1.98108 -0.00833584 0)
(-1.98017 -0.00846515 0)
(-1.97927 -0.00858204 0)
(-1.97841 -0.00869278 0)
(-1.97757 -0.00879995 0)
(-1.97677 -0.008906 0)
(-1.976 -0.00901173 0)
(-1.97527 -0.00911814 0)
(-1.97459 -0.00922544 0)
(-1.97396 -0.00933404 0)
(-1.97337 -0.00944407 0)
(-1.97285 -0.00955579 0)
(-1.97238 -0.00966916 0)
(-1.97199 -0.00978302 0)
(-1.97166 -0.00989829 0)
(-1.97142 -0.0100144 0)
(-1.97126 -0.0101318 0)
(-1.97119 -0.0102519 0)
(-1.9712 -0.0103719 0)
(-1.97129 -0.0104907 0)
(-1.97145 -0.0106093 0)
(-1.97169 -0.0107282 0)
(-1.97202 -0.0108479 0)
(-1.97244 -0.0109685 0)
(-1.97295 -0.0110903 0)
(-1.97357 -0.0112132 0)
(-1.97429 -0.0113372 0)
(-1.97512 -0.0114621 0)
(-1.97606 -0.0115878 0)
(-1.97713 -0.0117143 0)
(-1.97833 -0.0118417 0)
(-1.97966 -0.0119697 0)
(-1.98113 -0.0120985 0)
(-1.98276 -0.0122277 0)
(-1.98453 -0.0123571 0)
(-1.98647 -0.0124866 0)
(-1.98859 -0.0126162 0)
(-1.99087 -0.0127453 0)
(-1.99335 -0.0128739 0)
(-1.99601 -0.0130013 0)
(-1.99886 -0.0131271 0)
(-2.00192 -0.0132501 0)
(-2.00518 -0.013369 0)
(-2.00865 -0.0134858 0)
(-2.01232 -0.0136031 0)
(-2.01622 -0.0137176 0)
(-2.02033 -0.013826 0)
(-2.02467 -0.0139287 0)
(-2.02923 -0.0140272 0)
(-2.03403 -0.0141214 0)
(-2.03905 -0.0142095 0)
(-2.04431 -0.01429 0)
(-2.0498 -0.0143621 0)
(-2.05552 -0.0144261 0)
(-2.06148 -0.0144832 0)
(-2.06766 -0.0145341 0)
(-2.07407 -0.0145796 0)
(-2.08069 -0.0146205 0)
(-2.08753 -0.014658 0)
(-2.09457 -0.0146935 0)
(-2.10181 -0.014729 0)
(-2.10923 -0.0147672 0)
(-2.11682 -0.0148113 0)
(-2.12458 -0.0148656 0)
(-2.13249 -0.0149353 0)
(-2.14054 -0.0150271 0)
(-2.14871 -0.0151491 0)
(-2.15699 -0.0153116 0)
(-2.16537 -0.015527 0)
(-2.17384 -0.0158111 0)
(-2.18238 -0.0161768 0)
(-2.19098 -0.0166462 0)
(-2.19963 -0.0172457 0)
(-2.20831 -0.0179966 0)
(-2.21701 -0.0189225 0)
(-2.22572 -0.0200447 0)
(-2.23445 -0.0213757 0)
(-2.24319 -0.0229108 0)
(-2.25195 -0.0246073 0)
(-2.26075 -0.0263518 0)
(-2.26961 -0.0279243 0)
(-2.27851 -0.0289447 0)
(-2.28738 -0.0287919 0)
(-2.29597 -0.0265223 0)
(-2.30372 -0.0206841 0)
(-2.31077 -0.00947483 0)
(-2.31604 0.0092764 0)
(-2.31884 0.0409514 0)
(-2.32348 0.0972747 0)
(-2.32956 0.199449 0)
(-2.32764 0.392853 0)
(-2.31012 0.744599 0)
(-2.13218 -0.00248959 0)
(-2.12934 -0.00470838 0)
(-2.13143 -0.00609148 0)
(-2.13223 -0.00694792 0)
(-2.13319 -0.00749013 0)
(-2.13416 -0.00784078 0)
(-2.13524 -0.00807824 0)
(-2.13635 -0.00824764 0)
(-2.13755 -0.0083771 0)
(-2.1388 -0.00848258 0)
(-2.14014 -0.00857393 0)
(-2.14154 -0.00865667 0)
(-2.14303 -0.00873441 0)
(-2.1446 -0.00880893 0)
(-2.14626 -0.00888164 0)
(-2.14801 -0.00895301 0)
(-2.14984 -0.00902356 0)
(-2.15179 -0.00909329 0)
(-2.15383 -0.00916245 0)
(-2.15598 -0.00923119 0)
(-2.15823 -0.00929984 0)
(-2.1606 -0.00936575 0)
(-2.16309 -0.0094301 0)
(-2.1657 -0.0094941 0)
(-2.16843 -0.00955817 0)
(-2.17128 -0.00962471 0)
(-2.17426 -0.00969211 0)
(-2.17737 -0.00975798 0)
(-2.1806 -0.00982236 0)
(-2.18398 -0.00988555 0)
(-2.18748 -0.00994785 0)
(-2.19113 -0.0100094 0)
(-2.19491 -0.0100703 0)
(-2.19883 -0.0101307 0)
(-2.2029 -0.0101904 0)
(-2.20711 -0.0102493 0)
(-2.21147 -0.0103073 0)
(-2.21597 -0.0103645 0)
(-2.22062 -0.0104208 0)
(-2.22541 -0.0104759 0)
(-2.23035 -0.0105303 0)
(-2.23544 -0.0105836 0)
(-2.24067 -0.0106357 0)
(-2.24605 -0.0106867 0)
(-2.25156 -0.0107366 0)
(-2.25721 -0.010785 0)
(-2.263 -0.0108319 0)
(-2.26891 -0.0108772 0)
(-2.27495 -0.0109206 0)
(-2.28112 -0.0109612 0)
(-2.2874 -0.0109989 0)
(-2.29379 -0.0110348 0)
(-2.3003 -0.0110701 0)
(-2.3069 -0.0111028 0)
(-2.3136 -0.0111309 0)
(-2.3204 -0.0111541 0)
(-2.32728 -0.0111732 0)
(-2.33423 -0.0111893 0)
(-2.34126 -0.0112016 0)
(-2.34835 -0.0112076 0)
(-2.3555 -0.0112061 0)
(-2.3627 -0.0111979 0)
(-2.36995 -0.0111844 0)
(-2.37724 -0.0111664 0)
(-2.38458 -0.0111454 0)
(-2.39196 -0.0111221 0)
(-2.39937 -0.0110978 0)
(-2.40681 -0.0110741 0)
(-2.41429 -0.0110531 0)
(-2.4218 -0.0110374 0)
(-2.42935 -0.0110303 0)
(-2.43692 -0.0110361 0)
(-2.44454 -0.0110597 0)
(-2.45219 -0.011108 0)
(-2.45988 -0.0111892 0)
(-2.46762 -0.0113134 0)
(-2.4754 -0.0114928 0)
(-2.48323 -0.0117441 0)
(-2.49111 -0.0120793 0)
(-2.49906 -0.0125179 0)
(-2.50709 -0.0130858 0)
(-2.5152 -0.013805 0)
(-2.52343 -0.0146991 0)
(-2.53176 -0.0157874 0)
(-2.54023 -0.0170797 0)
(-2.54885 -0.0185696 0)
(-2.55763 -0.0202164 0)
(-2.56656 -0.0219082 0)
(-2.57563 -0.0234317 0)
(-2.58474 -0.0244381 0)
(-2.5937 -0.0243747 0)
(-2.60205 -0.0224243 0)
(-2.6089 -0.01739 0)
(-2.61407 -0.00758162 0)
(-2.6153 0.00959585 0)
(-2.61013 0.0398017 0)
(-2.59853 0.0938592 0)
(-2.57301 0.191677 0)
(-2.51153 0.369124 0)
(-2.41545 0.652794 0)
(-2.27925 -0.00244673 0)
(-2.2777 -0.00429327 0)
(-2.28094 -0.00547437 0)
(-2.28333 -0.00621962 0)
(-2.28595 -0.00668882 0)
(-2.28878 -0.00698291 0)
(-2.29172 -0.00717248 0)
(-2.2948 -0.00729698 0)
(-2.29796 -0.00738322 0)
(-2.30124 -0.00744548 0)
(-2.3046 -0.00749344 0)
(-2.30807 -0.00753195 0)
(-2.31161 -0.0075648 0)
(-2.31527 -0.00759345 0)
(-2.319 -0.00761952 0)
(-2.32285 -0.00764328 0)
(-2.32678 -0.00766547 0)
(-2.33082 -0.00768591 0)
(-2.33493 -0.00770503 0)
(-2.33916 -0.00772296 0)
(-2.34346 -0.00774054 0)
(-2.34786 -0.00775426 0)
(-2.35236 -0.00776413 0)
(-2.35696 -0.00777223 0)
(-2.36165 -0.00777955 0)
(-2.36645 -0.00778756 0)
(-2.37136 -0.00779556 0)
(-2.37638 -0.00780219 0)
(-2.38149 -0.00780736 0)
(-2.38672 -0.0078112 0)
(-2.39204 -0.00781417 0)
(-2.39746 -0.00781639 0)
(-2.40297 -0.00781841 0)
(-2.40859 -0.00782017 0)
(-2.41428 -0.00782201 0)
(-2.42007 -0.00782367 0)
(-2.42593 -0.00782555 0)
(-2.43188 -0.00782755 0)
(-2.43788 -0.00782995 0)
(-2.44397 -0.0078325 0)
(-2.4501 -0.00783581 0)
(-2.4563 -0.00783974 0)
(-2.46254 -0.0078443 0)
(-2.46883 -0.00784963 0)
(-2.47515 -0.00785583 0)
(-2.48151 -0.00786274 0)
(-2.4879 -0.00787022 0)
(-2.49431 -0.00787818 0)
(-2.50073 -0.0078867 0)
(-2.50717 -0.00789478 0)
(-2.51362 -0.00790265 0)
(-2.52007 -0.00791054 0)
(-2.52652 -0.00791922 0)
(-2.53297 -0.00792704 0)
(-2.53942 -0.00793262 0)
(-2.54586 -0.00793541 0)
(-2.55229 -0.00793555 0)
(-2.55871 -0.00793508 0)
(-2.56512 -0.0079338 0)
(-2.57152 -0.00792724 0)
(-2.57791 -0.00791311 0)
(-2.58428 -0.00789255 0)
(-2.59066 -0.00786666 0)
(-2.59703 -0.00783625 0)
(-2.60341 -0.00780264 0)
(-2.6098 -0.00776592 0)
(-2.6162 -0.00772723 0)
(-2.62262 -0.00768785 0)
(-2.62906 -0.00764937 0)
(-2.63554 -0.00761412 0)
(-2.64206 -0.00758513 0)
(-2.64864 -0.00756613 0)
(-2.65527 -0.00756205 0)
(-2.66197 -0.00757931 0)
(-2.66875 -0.00762596 0)
(-2.67563 -0.00771213 0)
(-2.68261 -0.00784964 0)
(-2.68971 -0.0080524 0)
(-2.69692 -0.0083366 0)
(-2.70432 -0.00872137 0)
(-2.71185 -0.00922659 0)
(-2.71954 -0.00987525 0)
(-2.72741 -0.0106907 0)
(-2.73549 -0.0116913 0)
(-2.7438 -0.0128853 0)
(-2.75237 -0.0142665 0)
(-2.7612 -0.0158049 0)
(-2.77026 -0.0174006 0)
(-2.77949 -0.0188557 0)
(-2.78876 -0.0198739 0)
(-2.79773 -0.0199971 0)
(-2.80583 -0.0185598 0)
(-2.81196 -0.0146892 0)
(-2.81537 -0.00686292 0)
(-2.81341 0.0075622 0)
(-2.80129 0.033664 0)
(-2.77563 0.080593 0)
(-2.72332 0.165334 0)
(-2.61579 0.313064 0)
(-2.47 0.525888 0)
(-2.41192 -0.00205559 0)
(-2.41136 -0.00336995 0)
(-2.41534 -0.00424999 0)
(-2.41878 -0.0048101 0)
(-2.42243 -0.00515717 0)
(-2.42643 -0.00536562 0)
(-2.43047 -0.00548982 0)
(-2.43474 -0.00556084 0)
(-2.439 -0.0056 0)
(-2.44343 -0.00561902 0)
(-2.44784 -0.00562576 0)
(-2.4524 -0.00562433 0)
(-2.45694 -0.0056179 0)
(-2.46162 -0.0056078 0)
(-2.46628 -0.00559549 0)
(-2.47107 -0.00558126 0)
(-2.47585 -0.00556586 0)
(-2.48074 -0.00554916 0)
(-2.48563 -0.00553166 0)
(-2.49062 -0.00551312 0)
(-2.49562 -0.00549374 0)
(-2.50071 -0.00547237 0)
(-2.50583 -0.00544874 0)
(-2.51101 -0.00542254 0)
(-2.51619 -0.00539558 0)
(-2.52144 -0.00536911 0)
(-2.52668 -0.00534333 0)
(-2.53199 -0.00531745 0)
(-2.53729 -0.00529162 0)
(-2.54264 -0.00526574 0)
(-2.54798 -0.00524065 0)
(-2.55335 -0.00521613 0)
(-2.55872 -0.00519327 0)
(-2.56411 -0.00517168 0)
(-2.56949 -0.0051522 0)
(-2.57489 -0.00513416 0)
(-2.58027 -0.00511844 0)
(-2.58566 -0.00510432 0)
(-2.59103 -0.00509275 0)
(-2.59641 -0.00508335 0)
(-2.60176 -0.00507637 0)
(-2.60711 -0.00507174 0)
(-2.61244 -0.00506939 0)
(-2.61777 -0.00506942 0)
(-2.62308 -0.00507176 0)
(-2.62838 -0.00507618 0)
(-2.63366 -0.00508232 0)
(-2.63894 -0.0050899 0)
(-2.64419 -0.00509907 0)
(-2.64945 -0.0051087 0)
(-2.65469 -0.00511889 0)
(-2.65994 -0.00512923 0)
(-2.66517 -0.00514001 0)
(-2.67041 -0.00514976 0)
(-2.67566 -0.00515707 0)
(-2.68091 -0.00516117 0)
(-2.68618 -0.00516122 0)
(-2.69146 -0.00516034 0)
(-2.69677 -0.0051606 0)
(-2.70209 -0.00515392 0)
(-2.70743 -0.00513627 0)
(-2.71281 -0.0051096 0)
(-2.71823 -0.00507547 0)
(-2.72369 -0.00503457 0)
(-2.72921 -0.00498751 0)
(-2.73477 -0.00493454 0)
(-2.74041 -0.00487628 0)
(-2.74611 -0.0048136 0)
(-2.75189 -0.00474783 0)
(-2.75776 -0.00468097 0)
(-2.76372 -0.00461567 0)
(-2.76979 -0.00455539 0)
(-2.77598 -0.00450487 0)
(-2.78229 -0.00447014 0)
(-2.78875 -0.00445876 0)
(-2.79535 -0.00448072 0)
(-2.80212 -0.00454786 0)
(-2.80907 -0.00467014 0)
(-2.8162 -0.00486767 0)
(-2.82356 -0.00516413 0)
(-2.83113 -0.00557326 0)
(-2.83893 -0.00611612 0)
(-2.84699 -0.00681477 0)
(-2.85534 -0.00768692 0)
(-2.86398 -0.00874065 0)
(-2.87295 -0.00996994 0)
(-2.88223 -0.0113637 0)
(-2.89178 -0.0128488 0)
(-2.90148 -0.0142393 0)
(-2.91115 -0.0153112 0)
(-2.92037 -0.0157172 0)
(-2.92846 -0.0149667 0)
(-2.93424 -0.0124754 0)
(-2.9362 -0.0071003 0)
(-2.93208 0.00346296 0)
(-2.91434 0.0233292 0)
(-2.8776 0.0591417 0)
(-2.80456 0.123849 0)
(-2.66448 0.233377 0)
(-2.48906 0.378989 0)
(-2.51189 -0.00136266 0)
(-2.51221 -0.00213345 0)
(-2.51634 -0.00267762 0)
(-2.5202 -0.00302292 0)
(-2.52416 -0.00323249 0)
(-2.52858 -0.00335345 0)
(-2.5329 -0.003419 0)
(-2.5375 -0.00344984 0)
(-2.54196 -0.00345929 0)
(-2.54661 -0.00345505 0)
(-2.55112 -0.00344249 0)
(-2.55577 -0.00342427 0)
(-2.56029 -0.00340259 0)
(-2.56493 -0.00337848 0)
(-2.56944 -0.00335296 0)
(-2.57407 -0.0033263 0)
(-2.57857 -0.00329902 0)
(-2.58317 -0.0032711 0)
(-2.58765 -0.00324285 0)
(-2.59222 -0.00321377 0)
(-2.59668 -0.00318313 0)
(-2.60121 -0.00315299 0)
(-2.60565 -0.00312485 0)
(-2.61014 -0.00309668 0)
(-2.61453 -0.00306904 0)
(-2.61896 -0.00304252 0)
(-2.62328 -0.00301753 0)
(-2.62765 -0.00299349 0)
(-2.63192 -0.00297061 0)
(-2.63622 -0.00294857 0)
(-2.64043 -0.0029283 0)
(-2.64467 -0.00290931 0)
(-2.64882 -0.00289272 0)
(-2.653 -0.00287797 0)
(-2.65711 -0.00286591 0)
(-2.66123 -0.00285566 0)
(-2.66529 -0.00284809 0)
(-2.66937 -0.0028421 0)
(-2.6734 -0.00283888 0)
(-2.67743 -0.00283767 0)
(-2.68144 -0.00283877 0)
(-2.68545 -0.00284187 0)
(-2.68943 -0.00284661 0)
(-2.69343 -0.00285327 0)
(-2.69741 -0.0028615 0)
(-2.70141 -0.00287094 0)
(-2.70541 -0.0028812 0)
(-2.70942 -0.00289201 0)
(-2.71344 -0.00290277 0)
(-2.71748 -0.0029131 0)
(-2.72154 -0.00292263 0)
(-2.72563 -0.00293088 0)
(-2.72975 -0.00293748 0)
(-2.73389 -0.00294123 0)
(-2.73809 -0.00294078 0)
(-2.74232 -0.00293529 0)
(-2.7466 -0.00292271 0)
(-2.75093 -0.00290632 0)
(-2.75532 -0.00289511 0)
(-2.75977 -0.00287431 0)
(-2.76427 -0.00283697 0)
(-2.76885 -0.00278733 0)
(-2.77351 -0.00272805 0)
(-2.77825 -0.00265973 0)
(-2.78307 -0.00258223 0)
(-2.788 -0.00249589 0)
(-2.79302 -0.00240102 0)
(-2.79815 -0.00229808 0)
(-2.8034 -0.00218815 0)
(-2.80877 -0.00207288 0)
(-2.81427 -0.00195462 0)
(-2.81992 -0.00183647 0)
(-2.82572 -0.0017229 0)
(-2.83168 -0.00161954 0)
(-2.83782 -0.00153351 0)
(-2.84416 -0.00147414 0)
(-2.85069 -0.00145247 0)
(-2.85745 -0.00147925 0)
(-2.86445 -0.00157208 0)
(-2.8717 -0.0017578 0)
(-2.87924 -0.00204517 0)
(-2.88708 -0.00245593 0)
(-2.89526 -0.00301086 0)
(-2.9038 -0.00372713 0)
(-2.91272 -0.00461601 0)
(-2.92205 -0.00566767 0)
(-2.9318 -0.00689379 0)
(-2.94186 -0.00827974 0)
(-2.95213 -0.00962201 0)
(-2.96238 -0.0107966 0)
(-2.97216 -0.0115728 0)
(-2.98074 -0.011652 0)
(-2.98691 -0.0106811 0)
(-2.98872 -0.00805725 0)
(-2.98371 -0.00216619 0)
(-2.96427 0.00973169 0)
(-2.92065 0.0315381 0)
(-2.835 0.0712109 0)
(-2.67565 0.137442 0)
(-2.48524 0.221054 0)
(-2.55898 -0.000450729 0)
(-2.55961 -0.00077147 0)
(-2.5636 -0.000982317 0)
(-2.56742 -0.0011143 0)
(-2.57127 -0.00119507 0)
(-2.57559 -0.00124317 0)
(-2.57973 -0.0012699 0)
(-2.58415 -0.00128315 0)
(-2.58834 -0.00128792 0)
(-2.59272 -0.00128658 0)
(-2.59686 -0.00128177 0)
(-2.60115 -0.00127421 0)
(-2.6052 -0.00126487 0)
(-2.60939 -0.00125438 0)
(-2.61335 -0.00124305 0)
(-2.61742 -0.00123111 0)
(-2.62128 -0.00121867 0)
(-2.62525 -0.00120582 0)
(-2.62901 -0.00119254 0)
(-2.63287 -0.00117851 0)
(-2.63654 -0.00116323 0)
(-2.64029 -0.0011491 -1.35076e-41)
(-2.64387 -0.00113767 0)
(-2.64752 -0.00112753 0)
(-2.65102 -0.0011181 0)
(-2.65459 -0.00110956 0)
(-2.65802 -0.00110197 0)
(-2.66151 -0.00109495 0)
(-2.66488 -0.00108833 0)
(-2.6683 -0.00108211 0)
(-2.67162 -0.0010766 0)
(-2.67499 -0.001072 0)
(-2.67827 -0.00106856 0)
(-2.68159 -0.00106627 0)
(-2.68484 -0.00106522 0)
(-2.68813 -0.00106533 0)
(-2.69137 -0.00106649 0)
(-2.69463 -0.00106834 0)
(-2.69787 -0.00107153 0)
(-2.70112 -0.00107523 0)
(-2.70436 -0.00107992 0)
(-2.70762 -0.00108517 0)
(-2.71088 -0.00109047 0)
(-2.71416 -0.00109613 0)
(-2.71745 -0.00110178 0)
(-2.72076 -0.00110695 0)
(-2.72408 -0.00111139 0)
(-2.72745 -0.00111484 0)
(-2.73082 -0.00111616 0)
(-2.73424 -0.00111547 0)
(-2.73769 -0.00111229 0)
(-2.74118 -0.0011062 0)
(-2.74471 -0.00109628 0)
(-2.74829 -0.00108163 0)
(-2.75192 -0.00106083 0)
(-2.7556 -0.00103291 0)
(-2.75933 -0.000996163 0)
(-2.76314 -0.000947586 0)
(-2.76701 -0.000914725 0)
(-2.77093 -0.000869654 0)
(-2.77492 -0.000799389 0)
(-2.779 -0.000714193 0)
(-2.78316 -0.000617904 0)
(-2.78741 -0.00051055 0)
(-2.79175 -0.000391713 0)
(-2.79619 -0.000261369 0)
(-2.80074 -0.000119563 0)
(-2.8054 3.34879e-05 0)
(-2.81018 0.000197014 0)
(-2.81509 0.000369659 0)
(-2.82013 0.000549449 0)
(-2.82533 0.000733673 0)
(-2.83068 0.000918289 0)
(-2.8362 0.00109816 0)
(-2.8419 0.00126643 0)
(-2.84781 0.00141501 0)
(-2.85392 0.00153437 0)
(-2.86027 0.00161144 0)
(-2.86687 0.00163112 0)
(-2.87374 0.00157074 0)
(-2.8809 0.00142071 0)
(-2.88839 0.00115945 0)
(-2.89623 0.000766987 9.01588e-42)
(-2.90445 0.000226091 0)
(-2.91306 -0.000477107 0)
(-2.92207 -0.00134482 0)
(-2.93157 -0.00236498 0)
(-2.94124 -0.0036719 -4.3163e-41)
(-2.95116 -0.00496399 0)
(-2.96106 -0.00626595 0)
(-2.97047 -0.0074585 0)
(-2.97866 -0.00842453 0)
(-2.98444 -0.0090706 0)
(-2.98589 -0.00926881 -5.44772e-41)
(-2.97974 -0.00841228 0)
(-2.95999 -0.00553191 0)
(-2.91441 0.000547016 6.43015e-42)
(-2.82433 0.0122223 0)
(-2.65822 0.0320986 0)
(-2.46306 0.0572544 0)
(-2.53586 0.00051589 0)
(-2.53628 0.000625142 0)
(-2.54029 0.000747952 0)
(-2.54412 0.000826739 0)
(-2.54799 0.000869399 0)
(-2.55234 0.000887537 0)
(-2.55653 0.000891184 0)
(-2.56102 0.000886445 0)
(-2.56527 0.00087683 0)
(-2.56975 0.000865056 0)
(-2.57398 0.000851884 0)
(-2.57838 0.000838226 0)
(-2.58255 0.00082474 0)
(-2.58686 0.00081113 0)
(-2.59095 0.00079795 0)
(-2.59516 0.000785032 0)
(-2.59917 0.000772757 0)
(-2.60328 0.000760965 0)
(-2.6072 0.000750036 0)
(-2.6112 0.000740011 0)
(-2.61504 0.000731064 0)
(-2.61895 0.000721626 8.48268e-42)
(-2.6227 0.000711186 0)
(-2.62651 0.000700161 0)
(-2.63018 0.000689294 0)
(-2.63391 0.000678382 0)
(-2.63751 0.000667648 0)
(-2.64116 0.000657323 0)
(-2.64469 0.000648065 0)
(-2.64827 0.00063945 0)
(-2.65174 0.00063173 0)
(-2.65525 0.00062393 0)
(-2.65868 0.000616604 0)
(-2.66213 0.000609197 0)
(-2.66552 0.000602338 0)
(-2.66893 0.000595288 0)
(-2.67228 0.00058904 0)
(-2.67566 0.00058292 0)
(-2.67899 0.000577528 0)
(-2.68234 0.000572764 0)
(-2.68567 0.000568827 0)
(-2.68901 0.000565851 0)
(-2.69234 0.000564007 0)
(-2.69568 0.000563678 0)
(-2.69901 0.000564961 0)
(-2.70237 0.00056833 0)
(-2.70573 0.000574083 0)
(-2.70912 0.000582556 0)
(-2.71252 0.000594707 0)
(-2.71595 0.000610579 0)
(-2.7194 0.000630588 0)
(-2.72288 0.000655298 0)
(-2.72639 0.000685687 0)
(-2.72995 0.000722466 0)
(-2.73353 0.000767266 0)
(-2.73717 0.000820966 0)
(-2.74084 0.00088467 0)
(-2.74457 0.000962333 0)
(-2.74834 0.00102708 0)
(-2.75219 0.00110589 0)
(-2.7561 0.00121184 0)
(-2.76008 0.00133474 0)
(-2.76412 0.00147107 0)
(-2.76824 0.00162102 0)
(-2.77243 0.00178502 0)
(-2.77672 0.00196338 0)
(-2.78109 0.00215631 0)
(-2.78556 0.00236394 0)
(-2.79013 0.00258582 0)
(-2.79481 0.00282082 0)
(-2.79961 0.00306752 0)
(-2.80454 0.00332365 0)
(-2.80961 0.00358577 0)
(-2.81483 0.00384922 0)
(-2.82021 0.00410783 0)
(-2.82577 0.00435453 0)
(-2.83151 0.00458053 0)
(-2.83746 0.0047732 0)
(-2.84364 0.00491764 0)
(-2.85006 0.00499775 0)
(-2.85675 0.00499973 0)
(-2.86374 0.00490423 0)
(-2.87104 0.00469153 5.51486e-41)
(-2.87868 0.00434417 0)
(-2.88668 0.00384557 0)
(-2.89505 0.00317463 0)
(-2.90375 0.00234279 0)
(-2.91263 0.00119103 1.40005e-41)
(-2.92171 -5.17367e-05 0)
(-2.93059 -0.00148645 0)
(-2.93875 -0.00308211 0)
(-2.94545 -0.00488132 0)
(-2.94971 -0.00709344 0)
(-2.94951 -0.010013 -5.88514e-41)
(-2.94157 -0.0140494 0)
(-2.91985 -0.0200231 0)
(-2.87341 -0.0297423 -3.49619e-40)
(-2.7829 -0.0461861 0)
(-2.61807 -0.0724686 0)
(-2.42429 -0.10361 0)
(-2.45559 0.00135541 0)
(-2.45521 0.00201498 0)
(-2.4593 0.00248742 0)
(-2.463 0.00278822 0)
(-2.46681 0.00296639 0)
(-2.47111 0.00306398 0)
(-2.47533 0.0031129 0)
(-2.47985 0.00313174 0)
(-2.48425 0.00313329 0)
(-2.48885 0.00312395 0)
(-2.49334 0.00310882 0)
(-2.49798 0.00308945 0)
(-2.50252 0.00306824 0)
(-2.50717 0.0030454 0)
(-2.51173 0.00302201 0)
(-2.51639 0.00299805 0)
(-2.52096 0.0029742 0)
(-2.52561 0.00295031 0)
(-2.53018 0.00292694 0)
(-2.53483 0.00290392 0)
(-2.53939 0.00288141 0)
(-2.54402 0.00285838 0)
(-2.54856 0.00283481 0)
(-2.55316 0.00281062 0)
(-2.55769 0.00278652 0)
(-2.56225 0.00276231 0)
(-2.56674 0.0027383 0)
(-2.57127 0.00271485 0)
(-2.57572 0.00269288 0)
(-2.5802 0.00267201 0)
(-2.58461 0.00265241 0)
(-2.58905 0.00263316 0)
(-2.59341 0.00261484 0)
(-2.59779 0.00259703 0)
(-2.60211 0.00258041 0)
(-2.60644 0.0025644 0)
(-2.6107 0.00254993 0)
(-2.61498 0.00253623 0)
(-2.6192 0.00252461 0)
(-2.62343 0.00251415 0)
(-2.62761 0.00250594 0)
(-2.63178 0.00249977 0)
(-2.63592 0.00249569 0)
(-2.64006 0.00249459 0)
(-2.64416 0.00249657 0)
(-2.64827 0.00250203 0)
(-2.65235 0.00251147 0)
(-2.65643 0.00252533 0)
(-2.6605 0.00254432 0)
(-2.66457 0.0025688 0)
(-2.66863 0.00259926 0)
(-2.67271 0.00263621 0)
(-2.67679 0.00268056 0)
(-2.68088 0.00273333 0)
(-2.68498 0.00279596 0)
(-2.68911 0.00286931 0)
(-2.69325 0.00295451 0)
(-2.69742 0.00304982 0)
(-2.70162 0.00314722 0)
(-2.70587 0.0032599 0)
(-2.71015 0.003395 0)
(-2.71448 0.00354901 0)
(-2.71884 0.00371983 0)
(-2.72326 0.00390744 0)
(-2.72773 0.00411216 0)
(-2.73226 0.00433437 0)
(-2.73686 0.00457458 0)
(-2.74153 0.00483325 0)
(-2.74628 0.00511031 0)
(-2.75112 0.00540497 0)
(-2.75605 0.00571637 0)
(-2.76109 0.00604276 0)
(-2.76624 0.0063813 0)
(-2.77153 0.00672795 0)
(-2.77695 0.00707743 0)
(-2.78253 0.00742329 0)
(-2.78828 0.00775715 0)
(-2.79423 0.00806783 0)
(-2.80039 0.00834195 0)
(-2.80678 0.00856538 0)
(-2.81343 0.00872358 0)
(-2.82038 0.00879848 0)
(-2.82764 0.00876899 0)
(-2.83523 0.00861787 0)
(-2.84319 0.00832467 0)
(-2.85152 0.00785989 0)
(-2.86019 0.00718616 0)
(-2.86918 0.00623387 0)
(-2.87832 0.00502145 0)
(-2.88736 0.0034364 0)