/*--------------------------------*- C++ -*----------------------------------*\
| =========                 |                                                 |
| \\      /  F ield         | OpenFOAM: The Open Source CFD Toolbox           |
|  \\    /   O peration     | Version:  2.1.0                                 |
|   \\  /    A nd           | Web:      www.OpenFOAM.org                      |
|    \\/     M anipulation  |                                                 |
\*---------------------------------------------------------------------------*/
FoamFile
{
    version     2.0;
    format      ascii;
    class       volScalarField;
    location    "0.29";
    object      C0;
}
// * * * * * * * * * * * * * * * * * * * * * * * * * * * * * * * * * * * * * //

dimensions      [0 0 0 0 0 0 0];

internalField   nonuniform List<scalar> 
6400
(
0.000102577
0.000106029
0.000110462
0.00011523
0.000120173
0.000125252
0.000130457
0.000135786
0.000141236
0.000146806
0.000152494
0.000158299
0.000164217
0.000170246
0.000176385
0.00018263
0.000188978
0.000195428
0.000201975
0.000208617
0.000215351
0.000222174
0.000229082
0.000236072
0.000243141
0.000250286
0.000257504
0.000264791
0.000272146
0.000279564
0.000287044
0.000294582
0.000302177
0.000309826
0.000317527
0.000325278
0.000333078
0.000340924
0.000348816
0.000356752
0.000364731
0.000372754
0.000380818
0.000388925
0.000397074
0.000405266
0.0004135
0.000421778
0.000430101
0.00043847
0.000446886
0.000455352
0.00046387
0.000472442
0.00048107
0.000489759
0.000498511
0.00050733
0.000516219
0.000525184
0.000534228
0.000543356
0.000552574
0.000561887
0.000571301
0.000580821
0.000590455
0.000600208
0.000610088
0.000620102
0.000630257
0.000640562
0.000651023
0.00066165
0.00067245
0.000683433
0.000694605
0.000705976
0.000717553
0.000729345
0.000741357
0.000753597
0.000766068
0.000778775
0.000791717
0.000804893
0.000818299
0.000831925
0.000845758
0.000859779
0.000873961
0.000888273
0.000902664
0.000917043
0.000931239
0.000945062
0.000958358
0.000970744
0.000981543
0.000989814
0.000104203
0.000107756
0.000112259
0.000117082
0.000122075
0.000127202
0.000132454
0.000137828
0.000143322
0.000148935
0.000154664
0.000160508
0.000166463
0.000172529
0.000178701
0.000184977
0.000191355
0.000197832
0.000204404
0.000211067
0.00021782
0.000224659
0.00023158
0.000238581
0.000245657
0.000252807
0.000260025
0.000267311
0.00027466
0.00028207
0.000289538
0.000297062
0.000304638
0.000312265
0.000319941
0.000327664
0.000335432
0.000343243
0.000351097
0.000358992
0.000366927
0.000374902
0.000382917
0.000390971
0.000399064
0.000407197
0.00041537
0.000423584
0.000431841
0.000440142
0.000448487
0.000456881
0.000465324
0.000473819
0.00048237
0.000490979
0.00049965
0.000508386
0.000517192
0.000526072
0.000535031
0.000544074
0.000553207
0.000562434
0.000571763
0.000581199
0.000590749
0.00060042
0.00061022
0.000620156
0.000630237
0.000640469
0.000650863
0.000661426
0.000672168
0.000683097
0.000694224
0.000705557
0.000717105
0.000728878
0.000740884
0.00075313
0.000765624
0.000778371
0.000791375
0.000804637
0.000818153
0.000831918
0.000845917
0.000860128
0.000874514
0.000889022
0.000903569
0.000918028
0.000932225
0.000945927
0.000958917
0.000970741
0.000980716
0.000988023
0.000106942
0.000110623
0.00011523
0.000120141
0.000125214
0.000130418
0.000135745
0.000141192
0.000146757
0.000152438
0.000158232
0.000164138
0.000170152
0.000176272
0.000182496
0.00018882
0.000195241
0.000201755
0.000208361
0.000215053
0.00022183
0.000228687
0.000235621
0.000242628
0.000249706
0.000256851
0.000264059
0.000271328
0.000278654
0.000286035
0.000293467
0.000300949
0.000308477
0.000316049
0.000323663
0.000331318
0.000339012
0.000346742
0.000354508
0.00036231
0.000370145
0.000378014
0.000385916
0.000393852
0.000401821
0.000409824
0.000417861
0.000425934
0.000434044
0.000442193
0.000450382
0.000458613
0.000466889
0.000475213
0.000483588
0.000492017
0.000500503
0.000509052
0.000517667
0.000526352
0.000535114
0.000543957
0.000552887
0.000561911
0.000571034
0.000580264
0.000589607
0.000599072
0.000608666
0.000618398
0.000628276
0.000638309
0.000648507
0.000658879
0.000669436
0.000680187
0.000691145
0.000702319
0.000713722
0.000725364
0.000737257
0.000749411
0.000761839
0.000774548
0.000787549
0.000800847
0.000814445
0.000828339
0.000842518
0.000856956
0.00087161
0.000886402
0.000901216
0.000915877
0.00093014
0.000943704
0.000956342
0.000967608
0.000976912
0.00098359
0.000110452
0.000114273
0.000119
0.000124016
0.000129188
0.000134486
0.000139904
0.000145438
0.000151087
0.000156848
0.000162719
0.000168696
0.000174777
0.000180959
0.000187238
0.000193612
0.000200077
0.000206628
0.000213264
0.00021998
0.000226772
0.000233637
0.000240571
0.000247571
0.000254632
0.000261751
0.000268926
0.000276152
0.000283426
0.000290745
0.000298107
0.000305508
0.000312946
0.000320419
0.000327925
0.000335461
0.000343025
0.000350617
0.000358236
0.000365879
0.000373547
0.000381238
0.000388954
0.000396693
0.000404456
0.000412243
0.000420056
0.000427896
0.000435763
0.00044366
0.000451588
0.00045955
0.000467549
0.000475587
0.000483667
0.000491794
0.000499971
0.000508202
0.000516492
0.000524845
0.000533268
0.000541765
0.000550344
0.000559009
0.000567769
0.00057663
0.000585599
0.000594686
0.000603897
0.000613242
0.00062273
0.000632371
0.000642175
0.000652152
0.000662314
0.000672672
0.000683239
0.000694028
0.000705052
0.000716325
0.000727861
0.000739677
0.000751788
0.000764209
0.000776956
0.000790042
0.00080348
0.000817273
0.00083142
0.0008459
0.000860669
0.000875648
0.000890705
0.000905636
0.00092015
0.000933944
0.000946774
0.000958203
0.000967656
0.000974384
0.000114394
0.000118356
0.000123208
0.000128333
0.000133607
0.000139003
0.000144515
0.000150139
0.000155873
0.000161713
0.000167657
0.000173702
0.000179845
0.000186081
0.000192407
0.00019882
0.000205316
0.00021189
0.000218539
0.000225259
0.000232046
0.000238895
0.000245804
0.000252766
0.00025978
0.000266841
0.000273945
0.000281089
0.000288269
0.000295482
0.000302725
0.000309996
0.00031729
0.000324607
0.000331942
0.000339296
0.000346665
0.000354048
0.000361445
0.000368853
0.000376272
0.000383701
0.000391141
0.000398591
0.000406052
0.000413524
0.000421008
0.000428505
0.000436017
0.000443545
0.000451091
0.000458658
0.000466248
0.000473865
0.000481511
0.00048919
0.000496906
0.000504664
0.000512467
0.000520322
0.000528233
0.000536206
0.000544247
0.000552363
0.00056056
0.000568845
0.000577226
0.000585711
0.000594309
0.000603028
0.000611878
0.000620868
0.000630009
0.000639313
0.000648791
0.000658456
0.000668322
0.000678402
0.000688713
0.000699271
0.000710095
0.000721205
0.000732621
0.000744366
0.000756466
0.000768944
0.000781824
0.000795127
0.000808867
0.000823042
0.000837631
0.000852576
0.000867768
0.000883025
0.000898072
0.00091261
0.00092637
0.00093886
0.000949355
0.000956695
0.000118402
0.000122497
0.000127464
0.000132689
0.000138056
0.00014354
0.000149135
0.000154836
0.000160641
0.000166546
0.000172548
0.000178642
0.000184827
0.000191096
0.000197446
0.000203874
0.000210374
0.000216942
0.000223574
0.000230266
0.000237012
0.000243808
0.000250651
0.000257536
0.000264457
0.000271413
0.000278397
0.000285407
0.000292439
0.000299488
0.000306553
0.000313629
0.000320714
0.000327805
0.0003349
0.000341995
0.000349091
0.000356184
0.000363273
0.000370357
0.000377435
0.000384507
0.000391572
0.00039863
0.000405682
0.000412727
0.000419767
0.000426802
0.000433835
0.000440866
0.000447897
0.000454931
0.00046197
0.000469018
0.000476077
0.00048315
0.000490242
0.000497356
0.000504498
0.000511671
0.000518881
0.000526133
0.000533433
0.000540788
0.000548203
0.000555685
0.000563242
0.000570882
0.000578611
0.00058644
0.000594377
0.000602431
0.000610614
0.000618936
0.00062741
0.000636047
0.000644863
0.000653873
0.000663093
0.000672543
0.000682244
0.000692218
0.000702493
0.000713098
0.000724065
0.000735432
0.000747236
0.000759518
0.000772315
0.000785658
0.000799566
0.000814029
0.000828999
0.000844372
0.00085995
0.000875431
0.000890514
0.000904607
0.000916683
0.000924906
0.000122074
0.000126282
0.00013134
0.000136643
0.000142079
0.000147626
0.000153278
0.000159029
0.000164877
0.000170818
0.000176847
0.00018296
0.000189152
0.00019542
0.000201759
0.000208163
0.000214628
0.000221149
0.000227721
0.00023434
0.000241
0.000247696
0.000254423
0.000261178
0.000267954
0.000274748
0.000281556
0.000288372
0.000295194
0.000302016
0.000308836
0.00031565
0.000322455
0.000329247
0.000336025
0.000342786
0.000349527
0.000356247
0.000362943
0.000369616
0.000376262
0.000382883
0.000389476
0.000396043
0.000402582
0.000409094
0.00041558
0.000422041
0.000428477
0.00043489
0.000441282
0.000447655
0.000454011
0.000460352
0.000466681
0.000473002
0.000479318
0.000485632
0.000491948
0.000498271
0.000504605
0.000510955
0.000517326
0.000523724
0.000530154
0.000536622
0.000543136
0.000549701
0.000556325
0.000563015
0.000569781
0.00057663
0.000583573
0.000590619
0.00059778
0.000605068
0.000612496
0.000620079
0.000627835
0.000635781
0.00064394
0.000652337
0.000661
0.000669961
0.000679261
0.000688942
0.000699056
0.000709658
0.000720808
0.000732571
0.000745008
0.000758171
0.000772095
0.000786786
0.00080219
0.000818025
0.000833964
0.000849339
0.000862787
0.000871717
0.000124989
0.000129275
0.000134388
0.000139732
0.000145202
0.000150776
0.000156447
0.00016221
0.000168062
0.000173998
0.000180013
0.000186102
0.00019226
0.000198483
0.000204765
0.0002111
0.000217484
0.000223911
0.000230376
0.000236873
0.000243397
0.000249942
0.000256503
0.000263076
0.000269654
0.000276233
0.000282809
0.000289376
0.00029593
0.000302468
0.000308984
0.000315476
0.00032194
0.000328372
0.00033477
0.00034113
0.000347451
0.000353731
0.000359966
0.000366156
0.000372299
0.000378395
0.000384441
0.000390439
0.000396386
0.000402284
0.000408133
0.000413933
0.000419684
0.000425388
0.000431047
0.000436661
0.000442232
0.000447763
0.000453255
0.000458711
0.000464135
0.000469528
0.000474894
0.000480236
0.000485558
0.000490865
0.000496159
0.000501446
0.00050673
0.000512017
0.000517311
0.000522618
0.000527944
0.000533295
0.000538677
0.000544098
0.000549567
0.00055509
0.000560677
0.00056634
0.000572088
0.000577936
0.000583896
0.000589987
0.000596227
0.000602638
0.000609247
0.000616085
0.000623187
0.0006306
0.000638375
0.000646571
0.000655258
0.000664516
0.000674432
0.000685101
0.000696625
0.00070911
0.000722665
0.000737213
0.000752294
0.00076733
0.000780802
0.000789628
0.000126767
0.000131085
0.000136208
0.00014155
0.00014701
0.000152568
0.000158215
0.000163947
0.000169758
0.000175645
0.000181601
0.000187622
0.000193702
0.000199835
0.000206016
0.000212239
0.000218498
0.000224787
0.000231101
0.000237434
0.000243779
0.000250131
0.000256484
0.000262832
0.000269171
0.000275495
0.000281798
0.000288075
0.000294323
0.000300536
0.00030671
0.000312841
0.000318925
0.000324958
0.000330937
0.000336859
0.000342721
0.000348521
0.000354256
0.000359924
0.000365524
0.000371053
0.000376511
0.000381897
0.000387209
0.000392448
0.000397614
0.000402705
0.000407723
0.000412667
0.000417539
0.00042234
0.00042707
0.000431731
0.000436324
0.000440852
0.000445315
0.000449716
0.000454058
0.000458342
0.000462571
0.000466747
0.000470874
0.000474955
0.000478994
0.000482992
0.000486955
0.000490886
0.000494788
0.000498667
0.000502526
0.00050637
0.000510206
0.000514038
0.000517873
0.000521719
0.000525583
0.000529473
0.000533402
0.00053738
0.000541422
0.000545542
0.000549761
0.000554098
0.00055858
0.000563242
0.000568123
0.000573269
0.000578736
0.000584588
0.000590904
0.000597771
0.0006053
0.000613627
0.000622939
0.000633469
0.000644748
0.000656384
0.00066714
0.000674238
0.000127133
0.000131431
0.000136517
0.000141812
0.000147219
0.000152716
0.000158296
0.000163953
0.000169682
0.000175478
0.000181336
0.000187249
0.000193211
0.000199218
0.000205262
0.000211337
0.000217438
0.000223557
0.00022969
0.000235828
0.000241966
0.000248098
0.000254218
0.000260319
0.000266396
0.000272443
0.000278455
0.000284426
0.00029035
0.000296224
0.000302041
0.000307798
0.000313491
0.000319114
0.000324665
0.00033014
0.000335535
0.000340848
0.000346075
0.000351215
0.000356264
0.000361222
0.000366085
0.000370854
0.000375525
0.000380099
0.000384575
0.000388951
0.000393228
0.000397405
0.000401482
0.00040546
0.000409338
0.000413118
0.0004168
0.000420384
0.000423872
0.000427265
0.000430564
0.000433769
0.000436883
0.000439907
0.000442841
0.000445688
0.000448449
0.000451126
0.000453721
0.000456236
0.000458672
0.000461031
0.000463317
0.000465529
0.000467672
0.000469748
0.00047176
0.000473711
0.000475605
0.000477446
0.00047924
0.000480993
0.000482712
0.000484403
0.000486077
0.00048774
0.000489396
0.000491066
0.000492766
0.000494513
0.000496326
0.000498231
0.000500259
0.000502441
0.000504821
0.000507457
0.000510428
0.000513849
0.00051789
0.000522279
0.000526505
0.000529346
0.000125983
0.00013021
0.000135213
0.00014042
0.000145732
0.00015113
0.000156604
0.00016215
0.000167761
0.000173433
0.00017916
0.000184934
0.000190751
0.000196604
0.000202486
0.000208391
0.000214312
0.000220243
0.000226176
0.000232106
0.000238025
0.000243928
0.000249806
0.000255655
0.000261467
0.000267236
0.000272957
0.000278623
0.000284229
0.00028977
0.00029524
0.000300633
0.000305947
0.000311174
0.000316312
0.000321357
0.000326304
0.00033115
0.000335891
0.000340525
0.000345048
0.000349459
0.000353754
0.000357932
0.000361991
0.000365929
0.000369744
0.000373436
0.000377002
0.000380443
0.000383758
0.000386945
0.000390005
0.000392937
0.000395741
0.000398417
0.000400964
0.000403384
0.000405675
0.000407838
0.000409873
0.000411781
0.000413562
0.000415217
0.000416744
0.000418143
0.000419415
0.00042056
0.000421576
0.000422465
0.000423225
0.000423855
0.000424355
0.000424725
0.000424963
0.000425069
0.00042504
0.000424878
0.000424579
0.000424144
0.000423572
0.000422861
0.000422011
0.000421023
0.000419903
0.000418642
0.000417227
0.000415645
0.000413868
0.000411876
0.000409647
0.000407138
0.000404317
0.000401136
0.00039754
0.00039347
0.000388884
0.000383799
0.000378632
0.000374586
0.000123428
0.00012754
0.000132421
0.000137504
0.000142689
0.000147954
0.000153292
0.000158696
0.000164162
0.000169683
0.000175253
0.000180867
0.000186517
0.000192197
0.000197901
0.000203621
0.000209351
0.000215083
0.000220812
0.000226529
0.000232227
0.0002379
0.000243541
0.000249143
0.000254698
0.000260202
0.000265646
0.000271025
0.000276332
0.000281562
0.000286708
0.000291766
0.000296729
0.000301593
0.000306353
0.000311004
0.000315542
0.000319962
0.000324262
0.000328436
0.000332481
0.000336396
0.000340175
0.000343817
0.00034732
0.00035068
0.000353896
0.000356965
0.000359887
0.000362659
0.000365279
0.000367747
0.000370062
0.000372221
0.000374225
0.000376071
0.00037776
0.00037929
0.000380661
0.00038187
0.000382919
0.000383805
0.000384528
0.000385086
0.000385478
0.000385702
0.000385757
0.000385641
0.000385351
0.000384885
0.000384241
0.000383415
0.000382405
0.000381206
0.000379815
0.000378226
0.000376436
0.000374438
0.000372227
0.000369796
0.000367138
0.000364245
0.000361107
0.000357716
0.000354059
0.000350117
0.000345869
0.000341293
0.000336364
0.000331031
0.000325209
0.00031879
0.000311711
0.000303897
0.000295263
0.000285754
0.000275425
0.000264639
0.000254473
0.000247273
0.000119738
0.0001237
0.000128429
0.000133361
0.000138392
0.0001435
0.000148678
0.000153918
0.000159217
0.000164568
0.000169964
0.0001754
0.00018087
0.000186366
0.000191881
0.000197409
0.000202942
0.000208473
0.000213996
0.000219502
0.000224985
0.000230436
0.00023585
0.000241218
0.000246534
0.00025179
0.000256979
0.000262096
0.000267133
0.000272083
0.000276941
0.0002817
0.000286355
0.000290899
0.000295328
0.000299636
0.000303819
0.00030787
0.000311787
0.000315564
0.000319198
0.000322685
0.00032602
0.000329202
0.000332226
0.00033509
0.00033779
0.000340325
0.000342691
0.000344886
0.000346909
0.000348757
0.000350427
0.000351919
0.000353231
0.00035436
0.000355305
0.000356064
0.000356636
0.000357018
0.000357208
0.000357205
0.000357007
0.000356611
0.000356014
0.000355214
0.000354208
0.000352993
0.000351564
0.000349918
0.000348051
0.000345958
0.000343633
0.000341072
0.000338267
0.000335211
0.000331898
0.000328319
0.000324464
0.000320324
0.000315889
0.000311145
0.00030608
0.000300677
0.00029492
0.000288786
0.00028225
0.000275284
0.000267854
0.000259913
0.000251412
0.000242299
0.000232413
0.00022173
0.000210232
0.000197954
0.000185096
0.000172205
0.000160525
0.000152482
0.000115269
0.000119061
0.000123617
0.00012838
0.00013324
0.000138176
0.000143178
0.000148241
0.00015336
0.000158529
0.000163742
0.000168992
0.000174274
0.00017958
0.000184904
0.000190237
0.000195575
0.000200908
0.000206229
0.000211532
0.000216808
0.00022205
0.000227251
0.000232404
0.000237499
0.000242532
0.000247493
0.000252377
0.000257175
0.000261882
0.00026649
0.000270993
0.000275384
0.000279658
0.000283809
0.00028783
0.000291717
0.000295463
0.000299064
0.000302516
0.000305812
0.00030895
0.000311924
0.000314731
0.000317367
0.000319828
0.00032211
0.000324211
0.000326128
0.000327857
0.000329396
0.000330741
0.00033189
0.000332841
0.000333591
0.000334138
0.000334478
0.00033461
0.000334532
0.000334239
0.00033373
0.000333002
0.000332052
0.000330877
0.000329473
0.000327837
0.000325964
0.000323851
0.000321492
0.000318884
0.00031602
0.000312895
0.000309502
0.000305835
0.000301886
0.000297646
0.000293108
0.000288262
0.000283098
0.000277605
0.000271772
0.000265586
0.000259032
0.000252098
0.000244765
0.000237017
0.000228833
0.000220193
0.000211076
0.000201458
0.00019132
0.000180647
0.000169426
0.000157577
0.000145189
0.000132389
0.000119459
0.000106962
9.59645e-05
8.84034e-05
0.000110423
0.000114034
0.00011841
0.000122995
0.000127679
0.000132436
0.000137259
0.000142141
0.000147078
0.000152064
0.000157092
0.000162157
0.000167253
0.000172372
0.000177508
0.000182654
0.000187803
0.000192946
0.000198078
0.00020319
0.000208274
0.000213324
0.000218331
0.000223289
0.000228188
0.000233022
0.000237784
0.000242465
0.00024706
0.000251559
0.000255957
0.000260247
0.000264421
0.000268474
0.000272399
0.00027619
0.00027984
0.000283345
0.000286698
0.000289894
0.000292929
0.000295796
0.000298492
0.000301012
0.000303351
0.000305506
0.000307472
0.000309245
0.000310822
0.000312199
0.000313373
0.000314341
0.000315098
0.000315643
0.000315971
0.00031608
0.000315968
0.000315629
0.000315062
0.000314264
0.00031323
0.000311958
0.000310444
0.000308684
0.000306675
0.000304411
0.000301889
0.000299104
0.00029605
0.000292723
0.000289116
0.000285223
0.000281038
0.000276553
0.000271761
0.000266654
0.000261224
0.00025546
0.000249355
0.000242897
0.000236078
0.000228887
0.000221314
0.000213347
0.000204977
0.000196195
0.000186991
0.000177362
0.000167305
0.000156828
0.000145948
0.000134703
0.000123152
0.00011132
9.9301e-05
8.72838e-05
7.55661e-05
6.46309e-05
5.52502e-05
4.87271e-05
0.000105588
0.00010902
0.000113217
0.000117629
0.000122141
0.000126727
0.000131377
0.000136086
0.000140849
0.00014566
0.000150514
0.000155405
0.000160326
0.000165272
0.000170234
0.000175206
0.000180182
0.000185153
0.000190113
0.000195053
0.000199967
0.000204846
0.000209684
0.000214472
0.000219202
0.000223867
0.00022846
0.000232973
0.000237398
0.000241728
0.000245956
0.000250074
0.000254076
0.000257955
0.000261704
0.000265317
0.000268787
0.000272109
0.000275276
0.000278283
0.000281125
0.000283795
0.000286289
0.000288602
0.000290729
0.000292666
0.000294408
0.00029595
0.00029729
0.000298422
0.000299343
0.00030005
0.000300537
0.000300803
0.000300843
0.000300654
0.000300233
0.000299576
0.000298679
0.000297538
0.000296151
0.000294513
0.000292621
0.00029047
0.000288057
0.000285376
0.000282422
0.000279192
0.00027568
0.000271881
0.000267787
0.000263395
0.000258697
0.000253686
0.000248355
0.000242698
0.000236706
0.000230371
0.000223688
0.000216646
0.00020924
0.000201462
0.000193306
0.000184768
0.000175843
0.000166533
0.000156839
0.000146772
0.00013635
0.000125602
0.000114578
0.000103351
9.20244e-05
8.07356e-05
6.956e-05
5.87082e-05
4.84605e-05
3.92048e-05
3.14638e-05
2.6013e-05
0.000101111
0.000104374
0.000108405
0.00011266
0.000117016
0.000121447
0.000125942
0.000130496
0.000135104
0.00013976
0.00014446
0.000149197
0.000153965
0.000158758
0.000163569
0.000168391
0.000173217
0.000178041
0.000182854
0.00018765
0.00019242
0.000197157
0.000201854
0.000206503
0.000211096
0.000215625
0.000220082
0.000224461
0.000228753
0.000232952
0.000237048
0.000241036
0.000244909
0.000248658
0.000252278
0.000255762
0.000259103
0.000262294
0.000265331
0.000268206
0.000270914
0.00027345
0.000275808
0.000277982
0.000279969
0.000281762
0.000283358
0.000284752
0.000285939
0.000286915
0.000287677
0.00028822
0.00028854
0.000288633
0.000288497
0.000288127
0.000287519
0.00028667
0.000285576
0.000284234
0.00028264
0.000280789
0.000278678
0.000276304
0.00027366
0.000270745
0.000267551
0.000264076
0.000260314
0.00025626
0.000251908
0.000247253
0.000242289
0.00023701
0.00023141
0.000225483
0.000219223
0.000212623
0.000205677
0.000198381
0.00019073
0.000182719
0.000174347
0.000165614
0.000156521
0.000147076
0.000137289
0.000127179
0.000116775
0.00010612
9.52773e-05
8.43366e-05
7.34217e-05
6.26969e-05
5.2286e-05
4.23725e-05
3.3215e-05
2.51452e-05
1.85513e-05
1.38932e-05
9.7299e-05
0.000100411
0.000104298
0.000108419
0.000112646
0.000116948
0.000121315
0.000125741
0.000130222
0.000134752
0.000139326
0.000143938
0.000148582
0.000153252
0.000157942
0.000162644
0.000167352
0.000172059
0.000176758
0.00018144
0.000186099
0.000190728
0.000195317
0.000199861
0.00020435
0.000208778
0.000213137
0.000217418
0.000221614
0.000225719
0.000229723
0.000233621
0.000237404
0.000241066
0.000244599
0.000247997
0.000251253
0.000254361
0.000257315
0.000260107
0.000262733
0.000265186
0.000267461
0.000269553
0.000271457
0.000273167
0.000274678
0.000275987
0.000277088
0.000277977
0.000278651
0.000279104
0.000279334
0.000279336
0.000279106
0.000278641
0.000277937
0.000276991
0.000275799
0.000274357
0.000272662
0.00027071
0.000268497
0.000266019
0.000263274
0.000260255
0.00025696
0.000253384
0.000249523
0.000245372
0.000240927
0.000236182
0.000231133
0.000225775
0.000220103
0.000214112
0.000207797
0.000201154
0.000194179
0.000186867
0.000179218
0.000171229
0.000162902
0.000154238
0.000145244
0.000135929
0.000126308
0.000116402
0.000106243
9.58734e-05
8.53569e-05
7.47791e-05
6.42548e-05
5.39289e-05
4.39782e-05
3.45458e-05
2.58757e-05
1.82864e-05
1.21509e-05
7.84053e-06
9.44324e-05
9.74166e-05
0.000101191
0.000105212
0.000109343
0.000113551
0.000117825
0.000122159
0.000126548
0.000130987
0.000135471
0.000139993
0.00014455
0.000149133
0.000153738
0.000158357
0.000162983
0.000167609
0.000172229
0.000176835
0.000181419
0.000185974
0.000190493
0.000194968
0.00019939
0.000203753
0.000208048
0.000212269
0.000216406
0.000220454
0.000224403
0.000228247
0.000231979
0.00023559
0.000239075
0.000242426
0.000245637
0.000248701
0.000251611
0.000254361
0.000256946
0.000259358
0.000261594
0.000263647
0.000265512
0.000267184
0.000268657
0.000269929
0.000270992
0.000271845
0.000272481
0.000272898
0.000273091
0.000273056
0.00027279
0.000272289
0.000271549
0.000270568
0.000269341
0.000267865
0.000266137
0.000264153
0.00026191
0.000259404
0.000256632
0.000253589
0.000250274
0.00024668
0.000242806
0.000238646
0.000234198
0.000229457
0.000224419
0.00021908
0.000213437
0.000207486
0.000201223
0.000194646
0.000187751
0.000180538
0.000173006
0.000165155
0.000156988
0.000148509
0.000139726
0.000130651
0.000121297
0.000111687
0.000101848
9.18198e-05
8.16531e-05
7.14191e-05
6.12126e-05
5.11531e-05
4.13981e-05
3.20909e-05
2.34449e-05
1.57714e-05
9.48785e-06
5.03926e-06
9.27908e-05
9.56821e-05
9.93867e-05
0.00010335
0.000107428
0.000111584
0.000115807
0.000120091
0.00012443
0.00012882
0.000133255
0.000137731
0.000142241
0.000146779
0.000151339
0.000155915
0.000160499
0.000165085
0.000169665
0.000174233
0.00017878
0.0001833
0.000187785
0.000192228
0.000196619
0.000200953
0.00020522
0.000209414
0.000213527
0.000217551
0.000221478
0.000225301
0.000229014
0.000232607
0.000236075
0.000239411
0.000242607
0.000245657
0.000248554
0.000251293
0.000253867
0.00025627
0.000258496
0.000260541
0.000262398
0.000264062
0.00026553
0.000266795
0.000267853
0.0002687
0.000269332
0.000269745
0.000269934
0.000269896
0.000269627
0.000269124
0.000268383
0.000267401
0.000266174
0.000264699
0.000262973
0.000260993
0.000258755
0.000256256
0.000253492
0.00025046
0.000247158
0.000243581
0.000239725
0.000235589
0.000231167
0.000226457
0.000221456
0.000216159
0.000210565
0.000204669
0.00019847
0.000191966
0.000185154
0.000178034
0.000170606
0.000162872
0.000154835
0.000146501
0.000137877
0.000128976
0.000119811
0.000110404
0.000100778
9.0967e-05
8.101e-05
7.09627e-05
6.09066e-05
5.09619e-05
4.12766e-05
3.1994e-05
2.32916e-05
1.54293e-05
8.80595e-06
3.94726e-06
0.000994225
0.000994152
0.00099335
0.00099225
0.000990964
0.000989527
0.000987949
0.000986224
0.00098434
0.000982272
0.000979984
0.00097743
0.000974549
0.000971276
0.000967538
0.000963281
0.000958503
0.000953334
0.00094821
0.000944264
0.000991606
0.000991311
0.000990025
0.000988301
0.000986319
0.000984144
0.000981794
0.000979268
0.000976545
0.00097359
0.000970353
0.000966766
0.000962747
0.0009582
0.000953035
0.000947186
0.000940671
0.000933708
0.000926951
0.000921955
0.00098663
0.000985776
0.000983743
0.000981141
0.000978203
0.000975024
0.000971642
0.000968058
0.000964247
0.000960163
0.000955735
0.000950872
0.000945462
0.000939385
0.000932524
0.000924809
0.000916289
0.000907285
0.000898689
0.000892516
0.000976909
0.000975205
0.000972123
0.000968364
0.000964206
0.000959772
0.000955118
0.000950252
0.000945145
0.000939738
0.000933939
0.00092763
0.000920667
0.000912902
0.000904196
0.000894479
0.000883842
0.000872736
0.000862322
0.000855093
0.000958581
0.000955808
0.000951437
0.00094631
0.000940752
0.000934914
0.000928867
0.000922624
0.000916153
0.000909383
0.000902198
0.000894451
0.000885971
0.000876579
0.00086612
0.000854531
0.000841969
0.00082904
0.000817194
0.000809317
0.000925989
0.000922094
0.00091641
0.000909929
0.000903029
0.000895886
0.000888582
0.000881133
0.000873506
0.000865615
0.000857323
0.00084846
0.000838829
0.000828228
0.000816491
0.000803577
0.000789728
0.000775728
0.000763312
0.00075548
0.000871956
0.000867206
0.000860582
0.000853176
0.000845408
0.000837474
0.000829463
0.000821394
0.000813228
0.000804868
0.000796162
0.000786929
0.000776963
0.000766045
0.00075401
0.000740852
0.000726908
0.000713134
0.000701442
0.000694493
0.000789253
0.000784351
0.000777684
0.000770331
0.000762718
0.000755042
0.00074739
0.000739779
0.000732161
0.000724429
0.000716446
0.000708049
0.000699039
0.000689206
0.000678395
0.000666635
0.000654338
0.000642554
0.000633076
0.000627748
0.000673712
0.00066975
0.00066443
0.000658624
0.000652683
0.00064678
0.000640976
0.000635274
0.000629611
0.000623916
0.000618103
0.000612056
0.000605619
0.00059863
0.000590954
0.000582642
0.0005741
0.00056624
0.000560289
0.000557071
0.000528932
0.000527081
0.000524653
0.00052204
0.000519404
0.000516836
0.000514353
0.000511948
0.000509606
0.000507318
0.000505048
0.000502765
0.0005004
0.000497901
0.000495202
0.000492337
0.000489508
0.000487084
0.000485452
0.000484647
0.000373489
0.000374295
0.000375629
0.000377133
0.00037868
0.000380207
0.000381724
0.000383258
0.000384838
0.000386499
0.000388271
0.000390209
0.000392386
0.000394886
0.000397802
0.000401129
0.000404685
0.000408105
0.000410949
0.000412758
0.000246391
0.000248911
0.000252579
0.000256666
0.000260894
0.000265135
0.000269351
0.000273549
0.000277795
0.000282167
0.000286749
0.000291653
0.000297028
0.000303033
0.000309805
0.000317341
0.000325353
0.000333105
0.0003395
0.000343476
0.000151665
0.000154856
0.000159447
0.000164586
0.000169949
0.000175394
0.000180864
0.000186356
0.000191919
0.000197645
0.000203657
0.000210098
0.000217146
0.000224986
0.000233771
0.000243517
0.000253957
0.00026431
0.000273128
0.000278664
8.73645e-05
9.03868e-05
9.48111e-05
9.98197e-05
0.000105107
0.000110538
0.000116058
0.000121662
0.000127387
0.000133315
0.000139573
0.000146309
0.000153697
0.000161923
0.00017114
0.000181391
0.000192469
0.000203692
0.000213593
0.000219924
4.73469e-05
4.97258e-05
5.33646e-05
5.75627e-05
6.20601e-05
6.67415e-05
7.1558e-05
7.65051e-05
8.16158e-05
8.69595e-05
9.2645e-05
9.88072e-05
0.000105602
0.000113197
0.000121737
0.000131283
0.000141696
0.000152428
0.000162192
0.000168598
2.43436e-05
2.59447e-05
2.86043e-05
3.17613e-05
3.52065e-05
3.88462e-05
4.26412e-05
4.65884e-05
5.07163e-05
5.50824e-05
5.97737e-05
6.49028e-05
7.06008e-05
7.70087e-05
8.4256e-05
9.24117e-05
0.000101392
0.000110786
0.00011955
0.000125523
1.20448e-05
1.2953e-05
1.47176e-05
1.68997e-05
1.93332e-05
2.19455e-05
2.4708e-05
2.76209e-05
3.07079e-05
3.40146e-05
3.76082e-05
4.15764e-05
4.60238e-05
5.10647e-05
5.68072e-05
6.33195e-05
7.05584e-05
7.82306e-05
8.5534e-05
9.06979e-05
5.87808e-06
6.2727e-06
7.35197e-06
8.76183e-06
1.03705e-05
1.21254e-05
1.40096e-05
1.60265e-05
1.81954e-05
2.05507e-05
2.3142e-05
2.60346e-05
2.93074e-05
3.30492e-05
3.73467e-05
4.22609e-05
4.77757e-05
5.36912e-05
5.94189e-05
6.35967e-05
2.9277e-06
3.00677e-06
3.62835e-06
4.48922e-06
5.49255e-06
6.60623e-06
7.82259e-06
9.1467e-06
1.05935e-05
1.21874e-05
1.39636e-05
1.59681e-05
1.8258e-05
2.08987e-05
2.39571e-05
2.74847e-05
3.14822e-05
3.58231e-05
4.00969e-05
4.32998e-05
1.49828e-06
1.4653e-06
1.81228e-06
2.31118e-06
2.90521e-06
3.57835e-06
4.3283e-06
5.15991e-06
6.08379e-06
7.11665e-06
8.28197e-06
9.61085e-06
1.11422e-05
1.29219e-05
1.49985e-05
1.74132e-05
2.0177e-05
2.32218e-05
2.6289e-05
2.8684e-05
0.001
0.001
0.001
0.001
0.001
0.001
0.001
0.001
0.001
0.001
0.001
0.001
0.001
0.001
0.001
0.001
0.001
0.001
0.001
0.001
0.001
0.001
0.001
0.001
0.001
0.001
0.001
0.001
0.001
0.001
0.001
0.001
0.001
0.001
0.001
0.001
0.001
0.001
0.001
0.001
0.001
0.001
0.001
0.001
0.001
0.001
0.001
0.001
0.001
0.001
0.001
0.001
0.001
0.001
0.001
0.001
0.001
0.001
0.001
0.001
0.001
0.001
0.001
0.001
0.001
0.001
0.001
0.001
0.001
0.001
0.001
0.001
0.001
0.001
0.001
0.001
0.001
0.001
0.001
0.001
0.001
0.001
0.001
0.001
0.001
0.001
0.001
0.001
0.001
0.001
0.001
0.001
0.001
0.001
0.001
0.001
0.001
0.001
0.001
0.001
0.001
0.001
0.001
0.001
0.001