/*--------------------------------*- C++ -*----------------------------------*\
| =========                 |                                                 |
| \\      /  F ield         | OpenFOAM: The Open Source CFD Toolbox           |
|  \\    /   O peration     | Version:  2.1.0                                 |
|   \\  /    A nd           | Web:      www.OpenFOAM.org                      |
|    \\/     M anipulation  |                                                 |
\*---------------------------------------------------------------------------*/
FoamFile
{
    version     2.0;
    format      ascii;
    class       volScalarField;
    location    "0.29";
    object      k;
}
// * * * * * * * * * * * * * * * * * * * * * * * * * * * * * * * * * * * * * //

dimensions      [0 2 -2 0 0 0 0];

internalField   nonuniform List<scalar> 
6400
(
0.0305999
0.0306856
0.0307108
0.0307405
0.0307539
0.0307793
0.0307911
0.0308165
0.0308289
0.0308548
0.030869
0.0308945
0.0309107
0.0309352
0.0309535
0.030977
0.0309968
0.0310191
0.0310394
0.0310602
0.03108
0.0310985
0.0311166
0.0311322
0.0311474
0.0311593
0.0311706
0.0311785
0.031182
0.0311825
0.0311818
0.0311778
0.0311701
0.0311576
0.0311414
0.0311207
0.0310961
0.031066
0.0310306
0.0309889
0.0309416
0.0308867
0.0308252
0.0307555
0.0306773
0.0305899
0.0304931
0.0303857
0.0302677
0.0301382
0.0299955
0.0298369
0.0296639
0.0294812
0.0292872
0.0290872
0.0288745
0.0286536
0.0284223
0.0281817
0.0279327
0.0276734
0.027405
0.0271257
0.0268358
0.0265361
0.0262231
0.0258943
0.0255541
0.0251945
0.024822
0.0244284
0.0240201
0.0235907
0.0231447
0.02268
0.0221986
0.0217024
0.0211927
0.0206729
0.0201435
0.0196036
0.0190422
0.0184259
0.0177899
0.0171156
0.0163888
0.0155913
0.0146838
0.0136246
0.0123352
0.0107124
0.00865244
0.00619644
0.00357502
0.00234353
0.00274543
0.00552569
0.00875395
0.00990563
0.0498799
0.050317
0.0505167
0.0508811
0.0511168
0.0514755
0.0517406
0.0520935
0.0523833
0.0527318
0.0530404
0.0533862
0.0537093
0.0540542
0.0543882
0.0547335
0.0550754
0.0554215
0.0557687
0.0561164
0.0564678
0.0568168
0.0571707
0.057521
0.0578763
0.0582276
0.0585828
0.0589342
0.0592886
0.0596394
0.0599927
0.0603429
0.060695
0.0610443
0.0613954
0.0617443
0.0620952
0.0624449
0.062795
0.0631418
0.0634883
0.0638302
0.0641695
0.0645029
0.0648301
0.065149
0.0654585
0.0657553
0.0660395
0.0663095
0.0665695
0.0668084
0.0670286
0.0672355
0.0674332
0.0676224
0.067795
0.0679554
0.0680963
0.068218
0.068326
0.0684169
0.0684895
0.0685441
0.0685714
0.0685822
0.0685752
0.0685232
0.0684454
0.0683193
0.0681527
0.0679277
0.0676476
0.0672953
0.066872
0.0663622
0.0657645
0.0650682
0.0642692
0.0633633
0.0623469
0.0612231
0.0599971
0.0586463
0.0570979
0.0553547
0.0533534
0.0510665
0.0484108
0.0453326
0.0417497
0.0376309
0.0330248
0.0282342
0.0233384
0.018632
0.0149418
0.0123805
0.0107733
0.00920572
0.0561398
0.0567533
0.0570321
0.0575394
0.0578866
0.0583754
0.0587669
0.0592449
0.0596668
0.060139
0.0605817
0.0610514
0.0615086
0.0619775
0.062444
0.0629124
0.0633837
0.0638508
0.064323
0.0647882
0.0652612
0.0657253
0.0661955
0.0666562
0.0671225
0.067581
0.0680424
0.0684965
0.0689524
0.0694007
0.0698497
0.0702916
0.0707325
0.0711665
0.0715981
0.0720218
0.072441
0.0728512
0.0732568
0.0736526
0.0740423
0.0744211
0.0747896
0.0751457
0.0754863
0.0758099
0.0761121
0.0763876
0.0766335
0.0768363
0.0770232
0.0771858
0.07733
0.0774517
0.0775497
0.0776267
0.0776767
0.0777013
0.0777099
0.0776964
0.0776364
0.0775496
0.0774187
0.077252
0.0770385
0.0767837
0.0764763
0.0761207
0.0757086
0.0752371
0.0747008
0.0740914
0.0734048
0.0726276
0.0717567
0.070775
0.0696791
0.0684525
0.0670904
0.0655808
0.0639184
0.0620974
0.0601129
0.0579619
0.0556684
0.053221
0.0506295
0.0478778
0.044957
0.0418385
0.0384924
0.0348737
0.0309684
0.0267583
0.022363
0.0180217
0.0143877
0.0114327
0.00926714
0.0070879
0.0610507
0.0617366
0.0620469
0.0626239
0.0630233
0.0635749
0.0640249
0.0645596
0.0650398
0.0655636
0.0660618
0.0665787
0.0670868
0.0675978
0.0681087
0.0686127
0.0691199
0.0696133
0.0701088
0.0705842
0.0710681
0.0715365
0.072012
0.0724745
0.0729362
0.0733856
0.0738325
0.0742651
0.0746943
0.0751076
0.0755152
0.0759067
0.0762892
0.0766551
0.0770086
0.0773451
0.0776673
0.0779675
0.0782522
0.0785138
0.0787548
0.0789728
0.0791638
0.079331
0.0794667
0.0795751
0.0796483
0.0796838
0.0796958
0.0796773
0.0796115
0.0795181
0.0793765
0.0792013
0.0789734
0.0787042
0.0783768
0.0779977
0.0775547
0.0770484
0.0764764
0.075833
0.0751171
0.0743219
0.0734471
0.0724878
0.0714419
0.0703101
0.0690874
0.0677784
0.0663792
0.0648948
0.0633254
0.0616733
0.0599432
0.058135
0.0562568
0.0543072
0.0522952
0.0502186
0.0480851
0.045893
0.043647
0.0413469
0.0389963
0.0365951
0.0341525
0.0316824
0.0291842
0.0266683
0.0241407
0.0216089
0.0190833
0.0165751
0.0141212
0.0118011
0.00965703
0.00783452
0.00657488
0.00598411
0.0628592
0.0635012
0.0637851
0.0643288
0.0646866
0.0652011
0.0655982
0.0660855
0.0665017
0.066965
0.0673878
0.0678299
0.0682497
0.0686704
0.0690795
0.0694779
0.0698698
0.0702436
0.0706136
0.0709633
0.0713099
0.071631
0.0719472
0.0722406
0.072523
0.0727854
0.0730342
0.0732582
0.0734696
0.0736515
0.0738181
0.0739547
0.0740704
0.0741559
0.0742086
0.0742317
0.0742364
0.0741951
0.0741211
0.0740084
0.0738543
0.073662
0.0734203
0.0731393
0.0728045
0.0724257
0.0719926
0.0715089
0.0709737
0.0703808
0.069736
0.0690325
0.0682732
0.0674595
0.0665877
0.065663
0.064678
0.0636403
0.0625435
0.0613936
0.0601886
0.0589304
0.0576222
0.0562628
0.0548587
0.0534077
0.0519165
0.0503854
0.0488182
0.0472192
0.0455888
0.0439344
0.0422561
0.0405634
0.0388587
0.0371466
0.0354315
0.0337169
0.0320081
0.0303084
0.0286242
0.0269604
0.0253229
0.0237179
0.0221503
0.0206261
0.0191458
0.0177027
0.016307
0.0149527
0.0136463
0.0123832
0.0111711
0.0100108
0.00891716
0.00791041
0.00701062
0.00638816
0.00611903
0.00611772
0.0599086
0.0603042
0.0604774
0.0608162
0.0610284
0.0613386
0.0615605
0.0618347
0.062049
0.0622851
0.0624816
0.0626783
0.0628478
0.0630024
0.0631377
0.0632478
0.0633419
0.0634042
0.0634436
0.0634583
0.0634599
0.0634202
0.0633558
0.0632644
0.0631376
0.0629886
0.0628121
0.0626019
0.0623706
0.062098
0.061804
0.061469
0.061107
0.0607065
0.0602739
0.0598047
0.059302
0.0587593
0.0581843
0.0575689
0.0569202
0.0562327
0.0555101
0.0547516
0.0539571
0.0531291
0.0522665
0.0513716
0.0504461
0.0494884
0.0485053
0.0474913
0.0464558
0.0453934
0.0443111
0.0432077
0.0420861
0.0409512
0.0398036
0.0386477
0.0374844
0.0363165
0.0351477
0.0339781
0.0328136
0.0316527
0.0305019
0.0293602
0.0282328
0.0271205
0.0260266
0.0249534
0.0239024
0.0228741
0.0218692
0.0208904
0.0199389
0.0190167
0.0181258
0.0172655
0.016434
0.0156325
0.0148597
0.0141161
0.0133995
0.01271
0.0120445
0.0114023
0.0107803
0.0101762
0.00958728
0.00901112
0.00844715
0.00789669
0.00737018
0.00688317
0.00652826
0.00637402
0.00634896
0.00656713
0.0508523
0.0508245
0.0508115
0.0507919
0.050766
0.0507239
0.0506691
0.0505904
0.0504982
0.050377
0.0502437
0.0500759
0.0498968
0.0496797
0.0494529
0.0491857
0.0489093
0.0485924
0.0482676
0.047905
0.0475339
0.047126
0.0467071
0.0462519
0.0457827
0.0452823
0.0447676
0.0442219
0.0436653
0.0430769
0.0424799
0.0418537
0.041218
0.0405581
0.0398873
0.0391968
0.0384961
0.037778
0.0370526
0.0363136
0.0355708
0.0348164
0.0340612
0.0332977
0.0325358
0.0317694
0.0310072
0.0302443
0.0294887
0.0287352
0.0279925
0.0272546
0.0265305
0.0258116
0.0251073
0.0244121
0.0237331
0.0230655
0.0224132
0.0217743
0.0211522
0.0205441
0.0199542
0.019378
0.0188203
0.0182772
0.0177517
0.0172385
0.0167417
0.0162565
0.0157858
0.0153258
0.0148782
0.0144396
0.0140109
0.0135889
0.0131741
0.0127628
0.012355
0.0119597
0.0115739
0.0112009
0.0108356
0.0104813
0.0101334
0.00979455
0.00946125
0.0091357
0.00881633
0.00850568
0.00820538
0.00791935
0.00765366
0.00741499
0.00721998
0.00709889
0.00704785
0.00709628
0.00743342
0.00762319
0.0374832
0.0371086
0.0369472
0.0366365
0.0364331
0.0361109
0.0358617
0.035516
0.0352214
0.0348479
0.0345118
0.0341069
0.0337295
0.0332926
0.0328772
0.0324089
0.0319577
0.0314601
0.0309769
0.0304525
0.0299404
0.0293918
0.0288629
0.0283103
0.0277764
0.0272216
0.0266816
0.0261272
0.0255903
0.0250418
0.0245145
0.023978
0.0234649
0.0229456
0.0224509
0.0219527
0.0214802
0.021006
0.0205585
0.0201087
0.0196856
0.0192618
0.0188642
0.0184677
0.0180968
0.0177287
0.0173853
0.017046
0.0167298
0.0164192
0.0161294
0.0158469
0.0155844
0.0153293
0.0150932
0.0148648
0.0146541
0.0144505
0.0142633
0.014083
0.0139178
0.0137589
0.0136143
0.0134755
0.01335
0.013228
0.0131193
0.0130148
0.0129225
0.0128334
0.0127551
0.0126792
0.0126125
0.0125472
0.0124894
0.0124318
0.0123796
0.0123262
0.012276
0.012223
0.0121689
0.012108
0.0120421
0.0119655
0.0118789
0.011777
0.0116605
0.0115244
0.0113703
0.011196
0.0110061
0.0108037
0.0105998
0.0104059
0.0102617
0.0101973
0.0101871
0.0104187
0.0107673
0.0109364
0.023907
0.0233817
0.0231607
0.0227365
0.0224865
0.0220671
0.02179
0.0213715
0.021072
0.0206545
0.0203388
0.0199226
0.0195946
0.0191817
0.0188479
0.0184409
0.0181062
0.0177089
0.0173785
0.0169945
0.0166737
0.0163072
0.0160034
0.0156628
0.0153804
0.0150675
0.0148081
0.0145237
0.0142895
0.0140336
0.013825
0.0135979
0.0134148
0.0132164
0.013058
0.0128877
0.0127533
0.0126101
0.0124987
0.012381
0.012292
0.0121984
0.0121312
0.012061
0.012015
0.0119676
0.0119426
0.0119219
0.0119137
0.0119117
0.0119257
0.0119457
0.0119802
0.01202
0.0120746
0.0121343
0.0122087
0.012289
0.0123843
0.0124857
0.0126021
0.0127251
0.0128629
0.0130076
0.0131675
0.0133347
0.0135169
0.0137067
0.0139117
0.0141251
0.0143539
0.014592
0.0148457
0.0151097
0.0153894
0.0156801
0.0159863
0.0163039
0.0166365
0.0169801
0.0173374
0.0177043
0.018082
0.018466
0.0188558
0.0192455
0.0196329
0.0200107
0.0203746
0.0207171
0.021034
0.0213207
0.021578
0.0218103
0.0220315
0.0222882
0.0227098
0.0232932
0.0240838
0.0249292
0.0163831
0.0159266
0.01574
0.0153806
0.0151872
0.0148403
0.0146428
0.0143101
0.0141122
0.0137954
0.0136007
0.013302
0.0131148
0.0128365
0.0126604
0.0124043
0.0122423
0.0120099
0.0118645
0.0116568
0.01153
0.0113479
0.0112408
0.0110842
0.0109969
0.0108651
0.0107972
0.0106907
0.0106382
0.0105583
0.0105196
0.0104658
0.0104404
0.0104123
0.0104002
0.010395
0.0103951
0.0104096
0.0104302
0.0104598
0.0104995
0.0105449
0.0106025
0.0106647
0.0107399
0.0108188
0.0109116
0.0110075
0.0111172
0.0112311
0.0113583
0.0114901
0.0116352
0.0117856
0.0119492
0.012119
0.012302
0.0124921
0.0126954
0.0129069
0.013132
0.0133663
0.0136151
0.0138741
0.0141487
0.0144345
0.0147371
0.0150524
0.0153856
0.0157333
0.0161007
0.0164847
0.0168904
0.0173152
0.0177641
0.0182352
0.0187333
0.0192574
0.019812
0.020397
0.0210173
0.0216735
0.0223708
0.0231109
0.0238998
0.024741
0.0256415
0.0266064
0.0276449
0.0287647
0.0299772
0.0312942
0.0327312
0.034305
0.0360344
0.0379314
0.039974
0.0421555
0.0436725
0.044291
0.0196188
0.019196
0.0190201
0.0186776
0.0184857
0.0181482
0.0179419
0.0176092
0.0173912
0.0170636
0.0168376
0.0165181
0.0162895
0.0159804
0.015753
0.0154574
0.0152356
0.0149552
0.0147427
0.0144799
0.0142799
0.0140362
0.0138511
0.0136277
0.0134595
0.0132569
0.0131066
0.0129251
0.0127932
0.0126329
0.0125194
0.0123809
0.0122858
0.0121695
0.0120928
0.011999
0.0119407
0.0118696
0.0118302
0.0117828
0.0117598
0.0117406
0.0117335
0.0117323
0.0117486
0.0117684
0.0118058
0.0118464
0.0119039
0.0119659
0.0120433
0.0121267
0.0122245
0.0123293
0.0124479
0.0125747
0.0127145
0.0128634
0.013025
0.0131963
0.0133805
0.0135748
0.0137826
0.0140015
0.0142344
0.0144795
0.0147392
0.0150121
0.0153005
0.0156033
0.0159228
0.0162581
0.0166117
0.016983
0.0173746
0.0177859
0.0182201
0.0186768
0.0191594
0.0196678
0.020206
0.0207743
0.0213771
0.0220152
0.0226938
0.0234142
0.0241818
0.024999
0.0258723
0.0268085
0.0278162
0.0289038
0.0300834
0.0313711
0.0327887
0.034365
0.0361388
0.0380822
0.0396636
0.0403617
0.0306531
0.0302836
0.030124
0.0298142
0.029621
0.0293041
0.0290757
0.028745
0.0284825
0.0281341
0.027839
0.0274736
0.027151
0.0267668
0.0264159
0.0260158
0.0256437
0.02523
0.0248423
0.0244197
0.0240219
0.0235948
0.0231922
0.0227649
0.0223625
0.0219388
0.0215408
0.0211243
0.0207346
0.0203286
0.0199501
0.0195578
0.0191936
0.018818
0.0184708
0.0181147
0.0177867
0.0174521
0.0171454
0.0168344
0.0165513
0.0162662
0.016008
0.0157503
0.015519
0.0152905
0.0150873
0.0148885
0.0147137
0.0145447
0.014398
0.0142583
0.0141395
0.0140287
0.0139375
0.0138552
0.0137908
0.0137351
0.0136959
0.0136669
0.013653
0.0136478
0.0136504
0.0136721
0.0136985
0.013741
0.0137896
0.0138518
0.0139209
0.0140017
0.0140882
0.0141838
0.0142848
0.0143925
0.014505
0.0146217
0.0147422
0.0148646
0.0149893
0.0151137
0.0152387
0.0153612
0.0154826
0.0155993
0.0157133
0.0158213
0.0159255
0.0160233
0.0161176
0.0162037
0.0162836
0.0163568
0.0164383
0.0165307
0.0166646
0.0168713
0.0172138
0.0177607
0.018511
0.0195671
0.0437583
0.0436047
0.0435375
0.0434067
0.0433118
0.0431633
0.0430327
0.0428549
0.0426842
0.0424692
0.0422563
0.0420017
0.0417454
0.0414507
0.0411527
0.0408162
0.0404775
0.0401003
0.0397203
0.0393046
0.0388846
0.0384317
0.0379735
0.0374852
0.0369915
0.0364701
0.0359438
0.0353917
0.0348354
0.034256
0.0336732
0.03307
0.0324648
0.0318418
0.031219
0.0305813
0.0299471
0.0293013
0.0286593
0.0280059
0.0273601
0.0267079
0.0260667
0.0254239
0.0247951
0.0241694
0.02356
0.0229578
0.0223741
0.0218007
0.0212463
0.0207037
0.020181
0.0196712
0.0191815
0.0187046
0.0182472
0.0178034
0.0173788
0.016969
0.0165777
0.0162
0.0158397
0.0154914
0.015158
0.0148352
0.0145253
0.0142245
0.013933
0.0136479
0.013376
0.0131099
0.0128542
0.0126035
0.0123612
0.0121224
0.0118906
0.0116612
0.0114377
0.0112158
0.0109993
0.010784
0.0105744
0.010366
0.0101641
0.00996457
0.00977247
0.00958285
0.00940232
0.00922824
0.00906817
0.00892058
0.00878788
0.00868442
0.00863387
0.00861924
0.00874206
0.00900187
0.00941275
0.00959405
0.0551374
0.0552966
0.0553652
0.0555021
0.0555791
0.0556924
0.0557575
0.0558369
0.0558785
0.0559087
0.0559192
0.0559191
0.0558867
0.0558388
0.0557736
0.0556789
0.0555736
0.055433
0.0552811
0.0550935
0.0548917
0.0546544
0.0544002
0.0541101
0.0538012
0.0534559
0.0530909
0.0526895
0.0522641
0.0518037
0.0513179
0.0507961
0.0502484
0.0496637
0.0490537
0.0484057
0.0477338
0.0470242
0.0462919
0.0455238
0.0447335
0.0439108
0.0430668
0.0421945
0.0413029
0.0403879
0.0394567
0.0385074
0.0375456
0.0365712
0.0355903
0.0346035
0.0336156
0.0326276
0.0316442
0.0306664
0.0296989
0.0287425
0.0278014
0.0268758
0.0259699
0.025083
0.0242128
0.0233634
0.0225354
0.0217301
0.0209493
0.0201922
0.0194625
0.0187579
0.0180764
0.0174186
0.0167831
0.0161696
0.0155763
0.0150025
0.0144461
0.0139063
0.013381
0.0128695
0.0123695
0.0118803
0.0113995
0.010926
0.0104582
0.0100146
0.00957879
0.00917263
0.00877722
0.00841106
0.00805841
0.00773624
0.00743356
0.00716677
0.00692077
0.00675921
0.00668722
0.00668499
0.00701576
0.00720617
0.0614455
0.0618869
0.0620805
0.0624583
0.0627008
0.0630545
0.0633169
0.0636436
0.0639106
0.0642101
0.064472
0.0647448
0.0649925
0.0652394
0.06547
0.0656883
0.0658966
0.0660853
0.0662657
0.0664227
0.0665708
0.0666932
0.0668046
0.0668881
0.0669583
0.0669962
0.0670138
0.0670171
0.0669857
0.0669288
0.0668439
0.0667262
0.0665796
0.066394
0.066178
0.0659169
0.0656224
0.0652784
0.0648996
0.0644738
0.0640076
0.063493
0.0629341
0.0623235
0.0616646
0.0609559
0.0601948
0.0593859
0.0585233
0.0576146
0.056654
0.0556486
0.0545953
0.0534999
0.0523614
0.0511845
0.0499702
0.0487225
0.0474438
0.046137
0.0448067
0.0434549
0.0420918
0.0407142
0.0393327
0.0379448
0.0365601
0.0351771
0.0338039
0.0324402
0.0310922
0.029762
0.0284528
0.0271683
0.0259098
0.0246814
0.0234826
0.0223162
0.0211747
0.0200677
0.0189886
0.0179455
0.0169337
0.015959
0.015018
0.0141129
0.013241
0.012399
0.0115872
0.0108041
0.0100509
0.00932614
0.0086329
0.00798081
0.00736807
0.00681874
0.00639781
0.006207
0.00616741
0.0063528
0.0626096
0.0631862
0.0634417
0.0639304
0.0642539
0.0647181
0.0650788
0.0655226
0.0659048
0.0663332
0.0667263
0.0671418
0.0675387
0.0679438
0.0683404
0.0687355
0.069128
0.0695128
0.0698977
0.0702711
0.0706455
0.0710063
0.0713674
0.0717133
0.0720577
0.0723857
0.0727112
0.0730211
0.0733236
0.0736125
0.0738914
0.074155
0.0744064
0.0746385
0.0748573
0.0750519
0.0752305
0.0753807
0.0755108
0.0756107
0.0756801
0.0757127
0.075723
0.0756972
0.0756185
0.0755094
0.0753416
0.0751364
0.0748687
0.0745543
0.0741749
0.0737397
0.073237
0.0726713
0.0720363
0.0713343
0.0705592
0.069714
0.0687975
0.0678059
0.0667459
0.0656093
0.0644093
0.0631368
0.0618018
0.0603998
0.0589382
0.0574161
0.0558388
0.0542087
0.0525291
0.0508053
0.0490398
0.047238
0.0454026
0.0435383
0.0416482
0.039737
0.0378155
0.0358801
0.0339404
0.0319944
0.0300519
0.0281129
0.0261886
0.0242808
0.0224027
0.0205562
0.0187578
0.016995
0.0152934
0.0136519
0.012098
0.0106385
0.00931221
0.00809994
0.00708873
0.00635337
0.00602826
0.00599968
0.0599343
0.0605101
0.0607705
0.0612517
0.0615835
0.062042
0.0624132
0.0628573
0.0632538
0.0636906
0.064104
0.0645372
0.0649617
0.0653938
0.0658261
0.0662588
0.0666964
0.0671301
0.067571
0.0680055
0.0684478
0.0688827
0.0693249
0.0697589
0.0701983
0.0706278
0.0710595
0.0714788
0.0718945
0.0723043
0.0727143
0.0731206
0.0735259
0.0739259
0.074326
0.0747193
0.0751131
0.0755009
0.075886
0.0762604
0.076628
0.0769845
0.0773318
0.0776633
0.0779803
0.0782823
0.0785621
0.078825
0.0790606
0.0792746
0.0794575
0.0796131
0.0797335
0.0798153
0.0798536
0.0798653
0.0798344
0.0797464
0.0796198
0.0794265
0.0791842
0.0788679
0.0784868
0.0780241
0.0774789
0.0768407
0.0761122
0.0752841
0.0743539
0.0733152
0.0721661
0.0709006
0.0695225
0.0680264
0.0664202
0.064701
0.0628785
0.0609515
0.0589295
0.056811
0.0546033
0.0523034
0.0499153
0.0474346
0.0448631
0.0421958
0.0394368
0.0365806
0.0336393
0.0306262
0.0275587
0.0244465
0.0213313
0.018252
0.0153392
0.0125594
0.0101618
0.00809341
0.00662963
0.00592518
0.0546982
0.0551874
0.0554104
0.0558144
0.0560891
0.0564773
0.0567832
0.0571608
0.0574893
0.0578621
0.058208
0.0585795
0.0589386
0.0593109
0.0596802
0.0600549
0.0604322
0.0608101
0.0611936
0.0615748
0.0619629
0.0623472
0.0627387
0.0631258
0.0635195
0.0639083
0.0643027
0.0646929
0.0650896
0.0654855
0.0658874
0.0662907
0.0666997
0.0671099
0.0675264
0.0679432
0.0683651
0.0687856
0.0692099
0.0696358
0.0700647
0.0704947
0.0709263
0.0713575
0.0717891
0.072219
0.0726465
0.073071
0.073491
0.0739074
0.0743149
0.0747124
0.0750949
0.075458
0.0757954
0.0760987
0.0763495
0.0765948
0.0768061
0.0769932
0.077149
0.0772726
0.0773635
0.0774221
0.0774505
0.0774609
0.0774225
0.0773249
0.0771806
0.0769675
0.0766986
0.0763507
0.0759286
0.0754127
0.0748013
0.0740739
0.0732227
0.0722269
0.0710739
0.0697437
0.0682228
0.0664939
0.0645474
0.0623717
0.0599628
0.0573136
0.0544289
0.0513032
0.0479368
0.0443497
0.0405013
0.0363761
0.031967
0.0273015
0.0225567
0.0182457
0.0144623
0.0116398
0.00942719
0.00728977
0.0482707
0.0486005
0.0487511
0.0490271
0.0491986
0.049471
0.0496612
0.0499267
0.0501341
0.0503946
0.0506176
0.0508755
0.0511112
0.0513681
0.0516136
0.051871
0.0521241
0.0523827
0.0526417
0.052902
0.0531652
0.0534274
0.0536938
0.0539582
0.0542274
0.0544943
0.0547662
0.0550367
0.0553135
0.0555901
0.0558727
0.0561565
0.0564462
0.0567373
0.0570343
0.0573329
0.0576372
0.0579439
0.0582568
0.0585732
0.0588953
0.0592215
0.0595532
0.0598894
0.0602314
0.0605784
0.0609315
0.0612903
0.0616516
0.0620147
0.0623771
0.0627376
0.063094
0.0634447
0.0637881
0.0641227
0.0644516
0.0647861
0.0651117
0.0654388
0.0657532
0.066057
0.0663338
0.0665741
0.0667764
0.0669599
0.0671202
0.0672574
0.0673701
0.0674433
0.0674778
0.0674863
0.0674322
0.067314
0.0671252
0.0668465
0.0664704
0.0659754
0.0653511
0.0645761
0.0636385
0.0625187
0.0612059
0.0596848
0.0579482
0.0559879
0.0537774
0.0512884
0.048462
0.0451209
0.041294
0.0368934
0.0321749
0.0272979
0.0224289
0.0180347
0.0145975
0.0122482
0.0107244
0.0092271
0.0297202
0.0297673
0.0297756
0.0297784
0.0297699
0.0297668
0.029753
0.0297473
0.0297318
0.0297249
0.029709
0.0297015
0.0296853
0.0296772
0.0296609
0.0296512
0.0296348
0.0296228
0.029606
0.0295914
0.0295738
0.0295565
0.0295376
0.0295179
0.0294975
0.0294755
0.0294533
0.0294292
0.0294052
0.0293791
0.029353
0.0293246
0.0292962
0.0292653
0.0292342
0.0292009
0.0291671
0.0291313
0.0290949
0.0290565
0.0290172
0.028976
0.0289336
0.028889
0.0288429
0.0287942
0.0287431
0.0286885
0.0286297
0.0285662
0.0284974
0.0284228
0.0283418
0.0282544
0.0281604
0.02806
0.0279544
0.0278423
0.0277203
0.0275892
0.0274427
0.0272806
0.027095
0.0268837
0.0266503
0.0264083
0.0261507
0.0258822
0.0255991
0.025299
0.0249855
0.024655
0.0243003
0.0239243
0.023523
0.0230924
0.0226336
0.0221394
0.0216129
0.0210475
0.0204456
0.0198036
0.0191227
0.0184015
0.0176399
0.0168343
0.0159694
0.0150194
0.0138989
0.0125822
0.0109979
0.00906061
0.00688284
0.00482037
0.00301033
0.00231639
0.00259998
0.00527269
0.00861893
0.00984464
0.00946189
0.00466671
0.00402628
0.00390229
0.00387531
0.00389671
0.0038113
0.00377161
0.00375629
0.00375338
0.0037791
0.00383851
0.00409186
0.00465852
0.00542832
0.006524
0.00691391
0.00691
0.00581279
0.00342581
0.00776125
0.00467644
0.00429141
0.00419
0.00416269
0.00403937
0.00395788
0.00392337
0.00391198
0.00391586
0.00396126
0.0041285
0.00451308
0.00509268
0.00615315
0.00684504
0.0069951
0.00677741
0.00524239
0.0028025
0.00621213
0.00478168
0.00459954
0.00453329
0.00436328
0.00425942
0.00419239
0.00416474
0.00415588
0.00416213
0.00427498
0.00452063
0.00499303
0.00590747
0.00676076
0.00704089
0.0070443
0.00650869
0.00462771
0.00216489
0.00579219
0.00511055
0.00502764
0.00479132
0.00463257
0.00451564
0.00445468
0.00442766
0.00442235
0.00450895
0.00471744
0.00513027
0.00596816
0.00681579
0.00716929
0.00723708
0.00699241
0.00607679
0.00383895
0.00154903
0.00591535
0.0054786
0.00534024
0.00504884
0.00493251
0.00485472
0.00483388
0.00485871
0.00496758
0.00522396
0.00560631
0.00640191
0.00712283
0.00745293
0.00754894
0.00740882
0.006808
0.00545828
0.00301089
0.0010051
0.0062821
0.00593009
0.0057951
0.00560427
0.0055682
0.00556637
0.00568317
0.00589261
0.00628397
0.00675629
0.00741111
0.00792071
0.0081534
0.00820625
0.00796286
0.00734999
0.00642096
0.00467928
0.00193392
0.000538499
0.00720459
0.00707288
0.00705301
0.00706149
0.00732714
0.00762598
0.00815119
0.0088114
0.00948716
0.00971242
0.00979208
0.00971669
0.00938108
0.00884637
0.00805151
0.00711962
0.00572373
0.0035333
0.00115531
0.000240245
0.0108192
0.0112319
0.0117225
0.0123449
0.0132798
0.0142614
0.0147424
0.0148997
0.0139587
0.0133257
0.0123126
0.0115092
0.0103204
0.00921439
0.00788055
0.0064961
0.00448614
0.0022808
0.000658934
9.96253e-05
0.0251577
0.0256205
0.0258174
0.0258096
0.0251431
0.0237666
0.0221428
0.019893
0.0181892
0.0162433
0.0144964
0.0126695
0.0107817
0.00897858
0.00712779
0.00508436
0.00305924
0.00147002
0.000469214
5.80217e-05
0.0410418
0.0392701
0.0373106
0.0345353
0.032018
0.0284517
0.0258528
0.0226973
0.0203394
0.0174664
0.0152396
0.0125
0.0102087
0.0074358
0.00530738
0.00335464
0.00210557
0.00110148
0.000450696
8.46549e-05
0.0378844
0.0363446
0.0347868
0.0323127
0.030181
0.0268871
0.0245043
0.0216099
0.0194703
0.0168229
0.0148459
0.0122564
0.0103038
0.00754747
0.0055424
0.00335117
0.00209586
0.00101206
0.000377527
7.13438e-05
0.0199622
0.0208979
0.0214196
0.0216806
0.0217686
0.021073
0.0198626
0.0180315
0.0167257
0.0149596
0.0137578
0.0119551
0.010617
0.00879427
0.00721709
0.00516306
0.00305396
0.00133448
0.000376791
5.33417e-05
0.009438
0.00963034
0.010036
0.0104984
0.011285
0.012196
0.0129897
0.0133029
0.0131407
0.0122169
0.0117731
0.0108462
0.0100261
0.00897245
0.00781707
0.00648299
0.00451732
0.002241
0.000590496
6.29086e-05
0.00684001
0.00665601
0.00659982
0.00657212
0.00673939
0.00697766
0.00739929
0.00798663
0.00876641
0.00914167
0.00932421
0.0093944
0.00913989
0.00870212
0.00794667
0.00707408
0.00569563
0.00352312
0.00107999
0.000143293
0.00610039
0.00576538
0.00563408
0.0054309
0.00537976
0.00536504
0.00544409
0.00561434
0.0059705
0.00641957
0.00710528
0.00771135
0.00800325
0.00808406
0.00792206
0.00731004
0.00639081
0.00467273
0.00191927
0.000436199
0.00578126
0.00538009
0.00525068
0.00496691
0.00485009
0.00476648
0.00474013
0.00475012
0.00484703
0.00508371
0.00546017
0.00622442
0.00701514
0.00737926
0.00748448
0.00738626
0.006796
0.00545622
0.00302362
0.000934847
0.00567657
0.00501887
0.00494588
0.00474165
0.00458339
0.00447175
0.00440577
0.00437567
0.00436646
0.00444507
0.00465606
0.00505176
0.0058671
0.00676666
0.00714725
0.00722003
0.00698962
0.00608166
0.00386881
0.0015224
0.00617308
0.00473031
0.00453121
0.00446255
0.00432224
0.00421529
0.00415243
0.00412619
0.00411826
0.00412598
0.00423537
0.00448585
0.00494531
0.00584072
0.00673371
0.00703518
0.0070429
0.00651657
0.00465314
0.00216974
0.00780136
0.00465207
0.00425829
0.00414961
0.00411557
0.00401862
0.00393196
0.00389573
0.00388418
0.00388817
0.0039363
0.00409971
0.00448926
0.00507163
0.00612136
0.00684058
0.00700063
0.00678829
0.00526792
0.00282873
0.00947111
0.00464921
0.00399337
0.00387023
0.0038417
0.00385463
0.00379259
0.00375105
0.00373645
0.00373373
0.00376065
0.00382424
0.00406609
0.00462787
0.00541102
0.00651446
0.00691698
0.00692009
0.00583673
0.00346056
0.00397117
0.00375019
0.00374679
0.0037468
0.00374652
0.00374628
0.00374612
0.00374604
0.003746
0.00374598
0.00374598
0.003746
0.00374604
0.00374612
0.00374628
0.00374652
0.0037468
0.00374679
0.00375019
0.00397117
0.00441492
0.00375347
0.00374141
0.00374096
0.00374056
0.00374012
0.00373987
0.00373975
0.00373969
0.00373966
0.00373966
0.00373969
0.00373975
0.00373987
0.00374012
0.00374056
0.00374096
0.00374141
0.00375347
0.00441492
0.0048594
0.00376059
0.00373286
0.00373263
0.00373284
0.00373273
0.00373256
0.00373242
0.00373235
0.00373231
0.00373231
0.00373235
0.00373242
0.00373256
0.00373273
0.00373284
0.00373263
0.00373286
0.00376059
0.0048594
0.00530174
0.00377206
0.0037243
0.00372396
0.00372492
0.00372524
0.00372525
0.00372519
0.00372514
0.00372512
0.00372512
0.00372514
0.00372519
0.00372525
0.00372524
0.00372492
0.00372396
0.0037243
0.00377206
0.00530174
0.00573923
0.00378544
0.00371551
0.00371483
0.00371665
0.00371758
0.00371789
0.00371795
0.00371795
0.00371795
0.00371795
0.00371795
0.00371795
0.00371789
0.00371758
0.00371665
0.00371483
0.00371551
0.00378544
0.00573924
0.00617064
0.00379766
0.00370577
0.0037051
0.003708
0.00370969
0.00371043
0.0037107
0.00371078
0.0037108
0.0037108
0.00371078
0.0037107
0.00371043
0.00370969
0.003708
0.0037051
0.00370577
0.00379767
0.00617064
0.00659186
0.00380847
0.00369498
0.00369474
0.00369893
0.00370155
0.00370284
0.0037034
0.00370361
0.00370368
0.00370368
0.00370361
0.0037034
0.00370284
0.00370155
0.00369893
0.00369474
0.00369498
0.00380847
0.00659187
0.00700079
0.00381672
0.00368272
0.00368362
0.00368941
0.00369311
0.00369508
0.00369602
0.00369642
0.00369656
0.00369656
0.00369642
0.00369602
0.00369508
0.00369311
0.00368941
0.00368362
0.00368272
0.00381672
0.00700079
0.00739333
0.00382334
0.00366915
0.00367174
0.00367942
0.00368438
0.00368714
0.00368854
0.00368919
0.00368943
0.00368943
0.00368919
0.00368854
0.00368714
0.00368438
0.00367942
0.00367174
0.00366915
0.00382334
0.00739333
0.00776772
0.00382734
0.00365404
0.00365903
0.00366893
0.00367532
0.00367898
0.00368095
0.0036819
0.00368228
0.00368228
0.0036819
0.00368095
0.00367898
0.00367532
0.00366893
0.00365903
0.00365404
0.00382734
0.00776772
0.00812026
0.00383021
0.00363764
0.00364552
0.00365794
0.00366592
0.00367061
0.00367321
0.00367453
0.00367507
0.00367507
0.00367453
0.00367321
0.00367061
0.00366592
0.00365794
0.00364552
0.00363764
0.00383021
0.00812026
0.00845033
0.00383068
0.00361989
0.00363122
0.00364645
0.0036562
0.00366201
0.00366531
0.00366705
0.00366779
0.00366779
0.00366705
0.00366531
0.00366201
0.0036562
0.00364645
0.00363122
0.00361989
0.00383069
0.00845032
0.00875522
0.00383018
0.00360091
0.00361613
0.00363446
0.00364613
0.00365316
0.00365725
0.00365946
0.00366041
0.00366041
0.00365946
0.00365725
0.00365316
0.00364613
0.00363446
0.00361613
0.00360091
0.00383019
0.00875522
0.00903546
0.00382886
0.00358085
0.00360032
0.00362199
0.00363573
0.00364408
0.00364901
0.00365173
0.00365292
0.00365292
0.00365173
0.00364901
0.00364408
0.00363573
0.00362199
0.00360032
0.00358085
0.00382887
0.00903545
0.00928897
0.00382648
0.00355981
0.0035838
0.00360904
0.003625
0.00363475
0.00364059
0.00364385
0.00364531
0.00364531
0.00364385
0.00364059
0.00363475
0.003625
0.00360904
0.0035838
0.00355981
0.00382648
0.00928896
0.00951739
0.00382338
0.00353793
0.00356663
0.00359565
0.00361394
0.00362518
0.00363197
0.00363582
0.00363755
0.00363755
0.00363582
0.00363197
0.00362518
0.00361394
0.00359565
0.00356664
0.00353793
0.00382339
0.00951738
0.00971928
0.00382011
0.00351531
0.00354885
0.00358181
0.00360255
0.00361535
0.00362316
0.00362762
0.00362964
0.00362964
0.00362762
0.00362316
0.00361535
0.00360255
0.00358181
0.00354885
0.00351531
0.00382011
0.00971927
0.00989731
0.00381663
0.00349216
0.00353055
0.00356757
0.00359087
0.00360529
0.00361414
0.00361924
0.00362157
0.00362157
0.00361924
0.00361414
0.00360529
0.00359087
0.00356758
0.00353055
0.00349216
0.00381663
0.0098973
0.0100502
0.00381348
0.0034685
0.0035117
0.00355293
0.00357888
0.00359499
0.00360492
0.00361068
0.00361332
0.00361332
0.00361068
0.00360492
0.00359499
0.00357888
0.00355293
0.00351171
0.0034685
0.00381348
0.0100502
0.0101815
0.00381056
0.00344462
0.00349247
0.00353795
0.0035666
0.00358445
0.0035955
0.00360193
0.0036049
0.0036049
0.00360193
0.0035955
0.00358445
0.0035666
0.00353795
0.00349247
0.00344462
0.00381057
0.0101815
0.0102898
0.00380853
0.00342046
0.00347279
0.0035226
0.00355404
0.00357367
0.00358586
0.003593
0.0035963
0.0035963
0.003593
0.00358586
0.00357367
0.00355404
0.0035226
0.00347279
0.00342046
0.00380853
0.0102897
0.0103794
0.00380713
0.00339643
0.00345287
0.00350698
0.00354123
0.00356267
0.00357603
0.00358387
0.00358751
0.00358751
0.00358387
0.00357603
0.00356267
0.00354123
0.00350698
0.00345287
0.00339643
0.00380714
0.0103794
0.0104486
0.00380736
0.0033723
0.00343259
0.00349103
0.00352816
0.00355145
0.003566
0.00357455
0.00357853
0.00357853
0.00357455
0.003566
0.00355145
0.00352816
0.00349103
0.00343259