/*--------------------------------*- C++ -*----------------------------------*\
| =========                 |                                                 |
| \\      /  F ield         | OpenFOAM: The Open Source CFD Toolbox           |
|  \\    /   O peration     | Version:  2.1.0                                 |
|   \\  /    A nd           | Web:      www.OpenFOAM.org                      |
|    \\/     M anipulation  |                                                 |
\*---------------------------------------------------------------------------*/
FoamFile
{
    version     2.0;
    format      ascii;
    class       volScalarField;
    location    "0.29";
    object      nut;
}
// * * * * * * * * * * * * * * * * * * * * * * * * * * * * * * * * * * * * * //

dimensions      [0 2 -1 0 0 0 0];

internalField   nonuniform List<scalar> 
6400
(
6.91358e-06
6.9404e-06
6.95453e-06
6.97478e-06
6.99302e-06
7.01518e-06
7.03504e-06
7.05869e-06
7.07992e-06
7.10477e-06
7.12744e-06
7.15321e-06
7.17736e-06
7.20395e-06
7.22964e-06
7.2571e-06
7.2843e-06
7.3127e-06
7.3413e-06
7.37067e-06
7.40054e-06
7.43085e-06
7.46185e-06
7.49309e-06
7.52511e-06
7.55726e-06
7.59021e-06
7.62335e-06
7.65645e-06
7.68991e-06
7.72416e-06
7.75879e-06
7.7937e-06
7.82869e-06
7.86403e-06
7.89959e-06
7.93558e-06
7.9716e-06
8.00776e-06
8.04387e-06
8.08015e-06
8.11611e-06
8.15208e-06
8.18768e-06
8.22292e-06
8.25764e-06
8.29183e-06
8.32526e-06
8.35798e-06
8.38968e-06
8.41993e-06
8.44799e-06
8.47421e-06
8.49989e-06
8.52459e-06
8.54982e-06
8.57366e-06
8.59745e-06
8.62059e-06
8.64346e-06
8.66641e-06
8.68894e-06
8.71147e-06
8.73355e-06
8.75529e-06
8.77713e-06
8.798e-06
8.8172e-06
8.8363e-06
8.85274e-06
8.86889e-06
8.88206e-06
8.89471e-06
8.90479e-06
8.91426e-06
8.92272e-06
8.93147e-06
8.94192e-06
8.95562e-06
8.97521e-06
9.00269e-06
9.03987e-06
9.08442e-06
9.12301e-06
9.1758e-06
9.23792e-06
9.30598e-06
9.37316e-06
9.41555e-06
9.39628e-06
9.22986e-06
8.76041e-06
7.74153e-06
5.97953e-06
3.57719e-06
2.28947e-06
2.39415e-06
3.77253e-06
3.8706e-06
4.17859e-06
7.39431e-05
7.44585e-05
7.46007e-05
7.49439e-05
7.5103e-05
7.54032e-05
7.55871e-05
7.58603e-05
7.60644e-05
7.63182e-05
7.65338e-05
7.67719e-05
7.69924e-05
7.7218e-05
7.74386e-05
7.76537e-05
7.78701e-05
7.80749e-05
7.82837e-05
7.84781e-05
7.86772e-05
7.88601e-05
7.90463e-05
7.92164e-05
7.9388e-05
7.9544e-05
7.96983e-05
7.98379e-05
7.99737e-05
8.00949e-05
8.02102e-05
8.03104e-05
8.04031e-05
8.04812e-05
8.05499e-05
8.06027e-05
8.0647e-05
8.06777e-05
8.06968e-05
8.06984e-05
8.06866e-05
8.06552e-05
8.06064e-05
8.05357e-05
8.04424e-05
8.03235e-05
8.01775e-05
8.00001e-05
7.97915e-05
7.95492e-05
7.92811e-05
7.89728e-05
7.85081e-05
7.78821e-05
7.72214e-05
7.65296e-05
7.57988e-05
7.50348e-05
7.42303e-05
7.33862e-05
7.2509e-05
7.1596e-05
7.06462e-05
6.96606e-05
6.86301e-05
6.75663e-05
6.64682e-05
6.53103e-05
6.41123e-05
6.28551e-05
6.1548e-05
6.01778e-05
5.87509e-05
5.72565e-05
5.57007e-05
5.4076e-05
5.23875e-05
5.06333e-05
4.88174e-05
4.69438e-05
4.50169e-05
4.30459e-05
4.10405e-05
3.89913e-05
3.68585e-05
3.4656e-05
3.23587e-05
2.99694e-05
2.74648e-05
2.48494e-05
2.21247e-05
1.93316e-05
1.65496e-05
1.39386e-05
1.14742e-05
9.22229e-06
7.46777e-06
6.27733e-06
5.67201e-06
6.86729e-06
0.000113046
0.000113399
0.000113548
0.000113743
0.0001139
0.000114053
0.000114213
0.000114339
0.000114493
0.000114596
0.000114735
0.000114813
0.00011493
0.000114984
0.000115072
0.0001151
0.000115154
0.00011515
0.000115165
0.000115126
0.000115103
0.00011503
0.000114964
0.000114851
0.000114739
0.000114588
0.000114429
0.000114234
0.000114027
0.000113786
0.00011353
0.000113241
0.000112934
0.000112597
0.000112238
0.000111849
0.00011143
0.000110978
0.000110502
0.00010999
0.00010945
0.000108874
0.000108263
0.000107614
0.000106924
0.00010619
0.000105408
0.000104572
0.00010368
0.000102444
0.000101011
9.95355e-05
9.80314e-05
9.64958e-05
9.4926e-05
9.33285e-05
9.16981e-05
9.00396e-05
8.83654e-05
8.66702e-05
8.49287e-05
8.31659e-05
8.13663e-05
7.95417e-05
7.76842e-05
7.58029e-05
7.38902e-05
7.19548e-05
6.99925e-05
6.80053e-05
6.59926e-05
6.39523e-05
6.18862e-05
5.97887e-05
5.76635e-05
5.55036e-05
5.33137e-05
5.10887e-05
4.8833e-05
4.65469e-05
4.42355e-05
4.19044e-05
3.95606e-05
3.72133e-05
3.4889e-05
3.25918e-05
3.03406e-05
2.81392e-05
2.59978e-05
2.3916e-05
2.18753e-05
1.98871e-05
1.79376e-05
1.59298e-05
1.39064e-05
1.19016e-05
1.01106e-05
8.60195e-06
8.11655e-06
1.12967e-05
0.000134176
0.000134038
0.000133998
0.00013385
0.00013383
0.000133652
0.000133619
0.00013342
0.000133357
0.000133136
0.000133032
0.000132783
0.00013263
0.000132349
0.000132139
0.000131817
0.000131546
0.000131172
0.000130828
0.000130207
0.000129455
0.000128647
0.000127829
0.000126966
0.00012608
0.000125152
0.000124198
0.000123202
0.000122181
0.000121117
0.000120028
0.000118898
0.000117741
0.000116546
0.000115322
0.000114064
0.000112779
0.000111455
0.000110106
0.000108723
0.000107311
0.000105871
0.000104398
0.0001029
0.00010137
9.98155e-05
9.82298e-05
9.66137e-05
9.49862e-05
9.33457e-05
9.16726e-05
8.99917e-05
8.82839e-05
8.65679e-05
8.48237e-05
8.30665e-05
8.12814e-05
7.94789e-05
7.76505e-05
7.58007e-05
7.39319e-05
7.20426e-05
7.01366e-05
6.82118e-05
6.62728e-05
6.43196e-05
6.23555e-05
6.03856e-05
5.841e-05
5.64372e-05
5.44679e-05
5.25102e-05
5.05672e-05
4.86444e-05
4.67471e-05
4.48779e-05
4.30433e-05
4.12433e-05
3.9483e-05
3.776e-05
3.60763e-05
3.44273e-05
3.28055e-05
3.12096e-05
2.9649e-05
2.80847e-05
2.65363e-05
2.49823e-05
2.34268e-05
2.18537e-05
2.02672e-05
1.86558e-05
1.70174e-05
1.53261e-05
1.3597e-05
1.19188e-05
1.04741e-05
9.75575e-06
1.19045e-05
1.20533e-05
0.000133249
0.000133509
0.000133234
0.00013319
0.000132529
0.000132096
0.000131332
0.000130724
0.000129931
0.000129224
0.000128409
0.000127626
0.000126778
0.000125925
0.000125033
0.000124115
0.00012317
0.000122186
0.00012118
0.000120137
0.000119081
0.000117971
0.000116846
0.000115679
0.00011449
0.000113268
0.000112024
0.000110745
0.00010945
0.000108118
0.000106772
0.000105394
0.000104
0.000102579
0.000101132
9.96655e-05
9.81989e-05
9.66972e-05
9.51822e-05
9.36488e-05
9.20975e-05
9.0535e-05
8.89518e-05
8.73626e-05
8.57543e-05
8.41413e-05
8.25153e-05
8.08841e-05
7.92485e-05
7.76054e-05
7.59615e-05
7.43082e-05
7.2651e-05
7.09929e-05
6.9333e-05
6.76784e-05
6.60236e-05
6.43778e-05
6.27367e-05
6.11073e-05
5.94893e-05
5.78849e-05
5.62982e-05
5.47278e-05
5.3179e-05
5.16491e-05
5.01424e-05
4.86575e-05
4.71951e-05
4.57527e-05
4.43315e-05
4.29402e-05
4.1557e-05
4.02003e-05
3.88531e-05
3.75247e-05
3.62011e-05
3.48887e-05
3.35741e-05
3.22615e-05
3.09415e-05
2.96165e-05
2.82819e-05
2.69443e-05
2.5598e-05
2.4253e-05
2.29092e-05
2.15695e-05
2.02454e-05
1.89413e-05
1.76691e-05
1.64318e-05
1.52475e-05
1.41075e-05
1.30549e-05
1.22522e-05
1.2077e-05
1.37409e-05
1.37776e-05
1.4101e-05
0.000120183
0.000119782
0.0001194
0.000119
0.000118228
0.000117525
0.000116621
0.000115776
0.000114821
0.000113898
0.000112912
0.000111928
0.000110908
0.00010987
0.000108815
0.00010773
0.000106637
0.000105509
0.000104367
0.000103208
0.000102056
0.000100856
9.96407e-05
9.84059e-05
9.71414e-05
9.58666e-05
9.45785e-05
9.32677e-05
9.19577e-05
9.06188e-05
8.92846e-05
8.79269e-05
8.65703e-05
8.51987e-05
8.38254e-05
8.24439e-05
8.1062e-05
7.9672e-05
7.82866e-05
7.68952e-05
7.55102e-05
7.41236e-05
7.2743e-05
7.13663e-05
6.99952e-05
6.86317e-05
6.72756e-05
6.59281e-05
6.45909e-05
6.32605e-05
6.19445e-05
6.06347e-05
5.93407e-05
5.80568e-05
5.67859e-05
5.55291e-05
5.42912e-05
5.30581e-05
5.18449e-05
5.06389e-05
4.94486e-05
4.82651e-05
4.70955e-05
4.59315e-05
4.47793e-05
4.36308e-05
4.2492e-05
4.13568e-05
4.02292e-05
3.91063e-05
3.79917e-05
3.68851e-05
3.57857e-05
3.46955e-05
3.36113e-05
3.25385e-05
3.14739e-05
3.04257e-05
2.93893e-05
2.83703e-05
2.73668e-05
2.63827e-05
2.5417e-05
2.44728e-05
2.35501e-05
2.26463e-05
2.17618e-05
2.09004e-05
2.00709e-05
1.9277e-05
1.85325e-05
1.78483e-05
1.72501e-05
1.67814e-05
1.65601e-05
1.66181e-05
1.60488e-05
1.5807e-05
1.57819e-05
1.31956e-05
0.000105048
0.000104101
0.000103666
0.000102982
0.000102247
0.000101386
0.000100514
9.95645e-05
9.86264e-05
9.76332e-05
9.66549e-05
9.56232e-05
9.46072e-05
9.35413e-05
9.24945e-05
9.14004e-05
9.03276e-05
8.9212e-05
8.8122e-05
8.6996e-05
8.58985e-05
8.47649e-05
8.36559e-05
8.25247e-05
8.14155e-05
8.02932e-05
7.91924e-05
7.80799e-05
7.69926e-05
7.58919e-05
7.48182e-05
7.37332e-05
7.2671e-05
7.16029e-05
7.0552e-05
6.94981e-05
6.84574e-05
6.74157e-05
6.63928e-05
6.53615e-05
6.43503e-05
6.33327e-05
6.23317e-05
6.13264e-05
6.03347e-05
5.93409e-05
5.83582e-05
5.73758e-05
5.64034e-05
5.54317e-05
5.44718e-05
5.35136e-05
5.25694e-05
5.16239e-05
5.06882e-05
4.97562e-05
4.8835e-05
4.79196e-05
4.70155e-05
4.61196e-05
4.52379e-05
4.43661e-05
4.35127e-05
4.26706e-05
4.18467e-05
4.10408e-05
4.02561e-05
3.949e-05
3.87464e-05
3.80241e-05
3.73224e-05
3.66412e-05
3.59797e-05
3.53386e-05
3.4715e-05
3.41093e-05
3.35163e-05
3.29369e-05
3.20457e-05
3.11168e-05
3.01928e-05
2.928e-05
2.83729e-05
2.74784e-05
2.65913e-05
2.57182e-05
2.48557e-05
2.40098e-05
2.31811e-05
2.23756e-05
2.15999e-05
2.08612e-05
2.01682e-05
1.95405e-05
1.89869e-05
1.85991e-05
1.83365e-05
1.82418e-05
1.89286e-05
1.4922e-05
9.36424e-05
9.22339e-05
9.18653e-05
9.10406e-05
9.04474e-05
8.95505e-05
8.88373e-05
8.7912e-05
8.71416e-05
8.62239e-05
8.5426e-05
8.45078e-05
8.36847e-05
8.27647e-05
8.1928e-05
8.1005e-05
8.01591e-05
7.92313e-05
7.83797e-05
7.74484e-05
7.6591e-05
7.53635e-05
7.40836e-05
7.27635e-05
7.15262e-05
7.02571e-05
6.9071e-05
6.78616e-05
6.67399e-05
6.55962e-05
6.45459e-05
6.34739e-05
6.24955e-05
6.14978e-05
6.05932e-05
5.96716e-05
5.88413e-05
5.79949e-05
5.72371e-05
5.64607e-05
5.5765e-05
5.50534e-05
5.44158e-05
5.37645e-05
5.31805e-05
5.25842e-05
5.20488e-05
5.15019e-05
5.10069e-05
5.05039e-05
5.00459e-05
4.95749e-05
4.91415e-05
4.86974e-05
4.82839e-05
4.78576e-05
4.74553e-05
4.7036e-05
4.66342e-05
4.6213e-05
4.58041e-05
4.53723e-05
4.49398e-05
4.44976e-05
4.40685e-05
4.35969e-05
4.31523e-05
4.26752e-05
4.22205e-05
4.17368e-05
4.12717e-05
4.07813e-05
4.03063e-05
3.98087e-05
3.93233e-05
3.88171e-05
3.83197e-05
3.78034e-05
3.72918e-05
3.67596e-05
3.62228e-05
3.56608e-05
3.50877e-05
3.44845e-05
3.38625e-05
3.32048e-05
3.25212e-05
3.17977e-05
3.10443e-05
3.02536e-05
2.94407e-05
2.86115e-05
2.77928e-05
2.70088e-05
2.63485e-05
2.58604e-05
2.54719e-05
2.56039e-05
2.61125e-05
2.04681e-05
7.82176e-05
7.64488e-05
7.5723e-05
7.43401e-05
7.35827e-05
7.22529e-05
7.14664e-05
7.01848e-05
6.93807e-05
6.81469e-05
6.73368e-05
6.61526e-05
6.53484e-05
6.42187e-05
6.34345e-05
6.23651e-05
6.16107e-05
6.06087e-05
5.98942e-05
5.89659e-05
5.83018e-05
5.74544e-05
5.68563e-05
5.61018e-05
5.55768e-05
5.49139e-05
5.44611e-05
5.3884e-05
5.35011e-05
5.30029e-05
5.26833e-05
5.22586e-05
5.19975e-05
5.16421e-05
5.14309e-05
5.11375e-05
5.09677e-05
5.07287e-05
5.05922e-05
5.03961e-05
5.02863e-05
5.01238e-05
5.0035e-05
4.98991e-05
4.98259e-05
4.97051e-05
4.9637e-05
4.95611e-05
4.94909e-05
4.93991e-05
4.93326e-05
4.9256e-05
4.92019e-05
4.91335e-05
4.90895e-05
4.90299e-05
4.89949e-05
4.89475e-05
4.89259e-05
4.88924e-05
4.8885e-05
4.88668e-05
4.88734e-05
4.88703e-05
4.88903e-05
4.89038e-05
4.89409e-05
4.897e-05
4.90222e-05
4.90678e-05
4.91349e-05
4.91965e-05
4.92776e-05
4.93545e-05
4.94479e-05
4.95374e-05
4.96396e-05
4.97369e-05
4.98426e-05
4.9941e-05
5.00415e-05
5.01297e-05
5.02115e-05
5.02727e-05
5.03153e-05
5.03245e-05
5.02989e-05
5.02236e-05
5.00951e-05
4.99009e-05
4.964e-05
4.93052e-05
4.89058e-05
4.84514e-05
4.79713e-05
4.7544e-05
4.73692e-05
4.7442e-05
4.79314e-05
3.96988e-05
6.835e-05
6.68967e-05
6.63091e-05
6.51917e-05
6.46192e-05
6.3548e-05
6.29914e-05
6.19727e-05
6.14368e-05
6.04759e-05
5.99672e-05
5.90702e-05
5.85966e-05
5.77685e-05
5.73366e-05
5.65809e-05
5.6195e-05
5.5513e-05
5.51761e-05
5.45684e-05
5.42826e-05
5.37486e-05
5.35133e-05
5.30492e-05
5.28616e-05
5.24624e-05
5.23175e-05
5.19834e-05
5.18595e-05
5.15966e-05
5.14841e-05
5.12795e-05
5.11798e-05
5.10485e-05
5.09576e-05
5.08711e-05
5.07789e-05
5.07274e-05
5.06746e-05
5.0635e-05
5.06139e-05
5.05895e-05
5.05915e-05
5.05863e-05
5.06115e-05
5.06256e-05
5.0673e-05
5.07076e-05
5.07727e-05
5.08287e-05
5.09124e-05
5.0991e-05
5.10964e-05
5.11983e-05
5.13255e-05
5.14519e-05
5.16016e-05
5.17528e-05
5.19252e-05
5.21011e-05
5.22977e-05
5.24988e-05
5.27219e-05
5.29498e-05
5.32003e-05
5.34559e-05
5.37348e-05
5.40194e-05
5.43273e-05
5.46423e-05
5.49809e-05
5.53286e-05
5.57003e-05
5.60832e-05
5.64907e-05
5.69118e-05
5.73583e-05
5.78212e-05
5.83108e-05
5.88201e-05
5.93581e-05
5.99197e-05
6.0513e-05
6.11344e-05
6.17918e-05
6.24843e-05
6.32196e-05
6.39984e-05
6.48292e-05
6.57146e-05
6.66636e-05
6.76811e-05
6.87772e-05
6.99585e-05
7.12324e-05
7.25932e-05
7.39965e-05
7.54572e-05
7.61776e-05
6.61255e-05
7.39743e-05
7.24554e-05
7.18583e-05
7.06682e-05
7.0054e-05
6.89143e-05
6.82894e-05
6.72013e-05
6.65739e-05
6.55401e-05
6.49205e-05
6.39488e-05
6.33496e-05
6.24457e-05
6.18753e-05
6.10451e-05
6.05139e-05
5.97552e-05
5.9272e-05
5.85853e-05
5.81548e-05
5.75395e-05
5.71642e-05
5.66177e-05
5.62975e-05
5.58155e-05
5.55478e-05
5.51248e-05
5.49039e-05
5.45356e-05
5.43544e-05
5.40372e-05
5.38895e-05
5.36196e-05
5.34984e-05
5.32713e-05
5.31711e-05
5.29827e-05
5.28999e-05
5.2739e-05
5.26567e-05
5.25721e-05
5.2472e-05
5.23827e-05
5.23159e-05
5.22462e-05
5.22023e-05
5.21509e-05
5.2125e-05
5.20943e-05
5.20862e-05
5.20766e-05
5.20876e-05
5.21e-05
5.21311e-05
5.21666e-05
5.22169e-05
5.22772e-05
5.23514e-05
5.24366e-05
5.25356e-05
5.26448e-05
5.27696e-05
5.29054e-05
5.30572e-05
5.32202e-05
5.33998e-05
5.35908e-05
5.37983e-05
5.40171e-05
5.42531e-05
5.45007e-05
5.47663e-05
5.50441e-05
5.53409e-05
5.56509e-05
5.59815e-05
5.63266e-05
5.66941e-05
5.70785e-05
5.74875e-05
5.79162e-05
5.83724e-05
5.88519e-05
5.93624e-05
5.98999e-05
6.04718e-05
6.10754e-05
6.17178e-05
6.24034e-05
6.31403e-05
6.39322e-05
6.4789e-05
6.57218e-05
6.67487e-05
6.78924e-05
6.92e-05
7.064e-05
7.17292e-05
6.29545e-05
9.36507e-05
9.20258e-05
9.13484e-05
9.00539e-05
8.92969e-05
8.80395e-05
8.72069e-05
8.59753e-05
8.50757e-05
8.38639e-05
8.2905e-05
8.17175e-05
8.07162e-05
7.95552e-05
7.85179e-05
7.73778e-05
7.63541e-05
7.52279e-05
7.42251e-05
7.3127e-05
7.21528e-05
7.10927e-05
7.01558e-05
6.91414e-05
6.82495e-05
6.72858e-05
6.64445e-05
6.55356e-05
6.47463e-05
6.38954e-05
6.31622e-05
6.23697e-05
6.1693e-05
6.09607e-05
6.03405e-05
5.96691e-05
5.91031e-05
5.84903e-05
5.7977e-05
5.74207e-05
5.69564e-05
5.64539e-05
5.60321e-05
5.55807e-05
5.51959e-05
5.4784e-05
5.44311e-05
5.4053e-05
5.37245e-05
5.3373e-05
5.30618e-05
5.27298e-05
5.24304e-05
5.21061e-05
5.18071e-05
5.15116e-05
5.12242e-05
5.09295e-05
5.06524e-05
5.03728e-05
5.01089e-05
4.98381e-05
4.95588e-05
4.93124e-05
4.90492e-05
4.88096e-05
4.85603e-05
4.83265e-05
4.80908e-05
4.78665e-05
4.76385e-05
4.74153e-05
4.7189e-05
4.69613e-05
4.67288e-05
4.64891e-05
4.62433e-05
4.59851e-05
4.57187e-05
4.54357e-05
4.51425e-05
4.4832e-05
4.451e-05
4.41683e-05
4.38145e-05
4.34408e-05
4.3056e-05
4.26537e-05
4.22443e-05
4.1816e-05
4.13775e-05
4.09256e-05
4.04905e-05
4.00731e-05
3.97247e-05
3.94873e-05
3.94637e-05
3.97688e-05
4.04457e-05
3.4217e-05
0.000101787
0.000100725
0.000100255
9.95049e-05
9.882e-05
9.79606e-05
9.71643e-05
9.62555e-05
9.53928e-05
9.44467e-05
9.35437e-05
9.25819e-05
9.1658e-05
9.06911e-05
8.97554e-05
8.87821e-05
8.78424e-05
8.68661e-05
8.59232e-05
8.49493e-05
8.40062e-05
8.30374e-05
8.20961e-05
8.11331e-05
8.01957e-05
7.92396e-05
7.83079e-05
7.73525e-05
7.64296e-05
7.54871e-05
7.45645e-05
7.36286e-05
7.27104e-05
7.17804e-05
7.08668e-05
6.99425e-05
6.90356e-05
6.81198e-05
6.72137e-05
6.62888e-05
6.53745e-05
6.44484e-05
6.35331e-05
6.2612e-05
6.17053e-05
6.07973e-05
5.9906e-05
5.9021e-05
5.81557e-05
5.7302e-05
5.647e-05
5.56525e-05
5.48604e-05
5.40852e-05
5.33369e-05
5.26061e-05
5.19028e-05
5.11896e-05
5.04159e-05
4.96432e-05
4.88848e-05
4.81219e-05
4.7369e-05
4.66063e-05
4.5845e-05
4.50715e-05
4.42948e-05
4.3506e-05
4.27084e-05
4.18899e-05
4.10802e-05
4.02692e-05
3.94552e-05
3.86336e-05
3.78184e-05
3.69968e-05
3.61841e-05
3.53671e-05
3.4562e-05
3.37554e-05
3.29634e-05
3.21648e-05
3.13849e-05
3.06025e-05
2.98432e-05
2.90861e-05
2.83555e-05
2.76293e-05
2.69337e-05
2.62532e-05
2.56136e-05
2.50037e-05
2.44336e-05
2.39383e-05
2.35743e-05
2.32774e-05
2.32869e-05
2.35623e-05
2.43278e-05
1.88831e-05
0.000115653
0.000114959
0.000114589
0.000114059
0.000113338
0.000112574
0.00011171
0.000110826
0.000109879
0.000108894
0.000107892
0.000106873
0.000105817
0.000104744
0.000103663
0.000102547
0.000101436
0.000100285
9.91418e-05
9.79625e-05
9.67894e-05
9.55854e-05
9.43864e-05
9.31605e-05
9.19403e-05
9.0697e-05
8.94617e-05
8.82056e-05
8.69543e-05
8.56881e-05
8.44267e-05
8.31528e-05
8.18845e-05
8.06048e-05
7.93329e-05
7.80502e-05
7.67783e-05
7.5497e-05
7.42299e-05
7.29582e-05
7.16994e-05
7.04388e-05
6.91889e-05
6.79361e-05
6.66947e-05
6.54609e-05
6.42295e-05
6.30042e-05
6.17843e-05
6.05699e-05
5.93629e-05
5.81622e-05
5.69697e-05
5.57835e-05
5.46062e-05
5.34358e-05
5.22757e-05
5.11245e-05
4.99844e-05
4.88578e-05
4.77471e-05
4.66502e-05
4.55604e-05
4.44831e-05
4.342e-05
4.23733e-05
4.13451e-05
4.03346e-05
3.93521e-05
3.83941e-05
3.7462e-05
3.65584e-05
3.56834e-05
3.48395e-05
3.40257e-05
3.32375e-05
3.24771e-05
3.1743e-05
3.1034e-05
3.03507e-05
2.96877e-05
2.9042e-05
2.8416e-05
2.7805e-05
2.68192e-05
2.58517e-05
2.4888e-05
2.39858e-05
2.30985e-05
2.22746e-05
2.14736e-05
2.07398e-05
2.00399e-05
1.94097e-05
1.88071e-05
1.83921e-05
1.81695e-05
1.79758e-05
1.87114e-05
1.44592e-05
0.000131384
0.000131153
0.0001309
0.000130641
0.000129926
0.000129302
0.000128432
0.000127635
0.000126692
0.000125785
0.000124794
0.000123811
0.000122773
0.000121728
0.000120648
0.000119542
0.000118417
0.000117256
0.000116083
0.000114873
0.000113653
0.000112397
0.000111133
0.000109836
0.000108531
0.000107193
0.000105844
0.000104495
0.000103119
0.000101731
0.000100328
9.89031e-05
9.74666e-05
9.60062e-05
9.45378e-05
9.30436e-05
9.15437e-05
9.00191e-05
8.84935e-05
8.69534e-05
8.54107e-05
8.38576e-05
8.23021e-05
8.07376e-05
7.91712e-05
7.7603e-05
7.60324e-05
7.44665e-05
7.29003e-05
7.13436e-05
6.9791e-05
6.82508e-05
6.67194e-05
6.52029e-05
6.3699e-05
6.22106e-05
6.07368e-05
5.92802e-05
5.78363e-05
5.64085e-05
5.50042e-05
5.36081e-05
5.22393e-05
5.08837e-05
4.95504e-05
4.82296e-05
4.6926e-05
4.56328e-05
4.43519e-05
4.30797e-05
4.18156e-05
4.05596e-05
3.93088e-05
3.80656e-05
3.68272e-05
3.56015e-05
3.43809e-05
3.31736e-05
3.19688e-05
3.07784e-05
2.95946e-05
2.84275e-05
2.72743e-05
2.61418e-05
2.50264e-05
2.39321e-05
2.28621e-05
2.18139e-05
2.0795e-05
1.97965e-05
1.88429e-05
1.7915e-05
1.7088e-05
1.63768e-05
1.59161e-05
1.60893e-05
1.60771e-05
1.58655e-05
1.58837e-05
1.31786e-05
0.000142672
0.000143101
0.000142967
0.00014303
0.000142451
0.000142078
0.000141366
0.000140801
0.00014004
0.000139359
0.000138562
0.000137798
0.000136962
0.000136129
0.000135251
0.000134353
0.000133425
0.000132464
0.000131481
0.00013046
0.00012942
0.000128338
0.000127239
0.000126097
0.000124937
0.000123736
0.000122517
0.000121262
0.000119989
0.000118688
0.000117363
0.00011601
0.000114637
0.000113235
0.000111816
0.000110365
0.000108898
0.000107399
0.000105883
0.000104339
0.000102769
0.000101169
9.95606e-05
9.79296e-05
9.62583e-05
9.45796e-05
9.28623e-05
9.11371e-05
8.93783e-05
8.76097e-05
8.58147e-05
8.40091e-05
8.21847e-05
8.03519e-05
7.85089e-05
7.66613e-05
7.48091e-05
7.29541e-05
7.10967e-05
6.9236e-05
6.73814e-05
6.55278e-05
6.36905e-05
6.18622e-05
6.00542e-05
5.82634e-05
5.6497e-05
5.47539e-05
5.30378e-05
5.13496e-05
4.969e-05
4.8061e-05
4.6461e-05
4.4887e-05
4.33393e-05
4.18266e-05
4.03275e-05
3.88491e-05
3.73871e-05
3.59344e-05
3.44872e-05
3.30368e-05
3.15809e-05
3.01113e-05
2.86264e-05
2.7122e-05
2.56038e-05
2.40664e-05
2.25239e-05
2.09723e-05
1.9427e-05
1.78833e-05
1.63508e-05
1.48865e-05
1.35259e-05
1.24558e-05
1.20873e-05
1.36182e-05
1.38506e-05
1.4342e-05
0.000138159
0.000138084
0.000138063
0.000137943
0.000137924
0.000137769
0.000137729
0.000137548
0.000137477
0.000137276
0.000137169
0.000136944
0.000136797
0.000136545
0.000136354
0.000136071
0.000135834
0.000135516
0.00013523
0.000134873
0.000134535
0.000134134
0.000133742
0.000133292
0.000132842
0.000132336
0.000131819
0.000131246
0.000130457
0.000129455
0.000128424
0.000127362
0.000126274
0.000125155
0.000124013
0.000122839
0.000121646
0.000120421
0.000119173
0.000117888
0.000116574
0.000115225
0.000113847
0.00011243
0.000110978
0.000109493
0.000107967
0.00010641
0.000104809
0.000103177
0.000101504
9.97987e-05
9.80543e-05
9.62714e-05
9.4449e-05
9.261e-05
9.07466e-05
8.88397e-05
8.6918e-05
8.49568e-05
8.29825e-05
8.09743e-05
7.89488e-05
7.68948e-05
7.48177e-05
7.27107e-05
7.05822e-05
6.84297e-05
6.62575e-05
6.40671e-05
6.18637e-05
5.96494e-05
5.74341e-05
5.52199e-05
5.30193e-05
5.08357e-05
4.86809e-05
4.65589e-05
4.44793e-05
4.24437e-05
4.0458e-05
3.85202e-05
3.66313e-05
3.47853e-05
3.29686e-05
3.11815e-05
2.94409e-05
2.76768e-05
2.59335e-05
2.41623e-05
2.23773e-05
2.05359e-05
1.86269e-05
1.66627e-05
1.47064e-05
1.27503e-05
1.10815e-05
1.00916e-05
1.19807e-05
1.21344e-05
0.000114432
0.000114786
0.000114929
0.000115118
0.000115254
0.000115401
0.000115532
0.000115647
0.00011577
0.000115861
0.000115972
0.000116043
0.000116139
0.00011619
0.000116267
0.000116297
0.000116349
0.000116356
0.000116381
0.000116362
0.000116356
0.000116308
0.000116267
0.000116188
0.00011611
0.000115995
0.000115875
0.000115722
0.000115563
0.000115379
0.000115186
0.000114971
0.000114745
0.000114498
0.000114239
0.000113958
0.000113664
0.000113345
0.000113004
0.000112639
0.00011225
0.000111834
0.000111391
0.000110916
0.00011041
0.000109867
0.000109285
0.000108671
0.00010802
0.000107336
0.000106613
0.000105843
0.000105021
0.000104141
0.000103198
0.000102181
0.000100629
9.89939e-05
9.72941e-05
9.5548e-05
9.3753e-05
9.19121e-05
9.00294e-05
8.81104e-05
8.61619e-05
8.41965e-05
8.21844e-05
8.012e-05
7.80232e-05
7.58773e-05
7.37019e-05
7.14808e-05
6.92262e-05
6.69273e-05
6.4591e-05
6.22084e-05
5.97827e-05
5.73075e-05
5.47844e-05
5.22105e-05
4.95894e-05
4.69232e-05
4.42209e-05
4.14912e-05
3.87494e-05
3.60116e-05
3.33024e-05
3.06415e-05
2.80541e-05
2.55693e-05
2.31609e-05
2.08379e-05
1.85883e-05
1.63275e-05
1.41472e-05
1.21483e-05
1.03286e-05
8.93547e-06
8.3791e-06
1.15624e-05
7.35748e-05
7.40603e-05
7.41626e-05
7.44829e-05
7.46002e-05
7.48711e-05
7.501e-05
7.52475e-05
7.54043e-05
7.56199e-05
7.57909e-05
7.59922e-05
7.61721e-05
7.63628e-05
7.65462e-05
7.67283e-05
7.69109e-05
7.70853e-05
7.72639e-05
7.74305e-05
7.76023e-05
7.77607e-05
7.79238e-05
7.80736e-05
7.82268e-05
7.83672e-05
7.85094e-05
7.86404e-05
7.87734e-05
7.88967e-05
7.90196e-05
7.91342e-05
7.92467e-05
7.93501e-05
7.94502e-05
7.954e-05
7.96241e-05
7.96971e-05
7.97657e-05
7.98245e-05
7.98764e-05
7.99184e-05
7.99515e-05
7.99741e-05
7.99868e-05
7.99882e-05
7.99792e-05
7.99592e-05
7.99227e-05
7.98687e-05
7.97926e-05
7.96924e-05
7.95646e-05
7.94064e-05
7.92153e-05
7.89887e-05
7.87289e-05
7.84523e-05
7.81386e-05
7.78002e-05
7.74202e-05
7.70005e-05
7.65239e-05
7.587e-05
7.4933e-05
7.39362e-05
7.28798e-05
7.17677e-05
7.06006e-05
6.93643e-05
6.80621e-05
6.67083e-05
6.5269e-05
6.37465e-05
6.21399e-05
6.0437e-05
5.8639e-05
5.67359e-05
5.47297e-05
5.26149e-05
5.03961e-05
4.80734e-05
4.56552e-05
4.31477e-05
4.0564e-05
3.7917e-05
3.52093e-05
3.2446e-05
2.96202e-05
2.66657e-05
2.3652e-05
2.0571e-05
1.75756e-05
1.46931e-05
1.19796e-05
9.61416e-06
7.78511e-06
6.56054e-06
5.87049e-06
6.77184e-06
6.84617e-06
6.86643e-06
6.87916e-06
6.89589e-06
6.9118e-06
6.93031e-06
6.94717e-06
6.96669e-06
6.98449e-06
7.00486e-06
7.02363e-06
7.04491e-06
7.06469e-06
7.08696e-06
7.10785e-06
7.13091e-06
7.15301e-06
7.17682e-06
7.20018e-06
7.22477e-06
7.24937e-06
7.27483e-06
7.30067e-06
7.32713e-06
7.35425e-06
7.38185e-06
7.4103e-06
7.43919e-06
7.46907e-06
7.49938e-06
7.53072e-06
7.56256e-06
7.59547e-06
7.62892e-06
7.66351e-06
7.69875e-06
7.73519e-06
7.77246e-06
7.81101e-06
7.85052e-06
7.89139e-06
7.93337e-06
7.9768e-06
8.02149e-06
8.06771e-06
8.11527e-06
8.16438e-06
8.2148e-06
8.26654e-06
8.31955e-06
8.37383e-06
8.42939e-06
8.48627e-06
8.5446e-06
8.60461e-06
8.66652e-06
8.73086e-06
8.79743e-06
8.86542e-06
8.93531e-06
9.00532e-06
9.07562e-06
9.14393e-06
9.20963e-06
9.27409e-06
9.34233e-06
9.41221e-06
9.48583e-06
9.56239e-06
9.64154e-06
9.72536e-06
9.81318e-06
9.90297e-06
9.99667e-06
1.00936e-05
1.0193e-05
1.02962e-05
1.04012e-05
1.05103e-05
1.06216e-05
1.07372e-05
1.08567e-05
1.09817e-05
1.11128e-05
1.12513e-05
1.13959e-05
1.15357e-05
1.16463e-05
1.16418e-05
1.14521e-05
1.09208e-05
9.79918e-06
8.00106e-06
5.85025e-06
3.65579e-06
2.65215e-06
2.56258e-06
3.9246e-06
4.02239e-06
4.33375e-06
1.09323e-05
2.07357e-06
2.59798e-06
3.51849e-06
4.55155e-06
5.62361e-06
6.47819e-06
7.32226e-06
8.1339e-06
8.89053e-06
9.61307e-06
1.02958e-05
1.13517e-05
1.31829e-05
1.53454e-05
1.77813e-05
1.75871e-05
1.55605e-05
1.03575e-05
4.00772e-06
5.86692e-06
2.18414e-06
2.47606e-06
3.18415e-06
4.05311e-06
4.85664e-06
5.68154e-06
6.5397e-06
7.40334e-06
8.28756e-06
9.23421e-06
1.02821e-05
1.19007e-05
1.39518e-05
1.68627e-05
1.82483e-05
1.74612e-05
1.47472e-05
9.60277e-06
3.97974e-06
4.9425e-06
2.69374e-06
2.89829e-06
3.41098e-06
4.00603e-06
4.7085e-06
5.47237e-06
6.30461e-06
7.20604e-06
8.34363e-06
9.42824e-06
1.08771e-05
1.27651e-05
1.55948e-05
1.78903e-05
1.82496e-05
1.71396e-05
1.40446e-05
8.97605e-06
3.85134e-06
5.05282e-06
3.4363e-06
3.63421e-06
3.87279e-06
4.36405e-06
4.92184e-06
5.66042e-06
6.56024e-06
7.68017e-06
9.39624e-06
1.10416e-05
1.27446e-05
1.54716e-05
1.80188e-05
1.90734e-05
1.8742e-05
1.70246e-05
1.33163e-05
8.07188e-06
3.26377e-06
5.68706e-06
4.47666e-06
4.61672e-06
4.63215e-06
5.19101e-06
5.67895e-06
6.5598e-06
7.79222e-06
9.51437e-06
1.28561e-05
1.45316e-05
1.67869e-05
1.9111e-05
2.02559e-05
2.03188e-05
1.92005e-05
1.65653e-05
1.2576e-05
7.04492e-06
2.35527e-06
6.89432e-06
5.97548e-06
6.04614e-06
6.01562e-06
6.75257e-06
7.71408e-06
9.25948e-06
1.14605e-05
1.58317e-05
1.91541e-05
2.06802e-05
2.20836e-05
2.28669e-05
2.2723e-05
2.16364e-05
1.91288e-05
1.60285e-05
1.17568e-05
5.2509e-06
1.41366e-06
9.03217e-06
8.6099e-06
8.83303e-06
9.39738e-06
1.10758e-05
1.35163e-05
1.68727e-05
2.17377e-05
2.8409e-05
2.91168e-05
2.88476e-05
2.81514e-05
2.68265e-05
2.47689e-05
2.17356e-05
1.85846e-05
1.4971e-05
1.02574e-05
3.84752e-06
6.89359e-07
1.4604e-05
1.60559e-05
1.72684e-05
1.95485e-05
2.30693e-05
2.73712e-05
3.29269e-05
3.98717e-05
3.98483e-05
3.75666e-05
3.42731e-05
3.16003e-05
2.81163e-05
2.49868e-05
2.09349e-05
1.71729e-05
1.29889e-05
8.24182e-06
2.85365e-06
2.99966e-07
3.24539e-05
3.54186e-05
3.66528e-05
3.91148e-05
4.35835e-05
4.7926e-05
5.18778e-05
4.76849e-05
4.41452e-05
4.02046e-05
3.64591e-05
3.26118e-05
2.85213e-05
2.34323e-05
1.86714e-05
1.41505e-05
1.04229e-05
7.28934e-06
2.90491e-06
1.77373e-07
5.27515e-05
5.56373e-05
5.59042e-05
5.74148e-05
6.22694e-05
5.94598e-05
5.52155e-05
5.02822e-05
4.62425e-05
4.12942e-05
3.72745e-05
3.20764e-05
2.7112e-05
1.98542e-05
1.42419e-05
1.00963e-05
8.4512e-06
7.56861e-06
3.71843e-06
2.56276e-07
5.02808e-05
5.30198e-05
5.3409e-05
5.50104e-05
5.98281e-05
5.77713e-05
5.37197e-05
4.8969e-05
4.51574e-05
4.03816e-05
3.67352e-05
3.16183e-05
2.76758e-05
2.05532e-05
1.49594e-05
1.01992e-05
8.21318e-06
6.88438e-06
3.15031e-06
2.17032e-07
2.79336e-05
3.08407e-05
3.22174e-05
3.47008e-05
3.91055e-05
4.36723e-05
4.94846e-05
4.55535e-05
4.25503e-05
3.83839e-05
3.56183e-05
3.13276e-05
2.83477e-05
2.39094e-05
1.93341e-05
1.4557e-05
1.02002e-05
6.33411e-06
2.19078e-06
1.6335e-07
1.30702e-05
1.3995e-05
1.49623e-05
1.70058e-05
2.01606e-05
2.42036e-05
2.94563e-05
3.63572e-05
3.97327e-05
3.61003e-05
3.39789e-05
3.05673e-05
2.76524e-05
2.4486e-05
2.1254e-05
1.73714e-05
1.28955e-05
7.81208e-06
2.46491e-06
1.91965e-07
8.63365e-06
8.1069e-06
8.25182e-06
8.64136e-06
1.00512e-05
1.21846e-05
1.51728e-05
1.97759e-05
2.62418e-05
2.74092e-05
2.77217e-05
2.75387e-05
2.66395e-05
2.47201e-05
2.14405e-05
1.86206e-05
1.48679e-05
9.98454e-06
3.50527e-06
4.24827e-07
6.73695e-06
5.8027e-06
5.86691e-06
5.8287e-06
6.50783e-06
7.36324e-06
8.7423e-06
1.07218e-05
1.47865e-05
1.81279e-05
1.99164e-05
2.1671e-05
2.27038e-05
2.27511e-05
2.18245e-05
1.89539e-05
1.58261e-05
1.15369e-05
5.12503e-06
1.1785e-06
5.62092e-06
4.42657e-06
4.56409e-06
4.60725e-06
5.15429e-06
5.64234e-06
6.48415e-06
7.63119e-06
9.22953e-06
1.23272e-05
1.41027e-05
1.64631e-05
1.90073e-05
2.03148e-05
2.04346e-05
1.93447e-05
1.6413e-05
1.24292e-05
6.96479e-06
2.22492e-06
5.04315e-06
3.43588e-06
3.63717e-06
3.91661e-06
4.41479e-06
4.99497e-06
5.72855e-06
6.60839e-06
7.6823e-06
9.3197e-06
1.08966e-05
1.26414e-05
1.53761e-05
1.80864e-05
1.92294e-05
1.8883e-05
1.70939e-05
1.32083e-05
8.04285e-06
3.22278e-06
5.04896e-06
2.73527e-06
2.9342e-06
3.46413e-06
4.09329e-06
4.80487e-06
5.58411e-06
6.42197e-06
7.31307e-06
8.41562e-06
9.4862e-06
1.09239e-05
1.28046e-05
1.56141e-05
1.80115e-05
1.83839e-05
1.72078e-05
1.39536e-05
8.96298e-06
3.80938e-06
6.12598e-06
2.24311e-06
2.53921e-06
3.25747e-06
4.13611e-06
4.98324e-06
5.81679e-06
6.68547e-06
7.55635e-06
8.43387e-06
9.36722e-06
1.04061e-05
1.20203e-05
1.40675e-05
1.6955e-05
1.8363e-05
1.75175e-05
1.47298e-05
9.59843e-06
3.96055e-06
1.09712e-05
2.13824e-06
2.66117e-06
3.59976e-06
4.65016e-06
5.72831e-06
6.63252e-06
7.48565e-06
8.30735e-06
9.06557e-06
9.78451e-06
1.04623e-05
1.14747e-05
1.32703e-05
1.54447e-05
1.78654e-05
1.76261e-05
1.55276e-05
1.03613e-05
3.99556e-06
1.23421e-06
0.000116558
0.000294185
0.000330906
0.00033481
0.000335356
0.000335357
0.000335342
0.000335343
0.000335345
0.000335345
0.000335343
0.000335342
0.000335357
0.000335356
0.00033481
0.000330906
0.000294185
0.000116558
1.23421e-06
1.36973e-06
6.81665e-05
0.000219583
0.000309503
0.000330909
0.000334527
0.000335273
0.000335315
0.000335296
0.000335287
0.000335287
0.000335296
0.000335315
0.000335273
0.000334527
0.000330909
0.000309503
0.000219583
6.81666e-05
1.36973e-06
1.51338e-06
5.2896e-05
0.000176459
0.00028058
0.000322148
0.000332504
0.000334604
0.0003351
0.000335168
0.000335172
0.000335172
0.000335168
0.0003351