/*--------------------------------*- C++ -*----------------------------------*\
| =========                 |                                                 |
| \\      /  F ield         | OpenFOAM: The Open Source CFD Toolbox           |
|  \\    /   O peration     | Version:  2.1.0                                 |
|   \\  /    A nd           | Web:      www.OpenFOAM.org                      |
|    \\/     M anipulation  |                                                 |
\*---------------------------------------------------------------------------*/
FoamFile
{
    version     2.0;
    format      ascii;
    class       volScalarField;
    location    "0.29";
    object      omega;
}
// * * * * * * * * * * * * * * * * * * * * * * * * * * * * * * * * * * * * * //

dimensions      [0 0 -1 0 0 0 0];

internalField   nonuniform List<scalar> 
6400
(
1590.34
1592.46
1593.09
1593.82
1594.15
1594.78
1595.07
1595.69
1596
1596.64
1596.99
1597.62
1598.02
1598.62
1599.08
1599.66
1600.15
1600.7
1601.2
1601.72
1602.21
1602.67
1603.12
1603.51
1603.89
1604.19
1604.47
1604.67
1604.76
1604.78
1604.76
1604.67
1604.49
1604.18
1603.79
1603.28
1602.68
1601.94
1601.07
1600.04
1598.87
1597.51
1595.99
1594.26
1592.31
1590.14
1587.72
1585.04
1582.09
1578.84
1575.25
1571.25
1566.88
1562.25
1557.32
1552.22
1546.78
1541.11
1535.14
1528.92
1522.44
1515.68
1508.64
1501.28
1493.6
1485.63
1477.25
1468.39
1459.18
1449.37
1439.15
1428.26
1416.88
1404.81
1392.16
1378.86
1364.94
1350.45
1335.4
1319.87
1303.87
1287.34
1269.93
1250.54
1230.21
1208.28
1184.18
1157.17
1125.64
1087.68
1039.61
975.744
888.085
770.642
621.26
536.912
565.825
735.311
892.603
942.385
674.571
675.773
677.162
678.922
680.622
682.67
684.517
686.703
688.67
690.947
693.032
695.387
697.592
700.021
702.34
704.841
707.272
709.85
712.393
715.058
717.715
720.477
723.256
726.125
729.031
732.018
735.057
738.173
741.351
744.609
747.944
751.37
754.883
758.492
762.203
766.033
769.963
774.004
778.16
782.441
786.85
791.395
796.085
800.923
805.92
811.082
816.42
821.939
827.651
833.565
839.664
845.967
852.473
859.238
866.263
873.592
881.201
889.149
897.434
906.092
915.15
924.632
934.58
945.029
956.009
967.415
979.284
991.621
1004.65
1018.29
1032.68
1047.8
1063.77
1080.6
1098.4
1117.23
1137.19
1158.38
1180.93
1205
1230.78
1258.59
1287.11
1316.99
1348.09
1379.88
1411.69
1442.53
1471.14
1496.09
1514.29
1522.68
1524.39
1510.45
1475.7
1397.3
1285.53
1150.55
1005.09
847.612
496.611
500.473
502.271
505.871
508.224
511.826
514.537
518.15
521.138
524.793
528.016
531.745
535.183
539.009
542.649
546.591
550.425
554.502
558.529
562.759
566.98
571.374
575.796
580.371
585.003
589.776
594.628
599.617
604.701
609.922
615.252
620.723
626.315
632.049
637.913
643.921
650.104
656.446
662.943
669.629
676.492
683.553
690.814
698.288
705.982
713.907
722.069
730.477
739.133
748.041
757.219
766.672
776.419
786.476
796.861
807.59
818.672
830.132
841.978
854.229
866.896
879.992
893.524
907.499
921.926
936.854
952.286
968.197
984.422
1001.01
1017.86
1034.97
1052.27
1069.73
1087.32
1104.99
1122.74
1140.56
1158.46
1176.46
1194.58
1212.86
1231.3
1249.98
1268.82
1287.66
1306.34
1324.32
1340.99
1355.16
1363.12
1366.02
1360.23
1334.92
1287.68
1208.56
1100.37
959.187
796.272
627.432
455.004
460.589
463.044
467.865
470.92
475.673
479.158
483.882
487.711
492.455
496.588
501.408
505.821
510.756
515.43
520.513
525.444
530.701
535.886
541.339
546.778
552.446
558.144
564.046
570.011
576.163
582.403
588.821
595.344
602.04
608.856
615.841
622.958
630.242
637.669
645.263
652.995
660.899
668.97
677.187
685.563
694.084
702.755
711.565
720.513
729.591
738.792
748.111
757.539
767.067
776.693
786.405
796.2
806.072
816.01
826.012
836.059
846.15
856.269
866.409
876.557
886.699
896.821
906.902
916.933
926.944
936.89
946.777
956.565
966.255
975.818
985.227
994.428
1003.41
1012.1
1020.45
1028.38
1035.81
1042.62
1048.72
1053.93
1058.09
1060.72
1061.88
1062.09
1059.41
1054.77
1046.88
1035.91
1020.72
1001
975.511
943.189
902.045
850.228
785.716
710.215
627.999
552.304
496.471
450.694
457.162
459.958
465.472
468.919
474.332
478.234
483.575
487.827
493.146
497.698
503.05
507.868
513.288
518.344
523.861
529.14
534.775
540.263
546.031
551.721
557.637
563.519
569.585
575.65
581.868
588.102
594.46
600.842
607.324
613.832
620.417
627.026
633.693
640.377
647.101
653.831
660.581
667.325
674.08
680.819
687.553
694.256
700.939
707.577
714.178
720.72
727.209
733.631
739.98
746.253
752.439
758.524
764.531
770.434
776.229
781.873
787.352
792.646
797.716
802.55
807.103
811.359
815.272
818.822
821.963
824.662
826.879
828.57
829.577
830.018
830.096
829.139
827.668
825.206
822.082
817.922
812.964
806.922
799.953
791.851
782.714
772.424
761.138
748.675
735.211
720.694
705.159
688.593
670.909
651.982
631.489
609.234
584.494
556.541
526.107
494.315
464.903
444.131
432.676
445.9
451.837
454.374
459.396
462.466
467.36
470.777
475.542
479.203
483.87
487.724
492.331
496.336
500.902
505.025
509.566
513.78
518.302
522.583
527.091
531.418
535.91
540.26
544.722
549.065
553.523
557.915
562.371
566.768
571.191
575.551
579.908
584.192
588.448
592.615
596.735
600.749
604.691
608.51
612.226
615.805
619.255
622.542
625.677
628.622
631.388
633.935
636.272
638.365
640.209
641.78
643.068
644.05
644.8
645.19
645.345
645.316
644.713
643.913
642.601
640.99
638.899
636.453
633.546
630.256
626.523
622.395
617.847
612.909
607.582
601.918
595.935
589.63
583.077
576.24
569.214
561.952
554.58
547.073
539.494
531.857
524.235
516.637
509.111
501.67
494.242
486.815
479.369
471.95
464.439
456.825
448.968
440.804
432.151
423.154
414.197
406.776
403.24
402.294
402.328
418.147
422.479
424.301
427.924
430.049
433.568
435.864
439.248
441.645
444.899
447.365
450.504
453.004
456.023
458.528
461.426
463.908
466.677
469.113
471.745
474.106
476.586
478.822
481.105
483.168
485.276
487.193
489.086
490.779
492.398
493.804
495.103
496.17
497.108
497.794
498.314
498.564
498.657
498.579
498.172
497.604
496.756
495.7
494.393
492.851
491.079
489.062
486.83
484.359
481.688
478.8
475.729
472.48
469.059
465.448
461.713
457.827
453.846
449.778
445.651
441.489
437.311
433.145
428.995
424.881
420.889
416.993
413.273
409.695
406.341
403.146
400.184
397.405
394.884
392.559
390.495
388.614
386.983
385.542
384.348
383.334
382.543
381.901
381.439
381.08
380.841
380.646
380.499
380.324
380.132
379.88
379.621
379.491
379.467
380.262
381.678
384.361
389.012
392.709
393.756
370.314
372.936
373.994
376.065
377.133
379.07
380.081
381.832
382.747
384.288
385.089
386.403
387.059
388.1
388.61
389.343
389.691
390.076
390.237
390.303
390.246
390.001
389.599
389.072
388.339
387.457
386.293
385.008
383.434
381.758
379.8
377.762
375.465
373.112
370.518
367.892
365.054
362.205
359.182
356.154
353.011
349.874
346.668
343.493
340.291
337.149
334.019
330.979
327.992
325.107
322.293
319.656
317.134
314.787
312.594
310.604
308.798
307.222
305.855
304.74
303.855
303.246
302.945
302.835
302.937
303.416
304.023
304.974
306.072
307.485
309.053
310.907
312.917
315.188
317.609
320.265
323.062
326.059
329.189
332.512
335.945
339.533
343.201
346.98
350.799
354.679
358.55
362.429
366.261
370.072
373.84
377.598
381.386
385.278
389.461
394.32
399.936
406.919
412.342
414.524
305.647
305.847
305.861
305.845
305.595
305.415
304.898
304.503
303.716
303.088
302.046
301.161
299.849
298.694
297.125
295.693
293.881
292.184
290.154
288.209
285.989
283.828
281.471
279.186
276.742
274.383
271.903
269.536
267.087
264.77
262.418
260.205
257.989
255.922
253.894
252.019
250.223
248.579
247.049
245.673
244.439
243.365
242.453
241.708
241.14
240.772
240.6
240.549
240.725
241.133
241.741
242.522
243.491
244.64
245.972
247.488
249.183
251.066
253.124
255.371
257.791
260.403
263.187
266.166
269.327
272.671
276.189
279.9
283.785
287.87
292.133
296.607
301.267
306.147
311.224
316.53
322.047
327.803
333.781
340.004
346.461
353.169
360.117
367.316
374.752
382.427
390.324
398.431
406.719
415.164
423.731
432.422
441.215
450.147
459.265
468.79
479.421
490.982
502.464
508.131
239.695
238.077
237.374
235.928
235.026
233.529
232.457
230.91
229.702
228.115
226.802
225.191
223.815
222.205
220.808
219.231
217.855
216.344
215.03
213.619
212.407
211.13
210.056
208.941
208.032
207.103
206.379
205.656
205.135
204.633
204.328
204.093
203.994
203.968
204.096
204.341
204.713
205.207
205.827
206.573
207.443
208.441
209.571
210.822
212.203
213.702
215.333
217.078
218.961
220.959
223.095
225.336
227.711
230.195
232.812
235.541
238.402
241.381
244.493
247.728
251.101
254.601
258.245
262.024
265.952
270.027
274.257
278.647
283.203
287.933
292.842
297.942
303.236
308.742
314.46
320.412
326.602
333.05
339.766
346.77
354.077
361.709
369.686
378.035
386.78
395.955
405.593
415.736
426.427
437.721
449.678
462.377
475.901
490.363
505.871
522.52
540.214
558.668
573.298
579.822
265.211
264.936
264.689
264.3
263.878
263.345
262.734
262.037
261.232
260.354
259.358
258.302
257.137
255.909
254.592
253.213
251.769
250.275
248.73
247.16
245.549
243.94
242.305
240.697
239.078
237.512
235.952
234.469
233.01
231.645
230.329
229.118
227.981
226.961
226.04
225.244
224.571
224.029
223.634
223.418
223.33
223.324
223.615
223.973
224.57
225.248
226.154
227.157
228.372
229.697
231.219
232.862
234.69
236.648
238.78
241.049
243.495
246.061
248.799
251.663
254.693
257.856
261.184
264.652
268.285
272.067
276.016
280.125
284.406
288.859
293.491
298.31
303.32
308.534
313.955
319.598
325.467
331.58
337.943
344.575
351.486
358.696
366.219
374.079
382.293
390.888
399.885
409.314
419.203
429.6
440.546
452.101
464.329
477.332
491.226
506.169
522.237
539.103
552.963
559.244
327.313
329.077
329.771
331.071
331.714
332.852
333.41
334.34
334.79
335.474
335.794
336.202
336.376
336.455
336.432
336.218
335.852
335.381
334.688
333.936
332.931
331.888
330.582
329.252
327.658
326.053
324.192
322.333
320.243
318.154
315.855
313.579
311.114
308.691
306.109
303.587
300.944
298.375
295.728
293.177
290.596
288.134
285.694
283.377
281.163
279.105
277.182
275.443
273.872
272.51
271.343
270.403
269.682
269.234
269.027
268.973
269.224
269.688
270.389
271.315
272.467
273.844
275.439
277.255
279.28
281.522
283.968
286.63
289.472
292.516
295.732
299.14
302.715
306.477
310.408
314.52
318.796
323.248
327.859
332.639
337.57
342.639
347.846
353.179
358.633
364.204
369.878
375.66
381.534
387.499
393.538
399.671
405.979
412.513
419.503
427.259
436.194
446.599
457.675
463.459
377.215
380.514
381.888
384.588
386.123
388.719
390.334
392.794
394.438
396.744
398.372
400.509
402.103
404.093
405.642
407.458
408.913
410.54
411.851
413.264
414.388
415.56
416.457
417.358
417.99
418.593
418.927
419.13
419.194
419.123
418.769
418.327
417.603
416.775
415.671
414.45
412.965
411.359
409.466
407.389
405.039
402.522
399.753
396.839
393.714
390.471
387.05
383.564
379.946
376.307
372.595
368.904
365.199
361.558
357.956
354.447
351.031
347.793
344.709
341.82
339.118
336.645
334.39
332.388
330.635
329.149
327.923
326.954
326.235
325.803
325.606
325.555
325.792
326.231
326.857
327.662
328.614
329.719
330.933
332.267
333.684
335.274
336.927
338.729
340.585
342.588
344.641
346.836
349.092
351.51
354.037
356.771
359.664
362.783
366.241
370.284
375.407
382.046
386.914
388.715
412.943
417.446
419.361
423.171
425.477
429.203
431.763
435.396
438.132
441.677
444.525
447.98
450.912
454.33
457.356
460.74
463.829
467.178
470.298
473.602
476.723
479.97
483.059
486.229
489.256
492.324
495.255
498.195
500.998
503.773
506.403
508.978
511.394
513.725
515.879
517.917
519.76
521.454
522.981
524.383
525.565
526.568
527.307
527.76
527.954
527.99
527.596
526.962
525.964
524.679
523.045
521.103
518.825
516.237
513.331
510.13
506.638
502.878
498.862
494.647
490.238
485.663
480.913
476.023
471.026
465.952
460.827
455.671
450.574
445.538
440.613
435.827
431.206
426.785
422.569
418.519
414.672
411.021
407.559
404.3
401.189
398.196
395.351
392.603
389.952
387.387
384.876
382.42
379.99
377.608
375.27
373.015
370.938
369.237
367.987
367.507
368.046
371.888
374.945
375.844
428.242
433.665
435.995
440.633
443.517
448.083
451.352
455.863
459.43
463.918
467.723
472.216
476.226
480.757
484.95
489.536
493.889
498.543
503.04
507.766
512.389
517.188
521.922
526.79
531.615
536.544
541.445
546.425
551.383
556.402
561.402
566.444
571.461
576.498
581.503
586.502
591.456
596.378
601.265
606.14
610.952
615.719
620.394
624.987
629.461
633.818
638.01
642.055
645.896
649.547
652.957
656.133
659.03
661.644
663.94
665.907
667.511
668.74
669.49
669.827
669.902
669.361
668.532
667.22
665.495
663.276
660.577
657.382
653.674
649.475
644.759
639.566
633.867
627.713
621.091
614.13
606.738
599.053
590.995
582.665
574.011
565.109
555.959
546.583
536.994
527.134
517.057
506.669
495.995
484.753
473.183
461.011
448.349
435.382
422.093
409.203
397.946
391.226
388.285
386.959
428.049
433.43
435.767
440.397
443.32
447.896
451.241
455.802
459.492
464.088
468.075
472.742
476.996
481.774
486.284
491.203
495.959
501.043
506.041
511.308
516.547
522.011
527.487
533.158
538.87
544.752
550.694
556.789
562.955
569.26
575.642
582.15
588.738
595.44
602.222
609.107
616.071
623.129
630.262
637.477
644.757
652.106
659.508
666.964
674.458
681.992
689.545
697.122
704.693
712.26
719.788
727.298
734.758
742.171
749.513
756.781
763.954
771.03
777.985
784.806
791.468
797.928
804.23
810.293
816.112
821.626
826.808
831.608
835.98
839.881
843.253
846.059
848.231
849.594
850.209
850.351
849.357
847.495
844.561
840.542
835.305
828.758
820.797
811.289
800.14
787.228
772.532
755.812
737.097
716.195
692.988
667.115
638.276
606.155
571.532
533.83
496.189
460.626
435.235
418.33
433.805
438.211
440.166
444.037
446.502
450.334
453.16
456.984
460.104
463.962
467.336
471.267
474.877
478.918
482.759
486.942
491.014
495.366
499.674
504.22
508.773
513.537
518.348
523.352
528.435
533.701
539.07
544.616
550.281
556.12
562.095
568.246
574.547
581.032
587.683
594.527
601.556
608.791
616.212
623.842
631.671
639.712
647.959
656.42
665.089
673.964
683.045
692.377
701.941
711.766
721.855
732.146
742.653
753.349
764.236
775.293
786.509
797.871
809.357
820.953
832.646
844.419
856.266
868.168
880.124
892.121
904.143
916.171
928.177
940.127
951.971
963.77
975.472
987.061
998.505
1009.75
1020.73
1031.39
1041.61
1051.31
1060.31
1068.46
1075.53
1081.23
1084.7
1086.17
1086.31
1081.65
1074.06
1060.89
1042.41
1016.44
981.984
936.63
880.353
809.287
726.655
635.112
553.361
488.295
477.997
480.786
482.127
484.846
486.656
489.4
491.494
494.268
496.583
499.411
501.915
504.81
507.483
510.465
513.304
516.395
519.403
522.62
525.803
529.165
532.529
536.052
539.608
543.308
547.065
550.959
554.931
559.036
563.237
567.568
572.009
576.585
581.284
586.124
591.096
596.214
601.468
606.869
612.458
618.222
624.185
630.35
636.733
643.346
650.207
657.334
664.744
672.404
680.346
688.56
697.054
705.881
715.046
724.573
734.469
744.747
755.414
766.499
778.002
789.954
802.364
815.262
828.665
842.604
857.106
872.204
887.903
904.228
921.183
938.787
957.055
975.859
995.179
1014.94
1035.08
1055.53
1076.22
1097.08
1118.07
1139.15
1160.3
1181.51
1202.77
1224.02
1245.2
1266.47
1287.48
1307.76
1326.74
1343.05
1352.6
1356.14
1350.28
1322.01
1271.24
1196.18
1093.17
963.963
802.893
630.472
656.077
656.229
657.354
658.233
659.498
660.75
662.061
663.5
664.871
666.42
667.859
669.483
670.996
672.684
674.281
676.035
677.721
679.543
681.323
683.219
685.098
687.074
689.055
691.12
693.208
695.372
697.575
699.853
702.185
704.593
707.074
709.637
712.285
715.024
717.862
720.805
723.865
727.052
730.35
733.775
737.331
741.024
744.866
748.86
753.017
757.342
761.842
766.52
771.391
776.458
781.739
787.247
792.991
798.988
805.25
811.796
818.652
825.802
833.285
841.114
849.303
857.877
866.839
876.209
886.045
896.44
907.367
918.893
931.022
943.794
957.238
971.336
986.299
1002.1
1018.85
1036.59
1055.43
1075.42
1096.69
1119.32
1143.44
1169.12
1196.5
1225.65
1256.68
1288.75
1321.43
1353.37
1382.76
1407.28
1421.2
1426.31
1424.2
1408.57
1377.13
1318.26
1231.45
1121.6
997.603
849.032
1568.3
1569.48
1569.69
1569.76
1569.55
1569.47
1569.12
1568.97
1568.58
1568.4
1568
1567.81
1567.4
1567.19
1566.78
1566.53
1566.12
1565.81
1565.39
1565.02
1564.57
1564.14
1563.66
1563.16
1562.64
1562.09
1561.52
1560.91
1560.3
1559.64
1558.98
1558.26
1557.54
1556.75
1555.96
1555.11
1554.25
1553.34
1552.41
1551.43
1550.43
1549.38
1548.29
1547.15
1545.97
1544.72
1543.41
1542.01
1540.5
1538.87
1537.09
1535.17
1533.08
1530.82
1528.38
1525.78
1523.03
1520.11
1516.93
1513.5
1509.66
1505.39
1500.5
1494.9
1488.7
1482.24
1475.33
1468.1
1460.43
1452.26
1443.68
1434.57
1424.73
1414.23
1402.93
1390.7
1377.56
1363.26
1347.85
1331.11
1313.06
1293.52
1272.47
1249.79
1225.38
1199.02
1170.06
1137.4
1097.64
1048.98
987.271
906.108
805.165
696.208
584.096
534.91
555.537
721.538
886.586
939.817
865.501
324.58
176.588
119.706
95.2967
82.2887
75.894
72.906
71.9365
73.8167
80.5803
96.2996
117.629
154.636
205.175
269.725
347.764
443.725
561.216
611.659
692.821
329.134
219.14
154.374
121.793
103.92
92.7835
87.2967
85.3454
87.1405
98.7151
114.411
143.054
182.933
235.839
298.306
371.426
459.573
545.925
569.812
544.6
318.836
242.439
180.245
147.638
125.303
111.664
105.663
103.913
107.885
119.23
142.475
172.975
216.632
267.627
324.914
389.807
463.43
515.562
523.554
444.703
305.19
256.294
198.064
171.061
145.917
133.761
128.015
126.375
130.304
152.405
175.893
211.952
254.464
300.556
351.408
406.593
456.344
475.595
474.614
388.333
300.539
266.406
214.751
192.04
168.492
158.723
154.759
154.345
173.048
193.697
220.818
255.471
291.179
329.778
370.605
410.978
434.022
427.384
426.745
360.196
300.415
273.859
231.835
214.196
200.157
196.251
196.053
209.646
225.809
246.059
270.694
298.041
325.833
355.783
384.237
399.906
398.005
368.303
380.926
352.239
312.595
295.646
271.973
264.526
261.831
261.41
268.138
277.404
289.706
304.732
321.385
338.914
355.631
370.429
377.437
376.059
344.464
300.274
348.504
386.333
374.373
370.431
360.724
356.112
350.565
348.402
347.907
350.297
354.722
359.249
364.211
367.06
368.137
366.984
358.674
331.768
276.735
230.909
332.122
498.601
483.427
476.005
457.092
448.194
433.856
426.825
417.177
412.031
404.017
397.607
388.495
378.023
365.515
349.202
316.076
266.58
201.667
161.525
327.116
562.282
540.896
531.23
508.183
497.141
478.502
468.216
451.398
439.843
422.974
408.847
389.694
369.673
340.886
301.308
251.239
197.864
145.533
121.206
330.327
543.703
523.624
514.625
492.996
482.673
465.406
456.152
441.298
431.166
416.599
404.132
387.635
369.873
345.254
309.311
259.521
204.25
147.008
119.838
328.725
456.957
445.941
440.472
424.625
417.401
406.583
401.39
395.831
393.081
389.736
386.258
381.614
374.528
364.978
353.485
326.492
277.765
210.681
171.989
326.548
358.319
343.076
338.023
330.185
326.846
323.828
323.029
325.843
330.727
338.416
346.483
354.832
362.577
366.432
367.792
363.52
340.177
286.864
239.561
327.709
336.336
296.458
278.919
253.664
245.226
242.238
242.045
250.422
261.173
275.187
292.61
311.456
331.829
352.025
370.639
379.907
381.207
352.857
308.103
337.296
346.481
287.931
262.065
220.843
203.431
188.875
184.497
183.99
197.687
214.926
236.415
262.729
291.615
321.426
353.651
385.675
403.814
405.023
374.491
370.13
374.162
289.087
255.841
206.132
184.202
161.345
151.667
147.558
146.936
164.812
186.191
214.173
250.033
287.289
327.434
369.97
414.063
438.985
434.13
420.171
429.165
293.758
246.012
189.875
163.737
139.971
128.455
123.09
121.62
125.744
146.81
170.942
207.187
250.787
298.295
350.565
407.431
460.443
481.025
472.389
531.237
308.013
233.534
173.574
141.839
120.308
107.351
101.66
100.069
104.529
115.793
138.727
169.579
213.365
265.339
323.764
390.491
467.018
519.151
523.926
686.453
317.88
211.137
148.16
116.904
99.7833
89.4639
84.378
82.5924
84.6103
95.9672
111.806
140.296
180.408
233.753
296.92
370.912
460.855
548.832
571.638
863.273
313.237
170.573
115.674
92.03
79.5504
73.1326
70.4311
69.6523
72.0302
78.7073
94.1678
115.711
152.424
203.366
268.481
347.399
444.545
563.321
613.91
646.053
32.1744
12.7362
11.3229
11.19
11.171
11.1705
11.1708
11.1706
11.1705
11.1705
11.1706
11.1708
11.1705
11.171
11.19
11.3229
12.7362
32.1744
646.053
672.742
55.0632
17.0387
12.087
11.3039
11.1803
11.1547
11.1529
11.1534
11.1536
11.1536
11.1534
11.1529
11.1547
11.1803
11.3039
12.087
17.0387
55.0631
672.742
698.453
71.094
21.1543
13.3033
11.5874
11.2261
11.1552
11.1382
11.1358
11.1355
11.1355
11.1358
11.1382
11.1552
11.2261
11.5874
13.3033
21.1543
71.0938
698.453
723.134
85.8487
25.1366
14.646
12.043
11.3371
11.1684
11.1265
11.1183
11.1171
11.1171
11.1183
11.1265
11.1684
11.3371
12.043
14.646
25.1365
85.8487
723.134
746.742
101.866
29.2064
16.0658
12.5884
11.5234
11.2064
11.1273
11.105
11.1003
11.1003
11.105
11.1273
11.2064
11.5234
12.5884
16.0658
29.2064
101.866
746.742
769.313
118.435
33.3674
17.5407
13.1972
11.7624
11.283
11.1366
11.0944
11.0843
11.0843
11.0944
11.1366
11.283
11.7624
13.1972
17.5407
33.3674
118.435
769.313
790.729
134.968
37.5678
19.0512
13.8502
12.0431
11.3872
11.16
11.0918
11.0718
11.0718
11.0918
11.16
11.3872
12.0431
13.8502
19.0512
37.5679
134.969
790.729
810.98
151.249
41.7797
20.585
14.5351
12.357
11.5178
11.203
11.0955
11.0625
11.0625
11.0955
11.203
11.5178
12.357
14.5351
20.585
41.7797
151.249
810.98
829.954
167.077
45.9688
22.1302
15.2422
12.6968
11.6708
11.2604
11.1065
11.0594
11.0594
11.1065
11.2604
11.6708
12.6968
15.2422
22.1302
45.9689
167.078
829.954
847.655
182.403
50.121
23.6797
15.9648
13.0568
11.8431
11.3324
11.129
11.0619
11.0619
11.129
11.3324
11.8431
13.0568
15.9648
23.6798
50.1212
182.403
847.655
863.992
197.097
54.2109
25.2249
16.6968
13.4322
12.0315
11.4179
11.1609
11.0698
11.0698
11.1609
11.4179
12.0315
13.4322
16.6969
25.2249
54.211
197.098
863.992
879.012
211.155
58.232
26.7619
17.4347
13.8193
12.2335
11.5156
11.2021
11.0862
11.0862
11.2021
11.5156
12.2335
13.8193
17.4347
26.7619
58.2322
211.155
879.012
892.662
224.49
62.1649
28.2843
18.1744
14.2149
12.4467
11.6242
11.2528
11.1113
11.1113
11.2528
11.6242
12.4467
14.2149
18.1745
28.2844
62.1651
224.491
892.662
905.027
237.118
66.0088
29.7907
18.914
14.6169
12.6691
11.7427
11.3126
11.1446
11.1446
11.3126
11.7427
12.6691
14.6169
18.9141
29.7907
66.009
237.119
905.026
916.068
248.971
69.746
31.2755
19.6507
15.023
12.899
11.8698
11.381
11.1861
11.1861
11.381
11.8698
12.899
15.0231
19.6507
31.2755
69.7462
248.971
916.068
925.904
260.09
73.3781
32.7379
20.383
15.4319
13.1352
12.0048
11.4576
11.2357
11.2357
11.4576
12.0048
13.1352
15.4319
20.383
32.738
73.3783
260.09
925.904
934.512
270.423
76.8908
34.1734
21.1088
15.8418
13.3762
12.1466
11.5418
11.293
11.293
11.5418
12.1466
13.3762
15.8418
21.1088
34.1735
76.8909
270.423
934.511
942.037
280.035
80.2888
35.5824
21.8276
16.2519
13.6211
12.2944
11.6331
11.3579
11.3579
11.6331
12.2944
13.6211
16.2519
21.8276
35.5824
80.2889
280.035
942.036
948.451
288.886
83.5604
36.9608
22.5374
16.6609
13.8691
12.4475
11.7309
11.4299
11.4299
11.7309
12.4475
13.8691
16.661
22.5374
36.9608
83.5605
288.886
948.451
953.925
297.052
86.7121
38.3096
23.2382
17.0685
14.1193
12.6053
11.8348
11.5085
11.5085
11.8348
12.6053
14.1194
17.0685
23.2383
38.3096
86.7122
297.052
953.924
958.416
304.505
89.7344
39.6251
23.9283
17.4735
14.3712
12.7671
11.9442
11.5934
11.5934
11.9442
12.7671
14.3712
17.4735
23.9283
39.6251
89.7344
304.505
958.416
962.12
311.327
92.6352
40.9091
24.6079
17.8757
14.6241
12.9325
12.0587
11.684
11.684
12.0587
12.9325
14.6242
17.8757
24.608
40.9092
92.6353
311.326
962.12
964.967
317.505
95.4078
42.1581
25.2755
18.2742
14.8776
13.1009
12.1777
11.78
11.78
12.1777
13.1009
14.8776
18.2742
25.2755
42.1581
95.4079
317.504
964.966
967.18
323.104
98.0613
43.3748
25.9317
18.669
15.1313
13.2719
12.3009
11.8809
11.8809
12.3009
13.2719
15.1313
18.669
25.9317
43.3749
98.0614
323.104
967.179
968.649
328.146
100.59
44.5556
26.575
19.0593
15.3846
13.445
12.4277
11.9862
11.9862
12.4277
13.445
15.3846
19.0593
26.575
44.5557
100.59
328.145
968.648
969.635
332.656
103.004
45.7041
27.2063
19.4452
15.6374
13.62
12.5579
12.0955
12.0955
12.5579
13.62
15.6374
19.4452
27.2063
45.7041
103.005
332.656
969.634
969.97
336.703
105.3
46.8163
27.824
19.8261
15.8892
13.7964
12.691
12.2085
12.2085
12.691
13.7964
15.8892
19.8261
27.8241
46.8164
105.3
336.702
969.969
969.834
340.244
107.487
47.8971
28.4295
20.202
16.14
13.974
12.8267
12.3248
12.3248
12.8267
13.974
16.14
20.2021
28.4295
47.8971
107.487
340.244
969.833
969.425
343.401
109.562
48.9419
29.0212
20.5725
16.3892
14.1525
12.9646
12.4441
12.4441
12.9646
14.1525
16.3892
20.5725
29.0212
48.9419
109.562
343.4
969.424
968.579
346.143
111.538
49.9563
29.6005
20.9378
16.6369
14.3316
13.1045
12.5659
12.5659
13.1045
14.3316
16.6369
20.9378
29.6006
49.9563
111.538
346.142
968.578
967.379
348.531
113.407
50.9359
30.1661
21.2973
16.8828
14.5111
13.2461
12.69
12.69
13.2461
14.5111
16.8828
21.2973
30.1661
50.9359
113.407
348.53
967.378
965.891
350.555
115.186
51.8864
30.7193
21.6514
17.1267
14.6907
13.389
12.8161
12.8161
13.389
14.6907
17.1267
21.6514
30.7193
51.8865
115.186
350.554
965.89
964.156
352.263
116.866
52.8037
31.259
21.9996
17.3685
14.8702
13.5331
12.944
12.944
13.5331
14.8702
17.3685
21.9996
31.2589
52.8035
116.865
352.262
964.155
962.205
353.66
118.463
53.6934
31.7865
22.3421
17.608
15.0495
13.6782
13.0733
13.0733
13.6782
15.0495
17.608
22.3422
31.7865
53.6935
118.463
353.659
962.204
960.074
354.764
119.967
54.5517
32.3009
22.6788
17.8451
15.2284
13.8239
13.2039
13.2039
13.8239
15.2284
17.8451
22.6788
32.3008
54.5514
119.966
354.763
960.073
957.789
355.618
121.397
55.3842
32.8034
23.0097
18.0798
15.4067
13.9702
13.3355
13.3355
13.9702
15.4067
18.0798
23.0098
32.8035
55.3843
121.397
355.616
957.788
955.382
356.174
122.738
56.1872
33.2934
23.3348
18.3119
15.5842
14.1168
13.468
13.468
14.1168
15.5842
18.3119
23.3348
33.2932
56.1867
122.737
356.173
955.382
952.869
356.559
124.013
56.9662
33.7719
23.6542
18.5414
15.761
14.2636
13.601
13.601
14.2636
15.761
18.5414
23.6542
33.772
56.9665
124.013
356.557
952.869
950.287
356.612
125.207
57.7181
34.2386
23.9678
18.7682
15.9367
14.4103
13.7346
13.7346
14.4103
15.9367
18.7681
23.9677
34.2383
57.7175
125.206
356.611
950.286
947.635
356.52
126.338
58.4478
34.6941
24.2758
18.9922
16.1114
14.557
13.8684
13.8684
14.557
16.1114
18.9922
24.2759
34.6944
58.4483
126.339
356.52
947.635
944.959
356.291
127.396
59.1528
35.1386
24.5781
19.2134
16.2849
14.7033
14.0024
14.0024
14.7033
16.2848
19.2134
24.578
35.1383
59.1519
127.394
356.291
944.958
942.243
355.823
128.402
59.8377
35.5727
24.8749
19.4319
16.4571
14.8493
14.1364
14.1364
14.8493
16.4571
19.4319
24.8751
35.573
59.8383
128.403
355.822
942.243
939.54
355.241
129.34
60.5006
35.9965
25.1664
19.6475
16.628
14.9948
14.2703
14.2703
14.9948
16.6279
19.6474
25.1662
35.9961
60.4996
129.338
355.242
939.54
936.819
354.507
130.246
61.1468
36.4106
25.4525
19.8602
16.7975
15.1397
14.404
14.404
15.1397
16.7975
19.8603
25.4527
36.411
61.1476
130.247
354.506
936.82
934.146
353.72
131.104
61.7765
36.8156
25.7336
20.0702
16.9655
15.2839
14.5373
14.5373
15.2839
16.9654
20.0701
25.7333
36.815
61.7754
131.103
353.72
934.146
931.465
352.873
131.981
62.3971
37.2117
26.0095
20.2773
17.132
15.4273
14.6702
14.6702
15.4273
17.132
20.2774
26.0097
37.2123
62.3979
131.982
352.873
931.465
928.861
352.023
132.874
63.015
37.6006
26.2808
20.4817
17.2969
15.5699
14.8026
14.8026
15.5698
17.2968
20.4815
26.2804
37.6
63.014
132.873
352.024
928.86
926.332
351.164
133.82
63.6361
37.9825
26.5472
20.6832
17.4603
15.7115
14.9344
14.9344
15.7116
17.4603
20.6834
26.5475
37.9831
63.6371
133.82
351.163
926.332
923.873
350.422
134.847
64.2669
38.3598
26.8096
20.8821
17.622
15.8522
15.0654
15.0654
15.8522
17.6219
20.8819
26.8092
38.359
64.2656
134.846
350.423
923.873
921.483
349.754
135.967
64.9082
38.7317
27.0675
21.0782
17.782
15.9919
15.1958
15.1958
15.9919
17.7822
21.0785
27.0681
38.7329
64.9102
135.97
349.753
921.483
919.157
349.293
137.2
65.5696
39.103
27.3226
21.272
17.9405
16.1304
15.3253
15.3253
16.1304
17.9404
21.2716
27.3219
39.1016
65.567
137.196
349.294
919.156
916.895
348.941
138.519
66.2405
39.4696
27.5733
21.4629
18.0972
16.2679
15.454
15.454
16.268
18.0975
21.4634
27.5742
39.4714
66.2444
138.526
348.942
916.896
914.696
348.851
139.953
66.939
39.839
27.8222
21.6519
18.2524
16.4042
15.5817
15.5817
16.4041
18.2522
21.6514
27.8213
39.8373
66.9354
139.946
348.853
914.693
912.556
348.916
141.446
67.6439
40.2051
28.0676
21.8383
18.4059
16.5393
15.7086
15.7086
16.5395
18.4062
21.8389
28.0687
40.207
67.6479
141.456
348.918
912.558
910.483
349.098
143.039
68.3756
40.5742
28.3112
22.0226
18.5577
16.6731
15.8343
15.8342
16.673
18.5575
22.0222
28.3106
40.5735
68.3745
143.035
349.101
910.479
908.466
349.471
144.661
69.1173
40.9447
28.5535
22.2053
18.7082
16.806
15.9592
15.9593
16.8062
18.7086
22.206
28.5544
40.9457
69.1182
144.666
349.468
908.468
906.518
349.987
146.351
69.8739
41.3142
28.7924
22.3852
18.8566
16.9372
16.0827
16.0827
16.9372
18.8565
22.385
28.7923
41.3152
69.8781
146.358
350.004
906.512
904.624
350.634
148.071
70.6513
41.6913
29.0328
22.5647
19.0042
17.0677
16.2056
16.2057
17.068
19.0048
22.5655
29.0338
41.6914
70.6481
148.065
350.629
904.625
902.799
351.371
149.81
71.429
42.0636
29.2688
22.741
19.1496
17.1964
16.3269
16.3268
17.1964
19.1494
22.7408
29.2689
42.0661
71.4391
149.832
351.398
902.791
901.029
352.214
151.579
72.233
42.4465
29.5074
22.9174
19.2943
17.3245
16.4477
16.4478
17.325
19.2952
22.9188
29.5093
42.4476
72.2286
151.564
352.211
901.027
899.326
353.109
153.334
73.0298
42.8238
29.742
23.0908
19.4368
17.4507
16.5666
16.5665
17.4506
19.4366
23.0904
29.7419
42.8266
73.0439
153.372
353.148
899.315
897.678
354.088
155.115
73.852
43.2115
29.9793
23.2644
19.5788
17.5764
16.6853
16.6855
17.5772
19.5804
23.2669
29.9831
43.2157
73.8505
155.099
354.092
897.671
896.095
355.088
156.863
74.6634
43.5938
30.2128
23.4352
19.7186
17.7001
16.8018
16.8017
17.7
19.7184
23.4348
30.2128
43.5972
74.6815
156.913
355.145
896.077
894.565
356.15
158.626
75.4991
43.9871
30.4496
23.6064
19.8581
17.8235
16.9184
16.9187
17.8247
19.8606
23.6107
30.4564
43.996
75.5049
158.619
356.173
894.549
893.1
357.211
160.343
76.3193
44.3738
30.6827
23.775
19.9954
17.9446
17.0324
17.0324
17.9447
19.9953
23.7749
30.6832
44.379
76.3433