/*--------------------------------*- C++ -*----------------------------------*\
| =========                 |                                                 |
| \\      /  F ield         | OpenFOAM: The Open Source CFD Toolbox           |
|  \\    /   O peration     | Version:  2.1.0                                 |
|   \\  /    A nd           | Web:      www.OpenFOAM.org                      |
|    \\/     M anipulation  |                                                 |
\*---------------------------------------------------------------------------*/
FoamFile
{
    version     2.0;
    format      ascii;
    class       volScalarField;
    location    "0.29";
    object      p;
}
// * * * * * * * * * * * * * * * * * * * * * * * * * * * * * * * * * * * * * //

dimensions      [1 -1 -2 0 0 0 0];

internalField   nonuniform List<scalar> 
6400
(
99997.5
99995.2
99993.5
99992.2
99990.9
99989.8
99988.6
99987.5
99986.3
99985
99983.7
99982.3
99980.9
99979.4
99977.8
99976.1
99974.4
99972.6
99970.7
99968.8
99966.7
99964.6
99962.4
99960.1
99957.7
99955.2
99952.6
99949.9
99947.2
99944.3
99941.3
99938.2
99935
99931.7
99928.3
99924.8
99921.1
99917.3
99913.4
99909.4
99905.2
99900.9
99896.5
99891.9
99887.2
99882.3
99877.3
99872
99866.6
99861.1
99855.3
99849.3
99843.2
99836.8
99830.3
99823.5
99816.5
99809.3
99801.9
99794.2
99786.2
99778
99769.5
99760.7
99751.6
99742.2
99732.5
99722.4
99711.9
99701.1
99689.9
99678.2
99666.2
99653.7
99640.7
99627.2
99613.1
99598.6
99583.4
99567.6
99551.1
99533.8
99515.6
99496.4
99475.9
99454
99430.3
99404.4
99376
99344.8
99310.8
99275.1
99239.9
99206.6
99175
99138.9
99081.6
98966.3
98595.5
96989.3
99995.9
99994.5
99993.1
99991.8
99990.6
99989.4
99988.3
99987.1
99985.9
99984.6
99983.3
99981.9
99980.5
99979
99977.4
99975.7
99974
99972.2
99970.3
99968.3
99966.3
99964.1
99961.9
99959.6
99957.2
99954.7
99952.1
99949.5
99946.7
99943.8
99940.8
99937.7
99934.5
99931.2
99927.8
99924.2
99920.6
99916.8
99912.9
99908.8
99904.7
99900.4
99895.9
99891.4
99886.6
99881.7
99876.7
99871.5
99866.1
99860.5
99854.7
99848.8
99842.7
99836.3
99829.8
99823.1
99816.1
99808.9
99801.5
99793.8
99785.8
99777.6
99769.1
99760.4
99751.3
99741.9
99732.2
99722.1
99711.7
99700.9
99689.7
99678.1
99666.1
99653.6
99640.6
99627.1
99613.1
99598.6
99583.4
99567.6
99551.1
99533.8
99515.6
99496.4
99475.9
99454
99430.4
99404.6
99376.4
99345.4
99311.7
99276.3
99241.1
99208
99179.3
99148.7
99097.3
98996.5
98696.1
98142.8
99994.4
99993.8
99992.6
99991.5
99990.3
99989.2
99988.1
99986.9
99985.7
99984.5
99983.1
99981.8
99980.3
99978.8
99977.2
99975.6
99973.8
99972
99970.1
99968.1
99966.1
99964
99961.7
99959.4
99957
99954.5
99952
99949.3
99946.5
99943.6
99940.6
99937.5
99934.3
99931
99927.6
99924.1
99920.4
99916.7
99912.8
99908.7
99904.6
99900.3
99895.9
99891.3
99886.6
99881.7
99876.7
99871.5
99866.2
99860.7
99854.9
99849
99842.9
99836.7
99830.2
99823.4
99816.5
99809.3
99801.9
99794.3
99786.4
99778.2
99769.8
99761.1
99752.1
99742.7
99733.1
99723.1
99712.7
99702
99690.9
99679.4
99667.4
99655
99642.2
99628.8
99614.9
99600.5
99585.4
99569.7
99553.3
99536.1
99518
99498.8
99478.5
99456.7
99433.1
99407.6
99379.7
99349.4
99316.8
99283.2
99250.4
99220.6
99195.5
99167.9
99132.3
99070.4
98914.5
99005.1
99992.7
99992.9
99992.2
99991.3
99990.2
99989.2
99988.1
99987
99985.8
99984.5
99983.2
99981.9
99980.4
99978.9
99977.3
99975.7
99974
99972.2
99970.3
99968.3
99966.3
99964.2
99962
99959.7
99957.3
99954.8
99952.2
99949.6
99946.8
99944
99941
99937.9
99934.7
99931.4
99928
99924.5
99920.9
99917.2
99913.3
99909.3
99905.2
99900.9
99896.5
99892
99887.3
99882.5
99877.5
99872.4
99867.1
99861.6
99855.9
99850.1
99844
99837.7
99831.3
99824.6
99817.7
99810.6
99803.3
99795.7
99787.8
99779.7
99771.3
99762.7
99753.7
99744.4
99734.8
99724.9
99714.6
99703.9
99692.8
99681.3
99669.4
99657
99644.2
99630.8
99616.8
99602.3
99587.2
99571.4
99554.9
99537.5
99519.2
99499.9
99479.3
99457.3
99433.7
99408.2
99380.7
99351.2
99320.2
99289.3
99260.5
99235.9
99217.3
99204.7
99199.3
99204.1
99231
99651.8
99990.8
99992
99991.9
99991.2
99990.3
99989.4
99988.3
99987.2
99986.1
99984.8
99983.6
99982.2
99980.8
99979.3
99977.7
99976.1
99974.4
99972.6
99970.8
99968.9
99966.8
99964.7
99962.5
99960.3
99957.9
99955.4
99952.9
99950.3
99947.5
99944.7
99941.7
99938.7
99935.5
99932.3
99928.9
99925.4
99921.8
99918.1
99914.2
99910.3
99906.2
99901.9
99897.5
99893
99888.4
99883.6
99878.6
99873.5
99868.2
99862.7
99857.1
99851.3
99845.2
99839
99832.6
99825.9
99819
99811.9
99804.6
99797
99789.2
99781.1
99772.7
99764
99755
99745.7
99736.1
99726.1
99715.8
99705
99693.9
99682.3
99670.3
99657.9
99644.9
99631.4
99617.4
99602.8
99587.5
99571.5
99554.8
99537.2
99518.8
99499.2
99478.5
99456.3
99432.7
99407.4
99380.4
99352
99323.2
99295.7
99272.4
99255.1
99247.9
99257.7
99294.7
99387.1
99585.5
100162
99988.9
99991.1
99991.5
99991.2
99990.5
99989.7
99988.7
99987.7
99986.5
99985.3
99984.1
99982.7
99981.3
99979.8
99978.3
99976.7
99975
99973.2
99971.4
99969.5
99967.5
99965.4
99963.2
99961
99958.6
99956.2
99953.6
99951
99948.3
99945.5
99942.5
99939.5
99936.3
99933.1
99929.7
99926.2
99922.6
99918.9
99915.1
99911.1
99907
99902.8
99898.4
99893.9
99889.2
99884.4
99879.4
99874.3
99869
99863.5
99857.9
99852
99846
99839.7
99833.3
99826.6
99819.7
99812.6
99805.2
99797.6
99789.7
99781.6
99773.2
99764.5
99755.5
99746.1
99736.5
99726.5
99716.1
99705.3
99694.1
99682.5
99670.5
99658
99644.9
99631.3
99617.2
99602.5
99587
99570.9
99554
99536.3
99517.6
99497.8
99476.8
99454.6
99430.9
99405.8
99379.4
99352.3
99325.8
99302.2
99284.7
99275.9
99283.3
99320.1
99406.6
99591.6
99926.4
100562
99987.3
99990.3
99991.1
99991.1
99990.7
99989.9
99989
99988
99987
99985.8
99984.5
99983.2
99981.8
99980.3
99978.8
99977.2
99975.5
99973.7
99971.9
99970
99968
99965.9
99963.7
99961.4
99959.1
99956.6
99954.1
99951.5
99948.7
99945.9
99943
99939.9
99936.8
99933.5
99930.1
99926.6
99923
99919.3
99915.4
99911.4
99907.3
99903.1
99898.7
99894.2
99889.5
99884.6
99879.7
99874.5
99869.2
99863.7
99858
99852.2
99846.1
99839.8
99833.4
99826.7
99819.8
99812.7
99805.3
99797.7
99789.8
99781.6
99773.2
99764.5
99755.5
99746.2
99736.5
99726.5
99716.1
99705.3
99694.1
99682.5
99670.4
99657.8
99644.7
99631.1
99616.8
99602
99586.5
99570.2
99553.1
99535.1
99516.1
99496.1
99474.9
99452.5
99428.8
99403.9
99378.1
99352.3
99328
99307.8
99295.9
99296
99318.7
99383
99518.9
99788
100220
100865
99986
99989.5
99990.7
99991
99990.7
99990
99989.2
99988.2
99987.2
99986
99984.8
99983.4
99982
99980.6
99979
99977.4
99975.7
99973.9
99972.1
99970.2
99968.2
99966.1
99963.9
99961.6
99959.2
99956.8
99954.2
99951.6
99948.8
99946
99943
99940
99936.8
99933.5
99930.1
99926.6
99923
99919.2
99915.3
99911.3
99907.2
99903
99898.6
99894
99889.3
99884.5
99879.5
99874.3
99869
99863.5
99857.9
99852
99846
99839.7
99833.2
99826.6
99819.7
99812.6
99805.2
99797.6
99789.7
99781.6
99773.2
99764.5
99755.5
99746.2
99736.5
99726.5
99716.1
99705.3
99694.1
99682.4
99670.3
99657.7
99644.6
99630.8
99616.5
99601.6
99585.9
99569.4
99552.2
99533.9
99514.7
99494.4
99473
99450.4
99426.6
99401.9
99376.7
99351.9
99329.4
99312.1
99304.8
99312.8
99348.8
99437.3
99616
99952.1
100446
101081
99985.2
99989
99990.4
99990.8
99990.6
99990
99989.2
99988.3
99987.2
99986
99984.8
99983.5
99982
99980.6
99979
99977.4
99975.7
99973.9
99972
99970.1
99968.1
99966
99963.8
99961.5
99959.1
99956.6
99954.1
99951.4
99948.6
99945.8
99942.8
99939.7
99936.5
99933.3
99929.9
99926.3
99922.7
99918.9
99915.1
99911.1
99906.9
99902.7
99898.3
99893.8
99889.1
99884.3
99879.3
99874.1
99868.8
99863.3
99857.7
99851.8
99845.8
99839.6
99833.1
99826.5
99819.6
99812.5
99805.2
99797.6
99789.7
99781.6
99773.2
99764.5
99755.5
99746.2
99736.6
99726.6
99716.2
99705.4
99694.1
99682.5
99670.3
99657.7
99644.5
99630.7
99616.3
99601.2
99585.4
99568.8
99551.3
99532.9
99513.4
99492.9
99471.2
99448.4
99424.5
99399.8
99375
99351
99329.8
99314.6
99310.3
99324.2
99370.4
99476.1
99685.4
100067
100597
101218
99984.8
99988.7
99990.2
99990.7
99990.5
99990
99989.2
99988.2
99987.2
99986
99984.7
99983.4
99982
99980.5
99978.9
99977.3
99975.6
99973.8
99971.9
99969.9
99967.9
99965.8
99963.6
99961.3
99958.9
99956.5
99953.9
99951.2
99948.5
99945.6
99942.6
99939.6
99936.4
99933.1
99929.7
99926.2
99922.6
99918.8
99914.9
99910.9
99906.8
99902.6
99898.2
99893.7
99889
99884.2
99879.2
99874.1
99868.8
99863.3
99857.7
99851.8
99845.8
99839.6
99833.2
99826.5
99819.7
99812.6
99805.2
99797.7
99789.8
99781.7
99773.3
99764.7
99755.7
99746.4
99736.8
99726.8
99716.4
99705.6
99694.3
99682.7
99670.5
99657.8
99644.6
99630.7
99616.2
99601
99585.1
99568.3
99550.6
99532
99512.3
99491.5
99469.6
99446.6
99422.6
99397.8
99373.2
99349.6
99329.2
99315
99312.2
99329.1
99380.9
99495.4
99720
100124
100670
101286
99984.7
99988.7
99990.2
99990.7
99990.6
99990.1
99989.4
99988.5
99987.3
99986.1
99984.9
99983.5
99982.1
99980.6
99979
99977.4
99975.7
99973.9
99972
99970.1
99968.1
99965.9
99963.7
99961.4
99959.1
99956.6
99954
99951.3
99948.6
99945.7
99942.7
99939.7
99936.5
99933.2
99929.8
99926.3
99922.6
99918.9
99915
99911
99906.9
99902.7
99898.3
99893.8
99889.1
99884.3
99879.3
99874.2
99868.9
99863.4
99857.8
99852
99846
99839.7
99833.3
99826.7
99819.9
99812.8
99805.5
99797.9
99790.1
99782.1
99773.7
99765
99756
99746.7
99737.1
99727.1
99716.7
99705.9
99694.7
99683
99670.8
99658.1
99644.8
99630.9
99616.3
99601
99584.9
99568
99550.2
99531.4
99511.5
99490.5
99468.3
99445
99420.7
99395.8
99371
99347.6
99327.2
99313.1
99310.4
99327.4
99379.4
99493.8
99717.5
100120
100666
101282
99985
99989
99990.5
99990.9
99990.7
99990.2
99989.4
99988.5
99987.4
99986.2
99984.9
99983.6
99982.2
99980.7
99979.2
99977.6
99975.9
99974.1
99972.2
99970.3
99968.3
99966.2
99964
99961.8
99959.4
99957
99954.4
99951.8
99949
99946.2
99943.2
99940.2
99937
99933.8
99930.4
99926.9
99923.3
99919.5
99915.7
99911.7
99907.6
99903.3
99898.9
99894.4
99889.7
99884.8
99879.9
99874.7
99869.4
99863.9
99858.2
99852.4
99846.4
99840.1
99833.7
99827.1
99820.2
99813.2
99805.9
99798.3
99790.5
99782.4
99774.1
99765.4
99756.4
99747.1
99737.5
99727.5
99717.1
99706.3
99695.1
99683.4
99671.1
99658.4
99645
99631.1
99616.4
99601
99584.8
99567.8
99549.8
99530.8
99510.6
99489.4
99466.9
99443.3
99418.7
99393.4
99368.3
99344.5
99323.6
99308.6
99304.3
99318.5
99365.3
99470.1
99676.6
100054
100582
101204
99985.8
99989.5
99990.8
99991
99990.7
99990.1
99989.3
99988.4
99987.3
99986.1
99984.8
99983.5
99982.1
99980.6
99979.1
99977.5
99975.8
99974
99972.2
99970.3
99968.3
99966.2
99964.1
99961.8
99959.5
99957
99954.5
99951.9
99949.2
99946.4
99943.4
99940.4
99937.3
99934
99930.6
99927.2
99923.6
99919.8
99916
99912
99907.9
99903.7
99899.3
99894.7
99890.1
99885.2
99880.2
99875.1
99869.8
99864.3
99858.6
99852.8
99846.8
99840.5
99834.1
99827.5
99820.6
99813.6
99806.2
99798.7
99790.9
99782.8
99774.5
99765.8
99756.8
99747.5
99737.9
99727.9
99717.5
99706.7
99695.5
99683.7
99671.5
99658.7
99645.3
99631.3
99616.6
99601.1
99584.8
99567.6
99549.5
99530.3
99509.9
99488.4
99465.7
99441.8
99416.8
99391.1
99365.4
99340.8
99318.9
99302.1
99294.8
99303.6
99340.6
99427.3
99601.7
99931.3
100422
101057
99987.2
99990.3
99991.2
99991.1
99990.7
99990
99989.1
99988.1
99986.9
99985.7
99984.5
99983.2
99981.8
99980.3
99978.8
99977.2
99975.5
99973.7
99971.9
99970
99968
99966
99963.8
99961.6
99959.2
99956.8
99954.3
99951.7
99949
99946.1
99943.2
99940.2
99937.1
99933.8
99930.5
99927
99923.4
99919.7
99915.9
99912
99907.9
99903.6
99899.3
99894.8
99890.1
99885.3
99880.3
99875.2
99869.9
99864.5
99858.8
99853
99847
99840.8
99834.4
99827.7
99820.9
99813.9
99806.6
99799
99791.2
99783.2
99774.8
99766.2
99757.2
99747.9
99738.3
99728.3
99717.9
99707.1
99695.9
99684.2
99671.9
99659.1
99645.7
99631.7
99616.9
99601.3
99585
99567.7
99549.4
99530
99509.5
99487.8
99464.8
99440.5
99415.2
99388.9
99362.5
99336.8
99313.5
99294.4
99282.9
99284.5
99308.1
99370.2
99501
99761.9
100187
100832
99988.9
99991.1
99991.5
99991.2
99990.5
99989.7
99988.7
99987.6
99986.5
99985.3
99984
99982.6
99981.2
99979.8
99978.2
99976.6
99974.9
99973.2
99971.3
99969.4
99967.4
99965.3
99963.2
99960.9
99958.6
99956.1
99953.6
99951
99948.3
99945.5
99942.6
99939.6
99936.4
99933.2
99929.9
99926.4
99922.8
99919.1
99915.3
99911.4
99907.3
99903.1
99898.8
99894.3
99889.6
99884.9
99879.9
99874.8
99869.6
99864.1
99858.5
99852.7
99846.8
99840.6
99834.2
99827.6
99820.9
99813.8
99806.6
99799.1
99791.3
99783.3
99775
99766.4
99757.5
99748.2
99738.6
99728.6
99718.3
99707.5
99696.3
99684.6
99672.3
99659.5
99646.1
99632.1
99617.3
99601.7
99585.2
99567.8
99549.5
99530
99509.3
99487.4
99464.2
99439.6
99413.8
99387
99359.6
99332.6
99307.5
99285.7
99269.6
99263.2
99271.9
99306.4
99387.3
99563.1
99888.8
100520
99990.8
99992.1
99991.9
99991.2
99990.4
99989.4
99988.3
99987.2
99986
99984.8
99983.5
99982.1
99980.7
99979.2
99977.7
99976
99974.3
99972.5
99970.7
99968.8
99966.7
99964.6
99962.5
99960.2
99957.8
99955.4
99952.9
99950.2
99947.5
99944.7
99941.8
99938.7
99935.6
99932.3
99929
99925.5
99921.9
99918.2
99914.4
99910.4
99906.3
99902.1
99897.8
99893.3
99888.6
99883.9
99878.9
99873.8
99868.6
99863.2
99857.6
99851.8
99845.9
99839.7
99833.4
99826.9
99820.1
99813.1
99805.9
99798.5
99790.7
99782.8
99774.5
99766
99757.1
99747.9
99738.4
99728.4
99718.1
99707.4
99696.2
99684.5
99672.3
99659.6
99646.2
99632.1
99617.3
99601.7
99585.2
99567.8
99549.4
99529.8
99509
99487
99463.6
99438.8
99412.6
99385.1
99356.8
99328.4
99301.2
99276.7
99256.8
99242.8
99236.8
99244.6
99276
99358.9
99546
100114
99992.7
99993
99992.3
99991.3
99990.3
99989.2
99988.1
99987
99985.8
99984.5
99983.2
99981.8
99980.4
99978.9
99977.3
99975.6
99973.9
99972.1
99970.3
99968.3
99966.3
99964.2
99962
99959.7
99957.3
99954.8
99952.3
99949.6
99946.9
99944
99941.1
99938
99934.8
99931.5
99928.2
99924.7
99921
99917.3
99913.5
99909.5
99905.4
99901.1
99896.7
99892.2
99887.6
99882.8
99877.8
99872.7
99867.4
99862
99856.3
99850.6
99844.6
99838.4
99832.1
99825.5
99818.8
99811.8
99804.6
99797.1
99789.4
99781.4
99773.2
99764.6
99755.8
99746.6
99737.1
99727.2
99716.9
99706.2
99695.1
99683.5
99671.3
99658.6
99645.3
99631.3
99616.5
99601
99584.5
99567.1
99548.7
99529.1
99508.3
99486.2
99462.6
99437.6
99411.1
99383.2
99354
99324.3
99295.2
99268.1
99244.7
99225
99207.6
99193.1
99182.4
99178.4
99192.4
99598.1
99994.5
99993.8
99992.7
99991.6
99990.4
99989.3
99988.1
99987
99985.7
99984.5
99983.1
99981.7
99980.3
99978.8
99977.2
99975.6
99973.8
99972
99970.2
99968.2
99966.2
99964
99961.8
99959.5
99957.1
99954.6
99952.1
99949.4
99946.6
99943.7
99940.7
99937.7
99934.5
99931.2
99927.8
99924.3
99920.6
99916.9
99913
99909
99904.9
99900.6
99896.2
99891.7
99887
99882.1
99877.1
99872
99866.7
99861.2
99855.6
99849.7
99843.7
99837.5
99831.1
99824.5
99817.6
99810.6
99803.3
99795.8
99788.1
99780
99771.7
99763.2
99754.3
99745
99735.4
99725.5
99715.2
99704.4
99693.2
99681.6
99669.4
99656.6
99643.3
99629.2
99614.4
99598.8
99582.4
99564.9
99546.5
99526.9
99506
99483.8
99460.3
99435.2
99408.5
99380.2
99350.5
99319.9
99289.4
99260.4
99234.3
99212.2
99187.8
99158
99117.7
99047.6
98878.4
98944.4
99996
99994.6
99993.2
99991.9
99990.7
99989.5
99988.4
99987.2
99985.9
99984.7
99983.3
99981.9
99980.5
99979
99977.4
99975.7
99974
99972.2
99970.3
99968.4
99966.3
99964.2
99962
99959.7
99957.3
99954.8
99952.3
99949.6
99946.8
99943.9
99940.9
99937.9
99934.7
99931.4
99928
99924.5
99920.8
99917.1
99913.2
99909.2
99905
99900.8
99896.3
99891.8
99887.1
99882.2
99877.2
99872.1
99866.8
99861.3
99855.6
99849.7
99843.7
99837.5
99831
99824.3
99817.5
99810.4
99803.1
99795.5
99787.7
99779.7
99771.3
99762.7
99753.7
99744.4
99734.8
99724.8
99714.4
99703.6
99692.4
99680.6
99668.3
99655.5
99642
99627.8
99612.9
99597.2
99580.5
99562.9
99544.2
99524.4
99503.3
99480.8
99456.9
99431.5
99404.4
99375.6
99345.2
99313.6
99281.7
99250.9
99222.5
99197.3
99173.8
99140.1
99084
98975.3
98662
98069.1
99997.6
99995.3
99993.6
99992.3
99991
99989.9
99988.7
99987.5
99986.3
99985
99983.7
99982.3
99980.9
99979.4
99977.8
99976.1
99974.4
99972.6
99970.7
99968.8
99966.8
99964.6
99962.4
99960.2
99957.8
99955.3
99952.7
99950.1
99947.3
99944.4
99941.4
99938.4
99935.2
99931.9
99928.5
99925
99921.4
99917.6
99913.7
99909.7
99905.6
99901.3
99896.9
99892.4
99887.7
99882.9
99877.9
99872.7
99867.4
99861.9
99856.2
99850.4
99844.4
99838.1
99831.7
99825.1
99818.2
99811.1
99803.8
99796.3
99788.5
99780.4
99772
99763.3
99754.4
99745.1
99735.4
99725.4
99715
99704.2
99692.9
99681.2
99668.9
99656
99642.5
99628.3
99613.3
99597.6
99580.9
99563.2
99544.5
99524.6
99503.4
99480.9
99457
99431.4
99404.2
99375.3
99344.7
99312.9
99281
99250.4
99221.7
99195.7
99161.1
99122.9
99063
98943.1
98561.5
96896.5
100567
101842
102385
102694
102906
103064
103189
103289
103371
103438
103494
103539
103575
103604
103627
103644
103655
103661
103662
103658
100521
101547
102181
102580
102847
103039
103183
103296
103386
103458
103516
103563
103599
103628
103649
103664
103674
103677
103676
103669
100809
101579
102123
102520
102807
103017
103176
103298
103395
103471
103531
103579
103616
103644
103664
103678
103686
103688
103686
103675
101085
101712
102173
102533
102810
103022
103186
103313
103413
103491
103552
103599
103635
103662
103680
103692
103698
103699
103696
103679
101322
101853
102257
102582
102842
103047
103209
103336
103436
103515
103575
103621
103656
103680
103696
103706
103709
103708
103703
103682
101521
101985
102347
102645
102888
103084
103240
103365
103464
103541
103600
103644
103676
103698
103712
103719
103720
103717
103710
103685
101682
102097
102430
102707
102936
103123
103275
103396
103492
103567
103624
103667
103697
103716
103726
103730
103730
103725
103714
103686
101804
102186
102498
102761
102980
103160
103306
103424
103519
103592
103648
103688
103716
103732
103740
103741
103738
103731
103717
103688
101885
102246
102546
102800
103013
103189
103333
103450
103542
103615
103669
103708
103733
103747
103752
103750
103745
103736
103720
103691
101929
102281
102576
102825
103035
103209
103352
103468
103560
103631
103684
103721
103745
103757
103760
103757
103751
103741
103720
103696
101926
102278
102572
102822
103032
103206
103349
103465
103557
103628
103682
103719
103743
103756
103759
103756
103750
103739
103721
103695
101873
102236
102536
102790
103004
103180
103325
103442
103536
103609
103664
103703
103729
103743
103749
103748
103743
103735
103719
103694
101785
102168
102482
102746
102966
103147
103295
103414
103510
103584
103641
103682
103711
103728
103737
103739
103736
103729
103716
103693
101656
102073
102408
102687
102918
103107
103260
103383
103481
103557
103616
103660
103691
103711
103723
103728
103727
103723
103712
103689
101488
101954
102319
102620
102866
103064
103223
103350
103451
103530
103591
103637
103670
103693
103708
103715
103717
103715
103708
103686
101283
101818
102225
102554
102817
103025
103190
103320
103422
103503
103565
103613
103649
103675
103692
103702
103707
103706
103701
103683
101042
101672
102137
102502
102783
102999
103165
103295
103398
103478
103541
103591
103628
103656
103676
103688
103695
103696
103694
103680
100761
101535
102085
102487
102778
102992
103155
103280
103379
103458
103520
103570
103608
103638
103659
103674
103683
103686
103684
103675
100468
101501
102142
102547
102819
103014
103162
103278
103370
103445
103505
103553
103592
103622
103644
103660
103670
103675
103674
103668
100512
101798
102348
102663
102878
103040
103168
103271
103355
103425
103482
103529
103567
103597
103621
103639
103651
103657
103659
103656
103500
103498
103497
103496
103495
103495
103494
103494
103494
103494
103494
103494
103494
103494
103495
103495
103496
103497
103498
103500
103497
103495
103494
103494
103494
103493
103493
103493
103493
103493
103493
103493
103493
103493
103493
103494
103494
103494
103495
103497
103496
103494
103494
103494
103494
103494
103494
103494
103494
103494
103494
103494
103494
103494
103494
103494
103494
103494
103494
103496
103496
103494
103494
103494
103494
103494
103494
103494
103494
103494
103494
103494
103494
103494
103494
103494
103494
103494
103494
103496
103496
103494
103494
103494
103494
103493
103493
103493
103493
103493
103493
103493
103493
103493
103493
103494
103494
103494
103494
103496
103495
103493
103493
103493
103493
103493
103493
103493
103493
103493
103493
103493
103493
103493
103493
103493
103493
103493
103493
103495
103494
103493
103493
103492
103492
103492
103492
103492
103492
103492
103492
103492
103492
103492
103492
103492
103492
103493
103493
103494
103494
103492
103492
103492
103492
103492
103492
103492
103492
103492
103492
103492
103492
103492
103492
103492
103492
103492
103492
103494
103493
103491
103491
103491
103491
103491
103491
103491
103491
103491
103491
103491
103491
103491
103491
103491
103491
103491
103491
103493
103492
103491
103491
103491
103490
103490
103490
103490
103490
103490
103490
103490
103490
103490
103490
103490
103491
103491
103491
103492
103492
103490
103490
103490
103490
103490
103490
103490
103490
103490
103490
103490
103490
103490
103490
103490
103490
103490
103490
103492
103491
103489
103489
103489
103489
103489
103489
103489
103489
103489
103489
103489
103489
103489
103489
103489
103489
103489
103489
103491
103490
103489
103489
103488
103488
103488
103488
103488
103488
103488
103488
103488
103488
103488
103488
103488
103488
103489
103489
103490
103490
103488
103488
103488
103488
103488
103488
103487
103487
103487
103487
103487
103487
103488
103488
103488
103488
103488
103488
103490
103489
103487
103487
103487
103487
103487
103487
103487
103487
103487
103487
103487
103487
103487
103487
103487
103487
103487
103487
103489
103488
103486
103486
103486
103486
103486
103486
103486
103486
103486
103486
103486
103486
103486
103486
103486
103486
103486
103486
103488
103487
103486
103486
103485
103485
103485
103485
103485
103485
103485
103485
103485
103485
103485
103485
103485
103485
103486
103486
103487
103486
103485
103485
103485
103485
103485
103484
103484
103484
103484
103484
103484
103484
103484
103485
103485
103485
103485
103485
103486
103486
103484
103484
103484
103484
103484
103484
103484
103484
103484
103484
103484
103484
103484
103484
103484
103484
103484
103484
103486
103485
103483
103483
103483
103483
103483
103483
103483
103483
103483
103483
103483
103483
103483
103483
103483
103483
103483
103483
103485
103484
103483
103482
103482
103482
103482
103482
103482
103482
103482
103482
103482
103482
103482
103482
103482
103482
103482
103483
103484
103483
103482
103482
103482
103481
103481
103481
103481
103481
103481
103481
103481
103481
103481
103481
103481
103482
103482
103482
103483
103482
103481
103481
103481
103481
103481
103481
103481
103480
103480
103480
103480
103481
103481
103481
103481
103481
103481
103481
103482
103481
103480
103480
103480
103480
103480
103480
103480
103480
103480
103480
103480
103480
103480
103480
103480
103480
103480
103480
103481
103480
103479
103479
103479
103479
103479
103479
103479
103479
103479
103479
103479
103479
103479
103479
103479
103479
103479
103479
103480
103480
103478
103478
103478
103478
103478
103478
103478
103478
103478
103478
103478
103478
103478
103478
103478
103478
103478
103479
103480
103479
103478
103478
103477
103477
103477
103477
103477
103477
103477
103477
103477
103477
103477
103477
103477
103477
103478
103478
103479
103478
103477
103477
103477
103477
103477
103477
103477
103476
103476
103476
103476
103477
103477
103477
103477
103477
103477
103477
103478
103477
103476
103476
103476
103476
103476
103476
103476
103476
103476
103476
103476
103476
103476
103476
103476
103476
103476
103476
103477
103476
103475
103475
103475
103475
103475
103475
103475
103475
103475
103475
103475
103475
103475
103475
103475
103475
103475
103475
103476
103475
103474
103474
103474
103474
103474
103474
103474
103474
103474
103474
103474
103474
103474
103474
103474
103474
103474
103474
103475
103475
103474
103474
103473
103473
103473
103473
103473
103473
103473
103473
103473
103473
103473
103473
103473
103473
103474
103474
103475
103474
103473
103473
103473
103473
103473
103473
103473
103472
103472
103472
103472
103473
103473
103473
103473
103473
103473
103473
103474
103473
103472
103472
103472
103472
103472
103472
103472
103472
103472
103472
103472
103472
103472
103472
103472
103472
103472
103472
103473
103472
103471
103471
103471
103471
103471
103471
103471
103471
103471
103471
103471
103471
103471
103471
103471
103471
103471
103471
103472
103471
103471
103470
103470
103470
103470
103470
103470
103470
103470
103470
103470
103470
103470
103470
103470
103470
103470
103471
103471
103470
103470
103470
103470
103469
103469
103469
103469
103469
103469
103469
103469
103469
103469
103469
103469
103470
103470
103470
103470
103470
103469
103469
103469
103469
103469
103469
103469
103469
103469
103469
103469
103469
103469
103469
103469
103469
103469
103469
103470
103469
103468
103468
103468
103468
103468
103468
103468
103468
103468
103468
103468
103468
103468
103468
103468
103468
103468
103468
103469
103468
103467
103467
103467
103467
103467
103467
103467
103467
103467
103467
103467
103467
103467
103467
103467
103467
103467
103467
103468
103467
103467
103466
103466
103466
103466
103466
103466
103466
103466
103466
103466
103466
103466
103466
103466
103466
103466
103467
103467
103466
103466
103466
103466
103466
103466
103466
103466
103466
103466
103466
103466
103466
103466
103466
103466
103466
103466
103466
103466
103466
103465
103465
103465
103465
103465
103465
103465
103465
103465
103465
103465
103465
103465
103465
103465
103465
103465
103465
103466
103465
103464
103464
103464
103464
103464
103464
103464
103464
103464
103464
103464
103464
103464
103464
103464
103464
103464
103464
103465
103464
103464
103463
103463
103463
103463
103463
103463
103463
103463
103463
103463
103463
103463
103463
103463
103463
103463
103464
103464
103463
103463
103463
103463
103463
103463
103463
103463
103463
103463
103463
103463
103463
103463
103463
103463
103463
103463
103463
103463
103462
103462
103462
103462
103462
103462
103462
103462
103462
103462
103462
103462
103462
103462
103462
103462
103462
103462
103462
103462
103462
103461
103461
103461
103461
103461
103461
103461
103461
103461
103461
103461
103461
103461
103461
103461
103461
103461
103461
103462
103461
103461
103461
103461
103460
103460
103460
103460
103460
103460
103460
103460
103460
103460
103460
103460
103461
103461
103461
103461
103460
103460
103460
103460
103460
103460
103460
103460
103460
103460
103460
103460
103460
103460
103460
103460
103460
103460
103460
103460
103459
103459
103459
103459
103459
103459
103459
103459
103459
103459
103459
103459
103459
103459
103459
103459
103459
103459
103459
103459
103459
103459
103458
103458
103458
103458
103458
103458
103458
103458
103458
103458
103458
103458
103458
103458
103458
103458
103459
103459
103458
103458
103458
103458
103458
103458
103458
103458
103458
103458
103458
103458
103458
103458
103458
103458
103458
103458
103458
103458
103457
103457
103457
103457
103457
103457
103457
103457
103457
103457
103457
103457
103457
103457
103457
103457
103457
103457
103457
103457
103457
103456
103456
103456
103456
103456
103456
103456
103456
103456
103456
103456
103456
103456
103456
103456
103456
103456
103456
103457
103456
103456
103456
103456
103456
103456
103455
103455
103455
103455
103455
103455
103455
103455
103456
103456
103456
103456
103456
103456
103455
103455
103455
103455
103455
103455
103455
103455
103455
103455
103455
103455
103455
103455
103455
103455
103455
103455
103455
103455
103454
103454
103454
103454
103454
103454
103454
103454
103454
103454
103454
103454
103454
103454
103454
103454
103454
103454
103454
103454
103454
103454
103454
103454
103453
103453
103453
103453
103453
103453
103453
103453
103453
103453
103453
103453
103454
103454
103454
103454
103453
103453
103453
103453
103453
103453
103453
103453
103453
103453
103453
103453
103453
103453
103453
103453
103453
103453
103453
103453
103452
103452
103452
103452
103452
103452
103452
103452
103452
103452
103452
103452
103452
103452
103452
103452
103452
103452
103452
103452
103452
103452
103452
103452
103451
103451
103451
103451
103451
103451
103451
103451
103451
103451
103451
103451
103452
103452
103452
103452
103451
103451
103451
103451
103451
103451
103451
103451
103451
103451
103451
103451
103451
103451
103451
103451
103451
103451
103451
103451
103450
103450
103450
103450
103450
103450
103450
103450
103450
103450
103450
103450
103450
103450
103450
103450
103450
103450
103450
103450
103450
103450
103450
103450
103449
103449
103449
103449
103449
103449
103449
103449
103449
103449
103450
103450
103450
103450
103450
103450
103449
103449
103449
103449
103449
103449
103449
103449
103449
103449
103449
103449
103449
103449
103449
103449
103449
103449
103449
103449
103448
103448
103448
103448
103448
103448
103448
103448
103448
103448
103448
103448
103448
103448
103448
103448
103448
103448
103448
103448
103448
103448
103448
103448
103448
103447
103447
103447
103447
103447
103447
103448
103448
103448
103448
103448
103448
103448
103448
103448
103447
103447
103447
103447
103447
103447
103447
103447
103447
103447
103447
103447
103447
103447
103447
103447
103447
103447
103447
103447
103446
103446
103446
103446
103446
103446
103446
103446
103446
103446
103446
103446
103446
103446
103446
103446
103446
103446
103447
103447
103446
103446
103446
103446
103446
103446
103446
103446
103446
103446
103446
103446
103446
103446
103446
103446
103446
103446
103446
103446
103445
103445
103445
103445
103445
103445
103445
103445
103445
103445
103445
103445
103445
103445
103445
103445
103445
103445
103445
103445
103444
103444
103444
103444
103444
103444
103444
103444
103444
103444
103444
103444
103444
103445
103445
103445
103445
103445
103445
103445
103444
103444
103443
103443
103443
103443
103444
103444
103444
103444
103444
103444
103444
103444
103444
103444
103444
103444
103444
103444
103443
103443
103443
103443
103443
103443
103443
103443
103443
103443
103443
103443
103443
103443
103443
103444
103444
103444
103444
103444
103442
103442
103442
103442
103442
103442
103442
103442
103442
103442
103443
103443
103443
103443
103443
103443
103443
103443
103443
103443
103441
103441
103441
103441
103441
103441
103441
103442
103442
103442
103442
103442
103442
103442
103442