/*--------------------------------*- C++ -*----------------------------------*\
| =========                 |                                                 |
| \\      /  F ield         | OpenFOAM: The Open Source CFD Toolbox           |
|  \\    /   O peration     | Version:  2.1.0                                 |
|   \\  /    A nd           | Web:      www.OpenFOAM.org                      |
|    \\/     M anipulation  |                                                 |
\*---------------------------------------------------------------------------*/
FoamFile
{
    version     2.0;
    format      ascii;
    class       surfaceScalarField;
    location    "0.29";
    object      phi;
}
// * * * * * * * * * * * * * * * * * * * * * * * * * * * * * * * * * * * * * //

dimensions      [0 3 -1 0 0 0 0];

internalField   nonuniform List<scalar> 
12460
(
-2.48279e-05
1.98222e-10
-2.48007e-05
-3.27493e-08
-2.47526e-05
-5.3937e-08
-2.46941e-05
-6.45051e-08
-2.46299e-05
-7.05434e-08
-2.45619e-05
-7.45611e-08
-2.44914e-05
-7.74802e-08
-2.44187e-05
-7.98547e-08
-2.43443e-05
-8.19299e-08
-2.42682e-05
-8.38515e-08
-2.41907e-05
-8.56868e-08
-2.41116e-05
-8.74875e-08
-2.40311e-05
-8.92891e-08
-2.3949e-05
-9.11121e-08
-2.38654e-05
-9.29793e-08
-2.37802e-05
-9.48938e-08
-2.36933e-05
-9.68778e-08
-2.36046e-05
-9.89323e-08
-2.35141e-05
-1.01044e-07
-2.34217e-05
-1.03223e-07
-2.33273e-05
-1.05529e-07
-2.32308e-05
-1.07934e-07
-2.3132e-05
-1.10443e-07
-2.30308e-05
-1.1304e-07
-2.29271e-05
-1.15731e-07
-2.28209e-05
-1.18508e-07
-2.2712e-05
-1.2137e-07
-2.26004e-05
-1.24313e-07
-2.24859e-05
-1.2734e-07
-2.23684e-05
-1.30448e-07
-2.22479e-05
-1.33643e-07
-2.21242e-05
-1.36915e-07
-2.19972e-05
-1.40268e-07
-2.18668e-05
-1.43701e-07
-2.1733e-05
-1.47223e-07
-2.15956e-05
-1.50831e-07
-2.14546e-05
-1.54529e-07
-2.13097e-05
-1.58331e-07
-2.11609e-05
-1.62242e-07
-2.1008e-05
-1.66264e-07
-2.08509e-05
-1.70411e-07
-2.06895e-05
-1.74678e-07
-2.05236e-05
-1.79075e-07
-2.03531e-05
-1.83606e-07
-2.01778e-05
-1.8827e-07
-1.99975e-05
-1.93069e-07
-1.98122e-05
-1.97993e-07
-1.96217e-05
-2.03076e-07
-1.94259e-05
-2.08167e-07
-1.92248e-05
-2.1335e-07
-1.90179e-05
-2.18932e-07
-1.88049e-05
-2.24777e-07
-1.8586e-05
-2.30605e-07
-1.83613e-05
-2.36218e-07
-1.81309e-05
-2.41679e-07
-1.78949e-05
-2.47143e-07
-1.76531e-05
-2.52703e-07
-1.74054e-05
-2.58416e-07
-1.71517e-05
-2.64287e-07
-1.68917e-05
-2.70312e-07
-1.66253e-05
-2.76533e-07
-1.63522e-05
-2.82989e-07
-1.60723e-05
-2.89685e-07
-1.57851e-05
-2.9665e-07
-1.54904e-05
-3.03911e-07
-1.51879e-05
-3.1152e-07
-1.48772e-05
-3.19532e-07
-1.45578e-05
-3.27987e-07
-1.42293e-05
-3.36908e-07
-1.38911e-05
-3.46345e-07
-1.35426e-05
-3.56346e-07
-1.31834e-05
-3.66963e-07
-1.28126e-05
-3.78257e-07
-1.24296e-05
-3.90302e-07
-1.20334e-05
-4.03191e-07
-1.16232e-05
-4.17038e-07
-1.11979e-05
-4.31989e-07
-1.0756e-05
-4.48228e-07
-1.02962e-05
-4.66041e-07
-9.81641e-06
-4.85778e-07
-9.31429e-06
-5.07878e-07
-8.78689e-06
-5.32916e-07
-8.23057e-06
-5.61584e-07
-7.64101e-06
-5.9455e-07
-7.01348e-06
-6.32217e-07
-6.34308e-06
-6.74774e-07
-5.6252e-06
-7.21892e-07
-4.85678e-06
-7.72039e-07
-4.03862e-06
-8.21355e-07
-3.17995e-06
-8.61377e-07
-2.30732e-06
-8.74806e-07
-1.48186e-06
-8.27043e-07
-8.0995e-07
-6.72911e-07
-4.02836e-07
-4.07624e-07
-2.94141e-07
-1.09441e-07
-5.41803e-07
2.44911e-07
-1.43552e-06
8.87223e-07
-3.72819e-06
2.28791e-06
-9.29408e-06
5.56463e-06
1.54855e-05
-2.47801e-05
-3.00362e-05
-1.43902e-08
-3.00013e-05
-7.80365e-08
-2.9954e-05
-1.1223e-07
-2.98993e-05
-1.3061e-07
-2.98399e-05
-1.41689e-07
-2.97775e-05
-1.49194e-07
-2.9713e-05
-1.54728e-07
-2.96467e-05
-1.59271e-07
-2.95789e-05
-1.6327e-07
-2.95098e-05
-1.66979e-07
-2.94394e-05
-1.70532e-07
-2.93677e-05
-1.74023e-07
-2.92947e-05
-1.77526e-07
-2.92204e-05
-1.81076e-07
-2.91447e-05
-1.84715e-07
-2.90675e-05
-1.88443e-07
-2.89889e-05
-1.92286e-07
-2.89087e-05
-1.9626e-07
-2.88269e-05
-2.00312e-07
-2.87434e-05
-2.04433e-07
-2.86583e-05
-2.08771e-07
-2.85713e-05
-2.13265e-07
-2.84825e-05
-2.17924e-07
-2.83916e-05
-2.22725e-07
-2.82988e-05
-2.27671e-07
-2.82038e-05
-2.32753e-07
-2.81066e-05
-2.37962e-07
-2.80072e-05
-2.43294e-07
-2.79055e-05
-2.48748e-07
-2.78015e-05
-2.54316e-07
-2.7695e-05
-2.60006e-07
-2.7586e-05
-2.65802e-07
-2.74746e-05
-2.71712e-07
-2.73605e-05
-2.77732e-07
-2.72438e-05
-2.83874e-07
-2.71244e-05
-2.90141e-07
-2.70023e-05
-2.96524e-07
-2.68774e-05
-3.03038e-07
-2.67497e-05
-3.09702e-07
-2.6619e-05
-3.16519e-07
-2.64854e-05
-3.23516e-07
-2.63488e-05
-3.30693e-07
-2.6209e-05
-3.3807e-07
-2.6066e-05
-3.45662e-07
-2.59196e-05
-3.53481e-07
-2.57698e-05
-3.61543e-07
-2.56164e-05
-3.69845e-07
-2.54593e-05
-3.78442e-07
-2.52983e-05
-3.87189e-07
-2.51336e-05
-3.95924e-07
-2.49654e-05
-4.04683e-07
-2.47942e-05
-4.13427e-07
-2.46198e-05
-4.22165e-07
-2.44422e-05
-4.30857e-07
-2.42611e-05
-4.3949e-07
-2.40767e-05
-4.48147e-07
-2.38888e-05
-4.56921e-07
-2.36974e-05
-4.65882e-07
-2.35024e-05
-4.75056e-07
-2.33039e-05
-4.84474e-07
-2.31016e-05
-4.94161e-07
-2.28955e-05
-5.04147e-07
-2.26857e-05
-5.14437e-07
-2.24719e-05
-5.25062e-07
-2.22541e-05
-5.36072e-07
-2.20323e-05
-5.4753e-07
-2.18063e-05
-5.59514e-07
-2.15759e-05
-5.72111e-07
-2.13409e-05
-5.85389e-07
-2.1101e-05
-5.99445e-07
-2.0856e-05
-6.14384e-07
-2.06055e-05
-6.3032e-07
-2.0349e-05
-6.4739e-07
-2.00859e-05
-6.65761e-07
-1.98156e-05
-6.85627e-07
-1.95374e-05
-7.07225e-07
-1.92502e-05
-7.30831e-07
-1.89531e-05
-7.56772e-07
-1.86449e-05
-7.85521e-07
-1.8324e-05
-8.17629e-07
-1.79889e-05
-8.53731e-07
-1.76377e-05
-8.946e-07
-1.72685e-05
-9.41129e-07
-1.68789e-05
-9.94225e-07
-1.64665e-05
-1.05444e-06
-1.60292e-05
-1.12185e-06
-1.5565e-05
-1.19564e-06
-1.50734e-05
-1.27303e-06
-1.45566e-05
-1.3477e-06
-1.40205e-05
-1.40697e-06
-1.34781e-05
-1.42705e-06
-1.2949e-05
-1.3665e-06
-1.24659e-05
-1.16675e-06
-1.21128e-05
-7.71809e-07
-1.21201e-05
-1.12276e-07
-1.26332e-05
7.50254e-07
-1.39907e-05
2.2378e-06
-1.67054e-05
4.99846e-06
-2.18147e-05
1.06729e-05
2.65377e-05
-3.28673e-05
-3.30108e-05
-3.69283e-08
-3.29859e-05
-1.17592e-07
-3.29518e-05
-1.61822e-07
-3.29118e-05
-1.86648e-07
-3.28681e-05
-2.019e-07
-3.2822e-05
-2.12291e-07
-3.27744e-05
-2.1995e-07
-3.27255e-05
-2.26272e-07
-3.26756e-05
-2.31815e-07
-3.26247e-05
-2.36973e-07
-3.2573e-05
-2.41886e-07
-3.25203e-05
-2.46739e-07
-3.24668e-05
-2.51602e-07
-3.24123e-05
-2.56565e-07
-3.23568e-05
-2.61654e-07
-3.23001e-05
-2.66907e-07
-3.22422e-05
-2.72332e-07
-3.2183e-05
-2.7797e-07
-3.21224e-05
-2.83772e-07
-3.20603e-05
-2.89653e-07
-3.19969e-05
-2.95622e-07
-3.19321e-05
-3.01673e-07
-3.18661e-05
-3.07891e-07
-3.17986e-05
-3.14276e-07
-3.17298e-05
-3.2082e-07
-3.16594e-05
-3.27515e-07
-3.15876e-05
-3.34338e-07
-3.15143e-05
-3.41287e-07
-3.14394e-05
-3.48348e-07
-3.13629e-05
-3.55513e-07
-3.12849e-05
-3.62782e-07
-3.12053e-05
-3.70137e-07
-3.11241e-05
-3.77585e-07
-3.10413e-05
-3.85111e-07
-3.0957e-05
-3.92722e-07
-3.08712e-05
-4.00428e-07
-3.07838e-05
-4.0821e-07
-3.06949e-05
-4.16068e-07
-3.06046e-05
-4.24024e-07
-3.05128e-05
-4.32074e-07
-3.04197e-05
-4.40244e-07
-3.03253e-05
-4.48529e-07
-3.02296e-05
-4.56944e-07
-3.01327e-05
-4.655e-07
-3.00347e-05
-4.74205e-07
-2.99356e-05
-4.8307e-07
-2.98356e-05
-4.92087e-07
-2.97348e-05
-5.01232e-07
-2.96332e-05
-5.10458e-07
-2.95308e-05
-5.19699e-07
-2.94278e-05
-5.28781e-07
-2.93245e-05
-5.37619e-07
-2.92208e-05
-5.46381e-07
-2.91167e-05
-5.55184e-07
-2.90121e-05
-5.63995e-07
-2.8907e-05
-5.72781e-07
-2.88016e-05
-5.81576e-07
-2.8696e-05
-5.90423e-07
-2.85903e-05
-5.99331e-07
-2.84846e-05
-6.08343e-07
-2.83791e-05
-6.17471e-07
-2.82741e-05
-6.26719e-07
-2.81696e-05
-6.36067e-07
-2.80659e-05
-6.45509e-07
-2.79634e-05
-6.55082e-07
-2.78622e-05
-6.64822e-07
-2.77626e-05
-6.74783e-07
-2.76651e-05
-6.8504e-07
-2.75698e-05
-6.95674e-07
-2.74772e-05
-7.06771e-07
-2.73874e-05
-7.18452e-07
-2.73008e-05
-7.30835e-07
-2.72176e-05
-7.44091e-07
-2.71381e-05
-7.5843e-07
-2.70623e-05
-7.74106e-07
-2.69904e-05
-7.91442e-07
-2.69223e-05
-8.10816e-07
-2.68579e-05
-8.32654e-07
-2.67969e-05
-8.57583e-07
-2.67388e-05
-8.86342e-07
-2.66829e-05
-9.19713e-07
-2.66286e-05
-9.58614e-07
-2.6575e-05
-1.00404e-06
-2.65211e-05
-1.05694e-06
-2.6466e-05
-1.11795e-06
-2.64088e-05
-1.18708e-06
-2.6349e-05
-1.26299e-06
-2.62873e-05
-1.34198e-06
-2.62257e-05
-1.41615e-06
-2.61688e-05
-1.47048e-06
-2.61233e-05
-1.47862e-06
-2.60977e-05
-1.39755e-06
-2.61052e-05
-1.16404e-06
-2.61826e-05
-6.97927e-07
-2.63717e-05
7.4579e-08
-2.68685e-05
1.24558e-06
-2.78754e-05
3.24325e-06
-2.97847e-05
6.90652e-06
-3.33177e-05
1.42053e-05
3.11492e-05
-3.79295e-05
-3.57361e-05
-6.01154e-08
-3.57269e-05
-1.46266e-07
-3.57127e-05
-1.96353e-07
-3.56946e-05
-2.25804e-07
-3.56738e-05
-2.44215e-07
-3.56516e-05
-2.56695e-07
-3.56286e-05
-2.65827e-07
-3.56049e-05
-2.73307e-07
-3.55809e-05
-2.79802e-07
-3.55566e-05
-2.85786e-07
-3.55321e-05
-2.9142e-07
-3.55075e-05
-2.96955e-07
-3.54827e-05
-3.02463e-07
-3.54577e-05
-3.08069e-07
-3.54325e-05
-3.13787e-07
-3.54071e-05
-3.19674e-07
-3.53814e-05
-3.25722e-07
-3.53556e-05
-3.31921e-07
-3.53295e-05
-3.38283e-07
-3.5303e-05
-3.44829e-07
-3.52762e-05
-3.51425e-07
-3.5249e-05
-3.58031e-07
-3.52215e-05
-3.64775e-07
-3.51936e-05
-3.71662e-07
-3.51654e-05
-3.78672e-07
-3.51368e-05
-3.858e-07
-3.51079e-05
-3.93003e-07
-3.50787e-05
-4.00284e-07
-3.50492e-05
-4.07618e-07
-3.50195e-05
-4.14991e-07
-3.49895e-05
-4.22398e-07
-3.49594e-05
-4.29816e-07
-3.49291e-05
-4.37244e-07
-3.48988e-05
-4.44661e-07
-3.48686e-05
-4.52059e-07
-3.48384e-05
-4.59436e-07
-3.48084e-05
-4.66783e-07
-3.47787e-05
-4.74096e-07
-3.47494e-05
-4.81366e-07
-3.47207e-05
-4.88583e-07
-3.46926e-05
-4.95756e-07
-3.46653e-05
-5.02867e-07
-3.46391e-05
-5.09915e-07
-3.46141e-05
-5.16891e-07
-3.45905e-05
-5.23787e-07
-3.45686e-05
-5.30588e-07
-3.45486e-05
-5.37277e-07
-3.45308e-05
-5.43791e-07
-3.45156e-05
-5.50085e-07
-3.45028e-05
-5.56352e-07
-3.44924e-05
-5.62623e-07
-3.44843e-05
-5.68718e-07
-3.44784e-05
-5.74622e-07
-3.44752e-05
-5.80352e-07
-3.44746e-05
-5.85894e-07
-3.44769e-05
-5.91211e-07
-3.44824e-05
-5.96297e-07
-3.44913e-05
-6.01172e-07
-3.45039e-05
-6.0582e-07
-3.45205e-05
-6.10252e-07
-3.45413e-05
-6.1451e-07
-3.45667e-05
-6.18614e-07
-3.45969e-05
-6.22526e-07
-3.46323e-05
-6.26222e-07
-3.4673e-05
-6.29735e-07
-3.47195e-05
-6.33121e-07
-3.4772e-05
-6.36462e-07
-3.48307e-05
-6.39854e-07
-3.48958e-05
-6.43413e-07
-3.49675e-05
-6.47274e-07
-3.50459e-05
-6.51616e-07
-3.51309e-05
-6.56641e-07
-3.52226e-05
-6.62602e-07
-3.53208e-05
-6.69805e-07
-3.54251e-05
-6.78626e-07
-3.55353e-05
-6.89527e-07
-3.56506e-05
-7.03045e-07
-3.57706e-05
-7.1971e-07
-3.58942e-05
-7.40302e-07
-3.60206e-05
-7.65751e-07
-3.61487e-05
-7.96924e-07
-3.62773e-05
-8.34792e-07
-3.64052e-05
-8.80379e-07
-3.65314e-05
-9.3457e-07
-3.6655e-05
-9.97772e-07
-3.67755e-05
-1.06959e-06
-3.6893e-05
-1.14815e-06
-3.70083e-05
-1.22898e-06
-3.71232e-05
-1.30327e-06
-3.72403e-05
-1.35519e-06
-3.7362e-05
-1.3584e-06
-3.74887e-05
-1.27217e-06
-3.76195e-05
-1.03427e-06
-3.77552e-05
-5.63007e-07
-3.7902e-05
2.20843e-07
-3.8177e-05
1.52006e-06
-3.87176e-05
3.78337e-06
-3.96929e-05
7.88136e-06
-4.12863e-05
1.57984e-05
3.11989e-05
-4.13364e-05
-3.85452e-05
-7.69084e-08
-3.85568e-05
-1.59358e-07
-3.8569e-05
-2.09811e-07
-3.85804e-05
-2.408e-07
-3.85912e-05
-2.60514e-07
-3.86019e-05
-2.73716e-07
-3.86128e-05
-2.83308e-07
-3.86241e-05
-2.91008e-07
-3.86358e-05
-2.97631e-07
-3.86482e-05
-3.03564e-07
-3.86613e-05
-3.09054e-07
-3.86752e-05
-3.14323e-07
-3.86899e-05
-3.195e-07
-3.87055e-05
-3.24679e-07
-3.87219e-05
-3.29895e-07
-3.87394e-05
-3.35174e-07
-3.87579e-05
-3.40515e-07
-3.87776e-05
-3.45876e-07
-3.87985e-05
-3.51276e-07
-3.88207e-05
-3.56853e-07
-3.88438e-05
-3.62551e-07
-3.88681e-05
-3.68249e-07
-3.88934e-05
-3.74031e-07
-3.89197e-05
-3.79887e-07
-3.89472e-05
-3.85782e-07
-3.89759e-05
-3.91695e-07
-3.90058e-05
-3.97595e-07
-3.9037e-05
-4.03479e-07
-3.90695e-05
-4.09319e-07
-3.91034e-05
-4.15102e-07
-3.91387e-05
-4.20815e-07
-3.91756e-05
-4.26436e-07
-3.92141e-05
-4.31958e-07
-3.92542e-05
-4.37358e-07
-3.92961e-05
-4.42632e-07
-3.93398e-05
-4.47755e-07
-3.93855e-05
-4.52719e-07
-3.94331e-05
-4.57534e-07
-3.94829e-05
-4.62172e-07
-3.9535e-05
-4.66623e-07
-3.95893e-05
-4.7089e-07
-3.96462e-05
-4.74957e-07
-3.97056e-05
-4.78819e-07
-3.97677e-05
-4.82467e-07
-3.98326e-05
-4.85898e-07
-3.99004e-05
-4.89096e-07
-3.99712e-05
-4.92059e-07
-4.00451e-05
-4.94757e-07
-4.01221e-05
-4.97181e-07
-4.02024e-05
-4.99435e-07
-4.02861e-05
-5.01535e-07
-4.03732e-05
-5.03391e-07
-4.04638e-05
-5.0497e-07
-4.0558e-05
-5.06263e-07
-4.06559e-05
-5.07268e-07
-4.07576e-05
-5.07979e-07
-4.08631e-05
-5.08402e-07
-4.09725e-05
-5.0856e-07
-4.10857e-05
-5.08465e-07
-4.12029e-05
-5.08156e-07
-4.13239e-05
-5.07699e-07
-4.14488e-05
-5.07164e-07
-4.15773e-05
-5.06531e-07
-4.17095e-05
-5.05767e-07
-4.18453e-05
-5.04926e-07
-4.19845e-05
-5.04103e-07
-4.2127e-05
-5.03412e-07
-4.22726e-05
-5.0297e-07
-4.2421e-05
-5.02918e-07
-4.25722e-05
-5.03413e-07
-4.27258e-05
-5.04644e-07
-4.28817e-05
-5.06833e-07
-4.30395e-05
-5.10246e-07
-4.31991e-05
-5.15192e-07
-4.33601e-05
-5.22057e-07
-4.35223e-05
-5.31293e-07
-4.36854e-05
-5.43521e-07
-4.38491e-05
-5.5917e-07
-4.40131e-05
-5.79022e-07
-4.41772e-05
-6.04128e-07
-4.43411e-05
-6.35278e-07
-4.45044e-05
-6.73391e-07
-4.46671e-05
-7.19446e-07
-4.48289e-05
-7.7425e-07
-4.49899e-05
-8.38044e-07
-4.51505e-05
-9.10207e-07
-4.5311e-05
-9.88673e-07
-4.54721e-05
-1.06881e-06
-4.56343e-05
-1.14184e-06
-4.57977e-05
-1.1926e-06
-4.596e-05
-1.19672e-06
-4.61149e-05
-1.11776e-06
-4.62483e-05
-9.01386e-07
-4.634e-05
-4.71731e-07
-4.63913e-05
2.71774e-07
-4.64351e-05
1.56354e-06
-4.6495e-05
3.84294e-06
-4.65713e-05
7.95732e-06
-4.63396e-05
1.55663e-05
2.83613e-05
-4.35028e-05
-4.15778e-05
-8.19388e-08
-4.16143e-05
-1.52568e-07
-4.16575e-05
-1.97431e-07
-4.17041e-05
-2.25872e-07
-4.17528e-05
-2.44149e-07
-4.18032e-05
-2.56228e-07
-4.18552e-05
-2.6488e-07
-4.19087e-05
-2.71701e-07
-4.19636e-05
-2.77489e-07
-4.20199e-05
-2.82472e-07
-4.20777e-05
-2.86924e-07
-4.21371e-05
-2.91043e-07
-4.21982e-05
-2.94991e-07
-4.22608e-05
-2.9884e-07
-4.23252e-05
-3.02637e-07
-4.23913e-05
-3.06396e-07
-4.24593e-05
-3.10111e-07
-4.25291e-05
-3.13775e-07
-4.26007e-05
-3.17405e-07
-4.26742e-05
-3.2111e-07
-4.27498e-05
-3.24782e-07
-4.28274e-05
-3.28309e-07
-4.29072e-05
-3.31851e-07
-4.29891e-05
-3.35403e-07
-4.30731e-05
-3.38912e-07
-4.31593e-05
-3.42354e-07
-4.32477e-05
-3.45719e-07
-4.33384e-05
-3.49008e-07
-4.34313e-05
-3.52201e-07
-4.35263e-05
-3.55293e-07
-4.36237e-05
-3.58276e-07
-4.37232e-05
-3.61138e-07
-4.38249e-05
-3.63874e-07
-4.39287e-05
-3.6647e-07
-4.40347e-05
-3.6893e-07
-4.41429e-05
-3.71231e-07
-4.42531e-05
-3.73358e-07
-4.43655e-05
-3.75327e-07
-4.44798e-05
-3.77131e-07
-4.45962e-05
-3.7876e-07
-4.47146e-05
-3.80221e-07
-4.48349e-05
-3.81502e-07
-4.49571e-05
-3.82604e-07
-4.50812e-05
-3.83524e-07
-4.5207e-05
-3.84262e-07
-4.53346e-05
-3.84807e-07
-4.5464e-05
-3.85169e-07
-4.55949e-05
-3.85327e-07
-4.57274e-05
-3.85293e-07
-4.58614e-05
-3.85132e-07
-4.59969e-05
-3.84855e-07
-4.61338e-05
-3.8443e-07
-4.6272e-05
-3.83843e-07
-4.64114e-05
-3.83083e-07
-4.65519e-05
-3.82148e-07
-4.66934e-05
-3.81034e-07
-4.68357e-05
-3.79749e-07
-4.69789e-05
-3.78313e-07
-4.71228e-05
-3.76735e-07
-4.72674e-05
-3.75045e-07
-4.74125e-05
-3.73315e-07
-4.7558e-05
-3.71648e-07
-4.77039e-05
-3.70015e-07
-4.78502e-05
-3.68311e-07
-4.79967e-05
-3.6657e-07
-4.81435e-05
-3.64905e-07
-4.82906e-05
-3.63426e-07
-4.84379e-05
-3.62239e-07
-4.85854e-05
-3.61474e-07
-4.87332e-05
-3.61278e-07
-4.88813e-05
-3.61825e-07
-4.90296e-05
-3.63319e-07
-4.91783e-05
-3.66027e-07
-4.93274e-05
-3.70253e-07
-4.94769e-05
-3.76379e-07
-4.96269e-05
-3.8485e-07
-4.97775e-05
-3.96276e-07
-4.99285e-05
-4.11135e-07
-5.00803e-05
-4.30006e-07
-5.02332e-05
-4.53794e-07
-5.03874e-05
-4.83432e-07
-5.05431e-05
-5.19868e-07
-5.07004e-05
-5.64036e-07
-5.08598e-05
-6.16736e-07
-5.10213e-05
-6.78149e-07
-5.11855e-05
-7.47509e-07
-5.13528e-05
-8.22796e-07
-5.15231e-05
-8.99659e-07
-5.16961e-05
-9.69993e-07
-5.18695e-05
-1.02021e-06
-5.20379e-05
-1.02922e-06
-5.21905e-05
-9.65967e-07
-5.23041e-05
-7.88368e-07
-5.23485e-05
-4.27967e-07
-5.23033e-05
2.2613e-07
-5.21386e-05
1.39838e-06
-5.17761e-05
3.47982e-06
-5.10466e-05
7.22716e-06
-4.93344e-05
1.3853e-05
2.376e-05
-4.47349e-05
-4.47287e-05
-7.37552e-08
-4.47891e-05
-1.25493e-07
-4.48606e-05
-1.60179e-07
-4.49386e-05
-1.82867e-07
-4.50208e-05
-1.97454e-07
-4.51061e-05
-2.06913e-07
-4.51939e-05
-2.13522e-07
-4.52837e-05
-2.18697e-07
-4.53753e-05
-2.23058e-07
-4.54686e-05
-2.26593e-07
-4.55637e-05
-2.29546e-07
-4.56604e-05
-2.32115e-07
-4.57589e-05
-2.34474e-07
-4.58591e-05
-2.36685e-07
-4.59609e-05
-2.38811e-07
-4.60644e-05
-2.40857e-07
-4.61695e-05
-2.42842e-07
-4.62762e-05
-2.44764e-07
-4.63844e-05
-2.4666e-07
-4.64941e-05
-2.48591e-07
-4.66052e-05
-2.5048e-07
-4.67178e-05
-2.5216e-07
-4.6832e-05
-2.53658e-07
-4.69479e-05
-2.55016e-07
-4.70654e-05
-2.56294e-07
-4.71846e-05
-2.57506e-07
-4.73054e-05
-2.58665e-07
-4.74277e-05
-2.59774e-07
-4.75514e-05
-2.60837e-07
-4.76765e-05
-2.61851e-07
-4.78028e-05
-2.62822e-07
-4.79303e-05
-2.63745e-07
-4.80588e-05
-2.64631e-07
-4.81883e-05
-2.65458e-07
-4.83187e-05
-2.66246e-07
-4.84497e-05
-2.66965e-07
-4.85814e-05
-2.67625e-07
-4.87137e-05
-2.68225e-07
-4.88464e-05
-2.68767e-07
-4.89794e-05
-2.69242e-07
-4.91126e-05
-2.69654e-07
-4.9246e-05
-2.69988e-07
-4.93794e-05
-2.70242e-07
-4.95129e-05
-2.7041e-07
-4.96462e-05
-2.70492e-07
-4.97794e-05
-2.70461e-07
-4.99124e-05
-2.70346e-07
-5.00451e-05
-2.70115e-07
-5.01775e-05
-2.69773e-07
-5.03095e-05
-2.69366e-07
-5.04411e-05
-2.68895e-07
-5.05722e-05
-2.68336e-07
-5.07029e-05
-2.6767e-07
-5.08331e-05
-2.66885e-07
-5.09629e-05
-2.65971e-07
-5.10921e-05
-2.64908e-07
-5.12208e-05
-2.63687e-07
-5.1349e-05
-2.62313e-07
-5.14768e-05
-2.60784e-07
-5.16043e-05
-2.59105e-07
-5.17314e-05
-2.57324e-07
-5.18583e-05
-2.55613e-07
-5.19848e-05
-2.53947e-07
-5.21113e-05
-2.52062e-07
-5.22377e-05
-2.5002e-07
-5.23643e-05
-2.47939e-07
-5.24912e-05
-2.45928e-07
-5.26185e-05
-2.44089e-07
-5.27462e-05
-2.42534e-07
-5.28747e-05
-2.41401e-07
-5.30041e-05
-2.4085e-07
-5.31344e-05
-2.41079e-07
-5.3266e-05
-2.42341e-07
-5.3399e-05
-2.44932e-07
-5.35335e-05
-2.49224e-07
-5.36699e-05
-2.55655e-07
-5.38085e-05
-2.64671e-07
-5.39494e-05
-2.76949e-07
-5.40926e-05
-2.93253e-07
-5.42384e-05
-3.1426e-07
-5.4387e-05
-3.40796e-07
-5.45389e-05
-3.73743e-07
-5.46945e-05
-4.13951e-07
-5.48542e-05
-4.62292e-07
-5.50183e-05
-5.18986e-07
-5.51874e-05
-5.83153e-07
-5.53616e-05
-6.53045e-07
-5.55405e-05
-7.24963e-07
-5.57224e-05
-7.92011e-07
-5.59034e-05
-8.42812e-07
-5.60756e-05
-8.60396e-07
-5.62242e-05
-8.20335e-07
-5.63231e-05
-6.92058e-07
-5.63304e-05
-4.22869e-07
-5.61997e-05
9.36092e-08
-5.58551e-05
1.05201e-06
-5.51329e-05
2.75543e-06
-5.37251e-05
5.81636e-06
-5.0908e-05
1.10315e-05
1.81343e-05
-4.52884e-05
-4.75978e-05
-5.49426e-08
-4.76705e-05
-8.59839e-08
-4.77557e-05
-1.08969e-07
-4.78486e-05
-1.24216e-07
-4.79466e-05
-1.3395e-07
-4.80481e-05
-1.40124e-07
-4.81521e-05
-1.44331e-07
-4.82578e-05
-1.47803e-07
-4.83649e-05
-1.50892e-07
-4.84731e-05
-1.53188e-07
-4.85825e-05
-1.54877e-07
-4.8693e-05
-1.56184e-07
-4.88046e-05
-1.57277e-07
-4.89171e-05
-1.58222e-07
-4.90305e-05
-1.59078e-07
-4.91449e-05
-1.59857e-07
-4.926e-05
-1.60586e-07
-4.93759e-05
-1.61267e-07
-4.94925e-05
-1.61933e-07
-4.96099e-05
-1.62524e-07
-4.97281e-05
-1.6308e-07
-4.98467e-05
-1.63682e-07
-4.99655e-05
-1.64268e-07
-5.00844e-05
-1.64773e-07
-5.02035e-05
-1.65256e-07
-5.03225e-05
-1.65745e-07
-5.04414e-05
-1.66275e-07
-5.05601e-05
-1.6682e-07
-5.06785e-05
-1.67422e-07
-5.07965e-05
-1.68037e-07
-5.09141e-05
-1.68701e-07
-5.10312e-05
-1.69375e-07
-5.11477e-05
-1.70106e-07
-5.12637e-05
-1.70834e-07
-5.13789e-05
-1.71596e-07
-5.14935e-05
-1.72339e-07
-5.16074e-05
-1.73083e-07
-5.17205e-05
-1.73817e-07
-5.18328e-05
-1.74522e-07
-5.19445e-05
-1.75196e-07
-5.20553e-05
-1.75835e-07
-5.21654e-05
-1.76415e-07
-5.22748e-05
-1.76917e-07
-5.23835e-05
-1.7734e-07
-5.24916e-05
-1.7767e-07
-5.25991e-05
-1.77878e-07
-5.2706e-05
-1.77974e-07
-5.28124e-05
-1.77943e-07
-5.29183e-05
-1.77776e-07
-5.30239e-05
-1.77484e-07
-5.31292e-05
-1.77074e-07
-5.32343e-05
-1.76525e-07
-5.33393e-05
-1.75821e-07
-5.34442e-05
-1.74945e-07
-5.35491e-05
-1.73886e-07
-5.36542e-05
-1.7262e-07
-5.37594e-05
-1.7113e-07
-5.38649e-05
-1.69408e-07
-5.39709e-05
-1.67449e-07
-5.40773e-05
-1.65248e-07
-5.41844e-05
-1.62792e-07
-5.42922e-05
-1.60369e-07
-5.44007e-05
-1.581e-07
-5.45101e-05
-1.55324e-07
-5.46206e-05
-1.52224e-07
-5.47323e-05
-1.48961e-07
-5.48454e-05
-1.45634e-07
-5.49601e-05
-1.42335e-07
-5.50764e-05
-1.39162e-07
-5.51946e-05
-1.36238e-07
-5.53149e-05
-1.33718e-07
-5.54374e-05
-1.31786e-07
-5.55624e-05
-1.30682e-07
-5.569e-05
-1.3069e-07
-5.58205e-05
-1.32163e-07
-5.59542e-05
-1.35523e-07
-5.60913e-05
-1.41181e-07
-5.62321e-05
-1.49848e-07
-5.63768e-05
-1.62344e-07
-5.65257e-05
-1.79308e-07
-5.6679e-05
-2.01478e-07
-5.68372e-05
-2.29646e-07
-5.70008e-05
-2.64487e-07
-5.71703e-05
-3.07032e-07
-5.73458e-05
-3.57776e-07
-5.75277e-05
-4.15577e-07
-5.77159e-05
-4.79191e-07
-5.79093e-05
-5.45895e-07
-5.81052e-05
-6.10408e-07
-5.82982e-05
-6.63994e-07
-5.84783e-05
-6.94198e-07
-5.86277e-05
-6.84477e-07
-5.87199e-05
-6.1285e-07
-5.8704e-05
-4.50854e-07
-5.85118e-05
-1.09567e-07
-5.80224e-05
5.52204e-07
-5.702e-05
1.7414e-06
-5.50952e-05
3.87693e-06
-5.15124e-05
7.42904e-06
1.19469e-05
-4.53491e-05
-4.97792e-05
-2.62075e-08
-4.98529e-05
-4.10093e-08
-4.99383e-05
-5.25998e-08
-5.00312e-05
-6.02525e-08
-5.01288e-05
-6.51542e-08
-5.02294e-05
-6.83184e-08
-5.03317e-05
-7.05733e-08
-5.04349e-05
-7.29655e-08
-5.05381e-05
-7.56913e-08
-5.06414e-05
-7.76195e-08
-5.07447e-05
-7.89486e-08
-5.08478e-05
-7.99504e-08
-5.09508e-05
-8.07884e-08
-5.10535e-05
-8.15195e-08
-5.11558e-05
-8.21914e-08
-5.12577e-05
-8.28187e-08
-5.13592e-05
-8.34204e-08
-5.14601e-05
-8.40033e-08
-5.15605e-05
-8.45841e-08
-5.16603e-05
-8.51008e-08
-5.17594e-05
-8.56239e-08
-5.18578e-05
-8.63416e-08
-5.19553e-05
-8.72207e-08
-5.20517e-05
-8.81451e-08
-5.21471e-05
-8.90943e-08
-5.22413e-05
-9.00775e-08
-5.23345e-05
-9.1112e-08
-5.24266e-05
-9.21715e-08
-5.25176e-05
-9.32765e-08
-5.26077e-05
-9.43936e-08
-5.26967e-05
-9.55397e-08
-5.27848e-05
-9.66838e-08
-5.28721e-05
-9.78536e-08
-5.29584e-05
-9.90066e-08
-5.3044e-05
-1.00156e-07
-5.31288e-05
-1.01261e-07
-5.3213e-05
-1.02325e-07
-5.32965e-05
-1.03337e-07
-5.33795e-05
-1.04284e-07
-5.3462e-05
-1.05134e-07
-5.3544e-05
-1.05926e-07
-5.36258e-05
-1.066e-07
-5.37072e-05
-1.07133e-07
-5.37885e-05
-1.07535e-07
-5.38697e-05
-1.07781e-07
-5.39508e-05
-1.07863e-07
-5.4032e-05
-1.07741e-07
-5.41134e-05
-1.07421e-07
-5.41949e-05
-1.06914e-07
-5.42768e-05
-1.06207e-07
-5.43591e-05
-1.05301e-07
-5.44419e-05
-1.0418e-07
-5.45252e-05
-1.02838e-07
-5.46093e-05
-1.01251e-07
-5.46941e-05
-9.94159e-08
-5.47798e-05
-9.73091e-08
-5.48663e-05
-9.49065e-08
-5.49539e-05
-9.21916e-08
-5.50427e-05
-8.91513e-08
-5.51327e-05
-8.58023e-08
-5.5224e-05
-8.20181e-08
-5.5317e-05
-7.8124e-08
-5.54112e-05
-7.48262e-08
-5.55069e-05
-7.05589e-08
-5.56046e-05
-6.57853e-08
-5.57042e-05
-6.07615e-08
-5.58059e-05
-5.5576e-08
-5.59098e-05
-5.03011e-08
-5.60161e-05
-4.50175e-08
-5.61249e-05
-3.98363e-08
-5.62365e-05
-3.48982e-08
-5.6351e-05
-3.03759e-08
-5.64687e-05
-2.64893e-08
-5.65897e-05
-2.35076e-08
-5.67144e-05
-2.17607e-08
-5.6843e-05
-2.16421e-08
-5.69758e-05
-2.36043e-08
-5.71132e-05
-2.82768e-08
-5.72555e-05
-3.63622e-08
-5.74033e-05
-4.8523e-08
-5.7557e-05
-6.54624e-08
-5.7717e-05
-8.80156e-08
-5.78842e-05
-1.16539e-07
-5.80592e-05
-1.52191e-07
-5.82417e-05
-1.96387e-07
-5.84325e-05
-2.47111e-07
-5.86313e-05
-3.03976e-07
-5.88368e-05
-3.65513e-07
-5.90454e-05
-4.28384e-07
-5.92512e-05
-4.86634e-07
-5.94432e-05
-5.32593e-07
-5.96027e-05
-5.57467e-07
-5.97002e-05
-5.49971e-07
-5.969e-05
-4.97844e-07
-5.94828e-05
-3.55753e-07
-5.89232e-05
-4.6913e-08
-5.77583e-05
5.35567e-07
-5.55174e-05
1.58894e-06
-5.14751e-05
3.32963e-06
5.46985e-06
-4.50612e-05
-5.0829e-05
7.97966e-09
-5.08951e-05
4.45267e-09
-5.0972e-05
3.67733e-09
-5.1056e-05
3.22405e-09
-5.1144e-05
2.65964e-09
-5.12343e-05
1.91269e-09
-5.13256e-05
9.87941e-10
-5.14171e-05
-9.48131e-10
-5.15076e-05
-4.3025e-09
-5.15974e-05
-6.63438e-09
-5.16864e-05
-8.39762e-09
-5.17745e-05
-9.93979e-09
-5.18616e-05
-1.13996e-08
-5.19477e-05
-1.28018e-08
-5.20326e-05
-1.41646e-08
-5.21164e-05
-1.55043e-08
-5.21991e-05
-1.68149e-08
-5.22807e-05
-1.8107e-08
-5.23611e-05
-1.93729e-08
-5.24405e-05
-2.06021e-08
-5.25187e-05
-2.18469e-08
-5.25958e-05
-2.3211e-08
-5.2672e-05
-2.46625e-08
-5.27473e-05
-2.61389e-08
-5.28216e-05
-2.7607e-08
-5.28951e-05
-2.90769e-08
-5.29678e-05
-3.0534e-08
-5.30398e-05
-3.19905e-08
-5.31111e-05
-3.34133e-08
-5.31818e-05
-3.48186e-08
-5.3252e-05
-3.61816e-08
-5.33216e-05
-3.75241e-08
-5.33909e-05
-3.88096e-08
-5.34597e-05
-4.00534e-08
-5.35283e-05
-4.12244e-08
-5.35966e-05
-4.23307e-08
-5.36647e-05
-4.33476e-08
-5.37326e-05
-4.42576e-08
-5.38005e-05
-4.50638e-08
-5.38682e-05
-4.57255e-08
-5.39361e-05
-4.62758e-08
-5.40039e-05
-4.66667e-08
-5.40719e-05
-4.68705e-08
-5.41401e-05
-4.68858e-08
-5.42086e-05
-4.66936e-08
-5.42773e-05
-4.62808e-08
-5.43464e-05
-4.56013e-08
-5.4416e-05
-4.46629e-08
-5.44861e-05
-4.34748e-08
-5.45568e-05
-4.20244e-08
-5.46282e-05
-4.03067e-08
-5.47003e-05
-3.83108e-08
-5.47732e-05
-3.60319e-08
-5.4847e-05
-3.34453e-08
-5.49218e-05
-3.05513e-08
-5.49975e-05
-2.73292e-08
-5.50743e-05
-2.37451e-08
-5.51523e-05
-1.97707e-08
-5.52316e-05
-1.53922e-08
-5.53122e-05
-1.05991e-08
-5.53941e-05
-5.41608e-09
-5.54781e-05
6.34653e-10
-5.5563e-05
4.76907e-09
-5.56496e-05
1.0885e-08
-5.57382e-05
1.7633e-08
-5.58289e-05
2.46654e-08
-5.59218e-05
3.19486e-08
-5.60169e-05
3.94379e-08
-5.61144e-05
4.7073e-08
-5.62145e-05
5.47598e-08
-5.63175e-05
6.23712e-08
-5.64234e-05
6.97527e-08
-5.65325e-05
7.67093e-08
-5.66452e-05
8.29896e-08
-5.67615e-05
8.82943e-08
-5.68819e-05
9.22542e-08
-5.70066e-05
9.44284e-08
-5.7136e-05
9.42566e-08
-5.72705e-05
9.11178e-08
-5.74106e-05
8.43772e-08
-5.75567e-05
7.33451e-08
-5.77095e-05
5.73024e-08
-5.7869e-05
3.54421e-08
-5.80364e-05
7.8258e-09
-5.82112e-05
-2.92137e-08
-5.83943e-05
-7.18787e-08
-5.85855e-05
-1.21269e-07
-5.8783e-05
-1.77147e-07
-5.89831e-05
-2.38446e-07
-5.91793e-05
-3.01749e-07
-5.93608e-05
-3.64104e-07
-5.95092e-05
-4.24288e-07
-5.95944e-05
-4.8294e-07
-5.95728e-05
-5.41345e-07
-5.93549e-05
-6.00787e-07
-5.87781e-05
-6.58379e-07
-5.75622e-05
-7.21483e-07
-5.5209e-05
-8.08027e-07
-5.09889e-05
-9.32953e-07
-1.04461e-06
-4.45058e-05
-5.03494e-05
4.08145e-08
-5.04094e-05
5.17039e-08
-5.04811e-05
6.25799e-08
-5.05603e-05
6.97571e-08
-5.06441e-05
7.39121e-08
-5.07305e-05
7.58994e-08
-5.08182e-05
7.6309e-08
-5.09064e-05
7.50857e-08
-5.09953e-05
7.26615e-08
-5.10842e-05
7.04587e-08
-5.11727e-05
6.84905e-08
-5.12607e-05
6.66186e-08
-5.13481e-05
6.4782e-08
-5.14349e-05
6.29518e-08
-5.1521e-05
6.11379e-08
-5.16064e-05
5.93223e-08
-5.16911e-05
5.75224e-08
-5.1775e-05
5.57316e-08
-5.18582e-05
5.39617e-08
-5.19406e-05
5.22057e-08
-5.20223e-05
5.04282e-08
-5.21032e-05
4.85753e-08
-5.21834e-05
4.66709e-08
-5.22629e-05
4.47527e-08
-5.23418e-05
4.28486e-08
-5.24199e-05
4.0957e-08
-5.24974e-05
3.90976e-08
-5.25742e-05
3.72601e-08
-5.26505e-05
3.54895e-08
-5.27261e-05
3.37665e-08
-5.28012e-05
3.21206e-08
-5.28758e-05
3.05201e-08
-5.295e-05
2.90117e-08
-5.30236e-05
2.75699e-08
-5.30969e-05
2.62378e-08
-5.31697e-05
2.49977e-08
-5.32422e-05
2.38843e-08
-5.33144e-05
2.2911e-08
-5.33863e-05
2.20846e-08
-5.3458e-05
2.14117e-08
-5.35295e-05
2.09359e-08
-5.36008e-05
2.06525e-08
-5.36721e-05
2.05777e-08
-5.37433e-05
2.07513e-08
-5.38145e-05
2.11866e-08
-5.38858e-05
2.19082e-08
-5.39572e-05
2.29505e-08
-5.40288e-05
2.43153e-08
-5.41007e-05
2.60059e-08
-5.41729e-05
2.80296e-08
-5.42456e-05
3.03935e-08
-5.43187e-05
3.31033e-08
-5.43925e-05
3.61658e-08
-5.44668e-05
3.95968e-08
-5.45419e-05
4.34081e-08
-5.46177e-05
4.76138e-08
-5.46944e-05
5.22461e-08
-5.47719e-05
5.7352e-08
-5.48506e-05
6.29616e-08
-5.49302e-05
6.90416e-08
-5.50111e-05
7.56234e-08
-5.50927e-05
8.25609e-08
-5.51765e-05
8.91905e-08
-5.52617e-05
9.69709e-08
-5.53483e-05
1.05467e-07
-5.54367e-05
1.14446e-07
-5.55268e-05
1.23841e-07
-5.56188e-05
1.33603e-07
-5.5713e-05
1.43683e-07
-5.58094e-05
1.54005e-07
-5.59083e-05
1.64453e-07
-5.60098e-05
1.74894e-07
-5.61142e-05
1.85162e-07
-5.62217e-05
1.95027e-07
-5.63325e-05
2.04219e-07
-5.64471e-05
2.12398e-07
-5.65655e-05
2.19149e-07
-5.66883e-05
2.23968e-07
-5.68159e-05
2.26292e-07
-5.69486e-05
2.25514e-07
-5.7087e-05
2.20979e-07
-5.72315e-05
2.11971e-07
-5.73825e-05
1.97545e-07
-5.75396e-05
1.77141e-07
-5.7705e-05
1.49714e-07
-5.78773e-05
1.15744e-07
-5.80552e-05
7.40874e-08
-5.82365e-05
2.40947e-08
-5.84175e-05
-3.48194e-08
-5.85921e-05
-1.01792e-07
-5.87492e-05
-1.78596e-07
-5.88705e-05
-2.71307e-07
-5.89273e-05
-3.90805e-07
-5.88721e-05
-5.56879e-07
-5.86223e-05
-8.06257e-07
-5.80233e-05
-1.20795e-06
-5.67946e-05
-1.89511e-06
-5.44493e-05
-3.0924e-06
-5.02861e-05
-5.03036e-06
-7.35319e-06
-4.39118e-05
-4.86567e-05
6.50908e-08
-4.8711e-05
9.86605e-08
-4.87778e-05
1.22004e-07
-4.88528e-05
1.37484e-07
-4.89332e-05
1.47043e-07
-4.90169e-05
1.52548e-07
-4.91029e-05
1.55339e-07
-4.91907e-05
1.55968e-07
-4.928e-05
1.55311e-07
-4.93705e-05
1.54368e-07
-4.94619e-05
1.53407e-07
-4.9554e-05
1.52379e-07
-4.96468e-05
1.51344e-07
-4.97401e-05
1.50244e-07
-4.98339e-05
1.49121e-07
-4.99283e-05
1.47962e-07
-5.00231e-05
1.46776e-07
-5.01183e-05
1.4556e-07
-5.02138e-05
1.44315e-07
-5.03097e-05
1.4303e-07
-5.04058e-05
1.41672e-07
-5.05021e-05
1.40213e-07
-5.05986e-05
1.38663e-07
-5.06952e-05
1.3705e-07
-5.07919e-05
1.3539e-07
-5.08886e-05
1.33691e-07
-5.09852e-05
1.31956e-07
-5.10817e-05
1.30197e-07
-5.1178e-05
1.28452e-07
-5.12742e-05
1.26731e-07
-5.13701e-05
1.25035e-07
-5.14658e-05
1.23353e-07
-5.15611e-05
1.21709e-07
-5.16561e-05
1.20103e-07
-5.17506e-05
1.18568e-07
-5.18448e-05
1.17104e-07
-5.19385e-05
1.15746e-07