/*--------------------------------*- C++ -*----------------------------------*\
| =========                 |                                                 |
| \\      /  F ield         | OpenFOAM: The Open Source CFD Toolbox           |
|  \\    /   O peration     | Version:  2.1.0                                 |
|   \\  /    A nd           | Web:      www.OpenFOAM.org                      |
|    \\/     M anipulation  |                                                 |
\*---------------------------------------------------------------------------*/
FoamFile
{
    version     2.0;
    format      ascii;
    class       volScalarField;
    location    "0.29";
    object      rho;
}
// * * * * * * * * * * * * * * * * * * * * * * * * * * * * * * * * * * * * * //

dimensions      [1 -3 0 0 0 0 0];

internalField   nonuniform List<scalar> 
6400
(
997.002
996.785
996.559
996.323
996.076
995.817
995.547
995.264
994.968
994.659
994.338
994.003
993.654
993.292
992.917
992.528
992.126
991.71
991.281
990.839
990.385
989.918
989.439
988.949
988.447
987.935
987.412
986.88
986.339
985.79
985.233
984.669
984.099
983.524
982.943
982.358
981.77
981.179
980.587
979.992
979.397
978.802
978.208
977.615
977.023
976.434
975.847
975.264
974.684
974.109
973.537
972.971
972.41
971.853
971.301
970.753
970.21
969.671
969.138
968.61
968.088
967.571
967.06
966.556
966.058
965.567
965.083
964.606
964.136
963.673
963.217
962.769
962.328
961.895
961.468
961.05
960.639
960.236
959.842
959.458
959.085
958.726
958.383
958.063
957.772
957.521
957.325
957.208
957.21
957.397
957.903
958.996
961.262
965.812
972.68
967.893
950.885
945.277
944.73
944.66
994.67
994.336
993.984
993.619
993.241
992.849
992.442
992.021
991.585
991.134
990.669
990.19
989.697
989.19
988.67
988.136
987.59
987.031
986.461
985.879
985.287
984.684
984.072
983.451
982.821
982.184
981.541
980.891
980.237
979.578
978.915
978.25
977.582
976.913
976.243
975.573
974.904
974.236
973.571
972.907
972.247
971.59
970.937
970.289
969.646
969.008
968.377
967.752
967.133
966.522
965.918
965.319
964.727
964.141
963.562
962.99
962.425
961.867
961.317
960.774
960.238
959.711
959.191
958.678
958.174
957.677
957.187
956.705
956.231
955.764
955.306
954.855
954.412
953.978
953.552
953.135
952.728
952.332
951.946
951.571
951.209
950.86
950.524
950.204
949.9
949.614
949.346
949.097
948.867
948.653
948.446
948.228
947.963
947.587
947.019
946.264
945.322
944.791
944.673
944.638
992.637
992.211
991.761
991.296
990.818
990.324
989.815
989.29
988.75
988.196
987.627
987.044
986.448
985.838
985.216
984.582
983.937
983.281
982.616
981.942
981.26
980.569
979.872
979.169
978.46
977.747
977.03
976.311
975.59
974.867
974.144
973.422
972.701
971.982
971.265
970.552
969.843
969.138
968.438
967.744
967.056
966.374
965.699
965.031
964.37
963.717
963.072
962.435
961.807
961.187
960.577
959.974
959.381
958.798
958.224
957.661
957.108
956.565
956.033
955.512
955.001
954.501
954.012
953.534
953.066
952.609
952.163
951.728
951.304
950.89
950.488
950.098
949.719
949.352
948.998
948.656
948.328
948.014
947.713
947.428
947.157
946.902
946.663
946.439
946.231
946.038
945.86
945.698
945.549
945.413
945.289
945.177
945.074
944.982
944.9
944.832
944.746
944.673
944.638
944.617
990.46
989.943
989.396
988.835
988.26
987.669
987.063
986.441
985.805
985.155
984.49
983.812
983.122
982.42
981.707
980.983
980.25
979.508
978.758
978.001
977.238
976.47
975.698
974.923
974.145
973.367
972.587
971.809
971.031
970.256
969.485
968.717
967.954
967.196
966.445
965.701
964.964
964.235
963.515
962.804
962.102
961.411
960.73
960.06
959.401
958.754
958.118
957.494
956.883
956.283
955.697
955.126
954.568
954.025
953.497
952.984
952.487
952.005
951.538
951.087
950.652
950.233
949.829
949.442
949.071
948.716
948.378
948.056
947.751
947.463
947.191
946.936
946.697
946.475
946.27
946.08
945.907
945.748
945.605
945.475
945.359
945.256
945.165
945.085
945.014
944.953
944.901
944.855
944.817
944.784
944.756
944.732
944.711
944.694
944.678
944.664
944.647
944.629
944.614
944.601
988.127
987.52
986.882
986.229
985.561
984.879
984.182
983.47
982.745
982.007
981.257
980.495
979.722
978.94
978.148
977.349
976.542
975.729
974.911
974.089
973.264
972.437
971.61
970.783
969.958
969.135
968.316
967.502
966.693
965.891
965.096
964.31
963.533
962.765
962.009
961.264
960.531
959.811
959.105
958.413
957.735
957.073
956.427
955.796
955.182
954.586
954.006
953.445
952.902
952.378
951.872
951.386
950.919
950.472
950.044
949.635
949.247
948.878
948.528
948.198
947.887
947.595
947.321
947.066
946.828
946.608
946.404
946.217
946.045
945.888
945.745
945.615
945.498
945.393
945.298
945.214
945.139
945.072
945.013
944.961
944.914
944.874
944.838
944.807
944.779
944.755
944.733
944.714
944.698
944.683
944.67
944.659
944.649
944.641
944.633
944.626
944.619
944.611
944.603
944.595
985.755
985.074
984.361
983.634
982.893
982.139
981.372
980.594
979.804
979.005
978.197
977.381
976.557
975.728
974.895
974.057
973.218
972.377
971.535
970.695
969.858
969.023
968.194
967.37
966.553
965.744
964.944
964.154
963.375
962.608
961.854
961.114
960.387
959.677
958.982
958.303
957.641
956.997
956.371
955.763
955.174
954.603
954.052
953.52
953.008
952.515
952.041
951.588
951.153
950.738
950.342
949.964
949.606
949.265
948.942
948.637
948.349
948.077
947.821
947.58
947.354
947.143
946.945
946.759
946.587
946.426
946.276
946.137
946.007
945.887
945.775
945.672
945.576
945.488
945.406
945.33
945.26
945.195
945.135
945.079
945.028
944.981
944.937
944.897
944.86
944.826
944.794
944.766
944.74
944.716
944.695
944.678
944.662
944.65
944.641
944.634
944.627
944.622
944.618
944.617
983.793
983.079
982.338
981.585
980.822
980.05
979.27
978.484
977.692
976.895
976.096
975.294
974.491
973.689
972.889
972.091
971.297
970.509
969.726
968.951
968.184
967.427
966.68
965.945
965.222
964.512
963.816
963.135
962.47
961.82
961.187
960.57
959.97
959.388
958.822
958.274
957.744
957.231
956.734
956.255
955.792
955.346
954.916
954.501
954.101
953.716
953.344
952.987
952.642
952.31
951.99
951.682
951.384
951.097
950.819
950.551
950.292
950.041
949.798
949.563
949.335
949.114
948.9
948.693
948.491
948.295
948.106
947.922
947.743
947.57
947.402
947.239
947.081
946.928
946.779
946.636
946.497
946.362
946.231
946.105
945.984
945.866
945.753
945.644
945.538
945.436
945.339
945.245
945.156
945.073
944.997
944.929
944.87
944.822
944.786
944.763
944.746
944.734
944.732
944.745
983.018
982.341
981.645
980.944
980.238
979.53
978.82
978.109
977.4
976.693
975.989
975.29
974.596
973.909
973.23
972.559
971.898
971.247
970.608
969.98
969.365
968.763
968.175
967.601
967.042
966.498
965.97
965.456
964.958
964.475
964.007
963.553
963.114
962.688
962.276
961.877
961.491
961.117
960.754
960.402
960.06
959.728
959.405
959.091
958.784
958.485
958.193
957.906
957.626
957.35
957.079
956.813
956.55
956.29
956.033
955.779
955.527
955.277
955.028
954.78
954.533
954.287
954.041
953.796
953.551
953.305
953.06
952.814
952.568
952.322
952.075
951.828
951.58
951.332
951.083
950.832
950.581
950.329
950.075
949.818
949.559
949.297
949.031
948.762
948.488
948.21
947.927
947.641
947.353
947.064
946.779
946.502
946.24
946.001
945.796
945.64
945.521
945.433
945.386
945.405
984.092
983.527
982.954
982.38
981.808
981.239
980.675
980.115
979.562
979.015
978.476
977.945
977.424
976.913
976.413
975.924
975.447
974.982
974.53
974.09
973.664
973.251
972.85
972.461
972.085
971.719
971.366
971.023
970.69
970.367
970.054
969.75
969.455
969.168
968.889
968.616
968.351
968.092
967.839
967.592
967.35
967.112
966.879
966.65
966.425
966.203
965.984
965.768
965.555
965.343
965.134
964.926
964.72
964.515
964.31
964.107
963.903
963.7
963.496
963.292
963.087
962.882
962.674
962.465
962.254
962.041
961.825
961.606
961.384
961.158
960.928
960.694
960.455
960.21
959.959
959.701
959.435
959.16
958.875
958.579
958.269
957.945
957.603
957.241
956.857
956.446
956.006
955.533
955.026
954.481
953.899
953.282
952.633
951.962
951.278
950.608
950.044
949.562
949.2
949.046
987.205
986.806
986.403
986.004
985.609
985.219
984.834
984.455
984.083
983.717
983.358
983.006
982.662
982.326
981.998
981.678
981.367
981.063
980.768
980.481
980.201
979.93
979.666
979.41
979.161
978.918
978.683
978.454
978.232
978.016
977.806
977.601
977.402
977.209
977.02
976.837
976.658
976.484
976.314
976.149
975.988
975.831
975.677
975.527
975.381
975.238
975.099
974.963
974.83
974.7
974.572
974.448
974.326
974.207
974.09
973.976
973.864
973.755
973.647
973.542
973.44
973.339
973.241
973.144
973.048
972.952
972.857
972.763
972.669
972.575
972.48
972.385
972.288
972.191
972.091
971.99
971.885
971.778
971.667
971.552
971.432
971.306
971.174
971.036
970.89
970.729
970.547
970.34
970.102
969.828
969.512
969.148
968.729
968.247
967.69
967.041
966.279
965.515
964.857
964.476
991.177
990.929
990.679
990.432
990.187
989.945
989.707
989.472
989.24
989.012
988.788
988.568
988.352
988.14
987.933
987.731
987.533
987.34
987.151
986.968
986.788
986.615
986.445
986.281
986.122
985.968
985.818
985.673
985.534
985.399
985.269
985.144
985.024
984.908
984.798
984.692
984.59
984.494
984.402
984.314
984.231
984.153
984.079
984.01
983.945
983.884
983.828
983.776
983.729
983.686
983.647
983.612
983.582
983.556
983.535
983.518
983.505
983.497
983.494
983.495
983.501
983.512
983.527
983.548
983.575
983.609
983.65
983.697
983.753
983.816
983.887
983.967
984.057
984.156
984.266
984.386
984.517
984.661
984.816
984.984
985.165
985.358
985.564
985.783
986.015
986.265
986.538
986.838
987.169
987.529
987.918
988.341
988.802
989.306
989.857
990.457
991.106
991.795
992.496
993.154
994.319
994.173
994.026
993.883
993.741
993.603
993.467
993.334
993.204
993.078
992.953
992.833
992.715
992.6
992.489
992.382
992.277
992.177
992.08
991.986
991.896
991.81
991.728
991.649
991.574
991.502
991.434
991.37
991.31
991.253
991.2
991.151
991.105
991.064
991.026
990.991
990.961
990.934
990.911
990.892
990.876
990.865
990.857
990.854
990.855
990.86
990.869
990.882
990.9
990.922
990.949
990.981
991.017
991.058
991.104
991.155
991.211
991.272
991.339
991.411
991.489
991.574
991.664
991.761
991.865
991.975
992.094
992.219
992.353
992.494
992.644
992.802
992.97
993.146
993.332
993.526
993.73
993.943
994.165
994.396
994.635
994.881
995.134
995.392
995.656
995.922
996.19
996.458
996.722
996.987
997.256
997.527
997.795
998.058
998.314
998.559
998.788
998.995
999.172
999.308
996.475
996.391
996.307
996.226
996.147
996.071
995.997
995.926
995.858
995.792
995.729
995.668
995.61
995.555
995.503
995.454
995.408
995.365
995.325
995.289
995.255
995.225
995.198
995.174
995.153
995.136
995.121
995.11
995.102
995.097
995.095
995.096
995.101
995.108
995.119
995.132
995.149
995.169
995.191
995.217
995.246
995.278
995.313
995.351
995.392
995.436
995.483
995.533
995.586
995.643
995.702
995.765
995.831
995.9
995.973
996.048
996.127
996.209
996.294
996.382
996.474
996.568
996.666
996.766
996.87
996.976
997.085
997.196
997.31
997.427
997.545
997.665
997.787
997.91
998.034
998.159
998.283
998.407
998.531
998.652
998.771
998.888
999.001
999.109
999.213
999.311
999.402
999.487
999.564
999.634
999.695
999.747
999.794
999.835
999.87
999.9
999.925
999.944
999.959
999.968
997.891
997.843
997.796
997.751
997.709
997.668
997.63
997.594
997.56
997.528
997.498
997.47
997.444
997.421
997.4
997.381
997.365
997.352
997.34
997.332
997.326
997.322
997.321
997.323
997.327
997.334
997.343
997.355
997.37
997.386
997.406
997.427
997.451
997.477
997.506
997.536
997.569
997.604
997.641
997.679
997.72
997.762
997.806
997.852
997.9
997.948
997.999
998.05
998.103
998.157
998.212
998.267
998.324
998.382
998.44
998.499
998.558
998.618
998.678
998.738
998.799
998.859
998.918
998.978
999.037
999.095
999.152
999.209
999.264
999.319
999.372
999.423
999.473
999.521
999.567
999.611
999.653
999.693
999.731
999.766
999.798
999.828
999.855
999.88
999.902
999.921
999.937
999.951
999.963
999.972
999.98
999.985
999.989
999.992
999.994
999.996
999.997
999.998
999.999
999.999
998.751
998.724
998.698
998.674
998.652
998.631
998.612
998.595
998.579
998.564
998.552
998.54
998.531
998.523
998.516
998.512
998.509
998.508
998.509
998.512
998.517
998.523
998.532
998.542
998.554
998.568
998.583
998.6
998.619
998.639
998.661
998.684
998.709
998.734
998.762
998.79
998.82
998.85
998.882
998.914
998.947
998.98
999.015
999.049
999.085
999.12
999.155
999.191
999.227
999.262
999.298
999.333
999.368
999.402
999.436
999.469
999.502
999.534
999.565
999.595
999.624
999.652
999.68
999.706
999.731
999.754
999.777
999.798
999.819
999.838
999.856
999.872
999.888
999.902
999.915
999.927
999.938
999.947
999.956
999.964
999.971
999.976
999.981
999.986
999.989
999.992
999.994
999.996
999.997
999.998
999.999
999.999
1000
1000
1000
1000
1000
1000
1000
1000
999.258
999.242
999.228
999.215
999.204
999.193
999.184
999.176
999.169
999.163
999.158
999.154
999.151
999.149
999.149
999.15
999.152
999.155
999.159
999.165
999.171
999.179
999.189
999.199
999.21
999.223
999.236
999.251
999.266
999.282
999.299
999.317
999.336
999.355
999.375
999.395
999.416
999.437
999.459
999.48
999.502
999.524
999.546
999.568
999.59
999.611
999.633
999.654
999.675
999.695
999.715
999.734
999.752
999.771
999.788
999.805
999.821
999.836
999.85
999.864
999.877
999.889
999.9
999.911
999.921
999.93
999.938
999.946
999.953
999.959
999.965
999.97
999.975
999.979
999.982
999.986
999.988
999.991
999.993
999.994
999.996
999.997
999.998
999.998
999.999
999.999
999.999
1000
1000
1000
1000
1000
1000
1000
1000
1000
1000
1000
1000
1000
999.561
999.552
999.544
999.537
999.531
999.526
999.521
999.517
999.514
999.511
999.509
999.508
999.507
999.508
999.509
999.51
999.513
999.516
999.52
999.525
999.531
999.537
999.544
999.552
999.56
999.569
999.579
999.589
999.6
999.611
999.623
999.635
999.647
999.66
999.673
999.686
999.7
999.713
999.727
999.74
999.754
999.767
999.78
999.793
999.806
999.818
999.83
999.842
999.854
999.865
999.875
999.886
999.895
999.904
999.913
999.921
999.929
999.936
999.943
999.949
999.955
999.96
999.965
999.97
999.974
999.977
999.981
999.983
999.986
999.988
999.99
999.992
999.993
999.995
999.996
999.997
999.997
999.998
999.998
999.999
999.999
999.999
1000
1000
1000
1000
1000
1000
1000
1000
1000
1000
1000
1000
1000
1000
1000
1000
1000
1000
999.748
999.743
999.739
999.735
999.731
999.728
999.726
999.724
999.722
999.721
999.72
999.72
999.72
999.72
999.721
999.722
999.724
999.727
999.729
999.732
999.736
999.74
999.745
999.75
999.755
999.761
999.767
999.774
999.78
999.788
999.795
999.802
999.81
999.818
999.826
999.834
999.842
999.85
999.858
999.866
999.873
999.881
999.889
999.896
999.903
999.91
999.917
999.923
999.93
999.936
999.941
999.947
999.952
999.957
999.961
999.965
999.969
999.973
999.976
999.979
999.982
999.984
999.986
999.988
999.99
999.992
999.993
999.994
999.995
999.996
999.997
999.997
999.998
999.998
999.999
999.999
999.999
999.999
1000
1000
1000
1000
1000
1000
1000
1000
1000
1000
1000
1000
1000
1000
1000
1000
1000
1000
1000
1000
1000
1000
999.865
999.862
999.86
999.858
999.856
999.854
999.853
999.852
999.851
999.85
999.85
999.85
999.85
999.85
999.851
999.851
999.852
999.854
999.855
999.857
999.859
999.861
999.864
999.867
999.87
999.873
999.877
999.88
999.884
999.888
999.892
999.896
999.9
999.905
999.909
999.913
999.918
999.922
999.927
999.931
999.935
999.939
999.943
999.947
999.951
999.955
999.959
999.962
999.965
999.968
999.971
999.974
999.977
999.979
999.982
999.984
999.986
999.987
999.989
999.99
999.992
999.993
999.994
999.995
999.996
999.996
999.997
999.998
999.998
999.998
999.999
999.999
999.999
999.999
1000
1000
1000
1000
1000
1000
1000
1000
1000
1000
1000
1000
1000
1000
1000
1000
1000
1000
1000
1000
1000
1000
1000
1000
1000
1000
999.949
999.948
999.947
999.946
999.945
999.944
999.944
999.943
999.943
999.942
999.942
999.942
999.942
999.942
999.942
999.942
999.942
999.943
999.943
999.944
999.945
999.945
999.946
999.947
999.949
999.95
999.951
999.952
999.954
999.955
999.957
999.959
999.96
999.962
999.964
999.965
999.967
999.969
999.971
999.972
999.974
999.976
999.977
999.979
999.981
999.982
999.984
999.985
999.986
999.988
999.989
999.99
999.991
999.992
999.993
999.994
999.994
999.995
999.996
999.996
999.997
999.997
999.998
999.998
999.998
999.999
999.999
999.999
999.999
999.999
1000
1000
1000
1000
1000
1000
1000
1000
1000
1000
1000
1000
1000
1000
1000
1000
1000
1000
1000
1000
1000
1000
1000
1000
1000
1000
1000
1000
1000
1000
944.644
944.573
944.562
944.56
944.561
944.563
944.566
944.572
944.58
944.593
944.612
944.643
944.69
944.765
944.882
945.07
945.374
945.886
946.806
948.69
944.618
944.57
944.562
944.562
944.564
944.568
944.574
944.584
944.598
944.619
944.65
944.698
944.77
944.881
945.052
945.32
945.751
946.478
947.816
950.796
944.596
944.568
944.565
944.567
944.572
944.579
944.591
944.607
944.632
944.667
944.719
944.795
944.907
945.075
945.329
945.722
946.355
947.438
949.509
954.535
944.584
944.571
944.573
944.579
944.59
944.605
944.627
944.657
944.701
944.762
944.848
944.971
945.149
945.409
945.796
946.393
947.358
949.042
952.399
961.06
944.587
944.587
944.597
944.613
944.635
944.667
944.709
944.768
944.847
944.954
945.101
945.305
945.591
946
946.604
947.532
949.038
951.695
957.117
971.252
944.626
944.644
944.671
944.709
944.76
944.827
944.914
945.028
945.175
945.366
945.617
945.954
946.416
947.067
948.014
949.456
951.778
955.826
963.985
983.728
944.793
944.849
944.923
945.017
945.135
945.282
945.462
945.682
945.948
946.276
946.696
947.245
947.979
948.992
950.443
952.615
956.028
961.8
972.721
993.685
945.553
945.714
945.906
946.133
946.397
946.696
947.032
947.406
947.842
948.373
949.035
949.877
950.978
952.469
954.567
957.639
962.344
969.956
982.59
998.272
949.312
949.679
950.081
950.52
950.981
951.431
951.902
952.41
953.022
953.75
954.638
955.732
957.143
959.021
961.7
965.62
971.522
980.212
991.412
999.482
964.7
965.165
965.663
966.178
966.686
967.138
967.621
968.185
968.815
969.511
970.322
971.266
972.471
974.03
976.345
979.813
984.863
991.145
997.13
999.535
993.536
993.525
993.546
993.593
993.697
993.939
994.229
994.536
994.858
995.221
995.611
996.068
996.568
997.167
997.704
998.177
998.542
999.015
999.688
999.9
999.358
999.337
999.32
999.308
999.305
999.327
999.364
999.419
999.475
999.534
999.593
999.658
999.721
999.789
999.842
999.882
999.907
999.936
999.983
999.981
999.97
999.967
999.964
999.96
999.957
999.955
999.955
999.958
999.962
999.967
999.972
999.978
999.983
999.987
999.991
999.993
999.995
999.997
999.999
999.997
999.999
999.999
999.999
999.999
999.999
999.998
999.998
999.998
999.998
999.998
999.999
999.999
999.999
999.999
1000
1000
1000
1000
1000
1000
1000
1000
1000
1000
1000
1000
1000
1000
1000
1000
1000
1000
1000
1000
1000
1000
1000
1000
1000
1000
1000
1000
1000
1000
1000
1000
1000
1000
1000
1000
1000
1000
1000
1000
1000
1000
1000
1000
1000
1000
1000
1000
1000
1000
1000
1000
1000
1000
1000
1000
1000
1000
1000
1000
1000
1000
1000
1000
1000
1000
1000
1000
1000
1000
1000
1000
1000
1000
1000
1000
1000
1000
1000
1000
1000
1000
1000
1000
1000
1000
1000
1000
1000
1000
1000
1000
1000
1000
1000
1000
1000
1000
1000
1000
1000
1000
1000
1000
1000
1000
1000
1000
1000
1000
1000
1000
1000
1000
1000
1000
1000
1000
1000
1000
1000
1000
1000
1000
1000
1000
944.555
944.555
944.555
944.555
944.555
944.555
944.555
944.555
944.555
944.555
944.555
944.555
944.555
944.555
944.555
944.555
944.555
944.555
944.555
944.555
944.555
944.555
944.555
944.555
944.555
944.555
944.555
944.555
944.555
944.555
944.555
944.555
944.555
944.555
944.555
944.555
944.555
944.555
944.555
944.555
944.555
944.555
944.555
944.555
944.555
944.555
944.555
944.555
944.555
944.555
944.555
944.555
944.555
944.555
944.555
944.555
944.555
944.555
944.555
944.555
944.555
944.555
944.555
944.555
944.555
944.555
944.555
944.555
944.555
944.555
944.555
944.555
944.555
944.555
944.555
944.555
944.555
944.555
944.555
944.555
944.555
944.555
944.555
944.555
944.555
944.555
944.555
944.555
944.555
944.555
944.555
944.555
944.555
944.555
944.555
944.555
944.555
944.555
944.555
944.555
944.555
944.555
944.555
944.555
944.555
944.555
944.555
944.555
944.555
944.555
944.555
944.555
944.555
944.555
944.555
944.555
944.555
944.555
944.555
944.555
944.555
944.555
944.555
944.555
944.555
944.555
944.555
944.555
944.555
944.555
944.555
944.555
944.555
944.555
944.555
944.555
944.555
944.555
944.555
944.555
944.555
944.555
944.555
944.555
944.555
944.555
944.555
944.555
944.555
944.555
944.555
944.555
944.555
944.555
944.555
944.555
944.555
944.555
944.555
944.555
944.555
944.555
944.555
944.555
944.555
944.555
944.555
944.555
944.555
944.555
944.555
944.555
944.555
944.555
944.555
944.555
944.555
944.555
944.555
944.555
944.555
944.555
944.555
944.555
944.555
944.555
944.555
944.555
944.555
944.555
944.555
944.555
944.555
944.555
944.555
944.555
944.555
944.555
944.555
944.555
944.555
944.555
944.555
944.555
944.555
944.555
944.555
944.555
944.555
944.555
944.555
944.555
944.555
944.555
944.555
944.555
944.555
944.555
944.555
944.555
944.555
944.555
944.555
944.555
944.555
944.555
944.555
944.555
944.555
944.555
944.555
944.555
944.555
944.555
944.555
944.555
944.555
944.555
944.555
944.555
944.555
944.555
944.555
944.555
944.555
944.555
944.555
944.555
944.555
944.555
944.555
944.555
944.555
944.555
944.555
944.555
944.555
944.555
944.555
944.555
944.555
944.555
944.555
944.555
944.555
944.555
944.555
944.555
944.555
944.555
944.555
944.555
944.555
944.555
944.555
944.555
944.555
944.555
944.555
944.555
944.555
944.555
944.555
944.555
944.555
944.555
944.555
944.555
944.555
944.555
944.555
944.555
944.555
944.555
944.555
944.555
944.555
944.555
944.555
944.555
944.555
944.555
944.555
944.555
944.555
944.555
944.555
944.555
944.555
944.555
944.555
944.555
944.555
944.555
944.555
944.555
944.555
944.555
944.555
944.555
944.555
944.555
944.555
944.555
944.555
944.555
944.555
944.555
944.555
944.555
944.555
944.555
944.555
944.555
944.555
944.555
944.555
944.555
944.555
944.555
944.555
944.555
944.555
944.555
944.555
944.555
944.555
944.555
944.555
944.555
944.555
944.555
944.555
944.555
944.555
944.555
944.555
944.555
944.555
944.555
944.555
944.555
944.555
944.555
944.555
944.555
944.555
944.555
944.555
944.555
944.555
944.555
944.555
944.555
944.555
944.555
944.555
944.555
944.555
944.555
944.555
944.555
944.555
944.555
944.555
944.555
944.555
944.555
944.555
944.555
944.555
944.555
944.555
944.555
944.555
944.555
944.555
944.555
944.555
944.555
944.555
944.555
944.555
944.555
944.555
944.555
944.555
944.555
944.555
944.555
944.555
944.555
944.555
944.555
944.555
944.555
944.555
944.555
944.555
944.555
944.555
944.555
944.555
944.555
944.555
944.555
944.555
944.555
944.555
944.555
944.555
944.555
944.555
944.555
944.555
944.555
944.555
944.555
944.555
944.555
944.555
944.555
944.555
944.555
944.555
944.555
944.555
944.555
944.555
944.555
944.555
944.555
944.555
944.555
944.555
944.555
944.555
944.555
944.555
944.555
944.555
944.555
944.555
944.555
944.555
944.555
944.555
944.555
944.555
944.555
944.555
944.555
944.555
944.555
944.555
944.555
944.555
944.555
944.555
944.555
944.555
944.555
944.555
944.555
944.555
944.555
944.555
944.555
944.555
944.555
944.555
944.555
944.555
944.555
944.555
944.555
944.555
944.555
944.555
944.555
944.555
944.555
944.555
944.555
944.555
944.555
944.555
944.555
944.555
944.555
944.555
944.555
944.555
944.555
944.555
944.555
944.555
944.555
944.555
944.555
944.555
944.555
944.555
944.555
944.555
944.555
944.555
944.555
944.555
944.555
944.555
944.555
944.555
944.555
944.555
944.555
944.555
944.555
944.555
944.555
944.555
944.555
944.555
944.555
944.555
944.555
944.555
944.555
944.555
944.555
944.555
944.555
944.555
944.555
944.555
944.555
944.555
944.555
944.555
944.555
944.555
944.555
944.555
944.555
944.555
944.555
944.555
944.555
944.555
944.555
944.555
944.555
944.555
944.555
944.555
944.555
944.555
944.555
944.555
944.555
944.555
944.555
944.555
944.555
944.555
944.555
944.555
944.555
944.555
944.555
944.555
944.555
944.555
944.555
944.555
944.555
944.555
944.555
944.555
944.555
944.555
944.555
944.555
944.555
944.555
944.555
944.555
944.555
944.555
944.555
944.555
944.555
944.555
944.555
944.555
944.555
944.555
944.555
944.555
944.555
944.555
944.555
944.555
944.555
944.555
944.555
944.555
944.555
944.555
944.555
944.555
944.555
944.555
944.555
944.555
944.555
944.555
944.555
944.555
944.555
944.555
944.555
944.555
944.555
944.555
944.555
944.555
944.555
944.555
944.555
944.555
944.555
944.555
944.555
944.555
944.555
944.555
944.555
944.555
944.555
944.555
944.555
944.555
944.555
944.555
944.555
944.555
944.555
944.555
944.555
944.555
944.555
944.555
944.555
944.555
944.555
944.555
944.555
944.555
944.555
944.555
944.555
944.555
944.555
944.555
944.555
944.555
944.555
944.555
944.555
944.555
944.555
944.555
944.555
944.555
944.555
944.555
944.555
944.555
944.555
944.555
944.555
944.555
944.555
944.555
944.555
944.555
944.555
944.555
944.555
944.555
944.555
944.555
944.555
944.555
944.555
944.555
944.555
944.555
944.555
944.555
944.555
944.555
944.555
944.555
944.555
944.555
944.555
944.555
944.555
944.555
944.555
944.555
944.555
944.555
944.555
944.555
944.555
944.555
944.555
944.555
944.555
944.555
944.555
944.555
944.555
944.555
944.555
944.555
944.555
944.555
944.555
944.555
944.555
944.555
944.555
944.555
944.555
944.555
944.555
944.555
944.555
944.555
944.555
944.555
944.555
944.555
944.555
944.555
944.555
944.555
944.555
944.555
944.555
944.555
944.555
944.555
944.555
944.555
944.555
944.555
944.555
944.555
944.555
944.555
944.555
944.555
944.555
944.555
944.555
944.555
944.555
944.555
944.555
944.555
944.555
944.555
944.555
944.555
944.555
944.555
944.555
944.555
944.555
944.555
944.555
944.555
944.555
944.555
944.555
944.555
944.555
944.555
944.555
944.555
944.555
944.555
944.555
944.555
944.555
944.555
944.555
944.555
944.555
944.555
944.555
944.555
944.555
944.555
944.555
944.555
944.555
944.555
944.555
944.555
944.555
944.555
944.555
944.555
944.555
944.555
944.555
944.555
944.555
944.555
944.555
944.555
944.555
944.555
944.555
944.555
944.555
944.555
944.555
944.555
944.555
944.555
944.555
944.555
944.555
944.555
944.555
944.555
944.555
944.555
944.555
944.555
944.555
944.555
944.555
944.555
944.555
944.555
944.555
944.555
944.555
944.555
944.555
944.555
944.555
944.555
944.555
944.555
944.555
944.555
944.555
944.555
944.555
944.555
944.555
944.555
944.555
944.555
944.555
944.555
944.555
944.555
944.555
944.555
944.555
944.555
944.555
944.555
944.555
944.555
944.555
944.555
944.555
944.555
944.555
944.555
944.555
944.555
944.555
944.555
944.555
944.555
944.555
944.555
944.555
944.555
944.555
944.555
944.555
944.555
944.555
944.555
944.555
944.555
944.555
944.555
944.555
944.555
944.555
944.555
944.555
944.555
944.555
944.555
944.555
944.555
944.555
944.555
944.555
944.555
944.555
944.555
944.555
944.555
944.555
944.555
944.555
944.555
944.555
944.555
944.555
944.555
944.555
944.555
944.555
944.555
944.555
944.555
944.555
944.555
944.555
944.555
944.555
944.555
944.555
944.555
944.555
944.555
944.555
944.555
944.555
944.555
944.555
944.555
944.555
944.555
944.555
944.555
944.555
944.555
944.555
944.555
944.555
944.555
944.555
944.555
944.555
944.555
944.555
944.555
944.555
944.555
944.555
944.555
944.555
944.555
944.555
944.555
944.555
944.555
944.555
944.555
944.555
944.555
944.555
944.555
944.555
944.555
944.555
944.555
944.555
944.555
944.555
944.555
944.555
944.555
944.555
944.555
944.555
944.555
944.555
944.555
944.555
944.555
944.555
944.555
944.555
944.555
944.555
944.555
944.555
944.555
944.555
944.555
944.555
944.555
944.555
944.555
944.555
944.555
944.555
944.555
944.555
944.555
944.555
944.555
944.555
944.555
944.555
944.555
944.555
944.555
944.555
944.555
944.555
944.555
944.555
944.555
944.555
944.555
944.555
944.555
944.555
944.555
944.555
944.555
944.555
944.555
944.555
944.555
944.555
944.555
944.555
944.555
944.555
944.555
944.555
944.555
944.555
944.555
944.555
944.555
944.555
944.555
944.555
944.555
944.555
944.555
944.555
944.555
944.555
944.555
944.555
944.555
944.555
944.555
944.555
944.555
944.555
944.555
944.555
944.555
944.555
944.555
944.555
944.555
944.555
944.555
944.555
944.555
944.555
944.555
944.555
944.555
944.555
944.555
944.555
944.555
944.555
944.555
944.555
944.555
944.555
944.555
944.555
944.555
944.555
944.555
944.555
944.555
944.555
944.555
944.555
944.555
944.555
944.555
944.555
944.555
944.555
944.555
944.555
944.555
944.555
944.555
944.555
944.555
944.555
944.555
944.555
944.555
944.555
944.555
944.555
944.555
944.555
944.555
944.555
944.555
944.555
944.555
944.555
944.555
944.555
944.555
944.555
944.555
944.555
944.555
944.555
944.555
944.555
944.555
944.555
944.555
944.555
944.555
944.555
944.555
944.555
944.555
944.555
944.555
944.555
944.555
944.555
944.555
944.555
944.555
944.555
944.555
944.555
944.555
944.555
944.555
944.555
944.555
944.555
944.555
944.555
944.555
944.555
944.555
944.555
944.555
944.555
944.555
944.555
944.555
944.555
944.555
944.555
944.555
944.555
944.555
944.555
944.555
944.555
944.555
944.555
944.555
944.555
944.555
944.555
944.555
944.555
944.555
944.555
944.555
944.555
944.555
944.555
944.555
944.555
944.555
944.555
944.555
944.555
944.555
944.555
944.555
944.555
944.555
944.555
944.555
944.555
944.555
944.555
944.555
944.555
944.555
944.555
944.555
944.555
944.555
944.555
944.555
944.555
944.555
944.555
944.555
944.555
944.555
944.555
944.555
944.555
944.555
944.555
944.555
944.555
944.555
944.555
944.555
944.555
944.555
944.555
944.555
944.555
944.555
944.555
944.555
944.555
944.555
944.555
944.555
944.555
944.555
944.555
944.555
944.555
944.555
944.555
944.555
944.555
944.555
944.555
944.555
944.555
944.555
944.555
944.555
944.555
944.555
944.555
944.555
944.555
944.555
944.555
944.555
944.555
944.555
944.555
944.555
944.555
944.555
944.555
944.555
944.555
944.555
944.555
944.555
944.555
944.555
944.555
944.555
944.555
944.555
944.555
944.555
944.555
944.555
944.555
944.555
944.555
944.555
944.555
944.555
944.555
944.555
944.555
944.555
944.555
944.555
944.555
944.555
944.555
944.555
944.555
944.555
944.555
944.555
944.555
944.555
944.555
944.555
944.555
944.555
944.555
944.555
944.555
944.555