/*--------------------------------*- C++ -*----------------------------------*\
| =========                 |                                                 |
| \\      /  F ield         | OpenFOAM: The Open Source CFD Toolbox           |
|  \\    /   O peration     | Version:  2.1.0                                 |
|   \\  /    A nd           | Web:      www.OpenFOAM.org                      |
|    \\/     M anipulation  |                                                 |
\*---------------------------------------------------------------------------*/
FoamFile
{
    version     2.0;
    format      ascii;
    class       volScalarField;
    location    "0.29";
    object      T;
}
// * * * * * * * * * * * * * * * * * * * * * * * * * * * * * * * * * * * * * //

dimensions      [0 0 0 1 0 0 0];

internalField   nonuniform List<scalar> 
6400
(
298.273
298.645
299.033
299.438
299.861
300.305
300.77
301.257
301.765
302.297
302.851
303.428
304.029
304.654
305.302
305.975
306.671
307.39
308.133
308.899
309.688
310.499
311.332
312.186
313.06
313.954
314.866
315.796
316.743
317.705
318.682
319.672
320.674
321.687
322.71
323.742
324.78
325.825
326.875
327.928
328.984
330.041
331.099
332.156
333.211
334.263
335.311
336.356
337.394
338.427
339.454
340.473
341.483
342.486
343.483
344.472
345.455
346.43
347.397
348.355
349.304
350.244
351.173
352.092
353
353.897
354.782
355.656
356.517
357.365
358.201
359.025
359.836
360.634
361.419
362.191
362.949
363.693
364.421
365.132
365.822
366.488
367.123
367.717
368.257
368.723
369.087
369.305
369.303
368.954
368.015
365.987
361.8
353.452
340.997
349.66
381.141
391.771
392.816
392.949
302.278
302.853
303.46
304.089
304.742
305.42
306.123
306.852
307.607
308.388
309.194
310.026
310.884
311.766
312.672
313.602
314.556
315.532
316.53
317.549
318.588
319.646
320.722
321.816
322.925
324.049
325.186
326.335
327.495
328.664
329.841
331.025
332.214
333.407
334.604
335.802
337
338.198
339.394
340.587
341.776
342.961
344.139
345.311
346.476
347.632
348.778
349.915
351.04
352.154
353.257
354.351
355.434
356.507
357.569
358.619
359.658
360.684
361.698
362.7
363.688
364.664
365.626
366.575
367.512
368.434
369.344
370.241
371.124
371.994
372.85
373.692
374.52
375.333
376.13
376.911
377.674
378.419
379.145
379.849
380.531
381.189
381.821
382.425
382.999
383.54
384.047
384.517
384.952
385.358
385.75
386.162
386.665
387.378
388.457
389.891
391.685
392.699
392.924
392.991
305.786
306.523
307.302
308.107
308.937
309.794
310.679
311.592
312.531
313.498
314.491
315.509
316.553
317.621
318.712
319.825
320.959
322.114
323.287
324.477
325.683
326.905
328.141
329.39
330.65
331.92
333.198
334.482
335.773
337.067
338.363
339.661
340.958
342.254
343.546
344.835
346.119
347.396
348.666
349.928
351.181
352.424
353.657
354.878
356.087
357.284
358.468
359.638
360.794
361.936
363.064
364.176
365.273
366.354
367.417
368.463
369.491
370.501
371.492
372.464
373.418
374.352
375.268
376.164
377.04
377.898
378.736
379.554
380.352
381.131
381.889
382.626
383.341
384.035
384.705
385.351
385.972
386.568
387.137
387.679
388.193
388.677
389.133
389.559
389.955
390.322
390.66
390.97
391.253
391.512
391.748
391.963
392.158
392.335
392.491
392.62
392.785
392.924
392.991
393.031
309.557
310.456
311.407
312.384
313.387
314.418
315.477
316.564
317.679
318.82
319.987
321.179
322.394
323.633
324.892
326.173
327.471
328.788
330.12
331.467
332.826
334.197
335.578
336.966
338.361
339.76
341.162
342.566
343.969
345.37
346.768
348.161
349.547
350.925
352.294
353.653
355
356.335
357.655
358.961
360.251
361.524
362.78
364.017
365.236
366.435
367.614
368.773
369.91
371.026
372.118
373.186
374.227
375.243
376.232
377.193
378.127
379.033
379.911
380.76
381.58
382.371
383.132
383.864
384.565
385.237
385.877
386.487
387.066
387.613
388.129
388.614
389.067
389.489
389.88
390.241
390.571
390.873
391.146
391.393
391.614
391.811
391.985
392.138
392.272
392.389
392.489
392.576
392.649
392.713
392.766
392.812
392.851
392.884
392.914
392.941
392.974
393.007
393.036
393.062
313.619
314.677
315.793
316.936
318.106
319.304
320.529
321.781
323.059
324.362
325.688
327.037
328.407
329.797
331.205
332.63
334.069
335.522
336.987
338.462
339.944
341.432
342.924
344.417
345.91
347.401
348.888
350.368
351.842
353.305
354.758
356.197
357.623
359.031
360.423
361.795
363.147
364.477
365.784
367.067
368.325
369.556
370.759
371.934
373.08
374.194
375.278
376.329
377.348
378.332
379.282
380.197
381.077
381.92
382.727
383.498
384.233
384.931
385.593
386.218
386.808
387.362
387.882
388.367
388.818
389.237
389.624
389.981
390.308
390.607
390.879
391.126
391.349
391.55
391.73
391.891
392.035
392.162
392.275
392.375
392.463
392.54
392.609
392.669
392.722
392.768
392.809
392.845
392.877
392.905
392.929
392.95
392.969
392.986
393
393.014
393.028
393.043
393.058
393.074
317.767
318.961
320.213
321.492
322.798
324.128
325.484
326.862
328.261
329.681
331.119
332.573
334.042
335.524
337.017
338.519
340.028
341.542
343.059
344.576
346.092
347.604
349.111
350.609
352.098
353.574
355.037
356.483
357.912
359.321
360.708
362.073
363.413
364.727
366.013
367.271
368.5
369.697
370.863
371.996
373.096
374.162
375.193
376.189
377.15
378.075
378.964
379.818
380.636
381.418
382.165
382.877
383.555
384.198
384.809
385.387
385.933
386.448
386.934
387.39
387.819
388.221
388.597
388.949
389.277
389.583
389.869
390.134
390.38
390.609
390.821
391.018
391.201
391.369
391.526
391.67
391.804
391.928
392.043
392.149
392.246
392.336
392.419
392.496
392.567
392.632
392.692
392.747
392.797
392.841
392.881
392.915
392.944
392.967
392.985
392.999
393.011
393.021
393.029
393.03
321.213
322.47
323.778
325.108
326.457
327.825
329.209
330.608
332.018
333.439
334.867
336.302
337.74
339.18
340.62
342.057
343.489
344.914
346.33
347.736
349.128
350.506
351.866
353.208
354.529
355.828
357.102
358.352
359.575
360.771
361.938
363.076
364.184
365.262
366.309
367.325
368.31
369.264
370.187
371.079
371.942
372.775
373.579
374.354
375.102
375.824
376.519
377.19
377.836
378.46
379.061
379.642
380.202
380.743
381.266
381.771
382.26
382.734
383.192
383.636
384.067
384.484
384.889
385.282
385.664
386.034
386.394
386.743
387.082
387.41
387.729
388.039
388.339
388.63
388.911
389.185
389.449
389.705
389.953
390.193
390.425
390.648
390.864
391.073
391.274
391.468
391.654
391.832
392.001
392.16
392.306
392.436
392.548
392.64
392.708
392.752
392.785
392.807
392.812
392.787
322.579
323.773
325.001
326.242
327.492
328.749
330.01
331.274
332.538
333.8
335.057
336.309
337.552
338.786
340.007
341.214
342.406
343.58
344.736
345.871
346.986
348.078
349.146
350.189
351.207
352.198
353.163
354.101
355.012
355.897
356.755
357.587
358.393
359.175
359.932
360.666
361.378
362.068
362.737
363.387
364.019
364.633
365.23
365.813
366.38
366.935
367.478
368.009
368.531
369.043
369.546
370.042
370.532
371.015
371.494
371.968
372.438
372.906
373.371
373.833
374.295
374.755
375.215
375.674
376.134
376.593
377.054
377.514
377.976
378.439
378.902
379.367
379.833
380.301
380.77
381.241
381.715
382.191
382.67
383.154
383.643
384.139
384.641
385.152
385.67
386.197
386.732
387.275
387.823
388.371
388.913
389.44
389.938
390.391
390.783
391.08
391.307
391.475
391.563
391.528
320.687
321.681
322.691
323.704
324.713
325.719
326.719
327.711
328.693
329.665
330.623
331.568
332.496
333.408
334.301
335.175
336.029
336.862
337.672
338.461
339.227
339.97
340.691
341.391
342.069
342.728
343.367
343.987
344.588
345.171
345.738
346.288
346.823
347.344
347.851
348.345
348.827
349.298
349.758
350.208
350.649
351.081
351.506
351.923
352.334
352.738
353.138
353.532
353.922
354.308
354.691
355.071
355.449
355.825
356.199
356.573
356.946
357.319
357.692
358.067
358.443
358.821
359.202
359.586
359.974
360.367
360.764
361.167
361.577
361.993
362.417
362.849
363.291
363.744
364.208
364.685
365.177
365.686
366.213
366.762
367.336
367.939
368.574
369.246
369.961
370.726
371.546
372.427
373.374
374.392
375.481
376.637
377.854
379.116
380.401
381.663
382.728
383.639
384.323
384.613
315.228
315.927
316.632
317.331
318.023
318.708
319.383
320.049
320.704
321.347
321.979
322.599
323.206
323.799
324.378
324.944
325.495
326.032
326.555
327.064
327.559
328.04
328.508
328.963
329.406
329.836
330.255
330.662
331.058
331.442
331.817
332.181
332.536
332.881
333.217
333.545
333.864
334.175
334.478
334.774
335.062
335.343
335.618
335.886
336.148
336.403
336.653
336.897
337.136
337.369
337.597
337.821
338.039
338.253
338.463
338.668
338.869
339.065
339.258
339.447
339.632
339.812
339.989
340.164
340.337
340.508
340.679
340.849
341.018
341.188
341.359
341.53
341.704
341.88
342.059
342.242
342.43
342.624
342.824
343.032
343.249
343.476
343.714
343.964
344.227
344.518
344.848
345.223
345.653
346.149
346.722
347.381
348.141
349.017
350.03
351.212
352.601
353.995
355.199
355.895
308.314
308.744
309.178
309.607
310.032
310.452
310.867
311.276
311.68
312.077
312.467
312.851
313.227
313.596
313.957
314.311
314.657
314.994
315.324
315.644
315.958
316.262
316.558
316.845
317.125
317.395
317.657
317.911
318.156
318.392
318.62
318.839
319.051
319.253
319.448
319.634
319.812
319.982
320.143
320.297
320.443
320.581
320.711
320.833
320.947
321.054
321.153
321.244
321.327
321.403
321.472
321.533
321.586
321.631
321.669
321.699
321.721
321.735
321.741
321.739
321.728
321.71
321.682
321.645
321.597
321.538
321.467
321.383
321.286
321.174
321.049
320.907
320.75
320.575
320.383
320.171
319.94
319.689
319.416
319.121
318.804
318.464
318.102
317.719
317.313
316.875
316.396
315.871
315.293
314.664
313.984
313.246
312.443
311.565
310.607
309.563
308.437
307.243
306.029
304.893
302.884
303.135
303.388
303.635
303.879
304.118
304.352
304.581
304.806
305.025
305.24
305.448
305.652
305.85
306.042
306.228
306.408
306.582
306.75
306.912
307.068
307.217
307.36
307.496
307.627
307.75
307.868
307.979
308.084
308.182
308.274
308.359
308.438
308.511
308.577
308.636
308.69
308.736
308.776
308.809
308.836
308.856
308.869
308.874
308.873
308.865
308.849
308.826
308.795
308.756
308.71
308.655
308.592
308.521
308.441
308.353
308.255
308.149
308.034
307.908
307.773
307.627
307.47
307.302
307.123
306.931
306.727
306.509
306.278
306.034
305.774
305.5
305.211
304.907
304.586
304.25
303.898
303.531
303.148
302.751
302.34
301.916
301.48
301.036
300.583
300.125
299.665
299.206
298.752
298.298
297.838
297.374
296.915
296.464
296.027
295.609
295.218
294.864
294.562
294.33
299.176
299.321
299.465
299.604
299.739
299.87
299.996
300.118
300.236
300.349
300.458
300.562
300.661
300.756
300.845
300.93
301.009
301.082
301.151
301.214
301.271
301.323
301.37
301.411
301.447
301.477
301.502
301.521
301.535
301.544
301.547
301.545
301.537
301.525
301.506
301.483
301.454
301.42
301.381
301.337
301.287
301.233
301.173
301.107
301.037
300.961
300.88
300.794
300.702
300.605
300.503
300.395
300.282
300.163
300.039
299.909
299.774
299.633
299.487
299.336
299.179
299.017
298.849
298.677
298.5
298.318
298.131
297.94
297.744
297.545
297.342
297.137
296.928
296.717
296.505
296.292
296.08
295.867
295.657
295.449
295.246
295.047
294.854
294.669
294.492
294.325
294.169
294.024
293.892
293.774
293.67
293.581
293.502
293.431
293.371
293.32
293.278
293.245
293.22
293.204
296.75
296.833
296.913
296.99
297.062
297.131
297.197
297.258
297.317
297.372
297.423
297.471
297.515
297.555
297.591
297.623
297.65
297.674
297.693
297.708
297.718
297.724
297.725
297.723
297.715
297.704
297.688
297.667
297.643
297.614
297.581
297.544
297.503
297.459
297.41
297.358
297.302
297.242
297.179
297.113
297.043
296.971
296.895
296.817
296.736
296.652
296.567
296.478
296.388
296.296
296.202
296.107
296.01
295.911
295.812
295.711
295.61
295.508
295.405
295.302
295.199
295.097
294.995
294.893
294.793
294.693
294.595
294.499
294.404
294.311
294.221
294.133
294.048
293.967
293.888
293.812
293.741
293.673
293.609
293.549
293.494
293.443
293.397
293.355
293.318
293.285
293.257
293.233
293.213
293.197
293.185
293.175
293.169
293.163
293.159
293.156
293.154
293.153
293.152
293.151
295.28
295.327
295.371
295.412
295.45
295.485
295.517
295.547
295.574
295.599
295.621
295.64
295.657
295.67
295.681
295.689
295.693
295.695
295.693
295.688
295.68
295.669
295.655
295.638
295.617
295.594
295.568
295.538
295.507
295.472
295.435
295.395
295.353
295.309
295.262
295.214
295.163
295.111
295.058
295.002
294.946
294.889
294.83
294.771
294.711
294.651
294.59
294.529
294.468
294.407
294.347
294.287
294.228
294.169
294.111
294.054
293.999
293.944
293.892
293.84
293.79
293.742
293.696
293.652
293.609
293.569
293.53
293.493
293.459
293.427
293.396
293.368
293.342
293.317
293.295
293.275
293.256
293.24
293.225
293.212
293.2
293.19
293.182
293.174
293.168
293.164
293.16
293.157
293.155
293.153
293.152
293.151
293.151
293.15
293.15
293.15
293.15
293.15
293.15
293.15
294.415
294.442
294.466
294.488
294.508
294.525
294.541
294.555
294.567
294.578
294.586
294.593
294.598
294.6
294.601
294.6
294.597
294.591
294.584
294.574
294.563
294.549
294.533
294.516
294.496
294.475
294.452
294.428
294.401
294.374
294.345
294.314
294.282
294.25
294.216
294.181
294.146
294.109
294.073
294.036
293.999
293.961
293.924
293.886
293.849
293.812
293.776
293.74
293.705
293.67
293.636
293.604
293.572
293.541
293.511
293.483
293.456
293.43
293.405
293.382
293.36
293.339
293.32
293.302
293.285
293.269
293.255
293.242
293.23
293.219
293.21
293.201
293.193
293.186
293.18
293.175
293.17
293.166
293.163
293.16
293.158
293.156
293.154
293.153
293.152
293.151
293.151
293.151
293.15
293.15
293.15
293.15
293.15
293.15
293.15
293.15
293.15
293.15
293.15
293.15
293.898
293.913
293.927
293.939
293.949
293.958
293.966
293.973
293.979
293.983
293.986
293.989
293.989
293.989
293.987
293.984
293.98
293.975
293.968
293.959
293.95
293.939
293.927
293.914
293.9
293.884
293.868
293.85
293.832
293.813
293.793
293.772
293.751
293.729
293.707
293.684
293.662
293.639
293.616
293.593
293.57
293.547
293.525
293.503
293.481
293.46
293.439
293.419
293.399
293.38
293.362
293.345
293.329
293.313
293.298
293.284
293.271
293.258
293.247
293.236
293.226
293.217
293.209
293.202
293.195
293.189
293.183
293.178
293.174
293.17
293.167
293.164
293.161
293.159
293.157
293.156
293.154
293.153
293.153
293.152
293.151
293.151
293.151
293.15
293.15
293.15
293.15
293.15
293.15
293.15
293.15
293.15
293.15
293.15
293.15
293.15
293.15
293.15
293.15
293.15
293.58
293.588
293.595
293.602
293.608
293.613
293.617
293.62
293.623
293.626
293.627
293.628
293.628
293.627
293.625
293.623
293.62
293.616
293.611
293.606
293.6
293.593
293.585
293.576
293.567
293.557
293.547
293.536
293.524
293.512
293.5
293.487
293.474
293.46
293.447
293.433
293.42
293.406
293.392
293.379
293.366
293.353
293.34
293.327
293.315
293.303
293.291
293.28
293.27
293.26
293.25
293.241
293.232
293.224
293.216
293.209
293.203
293.197
293.191
293.186
293.181
293.177
293.173
293.17
293.167
293.164
293.162
293.16
293.158
293.157
293.156
293.154
293.154
293.153
293.152
293.152
293.151
293.151
293.151
293.15
293.15
293.15
293.15
293.15
293.15
293.15
293.15
293.15
293.15
293.15
293.15
293.15
293.15
293.15
293.15
293.15
293.15
293.15
293.15
293.15
293.38
293.384
293.389
293.392
293.395
293.398
293.4
293.402
293.404
293.405
293.406
293.406
293.406
293.406
293.405
293.403
293.402
293.399
293.397
293.394
293.39
293.386
293.382
293.377
293.372
293.366
293.36
293.354
293.348
293.341
293.334
293.327
293.32
293.312
293.305
293.297
293.29
293.283
293.275
293.268
293.26
293.253
293.246
293.24
293.233
293.227
293.221
293.215
293.209
293.204
293.199
293.194
293.19
293.185
293.181
293.178
293.175
293.172
293.169
293.166
293.164
293.162
293.16
293.159
293.157
293.156
293.155
293.154
293.153
293.153
293.152
293.152
293.151
293.151
293.151
293.151
293.15
293.15
293.15
293.15
293.15
293.15
293.15
293.15
293.15
293.15
293.15
293.15
293.15
293.15
293.15
293.15
293.15
293.15
293.15
293.15
293.15
293.15
293.15
293.15
293.237
293.239
293.241
293.242
293.244
293.245
293.246
293.247
293.248
293.248
293.249
293.249
293.249
293.249
293.249
293.249
293.248
293.248
293.247
293.246
293.244
293.243
293.241
293.24
293.238
293.236
293.233
293.231
293.229
293.226
293.223
293.221
293.218
293.215
293.212
293.209
293.206
293.203
293.2
293.197
293.194
293.191
293.189
293.186
293.183
293.181
293.178
293.176
293.173
293.171
293.169
293.167
293.166
293.164
293.162
293.161
293.16
293.158
293.157
293.156
293.155
293.155
293.154
293.153
293.153
293.152
293.152
293.152
293.151
293.151
293.151
293.151
293.15
293.15
293.15
293.15
293.15
293.15
293.15
293.15
293.15
293.15
293.15
293.15
293.15
293.15
293.15
293.15
293.15
293.15
293.15
293.15
293.15
293.15
293.15
293.15
293.15
293.15
293.15
293.15
392.98
393.114
393.137
393.14
393.138
393.134
393.128
393.117
393.102
393.077
393.04
392.981
392.891
392.749
392.524
392.167
391.587
390.61
388.86
385.285
393.03
393.121
393.136
393.136
393.132
393.124
393.112
393.095
393.068
393.028
392.967
392.876
392.738
392.526
392.2
391.689
390.868
389.483
386.942
381.307
393.071
393.124
393.131
393.127
393.117
393.103
393.081
393.049
393.003
392.935
392.837
392.692
392.477
392.156
391.672
390.922
389.717
387.66
383.736
374.288
393.095
393.119
393.116
393.103
393.083
393.054
393.013
392.954
392.871
392.755
392.59
392.354
392.015
391.52
390.782
389.646
387.812
384.621
378.291
362.17
393.089
393.088
393.069
393.039
392.996
392.936
392.855
392.743
392.592
392.387
392.107
391.718
391.173
390.394
389.244
387.482
384.628
379.616
369.474
343.57
393.014
392.98
392.927
392.855
392.758
392.631
392.464
392.247
391.965
391.602
391.123
390.481
389.601
388.365
386.567
383.838
379.459
371.879
356.794
321.328
392.695
392.588
392.447
392.267
392.042
391.762
391.419
390.999
390.493
389.868
389.069
388.027
386.634
384.714
381.974
377.887
371.503
360.809
340.923
303.976
391.245
390.939
390.573
390.14
389.638
389.07
388.431
387.72
386.893
385.886
384.634
383.042
380.965
378.161
374.23
368.505
359.807
345.916
323.333
296.099
384.111
383.418
382.658
381.829
380.96
380.113
379.227
378.273
377.124
375.76
374.098
372.055
369.427
365.942
360.992
353.802
343.084
327.539
307.907
294.034
355.487
354.635
353.724
352.784
351.858
351.034
350.154
349.13
347.985
346.722
345.254
343.548
341.374
338.57
334.423
328.247
319.333
308.369
298.053
293.942
304.234
304.252
304.217
304.136
303.956
303.539
303.038
302.51
301.955
301.331
300.66
299.875
299.016
297.991
297.07
296.261
295.638
294.83
293.682
293.32
294.244
294.28
294.309
294.33
294.334
294.297
294.234
294.14
294.045
293.944
293.843
293.732
293.625
293.51
293.419
293.351
293.308
293.259
293.179
293.183
293.201
293.206
293.212
293.218
293.223
293.226
293.227
293.222
293.215
293.206
293.197
293.188
293.18
293.172
293.166
293.161
293.158
293.155
293.151
293.155
293.151
293.151
293.152
293.152
293.152
293.153
293.153
293.153
293.153
293.153
293.152
293.152
293.151
293.151
293.151
293.151
293.15
293.15
293.15
293.15
293.15
293.15
293.15
293.15
293.15
293.15
293.15
293.15
293.15
293.15
293.15
293.15
293.15
293.15
293.15
293.15
293.15
293.15
293.15
293.15
293.15
293.15
293.15
293.15
293.15
293.15
293.15
293.15
293.15
293.15
293.15
293.15
293.15
293.15
293.15
293.15
293.15
293.15
293.15
293.15
293.15
293.15
293.15
293.15
293.15
293.15
293.15
293.15
293.15
293.15
293.15
293.15
293.15
293.15
293.15
293.15
293.15
293.15
293.15
293.15
293.15
293.15
293.15
293.15
293.15
293.15
293.15
293.15
293.15
293.15
293.15
293.15
293.15
293.15
293.15
293.15
293.15
293.15
293.15
293.15
293.15
293.15
293.15
293.15
293.15
293.15
293.15
293.15
293.15
293.15
293.15
293.15
293.15
293.15
293.15
293.15
293.15
293.15
293.15
293.15
293.15
293.15
293.15
293.15
293.15
293.15
293.15
293.15
293.15
293.15
293.15
293.15
293.15
293.15
293.15
293.15
293.15
293.15
293.15
293.15
393.15
393.15
393.15
393.15
393.15
393.15
393.15
393.15
393.15
393.15
393.15
393.15
393.15
393.15
393.15
393.15
393.15
393.15
393.15
393.15
393.15
393.15
393.15
393.15
393.15
393.15
393.15
393.15
393.15
393.15
393.15
393.15
393.15
393.15
393.15
393.15
393.15
393.15
393.15
393.15
393.15
393.15
393.15
393.15
393.15
393.15
393.15
393.15
393.15
393.15
393.15
393.15
393.15
393.15
393.15
393.15
393.15
393.15
393.15
393.15
393.15
393.15
393.15
393.15
393.15
393.15
393.15
393.15
393.15
393.15
393.15
393.15
393.15
393.15
393.15
393.15
393.15
393.15
393.15
393.15
393.15
393.15
393.15
393.15
393.15
393.15
393.15
393.15
393.15
393.15
393.15
393.15
393.15
393.15
393.15
393.15
393.15
393.15
393.15
393.15
393.15
393.15
393.15
393.15
393.15
393.15
393.15
393.15
393.15
393.15
393.15
393.15
393.15
393.15
393.15
393.15
393.15
393.15
393.15
393.15
393.15
393.15
393.15
393.15
393.15
393.15
393.15
393.15
393.15
393.15
393.15
393.15
393.15
393.15
393.15
393.15
393.15
393.15
393.15
393.15
393.15
393.15
393.15
393.15
393.15
393.15
393.15
393.15
393.15
393.15
393.15
393.15
393.15
393.15
393.15
393.15
393.15
393.15
393.15
393.15
393.15
393.15
393.15
393.15
393.15
393.15
393.15
393.15
393.15
393.15
393.15
393.15
393.15
393.15
393.15
393.15
393.15
393.15
393.15
393.15
393.15
393.15
393.15
393.15
393.15
393.15
393.15
393.15
393.15
393.15
393.15
393.15
393.15
393.15
393.15
393.15
393.15
393.15
393.15
393.15
393.15
393.15
393.15
393.15
393.15
393.15
393.15
393.15
393.15
393.15
393.15
393.15
393.15
393.15
393.15
393.15
393.15
393.15
393.15
393.15
393.15
393.15
393.15
393.15
393.15
393.15
393.15
393.15
393.15
393.15
393.15
393.15
393.15
393.15
393.15
393.15
393.15
393.15
393.15
393.15
393.15
393.15
393.15
393.15
393.15
393.15
393.15
393.15
393.15
393.15
393.15
393.15
393.15
393.15
393.15
393.15
393.15
393.15
393.15
393.15
393.15
393.15
393.15
393.15
393.15
393.15
393.15
393.15
393.15
393.15
393.15
393.15
393.15
393.15
393.15
393.15
393.15
393.15
393.15
393.15
393.15
393.15
393.15
393.15
393.15
393.15
393.15
393.15
393.15
393.15
393.15
393.15
393.15
393.15
393.15
393.15
393.15
393.15
393.15
393.15
393.15
393.15
393.15
393.15
393.15
393.15
393.15
393.15
393.15
393.15
393.15
393.15
393.15
393.15
393.15
393.15
393.15
393.15
393.15
393.15
393.15
393.15
393.15
393.15
393.15
393.15
393.15
393.15
393.15
393.15
393.15
393.15
393.15
393.15
393.15
393.15
393.15
393.15
393.15
393.15
393.15
393.15
393.15
393.15
393.15
393.15
393.15
393.15
393.15
393.15
393.15
393.15
393.15
393.15
393.15
393.15
393.15
393.15
393.15
393.15
393.15
393.15
393.15
393.15
393.15
393.15
393.15
393.15
393.15
393.15
393.15
393.15
393.15
393.15
393.15
393.15
393.15
393.15
393.15
393.15
393.15
393.15
393.15
393.15
393.15
393.15
393.15
393.15
393.15
393.15
393.15
393.15
393.15
393.15
393.15
393.15
393.15
393.15
393.15
393.15
393.15
393.15
393.15
393.15
393.15
393.15
393.15
393.15
393.15
393.15
393.15
393.15
393.15
393.15
393.15
393.15
393.15
393.15
393.15
393.15
393.15
393.15
393.15
393.15
393.15
393.15
393.15
393.15
393.15
393.15
393.15
393.15
393.15
393.15
393.15
393.15
393.15
393.15
393.15
393.15
393.15
393.15
393.15
393.15
393.15
393.15
393.15
393.15
393.15
393.15
393.15
393.15
393.15
393.15
393.15
393.15
393.15
393.15
393.15
393.15
393.15
393.15
393.15
393.15
393.15
393.15
393.15
393.15
393.15
393.15
393.15
393.15
393.15
393.15
393.15
393.15
393.15
393.15
393.15
393.15
393.15
393.15
393.15
393.15
393.15
393.15
393.15
393.15
393.15
393.15
393.15
393.15
393.15
393.15
393.15
393.15
393.15
393.15
393.15
393.15
393.15
393.15
393.15
393.15
393.15
393.15
393.15
393.15
393.15
393.15
393.15
393.15
393.15
393.15
393.15
393.15
393.15
393.15
393.15
393.15
393.15
393.15
393.15
393.15
393.15
393.15
393.15
393.15
393.15
393.15
393.15
393.15
393.15
393.15
393.15
393.15
393.15
393.15
393.15
393.15
393.15
393.15
393.15
393.15
393.15
393.15
393.15
393.15
393.15
393.15
393.15
393.15
393.15
393.15
393.15
393.15
393.15
393.15
393.15
393.15
393.15
393.15
393.15
393.15
393.15
393.15
393.15
393.15
393.15
393.15
393.15
393.15
393.15
393.15
393.15
393.15
393.15
393.15
393.15
393.15
393.15
393.15
393.15
393.15
393.15
393.15
393.15
393.15
393.15
393.15
393.15
393.15
393.15
393.15
393.15
393.15
393.15
393.15
393.15
393.15
393.15
393.15
393.15
393.15
393.15
393.15
393.15
393.15
393.15
393.15
393.15
393.15
393.15
393.15
393.15
393.15
393.15
393.15
393.15
393.15
393.15
393.15
393.15
393.15
393.15
393.15
393.15
393.15
393.15
393.15
393.15
393.15
393.15
393.15
393.15
393.15
393.15
393.15
393.15
393.15
393.15
393.15
393.15
393.15
393.15
393.15
393.15
393.15
393.15
393.15
393.15
393.15
393.15
393.15
393.15
393.15
393.15
393.15
393.15
393.15
393.15
393.15
393.15
393.15
393.15
393.15
393.15
393.15
393.15
393.15
393.15
393.15
393.15
393.15
393.15
393.15
393.15
393.15
393.15
393.15
393.15
393.15
393.15
393.15
393.15
393.15
393.15
393.15
393.15
393.15
393.15
393.15
393.15
393.15
393.15
393.15
393.15
393.15
393.15
393.15
393.15
393.15
393.15
393.15
393.15
393.15
393.15
393.15
393.15
393.15
393.15
393.15
393.15
393.15
393.15
393.15
393.15
393.15
393.15
393.15
393.15
393.15
393.15
393.15
393.15
393.15
393.15
393.15
393.15
393.15
393.15
393.15
393.15
393.15
393.15
393.15
393.15
393.15
393.15
393.15
393.15
393.15
393.15
393.15
393.15
393.15
393.15
393.15
393.15
393.15
393.15
393.15
393.15
393.15
393.15
393.15
393.15
393.15
393.15
393.15
393.15
393.15
393.15
393.15
393.15
393.15
393.15
393.15
393.15
393.15
393.15
393.15
393.15
393.15
393.15
393.15
393.15
393.15
393.15
393.15
393.15
393.15
393.15
393.15
393.15
393.15
393.15
393.15
393.15
393.15
393.15
393.15
393.15
393.15
393.15
393.15
393.15
393.15
393.15
393.15
393.15
393.15
393.15
393.15
393.15
393.15
393.15
393.15
393.15
393.15
393.15
393.15
393.15
393.15
393.15
393.15
393.15
393.15
393.15
393.15
393.15
393.15
393.15
393.15
393.15
393.15
393.15
393.15
393.15
393.15
393.15
393.15
393.15
393.15
393.15
393.15
393.15
393.15
393.15
393.15
393.15
393.15
393.15
393.15
393.15
393.15
393.15
393.15
393.15
393.15
393.15
393.15
393.15
393.15
393.15
393.15
393.15
393.15
393.15
393.15
393.15
393.15
393.15
393.15
393.15
393.15
393.15
393.15
393.15
393.15
393.15
393.15
393.15
393.15
393.15
393.15
393.15
393.15
393.15
393.15
393.15
393.15
393.15
393.15
393.15
393.15
393.15
393.15
393.15
393.15
393.15
393.15
393.15
393.15
393.15
393.15
393.15
393.15
393.15
393.15
393.15
393.15
393.15
393.15
393.15
393.15
393.15
393.15
393.15
393.15
393.15
393.15
393.15
393.15
393.15
393.15
393.15
393.15
393.15
393.15
393.15
393.15
393.15
393.15
393.15
393.15
393.15
393.15
393.15
393.15
393.15
393.15
393.15
393.15
393.15
393.15
393.15
393.15
393.15
393.15
393.15
393.15
393.15
393.15
393.15
393.15
393.15
393.15
393.15
393.15
393.15
393.15
393.15
393.15
393.15
393.15
393.15
393.15
393.15
393.15
393.15
393.15
393.15
393.15
393.15
393.15
393.15
393.15
393.15
393.15
393.15
393.15
393.15
393.15
393.15
393.15
393.15
393.15
393.15
393.15
393.15
393.15
393.15
393.15
393.15
393.15
393.15
393.15
393.15
393.15
393.15
393.15
393.15
393.15
393.15
393.15
393.15
393.15
393.15
393.15
393.15
393.15
393.15
393.15
393.15
393.15
393.15
393.15
393.15
393.15
393.15
393.15
393.15
393.15
393.15
393.15
393.15
393.15
393.15
393.15
393.15
393.15
393.15
393.15
393.15
393.15
393.15
393.15
393.15
393.15
393.15
393.15
393.15
393.15
393.15
393.15
393.15
393.15
393.15
393.15
393.15
393.15
393.15
393.15
393.15
393.15
393.15
393.15
393.15
393.15
393.15
393.15
393.15
393.15
393.15
393.15
393.15
393.15
393.15
393.15
393.15
393.15
393.15
393.15
393.15
393.15
393.15
393.15
393.15
393.15
393.15
393.15
393.15
393.15
393.15
393.15
393.15
393.15
393.15
393.15
393.15
393.15
393.15
393.15
393.15
393.15
393.15
393.15
393.15
393.15
393.15
393.15
393.15
393.15
393.15
393.15
393.15
393.15
393.15
393.15
393.15
393.15
393.15
393.15
393.15
393.15
393.15
393.15
393.15
393.15
393.15
393.15
393.15
393.15
393.15
393.15
393.15
393.15
393.15
393.15
393.15
393.15
393.15
393.15
393.15
393.15
393.15
393.15
393.15
393.15
393.15
393.15
393.15
393.15
393.15
393.15
393.15
393.15
393.15
393.15
393.15
393.15
393.15
393.15
393.15
393.15
393.15
393.15
393.15
393.15
393.15
393.15
393.15
393.15
393.15
393.15
393.15
393.15
393.15
393.15
393.15
393.15
393.15
393.15
393.15
393.15
393.15
393.15
393.15
393.15
393.15
393.15
393.15
393.15
393.15
393.15
393.15
393.15
393.15
393.15
393.15
393.15
393.15
393.15
393.15
393.15
393.15
393.15
393.15
393.15
393.15
393.15
393.15
393.15
393.15
393.15
393.15
393.15
393.15
393.15
393.15
393.15
393.15
393.15
393.15
393.15
393.15
393.15
393.15
393.15
393.15
393.15
393.15
393.15
393.15
393.15
393.15
393.15
393.15
393.15
393.15
393.15
393.15
393.15
393.15
393.15
393.15
393.15
393.15
393.15
393.15
393.15
393.15
393.15
393.15
393.15
393.15
393.15
393.15
393.15
393.15
393.15
393.15
393.15
393.15
393.15
393.15
393.15
393.15
393.15
393.15
393.15
393.15
393.15
393.15
393.15
393.15
393.15
393.15
393.15
393.15
393.15
393.15
393.15
393.15
393.15
393.15
393.15
393.15
393.15
393.15
393.15
393.15
393.15
393.15
393.15
393.15
393.15
393.15
393.15
393.15
393.15
393.15
393.15
393.15
393.15
393.15
393.15
393.15
393.15
393.15
393.15
393.15
393.15
393.15
393.15
393.15
393.15
393.15
393.15
393.15
393.15
393.15
393.15
393.15
393.15
393.15
393.15
393.15
393.15
393.15
393.15
393.15
393.15
393.15
393.15
393.15
393.15
393.15
393.15
393.15
393.15
393.15
393.15
393.15
393.15
393.15
393.15
393.15
393.15
393.15
393.15
393.15
393.15
393.15
393.15
393.15
393.15
393.15
393.15
393.15
393.15
393.15
393.15
393.15
393.15
393.15
393.15
393.15
393.15
393.15
393.15
393.15
393.15
393.15
393.15
393.15
393.15
393.15
393.15
393.15
393.15
393.15
393.15
393.15
393.15
393.15
393.15
393.15
393.15
393.15
393.15
393.15
393.15
393.15
393.15
393.15
393.15
393.15
393.15
393.15
393.15
393.15
393.15
393.15
393.15
393.15
393.15
393.15
393.15
393.15
393.15
393.15
393.15
393.15
393.15
393.15
393.15
393.15
393.15
393.15
393.15
393.15
393.15
393.15
393.15
393.15
393.15
393.15
393.15
393.15
393.15
393.15
393.15
393.15
393.15
393.15
393.15
393.15
393.15
393.15
393.15
393.15
393.15
393.15
393.15
393.15
393.15
393.15
393.15
393.15
393.15
393.15
393.15
393.15
393.15
393.15
393.15
393.15
393.15
393.15
393.15
393.15
393.15
393.15
393.15
393.15
393.15
393.15
393.15
393.15
393.15
393.15
393.15
393.15
393.15
393.15
393.15
393.15
393.15
393.15
393.15
393.15
393.15
393.15
393.15
393.15
393.15
393.15
393.15
393.15
393.15
393.15
393.15
393.15
393.15
393.15
393.15
393.15
393.15
393.15
393.15
393.15
393.15
393.15
393.15
393.15