/*--------------------------------*- C++ -*----------------------------------*\
| =========                 |                                                 |
| \\      /  F ield         | OpenFOAM: The Open Source CFD Toolbox           |
|  \\    /   O peration     | Version:  2.1.0                                 |
|   \\  /    A nd           | Web:      www.OpenFOAM.org                      |
|    \\/     M anipulation  |                                                 |
\*---------------------------------------------------------------------------*/
FoamFile
{
    version     2.0;
    format      ascii;
    class       volVectorField;
    location    "0.29";
    object      U;
}
// * * * * * * * * * * * * * * * * * * * * * * * * * * * * * * * * * * * * * //

dimensions      [0 1 -1 0 0 0 0];

internalField   nonuniform List<vector> 
6400
(
(-1.24133 2.50189e-06 0)
(-1.24063 -0.000413661 0)
(-1.23882 -0.000681262 0)
(-1.23615 -0.000814718 0)
(-1.23309 -0.000890946 0)
(-1.22979 -0.000941649 0)
(-1.22633 -0.000978472 0)
(-1.22275 -0.00100841 0)
(-1.21907 -0.00103457 0)
(-1.21531 -0.00105879 0)
(-1.21147 -0.00108191 0)
(-1.20755 -0.00110459 0)
(-1.20356 -0.00112728 0)
(-1.1995 -0.00115024 0)
(-1.19536 -0.00117375 0)
(-1.19114 -0.00119786 0)
(-1.18683 -0.00122284 0)
(-1.18244 -0.00124871 0)
(-1.17796 -0.0012753 0)
(-1.17339 -0.00130274 0)
(-1.16872 -0.00133177 0)
(-1.16395 -0.00136206 0)
(-1.15906 -0.00139366 0)
(-1.15406 -0.00142636 0)
(-1.14894 -0.00146026 0)
(-1.1437 -0.00149522 0)
(-1.13832 -0.00153127 0)
(-1.13281 -0.00156834 0)
(-1.12715 -0.00160647 0)
(-1.12135 -0.00164562 0)
(-1.1154 -0.00168587 0)
(-1.1093 -0.00172708 0)
(-1.10303 -0.00176932 0)
(-1.0966 -0.00181257 0)
(-1.08999 -0.00185695 0)
(-1.08321 -0.00190241 0)
(-1.07625 -0.001949 0)
(-1.0691 -0.00199691 0)
(-1.06176 -0.0020462 0)
(-1.05422 -0.00209689 0)
(-1.04647 -0.00214916 0)
(-1.03851 -0.00220294 0)
(-1.03033 -0.00225837 0)
(-1.02192 -0.00231549 0)
(-1.01327 -0.0023743 0)
(-1.00438 -0.0024348 0)
(-0.995243 -0.00249688 0)
(-0.985847 -0.00256097 0)
(-0.97619 -0.00262517 0)
(-0.966267 -0.00269051 0)
(-0.956066 -0.00276086 0)
(-0.945569 -0.00283455 0)
(-0.934773 -0.002908 0)
(-0.923682 -0.00297873 0)
(-0.912305 -0.00304756 0)
(-0.900645 -0.00311642 0)
(-0.888701 -0.0031865 0)
(-0.876465 -0.0032585 0)
(-0.863929 -0.0033325 0)
(-0.851087 -0.00340846 0)
(-0.837927 -0.00348689 0)
(-0.82444 -0.0035683 0)
(-0.810614 -0.00365274 0)
(-0.796435 -0.00374058 0)
(-0.78189 -0.00383216 0)
(-0.766962 -0.00392815 0)
(-0.751631 -0.00402924 0)
(-0.735879 -0.00413592 0)
(-0.71968 -0.00424849 0)
(-0.703011 -0.0043676 0)
(-0.685845 -0.00449383 0)
(-0.668153 -0.00462787 0)
(-0.649902 -0.00477047 0)
(-0.631057 -0.00492257 0)
(-0.611577 -0.00508536 0)
(-0.591419 -0.00526029 0)
(-0.57053 -0.00544918 0)
(-0.548851 -0.00565439 0)
(-0.526311 -0.00587952 0)
(-0.50282 -0.00612901 0)
(-0.478273 -0.00640843 0)
(-0.452535 -0.00672503 0)
(-0.425443 -0.00708761 0)
(-0.396797 -0.00750462 0)
(-0.366372 -0.00798117 0)
(-0.333926 -0.0085197 0)
(-0.299221 -0.00911604 0)
(-0.262068 -0.0097508 0)
(-0.222408 -0.010375 0)
(-0.180493 -0.0108812 0)
(-0.137216 -0.0110497 0)
(-0.0947658 -0.0104415 0)
(-0.0573221 -0.00848506 0)
(-0.030321 -0.00512604 0)
(-0.0173782 -0.00137055 0)
(-0.020812 0.00307488 0)
(-0.0495374 0.011245 0)
(-0.129708 0.0291306 0)
(-0.329276 0.0710744 0)
(-0.948364 0.198836 0)
(-1.50262 -0.000178613 0)
(-1.50023 -0.00138736 0)
(-1.49887 -0.00207981 0)
(-1.49631 -0.00244186 0)
(-1.49347 -0.00265598 0)
(-1.49042 -0.0028001 0)
(-1.48726 -0.00290584 0)
(-1.48398 -0.00299235 0)
(-1.48063 -0.00306833 0)
(-1.47721 -0.00313875 0)
(-1.47372 -0.00320613 0)
(-1.47017 -0.0032723 0)
(-1.46655 -0.00333864 0)
(-1.46287 -0.00340583 0)
(-1.45912 -0.00347468 0)
(-1.4553 -0.00354524 0)
(-1.4514 -0.00361811 0)
(-1.44743 -0.0036935 0)
(-1.44338 -0.00377057 0)
(-1.43925 -0.00384932 0)
(-1.43504 -0.00393238 0)
(-1.43074 -0.00401862 0)
(-1.42634 -0.00410822 0)
(-1.42185 -0.00420068 0)
(-1.41726 -0.00429614 0)
(-1.41256 -0.00439436 0)
(-1.40776 -0.00449524 0)
(-1.40284 -0.00459867 0)
(-1.39782 -0.00470466 0)
(-1.39267 -0.0048131 0)
(-1.38741 -0.00492414 0)
(-1.38202 -0.00503746 0)
(-1.37651 -0.00515322 0)
(-1.37088 -0.00527136 0)
(-1.36511 -0.00539213 0)
(-1.35921 -0.00551553 0)
(-1.35317 -0.00564151 0)
(-1.34699 -0.00577042 0)
(-1.34068 -0.00590256 0)
(-1.33422 -0.006038 0)
(-1.32761 -0.00617726 0)
(-1.32085 -0.00632027 0)
(-1.31394 -0.0064674 0)
(-1.30687 -0.0066189 0)
(-1.29964 -0.00677491 0)
(-1.29224 -0.00693564 0)
(-1.28466 -0.00710093 0)
(-1.27689 -0.00727192 0)
(-1.26894 -0.0074449 0)
(-1.2608 -0.00761884 0)
(-1.25247 -0.00779801 0)
(-1.24399 -0.00798027 0)
(-1.23535 -0.00816229 0)
(-1.22655 -0.00834114 0)
(-1.21758 -0.0085174 0)
(-1.20845 -0.00869403 0)
(-1.19914 -0.00887334 0)
(-1.18965 -0.00905691 0)
(-1.18 -0.00924516 0)
(-1.17016 -0.00943843 0)
(-1.16014 -0.00963755 0)
(-1.14993 -0.00984337 0)
(-1.13953 -0.010056 0)
(-1.12894 -0.0102763 0)
(-1.11815 -0.0105051 0)
(-1.10716 -0.010744 0)
(-1.09596 -0.0109945 0)
(-1.08455 -0.0112582 0)
(-1.07292 -0.0115365 0)
(-1.06105 -0.011831 0)
(-1.04893 -0.0121436 0)
(-1.03654 -0.0124767 0)
(-1.02386 -0.0128325 0)
(-1.01087 -0.0132141 0)
(-0.997539 -0.0136253 0)
(-0.983826 -0.0140703 0)
(-0.969691 -0.0145545 0)
(-0.955085 -0.0150843 0)
(-0.939952 -0.0156694 0)
(-0.924224 -0.0163209 0)
(-0.907825 -0.0170525 0)
(-0.890668 -0.0178809 0)
(-0.872657 -0.0188263 0)
(-0.853685 -0.0199083 0)
(-0.833636 -0.0211391 0)
(-0.812393 -0.0225223 0)
(-0.789853 -0.0240436 0)
(-0.765959 -0.0256491 0)
(-0.740746 -0.0272117 0)
(-0.714418 -0.0284666 0)
(-0.687447 -0.0288992 0)
(-0.660643 -0.0275573 0)
(-0.635341 -0.0231381 0)
(-0.614484 -0.0148613 0)
(-0.606283 -0.00279133 0)
(-0.619341 0.0125859 0)
(-0.66664 0.0394106 0)
(-0.769895 0.0917125 0)
(-0.972034 0.204029 0)
(-1.45985 0.52597 0)
(-1.65188 -0.00064215 0)
(-1.64879 -0.00244468 0)
(-1.64842 -0.00342425 0)
(-1.64657 -0.00396397 0)
(-1.64448 -0.00429286 0)
(-1.64224 -0.00451637 0)
(-1.6399 -0.00468112 0)
(-1.63749 -0.00481678 0)
(-1.63502 -0.00493591 0)
(-1.6325 -0.00504661 0)
(-1.62993 -0.00515228 0)
(-1.62733 -0.00525644 0)
(-1.62467 -0.00536088 0)
(-1.62197 -0.00546715 0)
(-1.61922 -0.00557609 0)
(-1.61642 -0.0056882 0)
(-1.61355 -0.00580392 0)
(-1.61063 -0.00592392 0)
(-1.60762 -0.00604693 0)
(-1.60456 -0.00617179 0)
(-1.60142 -0.00630043 0)
(-1.59822 -0.00643204 0)
(-1.59495 -0.00656779 0)
(-1.59161 -0.00670739 0)
(-1.5882 -0.00685079 0)
(-1.58473 -0.00699778 0)
(-1.58117 -0.00714795 0)
(-1.57754 -0.00730123 0)
(-1.57384 -0.00745744 0)
(-1.57005 -0.00761638 0)
(-1.56619 -0.00777812 0)
(-1.56225 -0.00794229 0)
(-1.55823 -0.00810903 0)
(-1.55413 -0.00827813 0)
(-1.54996 -0.00844982 0)
(-1.5457 -0.00862425 0)
(-1.54137 -0.00880111 0)
(-1.53697 -0.00898054 0)
(-1.53249 -0.00916308 0)
(-1.52793 -0.00934873 0)
(-1.52331 -0.00953812 0)
(-1.51862 -0.00973122 0)
(-1.51387 -0.00992844 0)
(-1.50906 -0.0101301 0)
(-1.50419 -0.0103366 0)
(-1.49926 -0.010548 0)
(-1.49428 -0.0107644 0)
(-1.48926 -0.0109861 0)
(-1.48419 -0.0112107 0)
(-1.47909 -0.0114356 0)
(-1.47397 -0.0116589 0)
(-1.46881 -0.011879 0)
(-1.46363 -0.0120981 0)
(-1.45844 -0.0123172 0)
(-1.45322 -0.0125357 0)
(-1.44798 -0.0127542 0)
(-1.44272 -0.0129743 0)
(-1.43744 -0.0131975 0)
(-1.43216 -0.0134242 0)
(-1.42687 -0.0136552 0)
(-1.4216 -0.0138911 0)
(-1.41633 -0.0141322 0)
(-1.4111 -0.0143785 0)
(-1.40589 -0.0146301 0)
(-1.40074 -0.0148882 0)
(-1.39564 -0.0151541 0)
(-1.39062 -0.0154293 0)
(-1.3857 -0.0157159 0)
(-1.38088 -0.0160157 0)
(-1.37618 -0.016331 0)
(-1.37162 -0.0166647 0)
(-1.36721 -0.0170196 0)
(-1.36297 -0.0173996 0)
(-1.3589 -0.0178093 0)
(-1.35502 -0.0182544 0)
(-1.35133 -0.0187418 0)
(-1.34783 -0.0192797 0)
(-1.34452 -0.0198775 0)
(-1.34138 -0.020549 0)
(-1.3384 -0.0213102 0)
(-1.33555 -0.0221789 0)
(-1.3328 -0.0231761 0)
(-1.3301 -0.0243255 0)
(-1.32741 -0.02565 0)
(-1.32469 -0.0271646 0)
(-1.32188 -0.0288701 0)
(-1.31895 -0.0307393 0)
(-1.31591 -0.032691 0)
(-1.31282 -0.0345471 0)
(-1.30984 -0.0359609 0)
(-1.30725 -0.0363058 0)
(-1.30544 -0.0345269 0)
(-1.30495 -0.0291037 0)
(-1.30711 -0.0183349 0)
(-1.31522 -0.000436283 0)
(-1.33201 0.0249985 0)
(-1.37044 0.0685618 0)
(-1.44566 0.14882 0)
(-1.58865 0.31072 0)
(-1.85877 0.718538 0)
(-1.78834 -0.00121276 0)
(-1.78516 -0.00329577 0)
(-1.78596 -0.00447369 0)
(-1.78515 -0.00515161 0)
(-1.78419 -0.00557202 0)
(-1.78313 -0.00585766 0)
(-1.78199 -0.00606733 0)
(-1.78083 -0.00623969 0)
(-1.77963 -0.00638998 0)
(-1.77843 -0.0065291 0)
(-1.77721 -0.00666077 0)
(-1.77599 -0.00679048 0)
(-1.77474 -0.00691996 0)
(-1.77351 -0.00705193 0)
(-1.77224 -0.00718687 0)
(-1.77099 -0.00732597 0)
(-1.7697 -0.00746925 0)
(-1.76842 -0.00761707 0)
(-1.76711 -0.00776897 0)
(-1.7658 -0.00792426 0)
(-1.76447 -0.00808131 0)
(-1.76313 -0.00823954 0)
(-1.76176 -0.00840159 0)
(-1.76037 -0.00856753 0)
(-1.75897 -0.00873701 0)
(-1.75755 -0.00890987 0)
(-1.75612 -0.00908527 0)
(-1.75467 -0.00926326 0)
(-1.7532 -0.00944332 0)
(-1.75172 -0.00962518 0)
(-1.75022 -0.0098088 0)
(-1.74872 -0.00999365 0)
(-1.74721 -0.0101798 0)
(-1.7457 -0.0103668 0)
(-1.74419 -0.0105547 0)
(-1.74268 -0.0107435 0)
(-1.74117 -0.010933 0)
(-1.73968 -0.0111229 0)
(-1.73821 -0.0113136 0)
(-1.73676 -0.0115049 0)
(-1.73533 -0.011697 0)
(-1.73395 -0.0118899 0)
(-1.73262 -0.0120837 0)
(-1.73133 -0.0122783 0)
(-1.73012 -0.0124738 0)
(-1.72898 -0.0126701 0)
(-1.72794 -0.0128669 0)
(-1.72699 -0.0130632 0)
(-1.72616 -0.0132577 0)
(-1.72546 -0.013452 0)
(-1.72489 -0.0136444 0)
(-1.72442 -0.0138315 0)
(-1.72408 -0.0140152 0)
(-1.72385 -0.0141973 0)
(-1.72375 -0.0143771 0)
(-1.7238 -0.0145537 0)
(-1.72399 -0.0147275 0)
(-1.72435 -0.0148993 0)
(-1.72489 -0.015069 0)
(-1.72562 -0.0152372 0)
(-1.72656 -0.0154046 0)
(-1.72771 -0.0155716 0)
(-1.7291 -0.0157373 0)
(-1.73074 -0.0159013 0)
(-1.73264 -0.0160647 0)
(-1.73483 -0.0162283 0)
(-1.7373 -0.0163941 0)
(-1.74008 -0.016564 0)
(-1.74318 -0.0167406 0)
(-1.7466 -0.0169266 0)
(-1.75035 -0.0171257 0)
(-1.75443 -0.0173419 0)
(-1.75885 -0.0175805 0)
(-1.7636 -0.0178481 0)
(-1.76866 -0.0181523 0)
(-1.77403 -0.0185031 0)
(-1.77966 -0.0189119 0)
(-1.78555 -0.0193906 0)
(-1.79164 -0.0199569 0)
(-1.79789 -0.0206316 0)
(-1.80425 -0.0214353 0)
(-1.81066 -0.0223915 0)
(-1.81708 -0.0235256 0)
(-1.82343 -0.0248603 0)
(-1.82967 -0.0264087 0)
(-1.83577 -0.0281657 0)
(-1.84172 -0.0300912 0)
(-1.84753 -0.0320833 0)
(-1.85327 -0.0339328 0)
(-1.85905 -0.0352549 0)
(-1.86497 -0.0353921 0)
(-1.87111 -0.0333 0)
(-1.87746 -0.027414 0)
(-1.88436 -0.0157151 0)
(-1.89336 0.00370728 0)
(-1.90319 0.0345435 0)
(-1.92477 0.0877294 0)
(-1.96512 0.184562 0)
(-2.03355 0.374204 0)
(-2.13371 0.776908 0)
(-1.92862 -0.00171226 0)
(-1.92604 -0.00381827 0)
(-1.92812 -0.00507429 0)
(-1.92868 -0.00582936 0)
(-1.92928 -0.00630577 0)
(-1.9298 -0.00662669 0)
(-1.93036 -0.00686076 0)
(-1.93091 -0.00705054 0)
(-1.93149 -0.00721458 0)
(-1.93209 -0.00736361 0)
(-1.93273 -0.00750276 0)
(-1.93341 -0.00763792 0)
(-1.93412 -0.00777159 0)
(-1.93488 -0.00790654 0)
(-1.93568 -0.00804336 0)
(-1.93653 -0.00818309 0)
(-1.93743 -0.00832562 0)
(-1.93839 -0.0084703 0)
(-1.93939 -0.0086175 0)
(-1.94048 -0.00876924 0)
(-1.94161 -0.0089231 0)
(-1.9428 -0.0090771 0)
(-1.94403 -0.0092339 0)
(-1.94533 -0.00939343 0)
(-1.94667 -0.00955499 0)
(-1.94808 -0.00971825 0)
(-1.94954 -0.00988232 0)
(-1.95107 -0.0100472 0)
(-1.95266 -0.0102122 0)
(-1.95432 -0.0103769 0)
(-1.95605 -0.0105412 0)
(-1.95786 -0.0107045 0)
(-1.95975 -0.0108668 0)
(-1.96171 -0.0110273 0)
(-1.96376 -0.011186 0)
(-1.9659 -0.0113426 0)
(-1.96814 -0.0114968 0)
(-1.97047 -0.0116487 0)
(-1.97291 -0.0117979 0)
(-1.97545 -0.0119441 0)
(-1.97812 -0.0120873 0)
(-1.9809 -0.0122273 0)
(-1.9838 -0.0123639 0)
(-1.98684 -0.0124969 0)
(-1.99002 -0.0126261 0)
(-1.99333 -0.0127512 0)
(-1.9968 -0.0128719 0)
(-2.00042 -0.0129871 0)
(-2.00419 -0.013096 0)
(-2.00813 -0.0132024 0)
(-2.01222 -0.0133068 0)
(-2.01649 -0.0134058 0)
(-2.02094 -0.013499 0)
(-2.02556 -0.0135863 0)
(-2.03036 -0.0136676 0)
(-2.03535 -0.0137423 0)
(-2.04053 -0.0138104 0)
(-2.0459 -0.0138725 0)
(-2.05147 -0.0139286 0)
(-2.05723 -0.0139791 0)
(-2.06319 -0.0140256 0)
(-2.06933 -0.014069 0)
(-2.07567 -0.0141088 0)
(-2.08219 -0.0141441 0)
(-2.08889 -0.0141762 0)
(-2.09576 -0.0142068 0)
(-2.1028 -0.0142385 0)
(-2.11 -0.0142739 0)
(-2.11735 -0.0143162 0)
(-2.12484 -0.0143692 0)
(-2.13246 -0.0144373 0)
(-2.1402 -0.014526 0)
(-2.14804 -0.0146416 0)
(-2.15598 -0.014792 0)
(-2.16399 -0.0149866 0)
(-2.17207 -0.0152368 0)
(-2.1802 -0.0155572 0)
(-2.18837 -0.0159596 0)
(-2.19657 -0.0164635 0)
(-2.20477 -0.0170938 0)
(-2.21297 -0.017871 0)
(-2.22115 -0.0188188 0)
(-2.2293 -0.0199622 0)
(-2.23741 -0.0213222 0)
(-2.24548 -0.022907 0)
(-2.25352 -0.0247036 0)
(-2.26154 -0.0266631 0)
(-2.26957 -0.0286718 0)
(-2.27764 -0.0305097 0)
(-2.28574 -0.0317904 0)
(-2.29383 -0.031881 0)
(-2.30167 -0.0298188 0)
(-2.30876 -0.0241498 0)
(-2.3149 -0.0129076 0)
(-2.32031 0.00615422 0)
(-2.32196 0.0384917 0)
(-2.32574 0.0951788 0)
(-2.33103 0.19762 0)
(-2.32839 0.391205 0)
(-2.31026 0.742971 0)
(-2.07976 -0.00198567 0)
(-2.07837 -0.00389898 0)
(-2.08177 -0.00509042 0)
(-2.08399 -0.00583332 0)
(-2.08641 -0.00630834 0)
(-2.08887 -0.00662444 0)
(-2.09146 -0.00685266 0)
(-2.09408 -0.00703431 0)
(-2.0968 -0.00718963 0)
(-2.09958 -0.00732624 0)
(-2.10244 -0.00745072 0)
(-2.10537 -0.00756825 0)
(-2.10838 -0.00768251 0)
(-2.11147 -0.00779555 0)
(-2.11465 -0.00790844 0)
(-2.11791 -0.00802162 0)
(-2.12126 -0.00813504 0)
(-2.12471 -0.00824807 0)
(-2.12824 -0.00836116 0)
(-2.13188 -0.00847738 0)
(-2.1356 -0.00859468 0)
(-2.13943 -0.00871013 0)
(-2.14337 -0.00882682 0)
(-2.14741 -0.00894454 0)
(-2.15156 -0.0090622 0)
(-2.15582 -0.00917924 0)
(-2.16018 -0.00929516 0)
(-2.16466 -0.00940991 0)
(-2.16925 -0.00952288 0)
(-2.17395 -0.00963388 0)
(-2.17876 -0.00974261 0)
(-2.18368 -0.00984866 0)
(-2.18871 -0.00995188 0)
(-2.19385 -0.0100518 0)
(-2.1991 -0.0101484 0)
(-2.20445 -0.0102411 0)
(-2.20991 -0.0103296 0)
(-2.21548 -0.0104142 0)
(-2.22114 -0.0104946 0)
(-2.22691 -0.0105704 0)
(-2.23278 -0.0106417 0)
(-2.23875 -0.0107082 0)
(-2.24481 -0.0107699 0)
(-2.25097 -0.0108266 0)
(-2.25722 -0.0108783 0)
(-2.26355 -0.0109246 0)
(-2.26998 -0.0109657 0)
(-2.27649 -0.0110008 0)
(-2.28307 -0.0110301 0)
(-2.28974 -0.0110557 0)
(-2.29647 -0.0110779 0)
(-2.30328 -0.0110951 0)
(-2.31016 -0.0111068 0)
(-2.3171 -0.0111127 0)
(-2.3241 -0.0111129 0)
(-2.33114 -0.0111072 0)
(-2.33824 -0.0110957 0)
(-2.34538 -0.011079 0)
(-2.35255 -0.0110573 0)
(-2.35977 -0.0110316 0)
(-2.36701 -0.0110036 0)
(-2.37427 -0.0109754 0)
(-2.38156 -0.0109464 0)
(-2.38886 -0.0109149 0)
(-2.39618 -0.0108821 0)
(-2.40351 -0.0108504 0)
(-2.41086 -0.0108227 0)
(-2.41822 -0.0108018 0)
(-2.42559 -0.0107911 0)
(-2.43297 -0.0107944 0)
(-2.44037 -0.0108162 0)
(-2.44778 -0.0108618 0)
(-2.45521 -0.0109379 0)
(-2.46265 -0.0110522 0)
(-2.47012 -0.0112141 0)
(-2.47761 -0.011435 0)
(-2.48512 -0.0117302 0)
(-2.49265 -0.0121111 0)
(-2.50023 -0.0125945 0)
(-2.50785 -0.0132049 0)
(-2.51553 -0.0139639 0)
(-2.52328 -0.0148947 0)
(-2.53111 -0.0160212 0)
(-2.53902 -0.0173635 0)
(-2.54705 -0.0189269 0)
(-2.55519 -0.0206938 0)
(-2.56347 -0.0226134 0)
(-2.5719 -0.0245735 0)
(-2.58046 -0.0263631 0)
(-2.58908 -0.0276233 0)
(-2.59757 -0.0277868 0)
(-2.6055 -0.0260111 0)
(-2.61202 -0.0210933 0)
(-2.61651 -0.0112319 0)
(-2.61824 0.00621367 0)
(-2.61215 0.0369692 0)
(-2.59998 0.0913974 0)
(-2.57389 0.189512 0)
(-2.51188 0.36717 0)
(-2.41535 0.650907 0)
(-2.23675 -0.00194638 0)
(-2.23667 -0.00347613 0)
(-2.2412 -0.0044706 0)
(-2.24496 -0.00510983 0)
(-2.24896 -0.00552073 0)
(-2.25316 -0.00579002 0)
(-2.25749 -0.00598087 0)
(-2.26194 -0.00613087 0)
(-2.26647 -0.00625782 0)
(-2.2711 -0.00636434 0)
(-2.2758 -0.00645698 0)
(-2.2806 -0.00654063 0)
(-2.28548 -0.00661951 0)
(-2.29045 -0.0066953 0)
(-2.2955 -0.00676938 0)
(-2.30064 -0.00684196 0)
(-2.30585 -0.00691324 0)
(-2.31115 -0.00698308 0)
(-2.31651 -0.00705217 0)
(-2.32197 -0.00712261 0)
(-2.32747 -0.0071921 0)
(-2.33308 -0.00725714 0)
(-2.33875 -0.00732009 0)
(-2.34451 -0.00738138 0)
(-2.35034 -0.00744111 0)
(-2.35626 -0.00749915 0)
(-2.36226 -0.00755558 0)
(-2.36834 -0.00761038 0)
(-2.37449 -0.0076634 0)
(-2.38071 -0.00771453 0)
(-2.38699 -0.00776374 0)
(-2.39334 -0.00781081 0)
(-2.39974 -0.00785584 0)
(-2.40619 -0.00789836 0)
(-2.41268 -0.00793868 0)
(-2.41922 -0.00797613 0)
(-2.42579 -0.00801068 0)
(-2.43239 -0.00804246 0)
(-2.43901 -0.00807148 0)
(-2.44566 -0.00809746 0)
(-2.45231 -0.00812054 0)
(-2.45898 -0.00814042 0)
(-2.46564 -0.00815705 0)
(-2.47232 -0.00817033 0)
(-2.47899 -0.00818027 0)
(-2.48565 -0.00818639 0)
(-2.4923 -0.00818919 0)
(-2.49895 -0.008188 0)
(-2.50557 -0.00818305 0)
(-2.51218 -0.0081757 0)
(-2.51877 -0.00816613 0)
(-2.52534 -0.0081536 0)
(-2.53188 -0.00813777 0)
(-2.53841 -0.00811828 0)
(-2.54491 -0.00809502 0)
(-2.55138 -0.00806768 0)
(-2.55783 -0.00803625 0)
(-2.56425 -0.00800103 0)
(-2.57065 -0.00796211 0)
(-2.57703 -0.00791994 0)
(-2.5834 -0.00787601 0)
(-2.58975 -0.00783374 0)
(-2.59608 -0.00779247 0)
(-2.60241 -0.00774757 0)
(-2.60873 -0.00770026 0)
(-2.61506 -0.00765341 0)
(-2.62139 -0.00760977 0)
(-2.62775 -0.00757189 0)
(-2.63412 -0.00754285 0)
(-2.64053 -0.00752618 0)
(-2.64698 -0.00752607 0)
(-2.65347 -0.00754753 0)
(-2.66002 -0.00759704 0)
(-2.66663 -0.00768214 0)
(-2.67332 -0.00781224 0)
(-2.6801 -0.00799835 0)
(-2.68697 -0.00825368 0)
(-2.69394 -0.00859269 0)
(-2.70106 -0.00903225 0)
(-2.70829 -0.00959207 0)
(-2.71565 -0.0102941 0)
(-2.72317 -0.0111612 0)
(-2.73086 -0.0122156 0)
(-2.73874 -0.0134782 0)
(-2.74683 -0.0149541 0)
(-2.75516 -0.0166226 0)
(-2.76374 -0.0184366 0)
(-2.77255 -0.0202955 0)
(-2.78155 -0.0220119 0)
(-2.79059 -0.0232738 0)
(-2.79936 -0.0236059 0)
(-2.8073 -0.0223153 0)
(-2.81334 -0.0184949 0)
(-2.81626 -0.010632 0)
(-2.81506 0.00398819 0)
(-2.80217 0.0305992 0)
(-2.77618 0.0778707 0)
(-2.72351 0.162911 0)
(-2.61563 0.310861 0)
(-2.46957 0.523785 0)
(-2.3798 -0.00160849 0)
(-2.38056 -0.00264301 0)
(-2.38561 -0.00336377 0)
(-2.39013 -0.00383788 0)
(-2.39484 -0.00414184 0)
(-2.39989 -0.0043372 0)
(-2.40498 -0.00447235 0)
(-2.41027 -0.00458039 0)
(-2.41555 -0.00467348 0)
(-2.42097 -0.0047463 0)
(-2.42638 -0.00480427 0)
(-2.43191 -0.00485265 0)
(-2.43743 -0.00489571 0)
(-2.44306 -0.00493507 0)
(-2.44868 -0.00497224 0)
(-2.4544 -0.00500744 0)
(-2.46012 -0.00504123 0)
(-2.46592 -0.00507364 0)
(-2.47171 -0.00510553 0)
(-2.47758 -0.00513691 0)
(-2.48343 -0.00516732 0)
(-2.48938 -0.00519573 0)
(-2.4953 -0.00522172 0)
(-2.50127 -0.00524494 0)
(-2.5072 -0.00526686 0)
(-2.51317 -0.00528802 0)
(-2.5191 -0.00530905 0)
(-2.52506 -0.00532962 0)
(-2.53097 -0.00535032 0)
(-2.53689 -0.00537057 0)
(-2.54277 -0.0053909 0)
(-2.54865 -0.00541074 0)
(-2.55448 -0.00543082 0)
(-2.5603 -0.00545016 0)
(-2.56607 -0.00546941 0)
(-2.57183 -0.00548756 0)
(-2.57753 -0.005505 0)
(-2.58321 -0.00552156 0)
(-2.58884 -0.00553704 0)
(-2.59445 -0.00555129 0)
(-2.6 -0.00556434 0)
(-2.60553 -0.00557567 0)
(-2.61101 -0.00558502 0)
(-2.61647 -0.00559233 0)
(-2.62188 -0.00559739 0)
(-2.62728 -0.00559952 0)
(-2.63263 -0.00559922 0)
(-2.63797 -0.00559588 0)
(-2.64327 -0.00558946 0)
(-2.64856 -0.00558067 0)
(-2.65383 -0.00556961 0)
(-2.65909 -0.00555572 0)
(-2.66434 -0.00553857 0)
(-2.66959 -0.00551777 0)
(-2.67483 -0.00549307 0)
(-2.68009 -0.00546394 0)
(-2.68534 -0.00543004 0)
(-2.69061 -0.00539133 0)
(-2.69589 -0.00534772 0)
(-2.70121 -0.00529921 0)
(-2.70654 -0.00524623 0)
(-2.71192 -0.00519455 0)
(-2.71732 -0.00514538 0)
(-2.72277 -0.0050871 0)
(-2.72826 -0.00502281 0)
(-2.73383 -0.00495601 0)
(-2.73944 -0.00488927 0)
(-2.74514 -0.00482502 0)
(-2.75091 -0.00476589 0)
(-2.75678 -0.00471515 0)
(-2.76274 -0.00467673 0)
(-2.76881 -0.00465542 0)
(-2.775 -0.00465736 0)
(-2.78132 -0.00468981 0)
(-2.78777 -0.00476187 0)
(-2.79438 -0.00488427 0)
(-2.80115 -0.00506775 0)
(-2.80809 -0.00532966 0)
(-2.81523 -0.00568982 0)
(-2.82258 -0.00616472 0)
(-2.83013 -0.00677391 0)
(-2.83792 -0.00753838 0)
(-2.84596 -0.00847718 0)
(-2.85429 -0.00961414 0)
(-2.86291 -0.0109583 0)
(-2.87185 -0.0124842 0)
(-2.8811 -0.0141547 0)
(-2.89063 -0.0158892 0)
(-2.90034 -0.0175357 0)
(-2.91003 -0.0188424 0)
(-2.91931 -0.0194416 0)
(-2.92747 -0.0188208 0)
(-2.9334 -0.0163231 0)
(-2.93522 -0.0109346 0)
(-2.93173 -0.000212652 0)
(-2.91394 0.0200437 0)
(-2.87679 0.0562112 0)
(-2.80361 0.121202 0)
(-2.66339 0.230924 0)
(-2.48785 0.376637 0)
(-2.48853 -0.00101392 0)
(-2.48984 -0.00158685 0)
(-2.49472 -0.00201892 0)
(-2.49929 -0.00230508 0)
(-2.50395 -0.00248796 0)
(-2.50901 -0.00260464 0)
(-2.51398 -0.00268534 0)
(-2.51921 -0.00275861 0)
(-2.52429 -0.00283125 0)
(-2.52953 -0.00288402 0)
(-2.53462 -0.00292168 0)
(-2.53985 -0.00295049 0)
(-2.54494 -0.00297455 0)
(-2.55015 -0.00299543 0)
(-2.55521 -0.00301445 0)
(-2.56038 -0.00303194 0)
(-2.5654 -0.00304847 0)
(-2.57052 -0.00306418 0)
(-2.5755 -0.00307966 0)
(-2.58055 -0.00309341 0)
(-2.58547 -0.00310678 0)
(-2.59046 -0.00312315 0)
(-2.59532 -0.00314133 0)
(-2.60021 -0.00315907 0)
(-2.60496 -0.00317684 0)
(-2.60974 -0.00319512 0)
(-2.61439 -0.00321455 0)
(-2.61905 -0.0032345 0)
(-2.6236 -0.00325571 0)
(-2.62816 -0.00327725 0)
(-2.63261 -0.00329977 0)
(-2.63706 -0.00332239 0)
(-2.64142 -0.00334604 0)
(-2.64578 -0.00336946 0)
(-2.65006 -0.00339325 0)
(-2.65433 -0.00341626 0)
(-2.65854 -0.00343876 0)
(-2.66275 -0.00346051 0)
(-2.6669 -0.00348107 0)
(-2.67105 -0.00350004 0)
(-2.67515 -0.00351785 0)
(-2.67926 -0.00353344 0)
(-2.68332 -0.0035463 0)
(-2.6874 -0.00355655 0)
(-2.69145 -0.00356367 0)
(-2.69552 -0.00356723 0)
(-2.69957 -0.00356682 0)
(-2.70364 -0.00356237 0)
(-2.70771 -0.00355386 0)
(-2.7118 -0.00354132 0)
(-2.7159 -0.00352478 0)
(-2.72003 -0.00350384 0)
(-2.72418 -0.00347819 0)
(-2.72837 -0.00344732 0)
(-2.73258 -0.00341106 0)
(-2.73685 -0.00336881 0)
(-2.74115 -0.00332007 0)
(-2.74551 -0.00326451 0)
(-2.74992 -0.00320192 0)
(-2.75439 -0.00313244 0)
(-2.75892 -0.00305431 0)
(-2.76353 -0.00297522 0)
(-2.7682 -0.00290553 0)
(-2.77296 -0.00281735 0)
(-2.77779 -0.00271878 0)
(-2.78272 -0.00261504 0)
(-2.78775 -0.00250846 0)
(-2.7929 -0.00240109 0)
(-2.79815 -0.00229518 0)
(-2.80353 -0.00219365 0)
(-2.80904 -0.00210019 0)
(-2.81469 -0.00201926 0)
(-2.82049 -0.0019566 0)
(-2.82646 -0.00191914 0)
(-2.83261 -0.00191541 0)
(-2.83894 -0.00195562 0)
(-2.84548 -0.00205057 0)
(-2.85223 -0.00221701 0)
(-2.85922 -0.00247399 0)
(-2.86648 -0.0028378 0)
(-2.87401 -0.00332648 0)
(-2.88186 -0.00396039 0)
(-2.89004 -0.00475246 0)
(-2.89859 -0.00573009 0)
(-2.90752 -0.00691743 0)
(-2.91685 -0.00827493 0)
(-2.92658 -0.00978235 0)
(-2.93668 -0.0113875 0)
(-2.94701 -0.0129827 0)
(-2.95734 -0.0143845 0)
(-2.96724 -0.0153415 0)
(-2.97597 -0.015537 0)
(-2.98231 -0.0145552 0)
(-2.98429 -0.0118872 0)
(-2.9794 -0.00585535 0)
(-2.96074 0.00627406 0)
(-2.91702 0.0284363 0)
(-2.83138 0.0683634 0)
(-2.67215 0.134729 0)
(-2.48177 0.218417 0)
(-2.54094 -0.000227012 0)
(-2.54226 -0.000455865 0)
(-2.54663 -0.000610134 0)
(-2.55077 -0.000711226 0)
(-2.55495 -0.000779372 0)
(-2.55952 -0.000828129 0)
(-2.56395 -0.00086776 0)
(-2.56863 -0.000921777 0)
(-2.57307 -0.000997718 0)
(-2.57768 -0.00105091 0)
(-2.58206 -0.00108949 0)
(-2.58657 -0.00112123 0)
(-2.59087 -0.00114989 0)
(-2.59528 -0.0011765 0)
(-2.59948 -0.00120187 0)
(-2.60377 -0.00122641 0)
(-2.60786 -0.00125026 0)
(-2.61204 -0.00127365 0)
(-2.61602 -0.00129668 0)
(-2.62008 -0.00131846 0)
(-2.62396 -0.00134052 0)
(-2.6279 -0.00136649 -1.6063e-41)
(-2.63168 -0.00139557 0)
(-2.63552 -0.00142552 0)
(-2.63921 -0.00145568 0)
(-2.64295 -0.0014863 0)
(-2.64656 -0.00151739 0)
(-2.65022 -0.00154879 0)
(-2.65376 -0.00158033 0)
(-2.65735 -0.00161181 0)
(-2.66084 -0.00164311 0)
(-2.66436 -0.00167414 0)
(-2.66781 -0.00170478 0)
(-2.67128 -0.00173468 0)
(-2.6747 -0.00176363 0)
(-2.67813 -0.00179121 0)
(-2.68153 -0.00181716 0)
(-2.68494 -0.00184113 0)
(-2.68833 -0.00186299 0)
(-2.69173 -0.00188183 0)
(-2.69511 -0.00189855 0)
(-2.69851 -0.00191179 0)
(-2.7019 -0.00192095 0)
(-2.70531 -0.0019261 0)
(-2.70872 -0.00192672 0)
(-2.71215 -0.00192252 0)
(-2.7156 -0.00191243 0)
(-2.71907 -0.00189664 0)
(-2.72256 -0.00187537 0)
(-2.72608 -0.00184834 0)
(-2.72963 -0.00181546 0)
(-2.73322 -0.00177643 0)
(-2.73684 -0.00173108 0)
(-2.74051 -0.00167883 0)
(-2.74422 -0.00161963 0)
(-2.74799 -0.00155293 0)
(-2.7518 -0.00147801 0)
(-2.75567 -0.0013943 0)
(-2.7596 -0.00130146 0)
(-2.7636 -0.00119959 0)
(-2.76766 -0.0010874 0)
(-2.77182 -0.000962939 0)
(-2.77603 -0.000869955 0)
(-2.78032 -0.00074003 0)
(-2.7847 -0.000595869 0)
(-2.78919 -0.000445024 0)
(-2.79377 -0.000289014 0)
(-2.79847 -0.0001293 0)
(-2.80329 3.23578e-05 0)
(-2.80823 0.0001934 0)
(-2.81331 0.000350481 0)
(-2.81853 0.00049952 0)
(-2.8239 0.000635333 0)
(-2.82945 0.000751421 0)
(-2.83517 0.000839929 0)
(-2.84109 0.000891329 0)
(-2.84722 0.000894467 0)
(-2.85357 0.000834483 0)
(-2.86017 0.00069485 0)
(-2.86704 0.000459365 0)
(-2.87419 0.000110628 0)
(-2.88167 -0.00037077 0)
(-2.88947 -0.000999404 -1.17479e-41)
(-2.89769 -0.00178886 0)
(-2.90622 -0.00280279 0)
(-2.91515 -0.00396837 0)
(-2.9245 -0.00529465 0)
(-2.93421 -0.00676047 -7.94689e-41)
(-2.94413 -0.00831116 0)
(-2.95401 -0.00983003 0)
(-2.96342 -0.011185 0)
(-2.97161 -0.012252 0)
(-2.97738 -0.0128997 0)
(-2.97882 -0.0129932 -7.63673e-41)
(-2.97256 -0.0119891 0)
(-2.95311 -0.00890468 0)
(-2.90763 -0.00250023 -2.93901e-41)
(-2.81761 0.0094597 0)
(-2.65176 0.0295294 0)
(-2.4567 0.0548727 0)
(-2.51725 0.000610309 0)
(-2.51805 0.000702758 0)
(-2.52221 0.000829273 0)
(-2.5261 0.000913517 0)
(-2.53006 0.000958536 0)
(-2.53442 0.000974149 0)
(-2.53867 0.000967782 0)
(-2.54317 0.000928369 0)
(-2.5475 0.000856224 0)
(-2.55203 0.000799609 0)
(-2.55639 0.000753013 0)
(-2.56088 0.000710388 0)
(-2.56519 0.000669222 0)
(-2.56961 0.000628864 0)
(-2.57387 0.000589189 0)
(-2.57822 0.000549791 0)
(-2.58242 0.000510942 0)
(-2.58668 0.000472445 0)
(-2.59081 0.000434528 0)
(-2.595 0.000397249 0)
(-2.59906 0.000359498 0)
(-2.60317 0.000319322 3.75361e-42)
(-2.60715 0.000277405 0)
(-2.61119 0.000235011 0)
(-2.6151 0.000192891 0)
(-2.61907 0.000150909 0)
(-2.62292 0.000109486 0)
(-2.62681 6.83467e-05 0)
(-2.63061 2.84629e-05 0)
(-2.63444 -1.06036e-05 0)
(-2.63818 -4.81787e-05 0)
(-2.64195 -8.49303e-05 0)
(-2.64564 -0.000119817 0)
(-2.64936 -0.000153351 0)
(-2.65301 -0.000184603 0)
(-2.65668 -0.000213897 0)
(-2.6603 -0.000240488 0)
(-2.66393 -0.000263994 0)
(-2.66752 -0.000284364 0)
(-2.67112 -0.000301012 0)
(-2.67469 -0.000313803 0)
(-2.67826 -0.000322197 0)
(-2.68183 -0.000325648 0)
(-2.68539 -0.000323637 0)
(-2.68895 -0.000315764 0)
(-2.69251 -0.000301557 0)
(-2.69608 -0.000280007 0)
(-2.69966 -0.000251194 0)
(-2.70324 -0.000215188 0)
(-2.70685 -0.000171741 0)
(-2.71047 -0.000120705 0)
(-2.71412 -6.18699e-05 0)
(-2.71778 4.90829e-06 0)
(-2.72149 8.0133e-05 0)
(-2.72522 0.000163952 0)
(-2.729 0.000256795 0)
(-2.73281 0.00035949 0)
(-2.73667 0.000472978 0)
(-2.74057 0.000597805 0)
(-2.74453 0.000733683 0)
(-2.74854 0.000880701 0)
(-2.75261 0.00104297 0)
(-2.75674 0.00117753 0)
(-2.76096 0.00135115 0)
(-2.76526 0.00154161 0)
(-2.76963 0.00174164 0)
(-2.7741 0.00195 0)
(-2.77865 0.00216551 0)
(-2.78331 0.00238681 0)
(-2.78807 0.00261177 0)
(-2.79296 0.00283734 0)
(-2.79797 0.00305995 0)
(-2.80311 0.00327509 0)
(-2.80841 0.00347675 0)
(-2.81387 0.00365782 0)
(-2.8195 0.00380944 0)
(-2.82533 0.00392096 0)
(-2.83136 0.00397908 0)
(-2.83762 0.00396905 0)
(-2.84413 0.00387538 0)
(-2.8509 0.00368132 0)
(-2.85798 0.00336897 0)
(-2.86536 0.00291651 3.42834e-41)
(-2.87311 0.00231771 0)
(-2.88116 0.00151393 0)
(-2.88959 0.000558438 0)
(-2.89834 -0.000576598 0)
(-2.90737 -0.00189628 -2.22907e-41)
(-2.91642 -0.00339439 0)
(-2.92526 -0.00501741 0)
(-2.93354 -0.00675075 0)
(-2.94047 -0.00865543 0)
(-2.94489 -0.0108752 0)
(-2.94486 -0.0136735 -8.03653e-41)
(-2.9371 -0.0175257 0)
(-2.91566 -0.023261 0)
(-2.86957 -0.0326475 -3.8377e-40)
(-2.77945 -0.048744 0)
(-2.61508 -0.074694 0)
(-2.4217 -0.105479 0)
(-2.43321 0.00132291 0)
(-2.43304 0.00187836 0)
(-2.43717 0.00230588 0)
(-2.44082 0.00258898 0)
(-2.44461 0.00276032 0)
(-2.44879 0.00285397 0)
(-2.45296 0.00289397 0)
(-2.45737 0.0028866 0)
(-2.46174 0.00284814 0)
(-2.46629 0.0028089 0)
(-2.47079 0.00277233 0)
(-2.47542 0.00273615 0)
(-2.48 0.00270031 0)
(-2.48469 0.00266375 0)
(-2.48934 0.00262709 0)
(-2.49407 0.00258998 0)
(-2.49877 0.00255271 0)
(-2.50355 0.00251519 0)
(-2.50829 0.00247758 0)
(-2.51311 0.00243962 0)
(-2.51788 0.00240049 0)
(-2.52271 0.00235916 0)
(-2.52751 0.00231604 0)
(-2.53236 0.00227198 0)
(-2.53717 0.00222748 0)
(-2.54203 0.00218267 0)
(-2.54684 0.00213779 0)
(-2.55169 0.00209291 0)
(-2.55649 0.00204902 0)
(-2.56132 0.00200603 0)
(-2.5661 0.00196431 0)
(-2.57091 0.00192333 0)
(-2.57567 0.00188397 0)
(-2.58044 0.00184592 0)
(-2.58516 0.00181012 0)
(-2.5899 0.00177636 0)
(-2.59458 0.00174551 0)
(-2.59927 0.0017179 0)
(-2.6039 0.00169389 0)
(-2.60854 0.00167344 0)
(-2.61313 0.00165808 0)
(-2.61772 0.00164738 0)
(-2.62226 0.00164197 0)
(-2.6268 0.00164303 0)
(-2.6313 0.0016509 0)
(-2.63579 0.00166624 0)
(-2.64024 0.00168996 0)
(-2.64469 0.00172221 0)
(-2.64911 0.00176321 0)
(-2.65353 0.0018132 0)
(-2.65792 0.00187246 0)
(-2.66231 0.00194119 0)
(-2.66669 0.00201961 0)
(-2.67108 0.00210798 0)
(-2.67546 0.00220694 0)
(-2.67985 0.00231696 0)
(-2.68424 0.00243882 0)
(-2.68866 0.00257361 0)
(-2.69309 0.00272196 0)
(-2.69754 0.00288315 0)
(-2.70201 0.00305762 0)
(-2.70652 0.00324118 0)
(-2.71107 0.0034248 0)
(-2.71566 0.00363443 0)
(-2.72031 0.00386272 0)
(-2.72501 0.00410505 0)
(-2.72977 0.0043598 0)
(-2.73459 0.00462582 0)
(-2.73949 0.00490192 0)
(-2.74448 0.00518647 0)
(-2.74956 0.00547675 0)
(-2.75474 0.00576978 0)
(-2.76004 0.00606169 0)
(-2.76546 0.00634707 0)
(-2.77103 0.00661942 0)
(-2.77676 0.00687068 0)
(-2.78266 0.00709086 0)
(-2.78875 0.00726799 0)
(-2.79506 0.00738858 0)
(-2.80161 0.00743786 0)
(-2.80842 0.00739985 0)
(-2.81553 0.00725659 0)
(-2.82294 0.00698483 0)
(-2.83071 0.00656883 0)
(-2.83883 0.00598695 0)
(-2.84734 0.00523737 0)
(-2.85619 0.00428166 0)
(-2.86537 0.0030916 0)