/*--------------------------------*- C++ -*----------------------------------*\
| =========                 |                                                 |
| \\      /  F ield         | OpenFOAM: The Open Source CFD Toolbox           |
|  \\    /   O peration     | Version:  2.1.0                                 |
|   \\  /    A nd           | Web:      www.OpenFOAM.org                      |
|    \\/     M anipulation  |                                                 |
\*---------------------------------------------------------------------------*/
FoamFile
{
    version     2.0;
    format      ascii;
    class       volScalarField;
    location    "0.31";
    object      k;
}
// * * * * * * * * * * * * * * * * * * * * * * * * * * * * * * * * * * * * * //

dimensions      [0 2 -2 0 0 0 0];

internalField   nonuniform List<scalar> 
6400
(
0.0316728
0.0317853
0.0318205
0.0318647
0.0318848
0.0319179
0.0319327
0.0319589
0.0319706
0.0319907
0.0319997
0.0320142
0.0320206
0.0320288
0.0320314
0.0320322
0.0320316
0.0320288
0.0320233
0.0320152
0.0320051
0.0319922
0.0319776
0.0319599
0.0319406
0.0319179
0.031894
0.0318664
0.0318375
0.0318051
0.0317711
0.0317336
0.0316945
0.0316517
0.0316071
0.0315587
0.0315079
0.0314531
0.031395
0.0313325
0.0312657
0.0311937
0.0311165
0.0310328
0.0309428
0.030845
0.0307394
0.0306245
0.0305004
0.0303653
0.0302198
0.0300611
0.0298868
0.0296971
0.0294981
0.0292886
0.0290721
0.0288433
0.0286073
0.02836
0.0281063
0.0278418
0.0275688
0.027286
0.0269925
0.0266887
0.0263734
0.0260439
0.025701
0.0253413
0.0249671
0.0245735
0.0241636
0.0237335
0.0232858
0.0228185
0.0223345
0.0218335
0.021319
0.020792
0.0202551
0.0197066
0.0191385
0.0185202
0.0178732
0.0171898
0.0164542
0.0156457
0.0147281
0.0136561
0.0123543
0.0107173
0.0086462
0.00618289
0.00355497
0.00235617
0.00275069
0.00552868
0.008761
0.00991407
0.051921
0.0523545
0.0525502
0.0528971
0.0531158
0.0534491
0.0536859
0.0540047
0.054256
0.0545626
0.0548246
0.0551216
0.055391
0.0556803
0.055954
0.056237
0.0565125
0.0567907
0.0570664
0.0573412
0.0576174
0.0578912
0.0581686
0.0584434
0.058723
0.0589995
0.0592816
0.0595607
0.0598452
0.0601278
0.060415
0.0607014
0.0609922
0.0612828
0.061578
0.0618738
0.0621746
0.0624774
0.0627828
0.0630895
0.0633984
0.0637072
0.0640168
0.0643243
0.0646304
0.0649315
0.0652276
0.0655149
0.0657928
0.0660578
0.0663126
0.0665598
0.0667848
0.0669923
0.0671868
0.067375
0.0675512
0.0677135
0.0678606
0.0679875
0.068104
0.0682038
0.0682869
0.0683549
0.0684007
0.0684235
0.0684307
0.0684076
0.0683478
0.0682497
0.0681076
0.0679117
0.0676586
0.067336
0.0669398
0.0664578
0.0658851
0.0652115
0.0644328
0.0635421
0.0625385
0.0614214
0.0601988
0.0588487
0.0573108
0.0555639
0.0535609
0.0512599
0.0485912
0.0454938
0.0418972
0.0377601
0.0331266
0.0282889
0.0233562
0.0186448
0.0149632
0.0123934
0.0107822
0.00921693
0.058312
0.0588911
0.0591516
0.0596161
0.0599275
0.0603668
0.0607084
0.0611294
0.0614906
0.0618992
0.0622736
0.0626741
0.063057
0.0634521
0.0638401
0.064231
0.0646208
0.0650075
0.0653959
0.0657774
0.0661628
0.0665414
0.066926
0.0673046
0.0676896
0.068068
0.0684528
0.0688313
0.0692149
0.0695934
0.0699752
0.070353
0.0707329
0.071109
0.0714864
0.0718594
0.0722322
0.0725993
0.0729665
0.0733275
0.0736869
0.0740386
0.0743863
0.0747238
0.0750536
0.0753687
0.0756701
0.0759497
0.0762072
0.0764305
0.0766099
0.0767886
0.0769315
0.0770681
0.0771737
0.0772658
0.0773302
0.0773744
0.0773952
0.0774018
0.0773685
0.0773055
0.0772011
0.0770645
0.0768807
0.0766586
0.0763857
0.0760655
0.0756905
0.0752566
0.0747584
0.0741868
0.0735368
0.0727959
0.0719576
0.0710082
0.06994
0.0687393
0.0673986
0.0659065
0.0642572
0.062443
0.0604604
0.0583036
0.055994
0.0535264
0.0509079
0.0481269
0.0451745
0.0420237
0.0386454
0.0349946
0.0310585
0.0268202
0.0224017
0.0180547
0.0144081
0.011449
0.00927693
0.00709978
0.0630895
0.0636983
0.063972
0.0644755
0.0648204
0.0652955
0.0656771
0.0661315
0.0665338
0.0669746
0.067389
0.0678209
0.068242
0.0686679
0.0690919
0.0695129
0.0699368
0.0703527
0.070773
0.0711824
0.0715933
0.0719861
0.072382
0.0727681
0.0731579
0.0735358
0.0739163
0.0742846
0.0746527
0.0750091
0.0753621
0.0757035
0.0760388
0.0763614
0.0766759
0.0769771
0.0772675
0.0775403
0.0778028
0.0780438
0.0782722
0.0784764
0.0786642
0.0788251
0.0789656
0.0790758
0.0791611
0.0792066
0.0792261
0.0792279
0.0791737
0.0791041
0.0789806
0.078831
0.078628
0.0783874
0.0780904
0.0777443
0.0773358
0.0768668
0.0763323
0.0757303
0.0750542
0.0743037
0.0734706
0.0725566
0.0715542
0.0704655
0.0692851
0.0680154
0.0666538
0.0652032
0.0636636
0.0620382
0.0603288
0.0585389
0.0566716
0.0547302
0.0527186
0.0506391
0.0484958
0.0462899
0.0440253
0.0417032
0.0393277
0.0368991
0.034425
0.0319245
0.0293934
0.0268468
0.0242875
0.021727
0.0191732
0.0166417
0.0141673
0.0118309
0.00967532
0.00784751
0.00658155
0.00598778
0.0645382
0.0650715
0.0653065
0.0657554
0.0660501
0.0664708
0.0667938
0.0671884
0.0675238
0.0678964
0.0682347
0.0685885
0.0689231
0.0692596
0.0695858
0.0699048
0.0702182
0.0705195
0.0708166
0.0710973
0.0713746
0.0716344
0.0718912
0.0721301
0.0723644
0.072579
0.0727865
0.0729727
0.0731482
0.0733013
0.0734396
0.0735542
0.0736499
0.0737197
0.0737606
0.0737775
0.0737793
0.073731
0.0736663
0.073553
0.0734154
0.0732287
0.0730102
0.0727412
0.072434
0.072074
0.0716709
0.0712126
0.0707083
0.0701468
0.069533
0.0688645
0.0681387
0.0673577
0.0665214
0.0656297
0.0646807
0.0636763
0.0626145
0.0614979
0.0603256
0.0591001
0.0578214
0.0564929
0.0551148
0.053691
0.0522222
0.0507128
0.0491638
0.0475799
0.0459626
0.0443166
0.0426442
0.0409526
0.0392461
0.0375287
0.0358043
0.0340776
0.0323532
0.0306359
0.0289315
0.0272454
0.0255845
0.0239542
0.0223612
0.0208108
0.0193073
0.0178395
0.0164223
0.0150463
0.0137214
0.012441
0.0112146
0.0100417
0.00893853
0.00792388
0.00701999
0.00639386
0.00612287
0.00612071
0.0609881
0.0612525
0.0613691
0.0616024
0.0617506
0.0619609
0.0621133
0.0622941
0.0624369
0.0625868
0.062712
0.0628303
0.0629319
0.0630176
0.0630909
0.0631423
0.0631781
0.0631935
0.0631978
0.0631748
0.0631351
0.0630676
0.0629836
0.0628688
0.0627367
0.0625778
0.0624003
0.0621929
0.0619641
0.0617037
0.0614183
0.0611001
0.0607539
0.0603735
0.0599629
0.059517
0.0590394
0.0585227
0.0579762
0.057388
0.0567703
0.0561103
0.0554203
0.0546892
0.0539277
0.0531269
0.0522963
0.0514284
0.0505324
0.0496013
0.0486442
0.0476554
0.0466426
0.0456024
0.0445403
0.043455
0.0423508
0.0412285
0.0400947
0.0389481
0.0377939
0.0366326
0.0354682
0.0343022
0.0331379
0.0319774
0.0308234
0.0296783
0.028545
0.0274257
0.0263234
0.0252399
0.0241781
0.0231375
0.0221192
0.0211259
0.020159
0.0192212
0.018314
0.0174384
0.0165913
0.0157743
0.0149866
0.014228
0.0134978
0.0127945
0.0121172
0.0114631
0.0108311
0.0102172
0.00962032
0.00903669
0.00846676
0.00791141
0.00738106
0.00689108
0.00653281
0.00637722
0.00635163
0.00656937
0.0512626
0.0511047
0.0510384
0.0509219
0.0508435
0.0507137
0.0506082
0.0504529
0.0503141
0.0501282
0.0499534
0.0497342
0.0495223
0.0492687
0.0490195
0.0487311
0.0484445
0.0481223
0.0477993
0.0474434
0.0470828
0.0466881
0.0462861
0.0458521
0.0454089
0.0449358
0.0444517
0.0439395
0.0434148
0.0428641
0.0422998
0.0417117
0.0411097
0.0404859
0.0398489
0.0391918
0.0385231
0.0378358
0.0371395
0.0364274
0.0357102
0.0349795
0.0342462
0.0335028
0.0327591
0.032009
0.0312613
0.0305107
0.0297654
0.0290204
0.0282841
0.027551
0.0268295
0.0261141
0.0254093
0.0247139
0.0240319
0.023362
0.0227045
0.0220608
0.0214315
0.0208168
0.0202178
0.0196339
0.0190658
0.0185139
0.0179778
0.0174554
0.0169479
0.016453
0.0159718
0.0155015
0.0150435
0.0145942
0.0141553
0.013723
0.0132986
0.012878
0.0124615
0.0120533
0.0116586
0.0112739
0.0109009
0.0105365
0.0101821
0.00983475
0.00949617
0.00916394
0.00884058
0.00852492
0.00822163
0.00793211
0.0076641
0.00742319
0.00722663
0.00710239
0.0070504
0.00709693
0.00743561
0.00762639
0.0375594
0.03707
0.0368633
0.0364726
0.0362313
0.0358409
0.0355624
0.0351628
0.0348486
0.0344351
0.0340876
0.0336582
0.03328
0.0328335
0.0324271
0.0319631
0.0315303
0.0310487
0.0305909
0.0300913
0.0296137
0.0291085
0.0286223
0.0281147
0.0276234
0.0271103
0.0266123
0.0260982
0.0255991
0.0250885
0.0245933
0.0240903
0.0236038
0.0231123
0.0226387
0.0221624
0.0217054
0.0212474
0.0208106
0.0203726
0.0199563
0.0195401
0.0191461
0.0187538
0.0183834
0.0180167
0.0176712
0.0173307
0.0170107
0.0166966
0.0164014
0.0161143
0.015845
0.0155846
0.0153406
0.0151062
0.014887
0.0146771
0.014481
0.014294
0.0141195
0.0139537
0.0137995
0.0136535
0.0135183
0.0133891
0.0132702
0.0131585
0.0130566
0.0129601
0.0128726
0.012789
0.0127133
0.01264
0.0125733
0.0125075
0.0124469
0.0123854
0.0123272
0.0122664
0.012205
0.0121372
0.0120649
0.0119822
0.0118905
0.0117839
0.0116636
0.0115245
0.0113686
0.011193
0.0110031
0.010801
0.0105984
0.0104057
0.0102643
0.0102015
0.0101919
0.0104269
0.010782
0.010955
0.0241388
0.0235199
0.0232641
0.0227809
0.0225086
0.0220418
0.0217545
0.0213012
0.0210022
0.0205619
0.0202551
0.0198281
0.0195172
0.0191043
0.0187929
0.0183948
0.0180861
0.0177043
0.0174015
0.0170373
0.016745
0.0164043
0.0161272
0.0158103
0.0155497
0.0152571
0.0150149
0.014747
0.0145247
0.0142818
0.0140803
0.0138623
0.0136823
0.0134892
0.0133306
0.0131624
0.013025
0.0128811
0.0127652
0.0126445
0.01255
0.0124519
0.0123786
0.0123028
0.0122502
0.0121965
0.0121643
0.0121351
0.0121217
0.0121163
0.0121172
0.0121362
0.012159
0.0121971
0.0122411
0.0122986
0.0123635
0.0124411
0.0125276
0.0126261
0.0127345
0.0128544
0.0129847
0.0131264
0.0132793
0.0134433
0.0136193
0.0138057
0.0140048
0.0142147
0.0144379
0.0146722
0.0149203
0.01518
0.015454
0.0157399
0.0160404
0.0163529
0.0166798
0.0170181
0.0173698
0.0177314
0.0181037
0.0184826
0.0188676
0.019253
0.0196364
0.0200111
0.0203727
0.0207139
0.0210309
0.0213191
0.0215795
0.0218163
0.0220439
0.0223086
0.0227431
0.0233322
0.024141
0.0250106
0.0172838
0.0167316
0.0165086
0.0160847
0.0158648
0.0154625
0.0152476
0.0148689
0.0146613
0.0143075
0.0141093
0.0137815
0.0135945
0.0132935
0.0131193
0.0128456
0.0126856
0.0124393
0.0122948
0.0120759
0.0119478
0.011756
0.0116446
0.011479
0.0113846
0.0112443
0.0111669
0.0110508
0.0109905
0.0108988
0.0108536
0.010787
0.010755
0.0107136
0.0106944
0.0106789
0.0106736
0.0106729
0.0106889
0.0107061
0.0107405
0.010775
0.0108272
0.0108797
0.0109489
0.0110199
0.0111061
0.0111956
0.0112989
0.0114072
0.0115281
0.0116557
0.0117946
0.0119417
0.0120995
0.0122665
0.0124442
0.0126319
0.0128306
0.0130399
0.0132609
0.0134933
0.0137384
0.0139958
0.0142671
0.0145516
0.0148513
0.0151655
0.0154964
0.0158433
0.0162088
0.0165921
0.0169962
0.0174206
0.0178682
0.018339
0.0188362
0.01936
0.019914
0.0204991
0.0211191
0.0217756
0.0224729
0.0232137
0.0240028
0.0248446
0.0257455
0.0267111
0.02775
0.0288705
0.0300836
0.0314013
0.032839
0.0344133
0.0361434
0.0380407
0.0400837
0.0422774
0.0437982
0.0444192
0.0210909
0.0205548
0.0203335
0.0199079
0.0196748
0.0192617
0.019019
0.0186189
0.0183697
0.0179837
0.0177311
0.0173604
0.0171074
0.0167532
0.0165031
0.0161673
0.0159234
0.0156076
0.0153731
0.0150785
0.0148564
0.014584
0.0143766
0.0141273
0.0139365
0.013711
0.0135383
0.013337
0.0131837
0.0130069
0.0128734
0.0127212
0.0126081
0.0124804
0.0123877
0.0122844
0.012212
0.0121328
0.0120814
0.0120256
0.0119954
0.0119666
0.0119541
0.0119495
0.0119531
0.0119734
0.0119997
0.0120404
0.012089
0.0121503
0.0122207
0.0123029
0.0123952
0.0124986
0.012613
0.0127381
0.0128746
0.0130217
0.0131807
0.0133504
0.0135325
0.0137254
0.0139314
0.0141494
0.0143807
0.0146252
0.0148837
0.0151564
0.015444
0.015747
0.0160659
0.0164018
0.0167552
0.0171274
0.017519
0.0179316
0.018366
0.0188241
0.019307
0.0198171
0.0203556
0.0209254
0.0215285
0.0221682
0.0228469
0.0235687
0.0243367
0.0251551
0.0260283
0.0269621
0.0279682
0.0290521
0.0302288
0.0315116
0.032925
0.0344953
0.0362627
0.0381974
0.0397666
0.0404582
0.0322562
0.0317802
0.031577
0.0311857
0.0309478
0.0305547
0.0302818
0.0298808
0.0295756
0.0291645
0.0288306
0.0284097
0.0280515
0.0276177
0.0272326
0.0267871
0.026381
0.0259259
0.0255047
0.0250434
0.0246126
0.024149
0.023714
0.0232523
0.0228179
0.0223626
0.0219336
0.0214889
0.0210699
0.0206398
0.0202348
0.0198229
0.0194357
0.0190451
0.0186788
0.0183117
0.0179684
0.0176262
0.0173076
0.0169922
0.0167002
0.016413
0.0161483
0.0158903
0.0156546
0.0154272
0.0152207
0.0150239
0.0148467
0.0146799
0.0145317
0.0143942
0.0142744
0.0141654
0.0140738
0.013993
0.013928
0.0138735
0.0138337
0.0138055
0.0137919
0.0137869
0.01379
0.0138123
0.013839
0.0138828
0.0139317
0.0139958
0.0140651
0.0141479
0.0142346
0.0143326
0.0144339
0.0145444
0.0146571
0.0147769
0.0148976
0.015023
0.0151477
0.0152746
0.0153991
0.0155233
0.0156431
0.0157603
0.0158715
0.015978
0.0160777
0.0161715
0.0162588
0.0163412
0.016413
0.0164802
0.016549
0.0166327
0.0167538
0.0169519
0.0172834
0.0178231
0.018565
0.019616
0.0453257
0.0450832
0.0449794
0.0447793
0.0446454
0.0444308
0.0442598
0.0440196
0.0438094
0.0435383
0.0432859
0.0429803
0.0426864
0.0423442
0.0420089
0.0416286
0.0412516
0.0408328
0.0404143
0.0399572
0.0394982
0.0390037
0.0385058
0.0379757
0.0374413
0.0368783
0.0363104
0.0357179
0.0351206
0.0345029
0.0338811
0.033243
0.0326023
0.0319494
0.0312958
0.0306339
0.0299746
0.0293107
0.0286467
0.0279809
0.0273194
0.0266601
0.0260091
0.0253637
0.0247303
0.0241056
0.0234958
0.0228975
0.0223166
0.0217491
0.0211991
0.0206636
0.0201467
0.0196443
0.0191608
0.018691
0.0182404
0.0178031
0.0173839
0.0169792
0.0165928
0.0162196
0.0158637
0.0155196
0.0151898
0.0148711
0.0145642
0.0142671
0.0139777
0.0136976
0.0134277
0.0131658
0.0129115
0.0126645
0.0124226
0.0121871
0.0119549
0.0117281
0.0115034
0.0112831
0.0110644
0.0108497
0.0106369
0.0104283
0.0102225
0.0100222
0.0098254
0.00963374
0.00944796
0.00927062
0.00910486
0.00895413
0.00881829
0.00871126
0.00865846
0.00864245
0.00876042
0.00902005
0.0094281
0.00960847
0.0566291
0.0567212
0.0567622
0.0568469
0.0568951
0.0569585
0.0569936
0.0570201
0.0570304
0.0570311
0.0570059
0.0569617
0.0568998
0.0568144
0.0567169
0.0565892
0.0564501
0.0562771
0.0560915
0.0558694
0.055633
0.0553585
0.0550673
0.0547374
0.0543881
0.0540018
0.0535926
0.053145
0.0526743
0.0521659
0.0516321
0.0510624
0.0504656
0.0498348
0.0491763
0.0484855
0.0477675
0.0470197
0.0462456
0.0454438
0.0446175
0.0437658
0.0428921
0.0419963
0.0410815
0.0401484
0.0392006
0.0382382
0.037266
0.0362836
0.0352988
0.0343086
0.0333217
0.0323344
0.031356
0.0303824
0.0294229
0.0284736
0.0275432
0.0266272
0.0257334
0.0248556
0.0239973
0.023159
0.0223431
0.0215501
0.0207812
0.0200371
0.0193193
0.0186263
0.0179556
0.0173087
0.016683
0.0160791
0.0154946
0.0149293
0.0143809
0.0138487
0.0133307
0.0128257
0.0123321
0.0118481
0.0113723
0.0109028
0.0104386
0.00999838
0.00956559
0.00916372
0.00876989
0.00840719
0.00805493
0.00773598
0.00743218
0.00716994
0.00692293
0.00676363
0.00669218
0.00669022
0.00702124
0.00721102
0.0628012
0.0631905
0.0633624
0.063699
0.0639194
0.0642343
0.0644738
0.0647644
0.0650084
0.0652757
0.065513
0.0657575
0.065983
0.0662042
0.0664126
0.0666084
0.0667942
0.0669614
0.0671193
0.0672541
0.0673788
0.067477
0.0675629
0.0676199
0.0676527
0.0676645
0.0676641
0.0676171
0.067556
0.0674557
0.0673314
0.06717
0.0669779
0.0667479
0.0664818
0.0661755
0.0658287
0.0654388
0.0650112
0.0645401
0.0640275
0.0634695
0.0628646
0.0622134
0.0615141
0.0607663
0.0599707
0.0591254
0.0582341
0.057293
0.0563089
0.0552762
0.0542046
0.0530872
0.0519351
0.050742
0.0495185
0.0482601
0.0469761
0.0456643
0.0443321
0.0429835
0.0416219
0.0402523
0.0388765
0.0375006
0.0361256
0.0347578
0.033398
0.0320518
0.0307202
0.0294083
0.0281174
0.0268515
0.0256126
0.024403
0.0232246
0.0220748
0.0209543
0.0198648
0.018807
0.0177822
0.0167909
0.0158341
0.0149121
0.0140239
0.0131679
0.0123395
0.0115406
0.0107688
0.0100254
0.00930919
0.0086224
0.00797337
0.00736661
0.00681673
0.00639848
0.00620842
0.00616907
0.00635487
0.0638778
0.0644135
0.0646515
0.0651065
0.0654114
0.0658441
0.0661851
0.0666
0.0669612
0.067363
0.067735
0.0681273
0.0685043
0.0688886
0.0692659
0.0696425
0.0700163
0.0703839
0.0707508
0.0711077
0.071464
0.0718077
0.0721498
0.0724774
0.0728013
0.073111
0.0734136
0.0736981
0.0739759
0.0742346
0.0744848
0.0747158
0.0749341
0.0751318
0.0753126
0.0754707
0.0756077
0.0757186
0.0758058
0.0758591
0.0758831
0.0758884
0.0758486
0.0757732
0.0756583
0.0754989
0.0752966
0.0750426
0.074741
0.0743809
0.0739685
0.0734911
0.0729566
0.072353
0.0716888
0.0709526
0.0701497
0.069278
0.0683342
0.0673235
0.0662385
0.0650889
0.0638696
0.0625888
0.0612404
0.0598347
0.0583667
0.0568459
0.0552695
0.053646
0.0519745
0.0502624
0.0485102
0.0467236
0.0449049
0.0430581
0.0411871
0.0392991
0.0374
0.0354906
0.0335772
0.0316608
0.0297481
0.0278415
0.0259484
0.0240733
0.0222253
0.0204095
0.0186387
0.0169008
0.0152224
0.0136006
0.0120637
0.0106156
0.00930062
0.00809272
0.00708682
0.00635255
0.00602826
0.00600014
0.0611318
0.0616777
0.0619249
0.0623789
0.0626943
0.0631275
0.0634804
0.0639009
0.0642775
0.0646917
0.0650845
0.0654969
0.0659011
0.066314
0.0667265
0.0671415
0.0675601
0.0679773
0.0684001
0.0688191
0.0692444
0.0696643
0.0700899
0.0705091
0.0709326
0.0713483
0.071765
0.0721714
0.0725741
0.0729609
0.0733475
0.0737275
0.0741069
0.0744791
0.0748497
0.0752133
0.0755752
0.0759318
0.076281
0.0766205
0.0769521
0.0772726
0.0775795
0.077874
0.0781532
0.0784154
0.0786598
0.0788822
0.0790843
0.0792585
0.0794092
0.0795273
0.0796142
0.0796567
0.0796723
0.0796577
0.0795802
0.0794784
0.0793076
0.0791
0.0788178
0.0784842
0.0780694
0.0775867
0.077014
0.0763568
0.0756063
0.0747634
0.0738167
0.0727687
0.0716102
0.0703431
0.0689646
0.0674758
0.0658782
0.0641734
0.0623664
0.0604581
0.0584553
0.0563577
0.0541721
0.0518961
0.0495343
0.0470817
0.0445404
0.0419041
0.039177
0.0363522
0.0334426
0.0304622
0.0274253
0.0243436
0.0212555
0.0182006
0.0153048
0.0125429
0.010151
0.0080921
0.00662767
0.00592448
0.0558092
0.0562799
0.0564941
0.056879
0.0571409
0.0575108
0.0578018
0.0581619
0.0584737
0.0588289
0.0591565
0.0595104
0.0598507
0.060206
0.0605565
0.0609149
0.061274
0.0616363
0.0620024
0.0623688
0.0627405
0.0631107
0.0634865
0.0638596
0.0642378
0.0646126
0.0649916
0.0653669
0.0657455
0.0661216
0.0665037
0.0668852
0.0672726
0.0676598
0.0680522
0.0684439
0.0688391
0.0692316
0.069628
0.0700245
0.0704233
0.0708221
0.0712217
0.0716213
0.0720201
0.0724175
0.072813
0.0732044
0.0735947
0.0739788
0.0743579
0.0747245
0.0750792
0.0754132
0.0757244
0.0759966
0.0762168
0.0764426
0.0766223
0.0767929
0.0769189
0.0770265
0.0770932
0.0771325
0.0771481
0.0771495
0.0770792
0.0769781
0.0768102
0.0765938
0.0763085
0.0759594
0.0755278
0.0750147
0.0744009
0.0736804
0.0728335
0.0718482
0.0707051
0.0693886
0.0678824
0.066171
0.0642438
0.0620889
0.0597022
0.0570774
0.0542176
0.051119
0.0477835
0.0442252
0.0404039
0.0363049
0.03192
0.0272757
0.0225428
0.0182374
0.0144571
0.0116392
0.0094351
0.00728251
0.0492103
0.0495317
0.0496776
0.0499423
0.050105
0.0503656
0.0505447
0.0507984
0.0509935
0.0512415
0.0514505
0.0516953
0.0519159
0.0521595
0.0523897
0.0526338
0.0528718
0.0531175
0.0533617
0.0536095
0.0538584
0.0541082
0.0543605
0.0546122
0.0548672
0.0551207
0.0553779
0.0556338
0.0558939
0.0561541
0.0564195
0.0566856
0.0569571
0.0572297
0.0575074
0.0577862
0.05807
0.0583555
0.0586469
0.0589405
0.0592396
0.059542
0.0598497
0.0601617
0.0604792
0.060802
0.0611311
0.0614664
0.0618038
0.0621434
0.0624832
0.0628212
0.0631563
0.0634856
0.0638082
0.0641223
0.0644332
0.0647513
0.0650595
0.0653727
0.0656689
0.0659573
0.0662125
0.0664301
0.0666207
0.0667892
0.0669364
0.0670654
0.0671636
0.0672289
0.0672574
0.0672628
0.067197
0.0670817
0.0668857
0.0666118
0.0662346
0.065747
0.065128
0.064364
0.063438
0.0623337
0.0610379
0.0595353
0.0578175
0.0558769
0.0536826
0.0512173
0.0484068
0.0450998
0.0413139
0.0369146
0.0321921
0.0273023
0.0224582
0.0180457
0.0145984
0.0122448
0.0107385
0.00922695
0.0302445
0.0302972
0.0303071
0.0303107
0.0303039
0.0303009
0.0302865
0.0302801
0.0302626
0.0302542
0.0302345
0.0302243
0.0302031
0.0301902
0.0301679
0.0301518
0.0301285
0.0301091
0.0300845
0.0300618
0.0300353
0.0300094
0.0299809
0.0299518
0.0299211
0.0298891
0.0298562
0.0298217
0.0297868
0.0297501
0.0297131
0.0296741
0.0296347
0.029593
0.0295509
0.0295064
0.0294614
0.0294141
0.0293662
0.029316
0.0292648
0.0292115
0.0291569
0.0291
0.0290415
0.0289805
0.028917
0.0288501
0.028779
0.0287035
0.0286228
0.0285366
0.0284444
0.0283461
0.0282418
0.0281318
0.0280171
0.0278963
0.0277657
0.0276262
0.0274704
0.0272987
0.0271016
0.0268785
0.0266393
0.0263891
0.0261262
0.0258519
0.0255627
0.0252601
0.0249426
0.0246094
0.0242511
0.0238759
0.0234716
0.023044
0.0225845
0.022095
0.0215712
0.0210123
0.0204171
0.0197842
0.0191137
0.0184042
0.0176556
0.0168626
0.0160075
0.0150596
0.0139407
0.0126347
0.0110677
0.00913934
0.00696139
0.00488076
0.00301645
0.00232153
0.00260392
0.00527531
0.00862173
0.00984697
0.00946951
0.00467397
0.00402918
0.00390009
0.00387165
0.00389522
0.0038163
0.00377918
0.00376446
0.00376154
0.00378137
0.00384923
0.00412284
0.00469515
0.00545374
0.00654048
0.00691759
0.00690417
0.00578582
0.00342023
0.00777305
0.00467917
0.00428815
0.00418825
0.00416387
0.00404473
0.00396544
0.00393048
0.0039183
0.00391882
0.00396777
0.00415281
0.00454224
0.00511762
0.00619325
0.00685842
0.00699954
0.00676687
0.00521494
0.0028006
0.00621286
0.00478293
0.00460268
0.00453879
0.00436801
0.00426747
0.00419814
0.00417016
0.00416142
0.0041706
0.00429453
0.00455336
0.00502831
0.00595724
0.00678241
0.00704486
0.00704119
0.00649068
0.00459705
0.00216886
0.00579386
0.00511448
0.00503328
0.00479429
0.00463711
0.00452035
0.00446099
0.00443557
0.00443213
0.00452804
0.00474953
0.00517304
0.00602157
0.00684524
0.00718199
0.00724478
0.0069855
0.00605287
0.00381839
0.00155847
0.0059175
0.00548179
0.00534364
0.00505335
0.0049382
0.00486306
0.00484384
0.00487432
0.00498955
0.00526297
0.00565558
0.00646722
0.00715902
0.00747401
0.00756383
0.00740228
0.00679693
0.00543654
0.00298214
0.00102205
0.00628506
0.00593457
0.0058004
0.00561379
0.00558054
0.00558392
0.00570793
0.00593098
0.00634041
0.00684588
0.00747388
0.00796421
0.0081796
0.00822614
0.00796099
0.00733992
0.00639786
0.00464097
0.00192852
0.000554873
0.00721438
0.00708615
0.00706893
0.00709
0.00736076
0.00767297
0.00821283
0.00889343
0.00956384
0.0097726
0.00984282
0.00973248
0.00940258
0.0088478
0.00804344
0.00710548
0.00570182
0.00353284
0.00116285
0.000243324
0.0108502
0.0112777
0.0117755
0.0124165
0.0133602
0.0143471
0.0148281
0.0149817
0.0139952
0.0133797
0.0123286
0.0115311
0.0103274
0.00920699
0.00787431
0.00648612
0.00449521
0.00227186
0.000650805
9.40783e-05
0.0252515
0.0257247
0.0259253
0.0259253
0.025247
0.0238785
0.0222396
0.01997
0.0182493
0.0162944
0.0145225
0.0126929
0.0107844
0.0089743
0.00713001
0.00508221
0.00302828
0.0014077
0.000437249
5.15618e-05
0.0411693
0.0393926
0.0374299
0.0346462
0.032121
0.0285457
0.0259181
0.0227573
0.0203721
0.0174967
0.0152429
0.0125074
0.0101885
0.00741582
0.00527189
0.00328409
0.00204931
0.00105267
0.000432187
8.14173e-05
0.037956
0.0364167
0.0348445
0.0323686
0.0302251
0.0269273
0.0245187
0.0216221
0.0194619
0.0168141
0.0148222
0.0122354
0.010276
0.00751125
0.00549197
0.00327296
0.00201033
0.000938067
0.000352938
6.79803e-05
0.0200085
0.020941
0.0214603
0.0217198
0.021807
0.0211092
0.0199011
0.0180533
0.0167499
0.0149694
0.0137707
0.0119545
0.0106189
0.00879559
0.00721653
0.00516086
0.00299789
0.00124169
0.000339431
4.81e-05
0.00945182
0.0096469
0.0100526
0.0105159
0.0113036
0.0122141
0.0130077
0.0133201
0.0131543
0.0122292
0.011784
0.0108579
0.0100326
0.00897964
0.00782179
0.00649085
0.00454287
0.00223072
0.00057492
5.65919e-05
0.0068433
0.00666077
0.0066054
0.00657836
0.00674719
0.00698629
0.00741056
0.00799933
0.00877664
0.00914882
0.00932826
0.00939757
0.00914411
0.00870669
0.00795012
0.00707626
0.0056986
0.00354316
0.00108331
0.000137275
0.00610164
0.00576678
0.0056357
0.00543342
0.00538279
0.00536835
0.00544884
0.00562132
0.00597979
0.00643147
0.00711663
0.0077181
0.00800741
0.00808719
0.00792355
0.00731094
0.00638839
0.00466645
0.00192571
0.000440343
0.00578197
0.00538032
0.00525112
0.00496777
0.0048516
0.00476811
0.00474181
0.00475306
0.00485161
0.00509229
0.00546978
0.00623471
0.00702162
0.00738411
0.00748832
0.00738728
0.00679665
0.00545954
0.00302055
0.00094316
0.00567722
0.00501782
0.00494637
0.00474146
0.00458547
0.00447292
0.00440641
0.0043766
0.00436789
0.00445027
0.00466485
0.00506164
0.00587322
0.00677146
0.00715016
0.00722203
0.00698993
0.0060787
0.00386749
0.00152279
0.00617893
0.00472922
0.00452918
0.00446138
0.00432267
0.00421948
0.00415324
0.00412598
0.00411764
0.00412474
0.00424023
0.00449609
0.00495313
0.00584771
0.00673843
0.00703676
0.00704361
0.00651583
0.00464887
0.00216664
0.00780491
0.00465358
0.00425567
0.00414602
0.00411259
0.00402081
0.00393578
0.00389823
0.00388595
0.00388628
0.00393309
0.00410646
0.00449811
0.00507485
0.00612874
0.00684339
0.00700157
0.00678778
0.00526282
0.00282431
0.0094729
0.00465322
0.00399554
0.003868
0.00383732
0.00384944
0.00379555
0.00375326
0.00373909
0.00373646
0.00375756
0.00382215
0.00407682
0.00463692
0.00541473
0.00651849
0.00691799
0.0069201
0.00583301
0.00345608
0.00397118
0.00375019
0.00374679
0.0037468
0.00374652
0.00374628
0.00374612
0.00374604
0.003746
0.00374598
0.00374598
0.003746
0.00374604
0.00374612
0.00374628
0.00374652
0.0037468
0.00374679
0.00375019
0.00397118
0.00441488
0.00375346
0.00374141
0.00374096
0.00374056
0.00374012
0.00373987
0.00373975
0.00373969
0.00373966
0.00373966
0.00373969
0.00373975
0.00373987
0.00374012
0.00374056
0.00374096
0.00374141
0.00375346
0.00441488
0.00485939
0.00376059
0.00373287
0.00373264
0.00373284
0.00373273
0.00373256
0.00373242
0.00373235
0.00373231
0.00373231
0.00373235
0.00373242
0.00373256
0.00373273
0.00373284
0.00373264
0.00373287
0.00376059
0.00485939
0.00530181
0.00377206
0.0037243
0.00372396
0.00372492
0.00372524
0.00372525
0.00372519
0.00372514
0.00372512
0.00372512
0.00372514
0.00372519
0.00372525
0.00372524
0.00372492
0.00372396
0.0037243
0.00377206
0.00530181
0.00573925
0.00378544
0.0037155
0.00371483
0.00371665
0.00371758
0.00371789
0.00371795
0.00371795
0.00371795
0.00371795
0.00371795
0.00371795
0.00371789
0.00371758
0.00371665
0.00371483
0.0037155
0.00378544
0.00573925
0.00617055
0.00379767
0.00370577
0.0037051
0.003708
0.00370969
0.00371043
0.0037107
0.00371078
0.0037108
0.0037108
0.00371078
0.0037107
0.00371043
0.00370969
0.003708
0.0037051
0.00370577
0.00379767
0.00617055
0.00659184
0.00380847
0.00369498
0.00369474
0.00369894
0.00370155
0.00370284
0.0037034
0.00370361
0.00370368
0.00370368
0.00370361
0.0037034
0.00370284
0.00370155
0.00369894
0.00369474
0.00369498
0.00380847
0.00659184
0.00700087
0.00381671
0.00368272
0.00368362
0.00368941
0.00369311
0.00369508
0.00369602
0.00369642
0.00369656
0.00369656
0.00369642
0.00369602
0.00369508
0.00369311
0.00368941
0.00368362
0.00368272
0.00381671
0.00700087
0.00739337
0.00382333
0.00366915
0.00367174
0.00367942
0.00368437
0.00368714
0.00368854
0.00368919
0.00368943
0.00368943
0.00368919
0.00368854
0.00368714
0.00368437
0.00367942
0.00367174
0.00366915
0.00382333
0.00739337
0.00776766
0.00382735
0.00365405
0.00365903
0.00366893
0.00367532
0.00367898
0.00368095
0.0036819
0.00368228
0.00368228
0.0036819
0.00368095
0.00367898
0.00367532
0.00366893
0.00365903
0.00365405
0.00382735
0.00776766
0.00812022
0.00383022
0.00363765
0.00364552
0.00365794
0.00366592
0.00367061
0.00367321
0.00367453
0.00367507
0.00367507
0.00367453
0.00367321
0.00367061
0.00366592
0.00365794
0.00364552
0.00363765
0.00383022
0.00812022
0.00845036
0.00383068
0.00361989
0.00363122
0.00364645
0.0036562
0.00366201
0.00366531
0.00366705
0.00366779
0.00366779
0.00366705
0.00366531
0.00366201
0.0036562
0.00364645
0.00363122
0.00361989
0.00383069
0.00845035
0.00875526
0.00383018
0.0036009
0.00361613
0.00363446
0.00364613
0.00365316
0.00365725
0.00365946
0.00366041
0.00366041
0.00365946
0.00365725
0.00365316
0.00364613
0.00363446
0.00361613
0.0036009
0.00383018
0.00875525
0.00903544
0.00382885
0.00358085
0.00360032
0.00362199
0.00363573
0.00364408
0.00364901
0.00365173
0.00365292
0.00365292
0.00365173
0.00364901
0.00364408
0.00363573
0.00362199
0.00360032
0.00358085
0.00382886
0.00903544
0.00928894
0.00382647
0.00355981
0.0035838
0.00360904
0.003625
0.00363475
0.00364059
0.00364385
0.00364531
0.00364531
0.00364385
0.00364059
0.00363475
0.003625
0.00360904
0.0035838
0.00355981
0.00382648
0.00928893
0.00951739
0.0038234
0.00353793
0.00356664
0.00359565
0.00361394
0.00362518
0.00363197
0.00363582
0.00363755
0.00363755
0.00363582
0.00363197
0.00362518
0.00361394
0.00359565
0.00356664
0.00353793
0.0038234
0.00951738
0.0097193
0.00382011
0.00351531
0.00354885
0.00358181
0.00360255
0.00361535
0.00362316
0.00362762
0.00362964
0.00362964
0.00362762
0.00362316
0.00361535
0.00360255
0.00358181
0.00354885
0.00351532
0.00382011
0.00971928
0.00989732
0.00381662
0.00349215
0.00353055
0.00356757
0.00359087
0.00360529
0.00361414
0.00361924
0.00362157
0.00362157
0.00361924
0.00361414
0.00360529
0.00359087
0.00356757
0.00353054
0.00349215
0.00381662
0.0098973
0.0100502
0.00381347
0.00346849
0.0035117
0.00355293
0.00357887
0.00359499
0.00360492
0.00361068
0.00361332
0.00361332
0.00361068
0.00360492
0.00359499
0.00357887
0.00355293
0.0035117
0.0034685
0.00381347
0.0100502
0.0101815
0.00381057
0.00344462
0.00349247
0.00353795
0.0035666
0.00358445
0.0035955
0.00360193
0.0036049
0.0036049
0.00360193
0.0035955
0.00358445
0.0035666
0.00353795
0.00349247
0.00344462
0.00381058
0.0101815
0.0102898
0.00380853
0.00342046
0.0034728
0.0035226
0.00355404
0.00357367
0.00358587
0.003593
0.0035963
0.0035963
0.003593
0.00358587
0.00357367
0.00355404
0.0035226
0.0034728
0.00342047
0.00380854
0.0102897
0.0103795
0.00380713
0.00339643
0.00345287
0.00350698
0.00354123
0.00356267
0.00357603
0.00358387
0.00358751
0.00358751
0.00358387
0.00357603
0.00356267
0.00354123
0.00350698
0.00345287
0.00339643
0.00380714
0.0103794
0.0104486
0.00380736
0.0033723
0.00343259
0.00349103
0.00352816
0.00355145
0.003566
0.00357455
0.00357853
0.00357853
0.00357455
0.003566
0.00355145
0.00352816
0.00349103