/*--------------------------------*- C++ -*----------------------------------*\
| =========                 |                                                 |
| \\      /  F ield         | OpenFOAM: The Open Source CFD Toolbox           |
|  \\    /   O peration     | Version:  2.1.0                                 |
|   \\  /    A nd           | Web:      www.OpenFOAM.org                      |
|    \\/     M anipulation  |                                                 |
\*---------------------------------------------------------------------------*/
FoamFile
{
    version     2.0;
    format      ascii;
    class       volScalarField;
    location    "0.31";
    object      nut;
}
// * * * * * * * * * * * * * * * * * * * * * * * * * * * * * * * * * * * * * //

dimensions      [0 2 -1 0 0 0 0];

internalField   nonuniform List<scalar> 
6400
(
7.05119e-06
7.08249e-06
7.09745e-06
7.11977e-06
7.1386e-06
7.16178e-06
7.1818e-06
7.20523e-06
7.22611e-06
7.24958e-06
7.27116e-06
7.29464e-06
7.31695e-06
7.34033e-06
7.36312e-06
7.38619e-06
7.40966e-06
7.43337e-06
7.45721e-06
7.48123e-06
7.50559e-06
7.53008e-06
7.555e-06
7.58004e-06
7.60562e-06
7.63126e-06
7.65756e-06
7.68392e-06
7.71099e-06
7.73819e-06
7.76609e-06
7.7942e-06
7.82305e-06
7.85215e-06
7.88203e-06
7.9122e-06
7.94312e-06
7.97437e-06
8.00621e-06
8.0384e-06
8.07107e-06
8.10399e-06
8.13725e-06
8.1706e-06
8.20412e-06
8.23751e-06
8.27085e-06
8.3038e-06
8.33642e-06
8.36836e-06
8.39967e-06
8.42969e-06
8.45772e-06
8.48371e-06
8.50944e-06
8.53452e-06
8.56e-06
8.58434e-06
8.60912e-06
8.63312e-06
8.65793e-06
8.68227e-06
8.70694e-06
8.73169e-06
8.75624e-06
8.7809e-06
8.80538e-06
8.82887e-06
8.85186e-06
8.87327e-06
8.89406e-06
8.91272e-06
8.93047e-06
8.94617e-06
8.96106e-06
8.97476e-06
8.98882e-06
9.00383e-06
9.02207e-06
9.04521e-06
9.07606e-06
9.11597e-06
9.164e-06
9.20813e-06
9.26189e-06
9.32562e-06
9.39505e-06
9.46172e-06
9.50305e-06
9.47932e-06
9.3056e-06
8.82225e-06
7.78387e-06
5.99881e-06
3.57083e-06
2.30695e-06
2.40211e-06
3.77775e-06
3.87427e-06
4.1813e-06
7.56619e-05
7.61603e-05
7.63048e-05
7.66194e-05
7.67677e-05
7.70326e-05
7.71922e-05
7.7423e-05
7.75906e-05
7.77961e-05
7.79666e-05
7.8152e-05
7.83204e-05
7.84888e-05
7.86512e-05
7.88046e-05
7.89576e-05
7.90963e-05
7.92375e-05
7.9363e-05
7.94925e-05
7.96067e-05
7.97249e-05
7.98287e-05
7.99353e-05
8.00277e-05
8.0122e-05
8.02028e-05
8.02835e-05
8.03522e-05
8.04183e-05
8.04732e-05
8.0524e-05
8.05636e-05
8.05976e-05
8.062e-05
8.06353e-05
8.06407e-05
8.06366e-05
8.06204e-05
8.05929e-05
8.05506e-05
8.04942e-05
8.04193e-05
8.03266e-05
8.0211e-05
8.00723e-05
7.99056e-05
7.97099e-05
7.94807e-05
7.92208e-05
7.89367e-05
7.8609e-05
7.81062e-05
7.74548e-05
7.67707e-05
7.60496e-05
7.52911e-05
7.44948e-05
7.36559e-05
7.27859e-05
7.18787e-05
7.09345e-05
6.99559e-05
6.89358e-05
6.78743e-05
6.67791e-05
6.56367e-05
6.44422e-05
6.31959e-05
6.1895e-05
6.05331e-05
5.9111e-05
5.76221e-05
5.60678e-05
5.44436e-05
5.27519e-05
5.09915e-05
4.91665e-05
4.72792e-05
4.53367e-05
4.33457e-05
4.13185e-05
3.92464e-05
3.70979e-05
3.48715e-05
3.2553e-05
3.01366e-05
2.7608e-05
2.4968e-05
2.22248e-05
1.94139e-05
1.66117e-05
1.39731e-05
1.14889e-05
9.23285e-06
7.48081e-06
6.28465e-06
5.67586e-06
6.86947e-06
0.00011572
0.000116036
0.000116164
0.000116308
0.000116421
0.000116512
0.00011661
0.000116661
0.000116738
0.000116757
0.000116809
0.000116797
0.000116819
0.000116777
0.000116764
0.000116691
0.000116642
0.000116536
0.000116446
0.000116302
0.00011617
0.000115992
0.000115823
0.000115614
0.000115411
0.000115171
0.000114931
0.000114659
0.000114382
0.000114075
0.000113758
0.000113415
0.000113058
0.000112675
0.000112277
0.000111853
0.000111411
0.000110938
0.000110446
0.000109922
0.000109375
0.000108795
0.000108187
0.000107541
0.000106863
0.000106142
0.00010538
0.000104567
0.000103705
0.000102778
0.000101402
9.99435e-05
9.84258e-05
9.68953e-05
9.53209e-05
9.37249e-05
9.20923e-05
9.04351e-05
8.87515e-05
8.70542e-05
8.5316e-05
8.35514e-05
8.1751e-05
7.99281e-05
7.807e-05
7.61898e-05
7.42785e-05
7.2344e-05
7.03831e-05
6.83966e-05
6.63841e-05
6.43429e-05
6.22741e-05
6.01731e-05
5.80412e-05
5.58743e-05
5.36739e-05
5.14377e-05
4.91683e-05
4.68667e-05
4.45381e-05
4.21872e-05
3.98221e-05
3.74507e-05
3.50985e-05
3.27739e-05
3.04944e-05
2.82671e-05
2.61019e-05
2.39994e-05
2.19407e-05
1.99372e-05
1.7974e-05
1.59541e-05
1.3924e-05
1.19172e-05
1.0123e-05
8.61284e-06
8.12234e-06
1.13091e-05
0.000137433
0.000137194
0.000137103
0.00013685
0.000136747
0.000136456
0.000136316
0.000135995
0.000135808
0.000135459
0.000135223
0.000134845
0.000134558
0.000134149
0.00013381
0.000133367
0.000132975
0.000132492
0.000132044
0.000131518
0.000131008
0.000130293
0.000129343
0.000128351
0.000127346
0.000126303
0.000125248
0.000124157
0.000123052
0.000121912
0.000120755
0.000119566
0.000118357
0.000117118
0.000115856
0.000114566
0.000113254
0.000111908
0.000110543
0.000109144
0.000107726
0.000106273
0.0001048
0.000103294
0.000101766
0.000100206
9.86249e-05
9.70058e-05
9.53702e-05
9.37287e-05
9.20461e-05
9.03658e-05
8.8649e-05
8.69307e-05
8.51836e-05
8.34259e-05
8.16407e-05
7.9839e-05
7.80112e-05
7.61634e-05
7.42951e-05
7.24088e-05
7.05031e-05
6.85822e-05
6.66434e-05
6.4693e-05
6.27293e-05
6.07592e-05
5.87828e-05
5.68068e-05
5.48334e-05
5.28693e-05
5.09181e-05
4.89858e-05
4.70766e-05
4.51954e-05
4.3346e-05
4.15316e-05
3.97545e-05
3.8015e-05
3.63135e-05
3.46469e-05
3.30081e-05
3.13944e-05
2.98163e-05
2.82384e-05
2.66724e-05
2.51062e-05
2.35356e-05
2.19512e-05
2.03514e-05
1.87294e-05
1.70789e-05
1.53768e-05
1.36361e-05
1.19445e-05
1.04906e-05
9.76685e-06
1.19093e-05
1.20568e-05
0.000137353
0.000137407
0.000137111
0.000136929
0.000136189
0.0001356
0.000134721
0.00013395
0.000133014
0.000132136
0.000131163
0.00013021
0.000129199
0.000128185
0.000127135
0.000126064
0.00012497
0.000123849
0.00012271
0.000121537
0.000120349
0.000119129
0.000117905
0.000116645
0.000115377
0.000114077
0.00011277
0.000111433
0.000110086
0.000108713
0.000107328
0.00010592
0.000104497
0.000103054
0.000101587
0.000100108
9.86298e-05
9.71087e-05
9.55928e-05
9.40426e-05
9.2493e-05
9.09157e-05
8.93356e-05
8.77332e-05
8.61271e-05
8.45031e-05
8.28763e-05
8.12364e-05
7.95973e-05
7.79481e-05
7.63002e-05
7.46473e-05
7.2989e-05
7.1328e-05
6.96677e-05
6.80096e-05
6.63545e-05
6.47055e-05
6.30631e-05
6.14311e-05
5.98102e-05
5.82038e-05
5.66129e-05
5.50406e-05
5.34869e-05
5.19546e-05
5.0443e-05
4.89542e-05
4.74871e-05
4.60418e-05
4.46141e-05
4.32123e-05
4.18308e-05
4.04608e-05
3.91118e-05
3.77716e-05
3.64435e-05
3.51193e-05
3.37985e-05
3.24742e-05
3.1146e-05
2.98092e-05
2.84637e-05
2.7113e-05
2.57541e-05
2.43946e-05
2.30378e-05
2.16835e-05
2.03454e-05
1.90269e-05
1.77406e-05
1.64897e-05
1.5292e-05
1.41378e-05
1.3074e-05
1.22626e-05
1.2083e-05
1.37461e-05
1.3783e-05
1.41142e-05
0.00012378
0.000123104
0.000122671
0.000122082
0.000121192
0.000120286
0.00011924
0.000118196
0.000117085
0.000115971
0.000114826
0.000113668
0.000112499
0.00011131
0.00011012
0.000108907
0.000107691
0.000106461
0.00010524
0.000103998
0.000102754
0.000101492
0.000100232
9.89439e-05
9.76543e-05
9.63468e-05
9.50382e-05
9.37114e-05
9.2383e-05
9.10381e-05
8.96904e-05
8.83291e-05
8.69646e-05
8.5589e-05
8.42117e-05
8.28261e-05
8.144e-05
8.00456e-05
7.86567e-05
7.72597e-05
7.58716e-05
7.44779e-05
7.30951e-05
7.17101e-05
7.03372e-05
6.89656e-05
6.76073e-05
6.62531e-05
6.49134e-05
6.35786e-05
6.22586e-05
6.09455e-05
5.96471e-05
5.83571e-05
5.7084e-05
5.58201e-05
5.45742e-05
5.33411e-05
5.21195e-05
5.09118e-05
4.9715e-05
4.85294e-05
4.73541e-05
4.61883e-05
4.50308e-05
4.38804e-05
4.27368e-05
4.15989e-05
4.0467e-05
3.93399e-05
3.82196e-05
3.71073e-05
3.6002e-05
3.49039e-05
3.38127e-05
3.27298e-05
3.16566e-05
3.05959e-05
2.95503e-05
2.85188e-05
2.7504e-05
2.65069e-05
2.55294e-05
2.45715e-05
2.36365e-05
2.27205e-05
2.18251e-05
2.09523e-05
2.01129e-05
1.9309e-05
1.85557e-05
1.78626e-05
1.72562e-05
1.6778e-05
1.6549e-05
1.66298e-05
1.60573e-05
1.58146e-05
1.57894e-05
1.32012e-05
0.000108139
0.000106884
0.000106349
0.000105431
0.000104547
0.000103449
0.000102424
0.000101261
0.000100176
9.89928e-05
9.78803e-05
9.66928e-05
9.55674e-05
9.43828e-05
9.32523e-05
9.20744e-05
9.09444e-05
8.97778e-05
8.86547e-05
8.75012e-05
8.63783e-05
8.52326e-05
8.41179e-05
8.29834e-05
8.18762e-05
8.0755e-05
7.96574e-05
7.85493e-05
7.74614e-05
7.63665e-05
7.52886e-05
7.42067e-05
7.31391e-05
7.20695e-05
7.10125e-05
6.99544e-05
6.89078e-05
6.78563e-05
6.68215e-05
6.57872e-05
6.47619e-05
6.37381e-05
6.27251e-05
6.17123e-05
6.07101e-05
5.9708e-05
5.87161e-05
5.77248e-05
5.67436e-05
5.57631e-05
5.47929e-05
5.38253e-05
5.28691e-05
5.19194e-05
5.09727e-05
5.00335e-05
4.91013e-05
4.81786e-05
4.72622e-05
4.63576e-05
4.54624e-05
4.45807e-05
4.37125e-05
4.28595e-05
4.20203e-05
4.12021e-05
4.04021e-05
3.96234e-05
3.88647e-05
3.8129e-05
3.74141e-05
3.6719e-05
3.60445e-05
3.53893e-05
3.47532e-05
3.41343e-05
3.35304e-05
3.29394e-05
3.21696e-05
3.1222e-05
3.02875e-05
2.93587e-05
2.84434e-05
2.75356e-05
2.66425e-05
2.57587e-05
2.4892e-05
2.4038e-05
2.32067e-05
2.23956e-05
2.16181e-05
2.08756e-05
2.01808e-05
1.95495e-05
1.89976e-05
1.8604e-05
1.83419e-05
1.8243e-05
1.89336e-05
1.49321e-05
9.71639e-05
9.53601e-05
9.48578e-05
9.37555e-05
9.29921e-05
9.18291e-05
9.09628e-05
8.98115e-05
8.89087e-05
8.77955e-05
8.68849e-05
8.58141e-05
8.49072e-05
8.38741e-05
8.29757e-05
8.19724e-05
8.10826e-05
8.01008e-05
7.92172e-05
7.80884e-05
7.684e-05
7.554e-05
7.43313e-05
7.30744e-05
7.19027e-05
7.06936e-05
6.95656e-05
6.84105e-05
6.73336e-05
6.62374e-05
6.52178e-05
6.41831e-05
6.32232e-05
6.22518e-05
6.13547e-05
6.04486e-05
5.96165e-05
5.87765e-05
5.80087e-05
5.72313e-05
5.65231e-05
5.58039e-05
5.51511e-05
5.44879e-05
5.38858e-05
5.32751e-05
5.27188e-05
5.21557e-05
5.16393e-05
5.11181e-05
5.06373e-05
5.01499e-05
4.96912e-05
4.92314e-05
4.87925e-05
4.83513e-05
4.7924e-05
4.74908e-05
4.70646e-05
4.66297e-05
4.61969e-05
4.57524e-05
4.52957e-05
4.48357e-05
4.43891e-05
4.3898e-05
4.34328e-05
4.29374e-05
4.24624e-05
4.19611e-05
4.14761e-05
4.09681e-05
4.04733e-05
3.99578e-05
3.94528e-05
3.89288e-05
3.84129e-05
3.78795e-05
3.73513e-05
3.68037e-05
3.62528e-05
3.56777e-05
3.50926e-05
3.44793e-05
3.38486e-05
3.31842e-05
3.24952e-05
3.17688e-05
3.10146e-05
3.02248e-05
2.94159e-05
2.85909e-05
2.77786e-05
2.7e-05
2.63485e-05
2.58665e-05
2.54809e-05
2.56204e-05
2.61407e-05
2.05014e-05
8.06257e-05
7.85106e-05
7.76536e-05
7.60428e-05
7.51921e-05
7.36711e-05
7.28271e-05
7.13926e-05
7.05618e-05
6.92126e-05
6.84016e-05
6.71371e-05
6.63524e-05
6.51721e-05
6.44189e-05
6.33227e-05
6.26058e-05
6.15943e-05
6.09183e-05
5.99923e-05
5.93646e-05
5.85335e-05
5.79638e-05
5.72223e-05
5.67116e-05
5.60558e-05
5.56038e-05
5.50281e-05
5.46332e-05
5.4131e-05
5.37898e-05
5.33558e-05
5.30662e-05
5.26958e-05
5.24513e-05
5.21383e-05
5.19317e-05
5.16684e-05
5.14963e-05
5.12729e-05
5.11296e-05
5.09384e-05
5.08182e-05
5.06532e-05
5.05499e-05
5.04021e-05
5.03037e-05
5.01934e-05
5.01034e-05
5.00011e-05
4.98832e-05
4.98075e-05
4.97076e-05
4.96382e-05
4.95534e-05
4.9491e-05
4.94197e-05
4.93677e-05
4.93131e-05
4.92738e-05
4.92363e-05
4.92113e-05
4.91902e-05
4.91798e-05
4.91745e-05
4.91795e-05
4.9194e-05
4.9214e-05
4.92456e-05
4.92812e-05
4.93295e-05
4.938e-05
4.94431e-05
4.95075e-05
4.95837e-05
4.96597e-05
4.97455e-05
4.9829e-05
4.99192e-05
5.00043e-05
5.00907e-05
5.01667e-05
5.0236e-05
5.02867e-05
5.03194e-05
5.03209e-05
5.02886e-05
5.0209e-05
5.00785e-05
4.98846e-05
4.96257e-05
4.92963e-05
4.89047e-05
4.84607e-05
4.79936e-05
4.75819e-05
4.74281e-05
4.75092e-05
4.80249e-05
3.97701e-05
7.22631e-05
7.04526e-05
6.97282e-05
6.83681e-05
6.76962e-05
6.64113e-05
6.57884e-05
6.45856e-05
6.40104e-05
6.28943e-05
6.2366e-05
6.13392e-05
6.08571e-05
5.99204e-05
5.94837e-05
5.86365e-05
5.82445e-05
5.74851e-05
5.71369e-05
5.64625e-05
5.61569e-05
5.55635e-05
5.5298e-05
5.47796e-05
5.45511e-05
5.41014e-05
5.3907e-05
5.35195e-05
5.33564e-05
5.30307e-05
5.28868e-05
5.26171e-05
5.2484e-05
5.22878e-05
5.21599e-05
5.20242e-05
5.19045e-05
5.17799e-05
5.17028e-05
5.1604e-05
5.15556e-05
5.14793e-05
5.14532e-05
5.14027e-05
5.13971e-05
5.13748e-05
5.13889e-05
5.1394e-05
5.1427e-05
5.14577e-05
5.15102e-05
5.15691e-05
5.16439e-05
5.173e-05
5.18288e-05
5.19414e-05
5.20657e-05
5.22045e-05
5.23543e-05
5.2519e-05
5.26951e-05
5.2886e-05
5.30902e-05
5.33092e-05
5.35425e-05
5.37905e-05
5.40537e-05
5.43316e-05
5.46259e-05
5.49349e-05
5.52618e-05
5.56038e-05
5.59651e-05
5.63427e-05
5.67409e-05
5.7157e-05
5.75953e-05
5.80536e-05
5.8536e-05
5.90411e-05
5.95729e-05
6.01308e-05
6.07187e-05
6.1337e-05
6.19899e-05
6.26788e-05
6.341e-05
6.41853e-05
6.50119e-05
6.58937e-05
6.68387e-05
6.78524e-05
6.89445e-05
7.01215e-05
7.13912e-05
7.27471e-05
7.41454e-05
7.56167e-05
7.63365e-05
6.61865e-05
7.88555e-05
7.69255e-05
7.61788e-05
7.46938e-05
7.39541e-05
7.25526e-05
7.18249e-05
7.05087e-05
6.97993e-05
6.8571e-05
6.78863e-05
6.67479e-05
6.60934e-05
6.50466e-05
6.44271e-05
6.34733e-05
6.28951e-05
6.20301e-05
6.1499e-05
6.07193e-05
6.02385e-05
5.95406e-05
5.91112e-05
5.84911e-05
5.81121e-05
5.7565e-05
5.72343e-05
5.67551e-05
5.64695e-05
5.60526e-05
5.58074e-05
5.54471e-05
5.52372e-05
5.49278e-05
5.47473e-05
5.44831e-05
5.43262e-05
5.41012e-05
5.39655e-05
5.37628e-05
5.36459e-05
5.35113e-05
5.33782e-05
5.32693e-05
5.31378e-05
5.30636e-05
5.29621e-05
5.29036e-05
5.283e-05
5.27889e-05
5.27419e-05
5.27201e-05
5.26991e-05
5.2698e-05
5.27034e-05
5.27241e-05
5.27539e-05
5.28005e-05
5.28569e-05
5.29297e-05
5.30126e-05
5.31109e-05
5.32209e-05
5.33477e-05
5.34856e-05
5.36414e-05
5.38082e-05
5.39932e-05
5.41897e-05
5.44036e-05
5.46297e-05
5.48734e-05
5.51301e-05
5.54049e-05
5.56932e-05
5.60007e-05
5.63232e-05
5.6666e-05
5.70259e-05
5.74077e-05
5.78092e-05
5.82348e-05
5.86834e-05
5.91593e-05
5.96619e-05
6.01955e-05
6.07599e-05
6.13587e-05
6.19931e-05
6.2667e-05
6.33934e-05
6.41723e-05
6.50171e-05
6.5936e-05
6.69502e-05
6.80791e-05
6.93716e-05
7.07944e-05
7.18634e-05
6.30064e-05
9.87149e-05
9.66838e-05
9.58434e-05
9.42532e-05
9.33386e-05
9.18181e-05
9.08373e-05
8.93747e-05
8.83389e-05
8.69285e-05
8.58494e-05
8.44913e-05
8.3382e-05
8.20728e-05
8.09376e-05
7.96685e-05
7.85546e-05
7.73163e-05
7.62292e-05
7.5031e-05
7.39781e-05
7.28276e-05
7.18156e-05
7.07199e-05
6.97552e-05
6.87198e-05
6.78074e-05
6.68368e-05
6.59798e-05
6.50798e-05
6.42823e-05
6.34526e-05
6.27177e-05
6.19576e-05
6.12864e-05
6.05942e-05
5.99842e-05
5.93556e-05
5.88043e-05
5.82358e-05
5.77391e-05
5.7226e-05
5.67769e-05
5.63141e-05
5.59028e-05
5.54824e-05
5.5103e-05
5.47173e-05
5.43636e-05
5.40039e-05
5.36693e-05
5.33283e-05
5.30074e-05
5.26677e-05
5.23538e-05
5.20549e-05
5.17375e-05
5.14445e-05
5.11424e-05
5.08614e-05
5.05791e-05
5.03037e-05
5.00097e-05
4.97597e-05
4.94831e-05
4.92414e-05
4.89799e-05
4.87462e-05
4.85e-05
4.82758e-05
4.80382e-05
4.78161e-05
4.75808e-05
4.73552e-05
4.71142e-05
4.68772e-05
4.66228e-05
4.6367e-05
4.60915e-05
4.58094e-05
4.55065e-05
4.51946e-05
4.48609e-05
4.4515e-05
4.4147e-05
4.3765e-05
4.33631e-05
4.29477e-05
4.25169e-05
4.20776e-05
4.16168e-05
4.115e-05
4.06862e-05
4.02499e-05
3.98742e-05
3.96193e-05
3.95738e-05
3.98649e-05
4.05263e-05
3.42697e-05
0.000105948
0.000104611
0.000104006
0.000103015
0.000102165
0.000101068
0.000100105
9.89785e-05
9.79696e-05
9.68436e-05
9.58134e-05
9.46989e-05
9.36612e-05
9.25612e-05
9.15238e-05
9.04367e-05
8.94034e-05
8.83284e-05
8.73006e-05
8.62379e-05
8.52162e-05
8.4165e-05
8.31498e-05
8.21103e-05
8.11025e-05
8.00743e-05
7.90735e-05
7.80542e-05
7.70699e-05
7.60621e-05
7.50834e-05
7.40913e-05
7.31227e-05
7.21462e-05
7.11892e-05
7.02286e-05
6.92861e-05
6.83437e-05
6.74017e-05
6.64572e-05
6.5517e-05
6.45781e-05
6.36457e-05
6.27192e-05
6.18027e-05
6.08948e-05
6.00013e-05
5.91215e-05
5.82596e-05
5.74156e-05
5.659e-05
5.5785e-05
5.50022e-05
5.42407e-05
5.35025e-05
5.27848e-05
5.2095e-05
5.14303e-05
5.06936e-05
4.99183e-05
4.91551e-05
4.83881e-05
4.7629e-05
4.68616e-05
4.60925e-05
4.53152e-05
4.45308e-05
4.37395e-05
4.29334e-05
4.21147e-05
4.13017e-05
4.04973e-05
3.9668e-05
3.88561e-05
3.80267e-05
3.72129e-05
3.63866e-05
3.55753e-05
3.47567e-05
3.39535e-05
3.31454e-05
3.23481e-05
3.15516e-05
3.07687e-05
2.99927e-05
2.92341e-05
2.84863e-05
2.77552e-05
2.70423e-05
2.63544e-05
2.56976e-05
2.50805e-05
2.45003e-05
2.39943e-05
2.36237e-05
2.33224e-05
2.33179e-05
2.3593e-05
2.43502e-05
1.88971e-05
0.000120046
0.000119118
0.000118638
0.000117905
0.000117027
0.000116046
0.00011501
0.000113906
0.000112797
0.000111654
0.000110494
0.000109301
0.000108108
0.000106886
0.000105674
0.000104429
0.000103196
0.00010193
0.000100676
9.939e-05
9.81158e-05
9.6811e-05
9.55174e-05
9.41969e-05
9.28871e-05
9.15571e-05
9.02342e-05
8.88941e-05
8.75634e-05
8.62175e-05
8.48802e-05
8.35339e-05
8.21952e-05
8.08519e-05
7.95159e-05
7.81794e-05
7.68509e-05
7.55257e-05
7.42125e-05
7.29051e-05
7.1609e-05
7.03195e-05
6.90398e-05
6.77648e-05
6.65044e-05
6.52527e-05
6.40048e-05
6.27685e-05
6.15372e-05
6.03159e-05
5.9103e-05
5.78987e-05
5.67041e-05
5.55171e-05
5.4341e-05
5.31727e-05
5.2016e-05
5.08697e-05
4.97373e-05
4.86186e-05
4.7517e-05
4.64277e-05
4.53473e-05
4.42798e-05
4.32282e-05
4.21927e-05
4.11766e-05
4.01799e-05
3.92119e-05
3.82667e-05
3.73492e-05
3.64582e-05
3.55976e-05
3.47652e-05
3.39633e-05
3.31846e-05
3.24362e-05
3.17102e-05
3.10129e-05
3.03361e-05
2.96818e-05
2.90422e-05
2.84234e-05
2.78169e-05
2.68286e-05
2.58604e-05
2.48945e-05
2.39957e-05
2.31045e-05
2.22834e-05
2.14772e-05
2.07472e-05
2.00405e-05
1.94178e-05
1.88092e-05
1.83989e-05
1.81731e-05
1.79816e-05
1.87163e-05
1.44598e-05
0.000136234
0.000135807
0.000135471
0.000135048
0.000134191
0.000133374
0.000132339
0.000131343
0.000130234
0.000129143
0.000127985
0.000126829
0.000125635
0.000124428
0.000123198
0.000121944
0.000120677
0.00011938
0.000118075
0.000116737
0.000115394
0.000114018
0.000112637
0.000111226
0.000109796
0.000108356
0.000106923
0.000105445
0.000103977
0.000102483
0.000100989
9.94733e-05
9.79481e-05
9.64052e-05
9.4851e-05
9.32824e-05
9.17028e-05
9.01115e-05
8.85197e-05
8.69219e-05
8.53238e-05
8.37221e-05
8.21183e-05
8.05148e-05
7.89119e-05
7.73111e-05
7.57148e-05
7.4123e-05
7.25402e-05
7.0964e-05
6.94019e-05
6.78484e-05
6.63131e-05
6.47888e-05
6.3285e-05
6.17933e-05
6.03224e-05
5.88663e-05
5.74258e-05
5.6003e-05
5.46071e-05
5.32146e-05
5.18585e-05
5.05089e-05
4.91875e-05
4.78746e-05
4.65826e-05
4.52985e-05
4.40294e-05
4.27667e-05
4.15148e-05
4.02681e-05
3.90293e-05
3.77952e-05
3.65706e-05
3.53547e-05
3.4148e-05
3.29505e-05
3.17601e-05
3.0582e-05
2.94137e-05
2.82619e-05
2.71252e-05
2.60094e-05
2.49108e-05
2.38334e-05
2.27786e-05
2.17456e-05
2.0739e-05
1.97544e-05
1.88131e-05
1.79017e-05
1.70758e-05
1.63803e-05
1.59305e-05
1.61007e-05
1.6076e-05
1.58651e-05
1.58824e-05
1.31726e-05
0.000147467
0.000147784
0.000147588
0.000147535
0.000146849
0.000146329
0.000145485
0.00014476
0.000143855
0.000143017
0.000142073
0.000141156
0.000140175
0.000139194
0.000138172
0.000137133
0.000136066
0.000134972
0.000133857
0.00013271
0.000131544
0.000130342
0.000129124
0.000127868
0.000126594
0.000125287
0.00012396
0.000122596
0.000121215
0.000119804
0.00011838
0.000116924
0.000115451
0.000113951
0.000112433
0.000110891
0.00010933
0.000107745
0.000106143
0.000104512
0.000102863
0.000101212
9.95271e-05
9.78252e-05
9.61045e-05
9.4363e-05
9.26063e-05
9.08283e-05
8.90382e-05
8.72273e-05
8.5408e-05
8.35703e-05
8.1728e-05
7.98729e-05
7.80188e-05
7.61563e-05
7.42979e-05
7.24379e-05
7.0576e-05
6.87188e-05
6.68626e-05
6.50183e-05
6.31849e-05
6.13694e-05
5.95697e-05
5.77942e-05
5.60403e-05
5.43144e-05
5.26143e-05
5.09448e-05
4.93037e-05
4.76938e-05
4.61126e-05
4.45555e-05
4.30259e-05
4.15312e-05
4.00436e-05
3.85841e-05
3.71332e-05
3.56971e-05
3.42614e-05
3.28272e-05
3.13837e-05
2.99306e-05
2.84593e-05
2.69714e-05
2.54679e-05
2.39467e-05
2.24202e-05
2.08842e-05
1.93556e-05
1.78292e-05
1.63099e-05
1.48581e-05
1.35116e-05
1.2448e-05
1.2087e-05
1.36242e-05
1.38483e-05
1.43386e-05
0.000141239
0.000141081
0.00014102
0.000140816
0.000140741
0.000140502
0.000140396
0.000140134
0.00013999
0.000139706
0.000139522
0.000139219
0.000138992
0.000138663
0.000138393
0.000138036
0.000137721
0.000137331
0.00013697
0.000136543
0.000136134
0.000135666
0.000135206
0.000134692
0.000134177
0.000133611
0.000133033
0.000132406
0.000131755
0.000130846
0.00012972
0.000128557
0.00012737
0.000126153
0.000124914
0.000123646
0.000122358
0.000121044
0.000119703
0.000118331
0.000116932
0.000115503
0.00011404
0.000112549
0.000111026
0.000109471
0.000107885
0.000106264
0.000104614
0.000102927
0.000101212
9.94611e-05
9.76799e-05
9.5856e-05
9.40157e-05
9.21563e-05
9.02527e-05
8.83442e-05
8.63901e-05
8.44313e-05
8.24343e-05
8.04293e-05
7.83918e-05
7.63416e-05
7.42613e-05
7.21601e-05
7.00354e-05
6.78934e-05
6.57308e-05
6.35562e-05
6.13685e-05
5.91759e-05
5.69825e-05
5.47951e-05
5.26209e-05
5.04663e-05
4.83393e-05
4.62452e-05
4.41913e-05
4.21805e-05
4.02176e-05
3.83016e-05
3.64333e-05
3.46069e-05
3.28086e-05
3.10385e-05
2.93135e-05
2.75629e-05
2.58325e-05
2.40736e-05
2.23007e-05
2.04715e-05
1.85751e-05
1.66205e-05
1.46766e-05
1.27323e-05
1.10688e-05
1.00881e-05
1.19781e-05
1.21316e-05
0.000116484
0.000116808
0.000116936
0.000117089
0.000117199
0.00011731
0.00011741
0.00011749
0.000117578
0.000117631
0.000117703
0.000117732
0.000117784
0.000117793
0.000117823
0.00011781
0.000117816
0.00011778
0.000117758
0.000117697
0.000117645
0.000117556
0.000117471
0.00011735
0.000117228
0.000117072
0.00011691
0.000116715
0.00011651
0.000116277
0.000116036
0.000115772
0.000115498
0.000115201
0.000114893
0.000114562
0.000114217
0.000113848
0.000113457
0.000113041
0.000112602
0.000112136
0.000111642
0.000111118
0.000110561
0.000109969
0.000109341
0.000108681
0.000107988
0.000107261
0.000106502
0.000105691
0.000104835
0.00010392
0.000102945
0.000101887
0.00010025
9.8593e-05
9.68567e-05
9.50967e-05
9.3273e-05
9.1423e-05
8.95231e-05
8.75962e-05
8.5647e-05
8.36865e-05
8.16559e-05
7.96051e-05
7.75021e-05
7.53718e-05
7.31999e-05
7.09977e-05
6.87546e-05
6.64786e-05
6.41606e-05
6.1804e-05
5.94016e-05
5.69539e-05
5.44568e-05
5.19108e-05
4.93169e-05
4.66782e-05
4.4003e-05
4.12996e-05
3.85831e-05
3.58698e-05
3.31834e-05
3.05444e-05
2.79786e-05
2.5512e-05
2.31192e-05
2.08092e-05
1.85716e-05
1.63176e-05
1.41413e-05
1.2143e-05
1.03243e-05
8.93265e-06
8.38208e-06
1.15519e-05
7.45763e-05
7.50565e-05
7.51527e-05
7.5461e-05
7.55687e-05
7.58265e-05
7.59543e-05
7.61789e-05
7.63236e-05
7.65255e-05
7.66814e-05
7.68675e-05
7.70296e-05
7.72041e-05
7.73682e-05
7.75337e-05
7.76964e-05
7.7854e-05
7.80126e-05
7.81623e-05
7.83143e-05
7.84556e-05
7.85991e-05
7.8731e-05
7.88642e-05
7.8986e-05
7.91081e-05
7.92194e-05
7.93303e-05
7.9432e-05
7.95333e-05
7.96255e-05
7.97157e-05
7.97965e-05
7.98733e-05
7.99394e-05
7.99993e-05
8.00471e-05
8.00906e-05
8.01231e-05
8.01487e-05
8.01636e-05
8.01697e-05
8.01652e-05
8.01506e-05
8.01255e-05
8.00904e-05
8.0045e-05
7.99828e-05
7.99035e-05
7.98034e-05
7.96788e-05
7.95283e-05
7.9347e-05
7.91336e-05
7.88847e-05
7.86056e-05
7.83119e-05
7.79792e-05
7.76265e-05
7.72271e-05
7.67916e-05
7.62926e-05
7.55364e-05
7.4584e-05
7.35701e-05
7.25004e-05
7.13822e-05
7.02033e-05
6.89636e-05
6.76607e-05
6.63102e-05
6.48666e-05
6.33551e-05
6.17507e-05
6.00622e-05
5.8274e-05
5.63891e-05
5.44e-05
5.23078e-05
5.01123e-05
4.78159e-05
4.54249e-05
4.29448e-05
4.03876e-05
3.77662e-05
3.508e-05
3.23412e-05
2.9533e-05
2.6605e-05
2.36194e-05
2.0543e-05
1.75502e-05
1.46682e-05
1.19752e-05
9.60744e-06
7.77821e-06
6.55444e-06
5.87565e-06
6.77405e-06
6.9167e-06
6.93823e-06
6.95138e-06
6.96847e-06
6.98506e-06
7.00392e-06
7.02105e-06
7.04089e-06
7.05877e-06
7.07943e-06
7.09803e-06
7.11945e-06
7.13886e-06
7.16083e-06
7.1812e-06
7.20367e-06
7.22506e-06
7.24806e-06
7.27048e-06
7.29408e-06
7.31752e-06
7.34183e-06
7.3663e-06
7.39142e-06
7.417e-06
7.4431e-06
7.46989e-06
7.49717e-06
7.52529e-06
7.5539e-06
7.58346e-06
7.61352e-06
7.64457e-06
7.67618e-06
7.70883e-06
7.7421e-06
7.77651e-06
7.81165e-06
7.84802e-06
7.88525e-06
7.92377e-06
7.96331e-06
8.00422e-06
8.0463e-06
8.08982e-06
8.13466e-06
8.18093e-06
8.22846e-06
8.27723e-06
8.32725e-06
8.37847e-06
8.43097e-06
8.48479e-06
8.54006e-06
8.59704e-06
8.65602e-06
8.71743e-06
8.7811e-06
8.84605e-06
8.91278e-06
8.97917e-06
9.04562e-06
9.10921e-06
9.16985e-06
9.23107e-06
9.29495e-06
9.36116e-06
9.43064e-06
9.50266e-06
9.57826e-06
9.65763e-06
9.74118e-06
9.82598e-06
9.91619e-06
1.00077e-05
1.0104e-05
1.02023e-05
1.03045e-05
1.04098e-05
1.05189e-05
1.06327e-05
1.07515e-05
1.08771e-05
1.10101e-05
1.11522e-05
1.13014e-05
1.14457e-05
1.15573e-05
1.15564e-05
1.13833e-05
1.08835e-05
9.79709e-06
8.03177e-06
5.88999e-06
3.64836e-06
2.65038e-06
2.5617e-06
3.92231e-06
4.02151e-06
4.3333e-06
1.09375e-05
2.07648e-06
2.59964e-06
3.51617e-06
4.54668e-06
5.62052e-06
6.48527e-06
7.33483e-06
8.14838e-06
8.90512e-06
9.61265e-06
1.032e-05
1.14308e-05
1.32784e-05
1.54162e-05
1.78268e-05
1.75999e-05
1.55573e-05
1.03193e-05
4.00598e-06
5.87499e-06
2.1852e-06
2.47407e-06
3.1826e-06
4.05386e-06
4.86243e-06
5.69136e-06
6.5499e-06
7.41275e-06
8.29127e-06
9.25283e-06
1.03448e-05
1.19799e-05
1.40275e-05
1.69765e-05
1.82931e-05
1.7482e-05
1.47361e-05
9.56245e-06
3.98055e-06
4.94365e-06
2.69414e-06
2.89966e-06
3.41475e-06
4.00992e-06
4.7168e-06
5.47903e-06
6.31189e-06
7.21533e-06
8.36944e-06
9.48212e-06
1.09696e-05
1.28646e-05
1.57326e-05
1.79685e-05
1.82785e-05
1.71503e-05
1.40266e-05
8.9209e-06
3.85902e-06
5.05444e-06
3.43842e-06
3.63743e-06
3.87516e-06
4.36802e-06
4.92692e-06
5.66865e-06
6.57352e-06
7.70137e-06
9.45417e-06
1.11469e-05
1.28652e-05
1.56173e-05
1.81267e-05
1.91328e-05
1.87752e-05
1.70256e-05
1.3283e-05
8.03605e-06
3.27817e-06
5.68787e-06
4.47749e-06
4.6174e-06
4.63389e-06
5.19373e-06
5.68844e-06
6.57687e-06
7.82531e-06
9.56919e-06
1.3005e-05
1.46717e-05
1.69561e-05
1.92391e-05
2.03427e-05
2.03687e-05
1.92005e-05
1.65646e-05
1.25457e-05
6.97534e-06
2.38615e-06
6.8951e-06
5.97734e-06
6.04849e-06
6.02448e-06
6.76776e-06
7.75039e-06
9.31868e-06
1.15514e-05
1.59974e-05
1.93606e-05
2.08411e-05
2.22335e-05
2.29549e-05
2.27789e-05
2.16378e-05
1.91276e-05
1.59925e-05
1.16709e-05
5.22915e-06
1.45015e-06
9.04028e-06
8.62298e-06
8.85166e-06
9.43975e-06
1.11398e-05
1.36056e-05
1.69914e-05
2.1894e-05
2.8597e-05
2.92634e-05
2.89627e-05
2.82152e-05
2.68481e-05
2.47632e-05
2.17373e-05
1.85547e-05
1.49285e-05
1.02543e-05
3.86278e-06
6.97499e-07
1.46425e-05
1.61119e-05
1.73332e-05
1.9621e-05
2.31451e-05
2.74576e-05
3.30207e-05
3.99732e-05
3.99225e-05
3.76988e-05
3.43123e-05
3.16651e-05
2.81479e-05
2.49533e-05
2.0898e-05
1.71445e-05
1.30095e-05
8.18198e-06
2.80745e-06
2.83833e-07
3.252e-05
3.54829e-05
3.67135e-05
3.91768e-05
4.36396e-05
4.79802e-05
5.20689e-05
4.78391e-05
4.42671e-05
4.03116e-05
3.65118e-05
3.26628e-05
2.8524e-05
2.3388e-05
1.86455e-05
1.41464e-05
1.03407e-05
6.96289e-06
2.71607e-06
1.58005e-07
5.28042e-05
5.56895e-05
5.59495e-05
5.74549e-05
6.23066e-05
5.96069e-05
5.53076e-05
5.03719e-05
4.62768e-05
4.1331e-05
3.72525e-05
3.20708e-05
2.70845e-05
1.98319e-05
1.41965e-05
9.95364e-06
8.23337e-06
7.28629e-06
3.61125e-06
2.46765e-07
5.03035e-05
5.30372e-05
5.34161e-05
5.50064e-05
5.98121e-05
5.78595e-05
5.37568e-05
4.90082e-05
4.51516e-05
4.03771e-05
3.66936e-05
3.15805e-05
2.76506e-05
2.05294e-05
1.4914e-05
1.0064e-05
7.91821e-06
6.43337e-06
2.98221e-06
2.07056e-07
2.79667e-05
3.08666e-05
3.22357e-05
3.47128e-05
3.91123e-05
4.36637e-05
4.9595e-05
4.56299e-05
4.26353e-05
3.8435e-05
3.56754e-05
3.1348e-05
2.8369e-05
2.39167e-05
1.93489e-05
1.45774e-05
1.00801e-05
5.88468e-06
1.97734e-06
1.47587e-07
1.30835e-05
1.40155e-05
1.49868e-05
1.70296e-05
2.01861e-05
2.42275e-05
2.94825e-05
3.63689e-05
3.97693e-05
3.61435e-05
3.40191e-05
3.06138e-05
2.76831e-05
2.45168e-05
2.12759e-05
1.73849e-05
1.29546e-05
7.76316e-06
2.39863e-06
1.73095e-07
8.63561e-06
8.11087e-06
8.25697e-06
8.64905e-06
1.00624e-05
1.21994e-05
1.51929e-05
1.9801e-05
2.62694e-05
2.74328e-05
2.77347e-05
2.75485e-05
2.66399e-05
2.47412e-05
2.1458e-05
1.86335e-05
1.48764e-05
1.00432e-05
3.51463e-06
4.07847e-07
6.73689e-06
5.80337e-06
5.86776e-06
5.83031e-06
6.5104e-06
7.36793e-06
8.75028e-06
1.07347e-05
1.48094e-05
1.81568e-05
1.9943e-05
2.16944e-05
2.272e-05
2.27585e-05
2.18254e-05
1.89625e-05
1.58243e-05
1.15234e-05
5.13832e-06
1.18827e-06
5.62039e-06
4.42619e-06
4.56388e-06
4.60713e-06
5.15475e-06
5.64358e-06
6.4864e-06
7.63629e-06
9.23868e-06
1.23508e-05
1.41254e-05
1.64898e-05
1.90295e-05
2.03308e-05
2.04444e-05
1.93484e-05
1.64189e-05
1.24402e-05
6.95641e-06
2.24049e-06
5.04243e-06
3.43476e-06
3.6369e-06
3.91577e-06
4.41577e-06
4.99547e-06
5.72878e-06
6.60959e-06
7.68525e-06
9.33273e-06
1.09182e-05
1.26643e-05
1.53975e-05
1.81049e-05
1.92397e-05
1.8889e-05
1.70953e-05
1.32047e-05
8.04306e-06
3.22334e-06
5.05028e-06
2.73405e-06
2.93233e-06
3.46256e-06
4.09296e-06
4.80892e-06
5.58457e-06
6.42111e-06
7.31164e-06
8.41466e-06
9.49931e-06
1.09477e-05
1.2824e-05
1.56361e-05
1.80276e-05
1.83893e-05
1.72092e-05
1.39538e-05
8.95759e-06
3.80814e-06
6.12597e-06
2.24323e-06
2.53707e-06
3.25401e-06
4.13244e-06
4.98533e-06
5.8219e-06
6.68929e-06
7.55937e-06
8.42934e-06
9.36087e-06
1.04242e-05
1.20431e-05
1.40772e-05
1.69763e-05
1.83711e-05
1.75187e-05
1.47279e-05
9.59189e-06
3.95795e-06
1.09724e-05
2.13955e-06
2.66207e-06
3.59706e-06
4.64419e-06
5.71991e-06
6.63705e-06
7.48948e-06
8.31265e-06
9.0715e-06
9.77553e-06
1.04562e-05
1.15041e-05
1.32943e-05
1.54551e-05
1.78756e-05
1.76268e-05
1.55253e-05
1.03569e-05
3.99339e-06
1.23421e-06
0.000116558
0.000294183
0.000330906
0.00033481
0.000335356
0.000335357
0.000335342
0.000335343
0.000335345
0.000335345
0.000335343
0.000335342
0.000335357
0.000335356
0.00033481
0.000330906
0.000294183
0.000116558
1.23421e-06
1.36972e-06
6.81671e-05
0.000219585
0.000309504
0.000330909
0.000334527
0.000335273
0.000335315
0.000335296
0.000335287
0.000335287
0.000335296
0.000335315
0.000335273
0.000334527
0.000330909
0.000309504
0.000219585
6.81673e-05
1.36972e-06
1.51338e-06
5.28963e-05
0.00017646
0.00028058
0.000322148
0.000332504
0.000334604
0.0003351
0.000335168
0.000335172
0.000335172
0.000335168
0.0003351