/*--------------------------------*- C++ -*----------------------------------*\
| =========                 |                                                 |
| \\      /  F ield         | OpenFOAM: The Open Source CFD Toolbox           |
|  \\    /   O peration     | Version:  2.1.0                                 |
|   \\  /    A nd           | Web:      www.OpenFOAM.org                      |
|    \\/     M anipulation  |                                                 |
\*---------------------------------------------------------------------------*/
FoamFile
{
    version     2.0;
    format      ascii;
    class       volScalarField;
    location    "0.31";
    object      omega;
}
// * * * * * * * * * * * * * * * * * * * * * * * * * * * * * * * * * * * * * //

dimensions      [0 0 -1 0 0 0 0];

internalField   nonuniform List<scalar> 
6400
(
1616.85
1619.61
1620.47
1621.56
1622.05
1622.86
1623.23
1623.87
1624.16
1624.65
1624.87
1625.23
1625.39
1625.6
1625.66
1625.69
1625.67
1625.61
1625.48
1625.29
1625.04
1624.73
1624.38
1623.95
1623.48
1622.93
1622.35
1621.68
1620.97
1620.18
1619.35
1618.44
1617.48
1616.43
1615.34
1614.15
1612.91
1611.56
1610.13
1608.59
1606.95
1605.17
1603.26
1601.19
1598.96
1596.53
1593.91
1591.05
1587.95
1584.57
1580.93
1576.94
1572.55
1567.76
1562.72
1557.39
1551.87
1546.01
1539.95
1533.57
1526.99
1520.1
1512.96
1505.53
1497.78
1489.72
1481.3
1472.45
1463.18
1453.4
1443.15
1432.3
1420.9
1408.85
1396.19
1382.85
1368.9
1354.31
1339.16
1323.46
1307.27
1290.53
1272.95
1253.54
1232.9
1210.72
1186.38
1159.04
1127.2
1088.84
1040.34
975.948
887.811
769.952
619.986
537.85
566.197
735.475
892.918
942.742
686.224
687.425
688.687
690.388
691.903
693.85
695.483
697.528
699.259
701.354
703.182
705.313
707.236
709.404
711.419
713.626
715.733
717.994
720.195
722.519
724.815
727.215
729.617
732.111
734.631
737.239
739.891
742.627
745.423
748.303
751.259
754.305
757.441
760.677
764.018
767.476
771.059
774.762
778.59
782.55
786.65
790.897
795.298
799.862
804.596
809.509
814.609
819.904
825.404
831.117
837.061
843.205
849.581
856.176
863.064
870.237
877.74
885.554
893.741
902.292
911.264
920.661
930.536
940.92
951.864
963.268
975.164
987.47
1000.52
1014.17
1028.59
1043.75
1059.76
1076.64
1094.5
1113.4
1133.44
1154.71
1177.36
1201.52
1227.41
1255.32
1284.22
1314.28
1345.73
1377.86
1410.08
1441.32
1470.32
1495.58
1514.03
1522.53
1524.27
1510.24
1475.34
1396.82
1285.6
1150.85
1005.56
848.032
503.905
507.525
509.207
512.572
514.748
518.118
520.612
523.991
526.739
530.154
533.125
536.607
539.786
543.363
546.744
550.436
554.008
557.833
561.598
565.573
569.533
573.673
577.832
582.147
586.51
591.018
595.597
600.315
605.123
610.069
615.123
620.317
625.634
631.097
636.696
642.446
648.342
654.415
660.654
667.087
673.707
680.536
687.574
694.839
702.334
710.075
718.067
726.323
734.846
743.644
752.718
762.091
771.762
781.754
792.086
802.774
813.835
825.28
837.133
849.399
862.103
875.247
888.849
902.91
917.435
932.473
948.028
964.147
980.563
997.393
1014.49
1031.89
1049.48
1067.25
1085.15
1103.16
1121.23
1139.38
1157.6
1175.92
1194.35
1212.92
1231.64
1250.57
1269.66
1288.72
1307.6
1325.77
1342.59
1356.89
1364.88
1367.79
1361.88
1336.3
1288.71
1209.42
1101.14
959.975
796.796
627.796
459.057
464.295
466.6
471.14
474.018
478.509
481.8
486.28
489.909
494.427
498.354
502.955
507.157
511.878
516.342
521.216
525.941
530.996
535.98
541.237
546.479
551.953
557.451
563.153
568.911
574.853
580.877
587.075
593.375
599.844
606.431
613.187
620.075
627.133
634.336
641.712
649.247
656.957
664.83
672.875
681.084
689.461
698
706.702
715.558
724.567
733.719
743.009
752.428
761.971
771.622
781.387
791.242
801.196
811.229
821.343
831.521
841.757
852.04
862.359
872.702
883.057
893.407
903.736
914.019
924.295
934.52
944.699
954.789
964.793
974.668
984.408
993.945
1003.25
1012.28
1020.96
1029.21
1036.95
1044.08
1050.45
1055.94
1060.34
1063.21
1064.5
1064.79
1062.3
1057.61
1049.78
1038.68
1023.42
1003.49
977.813
945.204
903.796
851.641
786.872
711.012
628.543
552.64
496.632
451.479
457.594
460.243
465.498
468.799
473.987
477.749
482.9
487.025
492.183
496.613
501.819
506.515
511.8
516.735
522.125
527.284
532.796
538.164
543.811
549.374
555.161
560.91
566.843
572.771
578.849
584.939
591.154
597.392
603.733
610.101
616.556
623.039
629.591
636.168
642.799
649.447
656.13
662.83
669.551
676.279
683.013
689.741
696.459
703.156
709.826
716.459
723.047
729.585
736.062
742.47
748.808
755.055
761.207
767.295
773.262
779.118
784.81
790.331
795.647
800.732
805.556
810.087
814.293
818.138
821.588
824.599
827.135
829.148
830.562
831.251
831.487
831.084
829.7
827.676
824.674
820.851
816.008
810.205
803.316
795.355
786.242
775.973
764.639
752.109
738.508
723.831
708.093
691.288
673.341
654.117
633.318
610.73
585.664
557.392
526.707
494.702
465.141
444.233
432.696
443.71
449.434
451.886
456.782
459.788
464.587
467.955
472.651
476.275
480.889
484.705
489.26
493.221
497.735
501.806
506.291
510.446
514.908
519.123
523.566
527.822
532.243
536.524
540.918
545.211
549.632
553.977
558.404
562.764
567.173
571.515
575.878
580.169
584.454
588.657
592.831
596.909
600.929
604.846
608.672
612.372
615.958
619.393
622.685
625.803
628.745
631.487
634.021
636.326
638.388
640.186
641.708
642.93
643.841
644.525
644.851
644.962
644.752
644.085
643.102
641.679
639.879
637.644
634.998
631.923
628.423
624.499
620.153
615.396
610.233
604.697
598.837
592.634
586.139
579.367
572.343
565.098
557.669
550.125
542.455
534.727
526.967
519.231
511.529
503.91
496.3
488.679
481.029
473.407
465.69
457.875
449.819
441.464
432.633
423.468
414.382
406.844
403.248
402.272
402.28
413.313
417.629
419.452
423.107
425.257
428.819
431.152
434.586
437.022
440.322
442.815
445.984
448.5
451.541
454.053
456.968
459.455
462.242
464.684
467.34
469.711
472.199
474.453
476.769
478.888
481.06
483.04
485.016
486.794
488.523
490.044
491.48
492.695
493.797
494.664
495.393
495.875
496.126
496.216
496.142
495.732
495.174
494.321
493.279
491.963
490.438
488.656
486.658
484.418
481.968
479.296
476.429
473.366
470.164
466.735
463.18
459.456
455.633
451.69
447.695
443.628
439.553
435.454
431.376
427.305
423.349
419.467
415.753
412.164
408.787
405.571
402.562
399.739
397.147
394.757
392.604
390.641
388.903
387.37
386.051
384.931
384.006
383.249
382.651
382.175
381.804
381.495
381.227
380.949
380.652
380.312
379.971
379.772
379.713
380.396
381.766
384.388
389.023
392.721
393.774
364.103
366.814
367.914
370.075
371.192
373.213
374.273
376.099
377.059
378.665
379.498
380.87
381.557
382.666
383.213
384.034
384.431
384.946
385.182
385.349
385.394
385.339
385.064
384.74
384.177
383.49
382.549
381.495
380.183
378.766
377.096
375.337
373.341
371.272
368.98
366.632
364.084
361.496
358.749
355.97
353.064
350.157
347.157
344.183
341.156
338.182
335.197
332.289
329.413
326.628
323.9
321.324
318.869
316.558
314.405
312.427
310.638
309.052
307.683
306.542
305.638
304.983
304.653
304.523
304.541
305.005
305.535
306.458
307.485
308.859
310.361
312.169
314.115
316.333
318.693
321.292
324.029
326.969
330.033
333.293
336.665
340.191
343.8
347.52
351.284
355.107
358.931
362.761
366.555
370.326
374.052
377.776
381.531
385.395
389.56
394.392
399.983
406.978
412.46
414.684
299.393
299.576
299.589
299.58
299.349
299.192
298.714
298.367
297.643
297.083
296.12
295.337
294.145
293.136
291.729
290.494
288.889
287.435
285.654
283.992
282.071
280.256
278.228
276.296
274.189
272.177
270.033
267.991
265.859
263.837
261.766
259.809
257.834
255.983
254.152
252.452
250.81
249.303
247.886
246.611
245.455
244.451
243.586
242.883
242.338
241.985
241.818
241.767
241.933
242.321
242.911
243.663
244.61
245.721
247.029
248.502
250.172
252.009
254.043
256.244
258.641
261.208
263.97
266.905
270.044
273.351
276.848
280.525
284.388
288.442
292.683
297.128
301.768
306.62
311.676
316.955
322.45
328.18
334.136
340.333
346.766
353.449
360.372
367.546
374.957
382.606
390.474
398.555
406.816
415.237
423.792
432.468
441.256
450.184
459.309
468.846
479.528
491.109
502.677
508.385
239.179
237.487
236.756
235.266
234.352
232.83
231.768
230.22
229.046
227.484
226.233
224.677
223.384
221.853
220.553
219.071
217.799
216.391
215.181
213.874
212.757
211.577
210.58
209.549
208.697
207.837
207.152
206.482
205.983
205.519
205.223
205.01
204.919
204.897
205.031
205.269
205.64
206.121
206.737
207.466
208.329
209.308
210.429
211.656
213.026
214.5
216.118
217.839
219.707
221.681
223.803
226.021
228.384
230.846
233.451
236.159
239.01
241.969
245.072
248.289
251.654
255.138
258.775
262.54
266.463
270.524
274.751
279.128
283.682
288.401
293.309
298.399
303.693
309.19
314.909
320.853
327.043
333.486
340.201
347.201
354.507
362.137
370.114
378.461
387.206
396.379
406.016
416.156
426.845
438.138
450.093
462.788
476.31
490.767
506.272
522.917
540.609
559.101
573.752
580.29
267.462
267.204
266.918
266.527
266.041
265.486
264.797
264.066
263.178
262.264
261.188
260.088
258.836
257.557
256.151
254.711
253.174
251.613
249.974
248.331
246.626
244.941
243.213
241.528
239.821
238.182
236.542
234.993
233.465
232.048
230.676
229.43
228.253
227.215
226.271
225.472
224.791
224.262
223.872
223.679
223.603
223.627
223.951
224.322
224.946
225.643
226.572
227.591
228.828
230.167
231.708
233.363
235.207
237.174
239.32
241.599
244.051
246.621
249.366
252.23
255.269
258.429
261.765
265.23
268.871
272.648
276.606
280.71
284.998
289.447
294.088
298.903
303.922
309.132
314.563
320.204
326.082
332.195
338.566
345.199
352.117
359.328
366.859
374.72
382.94
391.536
400.538
409.967
419.859
430.243
441.184
452.72
464.935
477.912
491.783
506.694
522.731
539.555
553.364
559.619
326.761
328.702
329.465
330.872
331.565
332.774
333.363
334.332
334.796
335.499
335.827
336.244
336.421
336.502
336.464
336.232
335.83
335.323
334.579
333.774
332.702
331.591
330.206
328.794
327.114
325.417
323.47
321.513
319.339
317.146
314.781
312.405
309.892
307.388
304.779
302.202
299.552
296.959
294.325
291.783
289.235
286.809
284.417
282.173
280.032
278.056
276.223
274.573
273.101
271.83
270.764
269.916
269.291
268.959
268.822
268.812
269.206
269.679
270.495
271.433
272.68
274.073
275.746
277.581
279.671
281.934
284.437
287.115
290.002
293.064
296.318
299.744
303.355
307.133
311.099
315.226
319.536
324.002
328.645
333.439
338.394
343.476
348.703
354.046
359.514
365.086
370.769
376.54
382.408
388.359
394.384
400.489
406.747
413.237
420.168
427.871
436.737
447.088
458.098
463.853
375.505
379.051
380.53
383.424
385.062
387.828
389.534
392.136
393.857
396.279
397.976
400.213
401.858
403.924
405.51
407.382
408.857
410.515
411.826
413.244
414.347
415.498
416.352
417.205
417.775
418.289
418.538
418.651
418.664
418.396
417.988
417.364
416.553
415.554
414.344
412.966
411.372
409.628
407.593
405.387
402.919
400.291
397.432
394.437
391.254
387.956
384.516
381.012
377.405
373.785
370.11
366.471
362.828
359.265
355.739
352.321
349.018
345.889
342.921
340.14
337.56
335.199
333.069
331.18
329.55
328.171
327.059
326.183
325.567
325.244
325.113
325.104
325.488
325.933
326.682
327.497
328.554
329.669
330.969
332.311
333.815
335.406
337.126
338.925
340.832
342.827
344.917
347.097
349.377
351.768
354.308
357.016
359.926
363.055
366.516
370.565
375.696
382.319
387.188
388.986
410.641
415.388
417.41
421.432
423.867
427.794
430.49
434.306
437.175
440.885
443.867
447.477
450.524
454.076
457.21
460.712
463.895
467.343
470.541
473.923
477.1
480.401
483.526
486.724
489.764
492.836
495.759
498.676
501.452
504.175
506.759
509.258
511.604
513.837
515.899
517.821
519.549
521.111
522.546
523.798
524.856
525.694
526.27
526.549
526.642
526.475
525.906
525.121
523.947
522.524
520.725
518.659
516.236
513.543
510.519
507.236
503.655
499.841
495.78
491.557
487.131
482.568
477.825
472.962
468.01
462.977
457.917
452.83
447.834
442.881
438.075
433.384
428.9
424.579
420.489
416.535
412.827
409.273
405.962
402.8
399.822
396.945
394.238
391.602
389.085
386.629
384.245
381.891
379.576
377.285
375.045
372.87
370.857
369.245
368.06
367.611
368.246
372.059
375.141
376.038
425.175
430.779
433.191
438.003
441.007
445.753
449.168
453.859
457.583
462.251
466.224
470.901
475.084
479.797
484.16
488.921
493.438
498.254
502.903
507.776
512.536
517.464
522.315
527.293
532.216
537.233
542.21
547.253
552.266
557.322
562.354
567.41
572.438
577.469
582.462
587.435
592.353
597.226
602.086
606.895
611.654
616.337
620.933
625.427
629.804
634.041
638.12
642.03
645.74
649.244
652.509
655.528
658.266
660.718
662.847
664.646
666.079
667.141
667.682
667.894
667.871
667.051
666.218
664.663
662.898
660.476
657.723
654.362
650.601
646.273
641.515
636.227
630.502
624.284
617.688
610.707
603.359
595.707
587.72
579.475
570.931
562.178
553.184
544.006
534.612
524.981
515.121
504.98
494.516
483.519
472.18
460.246
447.81
434.941
421.934
409.073
398.015
391.325
388.423
387.117
425.437
430.863
433.228
437.924
440.91
445.569
449.002
453.66
457.455
462.158
466.266
471.059
475.45
480.365
485.02
490.082
494.988
500.218
505.366
510.779
516.163
521.768
527.383
533.188
539.029
545.035
551.096
557.302
563.575
569.976
576.45
583.041
589.705
596.473
603.314
610.248
617.253
624.342
631.499
638.724
646.008
653.349
660.734
668.162
675.622
683.108
690.611
698.121
705.625
713.108
720.55
727.964
735.325
742.628
749.858
757.005
764.052
771.001
777.816
784.507
791.015
797.33
803.496
809.397
815.072
820.414
825.444
830.066
834.279
838.001
841.215
843.85
845.868
847.038
847.539
847.609
846.374
844.486
841.373
837.331
831.979
825.442
817.441
807.999
796.898
784.12
769.575
753.056
734.588
713.962
691.075
665.541
637.065
605.241
570.925
533.448
496.01
460.594
435.306
418.46
432.825
437.181
439.123
442.982
445.458
449.298
452.152
456
459.159
463.056
466.482
470.461
474.135
478.238
482.152
486.407
490.559
494.99
499.382
504.011
508.65
513.498
518.395
523.484
528.651
534
539.451
545.078
550.825
556.744
562.796
569.02
575.391
581.939
588.65
595.548
602.628
609.908
617.371
625.037
632.898
640.964
649.233
657.709
666.387
675.265
684.349
693.678
703.236
713.053
723.134
733.394
743.871
754.527
765.367
776.369
787.52
798.812
810.214
821.725
833.315
844.988
856.72
868.508
880.343
892.214
904.107
916
927.866
939.669
951.36
963.034
974.593
986.053
997.363
1008.48
1019.32
1029.86
1039.96
1049.54
1058.43
1066.48
1073.44
1079.07
1082.47
1083.91
1084.04
1079.39
1071.86
1058.77
1040.42
1014.62
980.4
935.299
879.252
808.574
726.144
634.889
553.314
488.351
479.114
481.815
483.12
485.777
487.553
490.246
492.306
495.038
497.319
500.112
502.592
505.473
508.138
511.118
513.962
517.061
520.084
523.318
526.524
529.91
533.304
536.857
540.446
544.181
547.975
551.906
555.914
560.055
564.289
568.657
573.128
577.733
582.456
587.317
592.307
597.438
602.703
608.107
613.697
619.459
625.418
631.575
637.95
644.554
651.406
658.526
665.925
673.574
681.505
689.706
698.183
707.007
716.165
725.689
735.583
745.861
756.526
767.612
779.115
791.065
803.471
816.365
829.761
843.692
858.189
873.273
888.956
905.258
922.185
939.755
957.985
976.713
995.95
1015.61
1035.65
1055.98
1076.55
1097.29
1118.16
1139.12
1160.16
1181.26
1202.4
1223.51
1244.65
1265.83
1286.78
1307
1325.93
1342.22
1351.81
1355.39
1349.78
1321.77
1271.24
1196.16
1093.13
963.845
802.772
630.418
659.865
659.926
661.023
661.829
663.039
664.221
665.462
666.83
668.122
669.601
670.965
672.525
673.973
675.606
677.147
678.851
680.492
682.271
684.014
685.874
687.72
689.666
691.618
693.656
695.717
697.854
700.028
702.275
704.572
706.945
709.382
711.902
714.503
717.196
719.983
722.875
725.882
729.015
732.256
735.624
739.121
742.756
746.537
750.471
754.569
758.835
763.277
767.898
772.714
777.731
782.964
788.43
794.136
800.1
806.335
812.861
819.702
826.839
834.318
842.144
850.335
858.912
867.876
877.25
887.127
897.542
908.506
920.064
932.232
945.055
958.544
972.692
987.706
1003.57
1020.38
1038.19
1057.09
1077.17
1098.51
1121.22
1145.4
1171.15
1198.58
1227.79
1258.95
1290.94
1323.61
1355.46
1384.81
1409.34
1423.34
1428.47
1426.36
1410.53
1379.09
1319.48
1232.17
1121.88
997.77
849.044
1581.5
1582.82
1583.07
1583.16
1582.99
1582.92
1582.56
1582.4
1581.96
1581.75
1581.26
1581
1580.47
1580.15
1579.59
1579.19
1578.6
1578.12
1577.5
1576.93
1576.26
1575.61
1574.9
1574.16
1573.39
1572.59
1571.76
1570.89
1570.01
1569.08
1568.15
1567.16
1566.16
1565.11
1564.04
1562.92
1561.78
1560.58
1559.36
1558.08
1556.78
1555.42
1554.03
1552.58
1551.09
1549.53
1547.9
1546.19
1544.37
1542.43
1540.35
1538.13
1535.75
1533.21
1530.51
1527.66
1524.68
1521.54
1518.13
1514.48
1510.4
1505.88
1500.69
1494.78
1488.42
1481.74
1474.68
1467.29
1459.45
1451.21
1442.5
1433.31
1423.36
1412.87
1401.48
1389.32
1376.14
1361.96
1346.62
1330.06
1312.19
1292.92
1272.19
1249.87
1225.89
1199.96
1171.36
1138.81
1099.15
1050.97
990.074
909.556
809.037
699.653
584.514
535.293
555.821
721.682
886.711
939.915
865.784
324.752
176.627
119.711
95.2739
82.3242
76.0598
73.0821
72.1068
73.9373
80.7547
96.9784
118.45
155.515
206.244
270.74
348.358
443.681
560.678
611.301
693.096
329.189
219.133
154.341
121.79
104.081
92.8841
87.3934
85.4471
87.324
99.2694
115.203
143.921
183.904
236.989
299.084
371.685
459.204
545.357
569.684
544.653
318.797
242.353
180.243
147.661
125.428
111.797
105.849
104.147
108.365
119.904
143.428
173.915
217.786
268.616
325.454
389.882
462.742
515.312
523.861
444.731
305.233
256.343
198.153
171.157
146.063
133.954
128.279
126.698
130.918
153.405
176.889
213.046
255.503
301.233
351.612
406.183
455.686
475.158
475.409
388.302
300.502
266.363
214.718
192.021
168.663
159.04
155.224
154.914
174.239
194.696
221.933
256.458
291.912
330.091
370.428
410.329
433.34
427.526
428.326
360.165
300.424
273.878
232.001
214.463
200.766
197.021
196.916
210.799
226.959
246.984
271.664
298.609
326.126
355.625
383.735
399.298
397.654
368.801
382.631
352.338
312.806
295.958
272.626
265.366
262.733
262.331
269.053
278.29
290.398
305.287
321.765
338.921
355.478
370.03
376.947
375.524
344.523
301.04
348.853
386.767
374.982
371.1
361.317
356.61
351.05
348.848
348.321
350.558
354.911
359.306
364.157
366.897
367.941
366.614
358.355
331.807
277.666
231.814
331.457
499.017
483.786
476.37
457.438
448.532
434.168
427.119
417.441
412.253
404.212
397.749
388.603
378.08
365.482
349.19
316.48
267.373
202.171
160.986
326.331
562.758
541.352
531.681
508.608
497.556
478.899
468.617
451.787
440.223
423.33
409.179
389.993
369.933
341.175
301.595
251.277
197.518
144.473
119.678
329.938
543.951
523.826
514.793
493.091
482.731
465.39
456.105
441.194
431.033
416.425
403.946
387.436
369.702
345.131
309.315
259.423
203.681
145.813
118.348
328.319
457.239
446.124
440.586
424.673
417.409
406.508
401.272
395.645
392.865
389.474
386
381.348
374.315
364.811
353.443
326.842
278.516
211.004
171.661
325.91
358.579
343.392
338.366
330.463
327.089
324.018
323.193
325.892
330.765
338.352
346.392
354.674
362.407
366.265
367.637
363.407
340.203
287.347
239.687
326.941
336.471
296.592
279.059
253.83
245.409
242.426
242.231
250.593
261.317
275.304
292.665
311.482
331.757
351.911
370.497
379.759
381.051
352.792
308.228
336.586
346.595
288.02
262.142
220.915
203.505
188.976
184.613
184.117
197.85
215.091
236.554
262.865
291.706
321.436
353.585
385.548
403.709
404.953
374.774
370.576
374.286
289.161
255.902
206.17
184.232
161.392
151.727
147.634
147.025
164.983
186.33
214.336
250.188
287.4
327.477
369.96
413.953
438.863
434.212
420.962
429.308
293.835
246.08
189.916
163.758
139.993
128.479
123.128
121.671
125.861
146.967
171.081
207.373
250.964
298.392
350.61
407.418
460.344
480.848
472.425
531.372
308.065
233.56
173.641
141.864
120.341
107.357
101.664
100.078
104.582
115.935
138.866
169.704
213.578
265.533
323.862
390.52
466.957
518.987
523.694
686.558
317.952
211.143
148.175
116.933
99.825
89.4914
84.3919
82.598
84.5955
96.0444
111.987
140.428
180.526
233.972
297.081
370.992
460.88
548.674
571.332
863.339
313.376
170.619
115.685
92.0331
79.5599
73.1647
70.4631
69.6805
72.0294
78.6758
94.2624
115.907
152.56
203.543
268.683
347.526
444.585
563.198
613.621
646.054
32.1745
12.7363
11.3229
11.19
11.171
11.1705
11.1708
11.1706
11.1705
11.1705
11.1706
11.1708
11.1705
11.171
11.19
11.3229
12.7363
32.1745
646.054
672.74
55.0627
17.0386
12.0869
11.3039
11.1803
11.1547
11.1529
11.1534
11.1536
11.1536
11.1534
11.1529
11.1547
11.1803
11.3039
12.0869
17.0385
55.0626
672.74
698.453
71.0935
21.1542
13.3033
11.5874
11.2261
11.1552
11.1382
11.1358
11.1355
11.1355
11.1358
11.1382
11.1552
11.2261
11.5874
13.3033
21.1542
71.0934
698.453
723.138
85.8513
25.1371
14.6462
12.0431
11.3371
11.1684
11.1265
11.1183
11.1171
11.1171
11.1183
11.1265
11.1684
11.3371
12.0431
14.6462
25.1371
85.8512
723.138
746.743
101.867
29.2065
16.0659
12.5885
11.5234
11.2064
11.1273
11.105
11.1003
11.1003
11.105
11.1273
11.2064
11.5234
12.5885
16.0659
29.2065
101.867
746.743
769.308
118.431
33.3666
17.5405
13.1971
11.7624
11.283
11.1366
11.0944
11.0843
11.0843
11.0944
11.1366
11.283
11.7624
13.1971
17.5405
33.3666
118.431
769.308
790.728
134.967
37.5675
19.051
13.8502
12.0431
11.3872
11.16
11.0918
11.0718
11.0718
11.0918
11.16
11.3872
12.0431
13.8502
19.0511
37.5676
134.968
790.728
810.984
151.252
41.7803
20.5852
14.5352
12.3571
11.5178
11.2031
11.0955
11.0625
11.0625
11.0955
11.2031
11.5178
12.3571
14.5352
20.5852
41.7804
151.252
810.984
829.955
167.079
45.9693
22.1304
15.2423
12.6969
11.6708
11.2604
11.1065
11.0594
11.0594
11.1065
11.2604
11.6708
12.6969
15.2423
22.1304
45.9694
167.08
829.955
847.652
182.4
50.1207
23.6796
15.9647
13.0568
11.8431
11.3324
11.129
11.0619
11.0619
11.129
11.3324
11.8431
13.0568
15.9647
23.6797
50.1208
182.401
847.652
863.99
197.095
54.2103
25.2247
16.6968
13.4321
12.0315
11.4179
11.1609
11.0697
11.0697
11.1609
11.4179
12.0315
13.4321
16.6968
25.2247
54.2105
197.096
863.99
879.013
211.155
58.2321
26.7618
17.4347
13.8192
12.2335
11.5156
11.2021
11.0862
11.0862
11.2021
11.5156
12.2335
13.8193
17.4347
26.7619
58.2323
211.156
879.013
892.664
224.492
62.1654
28.2845
18.1745
14.2149
12.4467
11.6242
11.2528
11.1113
11.1113
11.2528
11.6242
12.4467
14.2149
18.1745
28.2846
62.1656
224.492
892.663
905.026
237.119
66.009
29.7908
18.9141
14.6169
12.6691
11.7427
11.3126
11.1446
11.1446
11.3126
11.7427
12.6691
14.617
18.9141
29.7908
66.0092
237.119
905.026
916.067
248.97
69.7457
31.2754
19.6506
15.023
12.899
11.8698
11.381
11.1861
11.1861
11.381
11.8698
12.899
15.0231
19.6507
31.2755
69.7459
248.97
916.067
925.904
260.09
73.3779
32.7378
20.3829
15.4318
13.1351
12.0048
11.4576
11.2357
11.2357
11.4576
12.0048
13.1352
15.4319
20.383
32.7379
73.3781
260.09
925.904
934.513
270.424
76.8908
34.1734
21.1088
15.8418
13.3762
12.1466
11.5418
11.293
11.293
11.5418
12.1466
13.3762
15.8418
21.1088
34.1735
76.8909
270.424
934.512
942.037
280.036
80.2891
35.5825
21.8276
16.2519
13.6211
12.2944
11.6331
11.3579
11.3579
11.6331
12.2944
13.6211
16.2519
21.8276
35.5825
80.2892
280.036
942.036
948.451
288.886
83.5605
36.9608
22.5374
16.661
13.8691
12.4475
11.7309
11.4299
11.4299
11.7309
12.4475
13.8691
16.661
22.5375
36.9608
83.5606
288.886
948.45
953.925
297.051
86.712
38.3096
23.2382
17.0685
14.1193
12.6053
11.8348
11.5085
11.5085
11.8348
12.6053
14.1194
17.0685
23.2383
38.3096
86.7121
297.051
953.924
958.416
304.505
89.7342
39.625
23.9283
17.4735
14.3712
12.7671
11.9442
11.5934
11.5934
11.9442
12.7671
14.3712
17.4735
23.9283
39.6251
89.7343
304.505
958.416
962.12
311.327
92.6352
40.9091
24.6079
17.8756
14.6241
12.9325
12.0587
11.684
11.684
12.0587
12.9325
14.6242
17.8757
24.608
40.9092
92.6353
311.326
962.12
964.967
317.505
95.4079
42.1581
25.2755
18.2742
14.8776
13.1009
12.1777
11.78
11.78
12.1777
13.1009
14.8776
18.2742
25.2755
42.1581
95.408
317.504
964.966
967.18
323.104
98.0613
43.3748
25.9317
18.669
15.1313
13.2719
12.3009
11.8809
11.8809
12.3009
13.2719
15.1313
18.669
25.9318
43.3749
98.0615
323.104
967.179
968.649
328.146
100.59
44.5556
26.575
19.0593
15.3846
13.445
12.4277
11.9862
11.9862
12.4277
13.445
15.3846
19.0593
26.575
44.5556
100.59
328.146
968.648
969.635
332.656
103.004
45.704
27.2062
19.4452
15.6374
13.62
12.5579
12.0955
12.0955
12.5579
13.62
15.6374
19.4452
27.2063
45.7042
103.005
332.655
969.634
969.97
336.703
105.3
46.8164
27.824
19.8261
15.8892
13.7964
12.691
12.2085
12.2085
12.691
13.7964
15.8892
19.8261
27.824
46.8163
105.3
336.703
969.969
969.834
340.244
107.487
47.897
28.4295
20.202
16.14
13.974
12.8267
12.3248
12.3248
12.8267
13.9741
16.14
20.2021
28.4296
47.8972
107.487
340.243
969.833
969.425
343.4
109.562
48.9419
29.0212
20.5725
16.3892
14.1525
12.9646
12.4441
12.4441
12.9646
14.1525
16.3892
20.5725
29.0212
48.9418
109.561
343.4
969.424
968.579
346.143
111.538
49.9563
29.6005
20.9378
16.6369
14.3316
13.1045
12.5659
12.5659
13.1045
14.3316
16.637
20.9379
29.6006
49.9565
111.538
346.142
968.578
967.379
348.531
113.407
50.9359
30.1661
21.2973
16.8828
14.5111
13.2461
12.69
12.69
13.2461
14.5111
16.8828
21.2973
30.166
50.9356
113.406
348.531
967.378
965.891
350.555
115.186
51.8865
30.7193
21.6514
17.1267
14.6907
13.389
12.8161
12.8161
13.389
14.6907
17.1267
21.6515
30.7194
51.8867
115.187
350.553
965.89
964.156
352.263
116.865
52.8037
31.259
21.9996
17.3685
14.8702
13.5331
12.944
12.944
13.5331
14.8702
17.3684
21.9995
31.2588
52.8033
116.865
352.262
964.155
962.205
353.661
118.463
53.6935
31.7865
22.3421
17.608
15.0495
13.6782
13.0733
13.0733
13.6782
15.0495
17.608
22.3422
31.7866
53.6937
118.463
353.659
962.204
960.074
354.765
119.966
54.5516
32.3009
22.6788
17.8451
15.2284
13.8239
13.2039
13.2039
13.8239
15.2283
17.8451
22.6787
32.3007
54.5512
119.966
354.764
960.073
957.789
355.616
121.397
55.3843
32.8035
23.0097
18.0798
15.4067
13.9702
13.3355
13.3355
13.9702
15.4067
18.0798
23.0098
32.8036
55.3845
121.397
355.615
957.788
955.382
356.174
122.738
56.1871
33.2934
23.3348
18.3119
15.5842
14.1168
13.468
13.468
14.1168
15.5842
18.3118
23.3347
33.2932
56.1866
122.737
356.173
955.381
952.87
356.558
124.013
56.9663
33.7719
23.6542
18.5414
15.761
14.2636
13.601
13.601
14.2636
15.761
18.5414
23.6543
33.7721
56.9667
124.014
356.557
952.869
950.287
356.612
125.207
57.7182
34.2386
23.9678
18.7682
15.9367
14.4103
13.7346
13.7346
14.4103
15.9367
18.7681
23.9677
34.2382
57.7174
125.206
356.612
950.286
947.635
356.521
126.338
58.4475
34.694
24.2757
18.9922
16.1114
14.557
13.8684
13.8684
14.557
16.1114
18.9922
24.2759
34.6944
58.4484
126.339
356.52
947.635
944.958
356.291
127.397
59.1535
35.1389
24.5782
19.2135
16.2849
14.7033
14.0024
14.0024
14.7033
16.2848
19.2134
24.578
35.1383
59.1519
127.394
356.291
944.958
942.243
355.824
128.4
59.8365
35.5723
24.8748
19.4318
16.4571
14.8493
14.1364
14.1364
14.8493
16.4571
19.4319
24.8751
35.573
59.8383
128.403
355.819
942.243
939.541
355.239
129.343
60.5021
35.997
25.1666
19.6475
16.628
14.9948
14.2703
14.2703
14.9948
16.6279
19.6474
25.1662
35.996
60.4996
129.338
355.244
939.54
936.819
354.51
130.241
61.1451
36.4101
25.4524
19.8602
16.7975
15.1397
14.404
14.404
15.1397
16.7975
19.8604
25.4527
36.4111
61.1478
130.247
354.503
936.82
934.147
353.718
131.11
61.7782
36.816
25.7336
20.0702
16.9655
15.2839
14.5373
14.5373
15.2838
16.9654
20.0701
25.7333
36.815
61.7754
131.103
353.723
934.145
931.464
352.876
131.976
62.3957
37.2117
26.0095
20.2774
17.132
15.4273
14.6702
14.6702
15.4274
17.1321
20.2775
26.0098
37.2123
62.3978
131.981
352.87
931.466
928.862
352.022
132.879
63.0157
37.6004
26.2805
20.4816
17.2969
15.5699
14.8026
14.8025
15.5698
17.2968
20.4815
26.2804
37.6001
63.0143
132.874
352.026
928.86
926.331
351.165
133.817
63.6365
37.9831
26.5475
20.6833
17.4603
15.7116
14.9344
14.9344
15.7116
17.4604
20.6834
26.5475
37.983
63.6367
133.819
351.162
926.333
923.874
350.422
134.847
64.2653
38.3588
26.8092
20.8819
17.6219
15.8522
15.0654
15.0654
15.8521
17.6219
20.8819
26.8092
38.3592
64.2662
134.847
350.425
923.872
921.482
349.754
135.971
64.9109
38.733
27.0681
21.0784
17.7821
15.9919
15.1958
15.1958
15.992
17.7822
21.0785
27.0681
38.7326
64.9093
135.968
349.752
921.484
919.158
349.292
137.194
65.566
39.1015
27.322
21.2717
17.9404
16.1304
15.3253
15.3252
16.1303
17.9403
21.2716
27.322
39.102
65.5684
137.199
349.295
919.155
916.894
348.942
138.527
66.2447
39.4712
27.5739
21.4632
18.0973
16.2679
15.454
15.4541
16.268
18.0975
21.4634
27.5742
39.4711
66.243
138.523
348.942
916.896
914.696
348.851
139.943
66.9345
39.8374
27.8217
21.6517
18.2523
16.4041
15.5817
15.5816
16.404
18.2521
21.6514
27.8213
39.8375
66.9365
139.949
348.853
914.693
912.557
348.916
141.456
67.6479
40.2064
28.0681
21.8385
18.406
16.5394
15.7086
15.7087
16.5395
18.4063
21.8391
28.0689
40.2072
67.6477
141.454
348.918
912.558
910.482
349.098
143.029
68.3724
40.5734
28.311
22.0225
18.5577
16.6731
15.8342
15.8342
16.673
18.5574
22.022
28.3102
40.5729
68.3735
143.034
349.103
910.478
908.467
349.472
144.67
69.1192
40.9448
28.5534
22.2053
18.7082
16.806
15.9592
15.9593
16.8063
18.7087
22.2062
28.555
40.9468
69.1207
144.669
349.467
908.468
906.516
349.988
146.347
69.8741
41.3149
28.7928
22.3854
18.8567
16.9373
16.0827
16.0826
16.9371
18.8563
22.3847
28.7916
41.3136
69.8748
146.353
350.005
906.51
904.625
350.631
148.072
70.65
41.6902
29.0323
22.5645
19.0042
17.0677
16.2056
16.2058
17.0681
19.005
22.5661
29.0349
41.6941
70.6536
148.072
350.629
904.626
902.798
351.375
149.811
71.431
42.0649
29.2693
22.7413
19.1497
17.1965
16.3268
16.3268
17.1962
19.1491
22.7402
29.2674
42.0627
71.432
149.823
351.396
902.789
901.03
352.21
151.576
72.2307
42.4453
29.5069
22.9172
19.2942
17.3245
16.4477
16.4479
17.3252
19.2956
22.9196
29.5112
42.4519
72.2374
151.575
352.214
901.029
899.325
353.115
153.339
73.0319
42.8248
29.7424
23.091
19.4369
17.4507
16.5665
16.5665
17.4505
19.4363
23.0896
29.7399
42.8218
73.0338
153.359
353.144
899.312
897.679
354.082
155.113
73.8506
43.2107
29.9788
23.2642
19.5788
17.5764
16.6853
16.6856
17.5774
19.5807
23.2678
29.9853
43.2213
73.8635
155.118
354.101
897.672
896.093
355.094
156.867
74.6656
43.5951
30.2135
23.4355
19.7187
17.7001
16.8017
16.8017
17.6999
19.7181
23.4341
30.2109
43.592
74.6681
156.89
355.134
896.075
894.567
356.144
158.622
75.497
43.9858
30.449
23.6062
19.858
17.8235
16.9184
16.9188
17.8249
19.8609
23.6115
30.4585
44.0018
75.5203
158.649
356.188
894.55
893.096
357.218
160.344
76.321
44.3752
30.6834
23.7753
19.9955
17.9447
17.0324
17.0324
17.9446
19.9951
23.7742