/*--------------------------------*- C++ -*----------------------------------*\
| =========                 |                                                 |
| \\      /  F ield         | OpenFOAM: The Open Source CFD Toolbox           |
|  \\    /   O peration     | Version:  2.1.0                                 |
|   \\  /    A nd           | Web:      www.OpenFOAM.org                      |
|    \\/     M anipulation  |                                                 |
\*---------------------------------------------------------------------------*/
FoamFile
{
    version     2.0;
    format      ascii;
    class       volScalarField;
    location    "0.31";
    object      p;
}
// * * * * * * * * * * * * * * * * * * * * * * * * * * * * * * * * * * * * * //

dimensions      [1 -1 -2 0 0 0 0];

internalField   nonuniform List<scalar> 
6400
(
99997.8
99995.4
99993.6
99992.1
99990.8
99989.5
99988.2
99986.9
99985.6
99984.2
99982.7
99981.2
99979.6
99978
99976.3
99974.5
99972.6
99970.7
99968.7
99966.5
99964.4
99962.1
99959.7
99957.3
99954.8
99952.2
99949.5
99946.7
99943.8
99940.9
99937.8
99934.6
99931.4
99928
99924.5
99921
99917.3
99913.5
99909.5
99905.5
99901.3
99897
99892.5
99888
99883.2
99878.3
99873.3
99868.1
99862.7
99857.1
99851.3
99845.4
99839.2
99832.9
99826.3
99819.5
99812.5
99805.3
99797.9
99790.2
99782.2
99774
99765.5
99756.6
99747.5
99738.1
99728.3
99718.2
99707.7
99696.8
99685.5
99673.8
99661.7
99649.1
99636
99622.4
99608.3
99593.6
99578.3
99562.4
99545.8
99528.3
99510
99490.7
99470.2
99448.1
99424.4
99398.5
99370
99338.8
99304.9
99269.4
99234.5
99201.5
99169.8
99134.2
99076.9
98961.7
98590.7
96983.3
99996.2
99994.7
99993.1
99991.7
99990.4
99989.1
99987.8
99986.5
99985.2
99983.8
99982.3
99980.8
99979.2
99977.6
99975.9
99974.1
99972.2
99970.2
99968.2
99966.1
99963.9
99961.6
99959.3
99956.8
99954.3
99951.7
99949
99946.2
99943.3
99940.4
99937.3
99934.1
99930.9
99927.5
99924
99920.4
99916.7
99912.9
99909
99904.9
99900.7
99896.4
99892
99887.4
99882.7
99877.8
99872.7
99867.5
99862.1
99856.5
99850.8
99844.8
99838.7
99832.4
99825.8
99819.1
99812.1
99804.9
99797.4
99789.7
99781.8
99773.6
99765.1
99756.3
99747.2
99737.8
99728
99717.9
99707.4
99696.6
99685.3
99673.7
99661.6
99649
99635.9
99622.4
99608.3
99593.6
99578.3
99562.4
99545.8
99528.4
99510.1
99490.8
99470.2
99448.2
99424.5
99398.7
99370.4
99339.5
99305.9
99270.7
99235.7
99203
99174.5
99144.3
99092.8
98991.9
98691.3
98137.4
99994.7
99993.9
99992.6
99991.3
99990.1
99988.8
99987.6
99986.3
99985
99983.6
99982.1
99980.6
99979
99977.4
99975.7
99973.9
99972
99970
99968
99965.9
99963.7
99961.4
99959.1
99956.6
99954.1
99951.5
99948.8
99946
99943.2
99940.2
99937.1
99934
99930.7
99927.3
99923.9
99920.3
99916.6
99912.8
99908.9
99904.8
99900.7
99896.4
99891.9
99887.4
99882.6
99877.8
99872.7
99867.6
99862.2
99856.7
99851
99845
99839
99832.7
99826.2
99819.4
99812.5
99805.3
99797.9
99790.3
99782.4
99774.2
99765.7
99757
99747.9
99738.6
99728.9
99718.9
99708.5
99697.7
99686.5
99674.9
99662.9
99650.5
99637.5
99624.1
99610.1
99595.5
99580.4
99564.6
99548
99530.7
99512.5
99493.3
99472.8
99451
99427.4
99401.8
99373.9
99343.6
99311.2
99277.7
99245.2
99215.8
99191
99163.5
99127.7
99065.8
98909.7
99000
99992.9
99993
99992.2
99991.1
99990
99988.8
99987.6
99986.3
99985
99983.6
99982.2
99980.7
99979.1
99977.5
99975.8
99974
99972.1
99970.2
99968.2
99966.1
99963.9
99961.7
99959.3
99956.9
99954.4
99951.8
99949.1
99946.4
99943.5
99940.6
99937.5
99934.4
99931.1
99927.8
99924.3
99920.8
99917.1
99913.3
99909.4
99905.4
99901.2
99897
99892.6
99888
99883.3
99878.5
99873.5
99868.4
99863.1
99857.6
99851.9
99846.1
99840
99833.8
99827.3
99820.6
99813.7
99806.6
99799.2
99791.6
99783.8
99775.7
99767.3
99758.6
99749.6
99740.3
99730.6
99720.7
99710.3
99699.6
99688.4
99676.9
99664.9
99652.4
99639.5
99626
99612
99597.4
99582.2
99566.3
99549.7
99532.2
99513.8
99494.4
99473.7
99451.7
99428
99402.5
99375
99345.5
99314.6
99283.8
99255.3
99231
99212.8
99200.1
99194.7
99199.5
99226.2
99646.9
99991
99992.1
99991.8
99991
99990
99989
99987.8
99986.6
99985.3
99984
99982.6
99981.1
99979.5
99977.9
99976.2
99974.4
99972.6
99970.7
99968.7
99966.6
99964.5
99962.2
99959.9
99957.5
99955.1
99952.5
99949.8
99947.1
99944.2
99941.3
99938.3
99935.2
99931.9
99928.6
99925.2
99921.6
99918
99914.2
99910.4
99906.4
99902.2
99898
99893.6
99889.1
99884.4
99879.6
99874.6
99869.5
99864.2
99858.7
99853.1
99847.3
99841.2
99835
99828.6
99821.9
99815
99807.9
99800.6
99793
99785.1
99777
99768.6
99759.9
99750.9
99741.6
99731.9
99721.9
99711.5
99700.7
99689.5
99677.9
99665.8
99653.3
99640.3
99626.7
99612.6
99597.9
99582.5
99566.5
99549.6
99532
99513.4
99493.8
99473
99450.8
99427.1
99401.7
99374.7
99346.4
99317.6
99290.4
99267.1
99250.1
99243.2
99253.1
99290.1
99382.3
99580.7
100157
99989
99991.1
99991.4
99991
99990.2
99989.3
99988.2
99987.1
99985.8
99984.5
99983.1
99981.6
99980.1
99978.5
99976.8
99975.1
99973.2
99971.3
99969.3
99967.3
99965.1
99962.9
99960.6
99958.3
99955.8
99953.2
99950.6
99947.8
99945
99942.1
99939.1
99936
99932.8
99929.4
99926
99922.5
99918.9
99915.1
99911.2
99907.2
99903.1
99898.9
99894.5
99889.9
99885.3
99880.4
99875.5
99870.3
99865
99859.5
99853.9
99848
99842
99835.7
99829.2
99822.6
99815.7
99808.5
99801.2
99793.5
99785.6
99777.5
99769.1
99760.3
99751.3
99742
99732.3
99722.2
99711.8
99701
99689.8
99678.1
99666
99653.4
99640.3
99626.7
99612.5
99597.6
99582.1
99565.9
99549
99531.1
99512.3
99492.5
99471.4
99449.1
99425.4
99400.2
99373.9
99346.8
99320.4
99296.9
99279.4
99270.9
99278.5
99315.4
99401.9
99586.8
99921.6
100557
99987.3
99990.2
99991.1
99991
99990.4
99989.6
99988.6
99987.5
99986.3
99985
99983.6
99982.2
99980.6
99979
99977.3
99975.6
99973.7
99971.8
99969.9
99967.8
99965.7
99963.4
99961.1
99958.8
99956.3
99953.7
99951.1
99948.3
99945.5
99942.6
99939.5
99936.4
99933.2
99929.9
99926.4
99922.9
99919.2
99915.5
99911.6
99907.6
99903.4
99899.2
99894.8
99890.2
99885.5
99880.7
99875.7
99870.5
99865.2
99859.7
99854
99848.2
99842.1
99835.8
99829.3
99822.7
99815.7
99808.6
99801.2
99793.6
99785.7
99777.5
99769.1
99760.4
99751.3
99742
99732.3
99722.2
99711.8
99701
99689.7
99678
99665.9
99653.3
99640.1
99626.4
99612.1
99597.2
99581.6
99565.3
99548.1
99530
99511
99490.9
99469.6
99447.2
99423.4
99398.5
99372.7
99346.9
99322.6
99302.6
99290.7
99290.9
99313.8
99378.2
99514.2
99783.2
100215
100860
99985.8
99989.4
99990.6
99990.8
99990.5
99989.8
99988.8
99987.8
99986.6
99985.3
99983.9
99982.4
99980.9
99979.3
99977.6
99975.8
99974
99972.1
99970.1
99968
99965.9
99963.7
99961.3
99958.9
99956.4
99953.9
99951.2
99948.4
99945.6
99942.7
99939.6
99936.5
99933.2
99929.9
99926.4
99922.9
99919.2
99915.4
99911.5
99907.5
99903.3
99899.1
99894.6
99890.1
99885.4
99880.5
99875.5
99870.4
99865
99859.5
99853.9
99848
99841.9
99835.7
99829.2
99822.5
99815.6
99808.5
99801.1
99793.5
99785.6
99777.4
99769
99760.3
99751.3
99741.9
99732.2
99722.2
99711.8
99700.9
99689.7
99678
99665.9
99653.2
99640
99626.2
99611.9
99596.8
99581.1
99564.6
99547.3
99529
99509.7
99489.4
99467.9
99445.2
99421.4
99396.6
99371.4
99346.6
99324.2
99306.9
99299.6
99307.6
99343.9
99432.6
99611.2
99947.3
100442
101076
99984.8
99988.8
99990.3
99990.6
99990.4
99989.8
99988.9
99987.8
99986.6
99985.3
99983.9
99982.5
99980.9
99979.3
99977.6
99975.8
99974
99972
99970.1
99968
99965.8
99963.6
99961.2
99958.8
99956.3
99953.7
99951.1
99948.3
99945.4
99942.5
99939.4
99936.3
99933
99929.7
99926.2
99922.7
99919
99915.2
99911.3
99907.2
99903.1
99898.8
99894.4
99889.8
99885.1
99880.3
99875.3
99870.1
99864.8
99859.3
99853.7
99847.8
99841.8
99835.5
99829.1
99822.4
99815.5
99808.4
99801
99793.4
99785.6
99777.4
99769
99760.3
99751.3
99742
99732.3
99722.3
99711.8
99701
99689.8
99678.1
99665.9
99653.2
99640
99626.1
99611.7
99596.6
99580.7
99564
99546.5
99528
99508.6
99487.9
99466.2
99443.3
99419.4
99394.7
99369.8
99345.8
99324.7
99309.4
99305.1
99319
99365.2
99471.4
99680.5
100062
100592
101214
99984.3
99988.4
99990
99990.5
99990.3
99989.7
99988.8
99987.8
99986.6
99985.3
99983.9
99982.4
99980.8
99979.2
99977.5
99975.7
99973.9
99971.9
99969.9
99967.9
99965.7
99963.4
99961.1
99958.7
99956.2
99953.6
99950.9
99948.1
99945.3
99942.3
99939.3
99936.1
99932.9
99929.5
99926.1
99922.5
99918.8
99915.1
99911.2
99907.1
99903
99898.7
99894.3
99889.7
99885.1
99880.2
99875.2
99870.1
99864.8
99859.3
99853.6
99847.8
99841.7
99835.5
99829.1
99822.4
99815.5
99808.4
99801.1
99793.5
99785.6
99777.5
99769.1
99760.5
99751.5
99742.1
99732.5
99722.4
99712
99701.2
99690
99678.3
99666.1
99653.3
99640.1
99626.2
99611.7
99596.4
99580.5
99563.7
99546
99527.3
99507.6
99486.7
99464.6
99441.6
99417.6
99392.8
99368.1
99344.5
99324
99309.8
99307
99323.9
99375.6
99490
99714.9
100119
100666
101281
99984.1
99988.4
99990
99990.5
99990.3
99989.7
99988.9
99987.8
99986.7
99985.4
99984
99982.5
99980.9
99979.3
99977.6
99975.8
99974
99972.1
99970
99968
99965.8
99963.6
99961.2
99958.8
99956.3
99953.7
99951
99948.3
99945.4
99942.5
99939.4
99936.3
99933
99929.7
99926.2
99922.6
99919
99915.2
99911.3
99907.2
99903.1
99898.8
99894.4
99889.8
99885.2
99880.3
99875.3
99870.2
99864.9
99859.4
99853.7
99847.9
99841.9
99835.6
99829.2
99822.6
99815.7
99808.6
99801.3
99793.7
99785.9
99777.9
99769.5
99760.7
99751.8
99742.4
99732.8
99722.7
99712.3
99701.5
99690.3
99678.6
99666.4
99653.6
99640.3
99626.4
99611.8
99596.5
99580.4
99563.5
99545.6
99526.8
99506.9
99485.8
99463.7
99440.2
99415.9
99390.9
99366.1
99342.5
99322.2
99308
99305.2
99322.2
99374.1
99488.5
99712.5
100115
100662
101277
99984.4
99988.6
99990.2
99990.6
99990.4
99989.8
99988.9
99987.9
99986.7
99985.4
99984
99982.6
99981
99979.4
99977.7
99976
99974.2
99972.2
99970.3
99968.2
99966.1
99963.9
99961.6
99959.2
99956.7
99954.1
99951.5
99948.7
99945.9
99942.9
99939.9
99936.8
99933.5
99930.2
99926.7
99923.2
99919.5
99915.7
99911.8
99907.8
99903.6
99899.3
99894.9
99890.3
99885.6
99880.7
99875.7
99870.6
99865.2
99859.7
99854.1
99848.2
99842.2
99836
99829.5
99822.9
99816
99808.9
99801.6
99794.1
99786.3
99778.2
99769.8
99761.1
99752.1
99742.8
99733.1
99723.1
99712.7
99701.9
99690.7
99678.9
99666.7
99654
99640.6
99626.6
99612
99596.6
99580.4
99563.3
99545.3
99526.3
99506.1
99484.9
99462.4
99438.7
99414
99388.7
99363.5
99339.6
99318.6
99303.5
99299.1
99313.2
99360
99464.8
99671.5
100049
100578
101200
99985.3
99989.2
99990.5
99990.7
99990.4
99989.7
99988.8
99987.7
99986.5
99985.2
99983.9
99982.4
99980.9
99979.3
99977.6
99975.9
99974.1
99972.2
99970.2
99968.2
99966.1
99963.9
99961.6
99959.2
99956.8
99954.2
99951.6
99948.8
99946
99943.1
99940.1
99937
99933.8
99930.4
99927
99923.4
99919.8
99916
99912.1
99908.1
99903.9
99899.6
99895.2
99890.7
99885.9
99881.1
99876.1
99870.9
99865.6
99860.1
99854.4
99848.6
99842.5
99836.3
99829.9
99823.2
99816.4
99809.3
99802
99794.4
99786.6
99778.5
99770.1
99761.5
99752.5
99743.2
99733.5
99723.5
99713.1
99702.3
99691
99679.3
99667.1
99654.3
99640.9
99626.9
99612.2
99596.7
99580.4
99563.2
99545.1
99525.9
99505.5
99484
99461.3
99437.3
99412.2
99386.5
99360.7
99336
99314
99297.1
99289.5
99298.3
99335.2
99421.9
99596.5
99926.4
100417
101053
99986.7
99989.9
99990.8
99990.7
99990.2
99989.4
99988.5
99987.4
99986.2
99984.9
99983.5
99982.1
99980.5
99978.9
99977.3
99975.5
99973.7
99971.9
99969.9
99967.9
99965.8
99963.6
99961.3
99958.9
99956.5
99953.9
99951.3
99948.6
99945.8
99942.9
99939.9
99936.8
99933.6
99930.3
99926.9
99923.3
99919.7
99915.9
99912
99908
99903.9
99899.6
99895.2
99890.7
99886
99881.2
99876.2
99871
99865.7
99860.3
99854.6
99848.8
99842.7
99836.5
99830.1
99823.5
99816.6
99809.6
99802.3
99794.7
99786.9
99778.8
99770.5
99761.8
99752.8
99743.5
99733.9
99723.9
99713.5
99702.7
99691.5
99679.7
99667.5
99654.7
99641.3
99627.3
99612.5
99597
99580.6
99563.3
99545.1
99525.7
99505.2
99483.5
99460.5
99436.2
99410.7
99384.4
99357.8
99332
99308.6
99289.3
99277.6
99279
99302.6
99364.7
99495.7
99756.9
100183
100827
99988.5
99990.7
99991.1
99990.7
99990
99989.1
99988.1
99986.9
99985.7
99984.3
99982.9
99981.5
99980
99978.4
99976.7
99974.9
99973.1
99971.2
99969.3
99967.2
99965.1
99962.9
99960.6
99958.3
99955.8
99953.3
99950.7
99947.9
99945.1
99942.2
99939.2
99936.1
99932.9
99929.6
99926.2
99922.7
99919.1
99915.3
99911.4
99907.4
99903.3
99899.1
99894.7
99890.2
99885.5
99880.7
99875.8
99870.7
99865.4
99859.9
99854.3
99848.5
99842.5
99836.3
99830
99823.4
99816.6
99809.5
99802.3
99794.8
99787
99778.9
99770.6
99762
99753.1
99743.8
99734.2
99724.2
99713.9
99703.1
99691.9
99680.2
99667.9
99655.2
99641.8
99627.7
99612.9
99597.4
99581
99563.6
99545.2
99525.8
99505.1
99483.2
99459.9
99435.4
99409.5
99382.6
99355
99327.9
99302.6
99280.5
99264.4
99257.7
99266.2
99300.8
99381.8
99557.8
99883.9
100516
99990.4
99991.7
99991.5
99990.8
99989.8
99988.8
99987.7
99986.4
99985.2
99983.8
99982.4
99980.9
99979.4
99977.8
99976.1
99974.3
99972.5
99970.6
99968.6
99966.5
99964.4
99962.2
99959.9
99957.5
99955
99952.5
99949.8
99947.1
99944.3
99941.4
99938.4
99935.3
99932
99928.7
99925.3
99921.8
99918.1
99914.3
99910.5
99906.5
99902.3
99898.1
99893.7
99889.2
99884.5
99879.7
99874.8
99869.7
99864.4
99859
99853.4
99847.6
99841.6
99835.5
99829.1
99822.6
99815.8
99808.8
99801.6
99794.1
99786.4
99778.4
99770.1
99761.6
99752.7
99743.5
99733.9
99724
99713.7
99703
99691.8
99680.1
99668
99655.2
99641.8
99627.8
99613
99597.5
99581
99563.7
99545.2
99525.7
99504.9
99482.9
99459.5
99434.6
99408.4
99380.8
99352.4
99323.8
99296.4
99271.5
99251.3
99237
99231
99238.8
99270.3
99353.4
99540.7
100109
99992.5
99992.7
99991.9
99990.9
99989.8
99988.6
99987.4
99986.2
99984.9
99983.5
99982.1
99980.6
99979
99977.4
99975.7
99973.9
99972.1
99970.1
99968.1
99966.1
99963.9
99961.7
99959.4
99957
99954.5
99951.9
99949.2
99946.5
99943.6
99940.7
99937.7
99934.5
99931.3
99927.9
99924.5
99920.9
99917.2
99913.4
99909.5
99905.5
99901.4
99897.1
99892.7
99888.1
99883.4
99878.6
99873.6
99868.5
99863.2
99857.7
99852.1
99846.3
99840.3
99834.2
99827.8
99821.2
99814.5
99807.5
99800.2
99792.8
99785
99777.1
99768.8
99760.2
99751.4
99742.2
99732.7
99722.8
99712.5
99701.8
99690.7
99679.1
99667
99654.3
99641
99627
99612.3
99596.8
99580.4
99563
99544.6
99525
99504.3
99482.1
99458.6
99433.6
99407
99378.9
99349.7
99319.8
99290.3
99262.9
99239.1
99219.2
99201.7
99187.2
99176.6
99172.6
99186.9
99592.9
99994.3
99993.5
99992.4
99991.1
99989.9
99988.7
99987.4
99986.2
99984.8
99983.5
99982
99980.5
99978.9
99977.3
99975.6
99973.8
99972
99970
99968
99965.9
99963.8
99961.5
99959.2
99956.8
99954.3
99951.7
99949
99946.3
99943.4
99940.4
99937.3
99934.2
99930.9
99927.6
99924.1
99920.5
99916.8
99913
99909.1
99905
99900.9
99896.5
99892.1
99887.5
99882.8
99878
99873
99867.8
99862.5
99857
99851.3
99845.5
99839.4
99833.2
99826.8
99820.2
99813.3
99806.3
99799
99791.5
99783.7
99775.7
99767.4
99758.8
99749.8
99740.6
99731
99721.1
99710.8
99700
99688.9
99677.2
99665
99652.3
99639
99625
99610.2
99594.7
99578.3
99560.9
99542.4
99522.9
99502.1
99479.9
99456.3
99431.2
99404.4
99376.1
99346.2
99315.4
99284.5
99255.2
99228.7
99206.2
99181.8
99152
99111.7
99041.7
98872.7
98939
99995.8
99994.3
99992.8
99991.4
99990.2
99988.9
99987.7
99986.4
99985
99983.7
99982.2
99980.7
99979.1
99977.5
99975.8
99974
99972.2
99970.2
99968.2
99966.1
99964
99961.7
99959.4
99957
99954.5
99951.9
99949.2
99946.5
99943.6
99940.6
99937.5
99934.4
99931.1
99927.8
99924.3
99920.7
99917
99913.2
99909.2
99905.2
99901
99896.7
99892.2
99887.7
99882.9
99878.1
99873
99867.9
99862.5
99857
99851.3
99845.5
99839.4
99833.2
99826.7
99820
99813.1
99806
99798.7
99791.2
99783.4
99775.3
99766.9
99758.3
99749.3
99740
99730.4
99720.4
99710
99699.2
99687.9
99676.2
99664
99651.1
99637.7
99623.6
99608.7
99593
99576.4
99558.8
99540.2
99520.4
99499.3
99476.9
99453
99427.6
99400.4
99371.6
99341.1
99309.2
99277
99245.9
99217
99191.5
99167.7
99134.1
99077.9
98969.4
98656.1
98063.3
99997.4
99995
99993.3
99991.8
99990.5
99989.3
99988
99986.7
99985.4
99984
99982.6
99981.1
99979.5
99977.9
99976.2
99974.4
99972.6
99970.6
99968.6
99966.6
99964.4
99962.2
99959.9
99957.4
99955
99952.4
99949.7
99946.9
99944.1
99941.1
99938.1
99934.9
99931.6
99928.3
99924.8
99921.2
99917.5
99913.7
99909.8
99905.8
99901.6
99897.3
99892.8
99888.3
99883.5
99878.7
99873.7
99868.5
99863.2
99857.7
99852
99846.1
99840.1
99833.8
99827.4
99820.7
99813.9
99806.8
99799.4
99791.9
99784.1
99776
99767.6
99758.9
99749.9
99740.6
99731
99720.9
99710.6
99699.8
99688.5
99676.8
99664.5
99651.6
99638.2
99624
99609.1
99593.4
99576.8
99559.2
99540.5
99520.6
99499.5
99477.1
99453.1
99427.6
99400.3
99371.3
99340.6
99308.6
99276.3
99245.3
99216.3
99190
99155.3
99117.2
99057.2
98937.2
98555.6
96890.3
100563
101838
102381
102690
102902
103061
103185
103286
103368
103435
103490
103535
103572
103601
103623
103640
103651
103657
103658
103655
100517
101543
102177
102576
102843
103035
103180
103293
103382
103455
103513
103559
103596
103625
103646
103661
103670
103674
103673
103665
100804
101574
102119
102516
102803
103013
103172
103295
103391
103468
103528
103575
103612
103640
103661
103674
103682
103684
103683
103671
101081
101707
102169
102529
102807
103019
103182
103309
103409
103487
103548
103596
103632
103658
103677
103688
103694
103695
103692
103676
101317
101849
102253
102578
102838
103043
103205
103333
103433
103511
103572
103618
103652
103677
103693
103702
103705
103705
103700
103679
101517
101980
102343
102641
102884
103080
103237
103362
103460
103537
103596
103640
103673
103695
103708
103715
103716
103713
103706
103681
101678
102093
102426
102704
102933
103120
103271
103392
103488
103563
103621
103663
103693
103712
103723
103727
103726
103721
103710
103682
101800
102182
102494
102757
102976
103156
103302
103421
103515
103588
103644
103684
103712
103728
103736
103737
103734
103727
103713
103684
101881
102242
102542
102796
103009
103185
103329
103446
103539
103611
103665
103704
103729
103743
103748
103746
103741
103732
103716
103687
101925
102277
102572
102821
103031
103205
103348
103464
103556
103627
103680
103717
103741
103753
103756
103753
103747
103737
103716
103692
101922
102274
102569
102818
103028
103202
103345
103461
103553
103624
103678
103715
103739
103752
103755
103752
103746
103735
103717
103691
101870
102232
102532
102787
103000
103177
103321
103439
103532
103605
103660
103699
103725
103739
103745
103744
103739
103731
103715
103690
101781
102164
102478
102742
102962
103143
103291
103411
103506
103580
103637
103679
103707
103724
103733
103735
103732
103725
103712
103689
101652
102069
102404
102683
102914
103103
103256
103379
103477
103554
103612
103656
103687
103707
103719
103724
103723
103719
103708
103686
101484
101950
102315
102616
102862
103060
103219
103347
103447
103526
103587
103633
103666
103689
103704
103711
103713
103711
103704
103682
101279
101814
102221
102550
102813
103021
103186
103316
103418
103499
103561
103609
103645
103671
103688
103698
103703
103702
103697
103679
101038
101668
102133
102498
102779
102995
103161
103291
103394
103474
103537
103587
103624
103652
103672
103684
103691
103692
103690
103676
100756
101530
102081
102483
102774
102988
103151
103276
103375
103454
103516
103566
103604
103634
103655
103670
103679
103682
103680
103671
100463
101496
102138
102543
102815
103010
103158
103274
103366
103441
103501
103549
103588
103618
103640
103656
103666
103671
103670
103664
100507
101794
102344
102659
102874
103036
103164
103267
103351
103421
103478
103525
103563
103593
103617
103635
103647
103654
103655
103652
103497
103495
103494
103493
103492
103492
103491
103491
103491
103491
103491
103491
103491
103491
103492
103492
103493
103494
103495
103497
103494
103492
103491
103491
103490
103490
103490
103490
103490
103490
103490
103490
103490
103490
103490
103490
103491
103491
103492
103494
103493
103491
103491
103490
103491
103491
103491
103490
103490
103490
103490
103490
103490
103491
103491
103491
103490
103491
103491
103493
103493
103491
103491
103491
103491
103491
103491
103491
103491
103491
103491
103491
103491
103491
103491
103491
103491
103491
103491
103493
103492
103491
103491
103490
103490
103490
103490
103490
103490
103490
103490
103490
103490
103490
103490
103490
103490
103491
103491
103492
103492
103490
103490
103490
103490
103490
103490
103490
103490
103490
103490
103490
103490
103490
103490
103490
103490
103490
103490
103492
103491
103490
103489
103489
103489
103489
103489
103489
103489
103489
103489
103489
103489
103489
103489
103489
103489
103489
103490
103491
103491
103489
103489
103489
103489
103489
103489
103488
103488
103488
103488
103488
103488
103489
103489
103489
103489
103489
103489
103491
103490
103488
103488
103488
103488
103488
103488
103488
103488
103488
103488
103488
103488
103488
103488
103488
103488
103488
103488
103490
103489
103488
103488
103487
103487
103487
103487
103487
103487
103487
103487
103487
103487
103487
103487
103487
103487
103488
103488
103489
103489
103487
103487
103487
103487
103487
103487
103486
103486
103486
103486
103486
103486
103487
103487
103487
103487
103487
103487
103489
103488
103486
103486
103486
103486
103486
103486
103486
103486
103486
103486
103486
103486
103486
103486
103486
103486
103486
103486
103488
103487
103486
103485
103485
103485
103485
103485
103485
103485
103485
103485
103485
103485
103485
103485
103485
103485
103485
103486
103487
103486
103485
103485
103485
103484
103484
103484
103484
103484
103484
103484
103484
103484
103484
103484
103484
103485
103485
103485
103486
103486
103484
103484
103484
103484
103484
103484
103484
103484
103484
103484
103484
103484
103484
103484
103484
103484
103484
103484
103486
103485
103483
103483
103483
103483
103483
103483
103483
103483
103483
103483
103483
103483
103483
103483
103483
103483
103483
103483
103485
103484
103483
103482
103482
103482
103482
103482
103482
103482
103482
103482
103482
103482
103482
103482
103482
103482
103482
103483
103484
103483
103482
103482
103482
103481
103481
103481
103481
103481
103481
103481
103481
103481
103481
103481
103481
103482
103482
103482
103483
103482
103481
103481
103481
103481
103481
103481
103481
103481
103480
103480
103481
103481
103481
103481
103481
103481
103481
103481
103482
103482
103480
103480
103480
103480
103480
103480
103480
103480
103480
103480
103480
103480
103480
103480
103480
103480
103480
103480
103482
103481
103479
103479
103479
103479
103479
103479
103479
103479
103479
103479
103479
103479
103479
103479
103479
103479
103479
103479
103481
103480
103479
103478
103478
103478
103478
103478
103478
103478
103478
103478
103478
103478
103478
103478
103478
103478
103478
103479
103480
103479
103478
103478
103478
103478
103477
103477
103477
103477
103477
103477
103477
103477
103477
103477
103478
103478
103478
103478
103479
103478
103477
103477
103477
103477
103477
103477
103477
103477
103477
103477
103477
103477
103477
103477
103477
103477
103477
103477
103478
103477
103476
103476
103476
103476
103476
103476
103476
103476
103476
103476
103476
103476
103476
103476
103476
103476
103476
103476
103477
103476
103475
103475
103475
103475
103475
103475
103475
103475
103475
103475
103475
103475
103475
103475
103475
103475
103475
103475
103476
103476
103475
103474
103474
103474
103474
103474
103474
103474
103474
103474
103474
103474
103474
103474
103474
103474
103474
103475
103476
103475
103474
103474
103474
103473
103473
103473
103473
103473
103473
103473
103473
103473
103473
103473
103474
103474
103474
103474
103475
103474
103473
103473
103473
103473
103473
103473
103473
103473
103473
103473
103473
103473
103473
103473
103473
103473
103473
103473
103474
103473
103472
103472
103472
103472
103472
103472
103472
103472
103472
103472
103472
103472
103472
103472
103472
103472
103472
103472
103473
103472
103471
103471
103471
103471
103471
103471
103471
103471
103471
103471
103471
103471
103471
103471
103471
103471
103471
103471
103472
103471
103471
103470
103470
103470
103470
103470
103470
103470
103470
103470
103470
103470
103470
103470
103470
103470
103470
103471
103471
103471
103470
103470
103470
103469
103469
103469
103469
103469
103469
103469
103469
103469
103469
103469
103469
103470
103470
103470
103471
103470
103469
103469
103469
103469
103469
103469
103469
103469
103469
103469
103469
103469
103469
103469
103469
103469
103469
103469
103470
103469
103468
103468
103468
103468
103468
103468
103468
103468
103468
103468
103468
103468
103468
103468
103468
103468
103468
103468
103469
103468
103467
103467
103467
103467
103467
103467
103467
103467
103467
103467
103467
103467
103467
103467
103467
103467
103467
103467
103468
103467
103467
103466
103466
103466
103466
103466
103466
103466
103466
103466
103466
103466
103466
103466
103466
103466
103466
103467
103467
103466
103466
103466
103466
103466
103466
103466
103465
103465
103465
103465
103465
103465
103466
103466
103466
103466
103466
103466
103466
103466
103465
103465
103465
103465
103465
103465
103465
103465
103465
103465
103465
103465
103465
103465
103465
103465
103465
103465
103466
103465
103464
103464
103464
103464
103464
103464
103464
103464
103464
103464
103464
103464
103464
103464
103464
103464
103464
103464
103465
103464
103463
103463
103463
103463
103463
103463
103463
103463
103463
103463
103463
103463
103463
103463
103463
103463
103463
103463
103464
103463
103463
103463
103463
103463
103462
103462
103462
103462
103462
103462
103462
103462
103462
103462
103463
103463
103463
103463
103463
103462
103462
103462
103462
103462
103462
103462
103462
103462
103462
103462
103462
103462
103462
103462
103462
103462
103462
103462
103462
103462
103461
103461
103461
103461
103461
103461
103461
103461
103461
103461
103461
103461
103461
103461
103461
103461
103461
103461
103462
103461
103460
103460
103460
103460
103460
103460
103460
103460
103460
103460
103460
103460
103460
103460
103460
103460
103460
103460
103461
103460
103460
103460
103460
103460
103460
103459
103459
103459
103459
103459
103459
103459
103459
103459
103460
103460
103460
103460
103460
103459
103459
103459
103459
103459
103459
103459
103459
103459
103459
103459
103459
103459
103459
103459
103459
103459
103459
103459
103459
103459
103458
103458
103458
103458
103458
103458
103458
103458
103458
103458
103458
103458
103458
103458
103458
103458
103458
103458
103459
103458
103458
103457
103457
103457
103457
103457
103457
103457
103457
103457
103457
103457
103457
103457
103457
103457
103457
103458
103458
103457
103457
103457
103457
103457
103457
103457
103457
103457
103457
103457
103457
103457
103457
103457
103457
103457
103457
103457
103457
103456
103456
103456
103456
103456
103456
103456
103456
103456
103456
103456
103456
103456
103456
103456
103456
103456
103456
103456
103456
103456
103455
103455
103455
103455
103455
103455
103455
103455
103455
103455
103455
103455
103455
103455
103455
103455
103455
103455
103456
103455
103455
103455
103455
103454
103454
103454
103454
103454
103454
103454
103454
103454
103454
103454
103454
103455
103455
103455
103455
103454
103454
103454
103454
103454
103454
103454
103454
103454
103454
103454
103454
103454
103454
103454
103454
103454
103454
103454
103454
103453
103453
103453
103453
103453
103453
103453
103453
103453
103453
103453
103453
103453
103453
103453
103453
103453
103453
103453
103453
103453
103453
103452
103452
103452
103452
103452
103452
103452
103452
103452
103452
103452
103452
103452
103452
103452
103452
103453
103453
103452
103452
103452
103452
103452
103452
103452
103452
103452
103452
103452
103452
103452
103452
103452
103452
103452
103452
103452
103452
103451
103451
103451
103451
103451
103451
103451
103451
103451
103451
103451
103451
103451
103451
103451
103451
103451
103451
103451
103451
103451
103451
103450
103450
103450
103450
103450
103450
103450
103450
103450
103450
103450
103450
103450
103450
103450
103450
103451
103451
103450
103450
103450
103450
103450
103450
103450
103450
103450
103450
103450
103450
103450
103450
103450
103450
103450
103450
103450
103450
103449
103449
103449
103449
103449
103449
103449
103449
103449
103449
103449
103449
103449
103449
103449
103449
103449
103449
103449
103449
103449
103449
103448
103448
103448
103448
103448
103448
103448
103448
103448
103448
103448
103448
103448
103448
103448
103448
103449
103449
103448
103448
103448
103448
103448
103448
103448
103448
103448
103448
103448
103448
103448
103448
103448
103448
103448
103448
103448
103448
103447
103447
103447
103447
103447
103447
103447
103447
103447
103447
103447
103447
103447
103447
103447
103447
103447
103447
103447
103447
103447
103447
103446
103446
103446
103446
103446
103446
103446
103446
103446
103446
103446
103446
103446
103446
103446
103446
103447
103447
103446
103446
103446
103446
103446
103446
103446
103446
103446
103446
103446
103446
103446
103446
103446
103446
103446
103446
103446
103446
103445
103445
103445
103445
103445
103445
103445
103445
103445
103445
103445
103445
103445
103445
103445
103445
103445
103445
103445
103445
103445
103445
103444
103444
103444
103444
103444
103444
103444
103444
103444
103444
103444
103444
103444
103444
103445
103445
103445
103445
103444
103444
103444
103444
103444
103444
103444
103444
103444
103444
103444
103444
103444
103444
103444
103444
103444
103444
103444
103444
103443
103443
103443
103443
103443
103443
103443
103443
103443
103443
103443
103443
103443
103443
103443
103443
103443
103443
103443
103443
103442
103443
103442
103442
103442
103442
103442
103442
103442
103442
103442
103442
103443
103443
103443
103443
103443
103443
103443
103443
103442
103442
103442
103442
103442
103442
103442
103442
103442
103442
103442
103442
103442
103442
103442
103442
103442
103442
103442
103442
103441
103441
103441
103441
103441
103441
103441
103441
103441
103441
103441
103441
103441
103441
103441
103441
103442
103442
103442
103442
103440
103440
103440
103440
103440
103440
103440
103440
103440
103441
103441
103441
103441
103441
103441
103441
103441
103441
103441
103441
103440
103440
103440
103440
103440
103440
103440
103440
103440
103440
103440
103440
103440
103440
103440
103440
103440
103441
103441
103441
103439
103439
103439
103439
103439
103439
103439
103439
103439
103439
103439
103439
103440
103440
103440
103440
103440
103440
103440
103440
103438
103438
103438
103438
103438
103438
103438
103438
103439
103439
103439
103439
103439
103439
103439
103439
103440
103440
103440
103440
103437