/*--------------------------------*- C++ -*----------------------------------*\
| =========                 |                                                 |
| \\      /  F ield         | OpenFOAM: The Open Source CFD Toolbox           |
|  \\    /   O peration     | Version:  2.1.0                                 |
|   \\  /    A nd           | Web:      www.OpenFOAM.org                      |
|    \\/     M anipulation  |                                                 |
\*---------------------------------------------------------------------------*/
FoamFile
{
    version     2.0;
    format      ascii;
    class       surfaceScalarField;
    location    "0.31";
    object      phi;
}
// * * * * * * * * * * * * * * * * * * * * * * * * * * * * * * * * * * * * * //

dimensions      [0 3 -1 0 0 0 0];

internalField   nonuniform List<scalar> 
12460
(
-2.51956e-05
-1.58684e-09
-2.5174e-05
-3.41604e-08
-2.51312e-05
-5.56191e-08
-2.50775e-05
-6.67968e-08
-2.50173e-05
-7.35126e-08
-2.49526e-05
-7.81702e-08
-2.48847e-05
-8.16594e-08
-2.48141e-05
-8.45219e-08
-2.47411e-05
-8.70274e-08
-2.4666e-05
-8.93534e-08
-2.45889e-05
-9.15892e-08
-2.45097e-05
-9.3789e-08
-2.44284e-05
-9.59834e-08
-2.4345e-05
-9.81834e-08
-2.42594e-05
-1.00403e-07
-2.41717e-05
-1.02641e-07
-2.40818e-05
-1.04909e-07
-2.39897e-05
-1.07188e-07
-2.38952e-05
-1.09486e-07
-2.37985e-05
-1.11798e-07
-2.36993e-05
-1.14126e-07
-2.35979e-05
-1.16454e-07
-2.3494e-05
-1.18852e-07
-2.33875e-05
-1.21323e-07
-2.32785e-05
-1.23842e-07
-2.31668e-05
-1.26394e-07
-2.30524e-05
-1.28991e-07
-2.29352e-05
-1.31629e-07
-2.28152e-05
-1.34322e-07
-2.26923e-05
-1.37069e-07
-2.25664e-05
-1.39883e-07
-2.24375e-05
-1.42766e-07
-2.23055e-05
-1.45728e-07
-2.21702e-05
-1.48777e-07
-2.20315e-05
-1.51923e-07
-2.18894e-05
-1.5517e-07
-2.17438e-05
-1.58521e-07
-2.15944e-05
-1.61996e-07
-2.14412e-05
-1.65602e-07
-2.1284e-05
-1.69345e-07
-2.11227e-05
-1.73242e-07
-2.09571e-05
-1.77295e-07
-2.0787e-05
-1.81511e-07
-2.06123e-05
-1.85898e-07
-2.04327e-05
-1.9046e-07
-2.02482e-05
-1.95194e-07
-2.00585e-05
-2.00098e-07
-1.98634e-05
-2.05162e-07
-1.96628e-05
-2.1043e-07
-1.94567e-05
-2.15665e-07
-1.9245e-05
-2.21072e-07
-1.9027e-05
-2.2697e-07
-1.88027e-05
-2.33098e-07
-1.8572e-05
-2.39216e-07
-1.83352e-05
-2.45115e-07
-1.80923e-05
-2.50867e-07
-1.78435e-05
-2.56626e-07
-1.75886e-05
-2.62504e-07
-1.73274e-05
-2.68542e-07
-1.70597e-05
-2.74748e-07
-1.67855e-05
-2.81154e-07
-1.65044e-05
-2.87801e-07
-1.62161e-05
-2.94702e-07
-1.59205e-05
-3.01881e-07
-1.56172e-05
-3.09363e-07
-1.53058e-05
-3.1719e-07
-1.4986e-05
-3.25404e-07
-1.46574e-05
-3.34053e-07
-1.43195e-05
-3.43155e-07
-1.39717e-05
-3.52745e-07
-1.36137e-05
-3.62867e-07
-1.32447e-05
-3.73568e-07
-1.28643e-05
-3.84897e-07
-1.24716e-05
-3.96923e-07
-1.2066e-05
-4.09734e-07
-1.16464e-05
-4.23441e-07
-1.12119e-05
-4.38186e-07
-1.07613e-05
-4.54151e-07
-1.02931e-05
-4.71605e-07
-9.80539e-06
-4.909e-07
-9.29595e-06
-5.1247e-07
-8.76193e-06
-5.36876e-07
-8.1998e-06
-5.64809e-07
-7.60533e-06
-5.96967e-07
-6.97382e-06
-6.33802e-07
-6.30042e-06
-6.75484e-07
-5.58063e-06
-7.21653e-07
-4.81151e-06
-7.70743e-07
-3.99402e-06
-8.18836e-07
-3.1377e-06
-8.57381e-07
-2.26948e-06
-8.68948e-07
-1.45102e-06
-8.18851e-07
-7.87809e-07
-6.63285e-07
-3.88665e-07
-3.99098e-07
-2.88354e-07
-1.00952e-07
-5.38304e-07
2.4732e-07
-1.43163e-06
8.88527e-07
-3.72434e-06
2.29036e-06
-9.29298e-06
5.56831e-06
1.54925e-05
-2.47856e-05
-3.04892e-05
-1.85749e-08
-3.04593e-05
-8.25926e-08
-3.04161e-05
-1.17798e-07
-3.03646e-05
-1.37423e-07
-3.03077e-05
-1.49787e-07
-3.02469e-05
-1.58459e-07
-3.01833e-05
-1.65003e-07
-3.01173e-05
-1.70375e-07
-3.00491e-05
-1.75088e-07
-2.99791e-05
-1.79453e-07
-2.99071e-05
-1.8365e-07
-2.98333e-05
-1.87771e-07
-2.97576e-05
-1.91883e-07
-2.96799e-05
-1.96002e-07
-2.96003e-05
-2.0016e-07
-2.95188e-05
-2.04349e-07
-2.94351e-05
-2.08589e-07
-2.93495e-05
-2.12854e-07
-2.92617e-05
-2.17142e-07
-2.91718e-05
-2.2145e-07
-2.90799e-05
-2.25768e-07
-2.89858e-05
-2.30024e-07
-2.88896e-05
-2.3437e-07
-2.87913e-05
-2.3883e-07
-2.86908e-05
-2.43336e-07
-2.85881e-05
-2.47884e-07
-2.84831e-05
-2.5249e-07
-2.8376e-05
-2.57153e-07
-2.82665e-05
-2.61893e-07
-2.81547e-05
-2.6671e-07
-2.80406e-05
-2.71623e-07
-2.79241e-05
-2.76637e-07
-2.78051e-05
-2.81767e-07
-2.76837e-05
-2.87023e-07
-2.75598e-05
-2.92424e-07
-2.74332e-05
-2.97979e-07
-2.7304e-05
-3.03688e-07
-2.71721e-05
-3.09581e-07
-2.70374e-05
-3.15668e-07
-2.68998e-05
-3.21962e-07
-2.67594e-05
-3.2849e-07
-2.66159e-05
-3.35259e-07
-2.64693e-05
-3.42287e-07
-2.63194e-05
-3.49589e-07
-2.61663e-05
-3.57183e-07
-2.60097e-05
-3.65077e-07
-2.58494e-05
-3.73281e-07
-2.56854e-05
-3.81796e-07
-2.55175e-05
-3.9069e-07
-2.53455e-05
-3.99704e-07
-2.51696e-05
-4.08737e-07
-2.49903e-05
-4.17836e-07
-2.48077e-05
-4.26925e-07
-2.46218e-05
-4.36059e-07
-2.44325e-05
-4.45163e-07
-2.42397e-05
-4.54219e-07
-2.40432e-05
-4.63314e-07
-2.38432e-05
-4.72565e-07
-2.36394e-05
-4.82029e-07
-2.3432e-05
-4.9175e-07
-2.32207e-05
-5.01757e-07
-2.30055e-05
-5.12078e-07
-2.27863e-05
-5.22723e-07
-2.25631e-05
-5.33713e-07
-2.23359e-05
-5.45089e-07
-2.21044e-05
-5.56909e-07
-2.18686e-05
-5.69229e-07
-2.16284e-05
-5.82127e-07
-2.13835e-05
-5.95668e-07
-2.11338e-05
-6.09928e-07
-2.0879e-05
-6.24998e-07
-2.06187e-05
-6.40986e-07
-2.03525e-05
-6.58005e-07
-2.008e-05
-6.76213e-07
-1.98005e-05
-6.95794e-07
-1.95134e-05
-7.16974e-07
-1.92179e-05
-7.40029e-07
-1.89128e-05
-7.65282e-07
-1.85972e-05
-7.93176e-07
-1.82696e-05
-8.24273e-07
-1.79286e-05
-8.59213e-07
-1.75722e-05
-8.98752e-07
-1.71986e-05
-9.43784e-07
-1.68057e-05
-9.95241e-07
-1.6391e-05
-1.05373e-06
-1.59523e-05
-1.11932e-06
-1.54879e-05
-1.19115e-06
-1.49973e-05
-1.26641e-06
-1.44827e-05
-1.33876e-06
-1.395e-05
-1.39547e-06
-1.3412e-05
-1.41272e-06
-1.28881e-05
-1.3492e-06
-1.24118e-05
-1.14666e-06
-1.20663e-05
-7.52393e-07
-1.20902e-05
-8.43951e-08
-1.26125e-05
7.64182e-07
-1.39762e-05
2.24764e-06
-1.66963e-05
5.00849e-06
-2.1812e-05
1.06838e-05
2.65529e-05
-3.28725e-05
-3.35038e-05
-4.39245e-08
-3.34829e-05
-1.26117e-07
-3.34513e-05
-1.72356e-07
-3.34128e-05
-1.99115e-07
-3.33698e-05
-2.16192e-07
-3.33235e-05
-2.28163e-07
-3.32749e-05
-2.37136e-07
-3.32243e-05
-2.44475e-07
-3.31722e-05
-2.50851e-07
-3.31186e-05
-2.56742e-07
-3.30635e-05
-2.62359e-07
-3.3007e-05
-2.67873e-07
-3.29491e-05
-2.73349e-07
-3.28897e-05
-2.78845e-07
-3.28289e-05
-2.84383e-07
-3.27665e-05
-2.89982e-07
-3.27025e-05
-2.95656e-07
-3.26369e-05
-3.01403e-07
-3.25696e-05
-3.0721e-07
-3.25005e-05
-3.13087e-07
-3.24295e-05
-3.19041e-07
-3.23567e-05
-3.24957e-07
-3.2282e-05
-3.30826e-07
-3.22058e-05
-3.36663e-07
-3.21279e-05
-3.4248e-07
-3.20485e-05
-3.48313e-07
-3.19675e-05
-3.54185e-07
-3.1885e-05
-3.60105e-07
-3.18009e-05
-3.66088e-07
-3.17153e-05
-3.72137e-07
-3.16281e-05
-3.78269e-07
-3.15394e-05
-3.8449e-07
-3.14492e-05
-3.90815e-07
-3.13575e-05
-3.97248e-07
-3.12643e-05
-4.03809e-07
-3.11695e-05
-4.10517e-07
-3.10734e-05
-4.17349e-07
-3.09757e-05
-4.24341e-07
-3.08767e-05
-4.31504e-07
-3.07762e-05
-4.3884e-07
-3.06745e-05
-4.46374e-07
-3.05714e-05
-4.5411e-07
-3.0467e-05
-4.62061e-07
-3.03615e-05
-4.70236e-07
-3.02547e-05
-4.7865e-07
-3.01469e-05
-4.87303e-07
-3.00381e-05
-4.96204e-07
-2.99284e-05
-5.05338e-07
-2.98179e-05
-5.14668e-07
-2.97066e-05
-5.24127e-07
-2.95946e-05
-5.33638e-07
-2.9482e-05
-5.42969e-07
-2.93691e-05
-5.52079e-07
-2.9256e-05
-5.61171e-07
-2.91425e-05
-5.70343e-07
-2.90286e-05
-5.79532e-07
-2.89143e-05
-5.88715e-07
-2.87997e-05
-5.97941e-07
-2.8685e-05
-6.07243e-07
-2.85704e-05
-6.16662e-07
-2.84559e-05
-6.26224e-07
-2.83417e-05
-6.35932e-07
-2.82281e-05
-6.45769e-07
-2.81153e-05
-6.55716e-07
-2.80035e-05
-6.65793e-07
-2.78931e-05
-6.76035e-07
-2.77843e-05
-6.86474e-07
-2.76774e-05
-6.97158e-07
-2.75729e-05
-7.08154e-07
-2.7471e-05
-7.1953e-07
-2.73721e-05
-7.31374e-07
-2.72765e-05
-7.43805e-07
-2.71846e-05
-7.56946e-07
-2.70966e-05
-7.70996e-07
-2.70127e-05
-7.86191e-07
-2.69332e-05
-8.02831e-07
-2.6858e-05
-8.21293e-07
-2.67872e-05
-8.42003e-07
-2.67205e-05
-8.65542e-07
-2.66575e-05
-8.92654e-07
-2.65978e-05
-9.24149e-07
-2.65406e-05
-9.60922e-07
-2.64853e-05
-1.00397e-06
-2.64309e-05
-1.05427e-06
-2.63765e-05
-1.11254e-06
-2.63214e-05
-1.17875e-06
-2.62651e-05
-1.25159e-06
-2.62081e-05
-1.32734e-06
-2.61526e-05
-1.39813e-06
-2.61028e-05
-1.44897e-06
-2.60655e-05
-1.45357e-06
-2.60489e-05
-1.36905e-06
-2.60657e-05
-1.13255e-06
-2.61548e-05
-6.65381e-07
-2.63451e-05
1.04755e-07
-2.68464e-05
1.26489e-06
-2.78607e-05
3.26126e-06
-2.97766e-05
6.92391e-06
-3.33162e-05
1.42233e-05
3.1171e-05
-3.79343e-05
-3.62529e-05
-6.99081e-08
-3.62459e-05
-1.59193e-07
-3.62327e-05
-2.12309e-07
-3.62142e-05
-2.44347e-07
-3.61922e-05
-2.65017e-07
-3.61678e-05
-2.79359e-07
-3.61418e-05
-2.8996e-07
-3.61146e-05
-2.98492e-07
-3.60865e-05
-3.05778e-07
-3.60576e-05
-3.12419e-07
-3.60279e-05
-3.18667e-07
-3.59976e-05
-3.24748e-07
-3.59666e-05
-3.3073e-07
-3.5935e-05
-3.36702e-07
-3.59028e-05
-3.42678e-07
-3.587e-05
-3.48692e-07
-3.58366e-05
-3.54751e-07
-3.58025e-05
-3.60877e-07
-3.57679e-05
-3.67034e-07
-3.57327e-05
-3.73191e-07
-3.56969e-05
-3.79371e-07
-3.56606e-05
-3.85604e-07
-3.56236e-05
-3.91805e-07
-3.5586e-05
-3.97891e-07
-3.55479e-05
-4.03899e-07
-3.55093e-05
-4.09872e-07
-3.54703e-05
-4.15834e-07
-3.54308e-05
-4.21794e-07
-3.5391e-05
-4.27762e-07
-3.53508e-05
-4.3374e-07
-3.53105e-05
-4.39739e-07
-3.52699e-05
-4.45762e-07
-3.52292e-05
-4.51818e-07
-3.51884e-05
-4.57907e-07
-3.51476e-05
-4.64034e-07
-3.5107e-05
-4.7021e-07
-3.50666e-05
-4.76423e-07
-3.50266e-05
-4.82692e-07
-3.49869e-05
-4.89011e-07
-3.49478e-05
-4.95373e-07
-3.49095e-05
-5.01791e-07
-3.4872e-05
-5.08256e-07
-3.48355e-05
-5.14763e-07
-3.48003e-05
-5.21307e-07
-3.47666e-05
-5.27881e-07
-3.47345e-05
-5.34466e-07
-3.47043e-05
-5.4105e-07
-3.46763e-05
-5.47605e-07
-3.46509e-05
-5.54029e-07
-3.46282e-05
-5.60311e-07
-3.46083e-05
-5.6669e-07
-3.4591e-05
-5.73098e-07
-3.45761e-05
-5.79329e-07
-3.45638e-05
-5.85399e-07
-3.45544e-05
-5.91335e-07
-3.4548e-05
-5.97095e-07
-3.45449e-05
-6.02646e-07
-3.45452e-05
-6.07999e-07
-3.45493e-05
-6.13157e-07
-3.45575e-05
-6.18131e-07
-3.457e-05
-6.22956e-07
-3.45872e-05
-6.27658e-07
-3.46092e-05
-6.32201e-07
-3.46365e-05
-6.3655e-07
-3.46694e-05
-6.40718e-07
-3.4708e-05
-6.44747e-07
-3.47528e-05
-6.48692e-07
-3.4804e-05
-6.52621e-07
-3.48619e-05
-6.56626e-07
-3.49265e-05
-6.60814e-07
-3.49981e-05
-6.65326e-07
-3.50768e-05
-6.70347e-07
-3.51626e-05
-6.76096e-07
-3.52553e-05
-6.82855e-07
-3.53547e-05
-6.9098e-07
-3.54605e-05
-7.00904e-07
-3.55722e-05
-7.1316e-07
-3.56892e-05
-7.28307e-07
-3.58107e-05
-7.47053e-07
-3.59357e-05
-7.70325e-07
-3.60632e-05
-7.9906e-07
-3.61922e-05
-8.34208e-07
-3.63213e-05
-8.7679e-07
-3.64496e-05
-9.27743e-07
-3.6576e-05
-9.87585e-07
-3.67002e-05
-1.05594e-06
-3.68221e-05
-1.13091e-06
-3.69424e-05
-1.20805e-06
-3.70628e-05
-1.27859e-06
-3.71857e-05
-1.32678e-06
-3.73135e-05
-1.32639e-06
-3.74462e-05
-1.23691e-06
-3.75829e-05
-9.96159e-07
-3.7724e-05
-5.24545e-07
-3.78757e-05
2.56277e-07
-3.81586e-05
1.54772e-06
-3.87059e-05
3.80847e-06
-3.96874e-05
7.90522e-06
-4.12865e-05
1.58223e-05
3.12258e-05
-4.13414e-05
-3.90624e-05
-8.9211e-08
-3.90743e-05
-1.76617e-07
-3.90853e-05
-2.31073e-07
-3.90944e-05
-2.65139e-07
-3.91018e-05
-2.87341e-07
-3.91084e-05
-3.02478e-07
-3.91146e-05
-3.13479e-07
-3.91206e-05
-3.22046e-07
-3.91266e-05
-3.29195e-07
-3.91328e-05
-3.35507e-07
-3.91393e-05
-3.41337e-07
-3.9146e-05
-3.46877e-07
-3.91532e-05
-3.52249e-07
-3.91609e-05
-3.5751e-07
-3.9169e-05
-3.62705e-07
-3.91778e-05
-3.67839e-07
-3.91872e-05
-3.7293e-07
-3.91973e-05
-3.7799e-07
-3.92083e-05
-3.82984e-07
-3.92202e-05
-3.87827e-07
-3.92332e-05
-3.92571e-07
-3.92473e-05
-3.97344e-07
-3.92624e-05
-4.02182e-07
-3.92783e-05
-4.06974e-07
-3.92951e-05
-4.11658e-07
-3.93129e-05
-4.1624e-07
-3.93316e-05
-4.20735e-07
-3.93515e-05
-4.25147e-07
-3.93726e-05
-4.29481e-07
-3.93949e-05
-4.33733e-07
-3.94185e-05
-4.37912e-07
-3.94436e-05
-4.42014e-07
-3.94703e-05
-4.46042e-07
-3.94986e-05
-4.49999e-07
-3.95286e-05
-4.53886e-07
-3.95605e-05
-4.5769e-07
-3.95944e-05
-4.61412e-07
-3.96305e-05
-4.65067e-07
-3.96688e-05
-4.68643e-07
-3.97094e-05
-4.72132e-07
-3.97526e-05
-4.75538e-07
-3.97984e-05
-4.78857e-07
-3.9847e-05
-4.82082e-07
-3.98985e-05
-4.8521e-07
-3.9953e-05
-4.88237e-07
-4.00107e-05
-4.91148e-07
-4.00717e-05
-4.93943e-07
-4.01361e-05
-4.96605e-07
-4.02039e-05
-4.99078e-07
-4.02752e-05
-5.01376e-07
-4.03501e-05
-5.03629e-07
-4.04287e-05
-5.05789e-07
-4.05111e-05
-5.07745e-07
-4.05974e-05
-5.09465e-07
-4.06876e-05
-5.10954e-07
-4.07818e-05
-5.12195e-07
-4.08801e-05
-5.13181e-07
-4.09825e-05
-5.13929e-07
-4.10891e-05
-5.14458e-07
-4.11998e-05
-5.14805e-07
-4.13147e-05
-5.15031e-07
-4.14336e-05
-5.15203e-07
-4.15565e-05
-5.15305e-07
-4.16834e-05
-5.15293e-07
-4.18141e-05
-5.15199e-07
-4.19485e-05
-5.15097e-07
-4.20865e-05
-5.15072e-07
-4.22279e-05
-5.15213e-07
-4.23726e-05
-5.15631e-07
-4.25203e-05
-5.16455e-07
-4.26708e-05
-5.17837e-07
-4.28238e-05
-5.19974e-07
-4.29792e-05
-5.23098e-07
-4.31367e-05
-5.27497e-07
-4.32961e-05
-5.3353e-07
-4.34571e-05
-5.41627e-07
-4.36193e-05
-5.52364e-07
-4.37826e-05
-5.66284e-07
-4.39468e-05
-5.8404e-07
-4.41114e-05
-6.06644e-07
-4.42763e-05
-6.35043e-07
-4.44411e-05
-6.70114e-07
-4.46057e-05
-7.12817e-07
-4.477e-05
-7.64009e-07
-4.49339e-05
-8.24102e-07
-4.50977e-05
-8.92524e-07
-4.52618e-05
-9.6713e-07
-4.54268e-05
-1.04334e-06
-4.55932e-05
-1.11245e-06
-4.57607e-05
-1.15942e-06
-4.59272e-05
-1.16003e-06
-4.60862e-05
-1.07812e-06
-4.62231e-05
-8.59369e-07
-4.63181e-05
-4.29593e-07
-4.63731e-05
3.11253e-07
-4.64225e-05
1.59698e-06
-4.64877e-05
3.87369e-06
-4.6569e-05
7.98642e-06
-4.63418e-05
1.55951e-05
2.83923e-05
-4.35085e-05
-4.20689e-05
-9.57166e-08
-4.21036e-05
-1.73281e-07
-4.21437e-05
-2.22852e-07
-4.2186e-05
-2.54557e-07
-4.22297e-05
-2.75246e-07
-4.22746e-05
-2.89052e-07
-4.23205e-05
-2.98789e-07
-4.23676e-05
-3.06025e-07
-4.24158e-05
-3.11809e-07
-4.24651e-05
-3.16666e-07
-4.25157e-05
-3.2099e-07
-4.25675e-05
-3.24938e-07
-4.26206e-05
-3.28661e-07
-4.26751e-05
-3.32192e-07
-4.27309e-05
-3.3559e-07
-4.27882e-05
-3.38853e-07
-4.28471e-05
-3.42003e-07
-4.29074e-05
-3.45052e-07
-4.29694e-05
-3.47975e-07
-4.30331e-05
-3.50634e-07
-4.30985e-05
-3.53171e-07
-4.31657e-05
-3.55706e-07
-4.32346e-05
-3.5821e-07
-4.33054e-05
-3.60615e-07
-4.33781e-05
-3.62882e-07
-4.34527e-05
-3.64998e-07
-4.35293e-05
-3.66979e-07
-4.36079e-05
-3.68823e-07
-4.36886e-05
-3.70541e-07
-4.37713e-05
-3.72129e-07
-4.38563e-05
-3.73597e-07
-4.39434e-05
-3.74949e-07
-4.40327e-05
-3.76193e-07
-4.41243e-05
-3.77332e-07
-4.42181e-05
-3.78384e-07
-4.43143e-05
-3.7933e-07
-4.44127e-05
-3.80169e-07
-4.45135e-05
-3.80928e-07
-4.46167e-05
-3.81609e-07
-4.47222e-05
-3.82211e-07
-4.483e-05
-3.82745e-07
-4.49401e-05
-3.83213e-07
-4.50525e-05
-3.83617e-07
-4.51672e-05
-3.83961e-07
-4.5284e-05
-3.84252e-07
-4.5403e-05
-3.84481e-07
-4.55241e-05
-3.84659e-07
-4.56473e-05
-3.84769e-07
-4.57724e-05
-3.84788e-07
-4.58994e-05
-3.84737e-07
-4.60282e-05
-3.84687e-07
-4.61588e-05
-3.84602e-07
-4.6291e-05
-3.84442e-07
-4.64247e-05
-3.84176e-07
-4.65599e-05
-3.83793e-07
-4.66965e-05
-3.8328e-07
-4.68342e-05
-3.82633e-07
-4.69731e-05
-3.81866e-07
-4.7113e-05
-3.80991e-07
-4.72538e-05
-3.80034e-07
-4.73954e-05
-3.79061e-07
-4.75378e-05
-3.78169e-07
-4.76808e-05
-3.77327e-07
-4.78243e-05
-3.76436e-07
-4.79684e-05
-3.75494e-07
-4.8113e-05
-3.7459e-07
-4.82581e-05
-3.7381e-07
-4.84037e-05
-3.7323e-07
-4.85497e-05
-3.72947e-07
-4.86961e-05
-3.73078e-07
-4.88431e-05
-3.73768e-07
-4.89905e-05
-3.75188e-07
-4.91385e-05
-3.77566e-07
-4.92871e-05
-3.81187e-07
-4.94363e-05
-3.86405e-07
-4.95863e-05
-3.93646e-07
-4.97369e-05
-4.03476e-07
-4.98884e-05
-4.16464e-07
-5.00408e-05
-4.33164e-07
-5.01944e-05
-4.54399e-07
-5.03495e-05
-4.8115e-07
-5.05064e-05
-5.14387e-07
-5.06652e-05
-5.55029e-07
-5.08263e-05
-6.03879e-07
-5.09898e-05
-6.61388e-07
-5.11562e-05
-7.26913e-07
-5.13257e-05
-7.98234e-07
-5.14986e-05
-8.71063e-07
-5.16741e-05
-9.37448e-07
-5.185e-05
-9.83952e-07
-5.20208e-05
-9.89616e-07
-5.21755e-05
-9.23756e-07
-5.22906e-05
-7.44435e-07
-5.23366e-05
-3.83792e-07
-5.2294e-05
2.68511e-07
-5.21326e-05
1.43536e-06
-5.17738e-05
3.51474e-06
-5.1048e-05
7.26038e-06
-4.9339e-05
1.38857e-05
2.37945e-05
-4.47418e-05
-4.51714e-05
-8.75784e-08
-4.52287e-05
-1.47316e-07
-4.52963e-05
-1.86773e-07
-4.53696e-05
-2.12512e-07
-4.54467e-05
-2.29157e-07
-4.55264e-05
-2.39957e-07
-4.56082e-05
-2.47222e-07
-4.56918e-05
-2.52284e-07
-4.57769e-05
-2.56045e-07
-4.58636e-05
-2.58965e-07
-4.59516e-05
-2.61399e-07
-4.6041e-05
-2.63481e-07
-4.61318e-05
-2.6536e-07
-4.62238e-05
-2.67057e-07
-4.63172e-05
-2.68643e-07
-4.64117e-05
-2.70105e-07
-4.65075e-05
-2.71482e-07
-4.66045e-05
-2.72765e-07
-4.67027e-05
-2.73953e-07
-4.6802e-05
-2.74871e-07
-4.69026e-05
-2.75546e-07
-4.70046e-05
-2.7605e-07
-4.71081e-05
-2.76449e-07
-4.72132e-05
-2.7673e-07
-4.73197e-05
-2.76896e-07
-4.74278e-05
-2.76929e-07
-4.75373e-05
-2.76854e-07
-4.76483e-05
-2.76666e-07
-4.77607e-05
-2.7639e-07
-4.78745e-05
-2.76022e-07
-4.79896e-05
-2.75586e-07
-4.81061e-05
-2.75085e-07
-4.82237e-05
-2.74551e-07
-4.83426e-05
-2.73974e-07
-4.84626e-05
-2.73391e-07
-4.85837e-05
-2.72782e-07
-4.87058e-05
-2.72165e-07
-4.88287e-05
-2.7156e-07
-4.89525e-05
-2.70972e-07
-4.90771e-05
-2.70407e-07
-4.92022e-05
-2.69878e-07
-4.9328e-05
-2.69383e-07
-4.94542e-05
-2.68928e-07
-4.95809e-05
-2.68509e-07
-4.97078e-05
-2.68141e-07
-4.9835e-05
-2.67798e-07
-4.99624e-05
-2.67505e-07
-5.00899e-05
-2.67229e-07
-5.02174e-05
-2.66968e-07
-5.03448e-05
-2.66709e-07
-5.04722e-05
-2.6651e-07
-5.05994e-05
-2.66327e-07
-5.07265e-05
-2.66122e-07
-5.08534e-05
-2.65868e-07
-5.098e-05
-2.65541e-07
-5.11064e-05
-2.6512e-07
-5.12325e-05
-2.64581e-07
-5.13583e-05
-2.63923e-07
-5.14839e-05
-2.63142e-07
-5.16093e-05
-2.62243e-07
-5.17345e-05
-2.61265e-07
-5.18597e-05
-2.60368e-07
-5.19847e-05
-2.59527e-07
-5.21097e-05
-2.58495e-07
-5.22348e-05
-2.57289e-07
-5.23603e-05
-2.56002e-07
-5.2486e-05
-2.54718e-07
-5.26123e-05
-2.5351e-07
-5.27392e-05
-2.52461e-07
-5.28669e-05
-2.51674e-07
-5.29955e-05
-2.51281e-07
-5.31252e-05
-2.51445e-07
-5.32563e-05
-2.52382e-07
-5.33888e-05
-2.54366e-07
-5.3523e-05
-2.5774e-07
-5.3659e-05
-2.62924e-07
-5.37973e-05
-2.70378e-07
-5.39381e-05
-2.80711e-07
-5.40814e-05
-2.94696e-07
-5.42274e-05
-3.13089e-07
-5.43763e-05
-3.36684e-07
-5.45286e-05
-3.66385e-07
-5.46846e-05
-4.03032e-07
-5.4845e-05
-4.47361e-07
-5.501e-05
-4.99988e-07
-5.518e-05
-5.60388e-07
-5.53551e-05
-6.26311e-07
-5.5535e-05
-6.94163e-07
-5.5718e-05
-7.57283e-07
-5.59e-05
-8.0449e-07
-5.60729e-05
-8.18936e-07
-5.62222e-05
-7.76451e-07
-5.6321e-05
-6.47394e-07
-5.63286e-05
-3.77543e-07
-5.61996e-05
1.38458e-07
-5.58563e-05
1.091e-06
-5.51365e-05
2.7937e-06
-5.37311e-05
5.85317e-06
-5.0916e-05
1.10681e-05
1.81726e-05
-4.52976e-05
-4.79581e-05
-6.74776e-08
-4.8028e-05
-1.05539e-07
-4.811e-05
-1.32692e-07
-4.81996e-05
-1.50468e-07
-4.82939e-05
-1.61841e-07
-4.83913e-05
-1.6904e-07
-4.84908e-05
-1.73646e-07
-4.85917e-05
-1.76653e-07
-4.86938e-05
-1.78684e-07
-4.87968e-05
-1.80104e-07
-4.89006e-05
-1.81152e-07
-4.90051e-05
-1.81946e-07
-4.91101e-05
-1.82588e-07
-4.92157e-05
-1.83097e-07
-4.93219e-05
-1.8353e-07
-4.94285e-05
-1.83871e-07
-4.95357e-05
-1.84149e-07
-4.96434e-05
-1.84291e-07
-4.97516e-05
-1.84307e-07
-4.98603e-05
-1.84243e-07
-4.99691e-05
-1.8412e-07
-5.00782e-05
-1.83851e-07
-5.01874e-05
-1.83503e-07
-5.02968e-05
-1.83082e-07
-5.04063e-05
-1.82615e-07
-5.05159e-05
-1.82082e-07
-5.06254e-05
-1.81513e-07
-5.07349e-05
-1.80897e-07
-5.08443e-05
-1.80267e-07
-5.09536e-05
-1.79599e-07
-5.10627e-05
-1.78937e-07
-5.11715e-05
-1.78256e-07
-5.12802e-05
-1.7762e-07
-5.13885e-05
-1.76984e-07
-5.14965e-05
-1.76408e-07
-5.16041e-05
-1.75854e-07
-5.17114e-05
-1.75336e-07
-5.18183e-05
-1.74877e-07
-5.19248e-05
-1.74465e-07
-5.20309e-05
-1.74104e-07
-5.21366e-05
-1.73807e-07
-5.22419e-05
-1.73558e-07
-5.23468e-05
-1.73359e-07
-5.24513e-05
-1.73196e-07
-5.25555e-05
-1.73081e-07
-5.26593e-05
-1.72984e-07
-5.27629e-05
-1.72914e-07
-5.28662e-05
-1.72847e-07
-5.29693e-05
-1.72777e-07
-5.30723e-05
-1.72677e-07
-5.31751e-05
-1.7257e-07
-5.3278e-05
-1.7243e-07
-5.33809e-05
-1.72217e-07
-5.34839e-05
-1.71902e-07
-5.3587e-05
-1.7146e-07
-5.36905e-05
-1.70864e-07
-5.37942e-05
-1.70085e-07
-5.38984e-05
-1.69112e-07
-5.4003e-05
-1.67934e-07
-5.41083e-05
-1.66544e-07
-5.42143e-05
-1.64924e-07
-5.43212e-05
-1.63337e-07
-5.44287e-05
-1.61906e-07
-5.45373e-05
-1.60017e-07
-5.4647e-05
-1.5778e-07
-5.47581e-05
-1.55336e-07
-5.48705e-05
-1.52759e-07
-5.49846e-05
-1.50115e-07
-5.51004e-05
-1.4747e-07
-5.52181e-05
-1.44916e-07
-5.53379e-05
-1.42572e-07
-5.546e-05
-1.40592e-07
-5.55845e-05
-1.39179e-07
-5.57117e-05
-1.38592e-07
-5.58419e-05
-1.39158e-07
-5.59752e-05
-1.41279e-07
-5.6112e-05
-1.45386e-07
-5.62525e-05
-1.52089e-07
-5.6397e-05
-1.62215e-07
-5.65456e-05
-1.76518e-07
-5.66987e-05
-1.95714e-07
-5.68567e-05
-2.20621e-07
-5.70201e-05
-2.51983e-07
-5.71894e-05
-2.90394e-07
-5.73651e-05
-3.36796e-07
-5.75468e-05
-3.91107e-07
-5.77347e-05
-4.50812e-07
-5.79279e-05
-5.13439e-07
-5.81234e-05
-5.74048e-07
-5.83159e-05
-6.24189e-07
-5.84953e-05
-6.51443e-07
-5.86438e-05
-6.39448e-07
-5.87347e-05
-5.67305e-07
-5.87175e-05
-4.04803e-07
-5.85233e-05
-6.46188e-08
-5.80353e-05
5.94532e-07
-5.70343e-05
1.78316e-06
-5.51104e-05
3.91737e-06
-5.15282e-05
7.46992e-06
1.19898e-05
-4.53652e-05
-5.00336e-05
-3.5954e-08
-5.01052e-05
-5.59089e-08
-5.01889e-05
-7.05286e-08
-5.02802e-05
-8.0144e-08
-5.0376e-05
-8.63871e-08
-5.04743e-05
-9.04542e-08
-5.05739e-05
-9.31552e-08
-5.06741e-05
-9.50156e-08
-5.07743e-05
-9.63573e-08
-5.08743e-05
-9.73756e-08
-5.09738e-05
-9.81954e-08
-5.10729e-05
-9.88789e-08
-5.11715e-05
-9.94816e-08
-5.12694e-05
-1.00009e-07
-5.13667e-05
-1.00489e-07
-5.14633e-05
-1.00915e-07
-5.15593e-05
-1.01289e-07
-5.16547e-05
-1.0155e-07
-5.17494e-05
-1.01706e-07
-5.18433e-05
-1.019e-07
-5.19364e-05
-1.02178e-07
-5.20285e-05
-1.02429e-07
-5.21197e-05
-1.02631e-07
-5.22099e-05
-1.02783e-07
-5.22993e-05
-1.02897e-07
-5.23877e-05
-1.02964e-07
-5.24752e-05
-1.02998e-07
-5.25618e-05
-1.02989e-07
-5.26475e-05
-1.02957e-07
-5.27325e-05
-1.0288e-07
-5.28166e-05
-1.02785e-07
-5.29001e-05
-1.02655e-07
-5.29828e-05
-1.02538e-07
-5.30649e-05
-1.02402e-07
-5.31464e-05
-1.02283e-07
-5.32273e-05
-1.02162e-07
-5.33078e-05
-1.02036e-07
-5.33878e-05
-1.01918e-07
-5.34675e-05
-1.01803e-07
-5.35469e-05
-1.01678e-07
-5.3626e-05
-1.01585e-07
-5.37049e-05
-1.0147e-07
-5.37838e-05
-1.01354e-07
-5.38626e-05
-1.01206e-07
-5.39415e-05
-1.01044e-07
-5.40205e-05
-1.00857e-07
-5.40997e-05
-1.00609e-07
-5.41792e-05
-1.00303e-07
-5.4259e-05
-9.99144e-08
-5.43392e-05
-9.94604e-08
-5.442e-05
-9.89089e-08
-5.45014e-05
-9.82427e-08
-5.45834e-05
-9.74334e-08
-5.46662e-05
-9.64493e-08
-5.47498e-05
-9.52721e-08
-5.48344e-05
-9.38673e-08
-5.492e-05
-9.22099e-08
-5.50067e-05
-9.02799e-08
-5.50946e-05
-8.80529e-08
-5.51838e-05
-8.55423e-08
-5.52745e-05
-8.26283e-08
-5.53668e-05
-7.95978e-08
-5.54604e-05
-7.7121e-08
-5.55557e-05
-7.37849e-08
-5.56529e-05
-6.99005e-08
-5.57522e-05
-6.57138e-08
-5.58535e-05
-6.1298e-08
-5.59572e-05
-5.66982e-08
-5.60633e-05
-5.19644e-08
-5.61719e-05
-4.71743e-08
-5.62834e-05
-4.24366e-08
-5.63978e-05
-3.78872e-08
-5.65154e-05
-3.37165e-08
-5.66365e-05
-3.01649e-08
-5.67612e-05
-2.75372e-08
-5.68898e-05
-2.62101e-08
-5.70228e-05
-2.66238e-08
-5.71602e-05
-2.93616e-08
-5.73026e-05
-3.51367e-08
-5.74505e-05
-4.46638e-08
-5.76042e-05
-5.86652e-08
-5.77644e-05
-7.79246e-08
-5.79315e-05
-1.03196e-07
-5.81064e-05
-1.34748e-07
-5.82896e-05
-1.739e-07
-5.84803e-05
-2.21854e-07
-5.86789e-05
-2.74896e-07
-5.88842e-05
-3.32339e-07
-5.90926e-05
-3.91295e-07
-5.92979e-05
-4.46303e-07
-5.94892e-05
-4.89484e-07
-5.96476e-05
-5.12262e-07
-5.97444e-05
-5.0375e-07
-5.97324e-05
-4.52086e-07
-5.95234e-05
-3.10736e-07
-5.89597e-05
-6.47145e-09
-5.7796e-05
5.80482e-07
-5.55546e-05
1.63058e-06
-5.1511e-05
3.37105e-06
5.51149e-06
-4.50957e-05
-5.09617e-05
1.03986e-09
-5.10275e-05
-4.52625e-09
-5.11049e-05
-7.11223e-09
-5.11896e-05
-8.95579e-09
-5.12784e-05
-1.06464e-08
-5.13691e-05
-1.22663e-08
-5.14605e-05
-1.38543e-08
-5.15517e-05
-1.54001e-08
-5.16424e-05
-1.69338e-08
-5.17321e-05
-1.84395e-08
-5.18207e-05
-1.99343e-08
-5.19081e-05
-2.14008e-08
-5.19943e-05
-2.28532e-08
-5.20793e-05
-2.42718e-08
-5.21629e-05
-2.56515e-08
-5.22454e-05
-2.6997e-08
-5.23266e-05
-2.8273e-08
-5.24066e-05
-2.94634e-08
-5.24853e-05
-3.05677e-08
-5.25629e-05
-3.16797e-08
-5.26393e-05
-3.27941e-08
-5.27147e-05
-3.38662e-08
-5.27891e-05
-3.48533e-08
-5.28625e-05
-3.57638e-08
-5.29351e-05
-3.65848e-08
-5.30067e-05
-3.73287e-08
-5.30775e-05
-3.79872e-08
-5.31476e-05
-3.85701e-08
-5.3217e-05
-3.90647e-08
-5.32858e-05
-3.94786e-08
-5.3354e-05
-3.98008e-08
-5.34217e-05
-4.00644e-08
-5.34889e-05
-4.02508e-08
-5.35558e-05
-4.03953e-08
-5.36223e-05
-4.04736e-08
-5.36886e-05
-4.05028e-08
-5.37547e-05
-4.04895e-08
-5.38206e-05
-4.04177e-08
-5.38865e-05
-4.02894e-08
-5.39524e-05
-4.00941e-08
-5.40183e-05
-3.98633e-08
-5.40843e-05
-3.95608e-08
-5.41505e-05
-3.9191e-08
-5.4217e-05
-3.87338e-08
-5.42838e-05
-3.81936e-08
-5.43509e-05
-3.75713e-08
-5.44185e-05
-3.68205e-08
-5.44866e-05
-3.59496e-08
-5.45554e-05
-3.49315e-08
-5.46247e-05
-3.37889e-08
-5.46948e-05
-3.24777e-08
-5.47657e-05
-3.09839e-08
-5.48374e-05
-2.92795e-08
-5.49101e-05
-2.73295e-08
-5.49838e-05
-2.51302e-08
-5.50586e-05
-2.26325e-08
-5.51345e-05
-1.98161e-08
-5.52116e-05
-1.66535e-08
-5.52901e-05
-1.31095e-08
-5.537e-05
-9.16937e-09
-5.54513e-05
-4.85594e-09
-5.55347e-05
2.67813e-10
-5.5619e-05
3.68243e-09
-5.57052e-05
8.78661e-09
-5.57935e-05
1.46332e-08
-5.58838e-05
2.0823e-08
-5.59763e-05
2.73265e-08
-5.60712e-05
3.41281e-08
-5.61685e-05
4.11971e-08
-5.62685e-05
4.84735e-08
-5.63713e-05
5.58593e-08
-5.64772e-05
6.32405e-08
-5.65863e-05
7.04481e-08
-5.66989e-05
7.72611e-08
-5.68153e-05
8.34028e-08
-5.69357e-05
8.85237e-08
-5.70605e-05
9.22006e-08
-5.719e-05
9.38969e-08
-5.73247e-05
9.29816e-08
-5.7465e-05
8.87905e-08
-5.76114e-05
8.06276e-08
-5.77644e-05
6.77312e-08
-5.79245e-05
4.93814e-08
-5.80919e-05
2.49011e-08
-5.82681e-05
-5.54138e-09
-5.84513e-05
-4.68498e-08
-5.86426e-05
-9.24222e-08
-5.88405e-05
-1.44212e-07
-5.90411e-05
-2.01551e-07
-5.92377e-05
-2.62041e-07
-5.94194e-05
-3.21959e-07
-5.95682e-05
-3.80143e-07
-5.96538e-05
-4.37942e-07
-5.96329e-05
-4.96866e-07
-5.94144e-05
-5.58606e-07
-5.88396e-05
-6.18588e-07
-5.76221e-05
-6.80835e-07
-5.52677e-05
-7.70533e-07
-5.10448e-05
-8.98247e-07
-1.0134e-06
-4.45572e-05
-5.04082e-05
3.65708e-08
-5.04695e-05
4.84842e-08
-5.05437e-05
5.89426e-08
-5.06259e-05
6.5357e-08
-5.07129e-05
6.87003e-08
-5.08025e-05
6.99748e-08
-5.08935e-05
6.99577e-08
-5.0985e-05
6.91523e-08
-5.10764e-05
6.78535e-08
-5.11676e-05
6.62509e-08
-5.12582e-05
6.44674e-08
-5.13482e-05
6.25677e-08
-5.14375e-05
6.06053e-08
-5.15261e-05
5.85977e-08
-5.16138e-05
5.65923e-08
-5.17006e-05
5.4579e-08
-5.17866e-05
5.2615e-08
-5.18716e-05
5.06972e-08
-5.19558e-05
4.88394e-08
-5.2039e-05
4.69815e-08
-5.21213e-05
4.515e-08
-5.22028e-05
4.33601e-08
-5.22834e-05
4.16583e-08
-5.2363e-05
4.00372e-08
-5.24419e-05
3.85217e-08
-5.25199e-05
3.7092e-08
-5.2597e-05
3.57688e-08
-5.26733e-05
3.45369e-08
-5.27489e-05
3.34246e-08
-5.28237e-05
3.24248e-08
-5.28978e-05
3.15624e-08
-5.29712e-05
3.07938e-08
-5.30441e-05
3.01488e-08
-5.31163e-05
2.95824e-08
-5.3188e-05
2.91337e-08
-5.32592e-05
2.8777e-08
-5.333e-05
2.8514e-08
-5.34005e-05
2.83639e-08
-5.34706e-05
2.8322e-08
-5.35404e-05
2.83859e-08
-5.361e-05
2.85849e-08
-5.36795e-05
2.8893e-08
-5.37489e-05
2.93388e-08
-5.38183e-05
2.99186e-08
-5.38878e-05
3.06522e-08
-5.39574e-05
3.15476e-08
-5.40271e-05
3.26294e-08
-5.40972e-05
3.39063e-08
-5.41675e-05
3.539e-08
-5.42383e-05
3.7086e-08
-5.43095e-05
3.90203e-08
-5.43813e-05
4.12129e-08
-5.44537e-05
4.36869e-08
-5.45268e-05
4.64749e-08
-5.46006e-05
4.95897e-08
-5.46753e-05
5.30785e-08
-5.47509e-05
5.6955e-08
-5.48275e-05
6.12498e-08
-5.49052e-05
6.603e-08
-5.4984e-05
7.12772e-08
-5.5064e-05
7.70047e-08
-5.51449e-05
8.30804e-08
-5.52279e-05
8.88901e-08
-5.53125e-05
9.57359e-08
-5.53986e-05
1.03342e-07
-5.54863e-05
1.1148e-07
-5.5576e-05
1.20095e-07
-5.56676e-05
1.29168e-07
-5.57613e-05
1.38677e-07
-5.58573e-05
1.48581e-07
-5.59558e-05
1.58787e-07
-5.6057e-05
1.69212e-07
-5.6161e-05
1.79713e-07
-5.62682e-05
1.9009e-07
-5.63787e-05
2.00097e-07
-5.64928e-05
2.09416e-07
-5.66109e-05
2.17652e-07
-5.67334e-05
2.24316e-07
-5.68606e-05
2.28838e-07
-5.69929e-05
2.30597e-07
-5.71309e-05
2.28925e-07
-5.7275e-05
2.23085e-07
-5.74256e-05
2.12262e-07
-5.7583e-05
1.95656e-07
-5.77466e-05
1.72719e-07
-5.79189e-05
1.41751e-07
-5.8097e-05
1.0402e-07
-5.82783e-05
5.79613e-08
-5.84587e-05
2.60088e-09
-5.86323e-05
-6.16659e-08
-5.87882e-05
-1.36208e-07
-5.89084e-05
-2.26732e-07
-5.89641e-05
-3.45131e-07
-5.89076e-05
-5.11871e-07
-5.86566e-05
-7.63339e-07
-5.80564e-05
-1.16712e-06
-5.68242e-05
-1.85559e-06
-5.44754e-05
-3.056e-06
-5.03078e-05
-4.99758e-06
-7.32482e-06
-4.39286e-05
-4.87074e-05
6.30782e-08
-4.8763e-05
9.97665e-08
-4.88322e-05
1.23921e-07
-4.89102e-05
1.39347e-07
-4.89938e-05
1.48544e-07
-4.90812e-05
1.53645e-07
-4.91709e-05
1.56267e-07
-4.92624e-05
1.57316e-07
-4.93551e-05
1.57439e-07
-4.94487e-05
1.56933e-07
-4.95431e-05
1.5609e-07
-4.96382e-05
1.54978e-07
-4.97338e-05
1.53737e-07
-4.98298e-05
1.5235e-07
-4.99263e-05
1.50905e-07
-5.00232e-05
1.49395e-07
-5.01203e-05
1.47867e-07
-5.02177e-05
1.46321e-07
-5.03152e-05
1.44765e-07
-5.04129e-05
1.43163e-07
-5.05107e-05
1.41538e-07
-5.06084e-05
1.39899e-07
-5.07062e-05
1.38279e-07
-5.08038e-05
1.36681e-07
-5.09013e-05
1.35127e-07
-5.09985e-05
1.33596e-07
-5.10955e-05
1.32105e-07
-5.11921e-05
1.30649e-07
-5.12882e-05
1.29259e-07
-5.1384e-05
1.27948e-07
-5.14793e-05
1.26737e-07
-5.1574e-05
1.25599e-07
-5.16683e-05
1.24541e-07
-5.17619e-05
1.23546e-07
-5.1855e-05
1.22642e-07
-5.19475e-05
1.21819e-07
-5.20394e-05
1.21094e-07
-5.21306e-05
1.20479e-07