/*--------------------------------*- C++ -*----------------------------------*\
| =========                 |                                                 |
| \\      /  F ield         | OpenFOAM: The Open Source CFD Toolbox           |
|  \\    /   O peration     | Version:  2.1.0                                 |
|   \\  /    A nd           | Web:      www.OpenFOAM.org                      |
|    \\/     M anipulation  |                                                 |
\*---------------------------------------------------------------------------*/
FoamFile
{
    version     2.0;
    format      ascii;
    class       volScalarField;
    location    "0.31";
    object      rho;
}
// * * * * * * * * * * * * * * * * * * * * * * * * * * * * * * * * * * * * * //

dimensions      [1 -3 0 0 0 0 0];

internalField   nonuniform List<scalar> 
6400
(
989.57
989.08
988.583
988.078
987.566
987.044
986.513
985.974
985.426
984.87
984.306
983.736
983.16
982.578
981.99
981.399
980.804
980.205
979.604
979.001
978.397
977.793
977.188
976.584
975.981
975.38
974.781
974.184
973.591
973.002
972.416
971.836
971.26
970.69
970.125
969.567
969.015
968.47
967.932
967.401
966.878
966.363
965.856
965.358
964.868
964.387
963.916
963.453
962.999
962.555
962.12
961.695
961.279
960.872
960.474
960.084
959.703
959.329
958.963
958.605
958.254
957.911
957.576
957.249
956.929
956.617
956.312
956.016
955.727
955.446
955.173
954.909
954.652
954.404
954.164
953.933
953.711
953.498
953.295
953.103
952.922
952.755
952.603
952.472
952.366
952.293
952.266
952.303
952.437
952.725
953.277
954.329
956.409
960.572
966.859
961.368
947.634
944.731
944.579
944.568
984.819
984.234
983.634
983.029
982.42
981.805
981.186
980.561
979.933
979.3
978.665
978.028
977.388
976.748
976.108
975.468
974.829
974.191
973.556
972.923
972.294
971.668
971.047
970.43
969.818
969.212
968.612
968.018
967.43
966.849
966.275
965.709
965.151
964.6
964.058
963.524
962.998
962.481
961.973
961.474
960.984
960.503
960.031
959.569
959.116
958.672
958.238
957.813
957.398
956.993
956.597
956.21
955.83
955.459
955.096
954.741
954.393
954.054
953.722
953.397
953.08
952.77
952.468
952.172
951.883
951.601
951.326
951.058
950.796
950.541
950.293
950.051
949.816
949.587
949.366
949.151
948.943
948.743
948.55
948.365
948.188
948.02
947.86
947.71
947.57
947.44
947.321
947.214
947.117
947.028
946.941
946.84
946.698
946.46
946.06
945.502
944.851
944.6
944.57
944.565
981.326
980.686
980.027
979.366
978.702
978.037
977.37
976.7
976.03
975.359
974.688
974.017
973.348
972.681
972.017
971.356
970.699
970.046
969.399
968.757
968.122
967.493
966.872
966.257
965.65
965.051
964.46
963.877
963.303
962.737
962.18
961.633
961.095
960.566
960.047
959.537
959.037
958.547
958.067
957.596
957.136
956.685
956.244
955.813
955.391
954.979
954.577
954.184
953.8
953.425
953.059
952.702
952.354
952.015
951.684
951.362
951.048
950.743
950.446
950.158
949.878
949.606
949.341
949.085
948.836
948.594
948.36
948.134
947.914
947.702
947.497
947.299
947.108
946.924
946.747
946.577
946.415
946.259
946.111
945.97
945.836
945.71
945.591
945.479
945.375
945.277
945.187
945.103
945.025
944.954
944.887
944.826
944.77
944.719
944.676
944.643
944.6
944.572
944.565
944.562
978.073
977.39
976.687
975.986
975.285
974.585
973.886
973.188
972.491
971.796
971.104
970.416
969.731
969.05
968.375
967.705
967.041
966.384
965.734
965.092
964.457
963.831
963.214
962.605
962.006
961.416
960.837
960.267
959.707
959.158
958.619
958.091
957.573
957.067
956.571
956.085
955.611
955.148
954.696
954.254
953.824
953.404
952.995
952.597
952.21
951.833
951.466
951.11
950.764
950.428
950.102
949.787
949.482
949.188
948.904
948.631
948.368
948.115
947.872
947.639
947.416
947.203
946.999
946.805
946.621
946.446
946.28
946.123
945.976
945.837
945.708
945.587
945.475
945.371
945.275
945.187
945.107
945.035
944.969
944.911
944.859
944.812
944.772
944.737
944.707
944.681
944.659
944.64
944.625
944.612
944.602
944.593
944.587
944.581
944.577
944.574
944.569
944.565
944.562
944.56
975.048
974.339
973.611
972.887
972.165
971.446
970.731
970.019
969.311
968.608
967.91
967.217
966.531
965.852
965.18
964.515
963.859
963.211
962.572
961.942
961.322
960.712
960.112
959.523
958.944
958.377
957.822
957.277
956.745
956.224
955.715
955.217
954.732
954.259
953.798
953.349
952.912
952.488
952.075
951.675
951.287
950.911
950.547
950.195
949.856
949.528
949.213
948.91
948.619
948.339
948.072
947.817
947.574
947.342
947.122
946.914
946.717
946.531
946.356
946.192
946.039
945.895
945.762
945.639
945.525
945.42
945.324
945.236
945.156
945.084
945.018
944.96
944.907
944.861
944.819
944.783
944.751
944.723
944.698
944.677
944.659
944.643
944.63
944.618
944.609
944.6
944.593
944.587
944.582
944.578
944.575
944.572
944.57
944.568
944.567
944.565
944.564
944.563
944.562
944.561
972.466
971.758
971.034
970.314
969.599
968.889
968.185
967.487
966.796
966.113
965.437
964.77
964.112
963.462
962.823
962.194
961.575
960.967
960.371
959.785
959.212
958.65
958.1
957.563
957.038
956.525
956.025
955.538
955.063
954.601
954.152
953.715
953.291
952.88
952.481
952.094
951.72
951.358
951.009
950.671
950.346
950.032
949.73
949.44
949.161
948.893
948.637
948.391
948.156
947.932
947.718
947.514
947.32
947.135
946.96
946.794
946.636
946.488
946.347
946.215
946.09
945.972
945.862
945.758
945.661
945.571
945.486
945.406
945.332
945.264
945.2
945.14
945.085
945.034
944.987
944.943
944.903
944.865
944.831
944.799
944.771
944.744
944.72
944.698
944.678
944.66
944.643
944.628
944.615
944.604
944.594
944.586
944.58
944.576
944.573
944.571
944.569
944.568
944.568
944.568
970.922
970.256
969.582
968.914
968.253
967.6
966.956
966.322
965.697
965.084
964.481
963.889
963.309
962.74
962.184
961.64
961.108
960.588
960.08
959.585
959.103
958.633
958.176
957.731
957.299
956.88
956.472
956.077
955.694
955.322
954.962
954.614
954.276
953.949
953.632
953.326
953.03
952.742
952.464
952.195
951.935
951.682
951.437
951.199
950.969
950.745
950.527
950.316
950.11
949.909
949.713
949.522
949.336
949.154
948.975
948.801
948.63
948.463
948.299
948.139
947.981
947.827
947.676
947.528
947.383
947.241
947.102
946.967
946.834
946.705
946.579
946.456
946.337
946.221
946.109
945.999
945.894
945.791
945.692
945.597
945.505
945.417
945.332
945.25
945.171
945.096
945.025
944.957
944.893
944.834
944.781
944.734
944.695
944.665
944.644
944.631
944.621
944.615
944.613
944.617
971.246
970.675
970.103
969.538
968.985
968.441
967.91
967.391
966.884
966.389
965.907
965.437
964.981
964.537
964.107
963.688
963.282
962.888
962.506
962.136
961.778
961.431
961.095
960.77
960.456
960.152
959.858
959.574
959.298
959.031
958.772
958.521
958.277
958.04
957.809
957.584
957.365
957.15
956.94
956.734
956.532
956.334
956.138
955.944
955.753
955.564
955.376
955.189
955.003
954.817
954.632
954.447
954.261
954.076
953.889
953.702
953.514
953.324
953.134
952.942
952.748
952.553
952.356
952.158
951.958
951.756
951.552
951.347
951.14
950.932
950.722
950.51
950.298
950.083
949.868
949.651
949.433
949.213
948.992
948.769
948.544
948.316
948.085
947.851
947.614
947.374
947.131
946.885
946.637
946.391
946.149
945.916
945.697
945.5
945.333
945.21
945.113
945.039
944.992
944.982
974.013
973.579
973.149
972.728
972.32
971.924
971.539
971.167
970.807
970.459
970.123
969.799
969.488
969.187
968.898
968.619
968.352
968.094
967.847
967.61
967.381
967.161
966.949
966.743
966.544
966.352
966.165
965.984
965.808
965.636
965.469
965.305
965.144
964.987
964.832
964.68
964.53
964.381
964.234
964.088
963.944
963.8
963.656
963.513
963.37
963.227
963.084
962.94
962.796
962.651
962.505
962.357
962.209
962.059
961.908
961.755
961.6
961.443
961.284
961.122
960.957
960.79
960.62
960.446
960.268
960.086
959.901
959.71
959.516
959.316
959.111
958.9
958.683
958.46
958.229
957.991
957.744
957.489
957.222
956.944
956.653
956.348
956.025
955.683
955.32
954.932
954.515
954.067
953.587
953.071
952.52
951.936
951.323
950.69
950.047
949.419
948.892
948.423
948.049
947.833
979.213
978.932
978.656
978.388
978.13
977.881
977.641
977.41
977.188
976.973
976.767
976.569
976.378
976.194
976.017
975.846
975.682
975.523
975.37
975.223
975.08
974.941
974.807
974.677
974.551
974.429
974.309
974.193
974.081
973.97
973.863
973.758
973.656
973.555
973.457
973.361
973.267
973.174
973.083
972.994
972.906
972.82
972.735
972.651
972.568
972.487
972.407
972.327
972.249
972.171
972.095
972.019
971.944
971.869
971.795
971.722
971.649
971.577
971.506
971.435
971.365
971.295
971.226
971.157
971.088
971.018
970.947
970.876
970.803
970.729
970.654
970.577
970.497
970.416
970.331
970.243
970.151
970.055
969.954
969.847
969.734
969.614
969.486
969.35
969.204
969.046
968.865
968.658
968.419
968.142
967.821
967.448
967.018
966.52
965.941
965.264
964.465
963.664
962.94
962.448
985.194
985.032
984.874
984.72
984.573
984.43
984.292
984.16
984.031
983.908
983.788
983.673
983.561
983.454
983.35
983.25
983.152
983.059
982.969
982.882
982.798
982.717
982.639
982.565
982.494
982.425
982.36
982.298
982.239
982.182
982.129
982.079
982.032
981.987
981.946
981.907
981.872
981.839
981.809
981.782
981.758
981.736
981.717
981.701
981.688
981.677
981.67
981.665
981.662
981.663
981.666
981.673
981.682
981.694
981.71
981.728
981.75
981.776
981.804
981.837
981.873
981.912
981.956
982.004
982.058
982.117
982.182
982.254
982.332
982.417
982.51
982.611
982.721
982.841
982.97
983.11
983.261
983.424
983.599
983.788
983.989
984.205
984.434
984.677
984.933
985.205
985.5
985.822
986.176
986.564
986.984
987.439
987.933
988.471
989.057
989.693
990.377
991.098
991.825
992.495
989.951
989.868
989.788
989.714
989.643
989.578
989.516
989.458
989.404
989.353
989.306
989.262
989.221
989.184
989.149
989.117
989.087
989.061
989.037
989.016
988.997
988.98
988.966
988.954
988.945
988.938
988.933
988.931
988.931
988.934
988.939
988.946
988.956
988.968
988.983
989
989.02
989.043
989.068
989.096
989.127
989.161
989.198
989.237
989.28
989.326
989.375
989.428
989.483
989.543
989.606
989.673
989.743
989.817
989.896
989.978
990.065
990.156
990.252
990.352
990.458
990.569
990.686
990.809
990.937
991.073
991.215
991.364
991.521
991.686
991.859
992.041
992.231
992.43
992.638
992.856
993.084
993.321
993.567
993.823
994.087
994.36
994.64
994.926
995.217
995.513
995.81
996.108
996.403
996.693
996.986
997.282
997.575
997.863
998.142
998.408
998.657
998.882
999.074
999.219
993.374
993.334
993.299
993.269
993.242
993.221
993.202
993.188
993.177
993.169
993.164
993.162
993.163
993.167
993.174
993.184
993.196
993.211
993.228
993.247
993.269
993.294
993.32
993.349
993.381
993.414
993.449
993.487
993.527
993.569
993.613
993.659
993.707
993.757
993.81
993.864
993.921
993.979
994.04
994.103
994.169
994.236
994.306
994.377
994.451
994.528
994.606
994.687
994.77
994.856
994.944
995.034
995.127
995.223
995.32
995.421
995.524
995.629
995.737
995.848
995.962
996.078
996.196
996.317
996.44
996.566
996.694
996.824
996.957
997.091
997.227
997.364
997.503
997.642
997.783
997.923
998.064
998.203
998.342
998.479
998.613
998.744
998.871
998.993
999.11
999.221
999.324
999.421
999.509
999.588
999.657
999.717
999.769
999.815
999.854
999.888
999.915
999.937
999.953
999.963
995.755
995.737
995.724
995.716
995.712
995.712
995.714
995.72
995.729
995.74
995.754
995.771
995.79
995.811
995.835
995.862
995.89
995.921
995.954
995.989
996.026
996.065
996.106
996.149
996.194
996.24
996.289
996.339
996.391
996.445
996.5
996.556
996.615
996.674
996.735
996.798
996.861
996.926
996.992
997.06
997.128
997.197
997.267
997.338
997.41
997.482
997.555
997.629
997.703
997.777
997.852
997.927
998.002
998.077
998.152
998.227
998.302
998.377
998.452
998.526
998.6
998.672
998.745
998.816
998.886
998.955
999.022
999.089
999.153
999.216
999.278
999.337
999.394
999.449
999.502
999.553
999.601
999.647
999.689
999.73
999.767
999.801
999.832
999.86
999.886
999.908
999.927
999.943
999.957
999.968
999.977
999.983
999.988
999.991
999.994
999.996
999.997
999.998
999.999
999.999
997.291
997.284
997.282
997.284
997.289
997.298
997.309
997.322
997.338
997.356
997.376
997.398
997.422
997.447
997.475
997.505
997.536
997.569
997.603
997.639
997.677
997.716
997.756
997.798
997.841
997.885
997.93
997.976
998.024
998.072
998.121
998.17
998.22
998.271
998.323
998.374
998.426
998.479
998.531
998.584
998.636
998.689
998.741
998.793
998.844
998.895
998.946
998.996
999.045
999.093
999.141
999.187
999.233
999.278
999.321
999.364
999.405
999.445
999.483
999.52
999.556
999.59
999.623
999.655
999.684
999.713
999.74
999.765
999.789
999.811
999.832
999.851
999.869
999.886
999.901
999.915
999.927
999.938
999.949
999.958
999.965
999.972
999.978
999.983
999.987
999.99
999.993
999.995
999.997
999.998
999.999
999.999
1000
1000
1000
1000
1000
1000
1000
1000
998.256
998.254
998.256
998.262
998.27
998.28
998.292
998.307
998.323
998.34
998.359
998.38
998.402
998.425
998.45
998.476
998.503
998.531
998.561
998.591
998.622
998.655
998.688
998.721
998.756
998.791
998.826
998.862
998.898
998.935
998.971
999.008
999.045
999.082
999.119
999.156
999.192
999.228
999.264
999.3
999.335
999.369
999.403
999.436
999.468
999.499
999.53
999.56
999.589
999.617
999.643
999.669
999.694
999.718
999.74
999.762
999.782
999.801
999.82
999.837
999.853
999.868
999.881
999.894
999.906
999.917
999.927
999.936
999.945
999.952
999.959
999.965
999.97
999.975
999.979
999.983
999.986
999.989
999.991
999.993
999.995
999.996
999.997
999.998
999.998
999.999
999.999
1000
1000
1000
1000
1000
1000
1000
1000
1000
1000
1000
1000
1000
998.877
998.877
998.88
998.886
998.893
998.902
998.912
998.924
998.937
998.951
998.966
998.982
998.999
999.017
999.036
999.056
999.077
999.098
999.12
999.143
999.166
999.19
999.214
999.238
999.263
999.288
999.314
999.339
999.365
999.391
999.416
999.442
999.467
999.492
999.517
999.542
999.566
999.59
999.613
999.636
999.658
999.679
999.7
999.72
999.74
999.758
999.776
999.793
999.81
999.825
999.84
999.854
999.867
999.88
999.891
999.902
999.912
999.922
999.93
999.938
999.945
999.952
999.958
999.963
999.968
999.973
999.977
999.98
999.983
999.986
999.988
999.99
999.992
999.994
999.995
999.996
999.997
999.998
999.998
999.999
999.999
999.999
1000
1000
1000
1000
1000
1000
1000
1000
1000
1000
1000
1000
1000
1000
1000
1000
1000
1000
999.293
999.293
999.296
999.3
999.305
999.311
999.319
999.327
999.336
999.345
999.356
999.367
999.379
999.391
999.404
999.418
999.432
999.447
999.462
999.478
999.493
999.51
999.526
999.543
999.56
999.577
999.594
999.611
999.628
999.645
999.662
999.679
999.695
999.712
999.728
999.743
999.759
999.774
999.788
999.802
999.816
999.829
999.841
999.853
999.865
999.876
999.886
999.896
999.905
999.914
999.922
999.93
999.937
999.944
999.95
999.955
999.961
999.965
999.97
999.974
999.977
999.98
999.983
999.986
999.988
999.99
999.991
999.993
999.994
999.995
999.996
999.997
999.997
999.998
999.998
999.999
999.999
999.999
1000
1000
1000
1000
1000
1000
1000
1000
1000
1000
1000
1000
1000
1000
1000
1000
1000
1000
1000
1000
1000
1000
999.578
999.578
999.579
999.582
999.585
999.589
999.593
999.598
999.603
999.609
999.616
999.623
999.63
999.638
999.646
999.654
999.663
999.673
999.682
999.692
999.702
999.712
999.722
999.733
999.744
999.754
999.765
999.776
999.786
999.797
999.807
999.817
999.827
999.837
999.847
999.857
999.866
999.875
999.883
999.892
999.9
999.907
999.914
999.921
999.928
999.934
999.94
999.946
999.951
999.956
999.96
999.964
999.968
999.972
999.975
999.978
999.981
999.983
999.986
999.988
999.989
999.991
999.992
999.994
999.995
999.996
999.996
999.997
999.998
999.998
999.998
999.999
999.999
999.999
999.999
1000
1000
1000
1000
1000
1000
1000
1000
1000
1000
1000
1000
1000
1000
1000
1000
1000
1000
1000
1000
1000
1000
1000
1000
1000
999.809
999.808
999.808
999.809
999.81
999.811
999.813
999.815
999.817
999.819
999.822
999.825
999.828
999.832
999.835
999.839
999.843
999.847
999.852
999.856
999.861
999.866
999.871
999.876
999.881
999.886
999.891
999.896
999.901
999.906
999.911
999.916
999.921
999.925
999.93
999.934
999.939
999.943
999.947
999.951
999.955
999.958
999.962
999.965
999.968
999.971
999.974
999.976
999.979
999.981
999.983
999.985
999.986
999.988
999.989
999.991
999.992
999.993
999.994
999.995
999.996
999.996
999.997
999.997
999.998
999.998
999.999
999.999
999.999
999.999
999.999
1000
1000
1000
1000
1000
1000
1000
1000
1000
1000
1000
1000
1000
1000
1000
1000
1000
1000
1000
1000
1000
1000
1000
1000
1000
1000
1000
1000
1000
944.565
944.557
944.555
944.555
944.555
944.556
944.556
944.557
944.559
944.561
944.565
944.572
944.582
944.598
944.623
944.666
944.739
944.867
945.114
945.664
944.562
944.556
944.555
944.555
944.556
944.557
944.558
944.56
944.563
944.567
944.574
944.584
944.6
944.626
944.667
944.734
944.847
945.052
945.461
946.477
944.56
944.556
944.556
944.556
944.557
944.559
944.561
944.565
944.57
944.578
944.59
944.608
944.636
944.679
944.747
944.857
945.047
945.401
946.153
948.237
944.558
944.557
944.558
944.559
944.561
944.565
944.57
944.577
944.588
944.603
944.625
944.658
944.707
944.783
944.902
945.098
945.442
946.107
947.612
952.153
944.56
944.561
944.563
944.567
944.573
944.581
944.592
944.608
944.63
944.661
944.705
944.768
944.861
945.001
945.222
945.59
946.247
947.547
950.611
960.243
944.572
944.577
944.585
944.596
944.611
944.632
944.659
944.696
944.745
944.811
944.9
945.025
945.206
945.476
945.898
946.597
947.839
950.282
956.036
973.628
944.634
944.654
944.681
944.716
944.761
944.818
944.889
944.977
945.085
945.223
945.404
945.652
946.001
946.512
947.295
948.565
950.76
954.931
964.179
987.986
945.046
945.126
945.221
945.334
945.465
945.613
945.778
945.958
946.17
946.436
946.779
947.235
947.862
948.759
950.107
952.232
955.785
962.198
974.703
996.407
947.943
948.181
948.439
948.716
949
949.257
949.513
949.778
950.113
950.523
951.047
951.721
952.639
953.934
955.929
959.081
964.263
972.801
985.853
998.938
962.503
962.865
963.248
963.638
964.007
964.298
964.598
964.96
965.368
965.818
966.355
966.989
967.846
969.004
970.906
974.046
979.161
986.386
994.65
998.978
992.858
992.822
992.816
992.837
992.917
993.143
993.424
993.72
994.036
994.395
994.787
995.254
995.774
996.412
996.983
997.48
997.837
998.36
999.352
999.751
999.27
999.243
999.221
999.203
999.196
999.216
999.254
999.313
999.372
999.436
999.501
999.573
999.643
999.721
999.782
999.829
999.857
999.891
999.964
999.945
999.965
999.961
999.957
999.953
999.949
999.946
999.946
999.948
999.953
999.959
999.965
999.971
999.977
999.982
999.987
999.99
999.992
999.995
999.998
999.991
999.999
999.999
999.999
999.999
999.998
999.998
999.998
999.998
999.998
999.998
999.998
999.999
999.999
999.999
999.999
999.999
1000
1000
1000
999.999
1000
1000
1000
1000
1000
1000
1000
1000
1000
1000
1000
1000
1000
1000
1000
1000
1000
1000
1000
1000
1000
1000
1000
1000
1000
1000
1000
1000
1000
1000
1000
1000
1000
1000
1000
1000
1000
1000
1000
1000
1000
1000
1000
1000
1000
1000
1000
1000
1000
1000
1000
1000
1000
1000
1000
1000
1000
1000
1000
1000
1000
1000
1000
1000
1000
1000
1000
1000
1000
1000
1000
1000
1000
1000
1000
1000
1000
1000
1000
1000
1000
1000
1000
1000
1000
1000
1000
1000
1000
1000
1000
1000
1000
1000
1000
1000
1000
1000
1000
1000
1000
1000
1000
1000
1000
1000
1000
1000
1000
1000
1000
1000
1000
1000
1000
1000
1000
1000
1000
1000
944.555
944.555
944.555
944.555
944.555
944.555
944.555
944.555
944.555
944.555
944.555
944.555
944.555
944.555
944.555
944.555
944.555
944.555
944.555
944.555
944.555
944.555
944.555
944.555
944.555
944.555
944.555
944.555
944.555
944.555
944.555
944.555
944.555
944.555
944.555
944.555
944.555
944.555
944.555
944.555
944.555
944.555
944.555
944.555
944.555
944.555
944.555
944.555
944.555
944.555
944.555
944.555
944.555
944.555
944.555
944.555
944.555
944.555
944.555
944.555
944.555
944.555
944.555
944.555
944.555
944.555
944.555
944.555
944.555
944.555
944.555
944.555
944.555
944.555
944.555
944.555
944.555
944.555
944.555
944.555
944.555
944.555
944.555
944.555
944.555
944.555
944.555
944.555
944.555
944.555
944.555
944.555
944.555
944.555
944.555
944.555
944.555
944.555
944.555
944.555
944.555
944.555
944.555
944.555
944.555
944.555
944.555
944.555
944.555
944.555
944.555
944.555
944.555
944.555
944.555
944.555
944.555
944.555
944.555
944.555
944.555
944.555
944.555
944.555
944.555
944.555
944.555
944.555
944.555
944.555
944.555
944.555
944.555
944.555
944.555
944.555
944.555
944.555
944.555
944.555
944.555
944.555
944.555
944.555
944.555
944.555
944.555
944.555
944.555
944.555
944.555
944.555
944.555
944.555
944.555
944.555
944.555
944.555
944.555
944.555
944.555
944.555
944.555
944.555
944.555
944.555
944.555
944.555
944.555
944.555
944.555
944.555
944.555
944.555
944.555
944.555
944.555
944.555
944.555
944.555
944.555
944.555
944.555
944.555
944.555
944.555
944.555
944.555
944.555
944.555
944.555
944.555
944.555
944.555
944.555
944.555
944.555
944.555
944.555
944.555
944.555
944.555
944.555
944.555
944.555
944.555
944.555
944.555
944.555
944.555
944.555
944.555
944.555
944.555
944.555
944.555
944.555
944.555
944.555
944.555
944.555
944.555
944.555
944.555
944.555
944.555
944.555
944.555
944.555
944.555
944.555
944.555
944.555
944.555
944.555
944.555
944.555
944.555
944.555
944.555
944.555
944.555
944.555
944.555
944.555
944.555
944.555
944.555
944.555
944.555
944.555
944.555
944.555
944.555
944.555
944.555
944.555
944.555
944.555
944.555
944.555
944.555
944.555
944.555
944.555
944.555
944.555
944.555
944.555
944.555
944.555
944.555
944.555
944.555
944.555
944.555
944.555
944.555
944.555
944.555
944.555
944.555
944.555
944.555
944.555
944.555
944.555
944.555
944.555
944.555
944.555
944.555
944.555
944.555
944.555
944.555
944.555
944.555
944.555
944.555
944.555
944.555
944.555
944.555
944.555
944.555
944.555
944.555
944.555
944.555
944.555
944.555
944.555
944.555
944.555
944.555
944.555
944.555
944.555
944.555
944.555
944.555
944.555
944.555
944.555
944.555
944.555
944.555
944.555
944.555
944.555
944.555
944.555
944.555
944.555
944.555
944.555
944.555
944.555
944.555
944.555
944.555
944.555
944.555
944.555
944.555
944.555
944.555
944.555
944.555
944.555
944.555
944.555
944.555
944.555
944.555
944.555
944.555
944.555
944.555
944.555
944.555
944.555
944.555
944.555
944.555
944.555
944.555
944.555
944.555
944.555
944.555
944.555
944.555
944.555
944.555
944.555
944.555
944.555
944.555
944.555
944.555
944.555
944.555
944.555
944.555
944.555
944.555
944.555
944.555
944.555
944.555
944.555
944.555
944.555
944.555
944.555
944.555
944.555
944.555
944.555
944.555
944.555
944.555
944.555
944.555
944.555
944.555
944.555
944.555
944.555
944.555
944.555
944.555
944.555
944.555
944.555
944.555
944.555
944.555
944.555
944.555
944.555
944.555
944.555
944.555
944.555
944.555
944.555
944.555
944.555
944.555
944.555
944.555
944.555
944.555
944.555
944.555
944.555
944.555
944.555
944.555
944.555
944.555
944.555
944.555
944.555
944.555
944.555
944.555
944.555
944.555
944.555
944.555
944.555
944.555
944.555
944.555
944.555
944.555
944.555
944.555
944.555
944.555
944.555
944.555
944.555
944.555
944.555
944.555
944.555
944.555
944.555
944.555
944.555
944.555
944.555
944.555
944.555
944.555
944.555
944.555
944.555
944.555
944.555
944.555
944.555
944.555
944.555
944.555
944.555
944.555
944.555
944.555
944.555
944.555
944.555
944.555
944.555
944.555
944.555
944.555
944.555
944.555
944.555
944.555
944.555
944.555
944.555
944.555
944.555
944.555
944.555
944.555
944.555
944.555
944.555
944.555
944.555
944.555
944.555
944.555
944.555
944.555
944.555
944.555
944.555
944.555
944.555
944.555
944.555
944.555
944.555
944.555
944.555
944.555
944.555
944.555
944.555
944.555
944.555
944.555
944.555
944.555
944.555
944.555
944.555
944.555
944.555
944.555
944.555
944.555
944.555
944.555
944.555
944.555
944.555
944.555
944.555
944.555
944.555
944.555
944.555
944.555
944.555
944.555
944.555
944.555
944.555
944.555
944.555
944.555
944.555
944.555
944.555
944.555
944.555
944.555
944.555
944.555
944.555
944.555
944.555
944.555
944.555
944.555
944.555
944.555
944.555
944.555
944.555
944.555
944.555
944.555
944.555
944.555
944.555
944.555
944.555
944.555
944.555
944.555
944.555
944.555
944.555
944.555
944.555
944.555
944.555
944.555
944.555
944.555
944.555
944.555
944.555
944.555
944.555
944.555
944.555
944.555
944.555
944.555
944.555
944.555
944.555
944.555
944.555
944.555
944.555
944.555
944.555
944.555
944.555
944.555
944.555
944.555
944.555
944.555
944.555
944.555
944.555
944.555
944.555
944.555
944.555
944.555
944.555
944.555
944.555
944.555
944.555
944.555
944.555
944.555
944.555
944.555
944.555
944.555
944.555
944.555
944.555
944.555
944.555
944.555
944.555
944.555
944.555
944.555
944.555
944.555
944.555
944.555
944.555
944.555
944.555
944.555
944.555
944.555
944.555
944.555
944.555
944.555
944.555
944.555
944.555
944.555
944.555
944.555
944.555
944.555
944.555
944.555
944.555
944.555
944.555
944.555
944.555
944.555
944.555
944.555
944.555
944.555
944.555
944.555
944.555
944.555
944.555
944.555
944.555
944.555
944.555
944.555
944.555
944.555
944.555
944.555
944.555
944.555
944.555
944.555
944.555
944.555
944.555
944.555
944.555
944.555
944.555
944.555
944.555
944.555
944.555
944.555
944.555
944.555
944.555
944.555
944.555
944.555
944.555
944.555
944.555
944.555
944.555
944.555
944.555
944.555
944.555
944.555
944.555
944.555
944.555
944.555
944.555
944.555
944.555
944.555
944.555
944.555
944.555
944.555
944.555
944.555
944.555
944.555
944.555
944.555
944.555
944.555
944.555
944.555
944.555
944.555
944.555
944.555
944.555
944.555
944.555
944.555
944.555
944.555
944.555
944.555
944.555
944.555
944.555
944.555
944.555
944.555
944.555
944.555
944.555
944.555
944.555
944.555
944.555
944.555
944.555
944.555
944.555
944.555
944.555
944.555
944.555
944.555
944.555
944.555
944.555
944.555
944.555
944.555
944.555
944.555
944.555
944.555
944.555
944.555
944.555
944.555
944.555
944.555
944.555
944.555
944.555
944.555
944.555
944.555
944.555
944.555
944.555
944.555
944.555
944.555
944.555
944.555
944.555
944.555
944.555
944.555
944.555
944.555
944.555
944.555
944.555
944.555
944.555
944.555
944.555
944.555
944.555
944.555
944.555
944.555
944.555
944.555
944.555
944.555
944.555
944.555
944.555
944.555
944.555
944.555
944.555
944.555
944.555
944.555
944.555
944.555
944.555
944.555
944.555
944.555
944.555
944.555
944.555
944.555
944.555
944.555
944.555
944.555
944.555
944.555
944.555
944.555
944.555
944.555
944.555
944.555
944.555
944.555
944.555
944.555
944.555
944.555
944.555
944.555
944.555
944.555
944.555
944.555
944.555
944.555
944.555
944.555
944.555
944.555
944.555
944.555
944.555
944.555
944.555
944.555
944.555
944.555
944.555
944.555
944.555
944.555
944.555
944.555
944.555
944.555
944.555
944.555
944.555
944.555
944.555
944.555
944.555
944.555
944.555
944.555
944.555
944.555
944.555
944.555
944.555
944.555
944.555
944.555
944.555
944.555
944.555
944.555
944.555
944.555
944.555
944.555
944.555
944.555
944.555
944.555
944.555
944.555
944.555
944.555
944.555
944.555
944.555
944.555
944.555
944.555
944.555
944.555
944.555
944.555
944.555
944.555
944.555
944.555
944.555
944.555
944.555
944.555
944.555
944.555
944.555
944.555
944.555
944.555
944.555
944.555
944.555
944.555
944.555
944.555
944.555
944.555
944.555
944.555
944.555
944.555
944.555
944.555
944.555
944.555
944.555
944.555
944.555
944.555
944.555
944.555
944.555
944.555
944.555
944.555
944.555
944.555
944.555
944.555
944.555
944.555
944.555
944.555
944.555
944.555
944.555
944.555
944.555
944.555
944.555
944.555
944.555
944.555
944.555
944.555
944.555
944.555
944.555
944.555
944.555
944.555
944.555
944.555
944.555
944.555
944.555
944.555
944.555
944.555
944.555
944.555
944.555
944.555
944.555
944.555
944.555
944.555
944.555
944.555
944.555
944.555
944.555
944.555
944.555
944.555
944.555
944.555
944.555
944.555
944.555
944.555
944.555
944.555
944.555
944.555
944.555
944.555
944.555
944.555
944.555
944.555
944.555
944.555
944.555
944.555
944.555
944.555
944.555
944.555
944.555
944.555
944.555
944.555
944.555
944.555
944.555
944.555
944.555
944.555
944.555
944.555
944.555
944.555
944.555
944.555
944.555
944.555
944.555
944.555
944.555
944.555
944.555
944.555
944.555
944.555
944.555
944.555
944.555
944.555
944.555
944.555
944.555
944.555
944.555
944.555
944.555
944.555
944.555
944.555
944.555
944.555
944.555
944.555
944.555
944.555
944.555
944.555
944.555
944.555
944.555
944.555
944.555
944.555
944.555
944.555
944.555
944.555
944.555
944.555
944.555
944.555
944.555
944.555
944.555
944.555
944.555
944.555
944.555
944.555
944.555
944.555
944.555
944.555
944.555
944.555
944.555
944.555
944.555
944.555
944.555
944.555
944.555
944.555
944.555
944.555
944.555
944.555
944.555
944.555
944.555
944.555
944.555
944.555
944.555
944.555
944.555
944.555
944.555
944.555
944.555
944.555
944.555
944.555
944.555
944.555
944.555
944.555
944.555
944.555
944.555
944.555
944.555
944.555
944.555
944.555
944.555
944.555
944.555
944.555
944.555
944.555
944.555
944.555
944.555
944.555
944.555
944.555
944.555
944.555
944.555
944.555
944.555
944.555
944.555
944.555
944.555
944.555
944.555
944.555
944.555
944.555
944.555
944.555
944.555
944.555
944.555
944.555
944.555
944.555
944.555
944.555
944.555
944.555
944.555
944.555
944.555
944.555
944.555
944.555
944.555
944.555
944.555
944.555
944.555
944.555
944.555
944.555
944.555
944.555
944.555
944.555
944.555
944.555
944.555
944.555
944.555
944.555
944.555
944.555
944.555
944.555
944.555
944.555
944.555
944.555
944.555
944.555
944.555
944.555
944.555
944.555
944.555
944.555
944.555
944.555
944.555
944.555
944.555
944.555
944.555
944.555
944.555
944.555
944.555
944.555
944.555
944.555
944.555
944.555
944.555
944.555
944.555
944.555
944.555
944.555
944.555
944.555
944.555
944.555
944.555
944.555
944.555
944.555
944.555
944.555
944.555
944.555
944.555
944.555
944.555
944.555
944.555
944.555
944.555
944.555
944.555
944.555
944.555
944.555
944.555
944.555
944.555
944.555
944.555
944.555
944.555
944.555
944.555
944.555
944.555
944.555
944.555
944.555
944.555
944.555
944.555
944.555
944.555
944.555
944.555
944.555
944.555
944.555
944.555
944.555
944.555
944.555
944.555
944.555
944.555
944.555
944.555
944.555
944.555
944.555
944.555
944.555
944.555
944.555
944.555
944.555
944.555