/*--------------------------------*- C++ -*----------------------------------*\
| =========                 |                                                 |
| \\      /  F ield         | OpenFOAM: The Open Source CFD Toolbox           |
|  \\    /   O peration     | Version:  2.1.0                                 |
|   \\  /    A nd           | Web:      www.OpenFOAM.org                      |
|    \\/     M anipulation  |                                                 |
\*---------------------------------------------------------------------------*/
FoamFile
{
    version     2.0;
    format      ascii;
    class       volScalarField;
    location    "0.31";
    object      T;
}
// * * * * * * * * * * * * * * * * * * * * * * * * * * * * * * * * * * * * * //

dimensions      [0 0 0 1 0 0 0];

internalField   nonuniform List<scalar> 
6400
(
311.104
311.958
312.824
313.703
314.598
315.51
316.438
317.383
318.344
319.32
320.31
321.313
322.328
323.355
324.391
325.437
326.49
327.551
328.617
329.687
330.762
331.838
332.916
333.995
335.073
336.149
337.222
338.292
339.357
340.417
341.471
342.517
343.556
344.587
345.608
346.619
347.62
348.61
349.587
350.553
351.505
352.444
353.369
354.28
355.175
356.056
356.92
357.769
358.602
359.418
360.218
361.002
361.769
362.519
363.253
363.973
364.679
365.371
366.049
366.713
367.363
367.999
368.621
369.23
369.825
370.406
370.973
371.525
372.064
372.588
373.097
373.591
374.071
374.535
374.983
375.416
375.832
376.23
376.611
376.972
377.311
377.626
377.91
378.157
378.356
378.492
378.544
378.474
378.222
377.682
376.646
374.675
370.794
363.074
351.541
361.605
387.288
392.813
393.103
393.125
319.409
320.437
321.494
322.558
323.633
324.719
325.814
326.92
328.034
329.156
330.286
331.42
332.559
333.701
334.846
335.991
337.136
338.279
339.421
340.558
341.691
342.819
343.941
345.056
346.164
347.262
348.352
349.431
350.5
351.558
352.604
353.638
354.658
355.666
356.66
357.639
358.604
359.554
360.489
361.409
362.312
363.2
364.072
364.927
365.765
366.587
367.392
368.181
368.952
369.706
370.442
371.164
371.871
372.563
373.241
373.905
374.555
375.19
375.812
376.42
377.014
377.596
378.164
378.72
379.262
379.793
380.31
380.816
381.309
381.79
382.258
382.715
383.159
383.59
384.009
384.415
384.807
385.186
385.551
385.902
386.237
386.557
386.859
387.144
387.411
387.657
387.882
388.086
388.27
388.439
388.605
388.796
389.067
389.518
390.28
391.342
392.585
393.064
393.12
393.13
325.565
326.698
327.868
329.041
330.219
331.403
332.593
333.787
334.985
336.186
337.388
338.591
339.794
340.994
342.191
343.383
344.571
345.751
346.924
348.088
349.242
350.385
351.517
352.637
353.745
354.841
355.923
356.991
358.045
359.084
360.108
361.116
362.108
363.083
364.043
364.985
365.91
366.819
367.71
368.583
369.44
370.278
371.1
371.904
372.69
373.46
374.212
374.947
375.666
376.368
377.053
377.723
378.377
379.015
379.637
380.243
380.834
381.408
381.968
382.512
383.041
383.555
384.055
384.54
385.011
385.468
385.911
386.341
386.757
387.159
387.548
387.924
388.287
388.636
388.972
389.295
389.605
389.9
390.183
390.451
390.706
390.946
391.173
391.386
391.585
391.771
391.943
392.103
392.252
392.389
392.515
392.632
392.739
392.835
392.918
392.981
393.064
393.116
393.13
393.135
331.34
332.556
333.81
335.064
336.318
337.572
338.827
340.082
341.336
342.588
343.837
345.083
346.322
347.556
348.782
350
351.208
352.406
353.592
354.767
355.928
357.075
358.208
359.326
360.428
361.515
362.584
363.636
364.67
365.687
366.686
367.665
368.626
369.569
370.492
371.395
372.279
373.144
373.989
374.815
375.621
376.407
377.174
377.921
378.649
379.357
380.047
380.718
381.369
382.003
382.617
383.213
383.788
384.345
384.881
385.399
385.897
386.376
386.837
387.279
387.702
388.107
388.493
388.862
389.213
389.546
389.861
390.159
390.44
390.703
390.95
391.181
391.395
391.593
391.775
391.943
392.095
392.234
392.358
392.47
392.57
392.658
392.735
392.802
392.86
392.91
392.952
392.987
393.016
393.04
393.06
393.076
393.089
393.099
393.107
393.113
393.122
393.131
393.135
393.139
336.743
338.014
339.321
340.624
341.924
343.22
344.512
345.8
347.082
348.359
349.627
350.887
352.138
353.378
354.606
355.822
357.025
358.213
359.387
360.546
361.688
362.814
363.922
365.012
366.083
367.134
368.165
369.177
370.168
371.138
372.087
373.015
373.921
374.806
375.669
376.51
377.329
378.126
378.901
379.654
380.384
381.092
381.778
382.442
383.083
383.701
384.297
384.871
385.422
385.951
386.457
386.941
387.402
387.842
388.26
388.655
389.03
389.383
389.716
390.028
390.32
390.593
390.847
391.082
391.299
391.499
391.682
391.85
392.002
392.14
392.265
392.377
392.477
392.566
392.645
392.714
392.776
392.829
392.876
392.916
392.951
392.981
393.006
393.028
393.047
393.063
393.076
393.087
393.097
393.105
393.111
393.117
393.121
393.124
393.127
393.13
393.132
393.135
393.137
393.139
341.381
342.658
343.966
345.267
346.562
347.849
349.127
350.396
351.655
352.901
354.135
355.356
356.561
357.752
358.926
360.083
361.222
362.343
363.444
364.526
365.588
366.629
367.648
368.646
369.622
370.576
371.507
372.416
373.302
374.166
375.006
375.824
376.619
377.391
378.139
378.866
379.569
380.25
380.908
381.544
382.158
382.75
383.32
383.869
384.396
384.902
385.388
385.853
386.298
386.724
387.13
387.517
387.885
388.236
388.568
388.884
389.183
389.466
389.733
389.986
390.223
390.447
390.657
390.854
391.039
391.212
391.374
391.525
391.666
391.797
391.919
392.033
392.138
392.235
392.325
392.409
392.486
392.557
392.622
392.683
392.738
392.788
392.834
392.876
392.914
392.949
392.981
393.009
393.034
393.056
393.074
393.089
393.101
393.109
393.115
393.119
393.122
393.124
393.125
393.124
344.168
345.371
346.592
347.804
349.004
350.191
351.364
352.52
353.66
354.782
355.886
356.97
358.034
359.079
360.102
361.104
362.085
363.044
363.981
364.897
365.79
366.661
367.509
368.334
369.137
369.917
370.676
371.412
372.126
372.82
373.492
374.144
374.775
375.387
375.98
376.554
377.11
377.649
378.171
378.677
379.167
379.642
380.103
380.55
380.984
381.406
381.816
382.216
382.604
382.983
383.353
383.714
384.066
384.41
384.747
385.077
385.4
385.717
386.027
386.332
386.63
386.922
387.209
387.49
387.765
388.035
388.298
388.556
388.808
389.053
389.293
389.526
389.753
389.973
390.187
390.395
390.596
390.791
390.98
391.162
391.337
391.506
391.668
391.823
391.973
392.116
392.253
392.382
392.504
392.616
392.718
392.807
392.881
392.939
392.98
393.004
393.022
393.034
393.039
393.032
343.582
344.614
345.65
346.672
347.676
348.662
349.627
350.573
351.496
352.399
353.278
354.136
354.97
355.782
356.572
357.339
358.084
358.808
359.509
360.191
360.85
361.49
362.108
362.708
363.288
363.849
364.393
364.92
365.43
365.924
366.404
366.87
367.322
367.762
368.191
368.609
369.016
369.415
369.805
370.188
370.565
370.935
371.3
371.66
372.017
372.37
372.721
373.07
373.418
373.764
374.11
374.457
374.803
375.151
375.5
375.851
376.203
376.558
376.916
377.276
377.639
378.005
378.374
378.747
379.123
379.503
379.886
380.272
380.662
381.054
381.45
381.848
382.25
382.654
383.061
383.471
383.883
384.298
384.716
385.138
385.565
385.997
386.434
386.877
387.326
387.782
388.244
388.712
389.181
389.65
390.11
390.555
390.971
391.346
391.665
391.9
392.084
392.225
392.315
392.334
338.6
339.38
340.154
340.91
341.645
342.36
343.053
343.726
344.376
345.006
345.613
346.2
346.765
347.311
347.835
348.341
348.826
349.294
349.743
350.176
350.591
350.992
351.379
351.754
352.116
352.467
352.807
353.138
353.46
353.774
354.08
354.38
354.673
354.961
355.244
355.523
355.798
356.07
356.339
356.606
356.872
357.136
357.399
357.662
357.924
358.187
358.45
358.714
358.979
359.246
359.514
359.785
360.058
360.333
360.612
360.894
361.179
361.469
361.762
362.061
362.364
362.673
362.987
363.309
363.637
363.972
364.316
364.667
365.028
365.397
365.777
366.167
366.569
366.984
367.411
367.853
368.311
368.787
369.281
369.798
370.34
370.909
371.51
372.147
372.826
373.551
374.329
375.167
376.067
377.034
378.067
379.165
380.317
381.511
382.723
383.909
384.906
385.793
386.501
386.912
329.312
329.812
330.304
330.779
331.239
331.682
332.11
332.522
332.919
333.301
333.669
334.024
334.365
334.694
335.01
335.315
335.609
335.893
336.167
336.432
336.688
336.936
337.176
337.409
337.636
337.855
338.069
338.277
338.48
338.678
338.871
339.059
339.243
339.424
339.6
339.773
339.943
340.109
340.273
340.433
340.591
340.747
340.9
341.051
341.2
341.346
341.491
341.634
341.775
341.915
342.053
342.19
342.326
342.46
342.593
342.725
342.856
342.986
343.115
343.243
343.37
343.496
343.62
343.745
343.87
343.997
344.124
344.253
344.385
344.518
344.654
344.794
344.938
345.086
345.239
345.398
345.564
345.739
345.922
346.115
346.32
346.537
346.769
347.016
347.281
347.567
347.895
348.27
348.705
349.208
349.792
350.47
351.254
352.162
353.218
354.455
355.916
357.386
358.714
359.619
318.752
319.035
319.314
319.583
319.843
320.093
320.336
320.569
320.795
321.012
321.223
321.425
321.622
321.811
321.995
322.171
322.343
322.507
322.667
322.82
322.968
323.11
323.247
323.378
323.505
323.625
323.74
323.85
323.955
324.054
324.148
324.237
324.32
324.398
324.472
324.54
324.603
324.661
324.713
324.761
324.804
324.843
324.876
324.904
324.928
324.946
324.96
324.969
324.973
324.972
324.966
324.955
324.938
324.917
324.889
324.856
324.818
324.773
324.722
324.665
324.601
324.531
324.454
324.369
324.274
324.17
324.055
323.928
323.79
323.64
323.476
323.297
323.103
322.892
322.664
322.418
322.151
321.864
321.555
321.224
320.869
320.49
320.088
319.661
319.21
318.733
318.215
317.65
317.031
316.35
315.616
314.821
313.958
313.019
311.999
310.892
309.704
308.451
307.191
306.032
310.443
310.586
310.726
310.855
310.978
311.092
311.2
311.3
311.395
311.482
311.565
311.641
311.712
311.778
311.839
311.894
311.945
311.991
312.033
312.07
312.104
312.132
312.157
312.177
312.194
312.206
312.214
312.217
312.217
312.213
312.205
312.192
312.175
312.153
312.127
312.097
312.062
312.023
311.979
311.93
311.876
311.817
311.754
311.685
311.61
311.53
311.445
311.353
311.256
311.153
311.043
310.927
310.805
310.675
310.539
310.396
310.245
310.087
309.92
309.746
309.562
309.369
309.166
308.954
308.73
308.495
308.248
307.989
307.717
307.432
307.132
306.818
306.489
306.145
305.784
305.407
305.014
304.605
304.18
303.739
303.283
302.813
302.331
301.838
301.337
300.829
300.317
299.806
299.299
298.802
298.3
297.794
297.291
296.799
296.322
295.866
295.44
295.056
294.73
294.481
304.514
304.582
304.643
304.695
304.74
304.778
304.809
304.834
304.854
304.867
304.876
304.879
304.877
304.87
304.858
304.842
304.821
304.795
304.766
304.732
304.694
304.652
304.606
304.556
304.502
304.444
304.383
304.318
304.249
304.177
304.101
304.022
303.939
303.852
303.762
303.668
303.57
303.469
303.364
303.255
303.143
303.026
302.906
302.783
302.655
302.524
302.388
302.249
302.106
301.958
301.807
301.651
301.492
301.328
301.16
300.987
300.81
300.629
300.443
300.252
300.058
299.858
299.655
299.447
299.236
299.02
298.8
298.577
298.35
298.12
297.888
297.652
297.415
297.176
296.936
296.695
296.455
296.216
295.979
295.746
295.517
295.293
295.076
294.867
294.668
294.479
294.302
294.138
293.988
293.853
293.734
293.633
293.544
293.466
293.398
293.341
293.295
293.258
293.231
293.212
300.413
300.443
300.465
300.479
300.486
300.487
300.482
300.472
300.457
300.438
300.414
300.385
300.353
300.316
300.275
300.229
300.181
300.128
300.071
300.011
299.948
299.88
299.81
299.736
299.659
299.579
299.496
299.41
299.32
299.228
299.134
299.037
298.937
298.834
298.73
298.623
298.514
298.402
298.289
298.174
298.057
297.938
297.818
297.697
297.574
297.45
297.325
297.199
297.073
296.945
296.818
296.69
296.561
296.433
296.304
296.175
296.047
295.919
295.792
295.665
295.539
295.415
295.291
295.17
295.05
294.933
294.817
294.704
294.594
294.486
294.382
294.28
294.183
294.088
293.998
293.912
293.83
293.752
293.679
293.611
293.548
293.489
293.436
293.388
293.345
293.307
293.274
293.247
293.223
293.205
293.19
293.179
293.171
293.165
293.161
293.157
293.155
293.153
293.152
293.151
297.778
297.789
297.793
297.789
297.78
297.766
297.747
297.724
297.697
297.667
297.632
297.595
297.554
297.51
297.462
297.412
297.358
297.302
297.243
297.181
297.117
297.05
296.981
296.909
296.836
296.761
296.683
296.604
296.524
296.441
296.358
296.273
296.187
296.1
296.012
295.924
295.835
295.745
295.656
295.566
295.477
295.387
295.298
295.209
295.121
295.034
294.948
294.863
294.779
294.696
294.615
294.535
294.457
294.381
294.307
294.235
294.165
294.097
294.031
293.968
293.907
293.848
293.792
293.739
293.688
293.64
293.594
293.551
293.51
293.472
293.437
293.404
293.373
293.345
293.319
293.296
293.274
293.255
293.238
293.222
293.209
293.197
293.187
293.179
293.172
293.166
293.162
293.158
293.156
293.154
293.152
293.151
293.151
293.151
293.15
293.15
293.15
293.15
293.15
293.15
296.127
296.129
296.126
296.117
296.103
296.085
296.064
296.04
296.012
295.982
295.95
295.915
295.877
295.837
295.795
295.75
295.704
295.656
295.606
295.554
295.5
295.445
295.389
295.331
295.273
295.213
295.152
295.091
295.029
294.967
294.904
294.841
294.778
294.715
294.652
294.59
294.527
294.466
294.404
294.344
294.284
294.226
294.168
294.112
294.057
294.003
293.951
293.9
293.851
293.803
293.758
293.714
293.671
293.631
293.593
293.556
293.521
293.488
293.457
293.428
293.401
293.376
293.352
293.33
293.31
293.291
293.274
293.259
293.244
293.232
293.22
293.21
293.201
293.192
293.185
293.179
293.174
293.169
293.165
293.162
293.159
293.157
293.155
293.154
293.153
293.152
293.151
293.151
293.15
293.15
293.15
293.15
293.15
293.15
293.15
293.15
293.15
293.15
293.15
293.15
295.065
295.065
295.06
295.05
295.038
295.023
295.005
294.985
294.963
294.939
294.913
294.886
294.857
294.826
294.794
294.76
294.725
294.688
294.651
294.612
294.572
294.532
294.491
294.449
294.406
294.363
294.32
294.276
294.233
294.189
294.145
294.101
294.058
294.015
293.973
293.931
293.89
293.849
293.81
293.771
293.733
293.697
293.661
293.627
293.594
293.562
293.531
293.502
293.474
293.447
293.422
293.398
293.376
293.355
293.335
293.317
293.3
293.284
293.269
293.255
293.243
293.232
293.222
293.212
293.204
293.196
293.19
293.184
293.178
293.174
293.17
293.166
293.163
293.161
293.159
293.157
293.155
293.154
293.153
293.152
293.152
293.151
293.151
293.151
293.15
293.15
293.15
293.15
293.15
293.15
293.15
293.15
293.15
293.15
293.15
293.15
293.15
293.15
293.15
293.15
294.356
294.355
294.35
294.343
294.335
294.324
294.312
294.298
294.282
294.266
294.248
294.229
294.209
294.188
294.165
294.142
294.118
294.093
294.067
294.04
294.013
293.986
293.958
293.929
293.901
293.872
293.843
293.813
293.784
293.755
293.726
293.697
293.669
293.641
293.614
293.587
293.561
293.536
293.511
293.487
293.464
293.442
293.42
293.4
293.38
293.362
293.344
293.327
293.311
293.296
293.282
293.269
293.257
293.246
293.236
293.226
293.217
293.209
293.202
293.195
293.189
293.184
293.179
293.175
293.171
293.168
293.165
293.162
293.16
293.158
293.157
293.155
293.154
293.153
293.153
293.152
293.152
293.151
293.151
293.151
293.15
293.15
293.15
293.15
293.15
293.15
293.15
293.15
293.15
293.15
293.15
293.15
293.15
293.15
293.15
293.15
293.15
293.15
293.15
293.15
293.869
293.869
293.867
293.863
293.858
293.851
293.844
293.836
293.826
293.816
293.805
293.793
293.781
293.767
293.753
293.739
293.724
293.708
293.692
293.675
293.658
293.641
293.623
293.605
293.587
293.569
293.551
293.533
293.514
293.496
293.479
293.461
293.444
293.427
293.411
293.394
293.379
293.364
293.349
293.335
293.321
293.308
293.296
293.284
293.273
293.262
293.252
293.242
293.234
293.225
293.218
293.21
293.204
293.198
293.192
293.187
293.182
293.178
293.174
293.171
293.168
293.165
293.163
293.161
293.159
293.158
293.156
293.155
293.154
293.153
293.153
293.152
293.152
293.151
293.151
293.151
293.151
293.15
293.15
293.15
293.15
293.15
293.15
293.15
293.15
293.15
293.15
293.15
293.15
293.15
293.15
293.15
293.15
293.15
293.15
293.15
293.15
293.15
293.15
293.15
293.476
293.477
293.476
293.475
293.474
293.472
293.469
293.466
293.462
293.458
293.453
293.448
293.443
293.437
293.431
293.424
293.417
293.41
293.403
293.395
293.387
293.379
293.37
293.362
293.353
293.345
293.336
293.327
293.319
293.31
293.302
293.294
293.285
293.277
293.269
293.262
293.254
293.247
293.24
293.234
293.227
293.221
293.215
293.21
293.205
293.2
293.195
293.191
293.187
293.183
293.179
293.176
293.173
293.17
293.168
293.166
293.164
293.162
293.16
293.159
293.157
293.156
293.155
293.154
293.154
293.153
293.152
293.152
293.152
293.151
293.151
293.151
293.151
293.15
293.15
293.15
293.15
293.15
293.15
293.15
293.15
293.15
293.15
293.15
293.15
293.15
293.15
293.15
293.15
293.15
293.15
293.15
293.15
293.15
293.15
293.15
293.15
293.15
293.15
293.15
393.13
393.146
393.149
393.149
393.149
393.148
393.147
393.145
393.142
393.137
393.129
393.118
393.099
393.068
393.018
392.937
392.798
392.553
392.082
391.033
393.136
393.147
393.149
393.148
393.148
393.146
393.144
393.14
393.135
393.126
393.114
393.094
393.063
393.014
392.935
392.808
392.591
392.201
391.421
389.485
393.141
393.147
393.148
393.147
393.145
393.142
393.137
393.13
393.12
393.105
393.082
393.047
392.995
392.913
392.784
392.573
392.21
391.535
390.103
386.143
393.143
393.145
393.144
393.141
393.137
393.131
393.121
393.107
393.087
393.058
393.015
392.952
392.858
392.714
392.487
392.114
391.457
390.19
387.33
378.755
393.14
393.138
393.133
393.126
393.115
393.1
393.078
393.048
393.006
392.947
392.863
392.743
392.566
392.298
391.876
391.175
389.924
387.452
381.657
363.679
393.117
393.107
393.092
393.071
393.042
393.003
392.95
392.88
392.786
392.661
392.491
392.251
391.906
391.391
390.587
389.258
386.899
382.277
371.488
339.292
392.999
392.96
392.908
392.841
392.756
392.647
392.512
392.343
392.137
391.875
391.529
391.056
390.392
389.419
387.931
385.523
381.377
373.549
356.438
313.864
392.212
392.06
391.879
391.663
391.413
391.131
390.817
390.473
390.069
389.564
388.912
388.045
386.857
385.157
382.609
378.606
371.956
360.077
337.363
299.293
386.703
386.251
385.764
385.238
384.7
384.215
383.731
383.23
382.599
381.824
380.836
379.568
377.843
375.415
371.687
365.831
356.285
340.78
317.595
294.961
359.518
358.851
358.147
357.433
356.756
356.222
355.672
355.01
354.264
353.443
352.462
351.306
349.745
347.641
344.199
338.542
329.405
316.661
302.313
294.894
305.404
305.467
305.478
305.441
305.302
304.911
304.426
303.915
303.372
302.752
302.077
301.274
300.379
299.285
298.306
297.454
296.843
295.948
294.254
293.575
294.395
294.44
294.478
294.508
294.52
294.486
294.422
294.322
294.221
294.111
294.001
293.878
293.758
293.626
293.521
293.442
293.394
293.335
293.211
293.244
293.21
293.216
293.223
293.23
293.237
293.241
293.243
293.238
293.23
293.219
293.209
293.199
293.189
293.18
293.173
293.167
293.163
293.159
293.153
293.166
293.151
293.152
293.152
293.152
293.153
293.153
293.154
293.154
293.154
293.154
293.153
293.153
293.152
293.152
293.151
293.151
293.151
293.15
293.15
293.151
293.15
293.15
293.15
293.15
293.15
293.15
293.15
293.15
293.15
293.15
293.15
293.15
293.15
293.15
293.15
293.15
293.15
293.15
293.15
293.15
293.15
293.15
293.15
293.15
293.15
293.15
293.15
293.15
293.15
293.15
293.15
293.15
293.15
293.15
293.15
293.15
293.15
293.15
293.15
293.15
293.15
293.15
293.15
293.15
293.15
293.15
293.15
293.15
293.15
293.15
293.15
293.15
293.15
293.15
293.15
293.15
293.15
293.15
293.15
293.15
293.15
293.15
293.15
293.15
293.15
293.15
293.15
293.15
293.15
293.15
293.15
293.15
293.15
293.15
293.15
293.15
293.15
293.15
293.15
293.15
293.15
293.15
293.15
293.15
293.15
293.15
293.15
293.15
293.15
293.15
293.15
293.15
293.15
293.15
293.15
293.15
293.15
293.15
293.15
293.15
293.15
293.15
293.15
293.15
293.15
293.15
293.15
293.15
293.15
293.15
293.15
293.15
293.15
293.15
293.15
293.15
293.15
293.15
293.15
293.15
393.15
393.15
393.15
393.15
393.15
393.15
393.15
393.15
393.15
393.15
393.15
393.15
393.15
393.15
393.15
393.15
393.15
393.15
393.15
393.15
393.15
393.15
393.15
393.15
393.15
393.15
393.15
393.15
393.15
393.15
393.15
393.15
393.15
393.15
393.15
393.15
393.15
393.15
393.15
393.15
393.15
393.15
393.15
393.15
393.15
393.15
393.15
393.15
393.15
393.15
393.15
393.15
393.15
393.15
393.15
393.15
393.15
393.15
393.15
393.15
393.15
393.15
393.15
393.15
393.15
393.15
393.15
393.15
393.15
393.15
393.15
393.15
393.15
393.15
393.15
393.15
393.15
393.15
393.15
393.15
393.15
393.15
393.15
393.15
393.15
393.15
393.15
393.15
393.15
393.15
393.15
393.15
393.15
393.15
393.15
393.15
393.15
393.15
393.15
393.15
393.15
393.15
393.15
393.15
393.15
393.15
393.15
393.15
393.15
393.15
393.15
393.15
393.15
393.15
393.15
393.15
393.15
393.15
393.15
393.15
393.15
393.15
393.15
393.15
393.15
393.15
393.15
393.15
393.15
393.15
393.15
393.15
393.15
393.15
393.15
393.15
393.15
393.15
393.15
393.15
393.15
393.15
393.15
393.15
393.15
393.15
393.15
393.15
393.15
393.15
393.15
393.15
393.15
393.15
393.15
393.15
393.15
393.15
393.15
393.15
393.15
393.15
393.15
393.15
393.15
393.15
393.15
393.15
393.15
393.15
393.15
393.15
393.15
393.15
393.15
393.15
393.15
393.15
393.15
393.15
393.15
393.15
393.15
393.15
393.15
393.15
393.15
393.15
393.15
393.15
393.15
393.15
393.15
393.15
393.15
393.15
393.15
393.15
393.15
393.15
393.15
393.15
393.15
393.15
393.15
393.15
393.15
393.15
393.15
393.15
393.15
393.15
393.15
393.15
393.15
393.15
393.15
393.15
393.15
393.15
393.15
393.15
393.15
393.15
393.15
393.15
393.15
393.15
393.15
393.15
393.15
393.15
393.15
393.15
393.15
393.15
393.15
393.15
393.15
393.15
393.15
393.15
393.15
393.15
393.15
393.15
393.15
393.15
393.15
393.15
393.15
393.15
393.15
393.15
393.15
393.15
393.15
393.15
393.15
393.15
393.15
393.15
393.15
393.15
393.15
393.15
393.15
393.15
393.15
393.15
393.15
393.15
393.15
393.15
393.15
393.15
393.15
393.15
393.15
393.15
393.15
393.15
393.15
393.15
393.15
393.15
393.15
393.15
393.15
393.15
393.15
393.15
393.15
393.15
393.15
393.15
393.15
393.15
393.15
393.15
393.15
393.15
393.15
393.15
393.15
393.15
393.15
393.15
393.15
393.15
393.15
393.15
393.15
393.15
393.15
393.15
393.15
393.15
393.15
393.15
393.15
393.15
393.15
393.15
393.15
393.15
393.15
393.15
393.15
393.15
393.15
393.15
393.15
393.15
393.15
393.15
393.15
393.15
393.15
393.15
393.15
393.15
393.15
393.15
393.15
393.15
393.15
393.15
393.15
393.15
393.15
393.15
393.15
393.15
393.15
393.15
393.15
393.15
393.15
393.15
393.15
393.15
393.15
393.15
393.15
393.15
393.15
393.15
393.15
393.15
393.15
393.15
393.15
393.15
393.15
393.15
393.15
393.15
393.15
393.15
393.15
393.15
393.15
393.15
393.15
393.15
393.15
393.15
393.15
393.15
393.15
393.15
393.15
393.15
393.15
393.15
393.15
393.15
393.15
393.15
393.15
393.15
393.15
393.15
393.15
393.15
393.15
393.15
393.15
393.15
393.15
393.15
393.15
393.15
393.15
393.15
393.15
393.15
393.15
393.15
393.15
393.15
393.15
393.15
393.15
393.15
393.15
393.15
393.15
393.15
393.15
393.15
393.15
393.15
393.15
393.15
393.15
393.15
393.15
393.15
393.15
393.15
393.15
393.15
393.15
393.15
393.15
393.15
393.15
393.15
393.15
393.15
393.15
393.15
393.15
393.15
393.15
393.15
393.15
393.15
393.15
393.15
393.15
393.15
393.15
393.15
393.15
393.15
393.15
393.15
393.15
393.15
393.15
393.15
393.15
393.15
393.15
393.15
393.15
393.15
393.15
393.15
393.15
393.15
393.15
393.15
393.15
393.15
393.15
393.15
393.15
393.15
393.15
393.15
393.15
393.15
393.15
393.15
393.15
393.15
393.15
393.15
393.15
393.15
393.15
393.15
393.15
393.15
393.15
393.15
393.15
393.15
393.15
393.15
393.15
393.15
393.15
393.15
393.15
393.15
393.15
393.15
393.15
393.15
393.15
393.15
393.15
393.15
393.15
393.15
393.15
393.15
393.15
393.15
393.15
393.15
393.15
393.15
393.15
393.15
393.15
393.15
393.15
393.15
393.15
393.15
393.15
393.15
393.15
393.15
393.15
393.15
393.15
393.15
393.15
393.15
393.15
393.15
393.15
393.15
393.15
393.15
393.15
393.15
393.15
393.15
393.15
393.15
393.15
393.15
393.15
393.15
393.15
393.15
393.15
393.15
393.15
393.15
393.15
393.15
393.15
393.15
393.15
393.15
393.15
393.15
393.15
393.15
393.15
393.15
393.15
393.15
393.15
393.15
393.15
393.15
393.15
393.15
393.15
393.15
393.15
393.15
393.15
393.15
393.15
393.15
393.15
393.15
393.15
393.15
393.15
393.15
393.15
393.15
393.15
393.15
393.15
393.15
393.15
393.15
393.15
393.15
393.15
393.15
393.15
393.15
393.15
393.15
393.15
393.15
393.15
393.15
393.15
393.15
393.15
393.15
393.15
393.15
393.15
393.15
393.15
393.15
393.15
393.15
393.15
393.15
393.15
393.15
393.15
393.15
393.15
393.15
393.15
393.15
393.15
393.15
393.15
393.15
393.15
393.15
393.15
393.15
393.15
393.15
393.15
393.15
393.15
393.15
393.15
393.15
393.15
393.15
393.15
393.15
393.15
393.15
393.15
393.15
393.15
393.15
393.15
393.15
393.15
393.15
393.15
393.15
393.15
393.15
393.15
393.15
393.15
393.15
393.15
393.15
393.15
393.15
393.15
393.15
393.15
393.15
393.15
393.15
393.15
393.15
393.15
393.15
393.15
393.15
393.15
393.15
393.15
393.15
393.15
393.15
393.15
393.15
393.15
393.15
393.15
393.15
393.15
393.15
393.15
393.15
393.15
393.15
393.15
393.15
393.15
393.15
393.15
393.15
393.15
393.15
393.15
393.15
393.15
393.15
393.15
393.15
393.15
393.15
393.15
393.15
393.15
393.15
393.15
393.15
393.15
393.15
393.15
393.15
393.15
393.15
393.15
393.15
393.15
393.15
393.15
393.15
393.15
393.15
393.15
393.15
393.15
393.15
393.15
393.15
393.15
393.15
393.15
393.15
393.15
393.15
393.15
393.15
393.15
393.15
393.15
393.15
393.15
393.15
393.15
393.15
393.15
393.15
393.15
393.15
393.15
393.15
393.15
393.15
393.15
393.15
393.15
393.15
393.15
393.15
393.15
393.15
393.15
393.15
393.15
393.15
393.15
393.15
393.15
393.15
393.15
393.15
393.15
393.15
393.15
393.15
393.15
393.15
393.15
393.15
393.15
393.15
393.15
393.15
393.15
393.15
393.15
393.15
393.15
393.15
393.15
393.15
393.15
393.15
393.15
393.15
393.15
393.15
393.15
393.15
393.15
393.15
393.15
393.15
393.15
393.15
393.15
393.15
393.15
393.15
393.15
393.15
393.15
393.15
393.15
393.15
393.15
393.15
393.15
393.15
393.15
393.15
393.15
393.15
393.15
393.15
393.15
393.15
393.15
393.15
393.15
393.15
393.15
393.15
393.15
393.15
393.15
393.15
393.15
393.15
393.15
393.15
393.15
393.15
393.15
393.15
393.15
393.15
393.15
393.15
393.15
393.15
393.15
393.15
393.15
393.15
393.15
393.15
393.15
393.15
393.15
393.15
393.15
393.15
393.15
393.15
393.15
393.15
393.15
393.15
393.15
393.15
393.15
393.15
393.15
393.15
393.15
393.15
393.15
393.15
393.15
393.15
393.15
393.15
393.15
393.15
393.15
393.15
393.15
393.15
393.15
393.15
393.15
393.15
393.15
393.15
393.15
393.15
393.15
393.15
393.15
393.15
393.15
393.15
393.15
393.15
393.15
393.15
393.15
393.15
393.15
393.15
393.15
393.15
393.15
393.15
393.15
393.15
393.15
393.15
393.15
393.15
393.15
393.15
393.15
393.15
393.15
393.15
393.15
393.15
393.15
393.15
393.15
393.15
393.15
393.15
393.15
393.15
393.15
393.15
393.15
393.15
393.15
393.15
393.15
393.15
393.15
393.15
393.15
393.15
393.15
393.15
393.15
393.15
393.15
393.15
393.15
393.15
393.15
393.15
393.15
393.15
393.15
393.15
393.15
393.15
393.15
393.15
393.15
393.15
393.15
393.15
393.15
393.15
393.15
393.15
393.15
393.15
393.15
393.15
393.15
393.15
393.15
393.15
393.15
393.15
393.15
393.15
393.15
393.15
393.15
393.15
393.15
393.15
393.15
393.15
393.15
393.15
393.15
393.15
393.15
393.15
393.15
393.15
393.15
393.15
393.15
393.15
393.15
393.15
393.15
393.15
393.15
393.15
393.15
393.15
393.15
393.15
393.15
393.15
393.15
393.15
393.15
393.15
393.15
393.15
393.15
393.15
393.15
393.15
393.15
393.15
393.15
393.15
393.15
393.15
393.15
393.15
393.15
393.15
393.15
393.15
393.15
393.15
393.15
393.15
393.15
393.15
393.15
393.15
393.15
393.15
393.15
393.15
393.15
393.15
393.15
393.15
393.15
393.15
393.15
393.15
393.15
393.15
393.15
393.15
393.15
393.15
393.15
393.15
393.15
393.15
393.15
393.15
393.15
393.15
393.15
393.15
393.15
393.15
393.15
393.15
393.15
393.15
393.15
393.15
393.15
393.15
393.15
393.15
393.15
393.15
393.15
393.15
393.15
393.15
393.15
393.15
393.15
393.15
393.15
393.15
393.15
393.15
393.15
393.15
393.15
393.15
393.15
393.15
393.15
393.15
393.15
393.15
393.15
393.15
393.15
393.15
393.15
393.15
393.15
393.15
393.15
393.15
393.15
393.15
393.15
393.15
393.15
393.15
393.15
393.15
393.15
393.15
393.15
393.15
393.15
393.15
393.15
393.15
393.15
393.15
393.15
393.15
393.15
393.15
393.15
393.15
393.15
393.15
393.15
393.15
393.15
393.15
393.15
393.15
393.15
393.15
393.15
393.15
393.15
393.15
393.15
393.15
393.15
393.15
393.15
393.15
393.15
393.15
393.15
393.15
393.15
393.15
393.15
393.15
393.15
393.15
393.15
393.15
393.15
393.15
393.15
393.15
393.15
393.15
393.15
393.15
393.15
393.15
393.15
393.15
393.15
393.15
393.15
393.15
393.15
393.15
393.15
393.15
393.15
393.15
393.15
393.15
393.15
393.15
393.15
393.15
393.15
393.15
393.15
393.15
393.15
393.15
393.15
393.15
393.15
393.15
393.15
393.15
393.15
393.15
393.15
393.15
393.15
393.15
393.15
393.15
393.15
393.15
393.15
393.15
393.15
393.15
393.15
393.15
393.15
393.15
393.15
393.15
393.15
393.15
393.15
393.15
393.15
393.15
393.15
393.15
393.15
393.15
393.15
393.15
393.15
393.15
393.15
393.15
393.15
393.15
393.15
393.15
393.15
393.15
393.15
393.15
393.15
393.15
393.15
393.15
393.15
393.15
393.15
393.15
393.15
393.15
393.15
393.15
393.15
393.15
393.15
393.15
393.15
393.15
393.15
393.15
393.15
393.15
393.15
393.15
393.15
393.15
393.15
393.15
393.15
393.15
393.15
393.15
393.15
393.15
393.15
393.15
393.15
393.15
393.15
393.15
393.15
393.15
393.15
393.15
393.15
393.15
393.15
393.15
393.15
393.15
393.15
393.15
393.15
393.15
393.15
393.15
393.15
393.15
393.15
393.15
393.15
393.15
393.15
393.15
393.15
393.15
393.15
393.15
393.15
393.15
393.15
393.15
393.15
393.15
393.15
393.15
393.15
393.15
393.15
393.15
393.15
393.15
393.15
393.15
393.15
393.15
393.15
393.15
393.15
393.15
393.15
393.15
393.15
393.15
393.15
393.15
393.15
393.15
393.15
393.15
393.15
393.15
393.15
393.15
393.15
393.15
393.15
393.15
393.15
393.15
393.15
393.15
393.15
393.15
393.15
393.15
393.15
393.15
393.15
393.15
393.15
393.15
393.15
393.15
393.15
393.15
393.15
393.15
393.15
393.15
393.15
393.15
393.15
393.15
393.15
393.15
393.15
393.15
393.15
393.15
393.15
393.15
393.15
393.15
393.15
393.15
393.15
393.15
393.15
393.15
393.15
393.15
393.15
393.15
393.15
393.15
393.15
393.15
393.15
393.15
393.15
393.15
393.15
393.15
393.15
393.15
393.15
393.15
393.15
393.15
393.15
393.15
393.15
393.15
393.15
393.15
393.15
393.15
393.15
393.15
393.15
393.15
393.15
393.15
393.15
393.15
393.15