/*--------------------------------*- C++ -*----------------------------------*\
| =========                 |                                                 |
| \\      /  F ield         | OpenFOAM: The Open Source CFD Toolbox           |
|  \\    /   O peration     | Version:  2.1.0                                 |
|   \\  /    A nd           | Web:      www.OpenFOAM.org                      |
|    \\/     M anipulation  |                                                 |
\*---------------------------------------------------------------------------*/
FoamFile
{
    version     2.0;
    format      ascii;
    class       volVectorField;
    location    "0.31";
    object      U;
}
// * * * * * * * * * * * * * * * * * * * * * * * * * * * * * * * * * * * * * //

dimensions      [0 1 -1 0 0 0 0];

internalField   nonuniform List<vector> 
6400
(
(-1.25958 -2.0008e-05 0)
(-1.25915 -0.000431051 0)
(-1.25762 -0.000701807 0)
(-1.25521 -0.000842828 0)
(-1.25236 -0.000927539 0)
(-1.24924 -0.000986281 0)
(-1.24593 -0.00103028 0)
(-1.24246 -0.00106636 0)
(-1.23888 -0.00109795 0)
(-1.23518 -0.00112727 0)
(-1.23137 -0.00115545 0)
(-1.22746 -0.00118318 0)
(-1.22345 -0.00121085 0)
(-1.21933 -0.00123858 0)
(-1.21511 -0.00126657 0)
(-1.21078 -0.00129479 0)
(-1.20634 -0.00132339 0)
(-1.20179 -0.00135213 0)
(-1.19712 -0.00138111 0)
(-1.19234 -0.00141027 0)
(-1.18744 -0.00143964 0)
(-1.18243 -0.00146901 0)
(-1.1773 -0.00149926 0)
(-1.17204 -0.00153045 0)
(-1.16665 -0.00156222 0)
(-1.16113 -0.00159444 0)
(-1.15548 -0.00162721 0)
(-1.14969 -0.00166051 0)
(-1.14376 -0.00169452 0)
(-1.13769 -0.0017292 0)
(-1.13147 -0.00176473 0)
(-1.1251 -0.00180114 0)
(-1.11858 -0.00183855 0)
(-1.11189 -0.00187705 0)
(-1.10504 -0.00191679 0)
(-1.09802 -0.0019578 0)
(-1.09083 -0.00200015 0)
(-1.08346 -0.00204405 0)
(-1.07589 -0.00208961 0)
(-1.06813 -0.00213691 0)
(-1.06017 -0.00218616 0)
(-1.052 -0.00223737 0)
(-1.0436 -0.00229066 0)
(-1.03498 -0.00234611 0)
(-1.02613 -0.00240376 0)
(-1.01702 -0.0024636 0)
(-1.00767 -0.00252558 0)
(-0.998047 -0.0025896 0)
(-0.988156 -0.0026562 0)
(-0.977989 -0.00272237 0)
(-0.967543 -0.0027907 0)
(-0.9568 -0.00286523 0)
(-0.945743 -0.00294267 0)
(-0.934367 -0.00301996 0)
(-0.92268 -0.00309448 0)
(-0.910688 -0.00316716 0)
(-0.898397 -0.00323993 0)
(-0.885803 -0.0033142 0)
(-0.8729 -0.0033905 0)
(-0.859679 -0.00346893 0)
(-0.846132 -0.00354988 0)
(-0.832248 -0.00363389 0)
(-0.818014 -0.00372111 0)
(-0.803417 -0.00381187 0)
(-0.788443 -0.00390645 0)
(-0.773076 -0.00400541 0)
(-0.757297 -0.00410926 0)
(-0.741087 -0.00421863 0)
(-0.724423 -0.00433373 0)
(-0.707282 -0.00445504 0)
(-0.689637 -0.00458307 0)
(-0.671463 -0.00471844 0)
(-0.652728 -0.00486177 0)
(-0.6334 -0.00501394 0)
(-0.613442 -0.00517606 0)
(-0.592812 -0.00534954 0)
(-0.571462 -0.00553618 0)
(-0.549335 -0.00573829 0)
(-0.526364 -0.00595926 0)
(-0.502466 -0.00620357 0)
(-0.477538 -0.00647673 0)
(-0.451452 -0.00678583 0)
(-0.424049 -0.00713964 0)
(-0.395135 -0.00754703 0)
(-0.364487 -0.00801374 0)
(-0.331866 -0.00854195 0)
(-0.297039 -0.00912713 0)
(-0.259819 -0.00974943 0)
(-0.220159 -0.0103591 0)
(-0.178319 -0.0108475 0)
(-0.135211 -0.0109931 0)
(-0.0930458 -0.0103553 0)
(-0.0559962 -0.0083788 0)
(-0.0294138 -0.00502917 0)
(-0.0168806 -0.0012673 0)
(-0.0206049 0.00311425 0)
(-0.0493801 0.0112778 0)
(-0.129482 0.0291673 0)
(-0.329142 0.0711234 0)
(-0.948527 0.198929 0)
(-1.52516 -0.00025324 0)
(-1.52298 -0.00146197 0)
(-1.52187 -0.00217055 0)
(-1.5195 -0.00255582 0)
(-1.5168 -0.00279451 0)
(-1.51386 -0.00296125 0)
(-1.51075 -0.00308678 0)
(-1.50751 -0.00318978 0)
(-1.50416 -0.00328009 0)
(-1.5007 -0.00336379 0)
(-1.49715 -0.00344427 0)
(-1.49351 -0.00352334 0)
(-1.48977 -0.00360223 0)
(-1.48594 -0.00368128 0)
(-1.482 -0.00376106 0)
(-1.47798 -0.00384146 0)
(-1.47385 -0.00392289 0)
(-1.46962 -0.00400475 0)
(-1.46528 -0.00408714 0)
(-1.46084 -0.00416994 0)
(-1.45629 -0.00425308 0)
(-1.45164 -0.00433543 0)
(-1.44689 -0.00441975 0)
(-1.44202 -0.00450643 0)
(-1.43705 -0.00459426 0)
(-1.43197 -0.00468303 0)
(-1.42678 -0.00477308 0)
(-1.42148 -0.00486436 0)
(-1.41606 -0.00495729 0)
(-1.41053 -0.00505186 0)
(-1.40488 -0.00514846 0)
(-1.39912 -0.00524717 0)
(-1.39323 -0.00534832 0)
(-1.38722 -0.00545213 0)
(-1.38109 -0.00555898 0)
(-1.37483 -0.005669 0)
(-1.36843 -0.00578226 0)
(-1.3619 -0.00589934 0)
(-1.35524 -0.00602049 0)
(-1.34843 -0.00614597 0)
(-1.34148 -0.00627627 0)
(-1.33438 -0.00641153 0)
(-1.32713 -0.00655207 0)
(-1.31972 -0.00669818 0)
(-1.31214 -0.00685012 0)
(-1.3044 -0.00700797 0)
(-1.29648 -0.00717183 0)
(-1.28837 -0.00734158 0)
(-1.28007 -0.00751864 0)
(-1.27157 -0.0076968 0)
(-1.26288 -0.00787727 0)
(-1.254 -0.00806467 0)
(-1.24494 -0.00825481 0)
(-1.23573 -0.00844543 0)
(-1.22636 -0.00863302 0)
(-1.21681 -0.00881824 0)
(-1.20707 -0.00900404 0)
(-1.19716 -0.00919332 0)
(-1.18707 -0.00938728 0)
(-1.17679 -0.00958659 0)
(-1.16632 -0.009792 0)
(-1.15565 -0.0100044 0)
(-1.1448 -0.010224 0)
(-1.13374 -0.0104515 0)
(-1.12248 -0.0106876 0)
(-1.11101 -0.0109337 0)
(-1.09933 -0.0111908 0)
(-1.08743 -0.0114608 0)
(-1.0753 -0.0117445 0)
(-1.06293 -0.0120433 0)
(-1.05032 -0.0123591 0)
(-1.03744 -0.0126937 0)
(-1.02428 -0.0130492 0)
(-1.01081 -0.0134284 0)
(-0.997012 -0.0138348 0)
(-0.982848 -0.0142727 0)
(-0.968281 -0.0147472 0)
(-0.953267 -0.0152648 0)
(-0.937751 -0.0158344 0)
(-0.921671 -0.0164675 0)
(-0.904955 -0.0171776 0)
(-0.88752 -0.0179812 0)
(-0.869272 -0.0188982 0)
(-0.850107 -0.0199492 0)
(-0.829915 -0.0211475 0)
(-0.808579 -0.0224963 0)
(-0.786001 -0.0239805 0)
(-0.762127 -0.0255454 0)
(-0.736994 -0.0270626 0)
(-0.710806 -0.0282658 0)
(-0.68403 -0.0286384 0)
(-0.657469 -0.0272291 0)
(-0.632469 -0.0227564 0)
(-0.611971 -0.014503 0)
(-0.604386 -0.00232868 0)
(-0.618079 0.0127868 0)
(-0.665764 0.0395411 0)
(-0.769273 0.0918689 0)
(-0.971731 0.204215 0)
(-1.45996 0.526251 0)
(-1.67645 -0.000781798 0)
(-1.6735 -0.00260814 0)
(-1.67333 -0.0036255 0)
(-1.67159 -0.00420496 0)
(-1.66955 -0.00457274 0)
(-1.66733 -0.00483059 0)
(-1.66495 -0.00502439 0)
(-1.66248 -0.00518314 0)
(-1.65991 -0.00532162 0)
(-1.65727 -0.0054497 0)
(-1.65455 -0.00557226 0)
(-1.65176 -0.00569257 0)
(-1.6489 -0.00581229 0)
(-1.64597 -0.00593235 0)
(-1.64296 -0.00605343 0)
(-1.63989 -0.00617565 0)
(-1.63672 -0.00629946 0)
(-1.63349 -0.0064245 0)
(-1.63016 -0.00655056 0)
(-1.62675 -0.00667777 0)
(-1.62325 -0.00680606 0)
(-1.61965 -0.0069331 0)
(-1.61597 -0.00706064 0)
(-1.6122 -0.00718921 0)
(-1.60834 -0.00731808 0)
(-1.60441 -0.00744768 0)
(-1.6004 -0.00757849 0)
(-1.59632 -0.00771062 0)
(-1.59215 -0.0078445 0)
(-1.58791 -0.00798018 0)
(-1.58359 -0.00811808 0)
(-1.57919 -0.00825835 0)
(-1.57472 -0.00840137 0)
(-1.57017 -0.00854733 0)
(-1.56555 -0.0086967 0)
(-1.56085 -0.00884983 0)
(-1.55607 -0.00900645 0)
(-1.55123 -0.00916735 0)
(-1.54631 -0.00933282 0)
(-1.54133 -0.00950305 0)
(-1.53627 -0.00967869 0)
(-1.53115 -0.00985985 0)
(-1.52596 -0.0100469 0)
(-1.52071 -0.0102403 0)
(-1.51541 -0.0104403 0)
(-1.51004 -0.010647 0)
(-1.50463 -0.0108607 0)
(-1.49916 -0.0110812 0)
(-1.49365 -0.0113089 0)
(-1.48809 -0.0115398 0)
(-1.48253 -0.0117718 0)
(-1.47691 -0.0120025 0)
(-1.47128 -0.0122303 0)
(-1.46563 -0.0124585 0)
(-1.45996 -0.0126873 0)
(-1.45428 -0.0129158 0)
(-1.44857 -0.0131447 0)
(-1.44285 -0.0133762 0)
(-1.43712 -0.0136113 0)
(-1.43139 -0.0138511 0)
(-1.42566 -0.0140963 0)
(-1.41994 -0.0143473 0)
(-1.41425 -0.0146039 0)
(-1.40859 -0.0148663 0)
(-1.40297 -0.0151352 0)
(-1.39742 -0.0154116 0)
(-1.39194 -0.0156968 0)
(-1.38655 -0.0159923 0)
(-1.38126 -0.0162998 0)
(-1.3761 -0.0166209 0)
(-1.37108 -0.016958 0)
(-1.36622 -0.0173139 0)
(-1.36153 -0.0176915 0)
(-1.35703 -0.0180953 0)
(-1.35274 -0.0185305 0)
(-1.34865 -0.0190036 0)
(-1.34479 -0.0195229 0)
(-1.34114 -0.0200977 0)
(-1.3377 -0.0207407 0)
(-1.33446 -0.0214683 0)
(-1.33139 -0.0222985 0)
(-1.32847 -0.0232521 0)
(-1.32566 -0.0243525 0)
(-1.32291 -0.0256236 0)
(-1.32019 -0.0270817 0)
(-1.31745 -0.0287275 0)
(-1.31467 -0.0305332 0)
(-1.31183 -0.0324173 0)
(-1.30901 -0.0342015 0)
(-1.30636 -0.0355394 0)
(-1.30416 -0.0358045 0)
(-1.30277 -0.0339459 0)
(-1.30275 -0.0284517 0)
(-1.30544 -0.0176801 0)
(-1.31384 0.000289417 0)
(-1.33078 0.0254123 0)
(-1.36953 0.0689077 0)
(-1.44508 0.149162 0)
(-1.58841 0.311081 0)
(-1.85889 0.719 0)
(-1.81413 -0.0014225 0)
(-1.81101 -0.00356392 0)
(-1.81194 -0.00480487 0)
(-1.81115 -0.00553933 0)
(-1.81015 -0.00601082 0)
(-1.80899 -0.0063395 0)
(-1.80773 -0.00658397 0)
(-1.80641 -0.00678221 0)
(-1.80502 -0.00695283 0)
(-1.80361 -0.00710936 0)
(-1.80213 -0.00725754 0)
(-1.80064 -0.00740237 0)
(-1.7991 -0.00754546 0)
(-1.79755 -0.0076887 0)
(-1.79594 -0.00783251 0)
(-1.79433 -0.00797756 0)
(-1.79266 -0.00812412 0)
(-1.79098 -0.00827244 0)
(-1.78926 -0.00842188 0)
(-1.78752 -0.00857223 0)
(-1.78573 -0.00872382 0)
(-1.78393 -0.00887569 0)
(-1.7821 -0.00902664 0)
(-1.78024 -0.0091758 0)
(-1.77835 -0.00932372 0)
(-1.77643 -0.00947145 0)
(-1.77449 -0.00961953 0)
(-1.77253 -0.00976819 0)
(-1.77055 -0.00991776 0)
(-1.76855 -0.0100683 0)
(-1.76653 -0.0102202 0)
(-1.76451 -0.0103734 0)
(-1.76248 -0.0105284 0)
(-1.76044 -0.0106852 0)
(-1.7584 -0.0108441 0)
(-1.75637 -0.0110054 0)
(-1.75434 -0.0111688 0)
(-1.75233 -0.0113349 0)
(-1.75034 -0.0115037 0)
(-1.74837 -0.0116753 0)
(-1.74644 -0.01185 0)
(-1.74454 -0.0120279 0)
(-1.74269 -0.012209 0)
(-1.7409 -0.0123934 0)
(-1.73918 -0.0125812 0)
(-1.73753 -0.012772 0)
(-1.73597 -0.012966 0)
(-1.73452 -0.0131625 0)
(-1.73319 -0.0133598 0)
(-1.73197 -0.0135569 0)
(-1.73092 -0.0137558 0)
(-1.72999 -0.0139529 0)
(-1.72918 -0.0141449 0)
(-1.7285 -0.0143346 0)
(-1.72796 -0.0145237 0)
(-1.72757 -0.0147107 0)
(-1.72733 -0.014895 0)
(-1.72726 -0.0150773 0)
(-1.72737 -0.0152581 0)
(-1.72768 -0.015438 0)
(-1.72819 -0.0156178 0)
(-1.72894 -0.0157977 0)
(-1.72992 -0.0159772 0)
(-1.73115 -0.0161556 0)
(-1.73266 -0.0163332 0)
(-1.73444 -0.016511 0)
(-1.73653 -0.0166901 0)
(-1.73893 -0.016872 0)
(-1.74166 -0.0170585 0)
(-1.74472 -0.0172519 0)
(-1.74813 -0.0174551 0)
(-1.75189 -0.0176718 0)
(-1.756 -0.0179062 0)
(-1.76046 -0.0181645 0)
(-1.76526 -0.018454 0)
(-1.77039 -0.0187839 0)
(-1.77583 -0.0191655 0)
(-1.78155 -0.0196112 0)
(-1.78751 -0.020137 0)
(-1.79367 -0.0207639 0)
(-1.79999 -0.0215137 0)
(-1.8064 -0.0224095 0)
(-1.81285 -0.0234763 0)
(-1.81928 -0.0247382 0)
(-1.82565 -0.0262103 0)
(-1.83191 -0.0278879 0)
(-1.83806 -0.0297303 0)
(-1.84411 -0.0316359 0)
(-1.85011 -0.0333966 0)
(-1.85617 -0.0346288 0)
(-1.86239 -0.0346773 0)
(-1.86884 -0.0325022 0)
(-1.87548 -0.0265437 0)
(-1.88274 -0.0148279 0)
(-1.89184 0.00452667 0)
(-1.90208 0.0351303 0)
(-1.92401 0.0882672 0)
(-1.96469 0.185076 0)
(-2.03342 0.374726 0)
(-2.13386 0.777514 0)
(-1.95447 -0.00198844 0)
(-1.95187 -0.0041957 0)
(-1.95396 -0.00553969 0)
(-1.95445 -0.00636562 0)
(-1.9549 -0.00690139 0)
(-1.95524 -0.00726981 0)
(-1.95557 -0.00753988 0)
(-1.95587 -0.00775367 0)
(-1.95618 -0.00793423 0)
(-1.95649 -0.00809626 0)
(-1.9568 -0.00824739 0)
(-1.95713 -0.0083928 0)
(-1.95748 -0.00853489 0)
(-1.95786 -0.00867548 0)
(-1.95825 -0.0088153 0)
(-1.95867 -0.00895484 0)
(-1.95912 -0.00909444 0)
(-1.95962 -0.00923448 0)
(-1.96014 -0.00937409 0)
(-1.96072 -0.00951182 0)
(-1.96134 -0.00964862 0)
(-1.96201 -0.00978642 0)
(-1.96274 -0.00992463 0)
(-1.96352 -0.0100608 0)
(-1.96434 -0.0101947 0)
(-1.9652 -0.0103269 0)
(-1.96612 -0.0104578 0)
(-1.96709 -0.0105877 0)
(-1.96811 -0.0107167 0)
(-1.96919 -0.0108448 0)
(-1.97034 -0.0109723 0)
(-1.97156 -0.0110991 0)
(-1.97285 -0.0112253 0)
(-1.97423 -0.0113511 0)
(-1.97569 -0.0114765 0)
(-1.97724 -0.0116014 0)
(-1.97888 -0.0117258 0)
(-1.98063 -0.01185 0)
(-1.98249 -0.0119739 0)
(-1.98446 -0.0120971 0)
(-1.98656 -0.01222 0)
(-1.98878 -0.0123424 0)
(-1.99114 -0.0124641 0)
(-1.99364 -0.012585 0)
(-1.99629 -0.012705 0)
(-1.9991 -0.0128236 0)
(-2.00207 -0.0129407 0)
(-2.0052 -0.0130557 0)
(-2.00851 -0.0131667 0)
(-2.01199 -0.0132737 0)
(-2.01564 -0.0133812 0)
(-2.01948 -0.0134879 0)
(-2.02351 -0.0135897 0)
(-2.02772 -0.0136865 0)
(-2.03213 -0.0137786 0)
(-2.03674 -0.0138654 0)
(-2.04156 -0.0139463 0)
(-2.04658 -0.0140217 0)
(-2.0518 -0.0140918 0)
(-2.05723 -0.0141573 0)
(-2.06287 -0.0142194 0)
(-2.06872 -0.0142792 0)
(-2.07476 -0.014336 0)
(-2.08101 -0.014389 0)
(-2.08745 -0.0144386 0)
(-2.09408 -0.0144864 0)
(-2.10089 -0.014534 0)
(-2.10787 -0.0145835 0)
(-2.11502 -0.0146373 0)
(-2.12233 -0.0146986 0)
(-2.12979 -0.0147708 0)
(-2.13737 -0.0148589 0)
(-2.14509 -0.0149684 0)
(-2.15291 -0.0151066 0)
(-2.16083 -0.0152822 0)
(-2.16884 -0.0155061 0)
(-2.17692 -0.0157921 0)
(-2.18506 -0.0161541 0)
(-2.19325 -0.0166089 0)
(-2.20147 -0.0171808 0)
(-2.2097 -0.0178933 0)
(-2.21795 -0.0187692 0)
(-2.22618 -0.0198332 0)
(-2.23441 -0.0211077 0)
(-2.24261 -0.0226043 0)
(-2.2508 -0.0243111 0)
(-2.25899 -0.0261776 0)
(-2.26721 -0.028091 0)
(-2.27548 -0.0298333 0)
(-2.28379 -0.0310203 0)
(-2.29209 -0.0310223 0)
(-2.30014 -0.028883 0)
(-2.30741 -0.0231488 0)
(-2.31382 -0.0119009 0)
(-2.3192 0.00708965 0)
(-2.3212 0.0392545 0)
(-2.32525 0.0958756 0)
(-2.33079 0.198281 0)
(-2.32839 0.391861 0)
(-2.31047 0.743691 0)
(-2.10434 -0.00231203 0)
(-2.10285 -0.00437431 0)
(-2.10615 -0.00567483 0)
(-2.1082 -0.00649713 0)
(-2.11038 -0.00703348 0)
(-2.11259 -0.00739542 0)
(-2.11488 -0.00765485 0)
(-2.1172 -0.00785256 0)
(-2.11959 -0.00801442 0)
(-2.12203 -0.00815422 0)
(-2.12452 -0.00828134 0)
(-2.12708 -0.0084001 0)
(-2.12971 -0.00851398 0)
(-2.1324 -0.00862405 0)
(-2.13515 -0.00873165 0)
(-2.13799 -0.00883676 0)
(-2.14089 -0.00893994 0)
(-2.14387 -0.00904145 0)
(-2.14693 -0.00914054 0)
(-2.15007 -0.00923442 0)
(-2.1533 -0.00932551 0)
(-2.15661 -0.0094169 0)
(-2.16001 -0.00950868 0)
(-2.16351 -0.00959862 0)
(-2.1671 -0.00968549 0)
(-2.17078 -0.00976916 0)
(-2.17456 -0.00985006 0)
(-2.17844 -0.00992818 0)
(-2.18242 -0.0100037 0)
(-2.18651 -0.0100766 0)
(-2.1907 -0.0101471 0)
(-2.195 -0.0102151 0)
(-2.19941 -0.0102808 0)
(-2.20393 -0.0103443 0)
(-2.20857 -0.0104058 0)
(-2.21332 -0.0104649 0)
(-2.21818 -0.0105216 0)
(-2.22317 -0.0105765 0)
(-2.22826 -0.0106294 0)
(-2.23348 -0.0106801 0)
(-2.23881 -0.010729 0)
(-2.24426 -0.0107759 0)
(-2.24982 -0.0108208 0)
(-2.2555 -0.0108637 0)
(-2.26129 -0.0109047 0)
(-2.26719 -0.0109434 0)
(-2.27319 -0.01098 0)
(-2.2793 -0.0110141 0)
(-2.2855 -0.0110447 0)
(-2.2918 -0.0110722 0)
(-2.2982 -0.0110991 0)
(-2.30468 -0.0111244 0)
(-2.31125 -0.0111462 0)
(-2.3179 -0.0111637 0)
(-2.32463 -0.0111769 0)
(-2.33142 -0.0111854 0)
(-2.33827 -0.011189 0)
(-2.34519 -0.0111881 0)
(-2.35216 -0.0111831 0)
(-2.35918 -0.0111749 0)
(-2.36624 -0.011165 0)
(-2.37334 -0.0111554 0)
(-2.38047 -0.0111456 0)
(-2.38763 -0.0111337 0)
(-2.39482 -0.0111203 0)
(-2.40204 -0.0111072 0)
(-2.40928 -0.0110967 0)
(-2.41655 -0.0110908 0)
(-2.42384 -0.011092 0)
(-2.43115 -0.0111036 0)
(-2.43849 -0.0111291 0)
(-2.44585 -0.0111732 0)
(-2.45323 -0.0112416 0)
(-2.46065 -0.0113415 0)
(-2.46809 -0.0114818 0)
(-2.47557 -0.0116731 0)
(-2.48309 -0.0119297 0)
(-2.49064 -0.0122656 0)
(-2.49824 -0.0126957 0)
(-2.50589 -0.013243 0)
(-2.51361 -0.0139316 0)
(-2.52141 -0.0147844 0)
(-2.52931 -0.015825 0)
(-2.53731 -0.0170741 0)
(-2.54542 -0.0185424 0)
(-2.55367 -0.0202147 0)
(-2.56206 -0.0220365 0)
(-2.57061 -0.023897 0)
(-2.5793 -0.0255884 0)
(-2.58804 -0.026755 0)
(-2.59665 -0.0268331 0)
(-2.6047 -0.0249881 0)
(-2.61131 -0.0200194 0)
(-2.61599 -0.0101537 0)
(-2.61758 0.00723588 0)
(-2.61177 0.0378478 0)
(-2.59977 0.0922159 0)
(-2.57386 0.190287 0)
(-2.51203 0.367932 0)
(-2.41565 0.651715 0)
(-2.25894 -0.00229181 0)
(-2.2587 -0.00400853 0)
(-2.26308 -0.00512165 0)
(-2.26664 -0.0058399 0)
(-2.27038 -0.00630669 0)
(-2.27433 -0.00661435 0)
(-2.27835 -0.00682692 0)
(-2.28251 -0.00698066 0)
(-2.28671 -0.00709999 0)
(-2.29103 -0.00719719 0)
(-2.29538 -0.00728164 0)
(-2.29983 -0.00735697 0)
(-2.30432 -0.00742695 0)
(-2.30891 -0.00749224 0)
(-2.31353 -0.00755449 0)
(-2.31824 -0.00761346 0)
(-2.32299 -0.00766996 0)
(-2.32781 -0.007724 0)
(-2.33268 -0.00777528 0)
(-2.33762 -0.00781985 0)
(-2.34262 -0.00785985 0)
(-2.34769 -0.00789766 0)
(-2.35282 -0.00793376 0)
(-2.35804 -0.00796711 0)
(-2.36333 -0.00799731 0)
(-2.3687 -0.00802393 0)
(-2.37413 -0.0080475 0)
(-2.37965 -0.00806795 0)
(-2.38523 -0.00808569 0)
(-2.39089 -0.00810064 0)
(-2.39661 -0.00811325 0)
(-2.4024 -0.00812359 0)
(-2.40825 -0.00813215 0)
(-2.41417 -0.00813887 0)
(-2.42014 -0.0081444 0)
(-2.42617 -0.00814829 0)
(-2.43224 -0.00815076 0)
(-2.43837 -0.00815236 0)
(-2.44454 -0.00815321 0)
(-2.45075 -0.00815336 0)
(-2.45699 -0.00815312 0)
(-2.46326 -0.00815249 0)
(-2.46956 -0.00815157 0)
(-2.47588 -0.00815036 0)
(-2.48222 -0.00814914 0)
(-2.48858 -0.00814746 0)
(-2.49494 -0.0081458 0)
(-2.50131 -0.00814351 0)
(-2.50769 -0.00814032 0)
(-2.51406 -0.00813627 0)
(-2.52043 -0.00813298 0)
(-2.5268 -0.00812951 0)
(-2.53315 -0.00812483 0)
(-2.5395 -0.00811822 0)
(-2.54584 -0.00810927 0)
(-2.55216 -0.00809754 0)
(-2.55847 -0.00808266 0)
(-2.56477 -0.00806481 0)
(-2.57106 -0.00804409 0)
(-2.57733 -0.00802088 0)
(-2.5836 -0.00799649 0)
(-2.58986 -0.00797412 0)
(-2.59611 -0.00795311 0)
(-2.60236 -0.00792907 0)
(-2.60862 -0.00790222 0)
(-2.61488 -0.00787484 0)
(-2.62116 -0.00784903 0)
(-2.62746 -0.00782667 0)
(-2.63379 -0.00780998 0)
(-2.64016 -0.00780175 0)
(-2.64657 -0.00780539 0)
(-2.65303 -0.00782511 0)
(-2.65954 -0.00786646 0)
(-2.66613 -0.00793639 0)
(-2.6728 -0.00804366 0)
(-2.67956 -0.00819879 0)
(-2.68642 -0.00841463 0)
(-2.69338 -0.00870589 0)
(-2.70049 -0.00908926 0)
(-2.70774 -0.00958442 0)
(-2.71511 -0.0102135 0)
(-2.72264 -0.011 0)
(-2.73035 -0.0119657 0)
(-2.73826 -0.01313 0)
(-2.7464 -0.0145061 0)
(-2.75477 -0.0160795 0)
(-2.76339 -0.0177942 0)
(-2.77226 -0.0195517 0)
(-2.78131 -0.0211695 0)
(-2.79039 -0.0223401 0)
(-2.79921 -0.0225912 0)
(-2.80718 -0.0212379 0)
(-2.81324 -0.0173866 0)
(-2.8163 -0.00951285 0)
(-2.81487 0.00507808 0)
(-2.8022 0.0315469 0)
(-2.7763 0.0787816 0)
(-2.72375 0.163779 0)
(-2.61598 0.311714 0)
(-2.47 0.524672 0)
(-2.39792 -0.0019381 0)
(-2.39848 -0.00316032 0)
(-2.40339 -0.0039928 0)
(-2.40778 -0.00453664 0)
(-2.4123 -0.00488673 0)
(-2.41717 -0.00511162 0)
(-2.42202 -0.00525989 0)
(-2.4271 -0.00536063 0)
(-2.43212 -0.0054329 0)
(-2.4373 -0.00548702 0)
(-2.44242 -0.00553039 0)
(-2.44767 -0.0055662 0)
(-2.45287 -0.00559754 0)
(-2.45818 -0.00562497 0)
(-2.46343 -0.00565003 0)
(-2.46879 -0.00567239 0)
(-2.4741 -0.0056929 0)
(-2.4795 -0.00571052 0)
(-2.48486 -0.00572539 0)
(-2.4903 -0.00573592 0)
(-2.49573 -0.00574271 0)
(-2.5012 -0.00574556 0)
(-2.50664 -0.0057461 0)
(-2.51213 -0.00574424 0)
(-2.51758 -0.00574038 0)
(-2.52307 -0.00573402 0)
(-2.52853 -0.00572587 0)
(-2.53402 -0.00571573 0)
(-2.53948 -0.0057043 0)
(-2.54496 -0.00569124 0)
(-2.55041 -0.00567742 0)
(-2.55587 -0.00566255 0)
(-2.56129 -0.00564783 0)
(-2.56673 -0.00563259 0)
(-2.57213 -0.00561801 0)
(-2.57753 -0.0056034 0)
(-2.58289 -0.00558914 0)
(-2.58825 -0.00557577 0)
(-2.59358 -0.0055632 0)
(-2.5989 -0.00555157 0)
(-2.60419 -0.0055412 0)
(-2.60947 -0.00553184 0)
(-2.61472 -0.00552362 0)
(-2.61996 -0.00551631 0)
(-2.62517 -0.00551024 0)
(-2.63038 -0.00550472 0)
(-2.63556 -0.00550015 0)
(-2.64073 -0.00549585 0)
(-2.64589 -0.0054917 0)
(-2.65104 -0.00548721 0)
(-2.65619 -0.00548337 0)
(-2.66133 -0.00547934 0)
(-2.66647 -0.00547412 0)
(-2.67162 -0.00546701 0)
(-2.67677 -0.00545741 0)
(-2.68194 -0.00544471 0)
(-2.68712 -0.00542823 0)
(-2.69231 -0.00540786 0)
(-2.69753 -0.00538339 0)
(-2.70278 -0.00535479 0)
(-2.70807 -0.00532233 0)
(-2.71339 -0.00529129 0)
(-2.71875 -0.00526294 0)
(-2.72415 -0.00522644 0)
(-2.72961 -0.0051834 0)
(-2.73513 -0.00513678 0)
(-2.74072 -0.00508852 0)
(-2.74638 -0.00504038 0)
(-2.75213 -0.00499418 0)
(-2.75797 -0.00495242 0)
(-2.7639 -0.00491819 0)
(-2.76995 -0.00489545 0)
(-2.77611 -0.00488949 0)
(-2.78241 -0.00490692 0)
(-2.78885 -0.00495617 0)
(-2.79544 -0.00504748 0)
(-2.80219 -0.00519203 0)
(-2.80912 -0.00540505 0)
(-2.81624 -0.00570655 0)
(-2.82358 -0.00611545 0)
(-2.83112 -0.00665063 0)
(-2.8389 -0.00733366 0)
(-2.84694 -0.00818434 0)
(-2.85526 -0.00921931 0)
(-2.86388 -0.0104581 0)
(-2.87281 -0.0118932 0)
(-2.88204 -0.0134649 0)
(-2.89156 -0.0150974 0)
(-2.90126 -0.0166456 0)
(-2.91093 -0.0178641 0)
(-2.92017 -0.0183868 0)
(-2.9283 -0.0177071 0)
(-2.93417 -0.0151931 0)
(-2.936 -0.00979004 0)
(-2.93234 0.00091172 0)
(-2.91448 0.0210602 0)
(-2.87746 0.0572092 0)
(-2.80433 0.12216 0)
(-2.66414 0.231877 0)
(-2.48864 0.377626 0)
(-2.50133 -0.00129227 0)
(-2.5025 -0.00201729 0)
(-2.50729 -0.00253923 0)
(-2.51181 -0.0028815 0)
(-2.51635 -0.00310156 0)
(-2.52133 -0.00324229 0)
(-2.52616 -0.00333352 0)
(-2.53127 -0.00339428 0)
(-2.53617 -0.00343635 0)
(-2.54127 -0.00346674 0)
(-2.54617 -0.00348999 0)
(-2.55122 -0.00350839 0)
(-2.55608 -0.00352384 0)
(-2.56107 -0.00353674 0)
(-2.56587 -0.00354804 0)
(-2.5708 -0.00355754 0)
(-2.57554 -0.00356558 0)
(-2.58039 -0.00357054 0)
(-2.58508 -0.00357258 0)
(-2.58985 -0.00357411 0)
(-2.59447 -0.00357593 0)
(-2.59915 -0.00357561 0)
(-2.60369 -0.00357367 0)
(-2.60827 -0.00357021 0)
(-2.61272 -0.00356569 0)
(-2.6172 -0.00355978 0)
(-2.62156 -0.003553 0)
(-2.62595 -0.00354512 0)
(-2.63022 -0.00353675 0)
(-2.63452 -0.00352737 0)
(-2.63872 -0.00351783 0)
(-2.64293 -0.00350763 0)
(-2.64707 -0.00349814 0)
(-2.65121 -0.00348843 0)
(-2.65528 -0.00347968 0)
(-2.65935 -0.0034712 0)
(-2.66338 -0.00346309 0)
(-2.6674 -0.00345584 0)
(-2.67138 -0.00344918 0)
(-2.67537 -0.00344307 0)
(-2.67932 -0.00343814 0)
(-2.68328 -0.00343354 0)
(-2.68722 -0.00342955 0)
(-2.69117 -0.00342562 0)
(-2.6951 -0.00342212 0)
(-2.69906 -0.00341853 0)
(-2.703 -0.0034145 0)
(-2.70698 -0.00340978 0)
(-2.71095 -0.00340399 0)
(-2.71496 -0.00339701 0)
(-2.71898 -0.00338873 0)
(-2.72303 -0.00337859 0)
(-2.72712 -0.00336575 0)
(-2.73124 -0.00334945 0)
(-2.7354 -0.00332914 0)
(-2.73961 -0.00330405 0)
(-2.74386 -0.00327351 0)
(-2.74817 -0.00323714 0)
(-2.75253 -0.00319448 0)
(-2.75696 -0.00314563 0)
(-2.76146 -0.00308883 0)
(-2.76603 -0.00303099 0)
(-2.77068 -0.00298205 0)
(-2.7754 -0.00291661 0)
(-2.78022 -0.00283994 0)
(-2.78513 -0.0027569 0)
(-2.79014 -0.00266932 0)
(-2.79527 -0.00257859 0)
(-2.80051 -0.00248616 0)
(-2.80588 -0.00239415 0)
(-2.81138 -0.0023054 0)
(-2.81703 -0.00222353 0)
(-2.82283 -0.00215348 0)
(-2.8288 -0.00210147 0)
(-2.83494 -0.0020754 0)
(-2.84128 -0.00208503 0)
(-2.84782 -0.00214125 0)
(-2.85458 -0.00225898 0)
(-2.86158 -0.00245748 0)
(-2.86883 -0.00275514 0)
(-2.87637 -0.00316995 0)
(-2.88422 -0.00372198 0)
(-2.8924 -0.00442999 0)
(-2.90096 -0.00530477 0)
(-2.90991 -0.00637473 0)
(-2.91924 -0.00765412 0)
(-2.92897 -0.00906497 0)
(-2.93906 -0.010568 0)
(-2.94938 -0.0120654 0)
(-2.95969 -0.0133836 0)
(-2.96956 -0.0142687 0)
(-2.97824 -0.0144091 0)
(-2.98454 -0.0134075 0)
(-2.98646 -0.0107381 0)
(-2.98155 -0.00472772 0)
(-2.96266 0.00731431 0)
(-2.91879 0.0295286 0)
(-2.83323 0.0694024 0)
(-2.67394 0.135778 0)
(-2.48355 0.219505 0)
(-2.54767 -0.000435058 0)
(-2.54885 -0.000753574 0)
(-2.55325 -0.000968163 0)
(-2.55745 -0.00111106 0)
(-2.56164 -0.00120998 0)
(-2.56627 -0.00128091 0)
(-2.57068 -0.0013344 0)
(-2.57538 -0.00137689 0)
(-2.5798 -0.00141276 0)
(-2.58443 -0.00144426 0)
(-2.58877 -0.00147314 0)
(-2.59328 -0.00149999 0)
(-2.59752 -0.00152564 0)
(-2.6019 -0.00154994 0)
(-2.60602 -0.00157316 0)
(-2.61026 -0.00159528 0)
(-2.61426 -0.00161588 0)
(-2.61837 -0.00163401 0)
(-2.62227 -0.00164975 0)
(-2.62624 -0.00166607 0)
(-2.63003 -0.00168345 0)
(-2.63389 -0.00169997 -1.9983e-41)
(-2.63757 -0.00171481 0)
(-2.64132 -0.00172808 0)
(-2.64492 -0.00173975 0)
(-2.64857 -0.00174987 0)
(-2.65209 -0.00175851 0)
(-2.65565 -0.00176568 0)
(-2.6591 -0.00177143 0)
(-2.66259 -0.00177563 0)
(-2.66598 -0.00177846 0)
(-2.66941 -0.00178012 0)
(-2.67276 -0.00178095 0)
(-2.67613 -0.00178104 0)
(-2.67945 -0.00178052 0)
(-2.68278 -0.00177934 0)
(-2.68608 -0.00177758 0)
(-2.68939 -0.00177519 0)
(-2.69267 -0.00177211 0)
(-2.69598 -0.00176808 0)
(-2.69926 -0.00176399 0)
(-2.70257 -0.00175873 0)
(-2.70587 -0.00175262 0)
(-2.70919 -0.00174502 0)
(-2.71252 -0.00173619 0)
(-2.71587 -0.00172603 0)
(-2.71924 -0.00171349 0)
(-2.72263 -0.00169872 0)
(-2.72605 -0.00168106 0)
(-2.7295 -0.00166104 0)
(-2.73299 -0.00163768 0)
(-2.73651 -0.0016106 0)
(-2.74008 -0.0015791 0)
(-2.74369 -0.00154233 0)
(-2.74735 -0.00150004 0)
(-2.75106 -0.00145116 0)
(-2.75483 -0.00139513 0)
(-2.75866 -0.00133137 0)
(-2.76255 -0.00125912 0)
(-2.76651 -0.00117837 0)
(-2.77054 -0.00108791 0)
(-2.77466 -0.000985817 0)
(-2.77885 -0.000912071 0)
(-2.78311 -0.000806415 0)
(-2.78747 -0.000684613 0)
(-2.79194 -0.000554738 0)
(-2.79651 -0.000418072 0)
(-2.80119 -0.000275367 0)
(-2.806 -0.00012763 0)
(-2.81093 2.34194e-05 0)
(-2.816 0.000175199 0)
(-2.82122 0.000324594 0)
(-2.82659 0.000467113 0)
(-2.83214 0.000596999 0)
(-2.83786 0.000706984 0)
(-2.84378 0.000788006 0)
(-2.84991 0.000829274 0)
(-2.85627 0.000816807 0)
(-2.86288 0.000733814 0)
(-2.86975 0.000563072 0)
(-2.87692 0.000286859 0)
(-2.8844 -0.000114132 0)
(-2.89223 -0.000658318 -7.73849e-42)
(-2.90043 -0.00135757 0)
(-2.90906 -0.00222611 0)
(-2.91799 -0.0033405 0)
(-2.92735 -0.00457164 0)
(-2.93707 -0.0059356 -6.97726e-41)
(-2.94701 -0.00738824 0)
(-2.95692 -0.00883195 0)
(-2.96634 -0.0101223 0)
(-2.97455 -0.0111385 0)
(-2.98034 -0.0117633 0)
(-2.9818 -0.0118695 -6.97628e-41)
(-2.97555 -0.0109037 0)
(-2.95619 -0.00790532 0)
(-2.91059 -0.0014318 -1.68307e-41)
(-2.82056 0.0104528 0)
(-2.65458 0.0304936 0)
(-2.45948 0.055808 0)
(-2.52025 0.000470998 0)
(-2.52099 0.000551018 0)
(-2.52527 0.000649857 0)
(-2.52933 0.000707293 0)
(-2.53341 0.00072815 0)
(-2.53796 0.000723976 0)
(-2.54234 0.000704004 0)
(-2.54703 0.000674691 0)
(-2.55148 0.000639331 0)
(-2.55616 0.000600527 0)
(-2.5606 0.000559577 0)
(-2.56521 0.000517535 0)
(-2.56961 0.00047487 0)
(-2.57413 0.00043207 0)
(-2.57846 0.00038977 0)
(-2.5829 0.000347807 0)
(-2.58715 0.000307316 0)
(-2.59149 0.00026848 0)
(-2.59566 0.000231458 0)
(-2.5999 0.000194346 0)
(-2.60399 0.000157526 0)
(-2.60813 0.000121763 1.43131e-42)
(-2.61214 8.81549e-05 0)
(-2.61619 5.65162e-05 0)
(-2.62011 2.73113e-05 0)
(-2.62407 1.46424e-07 0)
(-2.62791 -2.4625e-05 0)
(-2.63178 -4.73073e-05 0)
(-2.63554 -6.73947e-05 0)
(-2.63933 -8.50625e-05 0)
(-2.64303 -9.98713e-05 0)
(-2.64674 -0.00011277 0)
(-2.65038 -0.000123161 0)
(-2.65402 -0.000132043 0)
(-2.6576 -0.000138628 0)
(-2.66119 -0.000143447 0)
(-2.66473 -0.00014656 0)
(-2.66827 -0.000147532 0)
(-2.67177 -0.000146443 0)
(-2.67528 -0.000143192 0)
(-2.67876 -0.000137807 0)
(-2.68224 -0.000130161 0)
(-2.68571 -0.00011995 0)
(-2.68919 -0.000106971 0)
(-2.69266 -9.10304e-05 0)
(-2.69613 -7.20405e-05 0)
(-2.69962 -4.91137e-05 0)
(-2.70311 -2.22432e-05 0)
(-2.70662 9.04939e-06 0)
(-2.71015 4.45538e-05 0)
(-2.7137 8.5146e-05 0)
(-2.71727 0.000131247 0)
(-2.72088 0.000183497 0)
(-2.72452 0.00024274 0)
(-2.72819 0.000309182 0)
(-2.7319 0.000384028 0)
(-2.73566 0.000467698 0)
(-2.73947 0.000560919 0)
(-2.74332 0.00066497 0)
(-2.74723 0.000779801 0)
(-2.75121 0.000905297 0)
(-2.75523 0.00104523 0)
(-2.75933 0.00116057 0)
(-2.76352 0.00130991 0)
(-2.76779 0.00147801 0)
(-2.77213 0.00165703 0)
(-2.77657 0.00184593 0)
(-2.7811 0.00204426 0)
(-2.78573 0.00225138 0)
(-2.79048 0.00246601 0)
(-2.79534 0.00268578 0)
(-2.80033 0.00290821 0)
(-2.80546 0.00312941 0)
(-2.81074 0.00334414 0)
(-2.81618 0.00354585 0)
(-2.8218 0.00372623 0)
(-2.82761 0.00387506 0)
(-2.83362 0.00397954 0)
(-2.83986 0.00402471 0)
(-2.84635 0.00399453 0)
(-2.85311 0.00387201 0)
(-2.86016 0.00363845 0)
(-2.86753 0.00327475 3.84945e-41)
(-2.87524 0.00276249 0)
(-2.88331 0.00209693 0)
(-2.89167 0.00119589 0)
(-2.90043 0.000157405 0)
(-2.90941 -0.0010623 -1.24873e-41)
(-2.91854 -0.00246697 0)
(-2.9273 -0.00402143 0)
(-2.93552 -0.00569651 0)
(-2.9424 -0.0075492 0)
(-2.94675 -0.00974502 0)
(-2.94667 -0.0125586 -7.38127e-41)
(-2.93885 -0.0164662 0)
(-2.91734 -0.0222584 0)
(-2.87114 -0.0316531 -3.7208e-40)
(-2.78084 -0.0478306 0)
(-2.61626 -0.0738652 0)
(-2.4227 -0.104755 0)
(-2.43579 0.00124489 0)
(-2.43556 0.00185226 0)
(-2.43982 0.00228478 0)
(-2.44362 0.00255774 0)
(-2.44755 0.00271447 0)
(-2.45193 0.00279419 0)
(-2.45626 0.00282678 0)
(-2.46088 0.00282988 0)
(-2.4654 0.00281523 0)
(-2.47013 0.00278894 0)
(-2.47477 0.00275616 0)
(-2.47956 0.00271858 0)
(-2.48428 0.0026786 0)
(-2.48911 0.00263624 0)
(-2.49389 0.00259317 0)
(-2.49876 0.0025492 0)
(-2.50357 0.00250562 0)
(-2.50847 0.00246239 0)
(-2.51331 0.00241977 0)
(-2.51822 0.0023766 0)
(-2.52308 0.00233345 0)
(-2.528 0.00229065 0)
(-2.53286 0.00224919 0)
(-2.53777 0.00220901 0)
(-2.54262 0.00217068 0)
(-2.54751 0.00213372 0)
(-2.55234 0.0020986 0)
(-2.5572 0.00206504 0)
(-2.562 0.0020338 0)
(-2.56682 0.00200494 0)
(-2.57158 0.00197906 0)
(-2.57635 0.00195524 0)
(-2.58106 0.00193397 0)
(-2.58577 0.00191447 0)
(-2.59042 0.00189757 0)
(-2.59507 0.00188283 0)
(-2.59967 0.0018705 0)
(-2.60426 0.00186093 0)
(-2.6088 0.00185413 0)
(-2.61332 0.00185004 0)
(-2.61781 0.00184961 0)
(-2.62227 0.001852 0)
(-2.6267 0.00185824 0)
(-2.63111 0.0018682 0)
(-2.63548 0.00188253 0)
(-2.63984 0.00190149 0)
(-2.64418 0.0019257 0)
(-2.64849 0.00195552 0)
(-2.6528 0.00199124 0)
(-2.65709 0.00203322 0)
(-2.66137 0.00208205 0)
(-2.66564 0.00213838 0)
(-2.66992 0.00220266 0)
(-2.67419 0.00227559 0)
(-2.67848 0.00235802 0)
(-2.68277 0.00245089 0)
(-2.68708 0.00255478 0)
(-2.6914 0.0026704 0)
(-2.69576 0.00279905 0)
(-2.70014 0.00294036 0)
(-2.70455 0.00309432 0)
(-2.709 0.00325717 0)
(-2.71349 0.00342052 0)
(-2.71803 0.00360777 0)
(-2.72263 0.00381446 0)
(-2.72728 0.00403625 0)
(-2.73199 0.00427193 0)
(-2.73678 0.00452104 0)
(-2.74164 0.00478314 0)
(-2.74659 0.00505739 0)
(-2.75163 0.00534179 0)
(-2.75678 0.00563445 0)
(-2.76204 0.00593216 0)
(-2.76743 0.00623022 0)
(-2.77297 0.0065228 0)
(-2.77866 0.00680237 0)
(-2.78452 0.00705946 0)
(-2.79058 0.00728241 0)
(-2.79685 0.00745761 0)
(-2.80335 0.00757001 0)
(-2.81013 0.00760333 0)
(-2.81718 0.00753942 0)
(-2.82456 0.00735667 0)
(-2.83227 0.00703638 0)
(-2.84034 0.00656096 0)
(-2.84879 0.00589268 0)
(-2.85761 0.00503984 0)
(-2.86669 0.00394597 0)
(-2.87599 0.00257611 0)
(-2.88494 0.000887243 0)