/*--------------------------------*- C++ -*----------------------------------*\
| =========                 |                                                 |
| \\      /  F ield         | OpenFOAM: The Open Source CFD Toolbox           |
|  \\    /   O peration     | Version:  2.1.0                                 |
|   \\  /    A nd           | Web:      www.OpenFOAM.org                      |
|    \\/     M anipulation  |                                                 |
\*---------------------------------------------------------------------------*/
FoamFile
{
    version     2.0;
    format      ascii;
    class       volScalarField;
    location    "0.06";
    object      k;
}
// * * * * * * * * * * * * * * * * * * * * * * * * * * * * * * * * * * * * * //

dimensions      [0 2 -2 0 0 0 0];

internalField   nonuniform List<scalar> 
6400
(
0.032498
0.0325196
0.0325287
0.0325404
0.0325438
0.0325445
0.0325424
0.0325362
0.0325271
0.0325167
0.0325065
0.0324968
0.0324884
0.0324814
0.0324754
0.0324699
0.0324649
0.0324598
0.032452
0.0324382
0.0324194
0.0323959
0.0323661
0.0323269
0.0322761
0.0322104
0.032127
0.0320214
0.0318924
0.031742
0.0315657
0.0313585
0.0311178
0.0308395
0.0305209
0.030161
0.0297552
0.0293004
0.0287983
0.0282494
0.027655
0.0270164
0.0263378
0.0256249
0.0248821
0.0241158
0.0233336
0.0225455
0.0217603
0.0209888
0.0202342
0.0195008
0.0188015
0.0181407
0.0175205
0.0169447
0.0164188
0.0159488
0.0155365
0.0151703
0.0148474
0.0145717
0.0143478
0.0141839
0.0140862
0.0140591
0.0140658
0.0141009
0.0141595
0.0142333
0.0143148
0.0143972
0.0144757
0.0145485
0.0146048
0.0146201
0.0146108
0.014569
0.0144906
0.0143598
0.014172
0.0139579
0.0137306
0.0134647
0.013137
0.0127259
0.0122217
0.011622
0.0109011
0.0100255
0.00895843
0.00765471
0.00606734
0.0042527
0.00233143
0.0014742
0.00171919
0.00382995
0.00596319
0.00665622
0.00579923
0.00576155
0.00574399
0.00570643
0.00567977
0.00566326
0.00565679
0.00565343
0.0056504
0.00564677
0.00564313
0.00563975
0.00563699
0.00563453
0.00563147
0.00562707
0.00562098
0.00561196
0.00559846
0.00557959
0.00555587
0.00552815
0.00549558
0.00545828
0.00541754
0.00537288
0.00532527
0.00527586
0.00522768
0.00518391
0.00514529
0.00511373
0.00509983
0.00509518
0.00509489
0.00510311
0.0051304
0.00518022
0.0052474
0.00532612
0.00541233
0.00550495
0.00560655
0.00572509
0.00587719
0.00608529
0.00637191
0.00675586
0.00724672
0.0078393
0.00852075
0.00926608
0.0100408
0.0108368
0.0116696
0.0125697
0.0135688
0.0146802
0.015915
0.0172935
0.0188189
0.0204755
0.0222315
0.0240253
0.0257947
0.0275337
0.029248
0.0309372
0.0325959
0.0342112
0.0357664
0.0372439
0.0386337
0.0399196
0.0410816
0.0420959
0.0429431
0.0436105
0.0441329
0.0443774
0.0444478
0.0444255
0.0441892
0.0436669
0.0428684
0.0418187
0.0404676
0.0387123
0.0365147
0.0338772
0.0308817
0.0276196
0.0240771
0.0203351
0.0164634
0.0128685
0.0102344
0.00818116
0.00700514
0.00583813
0.00126995
0.00126441
0.00126192
0.00125704
0.00125435
0.00125314
0.00125274
0.00125247
0.00125236
0.00125231
0.0012523
0.00125229
0.00125239
0.00125271
0.00125319
0.00125388
0.00125488
0.00125617
0.00125802
0.00126062
0.00126439
0.00126996
0.00127803
0.00128892
0.00130392
0.00132378
0.0013491
0.00138149
0.00142145
0.00147013
0.00152797
0.00159515
0.00167299
0.00175914
0.00184918
0.00194258
0.00204709
0.00217158
0.00232291
0.00250125
0.00270935
0.00294981
0.00322981
0.00355968
0.00395153
0.00442279
0.0049889
0.00566491
0.00645722
0.00736823
0.00839387
0.00952644
0.0107555
0.0120532
0.0133939
0.0147588
0.0161537
0.0176084
0.0191439
0.0207614
0.0224539
0.0242159
0.0260445
0.0279349
0.0298699
0.0317783
0.033621
0.0354181
0.0371716
0.0388484
0.0404153
0.0418557
0.0431591
0.044304
0.0452804
0.046084
0.0466592
0.0469259
0.047035
0.047048
0.0468052
0.046121
0.0452363
0.0442363
0.0429227
0.0412806
0.0394971
0.0375452
0.0352642
0.0327104
0.0299744
0.0269665
0.0235788
0.0199402
0.0162393
0.0126485
0.00966353
0.00727305
0.00558249
0.00371565
0.00104819
0.00104785
0.00104765
0.00104748
0.00104738
0.00104738
0.0010474
0.0010473
0.00104727
0.00104729
0.0010473
0.00104724
0.00104722
0.0010473
0.0010474
0.00104783
0.00104849
0.00104951
0.001051
0.00105391
0.00105814
0.00106492
0.00107479
0.00108817
0.00110585
0.00112715
0.00115076
0.00117923
0.00120926
0.00124658
0.00129077
0.00134403
0.00140872
0.00148374
0.00157155
0.00167279
0.00179088
0.0019283
0.00209184
0.00228628
0.00252338
0.00281101
0.00316371
0.00359344
0.00411022
0.00472293
0.00543672
0.00625571
0.00718051
0.00820106
0.00930611
0.0104815
0.0117155
0.0129987
0.0143256
0.0156931
0.0171042
0.0185608
0.0200627
0.0216018
0.0231629
0.0247276
0.0262745
0.0277794
0.029222
0.0306057
0.0319161
0.0331279
0.0342276
0.0352031
0.0360326
0.0367097
0.0372231
0.0374991
0.0376182
0.0376483
0.0375244
0.0370533
0.0364423
0.0357543
0.0347889
0.033616
0.0323743
0.030939
0.0292837
0.0275552
0.0257288
0.0237763
0.0217804
0.0196969
0.0175594
0.0154673
0.0133723
0.0112618
0.009221
0.00735595
0.00558556
0.00415498
0.00312858
0.00265087
0.00106029
0.00106067
0.00106067
0.00106062
0.00106073
0.0010607
0.0010607
0.00106037
0.00105989
0.00105963
0.00105938
0.00105917
0.00105796
0.0010575
0.00105761
0.00105733
0.001057
0.00105665
0.00105681
0.00105782
0.00106018
0.00106501
0.00107345
0.00108437
0.00109724
0.00111157
0.00112941
0.00114812
0.0011686
0.00119587
0.00123167
0.00127974
0.00133819
0.00140836
0.00149257
0.0015921
0.00171006
0.0018495
0.002015
0.00221567
0.00246262
0.00276611
0.00314103
0.0035963
0.00413677
0.00476184
0.00546686
0.00624358
0.0070811
0.00796527
0.00888209
0.00981462
0.0107571
0.0117088
0.0126751
0.01366
0.0146617
0.0156701
0.0166742
0.0176647
0.0186332
0.0195705
0.0204634
0.021297
0.0220586
0.022742
0.0233417
0.0238424
0.0242247
0.0244601
0.0245634
0.0245944
0.0245432
0.0242624
0.023869
0.0234172
0.0227772
0.0220051
0.0211862
0.0202424
0.0191821
0.0180812
0.0168876
0.0156066
0.014432
0.0132868
0.0121732
0.0110965
0.00998667
0.00882468
0.00782227
0.0070111
0.0061287
0.00534059
0.0045073
0.00372607
0.00321128
0.00280665
0.00263186
0.00259572
0.00107413
0.00107471
0.00107396
0.00107415
0.00107403
0.00107454
0.00107565
0.00107454
0.00107423
0.00107412
0.00107407
0.00107291
0.00107265
0.00107209
0.00107083
0.00107057
0.00107018
0.00106961
0.00106915
0.00106902
0.00107009
0.00107342
0.00107965
0.00108641
0.00109383
0.00109996
0.00111033
0.00112039
0.00113517
0.00115693
0.00118711
0.00122888
0.00127976
0.00134273
0.00141734
0.00150683
0.00161041
0.00173425
0.00187961
0.00205732
0.00227455
0.00254093
0.0028644
0.00324647
0.003688
0.00418716
0.00474561
0.00536071
0.00601871
0.00668808
0.00733685
0.00794433
0.00851167
0.00905276
0.00958494
0.0101147
0.0106346
0.0111277
0.0115799
0.0119914
0.0123628
0.0126923
0.0129744
0.0131971
0.0133397
0.0134056
0.0134286
0.0134166
0.0133045
0.0131151
0.0129163
0.0126616
0.0123242
0.0119512
0.0115572
0.0111123
0.0106369
0.0101566
0.00966193
0.00915
0.00863856
0.00813557
0.00763203
0.0071474
0.00669843
0.00625936
0.00583682
0.00543359
0.00504068
0.00467414
0.00433921
0.00401832
0.00370641
0.00342989
0.00315559
0.00292738
0.00277402
0.00270167
0.00268681
0.0027521
0.00107586
0.00107614
0.00107602
0.00107609
0.00107582
0.00107591
0.00107595
0.00107597
0.00107584
0.00107579
0.00107549
0.00107591
0.0010758
0.00107499
0.00107409
0.00107365
0.00107334
0.00107331
0.00107284
0.00107317
0.00107355
0.00107482
0.00107726
0.00108117
0.00108418
0.00108789
0.00109167
0.00110009
0.00111225
0.00113119
0.00115785
0.00119304
0.00123692
0.00129023
0.00135404
0.00142806
0.0015146
0.00161421
0.00173087
0.00186865
0.00203149
0.00221837
0.00243347
0.00269098
0.00300955
0.00339767
0.00384923
0.00433809
0.00482678
0.00527857
0.00567547
0.00602291
0.00634005
0.00664488
0.00693862
0.0072083
0.00743855
0.00762593
0.00777523
0.00788874
0.00796233
0.00799623
0.00800848
0.0080074
0.00796169
0.00786691
0.00776341
0.00764263
0.00748511
0.00730983
0.00713429
0.00693961
0.00672592
0.00651458
0.00630507
0.00608467
0.00586551
0.00565634
0.00544689
0.00523883
0.00504604
0.00486042
0.00467889
0.00450873
0.00434791
0.00418986
0.00403676
0.00389372
0.00375347
0.003618
0.00349035
0.00337013
0.00325912
0.00315873
0.0030783
0.00302661
0.00300558
0.00302784
0.00317439
0.00326676
0.00107173
0.00107188
0.00107198
0.00107222
0.00107229
0.00107247
0.00107212
0.00107223
0.00107208
0.00107225
0.00107237
0.00107223
0.00107243
0.00107234
0.00107183
0.00107121
0.00107106
0.00107109
0.00107098
0.00107076
0.00107107
0.00107161
0.00107219
0.0010736
0.00107531
0.00107804
0.00108164
0.00108919
0.00110002
0.00111672
0.00113928
0.00116929
0.00120662
0.00125165
0.00130515
0.00136605
0.00143556
0.0015132
0.00159947
0.00169403
0.00179909
0.00192548
0.00208885
0.00230413
0.00257994
0.00291158
0.0032813
0.00366101
0.00402315
0.00435007
0.00463872
0.00489875
0.00514312
0.00537551
0.00558859
0.0057709
0.0059173
0.00603088
0.00611946
0.00617699
0.00620071
0.00620978
0.00621193
0.00620868
0.00618944
0.00615195
0.00610571
0.00605658
0.0060037
0.00594752
0.00588903
0.0058271
0.00576453
0.0057056
0.00564952
0.00559385
0.00554014
0.00548958
0.00544118
0.005395
0.0053507
0.00530803
0.00526601
0.00522483
0.00518302
0.00513964
0.00509464
0.005045
0.00499038
0.00493105
0.0048677
0.00480137
0.00473516
0.00467381
0.00463726
0.00462371
0.0046594
0.00480242
0.00504386
0.00519619
0.00106847
0.00106885
0.00106894
0.00106868
0.00106904
0.00106897
0.00106865
0.00106899
0.00106912
0.00106941
0.00106955
0.00106941
0.00106961
0.00106939
0.00106903
0.0010685
0.00106817
0.00106806
0.00106795
0.00106775
0.00106767
0.00106751
0.00106815
0.00106862
0.00107017
0.00107202
0.00107617
0.00108284
0.00109367
0.00110816
0.00112822
0.00115448
0.00118714
0.00122661
0.00127223
0.00132346
0.00137929
0.00143771
0.00149729
0.0015625
0.0016425
0.00175029
0.00189939
0.00209953
0.00235334
0.00265245
0.002979
0.00331037
0.00362797
0.00392322
0.00420053
0.00446925
0.00473623
0.00499744
0.00524297
0.0054639
0.00565903
0.0058336
0.0059919
0.00613291
0.00625559
0.00636136
0.00645674
0.00654676
0.00663268
0.00671197
0.00678596
0.00685782
0.00692807
0.00699619
0.00706249
0.00712915
0.00719908
0.00727392
0.00735404
0.00744005
0.0075334
0.00763494
0.00774465
0.00786319
0.00799038
0.00812538
0.00826797
0.00841847
0.00857791
0.00874687
0.00892429
0.00910827
0.00929584
0.00948692
0.00967994
0.00987729
0.0100797
0.010293
0.0105241
0.010793
0.0111477
0.0115957
0.0120877
0.0123265
0.00106718
0.0010674
0.00106767
0.00106749
0.00106733
0.00106727
0.00106733
0.00106743
0.00106767
0.00106778
0.00106784
0.0010678
0.00106755
0.00106753
0.00106764
0.00106729
0.00106698
0.00106657
0.00106669
0.00106626
0.00106588
0.00106597
0.001066
0.00106718
0.001069
0.00107167
0.00107565
0.00108194
0.00109143
0.00110455
0.00112343
0.00114776
0.00117831
0.00121509
0.00125682
0.00130267
0.0013502
0.00139694
0.00144467
0.00149942
0.00157161
0.00167332
0.00181664
0.00200961
0.002253
0.0025378
0.00284737
0.00316218
0.00346826
0.00376092
0.00404683
0.00433453
0.00462795
0.00492075
0.00520203
0.00546306
0.00570358
0.00592745
0.00613636
0.00632832
0.00650259
0.00666131
0.00681029
0.00695435
0.00709475
0.00723016
0.00736107
0.00748898
0.00761395
0.00773506
0.00785283
0.00796974
0.00808871
0.00821144
0.00833901
0.00847296
0.00861532
0.00876805
0.00893277
0.00911002
0.00929967
0.00950069
0.00971236
0.00993688
0.0101774
0.0104369
0.0107163
0.0110153
0.0113345
0.0116731
0.0120335
0.0124182
0.0128298
0.0132717
0.0137468
0.0142565
0.0147836
0.0152216
0.0154075
0.0153141
0.00106746
0.00106765
0.00106751
0.0010676
0.00106767
0.00106756
0.00106752
0.0010679
0.00106801
0.00106796
0.00106789
0.00106764
0.00106776
0.00106744
0.0010674
0.00106716
0.00106727
0.00106662
0.00106617
0.00106592
0.00106584
0.00106573
0.00106624
0.00106748
0.00106897
0.00107148
0.00107561
0.0010818
0.00109176
0.00110573
0.00112454
0.00114947
0.00118057
0.00121775
0.00126013
0.00130705
0.00135618
0.00140504
0.00145436
0.00151036
0.0015828
0.00168435
0.0018267
0.00201866
0.00226068
0.00254402
0.00285177
0.00316373
0.00346529
0.00375128
0.00402829
0.00430578
0.00458833
0.00487058
0.00514186
0.00539323
0.00562413
0.00583851
0.00603862
0.00622199
0.0063873
0.0065364
0.00667491
0.00680779
0.00693651
0.00706004
0.00717899
0.0072951
0.00740863
0.00751896
0.00762683
0.00773466
0.00784537
0.00796059
0.00808125
0.00820859
0.00834445
0.00849061
0.00864868
0.00881982
0.00900437
0.0092013
0.00940967
0.00963071
0.00986704
0.0101214
0.0103956
0.0106911
0.0110096
0.0113521
0.0117205
0.0121153
0.0125397
0.0130065
0.0135188
0.0140938
0.0147269
0.0153862
0.015748
0.015869
0.00106884
0.0010688
0.00106905
0.00106909
0.0010693
0.0010693
0.00106917
0.00106944
0.00106948
0.00106949
0.00106961
0.00106934
0.00106932
0.0010689
0.00106848
0.0010683
0.00106818
0.0010682
0.00106823
0.00106788
0.00106799
0.00106795
0.00106804
0.00106856
0.00107009
0.00107234
0.00107667
0.00108358
0.00109463
0.00111042
0.00113169
0.00115891
0.00119246
0.0012331
0.00127999
0.00133313
0.00139138
0.00145346
0.0015167
0.00158435
0.00166454
0.00177066
0.00191621
0.00211215
0.00236084
0.00265457
0.00297505
0.00329867
0.0036052
0.00388451
0.00414026
0.00438301
0.00462107
0.00485308
0.00507039
0.00526693
0.00543994
0.00559145
0.00572748
0.00584872
0.00595125
0.00603397
0.00610289
0.00616229
0.00621399
0.00625701
0.00629286
0.00632381
0.00634981
0.00637103
0.00638844
0.00640313
0.00641689
0.00643091
0.00644523
0.00645924
0.00647343
0.00648839
0.00650425
0.00652061
0.00653688
0.00655153
0.0065633
0.0065724
0.00657977
0.00658612
0.0065922
0.0066002
0.00661078
0.00662508
0.00664669
0.00668129
0.00672858
0.00679497
0.00689871
0.00705127
0.00729852
0.00766684
0.00816892
0.00847256
0.00107162
0.00107201
0.00107236
0.00107259
0.00107259
0.00107277
0.00107278
0.00107281
0.00107278
0.00107272
0.00107246
0.00107215
0.00107213
0.00107161
0.0010714
0.00107097
0.00107058
0.0010707
0.00107059
0.00107058
0.00107075
0.00107109
0.00107226
0.00107355
0.00107544
0.00107806
0.00108256
0.00108994
0.00110242
0.00112013
0.00114408
0.00117537
0.00121409
0.00126066
0.00131515
0.0013785
0.00145043
0.00153109
0.00162107
0.00172043
0.00182888
0.00195499
0.00211322
0.00231981
0.0025845
0.00290501
0.00326381
0.0036328
0.00398215
0.00429206
0.00455824
0.00479129
0.00500669
0.00521252
0.00540303
0.00556469
0.0056905
0.00578477
0.00585311
0.00588581
0.00589838
0.00590104
0.00589361
0.00586028
0.00580237
0.00573333
0.00566151
0.00558416
0.00549544
0.00539924
0.00530448
0.00521002
0.0051108
0.00501077
0.0049156
0.00482189
0.00472671
0.004634
0.00454495
0.00445623
0.00436867
0.00428386
0.00420041
0.00411737
0.00403644
0.00395913
0.0038844
0.00381184
0.00374404
0.00368117
0.00362358
0.00357316
0.00353299
0.00350722
0.00349617
0.00349732
0.00357122
0.00369078
0.00388897
0.00398015
0.00107538
0.00107566
0.00107613
0.00107602
0.00107639
0.00107618
0.00107613
0.00107635
0.00107613
0.0010762
0.00107565
0.0010757
0.00107486
0.00107455
0.00107408
0.00107364
0.00107287
0.00107215
0.00107233
0.00107238
0.00107285
0.00107417
0.00107718
0.00107993
0.00108358
0.00108722
0.00109279
0.00110141
0.00111495
0.00113538
0.00116302
0.00119876
0.00124412
0.00129896
0.00136336
0.00143957
0.00152783
0.00162936
0.00174839
0.0018882
0.00205319
0.00224252
0.00245593
0.0027049
0.0030079
0.00337628
0.00380696
0.00427728
0.00474978
0.00518588
0.00556456
0.00588877
0.00618009
0.00646092
0.00673808
0.00699942
0.00722743
0.00741834
0.00757434
0.00769805
0.00779582
0.00785531
0.0078797
0.00788613
0.00787086
0.00780085
0.00770208
0.00760022
0.00747243
0.00730891
0.00713825
0.00696673
0.00677475
0.00656773
0.00636717
0.00616467
0.00595159
0.00574214
0.00554127
0.00533721
0.00513608
0.0049423
0.004749
0.00455875
0.00437557
0.00419532
0.00402068
0.00385349
0.00368844
0.00352962
0.00338285
0.00324641
0.00311723
0.00300558
0.00290051
0.0028278
0.00279427
0.00278865
0.00290544
0.00298254
0.00107352
0.00107396
0.00107457
0.00107487
0.00107475
0.00107444
0.00107502
0.00107433
0.00107445
0.00107356
0.0010732
0.00107277
0.00107263
0.00107268
0.00107245
0.00107102
0.00107004
0.00106923
0.00106908
0.00106921
0.00106965
0.00107273
0.00107798
0.00108491
0.00109159
0.00109987
0.00110818
0.00112104
0.00113625
0.00115956
0.00119112
0.0012324
0.001284
0.00134805
0.00142335
0.00151281
0.00161776
0.00174049
0.00188702
0.0020628
0.00227727
0.00253936
0.00285498
0.00322725
0.00365482
0.00413564
0.00466979
0.00525559
0.00588427
0.00653175
0.00716632
0.00776467
0.00832527
0.00886
0.00939034
0.0099262
0.0104661
0.0109897
0.0114797
0.0119324
0.0123476
0.0127236
0.0130549
0.0133352
0.0135542
0.0136835
0.0137415
0.0137585
0.0137427
0.013623
0.0134328
0.0132357
0.0129832
0.0126504
0.0122893
0.0118943
0.0114541
0.0109862
0.0105159
0.0100196
0.00951303
0.0090151
0.00850387
0.00798326
0.00748233
0.00699349
0.00651638
0.00606451
0.00563225
0.00518394
0.00475655
0.00434217
0.00395133
0.00358535
0.00325615
0.00295558
0.00274362
0.00264282
0.00261585
0.00265335
0.0010593
0.00106003
0.00105996
0.00106071
0.00105989
0.0010599
0.00106037
0.00105963
0.00105964
0.00105876
0.0010588
0.00105839
0.0010579
0.00105765
0.00105771
0.00105685
0.0010567
0.00105694
0.00105691
0.00105774
0.00105979
0.00106399
0.00107145
0.00108162
0.00109369
0.00110839
0.00112545
0.00114481
0.00116714
0.00119554
0.00123086
0.00127837
0.00133621
0.00140772
0.00149093
0.00158981
0.00170645
0.00184307
0.00200663
0.00220285
0.00244211
0.00273704
0.00309643
0.00353311
0.00404924
0.00464558
0.00531774
0.00605908
0.00686008
0.00770692
0.0085888
0.00949219
0.0104105
0.0113412
0.0122921
0.0132685
0.0142712
0.0152914
0.0163178
0.0173394
0.0183494
0.0193386
0.0202971
0.0212094
0.0220612
0.0228403
0.0235427
0.0241642
0.0246859
0.0250942
0.025377
0.0255078
0.0255531
0.0255406
0.0253339
0.0249627
0.0245439
0.0239757
0.0232487
0.0224558
0.0215707
0.0205834
0.0195287
0.0183604
0.0170835
0.0158095
0.0145874
0.0133382
0.0121809
0.0109584
0.0096953
0.00843662
0.00730335
0.00616871
0.0051181
0.0042673
0.00348434
0.00291112
0.0026475
0.0025596
0.00104684
0.00104663
0.00104667
0.00104659
0.00104669
0.00104684
0.00104716
0.0010474
0.00104738
0.00104738
0.0010473
0.00104714
0.00104709
0.00104707
0.00104715
0.00104745
0.00104817
0.00104913
0.00105067
0.00105331
0.00105684
0.00106318
0.00107196
0.00108428
0.00110039
0.00111958
0.00114472
0.00117118
0.00120273
0.00123972
0.00128267
0.00133572
0.00139831
0.00147349
0.00155978
0.00165921
0.00177512
0.00190837
0.00206752
0.00225598
0.00248329
0.00275976
0.00309465
0.00350259
0.00399318
0.00457272
0.00524569
0.00601444
0.00688178
0.00784635
0.00889811
0.0100183
0.0112019
0.0124399
0.0137261
0.0150604
0.0164436
0.0178798
0.0193701
0.0209087
0.0224859
0.0240846
0.0256889
0.0272771
0.0288256
0.0303138
0.0317459
0.0331128
0.0343877
0.0355564
0.0366105
0.0375274
0.0383021
0.0389283
0.0393732
0.0395863
0.0396727
0.0396808
0.0394747
0.0389554
0.0383423
0.0376087
0.0366001
0.0354192
0.0341265
0.0325835
0.0308028
0.0288914
0.026833
0.0245471
0.0221331
0.0195077
0.0168036
0.0140782
0.0114544
0.00892508
0.00672979
0.00484799
0.00347406
0.00283143
0.0012564
0.00125533
0.00125526
0.00125594
0.00125769
0.00125993
0.00126256
0.00126424
0.00126474
0.00126479
0.00126467
0.0012641
0.00126269
0.00126038
0.00125766
0.00125577
0.00125526
0.0012552
0.00125555
0.00125706
0.0012597
0.00126404
0.00127045
0.00127977
0.00129276
0.00131033
0.00133428
0.00136451
0.00140228
0.00144898
0.00150436
0.00156996
0.0016456
0.001731
0.00182148
0.00191417
0.00201657
0.00213636
0.00228186
0.00245403
0.00265452
0.00288678
0.00315483
0.00346864
0.00383771
0.00427794
0.00480706
0.00543956
0.00618485
0.00703929
0.00800418
0.00907352
0.0102409
0.011484
0.0127761
0.0141013
0.0154544
0.0168631
0.0183525
0.0199273
0.0215833
0.0233124
0.0251122
0.0269784
0.0289021
0.0308755
0.0328387
0.034744
0.0366128
0.0384513
0.0402297
0.0419089
0.0434747
0.0449151
0.0462086
0.0473309
0.048284
0.0490646
0.0495593
0.0497753
0.0498474
0.0498044
0.0493279
0.0484082
0.0473179
0.0459781
0.044189
0.0420578
0.0397273
0.0370608
0.0339489
0.0304891
0.02671
0.0224977
0.018102
0.0141646
0.0108139
0.0083276
0.00632831
0.00422068
0.00569007
0.00568343
0.00568307
0.00568861
0.00570293
0.0057203
0.00573889
0.00575553
0.00576196
0.00576337
0.0057629
0.00575924
0.00574845
0.00572709
0.0056973
0.00566287
0.00562793
0.00559587
0.00557084
0.00554727
0.00551956
0.00548635
0.0054476
0.00540462
0.00535977
0.00531336
0.00526464
0.00521151
0.00515973
0.00511234
0.00507091
0.00503597
0.00501815
0.00501191
0.00501079
0.00501597
0.00503789
0.00508259
0.00514757
0.00522579
0.00531209
0.0054044
0.00550455
0.0056183
0.00575976
0.00594975
0.00621012
0.00656011
0.00701245
0.00756464
0.00820331
0.00890843
0.00964508
0.0103998
0.0111832
0.0120228
0.0129516
0.0139874
0.0151402
0.0164284
0.0178667
0.0194479
0.0211532
0.0229459
0.024765
0.0265622
0.0283347
0.0300941
0.0318449
0.0335827
0.0352978
0.0369669
0.0385724
0.0400983
0.0415257
0.0428288
0.0439849
0.0449799
0.0457959
0.0464303
0.0468229
0.0469686
0.0469845
0.046769
0.0461504
0.0451473
0.0437376
0.0418489
0.0394337
0.0364263
0.0327251
0.0286513
0.0247069
0.0208415
0.0170358
0.0134754
0.0108162
0.00899209
0.00770593
0.00648044
0.0324963
0.0324916
0.0324815
0.0324762
0.0324751
0.0324752
0.0324763
0.0324791
0.0324834
0.0324886
0.0324939
0.0324994
0.0325054
0.0325128
0.0325213
0.0325263
0.0325272
0.0325248
0.0325161
0.032498
0.0324701
0.0324361
0.0323969
0.0323489
0.032289
0.0322163
0.0321275
0.0320159
0.0318799
0.0317216
0.0315406
0.0313303
0.0310863
0.0308077
0.0304887
0.0301263
0.0297185
0.0292624
0.0287593
0.0282078
0.027609
0.0269673
0.0262856
0.0255679
0.02482
0.0240492
0.0232607
0.0224635
0.0216701
0.0208891
0.0201253
0.0193816
0.0186697
0.0179964
0.0173616
0.01677
0.0162268
0.0157371
0.0153057
0.0149244
0.0145852
0.014293
0.0140507
0.0138579
0.0137548
0.0137333
0.0137482
0.0138006
0.0138878
0.0140023
0.0141368
0.0142844
0.0144386
0.0145933
0.0147422
0.0148779
0.0149947
0.0150695
0.015088
0.0150762
0.0150138
0.0148739
0.0146774
0.0144512
0.0141565
0.013742
0.0131842
0.0124514
0.0114817
0.0101964
0.00851311
0.00654739
0.00475987
0.00325272
0.00211509
0.001508
0.00167986
0.00390359
0.00644946
0.00730979
0.00623581
0.00160439
0.00140078
0.00132845
0.00130283
0.00127782
0.00124901
0.0012402
0.00123657
0.00123738
0.00125578
0.00128515
0.00133039
0.00134797
0.00137182
0.00140417
0.00158964
0.00223039
0.00373701
0.00570442
0.00431522
0.00162795
0.00145793
0.00139141
0.00136358
0.00132859
0.0013148
0.00130987
0.00130883
0.00131609
0.00132871
0.00136799
0.00139643
0.00143322
0.00146142
0.00151713
0.00176092
0.00243261
0.00383869
0.00527605
0.00287719
0.00168926
0.00157471
0.00152063
0.00146376
0.0014345
0.00141219
0.00140196
0.00139777
0.00140042
0.00143363
0.00146459
0.00150627
0.00152534
0.00154564
0.00162915
0.00194844
0.00267789
0.00384253
0.00479947
0.00241385
0.00182088
0.00173068
0.00162677
0.0015794
0.00153874
0.00152259
0.00151669
0.0015229
0.0015522
0.00156456
0.00159283
0.00160726
0.00162773
0.00167983
0.00184808
0.00223248
0.00287145
0.00379883
0.00427896
0.00238233
0.00199183
0.00190753
0.0018082
0.00177317
0.0017516
0.00174842
0.0017559
0.00176865
0.00177042
0.00175061
0.00175684
0.00178591
0.00182627
0.00192165
0.00212577
0.0025229
0.00314692
0.0036361
0.00370288
0.00248396
0.00225957
0.00219121
0.00212211
0.00210303
0.00209484
0.00210706
0.00211782
0.00212332
0.00210352
0.00206793
0.00206625
0.0020944
0.00214384
0.00226931
0.00254393
0.00289278
0.00319042
0.00331509
0.00308112
0.00295717
0.00288153
0.0028477
0.00283088
0.00285425
0.00287869
0.00291641
0.00292838
0.00292172
0.0028696
0.00281857
0.00281381
0.00286717
0.00289315
0.00298416
0.00302631
0.00308723
0.00310337
0.00288413
0.0024144
0.00504624
0.00518335
0.00534489
0.00556668
0.00574449
0.00581368
0.00581918
0.0055181
0.00499379
0.00473624
0.00430685
0.00409572
0.00377591
0.00362493
0.00335885
0.00320662
0.00304127
0.00283321
0.00227828
0.00171908
0.0117072
0.011342
0.0108075
0.00983277
0.00892452
0.00788606
0.00715708
0.00627959
0.00577762
0.00511412
0.00477552
0.0042673
0.00401456
0.00360912
0.00336427
0.00305383
0.00269188
0.00209585
0.00140797
0.000999107
0.0127758
0.0116944
0.0104245
0.00920321
0.00817069
0.00721044
0.00646519
0.00570989
0.0052029
0.00457671
0.00426247
0.00370171
0.00342506
0.00288432
0.00264084
0.00218125
0.00170521
0.00110851
0.0006715
0.000443993
0.013642
0.0124485
0.0114088
0.00999344
0.00913369
0.00793839
0.00731684
0.0063913
0.00594699
0.00527322
0.00495592
0.00444321
0.00419919
0.00374398
0.00351827
0.00304883
0.00256943
0.00180064
0.00111617
0.00073276
0.00843135
0.00845858
0.00849354
0.00834515
0.008173
0.00769721
0.00706575
0.00635098
0.00582255
0.00521943
0.00490268
0.00445739
0.00424366
0.00391679
0.00375445
0.00349203
0.00331871
0.00291105
0.00211021
0.00149419
0.00368192
0.00366282
0.00365853
0.00367375
0.00374388
0.00379189
0.00390333
0.00396806
0.00398238
0.00382818
0.00365269
0.00356104
0.0035179
0.0035058
0.00349642
0.00349824
0.00343968
0.00337286
0.00294056
0.00227002
0.00262419
0.0025239
0.00246743
0.00242382
0.00241532
0.00241263
0.00243149
0.00244028
0.00244406
0.00241666
0.00238679
0.00238505
0.00243963
0.00256897
0.00283299
0.00310289
0.00342724
0.00356371
0.00352116
0.00302554
0.00235119
0.00211788
0.00204166
0.00195453
0.00192671
0.00191217
0.00191012
0.00191317
0.00192091
0.00191528
0.00189494
0.00191174
0.00195273
0.00202756
0.00218304
0.00249912
0.00301387
0.00363852
0.00392339
0.00373956
0.00229785
0.0019266
0.00183932
0.00172573
0.0016846
0.00165649
0.00165032
0.00164952
0.00166314
0.00166885
0.0016635
0.00168982
0.00171977
0.00177095
0.00187857
0.00212802
0.00260779
0.00339389
0.00421963
0.00441005
0.00236719
0.00177469
0.0016956
0.00158285
0.00152876
0.00148318
0.00146532
0.00145889
0.00145833
0.00147523
0.0014961
0.0015316
0.00157328
0.00159543
0.00164501
0.0018285
0.00230264
0.00315679
0.00435124
0.00502128
0.00301651
0.0016506
0.00154162
0.00150009
0.001433
0.00139717
0.0013741
0.00136518
0.0013624
0.00136597
0.00138592
0.00142162
0.001466
0.00150938
0.00153101
0.00163115
0.00197329
0.00285765
0.00437821
0.00558333
0.00476682
0.00160446
0.0014283
0.00137119
0.00135672
0.00131162
0.00128628
0.00127424
0.00127101
0.00127482
0.0012877
0.00132151
0.00136035
0.00139865
0.00143062
0.00151303
0.00180312
0.00261064
0.004305
0.00609265
0.00692241
0.00159514
0.00137525
0.00129967
0.0012752
0.00127175
0.00124486
0.00122935
0.00122394
0.00122189
0.00123014
0.00125295
0.00129684
0.00134434
0.00136335
0.00139799
0.00159633
0.00235121
0.00420242
0.00655608
0.00397337
0.00375028
0.00374683
0.00374682
0.00374653
0.00374628
0.00374612
0.00374604
0.003746
0.00374598
0.00374598
0.003746
0.00374604
0.00374612
0.00374628
0.00374653
0.00374682
0.00374683
0.00375028
0.00397336
0.00441999
0.00375368
0.00374134
0.00374088
0.00374051
0.00374009
0.00373986
0.00373974
0.00373968
0.00373965
0.00373965
0.00373968
0.00373974
0.00373986
0.00374009
0.00374051
0.00374088
0.00374135
0.00375369
0.00441999
0.00484649
0.00376007
0.00373277
0.00373259
0.00373282
0.00373273
0.00373255
0.00373242
0.00373234
0.00373231
0.00373231
0.00373234
0.00373242
0.00373255
0.00373272
0.00373282
0.00373258
0.00373274
0.00376001
0.00484651
0.00529254
0.00377214
0.00372457
0.00372414
0.00372503
0.0037253
0.00372528
0.0037252
0.00372514
0.00372511
0.00372511
0.00372514
0.0037252
0.00372528
0.0037253
0.00372503
0.00372415
0.0037246
0.00377221
0.00529251
0.00575896
0.00378568
0.00371538
0.0037148
0.00371666
0.00371758
0.00371788
0.00371793
0.00371793
0.00371792
0.00371792
0.00371793
0.00371793
0.00371788
0.00371758
0.00371666
0.0037148
0.00371538
0.00378568
0.00575899
0.00618714
0.00379685
0.00370514
0.00370479
0.00370784
0.00370959
0.00371036
0.00371064
0.00371072
0.00371074
0.00371074
0.00371072
0.00371063
0.00371035
0.00370958
0.00370783
0.00370478
0.00370511
0.00379678
0.00618716
0.00657252
0.00380893
0.00369541
0.0036949
0.00369898
0.00370154
0.0037028
0.00370334
0.00370354
0.0037036
0.0037036
0.00370354
0.00370334
0.00370279
0.00370153
0.00369897
0.0036949
0.00369542
0.00380897
0.00657254
0.00697371
0.00381902
0.00368412
0.00368428
0.00368974
0.00369327
0.00369512
0.00369599
0.00369634
0.00369646
0.00369646
0.00369634
0.00369598
0.00369512
0.00369326
0.00368974
0.00368429
0.00368413
0.00381898
0.0069737
0.00740361
0.00382241
0.00366904
0.00367188
0.00367958
0.00368446
0.00368712
0.00368843
0.00368901
0.00368922
0.00368922
0.00368901
0.00368842
0.00368711
0.00368445
0.00367957
0.00367187
0.00366901
0.00382228
0.00740366
0.00780298
0.0038245
0.00365232
0.00365834
0.00366865
0.00367513
0.00367876
0.00368063
0.00368152
0.00368185
0.00368184
0.00368149
0.0036806
0.00367871
0.00367509
0.00366861
0.0036583
0.00365228
0.00382445
0.00780307
0.00813064
0.00382786
0.00363617
0.00364482
0.00365756
0.0036656
0.0036702
0.00367267
0.00367388
0.00367435
0.00367433
0.00367384
0.00367261
0.00367013
0.00366552
0.00365748
0.00364472
0.00363602
0.00382752
0.00813081
0.00841957
0.00382857
0.00362018
0.00363148
0.00364656
0.00365608
0.00366162
0.00366466
0.00366618
0.0036668
0.00366679
0.00366616
0.00366462
0.00366157
0.00365603
0.00364651
0.00363143
0.00362002
0.00382793
0.00841987
0.00872453
0.00382773
0.00360272
0.00361751
0.00363531
0.0036465
0.00365306
0.00365672
0.00365861
0.00365939
0.00365938
0.00365858
0.00365669
0.00365302
0.00364647
0.00363529
0.00361747
0.00360258
0.00382699
0.00872496
0.00904836
0.0038243
0.00358147
0.00360139
0.00362287
0.00363622
0.00364405
0.00364844
0.0036507
0.00365162
0.00365158
0.0036506
0.00364831
0.00364391
0.00363611
0.0036228
0.0036013
0.00358121
0.0038233
0.00904905
0.00934242
0.00381448
0.00355592
0.00358303
0.00360914
0.003625
0.00363411
0.00363902
0.00364137
0.00364225
0.0036422
0.00364122
0.00363873
0.00363374
0.00362461
0.00360878
0.00358267
0.00355535
0.00381284
0.00934348
0.00956543
0.00379681
0.00352952
0.00356414
0.0035949
0.00361333
0.00362375
0.00362926
0.00363197
0.00363302
0.00363288
0.00363163
0.00362883
0.00362321
0.0036127
0.00359429
0.00356354
0.00352869
0.00379462
0.0095672
0.00972732
0.00378384
0.00350638
0.00354685
0.00358175
0.00360293
0.00361569
0.00362382
0.00362842
0.00363012
0.00362993
0.00362769