/*--------------------------------*- C++ -*----------------------------------*\
| =========                 |                                                 |
| \\      /  F ield         | OpenFOAM: The Open Source CFD Toolbox           |
|  \\    /   O peration     | Version:  2.1.0                                 |
|   \\  /    A nd           | Web:      www.OpenFOAM.org                      |
|    \\/     M anipulation  |                                                 |
\*---------------------------------------------------------------------------*/
FoamFile
{
    version     2.0;
    format      ascii;
    class       volScalarField;
    location    "0.06";
    object      nut;
}
// * * * * * * * * * * * * * * * * * * * * * * * * * * * * * * * * * * * * * //

dimensions      [0 2 -1 0 0 0 0];

internalField   nonuniform List<scalar> 
6400
(
5.82351e-06
5.82563e-06
5.82547e-06
5.82656e-06
5.82659e-06
5.82658e-06
5.82649e-06
5.82592e-06
5.82502e-06
5.82391e-06
5.82293e-06
5.8223e-06
5.822e-06
5.82196e-06
5.82221e-06
5.82269e-06
5.82333e-06
5.8242e-06
5.82511e-06
5.82577e-06
5.82641e-06
5.82713e-06
5.82764e-06
5.82756e-06
5.82656e-06
5.82422e-06
5.82061e-06
5.81519e-06
5.80757e-06
5.79797e-06
5.78564e-06
5.76985e-06
5.75028e-06
5.72635e-06
5.69761e-06
5.664e-06
5.62466e-06
5.57891e-06
5.5269e-06
5.46854e-06
5.4038e-06
5.33255e-06
5.25525e-06
5.17255e-06
5.0849e-06
4.99306e-06
4.89811e-06
4.80165e-06
4.70517e-06
4.61061e-06
4.51847e-06
4.4295e-06
4.34656e-06
4.27073e-06
4.20272e-06
4.14362e-06
4.09519e-06
4.05933e-06
4.03711e-06
4.02615e-06
4.02623e-06
4.03901e-06
4.06654e-06
4.11214e-06
4.17881e-06
4.26941e-06
4.37417e-06
4.49238e-06
4.62342e-06
4.76541e-06
4.91667e-06
5.07553e-06
5.24088e-06
5.41258e-06
5.58724e-06
5.75563e-06
5.92412e-06
6.08969e-06
6.25086e-06
6.40076e-06
6.53706e-06
6.67409e-06
6.81987e-06
6.9644e-06
7.09764e-06
7.20874e-06
7.29189e-06
7.3436e-06
7.342e-06
7.2491e-06
7.00466e-06
6.50674e-06
5.59879e-06
4.19368e-06
2.36072e-06
1.44947e-06
1.51356e-06
2.66785e-06
2.73995e-06
2.96958e-06
7.63711e-06
7.59302e-06
7.57239e-06
7.52736e-06
7.49674e-06
7.47985e-06
7.47565e-06
7.47408e-06
7.47256e-06
7.47036e-06
7.46831e-06
7.46647e-06
7.46498e-06
7.46347e-06
7.46163e-06
7.45889e-06
7.45468e-06
7.44828e-06
7.43905e-06
7.42594e-06
7.40896e-06
7.38926e-06
7.3665e-06
7.34135e-06
7.31561e-06
7.29005e-06
7.26671e-06
7.2478e-06
7.23587e-06
7.23397e-06
7.24501e-06
7.27326e-06
7.33429e-06
7.41653e-06
7.5122e-06
7.62728e-06
7.7818e-06
7.93412e-06
8.07949e-06
8.23715e-06
8.39894e-06
8.56051e-06
8.72296e-06
8.89578e-06
9.10213e-06
9.37432e-06
9.74384e-06
1.0235e-05
1.08562e-05
1.15921e-05
1.24156e-05
1.3283e-05
1.41395e-05
1.49716e-05
1.57994e-05
1.66624e-05
1.75992e-05
1.86219e-05
1.9739e-05
2.09688e-05
2.23076e-05
2.37295e-05
2.51914e-05
2.662e-05
2.7947e-05
2.91691e-05
3.02961e-05
3.13313e-05
3.22724e-05
3.31104e-05
3.3833e-05
3.44286e-05
3.48931e-05
3.5217e-05
3.53885e-05
3.5394e-05
3.52256e-05
3.4882e-05
3.4401e-05
3.36898e-05
3.2841e-05
3.19238e-05
3.0859e-05
2.96095e-05
2.81982e-05
2.66588e-05
2.49772e-05
2.3114e-05
2.10788e-05
1.89116e-05
1.67004e-05
1.45341e-05
1.244e-05
1.04585e-05
8.56716e-06
6.84457e-06
5.52232e-06
4.46779e-06
3.92476e-06
4.73036e-06
5.69452e-06
5.69808e-06
5.69984e-06
5.70451e-06
5.71167e-06
5.72111e-06
5.72561e-06
5.72797e-06
5.73051e-06
5.73328e-06
5.73626e-06
5.73881e-06
5.74091e-06
5.74334e-06
5.7475e-06
5.75482e-06
5.76644e-06
5.78534e-06
5.81497e-06
5.85637e-06
5.91037e-06
5.97878e-06
6.06599e-06
6.17371e-06
6.30622e-06
6.46879e-06
6.66281e-06
6.89673e-06
7.16412e-06
7.47384e-06
7.83778e-06
8.262e-06
8.74685e-06
9.26556e-06
9.29099e-06
9.24083e-06
9.20414e-06
9.21672e-06
9.29818e-06
9.43687e-06
9.63248e-06
9.88279e-06
1.01998e-05
1.06016e-05
1.11068e-05
1.17427e-05
1.25241e-05
1.34612e-05
1.45424e-05
1.575e-05
1.70559e-05
1.84301e-05
1.98428e-05
2.12382e-05
2.25737e-05
2.38251e-05
2.50108e-05
2.61834e-05
2.73755e-05
2.85882e-05
2.9811e-05
3.10372e-05
3.22631e-05
3.34831e-05
3.46764e-05
3.57628e-05
3.67052e-05
3.75336e-05
3.82561e-05
3.88446e-05
3.92739e-05
3.95377e-05
3.96371e-05
3.95627e-05
3.93191e-05
3.89152e-05
3.83183e-05
3.7481e-05
3.65426e-05
3.55608e-05
3.44256e-05
3.30259e-05
3.15561e-05
3.00846e-05
2.84974e-05
2.6809e-05
2.51503e-05
2.35165e-05
2.18381e-05
2.01573e-05
1.85088e-05
1.68908e-05
1.51992e-05
1.34395e-05
1.16428e-05
9.81405e-06
8.08402e-06
6.53311e-06
5.76837e-06
6.83256e-06
2.24505e-05
2.27008e-05
2.28201e-05
2.30344e-05
2.31834e-05
2.3251e-05
2.3263e-05
2.32898e-05
2.33042e-05
2.33093e-05
2.33103e-05
2.33118e-05
2.33117e-05
2.33179e-05
2.33184e-05
2.33273e-05
2.3346e-05
2.34091e-05
2.3512e-05
2.36885e-05
2.39157e-05
2.42033e-05
2.45625e-05
2.50225e-05
2.46511e-05
2.62424e-05
2.65603e-05
1.91652e-05
1.91114e-05
1.64665e-05
1.51937e-05
1.39986e-05
1.30595e-05
1.22986e-05
1.17037e-05
1.12376e-05
1.08938e-05
1.06592e-05
1.05435e-05
1.05426e-05
1.06842e-05
1.09717e-05
1.14295e-05
1.20595e-05
1.28515e-05
1.37906e-05
1.48551e-05
1.60269e-05
1.72843e-05
1.85892e-05
1.9911e-05
2.12203e-05
2.24983e-05
2.37331e-05
2.49216e-05
2.60651e-05
2.71734e-05
2.82531e-05
2.93071e-05
3.03279e-05
3.13e-05
3.22067e-05
3.30302e-05
3.37533e-05
3.43654e-05
3.48832e-05
3.53025e-05
3.56064e-05
3.57936e-05
3.58627e-05
3.58058e-05
3.56293e-05
3.53361e-05
3.48785e-05
3.43373e-05
3.37727e-05
3.31396e-05
3.23103e-05
3.14454e-05
3.05878e-05
2.9607e-05
2.85554e-05
2.75175e-05
2.64039e-05
2.52026e-05
2.4013e-05
2.2783e-05
2.147e-05
2.01544e-05
1.87566e-05
1.73353e-05
1.58631e-05
1.43459e-05
1.27582e-05
1.11226e-05
9.53788e-06
8.13284e-06
7.30882e-06
6.41719e-06
5.93664e-06
6.43738e-05
6.48701e-05
6.53609e-05
6.58622e-05
6.61101e-05
6.60992e-05
6.61662e-05
6.62073e-05
6.61624e-05
6.61818e-05
6.62054e-05
5.07582e-05
6.62199e-05
6.6157e-05
6.64072e-05
6.64464e-05
6.64523e-05
6.6577e-05
6.70954e-05
6.76406e-05
6.83251e-05
6.31881e-05
7.05917e-05
7.30075e-05
3.22146e-05
6.79061e-05
3.10559e-05
3.18475e-05
2.63487e-05
2.12278e-05
1.89866e-05
1.68307e-05
1.52539e-05
1.4037e-05
1.31131e-05
1.24199e-05
1.1923e-05
1.15925e-05
1.14144e-05
1.14123e-05
1.16355e-05
1.20953e-05
1.28034e-05
1.37024e-05
1.47288e-05
1.58242e-05
1.69493e-05
1.80768e-05
1.91903e-05
2.02729e-05
2.13114e-05
2.22873e-05
2.3203e-05
2.40677e-05
2.48959e-05
2.56997e-05
2.64804e-05
2.72299e-05
2.79399e-05
2.86043e-05
2.92183e-05
2.97757e-05
3.02678e-05
3.06857e-05
3.10254e-05
3.12896e-05
3.14819e-05
3.15911e-05
3.16095e-05
3.1521e-05
3.13435e-05
3.11275e-05
3.08653e-05
3.04524e-05
2.99749e-05
2.94669e-05
2.88382e-05
2.81081e-05
2.73542e-05
2.65528e-05
2.56239e-05
2.46511e-05
2.35871e-05
2.20641e-05
2.06928e-05
1.93794e-05
1.81179e-05
1.68899e-05
1.55973e-05
1.41845e-05
1.2979e-05
1.20538e-05
1.0965e-05
1.00051e-05
8.90764e-06
7.81596e-06
7.19103e-06
6.67853e-06
6.50976e-06
6.54109e-06
0.000117904
8.39771e-05
6.53542e-05
0.000134959
6.03205e-05
0.000136113
2.3646e-05
0.000136285
8.11056e-05
0.000114176
5.50462e-05
0.000126654
6.02569e-05
6.54489e-05
5.92474e-05
6.48856e-05
0.000135496
7.52197e-05
6.87369e-05
9.5789e-05
7.84469e-05
0.000140546
7.50673e-05
3.58268e-05
0.00015878
6.92454e-05
2.55359e-05
8.14784e-05
2.66983e-05
2.59186e-05
2.25812e-05
1.95866e-05
1.75821e-05
1.60167e-05
1.48056e-05
1.38995e-05
1.32144e-05
1.27398e-05
1.24672e-05
1.24902e-05
1.29159e-05
1.36767e-05
1.46787e-05
1.57566e-05
1.68034e-05
1.77722e-05
1.86901e-05
1.95927e-05
2.04981e-05
2.13714e-05
2.21699e-05
2.28649e-05
2.34654e-05
2.39995e-05
2.44998e-05
2.49876e-05
2.54605e-05
2.59034e-05
2.63007e-05
2.66518e-05
2.69573e-05
2.72158e-05
2.74241e-05
2.75709e-05
2.76396e-05
2.76405e-05
2.75766e-05
2.71585e-05
2.66021e-05
2.59564e-05
2.53561e-05
2.4706e-05
2.39654e-05
2.32058e-05
2.24321e-05
2.1597e-05
2.0772e-05
1.99482e-05
1.91116e-05
1.82743e-05
1.74386e-05
1.66195e-05
1.58062e-05
1.50181e-05
1.42821e-05
1.3557e-05
1.28457e-05
1.21581e-05
1.14814e-05
1.08431e-05
1.02519e-05
9.67619e-06
9.10823e-06
8.60852e-06
8.09982e-06
7.68219e-06
7.40918e-06
7.27659e-06
7.25068e-06
7.42626e-06
0.00011414
4.966e-05
0.00019032
3.20921e-05
0.000221023
6.49052e-05
4.07278e-05
5.94063e-05
0.000223146
4.85338e-05
9.05435e-05
5.45071e-05
2.51589e-05
6.99396e-05
0.000139485
6.08969e-05
7.33229e-05
4.69205e-05
9.82569e-05
3.85934e-05
4.16998e-05
9.0355e-05
0.000133662
2.42575e-05
3.76604e-05
2.8552e-05
3.45215e-05
0.000109909
2.4243e-05
3.32363e-05
2.64685e-05
2.32651e-05
2.10155e-05
1.90812e-05
1.755e-05
1.63474e-05
1.5418e-05
1.46983e-05
1.4366e-05
1.46045e-05
1.54286e-05
1.464e-05
1.43635e-05
1.45763e-05
1.52815e-05
1.64305e-05
1.78923e-05
1.94562e-05
2.08856e-05
2.20134e-05
2.28119e-05
2.338e-05
2.38445e-05
2.42892e-05
2.47043e-05
2.50235e-05
2.51982e-05
2.52396e-05
2.5187e-05
2.50576e-05
2.48375e-05
2.45293e-05
2.41925e-05
2.38589e-05
2.34365e-05
2.29126e-05
2.24006e-05
2.18764e-05
2.12844e-05
2.06762e-05
2.009e-05
1.94774e-05
1.88434e-05
1.82369e-05
1.76458e-05
1.70295e-05
1.64283e-05
1.58656e-05
1.53053e-05
1.47511e-05
1.42387e-05
1.37448e-05
1.32618e-05
1.28065e-05
1.23739e-05
1.19469e-05
1.15306e-05
1.114e-05
1.07555e-05
1.03817e-05
1.00279e-05
9.69358e-06
9.38137e-06
9.09521e-06
8.85824e-06
8.68468e-06
8.57464e-06
8.5456e-06
8.89533e-06
9.14189e-06
6.3547e-05
0.000131663
4.87872e-05
1.81833e-05
4.16108e-05
3.34405e-05
5.16917e-05
3.38395e-05
0.00025159
0.000179873
5.51344e-05
5.23594e-05
5.84357e-05
4.54056e-05
6.73921e-05
0.00020286
7.1574e-05
0.000122175
4.06757e-05
4.91457e-05
5.12466e-05
6.63573e-05
3.6231e-05
5.23061e-05
9.28896e-05
2.18172e-05
7.54783e-05
4.85068e-05
2.84987e-05
4.34166e-05
3.07322e-05
2.86525e-05
2.61355e-05
2.3852e-05
2.1959e-05
2.04415e-05
1.91087e-05
1.81152e-05
1.79809e-05
1.56827e-05
1.41271e-05
1.32757e-05
1.30621e-05
1.3441e-05
1.43535e-05
1.56782e-05
1.72201e-05
1.87415e-05
2.00512e-05
2.10786e-05
2.18735e-05
2.25497e-05
2.31897e-05
2.37941e-05
2.43003e-05
2.46531e-05
2.48502e-05
2.49279e-05
2.49302e-05
2.48279e-05
2.46017e-05
2.43305e-05
2.40516e-05
2.3775e-05
2.34567e-05
2.30843e-05
2.26909e-05
2.23018e-05
2.19144e-05
2.15254e-05
2.11346e-05
2.07412e-05
2.03549e-05
1.9987e-05
1.96335e-05
1.9286e-05
1.89492e-05
1.86261e-05
1.83124e-05
1.80081e-05
1.7711e-05
1.74208e-05
1.71327e-05
1.68483e-05
1.65628e-05
1.62747e-05
1.59829e-05
1.56798e-05
1.53639e-05
1.50375e-05
1.47015e-05
1.43591e-05
1.40178e-05
1.36893e-05
1.34256e-05
1.3214e-05
1.31287e-05
1.33211e-05
1.38864e-05
1.42893e-05
0.000106331
7.22052e-05
3.38195e-05
9.6783e-05
4.62687e-05
3.83578e-05
0.000109623
5.26197e-05
7.46593e-05
5.86245e-05
5.81726e-05
5.97132e-05
3.48828e-05
8.6476e-05
0.000155428
0.000177969
8.75953e-05
8.58307e-05
6.01672e-05
4.79389e-05
5.61222e-05
8.48326e-05
3.91503e-05
7.03559e-05
3.81781e-05
3.75062e-05
8.64928e-05
3.295e-05
4.55322e-05
5.13359e-05
3.74608e-05
3.62861e-05
3.31412e-05
3.06117e-05
2.84002e-05
2.65522e-05
2.46065e-05
2.08122e-05
1.71302e-05
1.46772e-05
1.31642e-05
1.24216e-05
1.23542e-05
1.28874e-05
1.39366e-05
1.53577e-05
1.69446e-05
1.84723e-05
1.9794e-05
2.08923e-05
2.1862e-05
2.28089e-05
2.37728e-05
2.47001e-05
2.55065e-05
2.61476e-05
2.66453e-05
2.70506e-05
2.73851e-05
2.763e-05
2.77738e-05
2.78317e-05
2.78443e-05
2.78355e-05
2.7804e-05
2.77364e-05
2.76424e-05
2.75396e-05
2.74287e-05
2.73043e-05
2.7168e-05
2.70307e-05
2.69032e-05
2.67889e-05
2.66863e-05
2.65989e-05
2.65305e-05
2.64819e-05
2.64518e-05
2.6441e-05
2.64487e-05
2.64704e-05
2.65039e-05
2.65498e-05
2.66102e-05
2.66861e-05
2.67733e-05
2.68667e-05
2.69598e-05
2.70521e-05
2.71414e-05
2.72331e-05
2.73295e-05
2.74422e-05
2.75835e-05
2.77886e-05
2.81402e-05
2.86758e-05
2.93961e-05
2.71018e-05
7.94049e-05
0.000323536
3.24819e-05
2.06121e-05
6.2314e-05
6.90112e-05
0.000130598
8.21581e-05
5.1145e-05
8.39463e-05
0.000109732
7.07233e-05
9.34288e-05
0.000262187
8.5381e-05
0.000156262
0.000195944
5.97125e-05
3.33871e-05
5.72866e-05
6.11521e-05
4.20197e-05
9.90871e-05
5.93673e-05
2.98849e-05
3.55276e-05
7.33127e-05
4.69396e-05
5.39504e-05
5.24493e-05
4.40179e-05
4.21615e-05
3.93599e-05
3.67876e-05
3.45879e-05
3.24234e-05
2.57655e-05
2.03024e-05
1.66093e-05
1.41815e-05
1.27211e-05
1.20443e-05
1.20451e-05
1.2644e-05
1.37485e-05
1.52083e-05
1.68157e-05
1.83553e-05
1.9705e-05
2.08723e-05
2.19675e-05
2.30881e-05
2.4251e-05
2.53812e-05
2.63865e-05
2.7227e-05
2.79342e-05
2.85535e-05
2.90908e-05
2.95203e-05
2.98338e-05
3.00545e-05
3.02223e-05
3.03585e-05
3.04603e-05
3.05202e-05
3.05466e-05
3.05503e-05
3.05296e-05
3.04777e-05
3.03983e-05
3.03046e-05
3.02074e-05
3.01095e-05
3.00149e-05
2.99287e-05
2.98572e-05
2.98043e-05
2.9772e-05
2.97608e-05
2.97677e-05
2.97858e-05
2.98116e-05
2.98488e-05
2.99052e-05
2.9985e-05
3.00876e-05
3.02086e-05
3.03437e-05
3.04875e-05
3.06407e-05
3.0803e-05
3.09752e-05
3.11573e-05
3.13497e-05
3.15488e-05
3.17257e-05
3.16776e-05
3.13635e-05
3.08806e-05
6.04943e-05
7.43669e-05
9.59155e-05
2.84323e-05
3.55135e-05
6.13017e-05
0.000134013
8.18338e-05
4.51125e-05
5.21247e-05
8.99436e-05
7.68344e-05
6.43706e-05
7.2051e-05
7.01477e-05
0.000123801
8.68271e-05
5.857e-05
6.69312e-05
5.3901e-05
3.13578e-05
0.000101295
0.000112435
3.71598e-05
4.93943e-05
3.78216e-05
4.56541e-05
8.92215e-05
3.98488e-05
5.1639e-05
4.55102e-05
3.94549e-05
3.79413e-05
3.542e-05
3.31552e-05
3.11252e-05
2.58973e-05
2.04352e-05
1.67318e-05
1.42877e-05
1.28058e-05
1.21079e-05
1.20844e-05
1.26605e-05
1.37411e-05
1.51787e-05
1.67658e-05
1.82845e-05
1.96074e-05
2.07383e-05
2.17859e-05
2.28535e-05
2.39632e-05
2.50461e-05
2.60111e-05
2.68153e-05
2.7488e-05
2.80752e-05
2.85863e-05
2.89935e-05
2.92854e-05
2.94836e-05
2.96271e-05
2.97388e-05
2.98168e-05
2.98547e-05
2.98612e-05
2.98484e-05
2.98159e-05
2.97577e-05
2.96783e-05
2.95903e-05
2.95054e-05
2.94277e-05
2.93581e-05
2.93026e-05
2.92661e-05
2.9252e-05
2.92637e-05
2.93034e-05
2.93708e-05
2.94592e-05
2.95638e-05
2.96862e-05
2.98322e-05
3.00062e-05
3.02099e-05
3.04436e-05
3.07076e-05
3.09996e-05
3.1318e-05
3.16607e-05
3.20257e-05
3.24327e-05
3.28778e-05
3.33819e-05
3.39232e-05
3.44444e-05
3.44854e-05
3.44132e-05
6.44516e-05
7.32952e-05
5.63309e-05
0.000147919
5.74637e-05
3.22699e-05
5.63304e-05
3.22897e-05
5.295e-05
0.000116562
5.99204e-05
0.000126624
0.000314566
7.34237e-05
9.24205e-05
0.000157686
0.0001023
5.41782e-05
5.55013e-05
0.000144953
3.69233e-05
6.32235e-05
8.03226e-05
4.78751e-05
4.18701e-05
8.39462e-05
2.20021e-05
9.99939e-05
3.72151e-05
3.77465e-05
4.09102e-05
3.30609e-05
3.0847e-05
2.87544e-05
2.6624e-05
2.49633e-05
2.32722e-05
2.11053e-05
1.74059e-05
1.4918e-05
1.3357e-05
1.25622e-05
1.24363e-05
1.29135e-05
1.39042e-05
1.52698e-05
1.68045e-05
1.82799e-05
1.95382e-05
2.05507e-05
2.14069e-05
2.222e-05
2.30412e-05
2.38328e-05
2.45175e-05
2.50623e-05
2.54782e-05
2.58017e-05
2.60632e-05
2.62533e-05
2.63455e-05
2.63434e-05
2.62857e-05
2.61953e-05
2.60742e-05
2.5914e-05
2.57251e-05
2.55219e-05
2.53044e-05
2.50704e-05
2.48237e-05
2.45716e-05
2.432e-05
2.40713e-05
2.38254e-05
2.35797e-05
2.33388e-05
2.31017e-05
2.28694e-05
2.26404e-05
2.24127e-05
2.21816e-05
2.19419e-05
2.1696e-05
2.14466e-05
2.11954e-05
2.09448e-05
2.07018e-05
2.04684e-05
2.02464e-05
2.00452e-05
1.98794e-05
1.9746e-05
1.96591e-05
1.96636e-05
1.97762e-05
2.01113e-05
2.07351e-05
2.18586e-05
2.19539e-05
0.000130544
0.000281975
3.95043e-05
3.08262e-05
4.04154e-05
5.41353e-05
6.42806e-05
2.02982e-05
3.63458e-05
6.38754e-05
7.50965e-05
8.60218e-05
4.60931e-05
7.65648e-05
8.03295e-05
5.83051e-05
0.000289627
7.2408e-05
4.93706e-05
8.74159e-05
4.59072e-05
5.54102e-05
0.000247423
0.000183337
1.76529e-05
4.53313e-05
2.66871e-05
4.12834e-05
4.60792e-05
2.75923e-05
3.16998e-05
2.71941e-05
2.45378e-05
2.26981e-05
2.09529e-05
1.95833e-05
1.84062e-05
1.75468e-05
1.73966e-05
1.60163e-05
1.44238e-05
1.35124e-05
1.32143e-05
1.34999e-05
1.43131e-05
1.5546e-05
1.70092e-05
1.84641e-05
1.97063e-05
2.06473e-05
2.133e-05
2.1871e-05
2.23708e-05
2.28522e-05
2.32601e-05
2.35248e-05
2.36351e-05
2.36365e-05
2.35609e-05
2.33677e-05
2.31107e-05
2.28291e-05
2.25291e-05
2.21551e-05
2.17121e-05
2.12458e-05
2.07852e-05
2.03197e-05
1.98298e-05
1.93281e-05
1.88408e-05
1.83638e-05
1.78824e-05
1.74086e-05
1.69577e-05
1.65191e-05
1.60828e-05
1.56611e-05
1.52571e-05
1.48598e-05
1.44717e-05
1.40975e-05
1.37331e-05
1.33749e-05
1.30283e-05
1.26979e-05
1.23798e-05
1.20702e-05
1.17768e-05
1.14993e-05
1.12373e-05
1.0996e-05
1.07833e-05
1.06072e-05
1.04732e-05
1.03565e-05
1.04362e-05
1.06329e-05
1.11315e-05
1.13931e-05
7.87665e-05
0.000136711
3.98659e-05
9.07086e-05
2.64849e-05
4.24967e-05
5.43846e-05
5.24491e-05
9.13427e-05
3.67828e-05
0.000100107
0.000104589
6.48446e-05
4.25736e-05
0.000105225
5.9869e-05
6.55214e-05
0.000111748
7.1349e-05
4.32262e-05
6.23621e-05
6.81432e-05
0.000167642
4.49335e-05
3.49629e-05
5.14535e-05
9.27129e-05
2.25518e-05
5.52335e-05
2.53552e-05
2.52429e-05
2.27407e-05
2.02932e-05
1.8587e-05
1.7156e-05
1.60444e-05
1.51737e-05
1.45202e-05
1.41887e-05
1.44142e-05
1.52323e-05
1.49084e-05
1.45699e-05
1.46933e-05
1.52831e-05
1.63063e-05
1.76564e-05
1.91316e-05
2.04961e-05
2.15625e-05
2.22869e-05
2.27519e-05
2.31014e-05
2.34376e-05
2.37747e-05
2.40534e-05
2.42089e-05
2.42469e-05
2.41993e-05
2.40877e-05
2.39318e-05
2.36919e-05
2.33827e-05
2.30579e-05
2.27118e-05
2.22499e-05
2.17471e-05
2.12719e-05
2.07582e-05
2.0182e-05
1.96147e-05
1.90674e-05
1.84869e-05
1.78919e-05
1.73331e-05
1.67781e-05
1.61989e-05
1.56399e-05
1.51144e-05
1.45837e-05
1.40623e-05
1.3562e-05
1.30647e-05
1.25773e-05
1.21079e-05
1.16455e-05
1.11991e-05
1.07744e-05
1.03566e-05
9.95918e-06
9.59664e-06
9.26325e-06
8.9498e-06
8.67987e-06
8.4203e-06
8.23008e-06
8.1378e-06
8.05748e-06
8.34807e-06
8.56298e-06
6.48772e-05
6.88427e-05
0.000134161
3.35511e-05
7.07291e-05
5.63141e-05
3.43569e-05
9.41341e-05
3.12996e-05
0.000100467
0.000132876
5.3547e-05
0.000133967
6.27751e-05
3.22091e-05
7.02709e-05
6.10305e-05
0.000137292
0.000137733
0.000107921
0.000139911
0.000103798
5.94001e-05
7.01899e-05
7.15244e-05
2.27404e-05
0.000150165
2.12461e-05
4.08624e-05
2.52679e-05
2.1773e-05
1.95154e-05
1.74406e-05
1.59379e-05
1.47618e-05
1.3873e-05
1.32127e-05
1.27414e-05
1.24776e-05
1.24829e-05
1.28642e-05
1.35881e-05
1.45474e-05
1.55991e-05
1.66251e-05
1.75725e-05
1.84511e-05
1.93013e-05
2.01509e-05
2.09848e-05
2.17623e-05
2.24521e-05
2.30568e-05
2.35988e-05
2.41169e-05
2.46297e-05
2.51445e-05
2.5638e-05
2.60928e-05
2.65016e-05
2.68645e-05
2.71814e-05
2.74465e-05
2.76584e-05
2.78059e-05
2.78665e-05
2.7865e-05
2.75265e-05
2.71058e-05
2.65405e-05
2.58985e-05
2.53054e-05
2.46626e-05
2.39255e-05
2.31953e-05
2.24331e-05
2.16036e-05
2.0776e-05
1.99828e-05
1.91403e-05
1.83022e-05
1.74967e-05
1.66633e-05
1.58228e-05
1.50232e-05
1.42349e-05
1.34621e-05
1.27376e-05
1.20386e-05
1.13061e-05
1.06102e-05
9.93033e-06
9.28667e-06
8.689e-06
8.14336e-06
7.6396e-06
7.30057e-06
7.16491e-06
7.15132e-06
7.2839e-06
6.54064e-05
6.05198e-05
6.52854e-05
3.53404e-05
6.48698e-05
6.47827e-05
5.44395e-05
6.45321e-05
4.94585e-05
6.44568e-05
6.47108e-05
6.49389e-05
6.5023e-05
6.5455e-05
4.35917e-05
6.63254e-05
6.66842e-05
6.74542e-05
6.78911e-05
6.84751e-05
6.95396e-05
7.02492e-05
6.2751e-05
7.37725e-05
7.66738e-05
3.05573e-05
5.3597e-05
2.91156e-05
2.55425e-05
2.22033e-05
1.90561e-05
1.70349e-05
1.53962e-05
1.41745e-05
1.32301e-05
1.25273e-05
1.20208e-05
1.16756e-05
1.14923e-05
1.14724e-05
1.16603e-05
1.20873e-05
1.27417e-05
1.35932e-05
1.45706e-05
1.56196e-05
1.66978e-05
1.77799e-05
1.88506e-05
1.98924e-05
2.08988e-05
2.18571e-05
2.27669e-05
2.36316e-05
2.44711e-05
2.5295e-05
2.61081e-05
2.69005e-05
2.76623e-05
2.83842e-05
2.9062e-05
2.96898e-05
3.02595e-05
3.07612e-05
3.11869e-05
3.15323e-05
3.18039e-05
3.20016e-05
3.21162e-05
3.21431e-05
3.20792e-05
3.1909e-05
3.16894e-05
3.1442e-05
3.10694e-05
3.05987e-05
3.01092e-05
2.95315e-05
2.88568e-05
2.81309e-05
2.73451e-05
2.65217e-05
2.56373e-05
2.45378e-05
2.29887e-05
2.15094e-05
2.01213e-05
1.87159e-05
1.7468e-05
1.61213e-05
1.47166e-05
1.32954e-05
1.20337e-05
1.07284e-05
9.47246e-06
8.49294e-06
7.4977e-06
6.76882e-06
6.51519e-06
6.50135e-06
2.30256e-05
2.3043e-05
2.30098e-05
2.29272e-05
2.28188e-05
2.26899e-05
2.26127e-05
2.25972e-05
2.25899e-05
2.26092e-05
2.2629e-05
2.26691e-05
2.27626e-05
2.29e-05
2.30706e-05
2.32743e-05
2.34402e-05
2.35999e-05
2.37893e-05
2.40143e-05
2.42919e-05
2.4598e-05
2.49599e-05
2.53989e-05
2.59609e-05
2.66851e-05
2.11783e-05
2.62864e-05
1.76027e-05
1.70737e-05
1.55144e-05
1.42776e-05
1.32813e-05
1.24999e-05
1.18782e-05
1.13935e-05
1.10347e-05
1.07783e-05
1.06462e-05
1.06265e-05
1.07382e-05
1.09978e-05
1.14109e-05
1.19943e-05
1.27384e-05
1.36226e-05
1.46251e-05
1.57254e-05
1.6909e-05
1.81564e-05
1.94361e-05
2.0707e-05
2.1962e-05
2.31883e-05
2.43794e-05
2.55401e-05
2.6675e-05
2.77931e-05
2.88974e-05
2.99819e-05
3.10359e-05
3.20415e-05
3.29844e-05
3.38465e-05
3.46103e-05
3.52638e-05
3.58238e-05
3.62882e-05
3.66394e-05
3.6872e-05
3.6988e-05
3.69771e-05
3.68463e-05
3.66015e-05
3.62269e-05
3.56964e-05
3.51061e-05
3.44978e-05
3.37783e-05
3.2893e-05
3.20039e-05
3.10942e-05
3.00705e-05
2.90044e-05
2.79344e-05
2.67773e-05
2.55284e-05
2.42761e-05
2.29908e-05
2.15605e-05
2.00874e-05
1.84308e-05
1.66711e-05
1.47816e-05
1.28857e-05
1.09455e-05
9.21296e-06
8.03539e-06
6.8264e-06
6.25769e-06
5.71077e-06
5.70925e-06
5.70701e-06
5.70103e-06
5.69491e-06
5.68942e-06
5.69077e-06
5.69489e-06
5.69626e-06
5.69691e-06
5.69869e-06
5.70193e-06
5.70732e-06
5.71576e-06
5.72758e-06
5.7474e-06
5.77539e-06
5.80791e-06
5.84257e-06
5.88661e-06
5.94213e-06
6.00931e-06
6.09025e-06
6.19095e-06
6.31599e-06
6.46851e-06
6.65611e-06
6.88334e-06
7.14815e-06
7.45214e-06
7.80932e-06
8.22969e-06
8.71055e-06
9.23765e-06
9.3739e-06
9.32914e-06
9.29143e-06
9.29287e-06
9.36204e-06
9.49068e-06
9.67435e-06
9.91477e-06
1.02138e-05
1.05908e-05
1.1059e-05
1.1645e-05
1.23731e-05
1.32538e-05
1.42834e-05
1.54303e-05
1.66794e-05
1.80029e-05
1.93779e-05
2.0756e-05
2.20893e-05
2.33559e-05
2.45549e-05
2.57368e-05
2.69419e-05
2.81758e-05
2.94314e-05
3.06972e-05
3.19702e-05
3.32449e-05
3.45099e-05
3.57556e-05
3.69127e-05
3.79318e-05
3.88425e-05
3.96548e-05
4.03416e-05
4.08689e-05
4.12302e-05
4.14227e-05
4.14358e-05
4.12587e-05
4.0906e-05
4.03874e-05
3.96252e-05
3.86467e-05
3.75748e-05
3.6442e-05
3.50358e-05
3.33855e-05
3.17038e-05
2.99603e-05
2.80629e-05
2.61162e-05
2.42281e-05
2.23437e-05
2.04002e-05
1.84578e-05
1.65575e-05
1.45037e-05
1.24706e-05
1.05571e-05
8.78053e-06
7.29839e-06
6.4005e-06
7.37438e-06
7.51177e-06
7.50807e-06
7.50881e-06
7.51637e-06
7.53427e-06
7.55455e-06
7.57669e-06
7.59709e-06
7.60494e-06
7.60666e-06
7.60622e-06
7.60211e-06
7.58992e-06
7.56594e-06
7.53215e-06
7.49321e-06
7.45508e-06
7.42312e-06
7.40227e-06
7.38653e-06
7.36861e-06
7.34507e-06
7.31606e-06
7.28459e-06
7.25493e-06
7.22763e-06
7.20273e-06
7.17941e-06
7.16342e-06
7.15686e-06
7.16325e-06
7.18606e-06
7.24106e-06
7.32019e-06
7.41539e-06
7.52698e-06
7.67341e-06
7.86814e-06
8.0151e-06
8.17758e-06
8.34613e-06
8.51502e-06
8.68407e-06
8.85945e-06
9.06065e-06
9.31803e-06
9.66302e-06
1.01216e-05
1.07079e-05
1.14112e-05
1.22035e-05
1.3048e-05
1.3888e-05
1.47016e-05
1.55026e-05
1.6328e-05
1.722e-05
1.81975e-05
1.92686e-05
2.04505e-05
2.17543e-05
2.3164e-05
2.46505e-05
2.61658e-05
2.76377e-05
2.90127e-05
3.0291e-05
3.14878e-05
3.26103e-05
3.36558e-05
3.46159e-05
3.54698e-05
3.62027e-05
3.68026e-05
3.72553e-05
3.75411e-05
3.76452e-05
3.75625e-05
3.72858e-05
3.68228e-05
3.61375e-05
3.52412e-05
3.42354e-05
3.3058e-05
3.16091e-05
2.99318e-05
2.80452e-05
2.59447e-05
2.36526e-05
2.11894e-05
1.85541e-05
1.59523e-05
1.3622e-05
1.1455e-05
9.40491e-06
7.51911e-06
6.06764e-06
5.03706e-06
4.36294e-06
4.88514e-06
5.8266e-06
5.82489e-06
5.82219e-06
5.82096e-06
5.82048e-06
5.82009e-06
5.81997e-06
5.82024e-06
5.82079e-06
5.82147e-06
5.8222e-06
5.82302e-06
5.82398e-06
5.82544e-06
5.82757e-06
5.82944e-06
5.83082e-06
5.8321e-06
5.83291e-06
5.83293e-06
5.83233e-06
5.83182e-06
5.83134e-06
5.83012e-06
5.82797e-06
5.82514e-06
5.82117e-06
5.81519e-06
5.8068e-06
5.79628e-06
5.78363e-06
5.76778e-06
5.74809e-06
5.72457e-06
5.69622e-06
5.66257e-06
5.62328e-06
5.57769e-06
5.52591e-06
5.46746e-06
5.40225e-06
5.33083e-06
5.25331e-06
5.17008e-06
5.0818e-06
4.98944e-06
4.89361e-06
4.79564e-06
4.69782e-06
4.60159e-06
4.50779e-06
4.41682e-06
4.33129e-06
4.2528e-06
4.18151e-06
4.11873e-06
4.06609e-06
4.02533e-06
3.9982e-06
3.98326e-06
3.97897e-06
3.98725e-06
4.00972e-06
4.04717e-06
4.11267e-06
4.20585e-06
4.31461e-06
4.44061e-06
4.58444e-06
4.74519e-06
4.92193e-06
5.11388e-06
5.32049e-06
5.54137e-06
5.77612e-06
6.02407e-06
6.28527e-06
6.55258e-06
6.82167e-06
7.10664e-06
7.40145e-06
7.69575e-06
8.00276e-06
8.34211e-06
8.69785e-06
9.04095e-06
9.35104e-06
9.59069e-06
9.67601e-06
9.46173e-06
8.7178e-06
7.34716e-06
5.74464e-06
4.08754e-06
2.65193e-06
1.77612e-06
1.6956e-06
2.96825e-06
3.07575e-06
3.31012e-06
8.24438e-06
7.49538e-07
9.23557e-07
1.22076e-06
1.5582e-06
1.87713e-06
2.16359e-06
2.46375e-06
2.75672e-06
3.04583e-06
3.35795e-06
3.68244e-06
4.03382e-06
4.26652e-06
4.46299e-06
4.61718e-06
5.24511e-06
7.03156e-06
7.46984e-06
3.9293e-06
3.67312e-06
9.68517e-07
9.49443e-07
1.12953e-06
1.387e-06
1.65099e-06
1.94871e-06
2.2518e-06
2.55803e-06
2.89312e-06
3.18524e-06
3.52667e-06
3.84302e-06
4.15647e-06
4.39913e-06
4.70073e-06
5.60391e-06
7.35241e-06
7.54162e-06
4.01983e-06
3.28095e-06
1.40485e-06
1.41423e-06
1.41574e-06
1.58072e-06
1.80767e-06
2.04961e-06
2.33314e-06
2.63747e-06
3.02336e-06
3.24994e-06
3.47864e-06
3.7937e-06
4.0536e-06
4.32548e-06
4.85674e-06
6.00608e-06
7.68522e-06
7.44076e-06
4.12808e-06
3.66199e-06
2.06189e-06
2.10034e-06
1.96019e-06
2.11668e-06
2.1872e-06
2.44778e-06
2.73221e-06
3.15778e-06
3.75236e-06
3.70016e-06
3.78487e-06
3.97213e-06
4.29859e-06
4.77167e-06
5.63106e-06
6.84366e-06
7.73964e-06
7.36017e-06
4.25298e-06
4.33243e-06
2.98944e-06
3.02835e-06
2.76894e-06
3.0739e-06
3.08097e-06
3.48326e-06
3.84308e-06
4.50559e-06
5.04099e-06
4.71331e-06
4.56841e-06
4.91822e-06
5.31254e-06
5.98406e-06
6.90677e-06
7.8049e-06
8.03219e-06
7.10556e-06
4.37526e-06
5.39709e-06
4.353e-06
4.37583e-06
4.083e-06
4.52597e-06
4.6644e-06
5.26865e-06
5.85813e-06
6.95386e-06
7.19615e-06
6.6427e-06
6.86996e-06
7.13444e-06
7.55206e-06
8.1593e-06
8.70301e-06
8.64524e-06
7.84114e-06
6.63831e-06
4.48981e-06
7.09467e-06
6.43066e-06
6.48377e-06
6.25703e-06
6.97922e-06
7.54918e-06
8.87756e-06
1.0421e-05
1.26382e-05
1.20647e-05
1.19021e-05
1.17146e-05
1.16991e-05
1.15389e-05
1.06766e-05
9.5565e-06
8.57901e-06
7.61606e-06
6.08042e-06
4.45328e-06
1.05858e-05
1.07548e-05
1.11176e-05
1.17202e-05
1.34636e-05
1.54569e-05
1.84362e-05
2.20197e-05
1.98679e-05
1.83575e-05
1.62136e-05
1.47865e-05
1.29791e-05
1.17799e-05
1.02528e-05
9.19149e-06
8.18535e-06
7.09983e-06
5.21637e-06
3.51796e-06
2.10315e-05
2.28356e-05
2.36285e-05
2.51552e-05
2.50998e-05
2.27715e-05
2.09263e-05
1.85404e-05
1.71196e-05
1.51624e-05
1.4084e-05
1.24875e-05
1.16098e-05
1.03117e-05
9.4715e-06
8.4931e-06
7.36696e-06
5.63729e-06
3.74093e-06
2.3441e-06
2.67599e-05
2.5398e-05
2.3036e-05
2.12141e-05
1.92168e-05
1.75414e-05
1.59962e-05
1.45082e-05
1.33965e-05
1.20172e-05
1.13019e-05
9.95641e-06
9.28462e-06
7.91967e-06
7.32926e-06
6.17618e-06
4.97499e-06
3.36443e-06
2.07365e-06
1.19674e-06
3.06819e-05
2.90453e-05
2.71033e-05
2.47694e-05
2.30963e-05
2.06869e-05
1.93473e-05
1.72138e-05
1.6159e-05
1.44264e-05
1.35977e-05
1.2199e-05
1.15008e-05
1.02253e-05
9.57542e-06
8.28876e-06
6.98562e-06
4.98997e-06
3.13362e-06
1.82854e-06
1.61232e-05
1.74152e-05
1.78728e-05
1.90069e-05
2.14806e-05
2.42715e-05
2.3996e-05
2.16638e-05
1.98431e-05
1.7429e-05
1.60497e-05
1.41234e-05
1.29731e-05
1.15025e-05
1.05563e-05
9.43162e-06
8.61359e-06
7.15498e-06
4.93727e-06
3.17834e-06
9.3549e-06
9.08668e-06
9.18736e-06
9.18621e-06
1.0285e-05
1.14187e-05
1.34688e-05
1.62387e-05
1.8024e-05
1.72198e-05
1.58758e-05
1.4573e-05
1.3325e-05
1.21589e-05
1.09983e-05
9.96964e-06
8.88776e-06
7.92904e-06
6.15839e-06
4.27047e-06
6.70811e-06
5.92881e-06
5.89793e-06
5.54769e-06
6.10127e-06
6.35569e-06
7.31648e-06
8.31419e-06
9.94553e-06
9.33366e-06
9.14266e-06
9.30523e-06
9.59666e-06
1.00005e-05
1.04876e-05
9.87822e-06
9.28705e-06
8.26569e-06
6.88096e-06
4.9152e-06
5.21302e-06
4.11379e-06
4.10547e-06
3.75773e-06
4.12401e-06
4.18679e-06
4.68178e-06
5.09388e-06
5.95438e-06
6.11475e-06
5.62141e-06
5.68679e-06
6.13847e-06
6.64467e-06
7.49992e-06
8.41479e-06
8.85144e-06
8.56424e-06
7.36321e-06
4.7891e-06
4.23497e-06
2.86379e-06
2.87355e-06
2.58392e-06
2.83366e-06
2.79656e-06
3.12416e-06
3.42392e-06
3.98144e-06
4.45137e-06
4.22188e-06
4.1669e-06
4.4351e-06
4.91305e-06
5.60085e-06
6.70242e-06
7.88096e-06
8.31068e-06
7.7725e-06
4.64918e-06
3.62765e-06
1.99384e-06
2.01905e-06
1.88043e-06
2.01497e-06
2.08387e-06
2.29381e-06
2.55817e-06
2.89783e-06
3.39059e-06
3.40328e-06
3.54709e-06
3.81241e-06
4.09742e-06
4.55506e-06
5.45185e-06
6.89091e-06
8.18636e-06
7.96757e-06
4.50396e-06
3.39581e-06
1.36155e-06
1.35098e-06
1.37904e-06
1.52476e-06
1.74031e-06
1.97314e-06
2.24944e-06
2.53758e-06
2.88826e-06
3.10594e-06
3.36359e-06
3.68046e-06
3.99074e-06
4.22743e-06
4.76414e-06
5.97706e-06
7.91955e-06
8.04554e-06
4.37169e-06
4.0699e-06
9.52118e-07
9.26011e-07
1.11106e-06
1.38415e-06
1.63562e-06
1.9088e-06
2.19369e-06
2.48606e-06
2.79573e-06
3.0873e-06
3.41692e-06
3.75258e-06
4.05507e-06
4.28556e-06
4.63173e-06
5.63334e-06
7.6342e-06
8.02626e-06
4.25486e-06
8.91372e-06
7.4952e-07
9.10987e-07
1.20012e-06
1.53111e-06
1.8743e-06
2.16172e-06
2.44598e-06
2.73171e-06
3.00782e-06
3.28772e-06
3.58566e-06
3.92097e-06
4.23268e-06
4.39603e-06
4.52994e-06
5.1671e-06
7.18525e-06
7.97539e-06
4.16334e-06
1.2349e-06
0.000116647
0.000294305
0.000330908
0.000334811
0.000335357
0.000335357
0.000335342
0.000335343
0.000335346
0.000335346
0.000335343
0.000335342
0.000335357
0.000335357
0.00033481
0.000330908
0.000294305
0.000116647
1.2349e-06
1.37128e-06
6.79957e-05
0.000219101
0.000309235
0.000330882
0.000334524
0.000335272
0.000335314
0.000335295
0.000335286
0.000335286
0.000335295
0.000335314
0.000335272
0.000334524
0.000330882
0.000309238
0.000219105
6.79969e-05
1.37128e-06
1.50938e-06
5.31064e-05
0.000176991
0.000280987
0.00032228
0.000332525
0.000334607
0.000335102
0.000335168
0.000335172
0.000335172