/*--------------------------------*- C++ -*----------------------------------*\
| =========                 |                                                 |
| \\      /  F ield         | OpenFOAM: The Open Source CFD Toolbox           |
|  \\    /   O peration     | Version:  2.1.0                                 |
|   \\  /    A nd           | Web:      www.OpenFOAM.org                      |
|    \\/     M anipulation  |                                                 |
\*---------------------------------------------------------------------------*/
FoamFile
{
    version     2.0;
    format      ascii;
    class       volScalarField;
    location    "0.06";
    object      omega;
}
// * * * * * * * * * * * * * * * * * * * * * * * * * * * * * * * * * * * * * //

dimensions      [0 0 -1 0 0 0 0];

internalField   nonuniform List<scalar> 
6400
(
1637.46
1637.98
1638.2
1638.5
1638.59
1638.61
1638.57
1638.42
1638.21
1637.95
1637.7
1637.47
1637.26
1637.09
1636.94
1636.81
1636.69
1636.57
1636.39
1636.07
1635.62
1635.07
1634.36
1633.43
1632.23
1630.66
1628.68
1626.15
1623.04
1619.41
1615.14
1610.1
1604.23
1597.4
1589.54
1580.62
1570.48
1559.03
1546.27
1532.19
1516.79
1500.05
1482.04
1462.86
1442.59
1421.36
1399.33
1376.76
1353.87
1330.98
1308.2
1285.65
1263.75
1242.69
1222.58
1203.6
1185.97
1169.96
1155.74
1142.97
1131.58
1121.73
1113.62
1107.59
1103.85
1102.72
1102.88
1104.06
1106.1
1108.69
1111.58
1114.51
1117.3
1119.88
1121.94
1122.54
1122.25
1120.83
1118.13
1113.57
1106.93
1099.26
1091.07
1081.43
1069.42
1054.15
1035.06
1011.87
983.263
947.332
901.583
842.302
763.942
663.139
536.154
468.315
488.511
637.135
758.367
793.781
759.348
758.796
758.545
758.093
757.632
757.135
756.695
756.404
756.153
755.889
755.61
755.343
755.125
754.948
754.724
754.412
754.021
753.457
752.577
751.365
749.885
748.134
746.023
743.498
740.546
737.016
732.831
727.925
722.467
716.606
710.184
703.086
695.34
687.003
678.215
669.06
659.282
648.787
637.732
626.384
615.007
603.945
593.625
583.99
574.655
565.74
557.075
548.037
538.569
535.158
535.802
541.755
553.365
569.062
587.158
606.372
625.933
645.533
665.204
685.079
705.144
725.313
745.724
766.399
787.265
808.306
829.546
851.045
872.845
894.961
917.421
940.266
963.544
987.323
1011.71
1036.88
1062.65
1089.13
1116.1
1143.66
1172.2
1201.48
1231.55
1262.03
1292.57
1322.64
1351.7
1378.93
1403.45
1424.41
1440.34
1447.83
1449.36
1434.63
1394.59
1306.06
1185.33
1036.25
877.65
720.028
223.013
221.901
221.395
220.359
219.613
219.037
218.797
218.658
218.542
218.429
218.313
218.215
218.152
218.115
218.042
217.884
217.618
217.13
216.342
215.256
213.927
212.411
210.689
208.775
206.768
204.642
202.483
200.311
198.412
196.703
194.949
193.07
191.267
189.858
189.344
189.276
189.795
191.899
196.257
203.017
212.021
223.144
236.612
253.427
273.627
295.445
317.144
338.044
358.379
378.733
399.629
421.305
443.697
466.623
489.913
513.404
537.019
560.77
584.71
608.885
633.342
657.965
682.403
706.648
730.803
754.762
778.441
801.963
825.433
848.806
872.039
895.163
918.215
941.193
964.086
986.875
1009.54
1032.1
1054.69
1077.36
1099.89
1122.09
1144.26
1166.52
1188.43
1209.74
1230.29
1249.55
1266.56
1279.69
1286.01
1287.78
1276.56
1246.83
1193.45
1109.26
994.641
849.31
690.803
543.814
46.6889
46.1592
45.909
45.4744
45.178
45.0467
45.0241
44.9683
44.9393
44.9301
44.9288
44.9229
44.9226
44.9138
44.9174
44.9188
44.9108
44.8332
44.7004
44.4904
44.2446
43.9991
43.7575
43.4876
43.2482
42.9515
42.6066
42.57
42.6094
42.9967
43.8902
45.3948
47.8143
51.5
56.975
65.1451
76.7779
91.9654
110.263
130.87
152.946
175.766
198.805
221.802
244.634
267.154
289.296
311.058
332.353
353.32
374.243
395.437
416.976
438.81
460.852
483.031
505.296
527.595
549.895
572.158
594.36
616.439
638.348
660.023
681.436
702.545
723.33
743.77
763.857
783.555
802.798
821.545
839.787
857.492
874.573
890.941
906.503
921.113
934.756
947.298
958.312
967.65
975.344
980.517
982.862
983.499
980.73
973.29
962.999
947.13
927.123
900.001
866.03
823.532
770.613
706.848
633.442
556.091
487.532
446.527
16.4709
16.3507
16.2278
16.1036
16.045
16.047
16.0309
16.0159
16.0195
16.0108
16.0014
15.9699
15.9764
15.9848
15.9261
15.9125
15.9062
15.871
15.7509
15.6388
15.5167
15.4219
15.2064
14.8529
14.4925
13.8903
13.499
13.4017
13.4493
13.9948
15.4148
18.0991
22.3496
28.5225
37.0627
48.3126
62.5379
79.7762
99.6119
121.404
144.295
167.487
190.4
212.517
233.49
253.126
271.558
289.072
306.18
323.374
341.027
359.268
377.989
397.004
416.026
434.941
453.676
472.264
490.735
509.041
527.116
544.856
562.195
579.064
595.437
611.269
626.495
641
654.718
667.603
679.482
690.322
700.09
708.648
715.895
721.791
726.105
728.343
729.22
729.245
726.41
721.771
715.968
707.33
697.44
685.614
671.891
656.99
640.281
622.135
602.689
581.649
558.934
533.786
506.004
476.726
446.567
420.25
404.294
396.833
8.07864
8.02198
8.02616
7.95908
7.93832
7.89445
7.86323
7.88454
7.90972
7.90429
7.89617
7.91839
7.9215
7.92453
7.94654
7.93056
7.8982
7.86938
7.84526
7.82312
7.76816
7.63749
7.46619
7.2245
6.88893
6.7066
6.69179
6.74706
7.0478
7.90044
9.6014
12.515
16.9219
23.2454
31.9453
43.3604
57.7208
74.9542
94.5205
115.722
137.684
159.529
180.418
199.576
216.603
231.498
244.825
257.286
269.704
282.596
296.149
310.144
324.225
338.097
351.634
364.942
378.095
391.124
403.929
416.361
428.321
439.731
450.552
460.71
470.174
478.955
486.955
494.01
500.129
505.276
509.396
512.492
514.251
515.011
515.208
514.53
512.079
509.148
505.553
500.702
495.369
489.519
482.851
475.919
469.007
461.706
454.379
446.911
439.031
431.07
423.259
415.279
406.93
398.43
389.588
381.06
374.402
371.283
370.56
370.59
4.93277
4.92828
4.92526
4.91442
4.86744
4.84719
4.83224
4.82383
4.82122
4.83296
4.83269
4.86208
4.87462
4.8695
4.88512
4.88416
4.87247
4.87042
4.85721
4.81407
4.7582
4.66542
4.5564
4.49239
4.44815
4.46175
4.57071
4.80931
5.29111
6.20858
7.89025
10.6613
14.8445
20.931
29.3647
40.53
54.6195
71.4808
90.5137
110.944
131.67
151.528
169.421
184.613
196.941
206.791
215.133
222.967
231.106
239.789
248.794
257.609
265.892
273.573
280.867
288.061
295.201
302.142
308.7
314.824
320.577
325.986
331.031
335.615
339.714
343.344
346.571
349.356
351.672
353.538
355.117
356.29
356.939
357.221
357.313
357.301
357.037
356.515
355.882
355.148
354.39
353.62
352.808
352.067
351.378
350.706
350.09
349.525
348.981
348.498
348.065
347.667
347.403
347.296
347.507
348.499
350.52
354.315
356.86
357.339
3.77898
3.79092
3.78668
3.79181
3.74181
3.73552
3.74347
3.74418
3.73392
3.73651
3.76156
3.77054
3.7559
3.75098
3.72868
3.70568
3.69475
3.68371
3.65428
3.6037
3.52426
3.4729
3.46035
3.46043
3.47286
3.53763
3.69349
3.998
4.55145
5.47778
7.10465
9.76547
13.8367
19.8034
28.1138
39.1747
53.1353
69.7725
88.3903
108.019
127.35
145.038
159.917
171.425
179.743
185.709
190.551
195.342
200.645
206.374
212.07
217.242
221.784
225.917
229.98
234.084
238.119
241.933
245.463
248.792
252.045
255.227
258.275
261.143
263.867
266.5
269.082
271.574
273.962
276.302
278.644
280.943
283.201
285.465
287.75
290.047
292.369
294.725
297.131
299.587
302.112
304.695
307.366
310.109
312.931
315.806
318.755
321.752
324.812
327.918
331.103
334.379
337.796
341.42
345.403
349.91
354.902
360.513
363.223
363.641
3.39568
3.41102
3.41732
3.41151
3.42183
3.42001
3.40054
3.40272
3.425
3.41978
3.41466
3.40859
3.40374
3.38166
3.37417
3.36793
3.31906
3.2794
3.22559
3.16471
3.09752
3.02313
2.99501
2.98523
3.00904
3.08098
3.23773
3.53216
4.09475
5.05272
6.69484
9.33223
13.3817
19.321
27.6219
38.6656
52.5878
69.0801
87.4066
106.457
124.77
140.907
153.745
162.914
168.86
172.711
175.808
179.207
183.286
187.783
192.138
195.944
199.229
202.324
205.554
208.963
212.383
215.655
218.801
221.965
225.233
228.566
231.887
235.195
238.552
241.992
245.491
249.016
252.585
256.23
259.956
263.743
267.591
271.528
275.574
279.713
283.953
288.308
292.784
297.386
302.109
306.961
311.953
317.082
322.353
327.769
333.328
339.018
344.804
350.69
356.648
362.694
368.823
375.08
381.535
388.398
396.147
404.374
411.201
414.303
3.28322
3.29916
3.31433
3.31517
3.30343
3.31796
3.32172
3.31467
3.32703
3.32771
3.32931
3.31556
3.31133
3.2919
3.26855
3.25516
3.23551
3.14372
3.07902
3.02258
2.95627
2.87816
2.83764
2.83331
2.85772
2.9255
3.07087
3.37164
3.9156
4.88563
6.53727
9.17922
13.2316
19.1707
27.4726
38.5199
52.4034
68.807
86.9797
105.731
123.544
138.931
150.82
158.938
163.873
166.869
169.328
172.276
176.009
180.187
184.219
187.738
190.836
193.874
197.147
200.649
204.179
207.591
210.938
214.372
217.961
221.641
225.34
229.074
232.918
236.897
240.978
245.136
249.395
253.794
258.331
262.988
267.772
272.719
277.83
283.105
288.551
294.187
300.039
306.108
312.408
318.967
325.792
332.907
340.323
348.07
356.17
364.643
373.536
382.881
392.73
403.149
414.197
425.957
438.499
451.889
465.983
480.515
491.257
495.915
3.29456
3.30584
3.29644
3.30887
3.32104
3.32745
3.30242
3.30334
3.31267
3.31831
3.31825
3.32455
3.30845
3.29607
3.29421
3.27265
3.21941
3.12184
3.06823
3.00962
2.95396
2.88619
2.86663
2.86792
2.89013
2.95906
3.11373
3.41358
3.9717
4.94087
6.58215
9.21722
13.2742
19.2014
27.4846
38.5069
52.3676
68.7558
86.9222
105.711
123.6
139.112
151.162
159.445
164.519
167.605
170.094
173.028
176.734
180.887
184.903
188.408
191.474
194.465
197.68
201.125
204.603
207.959
211.241
214.599
218.105
221.696
225.297
228.919
232.637
236.48
240.412
244.405
248.48
252.672
256.984
261.391
265.896
270.514
275.265
280.132
285.124
290.258
295.543
300.983
306.576
312.34
318.284
324.417
330.751
337.311
344.114
351.178
358.53
366.203
374.24
382.66
391.552
401.031
411.185
422.198
434.125
446.695
456.656
461.131
3.40259
3.41326
3.42821
3.42384
3.4236
3.43411
3.42312
3.41821
3.41769
3.42189
3.43051
3.41906
3.39934
3.38172
3.36765
3.35774
3.32308
3.28357
3.2284
3.16151
3.12977
3.07362
3.04585
3.04678
3.09294
3.1657
3.34666
3.66809
4.23225
5.20449
6.83417
9.45472
13.4889
19.3929
27.6442
38.6139
52.4479
68.8667
87.1374
106.204
124.619
140.951
154.081
163.561
169.794
173.844
177.039
180.454
184.52
189.021
193.408
197.255
200.557
203.63
206.807
210.154
213.513
216.709
219.754
222.781
225.892
229.05
232.175
235.244
238.319
241.453
244.62
247.779
250.937
254.125
257.353
260.59
263.853
267.161
270.519
273.933
277.368
280.862
284.408
288.008
291.66
295.359
299.122
302.931
306.798
310.733
314.742
318.823
322.975
327.223
331.586
336.092
340.757
345.639
350.836
356.554
362.906
369.752
373.716
375.116
3.77514
3.80179
3.80628
3.78748
3.77036
3.77214
3.78605
3.7906
3.78961
3.76941
3.76752
3.75581
3.74734
3.74223
3.73368
3.7132
3.6964
3.67341
3.63498
3.61019
3.54826
3.51531
3.49664
3.50333
3.56712
3.65424
3.838
4.18327
4.7588
5.71827
7.32685
9.9491
14.0139
19.9054
28.1556
39.0837
52.8738
69.3647
87.839
107.418
126.797
144.68
159.919
171.84
180.568
186.866
191.885
196.749
202.075
207.876
213.7
219.07
223.805
228.098
232.288
236.545
240.765
244.739
248.424
251.878
255.223
258.488
261.601
264.511
267.241
269.857
272.382
274.816
277.13
279.347
281.542
283.711
285.801
287.833
289.875
291.897
293.897
295.892
297.891
299.885
301.877
303.874
305.861
307.844
309.822
311.793
313.77
315.807
317.918
320.12
322.459
324.95
327.635
330.645
333.822
337.695
342.196
347.111
349.365
349.347
4.89836
4.91223
4.90356
4.91534
4.90836
4.92417
4.93757
4.92717
4.93939
4.93166
4.92989
4.92672
4.90884
4.9036
4.90057
4.86118
4.83559
4.81544
4.78761
4.77837
4.72082
4.64065
4.55177
4.50984
4.51043
4.57157
4.68251
5.0072
5.52575
6.45496
8.12684
10.8329
15.0281
21.0404
29.375
40.3648
54.1985
70.8396
89.613
109.858
130.501
150.421
168.562
184.091
196.812
207.053
215.614
223.572
231.74
240.504
249.679
258.825
267.52
275.664
283.414
290.995
298.545
305.949
312.998
319.584
325.752
331.561
336.988
342.014
346.554
350.602
354.166
357.289
359.975
362.15
363.923
365.373
366.461
367.08
367.343
367.423
367.406
367.148
366.621
365.97
365.237
364.422
363.499
362.458
361.38
360.254
359.018
357.653
356.145
354.408
352.504
350.461
348.301
346.27
344.466
343.593
343.369
346.094
348.037
348.307
8.00334
8.01949
8.00951
8.03408
8.03889
8.06075
8.08035
8.0783
8.07483
8.07654
8.07671
8.06368
8.00669
7.97688
7.93459
7.90265
7.84111
7.78802
7.76193
7.70227
7.64522
7.48306
7.33526
7.11255
6.90908
6.82432
6.77742
6.87476
7.21923
8.05902
9.76264
12.6087
16.9843
23.2493
31.8077
43.0198
57.0626
73.9619
93.1833
114.052
135.751
157.42
178.288
197.539
214.753
229.886
243.328
255.823
268.156
280.921
294.368
308.374
322.58
336.655
350.473
364.027
377.454
390.76
403.906
416.732
429.132
441.061
452.44
463.267
473.442
482.938
491.776
499.829
507.002
513.293
518.669
523.037
526.432
528.742
529.819
530.209
530.191
528.794
526.247
523.484
519.776
515.247
510.337
504.543
498.052
491.292
484.052
476.113
467.848
458.508
448.3
437.264
425.485
412.631
399.854
386.877
375.809
368.856
365.786
364.277
16.1957
16.1753
16.2358
16.2421
16.3388
16.3608
16.3645
16.4203
16.4147
16.4259
16.362
16.2982
16.2696
16.1584
16.0324
15.9343
15.8463
15.669
15.5677
15.447
15.2401
15.1459
14.9727
14.6616
14.2642
13.8256
13.3884
13.28
13.3366
13.8369
15.2165
17.835
22.0062
28.0826
36.439
47.4356
61.3078
78.0907
97.4846
118.829
141.331
164.192
186.861
208.784
229.647
249.226
267.576
284.958
301.847
318.722
336.007
353.885
372.318
391.075
409.973
428.779
447.458
465.983
484.421
502.748
520.896
538.82
556.407
573.623
590.419
606.758
622.626
637.932
652.567
666.531
679.756
692.096
703.532
714.065
723.535
731.888
739.138
745.117
749.606
752.389
753.645
753.96
752.36
748.251
743.125
735.005
724.975
712.668
697.329
679.749
658.8
634.552
606.909
574.987
540.313
502.452
464.721
430.077
406.357
393.703
45.4642
45.4207
45.4881
45.6485
45.8696
46.1367
46.3087
46.3506
46.3651
46.3252
46.2811
46.1923
46.0005
45.7238
45.389
45.0048
44.7169
44.455
44.1658
43.8619
43.5057
43.2223
42.9474
42.69
42.3865
41.9553
41.6148
41.3632
41.3701
41.6157
42.3987
43.8509
46.2051
49.822
55.2705
63.3553
74.7499
89.4522
107.12
127.146
148.761
171.189
193.893
216.538
239.005
261.137
282.864
304.245
325.243
345.864
366.368
387.047
408.077
429.427
451.018
472.773
494.635
516.563
538.501
560.43
582.313
604.124
625.806
647.311
668.598
689.638
710.419
730.923
751.147
771.092
790.745
810.051
828.996
847.581
865.788
883.565
900.872
917.684
933.869
949.287
963.988
977.752
990.08
1000.92
1010.27
1017.16
1020.49
1021.65
1019.31
1009.95
995.955
972.485
940.044
894.546
837.365
764.684
679.972
588.451
508.916
452.472
220.005
219.877
219.95
220.301
220.844
221.451
221.862
221.996
222.029
222.014
221.923
221.697
221.24
220.51
219.58
218.494
217.346
216.119
214.897
213.545
211.994
210.347
208.604
206.716
204.681
202.57
200.459
198.234
196.174
194.439
192.636
190.768
188.921
187.385
186.601
186.443
186.771
188.525
192.443
198.742
207.298
217.941
230.821
246.854
266.386
287.773
309.235
329.884
349.829
369.615
389.826
410.783
432.452
454.695
477.336
500.227
523.251
546.406
569.715
593.219
616.951
640.936
664.904
688.638
712.253
735.784
759.103
782.191
805.209
828.238
851.252
874.234
897.239
920.311
943.476
966.748
990.147
1013.69
1037.36
1061.2
1085.42
1109.95
1134.46
1158.96
1183.82
1208.8
1233.26
1257.04
1279.45
1299.01
1311.17
1315.9
1311.56
1279.84
1224.93
1142.94
1033.13
896.578
733.143
572.344
757.488
756.976
756.854
756.829
756.933
757.2
757.441
757.597
757.66
757.674
757.656
757.584
757.379
756.956
756.398
755.733
754.912
753.843
752.585
750.998
749.064
746.943
744.608
741.925
738.776
735.146
730.923
725.896
720.288
714.326
707.906
700.797
693.013
684.669
675.729
666.399
656.538
645.972
634.847
623.347
611.768
600.478
589.841
579.943
570.38
561.229
552.403
543.392
533.316
527.335
526.745
530.582
540.207
554.405
571.444
589.912
608.886
627.929
646.976
666.152
685.56
705.049
724.642
744.456
764.461
784.616
804.909
825.374
846.07
867.029
888.271
909.833
931.764
954.123
976.998
1000.51
1024.8
1050.04
1076.4
1103.7
1131.98
1161.06
1191.41
1222.83
1254.96
1287.11
1318.16
1346.62
1370.43
1383.86
1388.73
1387.64
1376.15
1357.94
1322.77
1259.7
1165.6
1044.92
908.548
755.622
1637.45
1637.35
1637.1
1636.96
1636.93
1636.93
1636.95
1637.02
1637.12
1637.24
1637.37
1637.5
1637.65
1637.82
1638.03
1638.16
1638.19
1638.14
1637.95
1637.53
1636.87
1636.06
1635.13
1633.98
1632.55
1630.82
1628.7
1626.03
1622.75
1618.92
1614.53
1609.41
1603.45
1596.61
1588.74
1579.75
1569.55
1558.06
1545.28
1531.13
1515.59
1498.76
1480.65
1461.32
1440.89
1419.51
1397.28
1374.41
1351.24
1328.02
1304.91
1281.99
1259.63
1238.11
1217.45
1197.87
1179.57
1162.82
1147.83
1134.45
1122.39
1111.88
1103.05
1095.93
1091.89
1090.95
1091.39
1093.19
1096.26
1100.33
1105.12
1110.37
1115.84
1121.33
1126.6
1131.4
1135.52
1138.23
1138.93
1138.58
1136.49
1131.69
1124.82
1116.86
1106.45
1091.6
1071.24
1043.84
1006.42
954.525
881.897
788.571
692.823
600.377
519.778
471.141
485.301
641.69
783.378
825.782
743.99
290.047
160.522
109.781
86.6994
70.3011
58.4469
52.8016
46.365
43.0012
41.7795
41.5857
43.4908
50.0702
66.0965
101.051
169.097
293.741
500.279
744.792
603.713
297.225
196.087
139.442
107.007
85.845
74.2134
64.6219
57.4654
54.0623
52.7875
52.6355
54.9547
64.8935
84.5141
123.818
197.181
319.329
509
721.644
489.386
290.348
220.202
161.471
129.099
106.859
89.9279
78.7345
70.6838
67.1685
65.9586
65.9852
71.6406
83.5781
107.918
153.646
229.649
346.193
516.416
694.985
410.642
280.744
234.036
176.088
149.209
121.433
106.243
94.0088
87.4871
84.5146
83.6125
85.0831
92.0687
109.619
138.949
188.898
265.075
371.005
516.134
664.646
359.554
273.695
240.198
189.693
167.523
140.892
128.467
115.854
109.995
107.007
106.092
108.22
122.837
143.475
177.917
230.458
301.235
391.788
511.726
629.358
330.199
272.25
246.973
205.557
187.279
163.223
152.348
141.208
136.736
135.013
135.597
148.034
164.806
189.875
226.843
275.036
334.609
406.883
499.388
588.904
316.763
277.216
258.77
225.66
211.408
193.931
186.525
181.296
179.797
181.393
191.397
204.338
223.394
247.639
279.506
316.675
359.859
407.478
474.331
542.162
327.067
303.643
292.657
272.736
264.715
255.785
252.056
250.598
251.349
258
265.633
276.99
290.922
307.722
327.605
348.868
371.55
399.054
436.755
488.658
396.059
383.963
377.811
362.615
355.561
346.312
342.013
338.699
337.485
337.289
339.073
341.726
345.79
350.001
355.199
359.565
365.399
371.783
376.368
426.222
477.425
460.444
452.532
433.825
425.186
411.051
404.171
393.563
388.377
380.846
377.146
371.792
368.896
364.197
360.315
353.172
342.757
329.478
323.825
371.003
444.628
428.589
420.937
403.46
395.461
383.74
378.185
371.29
368.031
365.525
364.467
364.228
365.122
366.15
367.428
367.827
367.817
360.853
356.193
400.735
347.989
335.849
327.632
312.734
305.923
297.791
294.456
293.16
293.429
299.468
305.468
315.602
327.111
340.515
355.659
370.247
385.287
406.857
427.404
470.117
309.59
281.777
268.622
243.836
233.227
220.944
215.788
213.434
213.218
219.482
230.08
244.358
264.008
288.333
317.905
350.89
387.013
425.38
477.489
531.562
307.74
266.572
247.007
212.495
197.561
177.451
168.548
160.793
158.22
157.78
165.508
179.923
200.307
228.64
267.457
314.114
369.034
431.144
511.726
585.215
323.092
264.3
238.807
196.661
178.147
153.807
142.686
130.478
125.232
122.818
122.335
131.029
149.529
174.718
215.239
270.73
340.495
424.85
532.836
631.728
352.952
266.798
232.918
182.024
159.536
132.488
119.742
107.415
101.509
98.6665
97.819
99.7527
111.76
134.176
169.13
226.201
305.719
408.377
542.892
672.477
404.79
274.459
227.862
171.062
144.116
117.188
100.736
88.8881
81.3059
78.0635
77.0727
78.4755
85.8756
101.837
132.757
185.485
268.656
385.616
546.119
707.576
490.596
283.465
212.462
156.926
123.971
102.352
85.7605
75.0603
66.9298
63.2007
61.8082
61.6697
66.4302
79.4506
102.981
150.868
232.896
359.786
544.179
738.378
623.709
291.874
190.365
134.617
104.817
83.6021
70.7678
61.4423
54.2449
50.5359
49.2205
49.0725
51.5004
60.8509
81.2438
122.185
200.233
332.392
536.365
765.219
776.602
288.252
156.128
105.557
82.4806
69.1306
57.131
50.7055
45.0854
41.0077
39.424
38.9949
40.3562
47.9601
63.3176
99.2971
171.891
306.247
526.924
788.848
646.2
32.1506
12.7311
11.3229
11.19
11.171
11.1706
11.1708
11.1706
11.1705
11.1705
11.1706
11.1708
11.1706
11.171
11.19
11.3229
12.7311
32.1507
646.199
673.019
55.2046
17.0759
12.0972
11.3047
11.1803
11.1547
11.1529
11.1534
11.1536
11.1536
11.1534
11.1529
11.1547
11.1803
11.3046
12.0971
17.0756
55.2038
673.019
697.7
70.8026
21.0901
13.2838
11.5825
11.2254
11.155
11.1382
11.1357
11.1355
11.1355
11.1357
11.1382
11.155
11.2254
11.5826
13.284
21.0907
70.8043
697.701
722.673
85.553
25.0685
14.6257
12.0362
11.3344
11.1681
11.1265
11.1182
11.1171
11.1171
11.1182
11.1265
11.1681
11.3344
12.0362
14.6256
25.068
85.5495
722.671
747.823
102.607
29.3501
16.1059
12.6034
11.5289
11.2076
11.1275
11.105
11.1003
11.1003
11.105
11.1275
11.2076
11.5289
12.6032
16.1057
29.3496
102.606
747.824
770.115
119.075
33.5115
17.5842
13.2138
11.7691
11.2856
11.137
11.0946
11.0844
11.0844
11.0946
11.137
11.2856
11.7691
13.2137
17.584
33.5108
119.075
770.116
789.705
134.24
37.4248
19.0114
13.835
12.0364
11.3844
11.1594
11.0914
11.0715
11.0715
11.0914
11.1594
11.3844
12.0364
13.8351
19.0116
37.4248
134.236
789.705
809.686
150.122
41.5147
20.503
14.5026
12.3425
11.5112
11.2004
11.0948
11.062
11.062
11.0948
11.2004
11.5111
12.3422
14.502
20.5016
41.5112
150.112
809.686
830.517
167.293
45.9684
22.1216
15.2375
12.6946
11.6697
11.2597
11.1059
11.0589
11.0589
11.1059
11.2597
11.6697
12.6946
15.2374
22.121
45.9656
167.282
830.519
849.306
183.611
50.384
23.7578
15.996
13.0715
11.8502
11.3356
11.1297
11.0616
11.0616
11.1297
11.3355
11.8502
13.0713
15.9954
23.7562
50.3789
183.593
849.311
864.397
197.424
54.323
25.2681
16.7169
13.4425
12.037
11.4205
11.1617
11.0695
11.0694
11.1616
11.4203
12.0366
13.4422
16.7163
25.2661
54.3152
197.399
864.405
877.574
209.698
57.8824
26.6605
17.3973
13.8029
12.2253
11.511
11.1992
11.0843
11.0844
11.1994
11.5113
12.2255
13.8025
17.3958
26.6565
57.8698
209.661
877.588
891.336
222.42
61.5303
28.0712
18.0861
14.1726
12.4246
11.612
11.2453
11.1058
11.1057
11.2449
11.6113
12.4237
14.1715
18.0836
28.0633
61.5038
222.348
891.356
905.676
236.022
65.4782
29.5864
18.8243
14.5728
12.6454
11.7288
11.3036
11.1377
11.1376
11.3033
11.7283
12.6443
14.5704
18.8198
29.5761
65.4462
235.934
905.706
918.416
248.985
69.4256
31.1381
19.5927
14.9964
12.886
11.8631
11.3761
11.1815
11.1816
11.3763
11.8632
12.8861
14.9957
19.5889
31.1258
69.3842
248.871
918.462
927.913
259.46
72.8675
32.5617
20.3224
15.4134
13.1322
12.0051
11.4578
11.2352
11.235
11.4576
12.0053
13.132
15.4127
20.3203
32.5488
72.8133
259.345
927.99
934.775
267.114
75.541
33.7355
20.9475
15.7794
13.3529
12.1413
11.5418
11.2945
11.295
11.542
12.1392
13.3503
15.777
20.9426
33.7202
75.4952
267.071
934.887
941.182
273.631
77.6828
34.6856
21.4696
16.081
13.5364
12.2539
11.6205
11.3545
11.352
11.6142
12.2517
13.5379
16.0802
21.4612
34.6743
77.6581
273.637
941.318
948.837
281.226
79.9069
35.5838
21.9361
16.3713
13.721
12.3693
11.6896
11.4058
11.4064
11.6927
12.3643
13.7086
16.3668
21.9471
35.5904
79.8988
281.263
948.991
957.509
290.354
82.5859
36.6367
22.4832
16.7349
14.016
12.5916
11.807
11.4834
11.4884
11.8225
12.5952
13.9996
16.7259
22.4913
36.6603
82.6156
290.464
957.682
965.29
299.593
85.5871
37.9632
23.302
17.2825
14.3855
12.8352
12.036
11.6895
11.6963
12.047
12.8601
14.4128
17.2855
23.298
38.0025
85.6637
299.723
965.465
970.195
306.612
88.4078
39.4333
24.2833
17.9686
14.8003
13.1416
12.3069
11.9589
11.9659
12.3202
13.1617
14.8284
17.9965
24.3167
39.508
88.5452
306.779
970.336
971.871
310.475
90.7446
40.8031
25.2179
18.6401
15.2518
13.4608
12.5759
12.2043
12.2058
12.5812
13.4743
15.2773
18.682
25.2821
40.9111
90.9071
310.665
971.962
971.902
312.685
92.4899
41.8554
25.9443
19.1426
15.5633
13.6596
12.7325
12.346
12.3454
12.7322
13.6613
15.5779
19.1911
26.0363
41.9998
92.6734
312.898
971.976
971.347
314.98
93.5989
42.4557
26.3343
19.3747
15.6733
13.7122
12.7581
12.3576
12.356
12.7552
13.7068
15.6693
19.4169
26.4643
42.6509
93.8188
315.227
971.393
969.38
317.459
94.0542
42.6223
26.4415
19.3922
15.6572
13.6875
12.7269
12.3247
12.3234
12.7233
13.6772
15.6453
19.4281
26.5874
42.8621
94.3118
317.676
969.372
963.494
319.774
94.0353
42.5481
26.3639
19.2449
15.4869
13.5254
12.5557
12.1474
12.1419
12.5424
13.5004
15.4553
19.2698
26.5059
42.8026
94.2892
319.842
963.356
951.611
322.215
93.3324
41.937
25.7953
18.5989
14.8418
12.904
11.9366
11.5191
11.5012
11.8847
12.8277
14.7581
18.5861
25.9109
42.1939
93.5653
322.172
951.408
940.124
324.075
90.4007
39.6257
23.7309
16.576
12.9663
11.1612
10.2524
9.85737
9.82254
10.149
11.0049
12.7865
16.4677
23.7726
39.838
90.5856
323.995
939.89
930.467
324.927
83.9737
35.1849
20.2677
13.7297
10.551
8.96726
8.18625
7.86739
7.82115
8.07701
8.80569
10.3547
13.5518
20.1967
35.3584
84.0404
324.856
930.216
922.973
325.068
77.3437
31.0712
17.0744
11.2224
8.45769
7.05182
6.37274
6.10802
6.07138
6.26548
6.90307
8.24532
11.0321
17.0765
31.1422
77.3591
325.01
922.708
917.444
324.777
71.5295
27.6257
14.616
9.26515
6.79706
5.564
4.95559
4.71638
4.70235
4.85408
5.39191
6.61638
9.10274
14.5904
27.7068
71.6659
324.711
917.168
913.473
323.591
68.4418
25.3176
12.8834
7.90101
5.62251
4.49265
3.94769
3.73866
3.72798
3.86503
4.33696
5.44811
7.74774
12.8459
25.3838
68.5281
323.485
913.184
910.647
321.966
67.8536
24.0033
11.7926
6.98437
4.81673
3.76904
3.28722
3.09023
3.09465
3.2259
3.65437
4.69343
6.84936
11.7189
24.0202
67.5928
321.673
910.355
908.614
320.616
67.9212
23.3328
11.1241
6.45375
4.32377
3.32577
2.89065
2.71558
2.71725
2.86769
3.26846
4.25175
6.35325
11.0059
23.2258
67.4496
320.099
908.392
907.145
319.638
68.1869
22.9562
10.7622
6.16523
4.07861
3.08642
2.67192
2.51233
2.51036
2.65607
3.04337
3.98365
6.05106
10.644
22.7708
67.4712
318.983
907.028
906.054
318.976
68.4858
22.8222
10.6103
5.96768
3.91366
2.95392
2.55317
2.40033
2.37877
2.53949
2.92357
3.84133
5.85318
10.4685
22.5876
67.5686
318.338
906.061
905.234
318.492
68.6329
22.7955
10.5405
5.86068
3.78869
2.84538
2.45628
2.31978
2.31018
2.46411
2.84029
3.74452
5.76021
10.4088
22.5472
67.8168
318.015
905.341
904.628
318.058
68.632
22.7576
10.5205
5.79819
3.72727
2.80845
2.41608
2.26954
2.27317
2.40083
2.78492
3.67768
5.7009
10.3888
22.5812
68.1223
317.852
904.769
904.183
317.671
68.5741
22.7386
10.4782
5.77211
3.72358
2.80704
2.40493
2.25604
2.2607
2.391
2.76396
3.64891
5.69312
10.4
22.6071
68.3077
317.681
904.307
903.877
317.256
68.3687
22.6221
10.4687
5.79019
3.72328
2.80669
2.41019
2.25973
2.26167
2.38331
2.77131
3.66137
5.69173
10.3993
22.6238
68.3266
317.394
903.943
903.657
317.029
68.1621
22.5893
10.4204
5.78202
3.73355
2.81106
2.41514
2.2583
2.2634
2.39232
2.77466
3.6812
5.73334
10.3919
22.588
68.3129
317.159
903.662
903.464
317.001
68.1249
22.5601
10.4322
5.78542
3.72263
2.81153
2.41488
2.25634
2.2581
2.40187
2.79431
3.70103
5.74364
10.3705
22.5558
68.2513
317.046
903.446
903.293
317.004
68.1453
22.5817
10.4543
5.76196
3.67242
2.78811
2.40628
2.25162
2.24724
2.39383
2.79379
3.7024
5.73016
10.3865
22.4963
68.0583
316.954
903.28
903.14
316.979
68.1561
22.591
10.4474
5.75579
3.67076
2.76756
2.38848
2.23233
2.23262
2.37884
2.77334
3.67758
5.69913
10.381
22.4711
67.784
316.766
903.154
902.995
316.909
68.1479
22.6039
10.4115
5.73618
3.68388
2.76561
2.36346
2.21755
2.21046
2.35874
2.74204
3.65291
5.69325
10.3708
22.4102
67.5211
316.446
903.085
902.863
316.826
68.1169
22.5903
10.3939
5.73257
3.69025
2.76216
2.35946
2.21322
2.20607
2.34838
2.73346
3.65332
5.70525
10.3161
22.3531
67.3903
316.237
903.027
902.742
316.64
67.9953
22.558
10.3773
5.72718
3.67423
2.7458
2.35955
2.22342
2.21016
2.35174
2.7354
3.65721
5.70439
10.3138
22.3318
67.3659
316.204
903.019
902.638
316.299
67.6713
22.4533
10.3658
5.72039
3.66586
2.74865
2.36724
2.23971
2.21332
2.37203
2.75127
3.66196
5.71126
10.3324
22.3227
67.3959
316.242
903.02
902.57
316.058
67.4381
22.3856
10.327
5.68868
3.66012
2.75369
2.37575
2.23127
2.21757
2.37373
2.75522
3.67801
5.73209
10.3294
22.3634
67.5078
316.381
903.003
902.552
315.953
67.3048
22.3466
10.3136
5.66528
3.64691
2.75227
2.37189
2.21355
2.22896
2.37338
2.75011
3.676
5.74902
10.3737
22.413
67.7417
316.547
902.941
902.552
315.875
67.2276
22.3209
10.3084
5.66875
3.64578
2.73746
2.36581
2.23593
2.22764
2.36904
2.76289
3.69388
5.77414
10.3956
22.4632
67.8988
316.621
902.837
902.554
315.71
67.1519
22.3177
10.2981
5.6604
3.62059
2.71816
2.35542
2.23293
2.22895
2.36926
2.7562
3.68409
5.76138
10.4392
22.4971
67.9614
316.64
902.746
902.562
315.566
67.0753
22.2797
10.3019
5.67023
3.60326
2.7167
2.35428
2.2225
2.23742
2.35808
2.74107
3.67646
5.75843
10.433
22.5199
67.9659
316.621
902.642
902.621
315.542
67.0543
22.2214
10.309
5.69793
3.61438
2.72427
2.35596
2.22305
2.22824
2.36305
2.74168
3.66497
5.76588
10.4328
22.5024
67.9272
316.531
902.55
902.844
315.597
67.0728
22.234
10.3149
5.7021
3.63605
2.73337
2.35172
2.22341
2.21698
2.36049
2.73948
3.67529
5.77404
10.4143
22.4574
67.7955
316.317
902.44
903.023
315.817
67.1715
22.2672
10.3336
5.70734
3.64657
2.73409
2.35293
2.2128
2.20937
2.35718
2.7545
3.6915
5.75879
10.3984
22.4154
67.5576
316.033
902.316
903.075
316.148
67.4819
22.3366
10.3634
5.74752
3.66506
2.73905
2.36256
2.21269
2.2106
2.35735
2.75636
3.70587
5.76011
10.3795
22.3475
67.3618
315.805
902.262
903.074
316.411
67.8403
22.4751
10.3902
5.75789
3.69634
2.77533
2.38057
2.2203
2.2241
2.37071
2.75601
3.70229
5.74469
10.3603
22.3268
67.2372
315.702
902.262
903.028
316.6
68.0927
22.5372
10.4342
5.77612
3.72284
2.79766
2.38521
2.23977
2.23446
2.37295
2.75942
3.70673
5.7458
10.3536
22.2756
67.1643
315.614
902.275
902.887
316.706
68.228
22.6218
10.4381
5.77431
3.74197
2.80254
2.3922
2.24121
2.23619
2.38026
2.75924
3.69837
5.74089
10.342
22.251
67.1064
315.546
902.307
902.742
316.764
68.2978
22.6166
10.4732
5.77642
3.74773
2.80414
2.39509
2.2458
2.24023
2.37342
2.75209
3.67065
5.72678
10.3413
22.2317
67.0846
315.546
902.375
902.587
316.781
68.3307
22.6447
10.4612
5.78862
3.75766
2.81967
2.40398
2.25339
2.24968
2.36472
2.74584
3.65735
5.71075
10.3265
22.2211
67.0825
315.554
902.437
902.471
316.767
68.3313
22.6268
10.4761
5.80124
3.75651
2.81056
2.39885
2.25585
2.25273
2.36286
2.74678
3.67346
5.71763
10.2766
22.229
67.0896
315.583
902.497
902.382
316.669
68.2924
22.6417
10.4687
5.78613
3.72532
2.78493
2.38437
2.25404
2.25448