/*--------------------------------*- C++ -*----------------------------------*\
| =========                 |                                                 |
| \\      /  F ield         | OpenFOAM: The Open Source CFD Toolbox           |
|  \\    /   O peration     | Version:  2.1.0                                 |
|   \\  /    A nd           | Web:      www.OpenFOAM.org                      |
|    \\/     M anipulation  |                                                 |
\*---------------------------------------------------------------------------*/
FoamFile
{
    version     2.0;
    format      ascii;
    class       volScalarField;
    location    "0.06";
    object      p;
}
// * * * * * * * * * * * * * * * * * * * * * * * * * * * * * * * * * * * * * //

dimensions      [1 -1 -2 0 0 0 0];

internalField   nonuniform List<scalar> 
6400
(
99997.1
100001
100005
100009
100013
100016
100020
100023
100025
100027
100030
100032
100035
100038
100040
100042
100044
100046
100049
100052
100055
100057
100060
100062
100064
100067
100069
100070
100072
100073
100074
100075
100075
100075
100075
100075
100074
100073
100071
100069
100066
100062
100058
100053
100048
100042
100035
100027
100019
100010
100001
99990.3
99979.3
99967.7
99955.5
99942.7
99929.3
99915.3
99900.9
99886
99870.6
99854.8
99838.6
99822.1
99805.2
99788
99770.5
99752.8
99734.8
99716.5
99698
99679.3
99660.3
99641.1
99621.7
99602
99582.1
99562
99541.5
99520.8
99499.7
99478.3
99456.5
99434
99410.9
99386.9
99361.7
99335
99306.6
99276.1
99244
99211.2
99179.8
99150.5
99121.5
99093.1
99041.7
98935.5
98588.5
97074.2
99997.1
100001
100005
100009
100013
100016
100020
100023
100025
100027
100029
100032
100035
100037
100040
100041
100042
100045
100048
100051
100053
100055
100058
100060
100062
100064
100066
100067
100069
100070
100071
100072
100072
100072
100072
100072
100071
100070
100069
100066
100064
100060
100056
100052
100046
100040
100034
100026
100018
100009
99999.6
99989.3
99978.4
99966.8
99954.6
99941.8
99928.4
99914.4
99900
99885
99869.7
99853.9
99837.7
99821.2
99804.4
99787.2
99769.7
99752
99734
99715.8
99697.3
99678.6
99659.7
99640.6
99621.2
99601.6
99581.7
99561.6
99541.3
99520.6
99499.6
99478.2
99456.4
99434.1
99411
99387.1
99362.1
99335.5
99307.3
99277.1
99245.2
99212.5
99180.9
99152
99127.6
99101.5
99055.6
98963.6
98683.8
98171.3
99997.1
100001
100006
100009
100012
100016
100020
100024
100026
100027
100029
100032
100035
100038
100040
100041
100042
100044
100048
100051
100053
100055
100058
100060
100062
100064
100066
100067
100069
100070
100071
100072
100072
100072
100073
100072
100072
100070
100069
100067
100064
100061
100057
100052
100047
100041
100034
100026
100018
100009
99999.7
99989.4
99978.4
99966.8
99954.6
99941.7
99928.3
99914.3
99899.9
99884.9
99869.5
99853.7
99837.5
99821
99804.1
99787
99769.6
99751.9
99734
99715.8
99697.4
99678.9
99660
99641
99621.8
99602.4
99582.7
99562.7
99542.6
99522.1
99501.3
99480.1
99458.4
99436.3
99413.4
99389.6
99364.8
99338.5
99310.6
99281.1
99250.2
99219.2
99189.8
99164.1
99143.4
99119.6
99088.9
99033.9
98892.2
98994.3
99997.3
100001
100006
100009
100012
100016
100020
100024
100026
100026
100029
100032
100034
100038
100041
100041
100041
100044
100048
100052
100053
100055
100059
100060
100061
100065
100067
100068
100069
100070
100071
100072
100073
100073
100073
100073
100072
100071
100069
100067
100065
100061
100057
100053
100047
100041
100034
100027
100019
100010
100000
99989.8
99978.9
99967.3
99955
99942.2
99928.8
99914.8
99900.4
99885.4
99870
99854.3
99838.1
99821.6
99804.8
99787.7
99770.3
99752.7
99734.9
99716.8
99698.5
99680
99661.3
99642.4
99623.2
99603.8
99584.2
99564.3
99544.1
99523.6
99502.8
99481.5
99459.8
99437.4
99414.4
99390.5
99365.5
99339.3
99311.7
99282.9
99253.6
99225.1
99199.3
99178.5
99163.9
99154.5
99152.5
99161.1
99194
99609.7
99996.2
100001
100007
100008
100013
100016
100020
100026
100027
100025
100028
100032
100034
100038
100043
100041
100040
100043
100048
100053
100053
100054
100060
100061
100061
100066
100067
100068
100070
100071
100072
100073
100073
100074
100074
100073
100073
100072
100070
100068
100065
100062
100058
100053
100048
100042
100035
100028
100019
100010
100001
99990.6
99979.6
99968
99955.8
99943
99929.6
99915.7
99901.3
99886.3
99871
99855.2
99839.1
99822.6
99805.9
99788.8
99771.5
99753.9
99736
99718
99699.7
99681.2
99662.5
99643.6
99624.4
99605
99585.3
99565.4
99545.1
99524.5
99503.5
99482.1
99460.1
99437.5
99414.2
99390.1
99365
99338.8
99311.7
99283.9
99256.4
99231.1
99210.2
99196
99192.1
99204.2
99242.5
99334.1
99529.9
100091
99989.4
100001
100008
100009
100012
100016
100022
100027
100027
100024
100028
100032
100033
100039
100045
100041
100038
100041
100049
100055
100053
100054
100060
100060
100062
100066
100067
100069
100070
100071
100072
100073
100074
100074
100074
100074
100073
100072
100071
100069
100066
100063
100059
100054
100049
100043
100036
100028
100020
100011
100002
99991.5
99980.6
99969
99956.8
99944
99930.6
99916.7
99902.2
99887.3
99872
99856.2
99840.1
99823.7
99806.9
99789.8
99772.5
99754.9
99737.1
99719
99700.7
99682.2
99663.5
99644.5
99625.3
99605.9
99586.1
99566.1
99545.7
99524.9
99503.7
99482
99459.8
99437
99413.3
99388.9
99363.6
99337.5
99310.9
99284.1
99258.6
99236.7
99221
99214.6
99224.4
99262
99347.3
99526.1
99850.2
100464
99988.8
100003
100009
100011
100009
100015
100025
100027
100027
100026
100027
100030
100035
100041
100046
100042
100037
100039
100050
100056
100053
100056
100059
100059
100065
100065
100067
100071
100070
100072
100073
100074
100074
100075
100075
100075
100074
100073
100071
100069
100067
100063
100059
100055
100049
100043
100037
100029
100021
100012
100003
99992.3
99981.3
99969.8
99957.6
99944.8
99931.4
99917.5
99903.1
99888.2
99872.8
99857.1
99841
99824.5
99807.7
99790.7
99773.4
99755.8
99737.9
99719.9
99701.6
99683
99664.3
99645.3
99626
99606.5
99586.7
99566.5
99546
99525.1
99503.7
99481.8
99459.2
99436
99412.1
99387.4
99361.9
99335.8
99309.5
99283.8
99260.2
99241.3
99230.6
99232.2
99256.2
99319.8
99451.6
99709.4
100123
100743
100011
100005
100010
100013
100009
100015
100025
100028
100027
100028
100026
100029
100037
100042
100044
100043
100038
100036
100049
100057
100054
100058
100056
100059
100067
100064
100067
100072
100070
100072
100073
100074
100075
100075
100075
100075
100075
100073
100072
100070
100067
100064
100060
100055
100050
100044
100037
100030
100021
100013
100003
99992.7
99981.8
99970.3
99958.1
99945.3
99931.9
99918
99903.6
99888.7
99873.4
99857.6
99841.5
99825.1
99808.3
99791.2
99773.9
99756.4
99738.6
99720.5
99702.2
99683.7
99665
99646
99626.7
99607.2
99587.3
99567.1
99546.4
99525.3
99503.7
99481.6
99458.7
99435.2
99410.9
99385.8
99360.1
99333.9
99307.9
99283
99260.9
99244.3
99237.7
99246.5
99283
99369.1
99541.1
99861.4
100332
100939
100029
100007
100011
100014
100009
100015
100025
100031
100026
100027
100028
100029
100036
100042
100043
100043
100039
100037
100047
100056
100057
100059
100055
100059
100067
100064
100068
100071
100071
100073
100074
100074
100075
100075
100076
100076
100075
100074
100072
100070
100067
100064
100060
100055
100050
100044
100037
100030
100022
100013
100003
99992.9
99982
99970.4
99958.2
99945.4
99932.1
99918.2
99903.8
99888.9
99873.6
99857.9
99841.8
99825.4
99808.7
99791.6
99774.4
99756.8
99739.1
99721.1
99702.8
99684.4
99665.6
99646.7
99627.4
99607.9
99587.9
99567.7
99546.9
99525.7
99503.9
99481.5
99458.4
99434.5
99409.8
99384.3
99358.2
99332
99306.1
99281.6
99260.4
99245.5
99241.6
99255.6
99301.1
99403.8
99604.6
99967.6
100470
101064
100024
100009
100012
100012
100009
100014
100024
100032
100027
100027
100030
100030
100034
100041
100043
100043
100041
100038
100045
100057
100058
100057
100056
100059
100065
100066
100068
100070
100071
100073
100074
100074
100075
100076
100076
100076
100075
100074
100073
100070
100068
100064
100060
100056
100050
100044
100037
100030
100022
100013
100003
99992.9
99982
99970.4
99958.2
99945.5
99932.1
99918.2
99903.9
99889
99873.7
99858
99842
99825.6
99808.9
99791.9
99774.7
99757.2
99739.5
99721.5
99703.3
99684.9
99666.3
99647.3
99628.1
99608.5
99588.6
99568.3
99547.5
99526.1
99504.2
99481.5
99458.1
99433.9
99408.8
99382.9
99356.5
99329.9
99303.8
99279.4
99258.7
99244.5
99241.7
99258.4
99308.9
99419.5
99634.8
100019
100535
101123
100004
100009
100014
100010
100008
100013
100024
100032
100028
100029
100031
100029
100033
100039
100043
100042
100044
100038
100043
100059
100058
100055
100058
100059
100064
100068
100067
100070
100072
100072
100074
100074
100075
100075
100076
100076
100075
100074
100072
100070
100068
100064
100060
100056
100050
100044
100037
100030
100022
100013
100003
99992.9
99982
99970.4
99958.2
99945.5
99932.1
99918.3
99903.9
99889.1
99873.8
99858.1
99842.1
99825.7
99809
99792.1
99774.9
99757.5
99739.8
99721.9
99703.7
99685.4
99666.8
99647.9
99628.7
99609.1
99589.2
99568.9
99548
99526.5
99504.4
99481.5
99457.8
99433.2
99407.8
99381.5
99354.5
99327.4
99300.9
99276.3
99255.4
99241
99237.9
99254.3
99304.5
99414.4
99628.1
100010
100525
101112
99993.6
100009
100012
100011
100009
100012
100023
100030
100030
100030
100030
100031
100032
100038
100043
100043
100045
100039
100044
100058
100057
100054
100057
100060
100063
100069
100068
100069
100072
100072
100073
100074
100075
100075
100075
100075
100075
100074
100072
100070
100067
100064
100060
100055
100050
100044
100037
100030
100022
100013
100003
99992.9
99982
99970.4
99958.2
99945.5
99932.1
99918.2
99903.9
99889
99873.8
99858.1
99842.1
99825.7
99809.1
99792.1
99775
99757.6
99739.9
99722.1
99704
99685.7
99667.1
99648.3
99629.1
99609.6
99589.7
99569.3
99548.4
99526.9
99504.6
99481.5
99457.6
99432.7
99406.8
99379.9
99352.4
99324.7
99297.6
99272.4
99250.8
99235.1
99230.2
99243.6
99288.5
99388.6
99585.3
99942.6
100441
101034
100007
100009
100011
100014
100010
100013
100022
100027
100030
100030
100030
100032
100030
100037
100043
100043
100045
100040
100046
100057
100056
100054
100055
100061
100063
100067
100069
100069
100072
100072
100073
100074
100075
100075
100075
100075
100074
100073
100072
100070
100067
100064
100060
100055
100050
100044
100037
100030
100021
100013
100003
99992.7
99981.8
99970.2
99958
99945.3
99931.9
99918.1
99903.7
99888.8
99873.6
99857.9
99841.9
99825.6
99808.9
99792
99774.9
99757.6
99740
99722.2
99704.2
99685.9
99667.4
99648.6
99629.5
99610.1
99590.2
99569.8
99548.9
99527.2
99504.9
99481.6
99457.4
99432.2
99405.9
99378.6
99350.4
99322
99293.9
99267.7
99244.9
99227.5
99219.3
99227.4
99262.6
99345
99510.8
99822.7
100287
100895
100019
100008
100011
100016
100009
100016
100021
100025
100031
100029
100031
100033
100029
100037
100043
100042
100045
100042
100046
100054
100056
100055
100053
100061
100064
100065
100069
100069
100071
100072
100073
100074
100074
100075
100075
100075
100074
100073
100071
100069
100066
100063
100059
100055
100049
100043
100036
100029
100021
100012
100002
99992.2
99981.3
99969.7
99957.5
99944.8
99931.4
99917.5
99903.2
99888.3
99873.1
99857.5
99841.5
99825.2
99808.6
99791.8
99774.7
99757.4
99739.9
99722.2
99704.2
99686.1
99667.6
99648.9
99629.9
99610.5
99590.7
99570.3
99549.4
99527.7
99505.3
99481.9
99457.5
99432
99405.3
99377.5
99348.7
99319.3
99290.2
99262.5
99238.1
99218.3
99206.2
99207.2
99229.4
99288.3
99412.5
99659.5
100064
100683
100012
100007
100010
100015
100010
100017
100021
100024
100030
100029
100031
100032
100030
100037
100043
100042
100044
100044
100047
100052
100056
100055
100054
100060
100064
100064
100068
100069
100070
100071
100072
100073
100074
100074
100074
100074
100073
100072
100071
100069
100066
100063
100059
100054
100049
100043
100036
100028
100020
100011
100002
99991.4
99980.5
99968.9
99956.8
99944
99930.6
99916.8
99902.4
99887.6
99872.4
99856.7
99840.8
99824.5
99808
99791.2
99774.2
99757
99739.5
99721.9
99704
99686
99667.6
99649
99630.1
99610.8
99591.1
99570.8
99549.9
99528.2
99505.7
99482.2
99457.7
99432
99405
99376.6
99347.1
99316.8
99286.5
99257.2
99230.7
99208.3
99192.1
99185.2
99192.9
99225.6
99302.3
99468.8
99780
100390
100003
100006
100010
100013
100012
100017
100021
100024
100028
100029
100031
100032
100032
100037
100041
100042
100043
100045
100048
100051
100055
100056
100056
100059
100063
100064
100067
100070
100069
100071
100072
100073
100073
100074
100074
100073
100073
100072
100070
100068
100065
100062
100058
100053
100048
100042
100035
100028
100019
100011
100001
99990.6
99979.7
99968.1
99955.9
99943.1
99929.8
99915.9
99901.5
99886.7
99871.5
99855.9
99839.9
99823.7
99807.2
99790.4
99773.4
99756.3
99738.9
99721.3
99703.5
99685.5
99667.3
99648.8
99630
99610.8
99591.1
99570.9
99550
99528.4
99505.9
99482.3
99457.7
99431.8
99404.5
99375.7
99345.6
99314.5
99282.8
99251.9
99223.3
99198.2
99178.1
99164.1
99158
99165.2
99194.8
99273.3
99453
100003
100000
100005
100009
100012
100013
100017
100020
100024
100027
100029
100031
100032
100033
100037
100040
100042
100043
100045
100048
100051
100054
100056
100057
100059
100063
100064
100066
100069
100069
100070
100071
100072
100073
100073
100073
100073
100072
100071
100069
100067
100065
100061
100057
100053
100047
100041
100034
100027
100019
100010
100000
99989.9
99979
99967.4
99955.2
99942.4
99929.1
99915.2
99900.8
99886
99870.7
99855.1
99839.1
99822.9
99806.4
99789.6
99772.7
99755.5
99738.1
99720.6
99702.8
99684.9
99666.7
99648.2
99629.4
99610.3
99590.7
99570.5
99549.7
99528.1
99505.5
99482
99457.3
99431.2
99403.6
99374.6
99344
99312
99279.3
99246.8
99216.2
99188.7
99165.3
99146.1
99129
99115.1
99104.7
99100.3
99114.5
99510.4
99999.4
100005
100009
100012
100014
100017
100020
100023
100026
100028
100030
100032
100034
100037
100040
100042
100044
100046
100048
100051
100053
100055
100057
100059
100062
100064
100066
100068
100069
100070
100071
100072
100072
100073
100073
100072
100072
100070
100069
100067
100064
100061
100057
100052
100047
100041
100034
100027
100018
100009
99999.8
99989.6
99978.6
99967
99954.8
99942
99928.7
99914.8
99900.4
99885.6
99870.3
99854.7
99838.7
99822.5
99806
99789.2
99772.2
99755
99737.6
99720.1
99702.3
99684.3
99666.1
99647.6
99628.7
99609.5
99589.9
99569.6
99548.8
99527.1
99504.5
99480.9
99456.1
99429.9
99402.2
99372.8
99341.8
99309.3
99275.6
99241.8
99209.6
99180.4
99154.5
99132.8
99109.2
99081.2
99042.5
98975
98813.3
98881.7
99999.1
100004
100008
100011
100014
100017
100020
100023
100026
100028
100030
100032
100034
100037
100040
100042
100044
100046
100048
100051
100053
100055
100057
100059
100062
100064
100066
100068
100069
100070
100071
100072
100072
100072
100072
100072
100071
100070
100069
100067
100064
100060
100057
100052
100047
100041
100034
100026
100018
100009
99999.8
99989.6
99978.6
99967.1
99954.9
99942.1
99928.8
99915
99900.6
99885.8
99870.6
99855
99839.1
99822.9
99806.4
99789.6
99772.6
99755.4
99738
99720.4
99702.6
99684.5
99666.3
99647.7
99628.8
99609.5
99589.7
99569.3
99548.3
99526.4
99503.7
99479.9
99454.7
99428.3
99400.2
99370.5
99338.9
99305.7
99271.1
99236.2
99202.5
99171.7
99143.8
99119.6
99097.1
99064.4
99010.5
98906
98605.7
98036.4
99999
100004
100008
100011
100014
100017
100020
100023
100026
100028
100030
100032
100035
100037
100040
100043
100045
100047
100050
100053
100055
100057
100059
100062
100064
100066
100069
100070
100072
100073
100074
100075
100075
100075
100075
100075
100074
100073
100071
100069
100066
100062
100058
100053
100048
100042
100035
100027
100019
100010
100001
99990.5
99979.6
99968.1
99955.9
99943.1
99929.7
99915.9
99901.6
99886.8
99871.6
99856
99840.1
99823.9
99807.4
99790.6
99773.6
99756.4
99739
99721.4
99703.6
99685.6
99667.3
99648.7
99629.8
99610.5
99590.7
99570.3
99549.3
99527.4
99504.7
99480.8
99455.6
99429.1
99401
99371.1
99339.4
99306
99271.2
99236.3
99202.8
99172.4
99146
99119.8
99089
99047.4
98990
98875
98509.6
96904.5
100532
101747
102262
102554
102752
102901
103018
103113
103191
103255
103309
103354
103392
103423
103448
103468
103483
103494
103500
103500
100481
101462
102063
102440
102692
102872
103009
103116
103202
103272
103330
103377
103417
103449
103475
103495
103510
103521
103526
103524
100745
101482
102000
102377
102647
102846
102997
103114
103207
103283
103344
103394
103435
103468
103495
103515
103530
103540
103544
103543
100996
101595
102035
102378
102641
102842
102999
103121
103219
103298
103362
103414
103456
103489
103516
103536
103550
103559
103562
103561
101207
101715
102100
102411
102658
102855
103011
103135
103235
103316
103381
103434
103476
103510
103536
103555
103569
103576
103579
103576
101383
101825
102171
102456
102688
102877
103030
103153
103254
103335
103401
103454
103497
103530
103555
103574
103586
103592
103593
103590
101523
101918
102236
102501
102721
102902
103051
103173
103272
103354
103420
103473
103515
103548
103573
103590
103601
103606
103606
103600
101627
101990
102288
102540
102751
102926
103071
103191
103290
103371
103437
103490
103532
103565
103589
103605
103614
103617
103616
103608
101697
102040
102327
102570
102775
102946
103089
103208
103306
103386
103452
103504
103546
103578
103601
103616
103624
103626
103623
103613
101734
102068
102349
102588
102790
102960
103101
103218
103315
103395
103460
103512
103554
103585
103608
103623
103630
103631
103627
103616
101724
102059
102340
102579
102782
102952
103093
103211
103309
103389
103454
103507
103549
103581
103604
103619
103627
103628
103625
103613
101672
102017
102305
102549
102755
102928
103072
103191
103290
103372
103438
103492
103535
103568
103592
103608
103617
103620
103618
103608
101591
101956
102256
102510
102723
102900
103047
103169
103269
103352
103419
103474
103517
103551
103577
103594
103605
103609
103608
103601
101474
101873
102194
102462
102685
102869
103021
103145
103247
103330
103398
103453
103497
103532
103558
103577
103589
103596
103596
103591
101323
101770
102120
102408
102645
102837
102993
103120
103223
103307
103375
103431
103475
103511
103538
103558
103572
103580
103582
103578
101138
101651
102041
102356
102608
102809
102969
103098
103201
103284
103352
103408
103452
103488
103516
103537
103552
103561
103565
103562
100916
101522
101968
102317
102586
102792
102953
103080
103182
103263
103330
103385
103429
103465
103493
103515
103531
103541
103546
103544
100655
101400
101926
102311
102588
102793
102948
103070
103167
103246
103310
103363
103406
103442
103470
103492
103509
103520
103525
103524
100379
101374
101987
102373
102631
102817
102959
103070
103160
103233
103294
103344
103386
103420
103448
103470
103487
103499
103504
103503
100420
101659
102185
102485
102690
102845
102966
103065
103146
103214
103271
103318
103358
103391
103419
103440
103457
103469
103475
103475
103351
103349
103348
103347
103347
103346
103345
103345
103345
103345
103345
103345
103345
103345
103346
103346
103347
103348
103349
103351
103348
103346
103345
103345
103345
103344
103344
103344
103344
103344
103344
103344
103344
103344
103344
103345
103345
103345
103346
103348
103347
103345
103345
103345
103345
103345
103345
103345
103345
103345
103345
103345
103345
103345
103345
103345
103345
103345
103345
103347
103347
103345
103345
103345
103345
103345
103345
103345
103345
103345
103345
103345
103345
103345
103345
103345
103345
103345
103345
103347
103347
103345
103345
103345
103345
103344
103344
103344
103344
103344
103344
103344
103344
103344
103344
103345
103345
103345
103345
103347
103346
103344
103344
103344
103344
103344
103344
103344
103344
103344
103344
103344
103344
103344
103344
103344
103344
103344
103344
103346
103345
103344
103344
103344
103343
103343
103343
103343
103343
103343
103343
103343
103343
103343
103343
103343
103344
103344
103344
103345
103345
103343
103343
103343
103343
103343
103343
103343
103343
103343
103343
103343
103343
103343
103343
103343
103343
103343
103343
103345
103344
103342
103342
103342
103342
103342
103342
103342
103342
103342
103342
103342
103342
103342
103342
103342
103342
103342
103342
103344
103343
103342
103342
103342
103341
103341
103341
103341
103341
103341
103341
103341
103341
103341
103341
103341
103342
103342
103342
103343
103343
103341
103341
103341
103341
103341
103341
103341
103341
103341
103341
103341
103341
103341
103341
103341
103341
103341
103341
103343
103342
103340
103340
103340
103340
103340
103340
103340
103340
103340
103340
103340
103340
103340
103340
103340
103340
103340
103340
103342
103341
103340
103339
103339
103339
103339
103339
103339
103339
103339
103339
103339
103339
103339
103339
103339
103339
103339
103340
103341
103340
103339
103339
103339
103338
103338
103339
103339
103339
103339
103339
103339
103339
103339
103338
103338
103339
103339
103339
103340
103340
103338
103338
103338
103338
103338
103338
103338
103338
103338
103338
103338
103338
103338
103338
103338
103338
103338
103338
103340
103339
103337
103337
103337
103337
103337
103337
103337
103337
103338
103338
103337
103337
103337
103337
103337
103337
103337
103337
103339
103338
103336
103336
103336
103336
103336
103336
103337
103337
103337
103337
103337
103337
103336
103336
103336
103336
103336
103336
103338
103337
103335
103335
103335
103335
103335
103336
103336
103336
103337
103337
103336
103336
103336
103335
103335
103335
103335
103335
103337
103335
103333
103333
103333
103334
103334
103334
103334
103334
103334
103334
103334
103334
103334
103334
103334
103333
103333
103333
103335
103334
103332
103332
103332
103332
103332
103332
103332
103332
103331
103331
103332
103332
103332
103332
103332
103332
103332
103332
103334
103332
103330
103330
103330
103330
103331
103331
103332
103334
103334
103334
103334
103332
103331
103331
103330
103330
103330
103330
103332
103331
103329
103329
103329
103329
103329
103330
103331
103332
103332
103332
103332
103331
103330
103329
103329
103329
103329
103329
103331
103329
103327
103327
103327
103327
103326
103326
103325
103324
103324
103324
103324
103325
103326
103326
103327
103327
103327
103327
103329
103327
103325
103325
103325
103325
103325
103326
103326
103326
103326
103326
103326
103326
103326
103325
103325
103325
103325
103325
103327
103325
103323
103323
103323
103324
103325
103326
103327
103328
103328
103328
103328
103327
103326
103325
103324
103324
103323
103323
103325
103323
103321
103321
103321
103321
103321
103320
103319
103318
103318
103318
103318
103319
103320
103321
103321
103321
103321
103321
103323
103321
103319
103319
103319
103319
103319
103319
103319
103319
103319
103318
103319
103319
103319
103319
103319
103319
103319
103319
103321
103318
103317
103317
103317
103317
103318
103318
103319
103319
103320
103320
103320
103320
103319
103318
103318
103317
103317
103317
103318
103316
103315
103315
103315
103315
103314
103314
103313
103312
103312
103313
103313
103313
103313
103314
103315
103315
103315
103315
103316
103315
103314
103313
103313
103313
103313
103313
103313
103313
103313
103313
103313
103313
103314
103313
103313
103313
103313
103313
103315
103313
103312
103312
103312
103312
103313
103313
103314
103314
103315
103315
103315
103314
103313
103312
103312
103312
103312
103312
103313
103311
103311
103311
103311
103311
103310
103310
103309
103307
103307
103307
103307
103307
103308
103309
103310
103310
103310
103310
103311
103310
103309
103309
103309
103309
103309
103308
103308
103307
103306
103306
103306
103307
103308
103308
103309
103309
103309
103309
103310
103308
103308
103308
103308
103308
103309
103309
103310
103310
103310
103310
103310
103310
103309
103309
103309
103308
103308
103308
103309
103307
103306
103306
103306
103306
103306
103306
103307
103308
103309
103309
103308
103307
103307
103307
103307
103307
103307
103307
103307
103305
103305
103305
103305
103304
103304
103304
103305
103306
103307
103307
103306
103305
103304
103304
103305
103305
103305
103305
103306
103304
103304
103304
103304
103304
103304
103303
103303
103302
103301
103302
103303
103304
103305
103305
103305
103305
103304
103304
103305
103302
103302
103302
103302
103302
103302
103302
103302
103301
103300
103300
103301
103302
103303
103303
103303
103303
103303
103303
103303
103301
103301
103301
103301
103301
103302
103302
103302
103302
103303
103303
103303
103303
103302
103302
103302
103302
103302
103302
103302
103299
103299
103299
103299
103299
103299
103300
103300
103302
103304
103305
103305
103305
103304
103303
103302
103301
103300
103300
103300
103298
103297
103297
103297
103297
103298
103298
103298
103298
103299
103301
103302
103301
103300
103299
103298
103298
103298
103298
103298
103296
103296
103296
103296
103295
103295
103295
103294
103293
103291
103291
103291
103292
103293
103294
103295
103295
103296
103296
103296
103294
103294
103294
103294
103294
103294
103293
103292
103292
103291
103290
103289
103290
103292
103292
103293
103294
103294
103294
103294
103293
103293
103293
103293
103293
103294
103293
103293
103293
103292
103292
103292
103291
103291
103292
103292
103292
103292
103292
103292
103292
103292
103292
103292
103292
103292
103293
103293
103292
103292
103292
103291
103291
103291
103291
103291
103291
103291
103291
103291
103290
103290
103290
103290
103290
103289
103289
103290
103290
103291
103291
103291
103290
103290
103289
103289
103290
103290
103290
103290
103289
103289
103289
103289
103288
103288
103288
103288
103288
103289
103290
103289
103289
103289
103289
103289
103289
103289
103289
103289
103287
103287
103287
103287
103287
103287
103287
103287
103287
103286
103286
103286
103287
103288
103287
103287
103287
103287
103287
103287
103286
103286
103286
103286
103286
103286
103285
103285
103286
103285
103285
103285
103285
103285
103286
103286
103286
103286
103286
103286
103285
103285
103285
103285
103285
103286
103286
103286
103287
103287
103287
103286
103285
103285
103285
103285
103285
103285
103285
103285
103284
103284
103284
103284
103284
103284
103285
103285
103286
103287
103286
103285
103285
103284
103284
103284
103284
103284
103284
103284
103283
103283
103284
103284
103284
103284
103284
103283
103282
103282
103282
103283
103283
103283
103283
103283
103283
103283
103283
103283
103282
103282
103282
103282
103282
103282
103283
103282
103281
103280
103280
103281
103281
103281
103281
103282
103282
103282
103282
103282
103281
103281
103281
103281
103281
103281
103281
103282
103282
103281
103280
103280
103280
103280
103280
103281
103281
103281
103281
103281
103280
103280
103280
103280
103280
103280
103278
103278
103279
103280
103279
103280
103280
103281
103280
103280
103280
103280
103280
103280
103279
103279
103279
103278
103278
103278
103278
103277
103278
103278
103279
103279
103280
103280
103280
103280
103280
103279
103279
103279
103278
103278
103278
103278
103278
103278
103278
103279
103279
103279
103279
103279
103279
103278
103279
103278
103278
103278
103278
103278
103277
103277
103277
103277
103278
103279
103279
103279
103279
103278
103278
103278
103278
103278
103278
103277
103277
103277
103277
103277
103275
103275
103275
103275
103275
103276
103276
103277
103277
103276
103275
103275
103275
103274
103274
103274
103275
103275
103275
103275
103274
103274
103274
103274
103273
103273
103273
103272
103272
103272
103273
103273
103273
103272
103273
103273
103273
103273
103274
103274
103273
103273
103273
103273
103272
103272
103272
103271
103271
103272
103273
103273
103273
103273
103272
103272
103272
103272
103272
103272
103271
103271
103271
103271
103272
103272
103272
103272
103273
103273
103273
103272
103272
103271
103270
103271
103271
103271
103271
103271
103270
103270
103270
103270
103270
103270
103271
103271
103271
103270
103270
103269
103270
103271
103271
103271
103271
103270
103270
103270
103268
103268
103268
103268
103268
103268
103268
103268
103268
103268
103267
103269
103270
103270
103269
103269
103269
103269
103269
103269
103267
103267
103267
103267
103266
103266
103266
103266
103266
103266
103267
103267
103267
103267
103268
103268
103268
103268
103268
103268
103266
103266
103266
103266
103265
103265
103265
103265
103266
103267
103267
103266
103266
103266
103266
103266
103266
103266
103266
103266
103265
103265
103265
103265
103265
103265
103265
103265
103265
103265
103265
103264
103264
103265
103264
103264
103265
103265
103265
103265
103264
103264
103264
103264
103264
103264
103265
103265
103264
103265
103264
103264
103263
103263
103263
103264
103264
103264
103264
103264
103262
103263
103263
103263
103263
103264
103264
103265
103266
103265
103264
103263
103263
103263
103263
103263
103262
103263
103263
103263
103261
103261
103261
103261
103261
103261
103261
103262
103262
103262
103261
103261
103262
103262
103262
103262
103262
103262
103261
103261
103260
103260
103260
103259
103259
103259
103258
103256
103256
103257
103259
103260
103260
103259
103260
103260
103260
103260
103260
103260
103259
103259
103258
103258
103258
103258
103257
103256
103256
103256
103257
103257
103258
103258
103258
103259
103259
103259
103259
103259
103257
103257
103257
103257
103258
103258
103258
103258
103258
103258
103257
103257
103257
103257
103257
103257
103258
103258
103258
103258
103256
103256
103256
103257
103257
103257
103257
103257
103257
103257
103257
103257
103256
103256
103256
103257
103257
103257
103257
103257
103255
103255
103255
103255
103255
103255
103255
103255
103255
103256
103256
103256
103256
103256
103256
103256
103256
103256
103256
103256
103254
103254
103254
103254
103254
103253
103253
103253
103254
103255
103255
103256
103256
103256
103256
103255
103255
103255
103255
103255
103253
103253
103253
103254
103254
103255
103255
103255
103255
103255
103255
103256
103255
103255
103254
103254
103254
103254
103254
103254
103252
103252
103252
103252
103252
103252
103252
103253
103253
103253
103252
103252
103252
103252
103252
103253
103253
103253
103253
103253
103251
103251
103251
103251
103251
103251
103250
103251
103251
103251
103251
103250
103250
103251
103252
103252
103252
103252
103252
103252
103249
103249
103249
103249
103250
103250
103250
103250
103250
103250
103251
103251
103252
103251
103251
103251
103251
103251
103252
103252
103248
103248
103248
103248
103248
103248
103248
103249
103249
103249
103249
103250
103251
103252
103252
103251
103251
103251
103251
103251
103247
103247
103247
103247
103248
103248
103249
103249
103249
103249
103249
103248
103249
103249
103249
103249
103250
103250
103250
103250
103245
103245
103245
103246
103246
103246
103246
103247
103248
103249
103249
103250
103249
103248