/*--------------------------------*- C++ -*----------------------------------*\
| =========                 |                                                 |
| \\      /  F ield         | OpenFOAM: The Open Source CFD Toolbox           |
|  \\    /   O peration     | Version:  2.1.0                                 |
|   \\  /    A nd           | Web:      www.OpenFOAM.org                      |
|    \\/     M anipulation  |                                                 |
\*---------------------------------------------------------------------------*/
FoamFile
{
    version     2.0;
    format      ascii;
    class       surfaceScalarField;
    location    "0.06";
    object      phi;
}
// * * * * * * * * * * * * * * * * * * * * * * * * * * * * * * * * * * * * * //

dimensions      [0 3 -1 0 0 0 0];

internalField   nonuniform List<scalar> 
12460
(
-3.05593e-05
1.59729e-08
-3.05702e-05
1.0904e-08
-3.05777e-05
7.50726e-09
-3.05828e-05
5.0697e-09
-3.05856e-05
2.79337e-09
-3.05859e-05
3.47684e-10
-3.05847e-05
-1.19511e-09
-3.05825e-05
-2.23496e-09
-3.058e-05
-2.48602e-09
-3.05777e-05
-2.29602e-09
-3.05748e-05
-2.96258e-09
-3.05709e-05
-3.86432e-09
-3.05674e-05
-3.51191e-09
-3.05642e-05
-3.17177e-09
-3.05608e-05
-3.37631e-09
-3.05578e-05
-3.03399e-09
-3.05553e-05
-2.51427e-09
-3.05521e-05
-3.19819e-09
-3.05466e-05
-5.46346e-09
-3.05386e-05
-8.07666e-09
-3.05277e-05
-1.0813e-08
-3.05144e-05
-1.33605e-08
-3.04979e-05
-1.65123e-08
-3.04778e-05
-2.00656e-08
-3.04541e-05
-2.37431e-08
-3.04246e-05
-2.94482e-08
-3.03866e-05
-3.80341e-08
-3.03395e-05
-4.70338e-08
-3.02846e-05
-5.49162e-08
-3.02215e-05
-6.31167e-08
-3.0149e-05
-7.24692e-08
-3.00659e-05
-8.31601e-08
-2.99705e-05
-9.54255e-08
-2.98611e-05
-1.09355e-07
-2.97362e-05
-1.24941e-07
-2.9594e-05
-1.42174e-07
-2.9433e-05
-1.60982e-07
-2.92518e-05
-1.81228e-07
-2.9049e-05
-2.02752e-07
-2.88237e-05
-2.25364e-07
-2.85748e-05
-2.48814e-07
-2.83021e-05
-2.72776e-07
-2.80052e-05
-2.96917e-07
-2.76843e-05
-3.20875e-07
-2.734e-05
-3.44276e-07
-2.69732e-05
-3.66788e-07
-2.65851e-05
-3.88159e-07
-2.61768e-05
-4.08234e-07
-2.57499e-05
-4.26934e-07
-2.53056e-05
-4.44263e-07
-2.48454e-05
-4.60269e-07
-2.43703e-05
-4.75033e-07
-2.38818e-05
-4.88519e-07
-2.33813e-05
-5.00503e-07
-2.28704e-05
-5.10856e-07
-2.2351e-05
-5.1949e-07
-2.18245e-05
-5.26408e-07
-2.12929e-05
-5.3169e-07
-2.07574e-05
-5.35434e-07
-2.02197e-05
-5.37756e-07
-1.96808e-05
-5.38857e-07
-1.91418e-05
-5.39039e-07
-1.86031e-05
-5.38666e-07
-1.80651e-05
-5.38044e-07
-1.75277e-05
-5.37322e-07
-1.69913e-05
-5.36463e-07
-1.64558e-05
-5.35434e-07
-1.59215e-05
-5.34334e-07
-1.53883e-05
-5.33236e-07
-1.48561e-05
-5.32183e-07
-1.43248e-05
-5.3128e-07
-1.37942e-05
-5.30632e-07
-1.32639e-05
-5.30312e-07
-1.27334e-05
-5.30484e-07
-1.22019e-05
-5.31444e-07
-1.16685e-05
-5.33402e-07
-1.11322e-05
-5.36298e-07
-1.05919e-05
-5.40365e-07
-1.00456e-05
-5.46228e-07
-9.49161e-06
-5.54028e-07
-8.92798e-06
-5.63636e-07
-8.3523e-06
-5.75682e-07
-7.76093e-06
-5.91361e-07
-7.14941e-06
-6.11522e-07
-6.51282e-06
-6.36594e-07
-5.84592e-06
-6.669e-07
-5.14371e-06
-7.02214e-07
-4.40305e-06
-7.4066e-07
-3.62546e-06
-7.77589e-07
-2.82151e-06
-8.03946e-07
-2.01927e-06
-8.02235e-07
-1.27893e-06
-7.40344e-07
-6.95257e-07
-5.83674e-07
-3.5871e-07
-3.36547e-07
-3.1177e-07
-4.69399e-08
-5.8287e-07
2.711e-07
-1.47377e-06
8.90898e-07
-3.68617e-06
2.21241e-06
-8.94559e-06
5.25941e-06
1.45364e-05
-2.3482e-05
-3.86503e-05
3.12511e-08
-3.86618e-05
2.24832e-08
-3.8669e-05
1.47004e-08
-3.86735e-05
9.4941e-09
-3.86749e-05
4.26549e-09
-3.86733e-05
-1.24485e-09
-3.86698e-05
-4.7075e-09
-3.86641e-05
-7.97561e-09
-3.86574e-05
-9.13536e-09
-3.86506e-05
-9.12381e-09
-3.86423e-05
-1.12996e-08
-3.86319e-05
-1.42609e-08
-3.8621e-05
-1.43572e-08
-3.86094e-05
-1.47573e-08
-3.85961e-05
-1.67631e-08
-3.85813e-05
-1.77934e-08
-3.85647e-05
-1.90644e-08
-3.85443e-05
-2.36712e-08
-3.85179e-05
-3.18616e-08
-3.84838e-05
-4.21804e-08
-3.84414e-05
-5.31626e-08
-3.83912e-05
-6.36237e-08
-3.83319e-05
-7.57578e-08
-3.82626e-05
-8.94308e-08
-3.81828e-05
-1.03475e-07
-3.809e-05
-1.22311e-07
-3.79797e-05
-1.48259e-07
-3.78522e-05
-1.74569e-07
-3.77097e-05
-1.97421e-07
-3.7552e-05
-2.20779e-07
-3.7378e-05
-2.46458e-07
-3.71866e-05
-2.74629e-07
-3.69764e-05
-3.05551e-07
-3.67466e-05
-3.39153e-07
-3.64963e-05
-3.75244e-07
-3.62251e-05
-4.1343e-07
-3.59329e-05
-4.53146e-07
-3.56203e-05
-4.93815e-07
-3.52881e-05
-5.35008e-07
-3.49371e-05
-5.76383e-07
-3.45684e-05
-6.17523e-07
-3.41832e-05
-6.57934e-07
-3.37829e-05
-6.97205e-07
-3.33689e-05
-7.3493e-07
-3.29424e-05
-7.70704e-07
-3.25051e-05
-8.04159e-07
-3.20582e-05
-8.35009e-07
-3.16034e-05
-8.63051e-07
-3.11422e-05
-8.88156e-07
-3.06761e-05
-9.10305e-07
-3.02068e-05
-9.29612e-07
-2.97355e-05
-9.463e-07
-2.92634e-05
-9.60597e-07
-2.87913e-05
-9.72629e-07
-2.83197e-05
-9.82453e-07
-2.78492e-05
-9.90014e-07
-2.73804e-05
-9.9523e-07
-2.6914e-05
-9.98086e-07
-2.64507e-05
-9.98659e-07
-2.59914e-05
-9.971e-07
-2.55366e-05
-9.93652e-07
-2.5087e-05
-9.88681e-07
-2.4643e-05
-9.82647e-07
-2.4205e-05
-9.7603e-07
-2.37731e-05
-9.69249e-07
-2.3347e-05
-9.62512e-07
-2.29266e-05
-9.55834e-07
-2.25117e-05
-9.49286e-07
-2.21019e-05
-9.42956e-07
-2.16972e-05
-9.36951e-07
-2.1297e-05
-9.31435e-07
-2.09011e-05
-9.26514e-07
-2.05092e-05
-9.22212e-07
-2.0121e-05
-9.18713e-07
-1.9736e-05
-9.16454e-07
-1.93536e-05
-9.15761e-07
-1.89734e-05
-9.16579e-07
-1.85946e-05
-9.1916e-07
-1.82165e-05
-9.24275e-07
-1.78381e-05
-9.32436e-07
-1.74576e-05
-9.44113e-07
-1.70731e-05
-9.60212e-07
-1.66828e-05
-9.8165e-07
-1.62847e-05
-1.00964e-06
-1.5876e-05
-1.04532e-06
-1.5454e-05
-1.08884e-06
-1.50169e-05
-1.13934e-06
-1.45634e-05
-1.19419e-06
-1.40943e-05
-1.24668e-06
-1.36143e-05
-1.28398e-06
-1.3133e-05
-1.28345e-06
-1.26661e-05
-1.20726e-06
-1.22457e-05
-1.00408e-06
-1.19495e-05
-6.32766e-07
-1.2006e-05
9.56505e-09
-1.25059e-05
7.70987e-07
-1.37583e-05
2.1433e-06
-1.62626e-05
4.7167e-06
-2.1002e-05
9.99885e-06
2.48681e-05
-3.13337e-05
-3.99894e-05
4.7842e-08
-3.99965e-05
2.96243e-08
-3.99992e-05
1.73937e-08
-4.00001e-05
1.03544e-08
-3.99982e-05
2.40966e-09
-3.99946e-05
-4.83286e-09
-3.99889e-05
-1.04804e-08
-3.99809e-05
-1.59494e-08
-3.99728e-05
-1.72329e-08
-3.99657e-05
-1.61905e-08
-3.99573e-05
-1.97012e-08
-3.99465e-05
-2.50952e-08
-3.9936e-05
-2.48835e-08
-3.99252e-05
-2.55385e-08
-3.99122e-05
-2.97772e-08
-3.98981e-05
-3.18881e-08
-3.98827e-05
-3.44332e-08
-3.98635e-05
-4.29085e-08
-3.98381e-05
-5.72859e-08
-3.9805e-05
-7.52255e-08
-3.9764e-05
-9.41731e-08
-3.9716e-05
-1.11618e-07
-3.96602e-05
-1.3154e-07
-3.95948e-05
-1.54836e-07
-3.95214e-05
-1.76927e-07
-3.94371e-05
-2.06577e-07
-3.93362e-05
-2.49118e-07
-3.92201e-05
-2.90726e-07
-3.90917e-05
-3.25761e-07
-3.89516e-05
-3.60904e-07
-3.87989e-05
-3.99185e-07
-3.86332e-05
-4.40284e-07
-3.84543e-05
-4.84513e-07
-3.82618e-05
-5.31628e-07
-3.80554e-05
-5.81612e-07
-3.78348e-05
-6.34081e-07
-3.75999e-05
-6.88033e-07
-3.73512e-05
-7.42457e-07
-3.70897e-05
-7.96604e-07
-3.68161e-05
-8.49943e-07
-3.65317e-05
-9.01887e-07
-3.62379e-05
-9.51781e-07
-3.59359e-05
-9.99185e-07
-3.56271e-05
-1.04375e-06
-3.53127e-05
-1.08513e-06
-3.49937e-05
-1.12308e-06
-3.46713e-05
-1.1574e-06
-3.43464e-05
-1.18797e-06
-3.40199e-05
-1.21468e-06
-3.36927e-05
-1.23752e-06
-3.33657e-05
-1.2566e-06
-3.30398e-05
-1.27221e-06
-3.27157e-05
-1.28469e-06
-3.23939e-05
-1.29439e-06
-3.20748e-05
-1.30156e-06
-3.17586e-05
-1.30629e-06
-3.14452e-05
-1.30859e-06
-3.11349e-05
-1.30841e-06
-3.08277e-05
-1.30581e-06
-3.0524e-05
-1.30086e-06
-3.02239e-05
-1.29371e-06
-2.9928e-05
-1.28458e-06
-2.96369e-05
-1.27375e-06
-2.93514e-05
-1.26157e-06
-2.90722e-05
-1.24839e-06
-2.88001e-05
-1.2346e-06
-2.85356e-05
-1.22036e-06
-2.82791e-05
-1.20582e-06
-2.8031e-05
-1.19106e-06
-2.77918e-05
-1.17612e-06
-2.75621e-05
-1.16116e-06
-2.73424e-05
-1.14625e-06
-2.71332e-05
-1.13131e-06
-2.69355e-05
-1.11644e-06
-2.675e-05
-1.102e-06
-2.65773e-05
-1.08839e-06
-2.6418e-05
-1.0759e-06
-2.62722e-05
-1.065e-06
-2.61402e-05
-1.05627e-06
-2.60222e-05
-1.05044e-06
-2.59177e-05
-1.04858e-06
-2.58261e-05
-1.05188e-06
-2.57467e-05
-1.06099e-06
-2.56786e-05
-1.07771e-06
-2.56202e-05
-1.10381e-06
-2.55696e-05
-1.13943e-06
-2.55253e-05
-1.18364e-06
-2.54863e-05
-1.23315e-06
-2.54527e-05
-1.28031e-06
-2.54258e-05
-1.3109e-06
-2.54084e-05
-1.30078e-06
-2.54054e-05
-1.21024e-06
-2.54263e-05
-9.83209e-07
-2.55092e-05
-5.4987e-07
-2.56547e-05
1.55097e-07
-2.60937e-05
1.20996e-06
-2.70094e-05
3.05898e-06
-2.87523e-05
6.45964e-06
-3.20062e-05
1.32527e-05
2.91161e-05
-3.62542e-05
-4.01227e-05
6.93462e-08
-4.0127e-05
3.39291e-08
-4.01283e-05
1.86636e-08
-4.01275e-05
9.49505e-09
-4.01257e-05
6.97916e-10
-4.01238e-05
-6.82705e-09
-4.01171e-05
-1.71551e-08
-4.01079e-05
-2.51171e-08
-4.01014e-05
-2.37069e-08
-4.00974e-05
-2.02182e-08
-4.00915e-05
-2.55647e-08
-4.00811e-05
-3.54928e-08
-4.00736e-05
-3.24299e-08
-4.00669e-05
-3.22051e-08
-4.00581e-05
-3.85662e-08
-4.00499e-05
-4.01108e-08
-4.00415e-05
-4.28094e-08
-4.00313e-05
-5.31255e-08
-4.00157e-05
-7.29123e-08
-3.99945e-05
-9.64076e-08
-3.99688e-05
-1.19877e-07
-3.99404e-05
-1.40003e-07
-3.99076e-05
-1.64377e-07
-3.98708e-05
-1.91635e-07
-3.98301e-05
-2.17633e-07
-3.97831e-05
-2.53608e-07
-3.97283e-05
-3.03852e-07
-3.9663e-05
-3.56077e-07
-3.95882e-05
-4.00534e-07
-3.95061e-05
-4.43004e-07
-3.94156e-05
-4.89714e-07
-3.93171e-05
-5.3879e-07
-3.92107e-05
-5.90896e-07
-3.90964e-05
-6.45943e-07
-3.89741e-05
-7.03895e-07
-3.88439e-05
-7.64286e-07
-3.8706e-05
-8.25865e-07
-3.85611e-05
-8.87364e-07
-3.84099e-05
-9.47832e-07
-3.82532e-05
-1.00666e-06
-3.80919e-05
-1.06316e-06
-3.79272e-05
-1.11652e-06
-3.776e-05
-1.16633e-06
-3.75914e-05
-1.21239e-06
-3.74221e-05
-1.25448e-06
-3.72527e-05
-1.29248e-06
-3.70837e-05
-1.32632e-06
-3.69158e-05
-1.35593e-06
-3.67493e-05
-1.38119e-06
-3.65848e-05
-1.40202e-06
-3.64228e-05
-1.41855e-06
-3.6264e-05
-1.43104e-06
-3.61088e-05
-1.4399e-06
-3.59576e-05
-1.4455e-06
-3.5811e-05
-1.44818e-06
-3.56692e-05
-1.44816e-06
-3.55321e-05
-1.4456e-06
-3.54e-05
-1.44061e-06
-3.52725e-05
-1.43324e-06
-3.51499e-05
-1.42351e-06
-3.50321e-05
-1.41145e-06
-3.49195e-05
-1.39716e-06
-3.48125e-05
-1.38082e-06
-3.47115e-05
-1.36258e-06
-3.46173e-05
-1.34257e-06
-3.45308e-05
-1.32109e-06
-3.44529e-05
-1.29827e-06
-3.43843e-05
-1.27439e-06
-3.43258e-05
-1.24956e-06
-3.42782e-05
-1.22373e-06
-3.42423e-05
-1.19708e-06
-3.42189e-05
-1.16965e-06
-3.42086e-05
-1.14161e-06
-3.42118e-05
-1.11323e-06
-3.4229e-05
-1.08483e-06
-3.42605e-05
-1.05683e-06
-3.43065e-05
-1.0299e-06
-3.43667e-05
-1.00488e-06
-3.44404e-05
-9.82583e-07
-3.4527e-05
-9.6378e-07
-3.46259e-05
-9.49697e-07
-3.47357e-05
-9.42081e-07
-3.48545e-05
-9.42168e-07
-3.49811e-05
-9.51111e-07
-3.51146e-05
-9.70355e-07
-3.52532e-05
-1.00076e-06
-3.53953e-05
-1.04156e-06
-3.55396e-05
-1.0889e-06
-3.56854e-05
-1.13448e-06
-3.58328e-05
-1.16346e-06
-3.5982e-05
-1.15159e-06
-3.61303e-05
-1.06192e-06
-3.6275e-05
-8.38569e-07
-3.64131e-05
-4.11704e-07
-3.65518e-05
2.93728e-07
-3.68076e-05
1.46576e-06
-3.72959e-05
3.54732e-06
-3.81766e-05
7.34037e-06
-3.96165e-05
1.46926e-05
2.9039e-05
-3.95394e-05
-4.00919e-05
8.34705e-08
-4.00901e-05
3.21582e-08
-4.0091e-05
1.95226e-08
-4.0086e-05
4.51144e-09
-4.00938e-05
8.46926e-09
-4.00955e-05
-5.13284e-09
-4.00825e-05
-3.01509e-08
-4.00747e-05
-3.28629e-08
-4.00729e-05
-2.55199e-08
-4.00685e-05
-2.46066e-08
-4.00627e-05
-3.1366e-08
-4.00578e-05
-4.03886e-08
-4.00505e-05
-3.97284e-08
-4.00435e-05
-3.92532e-08
-4.00406e-05
-4.1475e-08
-4.00379e-05
-4.28045e-08
-4.00335e-05
-4.7171e-08
-4.0027e-05
-5.9611e-08
-4.00173e-05
-8.26532e-08
-4.00101e-05
-1.03531e-07
-4.00024e-05
-1.27633e-07
-3.9991e-05
-1.51436e-07
-3.99815e-05
-1.73883e-07
-3.99781e-05
-1.95023e-07
-3.99667e-05
-2.28982e-07
-3.99522e-05
-2.68088e-07
-3.99472e-05
-3.08887e-07
-3.9938e-05
-3.65322e-07
-3.99224e-05
-4.16069e-07
-3.99027e-05
-4.62701e-07
-3.98793e-05
-5.13183e-07
-3.98529e-05
-5.65127e-07
-3.98244e-05
-6.19429e-07
-3.97937e-05
-6.76595e-07
-3.97609e-05
-7.36704e-07
-3.97261e-05
-7.99133e-07
-3.96896e-05
-8.62335e-07
-3.96522e-05
-9.24823e-07
-3.96144e-05
-9.8559e-07
-3.9577e-05
-1.04409e-06
-3.95405e-05
-1.09958e-06
-3.9506e-05
-1.15107e-06
-3.94741e-05
-1.19827e-06
-3.94453e-05
-1.24115e-06
-3.94202e-05
-1.27957e-06
-3.93992e-05
-1.31351e-06
-3.93825e-05
-1.34297e-06
-3.93705e-05
-1.36792e-06
-3.93634e-05
-1.38828e-06
-3.93614e-05
-1.40406e-06
-3.93645e-05
-1.41542e-06
-3.93729e-05
-1.42272e-06
-3.93863e-05
-1.42643e-06
-3.94049e-05
-1.42696e-06
-3.94284e-05
-1.42462e-06
-3.9457e-05
-1.41961e-06
-3.94905e-05
-1.4121e-06
-3.95288e-05
-1.40224e-06
-3.9572e-05
-1.39011e-06
-3.96198e-05
-1.37568e-06
-3.96723e-05
-1.3589e-06
-3.97297e-05
-1.3398e-06
-3.9792e-05
-1.31853e-06
-3.98593e-05
-1.29524e-06
-3.99319e-05
-1.26998e-06
-4.00101e-05
-1.24295e-06
-4.00941e-05
-1.21427e-06
-4.01845e-05
-1.18393e-06
-4.02821e-05
-1.15197e-06
-4.03873e-05
-1.11854e-06
-4.05004e-05
-1.08392e-06
-4.06218e-05
-1.04826e-06
-4.07517e-05
-1.01179e-06
-4.08899e-05
-9.74983e-07
-4.10365e-05
-9.38245e-07
-4.11914e-05
-9.01928e-07
-4.13545e-05
-8.66804e-07
-4.15254e-05
-8.33965e-07
-4.17037e-05
-8.04337e-07
-4.18886e-05
-7.78811e-07
-4.20795e-05
-7.58821e-07
-4.22755e-05
-7.46054e-07
-4.24757e-05
-7.42007e-07
-4.26786e-05
-7.48187e-07
-4.28831e-05
-7.65881e-07
-4.30882e-05
-7.95629e-07
-4.32932e-05
-8.36534e-07
-4.34975e-05
-8.84678e-07
-4.37e-05
-9.31954e-07
-4.38989e-05
-9.64551e-07
-4.40904e-05
-9.60057e-07
-4.4267e-05
-8.85348e-07
-4.44143e-05
-6.9123e-07
-4.45143e-05
-3.11728e-07
-4.45692e-05
3.48569e-07
-4.46119e-05
1.50854e-06
-4.46559e-05
3.59125e-06
-4.46971e-05
7.38164e-06
-4.44202e-05
1.44157e-05
2.6239e-05
-4.16202e-05
-4.00361e-05
4.22223e-08
-4.00282e-05
2.42271e-08
-4.00238e-05
1.5133e-08
-4.00229e-05
3.59454e-09
-4.00313e-05
1.6913e-08
-4.00253e-05
-1.11057e-08
-4.00155e-05
-3.99829e-08
-4.00178e-05
-3.053e-08
-4.00149e-05
-2.8458e-08
-4.00051e-05
-3.44151e-08
-4.00053e-05
-3.11454e-08
-4.00108e-05
-3.4859e-08
-4.00015e-05
-4.9089e-08
-3.99898e-05
-5.09177e-08
-3.9999e-05
-3.22852e-08
-4.00032e-05
-3.8644e-08
-3.99927e-05
-5.7649e-08
-3.99921e-05
-6.01578e-08
-3.99928e-05
-8.20237e-08
-3.99986e-05
-9.76814e-08
-4.00133e-05
-1.12948e-07
-4.0016e-05
-1.48712e-07
-4.00274e-05
-1.62509e-07
-4.00481e-05
-1.74357e-07
-4.006e-05
-2.17023e-07
-4.00777e-05
-2.50453e-07
-4.01071e-05
-2.79417e-07
-4.01462e-05
-3.26221e-07
-4.01852e-05
-3.77059e-07
-4.02221e-05
-4.25821e-07
-4.02602e-05
-4.75093e-07
-4.03003e-05
-5.24978e-07
-4.03433e-05
-5.76502e-07
-4.03894e-05
-6.30424e-07
-4.0439e-05
-6.87174e-07
-4.04919e-05
-7.46182e-07
-4.05487e-05
-8.0555e-07
-4.06099e-05
-8.63646e-07
-4.06758e-05
-9.19668e-07
-4.0747e-05
-9.7288e-07
-4.08239e-05
-1.02265e-06
-4.09069e-05
-1.06813e-06
-4.09965e-05
-1.10865e-06
-4.10937e-05
-1.14398e-06
-4.1199e-05
-1.1742e-06
-4.13129e-05
-1.19969e-06
-4.1435e-05
-1.22083e-06
-4.1565e-05
-1.23789e-06
-4.17024e-05
-1.25095e-06
-4.18464e-05
-1.26003e-06
-4.19965e-05
-1.26527e-06
-4.21523e-05
-1.26699e-06
-4.23131e-05
-1.26564e-06
-4.24784e-05
-1.26165e-06
-4.26477e-05
-1.25534e-06
-4.28204e-05
-1.24688e-06
-4.29962e-05
-1.23636e-06
-4.31746e-05
-1.22384e-06
-4.33553e-05
-1.20937e-06
-4.35381e-05
-1.19287e-06
-4.37228e-05
-1.17422e-06
-4.39092e-05
-1.15339e-06
-4.40973e-05
-1.13046e-06
-4.42869e-05
-1.10558e-06
-4.44781e-05
-1.07881e-06
-4.46709e-05
-1.05015e-06
-4.48654e-05
-1.01975e-06
-4.50616e-05
-9.87728e-07
-4.52595e-05
-9.54105e-07
-4.5459e-05
-9.19018e-07
-4.56603e-05
-8.82668e-07
-4.58633e-05
-8.45204e-07
-4.60682e-05
-8.06906e-07
-4.62749e-05
-7.68245e-07
-4.64835e-05
-7.29649e-07
-4.66939e-05
-6.9156e-07
-4.69058e-05
-6.54848e-07
-4.71193e-05
-6.20551e-07
-4.73341e-05
-5.89532e-07
-4.755e-05
-5.62838e-07
-4.77669e-05
-5.42006e-07
-4.79843e-05
-5.28625e-07
-4.82019e-05
-5.24376e-07
-4.8419e-05
-5.31108e-07
-4.8635e-05
-5.49896e-07
-4.88497e-05
-5.80908e-07
-4.90629e-05
-6.23371e-07
-4.92739e-05
-6.73624e-07
-4.94816e-05
-7.24274e-07
-4.96827e-05
-7.63409e-07
-4.98712e-05
-7.71626e-07
-5.00359e-05
-7.20654e-07
-5.01547e-05
-5.72369e-07
-5.02015e-05
-2.64917e-07
-5.01581e-05
3.05111e-07
-4.99945e-05
1.34499e-06
-4.96341e-05
3.23085e-06
-4.89149e-05
6.66241e-06
-4.72501e-05
1.27509e-05
2.1809e-05
-4.28201e-05
-3.99593e-05
-3.52576e-08
-3.99604e-05
2.52606e-08
-3.99577e-05
1.24872e-08
-3.99616e-05
7.52347e-09
-3.99444e-05
-2.95183e-10
-3.99346e-05
-2.09252e-08
-3.99457e-05
-2.89413e-08
-3.99437e-05
-3.24384e-08
-3.99325e-05
-3.96945e-08
-3.99336e-05
-3.32837e-08
-3.99403e-05
-2.45268e-08
-3.99371e-05
-3.80466e-08
-3.99394e-05
-4.67877e-08
-3.9943e-05
-4.73207e-08
-3.99518e-05
-2.34439e-08
-3.99579e-05
-3.2562e-08
-3.99546e-05
-6.09499e-08
-3.9964e-05
-5.07188e-08
-3.99817e-05
-6.43806e-08
-3.99982e-05
-8.11846e-08
-4.00225e-05
-8.8594e-08
-4.00487e-05
-1.22521e-07
-4.00782e-05
-1.33057e-07
-4.01069e-05
-1.45596e-07
-4.01466e-05
-1.77325e-07
-4.01971e-05
-2.00001e-07
-4.02474e-05
-2.29108e-07
-4.03162e-05
-2.57429e-07
-4.03957e-05
-2.97489e-07
-4.04767e-05
-3.44887e-07
-4.05643e-05
-3.87489e-07
-4.06588e-05
-4.30442e-07
-4.07608e-05
-4.74495e-07
-4.0871e-05
-5.20288e-07
-4.09895e-05
-5.68617e-07
-4.11165e-05
-6.19251e-07
-4.1252e-05
-6.70032e-07
-4.13967e-05
-7.18918e-07
-4.15509e-05
-7.65438e-07
-4.1715e-05
-8.08769e-07
-4.18897e-05
-8.48037e-07
-4.20748e-05
-8.83013e-07
-4.22702e-05
-9.13221e-07
-4.24758e-05
-9.38346e-07
-4.26914e-05
-9.58633e-07
-4.29164e-05
-9.74686e-07
-4.31501e-05
-9.87086e-07
-4.33919e-05
-9.96175e-07
-4.36408e-05
-1.00205e-06
-4.3896e-05
-1.00476e-06
-4.41568e-05
-1.00448e-06
-4.44222e-05
-1.00157e-06
-4.46913e-05
-9.96527e-07
-4.49632e-05
-9.89743e-07
-4.52371e-05
-9.81443e-07
-4.55123e-05
-9.71699e-07
-4.57882e-05
-9.6053e-07
-4.6064e-05
-9.47955e-07
-4.63394e-05
-9.3397e-07
-4.66138e-05
-9.18461e-07
-4.68868e-05
-9.01285e-07
-4.71578e-05
-8.82366e-07
-4.74266e-05
-8.617e-07
-4.76928e-05
-8.3934e-07
-4.79562e-05
-8.15376e-07
-4.82166e-05
-7.89793e-07
-4.84737e-05
-7.62658e-07
-4.87273e-05
-7.34132e-07
-4.89771e-05
-7.04304e-07
-4.92229e-05
-6.73207e-07
-4.94647e-05
-6.40834e-07
-4.97026e-05
-6.07286e-07
-4.99367e-05
-5.72883e-07
-5.01669e-05
-5.37974e-07
-5.03937e-05
-5.02868e-07
-5.06172e-05
-4.68066e-07
-5.08375e-05
-4.34507e-07
-5.10551e-05
-4.03041e-07
-5.12702e-05
-3.74432e-07
-5.14831e-05
-3.49875e-07
-5.16943e-05
-3.30833e-07
-5.1904e-05
-3.18891e-07
-5.21126e-05
-3.15762e-07
-5.23206e-05
-3.2315e-07
-5.25283e-05
-3.42186e-07
-5.2736e-05
-3.73199e-07
-5.29433e-05
-4.16075e-07
-5.3149e-05
-4.67975e-07
-5.3351e-05
-5.22221e-07
-5.35453e-05
-5.69085e-07
-5.3724e-05
-5.9302e-07
-5.38728e-05
-5.71772e-07
-5.39663e-05
-4.78943e-07
-5.39686e-05
-2.62581e-07
-5.38374e-05
1.73961e-07
-5.34974e-05
1.00494e-06
-5.27958e-05
2.52921e-06
-5.1442e-05
5.30862e-06
-4.87545e-05
1.00635e-05
1.64711e-05
-4.34165e-05
-3.98877e-05
-3.8636e-09
-3.98967e-05
3.42605e-08
-3.99022e-05
1.79393e-08
-3.99044e-05
9.70957e-09
-3.98914e-05
-1.3257e-08
-3.98799e-05
-3.24696e-08
-3.98873e-05
-2.15553e-08
-3.98825e-05
-3.72026e-08
-3.98809e-05
-4.13419e-08
-3.98942e-05
-1.98893e-08
-3.98863e-05
-3.24657e-08
-3.98801e-05
-4.42194e-08
-3.99054e-05
-2.15274e-08
-3.99284e-05
-2.43378e-08
-3.99171e-05
-3.46769e-08
-3.99215e-05
-2.82574e-08
-3.99508e-05
-3.16392e-08
-3.9956e-05
-4.54789e-08
-3.99816e-05
-3.88098e-08
-4.00217e-05
-4.1105e-08
-4.00443e-05
-6.5973e-08
-4.00892e-05
-7.7641e-08
-4.01348e-05
-8.74211e-08
-4.01759e-05
-1.04533e-07
-4.0235e-05
-1.18146e-07
-4.03036e-05
-1.31474e-07
-4.03794e-05
-1.5323e-07
-4.04642e-05
-1.72645e-07
-4.05641e-05
-1.97611e-07
-4.06739e-05
-2.35074e-07
-4.07948e-05
-2.66648e-07
-4.09272e-05
-2.9796e-07
-4.1072e-05
-3.29702e-07
-4.12296e-05
-3.62676e-07
-4.14002e-05
-3.98007e-07
-4.15837e-05
-4.35781e-07
-4.17805e-05
-4.73207e-07
-4.19915e-05
-5.07946e-07
-4.22171e-05
-5.39892e-07
-4.24568e-05
-5.68997e-07
-4.27101e-05
-5.94736e-07
-4.29762e-05
-6.16947e-07
-4.32539e-05
-6.35519e-07
-4.35419e-05
-6.5038e-07
-4.38387e-05
-6.61778e-07
-4.41432e-05
-6.70161e-07
-4.44544e-05
-6.75905e-07
-4.47714e-05
-6.79201e-07
-4.50934e-05
-6.80106e-07
-4.54194e-05
-6.78727e-07
-4.57485e-05
-6.75348e-07
-4.60797e-05
-6.70409e-07
-4.64119e-05
-6.64349e-07
-4.67442e-05
-6.57445e-07
-4.70758e-05
-6.49771e-07
-4.74062e-05
-6.41303e-07
-4.77347e-05
-6.32044e-07
-4.80607e-05
-6.22017e-07
-4.83834e-05
-6.11176e-07
-4.87025e-05
-5.994e-07
-4.90172e-05
-5.86575e-07
-4.9327e-05
-5.72595e-07
-4.96313e-05
-5.57346e-07
-4.99299e-05
-5.4075e-07
-5.02225e-05
-5.2283e-07
-5.05087e-05
-5.03598e-07
-5.07883e-05
-4.83026e-07
-5.10613e-05
-4.6112e-07
-5.13277e-05
-4.37909e-07
-5.15876e-05
-4.13359e-07
-5.1841e-05
-3.87407e-07
-5.20881e-05
-3.60133e-07
-5.23293e-05
-3.31772e-07
-5.25647e-05
-3.02558e-07
-5.27948e-05
-2.72749e-07
-5.30202e-05
-2.42701e-07
-5.32412e-05
-2.13491e-07
-5.34582e-05
-1.85959e-07
-5.36721e-05
-1.60591e-07
-5.38833e-05
-1.38705e-07
-5.40924e-05
-1.21739e-07
-5.43e-05
-1.11271e-07
-5.45067e-05
-1.09008e-07
-5.47133e-05
-1.16593e-07
-5.492e-05
-1.35495e-07
-5.51273e-05
-1.65901e-07
-5.53347e-05
-2.08673e-07
-5.554e-05
-2.62666e-07
-5.5741e-05
-3.2121e-07
-5.59323e-05
-3.77759e-07
-5.61045e-05
-4.20884e-07
-5.62409e-05
-4.35289e-07
-5.63172e-05
-4.02697e-07
-5.62877e-05
-2.92119e-07
-5.60879e-05
-2.57627e-08
-5.56111e-05
5.28131e-07
-5.46459e-05
1.56401e-06
-5.28113e-05
3.47396e-06
-4.94273e-05
6.67945e-06
1.0686e-05
-4.36422e-05
-3.98693e-05
1.10299e-07
-3.98536e-05
1.86558e-08
-3.98491e-05
1.33703e-08
-3.98558e-05
1.64155e-08
-3.98528e-05
-1.61929e-08
-3.9854e-05
-3.13183e-08
-3.98576e-05
-1.79169e-08
-3.9863e-05
-3.1864e-08
-3.98589e-05
-4.53694e-08
-3.9857e-05
-2.18435e-08
-3.98562e-05
-3.32989e-08
-3.98765e-05
-2.38415e-08
-3.9893e-05
-5.07108e-09
-3.99061e-05
-1.12146e-08
-3.99047e-05
-3.61183e-08
-3.9915e-05
-1.79316e-08
-3.99486e-05
1.93969e-09
-3.99781e-05
-1.59604e-08
-4.00065e-05
-1.0421e-08
-4.00356e-05
-1.20137e-08
-4.00756e-05
-2.5915e-08
-4.013e-05
-2.3234e-08
-4.01816e-05
-3.58323e-08
-4.02405e-05
-4.5678e-08
-4.03122e-05
-4.64837e-08
-4.03851e-05
-5.84822e-08
-4.0474e-05
-6.44062e-08
-4.05731e-05
-7.35342e-08
-4.06799e-05
-9.07523e-08
-4.08054e-05
-1.09635e-07
-4.09458e-05
-1.26229e-07
-4.11016e-05
-1.42188e-07
-4.12733e-05
-1.57983e-07
-4.14615e-05
-1.74485e-07
-4.16669e-05
-1.92619e-07
-4.18901e-05
-2.12555e-07
-4.21319e-05
-2.31441e-07
-4.23917e-05
-2.48095e-07
-4.26684e-05
-2.6316e-07
-4.29608e-05
-2.76622e-07
-4.32672e-05
-2.88336e-07
-4.3586e-05
-2.98173e-07
-4.39154e-05
-3.06091e-07
-4.42537e-05
-3.12104e-07
-4.45991e-05
-3.16373e-07
-4.49501e-05
-3.19145e-07
-4.53054e-05
-3.20612e-07
-4.56637e-05
-3.20866e-07
-4.60239e-05
-3.19944e-07
-4.63847e-05
-3.17923e-07
-4.67451e-05
-3.14985e-07
-4.71041e-05
-3.11383e-07
-4.74611e-05
-3.07347e-07
-4.78155e-05
-3.03001e-07
-4.8167e-05
-2.98354e-07
-4.85149e-05
-2.9337e-07
-4.88589e-05
-2.88031e-07
-4.91986e-05
-2.82323e-07
-4.95336e-05
-2.76165e-07
-4.98636e-05
-2.69452e-07
-5.0188e-05
-2.62099e-07
-5.05066e-05
-2.53996e-07
-5.0819e-05
-2.45001e-07
-5.11248e-05
-2.3498e-07
-5.14237e-05
-2.23867e-07
-5.17157e-05
-2.11603e-07
-5.20006e-05
-1.98108e-07
-5.22784e-05
-1.83313e-07
-5.25492e-05
-1.67145e-07
-5.28131e-05
-1.49504e-07
-5.30701e-05
-1.30319e-07
-5.33206e-05
-1.09628e-07
-5.35649e-05
-8.75525e-08
-5.38032e-05
-6.42513e-08
-5.40359e-05
-3.99747e-08
-5.42635e-05
-1.51538e-08
-5.44866e-05
9.6331e-09
-5.47059e-05
3.3338e-08
-5.49219e-05
5.54337e-08
-5.51353e-05
7.46506e-08
-5.53467e-05
8.9648e-08
-5.55568e-05
9.88929e-08
-5.57666e-05
1.00718e-07
-5.59766e-05
9.34246e-08
-5.61876e-05
7.54716e-08
-5.63989e-05
4.54793e-08
-5.66112e-05
3.61214e-09
-5.68214e-05
-5.2499e-08
-5.70271e-05
-1.15516e-07
-5.72217e-05
-1.83116e-07
-5.73948e-05
-2.47791e-07
-5.75292e-05
-3.00859e-07
-5.7599e-05
-3.32964e-07
-5.75594e-05
-3.31745e-07
-5.73302e-05
-2.54963e-07
-5.67685e-05
-3.35177e-08
-5.56381e-05
4.33604e-07
-5.3498e-05
1.33386e-06
-4.96847e-05
2.86616e-06
4.70164e-06
-4.37004e-05
-3.98666e-05
1.45651e-07
-3.98545e-05
6.59576e-09
-3.98399e-05
-1.27667e-09
-3.98171e-05
-6.41793e-09
-3.98255e-05
-7.74162e-09
-3.98464e-05
-1.04568e-08
-3.98382e-05
-2.60821e-08
-3.98421e-05
-2.80016e-08
-3.98532e-05
-3.42345e-08
-3.98439e-05
-3.11296e-08
-3.98538e-05
-2.346e-08
-3.98743e-05
-3.2703e-09
-3.98756e-05
-3.8166e-09
-3.98917e-05
4.93978e-09
-3.99183e-05
-9.58149e-09
-3.99292e-05
-7.00961e-09
-3.99472e-05
1.99586e-08
-3.99888e-05
2.55701e-08
-4.00198e-05
2.05862e-08
-4.0049e-05
1.72525e-08
-4.00928e-05
1.78276e-08
-4.01474e-05
3.14232e-08
-4.02115e-05
2.82807e-08
-4.02816e-05
2.44082e-08
-4.03584e-05
3.02449e-08
-4.04373e-05
2.04667e-08
-4.05251e-05
2.33438e-08
-4.06233e-05
2.47042e-08
-4.07329e-05
1.88257e-08
-4.08646e-05
2.21012e-08
-4.10142e-05
2.33784e-08
-4.11813e-05
2.48916e-08
-4.1366e-05
2.67126e-08
-4.15692e-05
2.87512e-08
-4.17931e-05
3.13023e-08
-4.20399e-05
3.41652e-08
-4.23081e-05
3.6813e-08
-4.25954e-05
3.91542e-08
-4.28998e-05
4.13186e-08
-4.32198e-05
4.33557e-08
-4.35534e-05
4.52039e-08
-4.38984e-05
4.68175e-08
-4.42527e-05
4.82168e-08
-4.46142e-05
4.94138e-08
-4.4981e-05
5.04272e-08
-4.53514e-05
5.12761e-08
-4.5724e-05
5.19798e-08
-4.60974e-05
5.25518e-08
-4.64704e-05
5.30024e-08
-4.68416e-05
5.3359e-08
-4.72103e-05
5.36696e-08
-4.75757e-05
5.39946e-08
-4.79374e-05
5.438e-08
-4.82952e-05
5.48474e-08
-4.8649e-05
5.54006e-08
-4.89984e-05
5.60477e-08
-4.93433e-05
5.68215e-08
-4.96834e-05
5.77868e-08
-5.00186e-05
5.90149e-08
-5.03486e-05
6.05625e-08
-5.06731e-05
6.24679e-08
-5.09919e-05
6.48041e-08
-5.13046e-05
6.77041e-08
-5.1611e-05
7.13219e-08
-5.19106e-05
7.57943e-08
-5.22035e-05
8.126e-08
-5.24894e-05
8.78597e-08
-5.27685e-05
9.5727e-08
-5.30406e-05
1.05011e-07
-5.3306e-05
1.15864e-07
-5.35647e-05
1.28374e-07
-5.38169e-05
1.42554e-07
-5.40628e-05
1.58384e-07
-5.43028e-05
1.75777e-07
-5.45373e-05
1.94489e-07
-5.47665e-05
2.14058e-07
-5.49912e-05
2.34296e-07
-5.52124e-05
2.54582e-07
-5.54309e-05
2.73878e-07
-5.56473e-05
2.91066e-07
-5.58625e-05
3.04822e-07
-5.60772e-05
3.13609e-07
-5.62922e-05
3.15733e-07
-5.65082e-05
3.09395e-07
-5.67255e-05
2.92802e-07
-5.69438e-05
2.63757e-07
-5.71615e-05
2.21353e-07
-5.73789e-05
1.6486e-07
-5.75898e-05
9.53629e-08
-5.77875e-05
1.46367e-08
-5.79632e-05
-7.20872e-08
-5.81003e-05
-1.63792e-07
-5.81697e-05
-2.63497e-07
-5.81298e-05
-3.71658e-07
-5.78958e-05
-4.89001e-07
-5.73142e-05
-6.15148e-07
-5.61215e-05
-7.59073e-07
-5.385e-05
-9.37628e-07
-4.98273e-05
-1.15652e-06
-1.36099e-06
-4.37647e-05
-3.98532e-05
5.16606e-08
-3.98481e-05
1.43835e-09
-3.98553e-05
6.00421e-09
-3.98338e-05
-2.79732e-08
-3.98196e-05
-2.19644e-08
-3.98213e-05
-8.6942e-09
-3.98259e-05
-2.14735e-08
-3.98374e-05
-1.65242e-08
-3.98547e-05
-1.69708e-08
-3.9857e-05
-2.88475e-08
-3.98607e-05
-1.97381e-08
-3.98581e-05
-5.88149e-09
-3.98636e-05
1.69625e-09
-3.98839e-05
2.53003e-08
-3.99125e-05
1.89511e-08
-3.99346e-05
1.51566e-08
-3.99539e-05
3.92503e-08
-3.99763e-05
4.79514e-08
-4.00075e-05
5.18032e-08
-4.00566e-05
6.63135e-08
-4.00973e-05
5.85864e-08
-4.01421e-05
7.61951e-08
-4.0208e-05
9.41353e-08
-4.02749e-05
9.13274e-08
-4.03446e-05
9.99815e-08
-4.04294e-05
1.05194e-07
-4.05138e-05
1.07809e-07
-4.06086e-05
1.19495e-07
-4.07212e-05
1.31393e-07
-4.08513e-05
1.52236e-07
-4.09994e-05
1.7145e-07
-4.11645e-05
1.89999e-07
-4.13469e-05
2.09105e-07
-4.15475e-05
2.29327e-07
-4.17679e-05
2.51707e-07
-4.20101e-05
2.76428e-07
-4.22734e-05
3.00066e-07
-4.25555e-05
3.21239e-07
-4.28547e-05
3.40586e-07
-4.31695e-05
3.58127e-07
-4.3498e-05
3.73703e-07
-4.38382e-05
3.8706e-07
-4.41882e-05
3.98191e-07
-4.45459e-05
4.07102e-07
-4.49094e-05
4.13944e-07
-4.52771e-05
4.18957e-07
-4.56475e-05
4.22347e-07
-4.60191e-05
4.24219e-07
-4.63908e-05
4.24624e-07
-4.67611e-05
4.23688e-07
-4.71291e-05
4.21672e-07
-4.7494e-05
4.18936e-07
-4.78555e-05
4.15795e-07
-4.8213e-05
4.1242e-07
-4.85665e-05
4.08839e-07
-4.89155e-05
4.05058e-07
-4.92598e-05
4.01141e-07
-4.95992e-05
3.97196e-07
-4.99335e-05
3.93308e-07
-5.02624e-05
3.89511e-07
-5.05858e-05
3.85798e-07
-5.09032e-05
3.82197e-07
-5.12143e-05
3.78831e-07
-5.15189e-05
3.75881e-07
-5.18166e-05
3.73547e-07
-5.21074e-05
3.72045e-07
-5.23911e-05
3.71584e-07
-5.26677e-05
3.72359e-07
-5.29373e-05
3.74588e-07
-5.32e-05
3.78492e-07
-5.34558e-05
3.84197e-07
-5.3705e-05
3.91759e-07
-5.39479e-05
4.01257e-07
-5.41848e-05
4.12698e-07
-5.44162e-05
4.25896e-07
-5.46427e-05
4.40589e-07
-5.48649e-05
4.56535e-07
-5.50835e-05
4.73164e-07
-5.52992e-05
4.89578e-07
-5.55129e-05
5.04732e-07
-5.57254e-05
5.17334e-07
-5.59376e-05
5.25841e-07
-5.61504e-05
5.28538e-07
-5.63646e-05
5.23554e-07
-5.65806e-05
5.08746e-07
-5.67985e-05
4.81735e-07
-5.70176e-05
4.40376e-07
-5.72355e-05
3.82808e-07
-5.74469e-05
3.06769e-07
-5.76442e-05
2.11896e-07
-5.78162e-05
9.99236e-08
-5.79484e-05
-3.15973e-08
-5.80156e-05
-1.96243e-07
-5.7972e-05
-4.15317e-07
-5.77387e-05
-7.22284e-07
-5.71687e-05
-1.18509e-06
-5.59943e-05
-1.9335e-06
-5.37497e-05
-3.18227e-06
-4.9765e-05
-5.14119e-06
-7.39299e-06
-4.3733e-05
-3.98652e-05
-9.64641e-08
-3.98586e-05
-5.14408e-09
-3.98539e-05
1.30296e-09
-3.98587e-05
-2.32007e-08
-3.98493e-05
-3.13044e-08
-3.98367e-05
-2.13261e-08
-3.98385e-05
-1.97076e-08
-3.98525e-05
-2.51405e-09
-3.98665e-05
-2.94273e-09
-3.98669e-05
-2.84047e-08
-3.98657e-05
-2.09595e-08
-3.98707e-05
-9.41451e-10
-3.98794e-05
1.03886e-08
-3.98761e-05
2.20689e-08
-3.98934e-05
3.62474e-08
-3.99256e-05
4.73621e-08
-3.99429e-05
5.65716e-08
-3.99661e-05
7.11243e-08
-3.99986e-05
8.42485e-08
-4.00334e-05
1.01102e-07
-4.00753e-05
1.005e-07
-4.01076e-05
1.08574e-07
-4.01616e-05
1.48126e-07
-4.02238e-05
1.53455e-07
-4.02824e-05
1.58615e-07
-4.03604e-05
1.83185e-07
-4.04429e-05
1.90332e-07
-4.05354e-05
2.11969e-07
-4.06462e-05
2.42213e-07
-4.07683e-05
2.74379e-07
-4.09048e-05
3.07892e-07
-4.10562e-05
3.41364e-07
-4.12227e-05
3.75693e-07
-4.14052e-05
4.118e-07
-4.1604e-05
4.50473e-07
-4.18193e-05
4.91749e-07
-4.20522e-05
5.32937e-07
-4.23027e-05
5.71779e-07
-4.25699e-05
6.07772e-07
-4.28526e-05
6.4086e-07
-4.31494e-05
6.7051e-07
-4.34588e-05
6.96372e-07
-4.3779e-05