/*--------------------------------*- C++ -*----------------------------------*\
| =========                 |                                                 |
| \\      /  F ield         | OpenFOAM: The Open Source CFD Toolbox           |
|  \\    /   O peration     | Version:  2.1.0                                 |
|   \\  /    A nd           | Web:      www.OpenFOAM.org                      |
|    \\/     M anipulation  |                                                 |
\*---------------------------------------------------------------------------*/
FoamFile
{
    version     2.0;
    format      ascii;
    class       volVectorField;
    location    "0.06";
    object      U;
}
// * * * * * * * * * * * * * * * * * * * * * * * * * * * * * * * * * * * * * //

dimensions      [0 1 -1 0 0 0 0];

internalField   nonuniform List<vector> 
6400
(
(-1.52764 0.000201533 0)
(-1.52818 0.000137579 0)
(-1.5287 9.47211e-05 0)
(-1.52901 6.39653e-05 0)
(-1.52921 3.52442e-05 0)
(-1.52929 4.38674e-06 0)
(-1.52927 -1.50788e-05 0)
(-1.52918 -2.81986e-05 0)
(-1.52906 -3.13661e-05 0)
(-1.52894 -2.89687e-05 0)
(-1.52881 -3.73785e-05 0)
(-1.52864 -4.87555e-05 0)
(-1.52846 -4.43089e-05 0)
(-1.52829 -4.0017e-05 0)
(-1.52813 -4.25973e-05 0)
(-1.52797 -3.8278e-05 0)
(-1.52783 -3.17205e-05 0)
(-1.52768 -4.03485e-05 0)
(-1.52747 -6.89259e-05 0)
(-1.52713 -0.000101891 0)
(-1.52665 -0.000136408 0)
(-1.52605 -0.00016854 0)
(-1.5253 -0.000208292 0)
(-1.52439 -0.000253105 0)
(-1.52329 -0.000299478 0)
(-1.52196 -0.000371418 0)
(-1.52027 -0.000479681 0)
(-1.51814 -0.000593146 0)
(-1.5156 -0.0006925 0)
(-1.51265 -0.000795845 0)
(-1.50926 -0.000913695 0)
(-1.50536 -0.00104839 0)
(-1.5009 -0.00120291 0)
(-1.49578 -0.00137837 0)
(-1.48992 -0.00157466 0)
(-1.48324 -0.00179164 0)
(-1.47566 -0.00202843 0)
(-1.4671 -0.00228328 0)
(-1.4575 -0.00255417 0)
(-1.4468 -0.00283873 0)
(-1.43494 -0.00313381 0)
(-1.4219 -0.00343531 0)
(-1.40766 -0.00373905 0)
(-1.39222 -0.00404049 0)
(-1.37559 -0.00433494 0)
(-1.35782 -0.00461826 0)
(-1.33895 -0.00488729 0)
(-1.31904 -0.00514011 0)
(-1.29816 -0.00537575 0)
(-1.27638 -0.00559424 0)
(-1.25377 -0.00579621 0)
(-1.23039 -0.00598268 0)
(-1.2063 -0.00615317 0)
(-1.18158 -0.00630485 0)
(-1.15629 -0.00643608 0)
(-1.13054 -0.00654576 0)
(-1.10439 -0.0066339 0)
(-1.07794 -0.00670154 0)
(-1.05126 -0.00674988 0)
(-1.02444 -0.00678041 0)
(-0.99752 -0.0067956 0)
(-0.970573 -0.00679928 0)
(-0.94363 -0.006796 0)
(-0.916712 -0.00678961 0)
(-0.889828 -0.00678196 0)
(-0.862983 -0.00677256 0)
(-0.836186 -0.006761 0)
(-0.809441 -0.00674853 0)
(-0.782752 -0.00673606 0)
(-0.756116 -0.00672413 0)
(-0.72953 -0.00671407 0)
(-0.702982 -0.00670719 0)
(-0.676458 -0.00670443 0)
(-0.649938 -0.00670785 0)
(-0.623389 -0.00672119 0)
(-0.596768 -0.00674714 0)
(-0.570025 -0.00678492 0)
(-0.543109 -0.0068375 0)
(-0.515943 -0.00691282 0)
(-0.488437 -0.00701269 0)
(-0.460496 -0.0071355 0)
(-0.432013 -0.00728922 0)
(-0.402837 -0.00748906 0)
(-0.372765 -0.00774581 0)
(-0.341562 -0.00806497 0)
(-0.308976 -0.00845072 0)
(-0.274749 -0.00890031 0)
(-0.238679 -0.00939004 0)
(-0.200726 -0.00986099 0)
(-0.161192 -0.0101982 0)
(-0.12104 -0.0101794 0)
(-0.0824769 -0.00939617 0)
(-0.0493727 -0.00740827 0)
(-0.026359 -0.00427094 0)
(-0.0167686 -0.00059549 0)
(-0.0223803 0.00344114 0)
(-0.0515033 0.01132 0)
(-0.129493 0.0281585 0)
(-0.319121 0.0671147 0)
(-0.89774 0.186404 0)
(-1.93223 0.000589151 0)
(-1.93271 0.000416574 0)
(-1.93327 0.000277049 0)
(-1.93356 0.000181669 0)
(-1.93371 8.80054e-05 0)
(-1.93371 -1.12835e-05 0)
(-1.93358 -7.37498e-05 0)
(-1.93335 -0.000127552 0)
(-1.93304 -0.000145184 0)
(-1.9327 -0.000142687 0)
(-1.93232 -0.000178188 0)
(-1.93185 -0.000226438 0)
(-1.93132 -0.000223281 0)
(-1.93076 -0.00022408 0)
(-1.93014 -0.000251732 0)
(-1.92943 -0.000260397 0)
(-1.92865 -0.000269879 0)
(-1.92772 -0.000336042 0)
(-1.92655 -0.000466669 0)
(-1.92504 -0.000628265 0)
(-1.92312 -0.000799703 0)
(-1.92081 -0.000962286 0)
(-1.91807 -0.00115332 0)
(-1.91485 -0.00136862 0)
(-1.91112 -0.00159013 0)
(-1.90681 -0.00189673 0)
(-1.90173 -0.00232831 0)
(-1.89578 -0.00276914 0)
(-1.88903 -0.00315312 0)
(-1.88153 -0.00354734 0)
(-1.87324 -0.003985 0)
(-1.8641 -0.00447055 0)
(-1.85406 -0.00501017 0)
(-1.84305 -0.00560411 0)
(-1.83106 -0.00624984 0)
(-1.81802 -0.00694236 0)
(-1.80393 -0.00767373 0)
(-1.78881 -0.00843507 0)
(-1.7727 -0.00921904 0)
(-1.75561 -0.010019 0)
(-1.73762 -0.0108267 0)
(-1.71878 -0.0116318 0)
(-1.69914 -0.0124251 0)
(-1.67879 -0.0131971 0)
(-1.65778 -0.0139378 0)
(-1.63619 -0.0146387 0)
(-1.61409 -0.015293 0)
(-1.59155 -0.0158961 0)
(-1.56864 -0.0164453 0)
(-1.54546 -0.0169405 0)
(-1.52208 -0.0173837 0)
(-1.49856 -0.0177785 0)
(-1.47498 -0.0181275 0)
(-1.45137 -0.0184294 0)
(-1.42778 -0.0186832 0)
(-1.40423 -0.0188872 0)
(-1.38075 -0.0190403 0)
(-1.35737 -0.0191433 0)
(-1.33413 -0.0191984 0)
(-1.31107 -0.0192089 0)
(-1.28821 -0.0191803 0)
(-1.2656 -0.0191209 0)
(-1.24326 -0.0190412 0)
(-1.2212 -0.0189509 0)
(-1.19945 -0.0188574 0)
(-1.178 -0.0187626 0)
(-1.15684 -0.0186664 0)
(-1.13596 -0.018571 0)
(-1.11534 -0.0184783 0)
(-1.09498 -0.0183903 0)
(-1.07486 -0.0183103 0)
(-1.05495 -0.018241 0)
(-1.03526 -0.0181836 0)
(-1.01576 -0.0181424 0)
(-0.996424 -0.0181268 0)
(-0.977239 -0.0181433 0)
(-0.958173 -0.0181907 0)
(-0.939198 -0.0182749 0)
(-0.920276 -0.0184134 0)
(-0.901365 -0.0186146 0)
(-0.882393 -0.0188827 0)
(-0.863268 -0.019237 0)
(-0.843897 -0.0197039 0)
(-0.824186 -0.0203094 0)
(-0.804015 -0.021073 0)
(-0.783249 -0.0220008 0)
(-0.76177 -0.0230795 0)
(-0.739501 -0.0242522 0)
(-0.716434 -0.0253773 0)
(-0.692704 -0.0261802 0)
(-0.668666 -0.0261583 0)
(-0.644956 -0.0244361 0)
(-0.622788 -0.0199349 0)
(-0.60492 -0.0121818 0)
(-0.599386 -0.000456458 0)
(-0.613238 0.0131382 0)
(-0.65749 0.0382108 0)
(-0.752696 0.0871587 0)
(-0.939727 0.191641 0)
(-1.39294 0.493122 0)
(-1.99913 0.000989157 0)
(-1.99957 0.000651656 0)
(-1.99989 0.000401329 0)
(-1.99998 0.000248183 0)
(-1.99996 8.3399e-05 0)
(-1.99983 -7.60804e-05 0)
(-1.99958 -0.000189981 0)
(-1.99924 -0.000299337 0)
(-1.99884 -0.00032986 0)
(-1.99846 -0.000316685 0)
(-1.99808 -0.000387818 0)
(-1.99759 -0.000492346 0)
(-1.99706 -0.000490896 0)
(-1.99653 -0.000504095 0)
(-1.99593 -0.00058223 0)
(-1.99525 -0.000621535 0)
(-1.99452 -0.000669286 0)
(-1.99366 -0.000832957 0)
(-1.99254 -0.0011153 0)
(-1.99107 -0.00146885 0)
(-1.98922 -0.00184333 0)
(-1.98699 -0.0021925 0)
(-1.98441 -0.00259363 0)
(-1.98137 -0.00305634 0)
(-1.97785 -0.00350699 0)
(-1.97407 -0.00411384 0)
(-1.9691 -0.00497218 0)
(-1.96402 -0.00581751 0)
(-1.95776 -0.00654172 0)
(-1.9511 -0.00727207 0)
(-1.94376 -0.00807131 0)
(-1.9358 -0.00893687 0)
(-1.92718 -0.00987594 0)
(-1.91787 -0.0108846 0)
(-1.90791 -0.0119605 0)
(-1.89725 -0.0130939 0)
(-1.88586 -0.014265 0)
(-1.87377 -0.015454 0)
(-1.86102 -0.0166462 0)
(-1.84764 -0.0178306 0)
(-1.83369 -0.0189948 0)
(-1.81924 -0.0201244 0)
(-1.80435 -0.0212087 0)
(-1.78908 -0.0222382 0)
(-1.7735 -0.0232037 0)
(-1.75767 -0.0240971 0)
(-1.74164 -0.0249126 0)
(-1.72545 -0.0256461 0)
(-1.70917 -0.0262944 0)
(-1.69282 -0.0268571 0)
(-1.67646 -0.0273373 0)
(-1.66014 -0.0277412 0)
(-1.64389 -0.028076 0)
(-1.62774 -0.0283476 0)
(-1.61172 -0.02856 0)
(-1.59583 -0.0287137 0)
(-1.5801 -0.0288078 0)
(-1.56451 -0.0288415 0)
(-1.54907 -0.0288163 0)
(-1.5338 -0.0287351 0)
(-1.5187 -0.0286029 0)
(-1.5038 -0.0284267 0)
(-1.48913 -0.0282161 0)
(-1.47471 -0.027981 0)
(-1.46059 -0.0277314 0)
(-1.44681 -0.0274746 0)
(-1.43339 -0.0272129 0)
(-1.42037 -0.0269491 0)
(-1.40775 -0.0266851 0)
(-1.39557 -0.0264229 0)
(-1.38385 -0.0261667 0)
(-1.37261 -0.0259184 0)
(-1.36189 -0.0256774 0)
(-1.35172 -0.0254471 0)
(-1.34214 -0.0252377 0)
(-1.33318 -0.025058 0)
(-1.32488 -0.0249111 0)
(-1.31726 -0.024806 0)
(-1.31032 -0.0247594 0)
(-1.30406 -0.0247867 0)
(-1.2985 -0.0249075 0)
(-1.2936 -0.0251478 0)
(-1.28933 -0.0255272 0)
(-1.28564 -0.026083 0)
(-1.28248 -0.0268518 0)
(-1.27975 -0.0278371 0)
(-1.27738 -0.0290165 0)
(-1.27529 -0.0303155 0)
(-1.27346 -0.0315551 0)
(-1.27194 -0.0323968 0)
(-1.27081 -0.0322571 0)
(-1.27026 -0.0301686 0)
(-1.27068 -0.0247917 0)
(-1.27335 -0.0147387 0)
(-1.2803 0.00208101 0)
(-1.29456 0.024792 0)
(-1.32923 0.0650546 0)
(-1.39771 0.139688 0)
(-1.52898 0.290381 0)
(-1.77782 0.67249 0)
(-2.00587 0.00146734 0)
(-2.00598 0.000794633 0)
(-2.00639 0.000451071 0)
(-2.006 0.000248126 0)
(-2.00711 3.88152e-05 0)
(-2.00539 -0.000146006 0)
(-2.00693 -0.000345584 0)
(-2.00504 -0.000514354 0)
(-2.00549 -0.0005124 0)
(-2.00484 -0.000455338 0)
(-2.00473 -0.000566179 0)
(-2.00431 -0.000758776 0)
(-2.00387 -0.000716974 0)
(-2.00353 -0.000722646 0)
(-2.00313 -0.00085549 0)
(-2.0027 -0.000900925 0)
(-2.00229 -0.000966088 0)
(-2.00184 -0.00120241 0)
(-2.00118 -0.0016299 0)
(-2.00027 -0.0021491 0)
(-1.99908 -0.00267905 0)
(-1.99774 -0.00314764 0)
(-1.99624 -0.00370554 0)
(-1.99372 -0.00433843 0)
(-1.99328 -0.00493201 0)
(-1.99085 -0.00575719 0)
(-1.98566 -0.00691384 0)
(-1.98632 -0.00808471 0)
(-1.98086 -0.00907977 0)
(-1.97755 -0.0100482 0)
(-1.97306 -0.0111107 0)
(-1.96834 -0.0122378 0)
(-1.96321 -0.013442 0)
(-1.95768 -0.0147191 0)
(-1.95177 -0.0160683 0)
(-1.94546 -0.0174792 0)
(-1.93875 -0.0189234 0)
(-1.93168 -0.0203726 0)
(-1.92428 -0.0218054 0)
(-1.91659 -0.0232077 0)
(-1.90864 -0.0245635 0)
(-1.90049 -0.0258545 0)
(-1.89219 -0.02707 0)
(-1.8838 -0.0282029 0)
(-1.87535 -0.0292464 0)
(-1.86688 -0.0301956 0)
(-1.85842 -0.0310475 0)
(-1.84999 -0.0317994 0)
(-1.84163 -0.0324485 0)
(-1.83335 -0.032994 0)
(-1.82519 -0.0334386 0)
(-1.81717 -0.0337894 0)
(-1.80932 -0.0340556 0)
(-1.80166 -0.0342463 0)
(-1.79421 -0.0343688 0)
(-1.787 -0.0344272 0)
(-1.78003 -0.0344233 0)
(-1.7733 -0.0343582 0)
(-1.76681 -0.0342329 0)
(-1.76056 -0.034049 0)
(-1.75455 -0.0338085 0)
(-1.74879 -0.0335153 0)
(-1.7433 -0.0331755 0)
(-1.7381 -0.0327948 0)
(-1.73322 -0.0323797 0)
(-1.7287 -0.0319383 0)
(-1.72459 -0.0314745 0)
(-1.72093 -0.0309934 0)
(-1.71775 -0.0304976 0)
(-1.7151 -0.0299869 0)
(-1.71301 -0.0294656 0)
(-1.71153 -0.0289351 0)
(-1.71069 -0.0283962 0)
(-1.71051 -0.0278538 0)
(-1.71103 -0.0273165 0)
(-1.71224 -0.0267943 0)
(-1.71418 -0.0262991 0)
(-1.71684 -0.0258477 0)
(-1.72019 -0.0254573 0)
(-1.72419 -0.0251466 0)
(-1.72883 -0.0249445 0)
(-1.73405 -0.0248875 0)
(-1.73976 -0.0249994 0)
(-1.7459 -0.025317 0)
(-1.75241 -0.0258802 0)
(-1.75921 -0.0267015 0)
(-1.76622 -0.0277599 0)
(-1.77337 -0.0289662 0)
(-1.7806 -0.0301211 0)
(-1.78792 -0.0308618 0)
(-1.79529 -0.0305847 0)
(-1.80266 -0.028334 0)
(-1.80991 -0.0227129 0)
(-1.81737 -0.0119798 0)
(-1.82561 0.00561881 0)
(-1.83509 0.0334161 0)
(-1.85468 0.0824736 0)
(-1.89108 0.172224 0)
(-1.9531 0.348557 0)
(-2.04189 0.724776 0)
(-2.00269 0.00190861 0)
(-2.00726 0.000825291 0)
(-2.00228 0.000476826 0)
(-2.00569 0.00017475 0)
(-2.00624 0.000114746 0)
(-1.99949 -0.000149267 0)
(-2.01116 -0.000592699 0)
(-1.99946 -0.000724357 0)
(-2.00385 -0.000614802 0)
(-2.00457 -0.000559382 0)
(-2.00512 -0.000711049 0)
(-1.99933 -0.000948263 0)
(-2.00521 -0.000901304 0)
(-2.0019 -0.000892882 0)
(-2.00122 -0.00100095 0)
(-2.0017 -0.00103558 0)
(-2.00456 -0.00112309 0)
(-1.9992 -0.00140814 0)
(-2.0019 -0.0019463 0)
(-1.99955 -0.00249865 0)
(-2.00018 -0.00309226 0)
(-2.00261 -0.00363974 0)
(-1.99749 -0.00422554 0)
(-1.99454 -0.00482887 0)
(-2.00473 -0.00557981 0)
(-1.99623 -0.00651855 0)
(-1.99433 -0.00764581 0)
(-2.00067 -0.00901855 0)
(-1.99516 -0.0102049 0)
(-1.99634 -0.0113196 0)
(-1.99455 -0.012535 0)
(-1.99335 -0.0137977 0)
(-1.99198 -0.0151278 0)
(-1.99049 -0.0165305 0)
(-1.98889 -0.0180061 0)
(-1.9872 -0.0195412 0)
(-1.98541 -0.0211007 0)
(-1.98356 -0.0226502 0)
(-1.98168 -0.0241653 0)
(-1.97981 -0.0256316 0)
(-1.97796 -0.0270313 0)
(-1.97619 -0.0283411 0)
(-1.97452 -0.0295528 0)
(-1.973 -0.0306635 0)
(-1.97164 -0.0316689 0)
(-1.97049 -0.0325673 0)
(-1.96954 -0.0333578 0)
(-1.96883 -0.0340391 0)
(-1.96835 -0.0346088 0)
(-1.96812 -0.0350658 0)
(-1.96814 -0.0354136 0)
(-1.96843 -0.0356605 0)
(-1.96898 -0.0358168 0)
(-1.96978 -0.0358928 0)
(-1.97083 -0.0358962 0)
(-1.97213 -0.0358326 0)
(-1.97369 -0.0357058 0)
(-1.97548 -0.0355192 0)
(-1.97752 -0.0352744 0)
(-1.97979 -0.0349715 0)
(-1.9823 -0.03461 0)
(-1.98505 -0.0341916 0)
(-1.98804 -0.0337206 0)
(-1.99128 -0.0332005 0)
(-1.99478 -0.0326337 0)
(-1.99855 -0.0320264 0)
(-2.00259 -0.0313816 0)
(-2.00696 -0.0307027 0)
(-2.01166 -0.0299918 0)
(-2.01673 -0.02925 0)
(-2.0222 -0.028483 0)
(-2.02806 -0.0276933 0)
(-2.03433 -0.0268856 0)
(-2.04104 -0.0260697 0)
(-2.04817 -0.0252544 0)
(-2.0557 -0.0244495 0)
(-2.06365 -0.0236729 0)
(-2.07201 -0.0229487 0)
(-2.08074 -0.0222987 0)
(-2.08981 -0.0217437 0)
(-2.09921 -0.0213169 0)
(-2.10888 -0.0210611 0)
(-2.11877 -0.0210105 0)
(-2.12888 -0.0211987 0)
(-2.13906 -0.0216592 0)
(-2.1493 -0.0224096 0)
(-2.15955 -0.023429 0)
(-2.16976 -0.0246205 0)
(-2.17991 -0.0257793 0)
(-2.18993 -0.0265478 0)
(-2.19965 -0.0263436 0)
(-2.20874 -0.0242924 0)
(-2.21675 -0.0190833 0)
(-2.2236 -0.00902146 0)
(-2.22856 0.00802251 0)
(-2.2307 0.0371275 0)
(-2.23383 0.0890944 0)
(-2.23777 0.183707 0)
(-2.23308 0.363106 0)
(-2.21049 0.689667 0)
(-1.99987 0.00156739 0)
(-2.00653 0.000704702 0)
(-1.9963 0.000432902 0)
(-2.00669 0.000101308 0)
(-2.00161 0.000316676 0)
(-1.99747 -0.000202318 0)
(-2.00361 -0.000877421 0)
(-1.99758 -0.000790059 0)
(-1.99919 -0.000672948 0)
(-2.00574 -0.000737749 0)
(-2.00338 -0.00078097 0)
(-1.99128 -0.00093815 0)
(-2.00667 -0.00111228 0)
(-2.0003 -0.00112768 0)
(-1.99362 -0.00092009 0)
(-2.00067 -0.00101657 0)
(-2.00784 -0.00130865 0)
(-1.99694 -0.00149201 0)
(-1.99617 -0.00205388 0)
(-1.99896 -0.00251348 0)
(-1.9998 -0.00300085 0)
(-2.00742 -0.00374926 0)
(-1.99662 -0.0041932 0)
(-1.99486 -0.00459831 0)
(-2.0135 -0.005581 0)
(-1.99674 -0.00647255 0)
(-2.00673 -0.00735112 0)
(-2.00737 -0.00865023 0)
(-2.00702 -0.00990926 0)
(-2.01128 -0.0111058 0)
(-2.01195 -0.0123529 0)
(-2.01411 -0.0136255 0)
(-2.01616 -0.0149482 0)
(-2.01837 -0.0163366 0)
(-2.02075 -0.017797 0)
(-2.0233 -0.0193146 0)
(-2.02604 -0.0208462 0)
(-2.02899 -0.0223529 0)
(-2.03218 -0.0238123 0)
(-2.03562 -0.0252075 0)
(-2.03927 -0.0265219 0)
(-2.0433 -0.0277322 0)
(-2.04761 -0.0288268 0)
(-2.05227 -0.0298028 0)
(-2.05733 -0.0306596 0)
(-2.06281 -0.0314016 0)
(-2.0687 -0.0320335 0)
(-2.075 -0.032558 0)
(-2.08168 -0.0329751 0)
(-2.08871 -0.033285 0)
(-2.09606 -0.0334916 0)
(-2.10371 -0.0336037 0)
(-2.11163 -0.0336323 0)
(-2.11979 -0.0335883 0)
(-2.12815 -0.0334795 0)
(-2.1367 -0.0333103 0)
(-2.14541 -0.033084 0)
(-2.15426 -0.0328034 0)
(-2.16324 -0.03247 0)
(-2.17233 -0.0320827 0)
(-2.18152 -0.031639 0)
(-2.19079 -0.031139 0)
(-2.20016 -0.0305858 0)
(-2.2096 -0.0299831 0)
(-2.21912 -0.0293321 0)
(-2.22872 -0.0286355 0)
(-2.23838 -0.0278965 0)
(-2.24816 -0.0271171 0)
(-2.25802 -0.0262974 0)
(-2.26796 -0.0254411 0)
(-2.27798 -0.0245542 0)
(-2.28808 -0.0236403 0)
(-2.29828 -0.0227059 0)
(-2.30858 -0.0217629 0)
(-2.31896 -0.0208216 0)
(-2.32944 -0.0198918 0)
(-2.34 -0.0189942 0)
(-2.35063 -0.0181553 0)
(-2.36134 -0.0173975 0)
(-2.37211 -0.016745 0)
(-2.38293 -0.0162348 0)
(-2.39379 -0.015908 0)
(-2.40466 -0.0158041 0)
(-2.41555 -0.015965 0)
(-2.42637 -0.0164204 0)
(-2.43713 -0.0171789 0)
(-2.44783 -0.0182199 0)
(-2.45842 -0.0194486 0)
(-2.46886 -0.0206714 0)
(-2.47906 -0.0215672 0)
(-2.48874 -0.0216141 0)
(-2.49748 -0.0200457 0)
(-2.50445 -0.0157725 0)
(-2.50932 -0.00719822 0)
(-2.51033 0.00815976 0)
(-2.50483 0.0356204 0)
(-2.49254 0.0851572 0)
(-2.46671 0.175295 0)
(-2.40638 0.339078 0)
(-2.31063 0.600072 0)
(-2.00051 8.96735e-05 0)
(-1.99918 0.000618088 0)
(-1.9918 0.000344996 0)
(-2.00393 0.000139662 0)
(-1.99717 0.000208141 0)
(-2.00327 -0.000400821 0)
(-1.98267 -0.000857616 0)
(-2.00228 -0.000788182 0)
(-1.99805 -0.000852361 0)
(-1.99951 -0.00084711 0)
(-1.99856 -0.000695776 0)
(-1.99445 -0.000910821 0)
(-1.99612 -0.00120035 0)
(-1.99778 -0.00122856 0)
(-1.99008 -0.00069476 0)
(-1.99963 -0.00088933 0)
(-2.00548 -0.00148388 0)
(-2.00193 -0.00138667 0)
(-1.99185 -0.00182796 0)
(-1.99266 -0.00223641 0)
(-2.00549 -0.00252166 0)
(-2.00544 -0.00339443 0)
(-1.99741 -0.00369853 0)
(-2.00833 -0.00400696 0)
(-2.00631 -0.00493517 0)
(-2.00386 -0.00562912 0)
(-2.01907 -0.00636382 0)
(-2.00755 -0.00729046 0)
(-2.02003 -0.00843047 0)
(-2.02247 -0.00963474 0)
(-2.02573 -0.0107815 0)
(-2.03075 -0.011942 0)
(-2.03556 -0.0131366 0)
(-2.04085 -0.0143828 0)
(-2.04656 -0.015696 0)
(-2.05269 -0.0170661 0)
(-2.05925 -0.0184424 0)
(-2.06627 -0.0197787 0)
(-2.0737 -0.0210591 0)
(-2.08171 -0.0222641 0)
(-2.09007 -0.0233752 0)
(-2.09915 -0.0243805 0)
(-2.10868 -0.0252644 0)
(-2.11871 -0.0260198 0)
(-2.12923 -0.0266506 0)
(-2.14023 -0.027169 0)
(-2.15168 -0.027587 0)
(-2.16354 -0.0279124 0)
(-2.17579 -0.0281477 0)
(-2.18839 -0.0282938 0)
(-2.2013 -0.0283547 0)
(-2.21447 -0.0283392 0)
(-2.22784 -0.0282585 0)
(-2.24136 -0.0281232 0)
(-2.255 -0.02794 0)
(-2.26872 -0.0277118 0)
(-2.2825 -0.0274402 0)
(-2.29629 -0.0271262 0)
(-2.31008 -0.0267704 0)
(-2.32382 -0.0263701 0)
(-2.3375 -0.0259223 0)
(-2.35111 -0.0254254 0)
(-2.3646 -0.0248806 0)
(-2.37797 -0.0242902 0)
(-2.39121 -0.0236563 0)
(-2.40431 -0.0229785 0)
(-2.41724 -0.0222596 0)
(-2.43001 -0.0215031 0)
(-2.4426 -0.0207103 0)
(-2.455 -0.0198833 0)
(-2.46718 -0.0190247 0)
(-2.47917 -0.0181375 0)
(-2.49098 -0.0172293 0)
(-2.50259 -0.0163102 0)
(-2.51401 -0.0153894 0)
(-2.52527 -0.0144788 0)
(-2.53637 -0.013601 0)
(-2.54732 -0.0127795 0)
(-2.55813 -0.0120346 0)
(-2.56884 -0.0113943 0)
(-2.57945 -0.0108962 0)
(-2.58997 -0.0105798 0)
(-2.60043 -0.0104877 0)
(-2.61085 -0.010664 0)
(-2.62124 -0.0111364 0)
(-2.63163 -0.0119113 0)
(-2.642 -0.0129774 0)
(-2.65231 -0.0142536 0)
(-2.66248 -0.0155641 0)
(-2.67236 -0.0166387 0)
(-2.68162 -0.0170409 0)
(-2.68973 -0.0161399 0)
(-2.69566 -0.01313 0)
(-2.69856 -0.00659008 0)
(-2.69633 0.00597906 0)
(-2.68409 0.029342 0)
(-2.65861 0.0719295 0)
(-2.60773 0.149503 0)
(-2.50506 0.284984 0)
(-2.36407 0.47855 0)
(-1.99515 -0.000490001 0)
(-1.99472 0.000744126 0)
(-1.99706 0.000380451 0)
(-1.98618 0.000215863 0)
(-2.00103 -0.000169703 0)
(-1.99706 -0.000670169 0)
(-1.98705 -0.000633086 0)
(-1.99479 -0.000873674 0)
(-1.9992 -0.00101471 0)
(-1.99209 -0.00066388 0)
(-1.99691 -0.000713634 0)
(-2.00314 -0.00102915 0)
(-1.98011 -0.000847577 0)
(-1.99204 -0.000891939 0)
(-1.99837 -0.000726544 0)
(-1.99938 -0.000761532 0)
(-1.99866 -0.00115775 0)
(-2.00716 -0.00120461 0)
(-1.99443 -0.00128983 0)
(-1.98439 -0.00152161 0)
(-2.01229 -0.00193341 0)
(-2.00251 -0.00249973 0)
(-2.0004 -0.00275283 0)
(-2.02107 -0.00312964 0)
(-1.99533 -0.0036777 0)
(-2.01761 -0.00414361 0)
(-2.02499 -0.00478127 0)
(-2.0104 -0.00536819 0)
(-2.03173 -0.00619088 0)
(-2.03009 -0.00724865 0)
(-2.03661 -0.00817546 0)
(-2.04329 -0.00910384 0)
(-2.05005 -0.010051 0)
(-2.05759 -0.0110354 0)
(-2.06581 -0.012081 0)
(-2.07464 -0.0131858 0)
(-2.08411 -0.0142874 0)
(-2.09435 -0.0153315 0)
(-2.10517 -0.0163111 0)
(-2.11692 -0.0172166 0)
(-2.12922 -0.0180296 0)
(-2.14224 -0.0187444 0)
(-2.15583 -0.0193538 0)
(-2.16997 -0.0198531 0)
(-2.18458 -0.0202484 0)
(-2.19959 -0.0205531 0)
(-2.21495 -0.020779 0)
(-2.23063 -0.0209329 0)
(-2.24659 -0.021017 0)
(-2.26279 -0.021033 0)
(-2.27918 -0.0209866 0)
(-2.2957 -0.020888 0)
(-2.31229 -0.0207487 0)
(-2.32889 -0.0205771 0)
(-2.34548 -0.020377 0)
(-2.36203 -0.020149 0)
(-2.37851 -0.0198934 0)
(-2.39487 -0.0196107 0)
(-2.41109 -0.0193003 0)
(-2.42713 -0.0189592 0)
(-2.44298 -0.0185842 0)
(-2.45859 -0.0181731 0)
(-2.47395 -0.0177242 0)
(-2.48902 -0.0172374 0)
(-2.50379 -0.0167141 0)
(-2.51827 -0.0161541 0)
(-2.53241 -0.0155581 0)
(-2.54623 -0.0149279 0)
(-2.55971 -0.0142652 0)
(-2.57287 -0.0135699 0)
(-2.5857 -0.0128411 0)
(-2.59822 -0.0120812 0)
(-2.61043 -0.011297 0)
(-2.62234 -0.0104958 0)
(-2.63398 -0.0096848 0)
(-2.64537 -0.00887455 0)
(-2.65653 -0.00809034 0)
(-2.66749 -0.00735325 0)
(-2.67826 -0.00667889 0)
(-2.68889 -0.00609864 0)
(-2.6994 -0.00564874 0)
(-2.70982 -0.00536872 0)
(-2.72018 -0.00530131 0)
(-2.73052 -0.00548834 0)
(-2.74085 -0.0059623 0)
(-2.7512 -0.0067296 0)
(-2.76156 -0.00779961 0)
(-2.77187 -0.00912275 0)
(-2.78201 -0.0105322 0)
(-2.79178 -0.0118246 0)
(-2.80082 -0.0126632 0)
(-2.80847 -0.012579 0)
(-2.81367 -0.0110139 0)
(-2.8149 -0.00693244 0)
(-2.81035 0.00184519 0)
(-2.79284 0.0191436 0)
(-2.75702 0.0511282 0)
(-2.68703 0.109733 0)
(-2.55476 0.209285 0)
(-2.38815 0.339774 0)
(-1.99082 0.00133018 0)
(-1.99475 0.00066172 0)
(-2.00374 0.000391513 0)
(-1.9672 0.000323811 0)
(-2.01071 -0.000367526 0)
(-1.98579 -0.000795578 0)
(-1.99532 -0.000494012 0)
(-1.98442 -0.000862531 0)
(-1.99995 -0.00108577 0)
(-1.99637 -0.000522398 0)
(-1.9892 -0.000822633 0)
(-1.99886 -0.000851633 0)
(-1.98804 -0.000333924 0)
(-1.99103 -0.000445428 0)
(-1.99853 -0.000886142 0)
(-1.99618 -0.000577432 0)
(-1.99796 -0.000371167 0)
(-2.00632 -0.000768282 0)
(-1.99377 -0.000615721 0)
(-1.9966 -0.000666579 0)
(-2.00511 -0.00114668 0)
(-2.00052 -0.00125809 0)
(-2.00955 -0.00154317 0)
(-2.0197 -0.0018783 0)
(-2.00042 -0.00205837 0)
(-2.02516 -0.00237794 0)
(-2.02359 -0.00271639 0)
(-2.01849 -0.00307539 0)
(-2.03732 -0.00360397 0)
(-2.0351 -0.00430575 0)
(-2.04409 -0.00490924 0)
(-2.05142 -0.00549987 0)
(-2.05945 -0.00609383 0)
(-2.06841 -0.0067121 0)
(-2.07827 -0.00738023 0)
(-2.08885 -0.00810133 0)
(-2.10049 -0.00880506 0)
(-2.11315 -0.00944784 0)
(-2.12659 -0.0100362 0)
(-2.14085 -0.0105686 0)
(-2.15581 -0.0110369 0)
(-2.17143 -0.0114372 0)
(-2.18762 -0.0117679 0)
(-2.2043 -0.0120283 0)
(-2.22138 -0.0122237 0)
(-2.23876 -0.0123627 0)
(-2.25639 -0.0124525 0)
(-2.27421 -0.0124965 0)
(-2.29217 -0.0124961 0)
(-2.3102 -0.0124533 0)
(-2.32824 -0.012374 0)
(-2.34623 -0.0122669 0)
(-2.36413 -0.0121404 0)
(-2.3819 -0.0119995 0)
(-2.39954 -0.0118452 0)
(-2.41702 -0.0116769 0)
(-2.43433 -0.0114942 0)
(-2.45142 -0.0112974 0)
(-2.46829 -0.0110847 0)
(-2.48491 -0.0108535 0)
(-2.50127 -0.0106012 0)
(-2.51735 -0.0103251 0)
(-2.53313 -0.010022 0)
(-2.54858 -0.00968935 0)
(-2.5637 -0.00932649 0)
(-2.57847 -0.00893285 0)
(-2.5929 -0.00850712 0)
(-2.60696 -0.00804848 0)
(-2.62068 -0.00755641 0)
(-2.63404 -0.00702922 0)
(-2.64707 -0.00646521 0)
(-2.65976 -0.00586588 0)
(-2.67213 -0.00523569 0)
(-2.68419 -0.00457952 0)
(-2.69597 -0.00390373 0)
(-2.7075 -0.00321815 0)
(-2.71877 -0.00254343 0)
(-2.72981 -0.00190315 0)
(-2.7407 -0.00131003 0)
(-2.75143 -0.000796393 0)
(-2.76205 -0.000396968 0)
(-2.77259 -0.000150604 0)
(-2.78309 -9.94751e-05 0)
(-2.79358 -0.000285332 0)
(-2.80411 -0.000745767 0)
(-2.81467 -0.00150039 0)
(-2.82533 -0.00255789 0)
(-2.83583 -0.00393342 0)
(-2.8462 -0.00545201 0)
(-2.85618 -0.00700285 0)
(-2.86534 -0.00834973 0)
(-2.87297 -0.00919323 0)
(-2.87798 -0.00918839 0)
(-2.87855 -0.00779424 0)
(-2.87233 -0.00351289 0)
(-2.85268 0.00616953 0)
(-2.81003 0.024951 0)
(-2.72786 0.0600956 0)
(-2.57762 0.11943 0)
(-2.39843 0.192777 0)
(-1.99285 0.00319859 0)
(-1.99486 0.000315767 0)
(-1.99478 0.000151069 0)
(-1.98105 0.000127027 0)
(-2.00617 -0.000299825 0)
(-1.98358 -0.00052201 0)
(-1.99298 -0.000551598 0)
(-1.98234 -0.0007493 0)
(-1.99663 -0.000994073 0)
(-2.00059 -0.00066319 0)
(-1.98548 -0.000707697 0)
(-1.99235 -0.000338099 0)
(-1.99847 -0.000111419 0)
(-1.99019 -7.89164e-05 0)
(-1.9961 -0.000571456 0)
(-1.99599 -0.000311697 0)
(-1.99986 0.000274394 0)
(-2.00016 0.000121201 0)
(-2.00284 0.000126098 0)
(-1.99514 6.64025e-05 0)
(-2.00083 -0.000100647 0)
(-2.00843 0.000100528 1.1817e-42)
(-2.00947 -9.44691e-05 0)
(-2.01528 -0.000264645 0)
(-2.0113 -0.000205731 0)
(-2.02161 -0.000473312 0)
(-2.02553 -0.000513771 0)
(-2.02656 -0.000613083 0)
(-2.03639 -0.000898186 0)
(-2.0384 -0.00109396 0)
(-2.04699 -0.00128477 0)
(-2.05513 -0.00146532 0)
(-2.06384 -0.00164004 0)
(-2.07339 -0.0018207 0)
(-2.08408 -0.0020154 0)
(-2.09556 -0.00222882 0)
(-2.10867 -0.00243231 0)
(-2.12276 -0.00261176 0)
(-2.13756 -0.00277327 0)
(-2.15313 -0.00291609 0)
(-2.16944 -0.00303935 0)
(-2.18639 -0.00314206 0)
(-2.20386 -0.00322344 0)
(-2.22175 -0.00328355 0)
(-2.23994 -0.00332415 0)
(-2.25834 -0.0033481 0)
(-2.27689 -0.00335756 0)
(-2.29552 -0.00335351 0)
(-2.31417 -0.00333629 0)
(-2.33279 -0.00330651 0)
(-2.3513 -0.00326581 0)
(-2.36965 -0.00321663 0)
(-2.38782 -0.00316127 0)
(-2.4058 -0.00310101 0)
(-2.42358 -0.00303593 0)
(-2.44116 -0.00296546 0)
(-2.45853 -0.00288899 0)
(-2.47565 -0.00280549 0)
(-2.49253 -0.0027131 0)
(-2.50916 -0.00260979 0)
(-2.52552 -0.00249402 0)
(-2.54161 -0.00236349 0)
(-2.5574 -0.00221477 0)
(-2.57288 -0.00204428 0)
(-2.58803 -0.00184947 0)
(-2.60284 -0.00162785 0)
(-2.61731 -0.0013767 0)
(-2.63144 -0.00109347 0)
(-2.64522 -0.000775391 0)
(-2.65865 -0.000419307 0)
(-2.67176 -2.32284e-05 0)
(-2.68453 0.000412531 0)
(-2.69699 0.000886181 0)
(-2.70914 0.00139468 0)
(-2.721 0.00193183 0)
(-2.73261 0.00248648 0)
(-2.74396 0.00304904 0)
(-2.75509 0.0035986 0)
(-2.76608 0.00411569 0)
(-2.77695 0.00457045 0)
(-2.78774 0.00492961 0)
(-2.79848 0.00515484 0)
(-2.80922 0.00520414 6.11744e-41)
(-2.82 0.00503382 0)
(-2.83083 0.00460224 0)
(-2.84172 0.00386471 0)
(-2.85269 0.0028119 0)
(-2.86351 0.00140498 1.65154e-41)
(-2.8742 -0.00025073 0)
(-2.88451 -0.00210395 0)
(-2.89374 -0.00399524 0)
(-2.9015 -0.0058035 0)
(-2.90659 -0.00745004 0)
(-2.9072 -0.00878634 -5.16415e-41)
(-2.90011 -0.00929479 0)
(-2.88001 -0.00811062 0)
(-2.83501 -0.00407787 -4.79351e-41)
(-2.74774 0.00494888 0)
(-2.58976 0.0214329 0)
(-2.40557 0.0419902 0)
(-1.99743 0.00246787 0)
(-1.99382 0.000100346 0)
(-1.98577 5.9109e-05 0)
(-1.99804 -0.000430052 0)
(-1.99992 -0.000371614 0)
(-1.98356 -0.000238088 0)
(-1.99021 -0.000590207 0)
(-1.97658 -0.000552463 0)
(-2.00068 -0.000637819 0)
(-1.99654 -0.00074833 0)
(-1.98784 -0.000539537 0)
(-1.99765 -0.000114481 0)
(-1.99507 -2.65046e-05 0)
(-1.99229 0.000377688 0)
(-1.99199 0.000117761 0)
(-1.99975 0.000102268 0)
(-1.9977 0.00074083 0)
(-1.99563 0.000917903 0)
(-2.01311 0.000904818 0)
(-1.98529 0.00103977 0)
(-2.0007 0.000950622 0)
(-2.01454 0.00134339 1.57915e-41)
(-2.00789 0.00152823 0)
(-2.00962 0.00144802 0)
(-2.0214 0.00162707 0)
(-2.01027 0.00157098 0)
(-2.02922 0.0016425 0)
(-2.02818 0.00180168 0)
(-2.03188 0.00187947 0)
(-2.04041 0.00217804 0)
(-2.04556 0.00243364 0)
(-2.05421 0.0026848 0)
(-2.06304 0.00294631 0)
(-2.07235 0.00322443 0)
(-2.08292 0.00353596 0)
(-2.09422 0.00388075 0)
(-2.10705 0.00420999 0)
(-2.12085 0.00450479 0)
(-2.13543 0.00477406 0)
(-2.15074 0.00501885 0)
(-2.1668 0.00523654 0)
(-2.1835 0.00542354 0)
(-2.20075 0.00558 0)
(-2.21843 0.00570619 0)
(-2.23644 0.00580419 0)
(-2.25469 0.00587731 0)
(-2.27312 0.00592833 0)
(-2.29165 0.00595874 0)
(-2.31022 0.00596932 0)
(-2.32878 0.00596192 0)
(-2.34725 0.00594044 0)
(-2.36558 0.00591011 0)
(-2.38373 0.00587548 0)
(-2.4017 0.00583895 0)
(-2.41946 0.00580094 0)
(-2.43703 0.00576162 0)
(-2.45437 0.00572218 0)
(-2.47146 0.0056848 0)
(-2.4883 0.00565142 0)
(-2.50488 0.00562317 0)
(-2.52119 0.00560045 0)
(-2.53721 0.00558453 0)
(-2.55293 0.0055786 0)
(-2.56832 0.00558684 0)
(-2.58337 0.00561344 0)
(-2.59809 0.00566286 0)
(-2.61245 0.00573945 0)
(-2.62646 0.00584733 0)
(-2.64012 0.00599108 0)
(-2.65342 0.00617536 0)
(-2.66639 0.00640284 0)
(-2.67901 0.00667439 0)
(-2.69132 0.00699071 0)
(-2.70331 0.00735083 0)
(-2.71502 0.00774936 0)
(-2.72647 0.00817724 0)
(-2.73769 0.00862914 0)
(-2.74871 0.00909021 0)
(-2.75957 0.00953621 0)
(-2.7703 0.0099401 0)
(-2.78095 0.0102692 0)
(-2.79157 0.0104851 0)
(-2.80219 0.0105451 1.23957e-40)
(-2.81287 0.0104035 0)
(-2.82362 0.010011 0)
(-2.83446 0.0093106 0)
(-2.84538 0.00826407 0)
(-2.8563 0.00683925 8.03949e-41)
(-2.86702 0.00502124 0)
(-2.87734 0.0028277 0)
(-2.88652 0.000345567 0)
(-2.89423 -0.00244253 0)
(-2.89902 -0.00574329 0)
(-2.89954 -0.00982893 -5.77692e-41)
(-2.89249 -0.0151266 0)
(-2.8722 -0.0224817 0)
(-2.82822 -0.0336383 -3.95416e-40)
(-2.74212 -0.0515178 0)
(-2.58575 -0.0788889 0)
(-2.40297 -0.109895 0)
(-2.00088 -0.000561102 0)
(-1.99034 -4.6302e-05 0)
(-1.9883 9.13569e-05 0)
(-2.00182 -0.000641106 0)
(-1.9907 -0.000665286 0)
(-1.99181 -0.000374496 0)
(-1.99264 -0.000516336 0)
(-1.97912 -0.000238707 0)
(-2.00043 -0.000249283 0)
(-1.99175 -0.000715242 0)
(-1.99311 -0.000509245 0)
(-1.99953 -8.53859e-05 0)
(-1.98916 0.000150845 0)
(-1.99914 0.000592611 0)
(-1.98835 0.000690915 0)
(-1.99944 0.000781899 0)
(-1.99335 0.00119708 0)
(-1.99803 0.00148781 0)
(-2.00915 0.00170154 0)
(-1.9871 0.00209438 0)
(-2.00373 0.00198902 0)
(-2.01135 0.00231138 0)
(-2.00779 0.00302604 0)
(-2.00105 0.00305357 0)
(-2.02385 0.0032403 0)
(-2.00597 0.0035933 0)
(-2.02154 0.00373065 0)
(-2.02946 0.00414161 0)
(-2.02425 0.00466708 0)
(-2.03834 0.00533302 0)
(-2.04145 0.00598991 0)
(-2.0489 0.00664 0)
(-2.05722 0.00730802 0)
(-2.06571 0.00801188 0)
(-2.07529 0.00877483 0)
(-2.08555 0.00959951 0)
(-2.09677 0.0104093 0)
(-2.10884 0.0111592 0)
(-2.12191 0.0118517 0)
(-2.13566 0.012485 0)
(-2.15016 0.0130505 0)
(-2.1653 0.0135404 0)
(-2.18103 0.0139548 0)
(-2.19726 0.0142926 0)
(-2.21391 0.0145582 0)
(-2.23089 0.0147599 0)
(-2.24815 0.0149049 0)
(-2.26562 0.0149972 0)
(-2.28326 0.0150382 0)
(-2.30102 0.0150308 0)
(-2.31881 0.0149822 0)
(-2.33659 0.014903 0)
(-2.35429 0.0148035 0)
(-2.37188 0.0146898 0)
(-2.38935 0.0145638 0)
(-2.40667 0.0144261 0)
(-2.42381 0.0142786 0)
(-2.44073 0.0141246 0)
(-2.45742 0.0139666 0)
(-2.47386 0.0138057 0)
(-2.49003 0.0136419 0)
(-2.5059 0.0134759 0)
(-2.52146 0.0133115 0)
(-2.53669 0.0131534 0)
(-2.55158 0.0130069 0)
(-2.56611 0.0128784 0)
(-2.58028 0.0127745 0)
(-2.59407 0.0127011 0)
(-2.60749 0.0126642 0)
(-2.62055 0.0126702 0)
(-2.63324 0.0127233 0)
(-2.64558 0.0128254 0)
(-2.65758 0.0129796 0)
(-2.66926 0.0131874 0)
(-2.68063 0.0134453 0)
(-2.69174 0.0137483 0)
(-2.7026 0.0140908 0)
(-2.71326 0.0144591 0)
(-2.72375 0.0148322 0)
(-2.73411 0.0151853 0)
(-2.7444 0.0154867 0)
(-2.75465 0.0156975 0)
(-2.76493 0.015775 0)
(-2.77526 0.0156716 0)
(-2.78569 0.0153312 0)
(-2.79625 0.0146887 0)
(-2.80692 0.0136786 0)
(-2.81762 0.0122332 0)
(-2.82818 0.0102727 0)
(-2.8383 0.00774616 0)
(-2.84747 0.00461274 0)
(-2.85525 0.00082203 0)
(-2.86006 -0.00405904 0)
(-2.8607 -0.0108266 0)
(-2.85449 -0.0206937 0)