/*--------------------------------*- C++ -*----------------------------------*\
| =========                 |                                                 |
| \\      /  F ield         | OpenFOAM: The Open Source CFD Toolbox           |
|  \\    /   O peration     | Version:  2.1.0                                 |
|   \\  /    A nd           | Web:      www.OpenFOAM.org                      |
|    \\/     M anipulation  |                                                 |
\*---------------------------------------------------------------------------*/
FoamFile
{
    version     2.0;
    format      ascii;
    class       volScalarField;
    location    "0.08";
    object      k;
}
// * * * * * * * * * * * * * * * * * * * * * * * * * * * * * * * * * * * * * //

dimensions      [0 2 -2 0 0 0 0];

internalField   nonuniform List<scalar> 
6400
(
0.0291692
0.0291497
0.0291248
0.0290931
0.0290606
0.0290183
0.0289666
0.0289036
0.0288305
0.0287454
0.0286497
0.0285416
0.0284184
0.0282786
0.0281207
0.0279441
0.0277473
0.027529
0.0272882
0.0270243
0.0267368
0.0264255
0.0260909
0.0257341
0.0253564
0.024959
0.024544
0.0241144
0.0236739
0.0232258
0.0227719
0.0223148
0.0218592
0.0214099
0.0209718
0.0205488
0.0201457
0.019768
0.0194171
0.0190918
0.0187907
0.0185091
0.0182475
0.0180111
0.0178056
0.0176353
0.0174977
0.017423
0.0174113
0.0174342
0.0174965
0.0175948
0.0177225
0.0178723
0.0180358
0.0182047
0.0183714
0.0185315
0.0186858
0.0188372
0.0189802
0.0191076
0.0192164
0.0193062
0.0193778
0.0194075
0.0194113
0.0193963
0.0193504
0.0192685
0.0191508
0.0189977
0.0188004
0.0185627
0.0183048
0.0180292
0.0177192
0.0173716
0.0169936
0.0165919
0.0161734
0.015738
0.0152752
0.0147514
0.0141908
0.0136012
0.0129693
0.0122674
0.0114702
0.01054
0.0094233
0.00804977
0.00637185
0.00439195
0.002281
0.00156351
0.00197183
0.00421232
0.00631795
0.00699232
0.00980131
0.00966205
0.00959991
0.00947318
0.00938396
0.00924812
0.00913
0.00898388
0.00885625
0.0087178
0.00859289
0.00846706
0.00835233
0.00824295
0.00814774
0.00806132
0.00798998
0.00794699
0.00793177
0.00792798
0.00793049
0.00795164
0.00800619
0.008101
0.00823502
0.00840422
0.00861262
0.00887703
0.00921641
0.00964512
0.0101681
0.0107835
0.0114914
0.0122889
0.0131626
0.0140923
0.015055
0.0160259
0.0169997
0.0179866
0.019005
0.0200782
0.0212262
0.0224631
0.0237962
0.0252231
0.0267203
0.0282613
0.0298295
0.0314113
0.0329948
0.0345706
0.0361305
0.0376648
0.0391638
0.0406174
0.0420183
0.0433618
0.0446547
0.0459069
0.0471009
0.0482252
0.0492781
0.0502607
0.0511716
0.052006
0.0527631
0.0534369
0.0540131
0.0544842
0.0548593
0.0551466
0.0552793
0.0553216
0.0553179
0.0551983
0.0549044
0.0544556
0.0538769
0.0531922
0.052394
0.051452
0.050363
0.0491296
0.0476942
0.0460814
0.0442298
0.0420536
0.0395348
0.0366221
0.0333213
0.0297009
0.0258434
0.0218315
0.0176914
0.0138007
0.0108969
0.00875354
0.00735566
0.00612277
0.00178419
0.00178415
0.00179086
0.00180086
0.00181507
0.00183517
0.00186065
0.00189366
0.0019362
0.00198704
0.00204799
0.0021201
0.00220466
0.00230371
0.00241647
0.00254123
0.00267484
0.0028139
0.00296087
0.00312426
0.00331458
0.00354002
0.0038096
0.00412869
0.00450286
0.0049351
0.00542871
0.00598653
0.00662429
0.0073586
0.00820375
0.00916012
0.0102199
0.011372
0.0126022
0.0138933
0.0152386
0.0166383
0.0180862
0.0195695
0.0210831
0.0226275
0.0242074
0.0258288
0.0274921
0.0291974
0.0309418
0.0327113
0.0344854
0.0362515
0.0380029
0.0397323
0.0414316
0.0430921
0.0447077
0.0462724
0.0477841
0.0492416
0.0506315
0.0519386
0.0531711
0.0543097
0.0553499
0.0562963
0.0571402
0.057884
0.0585393
0.0590869
0.0594902
0.0597536
0.059875
0.059914
0.0598917
0.0596711
0.059256
0.0587387
0.0580662
0.0571815
0.0561342
0.0549534
0.0535946
0.0520389
0.0503259
0.0484721
0.0464698
0.0442959
0.041997
0.0395729
0.036969
0.0341671
0.0311782
0.0279841
0.024503
0.0207934
0.0169673
0.0132853
0.0101779
0.00768328
0.00579487
0.00390556
0.00107765
0.00109634
0.00111028
0.00113534
0.00116326
0.0011994
0.00124036
0.00128642
0.00133617
0.00138956
0.00145058
0.0015221
0.00160518
0.00170251
0.00181254
0.00193628
0.00207392
0.00222735
0.0024003
0.00259882
0.00283302
0.00311322
0.00345243
0.00385945
0.0043459
0.00491994
0.00559055
0.0063589
0.0072202
0.00816351
0.00917944
0.0102638
0.0114144
0.0126281
0.0139038
0.0152457
0.0166488
0.0180956
0.0195807
0.0211054
0.0226714
0.0242732
0.025906
0.0275679
0.0292564
0.0309655
0.0326834
0.0343973
0.0360934
0.0377619
0.0393943
0.0409816
0.042514
0.0439813
0.0453749
0.0466857
0.0479059
0.049026
0.0500422
0.0509496
0.0517412
0.0524206
0.0529749
0.0533827
0.0536103
0.0537094
0.0537355
0.0536523
0.0533092
0.0528299
0.0522897
0.0515752
0.0506849
0.0496975
0.0485914
0.0473393
0.0459743
0.04451
0.0429301
0.041243
0.0394804
0.0376423
0.0357121
0.0336975
0.0316056
0.0294337
0.0272416
0.0250403
0.0227878
0.0205029
0.0182384
0.0160166
0.013822
0.0116645
0.00957634
0.00763272
0.00584942
0.00435674
0.0032913
0.00279406
0.00105944
0.00107344
0.00108669
0.00110699
0.00113106
0.00115931
0.00119065
0.00122578
0.00126579
0.00131235
0.00136832
0.00143441
0.00151292
0.0016042
0.00170866
0.00182737
0.00196277
0.0021183
0.00229883
0.00251357
0.0027723
0.00308807
0.00347173
0.00393291
0.0044798
0.00511762
0.00584709
0.0066638
0.00755806
0.00851824
0.00952997
0.0105807
0.0116618
0.0127673
0.0138967
0.01505
0.0162347
0.0174566
0.0187125
0.0199922
0.021288
0.0225946
0.0239083
0.0252231
0.0265338
0.0278323
0.0291087
0.0303525
0.0315534
0.0327042
0.0337969
0.0348229
0.0357727
0.0366395
0.0374172
0.0380998
0.038685
0.0391675
0.0395363
0.0397691
0.039872
0.0399047
0.0398782
0.0396609
0.0392955
0.0388884
0.0383721
0.0377017
0.0369453
0.0361124
0.0351604
0.0341005
0.0329773
0.0317824
0.0305067
0.0291751
0.0277784
0.0263104
0.0248093
0.0233103
0.0218163
0.02031
0.0187565
0.0171303
0.0155517
0.0142126
0.0129762
0.011726
0.0104824
0.00931638
0.00824678
0.00728155
0.00633634
0.00548184
0.00474099
0.0039489
0.00333097
0.00292717
0.00274206
0.00270117
0.00107945
0.00109167
0.00110218
0.00111774
0.00113625
0.00115551
0.00117745
0.00120133
0.0012314
0.00126841
0.0013155
0.00137338
0.00144284
0.00152452
0.00161703
0.00172221
0.00184285
0.0019823
0.00214747
0.00234781
0.00259417
0.00289913
0.00327202
0.00371981
0.00424623
0.00485159
0.00552902
0.00626753
0.0070481
0.0078525
0.00866244
0.00946802
0.0102682
0.0110661
0.0118715
0.0126872
0.0135161
0.0143531
0.0151908
0.0160217
0.0168413
0.0176489
0.0184435
0.0192205
0.0199736
0.0206954
0.0213795
0.0220198
0.0226109
0.0231493
0.0236312
0.0240514
0.0243984
0.0246694
0.0248591
0.0249456
0.0249757
0.0249701
0.0248402
0.0245966
0.0243226
0.0239618
0.0234929
0.0229682
0.0223738
0.0217033
0.0209794
0.0201875
0.0193423
0.0185063
0.0176357
0.0167712
0.0159062
0.0150554
0.0141921
0.0133466
0.0125326
0.0117179
0.0109679
0.0102509
0.00955339
0.00888047
0.00825068
0.00763189
0.00710315
0.00660345
0.00613829
0.00568076
0.00526311
0.00487049
0.00450868
0.00416706
0.00384476
0.00355091
0.00328118
0.00303963
0.00287858
0.00280357
0.00278778
0.00284866
0.00109444
0.00110344
0.00111004
0.0011198
0.00113127
0.00114289
0.001158
0.00117595
0.00119945
0.00122996
0.00126823
0.00131733
0.00137454
0.00144187
0.00151707
0.00160127
0.00169751
0.00180791
0.00194101
0.0021032
0.0023041
0.00255016
0.00284916
0.00321423
0.00365718
0.00417942
0.00476571
0.00538503
0.00600223
0.00659445
0.00715026
0.00767344
0.00817492
0.00866499
0.00914936
0.00962423
0.0100831
0.0105197
0.0109313
0.0113203
0.0116888
0.0120377
0.0123648
0.0126669
0.0129373
0.0131755
0.0133783
0.0135433
0.0136645
0.0137288
0.0137557
0.0137599
0.013718
0.0136106
0.0134889
0.0133383
0.0131324
0.0129023
0.0126419
0.0123409
0.0120215
0.0116868
0.0113226
0.0109473
0.0105653
0.0101743
0.00978189
0.00938573
0.00899354
0.00861658
0.00824394
0.00788592
0.00754224
0.00721048
0.00689034
0.00659066
0.00630399
0.00602969
0.00578093
0.00553722
0.00530821
0.00509479
0.0048946
0.00470025
0.0045292
0.0043558
0.00419594
0.00403881
0.00389292
0.00374859
0.00361485
0.00348702
0.00336912
0.00326362
0.00317827
0.00312374
0.00310095
0.00311756
0.00326127
0.00334678
0.00110038
0.00110521
0.00110929
0.00111526
0.00112136
0.00113001
0.00114035
0.00115477
0.00117475
0.00119946
0.00123005
0.00126828
0.00131365
0.00136471
0.00142161
0.00148319
0.00155179
0.00162867
0.00171774
0.00182341
0.00195715
0.00213355
0.00236746
0.00266753
0.00303408
0.0034555
0.00390898
0.00436593
0.00480043
0.00519851
0.00555864
0.00589044
0.00620318
0.00650122
0.0067797
0.00702936
0.00724513
0.00742832
0.00758591
0.00772511
0.00784799
0.00795321
0.00803814
0.00810267
0.00814717
0.00816765
0.00817523
0.00817513
0.00815202
0.00810284
0.00805048
0.00799211
0.00791469
0.00782546
0.00773631
0.007642
0.00753576
0.00742702
0.00731825
0.00720553
0.00709361
0.0069835
0.00687176
0.00676323
0.00665898
0.00655644
0.00645872
0.00636698
0.00628078
0.00620112
0.0061269
0.00605831
0.00599539
0.00593623
0.0058828
0.00583337
0.00578708
0.00574443
0.00570464
0.00566468
0.00562696
0.00559004
0.00555268
0.00551467
0.00547577
0.00543215
0.00538535
0.00533205
0.00527282
0.00520547
0.00513193
0.00505223
0.00497077
0.00489262
0.00483905
0.00481716
0.0048266
0.0049715
0.00519671
0.00535056
0.00109975
0.00110147
0.00110458
0.00110793
0.0011132
0.0011202
0.00112876
0.00114113
0.00115774
0.00117775
0.00120202
0.00123243
0.00126739
0.00130568
0.00134623
0.00138713
0.00142839
0.001471
0.00152256
0.0015933
0.00169646
0.00184426
0.00204555
0.00230144
0.00260528
0.00294131
0.00328848
0.00362543
0.00393717
0.00421879
0.00447403
0.00471116
0.00493399
0.00514054
0.00532347
0.00547584
0.0055981
0.00569574
0.00577679
0.00584586
0.00590359
0.00594919
0.00598384
0.00601008
0.00603024
0.00604458
0.00605348
0.00605755
0.00605939
0.0060611
0.00606598
0.00607342
0.00608154
0.00609307
0.00611035
0.00613175
0.00615584
0.00618461
0.0062192
0.00625897
0.00630415
0.00635516
0.00641209
0.00647554
0.00654497
0.00661979
0.00670031
0.00678678
0.00687963
0.00697912
0.00708562
0.00719904
0.00731923
0.00744622
0.00758013
0.00772063
0.0078676
0.0080212
0.00818156
0.00834924
0.00852389
0.00870561
0.00889423
0.0090892
0.00929064
0.00949721
0.00970872
0.00992331
0.0101382
0.0103522
0.010564
0.0107738
0.0109826
0.0111946
0.0114176
0.0116742
0.0120179
0.0124744
0.0130104
0.0132942
0.00109845
0.00109955
0.00110144
0.00110406
0.00110895
0.00111535
0.00112344
0.00113466
0.00114946
0.00116742
0.00118932
0.00121565
0.00124548
0.00127674
0.0013068
0.00133392
0.0013589
0.00138605
0.00142362
0.00148263
0.00157492
0.00171079
0.00189579
0.00212827
0.00239942
0.00269324
0.00299048
0.0032743
0.00353469
0.00377082
0.00398797
0.0041927
0.00438633
0.00456455
0.00472003
0.00484832
0.00495162
0.00503652
0.00511003
0.00517524
0.00523229
0.00528091
0.00532315
0.00536178
0.00539839
0.00543288
0.00546487
0.00549597
0.00552876
0.00556549
0.00560686
0.00565278
0.00570361
0.00576044
0.0058236
0.00589251
0.00596679
0.00604706
0.00613376
0.0062268
0.00632628
0.00643262
0.00654617
0.00666691
0.00679441
0.00692843
0.00706928
0.00721749
0.00737374
0.00753854
0.00771249
0.00789585
0.00808871
0.00829109
0.00850327
0.00872501
0.00895658
0.00919813
0.00945027
0.00971387
0.00998988
0.0102794
0.0105835
0.0109033
0.0112401
0.0115948
0.0119688
0.0123634
0.0127823
0.0132268
0.0137014
0.0142093
0.0147559
0.0153453
0.0159834
0.0166705
0.0173904
0.0180628
0.0183825
0.0184481
0.0010985
0.00109997
0.0011026
0.00110502
0.00111045
0.00111652
0.00112475
0.00113591
0.00115165
0.00117017
0.00119249
0.00121902
0.00124957
0.00128183
0.00131385
0.00134325
0.00137069
0.0013997
0.00143852
0.00149804
0.00159012
0.00172548
0.00190992
0.00214225
0.0024138
0.00270868
0.00300701
0.00329176
0.00355228
0.00378762
0.00400323
0.00420609
0.00439833
0.00457579
0.00473119
0.00485967
0.00496272
0.00504684
0.00511881
0.005182
0.00523647
0.00528195
0.00532045
0.00535471
0.0053867
0.00541662
0.00544455
0.0054718
0.00550056
0.00553291
0.00556974
0.00561124
0.00565779
0.00571027
0.00576868
0.00583267
0.00590214
0.00597754
0.00605859
0.00614558
0.00623875
0.0063383
0.00644472
0.0065582
0.00667806
0.00680422
0.00693669
0.00707572
0.00722197
0.00737573
0.00753755
0.00770752
0.00788572
0.00807205
0.00826679
0.00846967
0.00868087
0.00890057
0.00912915
0.00936735
0.00961583
0.00987545
0.0101471
0.0104318
0.0107307
0.011045
0.0113764
0.0117262
0.0120968
0.01249
0.0129083
0.013354
0.0138403
0.0143695
0.0149581
0.0156153
0.0163534
0.0171421
0.0176473
0.0178363
0.00110025
0.00110236
0.00110555
0.00110862
0.00111399
0.00112116
0.00113061
0.00114435
0.00116222
0.00118409
0.00121006
0.00124139
0.00127751
0.00131791
0.00136121
0.00140561
0.0014518
0.0014987
0.00155283
0.00162391
0.00172534
0.00186971
0.00206686
0.00231952
0.00262082
0.00295612
0.00330317
0.00364034
0.00395165
0.00423106
0.00448283
0.00471544
0.00493517
0.00514059
0.00532499
0.0054805
0.00560561
0.00570497
0.005786
0.00585349
0.00590829
0.00594962
0.00597882
0.0059932
0.00599878
0.00600025
0.00599988
0.00599512
0.00598447
0.0059714
0.00596056
0.00595154
0.00594326
0.00593843
0.00593619
0.00593543
0.00593641
0.00594279
0.00595206
0.00596358
0.00598082
0.00600105
0.00602537
0.006055
0.0060878
0.00612458
0.00616457
0.00620664
0.00625148
0.00629801
0.00634686
0.00639699
0.00644815
0.00649935
0.00655048
0.00660035
0.00664842
0.00669387
0.00673608
0.00677434
0.0068082
0.00683727
0.00686129
0.00688021
0.00689452
0.00690465
0.00691185
0.00691741
0.00692355
0.00693251
0.00694782
0.00697256
0.00700516
0.00706518
0.00715204
0.00729754
0.00752811
0.0078888
0.00839048
0.00877674
0.00110036
0.00110533
0.00111003
0.00111496
0.00112259
0.00113098
0.00114236
0.00115932
0.00118009
0.00120726
0.00124012
0.0012796
0.00132673
0.00138004
0.00143884
0.00150361
0.00157459
0.00165524
0.00174786
0.0018569
0.00199046
0.00216281
0.00238781
0.00267689
0.00303226
0.00344386
0.00389042
0.0043426
0.00477374
0.00516759
0.00552229
0.00584719
0.00615472
0.006451
0.00673352
0.00699197
0.00721914
0.00741342
0.00758085
0.00772729
0.00785602
0.0079654
0.0080537
0.00811838
0.00816137
0.00818157
0.00818882
0.00818776
0.0081581
0.00810413
0.00804858
0.00798059
0.00789359
0.00779783
0.00769675
0.00758744
0.00746593
0.00733835
0.00720936
0.00707352
0.00693138
0.00678994
0.00664812
0.00650324
0.00636095
0.00622118
0.006081
0.00594573
0.00581468
0.0056874
0.00556544
0.00544872
0.00533451
0.0052254
0.00511877
0.0050157
0.00491474
0.00481555
0.00471852
0.00462357
0.00452872
0.00443635
0.00434566
0.00425609
0.00416908
0.00408491
0.00400336
0.00392555
0.00385284
0.00378521
0.0037233
0.00366991
0.0036265
0.00359464
0.00358082
0.00357952
0.00365046
0.00377279
0.00397264
0.00406541
0.00109476
0.00110341
0.00110989
0.00112017
0.00113178
0.00114275
0.00115911
0.0011796
0.00120428
0.00123654
0.00127651
0.0013265
0.00138461
0.00145388
0.00152961
0.00161662
0.00171297
0.00182514
0.00195713
0.00211848
0.002316
0.00255798
0.00284835
0.00319829
0.00361975
0.0041174
0.00467919
0.00527648
0.00587691
0.00645492
0.00699933
0.00751064
0.00800206
0.00848491
0.00896816
0.00944968
0.0099231
0.0103794
0.0108148
0.011228
0.011622
0.0119965
0.0123499
0.0126788
0.0129788
0.0132473
0.0134836
0.0136821
0.0138385
0.0139496
0.014004
0.0140246
0.0140265
0.0139792
0.013872
0.0137521
0.013591
0.0133786
0.0131473
0.0128814
0.0125678
0.0122401
0.0118938
0.0115142
0.0111274
0.0107343
0.01033
0.00992868
0.00952513
0.00912208
0.00873832
0.00835782
0.00798956
0.00764101
0.0073006
0.00697627
0.00666688
0.0063693
0.00608042
0.0058125
0.00555145
0.00530243
0.00506797
0.00484261
0.00462525
0.00441972
0.00422247
0.00403125
0.00385033
0.00367979
0.00351849
0.00336922
0.00323122
0.0031071
0.00299269
0.00291387
0.00287633
0.00286851
0.00298023
0.00305468
0.00108005
0.00109172
0.00110144
0.00111684
0.00113473
0.001153
0.0011758
0.00120282
0.00123316
0.00127068
0.00131817
0.00137676
0.00144595
0.00152792
0.00162042
0.00172616
0.00184544
0.00198329
0.00214505
0.00234017
0.00257707
0.00286921
0.00322437
0.00364939
0.00414911
0.00472292
0.00536661
0.00607036
0.00681782
0.0075906
0.00837278
0.0091528
0.00993087
0.0107103
0.0115004
0.0123074
0.0131335
0.0139758
0.0148268
0.0156785
0.0165242
0.0173606
0.0181871
0.0190012
0.0197974
0.0205695
0.0213111
0.0220161
0.022679
0.0232956
0.0238611
0.0243717
0.0248165
0.0251899
0.0254896
0.0257099
0.025819
0.0258624
0.0258673
0.02577
0.0255345
0.0252617
0.0249112
0.0244417
0.0239116
0.0233087
0.0226198
0.0218832
0.0210807
0.0202157
0.0193742
0.0184939
0.0176043
0.0167388
0.0158737
0.0150166
0.0141766
0.0133612
0.0125388
0.0117495
0.0109889
0.0102506
0.00954881
0.00888797
0.00824837
0.00764118
0.00706509
0.00650811
0.00597438
0.00548918
0.00502258
0.0045749
0.00413436
0.00373727
0.0033641
0.00307513
0.0028381
0.00273074
0.00270136
0.00273796
0.00105942
0.00107237
0.00108503
0.00110419
0.0011273
0.00115492
0.00118662
0.00122162
0.0012617
0.00130808
0.00136323
0.00142915
0.00150661
0.00159657
0.00169994
0.00181685
0.00194963
0.00210108
0.00227645
0.00248292
0.00273021
0.00302895
0.00339078
0.00382384
0.00433725
0.0049355
0.00562064
0.00638888
0.00723365
0.00814271
0.00910493
0.0101075
0.0111437
0.0122082
0.0133005
0.0144224
0.0155761
0.0167692
0.0180039
0.0192732
0.0205653
0.0218738
0.0231949
0.0245243
0.0258564
0.027185
0.028502
0.029798
0.0310622
0.0322873
0.0334645
0.0345879
0.0356468
0.036634
0.0375427
0.0383641
0.0390919
0.0397236
0.0402549
0.0406737
0.0409737
0.0411286
0.0411902
0.0411986
0.041085
0.0407725
0.0403835
0.0399316
0.0393352
0.0386263
0.0378475
0.0369702
0.0359802
0.0349064
0.0337497
0.0325225
0.0312401
0.0299246
0.0285401
0.0270967
0.025594
0.0240292
0.0224431
0.0208518
0.0192535
0.0177053
0.0161682
0.0146475
0.0131275
0.0116548
0.010303
0.00906873
0.00776223
0.0064836
0.00530491
0.00448627
0.0036448
0.00303008
0.00274809
0.00265058
0.00107603
0.00109336
0.00110607
0.00112952
0.00115593
0.00119026
0.00123054
0.00127442
0.0013239
0.0013772
0.00143667
0.00150707
0.00158866
0.00168312
0.00179101
0.00191128
0.00204584
0.0021947
0.00236195
0.00255254
0.00277544
0.0030406
0.00335927
0.00374113
0.00419565
0.00473208
0.00535795
0.00607693
0.00688438
0.00777167
0.0087282
0.00974902
0.0108336
0.0119795
0.0131857
0.0144545
0.015792
0.0171904
0.0186318
0.0201141
0.0216395
0.0232082
0.0248149
0.0264547
0.0281258
0.0298246
0.0315435
0.0332714
0.0349941
0.0367019
0.0383848
0.0400367
0.0416478
0.0432089
0.0447125
0.0461491
0.0475105
0.0487885
0.0499741
0.0510594
0.05204
0.052914
0.0536771
0.0543301
0.0548537
0.0552336
0.0554476
0.0555383
0.0555598
0.0554674
0.0551278
0.0546667
0.0541386
0.0534425
0.0525874
0.0516359
0.0505614
0.0493539
0.0480449
0.0466413
0.0451225
0.0434824
0.0417346
0.0398852
0.0379224
0.035843
0.0336442
0.0312956
0.0287895
0.0261696
0.0234362
0.0206185
0.0176916
0.0147955
0.0120014
0.00937865
0.00705893
0.00508785
0.00363739
0.00295661
0.00177479
0.00177193
0.0017731
0.00178002
0.00179291
0.00181011
0.00183312
0.00186206
0.00190155
0.00195017
0.00200825
0.00207766
0.00215892
0.00225402
0.00236311
0.00248437
0.00261562
0.00275238
0.00289535
0.00305238
0.00323306
0.00344645
0.00370058
0.00400218
0.00435425
0.00475991
0.0052205
0.00573886
0.006327
0.00700265
0.00778016
0.00866476
0.00965135
0.0107297
0.0118893
0.0131172
0.0143992
0.0157353
0.0171223
0.0185532
0.020019
0.0215184
0.0230552
0.024634
0.0262582
0.0279272
0.0296381
0.0313871
0.033156
0.0349287
0.0366954
0.0384508
0.0401873
0.041896
0.0435711
0.0452062
0.0467959
0.0483369
0.0498267
0.0512651
0.0526379
0.0539305
0.0551511
0.0562792
0.0573186
0.0582713
0.0591281
0.0598965
0.0605887
0.0611823
0.0616402
0.061978
0.0621828
0.0622656
0.0622832
0.0621797
0.0618314
0.0613429
0.0607199
0.0598698
0.0588122
0.0575859
0.0561465
0.0544513
0.0525238
0.0503845
0.0480079
0.0453654
0.0424651
0.0393121
0.0358576
0.0320483
0.0279131
0.0235058
0.0190052
0.0148984
0.0113645
0.00876001
0.00664507
0.00436473
0.00976316
0.00959679
0.0095266
0.00939045
0.00930275
0.00915285
0.00903729
0.00887436
0.00874458
0.00859911
0.00847084
0.00834353
0.00822407
0.00811236
0.00801191
0.00792342
0.00784961
0.00779924
0.00777968
0.00777399
0.00777436
0.00778891
0.00783332
0.00791644
0.00803841
0.00819465
0.00838568
0.00862522
0.00893054
0.00931676
0.00979237
0.0103574
0.011011
0.0117515
0.0125692
0.0134469
0.0143636
0.015294
0.0162236
0.0171604
0.0181212
0.0191265
0.0202
0.021357
0.0226066
0.0239539
0.0253897
0.0268888
0.0284254
0.0299856
0.0315583
0.033133
0.0347028
0.0362594
0.0377956
0.0393031
0.0407738
0.0422023
0.0435836
0.0449137
0.0461972
0.04744
0.0486242
0.0497418
0.0507951
0.0517858
0.0527104
0.0535678
0.0543597
0.0550792
0.0557114
0.056249
0.0566962
0.0570593
0.0572995
0.0573974
0.0574208
0.0573588
0.0570876
0.0566174
0.0559759
0.0551589
0.0541602
0.0529374
0.0514628
0.0497204
0.047693
0.0453328
0.0425884
0.0393952
0.0356523
0.0314235
0.0269604
0.0225394
0.0184463
0.0145827
0.011521
0.00948782
0.00811112
0.00674103
0.029196
0.0291823
0.0291561
0.0291233
0.0290875
0.029043
0.0289873
0.0289206
0.0288433
0.028755
0.0286547
0.0285416
0.0284142
0.0282705
0.0281091
0.0279287
0.0277281
0.0275058
0.0272612
0.0269936
0.0267024
0.0263875
0.0260494
0.0256886
0.0253065
0.0249046
0.0244848
0.0240498
0.0236033
0.0231488
0.022689
0.0222252
0.0217615
0.0213031
0.020854
0.0204184
0.0200003
0.0196056
0.0192373
0.0188945
0.0185762
0.01828
0.0180025
0.0177475
0.0175203
0.017327
0.0171693
0.0170462
0.0169991
0.017
0.0170384
0.0171179
0.0172338
0.0173804
0.0175507
0.0177375
0.017933
0.0181303
0.0183241
0.0185125
0.0186974
0.0188807
0.0190552
0.0192142
0.0193558
0.0194787
0.0195816
0.0196663
0.0197237
0.01974
0.0197363
0.0197061
0.0196421
0.0195438
0.0194052
0.0192152
0.0189928
0.0187521
0.0184664
0.0181192
0.0177196
0.0172695
0.0167667
0.0162062
0.0155796
0.0148694
0.0140556
0.0131052
0.0119667
0.0105757
0.00883646
0.0068558
0.00499108
0.00334376
0.00221868
0.00165275
0.0019432
0.00428411
0.00679118
0.00762536
0.0065037
0.0016666
0.00148475
0.00140592
0.00134806
0.00131372
0.001281
0.00126913
0.00126765
0.00128133
0.00129245
0.00132304
0.00133421
0.00133697
0.0013504
0.00142548
0.0017702
0.00264599
0.00442692
0.00566277
0.00447558
0.00170586
0.00154145
0.00146129
0.00140864
0.00137205
0.0013518
0.00134451
0.00134165
0.00134178
0.0013754
0.00139784
0.00140594
0.00141194
0.00143367
0.0015667
0.00199124
0.00293195
0.0044764
0.00517366
0.00299682
0.00178449
0.00165995
0.00157753
0.00150021
0.00145644
0.00143235
0.00142362
0.0014222
0.00145867
0.0014786
0.00148409
0.00148255
0.0014811
0.00153787
0.00174883
0.00229658
0.00324208
0.00440921
0.00463464
0.00252256
0.00190296
0.00179274
0.00166058
0.00160095
0.00156899
0.00155974
0.00155958
0.001589
0.00160116
0.00158782
0.00158261
0.00158219
0.00162279
0.00176209
0.00208405
0.00267885
0.00363046
0.00422641
0.00404655
0.00246376
0.00204464
0.00194676
0.00183893
0.00180424
0.00178581
0.00178261
0.0017882
0.00179341
0.00177547
0.00175326
0.00175242
0.0017807
0.00187604
0.00209066
0.00251653
0.00313265
0.00373511
0.00391106
0.00341279
0.00254513
0.00229981
0.00222378
0.00215324
0.00213534
0.00212844
0.00214408
0.00215529
0.00216026
0.00214116
0.0021246
0.00213882
0.00222721
0.00242662
0.00275409
0.00313976
0.00352282
0.0036769
0.00352919
0.00275559
0.00300327
0.0029256
0.00289525
0.00288265
0.00292441
0.00296299
0.0030371
0.00307378
0.0031195
0.00313908
0.00310762
0.00310112
0.00322395
0.0033445
0.00351219
0.00359346
0.00362891
0.00350973
0.00296493
0.00209222
0.00518678
0.00533658
0.00550456
0.00571221
0.00595211
0.00603068
0.00603016
0.00557461
0.00535225
0.00494506
0.00470712
0.00452734
0.00433129
0.00423213
0.0040074
0.00384177
0.00354839
0.00313399
0.00223381
0.00145677
0.012814
0.01249
0.0120491
0.0110679
0.0100446
0.00910706
0.00825778
0.00748997
0.00691121
0.00628196
0.00590911
0.00537943
0.00505793
0.00457606
0.00422143
0.00371363
0.00316603
0.00234719
0.00134552
0.000847994
0.0157134
0.0144609
0.0131333
0.0117073
0.0106359
0.00951433
0.00870124
0.00783801
0.00722156
0.00652755
0.00602672
0.00539751
0.00491926
0.00422483
0.00369733
0.00272696
0.00215127
0.00110698
0.000607728
0.000358595
0.0156114
0.0142908
0.0133022
0.0117218
0.0109143
0.00962173
0.00899751
0.00802677
0.00755734
0.00681691
0.0064531
0.00583931
0.00549755
0.00491909
0.00447104
0.00374396
0.00297015
0.00177825
0.000930809
0.000527255
0.00880814
0.00892199
0.00897052
0.00886191
0.00857189
0.00800662
0.00739794
0.00684427
0.0063407
0.00598493
0.00560434
0.00541557
0.00509509
0.00493952
0.00456748
0.00424588
0.00384281
0.00313761
0.00190043
0.00113532
0.00376888
0.00375998
0.00378331
0.00383784
0.00394328
0.00404911
0.00418874
0.00425077
0.00425087
0.00408846
0.00404537
0.00403453
0.00406541
0.00413053
0.00422185
0.00424011
0.004036
0.0037701
0.00283712
0.00180321
0.00266835
0.00256191
0.00250486
0.00246486
0.00246042
0.00246928
0.00250483
0.0025364
0.00256377
0.00258621
0.00259488
0.00269157
0.00287639
0.00311176
0.00346381
0.00385684
0.00405553
0.00406434
0.0035902
0.00251754
0.00241203
0.0021605
0.00207972
0.00199033
0.0019615
0.00194798
0.00195
0.00195962
0.00196527
0.00196148
0.00194701
0.00197919
0.00206368
0.00226644
0.00267102
0.00316044
0.00388026
0.00418444
0.00416064
0.00324989
0.00237388
0.00197363
0.00187808
0.00176334
0.00172046
0.00169202
0.0016878
0.00169199
0.00169992
0.00169566
0.00167989
0.00168891
0.0017175
0.00181078
0.00205972
0.00258223
0.00329591
0.00422893
0.00452859
0.00397185
0.0024827
0.00183789
0.00173204
0.00161624
0.0015631
0.00151637
0.00149614
0.00149049
0.00151012
0.00153699
0.00154825
0.00155476
0.00155762
0.00159228
0.00172757
0.00208214
0.00282377
0.0039709
0.00483437
0.00465798
0.00315456
0.00174271
0.00161219
0.00153258
0.00146638
0.00143508
0.00140483
0.00139116
0.00138483
0.00139483
0.00142598
0.00145404
0.00146488
0.00147092
0.0015372
0.00178206
0.00238439
0.00355185
0.00500366
0.00529256
0.00490817
0.00168912
0.00151777
0.00143538
0.001377
0.00134449
0.00132257
0.0013173
0.00131691
0.00132485
0.0013351
0.00136476
0.00137891
0.00138554
0.00140917
0.00155617
0.00205193
0.00315144
0.00505608
0.00587113
0.0071627
0.00165613
0.00146721
0.00138914
0.00132925
0.00130299
0.00126575
0.0012522
0.00124784
0.00125132
0.00127579
0.00130576
0.00132677
0.00133252
0.00134412
0.00142701
0.00181169
0.0028626
0.00494704
0.00639617
0.00397043
0.00375015
0.00374677
0.00374678
0.00374651
0.00374627
0.00374612
0.00374604
0.003746
0.00374598
0.00374598
0.003746
0.00374604
0.00374612
0.00374627
0.00374651
0.00374678
0.00374676
0.00375015
0.00397043
0.00441139
0.00375337
0.00374145
0.003741
0.00374059
0.00374014
0.00373988
0.00373975
0.00373969
0.00373966
0.00373966
0.00373969
0.00373975
0.00373988
0.00374014
0.0037406
0.00374101
0.00374146
0.00375337
0.00441139
0.00486617
0.00376081
0.00373292
0.00373267
0.00373286
0.00373274
0.00373256
0.00373242
0.00373234
0.00373231
0.00373231
0.00373234
0.00373242
0.00373256
0.00373274
0.00373286
0.00373267
0.00373292
0.00376081
0.00486616
0.00530728
0.00377206
0.00372416
0.00372386
0.00372486
0.00372521
0.00372523
0.00372518
0.00372514
0.00372512
0.00372512
0.00372514
0.00372518
0.00372523
0.00372521
0.00372486
0.00372386
0.00372416
0.00377206
0.0053073
0.00572939
0.00378518
0.00371553
0.00371483
0.00371665
0.00371757
0.00371789
0.00371795
0.00371795
0.00371795
0.00371795
0.00371795
0.00371795
0.00371789
0.00371757
0.00371665
0.00371483
0.00371553
0.0037852
0.00572938
0.00616178
0.00379843
0.00370624
0.00370533
0.00370812
0.00370975
0.00371046
0.00371071
0.00371078
0.0037108
0.0037108
0.00371078
0.00371071
0.00371046
0.00370975
0.00370812
0.00370533
0.00370625
0.00379843
0.00616178
0.00660211
0.00380816
0.00369474
0.00369466
0.00369892
0.00370154
0.00370284
0.00370339
0.0037036
0.00370366
0.00370366
0.0037036
0.00370339
0.00370284
0.00370154
0.00369892
0.00369466
0.00369474
0.00380814
0.00660211
0.00701289
0.00381534
0.00368191
0.00368325
0.00368924
0.00369302
0.00369503
0.00369599
0.00369639
0.00369654
0.00369654
0.00369639
0.00369599
0.00369503
0.00369302
0.00368924
0.00368326
0.00368192
0.00381534
0.00701289
0.00738644
0.00382353
0.00366926
0.00367176
0.0036794
0.00368435
0.00368711
0.00368852
0.00368917
0.00368942
0.00368942
0.00368917
0.00368852
0.00368711
0.00368435
0.0036794
0.00367176
0.00366927
0.00382353
0.00738645
0.00775269
0.00382935
0.00365515
0.00365952
0.00366916
0.00367543
0.00367903
0.00368096
0.00368189
0.00368226
0.00368226
0.0036819
0.00368096
0.00367903
0.00367543
0.00366916
0.00365952
0.00365514
0.00382932
0.00775269
0.00812182
0.00383026
0.00363802
0.00364578
0.0036581
0.00366602
0.00367065
0.0036732
0.0036745
0.00367502
0.00367502
0.0036745
0.0036732
0.00367065
0.00366602
0.00365811
0.00364579
0.00363803
0.00383025
0.00812182
0.0084654
0.00382977
0.00361906
0.00363087
0.0036463
0.00365612
0.00366194
0.00366523
0.00366696
0.00366768
0.00366768
0.00366696
0.00366524
0.00366194
0.00365612
0.00364631
0.00363087
0.00361906
0.00382975
0.00846544
0.00876136
0.00382874
0.00359975
0.00361554
0.00363415
0.00364594
0.003653
0.00365709
0.00365929
0.00366023
0.00366023
0.00365929
0.00365709
0.003653
0.00364593
0.00363414
0.00361553
0.00359973
0.00382868
0.00876139
0.00902375
0.00382771
0.00358058
0.00360017
0.00362188
0.00363561
0.00364393
0.00364881
0.00365149
0.00365266
0.00365266
0.00365149
0.00364881
0.00364392
0.00363561
0.00362187
0.00360015
0.00358054
0.00382762
0.00902383
0.00927732
0.00382639
0.00356087
0.00358443
0.00360936
0.0036251
0.00363469
0.0036404
0.00364357
0.00364498
0.00364498
0.00364358
0.00364041
0.0036347
0.00362512
0.00360937
0.00358443
0.00356085
0.00382625
0.00927746
0.00952224
0.00382396
0.00353904
0.00356737
0.00359608
0.00361413
0.00362516
0.00363177
0.00363548
0.00363713
0.00363713
0.00363547
0.00363176
0.00362515
0.00361412
0.00359608
0.00356738
0.00353902
0.00382375
0.00952237
0.00973666
0.00381829
0.00351453
0.00354868
0.00358177
0.00360245
0.00361506
0.00362263
0.0036269
0.00362881
0.00362881
0.0036269
0.00362263
0.00361505
0.00360243
0.00358174
0.00354863
0.00351444
0.00381798
0.00973691
0.00990739
0.00381008
0.00348904
0.00352917
0.0035668
0.00359019
0.00360444
0.00361301
0.00361784
0.00362001
0.00362002
0.00361785
0.00361303
0.00360446
0.00359021
0.00356681
0.00352914
0.00348889
0.00380953
0.00990788