/*--------------------------------*- C++ -*----------------------------------*\
| =========                 |                                                 |
| \\      /  F ield         | OpenFOAM: The Open Source CFD Toolbox           |
|  \\    /   O peration     | Version:  2.1.0                                 |
|   \\  /    A nd           | Web:      www.OpenFOAM.org                      |
|    \\/     M anipulation  |                                                 |
\*---------------------------------------------------------------------------*/
FoamFile
{
    version     2.0;
    format      ascii;
    class       volScalarField;
    location    "0.08";
    object      nut;
}
// * * * * * * * * * * * * * * * * * * * * * * * * * * * * * * * * * * * * * //

dimensions      [0 2 -1 0 0 0 0];

internalField   nonuniform List<scalar> 
6400
(
5.45755e-06
5.45509e-06
5.45289e-06
5.45158e-06
5.45177e-06
5.45169e-06
5.45149e-06
5.45075e-06
5.44949e-06
5.4473e-06
5.44448e-06
5.44076e-06
5.4357e-06
5.42914e-06
5.42088e-06
5.41084e-06
5.39878e-06
5.38439e-06
5.36749e-06
5.34787e-06
5.32534e-06
5.29972e-06
5.27097e-06
5.23915e-06
5.20433e-06
5.16659e-06
5.12616e-06
5.08345e-06
5.03906e-06
4.99346e-06
4.94679e-06
4.89946e-06
4.85227e-06
4.80617e-06
4.76217e-06
4.72113e-06
4.68414e-06
4.6526e-06
4.62693e-06
4.60701e-06
4.59263e-06
4.58278e-06
4.57765e-06
4.57862e-06
4.58732e-06
4.60503e-06
4.63142e-06
4.67486e-06
4.73602e-06
4.80777e-06
4.89188e-06
4.98788e-06
5.09439e-06
5.20973e-06
5.33184e-06
5.45856e-06
5.58786e-06
5.71861e-06
5.85118e-06
5.98668e-06
6.12361e-06
6.25978e-06
6.39436e-06
6.52723e-06
6.65874e-06
6.78075e-06
6.89863e-06
7.015e-06
7.12541e-06
7.22789e-06
7.32226e-06
7.40839e-06
7.48247e-06
7.54546e-06
7.6053e-06
7.6631e-06
7.71179e-06
7.74969e-06
7.77984e-06
7.80551e-06
7.83053e-06
7.85609e-06
7.87844e-06
7.88137e-06
7.87859e-06
7.87681e-06
7.87103e-06
7.84551e-06
7.78079e-06
7.63948e-06
7.35315e-06
6.80316e-06
5.83224e-06
4.29435e-06
2.29278e-06
1.52907e-06
1.73037e-06
2.9296e-06
2.90131e-06
3.1172e-06
1.0918e-05
1.07814e-05
1.07524e-05
1.0662e-05
1.062e-05
1.05309e-05
1.04676e-05
1.03764e-05
1.0309e-05
1.02312e-05
1.01711e-05
1.01119e-05
1.00674e-05
1.00306e-05
1.00117e-05
1.00038e-05
1.00139e-05
1.00576e-05
1.01349e-05
1.0225e-05
1.03202e-05
1.04357e-05
1.05902e-05
1.07922e-05
1.10401e-05
1.13277e-05
1.16597e-05
1.2058e-05
1.25477e-05
1.31479e-05
1.38641e-05
1.46918e-05
1.56293e-05
1.66694e-05
1.77907e-05
1.89619e-05
2.01484e-05
2.13137e-05
2.24485e-05
2.35647e-05
2.46855e-05
2.58409e-05
2.70564e-05
2.835e-05
2.973e-05
3.11925e-05
3.27073e-05
3.42411e-05
3.57729e-05
3.72861e-05
3.87662e-05
4.02016e-05
4.15823e-05
4.28967e-05
4.41334e-05
4.52803e-05
4.63296e-05
4.72768e-05
4.81296e-05
4.88989e-05
4.95662e-05
5.01198e-05
5.0559e-05
5.08854e-05
5.10985e-05
5.11943e-05
5.11733e-05
5.10311e-05
5.07561e-05
5.0346e-05
4.98132e-05
4.91692e-05
4.83606e-05
4.74512e-05
4.64846e-05
4.54072e-05
4.41786e-05
4.2825e-05
4.13766e-05
3.98605e-05
3.82789e-05
3.66179e-05
3.48845e-05
3.30893e-05
3.12038e-05
2.92569e-05
2.72236e-05
2.50701e-05
2.28112e-05
2.04491e-05
1.80265e-05
1.56234e-05
1.33208e-05
1.11628e-05
9.11224e-06
7.24518e-06
5.81435e-06
4.73595e-06
4.11144e-06
4.95681e-06
5.93769e-06
6.02588e-06
6.08707e-06
6.19829e-06
6.29902e-06
6.4541e-06
6.61496e-06
6.81833e-06
7.03572e-06
7.29063e-06
7.57843e-06
7.92017e-06
8.31551e-06
8.77335e-06
9.28171e-06
9.80657e-06
1.02937e-05
1.05094e-05
1.07145e-05
1.09383e-05
1.12131e-05
1.15589e-05
1.1995e-05
1.25263e-05
1.31575e-05
1.38849e-05
1.47061e-05
1.5617e-05
1.66466e-05
1.7822e-05
1.91617e-05
2.06506e-05
2.22578e-05
2.39495e-05
2.56899e-05
2.74423e-05
2.9194e-05
3.09462e-05
3.26888e-05
3.44003e-05
3.60751e-05
3.77168e-05
3.93363e-05
4.09453e-05
4.25465e-05
4.41419e-05
4.57292e-05
4.72892e-05
4.87952e-05
5.02324e-05
5.15942e-05
5.28738e-05
5.40626e-05
5.51516e-05
5.61353e-05
5.70082e-05
5.77695e-05
5.84191e-05
5.89425e-05
5.93241e-05
5.95761e-05
5.96807e-05
5.96374e-05
5.94564e-05
5.91333e-05
5.86774e-05
5.81063e-05
5.74062e-05
5.65478e-05
5.55471e-05
5.44134e-05
5.32094e-05
5.19608e-05
5.05566e-05
4.90134e-05
4.74198e-05
4.57433e-05
4.39517e-05
4.20957e-05
4.0208e-05
3.82664e-05
3.627e-05
3.42588e-05
3.22546e-05
3.02612e-05
2.82758e-05
2.6338e-05
2.44564e-05
2.2613e-05
2.08011e-05
1.90291e-05
1.73239e-05
1.55678e-05
1.37841e-05
1.19352e-05
1.00919e-05
8.33682e-06
6.77789e-06
5.96888e-06
7.08914e-06
1.42736e-05
1.4739e-05
1.50036e-05
1.54486e-05
1.58814e-05
1.64202e-05
1.70082e-05
1.59774e-05
1.58449e-05
1.50162e-05
1.43258e-05
1.37838e-05
1.33457e-05
1.30225e-05
1.27827e-05
1.2617e-05
1.25117e-05
1.24701e-05
1.24955e-05
1.26054e-05
1.28309e-05
1.31954e-05
1.37244e-05
1.44194e-05
1.52903e-05
1.63335e-05
1.75487e-05
1.89118e-05
2.03861e-05
2.19257e-05
2.34967e-05
2.50848e-05
2.66832e-05
2.82847e-05
2.9888e-05
3.15038e-05
3.31226e-05
3.47123e-05
3.62672e-05
3.77943e-05
3.92995e-05
4.07755e-05
4.22161e-05
4.36201e-05
4.49856e-05
4.63062e-05
4.75675e-05
4.87562e-05
4.98589e-05
5.08686e-05
5.17806e-05
5.25899e-05
5.32902e-05
5.3876e-05
5.43437e-05
5.46893e-05
5.49108e-05
5.50047e-05
5.49741e-05
5.48211e-05
5.4546e-05
5.4161e-05
5.36607e-05
5.30314e-05
5.22509e-05
5.13803e-05
5.04779e-05
4.95155e-05
4.83657e-05
4.71501e-05
4.59373e-05
4.46381e-05
4.32608e-05
4.18764e-05
4.04728e-05
3.9035e-05
3.75925e-05
3.61587e-05
3.47229e-05
3.32917e-05
3.18823e-05
3.04899e-05
2.90932e-05
2.77044e-05
2.63331e-05
2.49123e-05
2.35182e-05
2.20969e-05
2.0657e-05
1.91751e-05
1.76788e-05
1.61568e-05
1.45999e-05
1.29971e-05
1.13456e-05
9.73602e-06
8.33639e-06
7.5091e-06
6.68217e-06
6.20146e-06
4.44496e-05
4.54799e-05
4.08003e-05
4.7463e-05
2.98335e-05
4.36793e-05
3.21157e-05
2.36935e-05
2.30903e-05
2.04047e-05
1.85973e-05
1.72304e-05
1.61313e-05
1.52955e-05
1.46598e-05
1.41842e-05
1.38495e-05
1.36514e-05
1.35908e-05
1.36963e-05
1.39957e-05
1.4509e-05
1.5237e-05
1.61637e-05
1.72671e-05
1.85246e-05
1.99098e-05
2.13845e-05
2.29139e-05
2.44584e-05
2.59782e-05
2.74452e-05
2.88456e-05
3.01748e-05
3.1442e-05
3.26563e-05
3.38406e-05
3.50123e-05
3.61687e-05
3.72957e-05
3.8384e-05
3.94304e-05
4.04328e-05
4.13865e-05
4.22878e-05
4.31297e-05
4.39037e-05
4.46017e-05
4.52174e-05
4.57493e-05
4.61956e-05
4.6552e-05
4.68158e-05
4.69853e-05
4.70618e-05
4.70454e-05
4.69412e-05
4.67515e-05
4.6472e-05
4.60871e-05
4.56125e-05
4.51106e-05
4.45938e-05
4.39454e-05
4.3212e-05
4.24907e-05
4.17244e-05
4.08783e-05
4.00071e-05
3.91227e-05
3.81906e-05
3.7215e-05
3.62238e-05
3.52075e-05
3.41745e-05
3.31259e-05
3.20203e-05
3.09014e-05
2.97357e-05
2.85684e-05
2.73858e-05
2.61705e-05
2.49108e-05
2.35055e-05
2.17407e-05
2.02924e-05
1.89638e-05
1.75803e-05
1.61659e-05
1.48143e-05
1.35589e-05
1.24174e-05
1.12535e-05
1.01941e-05
9.29629e-06
8.21544e-06
7.39096e-06
6.8996e-06
6.72272e-06
6.75016e-06
7.4966e-05
6.73284e-05
9.19892e-05
0.00010396
2.45996e-05
0.000109637
2.4544e-05
3.19816e-05
2.902e-05
2.33987e-05
2.12651e-05
1.94285e-05
1.78789e-05
1.67718e-05
1.59125e-05
1.52592e-05
1.47841e-05
1.44875e-05
1.43998e-05
1.45859e-05
1.50783e-05
1.58331e-05
1.67998e-05
1.79241e-05
1.91567e-05
2.04748e-05
2.18495e-05
2.32387e-05
2.46103e-05
2.59223e-05
2.71352e-05
2.82386e-05
2.92427e-05
3.01675e-05
3.10456e-05
3.18918e-05
3.27188e-05
3.35238e-05
3.42964e-05
3.50289e-05
3.57169e-05
3.63667e-05
3.69812e-05
3.75579e-05
3.80914e-05
3.85749e-05
3.90044e-05
3.93767e-05
3.969e-05
3.99446e-05
4.01414e-05
4.02755e-05
4.03408e-05
4.03382e-05
4.02671e-05
4.01072e-05
3.9911e-05
3.97e-05
3.93904e-05
3.8995e-05
3.85931e-05
3.81272e-05
3.75821e-05
3.70005e-05
3.63593e-05
3.56579e-05
3.4936e-05
3.41066e-05
3.27846e-05
3.14904e-05
3.01769e-05
2.89105e-05
2.76446e-05
2.64259e-05
2.51897e-05
2.39808e-05
2.28326e-05
2.16646e-05
2.06002e-05
1.95741e-05
1.85584e-05
1.75662e-05
1.66318e-05
1.56855e-05
1.48818e-05
1.40953e-05
1.33485e-05
1.25925e-05
1.18935e-05
1.12197e-05
1.059e-05
9.9823e-06
9.40084e-06
8.86825e-06
8.37473e-06
7.93216e-06
7.6471e-06
7.51286e-06
7.4898e-06
7.6593e-06
0.000158357
2.58901e-05
6.11746e-05
3.5939e-05
3.94372e-05
0.000147441
2.1175e-05
4.88896e-05
3.42258e-05
2.58547e-05
2.49192e-05
2.25563e-05
2.04318e-05
1.91012e-05
1.79556e-05
1.7061e-05
1.63407e-05
1.59193e-05
1.58882e-05
1.63063e-05
1.71099e-05
1.73401e-05
1.78246e-05
1.88046e-05
2.02686e-05
2.21303e-05
2.40884e-05
2.54123e-05
2.6647e-05
2.77385e-05
2.86631e-05
2.94452e-05
3.01228e-05
3.07345e-05
3.13074e-05
3.18457e-05
3.23461e-05
3.28015e-05
3.32078e-05
3.3573e-05
3.39033e-05
3.42113e-05
3.44969e-05
3.47561e-05
3.49757e-05
3.51547e-05
3.52893e-05
3.53781e-05
3.54143e-05
3.53809e-05
3.53017e-05
3.49313e-05
3.44451e-05
3.38513e-05
3.32794e-05
3.26916e-05
3.20191e-05
3.13376e-05
3.06478e-05
2.98948e-05
2.9117e-05
2.83397e-05
2.75477e-05
2.67381e-05
2.59241e-05
2.51161e-05
2.43104e-05
2.34953e-05
2.2695e-05
2.19235e-05
2.1155e-05
2.04111e-05
1.96891e-05
1.89861e-05
1.8299e-05
1.76483e-05
1.70156e-05
1.63999e-05
1.58322e-05
1.52651e-05
1.47231e-05
1.42112e-05
1.37211e-05
1.32363e-05
1.28016e-05
1.23527e-05
1.19327e-05
1.15156e-05
1.11231e-05
1.07313e-05
1.03657e-05
1.00136e-05
9.68424e-06
9.38472e-06
9.13568e-06
8.95165e-06
8.83836e-06
8.79036e-06
9.13715e-06
9.36801e-06
4.81296e-05
2.84428e-05
6.07132e-05
2.00368e-05
8.0792e-05
3.49609e-05
2.95055e-05
6.82505e-05
3.49049e-05
2.97483e-05
3.22986e-05
2.78368e-05
2.50925e-05
2.36598e-05
2.18961e-05
2.05306e-05
1.9382e-05
1.88993e-05
1.75795e-05
1.61751e-05
1.54675e-05
1.54046e-05
1.59667e-05
1.71062e-05
1.87377e-05
2.06961e-05
2.27589e-05
2.46941e-05
2.63395e-05
2.76529e-05
2.86971e-05
2.95768e-05
3.03688e-05
3.10858e-05
3.16877e-05
3.2123e-05
3.23811e-05
3.24939e-05
3.25134e-05
3.24774e-05
3.23953e-05
3.22615e-05
3.20724e-05
3.18343e-05
3.15569e-05
3.12261e-05
3.08845e-05
3.05515e-05
3.01711e-05
2.97345e-05
2.93232e-05
2.89236e-05
2.84892e-05
2.8042e-05
2.76207e-05
2.72032e-05
2.67662e-05
2.63353e-05
2.59163e-05
2.54947e-05
2.50798e-05
2.46745e-05
2.42682e-05
2.38683e-05
2.34784e-05
2.30928e-05
2.27161e-05
2.23516e-05
2.19992e-05
2.16606e-05
2.13317e-05
2.10133e-05
2.07066e-05
2.04052e-05
2.01154e-05
1.98319e-05
1.9553e-05
1.92801e-05
1.90106e-05
1.87372e-05
1.8467e-05
1.81962e-05
1.7922e-05
1.76449e-05
1.73641e-05
1.70704e-05
1.67681e-05
1.64493e-05
1.61155e-05
1.57619e-05
1.53935e-05
1.50108e-05
1.4625e-05
1.42488e-05
1.39373e-05
1.37018e-05
1.35408e-05
1.37349e-05
1.42519e-05
1.46563e-05
3.46914e-05
0.000130495
6.97119e-05
2.65148e-05
4.31251e-05
2.76644e-05
5.42793e-05
8.68938e-05
3.51802e-05
3.94895e-05
4.6534e-05
3.5786e-05
3.35849e-05
3.21584e-05
2.90583e-05
2.65143e-05
2.16552e-05
1.82626e-05
1.59834e-05
1.45974e-05
1.39813e-05
1.40567e-05
1.47662e-05
1.60252e-05
1.7709e-05
1.96212e-05
2.1534e-05
2.32468e-05
2.46608e-05
2.57983e-05
2.6753e-05
2.76212e-05
2.84308e-05
2.91476e-05
2.97069e-05
3.00688e-05
3.02567e-05
3.03258e-05
3.0331e-05
3.02922e-05
3.02038e-05
3.00602e-05
2.98746e-05
2.96663e-05
2.94473e-05
2.92143e-05
2.89654e-05
2.87043e-05
2.84457e-05
2.81985e-05
2.79722e-05
2.77618e-05
2.75594e-05
2.73757e-05
2.72174e-05
2.70755e-05
2.69433e-05
2.68272e-05
2.67304e-05
2.66496e-05
2.65834e-05
2.65325e-05
2.64974e-05
2.6478e-05
2.64715e-05
2.6475e-05
2.64888e-05
2.65127e-05
2.65481e-05
2.65945e-05
2.66527e-05
2.67213e-05
2.67988e-05
2.68848e-05
2.69785e-05
2.7079e-05
2.71845e-05
2.72953e-05
2.74112e-05
2.75337e-05
2.766e-05
2.77893e-05
2.79212e-05
2.8054e-05
2.81884e-05
2.83203e-05
2.845e-05
2.85727e-05
2.86837e-05
2.87812e-05
2.88638e-05
2.89332e-05
2.89927e-05
2.90516e-05
2.91249e-05
2.92522e-05
2.95253e-05
3.00084e-05
3.07206e-05
2.87643e-05
5.31254e-05
4.12151e-05
5.20955e-05
6.56912e-05
6.3138e-05
3.3846e-05
9.24322e-05
9.48484e-05
3.83893e-05
5.69836e-05
5.76993e-05
4.27247e-05
4.39836e-05
4.15596e-05
3.27792e-05
2.57442e-05
2.08132e-05
1.74091e-05
1.51573e-05
1.38301e-05
1.3284e-05
1.34305e-05
1.41957e-05
1.54854e-05
1.71608e-05
1.9019e-05
2.08328e-05
2.24247e-05
2.37278e-05
2.4794e-05
2.57267e-05
2.66084e-05
2.74432e-05
2.81751e-05
2.87345e-05
2.90963e-05
2.92979e-05
2.94026e-05
2.94566e-05
2.94685e-05
2.94279e-05
2.93334e-05
2.92045e-05
2.90633e-05
2.89161e-05
2.87569e-05
2.85816e-05
2.84006e-05
2.82293e-05
2.80778e-05
2.79457e-05
2.7831e-05
2.77355e-05
2.76641e-05
2.76162e-05
2.7587e-05
2.75734e-05
2.7578e-05
2.76012e-05
2.76411e-05
2.76966e-05
2.77684e-05
2.78574e-05
2.79614e-05
2.80775e-05
2.82032e-05
2.83391e-05
2.84856e-05
2.8644e-05
2.88146e-05
2.89981e-05
2.91933e-05
2.93993e-05
2.96137e-05
2.98361e-05
3.00633e-05
3.02945e-05
3.0528e-05
3.0764e-05
3.10029e-05
3.12459e-05
3.14947e-05
3.17493e-05
3.20102e-05
3.22774e-05
3.25515e-05
3.28321e-05
3.31197e-05
3.34173e-05
3.37248e-05
3.40451e-05
3.43796e-05
3.47318e-05
3.51025e-05
3.54934e-05
3.58969e-05
3.62838e-05
3.65179e-05
3.62998e-05
3.60605e-05
0.000162223
0.000102566
4.01746e-05
6.96017e-05
6.46367e-05
3.04522e-05
8.35132e-05
9.79081e-05
3.51207e-05
5.17203e-05
5.57025e-05
4.09838e-05
4.14531e-05
3.95319e-05
3.29493e-05
2.59259e-05
2.09959e-05
1.75785e-05
1.53058e-05
1.39542e-05
1.3381e-05
1.35001e-05
1.42386e-05
1.55046e-05
1.71618e-05
1.90088e-05
2.08161e-05
2.24037e-05
2.36998e-05
2.47525e-05
2.56669e-05
2.6528e-05
2.73471e-05
2.80693e-05
2.86251e-05
2.89861e-05
2.91848e-05
2.92841e-05
2.93298e-05
2.93325e-05
2.92815e-05
2.9175e-05
2.90321e-05
2.88748e-05
2.87116e-05
2.85383e-05
2.83524e-05
2.81628e-05
2.79829e-05
2.78222e-05
2.76812e-05
2.75591e-05
2.74576e-05
2.73808e-05
2.73265e-05
2.72914e-05
2.72734e-05
2.7274e-05
2.7291e-05
2.73242e-05
2.73731e-05
2.74373e-05
2.75186e-05
2.76159e-05
2.77253e-05
2.78449e-05
2.79743e-05
2.81129e-05
2.82621e-05
2.84217e-05
2.85928e-05
2.87749e-05
2.89661e-05
2.91656e-05
2.93723e-05
2.9585e-05
2.98016e-05
3.00227e-05
3.02475e-05
3.04776e-05
3.0713e-05
3.09552e-05
3.12048e-05
3.14631e-05
3.17311e-05
3.20099e-05
3.23008e-05
3.26047e-05
3.29232e-05
3.32572e-05
3.36084e-05
3.39783e-05
3.43855e-05
3.48276e-05
3.53246e-05
3.58803e-05
3.64993e-05
3.71278e-05
3.72896e-05
3.72697e-05
4.69544e-05
6.67293e-05
5.05878e-05
2.36928e-05
3.87133e-05
2.55628e-05
3.82828e-05
9.58952e-05
3.42024e-05
3.4326e-05
4.21314e-05
3.32639e-05
3.09112e-05
2.96583e-05
2.70553e-05
2.50539e-05
2.20628e-05
1.86482e-05
1.63224e-05
1.48774e-05
1.41928e-05
1.41942e-05
1.48295e-05
1.60244e-05
1.76515e-05
1.95255e-05
2.1412e-05
2.31067e-05
2.45016e-05
2.56079e-05
2.6521e-05
2.73402e-05
2.81106e-05
2.88022e-05
2.93542e-05
2.97197e-05
2.99102e-05
2.99758e-05
2.99693e-05
2.99137e-05
2.9805e-05
2.96378e-05
2.94247e-05
2.91612e-05
2.8877e-05
2.85911e-05
2.83093e-05
2.80201e-05
2.77192e-05
2.74213e-05
2.71428e-05
2.68805e-05
2.66292e-05
2.63989e-05
2.61828e-05
2.59761e-05
2.57781e-05
2.56024e-05
2.54371e-05
2.52792e-05
2.5142e-05
2.50116e-05
2.48932e-05
2.4791e-05
2.46946e-05
2.46072e-05
2.45261e-05
2.44459e-05
2.43695e-05
2.42931e-05
2.42188e-05
2.41411e-05
2.40612e-05
2.39741e-05
2.38813e-05
2.3778e-05
2.36643e-05
2.35371e-05
2.33959e-05
2.32384e-05
2.30647e-05
2.28737e-05
2.26661e-05
2.24422e-05
2.22045e-05
2.1955e-05
2.1699e-05
2.14404e-05
2.11855e-05
2.09406e-05
2.07141e-05
2.0514e-05
2.03343e-05
2.02246e-05
2.01751e-05
2.02598e-05
2.05343e-05
2.11126e-05
2.21713e-05
2.25297e-05
5.52529e-05
3.84125e-05
6.86429e-05
1.90735e-05
9.07666e-05
4.69155e-05
2.47907e-05
5.33847e-05
3.74409e-05
2.72421e-05
2.99516e-05
2.631e-05
2.38153e-05
2.24841e-05
2.09964e-05
1.9757e-05
1.88046e-05
1.83355e-05
1.79924e-05
1.65477e-05
1.57713e-05
1.56192e-05
1.60656e-05
1.70863e-05
1.8602e-05
2.04651e-05
2.24609e-05
2.43516e-05
2.59667e-05
2.72437e-05
2.82387e-05
2.90566e-05
2.97916e-05
3.0472e-05
3.10662e-05
3.1516e-05
3.17986e-05
3.19313e-05
3.19632e-05
3.19306e-05
3.18447e-05
3.16991e-05
3.14924e-05
3.12265e-05
3.09153e-05
3.05584e-05
3.0192e-05
2.98337e-05
2.94107e-05
2.89408e-05
2.85046e-05
2.80606e-05
2.75804e-05
2.71025e-05
2.66342e-05
2.61623e-05
2.56734e-05
2.51854e-05
2.47075e-05
2.42204e-05
2.37238e-05
2.32353e-05
2.27505e-05
2.22583e-05
2.17728e-05
2.12915e-05
2.08079e-05
2.03337e-05
1.98669e-05
1.94079e-05
1.8959e-05
1.85219e-05
1.80875e-05
1.76647e-05
1.7246e-05
1.68356e-05
1.64294e-05
1.60277e-05
1.56323e-05
1.52428e-05
1.48551e-05
1.44766e-05
1.41052e-05
1.37402e-05
1.33861e-05
1.30439e-05
1.27108e-05
1.23902e-05
1.20859e-05
1.17968e-05
1.15248e-05
1.12768e-05
1.10554e-05
1.08649e-05
1.0723e-05
1.06011e-05
1.0671e-05
1.08761e-05
1.13802e-05
1.16556e-05
0.00016006
2.63015e-05
5.67137e-05
4.05876e-05
2.91479e-05
0.000130527
2.51779e-05
3.4012e-05
3.59186e-05
2.50925e-05
2.41716e-05
2.20044e-05
2.00246e-05
1.87681e-05
1.76941e-05
1.68577e-05
1.61961e-05
1.57762e-05
1.57378e-05
1.61043e-05
1.68577e-05
1.75283e-05
1.79186e-05
1.87789e-05
2.00955e-05
2.18132e-05
2.34692e-05
2.4698e-05
2.58561e-05
2.68845e-05
2.77653e-05
2.8511e-05
2.91663e-05
2.97662e-05
3.03428e-05
3.09026e-05
3.14412e-05
3.19447e-05
3.24089e-05
3.28295e-05
3.32169e-05
3.35722e-05
3.39041e-05
3.4212e-05
3.44879e-05
3.47251e-05
3.49223e-05
3.50746e-05
3.51775e-05
3.52266e-05
3.52074e-05
3.47867e-05
3.43563e-05
3.3863e-05
3.32833e-05
3.27284e-05
3.21278e-05
3.14562e-05
3.07896e-05
3.01024e-05
2.93428e-05
2.85715e-05
2.77894e-05
2.69879e-05
2.61815e-05
2.53707e-05
2.45626e-05
2.37662e-05
2.29624e-05
2.21662e-05
2.14084e-05
2.06486e-05
1.99095e-05
1.92024e-05
1.85001e-05
1.78231e-05
1.71689e-05
1.65287e-05
1.5901e-05
1.53085e-05
1.47225e-05
1.41548e-05
1.36132e-05
1.30862e-05
1.25721e-05
1.20819e-05
1.16096e-05
1.11498e-05
1.07154e-05
1.03062e-05
9.92095e-06
9.5673e-06
9.24271e-06
8.94548e-06
8.67146e-06
8.46924e-06
8.36848e-06
8.29016e-06
8.56904e-06
8.78028e-06
8.37603e-05
5.85335e-05
0.000100773
0.000104553
2.5489e-05
0.000109289
3.16914e-05
2.88233e-05
2.96185e-05
2.35535e-05
2.12638e-05
1.94597e-05
1.792e-05
1.68182e-05
1.5963e-05
1.53172e-05
1.48369e-05
1.45266e-05
1.44202e-05
1.45602e-05
1.49886e-05
1.56866e-05
1.65838e-05
1.76372e-05
1.88011e-05
2.00412e-05
2.13345e-05
2.26461e-05
2.39501e-05
2.52017e-05
2.63719e-05
2.74425e-05
2.8428e-05
2.93459e-05
3.02254e-05
3.1087e-05
3.19398e-05
3.27824e-05
3.36062e-05
3.4398e-05
3.51516e-05
3.58642e-05
3.65412e-05
3.71837e-05
3.77875e-05
3.8347e-05
3.8857e-05
3.93139e-05
3.97152e-05
4.006e-05
4.03488e-05
4.05759e-05
4.07379e-05
4.08328e-05
4.08619e-05
4.08217e-05
4.06855e-05
4.05038e-05
4.03007e-05
4.00167e-05
3.96285e-05
3.92252e-05
3.87685e-05
3.82256e-05
3.76428e-05
3.70072e-05
3.62995e-05
3.55582e-05
3.4722e-05
3.33375e-05
3.20513e-05
3.07079e-05
2.93939e-05
2.8139e-05
2.68903e-05
2.56759e-05
2.44819e-05
2.33284e-05
2.21616e-05
2.10398e-05
1.9956e-05
1.88969e-05
1.7879e-05
1.69176e-05
1.5972e-05
1.50638e-05
1.4197e-05
1.33433e-05
1.25153e-05
1.17643e-05
1.10317e-05
1.03198e-05
9.60854e-06
8.96524e-06
8.34472e-06
7.88482e-06
7.50361e-06
7.36449e-06
7.35319e-06
7.50335e-06
4.49428e-05
4.61101e-05
4.49269e-05
4.80953e-05
3.57917e-05
4.11323e-05
3.11476e-05
2.54174e-05
2.36355e-05
2.08537e-05
1.89117e-05
1.7513e-05
1.63719e-05
1.55017e-05
1.4842e-05
1.43446e-05
1.39885e-05
1.37648e-05
1.36787e-05
1.37462e-05
1.3996e-05
1.44471e-05
1.51026e-05
1.59494e-05
1.69715e-05
1.81432e-05
1.94412e-05
2.08299e-05
2.22819e-05
2.3754e-05
2.5215e-05
2.66337e-05
2.79995e-05
2.93081e-05
3.05658e-05
3.17846e-05
3.29753e-05
3.4158e-05
3.53404e-05
3.65117e-05
3.76548e-05
3.87621e-05
3.98319e-05
4.08609e-05
4.18442e-05
4.27764e-05
4.36505e-05
4.44583e-05
4.51911e-05
4.58461e-05
4.64201e-05
4.69094e-05
4.73099e-05
4.76184e-05
4.78332e-05
4.7952e-05
4.79747e-05
4.79061e-05
4.77494e-05
4.74986e-05
4.71547e-05
4.67006e-05
4.61935e-05
4.56743e-05
4.50822e-05
4.43551e-05
4.36075e-05
4.28522e-05
4.20242e-05
4.11474e-05
4.02617e-05
3.9345e-05
3.8386e-05
3.74028e-05
3.63954e-05
3.53659e-05
3.43192e-05
3.32819e-05
3.22218e-05
3.11083e-05
2.99851e-05
2.88005e-05
2.76083e-05
2.6391e-05
2.49356e-05
2.32588e-05
2.1612e-05
1.99854e-05
1.83561e-05
1.67704e-05
1.53323e-05
1.40383e-05
1.25892e-05
1.1111e-05
9.68475e-06
8.81163e-06
7.74619e-06
6.96638e-06
6.69613e-06
6.68925e-06
1.4408e-05
1.49151e-05
1.51871e-05
1.56353e-05
1.60658e-05
1.66232e-05
1.72341e-05
1.70681e-05
1.61329e-05
1.53706e-05
1.46245e-05
1.40521e-05
1.35856e-05
1.32299e-05
1.297e-05
1.27806e-05
1.26592e-05
1.25969e-05
1.26015e-05
1.2685e-05
1.28749e-05
1.3196e-05
1.36695e-05
1.43039e-05
1.51034e-05
1.60703e-05
1.72012e-05
1.84806e-05
1.98722e-05
2.13351e-05
2.28312e-05
2.43437e-05
2.58699e-05
2.74038e-05
2.89441e-05
3.04966e-05
3.20752e-05
3.36638e-05
3.52297e-05
3.67731e-05
3.83007e-05
3.98147e-05
4.13074e-05
4.27716e-05
4.42058e-05
4.56063e-05
4.69638e-05
4.82654e-05
4.94952e-05
5.06452e-05
5.17076e-05
5.26791e-05
5.35527e-05
5.43224e-05
5.49846e-05
5.55334e-05
5.59645e-05
5.62741e-05
5.64583e-05
5.65144e-05
5.64444e-05
5.62532e-05
5.59434e-05
5.55233e-05
5.49803e-05
5.4308e-05
5.34955e-05
5.25938e-05
5.16585e-05
5.06508e-05
4.94646e-05
4.82178e-05
4.69631e-05
4.56237e-05
4.42164e-05
4.27988e-05
4.13569e-05
3.989e-05
3.84264e-05
3.69745e-05
3.55248e-05
3.40752e-05
3.26371e-05
3.12127e-05
2.97921e-05
2.83542e-05
2.69195e-05
2.54716e-05
2.3942e-05
2.2398e-05
2.07532e-05
1.90318e-05
1.71608e-05
1.52324e-05
1.32609e-05
1.12858e-05
9.5089e-06
8.29962e-06
7.0444e-06
6.46288e-06
5.93219e-06
6.02365e-06
6.07037e-06
6.17679e-06
6.27357e-06
6.42461e-06
6.57685e-06
6.77879e-06
6.9873e-06
7.24283e-06
7.52316e-06
7.86132e-06
8.24848e-06
8.69889e-06
9.20245e-06
9.7305e-06
1.0265e-05
1.05083e-05
1.07146e-05
1.09321e-05
1.11918e-05
1.15182e-05
1.19287e-05
1.24335e-05
1.30302e-05
1.37165e-05
1.44856e-05
1.53349e-05
1.62857e-05
1.73707e-05
1.86107e-05
2.00024e-05
2.15205e-05
2.31317e-05
2.48069e-05
2.65154e-05
2.82279e-05
2.99459e-05
3.16638e-05
3.33701e-05
3.50507e-05
3.6706e-05
3.83451e-05
3.99776e-05
4.16111e-05
4.3246e-05
4.48799e-05
4.6509e-05
4.81082e-05
4.96568e-05
5.11435e-05
5.25634e-05
5.39085e-05
5.51686e-05
5.63377e-05
5.74089e-05
5.83765e-05
5.9237e-05
5.99876e-05
6.06284e-05
6.11421e-05
6.15124e-05
6.17505e-05
6.18358e-05
6.17758e-05
6.15762e-05
6.12318e-05
6.07552e-05
6.0163e-05
5.94373e-05
5.85488e-05
5.75231e-05
5.63582e-05
5.50744e-05
5.37314e-05
5.22891e-05
5.06552e-05
4.89325e-05
4.71388e-05
4.52163e-05
4.31977e-05
4.1127e-05
3.89887e-05
3.67728e-05
3.45156e-05
3.22511e-05
2.99864e-05
2.77306e-05
2.55141e-05
2.33608e-05
2.12295e-05
1.91183e-05
1.70351e-05
1.49128e-05
1.2831e-05
1.08774e-05
9.05296e-06
7.55866e-06
6.64771e-06
7.51061e-06
1.08934e-05
1.07293e-05
1.06947e-05
1.05973e-05
1.05614e-05
1.04597e-05
1.04e-05
1.02935e-05
1.0226e-05
1.0143e-05
1.00807e-05
1.00216e-05
9.97344e-06
9.93575e-06
9.91247e-06
9.90396e-06
9.91324e-06
9.95028e-06
1.00251e-05
1.01159e-05
1.02121e-05
1.03231e-05
1.04692e-05
1.06616e-05
1.09002e-05
1.11784e-05
1.14959e-05
1.18709e-05
1.23265e-05
1.28831e-05
1.35515e-05
1.43303e-05
1.52163e-05
1.62048e-05
1.72791e-05
1.84121e-05
1.95712e-05
2.07183e-05
2.18315e-05
2.29198e-05
2.40047e-05
2.51131e-05
2.6276e-05
2.75133e-05
2.88367e-05
3.0252e-05
3.17469e-05
3.32892e-05
3.4846e-05
3.64006e-05
3.7939e-05
3.9449e-05
4.09219e-05
4.23479e-05
4.37181e-05
4.50227e-05
4.62518e-05
4.73989e-05
4.84581e-05
4.94248e-05
5.03038e-05
5.11003e-05
5.17944e-05
5.23767e-05
5.28489e-05
5.32119e-05
5.3461e-05
5.35943e-05
5.36125e-05
5.35084e-05
5.32681e-05
5.28874e-05
5.23727e-05
5.17326e-05
5.09369e-05
4.99758e-05
4.8916e-05
4.7755e-05
4.63986e-05
4.487e-05
4.32066e-05
4.14209e-05
3.95242e-05
3.7503e-05
3.53577e-05
3.31004e-05
3.07456e-05
2.82934e-05
2.57501e-05
2.31225e-05
2.03973e-05
1.7632e-05
1.49425e-05
1.24113e-05
1.01555e-05
8.07777e-06
6.42019e-06
5.29358e-06
4.57932e-06
5.05773e-06
5.46074e-06
5.4595e-06
5.45732e-06
5.45609e-06
5.45601e-06
5.45577e-06
5.45496e-06
5.45382e-06
5.45223e-06
5.44984e-06
5.44652e-06
5.44226e-06
5.4368e-06
5.4299e-06
5.42137e-06
5.41101e-06
5.39861e-06
5.38388e-06
5.36667e-06
5.34676e-06
5.32395e-06
5.29809e-06
5.26911e-06
5.23698e-06
5.2018e-06
5.16369e-06
5.12282e-06
5.0796e-06
5.03453e-06
4.98821e-06
4.94095e-06
4.89284e-06
4.84458e-06
4.79717e-06
4.75143e-06
4.70822e-06
4.66847e-06
4.63363e-06
4.60451e-06
4.58102e-06
4.56308e-06
4.55021e-06
4.54166e-06
4.53845e-06
4.54209e-06
4.55433e-06
4.57592e-06
4.60683e-06
4.6588e-06
4.72487e-06
4.80265e-06
4.8936e-06
4.99699e-06
5.11158e-06
5.23588e-06
5.36813e-06
5.50636e-06
5.64876e-06
5.79403e-06
5.94178e-06
6.09301e-06
6.24868e-06
6.4069e-06
6.56582e-06
6.72524e-06
6.88515e-06
7.04558e-06
7.20786e-06
7.36936e-06
7.52548e-06
7.68502e-06
7.84646e-06
8.00796e-06
8.17035e-06
8.3323e-06
8.49003e-06
8.65311e-06
8.82997e-06
9.01051e-06
9.18823e-06
9.36897e-06
9.55548e-06
9.74839e-06
9.94645e-06
1.01453e-05
1.03323e-05
1.04874e-05
1.05701e-05
1.05025e-05
1.01557e-05
9.30086e-06
7.85741e-06
6.11973e-06
4.2483e-06
2.80324e-06
1.95865e-06
1.97027e-06
3.26521e-06
3.23904e-06
3.44678e-06
8.58605e-06
7.81027e-07
9.78363e-07
1.29087e-06
1.61198e-06
1.93258e-06
2.22845e-06
2.5412e-06
2.8609e-06
3.20582e-06
3.52515e-06
3.87309e-06
4.12746e-06
4.29487e-06
4.42311e-06
4.75215e-06
5.98825e-06
7.60052e-06
8.16304e-06
4.30011e-06
3.80418e-06
1.00192e-06
9.9229e-07
1.17976e-06
1.43178e-06
1.70635e-06
2.00847e-06
2.32238e-06
2.64604e-06
2.98685e-06
3.35303e-06
3.67816e-06
3.94956e-06
4.16893e-06
4.42739e-06
5.15563e-06
6.66081e-06
7.84917e-06
8.16494e-06
4.41324e-06
3.37126e-06
1.45032e-06
1.46325e-06
1.4585e-06
1.61113e-06
1.82106e-06
2.0565e-06
2.34899e-06
2.68101e-06
3.14288e-06
3.38777e-06
3.61317e-06
3.85076e-06
4.14133e-06
4.71414e-06
5.86793e-06
7.50781e-06
8.1538e-06
8.05676e-06
4.54362e-06
3.72597e-06
2.09746e-06
2.12755e-06
1.9608e-06
2.10054e-06
2.16765e-06
2.44204e-06
2.7554e-06
3.24171e-06
3.86062e-06
3.80831e-06
3.91093e-06
4.28337e-06
4.83119e-06
5.84578e-06
7.27762e-06
8.48554e-06
8.72332e-06
7.80132e-06
4.69125e-06
4.39153e-06
3.01943e-06
3.04662e-06
2.76157e-06
3.05089e-06
3.04677e-06
3.43818e-06
3.81785e-06
4.50454e-06
5.08345e-06
4.7908e-06
5.18667e-06
5.71756e-06
6.6391e-06
7.90361e-06
9.09786e-06
8.98841e-06
8.67515e-06
7.40426e-06
4.84536e-06
5.39311e-06
4.31811e-06
4.31944e-06
3.97185e-06
4.37842e-06
4.50987e-06
5.10512e-06
5.85203e-06
7.09476e-06
7.47299e-06
7.78146e-06
8.25667e-06
9.05328e-06
9.99779e-06
1.03103e-05
9.915e-06
9.46981e-06
8.55961e-06
7.01613e-06
4.86238e-06
7.03674e-06
6.34973e-06
6.3801e-06
6.17817e-06
6.91323e-06
7.66241e-06
9.19576e-06
1.11525e-05
1.393e-05
1.43948e-05
1.44064e-05
1.33925e-05
1.2665e-05
1.18123e-05
1.11452e-05
1.02844e-05
9.43774e-06
8.3341e-06
6.38222e-06
4.03747e-06
1.06779e-05
1.09698e-05
1.14317e-05
1.23678e-05
1.44241e-05
1.7107e-05
2.07485e-05
2.07049e-05
1.94618e-05
1.75159e-05
1.60927e-05
1.48439e-05
1.35807e-05
1.26405e-05
1.14318e-05
1.05009e-05
9.32211e-06
7.84916e-06
5.40591e-06
3.11941e-06
2.27382e-05
2.49027e-05
2.59504e-05
2.78949e-05
2.66855e-05
2.47415e-05
2.26762e-05
2.07458e-05
1.92099e-05
1.74811e-05
1.64249e-05
1.48897e-05
1.39513e-05
1.25948e-05
1.16135e-05
1.02273e-05
8.73693e-06
6.65756e-06
3.88975e-06
2.05825e-06
3.17571e-05
3.02656e-05
2.79393e-05
2.5928e-05
2.40132e-05
2.2201e-05
2.06434e-05
1.91084e-05
1.78495e-05
1.64994e-05
1.54167e-05
1.40864e-05
1.30211e-05
1.14561e-05
1.02933e-05
7.93533e-06
6.69452e-06
3.73551e-06
2.12914e-06
9.91223e-07
3.35466e-05
3.17777e-05
3.00436e-05
2.74821e-05
2.60434e-05
2.35775e-05
2.23389e-05
2.02803e-05
1.92562e-05
1.75532e-05
1.66997e-05
1.52153e-05
1.43931e-05
1.29818e-05
1.19158e-05
1.01323e-05
8.41514e-06
5.4559e-06
2.9747e-06
1.38794e-06
1.68747e-05
1.85521e-05
1.9337e-05
2.11154e-05
2.41854e-05
2.48171e-05
2.30337e-05
2.13129e-05
1.94245e-05
1.80695e-05
1.64902e-05
1.55459e-05
1.42054e-05
1.33999e-05
1.21064e-05
1.10354e-05
9.79914e-06
7.97342e-06
4.89536e-06
2.58681e-06
9.29649e-06
9.04062e-06
9.16447e-06
9.32799e-06
1.05778e-05
1.22901e-05
1.49089e-05
1.84319e-05
1.80098e-05
1.65607e-05
1.54319e-05
1.43425e-05
1.33927e-05
1.2536e-05
1.18703e-05
1.11174e-05
9.98331e-06
8.71765e-06
6.26192e-06
3.63816e-06
6.66436e-06
5.85975e-06
5.80584e-06
5.43069e-06
5.95673e-06
6.29307e-06
7.32091e-06
8.66839e-06
1.05994e-05
1.09494e-05
1.13492e-05
1.21173e-05
1.218e-05
1.14229e-05
1.10286e-05
1.07335e-05
9.99412e-06
9.01789e-06
7.13277e-06
4.57848e-06
5.21886e-06
4.09307e-06
4.07148e-06
3.69829e-06
4.04184e-06
4.09519e-06
4.58075e-06
5.08766e-06
6.04012e-06
6.29678e-06
6.33951e-06
6.99177e-06
7.82533e-06
9.06607e-06
1.01712e-05
9.82897e-06
1.00048e-05
9.15563e-06
7.71272e-06
5.2972e-06
4.28234e-06
2.88076e-06
2.87827e-06
2.57351e-06
2.81201e-06
2.77828e-06
3.11059e-06
3.45545e-06
4.05454e-06
4.5644e-06
4.3363e-06
4.5848e-06
5.17501e-06
6.05144e-06
7.51088e-06
9.12067e-06
9.13796e-06
9.31259e-06
8.04283e-06
5.10983e-06
3.7018e-06
2.0284e-06
2.04108e-06
1.88859e-06
2.01873e-06
2.07023e-06
2.28686e-06
2.56278e-06
2.98279e-06
3.54286e-06
3.57229e-06
3.72942e-06
4.03031e-06
4.57292e-06
5.56116e-06
7.13776e-06
8.67677e-06
9.07067e-06
8.41134e-06
4.93578e-06
3.49675e-06
1.40671e-06
1.39058e-06
1.40189e-06
1.55595e-06
1.77874e-06
2.0044e-06
2.28076e-06
2.58181e-06
2.96344e-06
3.23046e-06
3.50318e-06
3.76336e-06
4.01579e-06
4.58342e-06
5.78897e-06
7.57854e-06
8.5229e-06
8.6422e-06
4.77536e-06
4.19823e-06
9.91056e-07
9.75074e-07
1.15705e-06
1.40309e-06
1.67629e-06
1.96729e-06
2.27832e-06
2.59751e-06
2.93995e-06
3.25026e-06
3.58723e-06
3.86031e-06
4.06084e-06
4.28537e-06
5.03129e-06
6.69914e-06
8.0538e-06
8.72793e-06
4.63471e-06
9.0818e-06
7.81049e-07
9.70846e-07
1.28058e-06
1.59429e-06
1.92126e-06
2.20494e-06
2.50754e-06
2.81262e-06
3.12146e-06
3.46471e-06
3.80075e-06
4.0723e-06
4.23292e-06
4.33058e-06
4.64671e-06
5.97474e-06
7.85069e-06
8.64576e-06
4.51545e-06
1.23397e-06
0.0001165
0.000294084
0.000330901
0.000334809
0.000335356
0.000335357
0.000335342
0.000335343
0.000335345
0.000335345
0.000335343
0.000335342
0.000335357
0.000335356
0.000334809
0.000330901
0.000294083
0.000116499
1.23397e-06
1.36865e-06
6.82743e-05
0.00021988
0.000309662
0.000330925
0.000334529
0.000335273
0.000335316
0.000335296
0.000335287
0.000335287
0.000335296
0.000335316
0.000335273
0.000334529
0.000330925
0.000309662
0.000219881
6.82746e-05
1.36865e-06
1.51548e-06
5.27859e-05
0.000176189
0.000280373
0.000322083
0.000332494
0.000334602
0.000335099
0.000335167
0.000335172