/*--------------------------------*- C++ -*----------------------------------*\
| =========                 |                                                 |
| \\      /  F ield         | OpenFOAM: The Open Source CFD Toolbox           |
|  \\    /   O peration     | Version:  2.1.0                                 |
|   \\  /    A nd           | Web:      www.OpenFOAM.org                      |
|    \\/     M anipulation  |                                                 |
\*---------------------------------------------------------------------------*/
FoamFile
{
    version     2.0;
    format      ascii;
    class       volScalarField;
    location    "0.08";
    object      omega;
}
// * * * * * * * * * * * * * * * * * * * * * * * * * * * * * * * * * * * * * //

dimensions      [0 0 -1 0 0 0 0];

internalField   nonuniform List<scalar> 
6400
(
1554.77
1554.29
1553.66
1552.87
1552.05
1550.99
1549.69
1548.1
1546.25
1544.09
1541.66
1538.9
1535.76
1532.18
1528.12
1523.57
1518.48
1512.81
1506.52
1499.59
1492.01
1483.75
1474.81
1465.21
1454.97
1444.12
1432.68
1420.74
1408.38
1395.68
1382.7
1369.5
1356.19
1342.93
1329.86
1317.1
1304.81
1293.18
1282.27
1272.07
1262.55
1253.6
1245.21
1237.56
1230.85
1225.23
1220.66
1217.99
1217.49
1218.12
1220.04
1223.14
1227.2
1231.97
1237.19
1242.57
1247.88
1252.96
1257.83
1262.6
1267.1
1271.11
1274.53
1277.35
1279.61
1280.6
1280.74
1280.31
1278.94
1276.44
1272.83
1268.09
1261.96
1254.5
1246.34
1237.57
1227.64
1216.4
1204.05
1190.77
1176.77
1162.03
1146.15
1127.91
1108.03
1086.72
1063.42
1036.92
1005.97
968.617
921.768
860.645
779.505
671.302
532.237
475.788
508.65
660.635
776.842
810.547
787.912
784.472
782.829
779.614
776.999
773.416
769.693
765.312
760.817
755.854
750.65
744.953
738.783
732.085
724.92
717.299
709.334
701.101
692.616
683.807
674.69
665.358
655.992
646.712
637.586
628.282
618.271
607.685
596.908
586.474
581.123
580.099
580.511
582.699
586.867
592.756
599.994
608.216
617.154
626.618
636.485
646.672
657.121
667.784
678.611
689.557
700.585
711.664
722.795
733.968
745.168
756.384
767.625
778.896
790.215
801.596
813.049
824.589
836.245
848.051
860.011
872.121
884.445
897.026
909.901
923.097
936.658
950.663
965.161
980.189
995.805
1012.09
1029.1
1046.91
1065.63
1085.39
1106.27
1128.4
1152.02
1176.56
1202.06
1228.76
1256.4
1284.81
1313.54
1342.08
1369.7
1395.54
1418.75
1438.37
1452.14
1458.27
1459.05
1443.07
1403.7
1316.19
1197.34
1050.4
891.265
733.625
300.486
296.081
294.207
290.542
288.151
284.342
281.279
277.731
275.196
272.547
270.24
267.684
265.127
262.581
260.348
259.136
258.754
258.675
258.874
259.943
262.219
265.636
269.97
275.071
281.205
289.54
300.818
314.094
328.169
342.365
356.608
371.074
385.952
401.286
416.991
432.92
448.954
464.997
480.99
496.897
512.704
528.411
544.028
559.568
575.022
590.376
605.611
620.706
635.648
650.438
665.082
679.596
693.998
708.312
722.571
736.811
751.071
765.386
779.795
794.34
809.058
823.973
839.076
854.411
869.992
885.814
901.893
918.224
934.792
951.575
968.566
985.764
1003.13
1020.56
1038.04
1055.64
1073.29
1090.87
1108.48
1126.2
1143.94
1161.66
1179.45
1197.36
1215.19
1232.66
1249.7
1265.58
1279.65
1289.78
1294.37
1295.19
1281.88
1253.28
1200.16
1118.18
1004.89
861
701.533
550.921
75.4996
74.3837
74.001
73.4915
73.2465
73.0439
72.9272
72.8746
72.8663
72.9921
73.5317
74.8164
77.0583
80.5029
85.3253
91.7363
100.127
111.061
124.789
140.625
157.518
174.553
191.248
207.428
223.237
238.901
254.647
270.49
286.405
302.383
318.538
334.977
351.631
368.366
385.115
401.863
418.606
435.293
451.884
468.358
484.723
500.99
517.161
533.245
549.234
565.124
580.891
596.518
611.986
627.286
642.415
657.366
672.141
686.738
701.161
715.416
729.51
743.449
757.241
770.89
784.391
797.735
810.922
823.958
836.835
849.552
862.135
874.537
886.677
898.609
910.397
921.896
933.041
943.849
954.263
964.14
973.396
982.012
989.786
996.604
1002.24
1006.51
1008.84
1009.76
1009.59
1005.26
999.172
988.967
975.745
957.981
935.655
907.497
872.63
829.741
776.658
712.741
639.721
562.334
492.549
450.548
23.8346
23.6026
23.5243
23.3232
23.0686
22.7953
22.7346
22.8182
23.2251
24.3153
26.4502
29.9916
35.2383
42.4082
51.6606
63.0389
76.4961
91.8424
108.659
126.319
144.142
161.694
178.752
195.237
211.042
226.189
240.771
255.023
269.174
283.465
298.015
312.88
328.004
343.304
358.673
374.045
389.363
404.637
419.828
434.951
449.968
464.883
479.672
494.335
508.856
523.226
537.42
551.424
565.209
578.766
592.075
605.12
617.889
630.367
642.537
654.383
665.884
677.032
687.835
698.259
708.265
717.837
726.973
735.595
743.678
751.257
758.265
764.593
770.202
775.07
779.165
782.291
784.371
785.349
785.657
784.936
782.356
779.19
774.118
767.894
760.289
751.203
740.793
728.777
715.326
700.391
684.261
666.997
648.428
628.879
608.219
586.399
563.058
537.745
509.987
480.668
450.682
424.253
407.88
400.164
11.4203
11.1731
11.0384
10.7517
10.6059
10.5394
10.6062
10.9347
11.7927
13.5519
16.4763
20.8638
27.0241
35.1042
45.3151
57.6669
71.9983
87.8944
104.723
121.873
138.802
155.136
170.497
184.765
197.826
209.928
221.343
232.541
243.871
255.631
267.832
280.414
293.177
305.98
318.743
331.457
344.146
356.858
369.524
382.126
394.572
406.89
419.051
431.054
442.859
454.44
465.762
476.8
487.523
497.915
507.925
517.527
526.681
535.358
543.51
551.094
558.122
564.576
570.445
575.689
580.327
584.243
587.455
589.911
591.443
592.146
592.361
591.893
589.981
587.68
584.41
580.105
575.382
569.722
563.407
556.553
548.893
540.877
532.418
523.696
514.775
505.544
496.079
486.557
477.303
468.485
459.85
451.121
442.52
434.1
425.75
417.445
408.981
400.407
391.795
383.203
376.428
373.17
372.211
371.922
6.91125
6.73736
6.65366
6.62077
6.64141
6.7293
7.02934
7.62781
8.76061
10.7212
13.7659
18.2366
24.4292
32.5413
42.7754
55.101
69.2705
84.7462
100.906
117.111
132.683
147.067
159.845
170.928
180.436
188.855
196.707
204.555
212.738
221.398
230.371
239.451
248.42
257.228
265.939
274.657
283.448
292.285
301.052
309.676
318.103
326.407
334.577
342.574
350.308
357.732
364.804
371.501
377.81
383.693
389.071
393.913
398.256
402.07
405.322
408.002
410.144
411.72
412.488
412.811
412.869
412.382
411.02
409.426
407.548
405.092
402.375
399.472
396.279
393.03
389.692
386.355
383.067
379.778
376.542
373.445
370.484
367.665
365.137
362.737
360.536
358.505
356.719
355.102
353.8
352.619
351.634
350.725
349.985
349.312
348.731
348.23
347.898
347.759
347.897
348.957
350.851
354.656
356.924
357.257
4.82345
4.7794
4.77736
4.82088
4.95701
5.18834
5.60472
6.34827
7.55833
9.52107
12.526
16.92
23.01
31.0368
41.1615
53.3476
67.2588
82.2865
97.7123
112.729
126.533
138.5
148.275
155.939
161.924
166.964
171.756
176.801
182.252
187.991
193.7
199.157
204.262
209.138
213.954
218.827
223.745
228.606
233.317
237.861
242.257
246.523
250.625
254.527
258.174
261.565
264.703
267.585
270.193
272.506
274.543
276.318
277.814
279.062
280.091
280.923
281.54
282.017
282.38
282.628
282.842
283.025
283.159
283.356
283.622
283.917
284.323
284.856
285.5
286.286
287.22
288.308
289.54
290.918
292.452
294.141
295.97
297.946
300.076
302.322
304.703
307.209
309.824
312.536
315.35
318.221
321.166
324.15
327.189
330.257
333.382
336.572
339.882
343.37
347.202
351.572
356.449
361.962
364.633
365.07
3.90079
3.87075
3.87737
3.92909
4.09624
4.3716
4.85077
5.64067
6.88209
8.85619
11.857
16.2049
22.2345
30.2038
40.2576
52.3162
65.9608
80.5471
95.2587
109.15
121.338
131.202
138.529
143.614
147.117
149.904
152.711
155.954
159.653
163.53
167.235
170.563
173.544
176.362
179.2
182.11
185.02
187.818
190.458
192.982
195.458
197.909
200.299
202.59
204.781
206.905
208.99
211.033
213.016
214.944
216.858
218.769
220.67
222.572
224.502
226.468
228.474
230.535
232.664
234.862
237.146
239.524
241.989
244.563
247.246
250.039
252.949
255.982
259.139
262.427
265.85
269.412
273.118
276.968
280.969
285.115
289.415
293.867
298.476
303.237
308.167
313.272
318.547
323.989
329.59
335.35
341.256
347.301
353.447
359.687
365.994
372.369
378.804
385.334
392.022
399.087
407.037
415.696
423.507
427.226
3.55063
3.52193
3.53244
3.58949
3.74149
4.02767
4.51334
5.31131
6.59454
8.59423
11.5992
15.9303
21.936
29.8707
39.8668
51.8145
65.2902
79.6164
93.9228
107.204
118.558
127.381
133.547
137.438
139.82
141.608
143.547
146.013
148.968
152.086
155.013
157.571
159.833
162.006
164.263
166.63
169.009
171.295
173.476
175.619
177.801
180.031
182.271
184.486
186.692
188.924
191.202
193.516
195.852
198.217
200.634
203.111
205.643
208.228
210.876
213.598
216.396
219.271
222.228
225.273
228.414
231.652
234.989
238.433
241.988
245.661
249.453
253.374
257.427
261.623
265.966
270.468
275.133
279.975
285
290.222
295.651
301.301
307.186
313.321
319.718
326.385
333.346
340.621
348.233
356.198
364.546
373.295
382.505
392.198
402.449
413.306
424.852
437.158
450.321
464.401
479.289
494.627
506.407
511.588
3.58934
3.57184
3.59499
3.66814
3.84064
4.13395
4.61776
5.4142
6.68171
8.66554
11.6536
15.9696
21.9644
29.89
39.875
51.8113
65.2836
79.6256
93.9851
107.354
118.835
127.813
134.137
138.169
140.649
142.497
144.456
146.929
149.887
153.02
155.969
158.553
160.833
163.017
165.281
167.656
170.045
172.341
174.526
176.664
178.832
181.044
183.261
185.446
187.614
189.802
192.031
194.292
196.568
198.867
201.21
203.608
206.055
208.55
211.102
213.718
216.407
219.166
221.999
224.914
227.916
231.01
234.195
237.479
240.866
244.362
247.967
251.69
255.535
259.511
263.617
267.856
272.24
276.766
281.448
286.283
291.288
296.461
301.815
307.352
313.087
319.024
325.177
331.555
338.175
345.05
352.201
359.649
367.426
375.559
384.079
393.016
402.505
412.589
423.445
435.205
448.048
461.705
473.25
478.574
3.95202
3.94673
3.99219
4.05749
4.23129
4.54762
5.06889
5.86528
7.10546
9.05248
12.0165
16.3315
22.3054
30.2262
40.2315
52.2163
65.8031
80.3671
95.1345
109.153
121.565
131.723
139.375
144.749
148.476
151.398
154.267
157.545
161.281
165.225
169.03
172.473
175.562
178.479
181.404
184.406
187.415
190.319
193.064
195.679
198.231
200.744
203.191
205.52
207.735
209.864
211.941
213.958
215.896
217.765
219.6
221.407
223.186
224.95
226.721
228.495
230.289
232.118
233.991
235.909
237.881
239.931
242.049
244.242
246.523
248.894
251.347
253.893
256.529
259.251
262.063
264.983
267.99
271.099
274.293
277.583
280.947
284.397
287.917
291.515
295.178
298.914
302.712
306.575
310.501
314.491
318.533
322.634
326.805
331.056
335.415
339.892
344.5
349.336
354.499
360.198
366.611
373.654
378.438
380.363
4.83315
4.81968
4.83282
4.91257
5.05999
5.34108
5.86816
6.68407
7.86243
9.79593
12.7919
17.1142
23.1028
31.0319
41.0399
53.0702
66.8171
81.7383
97.1447
112.215
126.208
138.472
148.629
156.669
163.007
168.279
173.209
178.329
183.841
189.68
195.557
201.235
206.592
211.703
216.748
221.854
227.027
232.168
237.174
242.003
246.698
251.281
255.735
259.983
263.991
267.736
271.225
274.447
277.386
280.024
282.361
284.406
286.203
287.716
288.98
290.014
290.804
291.373
291.789
292.049
292.17
292.226
292.218
292.171
292.151
292.19
292.244
292.408
292.682
293.046
293.551
294.177
294.928
295.81
296.809
297.922
299.143
300.452
301.844
303.328
304.859
306.451
308.09
309.754
311.447
313.166
314.956
316.827
318.789
320.867
323.068
325.439
328.03
330.848
333.939
337.657
342.092
346.887
349.085
348.796
6.83969
6.70946
6.64781
6.64692
6.6963
6.81724
7.20398
7.9356
9.03046
10.9592
13.9791
18.3436
24.388
32.3699
42.3951
54.5143
68.421
83.6968
99.6862
115.809
131.407
145.935
158.96
170.313
180.128
188.757
196.754
204.662
212.876
221.556
230.623
239.857
249.064
258.125
267.086
276.055
285.105
294.218
303.331
312.313
321.144
329.783
338.312
346.734
354.973
362.948
370.6
377.919
384.887
391.458
397.559
403.159
408.266
412.816
416.784
420.189
423.029
425.31
427.005
427.918
428.309
428.401
427.997
426.643
425.012
423.097
420.559
417.765
414.814
411.532
408.173
404.765
401.294
397.919
394.625
391.418
388.312
385.347
382.392
379.69
377.072
374.602
372.284
370.055
367.899
365.812
363.704
361.552
359.329
357.047
354.652
352.159
349.596
347.337
345.12
344.053
343.71
346.014
347.79
347.902
11.2796
11.0348
10.9299
10.6821
10.5974
10.55
10.6388
11.0574
11.8991
13.6081
16.4649
20.7107
26.6771
34.5603
44.5138
56.5797
70.5833
86.1739
102.731
119.667
136.463
152.705
168.108
182.427
195.628
207.801
219.275
230.413
241.665
253.251
265.32
277.771
290.483
303.278
316.039
328.766
341.467
354.158
366.872
379.508
392.057
404.439
416.681
428.791
440.75
452.527
464.084
475.397
486.444
497.198
507.636
517.718
527.391
536.645
545.463
553.757
561.547
568.83
575.513
581.588
587.141
592.087
596.383
600.028
602.967
605.142
606.428
606.997
607.129
606.395
604.474
602.252
598.91
594.863
590.314
584.851
579.063
572.744
565.788
558.444
550.654
542.446
534.081
525.369
516.428
507.255
497.648
487.743
477.365
466.596
455.285
443.311
430.28
416.862
403.141
390.006
378.231
370.799
367.372
364.899
23.5726
23.2567
23.1751
22.9583
22.7612
22.51
22.4411
22.4918
22.8636
23.8862
25.8873
29.2516
34.2867
41.2
50.158
61.2059
74.3185
89.3021
105.783
123.13
140.696
158.009
174.878
191.204
206.93
221.992
236.48
250.551
264.489
278.487
292.734
307.269
322.088
337.12
352.245
367.4
382.525
397.588
412.606
427.533
442.381
457.122
471.748
486.254
500.632
514.875
528.967
542.889
556.624
570.157
583.478
596.575
609.437
622.055
634.421
646.511
658.323
669.841
681.038
691.918
702.494
712.705
722.545
732.031
741.093
749.693
757.854
765.55
772.727
779.316
785.193
790.476
795.062
798.832
801.806
803.818
804.783
805.105
804.571
802.299
799.378
794.612
788.787
781.327
772.127
761.23
748.112
732.912
715.158
694.96
671.985
646.002
616.579
583.53
547.759
509.13
470.528
434.958
410.399
396.245
74.6832
73.3054
72.8292
72.2413
71.9501
71.6022
71.4014
71.1353
71.1004
71.149
71.5354
72.6073
74.6464
77.8477
82.4135
88.5702
96.7443
107.484
120.946
136.42
152.908
169.63
186.104
202.138
217.768
233.196
248.645
264.176
279.742
295.345
311.052
327.007
343.254
359.649
376.076
392.496
408.905
425.292
441.601
457.794
473.871
489.841
505.712
521.485
537.16
552.733
568.192
583.518
598.694
613.708
628.558
643.24
657.754
672.101
686.289
700.323
714.213
727.967
741.596
755.112
768.529
781.846
795.064
808.191
821.23
834.191
847.07
859.879
872.658
885.361
897.902
910.379
922.836
935.135
947.257
959.223
970.951
982.374
993.426
1003.99
1014.01
1023.29
1031.68
1038.86
1044.51
1047.46
1048.56
1047.4
1040.75
1030.49
1012.83
988.064
953.012
907.151
848.877
775.537
690.155
597.526
516.352
457.476
299.18
294.162
292.091
288.179
285.788
281.747
278.723
274.689
272.144
269.255
266.943
264.289
261.735
259.115
256.791
255.318
254.808
254.67
254.762
255.612
257.63
260.793
264.883
269.726
275.465
283.09
293.651
306.437
320.182
334.073
347.921
361.924
376.281
391.087
406.304
421.803
437.443
453.126
468.778
484.356
499.84
515.216
530.489
545.666
560.744
575.712
590.552
605.24
619.76
634.102
648.273
662.28
676.14
689.871
703.505
717.072
730.613
744.165
757.77
771.474
785.326
799.371
813.648
828.2
843.079
858.291
873.857
889.81
906.168
922.939
940.11
957.682
975.653
994.005
1012.73
1031.76
1051.01
1070.56
1090.4
1110.41
1130.61
1151.14
1171.92
1192.87
1214.02
1235.32
1256.55
1277.15
1296.38
1313.21
1322.83
1326.35
1318.69
1287.56
1232.87
1153.02
1044.17
909.051
745.024
581.142
787.843
784.197
782.425
778.926
776.18
772.479
768.58
764.055
759.38
754.316
748.951
743.133
736.884
730.106
722.847
715.117
707.02
698.646
690.035
681.133
671.937
662.538
653.099
643.739
634.55
625.316
615.437
604.907
594.003
583.051
574.383
571.735
571.535
572.737
575.904
580.922
587.439
595.081
603.533
612.572
622.052
631.874
641.968
652.278
662.754
673.351
684.022
694.724
705.444
716.179
726.915
737.639
748.348
759.046
769.747
780.463
791.209
801.992
812.828
823.749
834.798
846.004
857.362
868.886
880.633
892.671
905.053
917.835
931.071
944.804
959.108
974.071
989.759
1006.25
1023.6
1041.9
1061.27
1081.84
1103.7
1126.95
1151.77
1178.42
1206.31
1235.05
1264.84
1294.89
1324.16
1351.18
1374.16
1388.14
1393.48
1393.15
1380.79
1361.98
1327.81
1267.57
1175.86
1058.05
922.404
768.725
1555.45
1555.12
1554.47
1553.65
1552.74
1551.63
1550.23
1548.55
1546.59
1544.35
1541.8
1538.91
1535.66
1531.98
1527.83
1523.18
1517.98
1512.21
1505.82
1498.79
1491.11
1482.74
1473.7
1463.99
1453.62
1442.64
1431.06
1418.95
1406.4
1393.51
1380.34
1366.92
1353.36
1339.8
1326.38
1313.21
1300.43
1288.24
1276.75
1265.96
1255.85
1246.38
1237.44
1229.15
1221.69
1215.28
1210.02
1205.82
1204.04
1203.98
1205.13
1207.63
1211.34
1216.06
1221.54
1227.56
1233.83
1240.15
1246.33
1252.31
1258.16
1263.94
1269.42
1274.41
1278.84
1282.68
1285.9
1288.54
1290.37
1290.91
1290.83
1289.94
1288.02
1285.03
1280.79
1274.94
1268.03
1260.5
1251.53
1240.52
1227.72
1213.13
1196.6
1177.9
1156.64
1132.05
1103.18
1068.47
1025.35
970.049
896.124
803.73
705.791
606.243
527.555
483.153
506.418
664.934
800.645
840.961
757.473
295.117
163.564
111.66
87.8404
70.6279
57.9176
51.8319
45.563
42.6798
41.7888
42.2204
46.4463
58.6114
82.4452
128.528
213.377
348.132
542.312
742.765
612.07
299.756
197.815
140.682
108.095
86.2567
73.7833
63.3932
56.4979
53.3814
52.4398
53.2774
60.5494
74.9601
103.71
156.964
245.341
373.537
548.246
716.184
494.541
293.21
222.919
163.31
129.615
105.876
87.7222
76.5088
69.4428
66.6091
65.9692
68.9571
78.0237
97.8953
133.021
192.264
280.837
397.616
547.268
685.699
413.326
282.188
234.971
175.339
147.638
119.061
104.202
92.6819
87.0835
84.7556
84.3712
88.417
103.927
128.146
169.804
232.407
315.696
416.179
541.756
650.809
361.842
274.941
240.869
189.062
166.298
139.091
126.486
114.415
109.2
107.042
106.808
119.855
138.932
170.259
216.393
276.606
348.521
430.553
528.218
610.981
330.125
271.113
245.268
202.175
183.494
159.628
149.078
140.678
137.978
137.727
148.953
165.416
190.348
223.96
267.12
316.667
372.005
429.564
503.012
566.717
315.709
275.577
256.686
224.101
210.212
195.467
190.03
188.031
189.34
199.391
212.325
231.557
254.555
283.137
315.129
349.407
384.51
421.128
464.561
518.202
328.858
307.22
297.436
281.455
275.349
270.932
269.357
269.241
275.013
282.318
292.5
304.996
318.93
334.808
350.55
365.849
380.642
399.276
413.217
467
412.442
401.858
396.735
382.831
376.408
368.089
364.161
361.036
359.772
359.356
359.764
361.285
362.543
363.328
363.494
363.109
362.373
352.559
345.915
411.997
494.801
477.801
470.064
451.532
442.92
428.553
421.502
410.187
404.581
395.623
390.922
383.173
377.792
368.785
359.198
343.649
321.347
296.34
285.433
361.77
465.366
449.713
442.764
426.523
419.08
408.089
402.773
395.792
392.464
388.358
386.421
383.778
381.957
378.922
375.22
369.508
352.953
325.931
312.909
379.884
356.719
347.62
342.069
331.361
326.72
322.625
321.18
321.133
326.428
331.218
339.859
348.359
358.672
368.625
377.278
384.749
392.158
393.509
388.211
438.887
308.691
281.079
268.226
245.697
236.595
229.701
227.811
228.459
236.031
246.877
262.143
281.3
303.554
329.494
355.665
381.393
404.275
432.467
453.075
495.639
306.743
264.972
244.951
209.889
194.779
176.2
168.339
164.329
163.672
172.177
186.643
208.505
236.157
272.414
314.077
359.328
405.792
450.697
503.338
549.864
323.045
263.435
237.598
194.581
175.728
151.291
140.28
129.793
125.794
124.546
131.771
149.81
174.884
212.357
262.606
321.543
387.839
457.035
539.451
600.376
354.394
267.245
232.833
181.007
158.129
130.992
118.377
107.015
101.857
99.6131
99.2147
109.065
129.489
160.568
210.788
278.324
360.683
454.109
563.058
646.308
407.576
276.073
228.87
170.749
143.208
114.863
98.6534
87.1106
81.3714
79.1015
78.8037
83.159
96.6413
122.401
165.239
232.918
325.44
437.773
574.745
687.109
495.498
286.253
214.574
157.822
124.816
102.393
84.5565
73.465
65.9383
62.8824
62.1203
64.5714
74.2202
92.5739
129.885
191.903
288.411
416.741
578.979
722.796
632.06
295.333
193.219
135.613
104.918
83.3419
70.5272
60.7424
53.9336
50.8187
49.8563
50.5491
57.1241
72.3503
101.023
157.169
251.91
391.298
579.299
753.86
788.687
294.139
159.728
108.218
84.2891
69.3994
56.4359
49.999
43.7776
40.812
39.8892
40.2726
44.6044
55.6222
80.8954
128.381
219.123
364.63
572.193
780.982
646.001
32.1902
12.7405
11.323
11.19
11.171
11.1705
11.1708
11.1706
11.1705
11.1705
11.1706
11.1708
11.1705
11.171
11.19
11.323
12.7405
32.1903
646.001
672.545
54.9748
17.0159
12.0809
11.3034
11.1803
11.1547
11.1529
11.1534
11.1536
11.1536
11.1534
11.1529
11.1547
11.1803
11.3034
12.081
17.0159
54.9746
672.545
698.85
71.2466
21.1871
13.3132
11.5897
11.2265
11.1552
11.1383
11.1358
11.1355
11.1355
11.1358
11.1383
11.1552
11.2265
11.5897
13.3132
21.1869
71.2463
698.85
723.415
86.0255
25.1761
14.6577
12.0469
11.3385
11.1685
11.1265
11.1183
11.1171
11.1171
11.1183
11.1265
11.1685
11.3385
12.0469
14.6578
25.1764
86.0264
723.417
746.2
101.496
29.1346
16.0459
12.581
11.5208
11.2061
11.1272
11.105
11.1003
11.1003
11.105
11.1272
11.2061
11.5208
12.581
16.0458
29.1344
101.495
746.2
768.88
118.076
33.2877
17.5169
13.1881
11.7588
11.2815
11.1363
11.0943
11.0842
11.0842
11.0943
11.1363
11.2815
11.7588
13.1881
17.5168
33.2875
118.076
768.88
791.269
135.342
37.6391
19.0702
13.8573
12.0462
11.3884
11.1603
11.092
11.0719
11.0719
11.092
11.1603
11.3884
12.0462
13.8573
19.0702
37.6391
135.342
791.269
811.552
151.752
41.8987
20.6221
14.55
12.3637
11.5207
11.2042
11.0958
11.0626
11.0626
11.0958
11.2042
11.5207
12.3637
14.5499
20.6219
41.8984
151.751
811.552
829.593
166.862
45.9421
22.1265
15.2416
12.6966
11.6706
11.2603
11.1066
11.0593
11.0593
11.1066
11.2603
11.6706
12.6966
15.2415
22.1264
45.9417
166.861
829.594
846.96
181.779
49.9728
23.6339
15.9465
13.0483
11.8389
11.3305
11.1283
11.0617
11.0617
11.1283
11.3305
11.8389
13.0483
15.9464
23.6339
49.9728
181.778
846.959
864.096
197.041
54.1608
25.2023
16.6862
13.4268
12.0287
11.4164
11.16
11.0694
11.0694
11.1601
11.4164
12.0287
13.4267
16.686
25.2016
54.1587
197.037
864.096
879.698
211.69
58.3441
26.7924
17.4459
13.8243
12.2361
11.5168
11.2026
11.0862
11.0862
11.2025
11.5168
12.2359
13.8242
17.4458
26.7923
58.3437
211.687
879.7
892.908
224.804
62.2686
28.3224
18.1914
14.2235
12.4513
11.6268
11.2542
11.1121
11.1121
11.2542
11.6268
12.4513
14.2234
18.191
28.3215
62.2663
224.798
892.909
904.493
236.702
65.9285
29.7735
18.9096
14.6155
12.6684
11.7421
11.312
11.144
11.144
11.312
11.7421
12.6684
14.6154
18.9093
29.7723
65.9242
236.693
904.497
915.578
248.281
69.5222
31.1998
19.6197
15.0085
12.8916
11.8658
11.3785
11.1842
11.1842
11.3784
11.8655
12.8913
15.008
19.6188
31.198
69.5173
248.269
915.584
926.141
259.803
73.1981
32.6641
20.3499
15.4154
13.1262
11.9996
11.4542
11.233
11.2331
11.4542
11.9996
13.1261
15.4148
20.3484
32.6606
73.1892
259.781
926.146
935.256
270.624
76.8429
34.1432
21.0931
15.8329
13.3708
12.1431
11.5392
11.2908
11.2908
11.539
12.1428
13.3706
15.8326
21.0921
34.1396
76.8302
270.593
935.266
942.44
280.012
80.2064
35.5515
21.8166
16.2481
13.62
12.294
11.6325
11.3572
11.3572
11.6325
12.2937
13.6192
16.2466
21.8142
35.5463
80.1904
279.979
942.461
948.255
287.991
83.1813
36.8371
22.4922
16.6431
13.8618
12.4441
11.7287
11.4279
11.4279
11.7287
12.4442
13.8616
16.6423
22.4893
36.8292
83.1591
287.95
948.285
953.63
295.24
85.8929
38.0242
23.1241
17.0149
14.0914
12.5904
11.8271
11.5039
11.5036
11.8263
12.5896
14.0908
17.0138
23.1208
38.0149
85.8647
295.184
953.667
958.904
302.306
88.5323
39.1693
23.7337
17.3794
14.3228
12.7398
11.9255
11.5776
11.5776
11.9254
12.7387
14.3203
17.3757
23.7282
39.1563
88.4921
302.234
958.953
963.642
309.075
91.1337
40.3095
24.3488
17.7547
14.5614
12.8944
12.0302
11.6589
11.659
12.0305
12.8945
14.56
17.7504
24.3408
40.2922
91.0838
309
963.715
967.219
314.941
93.4954
41.3993
24.9488
18.1186
14.7965
13.0569
12.1565
11.7702
11.7694
12.1549
13.0558
14.7969
18.1198
24.9456
41.3863
93.4576
314.894
967.319
969.478
319.565
95.4803
42.3823
25.5179
18.4638
15.0372
13.2443
12.3086
11.9002
11.9001
12.3075
13.2425
15.0368
18.4652
25.5175
42.373
95.442
319.52
969.599
970.962
323.239
97.1456
43.2246
26.0296
18.834
15.3102
13.4455
12.438
11.9923
11.9931
12.4397
13.4455
15.3051
18.8255
26.0249
43.2108
97.0825
323.168
971.107
972.598
326.5
98.5296
43.9276
26.4732
19.2216
15.6225
13.6168
12.5463
12.0877
12.0885
12.5478
13.6162
15.6137
19.2054
26.4611
43.9111
98.4765
326.475
972.784
974.85
329.801
99.6868
44.549
26.9121
19.5609
15.8944
13.8049
12.6862
12.2179
12.2188
12.6879
13.7993
15.8784
19.5459
26.8997
44.542
99.6939
329.917
975.075
977.038
333.267
100.815
45.1736
27.405
19.9173
16.1367
14.0018
12.8635
12.388
12.3886
12.8647
13.9982
16.1247
19.9063
27.4003
45.1887
100.875
333.466
977.25
978.093
336.312
101.997
45.8727
27.9753
20.3707
16.4341
14.2389
13.1027
12.624
12.6255
13.1068
14.2415
16.4334
20.3708
27.9831
45.9132
102.106
336.577
978.251
978.163
338.704
103.223
46.6851
28.6464
20.9182
16.8442
14.5792
13.413
12.9162
12.9188
13.4207
14.5871
16.851
20.9314
28.672
46.7443
103.345
338.976
978.297
977.961
340.798
104.53
47.6225
29.406
21.5527
17.343
14.9634
13.7338
13.2113
13.2139
13.7426
14.9745
17.3583
21.5813
29.4507
47.6908
104.624
341.003
978.075
977.335
342.885
105.909
48.6334
30.2111
22.1975
17.8233
15.3132
14.0107
13.4538
13.457
14.0206
15.3265
17.8502
22.2466
30.277
48.7216
106.01
343.072
977.414
976.038
344.827
107.292
49.588
30.9327
22.7345
18.1956
15.56
14.1854
13.5979
13.602
14.1948
15.5717
18.2283
22.8081
31.0343
49.7329
107.516
345.143
976.063
973.407
346.013
108.494
50.3086
31.438
23.0768
18.3906
15.6531
14.2276
13.6278
13.6307
14.2344
15.659
18.421
23.1677
31.5889
50.5235
108.823
346.373
973.299
968.052
346.46
109.221
50.665
31.6917
23.1839
18.421
15.6608
14.2196
13.6114
13.6147
14.2189
15.6578
18.4479
23.285
31.8836
50.9206
109.549
346.754
967.809
961.347
347.102
109.421
50.7122
31.7071
23.163
18.3753
15.5937
14.1219
13.5037
13.5064
14.1192
15.584
18.3851
23.2619
31.9182
50.9727
109.718
347.265
961.011
954.389
349.037
109.328
50.5517
31.5597
22.9456
18.0837
15.2742
13.7708
13.1168
13.1166
13.7309
15.2168
18.0696
23.0261
31.7582
50.8122
109.606
348.977
953.991
947.905
353.976
108.566
49.7173
30.797
22.0726
17.1049
14.2275
12.6561
11.9615
11.9453
12.562
14.0608
16.9844
22.1021
30.9691
49.9648
108.798
353.788
947.465
942.242
358.86
105.229
46.7994
28.3239
19.6768
14.8373
12.1585
10.7234
10.0927
10.0609
10.6095
11.941
14.6328
19.598
28.3982
47.0047
105.402
358.701
941.756
937.475
362.441
98.3556
42.2508
24.8398
16.811
12.4778
10.0962
8.81102
8.23587
8.198
8.67172
9.84347
12.2051
16.7205
24.8912
42.3755
98.4289
362.223
936.966
933.552
364.08
94.9954
38.725
21.8307
14.3005
10.3586
8.2641
7.14481
6.63125
6.60856
7.01497
8.03118
10.0925
14.1534
21.8624
38.7997
94.7952
363.766
933.049
930.377
364.256
94.7264
36.3049
19.4568
12.2699
8.6612
6.81707
5.82499
5.37678
5.35119
5.70711
6.60315
8.42953
12.1058
19.4391
36.295
94.3556
363.878
929.922
927.83
364.023
95.0249
34.6236
17.6786
10.7589
7.42594
5.73542
4.84252
4.45653
4.41214
4.72677
5.52867
7.1666
10.5991
17.618
34.5307
94.5268
363.536
927.463
925.802
363.268
95.7224
33.4645
16.4407
9.71965
6.58433
5.00397
4.17245
3.83075
3.79057
4.06682
4.79529
6.31575
9.54115
16.3504
33.3025
94.9047
362.615
925.54
924.207
362.523
96.1037
32.7195
15.6275
9.01966
5.99891
4.48376
3.68849
3.38899
3.37599
3.61115
4.30242
5.76735
8.83136
15.5053
32.4814
95.0267
361.752
924.061
922.981
361.847
96.1732
32.2499
15.1302
8.58881
5.61278
4.15581
3.41184
3.11018
3.10805
3.34306
3.99522
5.40108
8.41948
15.0037
31.9332
95.0145
361.008
922.937
922.049
361.198
96.142
31.9261
14.8439
8.34655
5.38364
3.95377
3.24149
2.94714
2.93241
3.18781
3.83223
5.20002
8.15488
14.6961
31.6239
94.9544
360.339
922.083
921.35
360.611
96.0089
31.7099
14.6687
8.17542
5.24611
3.82308
3.12884
2.85071
2.83066
3.10231
3.74084
5.08702
8.0217
14.5326
31.438
94.915
359.801
921.43
920.814
360.082
95.6881
31.5505
14.5783
8.088
5.13661
3.72999
3.05765
2.79316
2.78517
3.04742
3.69154
5.04665
7.94869
14.4517
31.3671
94.9173
359.448
920.923
920.396
359.607
95.3876
31.4309
14.5029
8.02486
5.10455
3.70263
3.02907
2.78029
2.75985
3.02613
3.66472
5.00286
7.92635
14.4189
31.3337
94.9369
359.211
920.518
920.061
359.253
95.2052
31.3429
14.4627
7.99415
5.10553
3.70682
3.0301
2.78012
2.76428
3.01449
3.6501
4.99124
7.9009
14.4031
31.327
94.9327
359.054
920.193
919.775
359.089
95.1567
31.3341
14.4307
7.98203
5.10838
3.70977
3.03078
2.77839
2.77006
3.01308
3.62575
4.97432
7.90761
14.3908
31.3045
94.8907
358.814
919.943
919.537
359.022
95.1578
31.3205
14.4375
7.99478
5.07682
3.69787
3.0279
2.75948
2.75759
3.00914
3.62094
4.96954
7.90447
14.3629
31.2709
94.7393
358.408
919.775
919.314
358.9
95.1474
31.3341
14.4387
7.96748
5.04302
3.67502
3.00826
2.73726
2.74213
2.99306
3.61431
4.9778
7.89037
14.3284
31.1786
94.4001
358.161
919.671
919.156
358.616
95.0675
31.3261
14.4402
7.93833
5.00143
3.63219
2.9862
2.7251
2.7269
2.97557
3.62012
4.99568
7.872
14.3032
31.1047
94.2085
358.1
919.604
919.042
358.218
94.8032
31.2697
14.424
7.92025
4.99284
3.62606
2.97781
2.72573
2.72433
2.97641
3.62966
4.99873
7.87855
14.2877
31.0711
94.1661
358.115
919.557
918.901
357.86
94.4495
31.168
14.3478
7.89345
5.0118
3.64281
2.98163
2.72755
2.72745
2.98286
3.62508
4.99727
7.89727
14.289
31.0565
94.1764
358.193
919.488
918.826
357.558
94.138
31.0351
14.2836
7.90868
5.02288
3.64824
2.98738
2.73072
2.72856
2.98434
3.62161
4.99325
7.89915
14.3029
31.0662
94.2188
358.28
919.381
918.826
357.338
93.8722
30.946
14.2506
7.88292
5.01409
3.64563
2.98931
2.73702
2.7374
2.98103
3.621
4.99128
7.91205
14.3268
31.0806
94.343
358.324
919.266
918.844
357.234
93.6795
30.8687
14.2208
7.86734
4.99966
3.64134
2.99108
2.73905
2.73584
2.98218
3.61303
4.98882
7.93867
14.3561
31.1223
94.535
358.319
919.155
918.894
357.213
93.5815
30.822
14.2099
7.85811
4.99725
3.63643
2.99221
2.73923
2.73608
2.9781
3.6232
5.0127
7.92895
14.3726
31.1748
94.6427
358.297
919.04
919.023
357.233
93.5563
30.7973
14.1996
7.86561
5.00053
3.64027
2.9968
2.73678
2.73472
2.984
3.65639
5.03806
7.92513
14.37
31.1988
94.6723
358.249
918.909
919.17
357.337
93.5645
30.7963
14.1953
7.87628
5.00551
3.64118
3.00008
2.73061
2.73551
3.00117
3.66345
5.04352
7.94185
14.3716
31.1941
94.6711
358.196
918.795
919.291
357.468
93.6041
30.8025
14.2078
7.87995
4.993
3.63907
2.9984
2.71931
2.73264
3.00168
3.65238
5.02833
7.94977
14.3843
31.1872
94.6346
358.098
918.703
919.358
357.592
93.6622
30.8143
14.2167
7.87847
4.98434
3.621
2.97381
2.70738
2.72321
2.97387
3.62323
5.01843
7.93707