/*--------------------------------*- C++ -*----------------------------------*\
| =========                 |                                                 |
| \\      /  F ield         | OpenFOAM: The Open Source CFD Toolbox           |
|  \\    /   O peration     | Version:  2.1.0                                 |
|   \\  /    A nd           | Web:      www.OpenFOAM.org                      |
|    \\/     M anipulation  |                                                 |
\*---------------------------------------------------------------------------*/
FoamFile
{
    version     2.0;
    format      ascii;
    class       volScalarField;
    location    "0.08";
    object      p;
}
// * * * * * * * * * * * * * * * * * * * * * * * * * * * * * * * * * * * * * //

dimensions      [1 -1 -2 0 0 0 0];

internalField   nonuniform List<scalar> 
6400
(
99998.5
100000
100002
100004
100006
100008
100010
100011
100012
100013
100014
100015
100015
100015
100015
100015
100015
100014
100013
100011
100009
100007
100005
100002
99998.4
99994.7
99990.7
99986.3
99981.5
99976.3
99970.8
99964.9
99958.6
99951.9
99945
99937.7
99930
99922
99913.8
99905.2
99896.4
99887.4
99878.1
99868.6
99858.9
99849
99839
99828.8
99818.6
99808.2
99797.8
99787.3
99776.7
99766.1
99755.5
99744.8
99734
99723.3
99712.4
99701.5
99690.5
99679.5
99668.3
99657
99645.6
99634
99622.2
99610.3
99598.1
99585.6
99572.9
99559.9
99546.6
99533
99519
99504.7
99490
99474.9
99459.4
99443.5
99427.1
99410.1
99392.6
99374.3
99355.2
99335
99313.4
99290.2
99264.9
99237.3
99207.5
99176.5
99146.1
99117.4
99088.8
99060.5
99009.2
98903
98555.9
97040.5
99998
99998.2
99999.7
100002
100003
100005
100007
100008
100009
100010
100011
100012
100012
100012
100012
100012
100012
100011
100010
100008
100007
100005
100002
99999.4
99996.3
99992.8
99988.9
99984.6
99980
99974.9
99969.4
99963.6
99957.4
99950.8
99943.9
99936.6
99929
99921.1
99912.9
99904.4
99895.6
99886.5
99877.2
99867.7
99858
99848.1
99838.1
99827.9
99817.6
99807.3
99796.8
99786.3
99775.8
99765.2
99754.6
99743.9
99733.2
99722.4
99711.6
99700.7
99689.8
99678.7
99667.6
99656.3
99644.9
99633.4
99621.7
99609.8
99597.6
99585.2
99572.6
99559.7
99546.4
99532.9
99519
99504.7
99490.1
99475.1
99459.6
99443.7
99427.4
99410.5
99393
99374.7
99355.7
99335.5
99314.1
99290.9
99265.8
99238.5
99209
99178.2
99147.7
99119.1
99094.7
99068.8
99023
98931.2
98651.4
98138
99996.9
99997.4
99999.3
100001
100003
100005
100007
100008
100009
100010
100011
100011
100012
100012
100012
100012
100012
100011
100010
100008
100007
100005
100002
99999.5
99996.3
99992.8
99989
99984.7
99980
99974.9
99969.4
99963.5
99957.3
99950.7
99943.7
99936.4
99928.8
99920.9
99912.6
99904.1
99895.3
99886.2
99876.9
99867.3
99857.6
99847.7
99837.7
99827.5
99817.2
99806.8
99796.4
99785.9
99775.4
99764.8
99754.2
99743.6
99732.9
99722.2
99711.4
99700.6
99689.7
99678.7
99667.6
99656.5
99645.1
99633.7
99622.1
99610.2
99598.2
99586
99573.4
99560.6
99547.6
99534.2
99520.4
99506.3
99491.9
99477
99461.7
99446
99429.8
99413
99395.6
99377.5
99358.5
99338.5
99317.1
99294.1
99269.3
99242.6
99214.1
99184.8
99156.5
99131.3
99110.8
99087
99056.4
99001.6
98860
98961.5
99994.5
99996.4
99999.1
100002
100003
100006
100008
100008
100010
100010
100011
100012
100012
100013
100013
100012
100012
100011
100010
100009
100007
100005
100003
99999.9
99996.8
99993.3
99989.4
99985.1
99980.4
99975.3
99969.7
99963.8
99957.6
99951
99944
99936.7
99929
99921.1
99912.8
99904.3
99895.5
99886.4
99877.1
99867.5
99857.8
99847.9
99837.9
99827.7
99817.4
99807.1
99796.7
99786.2
99775.7
99765.2
99754.6
99744
99733.4
99722.7
99712
99701.2
99690.4
99679.5
99668.5
99657.4
99646.2
99634.8
99623.3
99611.6
99599.7
99587.5
99575.1
99562.3
99549.3
99536
99522.3
99508.2
99493.8
99478.9
99463.6
99447.8
99431.4
99414.5
99397
99378.6
99359.4
99339.2
99317.6
99294.7
99270.2
99244.1
99217
99190.2
99165.7
99145.5
99131.3
99122
99120.2
99129.1
99162.2
99578
99991.6
99995.3
99999.2
100002
100003
100007
100008
100009
100010
100011
100012
100012
100013
100013
100013
100013
100013
100012
100011
100009
100008
100006
100003
100001
99997.4
99993.9
99989.9
99985.6
99980.9
99975.8
99970.3
99964.4
99958.2
99951.5
99944.6
99937.2
99929.6
99921.7
99913.4
99904.9
99896
99887
99877.7
99868.1
99858.4
99848.5
99838.5
99828.4
99818.1
99807.8
99797.4
99787
99776.5
99766
99755.5
99744.9
99734.3
99723.7
99713
99702.2
99691.4
99680.6
99669.6
99658.5
99647.3
99635.9
99624.4
99612.7
99600.8
99588.6
99576.2
99563.4
99550.4
99537
99523.3
99509.2
99494.6
99479.7
99464.2
99448.3
99431.8
99414.7
99396.9
99378.3
99358.9
99338.4
99316.7
99293.8
99269.7
99244.6
99219.3
99195.7
99176.1
99162.7
99159.3
99171.7
99210.4
99302.4
99498.9
100060
99988.5
99993.8
100000
100001
100002
100008
100008
100009
100011
100011
100012
100013
100013
100014
100014
100014
100013
100012
100011
100010
100008
100006
100004
100001
99998
99994.5
99990.6
99986.3
99981.6
99976.5
99971
99965.2
99958.9
99952.3
99945.3
99938
99930.4
99922.4
99914.2
99905.6
99896.8
99887.8
99878.5
99868.9
99859.2
99849.4
99839.4
99829.2
99819
99808.7
99798.3
99787.8
99777.3
99766.8
99756.3
99745.7
99735.1
99724.4
99713.7
99703
99692.2
99681.3
99670.3
99659.2
99648
99636.6
99625.1
99613.4
99601.4
99589.3
99576.8
99564
99551
99537.6
99523.8
99509.6
99495
99479.9
99464.4
99448.3
99431.6
99414.2
99396.2
99377.3
99357.5
99336.7
99314.9
99292
99268.3
99244.2
99221
99200.8
99186.5
99181
99191.4
99229.5
99315.3
99494.9
99819.9
100435
99986.5
99992.3
100002
100000
100003
100010
100008
100010
100012
100012
100013
100013
100014
100014
100014
100014
100014
100013
100012
100011
100009
100007
100005
100002
99998.6
99995.1
99991.2
99987
99982.3
99977.2
99971.7
99965.9
99959.7
99953.1
99946.1
99938.8
99931.2
99923.2
99915
99906.4
99897.6
99888.5
99879.2
99869.7
99860
99850.1
99840.1
99830
99819.7
99809.4
99799
99788.5
99778
99767.5
99756.9
99746.3
99735.6
99725
99714.2
99703.5
99692.6
99681.7
99670.7
99659.6
99648.4
99637
99625.5
99613.8
99601.9
99589.7
99577.2
99564.4
99551.3
99537.9
99524.1
99509.8
99495.1
99479.9
99464.2
99447.9
99431
99413.4
99395
99375.8
99355.7
99334.6
99312.6
99289.7
99266.4
99243.3
99221.9
99204.8
99195.6
99198.3
99222.9
99287.1
99419.6
99678.4
100093
100715
99985.9
99992.5
100004
99999.2
100004
100010
100007
100011
100012
100012
100013
100014
100014
100015
100015
100015
100014
100014
100013
100011
100009
100007
100005
100002
99999
99995.5
99991.6
99987.4
99982.7
99977.7
99972.2
99966.4
99960.2
99953.6
99946.6
99939.3
99931.7
99923.8
99915.5
99907
99898.2
99889.1
99879.8
99870.2
99860.5
99850.6
99840.6
99830.4
99820.2
99809.8
99799.4
99788.9
99778.4
99767.8
99757.2
99746.6
99735.9
99725.2
99714.5
99703.7
99692.8
99681.9
99670.9
99659.8
99648.6
99637.2
99625.7
99614
99602.1
99589.9
99577.5
99564.7
99551.7
99538.2
99524.4
99510.1
99495.3
99480.1
99464.2
99447.7
99430.6
99412.7
99394
99374.5
99354
99332.6
99310.2
99287.3
99264.3
99242
99222.1
99207.4
99202.3
99212.2
99249.3
99336.3
99509.1
99830.5
100302
100912
99992.4
99995.4
100003
99998.9
100006
100009
100007
100013
100012
100012
100014
100014
100015
100015
100015
100015
100015
100014
100013
100012
100010
100008
100005
100002
99999.3
99995.8
99991.9
99987.6
99983
99977.9
99972.5
99966.6
99960.4
99953.8
99946.9
99939.6
99932
99924
99915.8
99907.2
99898.4
99889.3
99880
99870.5
99860.7
99850.8
99840.8
99830.6
99820.3
99810
99799.5
99789.1
99778.5
99767.9
99757.3
99746.7
99736
99725.3
99714.6
99703.8
99693
99682.1
99671.1
99660
99648.8
99637.5
99626
99614.3
99602.4
99590.3
99577.9
99565.2
99552.1
99538.7
99524.8
99510.5
99495.7
99480.3
99464.4
99447.8
99430.4
99412.3
99393.2
99373.3
99352.5
99330.6
99308
99284.9
99261.9
99240.1
99221.2
99208.2
99205.8
99221.1
99267.6
99370.8
99572.4
99936.6
100440
101036
100000
99999.7
100002
99998.8
100008
100008
100007
100013
100012
100012
100014
100014
100015
100015
100016
100015
100015
100014
100013
100012
100010
100008
100005
100003
99999.4
99995.9
99992
99987.7
99983
99978
99972.5
99966.7
99960.4
99953.8
99946.9
99939.6
99932
99924.1
99915.8
99907.3
99898.4
99889.4
99880
99870.5
99860.8
99850.9
99840.8
99830.7
99820.4
99810
99799.6
99789.1
99778.6
99768
99757.4
99746.7
99736.1
99725.4
99714.6
99703.9
99693.1
99682.2
99671.2
99660.2
99649
99637.7
99626.3
99614.7
99602.8
99590.7
99578.4
99565.7
99552.7
99539.3
99525.4
99511.1
99496.2
99480.8
99464.7
99447.9
99430.4
99412
99392.6
99372.3
99351
99328.8
99305.8
99282.4
99259.3
99237.6
99219.1
99206.9
99205.7
99223.6
99275
99386.4
99602.3
99987.5
100505
101095
100001
100001
100003
99998.9
100008
100008
100007
100013
100013
100012
100014
100014
100015
100015
100016
100015
100015
100014
100013
100012
100010
100008
100005
100003
99999.4
99995.9
99992
99987.7
99983
99978
99972.5
99966.7
99960.4
99953.8
99946.9
99939.6
99932
99924.1
99915.8
99907.2
99898.4
99889.3
99880
99870.5
99860.8
99850.9
99840.8
99830.6
99820.4
99810
99799.6
99789.1
99778.5
99768
99757.4
99746.7
99736.1
99725.4
99714.7
99703.9
99693.2
99682.3
99671.4
99660.4
99649.2
99638
99626.6
99615
99603.2
99591.2
99578.9
99566.3
99553.3
99539.9
99526.1
99511.7
99496.8
99481.3
99465.1
99448.2
99430.4
99411.7
99392.1
99371.4
99349.7
99327
99303.5
99279.7
99256.2
99234.3
99215.6
99203.2
99201.7
99219.4
99270.5
99381
99595.3
99978.2
100495
101083
99996.5
99997.9
100005
99999.1
100006
100010
100007
100012
100013
100012
100013
100014
100014
100015
100015
100015
100015
100014
100013
100012
100010
100008
100005
100002
99999.3
99995.8
99991.9
99987.6
99983
99977.9
99972.5
99966.6
99960.4
99953.8
99946.9
99939.6
99931.9
99924
99915.7
99907.2
99898.4
99889.3
99880
99870.4
99860.7
99850.8
99840.8
99830.6
99820.3
99809.9
99799.5
99789
99778.5
99767.9
99757.3
99746.7
99736.1
99725.4
99714.7
99704
99693.2
99682.4
99671.5
99660.5
99649.5
99638.3
99626.9
99615.4
99603.7
99591.7
99579.4
99566.9
99553.9
99540.6
99526.7
99512.4
99497.5
99481.9
99465.6
99448.5
99430.6
99411.6
99391.7
99370.6
99348.4
99325.2
99301.2
99276.8
99252.7
99230.3
99210.8
99197.2
99194.1
99208.7
99254.4
99355.1
99552.3
99910.3
100410
101005
99990.8
99995
100006
100000
100004
100011
100007
100011
100012
100012
100013
100014
100014
100015
100015
100015
100014
100013
100012
100011
100009
100007
100005
100002
99999
99995.5
99991.6
99987.4
99982.7
99977.7
99972.2
99966.4
99960.1
99953.5
99946.6
99939.3
99931.7
99923.7
99915.5
99906.9
99898.1
99889
99879.7
99870.2
99860.4
99850.6
99840.5
99830.4
99820.1
99809.7
99799.3
99788.9
99778.3
99767.8
99757.2
99746.6
99736
99725.4
99714.7
99704
99693.3
99682.5
99671.6
99660.7
99649.7
99638.5
99627.2
99615.8
99604.1
99592.2
99580
99567.5
99554.6
99541.3
99527.5
99513.1
99498.2
99482.6
99466.2
99449
99430.9
99411.7
99391.4
99370
99347.4
99323.7
99299
99273.9
99249
99225.6
99205.1
99189.7
99183.3
99192.6
99228.5
99311.4
99477.5
99789.8
100255
100865
99990.7
99995
100004
100002
100003
100010
100008
100010
100012
100012
100013
100013
100014
100014
100014
100014
100014
100013
100012
100011
100009
100007
100004
100002
99998.6
99995.1
99991.2
99986.9
99982.2
99977.2
99971.7
99965.8
99959.6
99953
99946
99938.7
99931.1
99923.1
99914.9
99906.3
99897.5
99888.4
99879.1
99869.6
99859.9
99850
99840
99829.8
99819.6
99809.2
99798.8
99788.4
99777.9
99767.4
99756.8
99746.3
99735.7
99725.1
99714.5
99703.8
99693.2
99682.4
99671.7
99660.8
99649.8
99638.8
99627.5
99616.1
99604.6
99592.7
99580.6
99568.2
99555.3
99542.1
99528.3
99514
99499.1
99483.4
99467
99449.7
99431.4
99412
99391.5
99369.8
99346.8
99322.5
99297.2
99271.2
99245.3
99220.6
99198.6
99180.8
99170.3
99172.6
99195.4
99254.6
99378.8
99626
100031
100651
99992.2
99996.5
100002
100002
100004
100008
100008
100009
100011
100011
100012
100013
100013
100014
100014
100014
100013
100012
100011
100010
100008
100006
100004
100001
99998
99994.5
99990.6
99986.3
99981.6
99976.5
99971
99965.1
99958.9
99952.3
99945.3
99938
99930.4
99922.4
99914.1
99905.6
99896.8
99887.7
99878.4
99868.9
99859.1
99849.3
99839.2
99829.1
99818.8
99808.5
99798.1
99787.7
99777.2
99766.7
99756.2
99745.7
99735.1
99724.6
99714
99703.4
99692.8
99682.2
99671.4
99660.6
99649.8
99638.8
99627.6
99616.3
99604.8
99593
99581
99568.6
99555.9
99542.7
99529
99514.7
99499.8
99484.2
99467.8
99450.4
99432
99412.5
99391.8
99369.8
99346.4
99321.6
99295.6
99268.8
99241.7
99215.4
99191.5
99171.2
99156.5
99150.9
99159.2
99191.9
99268.4
99434.8
99745.9
100356
99994.1
99997.7
100001
100003
100004
100007
100008
100009
100010
100011
100012
100012
100013
100013
100013
100013
100013
100012
100011
100009
100008
100006
100003
100001
99997.4
99993.9
99990
99985.7
99981
99975.8
99970.3
99964.5
99958.2
99951.6
99944.6
99937.3
99929.6
99921.7
99913.4
99904.9
99896
99887
99877.6
99868.1
99858.4
99848.5
99838.5
99828.3
99818.1
99807.7
99797.4
99786.9
99776.4
99766
99755.5
99744.9
99734.4
99723.9
99713.4
99702.8
99692.2
99681.6
99670.9
99660.2
99649.3
99638.4
99627.3
99616
99604.6
99592.9
99580.9
99568.7
99556
99542.9
99529.3
99515.1
99500.2
99484.6
99468.2
99450.8
99432.3
99412.7
99391.8
99369.6
99345.9
99320.7
99294.1
99266.4
99238.2
99210.4
99184.4
99161.5
99143.3
99130.3
99124.6
99131.6
99160.9
99238.8
99417.9
99968.2
99996.4
99998.4
100001
100002
100004
100006
100008
100009
100010
100011
100011
100012
100012
100013
100013
100012
100012
100011
100010
100009
100007
100005
100003
100000
99996.9
99993.3
99989.4
99985.1
99980.4
99975.3
99969.8
99963.9
99957.7
99951
99944.1
99936.7
99929.1
99921.2
99912.9
99904.3
99895.5
99886.4
99877.1
99867.6
99857.9
99848
99837.9
99827.7
99817.5
99807.1
99796.7
99786.3
99775.8
99765.3
99754.7
99744.2
99733.7
99723.1
99712.5
99702
99691.4
99680.7
99670.1
99659.3
99648.5
99637.6
99626.5
99615.3
99603.9
99592.3
99580.4
99568.1
99555.5
99542.5
99528.9
99514.8
99500
99484.4
99468
99450.6
99432.1
99412.4
99391.4
99368.9
99345
99319.5
99292.4
99264
99234.7
99205.4
99177.6
99152.4
99130.9
99112.8
99095.9
99081.7
99070.7
99065.6
99078.6
99473.4
99998.1
99998.9
100001
100002
100004
100006
100007
100008
100009
100010
100011
100012
100012
100012
100012
100012
100012
100011
100010
100008
100007
100005
100002
99999.6
99996.4
99992.9
99989.1
99984.8
99980.1
99975
99969.5
99963.7
99957.4
99950.8
99943.9
99936.6
99928.9
99921
99912.8
99904.2
99895.4
99886.3
99877
99867.5
99857.7
99847.8
99837.8
99827.6
99817.3
99807
99796.6
99786.1
99775.6
99765
99754.5
99743.9
99733.3
99722.8
99712.2
99701.5
99690.9
99680.2
99669.5
99658.7
99647.8
99636.8
99625.7
99614.4
99603
99591.3
99579.3
99567
99554.4
99541.3
99527.7
99513.5
99498.7
99483.1
99466.6
99449.2
99430.6
99410.9
99389.8
99367.3
99343.2
99317.4
99290
99261
99230.9
99200.5
99171.3
99144.4
99120.6
99100.3
99076.3
99047.8
99008.5
98940.1
98776.8
98842.9
99998.8
99999.5
100001
100003
100004
100006
100007
100009
100010
100010
100011
100012
100012
100012
100012
100012
100012
100011
100010
100009
100007
100005
100002
99999.6
99996.4
99992.9
99989
99984.8
99980.1
99975
99969.6
99963.7
99957.5
99951
99944
99936.8
99929.2
99921.3
99913
99904.5
99895.7
99886.7
99877.4
99867.9
99858.2
99848.3
99838.3
99828.1
99817.8
99807.5
99797.1
99786.6
99776.1
99765.5
99755
99744.4
99733.8
99723.2
99712.5
99701.9
99691.2
99680.5
99669.7
99658.8
99647.9
99636.9
99625.7
99614.4
99602.8
99591
99579
99566.6
99553.9
99540.7
99527
99512.7
99497.7
99481.9
99465.3
99447.7
99429
99409
99387.7
99364.9
99340.5
99314.4
99286.5
99256.9
99226
99194.6
99163.9
99135.3
99109
99085.9
99063.9
99030.8
98976.3
98871
98568.8
97995.4
99999.1
100001
100003
100005
100007
100009
100010
100011
100012
100013
100014
100015
100015
100015
100016
100015
100015
100014
100013
100011
100009
100007
100005
100002
99998.5
99994.9
99990.9
99986.5
99981.7
99976.5
99971
99965
99958.8
99952.1
99945.1
99937.8
99930.2
99922.2
99914
99905.4
99896.6
99887.6
99878.3
99868.8
99859.1
99849.2
99839.2
99829
99818.8
99808.4
99798
99787.6
99777
99766.5
99755.9
99745.3
99734.7
99724.1
99713.5
99702.8
99692.1
99681.4
99670.6
99659.7
99648.8
99637.7
99626.5
99615.2
99603.6
99591.9
99579.8
99567.4
99554.6
99541.4
99527.7
99513.4
99498.4
99482.6
99466
99448.3
99429.6
99409.6
99388.2
99365.3
99340.8
99314.6
99286.6
99256.9
99225.8
99194.4
99163.9
99135.5
99110.2
99084.9
99054.6
99013.3
98955.3
98839.7
98472.4
96860.4
100495
101713
102229
102521
102720
102868
102985
103079
103157
103221
103275
103320
103357
103388
103414
103434
103449
103460
103465
103464
100445
101428
102030
102408
102660
102840
102976
103083
103168
103238
103296
103343
103382
103414
103440
103460
103475
103485
103489
103487
100712
101450
101969
102345
102616
102814
102965
103082
103175
103249
103310
103360
103401
103433
103459
103479
103493
103502
103505
103503
100964
101565
102005
102348
102610
102812
102968
103090
103187
103266
103329
103380
103422
103454
103480
103499
103512
103519
103521
103518
101178
101686
102072
102382
102629
102825
102981
103105
103205
103285
103349
103401
103443
103475
103500
103518
103529
103535
103536
103530
101355
101798
102144
102429
102661
102849
103002
103125
103225
103305
103370
103423
103464
103496
103519
103535
103545
103549
103548
103540
101496
101892
102210
102475
102695
102876
103025
103146
103245
103326
103391
103443
103484
103515
103537
103551
103559
103561
103559
103547
101601
101965
102263
102515
102726
102901
103046
103166
103264
103345
103410
103462
103502
103532
103553
103566
103571
103571
103567
103552
101672
102015
102302
102546
102751
102923
103066
103184
103282
103362
103426
103478
103517
103547
103566
103577
103581
103579
103573
103555
101708
102042
102324
102564
102766
102936
103078
103195
103292
103371
103435
103486
103526
103555
103574
103584
103587
103584
103577
103557
101697
102032
102315
102555
102757
102928
103070
103188
103285
103365
103430
103481
103521
103551
103570
103581
103584
103582
103574
103555
101645
101991
102279
102524
102730
102903
103047
103167
103266
103347
103413
103466
103507
103537
103558
103571
103576
103575
103569
103551
101562
101929
102230
102484
102697
102875
103022
103144
103244
103326
103393
103446
103488
103520
103543
103557
103564
103565
103561
103547
101445
101845
102166
102435
102658
102842
102994
103118
103220
103303
103370
103424
103467
103501
103525
103541
103550
103553
103551
103541
101292
101740
102090
102379
102616
102809
102965
103092
103195
103279
103346
103401
103445
103479
103505
103523
103534
103539
103539
103532
101104
101619
102010
102326
102579
102780
102940
103068
103171
103255
103322
103377
103421
103456
103483
103503
103516
103523
103525
103520
100881
101489
101936
102285
102555
102762
102923
103050
103151
103233
103300
103354
103398
103433
103461
103482
103497
103506
103509
103505
100617
101365
101893
102279
102557
102762
102917
103039
103136
103215
103279
103332
103375
103410
103439
103461
103477
103487
103491
103488
100338
101337
101953
102340
102600
102786
102927
103039
103129
103202
103263
103313
103355
103390
103418
103440
103456
103467
103472
103470
100379
101623
102152
102453
102659
102813
102935
103034
103115
103183
103240
103288
103328
103361
103389
103411
103428
103440
103446
103445
103301
103299
103298
103297
103297
103296
103295
103295
103295
103295
103295
103295
103295
103295
103296
103297
103297
103298
103299
103301
103298
103296
103295
103295
103295
103294
103294
103294
103294
103294
103294
103294
103294
103294
103294
103295
103295
103295
103296
103298
103297
103295
103295
103295
103295
103295
103295
103295
103295
103295
103295
103295
103295
103295
103295
103295
103295
103295
103295
103297
103297
103295
103295
103295
103295
103295
103295
103295
103295
103295
103295
103295
103295
103295
103295
103295
103295
103295
103295
103297
103297
103295
103295
103295
103295
103295
103295
103295
103295
103295
103295
103295
103295
103295
103295
103295
103295
103295
103295
103297
103296
103294
103294
103294
103294
103294
103294
103294
103294
103294
103294
103294
103294
103294
103294
103294
103294
103294
103294
103296
103296
103294
103294
103294
103293
103293
103293
103293
103293
103293
103293
103293
103293
103293
103293
103293
103294
103294
103294
103296
103295
103293
103293
103293
103293
103293
103293
103293
103293
103293
103293
103293
103293
103293
103293
103293
103293
103293
103293
103295
103294
103293
103292
103292
103292
103292
103292
103292
103292
103292
103292
103292
103292
103292
103292
103292
103292
103292
103293
103294
103294
103292
103292
103292
103292
103291
103291
103291
103291
103291
103291
103291
103291
103291
103291
103292
103292
103292
103292
103294
103293
103291
103291
103291
103291
103291
103291
103291
103291
103291
103291
103291
103291
103291
103291
103291
103291
103291
103291
103293
103292
103290
103290
103290
103290
103290
103290
103290
103290
103290
103290
103290
103290
103290
103290
103290
103290
103290
103290
103292
103291
103290
103290
103290
103289
103289
103289
103289
103289
103289
103289
103289
103289
103289
103289
103289
103290
103290
103290
103291
103291
103289
103289
103289
103289
103289
103289
103289
103289
103289
103289
103289
103289
103289
103289
103289
103289
103289
103289
103291
103290
103288
103288
103288
103288
103288
103288
103288
103288
103288
103288
103288
103288
103288
103288
103288
103288
103288
103288
103290
103289
103287
103287
103287
103287
103287
103287
103287
103287
103287
103287
103287
103287
103287
103287
103287
103287
103287
103287
103289
103288
103287
103287
103286
103286
103286
103286
103286
103286
103286
103286
103286
103286
103286
103286
103286
103286
103287
103287
103288
103287
103286
103286
103286
103286
103286
103286
103286
103286
103286
103286
103286
103286
103286
103286
103286
103286
103286
103286
103287
103287
103285
103285
103285
103285
103285
103285
103285
103285
103285
103285
103285
103285
103285
103285
103285
103285
103285
103285
103287
103286
103284
103284
103284
103284
103284
103284
103284
103284
103284
103284
103284
103284
103284
103284
103284
103284
103284
103284
103286
103285
103283
103283
103283
103283
103283
103283
103283
103284
103284
103284
103284
103283
103283
103283
103283
103283
103283
103283
103285
103284
103282
103282
103282
103282
103282
103282
103283
103283
103283
103283
103283
103283
103283
103282
103282
103282
103282
103282
103284
103283
103281
103281
103281
103281
103281
103282
103282
103282
103283
103283
103282
103282
103282
103281
103281
103281
103281
103281
103283
103282
103280
103280
103280
103280
103280
103281
103281
103282
103282
103282
103282
103281
103281
103280
103280
103280
103280
103280
103282
103280
103279
103279
103279
103279
103279
103279
103279
103279
103279
103279
103279
103279
103279
103279
103279
103279
103279
103279
103280
103279
103277
103277
103277
103277
103277
103277
103276
103276
103276
103276
103276
103276
103277
103277
103277
103277
103277
103277
103279
103278
103276
103276
103276
103276
103277
103277
103278
103278
103279
103279
103278
103278
103277
103277
103276
103276
103276
103276
103278
103277
103275
103274
103275
103275
103275
103276
103277
103278
103278
103278
103278
103277
103276
103275
103275
103275
103275
103275
103277
103275
103273
103273
103273
103273
103272
103272
103272
103271
103271
103271
103271
103272
103272
103272
103273
103273
103273
103273
103275
103274
103271
103271
103271
103271
103271
103271
103272
103272
103272
103272
103272
103272
103272
103271
103271
103271
103271
103271
103273
103272
103270
103270
103270
103270
103271
103271
103272
103273
103273
103273
103273
103272
103272
103271
103270
103270
103270
103270
103272
103270
103268
103268
103268
103268
103267
103267
103266
103265
103265
103265
103266
103266
103267
103267
103268
103268
103268
103268
103270
103268
103267
103267
103266
103266
103266
103265
103265
103266
103266
103266
103266
103266
103266
103266
103266
103267
103267
103267
103268
103267
103265
103265
103265
103266
103266
103267
103267
103267
103267
103267
103268
103268
103267
103266
103266
103265
103265
103265
103267
103265
103264
103264
103264
103264
103264
103264
103264
103263
103263
103262
103262
103263
103263
103264
103264
103264
103264
103264
103265
103264
103263
103263
103263
103263
103263
103263
103263
103263
103262
103262
103262
103262
103262
103262
103262
103262
103262
103262
103263
103262
103261
103261
103261
103261
103262
103262
103261
103262
103262
103262
103261
103262
103261
103261
103261
103261
103261
103261
103262
103261
103260
103260
103260
103260
103260
103260
103260
103260
103260
103260
103259
103259
103260
103260
103260
103260
103260
103260
103261
103260
103259
103258
103259
103259
103259
103259
103258
103258
103258
103259
103259
103259
103259
103258
103258
103258
103258
103258
103259
103258
103257
103257
103257
103257
103257
103257
103258
103258
103258
103257
103257
103257
103257
103257
103257
103257
103257
103257
103258
103257
103256
103256
103256
103257
103257
103258
103258
103259
103259
103258
103258
103257
103256
103256
103256
103256
103256
103256
103257
103255
103255
103255
103255
103255
103255
103256
103256
103256
103256
103255
103255
103256
103256
103255
103255
103255
103254
103254
103255
103254
103253
103253
103253
103253
103253
103252
103251
103250
103250
103249
103250
103251
103251
103252
103252
103253
103253
103253
103254
103252
103252
103251
103251
103251
103251
103250
103250
103250
103250
103251
103251
103250
103250
103250
103251
103251
103251
103252
103252
103251
103250
103250
103250
103250
103250
103250
103250
103251
103251
103252
103253
103252
103252
103251
103251
103251
103251
103251
103251
103250
103249
103249
103249
103249
103249
103249
103248
103249
103249
103249
103249
103249
103250
103250
103250
103250
103250
103250
103250
103249
103249
103249
103249
103249
103249
103249
103249
103249
103249
103248
103248
103248
103249
103249
103249
103249
103249
103249
103249
103248
103248
103248
103248
103248
103248
103248
103248
103248
103247
103248
103248
103248
103248
103248
103248
103248
103248
103248
103248
103247
103246
103246
103246
103246
103246
103246
103246
103245
103246
103245
103245
103245
103245
103246
103246
103246
103247
103247
103247
103246
103246
103245
103245
103245
103245
103244
103245
103245
103245
103245
103245
103244
103245
103245
103245
103246
103246
103246
103246
103245
103245
103245
103245
103245
103245
103245
103245
103244
103244
103244
103244
103245
103245
103245
103245
103245
103245
103245
103245
103244
103244
103244
103244
103244
103244
103244
103244
103244
103243
103243
103243
103244
103244
103244
103244
103244
103244
103244
103244
103243
103243
103243
103243
103243
103243
103243
103244
103244
103244
103244
103244
103244
103244
103244
103244
103243
103243
103243
103244
103242
103242
103243
103243
103243
103243
103243
103243
103243
103244
103243
103243
103244
103243
103243
103243
103243
103243
103243
103243
103242
103242
103242
103242
103242
103242
103242
103243
103242
103242
103242
103242
103241
103241
103242
103242
103242
103242
103242
103242
103241
103241
103241
103241
103241
103240
103240
103239
103240
103240
103240
103240
103240
103240
103240
103241
103241
103241
103241
103241
103240
103240
103240
103240
103240
103240
103239
103239
103239
103240
103240
103240
103240
103240
103240
103240
103240
103240
103240
103240
103239
103239
103239
103239
103239
103240
103240
103241
103241
103240
103240
103240
103240
103239
103239
103239
103239
103239
103239
103239
103238
103238
103238
103238
103238
103238
103238
103237
103237
103237
103238
103238
103238
103238
103238
103238
103238
103238
103238
103238
103237
103237
103237
103237
103237
103237
103237
103236
103236
103236
103237
103237
103237
103238
103238
103238
103238
103238
103238
103238
103237
103237
103237
103237
103237
103238
103238
103238
103238
103238
103238
103238
103238
103238
103238
103237
103237
103237
103237
103237
103236
103236
103236
103236
103236
103236
103236
103237
103237
103237
103237
103237
103236
103236
103236
103236
103236
103236
103236
103236
103235
103235
103235
103235
103235
103235
103235
103236
103236
103236
103236
103236
103236
103236
103235
103235
103235
103235
103235
103235
103233
103233
103233
103233
103234
103234
103233
103233
103234
103235
103235
103235
103234
103233
103233
103233
103233
103233
103233
103233
103232
103232
103232
103232
103232
103232
103232
103232
103231
103231
103231
103231
103231
103231
103232
103232
103232
103232
103232
103232
103231
103231
103231
103231
103231
103230
103230
103231
103230
103230
103230
103231
103232
103232
103231
103231
103231
103231
103231
103231
103229
103229
103229
103229
103229
103229
103229
103229
103229
103230
103230
103231
103231
103230
103230
103229
103230
103230
103230
103230
103228
103228
103228
103228
103228
103228
103229
103228
103228
103228
103227
103226
103226
103227
103227
103228
103228
103228
103228
103228
103227
103227
103227
103227
103227
103226
103226
103227
103226
103225
103225
103224
103224
103225
103226
103227
103227
103227
103227
103227
103226
103226
103226
103226
103226
103225
103225
103225
103225
103225
103225
103226
103226
103226
103226
103226
103226
103227
103227
103227
103225
103225
103225
103225
103225
103225
103224
103224
103225
103226
103226
103226
103226
103226
103226
103226
103226
103226
103226
103226
103224
103224
103224
103224
103224
103225
103225
103226
103226
103226
103226
103226
103226
103225
103225
103225
103225
103225
103225
103225
103223
103223
103223
103223
103224
103224
103225
103225
103226
103225
103225
103224
103224
103224
103224
103224
103224
103224
103224
103224
103222
103222
103222
103222
103222
103222
103222
103222
103222
103223
103223
103223
103223
103223
103223
103223
103223
103223
103223
103223
103221
103221
103221
103221
103221
103221
103221
103220
103219
103220
103221
103222
103222
103223
103222
103222
103222
103222
103222
103222
103220
103220
103220
103220
103220
103220
103220
103220
103220
103220
103220
103220
103220
103221
103221
103221
103221
103221
103221
103221
103219
103219
103220
103220
103220
103220
103220
103221
103221
103221
103221
103220
103220
103220
103220
103220
103220
103220
103220
103220
103218
103218
103219
103219
103219
103219
103219
103219
103220
103220
103219
103219
103219
103219
103219
103219
103220
103220
103220
103220
103217
103217
103217
103218
103218
103218
103218
103218
103218
103218
103219
103219
103219
103219
103219
103219
103219
103219
103219
103219
103216
103216
103216
103216
103217
103217
103218
103219
103219
103219
103219
103219
103220