/*--------------------------------*- C++ -*----------------------------------*\
| =========                 |                                                 |
| \\      /  F ield         | OpenFOAM: The Open Source CFD Toolbox           |
|  \\    /   O peration     | Version:  2.1.0                                 |
|   \\  /    A nd           | Web:      www.OpenFOAM.org                      |
|    \\/     M anipulation  |                                                 |
\*---------------------------------------------------------------------------*/
FoamFile
{
    version     2.0;
    format      ascii;
    class       surfaceScalarField;
    location    "0.08";
    object      phi;
}
// * * * * * * * * * * * * * * * * * * * * * * * * * * * * * * * * * * * * * //

dimensions      [0 3 -1 0 0 0 0];

internalField   nonuniform List<scalar> 
12460
(
-2.86495e-05
5.42717e-09
-2.865e-05
5.46258e-10
-2.86449e-05
-5.13064e-09
-2.8633e-05
-1.18729e-08
-2.86159e-05
-1.71386e-08
-2.85927e-05
-2.31697e-08
-2.85628e-05
-2.99116e-08
-2.85268e-05
-3.59751e-08
-2.84853e-05
-4.14526e-08
-2.84383e-05
-4.70084e-08
-2.83854e-05
-5.29057e-08
-2.83262e-05
-5.92758e-08
-2.82598e-05
-6.6342e-08
-2.81856e-05
-7.41694e-08
-2.81029e-05
-8.27051e-08
-2.8011e-05
-9.19092e-08
-2.79093e-05
-1.01702e-07
-2.77973e-05
-1.12003e-07
-2.76745e-05
-1.22804e-07
-2.75405e-05
-1.34067e-07
-2.73948e-05
-1.45706e-07
-2.72372e-05
-1.57593e-07
-2.70675e-05
-1.69632e-07
-2.68858e-05
-1.81772e-07
-2.66918e-05
-1.9397e-07
-2.64856e-05
-2.06153e-07
-2.62675e-05
-2.18171e-07
-2.60376e-05
-2.29824e-07
-2.57967e-05
-2.40937e-07
-2.55453e-05
-2.51386e-07
-2.52842e-05
-2.61109e-07
-2.50141e-05
-2.70091e-07
-2.47357e-05
-2.7837e-07
-2.44497e-05
-2.86029e-07
-2.41565e-05
-2.93168e-07
-2.38567e-05
-2.99888e-07
-2.35504e-05
-3.06257e-07
-2.32381e-05
-3.1227e-07
-2.29203e-05
-3.17829e-07
-2.25975e-05
-3.22762e-07
-2.22707e-05
-3.26885e-07
-2.19406e-05
-3.30025e-07
-2.16086e-05
-3.32026e-07
-2.12757e-05
-3.32919e-07
-2.09429e-05
-3.32832e-07
-2.06109e-05
-3.31959e-07
-2.02804e-05
-3.30534e-07
-1.99516e-05
-3.28765e-07
-1.96248e-05
-3.26782e-07
-1.93001e-05
-3.24695e-07
-1.89775e-05
-3.22628e-07
-1.86568e-05
-3.20697e-07
-1.83378e-05
-3.19002e-07
-1.80202e-05
-3.17638e-07
-1.77035e-05
-3.1667e-07
-1.73874e-05
-3.1613e-07
-1.70713e-05
-3.16021e-07
-1.6755e-05
-3.16304e-07
-1.64381e-05
-3.16932e-07
-1.61201e-05
-3.17954e-07
-1.58007e-05
-3.19467e-07
-1.54792e-05
-3.21491e-07
-1.51552e-05
-3.24001e-07
-1.48282e-05
-3.26964e-07
-1.44978e-05
-3.30419e-07
-1.41633e-05
-3.34475e-07
-1.38242e-05
-3.39139e-07
-1.34799e-05
-3.44268e-07
-1.31301e-05
-3.49864e-07
-1.2774e-05
-3.56007e-07
-1.24114e-05
-3.62667e-07
-1.20416e-05
-3.69809e-07
-1.16643e-05
-3.77312e-07
-1.12792e-05
-3.85019e-07
-1.08861e-05
-3.93115e-07
-1.04842e-05
-4.01947e-07
-1.00726e-05
-4.11617e-07
-9.65036e-06
-4.22197e-07
-9.21642e-06
-4.3395e-07
-8.76917e-06
-4.4725e-07
-8.30659e-06
-4.62577e-07
-7.82594e-06
-4.80648e-07
-7.32368e-06
-5.02265e-07
-6.79558e-06
-5.28094e-07
-6.23684e-06
-5.5874e-07
-5.64224e-06
-5.946e-07
-5.00684e-06
-6.35406e-07
-4.32712e-06
-6.79721e-07
-3.60324e-06
-7.2388e-07
-2.84322e-06
-7.60013e-07
-2.07088e-06
-7.72346e-07
-1.34159e-06
-7.29286e-07
-7.48715e-07
-5.92875e-07
-3.94089e-07
-3.54626e-07
-3.33179e-07
-6.09104e-08
-5.96886e-07
2.63707e-07
-1.48445e-06
8.87567e-07
-3.69455e-06
2.21009e-06
-8.95231e-06
5.25776e-06
1.45395e-05
-2.34918e-05
-3.76241e-05
5.38713e-09
-3.76018e-05
-2.17494e-08
-3.75619e-05
-4.50733e-08
-3.75069e-05
-6.6813e-08
-3.74382e-05
-8.58921e-08
-3.73563e-05
-1.04986e-07
-3.7261e-05
-1.25213e-07
-3.71539e-05
-1.43138e-07
-3.70361e-05
-1.59254e-07
-3.69075e-05
-1.75582e-07
-3.67676e-05
-1.92806e-07
-3.66158e-05
-2.11046e-07
-3.64515e-05
-2.30698e-07
-3.62739e-05
-2.51764e-07
-3.60826e-05
-2.73972e-07
-3.58775e-05
-2.97068e-07
-3.56583e-05
-3.20818e-07
-3.54254e-05
-3.44907e-07
-3.51793e-05
-3.68987e-07
-3.49205e-05
-3.92821e-07
-3.465e-05
-4.16245e-07
-3.43685e-05
-4.39071e-07
-3.4077e-05
-4.61161e-07
-3.37763e-05
-4.82437e-07
-3.34674e-05
-5.02846e-07
-3.31512e-05
-5.22342e-07
-3.28286e-05
-5.40793e-07
-3.25005e-05
-5.57979e-07
-3.21677e-05
-5.73681e-07
-3.18314e-05
-5.87719e-07
-3.14925e-05
-6.00018e-07
-3.11519e-05
-6.10615e-07
-3.08107e-05
-6.19635e-07
-3.04695e-05
-6.27242e-07
-3.0129e-05
-6.33605e-07
-2.979e-05
-6.38895e-07
-2.9453e-05
-6.43259e-07
-2.91185e-05
-6.46803e-07
-2.87867e-05
-6.49591e-07
-2.84579e-05
-6.51601e-07
-2.8132e-05
-6.52729e-07
-2.78092e-05
-6.52817e-07
-2.74896e-05
-6.51714e-07
-2.71731e-05
-6.49389e-07
-2.686e-05
-6.45911e-07
-2.65505e-05
-6.4143e-07
-2.62449e-05
-6.36185e-07
-2.59432e-05
-6.30439e-07
-2.56456e-05
-6.24402e-07
-2.5352e-05
-6.18259e-07
-2.50625e-05
-6.12186e-07
-2.47768e-05
-6.0636e-07
-2.44949e-05
-6.00948e-07
-2.42164e-05
-5.96105e-07
-2.39411e-05
-5.91943e-07
-2.36687e-05
-5.8853e-07
-2.33988e-05
-5.85923e-07
-2.3131e-05
-5.84125e-07
-2.28648e-05
-5.83086e-07
-2.26e-05
-5.82804e-07
-2.23361e-05
-5.8335e-07
-2.20729e-05
-5.84742e-07
-2.181e-05
-5.86888e-07
-2.15473e-05
-5.89678e-07
-2.12845e-05
-5.93163e-07
-2.10215e-05
-5.97505e-07
-2.07579e-05
-6.02681e-07
-2.04938e-05
-6.08442e-07
-2.02288e-05
-6.14832e-07
-1.99628e-05
-6.22002e-07
-1.96957e-05
-6.29745e-07
-1.94276e-05
-6.37931e-07
-1.91582e-05
-6.46718e-07
-1.8887e-05
-6.5618e-07
-1.86138e-05
-6.66322e-07
-1.83384e-05
-6.77389e-07
-1.80603e-05
-6.89727e-07
-1.77788e-05
-7.03641e-07
-1.74933e-05
-7.19537e-07
-1.72025e-05
-7.38029e-07
-1.69051e-05
-7.59916e-07
-1.65996e-05
-7.86201e-07
-1.62839e-05
-8.17917e-07
-1.5956e-05
-8.56065e-07
-1.56128e-05
-9.01865e-07
-1.52515e-05
-9.55955e-07
-1.48694e-05
-1.01748e-06
-1.44652e-05
-1.08394e-06
-1.40394e-05
-1.1497e-06
-1.35962e-05
-1.20319e-06
-1.31457e-05
-1.22283e-06
-1.2704e-05
-1.17103e-06
-1.23031e-05
-9.9371e-07
-1.20147e-05
-6.43081e-07
-1.20668e-05
-8.73547e-09
-1.25497e-05
7.46564e-07
-1.37865e-05
2.12435e-06
-1.62783e-05
4.70191e-06
-2.10102e-05
9.9897e-06
2.48692e-05
-3.13399e-05
-3.9796e-05
7.24919e-09
-3.97609e-05
-5.6833e-08
-3.97071e-05
-9.888e-08
-3.9639e-05
-1.34926e-07
-3.95577e-05
-1.67137e-07
-3.94642e-05
-1.98581e-07
-3.93578e-05
-2.3158e-07
-3.92403e-05
-2.60615e-07
-3.91134e-05
-2.86144e-07
-3.89774e-05
-3.1158e-07
-3.88317e-05
-3.38488e-07
-3.86765e-05
-3.66333e-07
-3.85113e-05
-3.95807e-07
-3.83363e-05
-4.26808e-07
-3.81515e-05
-4.58771e-07
-3.79575e-05
-4.91112e-07
-3.77548e-05
-5.23514e-07
-3.75439e-05
-5.55807e-07
-3.73252e-05
-5.87626e-07
-3.70994e-05
-6.18624e-07
-3.68671e-05
-6.4854e-07
-3.66291e-05
-6.77055e-07
-3.63863e-05
-7.03978e-07
-3.61395e-05
-7.29269e-07
-3.58894e-05
-7.52936e-07
-3.56367e-05
-7.75031e-07
-3.5382e-05
-7.95506e-07
-3.51258e-05
-8.14211e-07
-3.48684e-05
-8.3101e-07
-3.46104e-05
-8.45768e-07
-3.4352e-05
-8.58399e-07
-3.40937e-05
-8.68925e-07
-3.38359e-05
-8.77461e-07
-3.3579e-05
-8.84159e-07
-3.33234e-05
-8.89172e-07
-3.30696e-05
-8.92674e-07
-3.2818e-05
-8.94854e-07
-3.25689e-05
-8.95888e-07
-3.23226e-05
-8.9593e-07
-3.20791e-05
-8.95084e-07
-3.18385e-05
-8.93372e-07
-3.16005e-05
-8.90746e-07
-3.13651e-05
-8.87115e-07
-3.11321e-05
-8.82413e-07
-3.09014e-05
-8.7663e-07
-3.0673e-05
-8.6981e-07
-3.04471e-05
-8.62085e-07
-3.02239e-05
-8.53644e-07
-3.00036e-05
-8.44682e-07
-2.97865e-05
-8.35406e-07
-2.95727e-05
-8.25994e-07
-2.93624e-05
-8.16641e-07
-2.91558e-05
-8.07553e-07
-2.8953e-05
-7.9892e-07
-2.8754e-05
-7.90882e-07
-2.8559e-05
-7.83525e-07
-2.8368e-05
-7.7694e-07
-2.8181e-05
-7.7115e-07
-2.7998e-05
-7.66094e-07
-2.78191e-05
-7.6173e-07
-2.76443e-05
-7.58093e-07
-2.74739e-05
-7.55193e-07
-2.73078e-05
-7.5291e-07
-2.71465e-05
-7.51057e-07
-2.699e-05
-7.4963e-07
-2.68388e-05
-7.487e-07
-2.66933e-05
-7.48159e-07
-2.65539e-05
-7.47824e-07
-2.64209e-05
-7.47853e-07
-2.62947e-05
-7.48243e-07
-2.61757e-05
-7.48688e-07
-2.60646e-05
-7.49113e-07
-2.59616e-05
-7.49662e-07
-2.58673e-05
-7.50474e-07
-2.57821e-05
-7.51546e-07
-2.57065e-05
-7.53003e-07
-2.56409e-05
-7.55296e-07
-2.55855e-05
-7.59072e-07
-2.554e-05
-7.65045e-07
-2.5504e-05
-7.74011e-07
-2.5477e-05
-7.86952e-07
-2.5458e-05
-8.05203e-07
-2.54457e-05
-8.30155e-07
-2.54389e-05
-8.62885e-07
-2.54355e-05
-9.05257e-07
-2.54333e-05
-9.58198e-07
-2.54305e-05
-1.02021e-06
-2.54263e-05
-1.08816e-06
-2.54207e-05
-1.1553e-06
-2.54157e-05
-1.20822e-06
-2.54154e-05
-1.22316e-06
-2.54258e-05
-1.16058e-06
-2.54573e-05
-9.62236e-07
-2.55477e-05
-5.5271e-07
-2.56935e-05
1.37111e-07
-2.61295e-05
1.18257e-06
-2.70357e-05
3.03055e-06
-2.8768e-05
6.43421e-06
-3.20132e-05
1.32349e-05
2.91147e-05
-3.62587e-05
-4.02285e-05
1.34656e-08
-4.02067e-05
-7.86796e-08
-4.01725e-05
-1.33045e-07
-4.01291e-05
-1.78345e-07
-4.00764e-05
-2.19786e-07
-4.00147e-05
-2.60284e-07
-3.99446e-05
-3.01686e-07
-3.98671e-05
-3.38099e-07
-3.97831e-05
-3.70134e-07
-3.96938e-05
-4.00921e-07
-3.95983e-05
-4.34032e-07
-3.94966e-05
-4.68023e-07
-3.93887e-05
-5.03702e-07
-3.92745e-05
-5.40957e-07
-3.91544e-05
-5.78913e-07
-3.90288e-05
-6.16683e-07
-3.88985e-05
-6.53851e-07
-3.8764e-05
-6.90321e-07
-3.86259e-05
-7.25735e-07
-3.84847e-05
-7.59774e-07
-3.8341e-05
-7.92202e-07
-3.81955e-05
-8.22591e-07
-3.80487e-05
-8.50765e-07
-3.79012e-05
-8.76818e-07
-3.77532e-05
-9.00875e-07
-3.76051e-05
-9.23131e-07
-3.74571e-05
-9.43583e-07
-3.73092e-05
-9.6208e-07
-3.71616e-05
-9.78556e-07
-3.70145e-05
-9.92939e-07
-3.68677e-05
-1.00515e-06
-3.67214e-05
-1.0152e-06
-3.65757e-05
-1.02315e-06
-3.64308e-05
-1.02909e-06
-3.62869e-05
-1.03311e-06
-3.61443e-05
-1.03531e-06
-3.60032e-05
-1.03586e-06
-3.58642e-05
-1.03496e-06
-3.57273e-05
-1.03282e-06
-3.55928e-05
-1.02959e-06
-3.54608e-05
-1.02538e-06
-3.53313e-05
-1.0202e-06
-3.52044e-05
-1.01405e-06
-3.50799e-05
-1.00688e-06
-3.49579e-05
-9.98655e-07
-3.48383e-05
-9.89386e-07
-3.47213e-05
-9.79126e-07
-3.4607e-05
-9.67971e-07
-3.44956e-05
-9.56047e-07
-3.43875e-05
-9.43542e-07
-3.42828e-05
-9.30604e-07
-3.41821e-05
-9.17401e-07
-3.40855e-05
-9.04137e-07
-3.39934e-05
-8.91004e-07
-3.39062e-05
-8.78137e-07
-3.38241e-05
-8.65583e-07
-3.37476e-05
-8.53432e-07
-3.3677e-05
-8.41708e-07
-3.36128e-05
-8.30294e-07
-3.35554e-05
-8.19163e-07
-3.35052e-05
-8.08332e-07
-3.34626e-05
-7.97741e-07
-3.34282e-05
-7.87376e-07
-3.34021e-05
-7.77137e-07
-3.33848e-05
-7.6689e-07
-3.33769e-05
-7.56632e-07
-3.33787e-05
-7.46303e-07
-3.3391e-05
-7.3554e-07
-3.34141e-05
-7.24748e-07
-3.34482e-05
-7.14178e-07
-3.34934e-05
-7.03488e-07
-3.35498e-05
-6.92673e-07
-3.36177e-05
-6.81773e-07
-3.36972e-05
-6.70991e-07
-3.37881e-05
-6.60674e-07
-3.38898e-05
-6.51288e-07
-3.40019e-05
-6.43242e-07
-3.41236e-05
-6.37315e-07
-3.42541e-05
-6.34572e-07
-3.43921e-05
-6.35958e-07
-3.45364e-05
-6.42645e-07
-3.46854e-05
-6.56263e-07
-3.48372e-05
-6.78358e-07
-3.49901e-05
-7.09937e-07
-3.51435e-05
-7.51896e-07
-3.52968e-05
-8.04903e-07
-3.54488e-05
-8.68235e-07
-3.55985e-05
-9.38461e-07
-3.57459e-05
-1.00783e-06
-3.58921e-05
-1.06209e-06
-3.60379e-05
-1.07736e-06
-3.61821e-05
-1.01635e-06
-3.63232e-05
-8.21089e-07
-3.64585e-05
-4.17483e-07
-3.65925e-05
2.71099e-07
-3.68426e-05
1.4327e-06
-3.73221e-05
3.51009e-06
-3.81927e-05
7.3048e-06
-3.96232e-05
1.46653e-05
2.90328e-05
-3.95412e-05
-4.03271e-05
3.08373e-08
-4.03225e-05
-8.32938e-08
-4.0308e-05
-1.47492e-07
-4.02957e-05
-1.90607e-07
-4.02816e-05
-2.33933e-07
-4.02608e-05
-2.8112e-07
-4.02398e-05
-3.22602e-07
-4.02134e-05
-3.64584e-07
-4.01814e-05
-4.02138e-07
-4.01473e-05
-4.35016e-07
-4.01112e-05
-4.70133e-07
-4.00729e-05
-5.06281e-07
-4.00326e-05
-5.44009e-07
-3.99902e-05
-5.8331e-07
-3.99461e-05
-6.23087e-07
-3.99005e-05
-6.62228e-07
-3.98541e-05
-7.00265e-07
-3.98072e-05
-7.37189e-07
-3.97604e-05
-7.72578e-07
-3.9714e-05
-8.06131e-07
-3.96685e-05
-8.37745e-07
-3.96242e-05
-8.66878e-07
-3.95815e-05
-8.93431e-07
-3.95407e-05
-9.17713e-07
-3.95016e-05
-9.39937e-07
-3.94643e-05
-9.60442e-07
-3.94287e-05
-9.79209e-07
-3.93948e-05
-9.95973e-07
-3.93626e-05
-1.01069e-06
-3.93323e-05
-1.0233e-06
-3.93037e-05
-1.03375e-06
-3.92768e-05
-1.04208e-06
-3.92516e-05
-1.04837e-06
-3.92279e-05
-1.05272e-06
-3.92058e-05
-1.05519e-06
-3.91853e-05
-1.05582e-06
-3.91665e-05
-1.05472e-06
-3.91494e-05
-1.05206e-06
-3.91341e-05
-1.04805e-06
-3.91209e-05
-1.04289e-06
-3.91096e-05
-1.03664e-06
-3.91004e-05
-1.02934e-06
-3.90935e-05
-1.02096e-06
-3.90889e-05
-1.01147e-06
-3.90868e-05
-1.00083e-06
-3.90871e-05
-9.89023e-07
-3.90902e-05
-9.76081e-07
-3.90961e-05
-9.62065e-07
-3.91051e-05
-9.47044e-07
-3.91174e-05
-9.31207e-07
-3.91334e-05
-9.14653e-07
-3.91533e-05
-8.9751e-07
-3.91774e-05
-8.8e-07
-3.92061e-05
-8.62311e-07
-3.92396e-05
-8.44612e-07
-3.92783e-05
-8.26909e-07
-3.93225e-05
-8.09271e-07
-3.93723e-05
-7.91845e-07
-3.9428e-05
-7.74578e-07
-3.94898e-05
-7.57416e-07
-3.95577e-05
-7.40414e-07
-3.96319e-05
-7.23525e-07
-3.97126e-05
-7.06681e-07
-3.97998e-05
-6.89907e-07
-3.98935e-05
-6.73206e-07
-3.99936e-05
-6.56521e-07
-4.01002e-05
-6.39738e-07
-4.02133e-05
-6.22477e-07
-4.03332e-05
-6.04792e-07
-4.04605e-05
-5.86931e-07
-4.05951e-05
-5.6889e-07
-4.07369e-05
-5.50821e-07
-4.08857e-05
-5.32957e-07
-4.10412e-05
-5.15574e-07
-4.12029e-05
-4.98964e-07
-4.13705e-05
-4.83628e-07
-4.15436e-05
-4.70119e-07
-4.17217e-05
-4.59209e-07
-4.19043e-05
-4.52006e-07
-4.20906e-05
-4.49656e-07
-4.22799e-05
-4.53402e-07
-4.24714e-05
-4.64732e-07
-4.26646e-05
-4.85099e-07
-4.28586e-05
-5.15958e-07
-4.30521e-05
-5.58399e-07
-4.32444e-05
-6.12631e-07
-4.34351e-05
-6.77565e-07
-4.36238e-05
-7.49688e-07
-4.38103e-05
-8.21366e-07
-4.39934e-05
-8.79017e-07
-4.41703e-05
-9.00455e-07
-4.43345e-05
-8.52175e-07
-4.44719e-05
-6.83685e-07
-4.45637e-05
-3.25635e-07
-4.46112e-05
3.18605e-07
-4.4647e-05
1.46848e-06
-4.46825e-05
3.54555e-06
-4.47138e-05
7.33619e-06
-4.44268e-05
1.43782e-05
2.62243e-05
-4.16182e-05
-4.03773e-05
6.0988e-08
-4.03859e-05
-7.4705e-08
-4.03853e-05
-1.48084e-07
-4.03966e-05
-1.79385e-07
-4.04135e-05
-2.17001e-07
-4.04318e-05
-2.62811e-07
-4.04585e-05
-2.95945e-07
-4.04828e-05
-3.40285e-07
-4.05035e-05
-3.81424e-07
-4.05243e-05
-4.14176e-07
-4.05467e-05
-4.47719e-07
-4.05706e-05
-4.82434e-07
-4.0596e-05
-5.18607e-07
-4.06229e-05
-5.564e-07
-4.06516e-05
-5.94408e-07
-4.06825e-05
-6.31276e-07
-4.07162e-05
-6.66578e-07
-4.07528e-05
-7.00623e-07
-4.07925e-05
-7.32874e-07
-4.08357e-05
-7.62893e-07
-4.08827e-05
-7.9077e-07
-4.09336e-05
-8.16015e-07
-4.09886e-05
-8.38429e-07
-4.1048e-05
-8.58264e-07
-4.1112e-05
-8.75927e-07
-4.11805e-05
-8.91992e-07
-4.1253e-05
-9.06698e-07
-4.13291e-05
-9.19876e-07
-4.14084e-05
-9.31333e-07
-4.14909e-05
-9.40874e-07
-4.15762e-05
-9.48416e-07
-4.16642e-05
-9.54027e-07
-4.17548e-05
-9.57839e-07
-4.18475e-05
-9.59981e-07
-4.19422e-05
-9.60519e-07
-4.20385e-05
-9.59477e-07
-4.21363e-05
-9.56914e-07
-4.22355e-05
-9.5294e-07
-4.23358e-05
-9.47699e-07
-4.24374e-05
-9.41318e-07
-4.25402e-05
-9.33849e-07
-4.26442e-05
-9.25286e-07
-4.27496e-05
-9.15611e-07
-4.28562e-05
-9.04814e-07
-4.29642e-05
-8.92875e-07
-4.30734e-05
-8.79776e-07
-4.31839e-05
-8.65562e-07
-4.32957e-05
-8.50303e-07
-4.34087e-05
-8.34039e-07
-4.3523e-05
-8.16929e-07
-4.36386e-05
-7.99091e-07
-4.37555e-05
-7.80548e-07
-4.38742e-05
-7.61365e-07
-4.39947e-05
-7.41716e-07
-4.41175e-05
-7.21867e-07
-4.42424e-05
-7.01955e-07
-4.43697e-05
-6.82022e-07
-4.44994e-05
-6.62154e-07
-4.46315e-05
-6.42419e-07
-4.47661e-05
-6.22829e-07
-4.49032e-05
-6.03384e-07
-4.50427e-05
-5.84018e-07
-4.51847e-05
-5.64646e-07
-4.53293e-05
-5.45312e-07
-4.54764e-05
-5.26092e-07
-4.56261e-05
-5.06846e-07
-4.57785e-05
-4.87297e-07
-4.59335e-05
-4.67457e-07
-4.60909e-05
-4.47468e-07
-4.62505e-05
-4.27259e-07
-4.64126e-05
-4.06834e-07
-4.6577e-05
-3.86455e-07
-4.67436e-05
-3.6632e-07
-4.69125e-05
-3.46673e-07
-4.70836e-05
-3.2787e-07
-4.72568e-05
-3.10379e-07
-4.74321e-05
-2.94828e-07
-4.76093e-05
-2.8203e-07
-4.77883e-05
-2.73074e-07
-4.79687e-05
-2.6917e-07
-4.81506e-05
-2.71549e-07
-4.83337e-05
-2.81601e-07
-4.85179e-05
-3.00871e-07
-4.87028e-05
-3.31154e-07
-4.88874e-05
-3.73723e-07
-4.90717e-05
-4.28407e-07
-4.92554e-05
-4.93816e-07
-4.94384e-05
-5.66656e-07
-4.96198e-05
-6.39988e-07
-4.9797e-05
-7.01809e-07
-4.99646e-05
-7.32882e-07
-5.01121e-05
-7.04638e-07
-5.02176e-05
-5.78169e-07
-5.02538e-05
-2.89488e-07
-5.02012e-05
2.66026e-07
-5.00297e-05
1.29695e-06
-4.96608e-05
3.17666e-06
-4.89317e-05
6.60715e-06
-4.72558e-05
1.27023e-05
2.17817e-05
-4.28132e-05
-4.0423e-05
4.8614e-08
-4.04374e-05
-6.03057e-08
-4.046e-05
-1.25467e-07
-4.04857e-05
-1.53749e-07
-4.05229e-05
-1.798e-07
-4.05771e-05
-2.086e-07
-4.0637e-05
-2.36018e-07
-4.07017e-05
-2.75564e-07
-4.07688e-05
-3.1429e-07
-4.08384e-05
-3.44607e-07
-4.09121e-05
-3.74048e-07
-4.09906e-05
-4.03968e-07
-4.10738e-05
-4.35403e-07
-4.11614e-05
-4.68767e-07
-4.12538e-05
-5.02037e-07
-4.13514e-05
-5.33652e-07
-4.14546e-05
-5.63313e-07
-4.15637e-05
-5.91611e-07
-4.16783e-05
-6.18264e-07
-4.17987e-05
-6.42442e-07
-4.19256e-05
-6.63852e-07
-4.20591e-05
-6.82544e-07
-4.21989e-05
-6.98653e-07
-4.23448e-05
-7.12352e-07
-4.24966e-05
-7.241e-07
-4.26543e-05
-7.34332e-07
-4.28176e-05
-7.43402e-07
-4.2986e-05
-7.51507e-07
-4.31588e-05
-7.58479e-07
-4.33357e-05
-7.64018e-07
-4.35161e-05
-7.68003e-07
-4.36996e-05
-7.70525e-07
-4.38856e-05
-7.71768e-07
-4.40737e-05
-7.71907e-07
-4.42632e-05
-7.70997e-07
-4.44537e-05
-7.68993e-07
-4.46448e-05
-7.65838e-07
-4.48362e-05
-7.61539e-07
-4.50277e-05
-7.56162e-07
-4.52193e-05
-7.4979e-07
-4.54107e-05
-7.42456e-07
-4.56018e-05
-7.34135e-07
-4.57926e-05
-7.24792e-07
-4.5983e-05
-7.14408e-07
-4.61729e-05
-7.02975e-07
-4.63622e-05
-6.90484e-07
-4.65508e-05
-6.76975e-07
-4.67386e-05
-6.62527e-07
-4.69254e-05
-6.47197e-07
-4.71113e-05
-6.31039e-07
-4.72962e-05
-6.14201e-07
-4.74799e-05
-5.96848e-07
-4.76622e-05
-5.79068e-07
-4.7843e-05
-5.60972e-07
-4.80221e-05
-5.42707e-07
-4.81997e-05
-5.2442e-07
-4.83755e-05
-5.06194e-07
-4.85496e-05
-4.88021e-07
-4.87221e-05
-4.69957e-07
-4.88928e-05
-4.52085e-07
-4.90618e-05
-4.34354e-07
-4.92292e-05
-4.16655e-07
-4.93949e-05
-3.98952e-07
-4.95589e-05
-3.81271e-07
-4.97214e-05
-3.63595e-07
-4.98825e-05
-3.45772e-07
-5.00423e-05
-3.27547e-07
-5.02007e-05
-3.09049e-07
-5.03576e-05
-2.90499e-07
-5.05131e-05
-2.71789e-07
-5.06672e-05
-2.52751e-07
-5.08201e-05
-2.33572e-07
-5.0972e-05
-2.1435e-07
-5.11234e-05
-1.95321e-07
-5.12744e-05
-1.76882e-07
-5.14253e-05
-1.59473e-07
-5.15764e-05
-1.43713e-07
-5.1728e-05
-1.3043e-07
-5.18805e-05
-1.20574e-07
-5.20341e-05
-1.1553e-07
-5.21892e-05
-1.1651e-07
-5.2346e-05
-1.24782e-07
-5.25048e-05
-1.42066e-07
-5.26657e-05
-1.70259e-07
-5.28291e-05
-2.10284e-07
-5.29955e-05
-2.62036e-07
-5.31644e-05
-3.24921e-07
-5.33348e-05
-3.96291e-07
-5.35048e-05
-4.69928e-07
-5.36707e-05
-5.35898e-07
-5.38248e-05
-5.78789e-07
-5.39533e-05
-5.76148e-07
-5.40314e-05
-5.00081e-07
-5.40216e-05
-2.99288e-07
-5.38801e-05
1.24558e-07
-5.35313e-05
9.48106e-07
-5.28209e-05
2.46622e-06
-5.1457e-05
5.24328e-06
-4.8757e-05
1.00023e-05
1.6427e-05
-4.34024e-05
-4.04774e-05
-2.59413e-09
-4.04935e-05
-4.42519e-08
-4.05377e-05
-8.1238e-08
-4.05823e-05
-1.09101e-07
-4.06349e-05
-1.2727e-07
-4.07077e-05
-1.35754e-07
-4.07879e-05
-1.55846e-07
-4.08775e-05
-1.85977e-07
-4.0977e-05
-2.14786e-07
-4.1083e-05
-2.38613e-07
-4.11956e-05
-2.61456e-07
-4.13162e-05
-2.83371e-07
-4.14445e-05
-3.07096e-07
-4.15799e-05
-3.33314e-07
-4.17232e-05
-3.58717e-07
-4.1875e-05
-3.81929e-07
-4.2035e-05
-4.03308e-07
-4.22038e-05
-4.2281e-07
-4.23813e-05
-4.40716e-07
-4.2567e-05
-4.56766e-07
-4.27605e-05
-4.70386e-07
-4.29613e-05
-4.81756e-07
-4.31687e-05
-4.91231e-07
-4.3382e-05
-4.99044e-07
-4.36005e-05
-5.05545e-07
-4.38239e-05
-5.10918e-07
-4.4052e-05
-5.15333e-07
-4.42845e-05
-5.18997e-07
-4.45211e-05
-5.2187e-07
-4.47614e-05
-5.23776e-07
-4.50047e-05
-5.24675e-07
-4.52505e-05
-5.24697e-07
-4.54983e-05
-5.24032e-07
-4.57474e-05
-5.22811e-07
-4.59973e-05
-5.21034e-07
-4.62477e-05
-5.18601e-07
-4.64981e-05
-5.1542e-07
-4.67482e-05
-5.11472e-07
-4.69976e-05
-5.068e-07
-4.72459e-05
-5.01452e-07
-4.74929e-05
-4.95426e-07
-4.77384e-05
-4.88678e-07
-4.7982e-05
-4.81167e-07
-4.82236e-05
-4.72871e-07
-4.84627e-05
-4.63804e-07
-4.86992e-05
-4.53994e-07
-4.89327e-05
-4.43453e-07
-4.91631e-05
-4.32202e-07
-4.93899e-05
-4.20336e-07
-4.9613e-05
-4.0793e-07
-4.98322e-05
-3.95086e-07
-5.0047e-05
-3.81988e-07
-5.02573e-05
-3.68792e-07
-5.04627e-05
-3.55577e-07
-5.06631e-05
-3.42336e-07
-5.08584e-05
-3.29107e-07
-5.10486e-05
-3.15968e-07
-5.12337e-05
-3.02892e-07
-5.14138e-05
-2.8987e-07
-5.1589e-05
-2.76923e-07
-5.17593e-05
-2.63978e-07
-5.19251e-05
-2.5091e-07
-5.20864e-05
-2.37656e-07
-5.22435e-05
-2.24185e-07
-5.23967e-05
-2.10415e-07
-5.25462e-05
-1.96177e-07
-5.26925e-05
-1.81309e-07
-5.28357e-05
-1.65871e-07
-5.29764e-05
-1.49813e-07
-5.3115e-05
-1.33158e-07
-5.3252e-05
-1.15744e-07
-5.33877e-05
-9.78394e-08
-5.35226e-05
-7.94463e-08
-5.36571e-05
-6.08257e-08
-5.37916e-05
-4.23601e-08
-5.39266e-05
-2.4545e-08
-5.40623e-05
-8.01996e-09
-5.41992e-05
6.50797e-09
-5.43382e-05
1.84655e-08
-5.44792e-05
2.53904e-08
-5.46225e-05
2.68089e-08
-5.47686e-05
2.13048e-08
-5.49179e-05
7.2952e-09
-5.50713e-05
-1.69293e-08
-5.52287e-05
-5.28309e-08
-5.53905e-05
-1.0022e-07
-5.55561e-05
-1.59349e-07
-5.57236e-05
-2.28761e-07
-5.58907e-05
-3.02828e-07
-5.60523e-05
-3.74329e-07
-5.61991e-05
-4.31998e-07
-5.63146e-05
-4.6059e-07
-5.63746e-05
-4.4017e-07
-5.6333e-05
-3.40854e-07
-5.61246e-05
-8.38046e-08
-5.56367e-05
4.60146e-07
-5.46627e-05
1.49223e-06
-5.28177e-05
3.39827e-06
-4.94197e-05
6.60424e-06
1.06213e-05
-4.36139e-05
-4.05318e-05
-5.28364e-09
-4.05511e-05
-2.49212e-08
-4.06008e-05
-3.15268e-08
-4.06664e-05
-4.34871e-08
-4.07354e-05
-5.82743e-08
-4.08122e-05
-5.89744e-08
-4.09021e-05
-6.59491e-08
-4.10045e-05
-8.35604e-08
-4.1119e-05
-1.00345e-07
-4.12444e-05
-1.13227e-07
-4.13807e-05
-1.251e-07
-4.1528e-05
-1.36051e-07
-4.16866e-05
-1.48584e-07
-4.18564e-05
-1.6346e-07
-4.20382e-05
-1.76913e-07
-4.22321e-05
-1.88054e-07
-4.2437e-05
-1.98431e-07
-4.26521e-05
-2.07692e-07
-4.28769e-05
-2.1594e-07
-4.31104e-05
-2.23236e-07
-4.33515e-05
-2.29296e-07
-4.3599e-05
-2.34228e-07
-4.3852e-05
-2.3821e-07
-4.41097e-05
-2.41379e-07
-4.43713e-05
-2.43908e-07
-4.46364e-05
-2.4588e-07
-4.49044e-05
-2.47347e-07
-4.5175e-05
-2.48365e-07
-4.54479e-05
-2.4891e-07
-4.57228e-05
-2.48922e-07
-4.59991e-05
-2.48416e-07
-4.62763e-05
-2.47499e-07
-4.6554e-05
-2.46287e-07
-4.6832e-05
-2.44843e-07
-4.71098e-05
-2.43155e-07
-4.73873e-05
-2.41165e-07
-4.76639e-05
-2.3883e-07
-4.79392e-05
-2.36163e-07
-4.82128e-05
-2.33193e-07
-4.84843e-05
-2.29936e-07
-4.87534e-05
-2.26374e-07
-4.90196e-05
-2.22465e-07
-4.92826e-05
-2.18183e-07
-4.95419e-05
-2.13508e-07
-4.97973e-05
-2.08452e-07
-5.00482e-05
-2.03044e-07
-5.02944e-05
-1.97291e-07
-5.05354e-05
-1.91192e-07
-5.07709e-05
-1.8481e-07
-5.10006e-05
-1.78214e-07
-5.12243e-05
-1.71433e-07
-5.14417e-05
-1.64536e-07
-5.16529e-05
-1.5763e-07
-5.18577e-05
-1.50751e-07
-5.20562e-05
-1.43854e-07
-5.22484e-05
-1.36923e-07
-5.24344e-05
-1.29967e-07
-5.26143e-05
-1.22933e-07
-5.27884e-05
-1.15771e-07
-5.29569e-05
-1.08429e-07
-5.31201e-05
-1.00793e-07
-5.32783e-05
-9.2741e-08
-5.34318e-05
-8.41858e-08
-5.35809e-05
-7.50457e-08
-5.37261e-05
-6.52003e-08
-5.38678e-05
-5.44913e-08
-5.40063e-05
-4.27993e-08
-5.41421e-05
-3.01063e-08
-5.42755e-05
-1.63708e-08
-5.4407e-05
-1.69012e-09
-5.45374e-05
1.46593e-08
-5.46669e-05
3.16669e-08
-5.47958e-05
4.94905e-08
-5.49246e-05
6.79781e-08
-5.50538e-05
8.67647e-08
-5.51836e-05
1.05332e-07
-5.53147e-05
1.23005e-07
-5.54476e-05
1.39447e-07
-5.55827e-05
1.53603e-07
-5.57211e-05
1.6371e-07
-5.5863e-05
1.68716e-07
-5.60087e-05
1.67018e-07
-5.61585e-05
1.57082e-07
-5.63129e-05
1.37526e-07
-5.64726e-05
1.06883e-07
-5.6637e-05
6.41817e-08
-5.68058e-05
9.44747e-09
-5.69776e-05
-5.70201e-08
-5.7149e-05
-1.31423e-07
-5.73138e-05
-2.09539e-07
-5.74617e-05
-2.84035e-07
-5.75755e-05
-3.4678e-07
-5.76285e-05
-3.87261e-07
-5.75771e-05
-3.92247e-07
-5.7339e-05
-3.21895e-07
-5.67711e-05
-1.07721e-07
-5.56316e-05
3.52779e-07
-5.34816e-05
1.2482e-06
-4.96536e-05
2.77627e-06
4.61426e-06
-4.36466e-05
-4.05515e-05
3.71779e-08
-4.05911e-05
1.45819e-08
-4.06395e-05
1.69601e-08
-4.07055e-05
2.24907e-08
-4.07866e-05
2.28108e-08
-4.08676e-05
2.20229e-08
-4.09597e-05
2.61399e-08
-4.10652e-05
2.19357e-08
-4.11834e-05
1.78453e-08
-4.13157e-05
1.91234e-08
-4.14625e-05
2.17082e-08
-4.1622e-05
2.34496e-08
-4.1796e-05
2.54101e-08
-4.19868e-05
2.73239e-08
-4.2193e-05
2.92718e-08
-4.24119e-05
3.08865e-08
-4.26424e-05
3.20031e-08
-4.28832e-05
3.31331e-08
-4.31332e-05
3.40988e-08
-4.33914e-05
3.49145e-08
-4.36563e-05
3.56014e-08
-4.39266e-05
3.61251e-08
-4.42014e-05
3.6537e-08
-4.44797e-05
3.69028e-08
-4.47608e-05
3.72552e-08
-4.50443e-05
3.76172e-08
-4.53297e-05
3.80142e-08
-4.56165e-05
3.84466e-08
-4.59043e-05
3.89048e-08
-4.61926e-05
3.93966e-08
-4.6481e-05
3.9951e-08
-4.67691e-05
4.0584e-08
-4.70567e-05
4.12908e-08
-4.73436e-05
4.20486e-08
-4.76295e-05
4.2813e-08
-4.79142e-05
4.35476e-08
-4.81973e-05
4.4233e-08
-4.84783e-05
4.4858e-08
-4.87569e-05
4.5425e-08
-4.90328e-05
4.59399e-08
-4.93056e-05
4.64089e-08
-4.95749e-05
4.68455e-08
-4.98403e-05
4.7263e-08
-5.01016e-05
4.76927e-08
-5.03582e-05
4.81494e-08
-5.06098e-05
4.86139e-08
-5.08562e-05
4.90577e-08
-5.10968e-05
4.94668e-08
-5.13315e-05
4.98464e-08
-5.15599e-05
5.01937e-08
-5.17818e-05
5.05279e-08
-5.19972e-05
5.08572e-08
-5.2206e-05
5.11496e-08
-5.24082e-05
5.14211e-08
-5.26038e-05
5.17405e-08
-5.27929e-05
5.21718e-08
-5.29756e-05
5.27781e-08
-5.31522e-05
5.36445e-08
-5.33228e-05
5.48533e-08
-5.34878e-05
5.6517e-08
-5.36473e-05
5.87828e-08
-5.38019e-05
6.17852e-08
-5.39517e-05
6.5635e-08
-5.40972e-05
7.04526e-08
-5.42388e-05
7.63834e-08
-5.43768e-05
8.35804e-08
-5.45118e-05
9.21461e-08
-5.46441e-05
1.02155e-07
-5.4774e-05
1.13552e-07
-5.49022e-05
1.26561e-07
-5.50292e-05
1.41602e-07
-5.51555e-05
1.58044e-07
-5.52819e-05
1.75797e-07
-5.54086e-05
1.94687e-07
-5.55362e-05
2.14379e-07
-5.56652e-05
2.34375e-07
-5.57963e-05
2.54102e-07
-5.59299e-05
2.73031e-07
-5.60663e-05
2.90047e-07
-5.62064e-05
3.03764e-07
-5.63506e-05
3.12906e-07
-5.64995e-05
3.1593e-07
-5.66537e-05
3.11248e-07
-5.68134e-05
2.97255e-07
-5.69789e-05
2.724e-07
-5.71494e-05
2.34709e-07
-5.73239e-05
1.83883e-07
-5.7501e-05
1.20092e-07
-5.76761e-05
4.36815e-08
-5.7844e-05
-4.16715e-08
-5.79949e-05
-1.33056e-07
-5.81112e-05
-2.30567e-07
-5.8164e-05
-3.34388e-07
-5.81112e-05
-4.45057e-07
-5.78687e-05
-5.64391e-07
-5.72814e-05
-6.9499e-07
-5.60832e-05
-8.45484e-07
-5.38045e-05
-1.03049e-06
-4.977e-05
-1.25821e-06
-1.47163e-06
-4.36841e-05
-4.05425e-05
7.15415e-08
-4.05904e-05
6.25296e-08
-4.06382e-05
6.47621e-08
-4.06987e-05
8.29861e-08
-4.07756e-05
9.97089e-08
-4.08574e-05
1.03827e-07
-4.0947e-05
1.15742e-07
-4.10493e-05
1.24234e-07
-4.11678e-05
1.36282e-07
-4.13004e-05
1.51777e-07
-4.14465e-05
1.67758e-07
-4.16046e-05
1.81565e-07
-4.1776e-05
1.96788e-07
-4.19632e-05
2.14591e-07
-4.21654e-05
2.31427e-07
-4.238e-05
2.45487e-07
-4.26062e-05
2.58207e-07
-4.28429e-05
2.69861e-07
-4.3089e-05
2.80173e-07
-4.33434e-05
2.89324e-07
-4.36049e-05
2.9709e-07
-4.38722e-05
3.03437e-07
-4.41443e-05
3.08628e-07
-4.44203e-05
3.1291e-07
-4.46995e-05
3.16487e-07
-4.49814e-05
3.19471e-07
-4.52653e-05
3.21969e-07
-4.55509e-05
3.24046e-07
-4.58377e-05
3.25662e-07
-4.61251e-05
3.26776e-07
-4.64126e-05
3.27458e-07
-4.66998e-05
3.27841e-07
-4.69866e-05
3.28039e-07
-4.72726e-05
3.28076e-07
-4.75577e-05
3.27873e-07
-4.78414e-05
3.27311e-07
-4.81235e-05
3.26316e-07
-4.84035e-05
3.24876e-07
-4.86811e-05
3.23023e-07
-4.8956e-05
3.20783e-07
-4.92277e-05
3.1815e-07
-4.9496e-05
3.15114e-07
-4.97604e-05
3.11677e-07
-5.00206e-05
3.07869e-07
-5.02762e-05
3.03721e-07
-5.05268e-05
2.99229e-07
-5.07721e-05
2.94354e-07
-5.10117e-05
2.89077e-07
-5.12453e-05
2.83464e-07
-5.14727e-05
2.77565e-07
-5.16936e-05
2.7145e-07
-5.1908e-05
2.6522e-07
-5.21157e-05
2.5891e-07
-5.23169e-05
2.52576e-07
-5.25114e-05
2.4632e-07
-5.26995e-05
2.40245e-07
-5.28812e-05
2.34489e-07
-5.30568e-05
2.29187e-07
-5.32264e-05
2.24437e-07
-5.33902e-05
2.20398e-07
-5.35487e-05
2.17272e-07
-5.37021e-05
2.15204e-07
-5.38508e-05
2.14324e-07
-5.39952e-05
2.1479e-07
-5.41356e-05
2.16765e-07
-5.42724e-05
2.20417e-07
-5.44061e-05
2.25853e-07
-5.45371e-05
2.33133e-07
-5.46659e-05
2.4235e-07
-5.47931e-05
2.53749e-07
-5.49189e-05
2.67454e-07
-5.5044e-05
2.83134e-07
-5.51689e-05
3.00654e-07
-5.5294e-05
3.19811e-07
-5.54199e-05
3.40287e-07
-5.55471e-05
3.61624e-07
-5.56763e-05
3.83284e-07
-5.58079e-05
4.04628e-07
-5.59425e-05
4.24604e-07
-5.60807e-05
4.41969e-07
-5.62232e-05
4.55406e-07
-5.63706e-05
4.63385e-07
-5.65236e-05
4.64248e-07
-5.66826e-05
4.56266e-07
-5.68478e-05
4.37554e-07
-5.70192e-05
4.06088e-07
-5.71958e-05
3.60471e-07
-5.73746e-05
2.98944e-07
-5.75513e-05
2.20401e-07
-5.7718e-05
1.24999e-07
-5.78656e-05
1.45731e-08
-5.79794e-05
-1.16778e-07
-5.80313e-05
-2.82553e-07
-5.79767e-05
-4.99643e-07
-5.77357e-05
-8.05342e-07
-5.71612e-05
-1.26956e-06
-5.59842e-05
-2.0224e-06
-5.3736e-05
-3.27871e-06
-4.97441e-05
-5.25013e-06
-7.5217e-06
-4.3694e-05
-4.05083e-05
6.62999e-08
-4.05321e-05
8.63131e-08
-4.05825e-05
1.15236e-07
-4.06387e-05
1.39169e-07
-4.07016e-05
1.62594e-07
-4.07826e-05
1.84811e-07
-4.08688e-05
2.01955e-07
-4.09655e-05
2.20969e-07
-4.10782e-05
2.48993e-07
-4.12021e-05
2.75673e-07
-4.13355e-05
3.01136e-07
-4.14787e-05
3.24737e-07
-4.16318e-05
3.49948e-07
-4.17954e-05
3.78147e-07
-4.19697e-05
4.05709e-07
-4.21553e-05
4.31135e-07
-4.23521e-05
4.55023e-07
-4.25592e-05
4.76897e-07
-4.27759e-05
4.96903e-07
-4.30017e-05
5.15068e-07
-4.32354e-05
5.30782e-07
-4.34759e-05
5.43957e-07
-4.37223e-05
5.55056e-07
-4.39738e-05
5.64416e-07
-4.42297e-05
5.72373e-07
-4.44893e-05
5.79116e-07
-4.47523e-05
5.84893e-07
-4.50181e-05
5.89932e-07
-4.52866e-05
5.94162e-07
-4.55573e-05
5.97426e-07
-4.58296e-05
5.99713e-07
-4.61029e-05
6.0116e-07
-4.63768e-05
6.01951e-07
-4.66509e-05
6.02192e-07
-4.69249e-05
6.01855e-07
-4.71984e-05
6.00814e-07
-4.7471e-05
5.98957e-07
-4.77424e-05
5.96247e-07
-4.80121e-05
5.9272e-07
-4.82797e-05
5.8843e-07
-4.8545e-05
5.8339e-07
-4.88075e-05
5.77593e-07
-4.90668e-05