/*--------------------------------*- C++ -*----------------------------------*\
| =========                 |                                                 |
| \\      /  F ield         | OpenFOAM: The Open Source CFD Toolbox           |
|  \\    /   O peration     | Version:  2.1.0                                 |
|   \\  /    A nd           | Web:      www.OpenFOAM.org                      |
|    \\/     M anipulation  |                                                 |
\*---------------------------------------------------------------------------*/
FoamFile
{
    version     2.0;
    format      ascii;
    class       volVectorField;
    location    "0.08";
    object      U;
}
// * * * * * * * * * * * * * * * * * * * * * * * * * * * * * * * * * * * * * //

dimensions      [0 1 -1 0 0 0 0];

internalField   nonuniform List<vector> 
6400
(
(-1.43239 6.85556e-05 0)
(-1.43243 6.90065e-06 0)
(-1.43237 -6.48119e-05 0)
(-1.43194 -0.000149977 0)
(-1.43122 -0.000216484 0)
(-1.43021 -0.000292651 0)
(-1.42888 -0.000377784 0)
(-1.42723 -0.000454338 0)
(-1.4253 -0.000523477 0)
(-1.42309 -0.000593593 0)
(-1.42059 -0.000668006 0)
(-1.41778 -0.000748375 0)
(-1.41464 -0.000837514 0)
(-1.41113 -0.000936245 0)
(-1.40721 -0.00104389 0)
(-1.40284 -0.00115995 0)
(-1.398 -0.00128341 0)
(-1.39266 -0.00141325 0)
(-1.38679 -0.00154936 0)
(-1.38037 -0.00169127 0)
(-1.37337 -0.00183789 0)
(-1.36579 -0.0019876 0)
(-1.35761 -0.00213922 0)
(-1.34882 -0.00229208 0)
(-1.33943 -0.00244568 0)
(-1.32943 -0.00259908 0)
(-1.31882 -0.0027504 0)
(-1.30762 -0.00289713 0)
(-1.29585 -0.00303707 0)
(-1.28355 -0.00316868 0)
(-1.27073 -0.00329118 0)
(-1.25745 -0.0034044 0)
(-1.24374 -0.00350881 0)
(-1.22963 -0.00360546 0)
(-1.21515 -0.0036956 0)
(-1.20033 -0.00378052 0)
(-1.18517 -0.00386106 0)
(-1.16971 -0.00393716 0)
(-1.15396 -0.00400757 0)
(-1.13795 -0.00407013 0)
(-1.12171 -0.00412252 0)
(-1.10528 -0.00416255 0)
(-1.08873 -0.00418826 0)
(-1.07211 -0.00420002 0)
(-1.05547 -0.00419945 0)
(-1.03885 -0.004189 0)
(-1.02229 -0.00417158 0)
(-1.0058 -0.00414983 0)
(-0.989414 -0.00412538 0)
(-0.973127 -0.0040996 0)
(-0.956944 -0.00407407 0)
(-0.94086 -0.00405024 0)
(-0.924868 -0.00402937 0)
(-0.908951 -0.00401267 0)
(-0.893093 -0.00400095 0)
(-0.877273 -0.00399462 0)
(-0.861469 -0.00399372 0)
(-0.845661 -0.00399777 0)
(-0.82983 -0.00400616 0)
(-0.813957 -0.00401951 0)
(-0.798021 -0.00403906 0)
(-0.781997 -0.00406506 0)
(-0.76586 -0.00409718 0)
(-0.749586 -0.00413503 0)
(-0.733151 -0.00417909 0)
(-0.716528 -0.00423074 0)
(-0.699688 -0.00429007 0)
(-0.682603 -0.00435531 0)
(-0.665249 -0.00442643 0)
(-0.647603 -0.00450447 0)
(-0.629636 -0.00458906 0)
(-0.611324 -0.00467976 0)
(-0.592646 -0.00477505 0)
(-0.573589 -0.00487294 0)
(-0.554135 -0.00497577 0)
(-0.534259 -0.00508795 0)
(-0.51392 -0.00521075 0)
(-0.493075 -0.00534509 0)
(-0.471672 -0.00549434 0)
(-0.449642 -0.00566325 0)
(-0.426896 -0.0058579 0)
(-0.403316 -0.00608741 0)
(-0.378743 -0.00636195 0)
(-0.352984 -0.00669005 0)
(-0.325814 -0.00707939 0)
(-0.296981 -0.00753511 0)
(-0.266232 -0.00805389 0)
(-0.233356 -0.00861761 0)
(-0.198269 -0.00917986 0)
(-0.161176 -0.00964076 0)
(-0.12287 -0.00979994 0)
(-0.0853319 -0.00925573 0)
(-0.0522754 -0.00752521 0)
(-0.0285807 -0.00450065 0)
(-0.0181891 -0.00077278 0)
(-0.0232665 0.00334747 0)
(-0.0521211 0.011278 0)
(-0.12997 0.0281294 0)
(-0.319502 0.067094 0)
(-0.898195 0.186444 0)
(-1.88132 0.000134631 0)
(-1.88051 -0.000265787 0)
(-1.87907 -0.00062828 0)
(-1.8767 -0.000984112 0)
(-1.87361 -0.00128836 0)
(-1.86985 -0.00160228 0)
(-1.86542 -0.00193922 0)
(-1.86036 -0.0022389 0)
(-1.85474 -0.00250867 0)
(-1.84858 -0.00278208 0)
(-1.84187 -0.00307097 0)
(-1.83458 -0.00337848 0)
(-1.82667 -0.00371235 0)
(-1.81812 -0.00407342 0)
(-1.8089 -0.00445763 0)
(-1.79899 -0.00486131 0)
(-1.78838 -0.00528055 0)
(-1.77708 -0.00571038 0)
(-1.76511 -0.00614638 0)
(-1.75248 -0.0065851 0)
(-1.73925 -0.00702345 0)
(-1.72546 -0.00745751 0)
(-1.71113 -0.00788436 0)
(-1.69633 -0.00830236 0)
(-1.68109 -0.00871037 0)
(-1.66547 -0.00910685 0)
(-1.6495 -0.00948832 0)
(-1.63323 -0.00984952 0)
(-1.61671 -0.0101855 0)
(-1.59998 -0.0104924 0)
(-1.5831 -0.0107685 0)
(-1.56612 -0.0110141 0)
(-1.54907 -0.0112312 0)
(-1.53201 -0.0114229 0)
(-1.51497 -0.0115924 0)
(-1.49798 -0.0117433 0)
(-1.48108 -0.0118781 0)
(-1.46429 -0.0119981 0)
(-1.44763 -0.012103 0)
(-1.43112 -0.0121904 0)
(-1.41475 -0.0122565 0)
(-1.39854 -0.0122974 0)
(-1.38248 -0.012309 0)
(-1.36657 -0.0122915 0)
(-1.35084 -0.0122473 0)
(-1.33527 -0.0121806 0)
(-1.31989 -0.0120974 0)
(-1.30471 -0.0120035 0)
(-1.28972 -0.0119033 0)
(-1.27494 -0.0118004 0)
(-1.26036 -0.0116986 0)
(-1.24598 -0.0116015 0)
(-1.23179 -0.0115125 0)
(-1.21778 -0.0114348 0)
(-1.20394 -0.0113705 0)
(-1.19024 -0.011321 0)
(-1.17669 -0.0112869 0)
(-1.16324 -0.0112678 0)
(-1.14989 -0.0112626 0)
(-1.13662 -0.0112718 0)
(-1.1234 -0.0112975 0)
(-1.11022 -0.0113401 0)
(-1.09707 -0.0113984 0)
(-1.08393 -0.0114703 0)
(-1.07079 -0.0115571 0)
(-1.05765 -0.0116622 0)
(-1.04448 -0.0117853 0)
(-1.03129 -0.0119216 0)
(-1.01806 -0.0120717 0)
(-1.00479 -0.0122384 0)
(-0.99146 -0.0124188 0)
(-0.978079 -0.0126109 0)
(-0.964642 -0.0128151 0)
(-0.951129 -0.0130304 0)
(-0.93752 -0.0132592 0)
(-0.923802 -0.0135089 0)
(-0.909963 -0.0137852 0)
(-0.895976 -0.0140927 0)
(-0.881801 -0.01444 0)
(-0.867392 -0.0148393 0)
(-0.852689 -0.0153068 0)
(-0.837617 -0.015864 0)
(-0.822087 -0.0165338 0)
(-0.805995 -0.0173373 0)
(-0.789218 -0.0182974 0)
(-0.771604 -0.0194271 0)
(-0.753017 -0.0207124 0)
(-0.733358 -0.0221043 0)
(-0.712605 -0.0234861 0)
(-0.690877 -0.0246142 0)
(-0.668529 -0.0250206 0)
(-0.646216 -0.0238393 0)
(-0.625162 -0.0199154 0)
(-0.607971 -0.0125346 0)
(-0.602532 -0.000860983 0)
(-0.615863 0.0127363 0)
(-0.659291 0.0379279 0)
(-0.753792 0.0869407 0)
(-0.940335 0.191503 0)
(-1.39334 0.493172 0)
(-1.98986 0.000157925 0)
(-1.98881 -0.000982815 0)
(-1.98669 -0.00180019 0)
(-1.98364 -0.00252273 0)
(-1.97991 -0.00316419 0)
(-1.97554 -0.00379487 0)
(-1.97051 -0.00446172 0)
(-1.96493 -0.00504722 0)
(-1.95884 -0.0055678 0)
(-1.95227 -0.00608968 0)
(-1.94523 -0.00664116 0)
(-1.9377 -0.00721709 0)
(-1.92969 -0.00783106 0)
(-1.92119 -0.0084818 0)
(-1.91219 -0.00915886 0)
(-1.90272 -0.00985175 0)
(-1.89278 -0.0105536 0)
(-1.88246 -0.0112585 0)
(-1.87172 -0.0119575 0)
(-1.86061 -0.0126432 0)
(-1.84916 -0.0133103 0)
(-1.83741 -0.0139525 0)
(-1.82539 -0.0145656 0)
(-1.81315 -0.0151482 0)
(-1.80073 -0.0156997 0)
(-1.78816 -0.0162202 0)
(-1.77548 -0.0167074 0)
(-1.7627 -0.0171566 0)
(-1.74987 -0.0175635 0)
(-1.73698 -0.0179239 0)
(-1.72407 -0.0182359 0)
(-1.71115 -0.0185002 0)
(-1.69825 -0.0187198 0)
(-1.68538 -0.0188986 0)
(-1.67256 -0.0190408 0)
(-1.65983 -0.0191506 0)
(-1.64719 -0.0192323 0)
(-1.63467 -0.0192893 0)
(-1.62229 -0.0193245 0)
(-1.61004 -0.0193388 0)
(-1.59794 -0.0193313 0)
(-1.58598 -0.0192994 0)
(-1.57414 -0.0192401 0)
(-1.56243 -0.0191521 0)
(-1.55084 -0.0190363 0)
(-1.53936 -0.0188949 0)
(-1.528 -0.0187327 0)
(-1.51677 -0.0185553 0)
(-1.50569 -0.0183677 0)
(-1.49475 -0.0181749 0)
(-1.48398 -0.0179812 0)
(-1.47337 -0.0177914 0)
(-1.46295 -0.0176101 0)
(-1.45271 -0.0174415 0)
(-1.44267 -0.0172889 0)
(-1.43282 -0.0171542 0)
(-1.42317 -0.0170392 0)
(-1.41372 -0.0169442 0)
(-1.40447 -0.016868 0)
(-1.39542 -0.0168098 0)
(-1.38658 -0.0167711 0)
(-1.37795 -0.0167522 0)
(-1.36954 -0.0167505 0)
(-1.36135 -0.0167622 0)
(-1.35341 -0.0167879 0)
(-1.34572 -0.0168306 0)
(-1.3383 -0.0168885 0)
(-1.33118 -0.0169562 0)
(-1.32437 -0.0170364 0)
(-1.31789 -0.0171308 0)
(-1.31176 -0.017233 0)
(-1.30601 -0.0173404 0)
(-1.30065 -0.0174567 0)
(-1.29572 -0.0175847 0)
(-1.29124 -0.0177244 0)
(-1.28722 -0.0178803 0)
(-1.28369 -0.0180623 0)
(-1.28066 -0.0182824 0)
(-1.27814 -0.0185545 0)
(-1.27611 -0.0188964 0)
(-1.27453 -0.0193301 0)
(-1.27338 -0.019885 0)
(-1.2726 -0.0205913 0)
(-1.27212 -0.0214748 0)
(-1.27187 -0.0225741 0)
(-1.27173 -0.0239088 0)
(-1.2716 -0.0254492 0)
(-1.27142 -0.0271249 0)
(-1.27116 -0.0287807 0)
(-1.27089 -0.0301046 0)
(-1.27073 -0.0305304 0)
(-1.27094 -0.0290959 0)
(-1.27196 -0.0243997 0)
(-1.27505 -0.0149019 0)
(-1.28222 0.00162834 0)
(-1.29644 0.0241453 0)
(-1.33078 0.064462 0)
(-1.39876 0.139184 0)
(-1.52956 0.290042 0)
(-1.77814 0.672485 0)
(-2.01156 0.000259255 0)
(-2.01065 -0.00169622 0)
(-2.00947 -0.00290118 0)
(-2.00757 -0.00391992 0)
(-2.00453 -0.00483923 0)
(-2.00331 -0.00573784 0)
(-1.99789 -0.00667118 0)
(-1.99579 -0.00748427 0)
(-1.9912 -0.00820389 0)
(-1.98692 -0.00890639 0)
(-1.98232 -0.00965635 0)
(-1.97738 -0.0104292 0)
(-1.97214 -0.0112436 0)
(-1.96659 -0.0120967 0)
(-1.96073 -0.0129708 0)
(-1.95458 -0.0138472 0)
(-1.94818 -0.0147169 0)
(-1.94156 -0.0155766 0)
(-1.93475 -0.0164172 0)
(-1.92777 -0.0172303 0)
(-1.92065 -0.0180099 0)
(-1.91343 -0.0187464 0)
(-1.90612 -0.0194354 0)
(-1.89876 -0.0200774 0)
(-1.89137 -0.0206742 0)
(-1.88397 -0.0212287 0)
(-1.87657 -0.0217403 0)
(-1.86917 -0.0222052 0)
(-1.86178 -0.022621 0)
(-1.85441 -0.0229851 0)
(-1.84706 -0.0232955 0)
(-1.83973 -0.0235526 0)
(-1.83243 -0.0237584 0)
(-1.82516 -0.0239162 0)
(-1.81794 -0.024029 0)
(-1.81078 -0.0241001 0)
(-1.80369 -0.0241341 0)
(-1.79668 -0.0241356 0)
(-1.78978 -0.0241092 0)
(-1.783 -0.0240581 0)
(-1.77634 -0.0239838 0)
(-1.7698 -0.0238861 0)
(-1.76339 -0.0237637 0)
(-1.75711 -0.0236151 0)
(-1.75094 -0.02344 0)
(-1.7449 -0.0232388 0)
(-1.73899 -0.023014 0)
(-1.7332 -0.022769 0)
(-1.72756 -0.022508 0)
(-1.72207 -0.0222358 0)
(-1.71675 -0.0219565 0)
(-1.71162 -0.0216746 0)
(-1.70668 -0.0213952 0)
(-1.70197 -0.0211232 0)
(-1.69748 -0.0208619 0)
(-1.69325 -0.020613 0)
(-1.68929 -0.0203787 0)
(-1.68561 -0.0201597 0)
(-1.68224 -0.0199537 0)
(-1.6792 -0.0197598 0)
(-1.67651 -0.0195787 0)
(-1.67419 -0.0194097 0)
(-1.67227 -0.0192512 0)
(-1.67075 -0.0190995 0)
(-1.66967 -0.018953 0)
(-1.66905 -0.0188124 0)
(-1.66889 -0.0186756 0)
(-1.66924 -0.0185358 0)
(-1.67013 -0.0183999 0)
(-1.67156 -0.0182713 0)
(-1.67354 -0.0181416 0)
(-1.67609 -0.01801 0)
(-1.6792 -0.0178788 0)
(-1.68288 -0.0177522 0)
(-1.68714 -0.0176346 0)
(-1.69196 -0.0175333 0)
(-1.6973 -0.0174591 0)
(-1.70315 -0.0174299 0)
(-1.70945 -0.0174679 0)
(-1.71617 -0.0175949 0)
(-1.72323 -0.0178378 0)
(-1.73056 -0.0182336 0)
(-1.73807 -0.0188191 0)
(-1.74569 -0.0196201 0)
(-1.75336 -0.0206712 0)
(-1.76102 -0.021992 0)
(-1.76864 -0.0235549 0)
(-1.77618 -0.0252778 0)
(-1.78359 -0.0269797 0)
(-1.79091 -0.0283154 0)
(-1.79817 -0.0286903 0)
(-1.80535 -0.0271463 0)
(-1.81241 -0.0222338 0)
(-1.81967 -0.0120879 0)
(-1.82778 0.00511146 0)
(-1.83698 0.0326613 0)
(-1.85622 0.0816537 0)
(-1.89214 0.171462 0)
(-1.95368 0.347992 0)
(-2.04213 0.724678 0)
(-2.01707 0.000554243 0)
(-2.01415 -0.00202509 0)
(-2.01735 -0.0035062 0)
(-2.01378 -0.00461448 0)
(-2.01384 -0.00566611 0)
(-2.01655 -0.00677595 0)
(-2.00844 -0.00779897 0)
(-2.01358 -0.00878189 0)
(-2.00971 -0.00965272 0)
(-2.00823 -0.0104479 0)
(-2.00653 -0.0113007 0)
(-2.00463 -0.0121775 0)
(-2.00266 -0.0130951 0)
(-2.00059 -0.0140521 0)
(-1.99842 -0.0150237 0)
(-1.99618 -0.0159851 0)
(-1.99388 -0.0169252 0)
(-1.99155 -0.0178425 0)
(-1.98921 -0.0187275 0)
(-1.98688 -0.0195723 0)
(-1.98459 -0.0203729 0)
(-1.98234 -0.0211167 0)
(-1.98016 -0.0218005 0)
(-1.97807 -0.0224294 0)
(-1.97607 -0.0230076 0)
(-1.97416 -0.0235419 0)
(-1.97233 -0.024032 0)
(-1.97059 -0.0244723 0)
(-1.96894 -0.0248618 0)
(-1.96737 -0.0251988 0)
(-1.96589 -0.0254816 0)
(-1.9645 -0.0257109 0)
(-1.9632 -0.0258885 0)
(-1.96198 -0.0260167 0)
(-1.96084 -0.0260976 0)
(-1.95978 -0.0261328 0)
(-1.95879 -0.0261258 0)
(-1.95789 -0.0260812 0)
(-1.95709 -0.0260041 0)
(-1.95637 -0.0258991 0)
(-1.95576 -0.0257681 0)
(-1.95525 -0.025612 0)
(-1.95485 -0.0254301 0)
(-1.95456 -0.0252216 0)
(-1.95439 -0.0249857 0)
(-1.95434 -0.0247222 0)
(-1.95443 -0.024432 0)
(-1.95465 -0.0241172 0)
(-1.95502 -0.0237803 0)
(-1.95556 -0.0234258 0)
(-1.95626 -0.023057 0)
(-1.95716 -0.0226774 0)
(-1.95826 -0.0222923 0)
(-1.95958 -0.0219067 0)
(-1.96114 -0.0215241 0)
(-1.96294 -0.0211455 0)
(-1.96502 -0.0207726 0)
(-1.96737 -0.0204076 0)
(-1.97 -0.0200485 0)
(-1.97294 -0.0196942 0)
(-1.97619 -0.0193456 0)
(-1.97974 -0.0190013 0)
(-1.98361 -0.0186603 0)
(-1.98781 -0.0183218 0)
(-1.99234 -0.0179841 0)
(-1.99718 -0.0176464 0)
(-2.00234 -0.0173066 0)
(-2.00783 -0.0169554 0)
(-2.01367 -0.0165984 0)
(-2.01985 -0.016242 0)
(-2.02639 -0.0158818 0)
(-2.0333 -0.0155197 0)
(-2.04057 -0.0151592 0)
(-2.04818 -0.0148062 0)
(-2.05611 -0.0144687 0)
(-2.06434 -0.0141588 0)
(-2.07286 -0.0138886 0)
(-2.08164 -0.0136773 0)
(-2.09066 -0.0135521 0)
(-2.09988 -0.0135393 0)
(-2.10927 -0.0136687 0)
(-2.11879 -0.0139795 0)
(-2.1284 -0.014509 0)
(-2.13808 -0.0152881 0)
(-2.1478 -0.0163416 0)
(-2.15744 -0.0176802 0)
(-2.16699 -0.0192812 0)
(-2.17647 -0.021058 0)
(-2.18584 -0.0228186 0)
(-2.19505 -0.0242155 0)
(-2.204 -0.024674 0)
(-2.21244 -0.0233103 0)
(-2.21987 -0.0187718 0)
(-2.22622 -0.009268 0)
(-2.23087 0.0073653 0)
(-2.23262 0.036214 0)
(-2.23539 0.0880588 0)
(-2.23886 0.182695 0)
(-2.23367 0.362298 0)
(-2.21062 0.689404 0)
(-2.02069 0.00114778 0)
(-2.01382 -0.00197108 0)
(-2.02464 -0.00369828 0)
(-2.01257 -0.00462326 0)
(-2.02685 -0.00563547 0)
(-2.01818 -0.00680378 0)
(-2.01973 -0.00772119 0)
(-2.02687 -0.00881006 0)
(-2.02407 -0.0097951 0)
(-2.02584 -0.0106137 0)
(-2.02693 -0.0114724 0)
(-2.02795 -0.0123584 0)
(-2.02921 -0.0132819 0)
(-2.03051 -0.0142455 0)
(-2.03189 -0.0152176 0)
(-2.03337 -0.0161674 0)
(-2.03499 -0.0170838 0)
(-2.03675 -0.0179707 0)
(-2.03866 -0.0188157 0)
(-2.04074 -0.0196096 0)
(-2.04297 -0.0203525 0)
(-2.04543 -0.0210315 0)
(-2.04808 -0.0216427 0)
(-2.05094 -0.0221935 0)
(-2.05402 -0.0226916 0)
(-2.05733 -0.0231484 0)
(-2.06083 -0.0235665 0)
(-2.06455 -0.0239404 0)
(-2.06843 -0.0242671 0)
(-2.07247 -0.0245436 0)
(-2.07667 -0.024768 0)
(-2.081 -0.0249419 0)
(-2.08547 -0.0250678 0)
(-2.09005 -0.0251486 0)
(-2.09474 -0.0251858 0)
(-2.09952 -0.0251803 0)
(-2.10437 -0.0251342 0)
(-2.10929 -0.0250508 0)
(-2.11428 -0.0249348 0)
(-2.11933 -0.0247901 0)
(-2.12444 -0.0246183 0)
(-2.12961 -0.0244196 0)
(-2.13484 -0.0241935 0)
(-2.14014 -0.0239395 0)
(-2.1455 -0.0236569 0)
(-2.15093 -0.0233453 0)
(-2.15643 -0.0230055 0)
(-2.16198 -0.0226392 0)
(-2.1676 -0.0222479 0)
(-2.17329 -0.0218358 0)
(-2.17903 -0.0214056 0)
(-2.18484 -0.0209592 0)
(-2.19073 -0.0205003 0)
(-2.19672 -0.0200333 0)
(-2.2028 -0.0195636 0)
(-2.20899 -0.0190932 0)
(-2.2153 -0.0186233 0)
(-2.22172 -0.0181568 0)
(-2.22827 -0.017694 0)
(-2.23494 -0.0172344 0)
(-2.24173 -0.0167785 0)
(-2.24864 -0.0163251 0)
(-2.25568 -0.0158722 0)
(-2.26285 -0.0154207 0)
(-2.27014 -0.0149715 0)
(-2.27756 -0.0145222 0)
(-2.28511 -0.0140679 0)
(-2.29277 -0.0136041 0)
(-2.30061 -0.0131334 0)
(-2.30854 -0.0126578 0)
(-2.31658 -0.0121772 0)
(-2.32474 -0.0116969 0)
(-2.33302 -0.0112221 0)
(-2.34141 -0.0107595 0)
(-2.34991 -0.010317 0)
(-2.35852 -0.00990689 0)
(-2.36723 -0.00954377 0)
(-2.37605 -0.00924753 0)
(-2.38495 -0.00904554 0)
(-2.39394 -0.00896728 0)
(-2.403 -0.00904364 0)
(-2.41213 -0.00931055 0)
(-2.4213 -0.00980543 0)
(-2.43054 -0.0105689 0)
(-2.43978 -0.0116304 0)
(-2.449 -0.0129905 0)
(-2.45819 -0.0146182 0)
(-2.46735 -0.0164284 0)
(-2.47644 -0.0182392 0)
(-2.48537 -0.0197312 0)
(-2.49394 -0.0203872 0)
(-2.50173 -0.0194326 0)
(-2.50793 -0.0157515 0)
(-2.51211 -0.00767945 0)
(-2.51277 0.00729697 0)
(-2.50679 0.0345199 0)
(-2.4941 0.0839097 0)
(-2.46781 0.174038 0)
(-2.40696 0.338002 0)
(-2.31058 0.599547 0)
(-2.02291 0.00137229 0)
(-2.02137 -0.00168619 0)
(-2.0234 -0.00341925 0)
(-2.01349 -0.00415286 0)
(-2.04109 -0.0049608 0)
(-2.01194 -0.00587346 0)
(-2.0365 -0.00664956 0)
(-2.03558 -0.00770163 0)
(-2.03507 -0.00869643 0)
(-2.04092 -0.00948373 0)
(-2.04396 -0.0102722 0)
(-2.0475 -0.0110801 0)
(-2.0517 -0.0119247 0)
(-2.05592 -0.0128141 0)
(-2.06041 -0.0137047 0)
(-2.06516 -0.0145603 0)
(-2.07019 -0.0153715 0)
(-2.07548 -0.0161499 0)
(-2.08108 -0.0168853 0)
(-2.08698 -0.0175617 0)
(-2.09311 -0.0181767 0)
(-2.09965 -0.0187254 0)
(-2.10651 -0.0192066 0)
(-2.11365 -0.0196253 0)
(-2.12108 -0.0199924 0)
(-2.12879 -0.0203202 0)
(-2.13676 -0.0206165 0)
(-2.14508 -0.020882 0)
(-2.1536 -0.0211119 0)
(-2.16234 -0.0213 0)
(-2.17128 -0.0214436 0)
(-2.18038 -0.0215449 0)
(-2.18962 -0.0216078 0)
(-2.19898 -0.0216359 0)
(-2.20842 -0.021631 0)
(-2.21792 -0.0215925 0)
(-2.22746 -0.0215206 0)
(-2.23702 -0.0214168 0)
(-2.24659 -0.0212837 0)
(-2.25617 -0.021124 0)
(-2.26574 -0.0209386 0)
(-2.27531 -0.0207273 0)
(-2.28486 -0.0204892 0)
(-2.29439 -0.0202242 0)
(-2.30389 -0.0199318 0)
(-2.31337 -0.0196117 0)
(-2.32282 -0.019265 0)
(-2.33223 -0.0188935 0)
(-2.34159 -0.0184985 0)
(-2.35091 -0.0180826 0)
(-2.36017 -0.0176491 0)
(-2.36939 -0.0172006 0)
(-2.37854 -0.0167388 0)
(-2.38763 -0.0162673 0)
(-2.39662 -0.0157912 0)
(-2.40554 -0.015314 0)
(-2.41437 -0.0148373 0)
(-2.42312 -0.0143622 0)
(-2.43178 -0.01389 0)
(-2.44037 -0.0134221 0)
(-2.44886 -0.0129577 0)
(-2.45727 -0.0124947 0)
(-2.4656 -0.0120316 0)
(-2.47384 -0.0115693 0)
(-2.48201 -0.0111084 0)
(-2.4901 -0.0106454 0)
(-2.49811 -0.0101735 0)
(-2.50606 -0.00969462 0)
(-2.51396 -0.00921315 0)
(-2.52177 -0.00872694 0)
(-2.52951 -0.00823394 0)
(-2.53718 -0.00773977 0)
(-2.54481 -0.00724809 0)
(-2.55239 -0.00676492 0)
(-2.55995 -0.00629966 0)
(-2.5675 -0.00586364 0)
(-2.57505 -0.00547246 0)
(-2.58262 -0.00514661 0)
(-2.59022 -0.00491156 0)
(-2.59788 -0.00479973 0)
(-2.6056 -0.00484165 0)
(-2.6134 -0.00507048 0)
(-2.62129 -0.00552706 0)
(-2.62929 -0.00625752 0)
(-2.63739 -0.00728923 0)
(-2.64564 -0.00861883 0)
(-2.65401 -0.0102215 0)
(-2.66249 -0.0120231 0)
(-2.67097 -0.0138592 0)
(-2.67934 -0.0154558 0)
(-2.68729 -0.0163803 0)
(-2.69427 -0.0159955 0)
(-2.69931 -0.0134674 0)
(-2.70139 -0.0073563 0)
(-2.69882 0.0048733 0)
(-2.68601 0.0280318 0)
(-2.66009 0.070466 0)
(-2.60875 0.147997 0)
(-2.50551 0.283614 0)
(-2.36372 0.477665 0)
(-2.01947 0.000571936 0)
(-2.03783 -0.00130887 0)
(-2.01377 -0.00257603 0)
(-2.0264 -0.00328388 0)
(-2.04356 -0.00384208 0)
(-2.01739 -0.00430108 0)
(-2.04804 -0.00490333 0)
(-2.04009 -0.00576854 0)
(-2.0441 -0.00661053 0)
(-2.05348 -0.0072894 0)
(-2.05694 -0.00794391 0)
(-2.06252 -0.00859094 0)
(-2.06924 -0.00928033 0)
(-2.07563 -0.0100251 0)
(-2.0826 -0.0107578 0)
(-2.08993 -0.0114423 0)
(-2.09783 -0.0120796 0)
(-2.10598 -0.0126763 0)
(-2.11465 -0.013233 0)
(-2.12379 -0.0137361 0)
(-2.13325 -0.0141741 0)
(-2.14311 -0.0145498 0)
(-2.15332 -0.0148694 0)
(-2.16383 -0.0151378 0)
(-2.17461 -0.0153654 0)
(-2.18563 -0.0155599 0)
(-2.19688 -0.0157278 0)
(-2.20839 -0.0158741 0)
(-2.22011 -0.0159965 0)
(-2.23204 -0.0160889 0)
(-2.24414 -0.0161495 0)
(-2.25637 -0.0161808 0)
(-2.26871 -0.0161876 0)
(-2.28113 -0.0161737 0)
(-2.2936 -0.0161397 0)
(-2.30611 -0.0160839 0)
(-2.31863 -0.0160045 0)
(-2.33115 -0.0159013 0)
(-2.34364 -0.0157756 0)
(-2.35608 -0.015629 0)
(-2.36846 -0.015462 0)
(-2.38078 -0.0152736 0)
(-2.393 -0.015063 0)
(-2.40513 -0.0148295 0)
(-2.41715 -0.0145734 0)
(-2.42904 -0.0142948 0)
(-2.44079 -0.0139943 0)
(-2.45239 -0.0136732 0)
(-2.46381 -0.0133334 0)
(-2.47507 -0.0129766 0)
(-2.48612 -0.0126058 0)
(-2.49697 -0.0122253 0)
(-2.5076 -0.0118383 0)
(-2.518 -0.0114471 0)
(-2.52814 -0.0110534 0)
(-2.53803 -0.0106597 0)
(-2.54767 -0.0102678 0)
(-2.55705 -0.00987745 0)
(-2.56618 -0.0094891 0)
(-2.57506 -0.0091041 0)
(-2.5837 -0.00872089 0)
(-2.5921 -0.00833655 0)
(-2.60028 -0.00794985 0)
(-2.60824 -0.00756069 0)
(-2.616 -0.00716788 0)
(-2.62357 -0.00676737 0)
(-2.63096 -0.00635396 0)
(-2.6382 -0.00593 0)
(-2.6453 -0.00549762 0)
(-2.65228 -0.00505577 0)
(-2.65917 -0.00460035 0)
(-2.66599 -0.00413702 0)
(-2.67276 -0.00366704 0)
(-2.6795 -0.00319662 0)
(-2.68622 -0.00273547 0)
(-2.69296 -0.00229531 0)
(-2.69974 -0.00189185 0)
(-2.70655 -0.00154426 0)
(-2.71344 -0.00127157 0)
(-2.72044 -0.00112191 0)
(-2.72755 -0.00111632 0)
(-2.73478 -0.00128833 0)
(-2.74219 -0.00167925 0)
(-2.74977 -0.00233408 0)
(-2.75752 -0.00328263 0)
(-2.76551 -0.00452121 0)
(-2.77368 -0.00604556 0)
(-2.782 -0.00780453 0)
(-2.79035 -0.00965013 0)
(-2.79853 -0.0113681 0)
(-2.80619 -0.0126252 0)
(-2.81268 -0.0129507 0)
(-2.81696 -0.0117471 0)
(-2.81739 -0.00800082 0)
(-2.81236 0.000501844 0)
(-2.79449 0.0175844 0)
(-2.75808 0.0494454 0)
(-2.68762 0.107975 0)
(-2.55475 0.207589 0)
(-2.38715 0.338432 0)
(-2.01667 -9.80403e-05 0)
(-2.04352 -0.000865268 0)
(-2.01501 -0.00140953 0)
(-2.04001 -0.00191167 0)
(-2.03617 -0.00231714 0)
(-2.0306 -0.00243759 0)
(-2.05269 -0.00277222 0)
(-2.04277 -0.00336535 0)
(-2.05164 -0.00393662 0)
(-2.0624 -0.00439694 0)
(-2.06469 -0.00482958 0)
(-2.0724 -0.00524012 0)
(-2.08081 -0.0056936 0)
(-2.08838 -0.00620701 0)
(-2.09738 -0.0066926 0)
(-2.10669 -0.00712194 0)
(-2.11686 -0.00751951 0)
(-2.12733 -0.00787964 0)
(-2.13831 -0.00820686 0)
(-2.14978 -0.0084987 0)
(-2.16164 -0.00874463 0)
(-2.17385 -0.00894819 0)
(-2.18635 -0.00911609 0)
(-2.1991 -0.00925306 0)
(-2.21206 -0.00936563 0)
(-2.2252 -0.0094572 0)
(-2.2385 -0.00953052 0)
(-2.25195 -0.00958881 0)
(-2.26554 -0.00963132 0)
(-2.27925 -0.00965512 0)
(-2.29304 -0.00965986 0)
(-2.30688 -0.00964848 0)
(-2.32075 -0.00962483 0)
(-2.33463 -0.00959133 0)
(-2.34852 -0.00954787 0)
(-2.36241 -0.00949248 0)
(-2.37626 -0.00942346 0)
(-2.39007 -0.00934072 0)
(-2.40379 -0.00924514 0)
(-2.41742 -0.00913753 0)
(-2.43093 -0.00901766 0)
(-2.44431 -0.00888442 0)
(-2.45755 -0.00873702 0)
(-2.4706 -0.0085749 0)
(-2.48347 -0.00839839 0)
(-2.49613 -0.0082082 0)
(-2.50856 -0.00800457 0)
(-2.52074 -0.00778778 0)
(-2.53265 -0.00755974 0)
(-2.54428 -0.00732229 0)
(-2.55562 -0.00707705 0)
(-2.56664 -0.00682718 0)
(-2.57736 -0.00657597 0)
(-2.58776 -0.00632484 0)
(-2.59784 -0.00607318 0)
(-2.60761 -0.00582126 0)
(-2.61706 -0.00557014 0)
(-2.62621 -0.00531883 0)
(-2.63506 -0.0050666 0)
(-2.64363 -0.00481307 0)
(-2.65192 -0.0045559 0)
(-2.65996 -0.00429199 0)
(-2.66775 -0.00401947 0)
(-2.67531 -0.00373692 0)
(-2.68267 -0.00344184 0)
(-2.68984 -0.00313012 0)
(-2.69685 -0.00279823 0)
(-2.70371 -0.00244672 0)
(-2.71044 -0.00207444 0)
(-2.71708 -0.0016829 0)
(-2.72361 -0.00126098 0)
(-2.73011 -0.000824701 0)
(-2.73657 -0.000372132 0)
(-2.74301 9.15767e-05 0)
(-2.74946 0.000557084 0)
(-2.75594 0.00101173 0)
(-2.76247 0.00143908 0)
(-2.76907 0.0018261 0)
(-2.77576 0.00215243 0)
(-2.78259 0.0023653 0)
(-2.7896 0.00244568 0)
(-2.79679 0.00235582 0)
(-2.8042 0.00205678 0)
(-2.8118 0.00150993 0)
(-2.81965 0.000678651 0)
(-2.82775 -0.000446831 0)
(-2.83616 -0.00186935 0)
(-2.84461 -0.00356679 0)
(-2.85316 -0.00542139 0)
(-2.86154 -0.00729036 0)
(-2.86932 -0.00894158 0)
(-2.8758 -0.0100832 0)
(-2.87988 -0.0103351 0)
(-2.87973 -0.00915922 0)
(-2.87289 -0.00507478 0)
(-2.85294 0.00439136 0)
(-2.81006 0.0230429 0)
(-2.72729 0.0580785 0)
(-2.57648 0.117367 0)
(-2.3962 0.190878 0)
(-2.02417 0.000397653 0)
(-2.03236 -0.000127769 0)
(-2.02213 -0.000182508 0)
(-2.04666 -0.000263236 0)
(-2.02956 -0.000440785 0)
(-2.03871 -0.000462378 0)
(-2.05488 -0.000497004 0)
(-2.04348 -0.00076859 0)
(-2.05628 -0.00103083 0)
(-2.06653 -0.00117583 0)
(-2.06738 -0.0012907 0)
(-2.07702 -0.00140621 0)
(-2.08607 -0.00153847 0)
(-2.09404 -0.00170029 0)
(-2.10448 -0.00184458 0)
(-2.11527 -0.00196433 0)
(-2.12655 -0.00208031 0)
(-2.13829 -0.00218208 0)
(-2.15053 -0.00227314 0)
(-2.16322 -0.00235408 0)
(-2.17629 -0.00242118 0)
(-2.18966 -0.0024762 -2.91076e-41)
(-2.20327 -0.00252075 0)
(-2.21708 -0.00255572 0)
(-2.23105 -0.00258286 0)
(-2.24513 -0.00260295 0)
(-2.25933 -0.00261629 0)
(-2.27362 -0.00262361 0)
(-2.28799 -0.00262468 0)
(-2.30241 -0.00261866 0)
(-2.31683 -0.00260538 0)
(-2.33125 -0.00258596 0)
(-2.34563 -0.00256195 0)
(-2.35999 -0.00253439 0)
(-2.3743 -0.0025037 0)
(-2.38857 -0.00246962 0)
(-2.40277 -0.00243186 0)
(-2.41688 -0.00239068 0)
(-2.43087 -0.00234645 0)
(-2.44473 -0.00229928 0)
(-2.45845 -0.00224887 0)
(-2.472 -0.00219453 0)
(-2.48537 -0.00213577 0)
(-2.49854 -0.00207196 0)
(-2.51149 -0.00200303 0)
(-2.52419 -0.00192961 0)
(-2.53664 -0.00185214 0)
(-2.54882 -0.00177079 0)
(-2.5607 -0.00168627 0)
(-2.57228 -0.00159947 0)
(-2.58354 -0.00151053 0)
(-2.59447 -0.00142021 0)
(-2.60508 -0.00133023 0)
(-2.61535 -0.00124085 0)
(-2.62529 -0.00115066 0)
(-2.63491 -0.00105864 0)
(-2.64421 -0.000964126 0)
(-2.65319 -0.000865381 0)
(-2.66187 -0.000760766 0)
(-2.67026 -0.000648217 0)
(-2.67837 -0.000524481 0)
(-2.68623 -0.000386338 0)
(-2.69384 -0.000231319 0)
(-2.70122 -5.68984e-05 0)
(-2.7084 0.000140241 0)
(-2.71539 0.000363992 0)
(-2.72221 0.000617125 0)
(-2.72889 0.000900804 0)
(-2.73545 0.00121483 0)
(-2.74193 0.00156083 0)
(-2.74829 0.00195302 0)
(-2.75462 0.00237093 0)
(-2.76094 0.00281541 0)
(-2.76726 0.00328237 0)
(-2.77362 0.00376307 0)
(-2.78004 0.00424482 0)
(-2.78654 0.004712 0)
(-2.79316 0.00515384 0)
(-2.79991 0.00554324 0)
(-2.80682 0.00584081 0)
(-2.81392 0.00601752 0)
(-2.82125 0.00603407 0)
(-2.82882 0.00585141 6.8783e-41)
(-2.83667 0.00543234 0)
(-2.8448 0.0047391 0)
(-2.8532 0.00373487 0)
(-2.86191 0.00241622 0)
(-2.87063 0.000788875 9.27318e-42)
(-2.87948 -0.00109528 0)
(-2.88806 -0.00313736 0)
(-2.89593 -0.00520918 0)
(-2.90257 -0.00721073 0)
(-2.90673 -0.00901313 0)
(-2.9066 -0.0104581 -6.14672e-41)
(-2.89898 -0.0110716 0)
(-2.87839 -0.0100345 0)
(-2.83336 -0.0061694 -7.25209e-41)
(-2.74563 0.00271163 0)
(-2.58723 0.0190242 0)
(-2.40208 0.0394909 0)
(-2.02765 0.00136111 0)
(-2.02696 0.00095954 0)
(-2.02254 0.0010218 0)
(-2.04763 0.00131935 0)
(-2.02849 0.00152596 0)
(-2.0386 0.00157502 0)
(-2.05457 0.00177266 0)
(-2.04295 0.00182256 0)
(-2.05463 0.00192584 0)
(-2.06607 0.00213543 0)
(-2.06676 0.00236569 0)
(-2.07613 0.0025606 0)
(-2.08511 0.00277559 0)
(-2.09303 0.00302177 0)
(-2.10313 0.00325716 0)
(-2.11381 0.00345398 0)
(-2.1248 0.00362747 0)
(-2.13638 0.00378746 0)
(-2.14842 0.00392852 0)
(-2.16092 0.00405301 0)
(-2.1738 0.00415856 0)
(-2.18701 0.0042443 4.98915e-41)
(-2.20049 0.00431421 0)
(-2.21417 0.00437217 0)
(-2.22803 0.00442117 0)
(-2.24203 0.00446291 0)
(-2.25615 0.00449903 0)
(-2.27038 0.00453037 0)
(-2.28469 0.00455625 0)
(-2.29905 0.00457629 0)
(-2.31344 0.00459168 0)
(-2.32781 0.0046043 0)
(-2.34215 0.00461553 0)
(-2.35646 0.0046254 0)
(-2.37073 0.00463236 0)
(-2.38496 0.00463448 0)
(-2.39911 0.00463057 0)
(-2.41317 0.00462034 0)
(-2.42711 0.00460421 0)
(-2.44092 0.0045826 0)
(-2.45458 0.00455552 0)
(-2.46808 0.00452298 0)
(-2.4814 0.0044852 0)
(-2.49452 0.00444293 0)
(-2.50741 0.00439674 0)
(-2.52007 0.00434636 0)
(-2.53246 0.00429094 0)
(-2.54459 0.00423006 0)
(-2.55642 0.00416461 0)
(-2.56794 0.00409519 0)
(-2.57915 0.0040229 0)
(-2.59003 0.00394913 0)
(-2.60059 0.00387388 0)
(-2.61081 0.00379808 0)
(-2.6207 0.00372386 0)
(-2.63027 0.00365329 0)
(-2.63951 0.00358889 0)
(-2.64845 0.00353343 0)
(-2.65707 0.00348914 0)
(-2.66541 0.00345942 0)
(-2.67347 0.00344863 0)
(-2.68127 0.00346027 0)
(-2.68882 0.00349735 0)
(-2.69615 0.00356332 0)
(-2.70327 0.00366205 0)
(-2.7102 0.00379756 0)
(-2.71696 0.00397246 0)
(-2.72358 0.00418842 0)
(-2.73008 0.00444589 0)
(-2.73648 0.00475077 0)
(-2.7428 0.00510984 0)
(-2.74908 0.00551109 0)
(-2.75532 0.00595169 0)
(-2.76157 0.00642693 0)
(-2.76785 0.00692866 0)
(-2.77418 0.00744492 0)
(-2.78059 0.00796183 0)
(-2.78711 0.0084648 0)
(-2.79376 0.00892677 0)
(-2.80058 0.00931489 0)
(-2.8076 0.00959675 0)
(-2.81484 0.009734 0)
(-2.82235 0.00968605 1.13859e-40)
(-2.83015 0.00941132 0)
(-2.83825 0.00886686 0)
(-2.84666 0.00800274 0)
(-2.85536 0.00679782 0)
(-2.86424 0.00523239 6.15064e-41)
(-2.87319 0.00329676 0)
(-2.88178 0.00103875 0)
(-2.88972 -0.00148218 0)
(-2.89611 -0.00434017 0)
(-2.90019 -0.00770635 0)
(-2.90005 -0.0117983 -6.93444e-41)
(-2.89255 -0.0171046 0)
(-2.87195 -0.0245322 0)
(-2.82779 -0.0358243 -4.21112e-40)
(-2.74152 -0.053877 0)
(-2.5849 -0.0815126 0)
(-2.40144 -0.112878 0)
(-2.02024 0.00171959 0)
(-2.03701 0.00186261 0)
(-2.01431 0.00225212 0)
(-2.03912 0.00278462 0)
(-2.0364 0.00327898 0)
(-2.02685 0.00361151 0)
(-2.0505 0.0039738 0)
(-2.04387 0.00431274 0)
(-2.04762 0.00481239 0)
(-2.06057 0.00534236 0)
(-2.06275 0.00585956 0)
(-2.07 0.00632657 0)
(-2.07816 0.0068322 0)
(-2.08556 0.00740703 0)
(-2.09409 0.00796158 0)
(-2.10316 0.00845482 0)
(-2.1127 0.00891248 0)
(-2.1229 0.00933214 0)
(-2.13344 0.00971156 0)
(-2.14454 0.0100531 0)
(-2.15602 0.0103465 0)
(-2.16786 0.0105904 0)
(-2.18003 0.0107936 0)
(-2.19246 0.0109638 0)
(-2.20513 0.0111076 0)
(-2.21799 0.0112289 0)
(-2.23103 0.011332 0)
(-2.24423 0.0114207 0)
(-2.25759 0.0114935 0)
(-2.27108 0.011548 0)
(-2.28466 0.0115849 0)
(-2.29831 0.0116075 0)
(-2.31198 0.0116196 0)
(-2.32568 0.0116229 0)
(-2.33937 0.0116159 0)
(-2.35306 0.0115957 0)
(-2.36672 0.0115599 0)
(-2.38032 0.011508 0)
(-2.39385 0.0114407 0)
(-2.40729 0.011359 0)
(-2.42061 0.011263 0)
(-2.4338 0.0111526 0)
(-2.44685 0.0110276 0)
(-2.45973 0.0108884 0)
(-2.47242 0.0107355 0)
(-2.48491 0.010569 0)
(-2.49717 0.0103882 0)
(-2.50918 0.0101931 0)
(-2.52094 0.00998542 0)
(-2.53242 0.00976612 0)
(-2.5436 0.00953812 0)
(-2.55447 0.00930586 0)
(-2.56505 0.00907029 0)
(-2.5753 0.00883312 0)
(-2.58524 0.00859784 0)
(-2.59486 0.00836731 0)
(-2.60418 0.00814572 0)
(-2.61318 0.00793754 0)
(-2.62189 0.00774523 0)
(-2.63031 0.00757307 0)
(-2.63844 0.00742708 0)
(-2.64632 0.00731111 0)
(-2.65394 0.0072285 0)
(-2.66133 0.00718353 0)
(-2.66851 0.0071806 0)
(-2.67548 0.00722435 0)
(-2.68227 0.0073176 0)
(-2.6889 0.00746146 0)
(-2.6954 0.00765974 0)
(-2.70177 0.00791902 0)
(-2.70806 0.00824065 0)
(-2.71427 0.00861779 0)
(-2.72043 0.00904718 0)
(-2.72658 0.00952366 0)
(-2.73273 0.0100397 0)
(-2.73891 0.0105844 0)
(-2.74516 0.0111444 0)
(-2.75149 0.0117034 0)
(-2.75794 0.0122362 0)
(-2.76454 0.0127126 0)
(-2.77133 0.0131 0)
(-2.77835 0.0133603 0)
(-2.78563 0.0134513 0)
(-2.7932 0.0133281 0)
(-2.80108 0.0129414 0)
(-2.80929 0.0122366 0)
(-2.8178 0.0111654 0)
(-2.82653 0.00966868 0)
(-2.83531 0.00769675 0)
(-2.84383 0.00519475 0)
(-2.85176 0.00216615 0)
(-2.85831 -0.00153726 0)
(-2.86212 -0.00640294 0)
(-2.8623 -0.0130544 0)
(-2.85571 -0.0228441 0)
(-2.83711 -0.0382946 0)
(-2.79686 -0.0640484 0)
(-2.7176 -0.107881 0)
(-2.57103 -0.17793 0)
(-2.39406 -0.262547 0)
(-2.01936 0.00091228 0)
(-2.03639 0.00224501 0)