/*--------------------------------*- C++ -*----------------------------------*\
| =========                 |                                                 |
| \\      /  F ield         | OpenFOAM: The Open Source CFD Toolbox           |
|  \\    /   O peration     | Version:  2.1.0                                 |
|   \\  /    A nd           | Web:      www.OpenFOAM.org                      |
|    \\/     M anipulation  |                                                 |
\*---------------------------------------------------------------------------*/
FoamFile
{
    version     2.0;
    format      ascii;
    class       volScalarField;
    location    "0.35";
    object      C0;
}
// * * * * * * * * * * * * * * * * * * * * * * * * * * * * * * * * * * * * * //

dimensions      [0 0 0 0 0 0 0];

internalField   nonuniform List<scalar> 
6400
(
0.000420704
0.000423728
0.000427504
0.000431422
0.00043533
0.00043919
0.000442996
0.000446748
0.000450446
0.000454094
0.000457693
0.000461245
0.000464753
0.000468219
0.000471647
0.000475037
0.000478393
0.000481718
0.000485014
0.000488284
0.00049153
0.000494757
0.000497967
0.000501163
0.000504347
0.000507524
0.000510696
0.000513866
0.000517039
0.000520216
0.000523402
0.0005266
0.000529814
0.000533046
0.000536301
0.000539582
0.000542893
0.000546238
0.00054962
0.000553044
0.000556513
0.00056003
0.000563602
0.00056723
0.000570921
0.000574677
0.000578504
0.000582405
0.000586386
0.00059045
0.000594604
0.000598851
0.000603197
0.000607646
0.000612205
0.000616878
0.00062167
0.000626588
0.000631636
0.000636822
0.000642149
0.000647626
0.000653258
0.00065905
0.000665011
0.000671146
0.000677462
0.000683966
0.000690665
0.000697565
0.000704676
0.000712002
0.000719552
0.000727334
0.000735353
0.000743618
0.000752136
0.000760912
0.000769953
0.000779265
0.000788852
0.000798717
0.000808863
0.000819289
0.000829993
0.000840969
0.000852206
0.000863692
0.000875404
0.000887317
0.000899393
0.000911585
0.000923825
0.000935999
0.000947923
0.000959384
0.000970219
0.000980101
0.000988505
0.000994736
0.000421434
0.000424483
0.00042824
0.000432123
0.000435989
0.000439806
0.000443568
0.000447276
0.00045093
0.000454532
0.000458086
0.000461593
0.000465056
0.000468477
0.000471858
0.000475202
0.000478512
0.00048179
0.00048504
0.000488263
0.000491463
0.000494643
0.000497805
0.000500953
0.000504091
0.00050722
0.000510344
0.000513467
0.000516591
0.00051972
0.000522858
0.000526008
0.000529173
0.000532357
0.000535563
0.000538795
0.000542057
0.000545353
0.000548686
0.00055206
0.000555479
0.000558948
0.00056247
0.000566049
0.00056969
0.000573396
0.000577173
0.000581025
0.000584957
0.000588972
0.000593077
0.000597276
0.000601573
0.000605975
0.000610486
0.000615112
0.000619858
0.00062473
0.000629734
0.000634875
0.00064016
0.000645595
0.000651187
0.00065694
0.000662864
0.000668964
0.000675247
0.00068172
0.000688392
0.000695268
0.000702357
0.000709667
0.000717205
0.000724979
0.000732997
0.000741267
0.000749797
0.000758593
0.000767663
0.000777015
0.000786653
0.000796583
0.000806808
0.000817332
0.000828153
0.000839268
0.00085067
0.000862345
0.000874274
0.000886426
0.000898756
0.000911197
0.000923651
0.000935979
0.000947992
0.000959441
0.000970137
0.000979705
0.00098761
0.000993264
0.000422451
0.000425498
0.000429206
0.000433019
0.000436808
0.000440545
0.000444227
0.000447852
0.000451424
0.000454943
0.000458413
0.000461835
0.000465212
0.000468547
0.000471841
0.000475097
0.000478319
0.000481508
0.000484668
0.000487801
0.00049091
0.000493998
0.000497068
0.000500123
0.000503167
0.000506201
0.000509231
0.000512257
0.000515285
0.000518317
0.000521357
0.000524408
0.000527473
0.000530557
0.000533662
0.000536792
0.000539951
0.000543143
0.000546372
0.00054964
0.000552953
0.000556315
0.000559729
0.000563199
0.00056673
0.000570327
0.000573993
0.000577733
0.000581552
0.000585454
0.000589445
0.00059353
0.000597712
0.000601999
0.000606394
0.000610904
0.000615533
0.000620289
0.000625176
0.000630201
0.000635369
0.000640688
0.000646164
0.000651804
0.000657614
0.000663602
0.000669775
0.000676141
0.000682707
0.000689482
0.000696473
0.000703689
0.000711138
0.00071883
0.000726773
0.000734976
0.000743448
0.000752198
0.000761236
0.00077057
0.000780209
0.000790161
0.000800434
0.000811034
0.000821964
0.000833228
0.000844822
0.000856738
0.000868958
0.000881449
0.000894159
0.000907002
0.000919854
0.00093253
0.000944782
0.000956346
0.000967017
0.000976419
0.000984082
0.000989512
0.000423459
0.000426475
0.000430102
0.000433813
0.000437494
0.00044112
0.000444688
0.000448198
0.000451653
0.000455055
0.000458405
0.000461707
0.000464962
0.000468173
0.000471342
0.000474473
0.000477567
0.000480627
0.000483656
0.000486658
0.000489634
0.000492587
0.000495521
0.000498439
0.000501344
0.000504238
0.000507125
0.000510008
0.000512891
0.000515776
0.000518667
0.000521568
0.000524481
0.00052741
0.000530359
0.000533332
0.000536331
0.000539361
0.000542425
0.000545528
0.000548673
0.000551864
0.000555105
0.0005584
0.000561754
0.00056517
0.000568654
0.000572209
0.000575841
0.000579554
0.000583352
0.000587241
0.000591226
0.000595312
0.000599504
0.000603808
0.000608229
0.000612773
0.000617446
0.000622254
0.000627203
0.0006323
0.000637552
0.000642964
0.000648545
0.000654302
0.000660242
0.000666373
0.000672703
0.00067924
0.000685993
0.000692971
0.000700183
0.000707638
0.000715346
0.000723317
0.000731563
0.000740092
0.000748918
0.000758051
0.000767503
0.000777286
0.000787413
0.000797896
0.000808745
0.000819972
0.000831581
0.000843574
0.000855941
0.000868656
0.000881671
0.0008949
0.000908207
0.00092139
0.000934166
0.000946283
0.000957513
0.000967467
0.000975657
0.000981472
0.000424201
0.000427158
0.000430676
0.000434258
0.000437802
0.000441289
0.000444715
0.000448081
0.00045139
0.000454643
0.000457843
0.000460992
0.000464092
0.000467146
0.000470156
0.000473125
0.000476055
0.000478949
0.000481811
0.000484641
0.000487444
0.000490223
0.000492979
0.000495717
0.000498438
0.000501147
0.000503846
0.000506538
0.000509227
0.000511915
0.000514606
0.000517304
0.000520011
0.00052273
0.000525466
0.000528222
0.000531001
0.000533807
0.000536644
0.000539514
0.000542423
0.000545373
0.000548369
0.000551414
0.000554513
0.00055767
0.00056089
0.000564175
0.000567531
0.000570963
0.000574474
0.00057807
0.000581756
0.000585536
0.000589416
0.0005934
0.000597495
0.000601705
0.000606037
0.000610496
0.000615088
0.00061982
0.000624698
0.000629728
0.000634918
0.000640274
0.000645805
0.000651516
0.000657418
0.000663517
0.000669822
0.000676342
0.000683087
0.000690066
0.00069729
0.000704769
0.000712517
0.000720543
0.000728864
0.000737491
0.000746442
0.000755733
0.000765381
0.000775407
0.000785831
0.000796672
0.000807952
0.000819687
0.000831885
0.000844542
0.00085763
0.000871091
0.000884812
0.000898616
0.000912241
0.000925438
0.000937942
0.000949295
0.000958841
0.000965561
0.00042444
0.000427314
0.000430699
0.00043413
0.000437515
0.000440839
0.0004441
0.000447298
0.000450435
0.000453514
0.000456536
0.000459504
0.000462421
0.000465288
0.000468109
0.000470885
0.000473619
0.000476314
0.000478972
0.000481596
0.00048419
0.000486754
0.000489294
0.00049181
0.000494307
0.000496787
0.000499253
0.000501708
0.000504154
0.000506596
0.000509036
0.000511478
0.000513923
0.000516377
0.000518841
0.000521319
0.000523814
0.000526331
0.000528871
0.000531439
0.000534038
0.000536671
0.000539343
0.000542057
0.000544816
0.000547625
0.000550487
0.000553406
0.000556387
0.000559434
0.00056255
0.00056574
0.000569009
0.00057236
0.0005758
0.000579332
0.000582961
0.000586693
0.000590532
0.000594484
0.000598555
0.000602749
0.000607073
0.000611533
0.000616136
0.000620887
0.000625794
0.000630864
0.000636103
0.00064152
0.000647123
0.000652921
0.000658922
0.000665136
0.000671574
0.000678247
0.000685168
0.000692349
0.000699806
0.000707555
0.000715614
0.000724006
0.000732752
0.000741879
0.000751418
0.0007614
0.000771862
0.00078284
0.000794368
0.000806475
0.000819173
0.000832455
0.000846269
0.000860514
0.000874997
0.000889463
0.000903615
0.000916882
0.000928303
0.000936203
0.000423963
0.000426736
0.00042997
0.000433232
0.000436442
0.000439587
0.000442663
0.000445674
0.00044862
0.000451504
0.000454328
0.000457094
0.000459804
0.00046246
0.000465065
0.000467622
0.000470133
0.0004726
0.000475025
0.000477413
0.000479764
0.000482082
0.000484369
0.000486628
0.000488862
0.000491074
0.000493266
0.00049544
0.000497601
0.00049975
0.00050189
0.000504025
0.000506157
0.00050829
0.000510425
0.000512566
0.000514716
0.000516878
0.000519055
0.000521251
0.000523467
0.000525708
0.000527976
0.000530275
0.000532609
0.000534979
0.000537391
0.000539847
0.00054235
0.000544905
0.000547515
0.000550184
0.000552915
0.000555713
0.000558582
0.000561524
0.000564546
0.00056765
0.000570842
0.000574125
0.000577505
0.000580986
0.000584573
0.000588271
0.000592087
0.000596024
0.00060009
0.00060429
0.00060863
0.000613118
0.000617759
0.000622563
0.000627537
0.00063269
0.000638032
0.000643573
0.000649325
0.000655301
0.000661517
0.000667989
0.000674738
0.000681784
0.000689156
0.000696882
0.000705
0.000713549
0.000722579
0.000732144
0.000742302
0.000753113
0.000764638
0.000776928
0.000790017
0.00080391
0.000818552
0.000833687
0.000849017
0.000863888
0.000877001
0.000885926
0.000422595
0.000425253
0.000428325
0.000431409
0.000434435
0.00043739
0.000440273
0.000443085
0.000445828
0.000448505
0.000451116
0.000453665
0.000456153
0.000458583
0.000460956
0.000463276
0.000465544
0.000467762
0.000469934
0.000472061
0.000474147
0.000476193
0.000478201
0.000480175
0.000482117
0.000484029
0.000485914
0.000487775
0.000489613
0.000491432
0.000493234
0.000495021
0.000496796
0.000498561
0.00050032
0.000502074
0.000503827
0.00050558
0.000507337
0.0005091
0.000510871
0.000512654
0.000514451
0.000516264
0.000518097
0.000519952
0.000521831
0.000523739
0.000525677
0.000527648
0.000529656
0.000531703
0.000533792
0.000535926
0.000538109
0.000540344
0.000542633
0.00054498
0.000547389
0.000549862
0.000552404
0.000555017
0.000557706
0.000560475
0.000563327
0.000566267
0.000569299
0.000572428
0.000575659
0.000578996
0.000582445
0.000586012
0.000589704
0.000593527
0.00059749
0.000601601
0.00060587
0.000610309
0.000614929
0.000619747
0.00062478
0.000630049
0.000635578
0.000641395
0.000647537
0.000654043
0.000660963
0.00066836
0.0006763
0.00068486
0.000694129
0.000704202
0.000715184
0.000727189
0.000740332
0.000754447
0.000769235
0.000784103
0.00079758
0.000806724
0.000420234
0.000422767
0.000425675
0.000428583
0.000431425
0.00043419
0.000436879
0.000439491
0.00044203
0.000444497
0.000446893
0.000449221
0.000451483
0.00045368
0.000455815
0.00045789
0.000459907
0.000461869
0.000463777
0.000465634
0.000467441
0.000469202
0.000470918
0.000472591
0.000474225
0.00047582
0.000477379
0.000478905
0.000480399
0.000481864
0.000483302
0.000484715
0.000486106
0.000487475
0.000488826
0.000490161
0.000491481
0.000492789
0.000494087
0.000495376
0.00049666
0.00049794
0.000499218
0.000500496
0.000501776
0.000503061
0.000504352
0.000505651
0.000506961
0.000508283
0.00050962
0.000510973
0.000512346
0.000513738
0.000515154
0.000516595
0.000518062
0.000519559
0.000521087
0.000522648
0.000524245
0.000525878
0.000527552
0.000529268
0.000531028
0.000532836
0.000534693
0.000536602
0.000538566
0.000540588
0.000542672
0.00054482
0.000547037
0.000549327
0.000551694
0.000554146
0.000556687
0.000559326
0.000562072
0.000564934
0.000567926
0.000571063
0.000574362
0.000577844
0.000581533
0.000585459
0.000589657
0.000594181
0.000599082
0.000604424
0.000610284
0.000616755
0.000623951
0.000632018
0.000641151
0.00065158
0.00066281
0.00067456
0.000685615
0.000693283
0.000416868
0.000419276
0.000422028
0.000424769
0.000427438
0.000430025
0.000432529
0.000434952
0.000437296
0.000439561
0.000441751
0.000443866
0.000445909
0.000447881
0.000449784
0.000451621
0.000453392
0.000455101
0.000456749
0.000458338
0.00045987
0.000461347
0.000462771
0.000464144
0.000465467
0.000466743
0.000467974
0.000469162
0.000470307
0.000471413
0.00047248
0.000473511
0.000474508
0.000475471
0.000476403
0.000477306
0.00047818
0.000479028
0.000479851
0.00048065
0.000481428
0.000482185
0.000482923
0.000483643
0.000484347
0.000485036
0.000485711
0.000486374
0.000487025
0.000487666
0.000488299
0.000488923
0.000489541
0.000490153
0.00049076
0.000491364
0.000491965
0.000492563
0.00049316
0.000493757
0.000494354
0.000494951
0.000495549
0.000496149
0.000496751
0.000497357
0.000497965
0.000498578
0.000499195
0.000499816
0.000500443
0.000501076
0.000501716
0.000502364
0.000503021
0.000503689
0.00050437
0.000505067
0.000505783
0.000506523
0.000507293
0.000508098
0.000508947
0.000509849
0.000510815
0.000511851
0.000512961
0.000514182
0.000515527
0.000517017
0.000518679
0.000520553
0.000522683
0.000525142
0.00052803
0.000531485
0.000535635
0.000540241
0.000544865
0.000548338
0.00041259
0.000414879
0.000417491
0.000420084
0.000422599
0.000425027
0.000427367
0.00042962
0.000431788
0.000433872
0.000435873
0.000437795
0.000439637
0.000441402
0.000443091
0.000444706
0.00044625
0.000447723
0.000449127
0.000450464
0.000451737
0.000452945
0.000454092
0.000455178
0.000456206
0.000457176
0.000458091
0.000458952
0.000459761
0.000460518
0.000461226
0.000461886
0.000462498
0.000463065
0.000463587
0.000464066
0.000464502
0.000464897
0.000465253
0.000465568
0.000465846
0.000466086
0.000466289
0.000466456
0.000466588
0.000466685
0.000466748
0.000466777
0.000466772
0.000466735
0.000466665
0.000466562
0.000466427
0.000466259
0.000466059
0.000465826
0.00046556
0.00046526
0.000464927
0.000464559
0.000464156
0.000463717
0.000463242
0.000462729
0.000462177
0.000461585
0.000460951
0.000460273
0.000459549
0.000458778
0.000457957
0.000457084
0.000456156
0.000455171
0.000454127
0.00045302
0.000451847
0.000450605
0.000449292
0.000447904
0.000446438
0.000444891
0.00044326
0.000441543
0.000439736
0.00043784
0.000435855
0.000433761
0.000431538
0.000429156
0.000426563
0.00042374
0.00042064
0.00041723
0.00041347
0.000409307
0.000404699
0.000399694
0.000394762
0.000391185
0.00040759
0.000409773
0.000412266
0.000414736
0.000417123
0.000419417
0.000421618
0.000423727
0.000425745
0.000427673
0.000429513
0.000431266
0.000432934
0.000434518
0.000436019
0.00043744
0.000438781
0.000440045
0.000441232
0.000442344
0.000443382
0.000444349
0.000445244
0.000446071
0.000446829
0.00044752
0.000448146
0.000448707
0.000449205
0.000449641
0.000450016
0.000450331
0.000450587
0.000450784
0.000450923
0.000451006
0.000451033
0.000451003
0.000450919
0.00045078
0.000450587
0.000450339
0.000450038
0.000449682
0.000449273
0.000448811
0.000448294
0.000447723
0.000447098
0.000446417
0.000445681
0.000444889
0.00044404
0.000443132
0.000442166
0.00044114
0.000440053
0.000438902
0.000437687
0.000436406
0.000435057
0.000433637
0.000432145
0.000430577
0.000428932
0.000427206
0.000425395
0.000423496
0.000421505
0.000419417
0.00041723
0.000414936
0.000412532
0.00041001
0.000407366
0.000404593
0.000401682
0.000398628
0.00039542
0.000392051
0.00038851
0.000384787
0.000380869
0.000376745
0.000372398
0.000367812
0.000362963
0.000357823
0.000352357
0.000346524
0.000340278
0.000333497
0.000326051
0.000317887
0.000308941
0.00029916
0.000288611
0.00027768
0.000267504
0.000260543
0.000402114
0.000404207
0.000406606
0.000408979
0.000411265
0.000413453
0.000415543
0.000417536
0.000419433
0.000421234
0.000422942
0.000424557
0.000426081
0.000427515
0.00042886
0.000430118
0.00043129
0.000432376
0.000433379
0.000434299
0.000435137
0.000435896
0.000436575
0.000437177
0.000437701
0.00043815
0.000438523
0.000438823
0.000439049
0.000439202
0.000439284
0.000439294
0.000439234
0.000439104
0.000438903
0.000438634
0.000438295
0.000437887
0.00043741
0.000436863
0.000436248
0.000435563
0.000434809
0.000433984
0.000433089
0.000432123
0.000431084
0.000429973
0.000428787
0.000427527
0.00042619
0.000424775
0.000423281
0.000421706
0.000420049
0.000418306
0.000416477
0.000414558
0.000412547
0.000410441
0.000408238
0.000405933
0.000403523
0.000401006
0.000398375
0.000395628
0.000392758
0.000389762
0.000386633
0.000383365
0.000379953
0.000376388
0.000372665
0.000368774
0.000364707
0.000360454
0.000356006
0.000351352
0.00034648
0.000341376
0.000336028
0.00033042
0.000324536
0.000318357
0.000311861
0.000305026
0.000297821
0.000290216
0.000282172
0.000273644
0.000264581
0.000254915
0.00024456
0.000233381
0.000221408
0.000208677
0.000195398
0.000182146
0.000170225
0.000162193
0.000396436
0.000398455
0.000400782
0.000403083
0.000405294
0.000407404
0.000409411
0.000411317
0.000413121
0.000414826
0.000416432
0.00041794
0.000419352
0.000420668
0.00042189
0.000423018
0.000424054
0.000424999
0.000425853
0.000426618
0.000427295
0.000427884
0.000428387
0.000428804
0.000429136
0.000429384
0.000429549
0.000429631
0.000429631
0.000429548
0.000429385
0.000429141
0.000428815
0.000428409
0.000427923
0.000427356
0.000426709
0.00042598
0.000425171
0.00042428
0.000423307
0.000422251
0.000421111
0.000419888
0.000418578
0.000417183
0.000415699
0.000414127
0.000412464
0.000410708
0.000408858
0.000406912
0.000404868
0.000402723
0.000400475
0.000398121
0.000395658
0.000393083
0.000390392
0.000387583
0.00038465
0.000381591
0.0003784
0.000375073
0.000371604
0.000367989
0.000364221
0.000360294
0.000356201
0.000351936
0.00034749
0.000342856
0.000338024
0.000332986
0.000327731
0.000322249
0.000316527
0.000310555
0.000304318
0.000297803
0.000290995
0.000283879
0.000276436
0.00026865
0.000260499
0.000251963
0.000243019
0.000233642
0.000223807
0.00021349
0.000202667
0.000191322
0.000179449
0.000166973
0.000153974
0.000140581
0.000127087
0.000114082
0.000102687
9.49605e-05
0.000390838
0.000392798
0.000395073
0.000397325
0.000399485
0.000401541
0.000403491
0.000405335
0.000407075
0.00040871
0.000410243
0.000411674
0.000413004
0.000414233
0.000415364
0.000416395
0.00041733
0.000418167
0.000418909
0.000419556
0.000420108
0.000420567
0.000420933
0.000421208
0.00042139
0.000421482
0.000421483
0.000421394
0.000421216
0.000420948
0.000420591
0.000420145
0.00041961
0.000418985
0.000418272
0.000417469
0.000416576
0.000415592
0.000414517
0.000413351
0.000412092
0.00041074
0.000409293
0.00040775
0.00040611
0.000404372
0.000402533
0.000400592
0.000398547
0.000396396
0.000394136
0.000391766
0.000389282
0.000386682
0.000383963
0.000381121
0.000378152
0.000375055
0.000371823
0.000368454
0.000364942
0.000361283
0.000357473
0.000353504
0.000349373
0.000345072
0.000340596
0.000335937
0.000331089
0.000326043
0.000320791
0.000315325
0.000309635
0.000303712
0.000297545
0.000291123
0.000284435
0.00027747
0.000270213
0.000262654
0.000254777
0.00024657
0.000238018
0.000229107
0.000219824
0.000210155
0.000200089
0.000189617
0.000178735
0.000167446
0.000155765
0.000143728
0.000131392
0.000118839
0.00010611
9.34099e-05
8.10482e-05
6.95303e-05
5.96733e-05
5.28752e-05
0.000385592
0.000387504
0.000389744
0.000391966
0.000394096
0.00039612
0.000398035
0.000399841
0.00040154
0.000403131
0.000404617
0.000405996
0.000407271
0.000408442
0.00040951
0.000410475
0.000411338
0.000412101
0.000412763
0.000413325
0.000413788
0.000414153
0.000414421
0.000414591
0.000414664
0.000414641
0.000414521
0.000414307
0.000413996
0.00041359
0.000413089
0.000412493
0.000411801
0.000411013
0.000410129
0.000409149
0.000408072
0.000406897
0.000405624
0.000404251
0.000402779
0.000401204
0.000399527
0.000397746
0.000395859
0.000393865
0.000391761
0.000389546
0.000387217
0.000384773
0.00038221
0.000379526
0.000376717
0.000373782
0.000370716
0.000367516
0.000364178
0.000360698
0.000357072
0.000353296
0.000349364
0.000345272
0.000341014
0.000336585
0.000331978
0.000327188
0.000322207
0.00031703
0.000311647
0.000306052
0.000300237
0.000294192
0.000287908
0.000281377
0.000274589
0.000267533
0.000260198
0.000252574
0.000244651
0.000236417
0.000227861
0.000218974
0.000209745
0.000200167
0.000190232
0.000179937
0.000169281
0.000158272
0.000146924
0.000135265
0.000123344
0.000111233
9.90437e-05
8.69267e-05
7.4967e-05
6.33728e-05
5.24349e-05
4.25622e-05
3.43123e-05
2.8526e-05
0.000380947
0.000382821
0.000385039
0.000387246
0.000389363
0.000391373
0.000393272
0.00039506
0.000396738
0.000398306
0.000399765
0.000401116
0.00040236
0.000403496
0.000404526
0.000405451
0.00040627
0.000406985
0.000407596
0.000408104
0.000408509
0.000408812
0.000409013
0.000409113
0.000409112
0.000409011
0.000408809
0.000408508
0.000408106
0.000407605
0.000407004
0.000406302
0.000405501
0.000404599
0.000403596
0.000402492
0.000401286
0.000399977
0.000398565
0.000397048
0.000395425
0.000393695
0.000391857
0.00038991
0.000387851
0.000385678
0.000383391
0.000380987
0.000378462
0.000375816
0.000373046
0.000370148
0.000367119
0.000363957
0.000360657
0.000357217
0.000353633
0.0003499
0.000346014
0.000341971
0.000337766
0.000333394
0.000328849
0.000324126
0.000319219
0.000314121
0.000308827
0.00030333
0.000297622
0.000291695
0.000285543
0.000279156
0.000272528
0.000265648
0.000258508
0.000251098
0.000243411
0.000235436
0.000227165
0.00021859
0.000209701
0.000200493
0.000190961
0.000181099
0.000170909
0.000160392
0.000149557
0.00013842
0.000127007
0.00011536
0.000103541
9.16412e-05
7.97895e-05
6.81565e-05
5.68964e-05
4.61819e-05
3.62867e-05
2.75643e-05
2.04339e-05
1.54014e-05
0.000377132
0.000378973
0.000381178
0.000383382
0.000385499
0.000387509
0.000389406
0.000391191
0.000392865
0.000394426
0.000395877
0.000397218
0.000398449
0.00039957
0.000400583
0.000401488
0.000402285
0.000402975
0.000403559
0.000404037
0.000404409
0.000404677
0.00040484
0.000404899
0.000404854
0.000404706
0.000404454
0.0004041
0.000403642
0.000403081
0.000402417
0.00040165
0.00040078
0.000399805
0.000398727
0.000397543
0.000396255
0.00039486
0.000393358
0.000391748
0.000390029
0.0003882
0.000386259
0.000384205
0.000382036
0.00037975
0.000377346
0.000374821
0.000372174
0.000369401
0.0003665
0.000363468
0.000360303
0.000357001
0.00035356
0.000349974
0.000346242
0.000342358
0.000338319
0.00033412
0.000329757
0.000325224
0.000320518
0.000315632
0.000310561
0.000305299
0.00029984
0.000294177
0.000288305
0.000282217
0.000275905
0.000269361
0.00026258
0.000255552
0.00024827
0.000240727
0.000232915
0.000224826
0.000216454
0.000207792
0.000198835
0.000189578
0.000180019
0.000170157
0.000159996
0.000149542
0.000138807
0.000127809
0.000116578
0.000105157
9.36051e-05
8.20108e-05
7.04917e-05
5.91995e-05
4.83252e-05
3.8022e-05
2.85457e-05
2.02404e-05
1.3515e-05
8.78456e-06
0.000374358
0.000376169
0.000378368
0.000380577
0.000382702
0.000384721
0.000386626
0.000388419
0.000390098
0.000391664
0.000393119
0.000394462
0.000395693
0.000396814
0.000397824
0.000398725
0.000399517
0.0004002
0.000400774
0.000401241
0.000401601
0.000401854
0.000402001
0.000402042
0.000401977
0.000401806
0.000401531
0.00040115
0.000400664
0.000400073
0.000399377
0.000398576
0.000397669
0.000396656
0.000395537
0.000394312
0.000392978
0.000391537
0.000389986
0.000388326
0.000386554
0.000384671
0.000382673
0.00038056
0.000378331
0.000375983
0.000373515
0.000370925
0.00036821
0.000365368
0.000362397
0.000359294
0.000356056
0.00035268
0.000349163
0.000345502
0.000341693
0.000337733
0.000333616
0.00032934
0.0003249
0.000320292
0.00031551
0.000310549
0.000305406
0.000300073
0.000294546
0.000288819
0.000282885
0.00027674
0.000270376
0.000263787
0.000256967
0.000249909
0.000242606
0.000235053
0.000227243
0.000219171
0.00021083
0.000202217
0.000193328
0.00018416
0.000174714
0.000164991
0.000154996
0.000144738
0.000134228
0.000123486
0.000112538
0.00010142
9.01826e-05
7.88952e-05
6.76539e-05
5.65827e-05
4.58448e-05
3.55972e-05
2.60669e-05
1.75925e-05
1.06354e-05
5.69626e-06
0.000372831
0.000374618
0.000376813
0.000379029
0.000381165
0.000383195
0.000385111
0.000386914
0.000388603
0.000390179
0.000391642
0.000392993
0.000394231
0.000395358
0.000396374
0.00039728
0.000398075
0.000398761
0.000399338
0.000399806
0.000400166
0.000400419
0.000400564
0.000400602
0.000400533
0.000400358
0.000400077
0.000399689
0.000399196
0.000398597
0.000397891
0.000397079
0.000396161
0.000395136
0.000394003
0.000392763
0.000391415
0.000389957
0.000388389
0.000386711
0.00038492
0.000383016
0.000380998
0.000378864
0.000376613
0.000374242
0.00037175
0.000369136
0.000366396
0.000363529
0.000360532
0.000357403
0.000354139
0.000350736
0.000347193
0.000343506
0.00033967
0.000335683
0.000331541
0.00032724
0.000322776
0.000318145
0.000313341
0.000308361
0.000303198
0.000297849
0.000292308
0.000286569
0.000280628
0.000274477
0.000268112
0.000261527
0.000254716
0.000247673
0.000240392
0.000232868
0.000225095
0.000217068
0.000208783
0.000200237
0.000191427
0.000182351
0.000173011
0.000163408
0.00015355
0.000143443
0.000133102
0.000122544
0.000111791
0.000100873
8.98272e-05
7.87069e-05
6.75919e-05
5.66056e-05
4.59027e-05
3.56391e-05
2.60046e-05
1.72816e-05
9.91133e-06
4.48418e-06
0.00099792
0.000997917
0.000997405
0.000996686
0.000995838
0.000994881
0.000993822
0.000992653
0.000991364
0.000989933
0.000988329
0.000986515
0.00098444
0.000982045
0.00097927
0.000976063
0.000972415
0.000968417
0.000964411
0.000961296
0.000995975
0.0009958
0.000994903
0.000993684
0.000992275
0.000990719
0.000989029
0.000987202
0.000985219
0.00098305
0.000980652
0.000977967
0.000974923
0.000971439
0.000967431
0.000962837
0.000957664
0.000952077
0.000946608
0.000942537
0.000991978
0.00099136
0.000989838
0.000987877
0.000985656
0.000983246
0.000980675
0.000977941
0.000975023
0.000971879
0.000968448
0.00096465
0.000960387
0.000955549
0.000950031
0.000943762
0.00093677
0.000929314
0.000922142
0.000916963
0.000983716
0.000982397
0.000979961
0.000976982
0.000973681
0.000970159
0.000966459
0.000962586
0.000958514
0.000954189
0.000949532
0.000944433
0.000938766
0.000932391
0.00092518
0.000917053
0.000908076
0.000898621
0.000889685
0.000883441
0.000967473
0.000965234
0.000961638
0.00095741
0.000952828
0.000948017
0.000943036
0.000937896
0.00093257
0.000926989
0.000921052
0.000914621
0.00090754
0.000899637
0.000890761
0.000880834
0.000869971
0.00085868
0.000848225
0.000841179
0.000937621
0.000934386
0.000929569
0.000924064
0.000918207
0.000912153
0.000905974
0.000899685
0.000893255
0.000886605
0.000879607
0.000872103
0.000863905
0.000854817
0.000844666
0.000833387
0.00082116
0.000808645
0.000797365
0.000790044
0.000886782
0.000882768
0.000877041
0.000870619
0.000863893
0.00085704
0.000850142
0.000843217
0.000836231
0.00082909
0.000821652
0.000813745
0.000805167
0.000795701
0.000785166
0.000773517
0.000761011
0.00074846
0.000737568
0.000730823
0.000807176
0.000803018
0.000797206
0.000790773
0.000784124
0.000777447
0.000770823
0.000764272
0.000757745
0.000751142
0.000744334
0.00073716
0.000729426
0.000720915
0.00071145
0.000701013
0.000689925
0.000679103
0.000670193
0.000665035
0.000693681
0.000690408
0.000685841
0.000680834
0.000675729
0.000670693
0.000665787
0.000661014
0.000656315
0.000651621
0.000646851
0.000641895
0.000636594
0.000630781
0.000624299
0.00061715
0.00060966
0.000602642
0.000597277
0.000594464
0.000548806
0.00054756
0.000545777
0.000543847
0.000541928
0.000540109
0.000538409
0.000536819
0.00053533
0.000533936
0.000532608
0.000531317
0.000529996
0.000528594
0.000527033
0.000525314
0.000523576
0.00052213
0.000521325
0.000521134
0.000390855
0.00039223
0.000394186
0.000396356
0.000398605
0.000400867
0.00040315
0.000405489
0.000407915
0.000410469
0.000413188
0.000416133
0.000419383
0.000423025
0.000427147
0.000431725
0.000436527
0.000441124
0.000444982
0.000447443
0.000260288
0.000263353
0.000267647
0.000272412
0.000277359
0.000282357
0.000287366
0.000292394
0.000297514
0.000302814
0.000308385
0.000314346
0.000320859
0.000328087
0.000336164
0.000345067
0.000354456
0.000363506
0.000370976
0.000375601
0.000161832
0.000165526
0.000170724
0.000176532
0.00018261
0.00018881
0.000195075
0.0002014
0.000207843
0.000214502
0.000221512
0.000229027
0.000237236
0.000246334
0.000256473
0.000267654
0.00027956
0.000291312
0.000301291
0.000307528
9.42001e-05
9.76536e-05
0.000102627
0.000108252
0.000114206
0.000120347
0.000126616
0.000133009
0.00013957
0.000146388
0.000153601
0.000161371
0.000169885
0.000179337
0.000189887
0.000201566
0.000214125
0.00022679
0.000237921
0.000245016
5.16097e-05
5.4326e-05
5.84226e-05
6.31478e-05
6.82225e-05
7.35235e-05
7.8999e-05
8.46459e-05
9.05017e-05
9.66433e-05
0.000103191
0.000110291
0.000118114
0.000126839
0.000136618
0.000147507
0.000159332
0.000171468
0.000182464
0.000189653
2.68389e-05
2.8678e-05
3.16895e-05
3.52641e-05
3.91744e-05
4.33191e-05
4.76564e-05
5.21844e-05
5.69354e-05
6.1974e-05
6.73971e-05
7.33289e-05
7.99137e-05
8.7305e-05
9.56408e-05
0.000104989
0.000115242
0.000125924
0.00013585
0.00014259
1.3439e-05
1.44955e-05
1.65105e-05
1.90015e-05
2.17861e-05
2.47846e-05
2.79663e-05
3.13326e-05
3.49108e-05
3.87525e-05
4.29333e-05
4.75515e-05
5.27233e-05
5.85746e-05
6.52232e-05
7.2739e-05
8.10634e-05
8.98529e-05
9.8188e-05
0.000104061
6.6404e-06
7.11272e-06
8.35851e-06
9.98402e-06
1.18426e-05
1.38763e-05
1.60667e-05
1.84186e-05
2.09545e-05
2.37137e-05
2.67528e-05
3.01455e-05
3.39808e-05
3.83577e-05
4.33723e-05
4.90893e-05
5.54834e-05
6.23181e-05
6.89122e-05
7.37058e-05
3.34845e-06
3.45818e-06
4.1853e-06
5.18926e-06
6.36141e-06
7.66606e-06
9.09514e-06
1.06551e-05
1.23633e-05
1.42484e-05
1.63505e-05
1.87225e-05
2.14294e-05
2.45451e-05
2.81447e-05
3.22844e-05
3.69605e-05
4.20212e-05
4.69872e-05
5.06971e-05
1.73465e-06
1.71187e-06
2.12404e-06
2.71355e-06
3.41632e-06
4.21455e-06
5.10611e-06
6.09697e-06
7.19978e-06
8.43408e-06
9.82721e-06
1.14151e-05
1.32427e-05
1.53624e-05
1.78293e-05
2.06893e-05
2.39525e-05
2.75351e-05
3.11323e-05
3.39323e-05
0.001
0.001
0.001
0.001
0.001
0.001
0.001
0.001
0.001
0.001
0.001
0.001
0.001
0.001
0.001
0.001
0.001
0.001
0.001
0.001
0.001
0.001
0.001
0.001
0.001
0.001
0.001
0.001
0.001
0.001
0.001
0.001
0.001
0.001
0.001
0.001
0.001
0.001
0.001
0.001
0.001
0.001
0.001
0.001
0.001
0.001
0.001
0.001
0.001
0.001
0.001
0.001
0.001
0.001
0.001
0.001
0.001
0.001
0.001
0.001
0.001
0.001
0.001
0.001
0.001
0.001
0.001
0.001
0.001
0.001
0.001
0.001
0.001
0.001
0.001
0.001
0.001
0.001
0.001
0.001
0.001
0.001
0.001
0.001
0.001
0.001
0.001
0.001
0.001
0.001
0.001
0.001
0.001
0.001
0.001
0.001
0.001
0.001
0.001
0.001
0.001
0.001
0.001