/*--------------------------------*- C++ -*----------------------------------*\
| =========                 |                                                 |
| \\      /  F ield         | OpenFOAM: The Open Source CFD Toolbox           |
|  \\    /   O peration     | Version:  2.1.0                                 |
|   \\  /    A nd           | Web:      www.OpenFOAM.org                      |
|    \\/     M anipulation  |                                                 |
\*---------------------------------------------------------------------------*/
FoamFile
{
    version     2.0;
    format      ascii;
    class       volScalarField;
    location    "0.35";
    object      C2;
}
// * * * * * * * * * * * * * * * * * * * * * * * * * * * * * * * * * * * * * //

dimensions      [0 0 0 0 0 0 0];

internalField   nonuniform List<scalar> 
6400
(
0.00207646
0.00208389
0.00209292
0.00210195
0.00211056
0.00211864
0.00212617
0.00213316
0.00213961
0.00214552
0.00215088
0.00215572
0.00216002
0.0021638
0.00216705
0.00216979
0.002172
0.0021737
0.00217488
0.00217555
0.00217572
0.00217537
0.00217452
0.00217316
0.0021713
0.00216894
0.00216607
0.00216269
0.00215881
0.00215443
0.00214953
0.00214413
0.00213821
0.00213178
0.00212483
0.00211736
0.00210935
0.00210082
0.00209175
0.00208213
0.00207195
0.00206122
0.00204992
0.00203805
0.00202558
0.00201252
0.00199885
0.00198456
0.00196964
0.00195407
0.00193784
0.00192093
0.00190333
0.00188502
0.00186599
0.00184621
0.00182567
0.00180435
0.00178221
0.00175925
0.00173544
0.00171076
0.00168517
0.00165867
0.0016312
0.00160276
0.00157332
0.00154283
0.00151128
0.00147863
0.00144485
0.00140991
0.00137378
0.00133642
0.0012978
0.00125789
0.00121667
0.00117409
0.00113013
0.00108478
0.001038
0.000989784
0.00094013
0.000889037
0.000836524
0.00078262
0.000727379
0.000670875
0.000613215
0.000554538
0.00049503
0.000434933
0.000374594
0.000314587
0.00025583
0.000199393
0.000146068
9.74752e-05
5.61952e-05
2.56271e-05
0.00208315
0.0020907
0.00209976
0.00210877
0.00211735
0.0021254
0.00213291
0.00213987
0.0021463
0.00215219
0.00215754
0.00216237
0.00216667
0.00217044
0.0021737
0.00217644
0.00217867
0.00218038
0.00218159
0.00218229
0.00218248
0.00218218
0.00218137
0.00218005
0.00217824
0.00217593
0.00217313
0.00216982
0.00216601
0.0021617
0.00215689
0.00215157
0.00214574
0.00213941
0.00213255
0.00212518
0.00211729
0.00210887
0.00209991
0.00209042
0.00208037
0.00206977
0.00205861
0.00204687
0.00203455
0.00202163
0.00200811
0.00199397
0.0019792
0.00196379
0.00194771
0.00193097
0.00191353
0.00189538
0.00187651
0.0018569
0.00183651
0.00181535
0.00179337
0.00177057
0.00174691
0.00172238
0.00169694
0.00167056
0.00164323
0.00161492
0.00158558
0.0015552
0.00152374
0.00149117
0.00145745
0.00142255
0.00138643
0.00134907
0.00131042
0.00127045
0.00122913
0.00118641
0.00114228
0.00109669
0.00104962
0.00100105
0.000950967
0.000899358
0.000846229
0.0007916
0.000735511
0.000678029
0.00061926
0.00055936
0.00049856
0.000437194
0.000375755
0.00031495
0.000255713
0.000199287
0.000146603
9.9512e-05
6.06363e-05
3.28581e-05
0.00209538
0.00210308
0.00211221
0.00212123
0.00212982
0.00213787
0.00214539
0.00215237
0.00215882
0.00216474
0.00217014
0.00217501
0.00217937
0.00218321
0.00218654
0.00218936
0.00219168
0.00219349
0.00219481
0.00219562
0.00219595
0.00219577
0.00219511
0.00219396
0.00219231
0.00219018
0.00218756
0.00218444
0.00218084
0.00217675
0.00217216
0.00216708
0.0021615
0.00215543
0.00214884
0.00214175
0.00213415
0.00212603
0.00211738
0.00210821
0.00209849
0.00208823
0.00207742
0.00206604
0.00205409
0.00204155
0.00202842
0.00201468
0.00200032
0.00198532
0.00196967
0.00195335
0.00193635
0.00191865
0.00190023
0.00188107
0.00186115
0.00184045
0.00181895
0.00179662
0.00177344
0.00174938
0.00172441
0.00169852
0.00167166
0.00164381
0.00161494
0.00158501
0.00155399
0.00152185
0.00148854
0.00145403
0.00141828
0.00138126
0.00134292
0.00130321
0.00126211
0.00121956
0.00117552
0.00112996
0.00108282
0.00103409
0.000983706
0.000931659
0.000877925
0.000822498
0.000765393
0.000706657
0.000646383
0.000584735
0.000521984
0.000458552
0.000395074
0.000332459
0.000271959
0.000214875
0.000162222
0.000115856
7.80843e-05
5.13314e-05
0.00211221
0.00212011
0.00212934
0.00213845
0.0021471
0.00215523
0.00216283
0.00216991
0.00217646
0.0021825
0.00218802
0.00219303
0.00219754
0.00220155
0.00220505
0.00220806
0.00221058
0.00221261
0.00221416
0.00221522
0.0022158
0.0022159
0.00221552
0.00221467
0.00221334
0.00221154
0.00220927
0.00220652
0.0022033
0.0021996
0.00219543
0.00219077
0.00218564
0.00218003
0.00217393
0.00216734
0.00216025
0.00215266
0.00214457
0.00213596
0.00212684
0.00211719
0.002107
0.00209626
0.00208497
0.00207312
0.00206069
0.00204766
0.00203404
0.0020198
0.00200492
0.0019894
0.00197321
0.00195634
0.00193877
0.00192048
0.00190145
0.00188166
0.00186108
0.00183969
0.00181747
0.00179439
0.00177042
0.00174553
0.0017197
0.00169288
0.00166506
0.00163619
0.00160625
0.00157518
0.00154296
0.00150954
0.00147489
0.00143895
0.00140168
0.00136304
0.00132298
0.00128145
0.00123838
0.00119374
0.00114746
0.00109948
0.00104974
0.000998197
0.000944785
0.000889464
0.000832203
0.000773002
0.000711912
0.000649061
0.0005847
0.000519259
0.000453417
0.000388183
0.000324965
0.000265015
0.000209465
0.00016024
0.000119743
9.09905e-05
0.00213266
0.00214079
0.00215021
0.00215948
0.00216829
0.00217659
0.00218438
0.00219165
0.00219841
0.00220467
0.00221044
0.0022157
0.00222048
0.00222478
0.00222859
0.00223192
0.00223478
0.00223717
0.00223909
0.00224055
0.00224155
0.00224208
0.00224216
0.00224179
0.00224096
0.00223968
0.00223795
0.00223576
0.00223313
0.00223004
0.0022265
0.00222251
0.00221806
0.00221316
0.00220779
0.00220196
0.00219566
0.00218889
0.00218164
0.00217391
0.00216568
0.00215696
0.00214773
0.00213799
0.00212772
0.00211692
0.00210557
0.00209367
0.0020812
0.00206815
0.0020545
0.00204024
0.00202535
0.00200982
0.00199362
0.00197675
0.00195918
0.00194088
0.00192184
0.00190204
0.00188145
0.00186004
0.00183779
0.00181468
0.00179066
0.00176572
0.00173981
0.00171291
0.00168498
0.00165599
0.00162589
0.00159464
0.00156221
0.00152854
0.00149358
0.0014573
0.00141962
0.00138049
0.00133985
0.00129763
0.00125375
0.00120813
0.00116069
0.00111133
0.00105995
0.00100645
0.000950734
0.000892722
0.000832373
0.000769713
0.000704877
0.000638172
0.00057015
0.000501697
0.000434128
0.000368677
0.000306659
0.000250351
0.000203001
0.000169639
0.0021556
0.00216404
0.00217374
0.00218327
0.00219235
0.00220094
0.00220902
0.00221661
0.00222371
0.00223033
0.00223647
0.00224213
0.00224732
0.00225205
0.00225632
0.00226013
0.00226349
0.00226641
0.00226888
0.00227091
0.0022725
0.00227366
0.00227439
0.0022747
0.00227457
0.00227403
0.00227306
0.00227167
0.00226986
0.00226763
0.00226498
0.00226191
0.00225841
0.0022545
0.00225016
0.00224539
0.00224019
0.00223456
0.00222849
0.00222198
0.00221502
0.0022076
0.00219973
0.00219138
0.00218256
0.00217326
0.00216346
0.00215316
0.00214234
0.002131
0.00211911
0.00210668
0.00209368
0.00208009
0.00206591
0.00205112
0.0020357
0.00201963
0.00200289
0.00198546
0.00196732
0.00194845
0.00192882
0.00190841
0.0018872
0.00186514
0.00184222
0.0018184
0.00179366
0.00176795
0.00174124
0.00171349
0.00168466
0.0016547
0.00162357
0.0015912
0.00155755
0.00152255
0.00148612
0.00144818
0.00140865
0.00136743
0.00132439
0.00127941
0.00123235
0.00118304
0.0011313
0.00107696
0.00101984
0.000959815
0.000896808
0.000830874
0.00076226
0.000691484
0.0006195
0.00054759
0.000477227
0.000411253
0.000354436
0.00031507
0.00217981
0.00218863
0.0021987
0.00220861
0.00221809
0.00222709
0.00223561
0.00224366
0.00225124
0.00225836
0.00226502
0.00227123
0.00227699
0.00228232
0.00228721
0.00229168
0.00229572
0.00229934
0.00230255
0.00230534
0.00230773
0.00230972
0.00231131
0.00231251
0.00231332
0.00231374
0.00231377
0.00231342
0.00231269
0.00231158
0.00231009
0.00230823
0.00230598
0.00230336
0.00230036
0.00229698
0.00229322
0.00228908
0.00228456
0.00227964
0.00227434
0.00226864
0.00226254
0.00225603
0.00224911
0.00224178
0.00223402
0.00222583
0.00221719
0.00220811
0.00219857
0.00218856
0.00217807
0.00216708
0.00215559
0.00214359
0.00213105
0.00211796
0.00210431
0.00209009
0.00207526
0.00205983
0.00204375
0.00202703
0.00200962
0.00199152
0.00197269
0.0019531
0.00193274
0.00191158
0.00188957
0.00186668
0.00184288
0.00181813
0.00179238
0.00176557
0.00173766
0.00170858
0.00167826
0.00164661
0.00161354
0.00157894
0.00154267
0.0015046
0.00146454
0.00142228
0.0013776
0.00133021
0.00127983
0.00122615
0.00116889
0.00110779
0.00104267
0.000973508
0.000900596
0.000825205
0.000748818
0.000674688
0.000609276
0.000564628
0.0022039
0.00221318
0.00222376
0.00223418
0.00224418
0.00225374
0.00226284
0.00227149
0.0022797
0.00228747
0.00229481
0.00230174
0.00230824
0.00231433
0.00232002
0.00232532
0.00233022
0.00233473
0.00233886
0.00234262
0.00234601
0.00234903
0.0023517
0.00235401
0.00235597
0.00235759
0.00235886
0.00235979
0.00236039
0.00236066
0.0023606
0.00236021
0.0023595
0.00235846
0.00235711
0.00235543
0.00235343
0.00235111
0.00234847
0.00234551
0.00234223
0.00233863
0.00233469
0.00233043
0.00232584
0.00232091
0.00231565
0.00231004
0.00230408
0.00229776
0.00229109
0.00228404
0.00227663
0.00226883
0.00226064
0.00225205
0.00224305
0.00223364
0.00222379
0.00221351
0.00220277
0.00219157
0.00217989
0.00216771
0.00215503
0.00214182
0.00212806
0.00211375
0.00209885
0.00208335
0.00206722
0.00205044
0.00203297
0.00201478
0.00199584
0.00197611
0.00195554
0.00193407
0.00191164
0.00188818
0.00186361
0.00183781
0.00181068
0.00178206
0.00175179
0.00171966
0.00168543
0.00164878
0.00160939
0.00156686
0.00152077
0.00147062
0.00141591
0.00135605
0.00129049
0.00122004
0.00114619
0.0010719
0.00100448
0.00095854
0.00222648
0.00223631
0.00224751
0.00225857
0.00226924
0.00227949
0.00228931
0.00229872
0.0023077
0.00231628
0.00232446
0.00233225
0.00233965
0.00234667
0.00235332
0.00235961
0.00236554
0.00237112
0.00237635
0.00238125
0.00238582
0.00239006
0.00239399
0.00239761
0.00240092
0.00240393
0.00240665
0.00240907
0.00241122
0.00241308
0.00241468
0.002416
0.00241705
0.00241784
0.00241838
0.00241865
0.00241868
0.00241845
0.00241798
0.00241726
0.00241629
0.00241508
0.00241363
0.00241193
0.00240999
0.00240781
0.00240539
0.00240272
0.0023998
0.00239664
0.00239323
0.00238957
0.00238566
0.00238149
0.00237706
0.00237236
0.0023674
0.00236217
0.00235666
0.00235087
0.00234479
0.00233842
0.00233176
0.00232479
0.0023175
0.0023099
0.00230197
0.00229369
0.00228507
0.00227609
0.00226674
0.002257
0.00224685
0.00223628
0.00222527
0.00221378
0.00220179
0.00218927
0.00217616
0.00216243
0.002148
0.00213281
0.00211677
0.00209977
0.0020817
0.00206241
0.00204171
0.00201936
0.00199508
0.00196857
0.00193943
0.0019072
0.00187131
0.00183103
0.00178538
0.00173321
0.00167699
0.00161809
0.00156257
0.00152381
0.00224624
0.0022567
0.00226862
0.00228045
0.00229192
0.002303
0.00231367
0.00232396
0.00233385
0.00234337
0.00235252
0.00236131
0.00236974
0.00237783
0.00238558
0.002393
0.0024001
0.00240688
0.00241336
0.00241954
0.00242544
0.00243105
0.00243638
0.00244145
0.00244626
0.00245082
0.00245513
0.00245921
0.00246305
0.00246667
0.00247007
0.00247326
0.00247624
0.00247902
0.00248161
0.00248402
0.00248623
0.00248827
0.00249014
0.00249183
0.00249337
0.00249474
0.00249596
0.00249702
0.00249794
0.00249871
0.00249933
0.00249982
0.00250018
0.0025004
0.00250049
0.00250045
0.00250028
0.00249999
0.00249958
0.00249905
0.0024984
0.00249764
0.00249676
0.00249577
0.00249467
0.00249347
0.00249216
0.00249075
0.00248924
0.00248763
0.00248592
0.00248411
0.00248221
0.00248021
0.00247812
0.00247594
0.00247366
0.00247128
0.0024688
0.00246621
0.0024635
0.00246066
0.00245768
0.00245454
0.0024512
0.00244764
0.00244382
0.0024397
0.00243522
0.00243034
0.00242506
0.00241919
0.00241265
0.00240535
0.00239716
0.00238787
0.00237725
0.00236495
0.00235045
0.00233306
0.00231213
0.00228883
0.00226532
0.00224739
0.00226218
0.0022733
0.00228604
0.00229874
0.00231111
0.00232311
0.00233474
0.00234601
0.00235692
0.00236748
0.0023777
0.00238759
0.00239715
0.0024064
0.00241535
0.002424
0.00243236
0.00244045
0.00244827
0.00245582
0.00246313
0.0024702
0.00247703
0.00248364
0.00249003
0.00249622
0.00250221
0.00250802
0.00251364
0.00251909
0.00252438
0.00252951
0.0025345
0.00253935
0.00254407
0.00254866
0.00255315
0.00255752
0.00256179
0.00256598
0.00257007
0.00257409
0.00257804
0.00258193
0.00258576
0.00258954
0.00259328
0.00259699
0.00260066
0.00260432
0.00260797
0.0026116
0.00261524
0.00261889
0.00262255
0.00262624
0.00262995
0.00263371
0.00263752
0.00264138
0.00264531
0.00264931
0.00265339
0.00265757
0.00266185
0.00266624
0.00267077
0.00267543
0.00268025
0.00268523
0.0026904
0.00269576
0.00270133
0.00270713
0.00271317
0.00271947
0.00272604
0.00273291
0.00274009
0.00274759
0.00275545
0.00276366
0.00277225
0.00278123
0.00279061
0.00280041
0.00281061
0.00282132
0.00283264
0.00284471
0.0028578
0.002872
0.00288755
0.0029046
0.00292335
0.00294407
0.00296694
0.00299171
0.003016
0.00303333
0.0022737
0.0022855
0.0022991
0.00231272
0.00232605
0.00233905
0.00235169
0.002364
0.00237598
0.00238764
0.00239898
0.00241002
0.00242077
0.00243123
0.00244142
0.00245134
0.00246101
0.00247044
0.00247963
0.00248859
0.00249734
0.00250589
0.00251424
0.00252241
0.0025304
0.00253823
0.00254591
0.00255345
0.00256085
0.00256813
0.0025753
0.00258237
0.00258935
0.00259624
0.00260306
0.00260983
0.00261654
0.00262321
0.00262985
0.00263647
0.00264307
0.00264968
0.0026563
0.00266294
0.00266961
0.00267632
0.00268308
0.00268991
0.00269681
0.00270379
0.00271088
0.00271806
0.00272537
0.00273281
0.00274039
0.00274813
0.00275604
0.00276413
0.00277243
0.00278093
0.00278966
0.00279864
0.00280787
0.00281738
0.00282719
0.00283732
0.00284778
0.00285861
0.00286982
0.00288143
0.00289348
0.002906
0.002919
0.00293252
0.00294661
0.00296128
0.00297659
0.00299257
0.00300926
0.00302672
0.00304498
0.00306412
0.00308419
0.00310525
0.00312738
0.00315068
0.00317525
0.00320124
0.00322882
0.0032582
0.00328962
0.00332367
0.00336102
0.00340192
0.00344669
0.0034956
0.0035483
0.00360285
0.00365351
0.00368792
0.00228069
0.00229314
0.0023076
0.00232217
0.00233648
0.00235047
0.00236414
0.0023775
0.00239056
0.00240331
0.00241578
0.00242797
0.00243989
0.00245155
0.00246297
0.00247415
0.0024851
0.00249584
0.00250637
0.00251671
0.00252687
0.00253686
0.00254668
0.00255636
0.0025659
0.00257531
0.00258461
0.00259381
0.00260292
0.00261195
0.00262091
0.00262982
0.00263868
0.00264751
0.00265632
0.00266513
0.00267394
0.00268277
0.00269163
0.00270053
0.00270949
0.00271852
0.00272762
0.00273683
0.00274614
0.00275557
0.00276514
0.00277485
0.00278473
0.00279479
0.00280504
0.00281551
0.00282619
0.00283712
0.0028483
0.00285976
0.00287151
0.00288358
0.00289597
0.00290872
0.00292183
0.00293535
0.00294927
0.00296364
0.00297848
0.0029938
0.00300965
0.00302606
0.00304304
0.00306064
0.0030789
0.00309785
0.00311752
0.00313798
0.00315925
0.00318139
0.00320446
0.00322851
0.0032536
0.0032798
0.00330718
0.00333581
0.00336579
0.0033972
0.00343016
0.00346478
0.0035012
0.0035396
0.00358017
0.00362312
0.00366871
0.0037173
0.0037693
0.0038254
0.00388544
0.00394925
0.00401577
0.0040821
0.0041417
0.00418167
0.00228345
0.00229648
0.00231178
0.00232725
0.0023425
0.00235747
0.00237213
0.0023865
0.00240058
0.00241439
0.00242793
0.00244122
0.00245426
0.00246706
0.00247964
0.002492
0.00250417
0.00251614
0.00252793
0.00253956
0.00255102
0.00256235
0.00257354
0.00258462
0.00259559
0.00260646
0.00261725
0.00262797
0.00263864
0.00264926
0.00265986
0.00267043
0.00268101
0.00269159
0.0027022
0.00271285
0.00272355
0.00273431
0.00274516
0.0027561
0.00276716
0.00277834
0.00278966
0.00280113
0.00281278
0.00282462
0.00283666
0.00284893
0.00286143
0.00287419
0.00288723
0.00290056
0.0029142
0.00292817
0.0029425
0.0029572
0.00297229
0.00298781
0.00300376
0.00302018
0.0030371
0.00305453
0.0030725
0.00309106
0.00311021
0.00313001
0.00315048
0.00317165
0.00319357
0.00321628
0.00323981
0.00326421
0.00328953
0.00331583
0.00334314
0.00337154
0.00340107
0.00343181
0.00346382
0.00349717
0.00353195
0.00356822
0.00360609
0.00364563
0.00368697
0.00373019
0.00377543
0.00382279
0.00387242
0.00392444
0.00397895
0.00403606
0.00409578
0.0041585
0.00422381
0.00429108
0.00435883
0.0044241
0.00448125
0.00451987
0.00228261
0.00229614
0.00231219
0.0023285
0.00234464
0.0023605
0.00237608
0.00239138
0.00240641
0.00242118
0.00243571
0.00244999
0.00246405
0.00247789
0.00249153
0.00250497
0.00251822
0.0025313
0.00254423
0.00255701
0.00256965
0.00258217
0.00259458
0.00260689
0.00261912
0.00263128
0.00264338
0.00265544
0.00266747
0.00267949
0.0026915
0.00270353
0.00271558
0.00272768
0.00273984
0.00275207
0.00276438
0.0027768
0.00278934
0.00280202
0.00281485
0.00282784
0.00284103
0.00285442
0.00286803
0.00288188
0.00289598
0.00291037
0.00292505
0.00294005
0.00295539
0.00297108
0.00298716
0.00300364
0.00302054
0.00303789
0.00305572
0.00307404
0.0030929
0.0031123
0.00313229
0.00315289
0.00317413
0.00319605
0.00321868
0.00324206
0.00326621
0.00329119
0.00331703
0.00334377
0.00337146
0.00340016
0.0034299
0.00346074
0.00349273
0.00352594
0.00356042
0.00359624
0.00363346
0.00367215
0.00371238
0.00375423
0.00379775
0.00384303
0.00389014
0.00393915
0.00399011
0.00404308
0.00409807
0.00415507
0.004214
0.0042747
0.00433687
0.00440011
0.00446421
0.00452814
0.00459036
0.00464831
0.00469789
0.00473202
0.00227901
0.00229295
0.00230965
0.00232671
0.00234362
0.00236028
0.00237667
0.0023928
0.00240867
0.0024243
0.00243969
0.00245485
0.0024698
0.00248455
0.0024991
0.00251347
0.00252768
0.00254172
0.00255563
0.00256939
0.00258304
0.00259658
0.00261003
0.0026234
0.0026367
0.00264995
0.00266316
0.00267634
0.00268952
0.00270269
0.00271589
0.00272912
0.0027424
0.00275575
0.00276917
0.00278269
0.00279633
0.00281009
0.00282401
0.00283808
0.00285234
0.00286679
0.00288146
0.00289637
0.00291154
0.00292697
0.0029427
0.00295875
0.00297513
0.00299187
0.00300899
0.00302651
0.00304445
0.00306285
0.00308172
0.00310108
0.00312098
0.00314142
0.00316245
0.00318409
0.00320637
0.00322932
0.00325298
0.00327738
0.00330255
0.00332853
0.00335537
0.00338309
0.00341175
0.00344138
0.00347204
0.00350376
0.0035366
0.00357061
0.00360584
0.00364235
0.00368019
0.00371942
0.0037601
0.00380228
0.00384603
0.00389139
0.00393842
0.00398715
0.00403764
0.0040899
0.00414393
0.0041997
0.00425714
0.00431611
0.00437638
0.00443757
0.00449914
0.00456032
0.00462069
0.00467921
0.00473441
0.00478423
0.00482586
0.00485503
0.00227364
0.00228786
0.00230509
0.00232278
0.00234035
0.00235769
0.00237476
0.00239159
0.00240817
0.00242451
0.00244063
0.00245653
0.00247223
0.00248773
0.00250305
0.0025182
0.00253318
0.00254803
0.00256273
0.00257732
0.00259179
0.00260617
0.00262046
0.00263469
0.00264885
0.00266298
0.00267708
0.00269117
0.00270525
0.00271936
0.00273349
0.00274768
0.00276192
0.00277625
0.00279067
0.0028052
0.00281986
0.00283467
0.00284964
0.00286478
0.00288013
0.00289569
0.00291149
0.00292754
0.00294387
0.00296049
0.00297743
0.0029947
0.00301233
0.00303034
0.00304874
0.00306758
0.00308686
0.00310662
0.00312688
0.00314766
0.00316899
0.00319091
0.00321343
0.00323659
0.00326042
0.00328495
0.00331022
0.00333625
0.00336309
0.00339076
0.00341932
0.00344879
0.00347922
0.00351065
0.00354312
0.00357668
0.00361138
0.00364726
0.00368438
0.00372277
0.00376249
0.0038036
0.00384613
0.00389013
0.00393565
0.00398272
0.00403138
0.00408164
0.00413352
0.00418699
0.00424203
0.00429855
0.00435643
0.00441546
0.00447532
0.00453557
0.00459556
0.00465444
0.00471143
0.00476565
0.00481574
0.0048599
0.004896
0.00492148
0.00226754
0.00228193
0.00229954
0.00231771
0.00233581
0.00235368
0.0023713
0.00238868
0.00240582
0.00242273
0.00243942
0.0024559
0.00247218
0.00248827
0.00250419
0.00251994
0.00253553
0.00255099
0.00256632
0.00258153
0.00259663
0.00261165
0.00262659
0.00264147
0.00265629
0.00267108
0.00268585
0.00270062
0.00271539
0.00273019
0.00274502
0.00275991
0.00277487
0.00278992
0.00280507
0.00282034
0.00283574
0.0028513
0.00286703
0.00288295
0.00289908
0.00291543
0.00293202
0.00294888
0.00296603
0.00298347
0.00300124
0.00301936
0.00303784
0.00305671
0.00307599
0.0030957
0.00311588
0.00313653
0.00315769
0.00317939
0.00320165
0.00322449
0.00324795
0.00327206
0.00329683
0.00332232
0.00334854
0.00337553
0.00340333
0.00343197
0.00346148
0.0034919
0.00352327
0.00355563
0.00358902
0.00362348
0.00365906
0.00369579
0.00373371
0.00377288
0.00381332
0.0038551
0.00389823
0.00394276
0.00398872
0.00403613
0.00408501
0.00413536
0.00418718
0.00424043
0.00429505
0.00435096
0.00440802
0.00446601
0.00452463
0.00458344
0.00464187
0.00469914
0.0047543
0.00480658
0.00485467
0.00489684
0.00493101
0.00495505
0.0022619
0.00227629
0.00229415
0.00231265
0.00233111
0.00234936
0.00236738
0.00238514
0.00240268
0.00241998
0.00243707
0.00245396
0.00247064
0.00248715
0.00250348
0.00251965
0.00253566
0.00255154
0.00256729
0.00258293
0.00259847
0.00261392
0.0026293
0.00264462
0.00265989
0.00267512
0.00269034
0.00270556
0.00272079
0.00273604
0.00275134
0.00276669
0.00278212
0.00279764
0.00281327
0.00282901
0.0028449
0.00286094
0.00287716
0.00289357
0.00291019
0.00292704
0.00294414
0.0029615
0.00297915
0.00299711
0.00301539
0.00303402
0.00305302
0.00307241
0.00309221
0.00311245
0.00313314
0.00315432
0.00317601
0.00319823
0.003221
0.00324437
0.00326834
0.00329296
0.00331824
0.00334422
0.00337094
0.00339841
0.00342668
0.00345577
0.00348572
0.00351656
0.00354833
0.00358107
0.0036148
0.00364958
0.00368543
0.00372238
0.00376049
0.00379978
0.00384029
0.00388206
0.0039251
0.00396946
0.00401514
0.00406217
0.00411055
0.00416027
0.00421132
0.00426365
0.00431721
0.0043719
0.0044276
0.00448412
0.00454123
0.00459858
0.00465568
0.00471192
0.00476648
0.00481856
0.00486703
0.00491015
0.00494558
0.00497076
0.00225803
0.00227232
0.00229026
0.00230893
0.00232759
0.00234605
0.00236427
0.00238225
0.00239999
0.00241751
0.00243482
0.00245192
0.00246882
0.00248554
0.00250209
0.00251848
0.00253472
0.00255081
0.00256679
0.00258265
0.00259841
0.00261408
0.00262968
0.00264523
0.00266072
0.00267618
0.00269163
0.00270707
0.00272253
0.00273801
0.00275353
0.00276912
0.00278478
0.00280052
0.00281638
0.00283236
0.00284847
0.00286475
0.0028812
0.00289784
0.00291469
0.00293177
0.0029491
0.0029667
0.00298458
0.00300277
0.00302128
0.00304015
0.00305937
0.00307899
0.00309902
0.00311948
0.0031404
0.00316181
0.00318371
0.00320615
0.00322914
0.00325271
0.00327689
0.0033017
0.00332717
0.00335334
0.00338022
0.00340786
0.00343628
0.00346551
0.00349559
0.00352655
0.00355841
0.00359122
0.00362501
0.00365982
0.00369566
0.00373259
0.00377064
0.00380983
0.00385019
0.00389176
0.00393457
0.00397862
0.00402395
0.00407055
0.00411844
0.00416759
0.00421799
0.00426959
0.00432234
0.00437614
0.0044309
0.00448645
0.00454263
0.00459917
0.00465568
0.00471153
0.00476596
0.00481817
0.00486721
0.00491165
0.00494922
0.00497693
1.0031e-05
1.00258e-05
1.24999e-05
1.59759e-05
2.00814e-05
2.47069e-05
2.98309e-05
3.54781e-05
4.17105e-05
4.86294e-05
5.638e-05
6.51558e-05
7.52002e-05
8.67982e-05
0.000100251
0.000115808
0.000133528
0.000152958
0.000172451
0.00018762
1.95495e-05
2.03745e-05
2.47317e-05
3.06508e-05
3.74958e-05
4.5048e-05
5.32463e-05
6.21119e-05
7.17293e-05
8.22453e-05
9.38737e-05
0.000106899
0.000121671
0.000138593
0.000158073
0.000180416
0.000205606
0.000232829
0.000259504
0.000279375
3.91684e-05
4.21565e-05
4.9577e-05
5.91316e-05
6.99545e-05
8.16887e-05
9.42047e-05
0.000107506
0.000121699
0.000136986
0.000153665
0.000172134
0.000192875
0.000216424
0.000243304
0.000273869
0.00030799
0.000344404
0.000379461
0.000404798
7.98484e-05
8.62689e-05
9.81766e-05
0.000112735
0.000128859
0.000146056
0.000164113
0.000183005
0.000202856
0.000223929
0.000246624
0.00027147
0.000299096
0.000330188
0.000365389
0.000405087
0.000448983
0.000495256
0.000539029
0.000569636
0.00016004
0.000170973
0.000188588
0.000209293
0.000231731
0.000255272
0.000279628
0.000304743
0.000330758
0.000358001
0.00038698
0.000418368
0.000452944
0.000491548
0.000534943
0.000583515
0.000636722
0.000692075
0.000743375
0.000777979
0.000307784
0.000323611
0.000347238
0.000374245
0.000402967
0.000432635
0.000462894
0.000493665
0.000525109
0.000557609
0.000591795
0.00062846
0.00066852
0.000712962
0.000762637
0.000817886
0.000877842
0.000939268
0.000994689
0.00103069
0.00055998
0.000579623
0.000607736
0.000639261
0.000672268
0.000705872
0.000739666
0.00077356
0.000807727
0.000842623
0.000878955
0.000917576
0.000959486
0.00100577
0.00105732
0.00111439
0.00117573
0.00123736
0.00129089
0.00132407
0.000955738
0.000976042
0.00100454
0.0010361
0.0010687
0.0011014
0.0011338
0.00116581
0.00119766
0.00122985
0.00126302
0.00129796
0.00133564
0.00137714
0.00142336
0.00147439
0.00152868
0.00158173
0.00162544
0.00165077
0.00152113
0.00153698
0.00155925
0.00158368
0.00160857
0.00163308
0.0016569
0.00168003
0.00170275
0.00172541
0.00174839
0.00177227
0.0017978
0.00182584
0.00185718
0.00189182
0.00192819
0.0019623
0.00198839
0.00200205
0.00224428
0.00224998
0.00225834
0.0022674
0.00227638
0.00228482
0.00229264
0.00229986
0.00230655
0.00231272
0.00231852
0.00232408
0.00232974
0.00233575
0.00234251
0.00235004
0.00235769
0.00236401
0.00236734
0.00236793
0.00303423
0.00302683
0.0030165
0.00300506
0.00299319
0.00298123
0.00296912
0.00295671
0.00294381
0.00293024
0.0029158
0.00290017
0.00288296
0.00286374
0.00284208
0.00281812
0.00279306
0.00276915
0.00274916
0.00273648
0.00368854
0.00367271
0.00365068
0.00362626
0.00360089
0.00357522
0.00354948
0.0035236
0.00349721
0.00346989
0.00344117
0.00341044
0.00337689
0.00333971
0.00329823
0.00325259
0.00320454
0.0031583
0.00312018
0.00309663
0.00418296
0.00416402
0.00413749
0.00410786
0.00407683
0.00404516
0.00401313
0.00398075
0.00394776
0.00391364
0.00387771
0.0038392
0.00379715
0.00375059
0.00369877
0.00364169
0.003581
0.00352115
0.00347039
0.00343872
0.00452334
0.00450566
0.0044803
0.00445161
0.00442124
0.00438989
0.00435787
0.00432519
0.00429163
0.00425674
0.00421982
0.00418006
0.00413651
0.00408819
0.00403431
0.00397473
0.00391073
0.00384626
0.00378966
0.00375362
0.00473818
0.00472427
0.00470336
0.00467924
0.00465333
0.00462625
0.00459826
0.00456938
0.00453941
0.00450797
0.00447445
0.0044381
0.00439806
0.00435344
0.00430347
0.00424788
0.00418757
0.00412574
0.00406977
0.00403321
0.00486343
0.004854
0.00483861
0.00482033
0.00480033
0.00477912
0.00475692
0.00473372
0.00470937
0.00468354
0.00465574
0.00462533
0.00459159
0.00455374
0.00451109
0.0044633
0.00441093
0.00435642
0.00430582
0.00427149
0.00493137
0.00492594
0.00491561
0.00490285
0.00488857
0.00487319
0.00485687
0.00483959
0.00482121
0.00480148
0.00478001
0.00475629
0.00472974
0.00469972
0.00466564
0.00462715
0.00458455
0.00453961
0.00449704
0.00446706
0.00496594
0.00496349
0.00495709
0.00494873
0.00493918
0.00492872
0.00491745
0.00490535
0.00489229
0.00487809
0.00486244
0.00484498
0.00482525
0.00480275
0.00477699
0.00474764
0.00471485
0.00467983
0.00464608
0.00462156
0.00498273
0.00498214
0.00497839
0.00497321
0.00496717
0.00496044
0.00495306
0.00494501
0.00493619
0.00492646
0.0049156
0.00490336
0.0048894
0.00487335
0.00485481
0.00483351
0.00480947
0.00478348
0.004758
0.00473898
0.00499099
0.00499109
0.00498895
0.0049859
0.00498226
0.00497813
0.00497351
0.00496837
0.00496266
0.00495627
0.00494905
0.00494083
0.00493138
0.00492043
0.00490769
0.00489293
0.00487611
0.00485767
0.00483916
0.00482477
4.9915e-54
4.98276e-54
4.97574e-54
4.97543e-54
4.98619e-54
5.01141e-54
5.05351e-54
5.11386e-54
5.1928e-54
5.28974e-54
5.40315e-54
5.53053e-54
5.66851e-54
5.81286e-54
5.95847e-54
6.09937e-54
6.22872e-54
6.33895e-54
6.42179e-54
6.46837e-54
2.64532e-53
2.63808e-53
2.63223e-53
2.63029e-53
2.63456e-53
2.64686e-53
2.66849e-53
2.70015e-53
2.74201e-53
2.79376e-53
2.85458e-53
2.92313e-53
2.99764e-53
3.07586e-53
3.1551e-53
3.23221e-53
3.30354e-53
3.36505e-53
3.41238e-53
3.44114e-53
9.86667e-53
9.82552e-53
9.79117e-53
9.77379e-53
9.7818e-53
9.82178e-53
9.89847e-53
1.00145e-52
1.01707e-52
1.03659e-52
1.05969e-52
1.08589e-52
1.11452e-52
1.14473e-52
1.17551e-52
1.20567e-52
1.23386e-52
1.25858e-52
1.27821e-52
1.29102e-52
3.4405e-52
3.42046e-52
3.4034e-52
3.39323e-52
3.39278e-52
3.4043e-52
3.42939e-52
3.46903e-52
3.52351e-52
3.59245e-52
3.67479e-52
3.76881e-52
3.87218e-52
3.98191e-52
4.0944e-52
4.20545e-52
4.31033e-52
4.40383e-52
4.48041e-52
4.53344e-52
1.17861e-51
1.16982e-51
1.16208e-51
1.15705e-51
1.15569e-51
1.15875e-51
1.16675e-51
1.18004e-51
1.19872e-51
1.22267e-51
1.25154e-51
1.28474e-51
1.32146e-51
1.36067e-51
1.40112e-51
1.44134e-51
1.47973e-51
1.51453e-51
1.54381e-51
1.56487e-51
4.01319e-51
3.97657e-51
3.94369e-51
3.92101e-51
3.91206e-51
3.91929e-51
3.94447e-51
3.98873e-51
4.05244e-51
4.13522e-51
4.23587e-51
4.35238e-51
4.48201e-51
4.62119e-51
4.76565e-51
4.91043e-51
5.05005e-51
5.17851e-51
5.28891e-51
5.37076e-51
1.36218e-50
1.34746e-50
1.33405e-50
1.32444e-50
1.31988e-50
1.32122e-50
1.32906e-50
1.34375e-50
1.36543e-50
1.39395e-50
1.42892e-50
1.46967e-50
1.51525e-50
1.56446e-50
1.61584e-50
1.66772e-50
1.71825e-50
1.76534e-50
1.80655e-50
1.83787e-50
4.61227e-50
4.55463e-50
4.50154e-50
4.46243e-50
4.4418e-50
4.44254e-50
4.46663e-50
4.51527e-50
4.58885e-50
4.68691e-50
4.80813e-50
4.9502e-50
5.10995e-50
5.28332e-50
5.46542e-50
5.65062e-50
5.83258e-50
6.00416e-50
6.15666e-50
6.27498e-50
1.55814e-49
1.53602e-49
1.51547e-49
1.50004e-49
1.49129e-49
1.49024e-49
1.49755e-49
1.51361e-49
1.53855e-49
1.57219e-49
1.6141e-49
1.66349e-49
1.71931e-49
1.7802e-49
1.84451e-49
1.91036e-49
1.97559e-49
2.03774e-49
2.09374e-49
2.13794e-49
5.25198e-49
5.16847e-49
5.09038e-49
5.03081e-49
4.99535e-49
4.98743e-49
5.00929e-49
5.06219e-49
5.14652e-49
5.2617e-49
5.40622e-49
5.57749e-49
5.77197e-49
5.98511e-49
6.21146e-49
6.44466e-49
6.67744e-49
6.90134e-49
7.10549e-49
7.26903e-49
1.76628e-48
1.73519e-48
1.70595e-48
1.68339e-48
1.66945e-48
1.66532e-48
1.67174e-48
1.68913e-48
1.7176e-48
1.75695e-48
1.80666e-48
1.86589e-48
1.93345e-48
2.00783e-48
2.08721e-48
2.16948e-48
2.25218e-48
2.33241e-48
2.40636e-48
2.46634e-48
5.92667e-48
5.8123e-48
5.70422e-48
5.62003e-48
5.56656e-48
5.54781e-48
5.56628e-48
5.62332e-48
5.71925e-48
5.85339e-48
6.02402e-48