/*--------------------------------*- C++ -*----------------------------------*\
| =========                 |                                                 |
| \\      /  F ield         | OpenFOAM: The Open Source CFD Toolbox           |
|  \\    /   O peration     | Version:  2.1.0                                 |
|   \\  /    A nd           | Web:      www.OpenFOAM.org                      |
|    \\/     M anipulation  |                                                 |
\*---------------------------------------------------------------------------*/
FoamFile
{
    version     2.0;
    format      ascii;
    class       volScalarField;
    location    "0.35";
    object      k;
}
// * * * * * * * * * * * * * * * * * * * * * * * * * * * * * * * * * * * * * //

dimensions      [0 2 -2 0 0 0 0];

internalField   nonuniform List<scalar> 
6400
(
0.0327268
0.0327842
0.0327943
0.0327972
0.0327855
0.0327798
0.0327585
0.0327482
0.0327216
0.0327078
0.0326782
0.0326601
0.0326284
0.0326055
0.0325721
0.0325444
0.0325092
0.032477
0.0324398
0.0324036
0.0323645
0.0323249
0.0322839
0.0322414
0.0321985
0.0321534
0.0321084
0.0320608
0.0320133
0.0319631
0.031913
0.0318601
0.0318071
0.0317513
0.031695
0.0316358
0.0315756
0.0315124
0.0314475
0.0313788
0.0313075
0.0312317
0.0311522
0.0310671
0.0309769
0.0308801
0.0307766
0.0306651
0.0305455
0.0304166
0.0302779
0.0301287
0.029967
0.0297895
0.0295961
0.02939
0.0291766
0.0289519
0.0287183
0.0284745
0.0282217
0.0279597
0.0276877
0.027406
0.0271133
0.0268096
0.0264944
0.0261668
0.0258222
0.0254642
0.0250874
0.0246947
0.0242814
0.0238505
0.0233984
0.0229281
0.0224379
0.0219312
0.0214082
0.0208727
0.0203257
0.0197682
0.0191934
0.0185778
0.0179165
0.017227
0.0164836
0.0156673
0.0147418
0.0136588
0.0123445
0.0106906
0.00860644
0.00612417
0.00347006
0.00235969
0.00274978
0.00552656
0.00876242
0.00991646
0.0524955
0.0528188
0.0529677
0.0532377
0.0534058
0.0536718
0.0538578
0.0541167
0.054319
0.0545717
0.0547876
0.0550358
0.0552622
0.0555075
0.0557418
0.0559854
0.0562251
0.0564679
0.0567115
0.0569547
0.0572015
0.0574462
0.0576966
0.0579451
0.0582009
0.0584551
0.0587172
0.0589783
0.0592472
0.0595157
0.0597918
0.0600681
0.0603518
0.0606364
0.060928
0.0612215
0.0615217
0.0618248
0.062135
0.0624469
0.0627639
0.0630823
0.0634039
0.0637257
0.0640481
0.0643683
0.0646858
0.0649975
0.0653024
0.0655979
0.0658826
0.0661572
0.066426
0.0666739
0.0669038
0.0671146
0.0673233
0.0675149
0.0676947
0.0678529
0.0679971
0.0681249
0.0682347
0.0683279
0.0683994
0.0684476
0.0684698
0.0684754
0.0684377
0.0683639
0.0682417
0.0680696
0.0678351
0.067534
0.0671543
0.0666897
0.0661295
0.0654674
0.0646948
0.0638077
0.0628016
0.0616782
0.0604418
0.0590827
0.0575498
0.0557972
0.0537903
0.051475
0.0487862
0.0456596
0.0420349
0.0378725
0.0332167
0.0283404
0.0233623
0.018636
0.014977
0.0123947
0.0107862
0.00922007
0.0583489
0.0588152
0.0590289
0.0594158
0.0596816
0.0600539
0.0603513
0.0607142
0.0610339
0.0613919
0.061728
0.0620845
0.0624329
0.0627901
0.0631475
0.0635062
0.0638699
0.0642301
0.0645972
0.0649578
0.0653269
0.0656887
0.0660589
0.0664228
0.0667968
0.0671657
0.0675441
0.0679182
0.0683007
0.0686794
0.0690656
0.0694483
0.0698375
0.0702236
0.0706147
0.071003
0.0713945
0.0717826
0.0721708
0.0725566
0.0729413
0.0733218
0.0736995
0.0740704
0.0744351
0.0747894
0.0751322
0.0754586
0.075765
0.076045
0.0762921
0.0764957
0.0766963
0.0768654
0.0770205
0.0771491
0.0772586
0.0773417
0.0774045
0.0774365
0.0774487
0.0774303
0.0773626
0.0772632
0.0771156
0.0769261
0.0766856
0.0763952
0.0760476
0.0756403
0.0751653
0.0746168
0.0739856
0.0732629
0.0724383
0.0715011
0.0704401
0.0692444
0.0679036
0.0664086
0.0647511
0.0629254
0.0609261
0.0587499
0.0564069
0.0539097
0.0512503
0.0484329
0.0454359
0.042246
0.0388223
0.0351316
0.0311517
0.0268779
0.0224288
0.0180793
0.0144208
0.011457
0.00928227
0.0071039
0.062575
0.0630805
0.0633125
0.0637512
0.0640599
0.0644809
0.0648305
0.0652399
0.0656145
0.0660179
0.066409
0.0668105
0.0672127
0.0676148
0.0680247
0.0684287
0.0688439
0.06925
0.0696684
0.0700757
0.0704921
0.0708941
0.0713008
0.0716888
0.0720848
0.0724711
0.0728634
0.0732454
0.0736313
0.0740063
0.0743831
0.0747481
0.0751124
0.0754639
0.0758118
0.0761458
0.0764729
0.0767864
0.0770887
0.0773731
0.0776458
0.0778969
0.0781326
0.078344
0.0785352
0.0786993
0.0788381
0.0789466
0.0790232
0.0790606
0.0790737
0.0790567
0.0789917
0.0788932
0.0787481
0.0785588
0.0783185
0.0780239
0.0776703
0.077251
0.0767661
0.0762092
0.0755779
0.0748671
0.0740735
0.0731924
0.0722217
0.0711578
0.0700001
0.0687459
0.0673967
0.0659511
0.0644129
0.0627822
0.0610636
0.0592589
0.0573728
0.0554083
0.0533699
0.0512603
0.0490837
0.0468422
0.0445393
0.0421769
0.0397593
0.0372879
0.0347682
0.0322226
0.0296465
0.0270573
0.0244564
0.0218592
0.0192713
0.0167127
0.0142146
0.0118556
0.00969029
0.00785466
0.00658538
0.00599002
0.0635466
0.0640102
0.0642186
0.0646284
0.0649053
0.0652965
0.0656087
0.0659821
0.0663128
0.0666718
0.0670109
0.0673581
0.067699
0.0680354
0.0683729
0.0686985
0.0690284
0.0693416
0.0696597
0.0699588
0.0702615
0.0705456
0.070829
0.0710955
0.0713604
0.0716078
0.0718515
0.072075
0.0722922
0.0724867
0.0726719
0.0728317
0.0729786
0.0730974
0.0731991
0.0732701
0.0733101
0.0733254
0.0733244
0.0732667
0.073191
0.0730638
0.0729067
0.0726991
0.0724528
0.0721548
0.0718112
0.071414
0.0709659
0.0704623
0.0699047
0.0692885
0.0686146
0.0678818
0.0670878
0.066238
0.0653265
0.0643569
0.0633263
0.0622367
0.0610881
0.0598813
0.0586185
0.0572999
0.0559292
0.0545064
0.0530367
0.0515197
0.0499617
0.0483624
0.0467285
0.0450598
0.0433642
0.0416416
0.0399061
0.0381531
0.0363954
0.0346297
0.0328688
0.0311105
0.0293674
0.0276395
0.0259395
0.0242679
0.0226368
0.021047
0.0195095
0.0180073
0.0165608
0.0151556
0.0138074
0.0125042
0.0112614
0.0100727
0.00895931
0.00793414
0.00702745
0.00639733
0.00612477
0.00612205
0.0596554
0.0599003
0.0600122
0.0602466
0.0604025
0.0606216
0.0607918
0.0609883
0.0611571
0.061329
0.0614871
0.0616334
0.0617739
0.061893
0.0620104
0.0621004
0.0621897
0.0622476
0.0623008
0.0623256
0.0623361
0.0623331
0.0622993
0.0622468
0.0621708
0.0620676
0.061949
0.061799
0.0616314
0.0614291
0.0612067
0.0609466
0.0606635
0.0603406
0.0599916
0.0596013
0.0591821
0.058722
0.0582294
0.0576939
0.0571264
0.056515
0.0558706
0.0551832
0.054462
0.0536996
0.0529032
0.052068
0.0511996
0.0502951
0.049359
0.0483898
0.0473912
0.0463634
0.0453092
0.0442295
0.0431268
0.042003
0.0408627
0.039708
0.0385418
0.0373663
0.0361849
0.0349992
0.0338134
0.0326285
0.0314492
0.0302761
0.0291145
0.0279645
0.0268318
0.025716
0.0246227
0.0235512
0.0225017
0.0214773
0.02048
0.0195114
0.0185753
0.017671
0.016799
0.0159561
0.0151463
0.0143651
0.0136161
0.0128935
0.0122004
0.0115305
0.0108862
0.0102598
0.00965404
0.00906112
0.00848557
0.00792394
0.00739077
0.00689619
0.00653519
0.00637818
0.00635208
0.0065694
0.049933
0.0498174
0.0497724
0.0497037
0.0496606
0.0495826
0.049523
0.0494227
0.0493378
0.0492092
0.0490941
0.0489341
0.0487858
0.0485926
0.0484091
0.0481814
0.0479614
0.0476984
0.0474413
0.0471437
0.0468478
0.046512
0.0461717
0.0457957
0.0454114
0.0449933
0.0445655
0.0441046
0.0436329
0.0431291
0.0426138
0.0420674
0.0415096
0.0409221
0.0403236
0.0396974
0.0390608
0.0383993
0.0377281
0.0370351
0.036335
0.0356176
0.0348952
0.0341591
0.0334204
0.032672
0.0319236
0.0311694
0.0304181
0.0296649
0.0289177
0.0281723
0.0274357
0.0267046
0.025985
0.0252707
0.0245706
0.0238797
0.0232033
0.0225373
0.0218871
0.0212494
0.0206286
0.0200214
0.0194313
0.0188558
0.0182985
0.0177535
0.0172254
0.0167091
0.0162084
0.0157184
0.0152422
0.0147751
0.0143196
0.0138714
0.0134323
0.0129982
0.0125694
0.0121449
0.0117383
0.01134
0.0109575
0.0105821
0.0102205
0.00986459
0.00952079
0.00918215
0.00885544
0.00853536
0.00823033
0.00793795
0.0076694
0.00742646
0.00723022
0.00710237
0.00704965
0.0070946
0.00743441
0.00762599
0.0366595
0.0362453
0.0360723
0.0357507
0.0355533
0.0352317
0.0350042
0.0346719
0.034413
0.0340646
0.0337747
0.0334074
0.0330873
0.0326997
0.0323504
0.0319415
0.0315641
0.0311334
0.0307286
0.0302756
0.0298466
0.02938
0.0289357
0.0284596
0.0280043
0.0275217
0.0270538
0.0265621
0.0260868
0.0255909
0.0251133
0.0246182
0.0241431
0.0236535
0.0231856
0.0227061
0.0222494
0.0217844
0.0213427
0.0208959
0.0204719
0.0200446
0.0196399
0.0192346
0.0188517
0.0184704
0.018111
0.0177549
0.0174201
0.01709
0.0167795
0.0164756
0.0161909
0.0159136
0.0156547
0.0154034
0.0151696
0.0149434
0.0147331
0.0145301
0.0143419
0.0141607
0.013993
0.0138321
0.0136838
0.013541
0.0134086
0.0132837
0.0131687
0.0130601
0.0129601
0.0128652
0.0127777
0.0126941
0.0126162
0.012541
0.0124699
0.0123998
0.012332
0.0122634
0.0121943
0.01212
0.0120417
0.0119542
0.0118584
0.0117491
0.0116268
0.0114871
0.0113316
0.0111578
0.0109705
0.0107722
0.0105738
0.0103857
0.0102504
0.0101911
0.0101834
0.0104241
0.0107843
0.0109607
0.0238672
0.0233121
0.0230837
0.0226534
0.022411
0.0219951
0.0217379
0.0213324
0.0210628
0.0206657
0.0203869
0.0199977
0.019713
0.0193321
0.0190443
0.0186726
0.0183848
0.0180235
0.0177384
0.0173892
0.0171108
0.0167783
0.0165114
0.0161972
0.0159436
0.0156489
0.0154103
0.0151363
0.0149147
0.0146626
0.0144592
0.01423
0.0140457
0.0138402
0.0136756
0.0134941
0.0133494
0.0131921
0.0130677
0.0129343
0.0128303
0.0127203
0.0126369
0.0125499
0.0124871
0.0124227
0.0123805
0.0123386
0.0123172
0.0123024
0.0122977
0.0123
0.0123203
0.012344
0.0123844
0.0124292
0.0124897
0.0125558
0.0126373
0.0127255
0.0128284
0.0129389
0.0130637
0.0131967
0.0133438
0.0134998
0.0136699
0.0138491
0.014042
0.014245
0.0144617
0.0146893
0.0149309
0.015184
0.0154514
0.0157309
0.0160246
0.0163309
0.016651
0.0169834
0.0173285
0.0176844
0.0180506
0.0184245
0.0188042
0.0191859
0.0195658
0.019938
0.0202982
0.0206399
0.0209587
0.021251
0.0215173
0.0217621
0.0219993
0.0222747
0.022721
0.0233187
0.0241421
0.0250318
0.01751
0.016963
0.0167422
0.0163225
0.0161042
0.0157057
0.0154916
0.0151159
0.0149082
0.0145565
0.0143575
0.0140306
0.0138424
0.013541
0.0133656
0.0130899
0.0129288
0.0126791
0.0125336
0.0123097
0.0121808
0.0119826
0.0118706
0.0116974
0.0116026
0.0114537
0.0113761
0.0112516
0.0111897
0.0110907
0.0110423
0.0109692
0.0109339
0.0108861
0.0108637
0.0108415
0.0108327
0.0108296
0.0108372
0.0108535
0.0108807
0.0109139
0.0109596
0.0110103
0.011074
0.0111425
0.011224
0.0113106
0.0114102
0.0115151
0.0116327
0.0117567
0.0118931
0.0120362
0.012192
0.0123551
0.012531
0.012715
0.012912
0.0131179
0.0133373
0.0135666
0.01381
0.0140647
0.0143343
0.0146164
0.0149145
0.0152267
0.015556
0.0159012
0.0162651
0.0166471
0.0170498
0.017473
0.0179193
0.0183892
0.0188852
0.0194085
0.0199616
0.0205462
0.0211655
0.0218218
0.0225186
0.0232594
0.0240484
0.02489
0.02579
0.0267554
0.027793
0.0289124
0.0301237
0.0314396
0.0328745
0.0344461
0.0361723
0.0380646
0.0401154
0.0423075
0.0438325
0.0444547
0.0214227
0.0208342
0.0205917
0.0201277
0.0198744
0.0194267
0.0191655
0.018735
0.0184696
0.0180575
0.0177917
0.0173992
0.017136
0.0167647
0.0165083
0.0161592
0.015913
0.0155871
0.015354
0.0150522
0.0148344
0.0145573
0.0143564
0.0141044
0.0139218
0.013695
0.0135317
0.01333
0.0131865
0.01301
0.0128864
0.012735
0.0126314
0.0125048
0.012421
0.0123191
0.0122549
0.0121772
0.0121329
0.0120802
0.0120544
0.0120303
0.0120208
0.0120179
0.0120276
0.0120481
0.0120793
0.0121204
0.0121728
0.0122346
0.0123081
0.0123908
0.0124855
0.0125894
0.0127056
0.0128313
0.0129692
0.0131168
0.013277
0.0134472
0.01363
0.0138236
0.0140305
0.0142489
0.0144813
0.0147261
0.0149856
0.0152587
0.0155473
0.0158509
0.016171
0.0165075
0.0168622
0.0172351
0.017628
0.0180416
0.0184774
0.0189366
0.0194209
0.0199321
0.0204721
0.0210431
0.0216474
0.022288
0.0229676
0.0236901
0.0244588
0.0252781
0.0261518
0.0270861
0.0280868
0.0291685
0.0303393
0.0316182
0.0330256
0.0345905
0.0363491
0.0382764
0.0398341
0.0405197
0.0325195
0.0319644
0.0317289
0.031278
0.0310076
0.0305594
0.0302549
0.0298038
0.0294692
0.029014
0.0286544
0.028196
0.0278117
0.027345
0.0269408
0.0264677
0.0260493
0.0255731
0.0251459
0.0246702
0.0242392
0.0237677
0.0233376
0.0228739
0.0224491
0.0219966
0.0215811
0.0211432
0.0207406
0.0203202
0.0199339
0.0195339
0.0191667
0.0187893
0.0184436
0.0180904
0.0177674
0.0174395
0.0171408
0.0168398
0.0165667
0.0162935
0.0160464
0.0158025
0.015583
0.0153688
0.0151769
0.014992
0.0148278
0.0146717
0.0145347
0.0144067
0.0142967
0.0141963
0.0141131
0.0140398
0.0139819
0.0139338
0.0139003
0.0138794
0.0138702
0.013868
0.0138813
0.0139044
0.0139399
0.0139852
0.0140418
0.0141078
0.0141841
0.0142686
0.0143615
0.0144615
0.0145684
0.0146812
0.014799
0.0149212
0.0150464
0.0151742
0.0153028
0.0154317
0.0155591
0.0156845
0.0158058
0.0159228
0.0160333
0.0161374
0.0162332
0.0163223
0.0164021
0.0164762
0.0165431
0.0166005
0.0166568
0.0167297
0.0168379
0.0170245
0.0173451
0.0178774
0.0186116
0.0196587
0.0455937
0.0452694
0.045132
0.0448688
0.0446993
0.0444242
0.044216
0.0439175
0.0436681
0.0433411
0.0430507
0.0426925
0.0423622
0.0419717
0.0416019
0.0411787
0.0407702
0.0403143
0.0398686
0.0393806
0.0388994
0.0383806
0.0378662
0.0373183
0.0367734
0.0361989
0.0356267
0.0350289
0.0344332
0.0338159
0.0332011
0.0325687
0.0319399
0.0312974
0.0306599
0.0300131
0.0293735
0.028724
0.0280817
0.0274347
0.0267975
0.0261602
0.0255352
0.0249141
0.0243076
0.0237082
0.0231254
0.0225527
0.0219979
0.0214547
0.0209293
0.0204168
0.0199223
0.0194413
0.0189777
0.0185274
0.0180949
0.0176751
0.0172716
0.0168831
0.0165104
0.0161518
0.0158085
0.0154768
0.0151586
0.0148504
0.0145542
0.0142653
0.0139851
0.0137135
0.0134517
0.0131964
0.0129492
0.0127072
0.0124713
0.0122394
0.0120119
0.0117875
0.0115661
0.0113471
0.0111301
0.0109154
0.0107026
0.0104928
0.0102854
0.0100827
0.00988211
0.00968688
0.00949585
0.00931432
0.00914183
0.00898677
0.00884808
0.00873703
0.00868191
0.00866436
0.0087771
0.00903672
0.00944145
0.00962062
0.0569598
0.0569787
0.0569939
0.0570228
0.0570401
0.0570482
0.0570507
0.0570301
0.0570022
0.0569444
0.0568815
0.0567824
0.0566839
0.056548
0.0564115
0.056236
0.0560573
0.0558389
0.0556144
0.05535
0.0550763
0.0547629
0.0544372
0.054073
0.0536933
0.0532753
0.0528392
0.0523663
0.0518729
0.0513438
0.0507926
0.0502067
0.0495978
0.0489555
0.0482901
0.047593
0.0468732
0.0461239
0.0453526
0.044554
0.0437349
0.042891
0.042029
0.0411453
0.0402463
0.0393299
0.0384011
0.0374595
0.0365093
0.0355518
0.0345912
0.0336284
0.0326673
0.0317092
0.0307576
0.029814
0.028882
0.027963
0.0270603
0.026174
0.0253072
0.0244549
0.023623
0.0228095
0.022019
0.0212495
0.0205044
0.019783
0.0190875
0.018414
0.0177636
0.0171344
0.0165268
0.0159389
0.0153702
0.0148189
0.0142841
0.0137638
0.0132573
0.0127625
0.0122783
0.0118024
0.0113337
0.0108704
0.0104111
0.00997533
0.00954883
0.00914983
0.00876061
0.00839951
0.00805041
0.00773257
0.00743009
0.0071709
0.00692554
0.00676806
0.0066975
0.006696
0.0070274
0.00721631
0.0632043
0.0635383
0.0636879
0.063984
0.0641819
0.0644574
0.064673
0.0649239
0.0651405
0.0653676
0.0655762
0.0657801
0.0659751
0.0661555
0.0663312
0.066486
0.0666374
0.066764
0.0668862
0.0669812
0.0670695
0.0671287
0.0671731
0.0671926
0.0671984
0.0671762
0.0671294
0.0670555
0.0669562
0.066826
0.0666688
0.0664774
0.0662559
0.0659968
0.0657041
0.0653705
0.0649996
0.0645901
0.0641431
0.0636545
0.0631257
0.0625513
0.0619341
0.0612705
0.0605617
0.0598065
0.0590047
0.0581573
0.0572635
0.0563256
0.0553429
0.0543184
0.053252
0.0521473
0.0510045
0.0498273
0.0486172
0.0473776
0.0461107
0.04482
0.0435093
0.0421855
0.0408488
0.0395057
0.0381573
0.0368094
0.0354636
0.0341252
0.0327957
0.03148
0.0301797
0.0288995
0.0276406
0.0264072
0.0252004
0.0240233
0.0228766
0.0217552
0.0206646
0.0196028
0.0185727
0.0175745
0.0166088
0.0156769
0.0147782
0.0139127
0.0130749
0.0122658
0.0114817
0.0107254
0.00999337
0.00928855
0.00860945
0.00796477
0.00736471
0.00681507
0.0064003
0.00621145
0.00617253
0.00635887
0.064365
0.0648555
0.0650756
0.0654987
0.0657864
0.0661885
0.0665113
0.0668957
0.0672373
0.0676085
0.0679593
0.0683207
0.0686746
0.0690276
0.0693799
0.0697247
0.070072
0.0704077
0.0707465
0.0710716
0.0713989
0.0717108
0.0720233
0.0723202
0.0726148
0.0728923
0.0731644
0.0734195
0.0736666
0.0738966
0.0741181
0.0743208
0.0745114
0.0746812
0.0748351
0.0749657
0.0750758
0.0751614
0.07522
0.0752476
0.0752561
0.0752308
0.0751656
0.0750679
0.074927
0.0747469
0.0745192
0.0742461
0.0739205
0.0735434
0.0731086
0.0726169
0.0720631
0.0714489
0.0707696
0.0700243
0.0692134
0.0683346
0.0673887
0.0663742
0.0652923
0.064145
0.0629338
0.0616595
0.0603236
0.0589294
0.0574777
0.0559735
0.054417
0.0528148
0.0511668
0.0494804
0.0477552
0.0459989
0.0442105
0.0423981
0.0405603
0.0387142
0.0368511
0.0349854
0.0331097
0.0312378
0.0293639
0.0275018
0.0256477
0.0238161
0.0220059
0.0202307
0.0184939
0.0167891
0.0151381
0.0135416
0.0120237
0.0105911
0.00928676
0.00808657
0.00708465
0.00635351
0.00603034
0.00600289
0.0616879
0.0621939
0.0624251
0.0628509
0.0631513
0.0635579
0.0638956
0.0642903
0.0646508
0.0650399
0.0654154
0.0658028
0.0661884
0.0665763
0.066969
0.0673586
0.0677561
0.0681479
0.0685486
0.0689422
0.0693444
0.069739
0.0701411
0.0705349
0.0709341
0.071324
0.0717159
0.0720961
0.0724724
0.0728312
0.0731949
0.0735501
0.0739067
0.0742561
0.0746053
0.0749489
0.0752923
0.0756255
0.0759535
0.0762717
0.0765824
0.0768802
0.0771669
0.07744
0.0776979
0.0779397
0.078162
0.0783651
0.0785445
0.0787005
0.078829
0.078929
0.0789907
0.0790185
0.0790247
0.0789793
0.0788988
0.0787702
0.0785946
0.0783643
0.0780759
0.077724
0.077302
0.0768045
0.0762234
0.0755599
0.0748038
0.0739581
0.0730092
0.0719631
0.0708066
0.0695477
0.0681763
0.0667024
0.065118
0.0634353
0.0616486
0.0597696
0.057794
0.0557318
0.0535789
0.0513427
0.0490175
0.0466079
0.0441065
0.0415159
0.0388315
0.0360542
0.0331881
0.0302564
0.0272606
0.0242221
0.021168
0.018145
0.0152637
0.0125258
0.0101334
0.00809105
0.00662675
0.00592575
0.0564188
0.0568548
0.0570549
0.0574144
0.0576627
0.0580089
0.0582862
0.058624
0.0589217
0.0592554
0.0595682
0.0599013
0.0602259
0.0605606
0.0608947
0.0612325
0.0615742
0.0619159
0.0622637
0.0626094
0.062962
0.0633111
0.0636671
0.0640188
0.0643764
0.0647294
0.0650873
0.0654404
0.0657977
0.0661523
0.0665143
0.0668751
0.0672428
0.06761
0.0679825
0.0683542
0.0687282
0.0691038
0.0694822
0.0698618
0.0702434
0.0706256
0.0710089
0.071392
0.0717748
0.0721561
0.0725354
0.0729126
0.073287
0.0736563
0.0740174
0.0743679
0.0747025
0.0750177
0.0753038
0.0755466
0.0757663
0.0759687
0.0761445
0.0762964
0.0764182
0.0765133
0.0765794
0.0766176
0.0766336
0.0766298
0.0765543
0.0764514
0.07628
0.076064
0.0757766
0.0754314
0.0749986
0.0744904
0.0738765
0.0731618
0.0723164
0.071339
0.0702011
0.0688973
0.0674023
0.0657107
0.0638025
0.0616752
0.0593147
0.0567262
0.0538991
0.0508426
0.0475551
0.0440437
0.0402691
0.0362135
0.0318657
0.027252
0.0225364
0.0182307
0.014457
0.0116263
0.00943965
0.00727145
0.0498245
0.0501171
0.0502513
0.0504939
0.050645
0.0508858
0.0510531
0.0512887
0.0514716
0.0517027
0.0518993
0.0521279
0.0523359
0.0525638
0.052781
0.0530095
0.053234
0.0534639
0.0536938
0.0539255
0.0541594
0.0543927
0.0546292
0.0548638
0.0551021
0.0553381
0.0555779
0.0558159
0.0560586
0.0563013
0.0565495
0.0567986
0.0570535
0.0573097
0.0575713
0.0578347
0.0581035
0.0583754
0.0586527
0.0589337
0.0592201
0.0595108
0.0598073
0.0601088
0.0604165
0.0607303
0.061051
0.0613756
0.0617031
0.0620321
0.0623609
0.0626882
0.0630118
0.0633304
0.0636421
0.0639491
0.0642579
0.0645669
0.0648728
0.0651744
0.0654626
0.0657317
0.0659647
0.0661674
0.0663566
0.066522
0.066669
0.0667965
0.0668949
0.066961
0.06699
0.0669955
0.0669304
0.0668151
0.0666187
0.0663454
0.0659671
0.0654815
0.0648622
0.0641034
0.063181
0.062088
0.0608042
0.0593237
0.0576318
0.0557316
0.0535736
0.0511568
0.0483421
0.0450724
0.0412951
0.0369401
0.0322209
0.0273321
0.0224693
0.0180585
0.014617
0.0122321
0.0107463
0.00922432
0.0308147
0.0308501
0.0308526
0.0308439
0.0308213
0.0308097
0.0307795
0.0307648
0.030732
0.030715
0.0306811
0.0306612
0.0306269
0.0306035
0.0305689
0.0305418
0.0305065
0.0304756
0.0304389
0.0304044
0.0303659
0.0303277
0.030287
0.0302454
0.0302023
0.0301578
0.0301124
0.0300653
0.0300179
0.0299689
0.0299197
0.0298686
0.0298173
0.029764
0.0297104
0.0296549
0.0295991
0.0295415
0.0294833
0.0294235
0.0293629
0.0293006
0.0292373
0.0291722
0.0291057
0.0290368
0.0289656
0.0288908
0.0288123
0.0287293
0.0286415
0.0285484
0.0284498
0.0283456
0.0282358
0.0281212
0.0280012
0.0278737
0.0277366
0.0275873
0.0274217
0.0272364
0.0270253
0.0267958
0.0265589
0.0263061
0.0260469
0.0257721
0.0254868
0.0251856
0.0248712
0.0245402
0.0241852
0.0238125
0.0234116
0.0229876
0.0225317
0.0220472
0.0215276
0.0209755
0.0203863
0.0197624
0.019101
0.0184044
0.0176702
0.0168948
0.0160523
0.0151027
0.013995
0.0127058
0.0111451
0.00922561
0.00703874
0.00493573
0.00301845
0.002322
0.00260741
0.00527781
0.00862311
0.00984742
0.00947175
0.00467523
0.00403011
0.00390125
0.00387306
0.00389728
0.00381764
0.00378031
0.00376546
0.00376246
0.00378482
0.00385634
0.00413207
0.00471385
0.00547073
0.00654963
0.00691929
0.00690167
0.00576813
0.0034073
0.00777536
0.00468038
0.00428948
0.00419027
0.00416643
0.00404594
0.0039664
0.00393162
0.00391973
0.00392215
0.00397526
0.00416233
0.00455542
0.00513811
0.00621515
0.0068664
0.00700314
0.00676005
0.00519681
0.00278801
0.00621337
0.00478481
0.00460525
0.00454139
0.00436894
0.00426737
0.00419955
0.0041724
0.00416435
0.00417714
0.00430421
0.00456508
0.00504782
0.00598677
0.00679396
0.00704854
0.00703874
0.006481
0.00457003
0.00215772
0.00579567
0.00511643
0.00503458
0.00479468
0.004637
0.00452158
0.00446411
0.00443985
0.00443749
0.00453876
0.00476354
0.00519393
0.0060582
0.00686471
0.00719195
0.00725255
0.0069789
0.00603061
0.00378888
0.00155231
0.00591847
0.00548209
0.00534389
0.00505433
0.00493959
0.004867
0.004849
0.00488264
0.00500124
0.00528346
0.00568181
0.006505
0.00718074
0.00748674
0.00757359
0.00739649
0.00678419
0.00541109
0.00294657
0.00102368
0.0062855
0.00593575
0.00580209
0.00561756
0.00558549
0.00559418
0.00572069
0.00595192
0.00637102
0.00689285
0.00751294
0.0079946
0.00820076
0.00824421
0.00796089
0.00732878
0.00637566
0.00459723
0.00190458
0.000565612
0.00721833
0.00709225
0.00707658
0.00710491
0.00737969
0.00770179
0.00824893
0.00894638
0.00961788
0.00981855
0.00988378
0.00974582
0.00941966
0.00884083
0.00802572
0.00708386
0.00565551
0.00349489
0.00115664
0.000250302
0.0108648
0.0113027
0.0118063
0.0124621
0.0134172
0.0144029
0.0148827
0.0150332
0.0140086
0.0134102
0.0123246
0.0115353
0.0103158
0.00918533
0.00785267
0.00645732
0.00447185
0.00226228
0.000649131
9.13429e-05
0.0252819
0.0257598
0.0259617
0.0259604
0.0252684
0.0239043
0.0222503
0.0199781
0.0182408
0.0162926
0.0144965
0.0126827
0.0107495
0.0089553
0.00710159
0.00505474
0.00299212
0.00134838
0.000405919
4.41327e-05
0.0412002
0.0394197
0.0374513
0.0346602
0.0321253
0.0285402
0.0259092
0.0227414
0.0203521
0.0174732
0.0152131
0.0124809
0.0101492
0.00737408
0.00519955
0.00319674
0.00196222
0.000966242
0.000394581
7.44843e-05
0.037991
0.0364528
0.0348653
0.0323878
0.0302306
0.0269279
0.0245112
0.0216094
0.0194446
0.0167925
0.0147988
0.0122099
0.0102519
0.00747366
0.00543701
0.00317832
0.00189163
0.000823895
0.000307078
6.16118e-05
0.0200491
0.0209771
0.0214924
0.0217486
0.0218334
0.021124
0.0199186
0.0180585
0.0167573
0.0149693
0.0137712
0.011949
0.010614
0.00879325
0.00721399
0.00516528
0.00296354
0.00117821
0.000302578
4.1226e-05
0.00946238
0.00965975
0.0100663
0.0105316
0.0113219
0.0122348
0.0130259
0.0133374
0.0131614
0.0122374
0.0117903
0.0108618
0.0100327
0.00897937
0.00782062
0.00649078
0.00456312
0.00224413
0.000570748
5.04744e-05
0.00684562
0.00666354
0.00660849
0.0065819
0.00675248
0.00699209
0.00741831
0.00801007
0.00878907
0.00916012
0.00933752
0.00940529
0.00914719
0.00870763
0.00794875
0.00707255
0.00567903
0.00353849
0.00107963
0.000131592
0.00610423
0.00576812
0.00563651
0.00543413
0.00538403
0.00537011
0.00545105
0.0056243
0.00598416
0.00643802
0.00712744
0.00772569
0.0080134
0.00809215
0.00792542
0.0073107
0.00638947
0.00465408
0.00191967
0.000439823
0.00578534
0.00538211
0.00525244
0.00496798
0.0048511
0.0047688
0.00474288
0.00475437
0.00485322
0.00509464
0.00547339
0.00624347
0.00702722
0.00738746
0.00749086
0.00738739
0.00679547
0.00545772
0.00301034
0.000939599
0.00568088
0.00502044
0.00494827
0.0047425
0.00458468
0.00447278
0.00440723
0.00437757
0.0043689
0.00445136
0.00466508
0.00506383
0.00588268
0.00677676
0.00715273
0.00722376
0.00698956
0.00607237
0.00386158
0.0015157
0.00618037
0.00473049
0.00453186
0.00446415
0.00432329
0.0042177
0.00415361
0.00412714
0.00411927
0.00412816
0.0042418
0.00449519
0.0049554
0.00585595
0.00674201
0.00703788
0.0070442
0.00651577
0.00464134
0.00216005
0.00780272
0.00465301
0.00425681
0.00414859
0.00411579
0.00402076
0.00393445
0.00389734
0.00388537
0.0038881
0.00393747
0.0041078
0.00449765
0.00507827
0.00613498
0.00684544
0.00700228
0.00678729
0.00525926
0.00281884
0.00947273
0.0046519
0.0039944
0.00386871
0.00383934
0.00385322
0.00379557
0.0037534
0.00373866
0.0037357
0.00375959
0.00382628
0.00407671
0.00463904
0.00541924
0.00652125
0.00691882
0.0069202
0.00582856
0.00345126
0.00397118
0.00375019
0.00374679
0.0037468
0.00374652
0.00374628
0.00374612
0.00374604
0.003746
0.00374598
0.00374598
0.003746
0.00374604
0.00374612
0.00374628
0.00374652
0.0037468
0.00374679
0.00375019
0.00397118
0.00441489
0.00375346
0.00374141
0.00374096
0.00374056
0.00374012
0.00373987
0.00373975
0.00373969
0.00373966
0.00373966
0.00373969
0.00373975
0.00373987
0.00374012
0.00374056
0.00374096
0.00374141
0.00375346
0.00441489
0.0048594
0.00376059
0.00373287
0.00373264
0.00373284
0.00373273
0.00373256
0.00373242
0.00373235
0.00373231
0.00373231
0.00373235
0.00373242
0.00373256
0.00373273
0.00373284
0.00373264
0.00373287
0.00376059
0.0048594
0.00530179
0.00377206
0.0037243
0.00372396
0.00372492
0.00372524
0.00372525
0.00372519
0.00372514
0.00372512
0.00372512
0.00372514
0.00372519
0.00372525
0.00372524
0.00372492
0.00372396
0.0037243
0.00377206
0.00530179
0.00573924
0.00378544
0.00371551
0.00371483
0.00371665
0.00371758
0.00371789
0.00371795
0.00371795
0.00371795
0.00371795
0.00371795
0.00371795
0.00371789
0.00371758
0.00371665
0.00371483
0.0037155
0.00378544
0.00573924
0.00617057
0.00379767
0.00370577
0.0037051
0.003708
0.00370969
0.00371043
0.0037107
0.00371078
0.0037108
0.0037108
0.00371078
0.0037107
0.00371043
0.00370969
0.003708
0.0037051
0.00370577
0.00379767
0.00617057
0.00659185
0.00380847
0.00369498
0.00369474
0.00369894
0.00370155
0.00370284
0.0037034
0.00370361
0.00370368
0.00370368
0.00370361
0.0037034
0.00370284
0.00370155
0.00369894
0.00369474
0.00369498
0.00380847
0.00659185
0.00700085
0.00381671
0.00368272
0.00368362
0.00368941
0.00369311
0.00369508
0.00369602
0.00369642
0.00369656
0.00369656
0.00369642
0.00369602
0.00369508
0.00369311
0.00368941
0.00368362
0.00368272
0.00381671
0.00700085
0.00739336
0.00382333
0.00366915
0.00367174
0.00367942
0.00368437
0.00368714
0.00368854
0.00368919
0.00368943
0.00368943
0.00368919
0.00368854
0.00368714
0.00368437
0.00367942
0.00367174
0.00366915
0.00382333
0.00739336
0.00776767
0.00382735
0.00365405
0.00365903
0.00366893
0.00367532
0.00367898
0.00368095
0.0036819
0.00368228
0.00368228
0.0036819
0.00368095
0.00367898
0.00367532
0.00366893
0.00365903
0.00365405
0.00382735
0.00776767
0.00812023
0.00383021
0.00363765
0.00364552
0.00365794
0.00366592
0.00367061
0.00367321
0.00367453
0.00367507
0.00367507
0.00367453
0.00367321
0.00367061
0.00366592
0.00365794
0.00364552
0.00363765
0.00383021
0.00812023
0.00845035
0.00383068
0.00361989
0.00363122
0.00364645
0.0036562
0.00366201
0.00366531
0.00366705
0.00366779
0.00366779
0.00366705
0.00366531
0.00366201
0.0036562
0.00364645
0.00363122
0.00361989
0.00383069
0.00845035
0.00875525
0.00383018
0.0036009
0.00361613
0.00363446
0.00364613
0.00365316
0.00365725
0.00365946
0.00366041
0.00366041
0.00365946
0.00365725
0.00365316
0.00364613
0.00363446
0.00361613
0.0036009
0.00383018
0.00875525
0.00903545
0.00382886
0.00358085
0.00360032
0.00362199
0.00363573
0.00364408
0.00364901
0.00365173
0.00365292
0.00365292
0.00365173
0.00364901
0.00364408
0.00363573
0.00362199
0.00360032
0.00358085
0.00382886
0.00903544
0.00928895
0.00382647
0.00355981
0.0035838
0.00360904
0.003625
0.00363475
0.00364059
0.00364385
0.00364531
0.00364531
0.00364385
0.00364059
0.00363475
0.003625
0.00360904
0.0035838
0.00355981
0.00382648
0.00928894
0.00951739
0.00382339
0.00353793
0.00356664
0.00359565
0.00361394
0.00362518
0.00363197
0.00363582
0.00363755
0.00363755
0.00363582
0.00363197
0.00362518
0.00361394
0.00359565
0.00356664
0.00353794
0.0038234
0.00951738
0.00971929
0.00382011
0.00351531
0.00354885
0.00358181
0.00360255
0.00361535
0.00362316
0.00362762
0.00362964
0.00362964
0.00362762
0.00362316
0.00361535
0.00360255
0.00358181
0.00354885
0.00351531
0.00382011
0.00971928
0.00989731
0.00381662
0.00349216
0.00353055
0.00356757
0.00359087
0.00360529
0.00361414
0.00361924
0.00362157
0.00362157
0.00361924
0.00361414
0.00360529
0.00359087
0.00356758
0.00353055
0.00349216
0.00381663
0.0098973
0.0100502
0.00381347
0.00346849
0.0035117
0.00355293
0.00357887
0.00359499
0.00360492
0.00361068
0.00361332
0.00361332
0.00361068
0.00360492
0.00359499
0.00357887
0.00355293
0.0035117
0.00346849
0.00381347
0.0100502
0.0101815
0.00381057
0.00344462
0.00349247
0.00353795
0.0035666
0.00358445
0.0035955
0.00360193
0.0036049
0.0036049
0.00360193
0.0035955
0.00358445
0.0035666
0.00353795
0.00349248
0.00344463
0.00381058
0.0101815
0.0102898
0.00380853
0.00342046
0.00347279
0.0035226
0.00355404
0.00357367
0.00358587
0.003593
0.0035963
0.0035963
0.003593
0.00358587
0.00357367
0.00355404
0.0035226
0.00347279
0.00342046
0.00380853
0.0102897
0.0103794
0.00380713
0.00339643
0.00345287
0.00350698
0.00354123
0.00356267
0.00357603
0.00358387
0.00358751
0.00358751
0.00358387
0.00357603
0.00356267
0.00354123
0.00350698
0.00345288
0.00339645
0.00380714
0.0103794
0.0104486
0.00380736
0.0033723
0.00343259
0.00349103
0.00352816
0.00355145
0.003566
0.00357455
0.00357853
0.00357853
0.00357455
0.003566
0.00355145
0.00352816
0.00349103
0.00343258