/*--------------------------------*- C++ -*----------------------------------*\
| =========                 |                                                 |
| \\      /  F ield         | OpenFOAM: The Open Source CFD Toolbox           |
|  \\    /   O peration     | Version:  2.1.0                                 |
|   \\  /    A nd           | Web:      www.OpenFOAM.org                      |
|    \\/     M anipulation  |                                                 |
\*---------------------------------------------------------------------------*/
FoamFile
{
    version     2.0;
    format      ascii;
    class       volScalarField;
    location    "0.35";
    object      nut;
}
// * * * * * * * * * * * * * * * * * * * * * * * * * * * * * * * * * * * * * //

dimensions      [0 2 -1 0 0 0 0];

internalField   nonuniform List<scalar> 
6400
(
7.12175e-06
7.14194e-06
7.15329e-06
7.16874e-06
7.18306e-06
7.20023e-06
7.21501e-06
7.23314e-06
7.24842e-06
7.26722e-06
7.28315e-06
7.30228e-06
7.31903e-06
7.33836e-06
7.35599e-06
7.37556e-06
7.3941e-06
7.414e-06
7.4335e-06
7.4539e-06
7.4744e-06
7.49551e-06
7.51708e-06
7.53907e-06
7.56177e-06
7.58479e-06
7.60868e-06
7.63284e-06
7.65798e-06
7.6834e-06
7.70985e-06
7.73663e-06
7.76448e-06
7.79272e-06
7.82204e-06
7.85182e-06
7.88266e-06
7.91403e-06
7.94639e-06
7.97922e-06
8.01293e-06
8.04707e-06
8.08193e-06
8.11711e-06
8.15281e-06
8.18867e-06
8.22481e-06
8.26093e-06
8.29708e-06
8.33304e-06
8.36874e-06
8.40395e-06
8.43818e-06
8.47052e-06
8.50087e-06
8.53011e-06
8.55983e-06
8.58891e-06
8.61799e-06
8.64682e-06
8.67577e-06
8.70486e-06
8.73398e-06
8.7633e-06
8.79245e-06
8.8216e-06
8.85066e-06
8.87952e-06
8.90672e-06
8.93361e-06
8.95849e-06
8.98254e-06
9.00428e-06
9.02494e-06
9.04353e-06
9.06148e-06
9.07859e-06
9.09681e-06
9.11708e-06
9.14217e-06
9.17406e-06
9.21538e-06
9.26564e-06
9.31643e-06
9.36801e-06
9.43327e-06
9.5029e-06
9.56906e-06
9.60878e-06
9.57939e-06
9.39514e-06
8.89066e-06
7.82295e-06
5.99265e-06
3.50394e-06
2.31601e-06
2.40573e-06
3.78034e-06
3.8761e-06
4.18232e-06
7.5859e-05
7.62964e-05
7.63786e-05
7.66569e-05
7.67501e-05
7.69787e-05
7.70907e-05
7.72865e-05
7.74136e-05
7.75865e-05
7.77228e-05
7.78787e-05
7.80187e-05
7.81612e-05
7.82999e-05
7.8431e-05
7.85647e-05
7.86855e-05
7.88118e-05
7.89231e-05
7.90408e-05
7.91434e-05
7.92522e-05
7.93474e-05
7.94484e-05
7.95367e-05
7.96292e-05
7.971e-05
7.97933e-05
7.98654e-05
7.99384e-05
8.00004e-05
8.00615e-05
8.01119e-05
8.01592e-05
8.01956e-05
8.02267e-05
8.02463e-05
8.02617e-05
8.02645e-05
8.02587e-05
8.02391e-05
8.02072e-05
8.01589e-05
8.0094e-05
8.00087e-05
7.99016e-05
7.97691e-05
7.96092e-05
7.94188e-05
7.91957e-05
7.89406e-05
7.86617e-05
7.83395e-05
7.78834e-05
7.72236e-05
7.65331e-05
7.57977e-05
7.50258e-05
7.42074e-05
7.33522e-05
7.24581e-05
7.15241e-05
7.05527e-05
6.95388e-05
6.84816e-05
6.73793e-05
6.6242e-05
6.50448e-05
6.37965e-05
6.24877e-05
6.11202e-05
5.96863e-05
5.81865e-05
5.66156e-05
5.49743e-05
5.32605e-05
5.14763e-05
4.96229e-05
4.77054e-05
4.57286e-05
4.37017e-05
4.16351e-05
3.95289e-05
3.73572e-05
3.51022e-05
3.27581e-05
3.0312e-05
2.77531e-05
2.50813e-05
2.2311e-05
1.94792e-05
1.66608e-05
1.40019e-05
1.14971e-05
9.23466e-06
7.49178e-06
6.28748e-06
5.67795e-06
6.86677e-06
0.000115744
0.000115954
0.000116036
0.000116108
0.000116175
0.000116208
0.000116263
0.000116269
0.00011631
0.000116293
0.000116317
0.000116278
0.00011628
0.000116219
0.000116195
0.00011611
0.000116055
0.000115942
0.000115852
0.000115709
0.000115583
0.000115409
0.000115247
0.000115042
0.000114847
0.000114617
0.000114391
0.000114134
0.000113875
0.000113587
0.000113295
0.000112974
0.000112645
0.000112289
0.000111922
0.000111528
0.00011112
0.000110686
0.000110227
0.000109743
0.000109233
0.000108693
0.000108124
0.000107522
0.000106887
0.000106212
0.000105497
0.000104736
0.000103925
0.000103056
0.000102104
0.00010065
9.91716e-05
9.76417e-05
9.60877e-05
9.44974e-05
9.28783e-05
9.1225e-05
8.9547e-05
8.78349e-05
8.61037e-05
8.43437e-05
8.25378e-05
8.07089e-05
7.88428e-05
7.69501e-05
7.50257e-05
7.30748e-05
7.10951e-05
6.90889e-05
6.70539e-05
6.49902e-05
6.28957e-05
6.0769e-05
5.86087e-05
5.64132e-05
5.41818e-05
5.19145e-05
4.96124e-05
4.72781e-05
4.49157e-05
4.25315e-05
4.01327e-05
3.77287e-05
3.53386e-05
3.29819e-05
3.06676e-05
2.84118e-05
2.62175e-05
2.40921e-05
2.20105e-05
1.99898e-05
1.80078e-05
1.59746e-05
1.39372e-05
1.19282e-05
1.01333e-05
8.61957e-06
8.12509e-06
1.13119e-05
0.000137324
0.000136967
0.000136829
0.000136505
0.000136365
0.000136019
0.000135852
0.000135489
0.000135285
0.000134907
0.000134662
0.000134267
0.000133979
0.000133563
0.000133231
0.00013279
0.000132414
0.000131945
0.000131523
0.000131019
0.000130544
0.000129993
0.000129454
0.00012864
0.000127648
0.000126615
0.000125572
0.000124493
0.000123405
0.000122281
0.000121146
0.000119976
0.000118792
0.000117574
0.000116339
0.000115072
0.000113784
0.000112467
0.000111127
0.000109754
0.00010836
0.000106932
0.000105483
0.000104
0.000102494
0.000100956
9.93933e-05
9.78013e-05
9.61823e-05
9.45307e-05
9.28666e-05
9.11934e-05
8.94849e-05
8.77649e-05
8.60225e-05
8.42643e-05
8.24838e-05
8.0681e-05
7.88544e-05
7.7002e-05
7.51283e-05
7.32321e-05
7.13162e-05
6.93806e-05
6.74273e-05
6.54572e-05
6.34739e-05
6.14794e-05
5.94785e-05
5.74739e-05
5.54716e-05
5.34752e-05
5.14919e-05
4.9525e-05
4.75819e-05
4.56658e-05
4.37825e-05
4.19344e-05
4.01253e-05
3.83548e-05
3.66239e-05
3.49297e-05
3.3265e-05
3.16267e-05
3.00255e-05
2.84268e-05
2.68395e-05
2.52546e-05
2.36656e-05
2.20653e-05
2.04496e-05
1.88147e-05
1.71512e-05
1.54388e-05
1.36814e-05
1.19652e-05
1.05048e-05
9.77199e-06
1.19109e-05
1.20609e-05
0.000138258
0.000138225
0.000137962
0.000137752
0.000136993
0.000136357
0.000135453
0.000134636
0.000133682
0.000132767
0.000131782
0.000130801
0.000129786
0.000128752
0.000127703
0.000126622
0.000125535
0.000124408
0.000123279
0.000122107
0.000120932
0.000119719
0.000118495
0.000117244
0.000115988
0.000114699
0.000113404
0.000112078
0.000110747
0.000109386
0.000108019
0.000106623
0.00010522
0.000103789
0.000102349
0.000100884
9.93972e-05
9.78989e-05
9.64038e-05
9.48612e-05
9.33255e-05
9.17566e-05
9.01858e-05
8.85907e-05
8.69899e-05
8.5371e-05
8.37454e-05
8.2107e-05
8.04634e-05
7.88127e-05
7.71588e-05
7.55016e-05
7.38397e-05
7.21731e-05
7.05015e-05
6.88332e-05
6.71645e-05
6.55015e-05
6.38429e-05
6.21929e-05
6.05527e-05
5.89249e-05
5.73124e-05
5.57161e-05
5.4139e-05
5.25809e-05
5.10449e-05
4.95297e-05
4.8038e-05
4.65672e-05
4.51146e-05
4.3684e-05
4.22848e-05
4.08844e-05
3.95176e-05
3.815e-05
3.68045e-05
3.54554e-05
3.41179e-05
3.27711e-05
3.14262e-05
3.00685e-05
2.8706e-05
2.73339e-05
2.59574e-05
2.45749e-05
2.32001e-05
2.18241e-05
2.0468e-05
1.91288e-05
1.78254e-05
1.6556e-05
1.53433e-05
1.41711e-05
1.30911e-05
1.22661e-05
1.20837e-05
1.37495e-05
1.37862e-05
1.4126e-05
0.00012469
0.000123968
0.000123565
0.000122987
0.000122088
0.000121169
0.00012011
0.000119047
0.000117928
0.000116796
0.000115648
0.000114475
0.000113306
0.000112104
0.000110917
0.000109693
0.000108488
0.000107246
0.000106021
0.000104768
0.000103517
0.000102268
0.000100996
9.97192e-05
9.84346e-05
9.71303e-05
9.58302e-05
9.45075e-05
9.31891e-05
9.18479e-05
9.05109e-05
8.91519e-05
8.77973e-05
8.64227e-05
8.50524e-05
8.36653e-05
8.22829e-05
8.0889e-05
7.94984e-05
7.80988e-05
7.67068e-05
7.53079e-05
7.39184e-05
7.25259e-05
7.1144e-05
6.9763e-05
6.83934e-05
6.70284e-05
6.56755e-05
6.43297e-05
6.29956e-05
6.16696e-05
6.0356e-05
5.90523e-05
5.77601e-05
5.6481e-05
5.52141e-05
5.39646e-05
5.27261e-05
5.15001e-05
5.02861e-05
4.9083e-05
4.78905e-05
4.67071e-05
4.55324e-05
4.43644e-05
4.32032e-05
4.20473e-05
4.08974e-05
3.97516e-05
3.86117e-05
3.74794e-05
3.63543e-05
3.5236e-05
3.41251e-05
3.30206e-05
3.19276e-05
3.08431e-05
2.97784e-05
2.87239e-05
2.76901e-05
2.66709e-05
2.56753e-05
2.46973e-05
2.3745e-05
2.28114e-05
2.1901e-05
2.10127e-05
2.01612e-05
1.93443e-05
1.8581e-05
1.78768e-05
1.72623e-05
1.6772e-05
1.65335e-05
1.6635e-05
1.60615e-05
1.58181e-05
1.57931e-05
1.32061e-05
0.000109108
0.00010786
0.000107331
0.000106443
0.000105546
0.000104456
0.000103415
0.000102251
0.000101156
9.99672e-05
9.88502e-05
9.7656e-05
9.65298e-05
9.53371e-05
9.42075e-05
9.30204e-05
9.18914e-05
9.07129e-05
8.95897e-05
8.84244e-05
8.73031e-05
8.61472e-05
8.50312e-05
8.38872e-05
8.27754e-05
8.16427e-05
8.05401e-05
7.94195e-05
7.8326e-05
7.7217e-05
7.61329e-05
7.50353e-05
7.39607e-05
7.28745e-05
7.18092e-05
7.07344e-05
6.96783e-05
6.86145e-05
6.75651e-05
6.65086e-05
6.54748e-05
6.44315e-05
6.34053e-05
6.23738e-05
6.13571e-05
6.03366e-05
5.93288e-05
5.83188e-05
5.73203e-05
5.63209e-05
5.53318e-05
5.43435e-05
5.33664e-05
5.23935e-05
5.14339e-05
5.04711e-05
4.95221e-05
4.85758e-05
4.76414e-05
4.67123e-05
4.57965e-05
4.48898e-05
4.39994e-05
4.31215e-05
4.22595e-05
4.14137e-05
4.05907e-05
3.9785e-05
3.90033e-05
3.82415e-05
3.75052e-05
3.67869e-05
3.60923e-05
3.54163e-05
3.47623e-05
3.41257e-05
3.35073e-05
3.29012e-05
3.22488e-05
3.12836e-05
3.03382e-05
2.93953e-05
2.84728e-05
2.75543e-05
2.66573e-05
2.5766e-05
2.48978e-05
2.40387e-05
2.32079e-05
2.23939e-05
2.16183e-05
2.08741e-05
2.01821e-05
1.95476e-05
1.90027e-05
1.86025e-05
1.8341e-05
1.82396e-05
1.8933e-05
1.49379e-05
9.87282e-05
9.69057e-05
9.6372e-05
9.52766e-05
9.44616e-05
9.32863e-05
9.23681e-05
9.11952e-05
9.02481e-05
8.91089e-05
8.81621e-05
8.70639e-05
8.6128e-05
8.50687e-05
8.41459e-05
8.31203e-05
8.22093e-05
8.12106e-05
8.03081e-05
7.92241e-05
7.80368e-05
7.67573e-05
7.55741e-05
7.43239e-05
7.31677e-05
7.19564e-05
7.08372e-05
6.96661e-05
6.85903e-05
6.74676e-05
6.64411e-05
6.53728e-05
6.44004e-05
6.33895e-05
6.24733e-05
6.1524e-05
6.06663e-05
5.97815e-05
5.8984e-05
5.81645e-05
5.74236e-05
5.66654e-05
5.59778e-05
5.52772e-05
5.46402e-05
5.39932e-05
5.34029e-05
5.28047e-05
5.22563e-05
5.17005e-05
5.1188e-05
5.0669e-05
5.0183e-05
4.96892e-05
4.92257e-05
4.8752e-05
4.83025e-05
4.78393e-05
4.73926e-05
4.69296e-05
4.64775e-05
4.60067e-05
4.55364e-05
4.5047e-05
4.45734e-05
4.40741e-05
4.35747e-05
4.30672e-05
4.25619e-05
4.20472e-05
4.15348e-05
4.1013e-05
4.04934e-05
3.99644e-05
3.94371e-05
3.89004e-05
3.83644e-05
3.78188e-05
3.72735e-05
3.67154e-05
3.61525e-05
3.55698e-05
3.49768e-05
3.43594e-05
3.37255e-05
3.30616e-05
3.23743e-05
3.16524e-05
3.09046e-05
3.01243e-05
2.93263e-05
2.85146e-05
2.77158e-05
2.69509e-05
2.63158e-05
2.58447e-05
2.54641e-05
2.56183e-05
2.61479e-05
2.05185e-05
8.16147e-05
7.95405e-05
7.87016e-05
7.71461e-05
7.62845e-05
7.4842e-05
7.39633e-05
7.25996e-05
7.17454e-05
7.04503e-05
6.96209e-05
6.8394e-05
6.75945e-05
6.64363e-05
6.56708e-05
6.45826e-05
6.38553e-05
6.28384e-05
6.21536e-05
6.12093e-05
6.05726e-05
5.97097e-05
5.91268e-05
5.83457e-05
5.78194e-05
5.71177e-05
5.6649e-05
5.60229e-05
5.56108e-05
5.50566e-05
5.46977e-05
5.42113e-05
5.39016e-05
5.34805e-05
5.32159e-05
5.28552e-05
5.26287e-05
5.23222e-05
5.2129e-05
5.18692e-05
5.17034e-05
5.14818e-05
5.13387e-05
5.11479e-05
5.10227e-05
5.08559e-05
5.07346e-05
5.05837e-05
5.0497e-05
5.03657e-05
5.02592e-05
5.0119e-05
5.00385e-05
4.99162e-05
4.98419e-05
4.97355e-05
4.96678e-05
4.95772e-05
4.95208e-05
4.94483e-05
4.94051e-05
4.93511e-05
4.93217e-05
4.92857e-05
4.92706e-05
4.92522e-05
4.92548e-05
4.92547e-05
4.92726e-05
4.92902e-05
4.93237e-05
4.9358e-05
4.9406e-05
4.94557e-05
4.95169e-05
4.95796e-05
4.96511e-05
4.97228e-05
4.97997e-05
4.98747e-05
4.99496e-05
5.00173e-05
5.00775e-05
5.01223e-05
5.01489e-05
5.01485e-05
5.01151e-05
5.00374e-05
4.99107e-05
4.97243e-05
4.94752e-05
4.91602e-05
4.87852e-05
4.83615e-05
4.79164e-05
4.75283e-05
4.73947e-05
4.74934e-05
4.80312e-05
3.97956e-05
7.38458e-05
7.19736e-05
7.12248e-05
6.98201e-05
6.91201e-05
6.77969e-05
6.71405e-05
6.5906e-05
6.52939e-05
6.41493e-05
6.35834e-05
6.25285e-05
6.20106e-05
6.10449e-05
6.05757e-05
5.96973e-05
5.92772e-05
5.84838e-05
5.81123e-05
5.74005e-05
5.70764e-05
5.64423e-05
5.61627e-05
5.56012e-05
5.53629e-05
5.48686e-05
5.46679e-05
5.42389e-05
5.40654e-05
5.37054e-05
5.35452e-05
5.3246e-05
5.30988e-05
5.28726e-05
5.2733e-05
5.25667e-05
5.24337e-05
5.23006e-05
5.21867e-05
5.20871e-05
5.20068e-05
5.19267e-05
5.18743e-05
5.18173e-05
5.17909e-05
5.17583e-05
5.17557e-05
5.17481e-05
5.17689e-05
5.17842e-05
5.1827e-05
5.18673e-05
5.19358e-05
5.2002e-05
5.2096e-05
5.21891e-05
5.23091e-05
5.24295e-05
5.25751e-05
5.2723e-05
5.28947e-05
5.30707e-05
5.32698e-05
5.34756e-05
5.37035e-05
5.394e-05
5.41977e-05
5.44658e-05
5.47545e-05
5.50553e-05
5.53766e-05
5.57117e-05
5.60676e-05
5.64394e-05
5.68326e-05
5.72439e-05
5.76777e-05
5.81321e-05
5.86106e-05
5.91127e-05
5.96411e-05
6.01966e-05
6.07816e-05
6.1398e-05
6.20484e-05
6.27355e-05
6.34629e-05
6.42359e-05
6.50582e-05
6.59364e-05
6.68762e-05
6.78854e-05
6.8971e-05
7.01421e-05
7.1404e-05
7.27515e-05
7.41586e-05
7.56254e-05
7.63474e-05
6.62144e-05
8.04251e-05
7.83525e-05
7.7535e-05
7.59526e-05
7.51531e-05
7.36624e-05
7.28843e-05
7.14895e-05
7.07383e-05
6.94427e-05
6.87246e-05
6.75299e-05
6.6849e-05
6.57559e-05
6.51224e-05
6.41252e-05
6.35444e-05
6.26397e-05
6.21141e-05
6.12983e-05
6.08286e-05
6.00975e-05
5.96825e-05
5.90311e-05
5.86686e-05
5.80914e-05
5.77779e-05
5.72694e-05
5.70003e-05
5.65547e-05
5.63242e-05
5.59364e-05
5.57387e-05
5.5403e-05
5.5232e-05
5.49428e-05
5.47925e-05
5.45441e-05
5.44033e-05
5.41916e-05
5.40794e-05
5.39121e-05
5.37888e-05
5.36475e-05
5.3537e-05
5.34311e-05
5.3344e-05
5.32602e-05
5.31957e-05
5.31343e-05
5.30927e-05
5.30545e-05
5.3036e-05
5.30221e-05
5.30273e-05
5.30364e-05
5.30672e-05
5.31033e-05
5.31603e-05
5.32237e-05
5.33061e-05
5.33968e-05
5.35065e-05
5.36258e-05
5.37635e-05
5.39122e-05
5.40786e-05
5.42572e-05
5.44528e-05
5.46617e-05
5.48866e-05
5.51259e-05
5.53814e-05
5.56523e-05
5.59392e-05
5.62431e-05
5.6564e-05
5.69036e-05
5.72616e-05
5.76403e-05
5.80394e-05
5.84618e-05
5.89072e-05
5.93792e-05
5.98777e-05
6.04068e-05
6.09666e-05
6.15612e-05
6.21904e-05
6.28595e-05
6.35706e-05
6.43404e-05
6.517e-05
6.60782e-05
6.70783e-05
6.81956e-05
6.94704e-05
7.08792e-05
7.19289e-05
6.30554e-05
0.000100022
9.77676e-05
9.68376e-05
9.50873e-05
9.40851e-05
9.24234e-05
9.13594e-05
8.97742e-05
8.86629e-05
8.71488e-05
8.60049e-05
8.4571e-05
8.34029e-05
8.20027e-05
8.08675e-05
7.95154e-05
7.84075e-05
7.71095e-05
7.60364e-05
7.4798e-05
7.37665e-05
7.25921e-05
7.16085e-05
7.05014e-05
6.95708e-05
6.85336e-05
6.76583e-05
6.66934e-05
6.58782e-05
6.49862e-05
6.42324e-05
6.34129e-05
6.27214e-05
6.1973e-05
6.13433e-05
6.06625e-05
6.00905e-05
5.94738e-05
5.89563e-05
5.83995e-05
5.79318e-05
5.74298e-05
5.70041e-05
5.65485e-05
5.61566e-05
5.57413e-05
5.53774e-05
5.49945e-05
5.46521e-05
5.42935e-05
5.39666e-05
5.36255e-05
5.33025e-05
5.29682e-05
5.26686e-05
5.23513e-05
5.20511e-05
5.17473e-05
5.14574e-05
5.11755e-05
5.08978e-05
5.06097e-05
5.03409e-05
5.00749e-05
4.98181e-05
4.95654e-05
4.93192e-05
4.90797e-05
4.88462e-05
4.86171e-05
4.83895e-05
4.81638e-05
4.79369e-05
4.77086e-05
4.74743e-05
4.72353e-05
4.69858e-05
4.67279e-05
4.64552e-05
4.61701e-05
4.58678e-05
4.55513e-05
4.52144e-05
4.48608e-05
4.44848e-05
4.40907e-05
4.36742e-05
4.32427e-05
4.27906e-05
4.23288e-05
4.18542e-05
4.13638e-05
4.08737e-05
4.04133e-05
4.00119e-05
3.97334e-05
3.96684e-05
3.99444e-05
4.0593e-05
3.43189e-05
0.000107221
0.000105682
0.000105009
0.00010387
0.000102934
0.000101692
0.000100641
9.93795e-05
9.82844e-05
9.70395e-05
9.59324e-05
9.47151e-05
9.36124e-05
9.24237e-05
9.13329e-05
9.01727e-05
8.90955e-05
8.79627e-05
8.69005e-05
8.57937e-05
8.47471e-05
8.36642e-05
8.26333e-05
8.15728e-05
8.05572e-05
7.9513e-05
7.85154e-05
7.74942e-05
7.6511e-05
7.55063e-05
7.45367e-05
7.35517e-05
7.25972e-05
7.16315e-05
7.06927e-05
6.97471e-05
6.88266e-05
6.78895e-05
6.69675e-05
6.60357e-05
6.5119e-05
6.41984e-05
6.3293e-05
6.23899e-05
6.1503e-05
6.06224e-05
5.97622e-05
5.89119e-05
5.80851e-05
5.72708e-05
5.64806e-05
5.57061e-05
5.4957e-05
5.4225e-05
5.35179e-05
5.28278e-05
5.21699e-05
5.15323e-05
5.07921e-05
5.00319e-05
4.92772e-05
4.85229e-05
4.77714e-05
4.70121e-05
4.62504e-05
4.54783e-05
4.47021e-05
4.39122e-05
4.31087e-05
4.22984e-05
4.14983e-05
4.06853e-05
3.98695e-05
3.90513e-05
3.82317e-05
3.74122e-05
3.65924e-05
3.57757e-05
3.49603e-05
3.41515e-05
3.33412e-05
3.25373e-05
3.17355e-05
3.09444e-05
3.01601e-05
2.93917e-05
2.86307e-05
2.78883e-05
2.71596e-05
2.64598e-05
2.5785e-05
2.51561e-05
2.45677e-05
2.40479e-05
2.36714e-05
2.33641e-05
2.33454e-05
2.36202e-05
2.43683e-05
1.8909e-05
0.00012152
0.000120389
0.000119842
0.000118953
0.000117965
0.000116819
0.00011567
0.000114423
0.000113197
0.000111901
0.000110635
0.00010931
0.000108025
0.000106691
0.000105395
0.000104053
0.000102747
0.000101399
0.000100081
9.87277e-05
9.74009e-05
9.60428e-05
9.47086e-05
9.33493e-05
9.20105e-05
9.06506e-05
8.93094e-05
8.79526e-05
8.66112e-05
8.52576e-05
8.39182e-05
8.25713e-05
8.12377e-05
7.98993e-05
7.85742e-05
7.72475e-05
7.59346e-05
7.46256e-05
7.33311e-05
7.20418e-05
7.07659e-05
6.94958e-05
6.8236e-05
6.69825e-05
6.57486e-05
6.45119e-05
6.32918e-05
6.20734e-05
6.08682e-05
5.96676e-05
5.84794e-05
5.7297e-05
5.61257e-05
5.49613e-05
5.38077e-05
5.26621e-05
5.15281e-05
5.04056e-05
4.92972e-05
4.82025e-05
4.71245e-05
4.60539e-05
4.49965e-05
4.39498e-05
4.29209e-05
4.19067e-05
4.09117e-05
3.99399e-05
3.89937e-05
3.80713e-05
3.71758e-05
3.63072e-05
3.54675e-05
3.46569e-05
3.38711e-05
3.3112e-05
3.2378e-05
3.16688e-05
3.09836e-05
3.03203e-05
2.96731e-05
2.90457e-05
2.84316e-05
2.78337e-05
2.68354e-05
2.58638e-05
2.49029e-05
2.39998e-05
2.31117e-05
2.22859e-05
2.14816e-05
2.07478e-05
2.00415e-05
1.94204e-05
1.88133e-05
1.84063e-05
1.81777e-05
1.79889e-05
1.87229e-05
1.44603e-05
0.000138161
0.000137542
0.000137129
0.000136551
0.000135566
0.000134578
0.000133405
0.000132242
0.000130994
0.000129744
0.000128458
0.000127155
0.000125841
0.000124498
0.000123157
0.000121782
0.000120413
0.000119008
0.000117611
0.000116179
0.000114755
0.000113299
0.000111841
0.000110365
0.000108893
0.000107404
0.000105907
0.000104401
0.000102892
0.000101375
9.9855e-05
9.83203e-05
9.67798e-05
9.52244e-05
9.36633e-05
9.20888e-05
9.05093e-05
8.89259e-05
8.73427e-05
8.57567e-05
8.4172e-05
8.25839e-05
8.09984e-05
7.94129e-05
7.78312e-05
7.62529e-05
7.46802e-05
7.31147e-05
7.15574e-05
7.00108e-05
6.84753e-05
6.69534e-05
6.54451e-05
6.39528e-05
6.24754e-05
6.10145e-05
5.95696e-05
5.81411e-05
5.67264e-05
5.53332e-05
5.39566e-05
5.25976e-05
5.12611e-05
4.99399e-05
4.86381e-05
4.73496e-05
4.60764e-05
4.48138e-05
4.35628e-05
4.23199e-05
4.10859e-05
3.98585e-05
3.86379e-05
3.74233e-05
3.62199e-05
3.50244e-05
3.3839e-05
3.26608e-05
3.14912e-05
3.03334e-05
2.91852e-05
2.80554e-05
2.69386e-05
2.58451e-05
2.47666e-05
2.37116e-05
2.26746e-05
2.16622e-05
2.06702e-05
1.97039e-05
1.87768e-05
1.78862e-05
1.70603e-05
1.63848e-05
1.5945e-05
1.61151e-05
1.60775e-05
1.58681e-05
1.58849e-05
1.31681e-05
0.000149684
0.000149844
0.000149571
0.000149377
0.000148565
0.000147881
0.0001469
0.000146012
0.000144972
0.000143977
0.000142903
0.000141839
0.000140732
0.000139613
0.000138472
0.000137305
0.000136125
0.000134913
0.000133694
0.000132439
0.000131177
0.000129879
0.000128573
0.000127233
0.000125883
0.000124499
0.000123103
0.000121678
0.000120237
0.000118778
0.000117307
0.00011581
0.000114301
0.00011277
0.000111226
0.00010966
0.000108081
0.000106483
0.000104867
0.000103229
0.000101589
9.99296e-05
9.82459e-05
9.65511e-05
9.48352e-05
9.31067e-05
9.13592e-05
8.95993e-05
8.78227e-05
8.60349e-05
8.42334e-05
8.24234e-05
8.06039e-05
7.87812e-05
7.69536e-05
7.5125e-05
7.32973e-05
7.14679e-05
6.96394e-05
6.78128e-05
6.59922e-05
6.41815e-05
6.2384e-05
6.06019e-05
5.88382e-05
5.70959e-05
5.53765e-05
5.36831e-05
5.20155e-05
5.03772e-05
4.87666e-05
4.71863e-05
4.56331e-05
4.4103e-05
4.25997e-05
4.11327e-05
3.96652e-05
3.82349e-05
3.68029e-05
3.53927e-05
3.39746e-05
3.25635e-05
3.11369e-05
2.97055e-05
2.82513e-05
2.67848e-05
2.52999e-05
2.37999e-05
2.22934e-05
2.07777e-05
1.9269e-05
1.77639e-05
1.62622e-05
1.48278e-05
1.34945e-05
1.24414e-05
1.20866e-05
1.36337e-05
1.38511e-05
1.43393e-05
0.000142661
0.000142354
0.000142232
0.000141915
0.000141777
0.000141433
0.000141262
0.000140901
0.000140691
0.000140317
0.000140067
0.000139678
0.000139387
0.000138977
0.000138642
0.000138208
0.000137829
0.000137366
0.000136942
0.000136447
0.000135977
0.000135445
0.000134926
0.000134352
0.000133781
0.000133157
0.000132526
0.000131844
0.000131142
0.000130064
0.000128878
0.000127656
0.00012642
0.000125156
0.000123877
0.000122575
0.000121259
0.000119913
0.000118546
0.000117151
0.000115734
0.000114286
0.000112813
0.000111311
0.000109781
0.000108222
0.000106633
0.000105015
0.000103366
0.000101688
9.99792e-05
9.82419e-05
9.64672e-05
9.4665e-05
9.28527e-05
9.10015e-05
8.9135e-05
8.72398e-05
8.53242e-05
8.3386e-05
8.14276e-05
7.9449e-05
7.7449e-05
7.54275e-05
7.33793e-05
7.13105e-05
6.92175e-05
6.71089e-05
6.4979e-05
6.28393e-05
6.06852e-05
5.85296e-05
5.63704e-05
5.42214e-05
5.20819e-05
4.99663e-05
4.78742e-05
4.58187e-05
4.37989e-05
4.18246e-05
3.98932e-05
3.80099e-05
3.61691e-05
3.4371e-05
3.25964e-05
3.08506e-05
2.91457e-05
2.7416e-05
2.57037e-05
2.39644e-05
2.22085e-05
2.03977e-05
1.85199e-05
1.65778e-05
1.46441e-05
1.2714e-05
1.10523e-05
1.00845e-05
1.19776e-05
1.21327e-05
0.000117573
0.000117813
0.000117905
0.000117988
0.00011806
0.000118105
0.000118166
0.000118184
0.000118231
0.000118227
0.000118257
0.000118231
0.00011824
0.000118196
0.000118183
0.000118119
0.000118081
0.000117996
0.000117931
0.000117822
0.000117726
0.00011759
0.000117462
0.000117295
0.00011713
0.00011693
0.000116725
0.000116488
0.000116242
0.000115968
0.000115692
0.00011539
0.000115083
0.000114752
0.000114412
0.000114049
0.000113671
0.000113276
0.000112859
0.00011242
0.000111957
0.000111468
0.000110952
0.000110407
0.00010983
0.000109217
0.000108576
0.000107902
0.000107199
0.000106464
0.000105687
0.000104865
0.000103992
0.000103064
0.00010207
0.000100769
9.91549e-05
9.74949e-05
9.57852e-05
9.40347e-05
9.22408e-05
9.04112e-05
8.85483e-05
8.66568e-05
8.47421e-05
8.281e-05
8.08084e-05
7.87906e-05
7.67188e-05
7.46236e-05
7.24838e-05
7.03189e-05
6.81078e-05
6.58687e-05
6.35821e-05
6.12612e-05
5.88897e-05
5.64771e-05
5.40116e-05
5.15013e-05
4.89401e-05
4.63383e-05
4.36969e-05
4.10302e-05
3.83469e-05
3.56697e-05
3.30139e-05
3.04072e-05
2.78731e-05
2.54339e-05
2.30653e-05
2.07749e-05
1.85548e-05
1.63094e-05
1.41386e-05
1.21377e-05
1.03218e-05
8.92449e-06
8.3829e-06
1.15358e-05
7.51709e-05
7.56166e-05
7.56999e-05
7.59784e-05
7.60706e-05
7.63001e-05
7.64117e-05
7.66096e-05
7.67376e-05
7.69142e-05
7.70532e-05
7.72152e-05
7.736e-05
7.75114e-05
7.76579e-05
7.78009e-05
7.79454e-05
7.80809e-05
7.82205e-05
7.83484e-05
7.84808e-05
7.86003e-05
7.87235e-05
7.88335e-05
7.89458e-05
7.90455e-05
7.91463e-05
7.92356e-05
7.93254e-05
7.9406e-05
7.94868e-05
7.95586e-05
7.96289e-05
7.969e-05
7.97475e-05
7.97951e-05
7.98366e-05
7.98681e-05
7.98947e-05
7.99118e-05
7.99219e-05
7.99225e-05
7.99147e-05
7.98972e-05
7.98706e-05
7.98345e-05
7.97896e-05
7.97309e-05
7.96568e-05
7.95643e-05
7.94502e-05
7.93126e-05
7.91476e-05
7.89533e-05
7.87265e-05
7.84687e-05
7.81889e-05
7.78848e-05
7.75511e-05
7.71864e-05
7.67801e-05
7.63261e-05
7.5703e-05
7.48099e-05
7.38639e-05
7.28592e-05
7.18046e-05
7.07015e-05
6.95404e-05
6.83199e-05
6.70362e-05
6.5705e-05
6.42817e-05
6.27907e-05
6.1207e-05
5.95409e-05
5.77742e-05
5.59142e-05
5.39487e-05
5.18848e-05
4.97167e-05
4.74534e-05
4.50951e-05
4.26542e-05
4.01366e-05
3.7562e-05
3.49161e-05
3.22214e-05
2.94207e-05
2.65232e-05
2.35491e-05
2.05048e-05
1.75218e-05
1.46511e-05
1.19588e-05
9.60032e-06
7.7791e-06
6.54346e-06
5.87728e-06
6.77427e-06
6.9779e-06
6.99603e-06
7.0083e-06
7.0236e-06
7.03766e-06
7.05565e-06
7.0703e-06
7.0893e-06
7.10477e-06
7.12451e-06
7.14089e-06
7.16108e-06
7.17851e-06
7.19905e-06
7.21755e-06
7.23844e-06
7.258e-06
7.27929e-06
7.29986e-06
7.32163e-06
7.34318e-06
7.36554e-06
7.38805e-06
7.41114e-06
7.43466e-06
7.45866e-06
7.48332e-06
7.50843e-06
7.53438e-06
7.56082e-06
7.58818e-06
7.61605e-06
7.64491e-06
7.67434e-06
7.70482e-06
7.73597e-06
7.76825e-06
7.80134e-06
7.83564e-06
7.87088e-06
7.90739e-06
7.945e-06
7.98396e-06
8.02416e-06
8.06576e-06
8.10865e-06
8.15291e-06
8.1983e-06
8.24496e-06
8.29275e-06
8.34176e-06
8.392e-06
8.44355e-06
8.49659e-06
8.55133e-06
8.60813e-06
8.66702e-06
8.7275e-06
8.78915e-06
8.85138e-06
8.91305e-06
8.97332e-06
9.03037e-06
9.08666e-06
9.1463e-06
9.20662e-06
9.27124e-06
9.33743e-06
9.40754e-06
9.48012e-06
9.55694e-06
9.63741e-06
9.71936e-06
9.80625e-06
9.89463e-06
9.9876e-06
1.00824e-05
1.01816e-05
1.02834e-05
1.03901e-05
1.0501e-05
1.06186e-05
1.07432e-05
1.0878e-05
1.10236e-05
1.11799e-05
1.13301e-05
1.14402e-05
1.14522e-05
1.13042e-05
1.0831e-05
9.78659e-06
8.05142e-06
5.91888e-06
3.63476e-06
2.64276e-06
2.56005e-06
3.91964e-06
4.01975e-06
4.33179e-06
1.0939e-05
2.07702e-06
2.60022e-06
3.51713e-06
4.54815e-06
5.62317e-06
6.48702e-06
7.33616e-06
8.14913e-06
8.90513e-06
9.61862e-06
1.03368e-05
1.14522e-05
1.33277e-05
1.54626e-05
1.78483e-05
1.75997e-05
1.55476e-05
1.0294e-05
3.99785e-06
5.87778e-06
2.18584e-06
2.47491e-06
3.18417e-06
4.05631e-06
4.86374e-06
5.69243e-06
6.55121e-06
7.41445e-06
8.2979e-06
9.27197e-06
1.03682e-05
1.20181e-05
1.40881e-05
1.70398e-05
1.83186e-05
1.74927e-05
1.47145e-05
9.53812e-06
3.97034e-06
4.94497e-06
2.69514e-06
2.90107e-06
3.41663e-06
4.01075e-06
4.71667e-06
5.48079e-06
6.31528e-06
7.22094e-06
8.38713e-06
9.50591e-06
1.10128e-05
1.29269e-05
1.58189e-05
1.80157e-05
1.8301e-05
1.71533e-05
1.40121e-05
8.88079e-06
3.84653e-06
5.05601e-06
3.43946e-06
3.63818e-06
3.87577e-06
4.36845e-06
4.92887e-06
5.67338e-06
6.58131e-06
7.71338e-06
9.48342e-06
1.12064e-05
1.29386e-05
1.57178e-05
1.82017e-05
1.91842e-05
1.88107e-05
1.70274e-05
1.3245e-05
7.98513e-06
3.26873e-06
5.68872e-06
4.47737e-06
4.61715e-06
4.63428e-06
5.19444e-06
5.69295e-06
6.58521e-06
7.8417e-06
9.59641e-06
1.30925e-05
1.47597e-05
1.7067e-05
1.93306e-05
2.04178e-05
2.04222e-05
1.92113e-05
1.65475e-05
1.25041e-05
6.904e-06
2.38909e-06
6.89568e-06
5.97767e-06
6.04906e-06
6.02783e-06
6.77353e-06
7.76852e-06
9.34963e-06
1.16015e-05
1.61058e-05
1.94959e-05
2.09671e-05
2.23564e-05
2.30493e-05
2.2851e-05
2.16605e-05
1.9112e-05
1.59625e-05
1.15786e-05
5.17045e-06
1.47391e-06
9.04421e-06
8.6287e-06
8.86013e-06
9.46359e-06
1.11798e-05
1.36662e-05
1.70733e-05
2.20152e-05
2.87507e-05
2.93999e-05
2.90817e-05
2.82957e-05
2.68987e-05
2.47717e-05
2.17031e-05
1.85277e-05
1.48435e-05
1.0159e-05
3.84179e-06
7.15873e-07
1.46624e-05
1.61422e-05
1.73699e-05
1.96662e-05
2.31963e-05
2.75191e-05
3.3091e-05
4.00541e-05
3.99364e-05
3.77665e-05
3.42935e-05
3.16766e-05
2.81246e-05
2.49271e-05
2.08625e-05
1.70965e-05
1.29575e-05
8.13936e-06
2.79008e-06
2.75854e-07
3.25473e-05
3.55067e-05
3.67345e-05
3.91964e-05
4.36534e-05
4.79951e-05
5.20738e-05
4.78412e-05
4.42323e-05
4.02964e-05
3.64387e-05
3.26322e-05
2.84297e-05
2.33418e-05
1.85888e-05
1.40958e-05
1.02454e-05
6.63282e-06
2.51877e-06
1.35616e-07
5.28313e-05
5.57159e-05
5.59711e-05
5.74742e-05
6.2325e-05
5.95441e-05
5.52403e-05
5.02926e-05
4.61908e-05
4.12404e-05
3.71487e-05
3.19783e-05
2.70445e-05
1.97905e-05
1.4106e-05
9.78531e-06
7.91115e-06
6.72294e-06
3.34371e-06
2.26325e-07
5.03301e-05
5.3062e-05
5.34331e-05
5.50175e-05
5.98163e-05
5.78397e-05
5.37234e-05
4.89686e-05
4.51044e-05
4.03225e-05
3.66351e-05
3.15167e-05
2.7634e-05
2.05048e-05
1.4863e-05
9.90891e-06
7.52512e-06
5.70184e-06
2.64441e-06
1.881e-07
2.8e-05
3.08965e-05
3.22599e-05
3.47341e-05
3.91326e-05
4.36763e-05
4.96321e-05
4.56409e-05
4.26537e-05
3.84373e-05
3.56797e-05
3.13376e-05
2.83591e-05
2.39273e-05
1.93599e-05
1.45973e-05
1.00157e-05
5.56538e-06
1.76835e-06
1.26822e-07
1.30946e-05
1.40332e-05
1.50081e-05
1.70528e-05
2.02133e-05
2.42584e-05
2.95178e-05
3.6404e-05
3.9771e-05
3.61543e-05
3.40266e-05
3.06177e-05
2.76805e-05
2.45151e-05
2.12729e-05
1.73809e-05
1.29949e-05
7.81118e-06
2.38205e-06
1.54736e-07
8.63695e-06
8.11386e-06
8.26071e-06
8.65483e-06
1.00717e-05
1.22125e-05
1.5211e-05
1.98275e-05
2.63039e-05
2.74687e-05
2.77659e-05
2.75781e-05
2.66595e-05
2.47348e-05
2.14519e-05
1.86247e-05
1.48393e-05
1.00392e-05
3.50542e-06
3.91742e-07
6.73722e-06
5.80413e-06
5.8684e-06
5.83095e-06
6.5118e-06
7.37107e-06
8.75572e-06
1.07435e-05
1.48281e-05
1.81832e-05
1.99732e-05
2.17227e-05
2.27434e-05
2.27781e-05
2.18364e-05
1.89591e-05
1.58282e-05
1.14964e-05
5.12438e-06
1.18704e-06
5.62096e-06
4.42665e-06
4.56421e-06
4.60674e-06
5.15399e-06
5.64402e-06
6.48787e-06
7.63927e-06
9.24386e-06
1.23645e-05
1.41433e-05
1.65173e-05
1.90516e-05
2.03487e-05
2.04578e-05
1.9353e-05
1.6415e-05
1.24395e-05
6.93841e-06
2.2338e-06
5.04311e-06
3.43547e-06
3.6374e-06
3.91576e-06
4.41436e-06
4.99463e-06
5.72926e-06
6.61077e-06
7.68727e-06
9.33665e-06
1.09237e-05
1.26777e-05
1.54237e-05
1.8123e-05
1.92521e-05
1.8897e-05
1.70966e-05
1.31914e-05
8.03494e-06
3.21239e-06
5.04913e-06
2.73398e-06
2.93322e-06
3.4638e-06
4.09266e-06
4.80602e-06
5.58424e-06
6.42223e-06
7.31413e-06
8.42194e-06
9.50277e-06
1.0949e-05
1.2835e-05
1.5659e-05
1.80392e-05
1.83937e-05
1.72094e-05
1.39514e-05
8.94763e-06
3.80124e-06
6.12179e-06
2.24229e-06
2.53703e-06
3.25522e-06
4.13478e-06
4.98436e-06
5.81903e-06
6.6869e-06
7.5574e-06
8.43282e-06
9.37084e-06
1.04269e-05
1.20431e-05
1.40886e-05
1.69933e-05
1.83767e-05
1.75191e-05
1.47219e-05
9.58757e-06
3.95405e-06
1.0972e-05
2.13828e-06
2.6606e-06
3.59688e-06
4.64568e-06
5.7245e-06
6.63606e-06
7.48875e-06
8.31066e-06
9.0686e-06
9.77984e-06
1.04664e-05
1.15026e-05
1.32997e-05
1.54667e-05
1.78808e-05
1.76257e-05
1.55221e-05
1.03501e-05
3.99075e-06
1.23421e-06
0.000116558
0.000294184
0.000330906
0.00033481
0.000335356
0.000335357
0.000335342
0.000335343
0.000335345
0.000335345
0.000335343
0.000335342
0.000335357
0.000335356
0.00033481
0.000330906
0.000294184
0.000116558
1.23421e-06
1.36973e-06
6.8167e-05
0.000219584
0.000309504
0.000330909
0.000334527
0.000335273
0.000335315
0.000335296
0.000335287
0.000335287
0.000335296
0.000335315
0.000335273
0.000334527
0.000330909
0.000309504
0.000219584
6.81671e-05
1.36972e-06
1.51338e-06
5.28962e-05
0.00017646
0.00028058
0.000322148
0.000332504
0.000334604
0.0003351
0.000335168