/*--------------------------------*- C++ -*----------------------------------*\
| =========                 |                                                 |
| \\      /  F ield         | OpenFOAM: The Open Source CFD Toolbox           |
|  \\    /   O peration     | Version:  2.1.0                                 |
|   \\  /    A nd           | Web:      www.OpenFOAM.org                      |
|    \\/     M anipulation  |                                                 |
\*---------------------------------------------------------------------------*/
FoamFile
{
    version     2.0;
    format      ascii;
    class       volScalarField;
    location    "0.35";
    object      omega;
}
// * * * * * * * * * * * * * * * * * * * * * * * * * * * * * * * * * * * * * //

dimensions      [0 0 -1 0 0 0 0];

internalField   nonuniform List<scalar> 
6400
(
1642.61
1643.99
1644.24
1644.31
1644.03
1643.89
1643.38
1643.13
1642.49
1642.16
1641.45
1641.01
1640.24
1639.69
1638.88
1638.21
1637.36
1636.58
1635.68
1634.8
1633.86
1632.89
1631.9
1630.86
1629.82
1628.72
1627.63
1626.47
1625.31
1624.08
1622.86
1621.57
1620.27
1618.9
1617.52
1616.07
1614.6
1613.04
1611.44
1609.75
1608
1606.12
1604.16
1602.05
1599.82
1597.42
1594.85
1592.07
1589.09
1585.87
1582.39
1578.65
1574.58
1570.11
1565.21
1559.98
1554.54
1548.8
1542.81
1536.53
1529.99
1523.18
1516.09
1508.7
1500.98
1492.94
1484.54
1475.76
1466.48
1456.76
1446.47
1435.66
1424.2
1412.15
1399.39
1386
1371.9
1357.17
1341.8
1325.88
1309.42
1292.43
1274.67
1255.37
1234.3
1211.94
1187.37
1159.78
1127.69
1088.94
1039.97
974.863
886.032
766.922
614.537
538.113
566.134
735.361
892.982
942.843
692.015
692.284
693.488
694.493
695.84
697.229
698.629
700.209
701.673
703.366
704.91
706.685
708.321
710.167
711.901
713.817
715.653
717.641
719.582
721.648
723.696
725.85
728.012
730.272
732.562
734.946
737.382
739.911
742.509
745.2
747.974
750.847
753.818
756.896
760.088
763.401
766.848
770.438
774.155
778.014
782.019
786.179
790.501
794.992
799.662
804.517
809.568
814.821
820.287
825.975
831.896
838.064
844.451
851.089
857.967
865.14
872.642
880.474
888.663
897.23
906.202
915.61
925.479
935.854
946.77
958.267
970.204
982.624
995.66
1009.39
1023.83
1039.07
1055.13
1072.1
1090.03
1109.03
1129.17
1150.57
1173.34
1197.64
1223.67
1251.69
1281.08
1311.37
1343.27
1375.82
1408.55
1440.27
1469.75
1495.39
1514.11
1522.74
1524.49
1510.25
1474.98
1395.82
1285.36
1150.88
1005.79
848.208
504.121
507.23
508.711
511.728
513.724
516.778
519.093
522.187
524.75
527.906
530.688
533.931
536.919
540.273
543.463
546.95
550.344
553.985
557.585
561.39
565.195
569.18
573.197
577.378
581.614
586
590.465
595.076
599.785
604.641
609.61
614.73
619.978
625.382
630.929
636.637
642.499
648.526
654.749
661.151
667.762
674.579
681.617
688.885
696.393
704.152
712.173
720.465
729.037
737.898
747.051
756.498
766.267
776.351
786.778
797.562
808.73
820.288
832.258
844.653
857.489
870.781
884.539
898.773
913.487
928.69
944.441
960.745
977.457
994.547
1011.96
1029.66
1047.59
1065.7
1083.94
1102.28
1120.7
1139.17
1157.71
1176.32
1195.04
1213.88
1232.85
1252.01
1271.33
1290.6
1309.65
1327.98
1344.92
1359.3
1367.26
1370.14
1363.91
1337.9
1289.68
1209.98
1101.8
960.544
797.157
628.005
455.675
460.552
462.712
467.025
469.768
474.058
477.216
481.513
485.009
489.358
493.152
497.595
501.666
506.24
510.577
515.315
519.914
524.842
529.707
534.85
539.988
545.367
550.782
556.409
562.102
567.989
573.965
580.125
586.394
592.841
599.416
606.168
613.06
620.132
627.358
634.766
642.34
650.101
658.033
666.158
674.453
682.933
691.585
700.415
709.413
718.578
727.901
737.378
746.997
756.753
766.635
776.632
786.742
796.947
807.247
817.631
828.091
838.617
849.198
859.823
870.479
881.154
891.832
902.496
913.124
923.696
934.253
944.738
955.153
965.461
975.646
985.685
995.526
1005.11
1014.43
1023.36
1031.88
1039.85
1047.21
1053.78
1059.44
1064
1066.98
1068.34
1068.65
1066.17
1061.36
1053.41
1042.1
1026.61
1006.37
980.394
947.43
905.7
853.185
787.955
711.746
628.919
552.887
496.647
444.887
450.78
453.34
458.467
461.691
466.777
470.469
475.535
479.599
484.689
489.066
494.22
498.875
504.125
509.034
514.403
519.548
525.054
530.421
536.08
541.663
547.483
553.27
559.252
565.236
571.385
577.557
583.866
590.208
596.666
603.163
609.758
616.392
623.108
629.86
636.678
643.525
650.422
657.335
664.286
671.249
678.23
685.212
692.195
699.164
706.115
713.034
719.917
726.751
733.531
740.246
746.888
753.45
759.916
766.271
772.559
778.706
784.728
790.561
796.208
801.617
806.774
811.632
816.167
820.334
824.103
827.425
830.262
832.566
834.292
835.207
835.57
835.574
834.23
832.504
829.537
825.917
821.081
815.389
808.466
800.525
791.32
780.984
769.46
756.779
742.89
727.96
711.864
694.724
676.363
656.744
635.504
612.496
586.992
558.315
527.266
495.029
465.277
444.268
432.616
434.809
440.497
442.937
447.849
450.871
455.711
459.116
463.873
467.557
472.252
476.149
480.805
484.87
489.506
493.704
498.333
502.636
507.264
511.648
516.277
520.721
525.348
529.833
534.451
538.956
543.56
548.123
552.763
557.356
562.001
566.594
571.213
575.77
580.329
584.814
589.276
593.649
597.975
602.192
606.336
610.356
614.263
618.028
621.648
625.101
628.377
631.457
634.328
636.971
639.372
641.509
643.369
644.926
646.169
647.07
647.711
648.001
648.082
647.721
646.97
645.809
644.234
642.217
639.77
636.866
633.524
629.722
625.485
620.798
615.687
610.15
604.275
598.024
591.441
584.578
577.406
570.026
562.388
554.66
546.755
538.799
530.766
522.766
514.769
506.864
498.969
491.065
483.115
475.218
467.215
459.141
450.821
442.233
433.178
423.812
414.559
406.886
403.219
402.205
402.193
403.5
407.979
409.879
413.708
415.977
419.728
422.215
425.852
428.475
431.993
434.699
438.101
440.852
444.144
446.908
450.091
452.841
455.912
458.624
461.579
464.226
467.034
469.577
472.22
474.63
477.096
479.383
481.682
483.785
485.859
487.72
489.515
491.081
492.55
493.773
494.87
495.707
496.393
496.783
496.966
497.008
496.735
496.246
495.488
494.498
493.244
491.75
490
488.01
485.779
483.315
480.629
477.729
474.647
471.398
467.936
464.328
460.567
456.682
452.705
448.647
444.548
440.414
436.281
432.14
428.066
424.076
420.209
416.477
412.919
409.543
406.344
403.34
400.544
397.962
395.598
393.443
391.483
389.763
388.219
386.914
385.775
384.84
384.044
383.404
382.853
382.395
381.973
381.57
381.147
380.711
380.277
380.011
379.916
380.485
381.797
384.365
388.968
392.67
393.729
354.869
357.892
359.134
361.588
362.909
365.228
366.547
368.675
369.937
371.855
373.02
374.717
375.752
377.219
378.099
379.324
380.022
380.992
381.484
382.152
382.469
382.766
382.879
382.912
382.741
382.477
381.916
381.276
380.328
379.307
377.978
376.582
374.891
373.146
371.128
369.061
366.75
364.4
361.84
359.256
356.506
353.736
350.852
347.967
345.015
342.087
339.138
336.238
333.358
330.558
327.801
325.161
322.637
320.264
318.018
315.954
314.055
312.366
310.873
309.615
308.577
307.796
307.292
307.059
306.994
307.232
307.714
308.442
309.401
310.606
312.029
313.687
315.549
317.634
319.907
322.387
325.038
327.874
330.851
334.011
337.303
340.74
344.276
347.916
351.615
355.371
359.138
362.914
366.664
370.391
374.084
377.778
381.509
385.355
389.516
394.322
399.911
406.902
412.435
414.69
292.437
293.084
293.306
293.644
293.783
293.887
293.901
293.836
293.576
293.337
292.827
292.39
291.636
290.987
289.997
289.127
287.913
286.823
285.397
284.093
282.484
280.998
279.254
277.607
275.749
273.976
272.032
270.181
268.197
266.319
264.347
262.492
260.581
258.789
256.984
255.303
253.653
252.132
250.68
249.365
248.152
247.084
246.147
245.365
244.736
244.273
244.026
243.924
243.919
244.262
244.685
245.416
246.215
247.294
248.473
249.907
251.464
253.258
255.192
257.349
259.658
262.181
264.866
267.759
270.826
274.096
277.534
281.173
284.986
289.002
293.2
297.607
302.208
307.023
312.042
317.285
322.745
328.438
334.359
340.521
346.919
353.565
360.453
367.591
374.967
382.582
390.416
398.462
406.691
415.087
423.62
432.281
441.062
449.987
459.119
468.662
479.4
490.988
502.634
508.38
237.117
235.684
235.062
233.78
232.989
231.658
230.734
229.355
228.324
226.915
225.805
224.386
223.227
221.82
220.643
219.271
218.108
216.796
215.678
214.453
213.412
212.298
211.361
210.38
209.573
208.747
208.094
207.444
206.966
206.51
206.224
206.009
205.917
205.892
206.014
206.243
206.598
207.065
207.662
208.372
209.216
210.18
211.272
212.482
213.821
215.279
216.866
218.57
220.406
222.367
224.453
226.669
228.997
231.457
234.029
236.737
239.557
242.516
245.592
248.808
252.148
255.632
259.247
263.011
266.916
270.976
275.187
279.564
284.104
288.822
293.719
298.808
304.093
309.588
315.3
321.243
327.427
333.868
340.579
347.578
354.881
362.509
370.484
378.83
387.574
396.745
406.379
416.517
427.202
438.489
450.44
463.128
476.643
491.09
506.586
523.215
540.941
559.435
574.119
580.671
266.369
265.903
265.58
265.003
264.452
263.726
262.958
262.066
261.097
260.035
258.883
257.652
256.34
254.953
253.497
251.994
250.424
248.838
247.19
245.556
243.872
242.228
240.547
238.931
237.296
235.749
234.202
232.76
231.341
230.043
228.791
227.67
226.618
225.707
224.889
224.216
223.66
223.254
223.017
222.916
222.901
223.147
223.481
224.015
224.659
225.489
226.442
227.57
228.831
230.258
231.823
233.548
235.415
237.437
239.606
241.935
244.392
247.006
249.753
252.654
255.693
258.885
262.221
265.71
269.352
273.15
277.108
281.229
285.519
289.981
294.625
299.451
304.473
309.693
315.128
320.779
326.663
332.784
339.162
345.802
352.727
359.946
367.483
375.35
383.576
392.177
401.183
410.617
420.512
430.898
441.821
453.346
465.541
478.498
492.345
507.225
523.232
540.023
553.797
560.034
325.122
326.942
327.651
328.94
329.57
330.645
331.164
331.986
332.374
332.925
333.172
333.401
333.462
333.465
333.147
332.863
332.23
331.646
330.709
329.824
328.594
327.415
325.906
324.447
322.679
320.961
318.971
317.02
314.832
312.685
310.34
308.043
305.584
303.186
300.663
298.214
295.678
293.23
290.738
288.355
285.969
283.711
281.495
279.451
277.491
275.716
274.063
272.61
271.312
270.229
269.328
268.654
268.218
268.016
267.96
268.184
268.618
269.267
270.132
271.212
272.511
274.019
275.745
277.673
279.816
282.156
284.713
287.447
290.383
293.49
296.789
300.257
303.908
307.725
311.727
315.89
320.233
324.734
329.409
334.236
339.216
344.326
349.575
354.938
360.422
366.004
371.689
377.459
383.312
389.242
395.255
401.329
407.519
413.966
420.822
428.469
437.251
447.558
458.493
464.228
373.958
377.504
378.98
381.867
383.488
386.235
387.908
390.475
392.146
394.518
396.15
398.32
399.909
401.893
403.386
405.167
406.516
408.07
409.234
410.534
411.477
412.498
413.186
413.905
414.308
414.638
414.77
414.804
414.599
414.254
413.685
412.981
412.044
410.976
409.674
408.248
406.597
404.765
402.675
400.423
397.929
395.294
392.444
389.483
386.342
383.111
379.761
376.349
372.87
369.369
365.85
362.352
358.883
355.473
352.125
348.874
345.775
342.826
340.045
337.446
335.052
332.869
330.92
329.208
327.75
326.539
325.582
324.859
324.415
324.208
324.15
324.352
324.789
325.397
326.202
327.15
328.263
329.484
330.834
332.256
333.824
335.474
337.245
339.085
341.027
343.046
345.158
347.345
349.631
352.018
354.54
357.241
360.15
363.318
366.769
370.84
375.968
382.584
387.448
389.241
409.256
414.114
416.18
420.288
422.762
426.761
429.483
433.35
436.227
439.965
442.936
446.547
449.604
453.152
456.272
459.756
462.902
466.315
469.454
472.783
475.884
479.114
482.145
485.258
488.19
491.161
493.968
496.771
499.414
502.019
504.461
506.833
509.034
511.133
513.046
514.829
516.409
517.903
519.197
520.342
521.252
521.963
522.358
522.528
522.552
522.14
521.536
520.558
519.335
517.762
515.915
513.739
511.279
508.512
505.469
502.148
498.571
494.752
490.744
486.548
482.193
477.67
473.007
468.227
463.37
458.447
453.491
448.573
443.712
438.947
434.305
429.824
425.523
421.429
417.5
413.773
410.236
406.904
403.766
400.813
397.982
395.324
392.765
390.332
387.961
385.688
383.442
381.247
379.055
376.898
374.757
372.695
370.734
369.246
368.119
367.704
368.446
372.23
375.337
376.232
423.709
429.517
432.014
436.992
440.088
444.985
448.487
453.312
457.116
461.9
465.945
470.72
474.968
479.758
484.173
488.992
493.547
498.403
503.073
507.97
512.734
517.668
522.507
527.473
532.368
537.356
542.289
547.287
552.241
557.237
562.197
567.179
572.121
577.065
581.958
586.829
591.633
596.439
601.19
605.908
610.548
615.119
619.587
623.958
628.195
632.289
636.226
639.98
643.542
646.883
649.994
652.847
655.427
657.711
659.68
661.312
662.586
663.445
663.856
663.988
663.683
662.906
661.84
660.266
658.319
655.851
652.96
649.55
645.695
641.334
636.524
631.23
625.497
619.311
612.794
605.894
598.665
591.15
583.317
575.256
566.9
558.39
549.624
540.728
531.6
522.283
512.713
502.903
492.712
482.036
470.984
459.356
447.198
434.463
421.749
408.939
398.091
391.441
388.58
387.296
424.245
429.872
432.323
437.188
440.273
445.091
448.628
453.433
457.332
462.172
466.383
471.302
475.788
480.817
485.562
490.727
495.717
501.039
506.263
511.756
517.207
522.88
528.553
534.413
540.299
546.346
552.439
558.672
564.961
571.373
577.85
584.435
591.085
597.832
604.643
611.542
618.504
625.545
632.64
639.801
647.009
654.268
661.563
668.896
676.251
683.628
691.013
698.397
705.765
713.1
720.407
727.672
734.884
742.033
749.107
756.093
762.984
769.766
776.424
782.939
789.275
795.447
801.429
807.174
812.662
817.838
822.68
827.131
831.159
834.712
837.752
840.225
842.085
843.08
843.477
843.485
842.057
840.17
836.94
832.921
827.524
821.052
813.081
803.764
792.78
780.205
765.889
749.656
731.531
711.276
688.799
663.695
635.667
604.239
570.227
533.047
495.799
460.588
435.37
418.631
432.408
436.895
438.895
442.878
445.428
449.386
452.32
456.28
459.522
463.522
467.029
471.103
474.855
479.046
483.036
487.373
491.596
496.104
500.565
505.266
509.971
514.887
519.847
525
530.227
535.636
541.144
546.828
552.627
558.596
564.694
570.961
577.372
583.956
590.699
597.626
604.729
612.029
619.505
627.179
635.041
643.103
651.359
659.815
668.462
677.3
686.371
695.664
705.202
714.994
724.981
735.169
745.543
756.096
766.815
777.687
788.7
799.837
811.082
822.422
833.844
845.341
856.899
868.514
880.176
891.872
903.585
915.294
926.967
938.569
950.11
961.598
972.995
984.28
995.426
1006.38
1017.05
1027.43
1037.36
1046.8
1055.54
1063.46
1070.3
1075.84
1079.18
1080.59
1080.72
1076.13
1068.72
1055.82
1037.74
1012.27
978.443
933.775
877.999
807.83
725.551
634.648
553.263
488.411
479.862
482.586
483.907
486.612
488.418
491.162
493.259
496.041
498.361
501.202
503.72
506.644
509.351
512.375
515.258
518.397
521.457
524.73
527.969
531.391
534.818
538.404
542.025
545.791
549.614
553.575
557.611
561.779
566.039
570.434
574.927
579.556
584.3
589.182
594.191
599.341
604.623
610.046
615.655
621.437
627.416
633.596
639.995
646.626
653.509
660.666
668.064
675.727
683.652
691.84
700.345
709.174
718.347
727.875
737.77
748.039
758.699
769.766
781.251
793.174
805.555
818.416
831.78
845.681
860.145
875.181
890.814
907.047
923.901
941.381
959.568
978.125
997.219
1016.69
1036.54
1056.66
1077.01
1097.53
1118.18
1138.92
1159.74
1180.63
1201.55
1222.44
1243.47
1264.51
1285.38
1305.51
1324.42
1340.74
1350.47
1354.14
1349.02
1321.38
1271.31
1196.14
1093.15
963.641
802.612
630.337
662.817
662.779
663.823
664.583
665.763
666.917
668.132
669.481
670.748
672.212
673.551
675.099
676.524
678.142
679.661
681.348
682.965
684.724
686.441
688.278
690.097
692.016
693.938
695.946
697.974
700.079
702.218
704.43
706.692
709.03
711.433
713.922
716.492
719.158
721.92
724.791
727.779
730.897
734.125
737.484
740.975
744.607
748.389
752.327
756.43
760.703
765.151
769.784
774.613
779.648
784.906
790.395
796.13
802.125
808.395
814.962
821.829
829.006
836.518
844.376
852.598
861.195
870.174
879.602
889.562
900.021
911.065
922.677
934.937
947.846
961.284
975.538
990.566
1006.49
1023.32
1041.18
1060.11
1080.21
1101.57
1124.29
1148.46
1174.22
1201.65
1230.88
1262.15
1293.98
1326.6
1358.32
1387.58
1412.07
1426.07
1431.22
1429.06
1412.95
1381.19
1320.8
1233.06
1122.11
997.861
848.992
1595.78
1596.66
1596.72
1596.5
1595.94
1595.65
1594.9
1594.54
1593.72
1593.3
1592.46
1591.96
1591.11
1590.53
1589.66
1588.99
1588.1
1587.33
1586.42
1585.55
1584.59
1583.64
1582.62
1581.58
1580.49
1579.38
1578.24
1577.05
1575.86
1574.63
1573.39
1572.1
1570.81
1569.46
1568.11
1566.7
1565.29
1563.83
1562.35
1560.83
1559.29
1557.71
1556.1
1554.44
1552.74
1550.98
1549.16
1547.24
1545.23
1543.1
1540.84
1538.44
1535.9
1533.2
1530.36
1527.39
1524.27
1520.95
1517.37
1513.46
1509.12
1504.24
1498.67
1492.58
1486.27
1479.51
1472.55
1465.13
1457.39
1449.16
1440.54
1431.39
1421.52
1411.09
1399.77
1387.71
1374.62
1360.57
1345.34
1328.96
1311.26
1292.25
1271.79
1249.88
1226.36
1201.02
1172.87
1140.31
1101.11
1053.65
993.172
913.314
812.827
702.77
584.652
535.328
556.07
721.82
886.773
939.934
865.873
324.752
176.614
119.709
95.2705
82.328
76.1176
73.1493
72.1779
74.0277
80.9323
97.3785
118.806
156.109
206.981
271.43
348.873
443.906
560.337
610.46
693.165
329.202
219.163
154.35
121.766
104.127
92.9284
87.4561
85.5282
87.5095
99.5933
115.52
144.464
184.617
237.778
299.767
372.189
459.414
544.847
568.806
544.634
318.768
242.3
180.176
147.635
125.462
111.876
105.969
104.296
108.632
120.165
144.021
174.6
218.592
269.363
326.033
390.17
462.529
514.598
523.018
444.692
305.211
256.324
198.183
171.212
146.157
134.078
128.431
126.874
131.204
154.034
177.588
213.801
256.264
301.907
352.076
406.339
455.311
474.492
474.897
388.26
300.462
266.327
214.699
192.011
168.732
159.175
155.434
155.181
174.948
195.354
222.706
257.209
292.642
330.628
370.607
409.983
432.747
426.792
428.483
360.136
300.407
273.868
232.052
214.552
201.039
197.413
197.383
211.566
227.745
247.741
272.469
299.265
326.617
355.747
383.465
398.899
397.044
368.359
383.748
352.364
312.883
296.084
272.989
265.886
263.339
262.967
269.767
279
291.031
305.852
322.216
339.135
355.485
369.796
376.62
375.008
344.02
301.069
349.646
386.956
375.282
371.451
361.657
356.902
351.361
349.151
348.616
350.774
355.082
359.386
364.159
366.79
367.795
366.335
358.015
331.421
277.943
232.657
331.127
499.171
483.925
476.524
457.598
448.695
434.333
427.283
417.592
412.386
404.32
397.833
388.655
378.107
365.433
349.136
316.661
268.084
203.289
161.157
325.425
563.176
541.769
532.103
509.027
497.973
479.312
469.026
452.183
440.61
423.691
409.52
390.292
370.202
341.487
301.917
251.522
197.681
143.723
118.007
329.104
544.282
524.132
515.079
493.331
482.948
465.561
456.247
441.291
431.103
416.454
403.952
387.41
369.669
345.095
309.347
259.498
203.487
144.496
116.124
327.549
457.525
446.348
440.763
424.813
417.525
406.582
401.325
395.664
392.868
389.446
385.969
381.3
374.27
364.782
353.419
326.951
279.168
211.703
171.107
325.071
358.808
343.671
338.67
330.734
327.342
324.245
323.408
326.06
330.931
338.478
346.504
354.757
362.447
366.279
367.634
363.283
339.872
287.297
239.604
326.197
336.598
296.717
279.183
253.976
245.573
242.603
242.41
250.783
261.5
275.494
292.834
311.655
331.897
352.04
370.538
379.74
380.948
352.468
307.988
335.914
346.709
288.113
262.224
220.986
203.573
189.063
184.713
184.227
198.006
215.27
236.738
263.056
291.877
321.604
353.724
385.603
403.677
404.829
374.615
370.522
374.423
289.249
255.975
206.22
184.275
161.44
151.783
147.7
147.099
165.115
186.49
214.541
250.374
287.589
327.658
370.097
413.979
438.74
433.865
420.628
429.479
293.932
246.158
189.965
163.798
140.032
128.523
123.173
121.717
125.918
147.059
171.251
207.574
251.145
298.584
350.796
407.617
460.329
480.598
471.829
531.498
308.16
233.641
173.676
141.893
120.353
107.396
101.714
100.134
104.661
115.979
138.963
169.886
213.779
265.706
324.024
390.626
467.033
518.723
523.193
686.6
318.041
211.215
148.224
116.964
99.8349
89.4993
84.408
82.6232
84.6684
96.1264
112.03
140.534
180.719
234.17
297.279
371.19
461.034
548.55
570.951
863.357
313.439
170.659
115.716
92.0608
79.5789
73.1798
70.4754
69.694
72.0613
78.756
94.3484
115.967
152.697
203.712
268.842
347.661
444.715
563.142
613.308
646.054
32.1745
12.7362
11.3229
11.19
11.171
11.1705
11.1708
11.1706
11.1705
11.1705
11.1706
11.1708
11.1705
11.171
11.19
11.3229
12.7362
32.1745
646.054
672.74
55.0628
17.0386
12.087
11.3039
11.1803
11.1547
11.1529
11.1534
11.1536
11.1536
11.1534
11.1529
11.1547
11.1803
11.3039
12.0869
17.0386
55.0627
672.74
698.453
71.0937
21.1542
13.3033
11.5874
11.2261
11.1552
11.1382
11.1358
11.1355
11.1355
11.1358
11.1382
11.1552
11.2261
11.5874
13.3033
21.1542
71.0935
698.453
723.137
85.8507
25.1369
14.6461
12.0431
11.3371
11.1684
11.1265
11.1183
11.1171
11.1171
11.1183
11.1265
11.1684
11.3371
12.0431
14.6461
25.1369
85.8506
723.137
746.743
101.867
29.2065
16.0658
12.5885
11.5234
11.2064
11.1273
11.105
11.1003
11.1003
11.105
11.1273
11.2064
11.5234
12.5885
16.0658
29.2065
101.867
746.743
769.309
118.432
33.3668
17.5405
13.1971
11.7624
11.283
11.1366
11.0944
11.0843
11.0843
11.0944
11.1366
11.283
11.7624
13.1971
17.5405
33.3668
118.432
769.309
790.728
134.968
37.5676
19.0511
13.8502
12.0431
11.3872
11.16
11.0918
11.0718
11.0718
11.0918
11.16
11.3872
12.0431
13.8502
19.0511
37.5677
134.968
790.728
810.983
151.251
41.7802
20.5852
14.5352
12.3571
11.5178
11.2031
11.0955
11.0625
11.0625
11.0955
11.2031
11.5178
12.3571
14.5352
20.5852
41.7802
151.251
810.983
829.955
167.079
45.9692
22.1303
15.2422
12.6969
11.6708
11.2604
11.1065
11.0594
11.0594
11.1065
11.2604
11.6708
12.6969
15.2422
22.1303
45.9693
167.079
829.955
847.653
182.401
50.1208
23.6797
15.9647
13.0568
11.8431
11.3324
11.129
11.0619
11.0619
11.129
11.3324
11.8431
13.0568
15.9648
23.6797
50.1209
182.401
847.653
863.99
197.096
54.2105
25.2247
16.6968
13.4321
12.0315
11.4179
11.1609
11.0697
11.0697
11.1609
11.4179
12.0315
13.4321
16.6968
25.2248
54.2106
197.096
863.99
879.013
211.155
58.2321
26.7618
17.4347
13.8192
12.2335
11.5156
11.2021
11.0862
11.0862
11.2021
11.5156
12.2335
13.8193
17.4347
26.7619
58.2323
211.156
879.013
892.663
224.491
62.1653
28.2845
18.1745
14.2149
12.4467
11.6242
11.2528
11.1113
11.1113
11.2528
11.6242
12.4467
14.2149
18.1745
28.2845
62.1654
224.492
892.663
905.026
237.119
66.0089
29.7907
18.9141
14.6169
12.6691
11.7427
11.3126
11.1446
11.1446
11.3126
11.7427
12.6691
14.6169
18.9141
29.7908
66.0092
237.119
905.026
916.067
248.97
69.7458
31.2754
19.6506
15.023
12.899
11.8698
11.381
11.1861
11.1861
11.381
11.8698
12.899
15.0231
19.6506
31.2754
69.7459
248.971
916.067
925.904
260.09
73.3779
32.7378
20.383
15.4319
13.1351
12.0048
11.4576
11.2357
11.2357
11.4576
12.0048
13.1352
15.4319
20.383
32.7379
73.3782
260.09
925.904
934.512
270.424
76.8908
34.1734
21.1088
15.8418
13.3762
12.1466
11.5418
11.293
11.293
11.5418
12.1466
13.3762
15.8418
21.1088
34.1734
76.8909
270.424
934.512
942.037
280.036
80.289
35.5824
21.8276
16.2519
13.6211
12.2944
11.6331
11.3579
11.3579
11.6331
12.2944
13.6211
16.2519
21.8276
35.5825
80.2892
280.035
942.036
948.451
288.886
83.5605
36.9608
22.5374
16.661
13.8691
12.4475
11.7309
11.4299
11.4299
11.7309
12.4475
13.8691
16.661
22.5374
36.9608
83.5605
288.886
948.45
953.925
297.051
86.712
38.3095
23.2382
17.0685
14.1193
12.6053
11.8348
11.5085
11.5085
11.8348
12.6053
14.1194
17.0685
23.2383
38.3097
86.7122
297.051
953.924
958.416
304.505
89.7344
39.6251
23.9283
17.4735
14.3712
12.7671
11.9442
11.5934
11.5934
11.9442
12.7671
14.3712
17.4735
23.9283
39.625
89.7343
304.506
958.416
962.12
311.327
92.635
40.909
24.6079
17.8756
14.6241
12.9325
12.0587
11.684
11.684
12.0587
12.9325
14.6242
17.8757
24.608
40.9093
92.6354
311.325
962.12
964.967
317.504
95.4082
42.1583
25.2756
18.2742
14.8776
13.1009
12.1777
11.78
11.78
12.1777
13.1009
14.8776
18.2742
25.2755
42.158
95.4079
317.506
964.966
967.18
323.105
98.061
43.3746
25.9316
18.6689
15.1312
13.2719
12.3009
11.8809
11.8809
12.3009
13.2719
15.1313
18.669
25.9318
43.375
98.0616
323.102
967.179
968.649
328.145
100.591
44.5558
26.5751
19.0593
15.3846
13.445
12.4277
11.9862
11.9862
12.4277
13.445
15.3846
19.0593
26.5749
44.5555
100.59
328.147
968.648
969.635
332.657
103.004
45.7038
27.2062
19.4452
15.6374
13.62
12.5579
12.0955
12.0955
12.5579
13.62
15.6374
19.4453
27.2064
45.7043
103.005
332.653
969.634
969.97
336.701
105.3
46.8166
27.8241
19.8261
15.8892
13.7964
12.691
12.2085
12.2085
12.691
13.7964
15.8892
19.826
27.824
46.8162
105.3
336.705
969.969
969.834
340.245
107.487
47.8969
28.4295
20.202
16.14
13.974
12.8267
12.3248
12.3248
12.8267
13.9741
16.14
20.2021
28.4296
47.8973
107.487
340.241
969.833
969.425
343.399
109.562
48.9419
29.0212
20.5725
16.3892
14.1525
12.9646
12.4441
12.4441
12.9646
14.1525
16.3892
20.5725
29.0211
48.9417
109.561
343.403
969.424
968.579
346.144
111.538
49.9564
29.6006
20.9378
16.637
14.3316
13.1045
12.5659
12.5659
13.1045
14.3316
16.637
20.9379
29.6007
49.9565
111.538
346.139
968.578
967.379
348.531
113.407
50.9357
30.166
21.2973
16.8828
14.5111
13.2461
12.69
12.69
13.2461
14.5111
16.8828
21.2973
30.166
50.9356
113.407
348.534
967.378
965.891
350.555
115.187
51.8867
30.7194
21.6514
17.1267
14.6907
13.389
12.8161
12.8161
13.389
14.6907
17.1267
21.6515
30.7194
51.8867
115.186
350.55
965.89
964.156
352.263
116.865
52.8034
31.2589
21.9995
17.3684
14.8702
13.5331
12.944
12.944
13.5331
14.8702
17.3684
21.9995
31.2588
52.8032
116.865
352.265
964.154
962.204
353.661
118.464
53.6937
31.7866
22.3422
17.608
15.0495
13.6782
13.0733
13.0733
13.6782
15.0495
17.608
22.3423
31.7867
53.6939
118.463
353.656
962.204
960.074
354.764
119.966
54.5515
32.3008
22.6788
17.8451
15.2284
13.8239
13.2039
13.2039
13.8239
15.2283
17.8451
22.6786
32.3005
54.5508
119.965
354.766
960.073
957.789
355.617
121.397
55.3844
32.8035
23.0098
18.0798
15.4067
13.9702
13.3355
13.3355
13.9702
15.4067
18.0799
23.0099
32.8039
55.3851
121.398
355.613
957.789
955.382
356.173
122.738
56.1869
33.2933
23.3348
18.3119
15.5842
14.1168
13.468
13.468
14.1168
15.5842
18.3118
23.3346
33.2928
56.1857
122.736
356.175
955.381
952.869
356.559
124.014
56.9666
33.7721
23.6543
18.5414
15.761
14.2636
13.6011
13.6011
14.2636
15.761
18.5415
23.6545
33.7726
56.9678
124.015
356.555
952.87
950.287
356.612
125.206
57.7175
34.2383
23.9677
18.7681
15.9367
14.4103
13.7346
13.7346
14.4103
15.9366
18.768
23.9674
34.2376
57.716
125.203
356.612
950.285
947.635
356.52
126.34
58.4486
34.6944
24.2759
18.9922
16.1114
14.557
13.8684
13.8684
14.557
16.1114
18.9923
24.2762
34.6951
58.45
126.341
356.519
947.635
944.958
356.291
127.394
59.1519
35.1383
24.578
19.2134
16.2849
14.7033
14.0024
14.0024
14.7033
16.2848
19.2132
24.5776
35.1375
59.1501
127.391
356.291
944.957
942.243
355.821
128.404
59.8387
35.5731
24.8751
19.4319
16.4571
14.8493
14.1364
14.1364
14.8494
16.4572
19.4321
24.8754
35.5738
59.8402
128.406
355.817
942.244
939.54
355.243
129.337
60.4995
35.9961
25.1663
19.6474
16.628
14.9948
14.2703
14.2703
14.9947
16.6279
19.6472
25.1658
35.9952
60.4977
129.335
355.245
939.539
936.82
354.507
130.249
61.1481
36.411
25.4527
19.8603
16.7975
15.1397
14.404
14.404
15.1398
16.7976
19.8605
25.4531
36.412
61.1498
130.25
354.505
936.821
934.146
353.721
131.102
61.7751
36.8151
25.7334
20.0701
16.9655
15.2839
14.5373
14.5373
15.2838
16.9653
20.0699
25.7328
36.814
61.7731
131.099
353.721
934.145
931.465
352.873
131.984
62.3986
37.2123
26.0097
20.2774
17.132
15.4273
14.6702
14.6703
15.4274
17.1322
20.2777
26.0103
37.2136
62.4006
131.986
352.873
931.466
928.86
352.023
132.871
63.0133
37.6
26.2805
20.4816
17.2969
15.5699
14.8025
14.8025
15.5698
17.2967
20.4812
26.2798
37.5985
63.0111
132.869
352.022
928.86
926.332
351.164
133.824
63.6381
37.9832
26.5474
20.6833
17.4603
15.7116
14.9344
14.9344
15.7117
17.4605
20.6837
26.5483
37.9848
63.6405
133.825
351.165
926.333
923.872
350.422
134.841
64.2644
38.3589
26.8093
20.882
17.622
15.8522
15.0654
15.0654
15.8521
17.6217
20.8815
26.8083
38.357
64.2618
134.841
350.422
923.872
921.484
349.753
135.974
64.9114
38.7328
27.0679
21.0783
17.7821
15.9919
15.1958
15.1959
15.992
17.7824
21.0789
27.0691
38.7351
64.9145
135.975
349.754
921.483
919.156
349.293
137.191
65.5656
39.1017
27.3221
21.2718
17.9404
16.1304
15.3253
15.3252
16.1303
17.9401
21.2712
27.3208
39.0992
65.5624
137.191
349.293
919.156
916.896
348.941
138.531
66.2455
39.4711
27.5738
21.4631
18.0973
16.2679
15.4541
15.4541
16.2681
18.0977
21.4639
27.5754
39.4741
66.2497
138.533
348.943
916.895
914.693
348.851
139.938
66.9334
39.8375
27.8218
21.6517
18.2523
16.4041
15.5817
15.5816
16.404
18.252
21.6509
27.8201
39.8345
66.9297
139.938
348.853
914.693
912.559
348.916
141.462
67.6491
40.2063
28.0679
21.8384
18.4059
16.5394
15.7086
15.7087
16.5396
18.4065
21.8395
28.07
40.2102
67.6545
141.465
348.918
912.557
910.479
349.098
143.023
68.3713
40.5736
28.3112
22.0226
18.5577
16.6731
15.8342
15.8342
16.6729
18.5572
22.0217
28.3092
40.5701
68.3672
143.024
349.101
910.479
908.47
349.471
144.675
69.12
40.9446
28.5532
22.2052
18.7081
16.806
15.9592
15.9593
16.8063
18.7089
22.2066
28.556
40.9496
69.1268
144.678
349.48
908.466
906.513
349.99
146.342
69.8732
41.3151
28.793
22.3855
18.8567
16.9373
16.0827
16.0826
16.937
18.8562
22.3843
28.7906
41.3109
69.8688
146.345
349.99
906.513
904.629
350.63
148.076
70.6508
41.6901
29.0321
22.5644
19.0041
17.0677
16.2056
16.2058
17.0682
19.0052
22.5664
29.0359
41.6969
70.6602
148.083
350.643
904.623
902.794
351.376
149.807
71.4302
42.065
29.2695
22.7414
19.1497
17.1965
16.3268
16.3268
17.1962
19.149
22.7399
29.2666
42.0601
71.425
149.809
351.381
902.793
901.034
352.209
151.579
72.2315
42.4451
29.5067
22.9171
19.2942
17.3245
16.4477
16.4479
17.3252
19.2957
22.9199
29.5119
42.4543
72.2452
151.594
352.23
901.024
899.321
353.116
153.335
73.0314
42.8251
29.7426
23.0911
19.437
17.4508
16.5666
16.5665
17.4504
19.4362
23.0895
29.7394
42.8199
73.0264
153.337
353.128
899.317
897.683
354.081
155.115
73.8508
43.2104
29.9786
23.264
19.5787
17.5764
16.6853
16.6856
17.5774
19.5808
23.268
29.9858
43.2229
73.87
155.139
354.115
897.667
896.089
355.096
156.865
74.6655
43.5955
30.2137
23.4356
19.7188
17.7001
16.8017
16.8017
17.6998
19.718
23.4338
30.2103
43.5905
74.6628
156.873
355.123
896.079
894.571
356.143
158.624
75.4972
43.9855
30.4488
23.6061
19.858
17.8234
16.9184
16.9188
17.8249
19.8611
23.6118
30.4592
44.0036
75.5252
158.661
356.197
894.545
893.093
357.219
160.343
76.321
44.3755
30.6836
23.7754
19.9955
17.9447
17.0324
17.0324
17.9445
19.9949
23.7739
30.6806
44.3717
76.3232