/*--------------------------------*- C++ -*----------------------------------*\
| =========                 |                                                 |
| \\      /  F ield         | OpenFOAM: The Open Source CFD Toolbox           |
|  \\    /   O peration     | Version:  2.1.0                                 |
|   \\  /    A nd           | Web:      www.OpenFOAM.org                      |
|    \\/     M anipulation  |                                                 |
\*---------------------------------------------------------------------------*/
FoamFile
{
    version     2.0;
    format      ascii;
    class       volScalarField;
    location    "0.35";
    object      p;
}
// * * * * * * * * * * * * * * * * * * * * * * * * * * * * * * * * * * * * * //

dimensions      [1 -1 -2 0 0 0 0];

internalField   nonuniform List<scalar> 
6400
(
99998.5
99995.8
99993.8
99992.2
99990.7
99989.2
99987.8
99986.4
99985
99983.5
99981.9
99980.3
99978.7
99977
99975.2
99973.3
99971.4
99969.4
99967.3
99965.2
99963
99960.7
99958.3
99955.8
99953.3
99950.7
99948
99945.2
99942.3
99939.3
99936.2
99933
99929.8
99926.4
99922.9
99919.4
99915.7
99911.8
99907.9
99903.9
99899.7
99895.4
99891
99886.4
99881.6
99876.8
99871.7
99866.5
99861.1
99855.6
99849.8
99843.9
99837.7
99831.4
99824.8
99818
99811
99803.8
99796.3
99788.6
99780.6
99772.3
99763.8
99755
99745.8
99736.4
99726.6
99716.4
99705.9
99695
99683.6
99671.9
99659.7
99647.1
99633.9
99620.3
99606.1
99591.3
99576
99560
99543.2
99525.7
99507.3
99487.9
99467.3
99445.2
99421.3
99395.4
99367
99335.8
99302
99266.8
99232.2
99199.4
99166.9
99133.5
99076.3
98961
98589.8
96981.7
99996.9
99995.1
99993.4
99991.7
99990.3
99988.8
99987.4
99986
99984.6
99983.1
99981.5
99979.9
99978.3
99976.6
99974.8
99972.9
99971
99969
99966.9
99964.7
99962.5
99960.2
99957.8
99955.4
99952.8
99950.2
99947.5
99944.7
99941.8
99938.8
99935.7
99932.5
99929.3
99925.9
99922.4
99918.8
99915.1
99911.3
99907.4
99903.3
99899.1
99894.8
99890.4
99885.8
99881.1
99876.2
99871.1
99865.9
99860.6
99855
99849.2
99843.3
99837.2
99830.8
99824.3
99817.5
99810.5
99803.3
99795.8
99788.1
99780.2
99771.9
99763.4
99754.6
99745.5
99736
99726.2
99716.1
99705.6
99694.7
99683.5
99671.8
99659.6
99647
99633.9
99620.3
99606.1
99591.4
99576
99560
99543.3
99525.8
99507.4
99488
99467.4
99445.3
99421.6
99395.7
99367.5
99336.5
99303.1
99268.1
99233.4
99201
99173
99143.8
99092.2
98991.2
98690.4
98136.1
99995.4
99994.3
99992.8
99991.4
99990
99988.6
99987.2
99985.8
99984.4
99982.9
99981.3
99979.7
99978.1
99976.4
99974.6
99972.7
99970.8
99968.8
99966.7
99964.6
99962.3
99960
99957.6
99955.2
99952.6
99950
99947.3
99944.5
99941.6
99938.6
99935.5
99932.4
99929.1
99925.7
99922.3
99918.7
99915
99911.2
99907.3
99903.2
99899.1
99894.8
99890.3
99885.8
99881
99876.2
99871.2
99866
99860.6
99855.1
99849.4
99843.5
99837.4
99831.1
99824.6
99817.9
99810.9
99803.7
99796.3
99788.6
99780.7
99772.5
99764
99755.3
99746.2
99736.8
99727.1
99717.1
99706.6
99695.8
99684.6
99673
99661
99648.5
99635.5
99622
99607.9
99593.3
99578.1
99562.2
99545.6
99528.3
99510
99490.6
99470.1
99448.2
99424.6
99399
99371.1
99340.9
99308.6
99275.3
99243.1
99214.3
99190.8
99162.9
99127.1
99065.1
98908.8
98998.9
99993.4
99993.4
99992.4
99991.1
99989.9
99988.6
99987.2
99985.9
99984.4
99983
99981.4
99979.8
99978.2
99976.5
99974.7
99972.8
99970.9
99968.9
99966.9
99964.7
99962.5
99960.2
99957.9
99955.4
99952.9
99950.3
99947.6
99944.8
99941.9
99939
99935.9
99932.8
99929.5
99926.2
99922.7
99919.1
99915.5
99911.7
99907.8
99903.8
99899.6
99895.4
99890.9
99886.4
99881.7
99876.9
99871.9
99866.8
99861.4
99856
99850.3
99844.5
99838.4
99832.2
99825.7
99819
99812.1
99805
99797.6
99790
99782.1
99774
99765.6
99756.9
99747.9
99738.5
99728.9
99718.9
99708.5
99697.7
99686.6
99675
99663
99650.5
99637.5
99624
99609.9
99595.3
99580
99564
99547.3
99529.8
99511.3
99491.8
99471.1
99449
99425.3
99399.7
99372.2
99342.8
99312.1
99281.5
99253.2
99229.6
99212.3
99199.5
99194
99198.7
99225.2
99645.7
99991.3
99992.3
99991.9
99991
99989.9
99988.7
99987.5
99986.1
99984.8
99983.3
99981.8
99980.2
99978.6
99976.9
99975.1
99973.3
99971.4
99969.4
99967.4
99965.3
99963.1
99960.8
99958.5
99956.1
99953.5
99951
99948.3
99945.5
99942.7
99939.7
99936.7
99933.5
99930.3
99927
99923.6
99920
99916.4
99912.6
99908.7
99904.7
99900.6
99896.4
99892
99887.5
99882.8
99878
99873
99867.9
99862.6
99857.1
99851.5
99845.7
99839.6
99833.4
99827
99820.3
99813.4
99806.3
99798.9
99791.3
99783.5
99775.3
99766.9
99758.2
99749.2
99739.8
99730.1
99720.1
99709.7
99698.9
99687.7
99676
99664
99651.4
99638.3
99624.7
99610.6
99595.8
99580.4
99564.3
99547.4
99529.7
99511
99491.3
99470.4
99448.2
99424.4
99399.1
99372.1
99343.8
99315.2
99288.1
99265.1
99248.6
99242.4
99252.3
99289.2
99381.4
99579.6
100156
99989.2
99991.3
99991.5
99990.9
99990.1
99989
99987.9
99986.6
99985.3
99983.8
99982.3
99980.8
99979.2
99977.5
99975.7
99973.9
99972
99970.1
99968
99965.9
99963.8
99961.5
99959.2
99956.8
99954.3
99951.7
99949
99946.3
99943.4
99940.5
99937.5
99934.4
99931.1
99927.8
99924.4
99920.9
99917.2
99913.5
99909.6
99905.6
99901.5
99897.2
99892.8
99888.3
99883.7
99878.8
99873.9
99868.7
99863.4
99857.9
99852.3
99846.4
99840.4
99834.1
99827.7
99821
99814.1
99806.9
99799.5
99791.9
99784
99775.8
99767.4
99758.7
99749.6
99740.2
99730.5
99720.5
99710
99699.2
99687.9
99676.3
99664.1
99651.5
99638.4
99624.7
99610.5
99595.6
99580.1
99563.8
99546.8
99528.9
99510
99490.1
99469
99446.6
99422.9
99397.7
99371.3
99344.3
99318
99294.7
99277.4
99269.2
99277.4
99314.4
99400.8
99585.7
99920.4
100556
99987.2
99990.3
99991
99990.9
99990.2
99989.3
99988.3
99987
99985.7
99984.3
99982.9
99981.3
99979.7
99978
99976.3
99974.5
99972.6
99970.6
99968.6
99966.5
99964.3
99962
99959.7
99957.3
99954.8
99952.2
99949.5
99946.8
99943.9
99941
99938
99934.8
99931.6
99928.3
99924.8
99921.3
99917.6
99913.9
99910
99906
99901.8
99897.6
99893.1
99888.6
99883.9
99879.1
99874.1
99868.9
99863.6
99858.1
99852.4
99846.6
99840.5
99834.2
99827.7
99821.1
99814.1
99807
99799.6
99791.9
99784
99775.9
99767.4
99758.7
99749.6
99740.3
99730.5
99720.5
99710
99699.2
99687.9
99676.2
99664.1
99651.4
99638.3
99624.5
99610.2
99595.3
99579.6
99563.2
99546
99527.9
99508.8
99488.7
99467.3
99444.8
99421
99396
99370.3
99344.5
99320.3
99300.4
99288.6
99289.1
99312.5
99376.9
99512.9
99781.9
100214
100859
99985.6
99989.4
99990.6
99990.7
99990.3
99989.5
99988.5
99987.3
99986
99984.6
99983.2
99981.6
99980
99978.3
99976.6
99974.7
99972.8
99970.9
99968.8
99966.7
99964.5
99962.3
99959.9
99957.5
99955
99952.4
99949.7
99946.9
99944.1
99941.1
99938.1
99934.9
99931.7
99928.3
99924.9
99921.3
99917.6
99913.8
99909.9
99905.9
99901.7
99897.4
99893
99888.5
99883.8
99878.9
99873.9
99868.7
99863.4
99857.9
99852.2
99846.4
99840.3
99834
99827.6
99820.9
99814
99806.8
99799.5
99791.8
99783.9
99775.8
99767.3
99758.6
99749.6
99740.2
99730.5
99720.5
99710
99699.2
99687.9
99676.2
99664.1
99651.4
99638.2
99624.4
99610
99595
99579.2
99562.7
99545.3
99527
99507.7
99487.3
99465.7
99443
99419.1
99394.3
99369.1
99344.4
99321.9
99304.8
99297.5
99305.7
99342.7
99431.1
99609.7
99945.9
100440
101075
99984.5
99988.6
99990.1
99990.5
99990.2
99989.5
99988.5
99987.4
99986.1
99984.7
99983.2
99981.7
99980
99978.3
99976.6
99974.7
99972.8
99970.9
99968.8
99966.7
99964.5
99962.2
99959.8
99957.4
99954.9
99952.3
99949.6
99946.8
99943.9
99940.9
99937.9
99934.7
99931.4
99928.1
99924.6
99921
99917.4
99913.6
99909.7
99905.6
99901.5
99897.2
99892.8
99888.2
99883.5
99878.7
99873.7
99868.5
99863.2
99857.7
99852
99846.1
99840.1
99833.8
99827.4
99820.7
99813.8
99806.7
99799.4
99791.7
99783.9
99775.7
99767.3
99758.6
99749.6
99740.3
99730.6
99720.5
99710.1
99699.3
99688
99676.3
99664.1
99651.4
99638.2
99624.3
99609.9
99594.7
99578.9
99562.2
99544.6
99526.1
99506.6
99486
99464.2
99441.2
99417.3
99392.6
99367.7
99343.7
99322.5
99307.3
99303
99316.9
99362.9
99469.4
99678.9
100061
100591
101212
99983.9
99988.2
99989.8
99990.3
99990.1
99989.4
99988.5
99987.3
99986
99984.7
99983.2
99981.6
99980
99978.3
99976.5
99974.7
99972.8
99970.8
99968.7
99966.6
99964.4
99962.1
99959.7
99957.3
99954.7
99952.1
99949.4
99946.6
99943.8
99940.8
99937.7
99934.6
99931.3
99927.9
99924.5
99920.9
99917.2
99913.4
99909.5
99905.5
99901.3
99897
99892.6
99888.1
99883.4
99878.5
99873.5
99868.4
99863.1
99857.6
99851.9
99846.1
99840
99833.8
99827.4
99820.7
99813.8
99806.7
99799.4
99791.8
99783.9
99775.8
99767.4
99758.7
99749.7
99740.4
99730.7
99720.7
99710.3
99699.5
99688.2
99676.5
99664.3
99651.6
99638.3
99624.5
99609.9
99594.7
99578.7
99561.9
99544.2
99525.5
99505.8
99485
99462.9
99439.5
99415.6
99390.8
99366.1
99342.4
99321.9
99307.7
99304.8
99321.7
99373.4
99488.3
99713.2
100118
100664
101280
99983.6
99988.1
99989.8
99990.3
99990.1
99989.4
99988.5
99987.4
99986.1
99984.7
99983.3
99981.7
99980.1
99978.4
99976.6
99974.8
99972.9
99970.9
99968.8
99966.7
99964.5
99962.2
99959.8
99957.4
99954.9
99952.2
99949.5
99946.7
99943.9
99940.9
99937.8
99934.7
99931.4
99928
99924.6
99921
99917.3
99913.5
99909.6
99905.6
99901.4
99897.1
99892.7
99888.2
99883.5
99878.6
99873.6
99868.5
99863.2
99857.7
99852
99846.2
99840.1
99833.9
99827.5
99820.8
99814
99806.9
99799.6
99792
99784.2
99776.1
99767.7
99759
99750
99740.7
99731
99721
99710.6
99699.8
99688.6
99676.9
99664.7
99651.9
99638.6
99624.7
99610.1
99594.8
99578.7
99561.8
99544
99525.1
99505.2
99484.2
99461.9
99438.7
99414.2
99389.2
99364.2
99340.6
99320.2
99305.9
99303
99319.9
99371.9
99486.6
99710.7
100114
100660
101276
99983.9
99988.4
99990
99990.4
99990.1
99989.5
99988.5
99987.4
99986.1
99984.8
99983.3
99981.8
99980.2
99978.5
99976.8
99974.9
99973
99971.1
99969
99966.9
99964.7
99962.5
99960.1
99957.7
99955.2
99952.6
99949.9
99947.1
99944.2
99941.3
99938.2
99935.1
99931.8
99928.4
99925
99921.4
99917.7
99913.9
99910
99905.9
99901.8
99897.5
99893.1
99888.5
99883.8
99878.9
99873.9
99868.8
99863.4
99858
99852.3
99846.4
99840.4
99834.2
99827.7
99821.1
99814.3
99807.2
99799.9
99792.3
99784.5
99776.4
99768
99759.3
99750.4
99741.1
99731.4
99721.4
99711
99700.2
99689
99677.3
99665.1
99652.3
99639
99625
99610.4
99595
99578.8
99561.8
99543.8
99524.7
99504.6
99483.3
99460.9
99437.2
99412.5
99387.1
99361.7
99337.7
99316.7
99301.4
99296.7
99310.8
99357.7
99462.7
99669.6
100047
100576
101199
99984.8
99988.9
99990.3
99990.5
99990.1
99989.4
99988.4
99987.3
99986
99984.6
99983.2
99981.7
99980.1
99978.4
99976.7
99974.9
99973
99971
99969
99966.9
99964.8
99962.5
99960.2
99957.8
99955.3
99952.7
99950
99947.2
99944.4
99941.4
99938.4
99935.3
99932
99928.7
99925.2
99921.6
99918
99914.2
99910.3
99906.2
99902.1
99897.8
99893.4
99888.8
99884.1
99879.2
99874.2
99869.1
99863.8
99858.3
99852.6
99846.7
99840.7
99834.5
99828.1
99821.4
99814.6
99807.5
99800.2
99792.6
99784.8
99776.7
99768.4
99759.7
99750.7
99741.4
99731.8
99721.8
99711.4
99700.6
99689.4
99677.7
99665.4
99652.7
99639.3
99625.3
99610.7
99595.2
99578.9
99561.8
99543.6
99524.5
99504.1
99482.7
99459.9
99435.9
99410.8
99385
99359
99334.2
99312.1
99294.9
99287
99295.8
99332.8
99419.6
99594.4
99924.6
100416
101052
99986.3
99989.6
99990.6
99990.5
99989.9
99989.1
99988.1
99986.9
99985.6
99984.2
99982.8
99981.3
99979.7
99978
99976.3
99974.5
99972.6
99970.7
99968.7
99966.6
99964.5
99962.2
99959.9
99957.5
99955
99952.4
99949.8
99947
99944.2
99941.3
99938.2
99935.1
99931.9
99928.5
99925.1
99921.5
99917.9
99914.1
99910.2
99906.2
99902
99897.8
99893.4
99888.8
99884.1
99879.3
99874.3
99869.2
99863.9
99858.4
99852.7
99846.9
99840.9
99834.7
99828.3
99821.6
99814.8
99807.7
99800.4
99792.9
99785.1
99777
99768.7
99760
99751
99741.8
99732.1
99722.2
99711.8
99701
99689.8
99678.1
99665.9
99653.1
99639.8
99625.8
99611
99595.5
99579.2
99562
99543.7
99524.4
99504
99482.3
99459.3
99435
99409.5
99383
99356.3
99330.3
99306.7
99287.2
99274.8
99276.4
99300
99362.2
99493.3
99754.8
100181
100826
99988.2
99990.5
99990.9
99990.5
99989.7
99988.7
99987.6
99986.4
99985.1
99983.7
99982.2
99980.7
99979.1
99977.4
99975.7
99973.9
99972
99970.1
99968.1
99966
99963.8
99961.6
99959.2
99956.8
99954.3
99951.8
99949.1
99946.4
99943.5
99940.6
99937.6
99934.5
99931.2
99927.9
99924.5
99920.9
99917.3
99913.5
99909.6
99905.6
99901.5
99897.2
99892.9
99888.3
99883.7
99878.9
99873.9
99868.8
99863.5
99858.1
99852.5
99846.7
99840.7
99834.5
99828.1
99821.5
99814.7
99807.7
99800.4
99792.9
99785.2
99777.1
99768.8
99760.2
99751.3
99742
99732.4
99722.5
99712.1
99701.4
99690.2
99678.5
99666.3
99653.6
99640.2
99626.2
99611.5
99596
99579.6
99562.3
99544
99524.6
99504
99482.1
99458.9
99434.3
99408.4
99381.3
99353.7
99326.3
99300.7
99278.5
99262.3
99255.1
99263.4
99298
99379.2
99555.5
99881.9
100514
99990.3
99991.5
99991.3
99990.5
99989.5
99988.4
99987.2
99985.9
99984.5
99983.1
99981.6
99980.1
99978.5
99976.8
99975
99973.2
99971.3
99969.4
99967.4
99965.2
99963.1
99960.8
99958.5
99956
99953.5
99951
99948.3
99945.5
99942.7
99939.8
99936.7
99933.6
99930.3
99927
99923.5
99920
99916.3
99912.5
99908.6
99904.6
99900.5
99896.2
99891.9
99887.3
99882.7
99877.9
99872.9
99867.8
99862.5
99857.1
99851.5
99845.7
99839.8
99833.6
99827.3
99820.7
99814
99807
99799.8
99792.3
99784.6
99776.6
99768.3
99759.8
99750.9
99741.7
99732.2
99722.3
99712
99701.3
99690.2
99678.5
99666.4
99653.7
99640.4
99626.4
99611.7
99596.2
99579.8
99562.4
99544.1
99524.6
99503.9
99481.9
99458.5
99433.7
99407.4
99379.7
99351.1
99322.3
99294.5
99269.4
99248.9
99234.2
99228.1
99235.8
99267.4
99350.7
99538.4
100107
99992.4
99992.5
99991.7
99990.6
99989.4
99988.2
99986.9
99985.6
99984.2
99982.8
99981.3
99979.7
99978.1
99976.4
99974.6
99972.8
99970.9
99968.9
99966.9
99964.8
99962.6
99960.3
99957.9
99955.5
99953
99950.4
99947.7
99944.9
99942
99939
99936
99932.8
99929.5
99926.2
99922.7
99919.1
99915.4
99911.6
99907.7
99903.7
99899.5
99895.2
99890.8
99886.3
99881.6
99876.7
99871.8
99866.6
99861.3
99855.9
99850.3
99844.5
99838.5
99832.3
99826
99819.4
99812.7
99805.7
99798.4
99791
99783.2
99775.3
99767
99758.5
99749.6
99740.5
99730.9
99721.1
99710.8
99700.2
99689.1
99677.5
99665.5
99652.8
99639.6
99625.6
99611
99595.5
99579.2
99561.9
99543.5
99524
99503.3
99481.2
99457.7
99432.7
99406.1
99378
99348.5
99318.3
99288.6
99260.8
99236.4
99216.2
99198.7
99184
99173.5
99169.8
99184.2
99590.7
99994.3
99993.5
99992.2
99990.8
99989.5
99988.2
99986.9
99985.6
99984.2
99982.7
99981.2
99979.6
99978
99976.3
99974.5
99972.7
99970.8
99968.8
99966.8
99964.6
99962.4
99960.1
99957.8
99955.3
99952.8
99950.2
99947.4
99944.6
99941.7
99938.7
99935.6
99932.5
99929.2
99925.8
99922.3
99918.7
99915
99911.2
99907.2
99903.2
99899
99894.7
99890.3
99885.7
99881
99876.1
99871.1
99865.9
99860.6
99855.1
99849.4
99843.6
99837.6
99831.4
99825
99818.3
99811.5
99804.4
99797.2
99789.7
99781.9
99773.9
99765.6
99757
99748.1
99738.9
99729.3
99719.4
99709.1
99698.4
99687.3
99675.7
99663.6
99650.9
99637.6
99623.6
99609
99593.5
99577.1
99559.8
99541.4
99521.9
99501.2
99479.1
99455.5
99430.4
99403.7
99375.2
99345.2
99314.1
99282.8
99253
99226.1
99203
99178.5
99148.7
99108.5
99038.6
98869.7
98936.3
99995.9
99994.3
99992.7
99991.2
99989.8
99988.5
99987.1
99985.8
99984.4
99982.9
99981.4
99979.8
99978.2
99976.5
99974.7
99972.9
99971
99969
99967
99964.8
99962.6
99960.3
99958
99955.5
99953
99950.4
99947.6
99944.8
99941.9
99938.9
99935.8
99932.7
99929.4
99926
99922.5
99918.9
99915.2
99911.4
99907.4
99903.3
99899.2
99894.8
99890.4
99885.8
99881.1
99876.2
99871.2
99866
99860.7
99855.1
99849.5
99843.6
99837.5
99831.3
99824.8
99818.2
99811.3
99804.2
99796.9
99789.3
99781.6
99773.5
99765.1
99756.5
99747.5
99738.3
99728.7
99718.7
99708.3
99697.6
99686.4
99674.7
99662.5
99649.7
99636.3
99622.3
99607.4
99591.8
99575.3
99557.8
99539.3
99519.5
99498.6
99476.2
99452.4
99426.9
99399.8
99370.8
99340.1
99308.1
99275.5
99243.8
99214.5
99188.5
99164.3
99130.8
99074.7
98966.2
98653
98060.3
99997.6
99995
99993.1
99991.6
99990.2
99988.9
99987.5
99986.2
99984.8
99983.3
99981.8
99980.2
99978.6
99976.9
99975.1
99973.3
99971.4
99969.4
99967.4
99965.3
99963.1
99960.8
99958.4
99956
99953.4
99950.8
99948.1
99945.3
99942.4
99939.4
99936.4
99933.2
99929.9
99926.5
99923
99919.4
99915.7
99911.9
99908
99903.9
99899.7
99895.4
99891
99886.4
99881.7
99876.8
99871.8
99866.6
99861.3
99855.8
99850.1
99844.3
99838.2
99832
99825.5
99818.9
99812
99804.9
99797.6
99790
99782.2
99774.1
99765.8
99757.1
99748.1
99738.8
99729.2
99719.3
99708.9
99698.1
99686.9
99675.2
99663
99650.2
99636.8
99622.7
99607.9
99592.2
99575.7
99558.1
99539.5
99519.8
99498.8
99476.4
99452.5
99427
99399.7
99370.6
99339.7
99307.4
99274.8
99243.3
99213.9
99187.1
99152.4
99114.3
99054.1
98934.1
98552.4
96886.9
100561
101838
102380
102690
102901
103060
103185
103285
103367
103434
103490
103535
103571
103600
103623
103639
103650
103656
103657
103654
100516
101542
102176
102575
102843
103034
103179
103292
103382
103454
103512
103559
103595
103624
103645
103660
103669
103673
103672
103665
100803
101573
102118
102516
102802
103013
103171
103294
103391
103467
103527
103575
103612
103640
103660
103674
103681
103684
103682
103671
101080
101707
102168
102529
102806
103018
103181
103309
103408
103487
103548
103595
103631
103658
103676
103688
103693
103694
103691
103675
101316
101848
102252
102578
102837
103043
103204
103332
103432
103510
103571
103617
103651
103676
103692
103701
103705
103704
103699
103678
101516
101980
102342
102640
102883
103079
103236
103361
103459
103536
103595
103640
103672
103694
103707
103714
103715
103713
103705
103680
101677
102092
102425
102703
102932
103119
103270
103391
103487
103562
103620
103662
103692
103711
103722
103726
103725
103720
103709
103682
101799
102181
102493
102756
102975
103155
103302
103420
103514
103587
103643
103684
103711
103727
103735
103736
103733
103727
103712
103683
101879
102241
102541
102795
103008
103184
103328
103445
103538
103610
103664
103703
103728
103742
103747
103745
103740
103732
103715
103686
101924
102276
102571
102820
103030
103204
103347
103463
103555
103626
103679
103716
103740
103752
103755
103752
103746
103736
103715
103691
101921
102273
102568
102817
103027
103202
103345
103461
103553
103624
103677
103714
103738
103751
103754
103751
103745
103735
103716
103690
101869
102231
102532
102786
102999
103176
103321
103438
103531
103604
103659
103698
103724
103738
103744
103743
103739
103730
103714
103689
101780
102164
102477
102741
102961
103143
103291
103410
103505
103580
103636
103678
103706
103723
103732
103734
103731
103724
103711
103688
101651
102068
102403
102682
102913
103102
103256
103379
103476
103553
103611
103655
103686
103707
103718
103723
103722
103718
103707
103685
101483
101949
102314
102615
102861
103059
103219
103346
103446
103525
103586
103632
103665
103689
103703
103711
103712
103710
103703
103681
101278
101813
102220
102549
102812
103020
103185
103315
103418
103498
103560
103608
103644
103670
103687
103697
103702
103701
103697
103678
101036
101667
102132
102497
102778
102994
103161
103291
103393
103473
103537
103586
103623
103651
103671
103684
103690
103691
103689
103675
100755
101529
102079
102482
102773
102988
103150
103275
103374
103453
103515
103565
103604
103633
103655
103669
103678
103681
103679
103670
100461
101495
102136
102542
102814
103009
103157
103273
103366
103440
103500
103548
103587
103617
103640
103656
103666
103670
103669
103663
100505
101793
102343
102658
102873
103035
103163
103266
103350
103420
103477
103524
103562
103593
103616
103634
103646
103653
103654
103652
103496
103494
103494
103493
103492
103491
103491
103491
103490
103490
103490
103490
103491
103491
103491
103492
103493
103494
103494
103496
103493
103491
103491
103490
103490
103490
103490
103490
103489
103489
103489
103489
103490
103490
103490
103490
103490
103491
103491
103493
103493
103490
103490
103490
103490
103490
103490
103490
103490
103490
103490
103490
103490
103490
103490
103490
103490
103490
103490
103493
103493
103491
103491
103491
103491
103491
103491
103491
103491
103491
103491
103491
103491
103491
103491
103491
103491
103491
103491
103493
103492
103491
103490
103490
103490
103490
103490
103490
103490
103490
103490
103490
103490
103490
103490
103490
103490
103490
103491
103492
103492
103490
103490
103490
103490
103489
103489
103489
103489
103489
103489
103489
103489
103489
103489
103490
103490
103490
103490
103492
103491
103489
103489
103489
103489
103489
103489
103489
103489
103489
103489
103489
103489
103489
103489
103489
103489
103489
103489
103491
103490
103489
103489
103488
103488
103488
103488
103488
103488
103488
103488
103488
103488
103488
103488
103488
103488
103489
103489
103490
103490
103488
103488
103488
103488
103488
103488
103488
103488
103488
103488
103488
103488
103488
103488
103488
103488
103488
103488
103490
103489
103487
103487
103487
103487
103487
103487
103487
103487
103487
103487
103487
103487
103487
103487
103487
103487
103487
103487
103489
103488
103487
103487
103486
103486
103486
103486
103486
103486
103486
103486
103486
103486
103486
103486
103486
103486
103487
103487
103488
103488
103486
103486
103486
103486
103486
103486
103486
103485
103485
103485
103485
103486
103486
103486
103486
103486
103486
103486
103488
103487
103485
103485
103485
103485
103485
103485
103485
103485
103485
103485
103485
103485
103485
103485
103485
103485
103485
103485
103487
103486
103485
103484
103484
103484
103484
103484
103484
103484
103484
103484
103484
103484
103484
103484
103484
103484
103484
103485
103486
103485
103484
103484
103484
103483
103483
103483
103483
103483
103483
103483
103483
103483
103483
103483
103483
103484
103484
103484
103485
103485
103483
103483
103483
103483
103483
103483
103483
103483
103483
103483
103483
103483
103483
103483
103483
103483
103483
103483
103485
103484
103482
103482
103482
103482
103482
103482
103482
103482
103482
103482
103482
103482
103482
103482
103482
103482
103482
103482
103484
103483
103481
103481
103481
103481
103481
103481
103481
103481
103481
103481
103481
103481
103481
103481
103481
103481
103481
103481
103483
103482
103481
103481
103480
103480
103480
103480
103480
103480
103480
103480
103480
103480
103480
103480
103480
103480
103481
103481
103482
103481
103480
103480
103480
103480
103480
103480
103479
103479
103479
103479
103479
103479
103480
103480
103480
103480
103480
103480
103481
103480
103479
103479
103479
103479
103479
103479
103479
103479
103479
103479
103479
103479
103479
103479
103479
103479
103479
103479
103480
103480
103478
103478
103478
103478
103478
103478
103478
103478
103478
103478
103478
103478
103478
103478
103478
103478
103478
103478
103480
103479
103477
103477
103477
103477
103477
103477
103477
103477
103477
103477
103477
103477
103477
103477
103477
103477
103477
103477
103479
103478
103477
103477
103476
103476
103476
103476
103476
103476
103476
103476
103476
103476
103476
103476
103476
103476
103477
103477
103478
103477
103476
103476
103476
103476
103476
103476
103475
103475
103475
103475
103475
103475
103476
103476
103476
103476
103476
103476
103477
103476
103475
103475
103475
103475
103475
103475
103475
103475
103475
103475
103475
103475
103475
103475
103475
103475
103475
103475
103476
103475
103474
103474
103474
103474
103474
103474
103474
103474
103474
103474
103474
103474
103474
103474
103474
103474
103474
103474
103475
103475
103473
103473
103473
103473
103473
103473
103473
103473
103473
103473
103473
103473
103473
103473
103473
103473
103473
103473
103475
103474
103473
103473
103472
103472
103472
103472
103472
103472
103472
103472
103472
103472
103472
103472
103472
103472
103473
103473
103474
103473
103472
103472
103472
103472
103472
103472
103471
103471
103471
103471
103471
103471
103472
103472
103472
103472
103472
103472
103473
103472
103471
103471
103471
103471
103471
103471
103471
103471
103471
103471
103471
103471
103471
103471
103471
103471
103471
103471
103472
103471
103470
103470
103470
103470
103470
103470
103470
103470
103470
103470
103470
103470
103470
103470
103470
103470
103470
103470
103471
103470
103469
103469
103469
103469
103469
103469
103469
103469
103469
103469
103469
103469
103469
103469
103469
103469
103469
103469
103470
103469
103469
103469
103468
103468
103468
103468
103468
103468
103468
103468
103468
103468
103468
103468
103468
103468
103469
103469
103469
103469
103468
103468
103468
103468
103468
103468
103468
103468
103467
103467
103468
103468
103468
103468
103468
103468
103468
103468
103469
103468
103467
103467
103467
103467
103467
103467
103467
103467
103467
103467
103467
103467
103467
103467
103467
103467
103467
103467
103468
103467
103466
103466
103466
103466
103466
103466
103466
103466
103466
103466
103466
103466
103466
103466
103466
103466
103466
103466
103467
103466
103466
103465
103465
103465
103465
103465
103465
103465
103465
103465
103465
103465
103465
103465
103465
103465
103465
103466
103466
103465
103465
103465
103465
103465
103464
103464
103464
103464
103464
103464
103464
103464
103464
103464
103465
103465
103465
103465
103465
103464
103464
103464
103464
103464
103464
103464
103464
103464
103464
103464
103464
103464
103464
103464
103464
103464
103464
103464
103464
103464
103463
103463
103463
103463
103463
103463
103463
103463
103463
103463
103463
103463
103463
103463
103463
103463
103463
103463
103464
103463
103462
103462
103462
103462
103462
103462
103462
103462
103462
103462
103462
103462
103462
103462
103462
103462
103462
103462
103463
103462
103462
103462
103462
103461
103461
103461
103461
103461
103461
103461
103461
103461
103461
103461
103461
103462
103462
103462
103462
103461
103461
103461
103461
103461
103461
103461
103461
103461
103461
103461
103461
103461
103461
103461
103461
103461
103461
103461
103461
103461
103460
103460
103460
103460
103460
103460
103460
103460
103460
103460
103460
103460
103460
103460
103460
103460
103460
103460
103461
103460
103459
103459
103459
103459
103459
103459
103459
103459
103459
103459
103459
103459
103459
103459
103459
103459
103459
103459
103460
103459
103459
103459
103459
103459
103458
103458
103458
103458
103458
103458
103458
103458
103458
103458
103459
103459
103459
103459
103459
103458
103458
103458
103458
103458
103458
103458
103458
103458
103458
103458
103458
103458
103458
103458
103458
103458
103458
103458
103458
103458
103457
103457
103457
103457
103457
103457
103457
103457
103457
103457
103457
103457
103457
103457
103457
103457
103457
103457
103458
103457
103457
103456
103456
103456
103456
103456
103456
103456
103456
103456
103456
103456
103456
103456
103456
103456
103456
103457
103457
103456
103456
103456
103456
103456
103456
103456
103456
103456
103456
103456
103456
103456
103456
103456
103456
103456
103456
103456
103456
103455
103455
103455
103455
103455
103455
103455
103455
103455
103455
103455
103455
103455
103455
103455
103455
103455
103455
103455
103455
103455
103454
103454
103454
103454
103454
103454
103454
103454
103454
103454
103454
103454
103454
103454
103454
103454
103454
103454
103455
103454
103454
103454
103454
103454
103453
103453
103453
103453
103453
103453
103453
103453
103453
103453
103454
103454
103454
103454
103454
103453
103453
103453
103453
103453
103453
103453
103453
103453
103453
103453
103453
103453
103453
103453
103453
103453
103453
103453
103453
103452
103452
103452
103452
103452
103452
103452
103452
103452
103452
103452
103452
103452
103452
103452
103452
103452
103452
103452
103452
103452
103452
103452
103451
103451
103451
103451
103451
103451
103451
103451
103451
103451
103451
103451
103451
103451
103452
103452
103452
103451
103451
103451
103451
103451
103451
103451
103451
103451
103451
103451
103451
103451
103451
103451
103451
103451
103451
103451
103451
103450
103450
103450
103450
103450
103450
103450
103450
103450
103450
103450
103450
103450
103450
103450
103450
103450
103450
103450
103450
103450
103450
103449
103449
103449
103449
103449
103449
103449
103449
103449
103449
103449
103449
103449
103449
103449
103449
103450
103450
103449
103449
103449
103449
103449
103449
103449
103449
103449
103449
103449
103449
103449
103449
103449
103449
103449
103449
103449
103449
103448
103448
103448
103448
103448
103448
103448
103448
103448
103448
103448
103448
103448
103448
103448
103448
103448
103448
103448
103448
103448
103448
103447
103447
103447
103447
103447
103447
103447
103447
103447
103447
103447
103447
103447
103447
103447
103448
103448
103448
103447
103447
103447
103447
103447
103447
103447
103447
103447
103447
103447
103447
103447
103447
103447
103447
103447
103447
103447
103447
103446
103446
103446
103446
103446
103446
103446
103446
103446
103446
103446
103446
103446
103446
103446
103446
103446
103446
103446
103446
103446
103446
103445
103445
103445
103445
103445
103445
103445
103445
103445
103445
103445
103445
103445
103445
103446
103446
103446
103446
103445
103445
103445
103445
103445
103445
103445
103445
103445
103445
103445
103445
103445
103445
103445
103445
103445
103445
103445
103445
103444
103444
103444
103444
103444
103444
103444
103444
103444
103444
103444
103444
103444
103444
103444
103444
103444
103444
103444
103444
103444
103444
103443
103443
103443
103443
103443
103443
103443
103443
103443
103443
103443
103444
103444
103444
103444
103444
103444
103444
103443
103443
103443
103443
103443
103443
103443
103443
103443
103443
103443
103443
103443
103443
103443
103443
103443
103443
103443
103443
103442
103442
103442
103442
103442
103442
103442
103442
103442
103442
103442
103442
103442
103442
103442
103442
103442
103442
103443
103443
103442
103442
103441
103441
103441
103441
103441
103441
103441
103442
103442
103442
103442
103442
103442
103442
103442
103442
103442
103442
103441
103441
103441
103441
103441
103441
103441
103441
103441
103441
103441
103441
103441
103441
103441
103441
103441
103441
103441
103441
103440
103440
103440
103440
103440
103440
103440
103440
103440
103440
103440
103440
103440
103441
103441
103441
103441
103441
103441
103441
103439
103439
103439
103439
103439
103439
103439
103439
103440
103440
103440
103440
103440
103440
103440
103440
103440
103440
103440
103440
103439
103439
103439
103439
103439
103439
103439
103439
103439
103439
103439
103439
103439
103439
103440
103440
103440
103440
103440
103440
103438
103438
103438
103438
103438
103438
103438
103438
103438
103438
103438
103439
103439
103439
103439
103439
103439
103439
103439
103439