/*--------------------------------*- C++ -*----------------------------------*\
| =========                 |                                                 |
| \\      /  F ield         | OpenFOAM: The Open Source CFD Toolbox           |
|  \\    /   O peration     | Version:  2.1.0                                 |
|   \\  /    A nd           | Web:      www.OpenFOAM.org                      |
|    \\/     M anipulation  |                                                 |
\*---------------------------------------------------------------------------*/
FoamFile
{
    version     2.0;
    format      ascii;
    class       surfaceScalarField;
    location    "0.35";
    object      phi;
}
// * * * * * * * * * * * * * * * * * * * * * * * * * * * * * * * * * * * * * //

dimensions      [0 3 -1 0 0 0 0];

internalField   nonuniform List<scalar> 
12460
(
-2.58096e-05
-4.88548e-09
-2.57816e-05
-4.20825e-08
-2.57306e-05
-6.46925e-08
-2.56678e-05
-7.63105e-08
-2.55977e-05
-8.32905e-08
-2.55227e-05
-8.80335e-08
-2.54439e-05
-9.14868e-08
-2.53622e-05
-9.42096e-08
-2.5278e-05
-9.6511e-08
-2.51914e-05
-9.85741e-08
-2.51026e-05
-1.0051e-07
-2.50118e-05
-1.02377e-07
-2.49188e-05
-1.04218e-07
-2.48238e-05
-1.06046e-07
-2.47267e-05
-1.07884e-07
-2.46275e-05
-1.09731e-07
-2.45261e-05
-1.11602e-07
-2.44227e-05
-1.13488e-07
-2.43171e-05
-1.154e-07
-2.42093e-05
-1.17325e-07
-2.40993e-05
-1.19286e-07
-2.3987e-05
-1.21281e-07
-2.38726e-05
-1.23291e-07
-2.37558e-05
-1.2532e-07
-2.36367e-05
-1.27453e-07
-2.35151e-05
-1.2968e-07
-2.3391e-05
-1.31978e-07
-2.32643e-05
-1.34339e-07
-2.3135e-05
-1.36773e-07
-2.30029e-05
-1.3928e-07
-2.2868e-05
-1.41873e-07
-2.27302e-05
-1.44553e-07
-2.25894e-05
-1.47332e-07
-2.24455e-05
-1.50216e-07
-2.22984e-05
-1.53214e-07
-2.2148e-05
-1.56326e-07
-2.19941e-05
-1.59568e-07
-2.18367e-05
-1.62941e-07
-2.16756e-05
-1.66455e-07
-2.15106e-05
-1.70126e-07
-2.13415e-05
-1.73966e-07
-2.11683e-05
-1.77977e-07
-2.09907e-05
-1.82167e-07
-2.08086e-05
-1.86544e-07
-2.06217e-05
-1.91112e-07
-2.04299e-05
-1.95869e-07
-2.0233e-05
-2.00819e-07
-2.00308e-05
-2.05946e-07
-1.98231e-05
-2.11245e-07
-1.96098e-05
-2.16748e-07
-1.93909e-05
-2.22221e-07
-1.91661e-05
-2.27906e-07
-1.8935e-05
-2.34121e-07
-1.86973e-05
-2.40587e-07
-1.84529e-05
-2.4712e-07
-1.82021e-05
-2.53459e-07
-1.7945e-05
-2.59604e-07
-1.76817e-05
-2.65723e-07
-1.7412e-05
-2.71939e-07
-1.71359e-05
-2.7831e-07
-1.68531e-05
-2.84873e-07
-1.65634e-05
-2.91631e-07
-1.62667e-05
-2.98623e-07
-1.59626e-05
-3.0588e-07
-1.56508e-05
-3.13419e-07
-1.53312e-05
-3.2128e-07
-1.50032e-05
-3.295e-07
-1.46665e-05
-3.38135e-07
-1.43206e-05
-3.47221e-07
-1.39651e-05
-3.56785e-07
-1.35994e-05
-3.66865e-07
-1.3223e-05
-3.77513e-07
-1.28353e-05
-3.88772e-07
-1.24356e-05
-4.00714e-07
-1.20231e-05
-4.13418e-07
-1.1597e-05
-4.2699e-07
-1.11562e-05
-4.41566e-07
-1.06996e-05
-4.57314e-07
-1.02258e-05
-4.74474e-07
-9.73303e-06
-4.93388e-07
-9.21912e-06
-5.14476e-07
-8.68137e-06
-5.38265e-07
-8.1164e-06
-5.65431e-07
-7.5201e-06
-5.96701e-07
-6.88783e-06
-6.32615e-07
-6.21473e-06
-6.73374e-07
-5.49633e-06
-7.18602e-07
-4.72977e-06
-7.66692e-07
-3.91615e-06
-8.13658e-07
-3.06528e-06
-8.50798e-07
-2.20469e-06
-8.60392e-07
-1.39717e-06
-8.07196e-07
-7.47465e-07
-6.49294e-07
-3.62526e-07
-3.84636e-07
-2.81805e-07
-8.12192e-08
-5.33674e-07
2.50001e-07
-1.4268e-06
8.90748e-07
-3.71997e-06
2.2926e-06
-9.29055e-06
5.57055e-06
1.54962e-05
-2.47867e-05
-3.11533e-05
-2.55834e-08
-3.11147e-05
-9.59223e-08
-3.10608e-05
-1.3374e-07
-3.09974e-05
-1.54503e-07
-3.09279e-05
-1.67356e-07
-3.08541e-05
-1.76114e-07
-3.0777e-05
-1.82492e-07
-3.06974e-05
-1.87513e-07
-3.06155e-05
-1.91754e-07
-3.05316e-05
-1.95551e-07
-3.04458e-05
-1.99116e-07
-3.03582e-05
-2.02554e-07
-3.02687e-05
-2.05951e-07
-3.01773e-05
-2.09331e-07
-3.00841e-05
-2.12739e-07
-2.99891e-05
-2.16172e-07
-2.98921e-05
-2.1966e-07
-2.97933e-05
-2.23185e-07
-2.96925e-05
-2.26762e-07
-2.95897e-05
-2.30368e-07
-2.9485e-05
-2.34031e-07
-2.93782e-05
-2.37758e-07
-2.92695e-05
-2.41489e-07
-2.91589e-05
-2.45189e-07
-2.90463e-05
-2.49041e-07
-2.89316e-05
-2.53037e-07
-2.88149e-05
-2.57123e-07
-2.86962e-05
-2.61299e-07
-2.85754e-05
-2.65583e-07
-2.84524e-05
-2.69979e-07
-2.83273e-05
-2.74506e-07
-2.82e-05
-2.79168e-07
-2.80704e-05
-2.83982e-07
-2.79385e-05
-2.88956e-07
-2.78042e-05
-2.94107e-07
-2.76675e-05
-2.99434e-07
-2.75283e-05
-3.04965e-07
-2.73866e-05
-3.10707e-07
-2.72422e-05
-3.1666e-07
-2.70951e-05
-3.22852e-07
-2.69451e-05
-3.29304e-07
-2.67923e-05
-3.36024e-07
-2.66365e-05
-3.43028e-07
-2.64776e-05
-3.50333e-07
-2.63155e-05
-3.57954e-07
-2.615e-05
-3.65897e-07
-2.5981e-05
-3.74182e-07
-2.58084e-05
-3.82805e-07
-2.56319e-05
-3.91767e-07
-2.54515e-05
-4.01117e-07
-2.52669e-05
-4.10601e-07
-2.50784e-05
-4.20081e-07
-2.48864e-05
-4.29644e-07
-2.46911e-05
-4.39234e-07
-2.44926e-05
-4.48908e-07
-2.42906e-05
-4.58589e-07
-2.40851e-05
-4.68205e-07
-2.38759e-05
-4.77834e-07
-2.36631e-05
-4.87594e-07
-2.34466e-05
-4.97562e-07
-2.32264e-05
-5.07791e-07
-2.30023e-05
-5.18295e-07
-2.27743e-05
-5.29089e-07
-2.25424e-05
-5.40191e-07
-2.23065e-05
-5.51634e-07
-2.20665e-05
-5.63474e-07
-2.18224e-05
-5.7577e-07
-2.15741e-05
-5.8859e-07
-2.13213e-05
-6.02017e-07
-2.1064e-05
-6.1612e-07
-2.08018e-05
-6.3099e-07
-2.05344e-05
-6.46736e-07
-2.02616e-05
-6.63463e-07
-1.99828e-05
-6.81328e-07
-1.96974e-05
-7.00507e-07
-1.94049e-05
-7.21214e-07
-1.91044e-05
-7.43717e-07
-1.8795e-05
-7.68321e-07
-1.84756e-05
-7.95429e-07
-1.8145e-05
-8.25584e-07
-1.78016e-05
-8.59418e-07
-1.74438e-05
-8.97648e-07
-1.70696e-05
-9.41138e-07
-1.6677e-05
-9.9083e-07
-1.62637e-05
-1.04744e-06
-1.58275e-05
-1.11112e-06
-1.53668e-05
-1.18098e-06
-1.4881e-05
-1.25418e-06
-1.43722e-05
-1.32431e-06
-1.38465e-05
-1.37858e-06
-1.33164e-05
-1.39291e-06
-1.28005e-05
-1.32595e-06
-1.23344e-05
-1.11897e-06
-1.1998e-05
-7.25299e-07
-1.20582e-05
-2.51345e-08
-1.25875e-05
7.7617e-07
-1.39575e-05
2.25863e-06
-1.66836e-05
5.01822e-06
-2.18056e-05
1.06925e-05
2.65631e-05
-3.28725e-05
-3.41641e-05
-5.38513e-08
-3.41323e-05
-1.43248e-07
-3.40883e-05
-1.93133e-07
-3.40364e-05
-2.21539e-07
-3.39793e-05
-2.39271e-07
-3.39186e-05
-2.51308e-07
-3.38554e-05
-2.59978e-07
-3.379e-05
-2.66764e-07
-3.3723e-05
-2.72418e-07
-3.36544e-05
-2.77462e-07
-3.35844e-05
-2.82147e-07
-3.3513e-05
-2.86663e-07
-3.34403e-05
-2.91098e-07
-3.33662e-05
-2.95522e-07
-3.32908e-05
-2.99972e-07
-3.32141e-05
-3.04476e-07
-3.3136e-05
-3.09056e-07
-3.30565e-05
-3.1372e-07
-3.29755e-05
-3.18476e-07
-3.2893e-05
-3.23315e-07
-3.28089e-05
-3.28275e-07
-3.27232e-05
-3.33377e-07
-3.26357e-05
-3.38571e-07
-3.25466e-05
-3.43736e-07
-3.24558e-05
-3.48891e-07
-3.23637e-05
-3.54056e-07
-3.22702e-05
-3.59256e-07
-3.21753e-05
-3.64535e-07
-3.20791e-05
-3.69916e-07
-3.19815e-05
-3.75414e-07
-3.18826e-05
-3.81042e-07
-3.17824e-05
-3.8681e-07
-3.16809e-05
-3.92731e-07
-3.1578e-05
-3.98814e-07
-3.14738e-05
-4.05073e-07
-3.13683e-05
-4.11502e-07
-3.12615e-05
-4.18127e-07
-3.11534e-05
-4.2497e-07
-3.1044e-05
-4.32002e-07
-3.09333e-05
-4.39255e-07
-3.08215e-05
-4.46753e-07
-3.07084e-05
-4.54487e-07
-3.05942e-05
-4.62479e-07
-3.04788e-05
-4.70733e-07
-3.03623e-05
-4.79264e-07
-3.02449e-05
-4.88069e-07
-3.01264e-05
-4.97165e-07
-3.00071e-05
-5.06542e-07
-2.98869e-05
-5.16185e-07
-2.97661e-05
-5.26034e-07
-2.96447e-05
-5.36036e-07
-2.95225e-05
-5.46073e-07
-2.93999e-05
-5.55919e-07
-2.92772e-05
-5.65556e-07
-2.91544e-05
-5.75165e-07
-2.90315e-05
-5.84866e-07
-2.89083e-05
-5.94593e-07
-2.8785e-05
-6.04292e-07
-2.86616e-05
-6.13999e-07
-2.85383e-05
-6.23768e-07
-2.84153e-05
-6.33627e-07
-2.82927e-05
-6.43589e-07
-2.81708e-05
-6.5363e-07
-2.80498e-05
-6.63727e-07
-2.793e-05
-6.73889e-07
-2.78117e-05
-6.84149e-07
-2.76953e-05
-6.94542e-07
-2.7581e-05
-7.05099e-07
-2.74693e-05
-7.15887e-07
-2.73606e-05
-7.26973e-07
-2.72552e-05
-7.38441e-07
-2.71536e-05
-7.50413e-07
-2.7056e-05
-7.62989e-07
-2.69629e-05
-7.76368e-07
-2.68745e-05
-7.90774e-07
-2.67911e-05
-8.06484e-07
-2.67128e-05
-8.23867e-07
-2.66396e-05
-8.43339e-07
-2.65713e-05
-8.65417e-07
-2.65078e-05
-8.90824e-07
-2.64486e-05
-9.20378e-07
-2.6393e-05
-9.54934e-07
-2.63403e-05
-9.95452e-07
-2.62899e-05
-1.04291e-06
-2.62409e-05
-1.0981e-06
-2.61925e-05
-1.16114e-06
-2.61444e-05
-1.23071e-06
-2.60972e-05
-1.30307e-06
-2.60528e-05
-1.37034e-06
-2.60155e-05
-1.41756e-06
-2.59916e-05
-1.41842e-06
-2.59891e-05
-1.32991e-06
-2.60199e-05
-1.08955e-06
-2.6128e-05
-6.18103e-07
-2.63059e-05
1.5228e-07
-2.6817e-05
1.28697e-06
-2.78397e-05
3.28112e-06
-2.9763e-05
6.94142e-06
-3.33094e-05
1.4239e-05
3.11874e-05
-3.79337e-05
-3.68909e-05
-8.16595e-08
-3.68711e-05
-1.78566e-07
-3.68439e-05
-2.35812e-07
-3.68108e-05
-2.69834e-07
-3.67737e-05
-2.91291e-07
-3.67339e-05
-3.05704e-07
-3.66922e-05
-3.15914e-07
-3.66492e-05
-3.23756e-07
-3.66052e-05
-3.30142e-07
-3.65603e-05
-3.35742e-07
-3.65147e-05
-3.40846e-07
-3.64684e-05
-3.45711e-07
-3.64216e-05
-3.50427e-07
-3.63743e-05
-3.55101e-07
-3.63264e-05
-3.59761e-07
-3.62781e-05
-3.64457e-07
-3.62294e-05
-3.69203e-07
-3.61802e-05
-3.74022e-07
-3.61306e-05
-3.78915e-07
-3.60806e-05
-3.83866e-07
-3.60303e-05
-3.8893e-07
-3.59797e-05
-3.94074e-07
-3.59288e-05
-3.99283e-07
-3.58775e-05
-4.04569e-07
-3.58259e-05
-4.09833e-07
-3.57739e-05
-4.15035e-07
-3.57218e-05
-4.20216e-07
-3.56695e-05
-4.2543e-07
-3.5617e-05
-4.30701e-07
-3.55645e-05
-4.36042e-07
-3.5512e-05
-4.41465e-07
-3.54595e-05
-4.46977e-07
-3.5407e-05
-4.52584e-07
-3.53548e-05
-4.58291e-07
-3.53027e-05
-4.64105e-07
-3.5251e-05
-4.70014e-07
-3.51997e-05
-4.76023e-07
-3.51489e-05
-4.82148e-07
-3.50987e-05
-4.88378e-07
-3.50492e-05
-4.94717e-07
-3.50006e-05
-5.01168e-07
-3.4953e-05
-5.07717e-07
-3.49065e-05
-5.14366e-07
-3.48614e-05
-5.21105e-07
-3.48178e-05
-5.27931e-07
-3.47759e-05
-5.34819e-07
-3.4736e-05
-5.41763e-07
-3.46984e-05
-5.48732e-07
-3.46633e-05
-5.5569e-07
-3.4631e-05
-5.62534e-07
-3.46019e-05
-5.69256e-07
-3.45758e-05
-5.76111e-07
-3.45525e-05
-5.8301e-07
-3.4532e-05
-5.89689e-07
-3.45145e-05
-5.96191e-07
-3.45002e-05
-6.02546e-07
-3.44893e-05
-6.08707e-07
-3.4482e-05
-6.14622e-07
-3.44787e-05
-6.20281e-07
-3.44796e-05
-6.2571e-07
-3.4485e-05
-6.3092e-07
-3.44952e-05
-6.35919e-07
-3.45106e-05
-6.40685e-07
-3.45316e-05
-6.45175e-07
-3.45583e-05
-6.49395e-07
-3.45912e-05
-6.53382e-07
-3.46306e-05
-6.57181e-07
-3.46768e-05
-6.6085e-07
-3.473e-05
-6.64475e-07
-3.47906e-05
-6.6816e-07
-3.48586e-05
-6.72035e-07
-3.49343e-05
-6.76288e-07
-3.50177e-05
-6.81124e-07
-3.51086e-05
-6.86823e-07
-3.52069e-05
-6.93724e-07
-3.53124e-05
-7.02247e-07
-3.54245e-05
-7.12912e-07
-3.55426e-05
-7.26302e-07
-3.56659e-05
-7.43036e-07
-3.57937e-05
-7.64013e-07
-3.59246e-05
-7.90214e-07
-3.60578e-05
-8.22548e-07
-3.61919e-05
-8.61995e-07
-3.6326e-05
-9.09477e-07
-3.6459e-05
-9.65627e-07
-3.65904e-05
-1.03026e-06
-3.67201e-05
-1.10149e-06
-3.68487e-05
-1.17481e-06
-3.69779e-05
-1.24147e-06
-3.71099e-05
-1.28579e-06
-3.72469e-05
-1.28164e-06
-3.73884e-05
-1.18863e-06
-3.75338e-05
-9.44278e-07
-3.76811e-05
-4.70856e-07
-3.78352e-05
3.06353e-07
-3.81307e-05
1.58252e-06
-3.86868e-05
3.83712e-06
-3.96753e-05
7.92999e-06
-4.12808e-05
1.58444e-05
3.12477e-05
-4.1341e-05
-3.96503e-05
-1.01968e-07
-3.96476e-05
-1.96571e-07
-3.96435e-05
-2.55224e-07
-3.96369e-05
-2.91403e-07
-3.96284e-05
-3.14479e-07
-3.96189e-05
-3.29712e-07
-3.96086e-05
-3.40294e-07
-3.95981e-05
-3.48117e-07
-3.95875e-05
-3.54288e-07
-3.95771e-05
-3.59472e-07
-3.95668e-05
-3.6406e-07
-3.9557e-05
-3.68286e-07
-3.95476e-05
-3.72292e-07
-3.95387e-05
-3.76162e-07
-3.95304e-05
-3.79949e-07
-3.95228e-05
-3.83683e-07
-3.9516e-05
-3.8739e-07
-3.95101e-05
-3.91083e-07
-3.95051e-05
-3.94759e-07
-3.95012e-05
-3.98371e-07
-3.94985e-05
-4.01977e-07
-3.94971e-05
-4.05555e-07
-3.94972e-05
-4.09079e-07
-3.94988e-05
-4.12663e-07
-3.95017e-05
-4.1635e-07
-3.95058e-05
-4.20038e-07
-3.95113e-05
-4.23678e-07
-3.95182e-05
-4.27287e-07
-3.95265e-05
-4.30876e-07
-3.95363e-05
-4.34453e-07
-3.95478e-05
-4.38023e-07
-3.9561e-05
-4.41591e-07
-3.9576e-05
-4.45159e-07
-3.9593e-05
-4.48725e-07
-3.9612e-05
-4.52291e-07
-3.96332e-05
-4.55847e-07
-3.96566e-05
-4.59394e-07
-3.96824e-05
-4.6292e-07
-3.97107e-05
-4.66434e-07
-3.97417e-05
-4.6994e-07
-3.97754e-05
-4.73422e-07
-3.98121e-05
-4.76873e-07
-3.98517e-05
-4.80292e-07
-3.98946e-05
-4.8367e-07
-3.99407e-05
-4.87007e-07
-3.99903e-05
-4.9028e-07
-4.00434e-05
-4.9349e-07
-4.01002e-05
-4.96617e-07
-4.01608e-05
-4.99632e-07
-4.02251e-05
-5.02494e-07
-4.02933e-05
-5.0522e-07
-4.03654e-05
-5.07916e-07
-4.04416e-05
-5.10534e-07
-4.0522e-05
-5.12924e-07
-4.06065e-05
-5.15063e-07
-4.06954e-05
-5.16951e-07
-4.07886e-05
-5.18567e-07
-4.08862e-05
-5.19891e-07
-4.09883e-05
-5.20928e-07
-4.10949e-05
-5.21713e-07
-4.12059e-05
-5.22293e-07
-4.13214e-05
-5.22719e-07
-4.14412e-05
-5.22972e-07
-4.15653e-05
-5.23008e-07
-4.16937e-05
-5.22858e-07
-4.18262e-05
-5.22587e-07
-4.19626e-05
-5.22272e-07
-4.21029e-05
-5.21997e-07
-4.22468e-05
-5.21864e-07
-4.23942e-05
-5.22e-07
-4.25448e-05
-5.22554e-07
-4.26983e-05
-5.23717e-07
-4.28546e-05
-5.25717e-07
-4.30134e-05
-5.28838e-07
-4.31743e-05
-5.33425e-07
-4.33373e-05
-5.39896e-07
-4.3502e-05
-5.48776e-07
-4.3668e-05
-5.6071e-07
-4.38353e-05
-5.76204e-07
-4.40035e-05
-5.96198e-07
-4.41722e-05
-6.21767e-07
-4.43413e-05
-6.53718e-07
-4.45105e-05
-6.92975e-07
-4.46798e-05
-7.40352e-07
-4.48492e-05
-7.9637e-07
-4.50188e-05
-8.60765e-07
-4.5189e-05
-9.31447e-07
-4.53602e-05
-1.00364e-06
-4.5533e-05
-1.06873e-06
-4.57071e-05
-1.11179e-06
-4.58799e-05
-1.10881e-06
-4.60448e-05
-1.02383e-06
-4.61866e-05
-8.02404e-07
-4.6285e-05
-3.72456e-07
-4.6343e-05
3.64329e-07
-4.64003e-05
1.63978e-06
-4.64727e-05
3.9095e-06
-4.65599e-05
8.01722e-06
-4.63379e-05
1.56224e-05
2.84186e-05
-4.35089e-05
-4.25756e-05
-1.08403e-07
-4.25943e-05
-1.92442e-07
-4.26182e-05
-2.45927e-07
-4.26442e-05
-2.79675e-07
-4.26715e-05
-3.01244e-07
-4.26998e-05
-3.15164e-07
-4.2729e-05
-3.24502e-07
-4.27594e-05
-3.31007e-07
-4.27908e-05
-3.35814e-07
-4.28234e-05
-3.3954e-07
-4.28573e-05
-3.42608e-07
-4.28925e-05
-3.45225e-07
-4.29291e-05
-3.47557e-07
-4.29673e-05
-3.49667e-07
-4.3007e-05
-3.51627e-07
-4.30484e-05
-3.53449e-07
-4.30916e-05
-3.55167e-07
-4.31365e-05
-3.56803e-07
-4.31834e-05
-3.58353e-07
-4.32322e-05
-3.59737e-07
-4.32832e-05
-3.6102e-07
-4.33363e-05
-3.62263e-07
-4.33914e-05
-3.6345e-07
-4.34488e-05
-3.64628e-07
-4.35084e-05
-3.65829e-07
-4.35704e-05
-3.66992e-07
-4.36347e-05
-3.6808e-07
-4.37014e-05
-3.69097e-07
-4.37705e-05
-3.70048e-07
-4.38422e-05
-3.70939e-07
-4.39163e-05
-3.71779e-07
-4.39931e-05
-3.72576e-07
-4.40724e-05
-3.73339e-07
-4.41545e-05
-3.74068e-07
-4.42392e-05
-3.74771e-07
-4.43266e-05
-3.75445e-07
-4.44167e-05
-3.76107e-07
-4.45096e-05
-3.76736e-07
-4.46051e-05
-3.77344e-07
-4.47035e-05
-3.77945e-07
-4.48045e-05
-3.78547e-07
-4.49082e-05
-3.79143e-07
-4.50146e-05
-3.7974e-07
-4.51236e-05
-3.80337e-07
-4.52352e-05
-3.80945e-07
-4.53493e-05
-3.81546e-07
-4.54659e-05
-3.82147e-07
-4.55848e-05
-3.82743e-07
-4.5706e-05
-3.83311e-07
-4.58294e-05
-3.83827e-07
-4.59549e-05
-3.84314e-07
-4.60824e-05
-3.84819e-07
-4.62119e-05
-3.8531e-07
-4.63432e-05
-3.85709e-07
-4.64763e-05
-3.8599e-07
-4.66109e-05
-3.86131e-07
-4.67471e-05
-3.8611e-07
-4.68846e-05
-3.85914e-07
-4.70233e-05
-3.85543e-07
-4.71633e-05
-3.85014e-07
-4.73042e-05
-3.84385e-07
-4.74462e-05
-3.83734e-07
-4.75889e-05
-3.83022e-07
-4.77324e-05
-3.8214e-07
-4.78767e-05
-3.81116e-07
-4.80217e-05
-3.80003e-07
-4.81673e-05
-3.78889e-07
-4.83136e-05
-3.77844e-07
-4.84605e-05
-3.76954e-07
-4.8608e-05
-3.76335e-07
-4.87562e-05
-3.76129e-07
-4.8905e-05
-3.76504e-07
-4.90546e-05
-3.77675e-07
-4.92049e-05
-3.79927e-07
-4.9356e-05
-3.83601e-07
-4.9508e-05
-3.8911e-07
-4.96609e-05
-3.96969e-07
-4.98148e-05
-4.07827e-07
-4.99697e-05
-4.22191e-07
-5.0126e-05
-4.40771e-07
-5.0284e-05
-4.64558e-07
-5.04438e-05
-4.94513e-07
-5.06059e-05
-5.31557e-07
-5.07703e-05
-5.7641e-07
-5.09376e-05
-6.29556e-07
-5.1108e-05
-6.9087e-07
-5.12815e-05
-7.58289e-07
-5.14584e-05
-8.27082e-07
-5.16379e-05
-8.89422e-07
-5.18178e-05
-9.32099e-07
-5.19924e-05
-9.3439e-07
-5.21504e-05
-8.66022e-07
-5.22677e-05
-6.85168e-07
-5.2315e-05
-3.2521e-07
-5.22743e-05
3.23563e-07
-5.21178e-05
1.48326e-06
-5.1764e-05
3.55561e-06
-5.10426e-05
7.2958e-06
-4.93376e-05
1.39173e-05
2.38243e-05
-4.47434e-05
-4.55792e-05
-9.93119e-08
-4.562e-05
-1.64671e-07
-4.56714e-05
-2.07557e-07
-4.57287e-05
-2.35138e-07
-4.57898e-05
-2.5262e-07
-4.58536e-05
-2.63547e-07
-4.59196e-05
-2.70464e-07
-4.59875e-05
-2.74856e-07
-4.6057e-05
-2.77699e-07
-4.61282e-05
-2.7954e-07
-4.6201e-05
-2.80757e-07
-4.62754e-05
-2.81537e-07
-4.63515e-05
-2.82035e-07
-4.64291e-05
-2.82312e-07
-4.65083e-05
-2.82442e-07
-4.65892e-05
-2.82438e-07
-4.66717e-05
-2.82338e-07
-4.67558e-05
-2.82161e-07
-4.68415e-05
-2.81919e-07
-4.69288e-05
-2.81507e-07
-4.70179e-05
-2.80896e-07
-4.71088e-05
-2.80121e-07
-4.72015e-05
-2.79255e-07
-4.72962e-05
-2.78349e-07
-4.73928e-05
-2.7744e-07
-4.74914e-05
-2.765e-07
-4.75919e-05
-2.75517e-07
-4.76942e-05
-2.74486e-07
-4.77985e-05
-2.73427e-07
-4.79045e-05
-2.72339e-07
-4.80124e-05
-2.7125e-07
-4.8122e-05
-2.70164e-07
-4.82334e-05
-2.69115e-07
-4.83463e-05
-2.68094e-07
-4.84608e-05
-2.67133e-07
-4.85768e-05
-2.66223e-07
-4.86942e-05
-2.65388e-07
-4.8813e-05
-2.64614e-07
-4.89329e-05
-2.63935e-07
-4.90539e-05
-2.63347e-07
-4.91759e-05
-2.62866e-07
-4.92989e-05
-2.62487e-07
-4.94226e-05
-2.62218e-07
-4.95471e-05
-2.62055e-07
-4.96722e-05
-2.6201e-07
-4.97977e-05
-2.6206e-07
-4.99237e-05
-2.62203e-07
-5.005e-05
-2.62442e-07
-5.01765e-05
-2.62749e-07
-5.03032e-05
-2.63094e-07
-5.04299e-05
-2.63486e-07
-5.05567e-05
-2.63949e-07
-5.06834e-05
-2.6444e-07
-5.081e-05
-2.64891e-07
-5.09365e-05
-2.65273e-07
-5.10629e-05
-2.65548e-07
-5.1189e-05
-2.6568e-07
-5.1315e-05
-2.6564e-07
-5.14408e-05
-2.65413e-07
-5.15664e-05
-2.6499e-07
-5.1692e-05
-2.64411e-07
-5.18174e-05
-2.63808e-07
-5.19428e-05
-2.63141e-07
-5.20682e-05
-2.62155e-07
-5.21937e-05
-2.60902e-07
-5.23196e-05
-2.59445e-07
-5.24458e-05
-2.57861e-07
-5.25725e-05
-2.56214e-07
-5.26999e-05
-2.5458e-07
-5.28281e-05
-2.5306e-07
-5.29572e-05
-2.51781e-07
-5.30875e-05
-2.509e-07
-5.32191e-05
-2.50627e-07
-5.33523e-05
-2.51227e-07
-5.34872e-05
-2.53036e-07
-5.3624e-05
-2.56456e-07
-5.3763e-05
-2.61959e-07
-5.39047e-05
-2.70073e-07
-5.40491e-05
-2.81558e-07
-5.41962e-05
-2.97217e-07
-5.43464e-05
-3.17781e-07
-5.45001e-05
-3.44122e-07
-5.46576e-05
-3.77118e-07
-5.48195e-05
-4.174e-07
-5.49864e-05
-4.65382e-07
-5.51585e-05
-5.21355e-07
-5.53356e-05
-5.83614e-07
-5.55174e-05
-6.47476e-07
-5.57022e-05
-7.06555e-07
-5.58861e-05
-7.5002e-07
-5.60608e-05
-7.61327e-07
-5.62115e-05
-7.16714e-07
-5.63102e-05
-5.87539e-07
-5.63179e-05
-3.18402e-07
-5.61892e-05
1.94221e-07
-5.58495e-05
1.14291e-06
-5.51328e-05
2.83818e-06
-5.37302e-05
5.89222e-06
-5.09177e-05
1.11034e-05
1.82061e-05
-4.53011e-05
-4.82584e-05
-7.77751e-08
-4.83136e-05
-1.20169e-07
-4.83816e-05
-1.50136e-07
-4.84575e-05
-1.69449e-07
-4.85386e-05
-1.81549e-07
-4.8623e-05
-1.88881e-07
-4.87098e-05
-1.93208e-07
-4.87983e-05
-1.95634e-07
-4.88882e-05
-1.96855e-07
-4.89792e-05
-1.97295e-07
-4.90713e-05
-1.97226e-07
-4.91644e-05
-1.96802e-07
-4.92585e-05
-1.96138e-07
-4.93535e-05
-1.95291e-07
-4.94494e-05
-1.94319e-07
-4.95461e-05
-1.93239e-07
-4.96438e-05
-1.92078e-07
-4.97424e-05
-1.90814e-07
-4.9842e-05
-1.89453e-07
-4.99424e-05
-1.88038e-07
-5.00436e-05
-1.86582e-07
-5.01454e-05
-1.8502e-07
-5.02478e-05
-1.83408e-07
-5.03508e-05
-1.81795e-07
-5.04543e-05
-1.80223e-07
-5.05584e-05
-1.78672e-07
-5.06629e-05
-1.77158e-07
-5.07678e-05
-1.75658e-07
-5.0873e-05
-1.74213e-07
-5.09784e-05
-1.72791e-07
-5.10841e-05
-1.71446e-07
-5.11899e-05
-1.70153e-07
-5.12958e-05
-1.68979e-07
-5.14018e-05
-1.6788e-07
-5.15078e-05
-1.66916e-07
-5.16137e-05
-1.66051e-07
-5.17195e-05
-1.65317e-07
-5.18251e-05
-1.6469e-07
-5.19306e-05
-1.642e-07
-5.20359e-05
-1.63846e-07
-5.2141e-05
-1.63623e-07
-5.22458e-05
-1.63526e-07
-5.23504e-05
-1.63554e-07
-5.24548e-05
-1.63698e-07
-5.25589e-05
-1.63961e-07
-5.26628e-05
-1.64319e-07
-5.27664e-05
-1.64753e-07
-5.28699e-05
-1.65263e-07
-5.29733e-05
-1.65823e-07
-5.30765e-05
-1.66403e-07
-5.31797e-05
-1.66987e-07
-5.32828e-05
-1.67576e-07
-5.3386e-05
-1.68135e-07
-5.34894e-05
-1.68602e-07
-5.35929e-05
-1.68941e-07
-5.36966e-05
-1.69109e-07
-5.38007e-05
-1.69067e-07
-5.39052e-05
-1.68777e-07
-5.40101e-05
-1.68218e-07
-5.41157e-05
-1.67368e-07
-5.4222e-05
-1.66216e-07
-5.4329e-05
-1.64995e-07
-5.44368e-05
-1.6378e-07
-5.45455e-05
-1.61998e-07
-5.46554e-05
-1.59763e-07
-5.47665e-05
-1.57201e-07
-5.4879e-05
-1.54377e-07
-5.49931e-05
-1.51339e-07
-5.51089e-05
-1.48152e-07
-5.52265e-05
-1.449e-07
-5.53462e-05
-1.41701e-07
-5.54682e-05
-1.38697e-07
-5.55926e-05
-1.36091e-07
-5.57197e-05
-1.3413e-07
-5.58497e-05
-1.33133e-07
-5.59829e-05
-1.33484e-07
-5.61195e-05
-1.35633e-07
-5.62599e-05
-1.40079e-07
-5.64042e-05
-1.47629e-07
-5.65528e-05
-1.59123e-07
-5.6706e-05
-1.75232e-07
-5.6864e-05
-1.96726e-07
-5.70274e-05
-2.24413e-07
-5.71967e-05
-2.58877e-07
-5.73725e-05
-3.00327e-07
-5.75548e-05
-3.4972e-07
-5.77428e-05
-4.06374e-07
-5.79359e-05
-4.65071e-07
-5.81313e-05
-5.21611e-07
-5.83237e-05
-5.68051e-07
-5.85027e-05
-5.92369e-07
-5.86507e-05
-5.78455e-07
-5.87402e-05
-5.07103e-07
-5.87221e-05
-3.44771e-07
-5.85227e-05
-1.24108e-08
-5.80401e-05
6.53524e-07
-5.70402e-05
1.83049e-06
-5.51174e-05
3.95976e-06
-5.15363e-05
7.50956e-06
1.2028e-05
-4.5374e-05
-5.02427e-05
-4.42417e-08
-5.03028e-05
-6.75634e-08
-5.0376e-05
-8.41542e-08
-5.04576e-05
-9.49061e-08
-5.05443e-05
-1.01676e-07
-5.06338e-05
-1.05836e-07
-5.07251e-05
-1.08301e-07
-5.08171e-05
-1.09657e-07
-5.09096e-05
-1.10292e-07
-5.10021e-05
-1.10433e-07
-5.10946e-05
-1.10248e-07
-5.11868e-05
-1.09816e-07
-5.12789e-05
-1.09208e-07
-5.13706e-05
-1.08469e-07
-5.1462e-05
-1.07633e-07
-5.15532e-05
-1.06713e-07
-5.1644e-05
-1.05726e-07
-5.17344e-05
-1.04647e-07
-5.18245e-05
-1.03486e-07
-5.19142e-05
-1.02346e-07
-5.20034e-05
-1.01287e-07
-5.2092e-05
-1.00234e-07
-5.218e-05
-9.91808e-08
-5.22674e-05
-9.81483e-08
-5.23541e-05
-9.716e-08
-5.24402e-05
-9.62048e-08
-5.25257e-05
-9.52964e-08
-5.26105e-05
-9.44149e-08
-5.26948e-05
-9.35831e-08
-5.27784e-05
-9.2775e-08
-5.28614e-05
-9.20251e-08
-5.29439e-05
-9.13182e-08
-5.30258e-05
-9.07017e-08
-5.31073e-05
-9.01474e-08
-5.31882e-05
-8.96916e-08
-5.32688e-05
-8.9312e-08
-5.33489e-05
-8.90228e-08
-5.34287e-05
-8.88041e-08
-5.35083e-05
-8.86715e-08
-5.35876e-05
-8.8627e-08
-5.36667e-05
-8.86738e-08
-5.37456e-05
-8.87847e-08
-5.38246e-05
-8.89673e-08
-5.39035e-05
-8.92036e-08
-5.39825e-05
-8.94954e-08
-5.40616e-05
-8.98263e-08
-5.41409e-05
-9.01782e-08
-5.42206e-05
-9.05245e-08
-5.43005e-05
-9.08392e-08
-5.4381e-05
-9.1119e-08
-5.44619e-05
-9.13519e-08
-5.45433e-05
-9.14966e-08
-5.46255e-05
-9.15239e-08
-5.47084e-05
-9.13938e-08
-5.47922e-05
-9.10577e-08
-5.48769e-05
-9.04786e-08
-5.49626e-05
-8.96145e-08
-5.50494e-05
-8.84256e-08
-5.51374e-05
-8.68752e-08
-5.52267e-05
-8.49576e-08
-5.53174e-05
-8.25674e-08
-5.54098e-05
-7.99882e-08
-5.55034e-05
-7.77598e-08
-5.55987e-05
-7.45686e-08
-5.56959e-05
-7.07413e-08
-5.57951e-05
-6.64927e-08
-5.58964e-05
-6.18793e-08
-5.6e-05
-5.69337e-08
-5.6106e-05
-5.17026e-08
-5.62146e-05
-4.62575e-08
-5.63259e-05
-4.07011e-08
-5.64402e-05
-3.51632e-08
-5.65577e-05
-2.98289e-08
-5.66786e-05
-2.49297e-08
-5.68032e-05
-2.07613e-08
-5.69317e-05
-1.76869e-08
-5.70645e-05
-1.61323e-08
-5.72018e-05
-1.66219e-08
-5.73441e-05
-1.98585e-08
-5.74918e-05
-2.65809e-08
-5.76454e-05
-3.7486e-08
-5.78054e-05
-5.33331e-08
-5.79724e-05
-7.48626e-08
-5.81468e-05
-1.02789e-07
-5.83297e-05
-1.36854e-07
-5.85213e-05
-1.78526e-07
-5.87193e-05
-2.30026e-07
-5.89239e-05
-2.83507e-07
-5.91318e-05
-3.38275e-07
-5.93364e-05
-3.89579e-07
-5.95267e-05
-4.2993e-07
-5.96838e-05
-4.51065e-07
-5.97797e-05
-4.42786e-07
-5.97639e-05
-3.93894e-07
-5.95555e-05
-2.55611e-07
-5.89904e-05
5.31883e-08
-5.78243e-05
6.2736e-07
-5.55818e-05
1.67404e-06
-5.15373e-05
3.41217e-06
5.5505e-06
-4.51212e-05
-5.11147e-05
-5.0798e-09
-5.11736e-05
-1.26628e-08
-5.12452e-05
-1.63065e-08
-5.13249e-05
-1.88058e-08
-5.14093e-05
-2.08073e-08
-5.14959e-05
-2.24702e-08
-5.15835e-05
-2.38696e-08
-5.16712e-05
-2.50184e-08
-5.17585e-05
-2.59811e-08
-5.1845e-05
-2.67578e-08
-5.19305e-05
-2.74062e-08
-5.20151e-05
-2.79227e-08
-5.20985e-05
-2.83185e-08
-5.21808e-05
-2.86241e-08
-5.22619e-05
-2.88435e-08
-5.23419e-05
-2.89848e-08
-5.24209e-05
-2.90429e-08
-5.24987e-05
-2.90137e-08
-5.25754e-05
-2.89096e-08
-5.2651e-05
-2.87973e-08
-5.27257e-05
-2.86948e-08
-5.27993e-05
-2.85759e-08
-5.28721e-05
-2.84218e-08
-5.29439e-05
-2.82525e-08
-5.3015e-05
-2.80702e-08
-5.30852e-05
-2.78811e-08
-5.31548e-05
-2.76799e-08
-5.32236e-05
-2.7476e-08
-5.32919e-05
-2.72465e-08
-5.33596e-05
-2.70068e-08
-5.34267e-05
-2.67469e-08
-5.34935e-05
-2.65028e-08
-5.35598e-05
-2.62589e-08
-5.36258e-05
-2.60492e-08
-5.36915e-05
-2.58519e-08
-5.37571e-05
-2.56916e-08
-5.38225e-05
-2.5556e-08
-5.38877e-05
-2.54436e-08
-5.3953e-05
-2.53525e-08
-5.40182e-05
-2.52826e-08
-5.40836e-05
-2.52457e-08
-5.41491e-05
-2.52145e-08
-5.42148e-05
-2.51917e-08
-5.42808e-05
-2.51602e-08
-5.43472e-05
-2.51186e-08
-5.44139e-05
-2.50542e-08
-5.44811e-05
-2.49482e-08
-5.45488e-05
-2.47689e-08
-5.46172e-05
-2.44944e-08
-5.46862e-05
-2.41216e-08
-5.47559e-05
-2.36406e-08
-5.48265e-05
-2.30002e-08
-5.48979e-05
-2.21674e-08
-5.49703e-05
-2.11129e-08
-5.50437e-05
-1.97863e-08
-5.51182e-05
-1.81435e-08
-5.51938e-05
-1.61537e-08
-5.52707e-05
-1.37641e-08
-5.53489e-05
-1.09276e-08
-5.54286e-05
-7.62623e-09
-5.55096e-05
-3.83928e-09
-5.55927e-05
7.27078e-10
-5.56768e-05
3.883e-09
-5.57628e-05
8.83821e-09
-5.58507e-05
1.45706e-08
-5.59408e-05
2.07721e-08
-5.60331e-05
2.74267e-08
-5.61276e-05
3.45282e-08
-5.62247e-05
4.205e-08
-5.63244e-05
4.99336e-08
-5.64269e-05
5.80919e-08
-5.65325e-05
6.64141e-08
-5.66413e-05
7.47361e-08
-5.67536e-05
8.28454e-08
-5.68698e-05
9.04746e-08
-5.699e-05
9.72882e-08
-5.71146e-05
1.02884e-07
-5.7244e-05
1.06761e-07
-5.73785e-05
1.083e-07
-5.75187e-05
1.06836e-07
-5.76651e-05
1.01692e-07
-5.78182e-05
9.21353e-08
-5.79784e-05
7.74133e-08
-5.81465e-05
5.69633e-08
-5.83219e-05
2.99995e-08
-5.85077e-05
-1.66903e-09
-5.86983e-05
-4.88591e-08
-5.8896e-05
-9.62629e-08
-5.90968e-05
-1.49239e-07
-5.92937e-05
-2.06062e-07
-5.94755e-05
-2.63577e-07
-5.96246e-05
-3.20092e-07
-5.97105e-05
-3.78438e-07
-5.96894e-05
-4.40815e-07
-5.94721e-05
-5.04584e-07
-5.88932e-05
-5.65203e-07
-5.76758e-05
-6.35838e-07
-5.53202e-05
-7.30853e-07
-5.10948e-05
-8.63259e-07
-9.83511e-07
-4.46042e-05
-5.05568e-05
3.29411e-08
-5.06152e-05
4.46945e-08
-5.06875e-05
5.49111e-08
-5.07684e-05
6.10584e-08
-5.08544e-05
6.41967e-08
-5.09432e-05
6.53627e-08
-5.10334e-05
6.53611e-08
-5.1124e-05
6.47063e-08
-5.12146e-05
6.37002e-08
-5.13048e-05
6.25249e-08
-5.13944e-05
6.12814e-08
-5.14832e-05
6.00202e-08
-5.15712e-05
5.87985e-08
-5.16582e-05
5.76036e-08
-5.17443e-05
5.64645e-08
-5.18295e-05
5.53781e-08
-5.19136e-05
5.43679e-08
-5.19968e-05
5.34282e-08
-5.2079e-05
5.2558e-08
-5.21601e-05
5.1712e-08
-5.22403e-05
5.0894e-08
-5.23196e-05
5.01096e-08
-5.2398e-05
4.9381e-08
-5.24754e-05
4.86891e-08
-5.2552e-05
4.8046e-08
-5.26277e-05
4.7438e-08
-5.27026e-05
4.68782e-08
-5.27767e-05
4.63488e-08
-5.285e-05
4.58923e-08
-5.29227e-05
4.54885e-08
-5.29947e-05
4.51627e-08
-5.30661e-05
4.48633e-08
-5.31369e-05
4.46205e-08
-5.32072e-05
4.43856e-08
-5.3277e-05
4.41993e-08
-5.33464e-05
4.40218e-08
-5.34155e-05
4.38824e-08
-5.34842e-05
4.37659e-08
-5.35527e-05
4.36873e-08
-5.3621e-05
4.36463e-08
-5.36892e-05
4.36558e-08
-5.37573e-05
4.37022e-08
-5.38254e-05
4.38069e-08
-5.38935e-05
4.39753e-08
-5.39618e-05
4.42262e-08
-5.40302e-05
4.45693e-08
-5.40989e-05
4.50261e-08
-5.41679e-05
4.56209e-08
-5.42373e-05
4.63731e-08
-5.43071e-05
4.72964e-08
-5.43775e-05
4.84082e-08
-5.44484e-05
4.97479e-08
-5.452e-05
5.13497e-08
-5.45923e-05
5.32462e-08
-5.46654e-05
5.54866e-08
-5.47394e-05
5.81249e-08
-5.48142e-05
6.11693e-08
-5.48901e-05
6.46851e-08
-5.49671e-05
6.87528e-08
-5.50453e-05
7.33487e-08
-5.51246e-05
7.85153e-08
-5.52049e-05
8.40912e-08
-5.52873e-05
8.95817e-08
-5.53712e-05
9.62227e-08
-5.54566e-05
1.03701e-07
-5.55437e-05
1.11829e-07
-5.56327e-05
1.2057e-07
-5.57236e-05
1.29917e-07
-5.58167e-05
1.39857e-07
-5.59121e-05
1.5034e-07
-5.60099e-05
1.61297e-07
-5.61103e-05
1.72642e-07
-5.62137e-05
1.84236e-07
-5.63201e-05
1.9589e-07
-5.64299e-05
2.07366e-07
-5.65433e-05
2.18361e-07
-5.66607e-05
2.28505e-07
-5.67824e-05
2.37334e-07
-5.69088e-05
2.44293e-07
-5.70403e-05
2.48775e-07
-5.71775e-05
2.50135e-07
-5.73208e-05
2.4765e-07
-5.74707e-05
2.40563e-07
-5.76275e-05
2.28186e-07
-5.77915e-05
2.09762e-07
-5.79605e-05
1.84356e-07
-5.81391e-05
1.48766e-07
-5.83209e-05
1.06941e-07
-5.85016e-05
5.57994e-08
-5.86741e-05
-5.97994e-09
-5.88287e-05
-7.79834e-08
-5.89481e-05
-1.66268e-07
-5.90027e-05
-2.85338e-07
-5.89452e-05
-4.5541e-07
-5.86925e-05
-7.09453e-07
-5.8088e-05
-1.11635e-06
-5.68533e-05
-1.81133e-06
-5.45014e-05
-3.01753e-06
-5.03298e-05
-4.96471e-06
-7.29767e-06
-4.39465e-05
-4.88745e-05
6.21109e-08
-4.8929e-05
1.00358e-07
-4.89982e-05
1.25202e-07
-4.90768e-05
1.40788e-07
-4.91614e-05
1.49918e-07
-4.92497e-05
1.54869e-07
-4.93405e-05
1.57347e-07
-4.94329e-05
1.58305e-07
-4.95264e-05
1.58433e-07
-4.96207e-05
1.58029e-07
-4.97155e-05
1.57389e-07
-4.98108e-05
1.56569e-07
-4.99064e-05
1.55678e-07
-5.00022e-05
1.54737e-07
-5.00982e-05
1.5379e-07
-5.01943e-05
1.52834e-07
-5.02905e-05
1.51901e-07
-5.03866e-05
1.50982e-07
-5.04827e-05
1.50079e-07
-5.05787e-05
1.49159e-07
-5.06745e-05
1.48232e-07
-5.07702e-05
1.47297e-07
-5.08656e-05
1.46373e-07
-5.09608e-05
1.45444e-07
-5.10556e-05
1.44524e-07
-5.11501e-05
1.436e-07
-5.12441e-05
1.42684e-07
-5.13377e-05
1.41763e-07
-5.14308e-05
1.4088e-07
-5.15235e-05
1.4004e-07
-5.16156e-05
1.3926e-07
-5.17071e-05
1.385e-07
-5.17982e-05
1.37771e-07
-5.18886e-05
1.3705e-07
-5.19785e-05
1.36366e-07
-5.20677e-05
1.35701e-07
-5.21565e-05
1.35082e-07
-5.22446e-05
1.34495e-07
-5.23322e-05
1.33963e-07