/*--------------------------------*- C++ -*----------------------------------*\
| =========                 |                                                 |
| \\      /  F ield         | OpenFOAM: The Open Source CFD Toolbox           |
|  \\    /   O peration     | Version:  2.1.0                                 |
|   \\  /    A nd           | Web:      www.OpenFOAM.org                      |
|    \\/     M anipulation  |                                                 |
\*---------------------------------------------------------------------------*/
FoamFile
{
    version     2.0;
    format      ascii;
    class       volScalarField;
    location    "0.35";
    object      rho;
}
// * * * * * * * * * * * * * * * * * * * * * * * * * * * * * * * * * * * * * //

dimensions      [1 -3 0 0 0 0 0];

internalField   nonuniform List<scalar> 
6400
(
966.307
965.78
965.265
964.761
964.266
963.78
963.302
962.832
962.37
961.916
961.471
961.033
960.603
960.182
959.769
959.364
958.967
958.578
958.198
957.826
957.462
957.106
956.758
956.418
956.086
955.762
955.446
955.138
954.837
954.544
954.259
953.982
953.711
953.449
953.193
952.945
952.704
952.47
952.243
952.023
951.809
951.602
951.402
951.208
951.021
950.839
950.664
950.495
950.331
950.174
950.022
949.875
949.734
949.599
949.468
949.343
949.222
949.106
948.994
948.886
948.782
948.683
948.588
948.497
948.41
948.327
948.247
948.172
948.101
948.034
947.971
947.912
947.857
947.807
947.761
947.719
947.682
947.65
947.623
947.602
947.588
947.58
947.582
947.595
947.621
947.667
947.738
947.846
948.011
948.27
948.694
949.441
950.881
953.806
958.185
952.887
945.296
944.568
944.555
944.555
962.23
961.765
961.302
960.849
960.406
959.972
959.546
959.128
958.719
958.318
957.925
957.54
957.163
956.794
956.433
956.08
955.735
955.398
955.069
954.748
954.434
954.128
953.829
953.538
953.255
952.978
952.709
952.447
952.192
951.944
951.703
951.468
951.241
951.019
950.805
950.596
950.394
950.198
950.008
949.824
949.646
949.474
949.307
949.145
948.989
948.838
948.693
948.552
948.416
948.286
948.16
948.038
947.921
947.808
947.698
947.593
947.491
947.393
947.298
947.206
947.118
947.033
946.951
946.872
946.796
946.723
946.653
946.585
946.519
946.456
946.395
946.337
946.281
946.227
946.176
946.127
946.08
946.035
945.993
945.953
945.916
945.881
945.849
945.82
945.794
945.772
945.753
945.738
945.725
945.714
945.7
945.674
945.618
945.499
945.269
944.936
944.617
944.557
944.555
944.555
959.884
959.457
959.028
958.609
958.199
957.797
957.404
957.019
956.642
956.273
955.912
955.558
955.212
954.874
954.543
954.22
953.905
953.597
953.296
953.003
952.717
952.438
952.166
951.902
951.645
951.394
951.15
950.913
950.682
950.458
950.24
950.028
949.823
949.623
949.43
949.242
949.06
948.884
948.713
948.548
948.388
948.233
948.083
947.939
947.799
947.664
947.534
947.408
947.286
947.169
947.056
946.947
946.842
946.74
946.642
946.548
946.457
946.37
946.286
946.205
946.127
946.052
945.98
945.911
945.844
945.779
945.717
945.657
945.599
945.543
945.489
945.436
945.385
945.336
945.288
945.242
945.196
945.153
945.11
945.068
945.028
944.989
944.951
944.914
944.878
944.844
944.81
944.778
944.747
944.717
944.688
944.66
944.634
944.611
944.591
944.577
944.561
944.555
944.555
944.555
958.195
957.799
957.4
957.01
956.629
956.256
955.89
955.532
955.182
954.838
954.503
954.174
953.853
953.538
953.231
952.931
952.638
952.351
952.071
951.798
951.532
951.272
951.018
950.771
950.531
950.296
950.068
949.845
949.629
949.419
949.215
949.016
948.823
948.636
948.454
948.278
948.107
947.942
947.782
947.627
947.477
947.332
947.192
947.056
946.926
946.8
946.678
946.561
946.449
946.34
946.236
946.136
946.04
945.948
945.86
945.776
945.696
945.619
945.546
945.477
945.41
945.348
945.288
945.231
945.177
945.127
945.078
945.033
944.99
944.95
944.912
944.876
944.843
944.812
944.783
944.756
944.731
944.709
944.688
944.669
944.652
944.637
944.623
944.611
944.6
944.591
944.584
944.577
944.572
944.567
944.564
944.561
944.559
944.558
944.557
944.556
944.555
944.555
944.555
944.555
957.14
956.777
956.409
956.048
955.694
955.347
955.008
954.675
954.348
954.029
953.716
953.41
953.11
952.816
952.529
952.248
951.974
951.705
951.443
951.186
950.936
950.691
950.452
950.218
949.99
949.768
949.552
949.34
949.135
948.934
948.739
948.549
948.364
948.185
948.01
947.84
947.676
947.516
947.361
947.211
947.065
946.925
946.789
946.657
946.531
946.409
946.291
946.179
946.07
945.966
945.867
945.772
945.682
945.596
945.514
945.436
945.363
945.294
945.228
945.167
945.11
945.056
945.006
944.96
944.917
944.877
944.841
944.807
944.777
944.749
944.724
944.701
944.681
944.663
944.647
944.633
944.62
944.609
944.6
944.592
944.585
944.579
944.574
944.57
944.566
944.564
944.561
944.559
944.558
944.557
944.556
944.556
944.555
944.555
944.555
944.555
944.555
944.555
944.555
944.555
956.924
956.597
956.266
955.94
955.619
955.305
954.996
954.693
954.396
954.104
953.819
953.54
953.266
952.998
952.735
952.478
952.226
951.98
951.738
951.502
951.271
951.045
950.824
950.607
950.396
950.189
949.987
949.789
949.596
949.408
949.223
949.043
948.867
948.695
948.528
948.364
948.204
948.048
947.896
947.748
947.604
947.464
947.327
947.194
947.065
946.939
946.817
946.699
946.584
946.473
946.366
946.262
946.161
946.065
945.972
945.882
945.796
945.713
945.634
945.558
945.486
945.417
945.351
945.289
945.23
945.175
945.122
945.073
945.026
944.983
944.942
944.904
944.869
944.836
944.806
944.778
944.752
944.728
944.706
944.687
944.668
944.652
944.637
944.624
944.612
944.601
944.592
944.583
944.576
944.57
944.565
944.561
944.559
944.557
944.556
944.556
944.556
944.555
944.555
944.555
957.981
957.701
957.419
957.139
956.864
956.593
956.328
956.068
955.813
955.563
955.319
955.079
954.845
954.615
954.389
954.168
953.951
953.738
953.53
953.324
953.123
952.925
952.732
952.542
952.356
952.173
951.993
951.817
951.644
951.474
951.307
951.143
950.981
950.822
950.666
950.512
950.36
950.21
950.062
949.917
949.772
949.63
949.489
949.35
949.212
949.075
948.94
948.805
948.672
948.54
948.409
948.279
948.15
948.021
947.894
947.768
947.643
947.519
947.396
947.275
947.155
947.036
946.919
946.804
946.69
946.579
946.469
946.362
946.258
946.155
946.056
945.959
945.865
945.773
945.684
945.599
945.516
945.436
945.359
945.285
945.214
945.146
945.082
945.02
944.961
944.905
944.851
944.802
944.755
944.713
944.675
944.643
944.617
944.597
944.584
944.577
944.572
944.568
944.566
944.565
960.765
960.542
960.318
960.096
959.879
959.665
959.457
959.252
959.053
958.858
958.668
958.482
958.3
958.123
957.949
957.779
957.612
957.449
957.289
957.131
956.977
956.826
956.677
956.531
956.388
956.246
956.107
955.969
955.834
955.699
955.566
955.435
955.304
955.174
955.045
954.916
954.788
954.659
954.531
954.402
954.274
954.144
954.014
953.882
953.75
953.617
953.482
953.346
953.208
953.068
952.927
952.784
952.639
952.491
952.342
952.19
952.036
951.88
951.722
951.561
951.398
951.233
951.065
950.895
950.723
950.549
950.373
950.195
950.016
949.835
949.652
949.467
949.282
949.095
948.907
948.718
948.528
948.337
948.145
947.952
947.757
947.56
947.362
947.161
946.958
946.753
946.546
946.337
946.128
945.92
945.717
945.522
945.342
945.18
945.046
944.949
944.871
944.809
944.764
944.738
965.629
965.474
965.32
965.168
965.021
964.877
964.738
964.601
964.47
964.342
964.218
964.097
963.981
963.868
963.758
963.651
963.548
963.448
963.35
963.255
963.163
963.073
962.984
962.896
962.81
962.724
962.639
962.554
962.47
962.386
962.302
962.218
962.133
962.048
961.963
961.876
961.789
961.701
961.611
961.52
961.428
961.335
961.24
961.143
961.045
960.944
960.842
960.738
960.631
960.522
960.411
960.297
960.181
960.062
959.941
959.816
959.689
959.558
959.424
959.287
959.147
959.002
958.854
958.701
958.545
958.383
958.217
958.047
957.871
957.689
957.502
957.31
957.11
956.904
956.691
956.471
956.242
956.003
955.755
955.496
955.224
954.938
954.637
954.317
953.978
953.615
953.227
952.81
952.361
951.88
951.367
950.824
950.254
949.666
949.07
948.49
947.996
947.547
947.171
946.909
972.557
972.476
972.396
972.318
972.243
972.17
972.1
972.031
971.965
971.901
971.839
971.779
971.721
971.665
971.61
971.556
971.504
971.453
971.403
971.354
971.306
971.258
971.212
971.165
971.12
971.074
971.029
970.985
970.94
970.896
970.852
970.808
970.764
970.72
970.676
970.632
970.588
970.544
970.5
970.456
970.412
970.368
970.324
970.279
970.235
970.19
970.145
970.1
970.055
970.009
969.963
969.917
969.87
969.823
969.776
969.728
969.68
969.632
969.584
969.535
969.486
969.437
969.388
969.338
969.287
969.235
969.181
969.127
969.07
969.011
968.951
968.887
968.821
968.752
968.679
968.602
968.52
968.432
968.339
968.238
968.13
968.014
967.888
967.751
967.603
967.441
967.265
967.061
966.823
966.546
966.223
965.847
965.41
964.901
964.306
963.607
962.794
961.959
961.174
960.57
979.937
979.919
979.9
979.883
979.865
979.849
979.832
979.817
979.801
979.786
979.77
979.756
979.741
979.727
979.713
979.699
979.686
979.674
979.661
979.65
979.639
979.628
979.619
979.61
979.602
979.596
979.59
979.585
979.581
979.579
979.578
979.578
979.58
979.583
979.587
979.593
979.6
979.609
979.619
979.631
979.644
979.659
979.676
979.695
979.715
979.736
979.76
979.786
979.813
979.842
979.874
979.907
979.943
979.981
980.021
980.064
980.109
980.158
980.209
980.263
980.32
980.381
980.445
980.514
980.587
980.665
980.749
980.839
980.936
981.04
981.151
981.27
981.398
981.535
981.683
981.841
982.011
982.193
982.389
982.597
982.82
983.058
983.311
983.579
983.863
984.162
984.478
984.82
985.194
985.604
986.054
986.54
987.067
987.638
988.257
988.925
989.64
990.388
991.133
991.803
985.848
985.878
985.909
985.942
985.975
986.01
986.044
986.08
986.115
986.151
986.187
986.224
986.261
986.298
986.335
986.373
986.411
986.449
986.488
986.527
986.566
986.607
986.647
986.689
986.731
986.774
986.818
986.862
986.908
986.955
987.003
987.052
987.103
987.155
987.208
987.263
987.32
987.378
987.439
987.501
987.565
987.631
987.7
987.771
987.844
987.92
987.998
988.079
988.163
988.25
988.339
988.432
988.528
988.627
988.73
988.836
988.947
989.061
989.179
989.301
989.429
989.561
989.699
989.843
989.993
990.149
990.312
990.482
990.66
990.846
991.04
991.243
991.455
991.677
991.908
992.149
992.401
992.662
992.934
993.215
993.506
993.806
994.115
994.43
994.751
995.078
995.407
995.737
996.065
996.389
996.706
997.025
997.344
997.657
997.96
998.248
998.517
998.76
998.965
999.119
990.225
990.277
990.333
990.392
990.452
990.514
990.577
990.641
990.705
990.771
990.837
990.904
990.971
991.039
991.108
991.177
991.247
991.317
991.388
991.46
991.533
991.606
991.68
991.754
991.83
991.906
991.983
992.061
992.14
992.22
992.301
992.383
992.466
992.55
992.636
992.722
992.81
992.9
992.991
993.083
993.177
993.272
993.369
993.467
993.567
993.669
993.772
993.878
993.985
994.094
994.204
994.317
994.432
994.549
994.668
994.789
994.912
995.037
995.165
995.295
995.428
995.563
995.7
995.839
995.981
996.124
996.27
996.418
996.568
996.72
996.873
997.028
997.184
997.341
997.499
997.657
997.814
997.971
998.127
998.28
998.431
998.579
998.722
998.86
998.992
999.117
999.235
999.345
999.445
999.535
999.615
999.684
999.742
999.793
999.837
999.874
999.904
999.928
999.946
999.957
993.38
993.436
993.498
993.564
993.632
993.702
993.773
993.845
993.918
993.992
994.066
994.142
994.217
994.293
994.37
994.448
994.526
994.604
994.684
994.763
994.844
994.925
995.007
995.089
995.172
995.255
995.339
995.424
995.509
995.595
995.682
995.769
995.856
995.945
996.033
996.123
996.212
996.302
996.393
996.484
996.575
996.667
996.758
996.85
996.942
997.034
997.127
997.219
997.311
997.402
997.494
997.585
997.676
997.767
997.857
997.947
998.036
998.124
998.212
998.299
998.385
998.47
998.554
998.636
998.717
998.797
998.874
998.951
999.025
999.097
999.167
999.235
999.301
999.364
999.425
999.483
999.538
999.59
999.639
999.685
999.728
999.768
999.804
999.837
999.866
999.892
999.914
999.934
999.95
999.963
999.973
999.981
999.986
999.99
999.993
999.995
999.997
999.998
999.998
999.999
995.493
995.547
995.607
995.671
995.736
995.804
995.872
995.942
996.012
996.082
996.153
996.225
996.297
996.369
996.442
996.515
996.588
996.661
996.735
996.809
996.883
996.957
997.032
997.106
997.181
997.255
997.33
997.404
997.478
997.553
997.627
997.7
997.774
997.847
997.92
997.993
998.065
998.136
998.207
998.277
998.346
998.415
998.483
998.549
998.615
998.68
998.743
998.805
998.867
998.926
998.985
999.041
999.097
999.151
999.203
999.254
999.303
999.35
999.396
999.44
999.482
999.522
999.56
999.597
999.632
999.665
999.696
999.725
999.753
999.779
999.803
999.825
999.846
999.865
999.883
999.899
999.914
999.927
999.939
999.949
999.959
999.967
999.974
999.98
999.984
999.988
999.992
999.994
999.996
999.997
999.998
999.999
999.999
1000
1000
1000
1000
1000
1000
1000
996.877
996.925
996.978
997.035
997.093
997.153
997.213
997.274
997.335
997.397
997.459
997.521
997.583
997.645
997.707
997.769
997.831
997.893
997.955
998.016
998.078
998.139
998.199
998.259
998.319
998.379
998.437
998.496
998.553
998.61
998.666
998.721
998.776
998.83
998.883
998.935
998.986
999.036
999.085
999.132
999.179
999.224
999.269
999.311
999.353
999.393
999.432
999.47
999.506
999.54
999.574
999.605
999.636
999.664
999.692
999.718
999.742
999.765
999.787
999.807
999.826
999.844
999.86
999.875
999.889
999.902
999.914
999.925
999.934
999.943
999.951
999.958
999.965
999.97
999.975
999.98
999.983
999.986
999.989
999.992
999.993
999.995
999.996
999.997
999.998
999.999
999.999
999.999
1000
1000
1000
1000
1000
1000
1000
1000
1000
1000
1000
1000
997.813
997.853
997.898
997.945
997.993
998.042
998.092
998.142
998.192
998.242
998.292
998.342
998.391
998.441
998.49
998.54
998.588
998.637
998.685
998.733
998.78
998.827
998.873
998.919
998.964
999.008
999.052
999.094
999.137
999.178
999.218
999.258
999.297
999.334
999.371
999.407
999.441
999.475
999.507
999.538
999.569
999.598
999.625
999.652
999.678
999.702
999.725
999.747
999.768
999.788
999.806
999.824
999.84
999.855
999.869
999.883
999.895
999.906
999.916
999.926
999.935
999.943
999.95
999.956
999.962
999.968
999.972
999.976
999.98
999.983
999.986
999.988
999.991
999.992
999.994
999.995
999.996
999.997
999.998
999.998
999.999
999.999
999.999
1000
1000
1000
1000
1000
1000
1000
1000
1000
1000
1000
1000
1000
1000
1000
1000
1000
998.475
998.507
998.543
998.58
998.618
998.656
998.695
998.733
998.771
998.81
998.848
998.886
998.924
998.962
998.999
999.036
999.072
999.109
999.144
999.18
999.214
999.249
999.282
999.315
999.348
999.38
999.411
999.441
999.471
999.5
999.528
999.555
999.582
999.607
999.632
999.656
999.679
999.701
999.722
999.742
999.761
999.779
999.797
999.813
999.828
999.843
999.857
999.87
999.882
999.893
999.904
999.914
999.923
999.931
999.939
999.946
999.952
999.958
999.963
999.968
999.972
999.976
999.979
999.982
999.985
999.987
999.989
999.991
999.993
999.994
999.995
999.996
999.997
999.998
999.998
999.999
999.999
999.999
999.999
1000
1000
1000
1000
1000
1000
1000
1000
1000
1000
1000
1000
1000
1000
1000
1000
1000
1000
1000
1000
1000
998.96
998.984
999.011
999.039
999.067
999.095
999.123
999.151
999.18
999.208
999.236
999.263
999.291
999.318
999.345
999.372
999.398
999.424
999.449
999.474
999.499
999.523
999.547
999.57
999.592
999.614
999.635
999.656
999.676
999.696
999.714
999.732
999.75
999.767
999.783
999.798
999.812
999.826
999.84
999.852
999.864
999.875
999.886
999.896
999.905
999.914
999.922
999.93
999.937
999.943
999.949
999.955
999.96
999.965
999.969
999.973
999.976
999.979
999.982
999.985
999.987
999.989
999.991
999.992
999.993
999.994
999.995
999.996
999.997
999.998
999.998
999.998
999.999
999.999
999.999
999.999
1000
1000
1000
1000
1000
1000
1000
1000
1000
1000
1000
1000
1000
1000
1000
1000
1000
1000
1000
1000
1000
1000
1000
1000
999.392
999.408
999.425
999.442
999.459
999.477
999.494
999.512
999.529
999.547
999.564
999.581
999.598
999.615
999.631
999.648
999.664
999.68
999.695
999.71
999.725
999.739
999.753
999.767
999.78
999.793
999.806
999.818
999.829
999.84
999.851
999.861
999.871
999.88
999.889
999.897
999.905
999.913
999.92
999.927
999.933
999.939
999.945
999.95
999.955
999.959
999.963
999.967
999.97
999.974
999.977
999.979
999.982
999.984
999.986
999.988
999.989
999.991
999.992
999.993
999.994
999.995
999.996
999.997
999.997
999.998
999.998
999.998
999.999
999.999
999.999
999.999
1000
1000
1000
1000
1000
1000
1000
1000
1000
1000
1000
1000
1000
1000
1000
1000
1000
1000
1000
1000
1000
1000
1000
1000
1000
1000
1000
1000
944.555
944.555
944.555
944.555
944.555
944.555
944.555
944.555
944.555
944.555
944.555
944.555
944.555
944.556
944.556
944.557
944.559
944.563
944.572
944.594
944.555
944.555
944.555
944.555
944.555
944.555
944.555
944.555
944.555
944.555
944.555
944.555
944.556
944.556
944.558
944.56
944.564
944.572
944.591
944.648
944.555
944.555
944.555
944.555
944.555
944.555
944.555
944.555
944.555
944.555
944.556
944.556
944.557
944.559
944.561
944.566
944.576
944.597
944.651
944.838
944.555
944.555
944.555
944.555
944.555
944.555
944.555
944.555
944.556
944.556
944.557
944.559
944.561
944.565
944.572
944.586
944.615
944.682
944.868
945.573
944.555
944.555
944.555
944.555
944.555
944.556
944.556
944.557
944.558
944.56
944.563
944.568
944.575
944.588
944.611
944.656
944.751
944.978
945.644
948.351
944.556
944.556
944.557
944.557
944.559
944.56
944.563
944.566
944.571
944.578
944.588
944.604
944.628
944.67
944.744
944.885
945.183
945.892
947.999
956.862
944.567
944.57
944.575
944.581
944.588
944.598
944.61
944.625
944.643
944.667
944.7
944.749
944.825
944.947
945.159
945.55
946.337
948.138
953.257
973.458
944.751
944.779
944.811
944.849
944.891
944.935
944.979
945.021
945.068
945.129
945.215
945.34
945.53
945.833
946.341
947.245
948.977
952.677
961.922
989.787
946.894
947.025
947.158
947.296
947.422
947.504
947.562
947.6
947.663
947.75
947.884
948.08
948.395
948.908
949.853
951.579
954.851
961.199
973.684
996.79
960.446
960.693
960.943
961.184
961.385
961.477
961.547
961.642
961.745
961.84
961.963
962.096
962.344
962.72
963.65
965.627
969.664
976.669
987.486
996.735
992.134
992.064
992.023
992.007
992.052
992.248
992.498
992.761
993.042
993.368
993.727
994.165
994.659
995.283
995.818
996.238
996.43
996.815
998.147
998.984
999.168
999.134
999.105
999.08
999.066
999.082
999.117
999.177
999.237
999.303
999.37
999.447
999.522
999.608
999.674
999.722
999.745
999.778
999.885
999.712
999.959
999.954
999.949
999.944
999.939
999.935
999.934
999.936
999.941
999.948
999.954
999.961
999.968
999.974
999.979
999.982
999.985
999.988
999.991
999.937
999.999
999.999
999.999
999.998
999.998
999.997
999.997
999.997
999.997
999.997
999.998
999.998
999.998
999.999
999.999
999.999
999.999
999.999
999.999
999.994
1000
1000
1000
1000
1000
1000
1000
1000
1000
1000
1000
1000
1000
1000
1000
1000
1000
1000
1000
1000
1000
1000
1000
1000
1000
1000
1000
1000
1000
1000
1000
1000
1000
1000
1000
1000
1000
1000
1000
1000
1000
1000
1000
1000
1000
1000
1000
1000
1000
1000
1000
1000
1000
1000
1000
1000
1000
1000
1000
1000
1000
1000
1000
1000
1000
1000
1000
1000
1000
1000
1000
1000
1000
1000
1000
1000
1000
1000
1000
1000
1000
1000
1000
1000
1000
1000
1000
1000
1000
1000
1000
1000
1000
1000
1000
1000
1000
1000
1000
1000
1000
1000
1000
1000
1000
1000
1000
1000
1000
1000
1000
1000
1000
1000
1000
1000
1000
1000
1000
1000
944.555
944.555
944.555
944.555
944.555
944.555
944.555
944.555
944.555
944.555
944.555
944.555
944.555
944.555
944.555
944.555
944.555
944.555
944.555
944.555
944.555
944.555
944.555
944.555
944.555
944.555
944.555
944.555
944.555
944.555
944.555
944.555
944.555
944.555
944.555
944.555
944.555
944.555
944.555
944.555
944.555
944.555
944.555
944.555
944.555
944.555
944.555
944.555
944.555
944.555
944.555
944.555
944.555
944.555
944.555
944.555
944.555
944.555
944.555
944.555
944.555
944.555
944.555
944.555
944.555
944.555
944.555
944.555
944.555
944.555
944.555
944.555
944.555
944.555
944.555
944.555
944.555
944.555
944.555
944.555
944.555
944.555
944.555
944.555
944.555
944.555
944.555
944.555
944.555
944.555
944.555
944.555
944.555
944.555
944.555
944.555
944.555
944.555
944.555
944.555
944.555
944.555
944.555
944.555
944.555
944.555
944.555
944.555
944.555
944.555
944.555
944.555
944.555
944.555
944.555
944.555
944.555
944.555
944.555
944.555
944.555
944.555
944.555
944.555
944.555
944.555
944.555
944.555
944.555
944.555
944.555
944.555
944.555
944.555
944.555
944.555
944.555
944.555
944.555
944.555
944.555
944.555
944.555
944.555
944.555
944.555
944.555
944.555
944.555
944.555
944.555
944.555
944.555
944.555
944.555
944.555
944.555
944.555
944.555
944.555
944.555
944.555
944.555
944.555
944.555
944.555
944.555
944.555
944.555
944.555
944.555
944.555
944.555
944.555
944.555
944.555
944.555
944.555
944.555
944.555
944.555
944.555
944.555
944.555
944.555
944.555
944.555
944.555
944.555
944.555
944.555
944.555
944.555
944.555
944.555
944.555
944.555
944.555
944.555
944.555
944.555
944.555
944.555
944.555
944.555
944.555
944.555
944.555
944.555
944.555
944.555
944.555
944.555
944.555
944.555
944.555
944.555
944.555
944.555
944.555
944.555
944.555
944.555
944.555
944.555
944.555
944.555
944.555
944.555
944.555
944.555
944.555
944.555
944.555
944.555
944.555
944.555
944.555
944.555
944.555
944.555
944.555
944.555
944.555
944.555
944.555
944.555
944.555
944.555
944.555
944.555
944.555
944.555
944.555
944.555
944.555
944.555
944.555
944.555
944.555
944.555
944.555
944.555
944.555
944.555
944.555
944.555
944.555
944.555
944.555
944.555
944.555
944.555
944.555
944.555
944.555
944.555
944.555
944.555
944.555
944.555
944.555
944.555
944.555
944.555
944.555
944.555
944.555
944.555
944.555
944.555
944.555
944.555
944.555
944.555
944.555
944.555
944.555
944.555
944.555
944.555
944.555
944.555
944.555
944.555
944.555
944.555
944.555
944.555
944.555
944.555
944.555
944.555
944.555
944.555
944.555
944.555
944.555
944.555
944.555
944.555
944.555
944.555
944.555
944.555
944.555
944.555
944.555
944.555
944.555
944.555
944.555
944.555
944.555
944.555
944.555
944.555
944.555
944.555
944.555
944.555
944.555
944.555
944.555
944.555
944.555
944.555
944.555
944.555
944.555
944.555
944.555
944.555
944.555
944.555
944.555
944.555
944.555
944.555
944.555
944.555
944.555
944.555
944.555
944.555
944.555
944.555
944.555
944.555
944.555
944.555
944.555
944.555
944.555
944.555
944.555
944.555
944.555
944.555
944.555
944.555
944.555
944.555
944.555
944.555
944.555
944.555
944.555
944.555
944.555
944.555
944.555
944.555
944.555
944.555
944.555
944.555
944.555
944.555
944.555
944.555
944.555
944.555
944.555
944.555
944.555
944.555
944.555
944.555
944.555
944.555
944.555
944.555
944.555
944.555
944.555
944.555
944.555
944.555
944.555
944.555
944.555
944.555
944.555
944.555
944.555
944.555
944.555
944.555
944.555
944.555
944.555
944.555
944.555
944.555
944.555
944.555
944.555
944.555
944.555
944.555
944.555
944.555
944.555
944.555
944.555
944.555
944.555
944.555
944.555
944.555
944.555
944.555
944.555
944.555
944.555
944.555
944.555
944.555
944.555
944.555
944.555
944.555
944.555
944.555
944.555
944.555
944.555
944.555
944.555
944.555
944.555
944.555
944.555
944.555
944.555
944.555
944.555
944.555
944.555
944.555
944.555
944.555
944.555
944.555
944.555
944.555
944.555
944.555
944.555
944.555
944.555
944.555
944.555
944.555
944.555
944.555
944.555
944.555
944.555
944.555
944.555
944.555
944.555
944.555
944.555
944.555
944.555
944.555
944.555
944.555
944.555
944.555
944.555
944.555
944.555
944.555
944.555
944.555
944.555
944.555
944.555
944.555
944.555
944.555
944.555
944.555
944.555
944.555
944.555
944.555
944.555
944.555
944.555
944.555
944.555
944.555
944.555
944.555
944.555
944.555
944.555
944.555
944.555
944.555
944.555
944.555
944.555
944.555
944.555
944.555
944.555
944.555
944.555
944.555
944.555
944.555
944.555
944.555
944.555
944.555
944.555
944.555
944.555
944.555
944.555
944.555
944.555
944.555
944.555
944.555
944.555
944.555
944.555
944.555
944.555
944.555
944.555
944.555
944.555
944.555
944.555
944.555
944.555
944.555
944.555
944.555
944.555
944.555
944.555
944.555
944.555
944.555
944.555
944.555
944.555
944.555
944.555
944.555
944.555
944.555
944.555
944.555
944.555
944.555
944.555
944.555
944.555
944.555
944.555
944.555
944.555
944.555
944.555
944.555
944.555
944.555
944.555
944.555
944.555
944.555
944.555
944.555
944.555
944.555
944.555
944.555
944.555
944.555
944.555
944.555
944.555
944.555
944.555
944.555
944.555
944.555
944.555
944.555
944.555
944.555
944.555
944.555
944.555
944.555
944.555
944.555
944.555
944.555
944.555
944.555
944.555
944.555
944.555
944.555
944.555
944.555
944.555
944.555
944.555
944.555
944.555
944.555
944.555
944.555
944.555
944.555
944.555
944.555
944.555
944.555
944.555
944.555
944.555
944.555
944.555
944.555
944.555
944.555
944.555
944.555
944.555
944.555
944.555
944.555
944.555
944.555
944.555
944.555
944.555
944.555
944.555
944.555
944.555
944.555
944.555
944.555
944.555
944.555
944.555
944.555
944.555
944.555
944.555
944.555
944.555
944.555
944.555
944.555
944.555
944.555
944.555
944.555
944.555
944.555
944.555
944.555
944.555
944.555
944.555
944.555
944.555
944.555
944.555
944.555
944.555
944.555
944.555
944.555
944.555
944.555
944.555
944.555
944.555
944.555
944.555
944.555
944.555
944.555
944.555
944.555
944.555
944.555
944.555
944.555
944.555
944.555
944.555
944.555
944.555
944.555
944.555
944.555
944.555
944.555
944.555
944.555
944.555
944.555
944.555
944.555
944.555
944.555
944.555
944.555
944.555
944.555
944.555
944.555
944.555
944.555
944.555
944.555
944.555
944.555
944.555
944.555
944.555
944.555
944.555
944.555
944.555
944.555
944.555
944.555
944.555
944.555
944.555
944.555
944.555
944.555
944.555
944.555
944.555
944.555
944.555
944.555
944.555
944.555
944.555
944.555
944.555
944.555
944.555
944.555
944.555
944.555
944.555
944.555
944.555
944.555
944.555
944.555
944.555
944.555
944.555
944.555
944.555
944.555
944.555
944.555
944.555
944.555
944.555
944.555
944.555
944.555
944.555
944.555
944.555
944.555
944.555
944.555
944.555
944.555
944.555
944.555
944.555
944.555
944.555
944.555
944.555
944.555
944.555
944.555
944.555
944.555
944.555
944.555
944.555
944.555
944.555
944.555
944.555
944.555
944.555
944.555
944.555
944.555
944.555
944.555
944.555
944.555
944.555
944.555
944.555
944.555
944.555
944.555
944.555
944.555
944.555
944.555
944.555
944.555
944.555
944.555
944.555
944.555
944.555
944.555
944.555
944.555
944.555
944.555
944.555
944.555
944.555
944.555
944.555
944.555
944.555
944.555
944.555
944.555
944.555
944.555
944.555
944.555
944.555
944.555
944.555
944.555
944.555
944.555
944.555
944.555
944.555
944.555
944.555
944.555
944.555
944.555
944.555
944.555
944.555
944.555
944.555
944.555
944.555
944.555
944.555
944.555
944.555
944.555
944.555
944.555
944.555
944.555
944.555
944.555
944.555
944.555
944.555
944.555
944.555
944.555
944.555
944.555
944.555
944.555
944.555
944.555
944.555
944.555
944.555
944.555
944.555
944.555
944.555
944.555
944.555
944.555
944.555
944.555
944.555
944.555
944.555
944.555
944.555
944.555
944.555
944.555
944.555
944.555
944.555
944.555
944.555
944.555
944.555
944.555
944.555
944.555
944.555
944.555
944.555
944.555
944.555
944.555
944.555
944.555
944.555
944.555
944.555
944.555
944.555
944.555
944.555
944.555
944.555
944.555
944.555
944.555
944.555
944.555
944.555
944.555
944.555
944.555
944.555
944.555
944.555
944.555
944.555
944.555
944.555
944.555
944.555
944.555
944.555
944.555
944.555
944.555
944.555
944.555
944.555
944.555
944.555
944.555
944.555
944.555
944.555
944.555
944.555
944.555
944.555
944.555
944.555
944.555
944.555
944.555
944.555
944.555
944.555
944.555
944.555
944.555
944.555
944.555
944.555
944.555
944.555
944.555
944.555
944.555
944.555
944.555
944.555
944.555
944.555
944.555
944.555
944.555
944.555
944.555
944.555
944.555
944.555
944.555
944.555
944.555
944.555
944.555
944.555
944.555
944.555
944.555
944.555
944.555
944.555
944.555
944.555
944.555
944.555
944.555
944.555
944.555
944.555
944.555
944.555
944.555
944.555
944.555
944.555
944.555
944.555
944.555
944.555
944.555
944.555
944.555
944.555
944.555
944.555
944.555
944.555
944.555
944.555
944.555
944.555
944.555
944.555
944.555
944.555
944.555
944.555
944.555
944.555
944.555
944.555
944.555
944.555
944.555
944.555
944.555
944.555
944.555
944.555
944.555
944.555
944.555
944.555
944.555
944.555
944.555
944.555
944.555
944.555
944.555
944.555
944.555
944.555
944.555
944.555
944.555
944.555
944.555
944.555
944.555
944.555
944.555
944.555
944.555
944.555
944.555
944.555
944.555
944.555
944.555
944.555
944.555
944.555
944.555
944.555
944.555
944.555
944.555
944.555
944.555
944.555
944.555
944.555
944.555
944.555
944.555
944.555
944.555
944.555
944.555
944.555
944.555
944.555
944.555
944.555
944.555
944.555
944.555
944.555
944.555
944.555
944.555
944.555
944.555
944.555
944.555
944.555
944.555
944.555
944.555
944.555
944.555
944.555
944.555
944.555
944.555
944.555
944.555
944.555
944.555
944.555
944.555
944.555
944.555
944.555
944.555
944.555
944.555
944.555
944.555
944.555
944.555
944.555
944.555
944.555
944.555
944.555
944.555
944.555
944.555
944.555
944.555
944.555
944.555
944.555
944.555
944.555
944.555
944.555
944.555
944.555
944.555
944.555
944.555
944.555
944.555
944.555
944.555
944.555
944.555
944.555
944.555
944.555
944.555
944.555
944.555
944.555
944.555
944.555
944.555
944.555
944.555
944.555
944.555
944.555
944.555
944.555
944.555
944.555
944.555
944.555
944.555
944.555
944.555
944.555
944.555
944.555
944.555
944.555
944.555
944.555
944.555
944.555
944.555
944.555
944.555
944.555
944.555
944.555
944.555
944.555
944.555
944.555
944.555
944.555
944.555
944.555
944.555
944.555
944.555
944.555
944.555
944.555
944.555
944.555
944.555
944.555
944.555
944.555
944.555
944.555
944.555
944.555
944.555
944.555
944.555
944.555
944.555
944.555
944.555
944.555
944.555
944.555
944.555
944.555
944.555
944.555
944.555
944.555
944.555
944.555
944.555
944.555
944.555
944.555
944.555
944.555
944.555
944.555
944.555
944.555
944.555
944.555
944.555
944.555
944.555
944.555
944.555
944.555
944.555
944.555
944.555
944.555
944.555
944.555
944.555
944.555
944.555
944.555
944.555
944.555
944.555
944.555
944.555
944.555
944.555
944.555
944.555