/*--------------------------------*- C++ -*----------------------------------*\
| =========                 |                                                 |
| \\      /  F ield         | OpenFOAM: The Open Source CFD Toolbox           |
|  \\    /   O peration     | Version:  2.1.0                                 |
|   \\  /    A nd           | Web:      www.OpenFOAM.org                      |
|    \\/     M anipulation  |                                                 |
\*---------------------------------------------------------------------------*/
FoamFile
{
    version     2.0;
    format      ascii;
    class       volScalarField;
    location    "0.35";
    object      T;
}
// * * * * * * * * * * * * * * * * * * * * * * * * * * * * * * * * * * * * * //

dimensions      [0 0 0 1 0 0 0];

internalField   nonuniform List<scalar> 
6400
(
352.546
353.509
354.45
355.373
356.278
357.17
358.047
358.91
359.759
360.594
361.415
362.222
363.015
363.793
364.557
365.306
366.041
366.761
367.467
368.158
368.834
369.496
370.143
370.776
371.395
371.999
372.588
373.164
373.725
374.272
374.806
375.325
375.831
376.323
376.802
377.268
377.72
378.159
378.586
379
379.401
379.791
380.168
380.533
380.886
381.228
381.558
381.877
382.185
382.482
382.769
383.046
383.312
383.568
383.815
384.052
384.28
384.5
384.712
384.916
385.112
385.3
385.48
385.653
385.818
385.975
386.125
386.268
386.403
386.53
386.649
386.761
386.865
386.961
387.048
387.127
387.197
387.258
387.309
387.349
387.377
387.39
387.387
387.363
387.313
387.227
387.092
386.886
386.573
386.083
385.281
383.867
381.149
375.655
367.492
377.378
391.735
393.124
393.149
393.15
360.016
360.873
361.727
362.561
363.379
364.182
364.97
365.742
366.501
367.245
367.974
368.689
369.39
370.076
370.748
371.405
372.049
372.677
373.292
373.893
374.479
375.052
375.611
376.156
376.687
377.206
377.711
378.203
378.682
379.148
379.601
380.043
380.471
380.888
381.293
381.685
382.067
382.436
382.795
383.142
383.479
383.805
384.12
384.426
384.721
385.006
385.282
385.548
385.805
386.053
386.292
386.522
386.744
386.959
387.166
387.367
387.56
387.747
387.927
388.1
388.267
388.429
388.584
388.734
388.879
389.018
389.152
389.282
389.406
389.526
389.641
389.752
389.859
389.961
390.059
390.153
390.242
390.327
390.407
390.483
390.554
390.62
390.681
390.736
390.786
390.828
390.864
390.894
390.918
390.939
390.966
391.015
391.121
391.349
391.787
392.423
393.032
393.146
393.15
393.15
364.344
365.134
365.928
366.705
367.466
368.211
368.941
369.657
370.359
371.046
371.72
372.379
373.025
373.657
374.275
374.879
375.47
376.047
376.61
377.16
377.697
378.22
378.73
379.227
379.711
380.183
380.642
381.089
381.524
381.947
382.358
382.757
383.145
383.522
383.888
384.243
384.587
384.92
385.244
385.556
385.859
386.153
386.436
386.71
386.975
387.231
387.479
387.718
387.948
388.171
388.386
388.593
388.793
388.986
389.172
389.351
389.524
389.69
389.85
390.004
390.152
390.295
390.432
390.564
390.692
390.815
390.933
391.048
391.158
391.265
391.368
391.468
391.565
391.659
391.751
391.839
391.925
392.009
392.09
392.169
392.246
392.321
392.393
392.464
392.532
392.598
392.662
392.724
392.783
392.84
392.896
392.948
392.998
393.043
393.08
393.107
393.138
393.149
393.15
393.15
367.474
368.207
368.948
369.674
370.383
371.079
371.76
372.428
373.082
373.723
374.351
374.966
375.567
376.156
376.732
377.295
377.845
378.383
378.909
379.422
379.924
380.413
380.89
381.356
381.81
382.252
382.683
383.103
383.511
383.908
384.295
384.67
385.035
385.389
385.733
386.067
386.391
386.704
387.008
387.302
387.587
387.862
388.128
388.385
388.633
388.873
389.103
389.326
389.54
389.746
389.945
390.135
390.318
390.493
390.661
390.821
390.974
391.119
391.259
391.391
391.517
391.637
391.751
391.859
391.962
392.059
392.15
392.237
392.319
392.396
392.468
392.536
392.6
392.659
392.714
392.765
392.813
392.856
392.896
392.932
392.964
392.994
393.02
393.043
393.063
393.08
393.095
393.107
393.117
393.126
393.132
393.137
393.141
393.144
393.145
393.147
393.149
393.15
393.15
393.15
369.432
370.108
370.793
371.466
372.126
372.773
373.407
374.03
374.64
375.238
375.823
376.397
376.96
377.51
378.049
378.577
379.093
379.598
380.092
380.575
381.047
381.508
381.959
382.399
382.829
383.249
383.658
384.057
384.446
384.825
385.195
385.554
385.904
386.245
386.576
386.897
387.21
387.513
387.807
388.092
388.368
388.636
388.894
389.143
389.384
389.616
389.84
390.054
390.26
390.458
390.647
390.828
391
391.164
391.32
391.468
391.608
391.74
391.864
391.981
392.091
392.193
392.288
392.377
392.459
392.535
392.604
392.668
392.726
392.779
392.827
392.87
392.909
392.943
392.974
393.001
393.025
393.045
393.063
393.079
393.092
393.103
393.113
393.121
393.127
393.133
393.137
393.141
393.143
393.146
393.147
393.148
393.149
393.149
393.149
393.149
393.15
393.15
393.15
393.15
369.836
370.443
371.059
371.667
372.265
372.853
373.43
373.996
374.552
375.096
375.63
376.154
376.667
377.17
377.663
378.146
378.619
379.082
379.536
379.98
380.415
380.841
381.258
381.665
382.064
382.454
382.836
383.209
383.574
383.931
384.279
384.62
384.953
385.278
385.595
385.905
386.208
386.503
386.791
387.072
387.346
387.612
387.872
388.124
388.37
388.608
388.84
389.065
389.283
389.494
389.698
389.896
390.087
390.271
390.448
390.619
390.783
390.941
391.092
391.236
391.374
391.505
391.63
391.748
391.861
391.967
392.067
392.161
392.25
392.333
392.411
392.483
392.55
392.613
392.671
392.724
392.773
392.819
392.86
392.898
392.933
392.964
392.992
393.018
393.041
393.061
393.08
393.096
393.109
393.121
393.13
393.137
393.142
393.145
393.147
393.148
393.148
393.148
393.149
393.149
367.871
368.391
368.916
369.436
369.947
370.451
370.945
371.43
371.905
372.371
372.827
373.274
373.713
374.143
374.564
374.978
375.384
375.782
376.174
376.558
376.936
377.306
377.67
378.026
378.376
378.72
379.057
379.388
379.713
380.033
380.348
380.657
380.961
381.261
381.555
381.846
382.132
382.415
382.694
382.969
383.241
383.51
383.777
384.04
384.301
384.559
384.816
385.07
385.322
385.572
385.82
386.067
386.312
386.555
386.796
387.035
387.272
387.507
387.74
387.971
388.199
388.424
388.647
388.866
389.081
389.293
389.501
389.705
389.904
390.098
390.288
390.473
390.652
390.826
390.995
391.158
391.316
391.468
391.615
391.756
391.891
392.021
392.144
392.263
392.375
392.482
392.583
392.679
392.767
392.848
392.92
392.981
393.031
393.069
393.093
393.107
393.117
393.124
393.129
393.13
362.719
363.131
363.545
363.954
364.356
364.751
365.136
365.515
365.883
366.245
366.597
366.942
367.279
367.609
367.931
368.248
368.557
368.861
369.158
369.45
369.737
370.019
370.295
370.567
370.835
371.098
371.358
371.614
371.867
372.118
372.366
372.612
372.855
373.098
373.339
373.58
373.819
374.059
374.299
374.54
374.781
375.024
375.267
375.513
375.761
376.011
376.263
376.518
376.777
377.038
377.304
377.572
377.845
378.121
378.402
378.687
378.976
379.27
379.567
379.87
380.177
380.488
380.803
381.123
381.447
381.775
382.107
382.443
382.782
383.124
383.47
383.818
384.169
384.522
384.877
385.235
385.595
385.956
386.32
386.686
387.056
387.429
387.806
388.187
388.573
388.963
389.356
389.754
390.152
390.547
390.933
391.304
391.648
391.956
392.213
392.397
392.547
392.665
392.751
392.799
353.787
354.07
354.352
354.629
354.898
355.162
355.417
355.667
355.907
356.142
356.369
356.59
356.803
357.011
357.212
357.408
357.597
357.782
357.96
358.135
358.304
358.47
358.634
358.795
358.954
359.112
359.268
359.423
359.578
359.733
359.887
360.042
360.198
360.354
360.512
360.671
360.832
360.994
361.159
361.326
361.496
361.668
361.843
362.022
362.203
362.388
362.577
362.77
362.966
363.167
363.373
363.583
363.797
364.017
364.242
364.472
364.708
364.949
365.197
365.451
365.711
365.979
366.253
366.536
366.827
367.126
367.433
367.75
368.077
368.414
368.761
369.12
369.49
369.873
370.269
370.68
371.107
371.551
372.014
372.497
373.005
373.538
374.102
374.699
375.335
376.014
376.741
377.524
378.366
379.27
380.235
381.259
382.332
383.442
384.568
385.666
386.602
387.454
388.168
388.666
341.221
341.366
341.51
341.65
341.786
341.917
342.044
342.168
342.286
342.402
342.513
342.622
342.727
342.829
342.928
343.025
343.119
343.211
343.301
343.39
343.476
343.562
343.647
343.73
343.813
343.895
343.976
344.057
344.137
344.217
344.297
344.377
344.456
344.535
344.615
344.694
344.773
344.853
344.932
345.012
345.092
345.171
345.252
345.332
345.413
345.494
345.575
345.657
345.739
345.822
345.905
345.988
346.073
346.158
346.244
346.33
346.417
346.504
346.592
346.68
346.769
346.858
346.947
347.037
347.13
347.224
347.321
347.421
347.523
347.63
347.74
347.855
347.975
348.1
348.233
348.373
348.522
348.681
348.851
349.033
349.229
349.441
349.671
349.919
350.189
350.483
350.803
351.176
351.609
352.114
352.703
353.389
354.188
355.119
356.208
357.49
358.983
360.518
361.965
363.079
328.029
328.061
328.094
328.125
328.156
328.185
328.214
328.242
328.27
328.297
328.324
328.35
328.376
328.401
328.426
328.45
328.474
328.496
328.518
328.538
328.558
328.576
328.593
328.608
328.623
328.634
328.645
328.653
328.66
328.664
328.666
328.665
328.663
328.657
328.65
328.64
328.627
328.611
328.593
328.572
328.548
328.521
328.491
328.459
328.423
328.384
328.342
328.297
328.249
328.197
328.141
328.082
328.019
327.951
327.88
327.804
327.723
327.637
327.546
327.45
327.349
327.241
327.127
327.006
326.876
326.737
326.589
326.429
326.258
326.075
325.878
325.667
325.441
325.197
324.937
324.657
324.357
324.035
323.69
323.322
322.928
322.509
322.063
321.591
321.091
320.565
320.01
319.408
318.752
318.034
317.244
316.393
315.471
314.473
313.393
312.228
310.984
309.684
308.391
307.23
317.604
317.552
317.498
317.441
317.383
317.322
317.262
317.199
317.137
317.074
317.011
316.946
316.882
316.817
316.752
316.686
316.62
316.552
316.485
316.416
316.347
316.276
316.205
316.132
316.059
315.984
315.907
315.829
315.749
315.667
315.583
315.497
315.409
315.318
315.224
315.128
315.029
314.927
314.821
314.713
314.601
314.485
314.365
314.241
314.113
313.981
313.844
313.703
313.557
313.406
313.249
313.088
312.92
312.747
312.568
312.383
312.191
311.992
311.787
311.573
311.351
311.121
310.881
310.631
310.37
310.099
309.816
309.52
309.211
308.889
308.552
308.2
307.832
307.448
307.047
306.63
306.195
305.743
305.273
304.787
304.285
303.767
303.236
302.692
302.138
301.577
301.011
300.444
299.88
299.324
298.78
298.233
297.686
297.151
296.633
296.139
295.679
295.265
294.915
294.651
309.966
309.876
309.78
309.677
309.573
309.465
309.356
309.245
309.133
309.019
308.904
308.788
308.671
308.553
308.435
308.314
308.193
308.071
307.948
307.824
307.698
307.571
307.443
307.314
307.183
307.051
306.918
306.783
306.646
306.508
306.368
306.226
306.082
305.937
305.789
305.639
305.487
305.332
305.175
305.016
304.854
304.69
304.522
304.353
304.18
304.004
303.826
303.644
303.46
303.272
303.081
302.887
302.689
302.488
302.283
302.075
301.862
301.646
301.426
301.202
300.975
300.743
300.507
300.268
300.025
299.778
299.528
299.274
299.017
298.756
298.493
298.228
297.96
297.691
297.421
297.151
296.881
296.613
296.347
296.085
295.827
295.575
295.331
295.095
294.869
294.655
294.454
294.267
294.096
293.942
293.806
293.688
293.59
293.503
293.428
293.365
293.314
293.273
293.243
293.223
304.503
304.405
304.298
304.185
304.068
303.947
303.824
303.7
303.574
303.447
303.319
303.189
303.059
302.927
302.795
302.661
302.527
302.392
302.255
302.118
301.979
301.84
301.699
301.558
301.415
301.272
301.127
300.981
300.835
300.687
300.538
300.389
300.238
300.087
299.934
299.781
299.627
299.473
299.317
299.161
299.005
298.848
298.69
298.533
298.375
298.217
298.059
297.902
297.744
297.587
297.43
297.274
297.118
296.963
296.809
296.655
296.503
296.351
296.201
296.052
295.905
295.76
295.617
295.477
295.338
295.203
295.07
294.94
294.813
294.69
294.57
294.454
294.342
294.234
294.131
294.032
293.938
293.849
293.765
293.686
293.613
293.546
293.484
293.428
293.378
293.334
293.296
293.263
293.236
293.214
293.196
293.183
293.174
293.167
293.162
293.159
293.156
293.154
293.153
293.152
300.862
300.769
300.666
300.557
300.444
300.329
300.211
300.092
299.972
299.85
299.728
299.606
299.482
299.358
299.234
299.108
298.983
298.857
298.73
298.604
298.477
298.349
298.222
298.094
297.967
297.839
297.712
297.584
297.457
297.33
297.203
297.076
296.95
296.825
296.7
296.576
296.453
296.331
296.21
296.09
295.972
295.855
295.739
295.625
295.513
295.402
295.294
295.187
295.083
294.981
294.882
294.784
294.69
294.598
294.509
294.422
294.339
294.258
294.18
294.105
294.034
293.965
293.9
293.837
293.778
293.722
293.669
293.618
293.571
293.527
293.486
293.448
293.412
293.379
293.349
293.322
293.297
293.274
293.254
293.236
293.22
293.207
293.195
293.185
293.176
293.17
293.164
293.16
293.157
293.154
293.153
293.152
293.151
293.151
293.15
293.15
293.15
293.15
293.15
293.15
298.486
298.404
298.313
298.217
298.117
298.015
297.911
297.807
297.702
297.596
297.49
297.384
297.278
297.172
297.065
296.959
296.853
296.747
296.641
296.536
296.431
296.327
296.223
296.12
296.018
295.917
295.816
295.717
295.618
295.521
295.426
295.331
295.238
295.146
295.056
294.967
294.88
294.795
294.711
294.63
294.55
294.472
294.397
294.324
294.253
294.184
294.118
294.054
293.993
293.933
293.877
293.823
293.771
293.722
293.675
293.631
293.59
293.55
293.513
293.479
293.446
293.416
293.388
293.363
293.339
293.317
293.297
293.278
293.262
293.247
293.233
293.221
293.21
293.201
293.192
293.185
293.179
293.173
293.168
293.164
293.161
293.158
293.156
293.155
293.153
293.152
293.151
293.151
293.151
293.15
293.15
293.15
293.15
293.15
293.15
293.15
293.15
293.15
293.15
293.15
296.885
296.816
296.739
296.658
296.576
296.492
296.407
296.322
296.236
296.151
296.065
295.98
295.895
295.81
295.725
295.641
295.558
295.475
295.393
295.311
295.231
295.151
295.072
294.994
294.917
294.842
294.767
294.694
294.622
294.552
294.483
294.415
294.349
294.285
294.222
294.161
294.102
294.045
293.99
293.937
293.885
293.836
293.788
293.743
293.699
293.658
293.618
293.581
293.546
293.512
293.48
293.451
293.423
293.397
293.373
293.35
293.329
293.31
293.292
293.276
293.261
293.248
293.235
293.224
293.214
293.205
293.197
293.19
293.184
293.179
293.174
293.17
293.166
293.163
293.16
293.158
293.156
293.155
293.154
293.153
293.152
293.151
293.151
293.151
293.15
293.15
293.15
293.15
293.15
293.15
293.15
293.15
293.15
293.15
293.15
293.15
293.15
293.15
293.15
293.15
295.753
295.697
295.636
295.572
295.508
295.442
295.377
295.311
295.246
295.18
295.115
295.05
294.985
294.921
294.857
294.794
294.732
294.67
294.609
294.549
294.489
294.431
294.374
294.317
294.262
294.208
294.154
294.103
294.052
294.002
293.954
293.908
293.863
293.819
293.777
293.736
293.697
293.66
293.624
293.59
293.557
293.526
293.497
293.469
293.442
293.417
293.394
293.372
293.351
293.332
293.314
293.297
293.282
293.268
293.255
293.243
293.232
293.222
293.213
293.205
293.197
293.191
293.185
293.18
293.175
293.171
293.168
293.165
293.162
293.16
293.158
293.157
293.155
293.154
293.153
293.152
293.152
293.151
293.151
293.151
293.151
293.15
293.15
293.15
293.15
293.15
293.15
293.15
293.15
293.15
293.15
293.15
293.15
293.15
293.15
293.15
293.15
293.15
293.15
293.15
294.924
294.882
294.836
294.789
294.741
294.693
294.645
294.597
294.549
294.501
294.453
294.406
294.359
294.313
294.267
294.221
294.176
294.132
294.089
294.046
294.004
293.963
293.923
293.884
293.845
293.808
293.771
293.736
293.702
293.669
293.637
293.606
293.576
293.548
293.521
293.494
293.47
293.446
293.423
293.402
293.381
293.362
293.344
293.327
293.311
293.296
293.283
293.27
293.258
293.246
293.236
293.227
293.218
293.21
293.203
293.196
293.191
293.185
293.18
293.176
293.172
293.169
293.166
293.164
293.161
293.159
293.158
293.156
293.155
293.154
293.153
293.153
293.152
293.152
293.151
293.151
293.151
293.15
293.15
293.15
293.15
293.15
293.15
293.15
293.15
293.15
293.15
293.15
293.15
293.15
293.15
293.15
293.15
293.15
293.15
293.15
293.15
293.15
293.15
293.15
294.186
294.159
294.13
294.101
294.072
294.042
294.012
293.982
293.952
293.923
293.893
293.864
293.835
293.806
293.778
293.75
293.723
293.696
293.67
293.644
293.619
293.594
293.57
293.547
293.524
293.502
293.481
293.461
293.441
293.422
293.404
293.387
293.37
293.354
293.339
293.325
293.311
293.298
293.286
293.275
293.264
293.254
293.245
293.236
293.228
293.22
293.213
293.206
293.2
293.195
293.19
293.185
293.181
293.177
293.174
293.171
293.168
293.165
293.163
293.161
293.16
293.158
293.157
293.156
293.155
293.154
293.153
293.153
293.152
293.152
293.151
293.151
293.151
293.151
293.15
293.15
293.15
293.15
293.15
293.15
293.15
293.15
293.15
293.15
293.15
293.15
293.15
293.15
293.15
293.15
293.15
293.15
293.15
293.15
293.15
293.15
293.15
293.15
293.15
293.15
393.15
393.15
393.15
393.15
393.15
393.15
393.15
393.15
393.15
393.15
393.15
393.149
393.149
393.148
393.147
393.145
393.141
393.133
393.117
393.076
393.15
393.15
393.15
393.15
393.15
393.15
393.15
393.15
393.15
393.15
393.149
393.149
393.148
393.147
393.144
393.14
393.132
393.117
393.08
392.971
393.15
393.15
393.15
393.15
393.15
393.15
393.15
393.15
393.149
393.149
393.148
393.147
393.145
393.142
393.137
393.128
393.109
393.069
392.965
392.61
393.15
393.15
393.15
393.15
393.15
393.149
393.149
393.149
393.148
393.147
393.145
393.142
393.138
393.13
393.116
393.09
393.035
392.907
392.552
391.207
393.15
393.15
393.149
393.149
393.149
393.148
393.147
393.145
393.143
393.14
393.134
393.125
393.111
393.087
393.043
392.957
392.776
392.341
391.072
385.929
393.148
393.147
393.146
393.145
393.142
393.139
393.134
393.128
393.118
393.105
393.086
393.056
393.009
392.93
392.789
392.519
391.951
390.6
386.597
369.95
393.126
393.12
393.112
393.101
393.086
393.067
393.044
393.015
392.98
392.936
392.873
392.779
392.635
392.4
391.997
391.252
389.752
386.332
376.683
339.597
392.775
392.722
392.661
392.588
392.508
392.424
392.339
392.26
392.171
392.054
391.891
391.651
391.289
390.712
389.745
388.026
384.744
377.772
360.585
310.727
388.693
388.445
388.192
387.931
387.69
387.535
387.425
387.354
387.235
387.069
386.814
386.443
385.847
384.876
383.088
379.835
373.7
361.917
339.192
298.635
363.308
362.852
362.39
361.946
361.576
361.407
361.278
361.102
360.911
360.736
360.511
360.265
359.809
359.118
357.409
353.791
346.445
333.845
314.739
298.73
306.656
306.777
306.849
306.876
306.799
306.46
306.027
305.572
305.086
304.523
303.904
303.148
302.298
301.224
300.305
299.583
299.254
298.593
296.313
294.882
294.569
294.626
294.676
294.719
294.743
294.716
294.655
294.554
294.451
294.338
294.224
294.092
293.964
293.819
293.705
293.624
293.585
293.528
293.346
293.64
293.22
293.228
293.236
293.246
293.254
293.261
293.263
293.259
293.251
293.239
293.228
293.216
293.205
293.195
293.186
293.18
293.176
293.17
293.165
293.257
293.152
293.152
293.152
293.153
293.154
293.154
293.155
293.155
293.155
293.155
293.154
293.154
293.153
293.152
293.152
293.152
293.151
293.151
293.151
293.16
293.15
293.15
293.15
293.15
293.15
293.15
293.15
293.15
293.15
293.15
293.15
293.15
293.15
293.15
293.15
293.15
293.15
293.15
293.15
293.15
293.15
293.15
293.15
293.15
293.15
293.15
293.15
293.15
293.15
293.15
293.15
293.15
293.15
293.15
293.15
293.15
293.15
293.15
293.15
293.15
293.15
293.15
293.15
293.15
293.15
293.15
293.15
293.15
293.15
293.15
293.15
293.15
293.15
293.15
293.15
293.15
293.15
293.15
293.15
293.15
293.15
293.15
293.15
293.15
293.15
293.15
293.15
293.15
293.15
293.15
293.15
293.15
293.15
293.15
293.15
293.15
293.15
293.15
293.15
293.15
293.15
293.15
293.15
293.15
293.15
293.15
293.15
293.15
293.15
293.15
293.15
293.15
293.15
293.15
293.15
293.15
293.15
293.15
293.15
293.15
293.15
293.15
293.15
293.15
293.15
293.15
293.15
293.15
293.15
293.15
293.15
293.15
293.15
293.15
293.15
293.15
293.15
293.15
293.15
293.15
393.15
393.15
393.15
393.15
393.15
393.15
393.15
393.15
393.15
393.15
393.15
393.15
393.15
393.15
393.15
393.15
393.15
393.15
393.15
393.15
393.15
393.15
393.15
393.15
393.15
393.15
393.15
393.15
393.15
393.15
393.15
393.15
393.15
393.15
393.15
393.15
393.15
393.15
393.15
393.15
393.15
393.15
393.15
393.15
393.15
393.15
393.15
393.15
393.15
393.15
393.15
393.15
393.15
393.15
393.15
393.15
393.15
393.15
393.15
393.15
393.15
393.15
393.15
393.15
393.15
393.15
393.15
393.15
393.15
393.15
393.15
393.15
393.15
393.15
393.15
393.15
393.15
393.15
393.15
393.15
393.15
393.15
393.15
393.15
393.15
393.15
393.15
393.15
393.15
393.15
393.15
393.15
393.15
393.15
393.15
393.15
393.15
393.15
393.15
393.15
393.15
393.15
393.15
393.15
393.15
393.15
393.15
393.15
393.15
393.15
393.15
393.15
393.15
393.15
393.15
393.15
393.15
393.15
393.15
393.15
393.15
393.15
393.15
393.15
393.15
393.15
393.15
393.15
393.15
393.15
393.15
393.15
393.15
393.15
393.15
393.15
393.15
393.15
393.15
393.15
393.15
393.15
393.15
393.15
393.15
393.15
393.15
393.15
393.15
393.15
393.15
393.15
393.15
393.15
393.15
393.15
393.15
393.15
393.15
393.15
393.15
393.15
393.15
393.15
393.15
393.15
393.15
393.15
393.15
393.15
393.15
393.15
393.15
393.15
393.15
393.15
393.15
393.15
393.15
393.15
393.15
393.15
393.15
393.15
393.15
393.15
393.15
393.15
393.15
393.15
393.15
393.15
393.15
393.15
393.15
393.15
393.15
393.15
393.15
393.15
393.15
393.15
393.15
393.15
393.15
393.15
393.15
393.15
393.15
393.15
393.15
393.15
393.15
393.15
393.15
393.15
393.15
393.15
393.15
393.15
393.15
393.15
393.15
393.15
393.15
393.15
393.15
393.15
393.15
393.15
393.15
393.15
393.15
393.15
393.15
393.15
393.15
393.15
393.15
393.15
393.15
393.15
393.15
393.15
393.15
393.15
393.15
393.15
393.15
393.15
393.15
393.15
393.15
393.15
393.15
393.15
393.15
393.15
393.15
393.15
393.15
393.15
393.15
393.15
393.15
393.15
393.15
393.15
393.15
393.15
393.15
393.15
393.15
393.15
393.15
393.15
393.15
393.15
393.15
393.15
393.15
393.15
393.15
393.15
393.15
393.15
393.15
393.15
393.15
393.15
393.15
393.15
393.15
393.15
393.15
393.15
393.15
393.15
393.15
393.15
393.15
393.15
393.15
393.15
393.15
393.15
393.15
393.15
393.15
393.15
393.15
393.15
393.15
393.15
393.15
393.15
393.15
393.15
393.15
393.15
393.15
393.15
393.15
393.15
393.15
393.15
393.15
393.15
393.15
393.15
393.15
393.15
393.15
393.15
393.15
393.15
393.15
393.15
393.15
393.15
393.15
393.15
393.15
393.15
393.15
393.15
393.15
393.15
393.15
393.15
393.15
393.15
393.15
393.15
393.15
393.15
393.15
393.15
393.15
393.15
393.15
393.15
393.15
393.15
393.15
393.15
393.15
393.15
393.15
393.15
393.15
393.15
393.15
393.15
393.15
393.15
393.15
393.15
393.15
393.15
393.15
393.15
393.15
393.15
393.15
393.15
393.15
393.15
393.15
393.15
393.15
393.15
393.15
393.15
393.15
393.15
393.15
393.15
393.15
393.15
393.15
393.15
393.15
393.15
393.15
393.15
393.15
393.15
393.15
393.15
393.15
393.15
393.15
393.15
393.15
393.15
393.15
393.15
393.15
393.15
393.15
393.15
393.15
393.15
393.15
393.15
393.15
393.15
393.15
393.15
393.15
393.15
393.15
393.15
393.15
393.15
393.15
393.15
393.15
393.15
393.15
393.15
393.15
393.15
393.15
393.15
393.15
393.15
393.15
393.15
393.15
393.15
393.15
393.15
393.15
393.15
393.15
393.15
393.15
393.15
393.15
393.15
393.15
393.15
393.15
393.15
393.15
393.15
393.15
393.15
393.15
393.15
393.15
393.15
393.15
393.15
393.15
393.15
393.15
393.15
393.15
393.15
393.15
393.15
393.15
393.15
393.15
393.15
393.15
393.15
393.15
393.15
393.15
393.15
393.15
393.15
393.15
393.15
393.15
393.15
393.15
393.15
393.15
393.15
393.15
393.15
393.15
393.15
393.15
393.15
393.15
393.15
393.15
393.15
393.15
393.15
393.15
393.15
393.15
393.15
393.15
393.15
393.15
393.15
393.15
393.15
393.15
393.15
393.15
393.15
393.15
393.15
393.15
393.15
393.15
393.15
393.15
393.15
393.15
393.15
393.15
393.15
393.15
393.15
393.15
393.15
393.15
393.15
393.15
393.15
393.15
393.15
393.15
393.15
393.15
393.15
393.15
393.15
393.15
393.15
393.15
393.15
393.15
393.15
393.15
393.15
393.15
393.15
393.15
393.15
393.15
393.15
393.15
393.15
393.15
393.15
393.15
393.15
393.15
393.15
393.15
393.15
393.15
393.15
393.15
393.15
393.15
393.15
393.15
393.15
393.15
393.15
393.15
393.15
393.15
393.15
393.15
393.15
393.15
393.15
393.15
393.15
393.15
393.15
393.15
393.15
393.15
393.15
393.15
393.15
393.15
393.15
393.15
393.15
393.15
393.15
393.15
393.15
393.15
393.15
393.15
393.15
393.15
393.15
393.15
393.15
393.15
393.15
393.15
393.15
393.15
393.15
393.15
393.15
393.15
393.15
393.15
393.15
393.15
393.15
393.15
393.15
393.15
393.15
393.15
393.15
393.15
393.15
393.15
393.15
393.15
393.15
393.15
393.15
393.15
393.15
393.15
393.15
393.15
393.15
393.15
393.15
393.15
393.15
393.15
393.15
393.15
393.15
393.15
393.15
393.15
393.15
393.15
393.15
393.15
393.15
393.15
393.15
393.15
393.15
393.15
393.15
393.15
393.15
393.15
393.15
393.15
393.15
393.15
393.15
393.15
393.15
393.15
393.15
393.15
393.15
393.15
393.15
393.15
393.15
393.15
393.15
393.15
393.15
393.15
393.15
393.15
393.15
393.15
393.15
393.15
393.15
393.15
393.15
393.15
393.15
393.15
393.15
393.15
393.15
393.15
393.15
393.15
393.15
393.15
393.15
393.15
393.15
393.15
393.15
393.15
393.15
393.15
393.15
393.15
393.15
393.15
393.15
393.15
393.15
393.15
393.15
393.15
393.15
393.15
393.15
393.15
393.15
393.15
393.15
393.15
393.15
393.15
393.15
393.15
393.15
393.15
393.15
393.15
393.15
393.15
393.15
393.15
393.15
393.15
393.15
393.15
393.15
393.15
393.15
393.15
393.15
393.15
393.15
393.15
393.15
393.15
393.15
393.15
393.15
393.15
393.15
393.15
393.15
393.15
393.15
393.15
393.15
393.15
393.15
393.15
393.15
393.15
393.15
393.15
393.15
393.15
393.15
393.15
393.15
393.15
393.15
393.15
393.15
393.15
393.15
393.15
393.15
393.15
393.15
393.15
393.15
393.15
393.15
393.15
393.15
393.15
393.15
393.15
393.15
393.15
393.15
393.15
393.15
393.15
393.15
393.15
393.15
393.15
393.15
393.15
393.15
393.15
393.15
393.15
393.15
393.15
393.15
393.15
393.15
393.15
393.15
393.15
393.15
393.15
393.15
393.15
393.15
393.15
393.15
393.15
393.15
393.15
393.15
393.15
393.15
393.15
393.15
393.15
393.15
393.15
393.15
393.15
393.15
393.15
393.15
393.15
393.15
393.15
393.15
393.15
393.15
393.15
393.15
393.15
393.15
393.15
393.15
393.15
393.15
393.15
393.15
393.15
393.15
393.15
393.15
393.15
393.15
393.15
393.15
393.15
393.15
393.15
393.15
393.15
393.15
393.15
393.15
393.15
393.15
393.15
393.15
393.15
393.15
393.15
393.15
393.15
393.15
393.15
393.15
393.15
393.15
393.15
393.15
393.15
393.15
393.15
393.15
393.15
393.15
393.15
393.15
393.15
393.15
393.15
393.15
393.15
393.15
393.15
393.15
393.15
393.15
393.15
393.15
393.15
393.15
393.15
393.15
393.15
393.15
393.15
393.15
393.15
393.15
393.15
393.15
393.15
393.15
393.15
393.15
393.15
393.15
393.15
393.15
393.15
393.15
393.15
393.15
393.15
393.15
393.15
393.15
393.15
393.15
393.15
393.15
393.15
393.15
393.15
393.15
393.15
393.15
393.15
393.15
393.15
393.15
393.15
393.15
393.15
393.15
393.15
393.15
393.15
393.15
393.15
393.15
393.15
393.15
393.15
393.15
393.15
393.15
393.15
393.15
393.15
393.15
393.15
393.15
393.15
393.15
393.15
393.15
393.15
393.15
393.15
393.15
393.15
393.15
393.15
393.15
393.15
393.15
393.15
393.15
393.15
393.15
393.15
393.15
393.15
393.15
393.15
393.15
393.15
393.15
393.15
393.15
393.15
393.15
393.15
393.15
393.15
393.15
393.15
393.15
393.15
393.15
393.15
393.15
393.15
393.15
393.15
393.15
393.15
393.15
393.15
393.15
393.15
393.15
393.15
393.15
393.15
393.15
393.15
393.15
393.15
393.15
393.15
393.15
393.15
393.15
393.15
393.15
393.15
393.15
393.15
393.15
393.15
393.15
393.15
393.15
393.15
393.15
393.15
393.15
393.15
393.15
393.15
393.15
393.15
393.15
393.15
393.15
393.15
393.15
393.15
393.15
393.15
393.15
393.15
393.15
393.15
393.15
393.15
393.15
393.15
393.15
393.15
393.15
393.15
393.15
393.15
393.15
393.15
393.15
393.15
393.15
393.15
393.15
393.15
393.15
393.15
393.15
393.15
393.15
393.15
393.15
393.15
393.15
393.15
393.15
393.15
393.15
393.15
393.15
393.15
393.15
393.15
393.15
393.15
393.15
393.15
393.15
393.15
393.15
393.15
393.15
393.15
393.15
393.15
393.15
393.15
393.15
393.15
393.15
393.15
393.15
393.15
393.15
393.15
393.15
393.15
393.15
393.15
393.15
393.15
393.15
393.15
393.15
393.15
393.15
393.15
393.15
393.15
393.15
393.15
393.15
393.15
393.15
393.15
393.15
393.15
393.15
393.15
393.15
393.15
393.15
393.15
393.15
393.15
393.15
393.15
393.15
393.15
393.15
393.15
393.15
393.15
393.15
393.15
393.15
393.15
393.15
393.15
393.15
393.15
393.15
393.15
393.15
393.15
393.15
393.15
393.15
393.15
393.15
393.15
393.15
393.15
393.15
393.15
393.15
393.15
393.15
393.15
393.15
393.15
393.15
393.15
393.15
393.15
393.15
393.15
393.15
393.15
393.15
393.15
393.15
393.15
393.15
393.15
393.15
393.15
393.15
393.15
393.15
393.15
393.15
393.15
393.15
393.15
393.15
393.15
393.15
393.15
393.15
393.15
393.15
393.15
393.15
393.15
393.15
393.15
393.15
393.15
393.15
393.15
393.15
393.15
393.15
393.15
393.15
393.15
393.15
393.15
393.15
393.15
393.15
393.15
393.15
393.15
393.15
393.15
393.15
393.15
393.15
393.15
393.15
393.15
393.15
393.15
393.15
393.15
393.15
393.15
393.15
393.15
393.15
393.15
393.15
393.15
393.15
393.15
393.15
393.15
393.15
393.15
393.15
393.15
393.15
393.15
393.15
393.15
393.15
393.15
393.15
393.15
393.15
393.15
393.15
393.15
393.15
393.15
393.15
393.15
393.15
393.15
393.15
393.15
393.15
393.15
393.15
393.15
393.15
393.15
393.15
393.15
393.15
393.15
393.15
393.15
393.15
393.15
393.15
393.15
393.15
393.15
393.15
393.15
393.15
393.15
393.15
393.15
393.15
393.15
393.15
393.15
393.15
393.15
393.15
393.15
393.15
393.15
393.15
393.15
393.15
393.15
393.15
393.15
393.15
393.15
393.15
393.15
393.15
393.15
393.15
393.15
393.15
393.15
393.15
393.15
393.15
393.15
393.15
393.15
393.15
393.15
393.15
393.15
393.15
393.15
393.15
393.15
393.15
393.15
393.15
393.15
393.15
393.15
393.15
393.15
393.15
393.15
393.15
393.15
393.15
393.15
393.15
393.15
393.15
393.15
393.15
393.15
393.15
393.15
393.15
393.15
393.15
393.15
393.15
393.15
393.15
393.15
393.15
393.15
393.15
393.15
393.15
393.15
393.15
393.15
393.15
393.15
393.15
393.15
393.15
393.15
393.15
393.15
393.15
393.15
393.15
393.15
393.15
393.15
393.15
393.15
393.15
393.15
393.15
393.15
393.15
393.15
393.15
393.15
393.15
393.15
393.15
393.15
393.15
393.15
393.15
393.15
393.15
393.15
393.15
393.15
393.15
393.15
393.15
393.15
393.15
393.15
393.15
393.15
393.15
393.15
393.15
393.15
393.15
393.15
393.15
393.15
393.15
393.15
393.15
393.15
393.15
393.15
393.15
393.15
393.15
393.15
393.15
393.15
393.15
393.15
393.15
393.15
393.15
393.15
393.15
393.15