/*--------------------------------*- C++ -*----------------------------------*\
| =========                 |                                                 |
| \\      /  F ield         | OpenFOAM: The Open Source CFD Toolbox           |
|  \\    /   O peration     | Version:  2.1.0                                 |
|   \\  /    A nd           | Web:      www.OpenFOAM.org                      |
|    \\/     M anipulation  |                                                 |
\*---------------------------------------------------------------------------*/
FoamFile
{
    version     2.0;
    format      ascii;
    class       volVectorField;
    location    "0.35";
    object      U;
}
// * * * * * * * * * * * * * * * * * * * * * * * * * * * * * * * * * * * * * //

dimensions      [0 1 -1 0 0 0 0];

internalField   nonuniform List<vector> 
6400
(
(-1.29033 -6.16199e-05 0)
(-1.28969 -0.000531232 0)
(-1.2878 -0.000816691 0)
(-1.28495 -0.000963406 0)
(-1.28164 -0.00105157 0)
(-1.27801 -0.0011115 0)
(-1.27417 -0.00115515 0)
(-1.27015 -0.00118958 0)
(-1.26601 -0.00121869 0)
(-1.26174 -0.00124479 0)
(-1.25735 -0.00126928 0)
(-1.25286 -0.00129291 0)
(-1.24827 -0.00131621 0)
(-1.24357 -0.00133936 0)
(-1.23876 -0.00136263 0)
(-1.23386 -0.00138601 0)
(-1.22884 -0.0014097 0)
(-1.22372 -0.00143358 0)
(-1.2185 -0.00145778 0)
(-1.21316 -0.00148216 0)
(-1.20772 -0.001507 0)
(-1.20216 -0.00153225 0)
(-1.19649 -0.00155771 0)
(-1.19071 -0.0015834 0)
(-1.18481 -0.00161041 0)
(-1.1788 -0.00163861 0)
(-1.17265 -0.00166771 0)
(-1.16638 -0.0016976 0)
(-1.15998 -0.00172842 0)
(-1.15345 -0.00176016 0)
(-1.14677 -0.001793 0)
(-1.13995 -0.00182693 0)
(-1.13299 -0.00186212 0)
(-1.12587 -0.00189863 0)
(-1.1186 -0.0019366 0)
(-1.11116 -0.001976 0)
(-1.10355 -0.00201706 0)
(-1.09577 -0.00205977 0)
(-1.08781 -0.00210426 0)
(-1.07965 -0.00215075 0)
(-1.0713 -0.00219937 0)
(-1.06275 -0.00225016 0)
(-1.05398 -0.00230322 0)
(-1.04498 -0.00235864 0)
(-1.03576 -0.00241648 0)
(-1.02629 -0.00247672 0)
(-1.01657 -0.00253939 0)
(-1.00659 -0.00260432 0)
(-0.996348 -0.00267142 0)
(-0.985824 -0.00274111 0)
(-0.975018 -0.00281041 0)
(-0.963926 -0.00288236 0)
(-0.952528 -0.00296103 0)
(-0.940807 -0.00304287 0)
(-0.928754 -0.00312555 0)
(-0.916375 -0.00320577 0)
(-0.903677 -0.00328353 0)
(-0.890666 -0.00336096 0)
(-0.877342 -0.00343963 0)
(-0.863697 -0.00352026 0)
(-0.849724 -0.00360332 0)
(-0.835412 -0.00368886 0)
(-0.820752 -0.00377736 0)
(-0.805731 -0.00386922 0)
(-0.790336 -0.00396466 0)
(-0.774551 -0.00406417 0)
(-0.758359 -0.00416825 0)
(-0.741742 -0.00427759 0)
(-0.724678 -0.00439265 0)
(-0.707143 -0.00451377 0)
(-0.689114 -0.00464144 0)
(-0.670563 -0.00477632 0)
(-0.65146 -0.00491895 0)
(-0.631774 -0.00507025 0)
(-0.611468 -0.00523124 0)
(-0.590502 -0.00540323 0)
(-0.56883 -0.00558797 0)
(-0.546396 -0.00578758 0)
(-0.523137 -0.00600511 0)
(-0.498973 -0.00624491 0)
(-0.473807 -0.0065123 0)
(-0.447516 -0.006814 0)
(-0.419948 -0.00715855 0)
(-0.390917 -0.00755523 0)
(-0.360204 -0.00801092 0)
(-0.327571 -0.0085282 0)
(-0.292786 -0.00910233 0)
(-0.255665 -0.00971299 0)
(-0.216165 -0.0103096 0)
(-0.174558 -0.0107815 0)
(-0.131776 -0.0109034 0)
(-0.0900761 -0.0102273 0)
(-0.0536396 -0.00822066 0)
(-0.0277542 -0.00486124 0)
(-0.0160749 -0.00102365 0)
(-0.0203672 0.0031609 0)
(-0.0491408 0.0113185 0)
(-0.129218 0.0291975 0)
(-0.328967 0.0711523 0)
(-0.948515 0.198976 0)
(-1.55854 -0.000382394 0)
(-1.55596 -0.00172822 0)
(-1.55438 -0.00248409 0)
(-1.55144 -0.00288922 0)
(-1.54813 -0.00313742 0)
(-1.54454 -0.00330636 0)
(-1.54078 -0.0034294 0)
(-1.53686 -0.00352629 0)
(-1.53282 -0.00360817 0)
(-1.52868 -0.0036815 0)
(-1.52444 -0.00375034 0)
(-1.5201 -0.00381672 0)
(-1.51567 -0.00388227 0)
(-1.51115 -0.00394743 0)
(-1.50654 -0.00401309 0)
(-1.50183 -0.00407916 0)
(-1.49703 -0.00414623 0)
(-1.49214 -0.00421394 0)
(-1.48714 -0.00428262 0)
(-1.48206 -0.00435183 0)
(-1.47687 -0.00442221 0)
(-1.47158 -0.0044938 0)
(-1.46619 -0.00456564 0)
(-1.46071 -0.00463729 0)
(-1.45513 -0.00471213 0)
(-1.44945 -0.00478994 0)
(-1.44366 -0.00486977 0)
(-1.43778 -0.0049515 0)
(-1.43179 -0.00503548 0)
(-1.4257 -0.00512179 0)
(-1.41949 -0.0052108 0)
(-1.41318 -0.00530257 0)
(-1.40676 -0.0053975 0)
(-1.40022 -0.00549572 0)
(-1.39357 -0.00559758 0)
(-1.38679 -0.00570307 0)
(-1.3799 -0.00581274 0)
(-1.37287 -0.00592668 0)
(-1.36572 -0.00604499 0)
(-1.35843 -0.00616827 0)
(-1.351 -0.00629692 0)
(-1.34344 -0.00643103 0)
(-1.33572 -0.00657095 0)
(-1.32785 -0.00671695 0)
(-1.31983 -0.0068693 0)
(-1.31164 -0.00702806 0)
(-1.30327 -0.00719348 0)
(-1.29473 -0.00736538 0)
(-1.28601 -0.00754366 0)
(-1.27708 -0.00772935 0)
(-1.26795 -0.00791637 0)
(-1.25863 -0.00810592 0)
(-1.24912 -0.00830304 0)
(-1.23943 -0.00850361 0)
(-1.22958 -0.00870614 0)
(-1.21958 -0.00890642 0)
(-1.20939 -0.00910352 0)
(-1.19902 -0.00930048 0)
(-1.18847 -0.00950032 0)
(-1.17774 -0.00970473 0)
(-1.16682 -0.00991482 0)
(-1.15571 -0.0101308 0)
(-1.14441 -0.0103534 0)
(-1.13291 -0.0105832 0)
(-1.12122 -0.0108208 0)
(-1.10932 -0.0110674 0)
(-1.09722 -0.0113243 0)
(-1.08491 -0.0115929 0)
(-1.07238 -0.0118749 0)
(-1.05963 -0.0121713 0)
(-1.04664 -0.0124839 0)
(-1.0334 -0.0128147 0)
(-1.0199 -0.0131655 0)
(-1.00611 -0.0135392 0)
(-0.992002 -0.0139391 0)
(-0.977554 -0.0143691 0)
(-0.962729 -0.0148345 0)
(-0.947482 -0.015341 0)
(-0.931764 -0.0158968 0)
(-0.915514 -0.0165131 0)
(-0.898664 -0.0172031 0)
(-0.881133 -0.0179823 0)
(-0.862832 -0.01887 0)
(-0.843662 -0.0198874 0)
(-0.823514 -0.0210501 0)
(-0.802278 -0.0223629 0)
(-0.779854 -0.0238099 0)
(-0.75619 -0.0253356 0)
(-0.731323 -0.0268099 0)
(-0.705456 -0.0279636 0)
(-0.679051 -0.0282733 0)
(-0.652891 -0.0267803 0)
(-0.628351 -0.0222211 0)
(-0.608334 -0.0139699 0)
(-0.601912 -0.0013262 0)
(-0.616651 0.0129624 0)
(-0.66465 0.0396994 0)
(-0.768459 0.09202 0)
(-0.971251 0.204355 0)
(-1.45982 0.526426 0)
(-1.70972 -0.000993747 0)
(-1.70623 -0.00298938 0)
(-1.70549 -0.00408518 0)
(-1.70311 -0.00469957 0)
(-1.70039 -0.00508175 0)
(-1.69745 -0.00534157 0)
(-1.69435 -0.00552955 0)
(-1.69114 -0.00567704 0)
(-1.68782 -0.00580063 0)
(-1.68444 -0.00591106 0)
(-1.68097 -0.00601408 0)
(-1.67744 -0.00611342 0)
(-1.67383 -0.00621122 0)
(-1.67017 -0.00630866 0)
(-1.66642 -0.0064068 0)
(-1.66263 -0.00650591 0)
(-1.65875 -0.00660666 0)
(-1.65482 -0.00670892 0)
(-1.6508 -0.006813 0)
(-1.64671 -0.00691847 0)
(-1.64255 -0.00702617 0)
(-1.63831 -0.00713646 0)
(-1.63397 -0.00724794 0)
(-1.62956 -0.00735865 0)
(-1.62506 -0.00747113 0)
(-1.62049 -0.0075855 0)
(-1.61585 -0.00770143 0)
(-1.61114 -0.00781947 0)
(-1.60636 -0.00794013 0)
(-1.60152 -0.00806365 0)
(-1.5966 -0.00819044 0)
(-1.59163 -0.00832065 0)
(-1.58658 -0.00845468 0)
(-1.58147 -0.00859273 0)
(-1.5763 -0.00873519 0)
(-1.57105 -0.00888197 0)
(-1.56575 -0.00903376 0)
(-1.56037 -0.0091909 0)
(-1.55493 -0.00935304 0)
(-1.54943 -0.00952093 0)
(-1.54387 -0.00969514 0)
(-1.53825 -0.00987564 0)
(-1.53256 -0.0100629 0)
(-1.52682 -0.0102572 0)
(-1.52103 -0.010459 0)
(-1.51518 -0.0106682 0)
(-1.50928 -0.0108853 0)
(-1.50334 -0.0111101 0)
(-1.49735 -0.0113425 0)
(-1.49132 -0.0115824 0)
(-1.48525 -0.0118259 0)
(-1.47918 -0.0120701 0)
(-1.47306 -0.0123129 0)
(-1.46693 -0.0125535 0)
(-1.46079 -0.0127948 0)
(-1.45465 -0.0130374 0)
(-1.44849 -0.0132796 0)
(-1.44233 -0.0135215 0)
(-1.43616 -0.0137653 0)
(-1.43 -0.0140124 0)
(-1.42384 -0.014264 0)
(-1.4177 -0.0145203 0)
(-1.41159 -0.0147813 0)
(-1.40551 -0.0150468 0)
(-1.3995 -0.0153174 0)
(-1.39354 -0.0155942 0)
(-1.38768 -0.0158784 0)
(-1.38191 -0.0161711 0)
(-1.37626 -0.0164743 0)
(-1.37075 -0.0167897 0)
(-1.3654 -0.0171194 0)
(-1.36022 -0.0174663 0)
(-1.35524 -0.017833 0)
(-1.35048 -0.0182239 0)
(-1.34594 -0.0186439 0)
(-1.34165 -0.0190992 0)
(-1.3376 -0.0195979 0)
(-1.33381 -0.0201487 0)
(-1.33028 -0.0207633 0)
(-1.32698 -0.0214574 0)
(-1.32392 -0.0222493 0)
(-1.32104 -0.0231583 0)
(-1.31834 -0.0242074 0)
(-1.31576 -0.0254204 0)
(-1.31328 -0.0268161 0)
(-1.31084 -0.0283977 0)
(-1.30843 -0.0301373 0)
(-1.30604 -0.0319524 0)
(-1.30374 -0.0336644 0)
(-1.30168 -0.0349257 0)
(-1.30013 -0.0351074 0)
(-1.29943 -0.0331562 0)
(-1.30011 -0.0275601 0)
(-1.30364 -0.0167441 0)
(-1.31218 0.00162029 0)
(-1.32905 0.0258375 0)
(-1.36826 0.0692922 0)
(-1.44421 0.149503 0)
(-1.58791 0.311387 0)
(-1.85872 0.719332 0)
(-1.84634 -0.0016938 0)
(-1.84258 -0.00402074 0)
(-1.84284 -0.00535906 0)
(-1.84135 -0.00613904 0)
(-1.8396 -0.00662865 0)
(-1.83769 -0.00695911 0)
(-1.83565 -0.00719493 0)
(-1.83354 -0.00737767 0)
(-1.83135 -0.00752803 0)
(-1.82914 -0.00766098 0)
(-1.82687 -0.00778321 0)
(-1.82459 -0.00790039 0)
(-1.82225 -0.00801465 0)
(-1.8199 -0.00812828 0)
(-1.81751 -0.00824204 0)
(-1.81512 -0.00835694 0)
(-1.81268 -0.0084734 0)
(-1.81024 -0.00859183 0)
(-1.80777 -0.00871234 0)
(-1.80528 -0.00883462 0)
(-1.80277 -0.00895981 0)
(-1.80025 -0.0090878 0)
(-1.7977 -0.00921774 0)
(-1.79515 -0.00934839 0)
(-1.79258 -0.00947873 0)
(-1.79 -0.00960842 0)
(-1.78739 -0.00973831 0)
(-1.78478 -0.00986961 0)
(-1.78216 -0.0100029 0)
(-1.77954 -0.0101385 0)
(-1.77691 -0.0102768 0)
(-1.77429 -0.010418 0)
(-1.77166 -0.0105623 0)
(-1.76905 -0.0107099 0)
(-1.76644 -0.010861 0)
(-1.76384 -0.0110154 0)
(-1.76127 -0.0111736 0)
(-1.75872 -0.0113359 0)
(-1.75619 -0.0115019 0)
(-1.7537 -0.0116721 0)
(-1.75125 -0.0118467 0)
(-1.74884 -0.0120255 0)
(-1.74649 -0.0122088 0)
(-1.7442 -0.0123965 0)
(-1.74198 -0.0125888 0)
(-1.73984 -0.0127852 0)
(-1.7378 -0.012986 0)
(-1.73586 -0.0131906 0)
(-1.73404 -0.0133984 0)
(-1.73236 -0.0136073 0)
(-1.73082 -0.0138165 0)
(-1.72945 -0.0140278 0)
(-1.72821 -0.0142373 0)
(-1.72712 -0.0144413 0)
(-1.72617 -0.0146428 0)
(-1.72537 -0.0148435 0)
(-1.72474 -0.0150421 0)
(-1.72429 -0.0152373 0)
(-1.72402 -0.0154293 0)
(-1.72396 -0.0156191 0)
(-1.72412 -0.0158073 0)
(-1.72451 -0.015994 0)
(-1.72515 -0.0161787 0)
(-1.72606 -0.0163606 0)
(-1.72725 -0.0165399 0)
(-1.72874 -0.0167173 0)
(-1.73055 -0.016894 0)
(-1.73269 -0.0170709 0)
(-1.73518 -0.01725 0)
(-1.73802 -0.0174335 0)
(-1.74124 -0.0176239 0)
(-1.74483 -0.0178252 0)
(-1.74881 -0.0180412 0)
(-1.75317 -0.0182779 0)
(-1.7579 -0.0185422 0)
(-1.763 -0.0188429 0)
(-1.76843 -0.0191912 0)
(-1.77419 -0.0195995 0)
(-1.78022 -0.020082 0)
(-1.7865 -0.0206589 0)
(-1.79297 -0.0213529 0)
(-1.79957 -0.0221858 0)
(-1.80625 -0.0231819 0)
(-1.81296 -0.024365 0)
(-1.81963 -0.0257527 0)
(-1.82624 -0.0273442 0)
(-1.83276 -0.0290994 0)
(-1.83921 -0.0309149 0)
(-1.84565 -0.0325835 0)
(-1.85215 -0.0337225 0)
(-1.85883 -0.0336777 0)
(-1.86573 -0.0314091 0)
(-1.87281 -0.0253581 0)
(-1.88054 -0.013567 0)
(-1.88963 0.00574475 0)
(-1.9004 0.0358417 0)
(-1.92284 0.0888734 0)
(-1.96391 0.185605 0)
(-2.03298 0.375198 0)
(-2.13371 0.77799 0)
(-1.98424 -0.00229512 0)
(-1.98088 -0.0046876 0)
(-1.98224 -0.00613571 0)
(-1.98197 -0.00701286 0)
(-1.98163 -0.00756943 0)
(-1.98117 -0.00793994 0)
(-1.98069 -0.00819989 0)
(-1.98017 -0.00839575 0)
(-1.97964 -0.00855281 0)
(-1.97912 -0.00868771 0)
(-1.9786 -0.00880897 0)
(-1.9781 -0.00892273 0)
(-1.97761 -0.00903189 0)
(-1.97716 -0.00913881 0)
(-1.97673 -0.00924455 0)
(-1.97634 -0.00935007 0)
(-1.97597 -0.00945589 0)
(-1.97566 -0.00956243 0)
(-1.97538 -0.00966971 0)
(-1.97516 -0.00977691 0)
(-1.97499 -0.00988544 0)
(-1.97489 -0.00999462 0)
(-1.97486 -0.0101039 0)
(-1.9749 -0.010215 0)
(-1.97501 -0.010327 0)
(-1.97519 -0.0104382 0)
(-1.97543 -0.0105486 0)
(-1.97574 -0.010659 0)
(-1.97612 -0.0107699 0)
(-1.97657 -0.0108815 0)
(-1.9771 -0.010994 0)
(-1.97772 -0.0111076 0)
(-1.97843 -0.0112224 0)
(-1.97923 -0.0113384 0)
(-1.98013 -0.0114557 0)
(-1.98113 -0.0115741 0)
(-1.98225 -0.0116936 0)
(-1.98348 -0.0118143 0)
(-1.98483 -0.0119361 0)
(-1.98632 -0.0120592 0)
(-1.98793 -0.0121833 0)
(-1.98969 -0.0123083 0)
(-1.9916 -0.0124341 0)
(-1.99366 -0.0125605 0)
(-1.99589 -0.0126874 0)
(-1.99828 -0.0128142 0)
(-2.00085 -0.0129409 0)
(-2.0036 -0.0130669 0)
(-2.00653 -0.0131913 0)
(-2.00965 -0.0133123 0)
(-2.01297 -0.01343 0)
(-2.01647 -0.0135489 0)
(-2.02018 -0.0136673 0)
(-2.0241 -0.0137801 0)
(-2.02822 -0.0138874 0)
(-2.03255 -0.0139897 0)
(-2.0371 -0.0140861 0)
(-2.04188 -0.0141758 0)
(-2.04687 -0.0142586 0)
(-2.05209 -0.0143353 0)
(-2.05753 -0.0144066 0)
(-2.06319 -0.0144734 0)
(-2.06907 -0.014535 0)
(-2.07517 -0.0145904 0)
(-2.08148 -0.01464 0)
(-2.088 -0.0146852 0)
(-2.09473 -0.0147275 0)
(-2.10165 -0.0147686 0)
(-2.10875 -0.014811 0)
(-2.11603 -0.0148574 0)
(-2.12348 -0.0149115 0)
(-2.13108 -0.0149779 0)
(-2.13883 -0.0150621 0)
(-2.14671 -0.0151711 0)
(-2.1547 -0.0153134 0)
(-2.1628 -0.0154996 0)
(-2.17099 -0.0157427 0)
(-2.17926 -0.016058 0)
(-2.18759 -0.0164595 0)
(-2.19598 -0.0169702 0)
(-2.2044 -0.0176158 0)
(-2.21285 -0.0184176 0)
(-2.22131 -0.0193995 0)
(-2.22977 -0.0205831 0)
(-2.23824 -0.0219827 0)
(-2.24671 -0.0235928 0)
(-2.2552 -0.0253637 0)
(-2.26373 -0.0271794 0)
(-2.27231 -0.0288231 0)
(-2.28095 -0.0299131 0)
(-2.28956 -0.0298234 0)
(-2.29792 -0.0276018 0)
(-2.30547 -0.0217895 0)
(-2.31222 -0.0105171 0)
(-2.31746 0.00837749 0)
(-2.3199 0.0402237 0)
(-2.32432 0.0966805 0)
(-2.33019 0.198974 0)
(-2.32807 0.392476 0)
(-2.31038 0.744289 0)
(-2.1301 -0.00263036 0)
(-2.12777 -0.00486348 0)
(-2.13028 -0.00626534 0)
(-2.13152 -0.0071395 0)
(-2.13288 -0.00769772 0)
(-2.13427 -0.00806221 0)
(-2.13572 -0.00831134 0)
(-2.13721 -0.00849051 0)
(-2.13876 -0.00862784 0)
(-2.14036 -0.00873929 0)
(-2.14202 -0.00883508 0)
(-2.14375 -0.00892069 0)
(-2.14554 -0.00899999 0)
(-2.14742 -0.00907479 0)
(-2.14936 -0.00914669 0)
(-2.15139 -0.00921619 0)
(-2.1535 -0.00928405 0)
(-2.15571 -0.00935067 0)
(-2.158 -0.00941602 0)
(-2.1604 -0.00947845 0)
(-2.16289 -0.00953952 0)
(-2.16549 -0.00959972 0)
(-2.1682 -0.00965854 0)
(-2.17101 -0.00971797 0)
(-2.17393 -0.00977893 0)
(-2.17698 -0.00983942 0)
(-2.18013 -0.00989837 0)
(-2.18341 -0.009956 0)
(-2.1868 -0.0100126 0)
(-2.19032 -0.0100682 0)
(-2.19396 -0.0101231 0)
(-2.19774 -0.0101775 0)
(-2.20164 -0.0102313 0)
(-2.20568 -0.0102848 0)
(-2.20984 -0.0103378 0)
(-2.21415 -0.0103904 0)
(-2.21859 -0.0104427 0)
(-2.22316 -0.0104943 0)
(-2.22787 -0.0105455 0)
(-2.23272 -0.0105964 0)
(-2.2377 -0.0106471 0)
(-2.24282 -0.0106973 0)
(-2.24808 -0.010747 0)
(-2.25346 -0.0107963 0)
(-2.25898 -0.0108451 0)
(-2.26462 -0.0108931 0)
(-2.27038 -0.0109402 0)
(-2.27627 -0.0109862 0)
(-2.28227 -0.0110305 0)
(-2.28839 -0.0110722 0)
(-2.29461 -0.0111118 0)
(-2.30094 -0.0111512 0)
(-2.30736 -0.0111895 0)
(-2.31388 -0.0112238 0)
(-2.32049 -0.0112535 0)
(-2.32719 -0.0112783 0)
(-2.33395 -0.0112977 0)
(-2.3408 -0.0113113 0)
(-2.3477 -0.011319 0)
(-2.35467 -0.0113217 0)
(-2.36169 -0.0113206 0)
(-2.36877 -0.0113173 0)
(-2.37588 -0.011311 0)
(-2.38304 -0.0113 0)
(-2.39023 -0.0112849 0)
(-2.39746 -0.0112672 0)
(-2.40473 -0.0112489 0)
(-2.41203 -0.011232 0)
(-2.41936 -0.0112189 0)
(-2.42672 -0.0112125 0)
(-2.43411 -0.0112166 0)
(-2.44154 -0.0112355 0)
(-2.44899 -0.0112748 0)
(-2.45649 -0.0113416 0)
(-2.46403 -0.0114446 0)
(-2.47161 -0.011594 0)
(-2.47923 -0.0118028 0)
(-2.4869 -0.0120873 0)
(-2.49461 -0.01246 0)
(-2.50241 -0.0129415 0)
(-2.51026 -0.0135577 0)
(-2.51821 -0.0143306 0)
(-2.52626 -0.0152832 0)
(-2.53442 -0.0164347 0)
(-2.54272 -0.0177976 0)
(-2.55116 -0.019367 0)
(-2.55975 -0.0210911 0)
(-2.5685 -0.0228512 0)
(-2.57739 -0.0244418 0)
(-2.58634 -0.0255119 0)
(-2.59514 -0.025503 0)
(-2.60336 -0.0235887 0)
(-2.61011 -0.0185675 0)
(-2.61504 -0.00870849 0)
(-2.61638 0.00858602 0)
(-2.61091 0.0389803 0)
(-2.59916 0.0931726 0)
(-2.57349 0.191113 0)
(-2.51186 0.368665 0)
(-2.41565 0.65241 0)
(-2.27977 -0.00259693 0)
(-2.27866 -0.00446453 0)
(-2.28224 -0.00566921 0)
(-2.28499 -0.00643584 0)
(-2.28794 -0.00692395 0)
(-2.29109 -0.00723451 0)
(-2.29432 -0.00743764 0)
(-2.29769 -0.00757376 0)
(-2.30111 -0.0076693 0)
(-2.30464 -0.00773877 0)
(-2.30823 -0.00779223 0)
(-2.31192 -0.00783456 0)
(-2.31567 -0.00786981 0)
(-2.31953 -0.00789951 0)
(-2.32343 -0.00792549 0)
(-2.32745 -0.00794807 0)
(-2.33152 -0.00796813 0)
(-2.3357 -0.0079862 0)
(-2.33993 -0.0080024 0)
(-2.34426 -0.00801436 0)
(-2.34867 -0.00802258 0)
(-2.35318 -0.00802822 0)
(-2.35776 -0.00803201 0)
(-2.36245 -0.00803518 0)
(-2.36723 -0.00803861 0)
(-2.37211 -0.00804115 0)
(-2.37708 -0.00804222 0)
(-2.38216 -0.00804179 0)
(-2.38732 -0.0080402 0)
(-2.39258 -0.00803747 0)
(-2.39793 -0.00803409 0)
(-2.40337 -0.00803022 0)
(-2.40889 -0.00802639 0)
(-2.4145 -0.00802245 0)
(-2.42018 -0.00801897 0)
(-2.42595 -0.00801577 0)
(-2.43178 -0.00801334 0)
(-2.43769 -0.00801128 0)
(-2.44365 -0.00801014 0)
(-2.44968 -0.00801008 0)
(-2.45575 -0.00801136 0)
(-2.46188 -0.00801385 0)
(-2.46804 -0.00801775 0)
(-2.47425 -0.00802297 0)
(-2.48048 -0.00802983 0)
(-2.48675 -0.0080378 0)
(-2.49304 -0.00804695 0)
(-2.49935 -0.00805725 0)
(-2.50566 -0.00806806 0)
(-2.512 -0.0080787 0)
(-2.51833 -0.00808961 0)
(-2.52467 -0.00810163 0)
(-2.531 -0.00811384 0)
(-2.53734 -0.00812441 0)
(-2.54366 -0.00813267 0)
(-2.54999 -0.00813785 0)
(-2.5563 -0.00813924 0)
(-2.5626 -0.00813627 0)
(-2.5689 -0.00812882 0)
(-2.57518 -0.00811695 0)
(-2.58146 -0.00810185 0)
(-2.58774 -0.00808623 0)
(-2.59401 -0.008069 0)
(-2.60028 -0.00804569 0)
(-2.60655 -0.00801724 0)
(-2.61284 -0.00798513 0)
(-2.61914 -0.00795141 0)
(-2.62546 -0.00791774 0)
(-2.63181 -0.00788618 0)
(-2.63821 -0.00785939 0)
(-2.64464 -0.00784077 0)
(-2.65113 -0.00783436 0)
(-2.65767 -0.0078455 0)
(-2.66429 -0.00788102 0)
(-2.67099 -0.00794941 0)
(-2.67779 -0.00806082 0)
(-2.68469 -0.00822764 0)
(-2.6917 -0.00846451 0)
(-2.69883 -0.00878735 0)
(-2.70615 -0.0092151 0)
(-2.71358 -0.00976923 0)
(-2.72118 -0.0104726 0)
(-2.72896 -0.0113477 0)
(-2.73695 -0.0124113 0)
(-2.74517 -0.0136748 0)
(-2.75364 -0.0151401 0)
(-2.76236 -0.0167602 0)
(-2.77133 -0.0184173 0)
(-2.78047 -0.019934 0)
(-2.78965 -0.02101 0)
(-2.79856 -0.0211798 0)
(-2.80661 -0.0197688 0)
(-2.8127 -0.0158972 0)
(-2.81594 -0.0080414 0)
(-2.81415 0.00646235 0)
(-2.80177 0.032793 0)
(-2.77603 0.0798453 0)
(-2.72363 0.164704 0)
(-2.616 0.312539 0)
(-2.47012 0.525446 0)
(-2.41334 -0.00221302 0)
(-2.41311 -0.00355919 0)
(-2.41732 -0.00446944 0)
(-2.42101 -0.00505533 0)
(-2.42486 -0.00542485 0)
(-2.42907 -0.00565292 0)
(-2.43329 -0.00579331 0)
(-2.43773 -0.00587838 0)
(-2.44214 -0.00592904 0)
(-2.44671 -0.0059574 0)
(-2.45125 -0.0059716 0)
(-2.45592 -0.00597591 0)
(-2.46056 -0.00597367 0)
(-2.46532 -0.00596641 0)
(-2.47006 -0.00595573 0)
(-2.47491 -0.00594202 0)
(-2.47974 -0.00592611 0)
(-2.48467 -0.00590794 0)
(-2.48959 -0.00588775 0)
(-2.49461 -0.00586479 0)
(-2.49964 -0.00583889 0)
(-2.50474 -0.00580961 0)
(-2.50982 -0.00577857 0)
(-2.51498 -0.00574703 0)
(-2.52012 -0.00571597 0)
(-2.52533 -0.00568477 0)
(-2.53053 -0.00565351 0)
(-2.53578 -0.00562183 0)
(-2.54101 -0.00559049 0)
(-2.5463 -0.00555907 0)
(-2.55156 -0.0055286 0)
(-2.55686 -0.00549883 0)
(-2.56214 -0.00547102 0)
(-2.56745 -0.00544449 0)
(-2.57273 -0.00542041 0)
(-2.57805 -0.00539821 0)
(-2.58332 -0.00537856 0)
(-2.58862 -0.00536105 0)
(-2.59389 -0.00534642 0)
(-2.59917 -0.00533464 0)
(-2.60442 -0.00532583 0)
(-2.60968 -0.00531989 0)
(-2.6149 -0.00531689 0)
(-2.62013 -0.00531665 0)
(-2.62534 -0.00531939 0)
(-2.63055 -0.0053245 0)
(-2.63573 -0.00533174 0)
(-2.64091 -0.00534112 0)
(-2.64608 -0.00535198 0)
(-2.65125 -0.00536356 0)
(-2.6564 -0.0053758 0)
(-2.66157 -0.00538897 0)
(-2.66672 -0.00540212 0)
(-2.67189 -0.00541362 0)
(-2.67705 -0.00542267 0)
(-2.68224 -0.00542824 0)
(-2.68743 -0.0054294 0)
(-2.69265 -0.0054253 0)
(-2.69788 -0.00541551 0)
(-2.70315 -0.00539963 0)
(-2.70844 -0.00537801 0)
(-2.71377 -0.00535525 0)
(-2.71914 -0.00533176 0)
(-2.72456 -0.0052972 0)
(-2.73002 -0.00525361 0)
(-2.73555 -0.00520339 0)
(-2.74114 -0.00514829 0)
(-2.74681 -0.00508972 0)
(-2.75255 -0.00502946 0)
(-2.75839 -0.00496979 0)
(-2.76432 -0.00491378 0)
(-2.77036 -0.00486518 0)
(-2.77652 -0.00482915 0)
(-2.78281 -0.0048121 0)
(-2.78924 -0.0048222 0)
(-2.79582 -0.0048693 0)
(-2.80257 -0.00496495 0)
(-2.80949 -0.00512196 0)
(-2.8166 -0.00535996 0)
(-2.82394 -0.00569947 0)
(-2.83148 -0.00615808 0)
(-2.83927 -0.00675631 0)
(-2.8473 -0.00751527 0)
(-2.85562 -0.00845017 0)
(-2.86425 -0.00956879 0)
(-2.8732 -0.0108868 0)
(-2.88245 -0.0123743 0)
(-2.89196 -0.0139075 0)
(-2.90166 -0.015354 0)
(-2.91132 -0.0164792 0)
(-2.92056 -0.0169257 0)
(-2.92866 -0.0161952 0)
(-2.93447 -0.0136897 0)
(-2.93634 -0.00829795 0)
(-2.93242 0.00226293 0)
(-2.91448 0.0224465 0)
(-2.87773 0.0583536 0)
(-2.80465 0.12317 0)
(-2.66451 0.232797 0)
(-2.48905 0.378494 0)
(-2.5121 -0.00152411 0)
(-2.51264 -0.00234515 0)
(-2.51691 -0.00292675 0)
(-2.52091 -0.00330233 0)
(-2.52499 -0.00353802 0)
(-2.52951 -0.00368155 0)
(-2.53393 -0.00376635 0)
(-2.53861 -0.00381357 0)
(-2.54312 -0.00383669 0)
(-2.54784 -0.0038439 0)
(-2.55238 -0.00384065 0)
(-2.55708 -0.00382991 0)
(-2.56161 -0.00381394 0)
(-2.56628 -0.00379408 0)
(-2.57079 -0.00377141 0)
(-2.57542 -0.00374636 0)
(-2.5799 -0.00371944 0)
(-2.58449 -0.0036901 0)
(-2.58895 -0.00365851 0)
(-2.5935 -0.00362652 0)
(-2.59792 -0.00359501 0)
(-2.60242 -0.00356226 0)
(-2.60678 -0.00352887 0)
(-2.61121 -0.00349575 0)
(-2.61552 -0.00346369 0)
(-2.61988 -0.00343231 0)
(-2.62413 -0.00340197 0)
(-2.62843 -0.00337216 0)
(-2.63262 -0.00334365 0)
(-2.63685 -0.00331573 0)
(-2.64098 -0.0032895 0)
(-2.64515 -0.00326447 0)
(-2.64923 -0.00324206 0)
(-2.65334 -0.00322136 0)
(-2.65738 -0.00320358 0)
(-2.66144 -0.003188 0)
(-2.66544 -0.00317517 0)
(-2.66945 -0.00316458 0)
(-2.67342 -0.00315677 0)
(-2.6774 -0.00315175 0)
(-2.68135 -0.00314952 0)
(-2.68531 -0.00314967 0)
(-2.68925 -0.00315227 0)
(-2.69321 -0.00315699 0)
(-2.69715 -0.0031639 0)
(-2.70111 -0.00317247 0)
(-2.70506 -0.00318227 0)
(-2.70904 -0.00319293 0)
(-2.71302 -0.00320382 0)
(-2.71704 -0.00321453 0)
(-2.72107 -0.0032247 0)
(-2.72513 -0.00323382 0)
(-2.72922 -0.0032411 0)
(-2.73335 -0.00324526 0)
(-2.73751 -0.00324523 0)
(-2.74173 -0.00324003 0)
(-2.74598 -0.00322863 0)
(-2.7503 -0.00321007 0)
(-2.75467 -0.00318361 0)
(-2.7591 -0.00314892 0)
(-2.7636 -0.00310454 0)
(-2.76818 -0.00305692 0)
(-2.77283 -0.00301379 0)
(-2.77755 -0.0029515 0)
(-2.78236 -0.00287558 0)
(-2.78728 -0.0027903 0)
(-2.79229 -0.00269716 0)
(-2.79741 -0.00259718 0)
(-2.80265 -0.00249176 0)
(-2.80802 -0.00238284 0)
(-2.81351 -0.00227315 0)
(-2.81916 -0.00216613 0)
(-2.82495 -0.00206661 0)
(-2.83091 -0.00198056 0)
(-2.83705 -0.00191568 0)
(-2.84338 -0.00188134 0)
(-2.84991 -0.00188846 0)
(-2.85666 -0.00194985 0)
(-2.86365 -0.00208442 0)
(-2.8709 -0.00231189 0)
(-2.87843 -0.00264941 0)
(-2.88628 -0.00311612 0)
(-2.89445 -0.0037314 0)
(-2.90299 -0.00451159 0)
(-2.91192 -0.00545602 0)
(-2.92128 -0.00659515 0)
(-2.931 -0.00794869 0)
(-2.94106 -0.00935295 0)
(-2.95135 -0.010747 0)
(-2.96163 -0.0119723 0)
(-2.97147 -0.012785 0)
(-2.9801 -0.0128804 0)
(-2.98633 -0.0118908 0)
(-2.98814 -0.00925755 0)
(-2.9833 -0.00338172 0)
(-2.96403 0.00880392 0)
(-2.92026 0.0307134 0)
(-2.83461 0.0704851 0)
(-2.67525 0.136801 0)
(-2.48483 0.22049 0)
(-2.55554 -0.000614649 0)
(-2.55631 -0.00100027 0)
(-2.56041 -0.00125258 0)
(-2.56434 -0.00141781 0)
(-2.56829 -0.00152719 0)
(-2.57271 -0.00159982 0)
(-2.57693 -0.00164802 0)
(-2.58144 -0.0016793 0)
(-2.58569 -0.00169923 0)
(-2.59015 -0.0017107 0)
(-2.59434 -0.00171647 0)
(-2.5987 -0.00171754 0)
(-2.60279 -0.0017149 0)
(-2.60703 -0.00170949 0)
(-2.61102 -0.0017018 0)
(-2.61515 -0.00169209 0)
(-2.61903 -0.00168049 0)
(-2.62303 -0.00166666 0)
(-2.62682 -0.00165087 0)
(-2.6307 -0.00163525 0)
(-2.63438 -0.00162074 0)
(-2.63816 -0.00160611 -1.88797e-41)
(-2.64176 -0.00159103 0)
(-2.64543 -0.00157602 0)
(-2.64895 -0.0015614 0)
(-2.65254 -0.00154711 0)
(-2.65598 -0.00153324 0)
(-2.65949 -0.00151969 0)
(-2.66287 -0.00150643 0)
(-2.66631 -0.00149334 0)
(-2.66964 -0.00148072 0)
(-2.67302 -0.00146883 0)
(-2.67632 -0.00145807 0)
(-2.67965 -0.00144852 0)
(-2.68293 -0.00144035 0)
(-2.68623 -0.00143359 0)
(-2.68948 -0.00142826 0)
(-2.69276 -0.00142411 0)
(-2.69602 -0.00142129 0)
(-2.69929 -0.00141984 0)
(-2.70254 -0.00141993 0)
(-2.70582 -0.00142089 0)
(-2.7091 -0.00142286 0)
(-2.7124 -0.00142537 0)
(-2.7157 -0.00142845 0)
(-2.71903 -0.00143173 0)
(-2.72237 -0.00143475 0)
(-2.72575 -0.00143678 0)
(-2.72915 -0.00143721 0)
(-2.73259 -0.00143598 0)
(-2.73605 -0.0014328 0)
(-2.73957 -0.00142652 0)
(-2.74311 -0.00141636 0)
(-2.74671 -0.00140146 0)
(-2.75035 -0.00138058 0)
(-2.75405 -0.0013527 0)
(-2.7578 -0.00131691 0)
(-2.76162 -0.00127207 0)
(-2.76549 -0.00121711 0)
(-2.76944 -0.00115174 0)
(-2.77346 -0.0010744 0)
(-2.77757 -0.000984904 0)
(-2.78174 -0.000917488 0)
(-2.786 -0.000815492 0)
(-2.79034 -0.000695821 0)
(-2.79479 -0.000565014 0)
(-2.79935 -0.000423975 0)
(-2.80402 -0.000273187 0)
(-2.80881 -0.000113563 0)
(-2.81373 5.32752e-05 0)
(-2.81879 0.000224958 0)
(-2.82399 0.000398482 0)
(-2.82935 0.000569486 0)
(-2.83488 0.000732426 0)
(-2.84059 0.000880272 0)
(-2.8465 0.0010043 0)
(-2.85262 0.00109416 0)
(-2.85897 0.00113704 0)
(-2.86557 0.00111644 0)
(-2.87244 0.00101482 0)
(-2.8796 0.000815006 0)
(-2.88709 0.000498359 0)
(-2.89492 4.62012e-05 5.43093e-43)
(-2.90313 -0.000557422 0)
(-2.91172 -0.00131921 0)
(-2.92081 -0.00223461 0)
(-2.93014 -0.0034673 0)
(-2.93985 -0.00472726 -5.55687e-41)
(-2.9498 -0.00607344 0)
(-2.95971 -0.00742531 0)
(-2.96914 -0.00865066 0)
(-2.97737 -0.00962589 0)
(-2.98317 -0.0102608 0)
(-2.98463 -0.0104451 -6.13906e-41)
(-2.97848 -0.00954274 0)
(-2.95891 -0.00649442 0)
(-2.91325 -0.000281965 -3.31448e-42)
(-2.82319 0.011499 0)
(-2.65711 0.0314623 0)
(-2.46197 0.0567006 0)
(-2.52781 0.000349569 0)
(-2.52833 0.000402589 0)
(-2.5325 0.000485311 0)
(-2.53649 0.000531278 0)
(-2.5405 0.000545716 0)
(-2.54502 0.00053965 0)
(-2.54935 0.000522218 0)
(-2.554 0.000499724 0)
(-2.55841 0.000475133 0)
(-2.56305 0.000450747 0)
(-2.56743 0.000427092 0)
(-2.57199 0.000404867 0)
(-2.57632 0.000384627 0)
(-2.58078 0.000365857 0)
(-2.58503 0.00034885 0)
(-2.58939 0.000333485 0)
(-2.59354 0.000320101 0)
(-2.5978 0.000308696 0)
(-2.60186 0.000299089 0)
(-2.60601 0.000289892 0)
(-2.60998 0.000280917 0)
(-2.61403 0.000272576 3.20412e-42)
(-2.61792 0.000265364 0)
(-2.62187 0.000258809 0)
(-2.62566 0.000253022 0)
(-2.62952 0.000247763 0)
(-2.63324 0.000243256 0)
(-2.63701 0.000239168 0)
(-2.64065 0.000236309 0)
(-2.64434 0.000234241 0)
(-2.64792 0.0002334 0)
(-2.65154 0.000232696 0)
(-2.65506 0.000232699 0)
(-2.65862 0.000232375 0)
(-2.6621 0.000232506 0)
(-2.6656 0.000232288 0)
(-2.66904 0.00023224 0)
(-2.6725 0.000232191 0)
(-2.67592 0.000232352 0)
(-2.67935 0.000232721 0)
(-2.68275 0.000233315 0)
(-2.68617 0.0002343 0)
(-2.68957 0.000235911 0)
(-2.69298 0.000238431 0)
(-2.69638 0.00024211 0)
(-2.69981 0.00024723 0)
(-2.70323 0.000254294 0)
(-2.70668 0.000264003 0)
(-2.71013 0.000276869 0)
(-2.71362 0.000293105 0)
(-2.71712 0.000313051 0)
(-2.72065 0.00033784 0)
(-2.72421 0.00036831 0)
(-2.72781 0.000405233 0)
(-2.73145 0.000449856 0)
(-2.73512 0.000503402 0)
(-2.73884 0.000566359 0)
(-2.74262 0.000640202 0)
(-2.74644 0.000726522 0)
(-2.75032 0.000825247 0)
(-2.75425 0.000937168 0)
(-2.75825 0.00106391 0)
(-2.76231 0.00117204 0)
(-2.76647 0.00131697 0)
(-2.7707 0.00148206 0)
(-2.77502 0.00166111 0)
(-2.77942 0.00185349 0)
(-2.78392 0.00205901 0)
(-2.78852 0.00227718 0)
(-2.79323 0.00250664 0)
(-2.79806 0.00274544 0)
(-2.80302 0.00299113 0)
(-2.80811 0.00323991 0)
(-2.81336 0.00348677 0)
(-2.81876 0.0037254 0)
(-2.82434 0.00394785 0)
(-2.83012 0.00414445 0)
(-2.83609 0.00430318 0)
(-2.8423 0.00440938 0)
(-2.84874 0.00444721 0)
(-2.85546 0.00440017 0)
(-2.86247 0.00425013 0)
(-2.8698 0.00397826 4.67643e-41)
(-2.87747 0.00356901 0)
(-2.88549 0.00300318 0)
(-2.89388 0.00229152 0)
(-2.90252 0.00125969 0)
(-2.91153 0.000147343 1.73201e-42)
(-2.92059 -0.00115053 0)
(-2.92951 -0.00262883 0)
(-2.93758 -0.0042428 0)
(-2.94441 -0.00604717 0)
(-2.94872 -0.00825874 0)
(-2.94857 -0.0111575 -6.55779e-41)
(-2.94068 -0.0151235 0)
(-2.91903 -0.0209645 0)
(-2.87265 -0.0305465 -3.59072e-40)
(-2.78221 -0.0468656 0)
(-2.61745 -0.0730336 0)
(-2.42373 -0.104065 0)
(-2.44421 0.00118766 0)
(-2.44388 0.00181271 0)
(-2.44812 0.00225091 0)
(-2.45195 0.00252261 0)
(-2.4559 0.00267597 0)
(-2.46033 0.00275248 0)
(-2.46471 0.00278347 0)
(-2.46938 0.0027873 0)
(-2.47394 0.00277637 0)
(-2.47872 0.00275669 0)
(-2.48338 0.00273317 0)
(-2.48819 0.00270721 0)
(-2.49291 0.00268083 0)
(-2.49775 0.00265418 0)
(-2.50249 0.00262814 0)
(-2.50734 0.00260266 0)
(-2.5121 0.0025784 0)
(-2.51695 0.00255519 0)
(-2.52172 0.00253306 0)
(-2.52656 0.00251102 0)
(-2.53132 0.00248924 0)
(-2.53614 0.00246777 0)
(-2.54088 0.00244714 0)
(-2.54568 0.00242691 0)
(-2.5504 0.00240739 0)
(-2.55516 0.00238826 0)
(-2.55984 0.00236982 0)
(-2.56456 0.00235172 0)
(-2.56921 0.00233497 0)
(-2.57387 0.00231945 0)
(-2.57847 0.00230562 0)
(-2.58308 0.00229239 0)
(-2.58763 0.00228024 0)
(-2.59218 0.0022683 0)
(-2.59667 0.00225742 0)
(-2.60117 0.00224688 0)
(-2.6056 0.0022374 0)
(-2.61004 0.0022286 0)
(-2.61442 0.00222095 0)
(-2.61879 0.00221442 0)
(-2.62312 0.00220952 0)
(-2.62744 0.0022058 0)
(-2.63172 0.00220407 0)
(-2.636 0.00220437 0)
(-2.64024 0.00220735 0)
(-2.64447 0.00221326 0)
(-2.64867 0.00222275 0)
(-2.65288 0.00223641 0)
(-2.65706 0.00225479 0)
(-2.66124 0.00227832 0)
(-2.66541 0.00230758 0)
(-2.66959 0.00234346 0)
(-2.67377 0.00238672 0)
(-2.67796 0.00243838 0)
(-2.68215 0.00249977 0)
(-2.68636 0.0025722 0)
(-2.69059 0.00265614 0)
(-2.69484 0.0027529 0)
(-2.69913 0.00286429 0)
(-2.70344 0.00298984 0)
(-2.70778 0.00312998 0)
(-2.71217 0.00328101 0)
(-2.71659 0.00343649 0)
(-2.72108 0.00361859 0)
(-2.72561 0.00382225 0)
(-2.7302 0.00404389 0)
(-2.73486 0.00428278 0)
(-2.73959 0.00453879 0)
(-2.74439 0.00481166 0)
(-2.74928 0.00510044 0)
(-2.75426 0.0054036 0)
(-2.75935 0.00571924 0)
(-2.76456 0.00604422 0)
(-2.76989 0.00637411 0)
(-2.77536 0.00670332 0)
(-2.78099 0.00702468 0)
(-2.78679 0.00732931 0)
(-2.79279 0.00760616 0)
(-2.79899 0.00784202 0)
(-2.80543 0.00802231 0)
(-2.81214 0.00813128 0)
(-2.81913 0.00815132 0)
(-2.82643 0.00806222 0)
(-2.83407 0.00784673 0)
(-2.84208 0.00748573 0)
(-2.85044 0.00694545 0)
(-2.85918 0.00616173 0)
(-2.86822 0.00518161 0)
(-2.8774 0.00391193 0)
(-2.88649 0.00229074 0)
(-2.89481 0.000261765 0)