/*--------------------------------*- C++ -*----------------------------------*\
| =========                 |                                                 |
| \\      /  F ield         | OpenFOAM: The Open Source CFD Toolbox           |
|  \\    /   O peration     | Version:  2.1.0                                 |
|   \\  /    A nd           | Web:      www.OpenFOAM.org                      |
|    \\/     M anipulation  |                                                 |
\*---------------------------------------------------------------------------*/
FoamFile
{
    version     2.0;
    format      ascii;
    class       volScalarField;
    location    "0.1";
    object      C0;
}
// * * * * * * * * * * * * * * * * * * * * * * * * * * * * * * * * * * * * * //

dimensions      [0 0 0 0 0 0 0];

internalField   nonuniform List<scalar> 
6400
(
2.26115e-28
3.70221e-28
6.3929e-28
1.10363e-27
1.89676e-27
3.24478e-27
5.52546e-27
9.36686e-27
1.58083e-26
2.6562e-26
4.44366e-26
7.40188e-26
1.22768e-25
2.02761e-25
3.33475e-25
5.46186e-25
8.9092e-25
1.44737e-24
2.34199e-24
3.77466e-24
6.06011e-24
9.69204e-24
1.5442e-23
2.45115e-23
3.87644e-23
6.10829e-23
9.59075e-23
1.50057e-22
2.33969e-22
3.63567e-22
5.63071e-22
8.69202e-22
1.33748e-21
2.05157e-21
3.13725e-21
4.78301e-21
7.27055e-21
1.10198e-20
1.66549e-20
2.51014e-20
3.77277e-20
5.65528e-20
8.45469e-20
1.2607e-19
1.87507e-19
2.78185e-19
4.11696e-19
6.07811e-19
8.95214e-19
1.31544e-18
1.9285e-18
2.82092e-18
4.11724e-18
5.99632e-18
8.71461e-18
1.26392e-17
1.82944e-17
2.64286e-17
3.81074e-17
5.48468e-17
7.88003e-17
1.13023e-16
1.61847e-16
2.31402e-16
3.30366e-16
4.71001e-16
6.70633e-16
9.53727e-16
1.35482e-15
1.92263e-15
2.72593e-15
3.86174e-15
5.46701e-15
7.73512e-15
1.09393e-14
1.54659e-14
2.18616e-14
3.09016e-14
4.36856e-14
6.17778e-14
8.74071e-14
1.23758e-13
1.75397e-13
2.48893e-13
3.53748e-13
5.03799e-13
7.19356e-13
1.03058e-12
1.48295e-12
2.14647e-12
3.13216e-12
4.62322e-12
6.93883e-12
1.0671e-11
1.69856e-11
2.83031e-11
4.97662e-11
9.26622e-11
1.79552e-10
3.40153e-10
2.94698e-28
4.8613e-28
8.40906e-28
1.45308e-27
2.49966e-27
4.28025e-27
7.29601e-27
1.2381e-26
2.09172e-26
3.51835e-26
5.89224e-26
9.8252e-26
1.63131e-25
2.69701e-25
4.44011e-25
7.27934e-25
1.18849e-24
1.93252e-24
3.12969e-24
5.04834e-24
8.11128e-24
1.29821e-23
2.06985e-23
3.2877e-23
5.20269e-23
8.2029e-23
1.28865e-22
2.01721e-22
3.14662e-22
4.89145e-22
7.57807e-22
1.17013e-21
1.8009e-21
2.76282e-21
4.22526e-21
6.44194e-21
9.79196e-21
1.48401e-20
2.24258e-20
3.37926e-20
5.0779e-20
7.60954e-20
1.13728e-19
1.69523e-19
2.5204e-19
3.73772e-19
5.5292e-19
8.15934e-19
1.20118e-18
1.76416e-18
2.58504e-18
3.77933e-18
5.51319e-18
8.02513e-18
1.16569e-17
1.68974e-17
2.44449e-17
3.52947e-17
5.08641e-17
7.31677e-17
1.05066e-16
1.50616e-16
2.15563e-16
3.08041e-16
4.39548e-16
6.26331e-16
8.91334e-16
1.26693e-15
1.79882e-15
2.55142e-15
3.61561e-15
5.11958e-15
7.24416e-15
1.02446e-14
1.44814e-14
2.04641e-14
2.89137e-14
4.08516e-14
5.77275e-14
8.16024e-14
1.15414e-13
1.63361e-13
2.31466e-13
3.28401e-13
4.66722e-13
6.64729e-13
9.49318e-13
1.36045e-12
1.95836e-12
2.83555e-12
4.13773e-12
6.10211e-12
9.13204e-12
1.39508e-11
2.19267e-11
3.57452e-11
6.0537e-11
1.05835e-10
1.85939e-10
3.09622e-10
4.10736e-28
6.82211e-28
1.18481e-27
2.05467e-27
3.54712e-27
6.09552e-27
1.04273e-26
1.77574e-26
3.01054e-26
5.08133e-26
8.53863e-26
1.42852e-25
2.37946e-25
3.94618e-25
6.51624e-25
1.0714e-24
1.75413e-24
2.85984e-24
4.64317e-24
7.50763e-24
1.209e-23
1.93916e-23
3.098e-23
4.93011e-23
7.81557e-23
1.23429e-22
1.942e-22
3.04426e-22
4.75489e-22
7.4003e-22
1.14772e-21
1.77389e-21
2.73245e-21
4.19505e-21
6.41967e-21
9.79278e-21
1.48917e-20
2.25765e-20
3.41248e-20
5.14292e-20
7.72861e-20
1.15816e-19
1.73077e-19
2.57949e-19
3.83421e-19
5.68446e-19
8.40611e-19
1.23998e-18
1.82462e-18
2.67847e-18
3.92268e-18
5.73165e-18
8.35602e-18
1.21553e-17
1.7644e-17
2.55576e-17
3.69452e-17
5.33011e-17
7.67505e-17
1.10311e-16
1.58262e-16
2.26664e-16
3.24094e-16
4.6267e-16
6.59505e-16
9.38746e-16
1.33444e-15
1.89455e-15
2.68666e-15
3.80592e-15
5.38633e-15
7.61651e-15
1.07621e-14
1.51973e-14
2.14497e-14
3.02631e-14
4.2688e-14
6.02092e-14
8.4929e-14
1.1983e-13
1.6915e-13
2.38934e-13
3.37824e-13
4.78232e-13
6.78068e-13
9.63333e-13
1.37206e-12
1.96043e-12
2.81238e-12
4.05528e-12
5.88606e-12
8.61643e-12
1.27538e-11
1.91492e-11
2.92609e-11
4.55838e-11
7.21793e-11
1.15016e-10
1.80181e-10
2.65675e-10
5.7038e-28
9.53512e-28
1.66435e-27
2.90024e-27
5.03091e-27
8.68644e-27
1.49292e-26
2.5541e-26
4.34968e-26
7.37388e-26
1.2444e-25
2.09053e-25
3.49617e-25
5.82069e-25
9.64749e-25
1.59194e-24
2.61531e-24
4.27786e-24
6.96714e-24
1.12987e-23
1.82461e-23
2.9343e-23
4.69953e-23
7.49625e-23
1.19096e-22
1.8847e-22
2.971e-22
4.66554e-22
7.29909e-22
1.13771e-21
1.7669e-21
2.73429e-21
4.21655e-21
6.48003e-21
9.92509e-21
1.51516e-20
2.30557e-20
3.49723e-20
5.28837e-20
7.9726e-20
1.19836e-19
1.79599e-19
2.684e-19
3.99987e-19
5.94454e-19
8.81096e-19
1.30252e-18
1.92055e-18
2.82467e-18
4.14416e-18
6.0653e-18
8.85601e-18
1.29008e-17
1.87503e-17
2.71917e-17
3.93483e-17
5.68197e-17
8.18803e-17
1.17759e-16
1.69031e-16
2.42173e-16
3.46336e-16
4.94438e-16
7.04691e-16
1.00274e-15
1.42468e-15
2.02125e-15
2.8637e-15
4.05211e-15
5.72689e-15
8.08502e-15
1.14028e-14
1.60675e-14
2.26226e-14
3.18302e-14
4.47599e-14
6.29139e-14
8.8403e-14
1.24198e-13
1.74482e-13
2.45163e-13
3.44593e-13
4.84616e-13
6.82077e-13
9.61025e-13
1.35596e-12
1.91663e-12
2.7153e-12
3.85771e-12
5.5001e-12
7.87576e-12
1.13369e-11
1.64207e-11
2.39505e-11
3.5177e-11
5.1932e-11
7.67543e-11
1.12487e-10
1.6056e-10
2.16086e-10
7.69831e-28
1.29459e-27
2.27112e-27
3.97711e-27
6.93272e-27
1.2028e-26
2.07704e-26
3.56991e-26
6.1071e-26
1.03987e-25
1.76234e-25
2.97285e-25
4.99156e-25
8.34228e-25
1.38781e-24
2.29817e-24
3.78842e-24
6.21688e-24
1.01565e-23
1.65195e-23
2.67516e-23
4.31347e-23
6.92552e-23
1.10727e-22
1.76301e-22
2.79564e-22
4.41531e-22
6.9458e-22
1.08841e-21
1.69901e-21
2.64221e-21
4.09385e-21
6.32005e-21
9.72214e-21
1.49035e-20
2.2768e-20
3.46663e-20
5.26091e-20
7.9582e-20
1.20005e-19
1.80401e-19
2.70372e-19
4.04012e-19
6.01954e-19
8.9432e-19
1.32498e-18
1.95764e-18
2.88462e-18
4.23936e-18
6.21427e-18
9.08618e-18
1.32524e-17
1.92822e-17
2.79887e-17
4.05322e-17
5.85636e-17
8.44285e-17
1.21453e-16
1.74343e-16
2.49751e-16
3.57057e-16
5.09473e-16
7.25579e-16
1.03147e-15
1.46373e-15
2.07361e-15
2.93286e-15
4.1417e-15
5.84014e-15
8.22356e-15
1.15644e-14
1.62424e-14
2.27865e-14
3.19333e-14
4.47085e-14
6.25396e-14
8.74144e-14
1.22101e-13
1.70455e-13
2.37853e-13
3.31793e-13
4.62749e-13
6.45363e-13
9.00148e-13
1.25589e-12
1.75306e-12
2.44878e-12
3.42379e-12
4.79264e-12
6.71823e-12
9.43249e-12
1.32653e-11
1.86827e-11
2.63332e-11
3.70888e-11
5.20556e-11
7.25086e-11
9.94229e-11
1.32281e-10
1.66158e-10
9.98879e-28
1.68848e-27
2.97546e-27
5.23363e-27
9.16332e-27
1.59674e-26
2.76909e-26
4.77925e-26
8.20918e-26
1.40331e-25
2.3874e-25
4.04216e-25
6.81122e-25
1.14226e-24
1.90654e-24
3.16721e-24
5.23685e-24
8.61872e-24
1.41193e-23
2.30251e-23
3.73791e-23
6.04114e-23
9.72068e-23
1.55735e-22
2.48438e-22
3.94652e-22
6.24316e-22
9.83597e-22
1.54341e-21
2.41225e-21
3.75554e-21
5.82452e-21
8.99944e-21
1.38538e-20
2.12495e-20
3.24779e-20
4.94667e-20
7.50851e-20
1.1359e-19
1.71277e-19
2.5743e-19
3.85697e-19
5.76087e-19
8.57845e-19
1.2736e-18
1.88533e-18
2.78288e-18
4.09615e-18
6.0125e-18
8.80147e-18
1.28498e-17
1.87113e-17
2.71767e-17
3.93729e-17
5.69018e-17
8.20359e-17
1.17992e-16
1.69314e-16
2.42408e-16
3.46287e-16
4.9361e-16
7.02122e-16
9.96656e-16
1.41191e-15
1.99627e-15
2.81714e-15
3.96828e-15
5.57988e-15
7.83255e-15
1.09765e-14
1.5358e-14
2.14559e-14
2.99312e-14
4.16966e-14
5.80101e-14
8.0605e-14
1.11868e-13
1.55083e-13
2.14765e-13
2.97125e-13
4.1069e-13
5.67176e-13
7.82667e-13
1.07923e-12
1.48715e-12
2.04793e-12
2.81842e-12
3.87637e-12
5.32786e-12
7.31693e-12
1.00377e-11
1.37487e-11
1.87873e-11
2.55798e-11
3.46357e-11
4.65082e-11
6.16908e-11
8.02684e-11
1.01143e-10
1.20221e-10
1.23776e-27
2.1012e-27
3.71648e-27
6.56103e-27
1.15295e-26
2.01631e-26
3.5091e-26
6.07741e-26
1.04741e-25
1.79632e-25
3.06566e-25
5.20637e-25
8.79877e-25
1.47975e-24
2.47654e-24
4.12479e-24
6.83705e-24
1.12788e-23
1.85183e-23
3.02625e-23
4.92257e-23
7.97053e-23
1.28474e-22
2.06157e-22
3.29357e-22
5.23895e-22
8.29775e-22
1.30871e-21
2.05551e-21
3.21528e-21
5.00923e-21
7.77331e-21
1.20158e-20
1.85029e-20
2.83857e-20
4.33871e-20
6.60772e-20
1.00277e-19
1.5165e-19
2.28558e-19
3.43317e-19
5.14002e-19
7.67063e-19
1.14109e-18
1.69221e-18
2.50185e-18
3.68777e-18
5.41979e-18
7.94221e-18
1.16054e-17
1.69108e-17
2.45737e-17
3.56123e-17
5.14725e-17
7.42018e-17
1.06694e-16
1.53026e-16
2.18937e-16
3.12475e-16
4.44913e-16
6.32003e-16
8.95707e-16
1.26659e-15
1.7871e-15
2.51609e-15
3.53498e-15
4.95622e-15
6.93486e-15
9.68428e-15
1.34977e-14
1.87773e-14
2.60738e-14
3.61406e-14
5.00061e-14
6.90721e-14
9.52464e-14
1.31121e-13
1.80214e-13
2.47286e-13
3.38776e-13
4.6337e-13
6.32757e-13
8.62636e-13
1.17403e-12
1.59497e-12
2.16277e-12
2.92675e-12
3.95176e-12
5.32239e-12
7.14764e-12
9.56579e-12
1.27484e-11
1.69012e-11
2.22598e-11
2.90731e-11
3.75548e-11
4.77966e-11
5.95506e-11
7.17339e-11
8.13505e-11
1.45808e-27
2.48331e-27
4.40473e-27
7.79767e-27
1.37404e-26
2.40946e-26
4.20443e-26
7.30035e-26
1.26131e-25
2.16838e-25
3.70923e-25
6.31346e-25
1.06927e-24
1.80199e-24
3.0218e-24
5.04244e-24
8.37311e-24
1.38362e-23
2.27537e-23
3.72396e-23
6.06595e-23
9.83455e-23
1.58706e-22
2.54943e-22
4.07688e-22
6.49042e-22
1.02874e-21
1.62351e-21
2.55121e-21
3.99218e-21
6.22121e-21
9.65541e-21
1.49254e-20
2.29811e-20
3.5248e-20
5.38576e-20
8.19856e-20
1.24347e-19
1.87918e-19
2.82985e-19
4.24668e-19
6.35117e-19
9.46677e-19
1.40643e-18
2.08272e-18
3.07439e-18
4.52407e-18
6.63686e-18
9.70694e-18
1.4155e-17
2.05808e-17
2.98375e-17
4.3135e-17
6.21846e-17
8.94006e-17
1.2818e-16
1.83292e-16
2.6141e-16
3.71858e-16
5.27624e-16
7.46759e-16
1.05429e-15
1.48484e-15
2.0862e-15
2.92416e-15
4.08912e-15
5.70501e-15
7.9413e-15
1.10293e-14
1.5284e-14
2.11332e-14
2.9157e-14
4.01398e-14
5.51399e-14
7.55816e-14
1.03376e-13
1.41084e-13
1.92119e-13
2.61029e-13
3.5384e-13
4.78517e-13
6.45535e-13
8.68603e-13
1.16556e-12
1.55945e-12
2.07986e-12
2.76433e-12
3.65999e-12
4.82522e-12
6.33076e-12
8.26023e-12
1.07089e-11
1.37797e-11
1.75756e-11
2.21862e-11
2.766e-11
3.39091e-11
4.0629e-11
4.69906e-11
5.1082e-11
1.62718e-27
2.77751e-27
4.93589e-27
8.75414e-27
1.54538e-26
2.71473e-26
4.74524e-26
8.25306e-26
1.42819e-25
2.45904e-25
4.21261e-25
7.18034e-25
1.21772e-24
2.05479e-24
3.44993e-24
5.76347e-24
9.58077e-24
1.58479e-23
2.60864e-23
4.2731e-23
6.9659e-23
1.13016e-22
1.82494e-22
2.93312e-22
4.69252e-22
7.47317e-22
1.18482e-21
1.87013e-21
2.93896e-21
4.59882e-21
7.16569e-21
1.11188e-20
1.7182e-20
2.64446e-20
4.05392e-20
6.1904e-20
9.41667e-20
1.42705e-19
2.15463e-19
3.24135e-19
4.85878e-19
7.25776e-19
1.08038e-18
1.6028e-18
2.3699e-18
3.49264e-18
5.13067e-18
7.51298e-18
1.09671e-17
1.59598e-17
2.3155e-17
3.34935e-17
4.8305e-17
6.94635e-17
9.96027e-17
1.42413e-16
2.03053e-16
2.88711e-16
4.09378e-16
5.78904e-16
8.16431e-16
1.14835e-15
1.61096e-15
2.254e-15
3.14553e-15
4.37834e-15
6.07866e-15
8.41765e-15
1.16268e-14
1.60184e-14
2.20122e-14
3.01708e-14
4.12462e-14
5.62396e-14
7.64798e-14
1.03724e-13
1.40285e-13
1.89195e-13
2.54412e-13
3.41068e-13
4.55786e-13
6.0705e-13
8.05641e-13
1.06515e-12
1.40252e-12
1.83856e-12
2.39843e-12
3.11184e-12
4.01342e-12
5.14176e-12
6.53816e-12
8.24369e-12
1.02946e-11
1.27159e-11
1.55123e-11
1.86582e-11
2.20366e-11
2.53866e-11
2.81921e-11
2.94315e-11
1.71534e-27
2.93126e-27
5.21396e-27
9.25564e-27
1.63535e-26
2.87522e-26
5.02987e-26
8.7549e-26
1.51616e-25
2.61233e-25
4.47818e-25
7.63774e-25
1.29605e-24
2.18816e-24
3.6757e-24
6.14351e-24
1.02168e-23
1.69065e-23
2.78381e-23
4.56134e-23
7.43756e-23
1.2069e-22
1.94913e-22
3.13297e-22
5.01237e-22
7.98228e-22
1.26541e-21
1.99704e-21
3.13773e-21
4.9085e-21
7.64563e-21
1.18587e-20
1.83169e-20
2.81764e-20
4.31684e-20
6.58753e-20
1.00135e-19
1.51629e-19
2.28739e-19
3.43786e-19
5.14817e-19
7.68174e-19
1.14218e-18
1.69239e-18
2.4991e-18
3.67794e-18
5.39491e-18
7.88758e-18
1.14948e-17
1.66986e-17
2.4182e-17
3.49105e-17
5.02443e-17
7.20938e-17
1.03134e-16
1.47101e-16
2.09191e-16
2.96619e-16
4.19362e-16
5.91184e-16
8.31007e-16
1.16477e-15
1.62792e-15
2.26875e-15
3.15282e-15
4.36888e-15
6.03665e-15
8.31711e-15
1.14259e-14
1.5651e-14
2.13751e-14
2.91056e-14
3.95112e-14
5.34706e-14
7.21319e-14
9.69881e-14
1.29969e-13
1.73556e-13
2.30914e-13
3.06051e-13
4.03997e-13
5.31006e-13
6.94758e-13
9.04557e-13
1.17149e-12
1.50851e-12
1.93038e-12
2.45342e-12
3.09442e-12
3.86955e-12
4.79301e-12
5.87393e-12
7.11281e-12
8.49672e-12
9.99346e-12
1.15447e-11
1.30567e-11
1.43755e-11
1.52373e-11
1.52361e-11
1.70495e-27
2.91319e-27
5.1814e-27
9.19711e-27
1.62487e-26
2.85656e-26
4.99679e-26
8.69652e-26
1.5059e-25
2.59439e-25
4.44695e-25
7.58363e-25
1.28671e-24
2.17211e-24
3.64824e-24
6.09672e-24
1.01375e-23
1.67723e-23
2.76124e-23
4.52353e-23
7.37446e-23
1.19642e-22
1.93177e-22
3.10433e-22
4.96532e-22
7.90524e-22
1.25285e-21
1.97661e-21
3.10464e-21
4.85507e-21
7.55965e-21
1.17208e-20
1.80964e-20
2.78247e-20
4.26093e-20
6.49892e-20
9.87341e-20
1.49421e-19
2.25268e-19
3.38343e-19
5.06304e-19
7.54893e-19
1.12151e-18
1.6603e-18
2.4494e-18
3.60114e-18
5.27653e-18
7.70551e-18
1.12155e-17
1.62708e-17
2.35286e-17
3.39146e-17
4.87297e-17
6.97958e-17
9.96554e-17
1.41846e-16
2.01272e-16
2.84711e-16
4.01499e-16
5.6445e-16
7.91092e-16
1.10532e-15
1.53959e-15
2.13782e-15
2.95925e-15
4.08343e-15
5.6168e-15
7.7012e-15
1.05248e-14
1.43362e-14
1.94622e-14
2.63303e-14
3.54967e-14
4.76811e-14
6.38086e-14
8.50608e-14
1.12935e-13
1.49313e-13
1.96538e-13
2.57496e-13
3.35699e-13
4.35357e-13
5.61434e-13
7.19662e-13
9.16483e-13
1.1589e-12
1.45419e-12
1.8094e-12
2.23054e-12
2.72172e-12
3.28273e-12
3.90753e-12
4.58315e-12
5.28611e-12
5.97985e-12
6.61255e-12
7.11604e-12
7.40647e-12
7.3931e-12
7.00508e-12
1.59855e-27
2.72786e-27
4.84653e-27
8.59366e-27
1.51668e-26
2.66365e-26
4.65473e-26
8.0934e-26
1.40016e-25
2.41004e-25
4.12734e-25
7.0326e-25
1.19224e-24
2.01101e-24
3.37504e-24
5.6359e-24
9.36436e-24
1.54823e-23
2.54712e-23
4.17001e-23
6.79384e-23
1.10155e-22
1.77757e-22
2.85496e-22
4.56406e-22
7.26277e-22
1.15048e-21
1.81428e-21
2.84844e-21
4.45258e-21
6.9302e-21
1.07408e-20
1.65771e-20
2.54795e-20
3.90039e-20
5.94688e-20
9.03148e-20
1.36629e-19
2.05904e-19
3.09137e-19
4.62406e-19
6.89135e-19
1.02333e-18
1.51417e-18
2.23255e-18
3.28031e-18
4.80318e-18
7.00907e-18
1.01935e-17
1.47749e-17
2.13442e-17
3.07325e-17
4.41045e-17
6.30877e-17
8.99467e-17
1.27823e-16
1.81057e-16
2.55626e-16
3.59729e-16
5.0457e-16
7.05405e-16
9.82918e-16
1.36504e-15
1.88936e-15
2.60617e-15
3.58257e-15
4.90757e-15
6.69874e-15
9.11055e-15
1.23449e-14
1.6664e-14
2.24066e-14
3.00071e-14
4.0019e-14
5.31412e-14
7.02494e-14
9.24297e-14
1.21014e-13
1.57616e-13
2.04162e-13
2.6291e-13
3.36456e-13
4.27704e-13
5.39798e-13
6.75989e-13
8.39424e-13
1.03282e-12
1.25804e-12
1.51548e-12
1.80335e-12
2.11674e-12
2.44654e-12
2.77737e-12
3.08946e-12
3.35652e-12
3.54703e-12
3.62763e-12
3.57035e-12
3.3658e-12
3.03937e-12
1.41709e-27
2.41243e-27
4.27743e-27
7.56947e-27
1.3333e-26
2.33706e-26
4.07633e-26
7.07473e-26
1.22175e-25
2.09931e-25
3.58918e-25
6.10569e-25
1.03347e-24
1.74055e-24
2.9168e-24
4.86372e-24
8.07017e-24
1.33248e-23
2.18937e-23
3.57992e-23
5.82564e-23
9.43514e-23
1.52093e-22
2.44033e-22
3.89753e-22
6.19663e-22
9.80782e-22
1.54548e-21
2.42469e-21
3.7877e-21
5.89177e-21
9.12628e-21
1.40781e-20
2.16284e-20
3.30946e-20
5.04392e-20
7.65742e-20
1.15804e-19
1.74467e-19
2.61862e-19
3.91584e-19
5.83428e-19
8.66122e-19
1.2812e-18
1.8885e-18
2.77391e-18
4.06028e-18
5.92269e-18
8.60976e-18
1.24732e-17
1.8009e-17
2.59137e-17
3.71618e-17
5.31123e-17
7.56523e-17
1.07393e-16
1.51934e-16
2.14213e-16
3.00986e-16
4.21447e-16
5.88061e-16
8.17651e-16
1.13282e-15
1.56381e-15
2.15083e-15
2.94715e-15
4.02289e-15
5.46989e-15
7.40767e-15
9.99079e-15
1.34178e-14
1.79417e-14
2.38825e-14
3.16413e-14
4.17157e-14
5.47165e-14
7.1384e-14
9.26025e-14
1.19411e-13
1.53004e-13
1.94726e-13
2.46037e-13
3.08464e-13
3.83504e-13
4.725e-13
5.76446e-13
6.95746e-13
8.29904e-13
9.77175e-13
1.13416e-12
1.29545e-12
1.45329e-12
1.59686e-12
1.71266e-12
1.7863e-12
1.80321e-12
1.75232e-12
1.63122e-12
1.45307e-12
1.25133e-12
1.19136e-27
2.02126e-27
3.57333e-27
6.3051e-27
1.10738e-26
1.93553e-26
3.36653e-26
5.82688e-26
1.00358e-25
1.71997e-25
2.93322e-25
4.97762e-25
8.4053e-25
1.41236e-24
2.36157e-24
3.92945e-24
6.5065e-24
1.07217e-23
1.75829e-23
2.86978e-23
4.66184e-23
7.53766e-23
1.21313e-22
1.94353e-22
3.09966e-22
4.92151e-22
7.7798e-22
1.22447e-21
1.91895e-21
2.99461e-21
4.65372e-21
7.20228e-21
1.11013e-20
1.70425e-20
2.60602e-20
3.96941e-20
6.02285e-20
9.1039e-20
1.37096e-19
2.05689e-19
3.07472e-19
4.57958e-19
6.79655e-19
1.00509e-18
1.48113e-18
2.175e-18
3.18284e-18
4.64159e-18
6.74559e-18
9.76967e-18
1.41009e-17
2.02825e-17
2.90739e-17
4.15323e-17
5.91239e-17
8.38743e-17
1.18569e-16
1.67023e-16
2.3444e-16
3.27881e-16
4.56889e-16
6.34295e-16
8.77264e-16
1.20864e-15
1.65866e-15
2.26712e-15
3.08605e-15
4.18308e-15
5.64546e-15
7.58495e-15
1.01435e-14
1.35e-14
1.78774e-14
2.35507e-14
3.08553e-14
4.01943e-14
5.20449e-14
6.6961e-14
8.55718e-14
1.08572e-13
1.36701e-13
1.70708e-13
2.113e-13
2.59059e-13
3.14345e-13
3.77159e-13
4.46986e-13
5.22626e-13
6.02013e-13
6.82067e-13
7.58616e-13
8.26445e-13
8.79472e-13
9.10094e-13
9.11873e-13
8.7982e-13
8.12708e-13
7.15446e-13
6.01224e-13
4.91807e-13
9.53258e-28
1.61025e-27
2.83586e-27
4.98493e-27
8.72206e-27
1.51878e-26
2.63196e-26
4.53907e-26
7.79029e-26
1.33057e-25
2.2616e-25
3.82551e-25
6.43965e-25
1.0788e-24
1.79856e-24
2.98423e-24
4.92797e-24
8.09932e-24
1.32492e-23
2.15727e-23
3.49636e-23
5.64084e-23
9.0596e-23
1.44855e-22
2.3059e-22
3.65472e-22
5.76762e-22
9.06343e-22
1.41829e-21
2.21023e-21
3.4303e-21
5.30244e-21
8.16374e-21
1.25198e-20
1.91258e-20
2.91058e-20
4.41266e-20
6.665e-20
1.003e-19
1.50389e-19
2.2468e-19
3.34474e-19
4.96163e-19
7.33432e-19
1.08039e-18
1.58597e-18
2.3201e-18
3.3824e-18
4.91416e-18
7.11511e-18
1.02664e-17
1.47625e-17
2.11542e-17
3.0208e-17
4.29858e-17
6.09527e-17
8.61211e-17
1.21243e-16
1.70063e-16
2.37654e-16
3.30855e-16
4.58831e-16
6.33807e-16
8.71988e-16
1.19473e-15
1.63e-15
2.21416e-15
2.99417e-15
4.03018e-15
5.39859e-15
7.19553e-15
9.54077e-15
1.25818e-14
1.64981e-14
2.15045e-14
2.78546e-14
3.58412e-14
4.57947e-14
5.8077e-14
7.30693e-14
9.11519e-14
1.12674e-13
1.37911e-13
1.6701e-13
1.99917e-13
2.36301e-13
2.7546e-13
3.1624e-13
3.56972e-13
3.95448e-13
4.28974e-13
4.54535e-13
4.69068e-13
4.69248e-13
4.52499e-13
4.1798e-13
3.67391e-13
3.05744e-13
2.41541e-13
1.86071e-13
7.29309e-28
1.22547e-27
2.14832e-27
3.75923e-27
6.54777e-27
1.13507e-26
1.95838e-26
3.3629e-26
5.74746e-26
9.77646e-26
1.65513e-25
2.78888e-25
4.67713e-25
7.807e-25
1.29704e-24
2.14484e-24
3.53037e-24
5.78421e-24
9.43369e-24
1.53162e-23
2.47553e-23
3.98343e-23
6.38169e-23
1.01795e-22
1.61678e-22
2.55701e-22
4.0271e-22
6.31615e-22
9.86584e-22
1.53483e-21
2.37822e-21
3.67056e-21
5.64316e-21
8.6426e-21
1.31862e-20
2.00433e-20
3.03536e-20
4.58001e-20
6.88576e-20
1.03154e-19
1.53985e-19
2.2906e-19
3.39553e-19
5.01607e-19
7.38456e-19
1.08342e-18
1.58412e-18
2.30833e-18
3.35217e-18
4.85145e-18
6.99728e-18
1.00576e-17
1.44064e-17
2.05637e-17
2.92496e-17
4.14563e-17
5.85455e-17
8.23769e-17
1.15478e-16
1.61267e-16
2.24342e-16
3.10853e-16
4.28981e-16
5.89542e-16
8.06738e-16
1.09909e-15
1.4906e-15
2.01205e-15
2.7027e-15
3.61203e-15
4.80188e-15
6.34854e-15
8.34505e-15
1.09031e-14
1.41547e-14
1.82527e-14
2.33697e-14
2.96954e-14
3.74303e-14
4.67747e-14
5.79139e-14
7.09958e-14
8.61018e-14
1.03211e-13
1.22157e-13
1.42583e-13
1.63897e-13
1.85235e-13
2.05451e-13
2.23147e-13
2.36746e-13
2.44656e-13
2.45474e-13
2.38236e-13
2.21862e-13
1.96825e-13
1.64999e-13
1.29821e-13
9.5966e-14
6.86717e-14
5.37054e-28
8.97004e-28
1.56442e-27
2.72376e-27
4.72051e-27
8.14276e-27
1.39808e-26
2.38936e-26
4.06466e-26
6.88277e-26
1.16012e-25
1.94645e-25
3.25082e-25
5.40452e-25
8.94423e-25
1.47354e-24
2.4167e-24
3.94588e-24
6.41416e-24
1.03807e-23
1.67274e-23
2.68384e-23
4.28784e-23
6.82167e-23
1.08077e-22
1.70525e-22
2.67964e-22
4.19386e-22
6.53766e-22
1.01513e-21
1.57012e-21
2.41922e-21
3.71337e-21
5.6785e-21
8.65149e-21
1.31328e-20
1.98635e-20
2.99363e-20
4.49577e-20
6.72802e-20
1.00337e-19
1.4912e-19
2.20863e-19
3.26009e-19
4.79581e-19
7.03113e-19
1.02735e-18
1.49605e-18
2.17122e-18
3.1404e-18
4.52672e-18
6.50268e-18
9.3089e-18
1.32796e-17
1.88773e-17
2.67383e-17
3.77354e-17
5.30587e-17
7.43234e-17
1.03711e-16
1.44149e-16
1.99549e-16
2.751e-16
3.77645e-16
5.16146e-16
7.02254e-16
9.51002e-16
1.28162e-15
1.71849e-15
2.29221e-15
3.04076e-15
4.01069e-15
5.25826e-15
6.85041e-15
8.86523e-15
1.13919e-14
1.45294e-14
1.83839e-14
2.30638e-14
2.86726e-14
3.52983e-14
4.29986e-14
5.17835e-14
6.15926e-14
7.22715e-14
8.35463e-14
9.50022e-14
1.06071e-13
1.16036e-13
1.24067e-13
1.29291e-13
1.30907e-13
1.28332e-13
1.21374e-13
1.09802e-13
9.41007e-14
7.5601e-14
5.63521e-14
3.88013e-14
2.53003e-14
3.84817e-28
6.38544e-28
1.10793e-27
1.9195e-27
3.31039e-27
5.68262e-27
9.71007e-27
1.65165e-26
2.79671e-26
4.71429e-26
7.91106e-26
1.32162e-25
2.19807e-25
3.63955e-25
5.99975e-25
9.84715e-25
1.60914e-24
2.61818e-24
4.24173e-24
6.84296e-24
1.09931e-23
1.75869e-23
2.80203e-23
4.4462e-23
7.02676e-23
1.10609e-22
1.73424e-22
2.70853e-22
4.21383e-22
6.53071e-22
1.00833e-21
1.55102e-21
2.37699e-21
3.62953e-21
5.5221e-21
8.37155e-21
1.26466e-20
1.90379e-20
2.85601e-20
4.2698e-20
6.36169e-20
9.44634e-20
1.39794e-19
2.06183e-19
3.03081e-19
4.44028e-19
6.48342e-19
9.43495e-19
1.36839e-18
1.97792e-18
2.84922e-18
4.09025e-18
5.85148e-18
8.34171e-18
1.18494e-17
1.67713e-17
2.36505e-17
3.32265e-17
4.65017e-17
6.48269e-17
9.00127e-17
1.24471e-16
1.71397e-16
2.3499e-16
3.20736e-16
4.35748e-16
5.8917e-16
7.92654e-16
1.06091e-15
1.41233e-15
1.86959e-15
2.46035e-15
3.21781e-15
4.18112e-15
5.39559e-15
6.91233e-15
8.78733e-15
1.10795e-14
1.38476e-14
1.71453e-14
2.1015e-14
2.54788e-14
3.0528e-14
3.61102e-14
4.21161e-14
4.8366e-14
5.45986e-14
6.04664e-14
6.55433e-14
6.93506e-14
7.14068e-14
7.1303e-14
6.87879e-14
6.38386e-14
5.66424e-14
4.73644e-14
3.68257e-14
2.61848e-14
1.67659e-14
9.71974e-15
2.75055e-28
4.5326e-28
7.83239e-28
1.35199e-27
2.32314e-27
3.9733e-27
6.76441e-27
1.1464e-26
1.93415e-26
3.24864e-26
5.43233e-26
9.0439e-26
1.49907e-25
2.47398e-25
4.06531e-25
6.65166e-25
1.08373e-24
1.75826e-24
2.84077e-24
4.57085e-24
7.32463e-24
1.16902e-23
1.85831e-23
2.94238e-23
4.64064e-23
7.29073e-23
1.14103e-22
1.77896e-22
2.76314e-22
4.27584e-22
6.59231e-22
1.01268e-21
1.55002e-21
2.36403e-21
3.59284e-21
5.44134e-21
8.21241e-21
1.23523e-20
1.85159e-20
2.76614e-20
4.11856e-20
6.11172e-20
9.03926e-20
1.33247e-19
1.95765e-19
2.86659e-19
4.18358e-19
6.08519e-19
8.82137e-19
1.27445e-18
1.83495e-18
2.63284e-18
3.76448e-18
5.36345e-18
7.61411e-18
1.07697e-17
1.51763e-17
2.13048e-17
2.9792e-17
4.14949e-17
5.75596e-17
7.95102e-17
1.09359e-16
1.49748e-16
2.04116e-16
2.76907e-16
3.73818e-16
5.02083e-16
6.70797e-16
8.91272e-16
1.17741e-15
1.54606e-15
2.01732e-15
2.61476e-15
3.36542e-15
4.29954e-15
5.44989e-15
6.85048e-15
8.5346e-15
1.05318e-14
1.28641e-14
1.55404e-14
1.85509e-14
2.1859e-14
2.53943e-14
2.90449e-14
3.26513e-14
3.60041e-14
3.88496e-14
4.09052e-14
4.18912e-14
4.15801e-14
3.98472e-14
3.66847e-14
3.22785e-14
2.67263e-14
2.04405e-14
1.40862e-14
8.45233e-15
4.23977e-15
2.1059e-28
3.44434e-28
5.94111e-28
1.02447e-27
1.75863e-27
3.00472e-27
5.10997e-27
8.65057e-27
1.45782e-26
2.44578e-26
4.08505e-26
6.793e-26
1.12467e-25
1.85397e-25
3.04307e-25
4.9736e-25
8.09459e-25
1.31191e-24
2.11748e-24
3.40375e-24
5.44926e-24
8.68916e-24
1.38005e-23
2.18328e-23
3.44061e-23
5.40119e-23
8.44678e-23
1.316e-22
2.0427e-22
3.15902e-22
4.86764e-22
7.47345e-22
1.14335e-21
1.74305e-21
2.64805e-21
4.00911e-21
6.04902e-21
9.09601e-21
1.36319e-20
2.03614e-20
3.03118e-20
4.49753e-20
6.65116e-20
9.80352e-20
1.44021e-19
2.10876e-19
3.07737e-19
4.47583e-19
6.48786e-19
9.37238e-19
1.34929e-18
1.93574e-18
2.76731e-18
3.94197e-18
5.59485e-18
7.91142e-18
1.1145e-17
1.56398e-17
2.1861e-17
3.04337e-17
4.2193e-17
5.82476e-17
8.00595e-17
1.09544e-16
1.49189e-16
2.02206e-16
2.72697e-16
3.65864e-16
4.88223e-16
6.47859e-16
8.54674e-16
1.12062e-15
1.45992e-15
1.88914e-15
2.42723e-15
3.09527e-15
3.91594e-15
4.91263e-15
6.10799e-15
7.52186e-15
9.16855e-15
1.10533e-14
1.31678e-14
1.54857e-14
1.79572e-14
2.0504e-14
2.30158e-14
2.53483e-14
2.73263e-14
2.8754e-14
2.94357e-14
2.92111e-14
2.79982e-14
2.57943e-14
2.27074e-14
1.88199e-14
1.43846e-14
9.82744e-15
5.67831e-15
2.46562e-15
5.38775e-10
5.29964e-10
4.95515e-10
4.56952e-10
4.1948e-10
3.84801e-10
3.53579e-10
3.25983e-10
3.01869e-10
2.80895e-10
2.6259e-10
2.46404e-10
2.31737e-10
2.17961e-10
2.04447e-10
1.9061e-10
1.76027e-10
1.60677e-10
1.45484e-10
1.33563e-10
4.31243e-10
4.24954e-10
3.93188e-10
3.57163e-10
3.22993e-10
2.92337e-10
2.65505e-10
2.4233e-10
2.22444e-10
2.05386e-10
1.90653e-10
1.77726e-10
1.66083e-10
1.55211e-10
1.44618e-10
1.33877e-10
1.22711e-10
1.11181e-10
1.00076e-10
9.17207e-11
3.37032e-10
3.29282e-10
3.02254e-10
2.71586e-10
2.42702e-10
2.17173e-10
1.95208e-10
1.76538e-10
1.60733e-10
1.47322e-10
1.35835e-10
1.25817e-10
1.16837e-10
1.0849e-10
1.00407e-10
9.2283e-11
8.39468e-11
7.54904e-11
6.75338e-11
6.17212e-11
2.54566e-10
2.45574e-10
2.2376e-10
1.99493e-10
1.76753e-10
1.56792e-10
1.39768e-10
1.25432e-10
1.13401e-10
1.03266e-10
9.46324e-11
8.71332e-11
8.04325e-11
7.42247e-11
6.82421e-11
6.2277e-11
5.62273e-11
5.01882e-11
4.46233e-11
4.0663e-11
1.84131e-10
1.75296e-10
1.58689e-10
1.40712e-10
1.23969e-10
1.09322e-10
9.68777e-11
8.64439e-11
7.77242e-11
7.0405e-11
6.41859e-11
5.87928e-11
5.39803e-11
4.95301e-11
4.52572e-11
4.10244e-11
3.67748e-11
3.25941e-11
2.88171e-11
2.62057e-11
1.26534e-10
1.19032e-10
1.07209e-10
9.47556e-11
8.32284e-11
7.3159e-11
6.46099e-11
5.74461e-11
5.14624e-11
4.64414e-11
4.21738e-11
3.84705e-11
3.51641e-11
3.21078e-11
2.91796e-11
2.62927e-11
2.34192e-11
2.063e-11
1.81603e-11
1.65105e-11
8.19788e-11
7.63591e-11
6.85526e-11
6.05269e-11
5.31361e-11
4.6678e-11
4.11852e-11
3.65721e-11
3.2709e-11
2.94587e-11
2.66883e-11
2.42778e-11
2.21206e-11
2.0124e-11
1.82121e-11
1.63334e-11
1.44769e-11
1.26976e-11
1.11559e-11
1.01662e-11
4.96374e-11
4.58894e-11
4.11528e-11
3.6382e-11
3.20041e-11
2.817e-11
2.48957e-11
2.2133e-11
1.98072e-11
1.78387e-11
1.61517e-11
1.46771e-11
1.33525e-11
1.21235e-11
1.09459e-11
9.79141e-12
8.6574e-12
7.58398e-12
6.67619e-12
6.11739e-12
2.77481e-11
2.55275e-11
2.29242e-11
2.03468e-11
1.79854e-11
1.59084e-11
1.41219e-11
1.26017e-11
1.13113e-11
1.02101e-11
9.25914e-12
8.42252e-12
7.66719e-12
6.96425e-12
6.29037e-12
5.63122e-12
4.98745e-12
4.38608e-12
3.89052e-12
3.59726e-12
1.39978e-11
1.28535e-11
1.15977e-11
1.03712e-11
9.24453e-12
8.2458e-12
7.37732e-12
6.62941e-12
5.9867e-12
5.43185e-12
4.94756e-12
4.51778e-12
4.12741e-12
3.76344e-12
3.4152e-12
3.07656e-12
2.74899e-12
2.44769e-12
2.20497e-12
2.06582e-12
6.27053e-12
5.76779e-12
5.25565e-12
4.7612e-12
4.30367e-12
3.89184e-12
3.52705e-12
3.20652e-12
2.92539e-12
2.67774e-12
2.45752e-12
2.25891e-12
2.07656e-12
1.90591e-12
1.74363e-12
1.58839e-12
1.44222e-12
1.31208e-12
1.2109e-12
1.15617e-12
2.66911e-12
2.46545e-12
2.27287e-12
2.08924e-12
1.91762e-12
1.7602e-12
1.61762e-12
1.48934e-12
1.37409e-12
1.27019e-12
1.17583e-12
1.08924e-12
1.00888e-12
9.33495e-13
8.62486e-13
7.96102e-13
7.3595e-13
6.85241e-13
6.48477e-13
6.30096e-13
1.07989e-12
1.0042e-12
9.38914e-13
8.77606e-13
8.19493e-13
7.64815e-13
7.13784e-13
6.66385e-13
6.22443e-13
5.81669e-13
5.43697e-13
5.08167e-13
4.74805e-13
4.43497e-13
4.14414e-13
3.88106e-13
3.65636e-13
3.48525e-13
3.38216e-13
3.34691e-13
4.15722e-13
3.90029e-13
3.70964e-13
3.53563e-13
3.36678e-13
3.20116e-13
3.03908e-13
2.88119e-13
2.72806e-13
2.58017e-13
2.43781e-13
2.3013e-13
2.17145e-13
2.04982e-13
1.93924e-13
1.84423e-13
1.77115e-13
1.72738e-13
1.71708e-13
1.73046e-13
1.52607e-13
1.44654e-13
1.40434e-13
1.36941e-13
1.33362e-13
1.29484e-13
1.2528e-13
1.2079e-13
1.16081e-13
1.11234e-13
1.06337e-13
1.01484e-13
9.67952e-14
9.24268e-14
8.85946e-14
8.55908e-14
8.37752e-14
8.35047e-14
8.48758e-14
8.70297e-14
5.36497e-14
5.13587e-14
5.10746e-14
5.11556e-14
5.11185e-14
5.08106e-14
5.01958e-14
4.92879e-14
4.8127e-14
4.67668e-14
4.52712e-14
4.37119e-14
4.21732e-14
4.07595e-14
3.96024e-14
3.88676e-14
3.87475e-14
3.9415e-14
4.08772e-14
4.2575e-14
1.82231e-14
1.75365e-14
1.79204e-14
1.85151e-14
1.90509e-14
1.94332e-14
1.96335e-14
1.96542e-14
1.9514e-14
1.92412e-14
1.88706e-14
1.84432e-14
1.80071e-14
1.76207e-14
1.73558e-14
1.72991e-14
1.75481e-14
1.81859e-14
1.92013e-14
2.02725e-14
6.09545e-15
5.80862e-15
6.10787e-15
6.53686e-15
6.94654e-15
7.28396e-15
7.53223e-15
7.69045e-15
7.76612e-15
7.77183e-15
7.72409e-15
7.64307e-15
7.55309e-15
7.48376e-15
7.47118e-15
7.55835e-15
7.79259e-15
8.21291e-15
8.80915e-15
9.40953e-15
2.08584e-15
1.89643e-15
2.04649e-15
2.27286e-15
2.49633e-15
2.6906e-15
2.84693e-15
2.96379e-15
3.04347e-15
3.09082e-15
3.11283e-15
3.11854e-15
3.11925e-15
3.12893e-15
3.16476e-15
3.24717e-15
3.39846e-15
3.6368e-15
3.95628e-15
4.27047e-15
7.54794e-16
6.23731e-16
6.84185e-16
7.8509e-16
8.88661e-16
9.82787e-16
1.06293e-15
1.12763e-15
1.17714e-15
1.21302e-15
1.23793e-15
1.25562e-15
1.27102e-15
1.29042e-15
1.32165e-15
1.37416e-15
1.45846e-15
1.58355e-15
1.74803e-15
1.91172e-15
0.001
0.001
0.001
0.001
0.001
0.001
0.001
0.001
0.001
0.001
0.001
0.001
0.001
0.001
0.001
0.001
0.001
0.001
0.001
0.001
0.001
0.001
0.001
0.001
0.001
0.001
0.001
0.001
0.001
0.001
0.001
0.001
0.001
0.001
0.001
0.001
0.001
0.001
0.001
0.001
0.001
0.001
0.001
0.001
0.001
0.001
0.001
0.001
0.001
0.001
0.001
0.001
0.001
0.001
0.001
0.001
0.001
0.001
0.001
0.001
0.001
0.001
0.001
0.001
0.001
0.001
0.001
0.001
0.001
0.001
0.001
0.001
0.001
0.001
0.001
0.001
0.001
0.001
0.001
0.001
0.001
0.001
0.001
0.001
0.001
0.001
0.001
0.001
0.001
0.001
0.001
0.001
0.001
0.001
0.001
0.001
0.001
0.001
0.001