/*--------------------------------*- C++ -*----------------------------------*\
| =========                 |                                                 |
| \\      /  F ield         | OpenFOAM: The Open Source CFD Toolbox           |
|  \\    /   O peration     | Version:  2.1.0                                 |
|   \\  /    A nd           | Web:      www.OpenFOAM.org                      |
|    \\/     M anipulation  |                                                 |
\*---------------------------------------------------------------------------*/
FoamFile
{
    version     2.0;
    format      ascii;
    class       volScalarField;
    location    "0.1";
    object      C2;
}
// * * * * * * * * * * * * * * * * * * * * * * * * * * * * * * * * * * * * * //

dimensions      [0 0 0 0 0 0 0];

internalField   nonuniform List<scalar> 
6400
(
1.06536e-26
1.73573e-26
2.98189e-26
5.12124e-26
8.75584e-26
1.48995e-25
2.52362e-25
4.25485e-25
7.14124e-25
1.19319e-24
1.98477e-24
3.28693e-24
5.41959e-24
8.89718e-24
1.45434e-23
2.36716e-23
3.83664e-23
6.19238e-23
9.95327e-23
1.59328e-22
2.54015e-22
4.03347e-22
6.37929e-22
1.00497e-21
1.57704e-21
2.46521e-21
3.8389e-21
5.95548e-21
9.20459e-21
1.41738e-20
2.17462e-20
3.32439e-20
5.06395e-20
7.68658e-20
1.16268e-19
1.75259e-19
2.63276e-19
3.94148e-19
5.88079e-19
8.74471e-19
1.29597e-18
1.91419e-18
2.81787e-18
4.13426e-18
6.04525e-18
8.80979e-18
1.27951e-17
1.85202e-17
2.67149e-17
3.84026e-17
5.50111e-17
7.85248e-17
1.11689e-16
1.58286e-16
2.235e-16
3.14409e-16
4.40621e-16
6.1512e-16
8.55354e-16
1.18465e-15
1.63399e-15
2.24433e-15
3.06942e-15
4.17934e-15
5.66485e-15
7.64256e-15
1.02611e-14
1.37084e-14
1.82195e-14
2.40856e-14
3.16635e-14
4.1384e-14
5.37609e-14
6.93962e-14
8.89819e-14
1.13295e-13
1.43182e-13
1.79532e-13
2.23233e-13
2.75099e-13
3.35781e-13
4.05636e-13
4.84571e-13
5.71846e-13
6.65867e-13
7.63965e-13
8.62199e-13
9.5524e-13
1.03639e-12
1.09782e-12
1.13119e-12
1.12867e-12
1.08471e-12
9.98464e-13
8.75792e-13
7.28664e-13
5.62822e-13
3.91046e-13
2.31643e-13
1.04374e-13
1.38567e-26
2.27448e-26
3.91427e-26
6.72906e-26
1.15154e-25
1.96142e-25
3.32551e-25
5.61266e-25
9.43013e-25
1.57732e-24
2.62658e-24
4.35449e-24
7.18748e-24
1.18119e-23
1.93278e-23
3.14903e-23
5.10886e-23
8.25353e-23
1.32783e-22
2.1274e-22
3.39454e-22
5.39452e-22
8.53857e-22
1.34615e-21
2.11394e-21
3.30676e-21
5.15274e-21
7.99862e-21
1.23695e-20
1.90575e-20
2.92531e-20
4.47396e-20
6.81775e-20
1.03523e-19
1.56637e-19
2.36172e-19
3.54859e-19
5.31355e-19
7.92918e-19
1.17922e-18
1.74778e-18
2.58175e-18
3.80084e-18
5.57677e-18
8.15497e-18
1.1885e-17
1.72625e-17
2.4988e-17
3.60475e-17
5.18231e-17
7.42446e-17
1.05995e-16
1.50787e-16
2.13739e-16
3.01873e-16
4.24778e-16
5.95486e-16
8.31619e-16
1.15688e-15
1.60299e-15
2.21214e-15
3.04014e-15
4.16033e-15
5.6685e-15
7.68886e-15
1.03813e-14
1.39499e-14
1.86531e-14
2.48151e-14
3.28383e-14
4.32165e-14
5.65483e-14
7.3549e-14
9.50597e-14
1.2205e-13
1.55615e-13
1.96951e-13
2.47325e-13
3.08011e-13
3.80194e-13
4.64843e-13
5.62529e-13
6.73204e-13
7.95918e-13
9.28511e-13
1.06729e-12
1.20671e-12
1.33919e-12
1.45511e-12
1.54317e-12
1.59126e-12
1.58815e-12
1.52608e-12
1.40418e-12
1.23086e-12
1.02458e-12
7.92884e-13
5.56587e-13
3.43034e-13
1.78678e-13
1.92799e-26
3.18641e-26
5.50561e-26
9.49861e-26
1.63128e-25
2.78848e-25
4.74463e-25
8.03622e-25
1.35496e-24
2.27423e-24
3.79998e-24
6.32087e-24
1.04671e-23
1.72561e-23
2.83225e-23
4.62816e-23
7.52985e-23
1.21978e-22
1.9675e-22
3.1601e-22
5.05428e-22
8.05023e-22
1.27693e-21
2.01723e-21
3.17386e-21
4.97375e-21
7.76356e-21
1.20708e-20
1.86952e-20
2.88441e-20
4.43342e-20
6.78878e-20
1.0357e-19
1.57431e-19
2.38435e-19
3.59827e-19
5.41101e-19
8.10843e-19
1.21083e-18
1.80188e-18
2.67225e-18
3.94953e-18
5.81747e-18
8.53981e-18
1.24937e-17
1.82163e-17
2.64702e-17
3.83333e-17
5.53236e-17
7.9571e-17
1.14051e-16
1.62903e-16
2.31862e-16
3.28842e-16
4.64708e-16
6.54318e-16
9.17883e-16
1.28278e-15
1.78587e-15
2.47657e-15
3.42073e-15
4.70558e-15
6.44603e-15
8.79241e-15
1.19401e-14
1.61413e-14
2.17189e-14
2.90827e-14
3.87485e-14
5.13591e-14
6.77063e-14
8.87543e-14
1.15661e-13
1.49795e-13
1.92747e-13
2.46322e-13
3.1252e-13
3.93478e-13
4.91382e-13
6.08322e-13
7.46086e-13
9.05873e-13
1.08792e-12
1.29106e-12
1.51216e-12
1.74554e-12
1.98246e-12
2.21064e-12
2.41425e-12
2.57433e-12
2.6703e-12
2.68269e-12
2.59746e-12
2.41153e-12
2.13778e-12
1.80187e-12
1.41935e-12
1.02856e-12
6.75981e-13
4.054e-13
2.67436e-26
4.44856e-26
7.72525e-26
1.33925e-25
2.31105e-25
3.96929e-25
6.78554e-25
1.15461e-24
1.95556e-24
3.29682e-24
5.53235e-24
9.24101e-24
1.53649e-23
2.54301e-23
4.18969e-23
6.87135e-23
1.12187e-22
1.82347e-22
2.9507e-22
4.7538e-22
7.62547e-22
1.21792e-21
1.93697e-21
3.06755e-21
4.83781e-21
7.59827e-21
1.18852e-20
1.8516e-20
2.87313e-20
4.44068e-20
6.83677e-20
1.04853e-19
1.60199e-19
2.4384e-19
3.69777e-19
5.58702e-19
8.41094e-19
1.26168e-18
1.88587e-18
2.80894e-18
4.16923e-18
6.16681e-18
9.09003e-18
1.3353e-17
1.9548e-17
2.85195e-17
4.14665e-17
6.00852e-17
8.67659e-17
1.24864e-16
1.79071e-16
2.5592e-16
3.64469e-16
5.17227e-16
7.31388e-16
1.03049e-15
1.44658e-15
2.02315e-15
2.81881e-15
3.91228e-15
5.40861e-15
7.44725e-15
1.02122e-14
1.39449e-14
1.89596e-14
2.56632e-14
3.45782e-14
4.63699e-14
6.18789e-14
8.21568e-14
1.08506e-13
1.42519e-13
1.86122e-13
2.4161e-13
3.11667e-13
3.99377e-13
5.08196e-13
6.41885e-13
8.04376e-13
9.99561e-13
1.23098e-12
1.50134e-12
1.81198e-12
2.16201e-12
2.54748e-12
2.96028e-12
3.3871e-12
3.80854e-12
4.19866e-12
4.52544e-12
4.75275e-12
4.84442e-12
4.77103e-12
4.5192e-12
4.10154e-12
3.54737e-12
2.88866e-12
2.19279e-12
1.546e-12
1.03736e-12
3.60721e-26
6.03597e-26
1.05349e-25
1.83535e-25
3.18269e-25
5.49285e-25
9.43482e-25
1.61289e-24
2.74416e-24
4.64677e-24
7.83121e-24
1.31355e-23
2.19284e-23
3.64348e-23
6.02538e-23
9.9179e-23
1.62493e-22
2.64998e-22
4.30191e-22
6.95197e-22
1.11841e-21
1.79127e-21
2.85634e-21
4.53489e-21
7.16893e-21
1.12848e-20
1.76892e-20
2.76134e-20
4.29287e-20
6.64685e-20
1.02505e-19
1.57456e-19
2.40924e-19
3.6722e-19
5.57598e-19
8.435e-19
1.27127e-18
1.90894e-18
2.8561e-18
4.25787e-18
6.32505e-18
9.36268e-18
1.38106e-17
2.03006e-17
2.9737e-17
4.34093e-17
6.31495e-17
9.155e-17
1.32266e-16
1.90431e-16
2.73226e-16
3.90655e-16
5.56601e-16
7.90247e-16
1.11798e-15
1.57596e-15
2.21347e-15
3.09743e-15
4.3182e-15
5.99724e-15
8.29695e-15
1.14333e-14
1.56918e-14
2.14477e-14
2.91913e-14
3.95587e-14
5.33696e-14
7.1672e-14
9.57951e-14
1.27411e-13
1.686e-13
2.2193e-13
2.90525e-13
3.78142e-13
4.89231e-13
6.28969e-13
8.03259e-13
1.01866e-12
1.28225e-12
1.6013e-12
1.9829e-12
2.43323e-12
2.95669e-12
3.55469e-12
4.22408e-12
4.95538e-12
5.73076e-12
6.52213e-12
7.28963e-12
7.98135e-12
8.53506e-12
8.88325e-12
8.9625e-12
8.72788e-12
8.1717e-12
7.32027e-12
6.21769e-12
4.97511e-12
3.75504e-12
2.7519e-12
4.67933e-26
7.87055e-26
1.37989e-25
2.41469e-25
4.20588e-25
7.29054e-25
1.25765e-24
2.15901e-24
3.6884e-24
6.2706e-24
1.06088e-23
1.78613e-23
2.99262e-23
4.98984e-23
8.2799e-23
1.36734e-22
2.24727e-22
3.67596e-22
5.98469e-22
9.69806e-22
1.5643e-21
2.5117e-21
4.01465e-21
6.38827e-21
1.01204e-20
1.59629e-20
2.50699e-20
3.92049e-20
6.10518e-20
9.46786e-20
1.46226e-19
2.24924e-19
3.44598e-19
5.25868e-19
7.99373e-19
1.21047e-18
1.82604e-18
2.74433e-18
4.10915e-18
6.1302e-18
9.11215e-18
1.3496e-17
1.99175e-17
2.92906e-17
4.29232e-17
6.26806e-17
9.12132e-17
1.32273e-16
1.91149e-16
2.75273e-16
3.95044e-16
5.64953e-16
8.05119e-16
1.14335e-15
1.61795e-15
2.2814e-15
3.20534e-15
4.48713e-15
6.25844e-15
8.69649e-15
1.20387e-14
1.66014e-14
2.28041e-14
3.11994e-14
4.2512e-14
5.76855e-14
7.79411e-14
1.04848e-13
1.40409e-13
1.87159e-13
2.48276e-13
3.27717e-13
4.30346e-13
5.62085e-13
7.30044e-13
9.42636e-13
1.20965e-12
1.54224e-12
1.95281e-12
2.45472e-12
3.06176e-12
3.78729e-12
4.64302e-12
5.63721e-12
6.77236e-12
8.04211e-12
9.42788e-12
1.08948e-11
1.23881e-11
1.38302e-11
1.51206e-11
1.61394e-11
1.67579e-11
1.68573e-11
1.63599e-11
1.52579e-11
1.3578e-11
1.14733e-11
9.22987e-12
7.2535e-12
5.79913e-26
9.79572e-26
1.72382e-25
3.02768e-25
5.29304e-25
9.20849e-25
1.59419e-24
2.74633e-24
4.70779e-24
8.03021e-24
1.36296e-23
2.30188e-23
3.86839e-23
6.46889e-23
1.07644e-22
1.78244e-22
2.93711e-22
4.81633e-22
7.85997e-22
1.27659e-21
2.06359e-21
3.32018e-21
5.31724e-21
8.47654e-21
1.34519e-20
2.12521e-20
3.34273e-20
5.23484e-20
8.16271e-20
1.26741e-19
1.95965e-19
3.01746e-19
4.62731e-19
7.06751e-19
1.07517e-18
1.62924e-18
2.45929e-18
3.69806e-18
5.53985e-18
8.26801e-18
1.22942e-17
1.82144e-17
2.68878e-17
3.95493e-17
5.79664e-17
8.46601e-17
1.23213e-16
1.78695e-16
2.58261e-16
3.71958e-16
5.33855e-16
7.63566e-16
1.08833e-15
1.54585e-15
2.18806e-15
3.08625e-15
4.33783e-15
6.0754e-15
8.4786e-15
1.17898e-14
1.63345e-14
2.25477e-14
3.10079e-14
4.24807e-14
5.7974e-14
7.88068e-14
1.06696e-13
1.43863e-13
1.9316e-13
2.5823e-13
3.43687e-13
4.55327e-13
6.00374e-13
7.87739e-13
1.0283e-12
1.33515e-12
1.7239e-12
2.21277e-12
2.8227e-12
3.57716e-12
4.50173e-12
5.62314e-12
6.96788e-12
8.55997e-12
1.04177e-11
1.25488e-11
1.49455e-11
1.75768e-11
2.03808e-11
2.32575e-11
2.60619e-11
2.86022e-11
3.06451e-11
3.1933e-11
3.22195e-11
3.13701e-11
2.93091e-11
2.61572e-11
2.2331e-11
1.85778e-11
6.83475e-26
1.15832e-25
2.04418e-25
3.60046e-25
6.31199e-25
1.10114e-24
1.91147e-24
3.30156e-24
5.67402e-24
9.70237e-24
1.65073e-23
2.7944e-23
4.70666e-23
7.88782e-23
1.3153e-22
2.18237e-22
3.60309e-22
5.91941e-22
9.67729e-22
1.57441e-21
2.54911e-21
4.10758e-21
6.58767e-21
1.05159e-20
1.67093e-20
2.64292e-20
4.16154e-20
6.52363e-20
1.01816e-19
1.5822e-19
2.44821e-19
3.77228e-19
5.78833e-19
8.84547e-19
1.34627e-18
2.04085e-18
3.08165e-18
4.63522e-18
6.94537e-18
1.03676e-17
1.54185e-17
2.28457e-17
3.37275e-17
4.96132e-17
7.27208e-17
1.06215e-16
1.54591e-16
2.2422e-16
3.24085e-16
4.66821e-16
6.70121e-16
9.5868e-16
1.36683e-15
1.94214e-15
2.75024e-15
3.88136e-15
5.45907e-15
7.65194e-15
1.0689e-14
1.488e-14
2.06425e-14
2.85367e-14
3.93109e-14
5.39601e-14
7.38012e-14
1.00569e-13
1.36536e-13
1.84666e-13
2.48797e-13
3.33878e-13
4.46245e-13
5.93953e-13
7.87177e-13
1.03867e-12
1.36425e-12
1.78336e-12
2.31964e-12
3.00147e-12
3.86243e-12
4.94157e-12
6.28331e-12
7.93693e-12
9.95525e-12
1.23924e-11
1.53007e-11
1.87229e-11
2.26862e-11
2.71911e-11
3.2196e-11
3.76039e-11
4.32437e-11
4.88555e-11
5.40797e-11
5.84574e-11
6.14481e-11
6.25323e-11
6.1394e-11
5.78545e-11
5.2252e-11
4.56538e-11
7.63415e-26
1.29673e-25
2.29288e-25
4.04616e-25
7.10662e-25
1.24204e-24
2.15989e-24
3.7371e-24
6.43331e-24
1.10186e-23
1.8776e-23
3.18326e-23
5.36946e-23
9.01126e-23
1.50468e-22
2.49984e-22
4.13239e-22
6.79711e-22
1.11249e-21
1.81187e-21
2.93659e-21
4.73651e-21
7.60318e-21
1.21472e-20
1.93163e-20
3.05746e-20
4.81742e-20
7.55628e-20
1.17996e-19
1.83451e-19
2.83982e-19
4.37732e-19
6.7189e-19
1.02704e-18
1.56351e-18
2.37065e-18
3.58025e-18
5.38595e-18
8.07124e-18
1.20495e-17
1.79216e-17
2.65571e-17
3.92106e-17
5.76854e-17
8.45642e-17
1.23533e-16
1.79834e-16
2.60897e-16
3.77214e-16
5.43552e-16
7.80621e-16
1.11737e-15
1.5941e-15
2.26677e-15
3.21275e-15
4.53868e-15
6.39098e-15
8.97001e-15
1.25489e-14
1.74986e-14
2.43211e-14
3.3693e-14
4.6523e-14
6.4026e-14
8.78205e-14
1.20053e-13
1.63559e-13
2.22064e-13
3.00444e-13
4.05043e-13
5.44081e-13
7.28139e-13
9.70761e-13
1.28917e-12
1.70511e-12
2.24587e-12
2.94533e-12
3.84517e-12
4.99615e-12
6.45922e-12
8.30654e-12
1.06219e-11
1.35005e-11
1.70472e-11
2.13725e-11
2.65889e-11
3.28007e-11
4.00933e-11
4.8504e-11
5.80068e-11
6.84746e-11
7.96447e-11
9.10783e-11
1.02124e-10
1.1188e-10
1.19192e-10
1.22998e-10
1.2238e-10
1.16779e-10
1.06801e-10
8.05808e-26
1.37033e-25
2.4254e-25
4.28411e-25
7.53165e-25
1.31754e-24
2.29323e-24
3.97123e-24
6.84207e-24
1.17281e-23
2.00005e-23
3.39338e-23
5.72799e-23
9.61958e-23
1.60732e-22
2.67206e-22
4.41977e-22
7.27403e-22
1.1912e-21
1.94109e-21
3.14758e-21
5.0792e-21
8.15686e-21
1.30371e-20
2.07394e-20
3.28388e-20
5.17588e-20
8.12103e-20
1.26851e-19
1.9727e-19
3.0545e-19
4.70933e-19
7.23012e-19
1.10542e-18
1.6832e-18
2.55267e-18
3.85598e-18
5.80206e-18
8.69691e-18
1.2987e-17
1.93215e-17
2.86406e-17
4.2302e-17
6.22582e-17
9.13089e-17
1.33454e-16
1.94387e-16
2.82192e-16
4.08299e-16
5.88822e-16
8.46405e-16
1.21276e-15
1.73215e-15
2.46616e-15
3.50021e-15
4.95237e-15
6.9853e-15
9.82239e-15
1.37694e-14
1.92434e-14
2.68115e-14
3.72421e-14
5.15728e-14
7.11999e-14
9.79956e-14
1.34461e-13
1.83925e-13
2.50802e-13
3.40923e-13
4.61957e-13
6.23949e-13
8.39994e-13
1.12708e-12
1.50716e-12
2.00838e-12
2.66672e-12
3.52776e-12
4.64889e-12
6.10175e-12
7.97493e-12
1.03768e-11
1.34382e-11
1.73148e-11
2.21879e-11
2.82641e-11
3.57718e-11
4.49518e-11
5.60425e-11
6.92675e-11
8.48022e-11
1.02712e-10
1.22902e-10
1.45038e-10
1.68457e-10
1.92065e-10
2.14232e-10
2.32664e-10
2.44518e-10
2.46746e-10
2.36507e-10
8.02287e-26
1.36427e-25
2.41463e-25
4.26505e-25
7.4981e-25
1.31166e-24
2.283e-24
3.95355e-24
6.81165e-24
1.16761e-23
1.99122e-23
3.37845e-23
5.70291e-23
9.57772e-23
1.60037e-22
2.66061e-22
4.40102e-22
7.24352e-22
1.18627e-21
1.93319e-21
3.135e-21
5.05933e-21
8.12575e-21
1.29888e-20
2.06651e-20
3.27258e-20
5.15886e-20
8.09571e-20
1.2648e-19
1.96735e-19
3.04694e-19
4.69889e-19
7.21617e-19
1.10364e-18
1.68107e-18
2.55042e-18
3.85421e-18
5.80208e-18
8.70134e-18
1.30008e-17
1.93537e-17
2.87072e-17
4.24307e-17
6.24963e-17
9.17357e-17
1.34201e-16
1.9567e-16
2.84362e-16
4.11919e-16
5.94795e-16
8.5616e-16
1.22855e-15
1.7575e-15
2.50655e-15
3.56413e-15
5.05286e-15
7.14233e-15
1.00664e-14
1.41464e-14
1.98231e-14
2.76982e-14
3.85921e-14
5.36187e-14
7.42866e-14
1.02632e-13
1.41397e-13
1.94259e-13
2.66136e-13
3.63588e-13
4.95327e-13
6.72893e-13
9.1151e-13
1.23119e-12
1.65815e-12
2.22656e-12
2.98078e-12
3.97814e-12
5.29227e-12
7.01724e-12
9.27238e-12
1.22079e-11
1.60111e-11
2.09133e-11
2.71964e-11
3.51982e-11
4.53167e-11
5.80081e-11
7.37798e-11
9.31723e-11
1.16723e-10
1.44939e-10
1.78218e-10
2.16681e-10
2.60054e-10
3.07475e-10
3.57217e-10
4.06302e-10
4.49855e-10
4.79873e-10
4.83486e-10
7.53809e-26
1.28026e-25
2.26365e-25
3.99447e-25
7.0157e-25
1.22614e-24
2.13224e-24
3.68929e-24
6.35115e-24
1.08782e-23
1.85376e-23
3.14301e-23
5.30191e-23
8.89859e-23
1.486e-22
2.46906e-22
4.08201e-22
6.71518e-22
1.09926e-21
1.79066e-21
2.90283e-21
4.68322e-21
7.51974e-21
1.20177e-20
1.91171e-20
3.02714e-20
4.77176e-20
7.48838e-20
1.17001e-19
1.82015e-19
2.81952e-19
4.34931e-19
6.68148e-19
1.02226e-18
1.55782e-18
2.36467e-18
3.57559e-18
5.38619e-18
8.08351e-18
1.20873e-17
1.80095e-17
2.67388e-17
3.95619e-17
5.83353e-17
8.57298e-17
1.25575e-16
1.83343e-16
2.66835e-16
3.87131e-16
5.59927e-16
8.07388e-16
1.16073e-15
1.66377e-15
2.37788e-15
3.38872e-15
4.81557e-15
6.82405e-15
9.64345e-15
1.35905e-14
1.91012e-14
2.67746e-14
3.74313e-14
5.21926e-14
7.25864e-14
1.0069e-13
1.39318e-13
1.92278e-13
2.64705e-13
3.63506e-13
4.97948e-13
6.80429e-13
9.27495e-13
1.26116e-12
1.71064e-12
2.31456e-12
3.12388e-12
4.20553e-12
5.64715e-12
7.56299e-12
1.01013e-11
1.34534e-11
1.7865e-11
2.36489e-11
3.12003e-11
4.10134e-11
5.36985e-11
6.99974e-11
9.07944e-11
1.17117e-10
1.50122e-10
1.91052e-10
2.41175e-10
3.01693e-10
3.73389e-10
4.56374e-10
5.49536e-10
6.496e-10
7.49312e-10
8.33669e-10
8.7364e-10
6.69915e-26
1.13514e-25
2.00316e-25
3.52806e-25
6.18489e-25
1.07896e-24
1.87295e-24
3.23508e-24
5.55996e-24
9.50779e-24
1.61774e-23
2.73877e-23
4.61344e-23
7.73254e-23
1.2896e-22
2.14007e-22
3.53394e-22
5.80711e-22
9.49615e-22
1.5454e-21
2.50298e-21
4.03481e-21
6.47379e-21
1.03392e-20
1.64376e-20
2.60157e-20
4.09928e-20
6.43103e-20
1.00458e-19
1.5626e-19
2.42048e-19
3.73398e-19
5.73708e-19
8.7799e-19
1.33843e-18
2.03255e-18
3.07508e-18
4.6352e-18
6.9616e-18
1.04185e-17
1.55377e-17
2.3093e-17
3.42069e-17
5.05025e-17
7.43194e-17
1.0902e-16
1.59423e-16
2.32413e-16
3.37795e-16
4.89501e-16
7.07266e-16
1.01897e-15
1.46388e-15
2.09719e-15
2.99623e-15
4.26912e-15
6.06658e-15
8.59823e-15
1.21549e-14
1.71391e-14
2.41066e-14
3.3823e-14
4.73402e-14
6.61012e-14
9.20797e-14
1.2797e-13
1.77445e-13
2.45493e-13
3.38884e-13
4.66785e-13
6.41578e-13
8.79957e-13
1.20439e-12
1.64505e-12
2.24235e-12
3.05038e-12
4.14127e-12
5.61107e-12
7.5873e-12
1.02388e-11
1.37886e-11
1.85298e-11
2.48465e-11
3.32391e-11
4.43558e-11
5.90294e-11
7.832e-11
1.0356e-10
1.364e-10
1.78837e-10
2.33231e-10
3.02263e-10
3.88869e-10
4.95984e-10
6.25972e-10
7.798e-10
9.55322e-10
1.14382e-09
1.32256e-09
1.44029e-09
5.64836e-26
9.53913e-26
1.67854e-25
2.948e-25
5.15356e-25
8.96568e-25
1.55216e-24
2.67399e-24
4.58397e-24
7.81954e-24
1.32732e-23
2.24194e-23
3.76819e-23
6.3024e-23
1.04894e-22
1.73731e-22
2.86351e-22
4.6971e-22
7.66811e-22
1.24593e-21
2.01496e-21
3.24362e-21
5.19766e-21
8.29136e-21
1.31677e-20
2.08204e-20
3.27784e-20
5.13853e-20
8.02174e-20
1.24711e-19
1.931e-19
2.97801e-19
4.57476e-19
7.00066e-19
1.06726e-18
1.62102e-18
2.45316e-18
3.69924e-18
5.55878e-18
8.32441e-18
1.24241e-17
1.84816e-17
2.74035e-17
4.05035e-17
5.96791e-17
8.7664e-17
1.28385e-16
1.87467e-16
2.72946e-16
3.96271e-16
5.73711e-16
8.28324e-16
1.19271e-15
1.71284e-15
2.45338e-15
3.50511e-15
4.99512e-15
7.10094e-15
1.007e-14
1.42466e-14
2.01083e-14
2.83167e-14
3.97862e-14
5.57783e-14
7.80297e-14
1.08927e-13
1.51746e-13
2.10971e-13
2.92735e-13
4.0541e-13
5.60407e-13
7.73262e-13
1.06509e-12
1.46455e-12
2.01053e-12
2.75566e-12
3.77115e-12
5.15323e-12
7.03177e-12
9.58184e-12
1.30391e-11
1.77205e-11
2.4051e-11
3.25999e-11
4.41273e-11
5.96441e-11
8.04889e-11
1.08422e-10
1.45737e-10
1.95387e-10
2.61111e-10
3.47527e-10
4.60146e-10
6.05337e-10
7.8973e-10
1.01899e-09
1.29518e-09
1.61113e-09
1.93799e-09
2.19844e-09
4.53433e-26
7.62497e-26
1.33672e-25
2.33902e-25
4.07393e-25
7.0617e-25
1.21818e-24
2.09133e-24
3.57299e-24
6.07494e-24
1.0279e-23
1.73087e-23
2.90057e-23
4.83742e-23
8.02909e-23
1.32633e-22
2.18062e-22
3.56838e-22
5.81219e-22
9.4234e-22
1.52088e-21
2.44358e-21
3.90865e-21
6.22472e-21
9.87039e-21
1.55846e-20
2.45039e-20
3.83687e-20
5.98346e-20
9.29371e-20
1.43786e-19
2.21599e-19
3.40226e-19
5.20416e-19
7.93132e-19
1.20443e-18
1.82261e-18
2.74858e-18
4.13101e-18
6.18822e-18
9.2399e-18
1.37527e-17
2.0406e-17
3.01856e-17
4.45187e-17
6.54654e-17
9.59913e-17
1.40355e-16
2.04655e-16
2.97604e-16
4.31618e-16
6.2435e-16
9.00835e-16
1.2965e-15
1.86137e-15
2.66592e-15
3.80919e-15
5.43016e-15
7.72336e-15
1.09606e-14
1.55209e-14
2.1932e-14
3.09269e-14
4.35225e-14
6.11273e-14
8.56886e-14
1.19895e-13
1.67455e-13
2.33473e-13
3.24971e-13
4.51601e-13
6.26607e-13
8.68158e-13
1.20116e-12
1.65972e-12
2.29056e-12
3.15763e-12
4.34846e-12
5.98285e-12
8.22479e-12
1.12988e-11
1.55125e-11
2.12871e-11
2.92002e-11
4.00434e-11
5.49017e-11
7.52618e-11
1.03157e-10
1.41364e-10
1.9365e-10
2.65096e-10
3.62451e-10
4.94501e-10
6.7231e-10
9.0933e-10
1.22003e-09
1.61644e-09
2.09971e-09
2.64056e-09
3.13557e-09
3.48183e-26
5.82483e-26
1.01655e-25
1.7709e-25
3.07082e-25
5.29972e-25
9.10327e-25
1.55629e-24
2.64808e-24
4.4846e-24
7.55908e-24
1.26815e-23
2.11755e-23
3.51939e-23
5.82209e-23
9.58695e-23
1.5714e-22
2.56396e-22
4.16461e-22
6.73436e-22
1.08418e-21
1.73783e-21
2.77358e-21
4.40789e-21
6.9759e-21
1.09945e-20
1.72579e-20
2.69811e-20
4.20166e-20
6.51777e-20
1.00722e-19
1.55069e-19
2.37865e-19
3.63557e-19
5.53706e-19
8.40394e-19
1.2712e-18
1.91646e-18
2.87987e-18
4.31383e-18
6.44165e-18
9.58971e-18
1.42336e-17
2.10645e-17
3.10845e-17
4.57422e-17
6.71268e-17
9.82439e-17
1.43407e-16
2.08792e-16
3.03222e-16
4.39269e-16
6.34818e-16
9.15245e-16
1.31649e-15
1.88934e-15
2.70542e-15
3.86559e-15
5.51155e-15
7.84205e-15
1.11354e-14
1.57807e-14
2.23208e-14
3.15127e-14
4.44095e-14
6.2475e-14
8.77412e-14
1.23026e-13
1.72233e-13
2.40767e-13
3.36101e-13
4.68569e-13
6.52453e-13
9.07479e-13
1.2609e-12
1.75038e-12
2.42796e-12
3.36564e-12
4.66308e-12
6.45839e-12
8.9433e-12
1.23844e-11
1.71532e-11
2.37686e-11
3.29577e-11
4.57422e-11
6.35633e-11
8.84605e-11
1.23331e-10
1.72305e-10
2.41279e-10
3.3866e-10
4.76345e-10
6.70847e-10
9.44478e-10
1.32575e-09
1.84607e-09
2.5284e-09
3.35697e-09
4.20753e-09
2.57447e-26
4.28145e-26
7.43441e-26
1.28876e-25
2.22387e-25
3.81956e-25
6.52981e-25
1.11117e-24
1.88219e-24
3.17359e-24
5.32658e-24
8.89943e-24
1.48012e-23
2.45055e-23
4.03896e-23
6.62719e-23
1.08257e-22
1.76064e-22
2.85093e-22
4.59651e-22
7.37935e-22
1.17972e-21
1.87817e-21
2.97789e-21
4.70251e-21
7.39639e-21
1.15879e-20
1.80848e-20
2.81169e-20
4.35509e-20
6.72091e-20
1.03345e-19
1.58348e-19
2.41781e-19
3.67918e-19
5.57994e-19
8.435e-19
1.27101e-18
1.9092e-18
2.85903e-18
4.26856e-18
6.35428e-18
9.43194e-18
1.39609e-17
2.06075e-17
3.03366e-17
4.45411e-17
6.52277e-17
9.52806e-17
1.38836e-16
2.01812e-16
2.92659e-16
4.23419e-16
6.11215e-16
8.80347e-16
1.26524e-15
1.81455e-15
2.59698e-15
3.70929e-15
5.28762e-15
7.52315e-15
1.0684e-14
1.51455e-14
2.14327e-14
3.02789e-14
4.27072e-14
6.01437e-14
8.45741e-14
1.18762e-13
1.6655e-13
2.33281e-13
3.2638e-13
4.56159e-13
6.36954e-13
8.88685e-13
1.23906e-12
1.72665e-12
2.4052e-12
3.34974e-12
4.66516e-12
6.49854e-12
9.05659e-12
1.2631e-11
1.76349e-11
2.46565e-11
3.45382e-11
4.84945e-11
6.82904e-11
9.65158e-11
1.37014e-10
1.95558e-10
2.80932e-10
4.06625e-10
5.93366e-10
8.72361e-10
1.28979e-09
1.90817e-09
2.79584e-09
3.98257e-09
5.3412e-09
1.85303e-26
3.06192e-26
5.2901e-26
9.12643e-26
1.56734e-25
2.67924e-25
4.559e-25
7.72249e-25
1.30223e-24
2.18611e-24
3.65357e-24
6.07901e-24
1.00699e-23
1.66078e-23
2.72708e-23
4.45862e-23
7.25833e-23
1.17659e-22
1.89927e-22
3.0531e-22
4.88779e-22
7.79335e-22
1.23765e-21
1.95776e-21
3.08484e-21
4.84215e-21
7.57183e-21
1.17963e-20
1.83103e-20
2.8319e-20
4.36435e-20
6.70263e-20
1.02585e-19
1.56483e-19
2.37913e-19
3.60553e-19
5.44691e-19
8.20328e-19
1.23171e-18
1.84394e-18
2.75247e-18
4.09699e-18
6.08135e-18
9.00228e-18
1.32907e-17
1.95709e-17
2.87451e-17
4.21143e-17
6.15506e-17
8.97415e-17
1.30537e-16
1.89443e-16
2.74313e-16
3.96332e-16
5.71395e-16
8.22053e-16
1.18024e-15
1.6911e-15
2.41834e-15
3.45175e-15
4.91764e-15
6.99348e-15
9.92829e-15
1.4071e-14
1.991e-14
2.81283e-14
3.96799e-14
5.58965e-14
7.8636e-14
1.10489e-13
1.55065e-13
2.17396e-13
3.04492e-13
4.26125e-13
5.9592e-13
8.32896e-13
1.16362e-12
1.62529e-12
2.27001e-12
3.17105e-12
4.43164e-12
6.19782e-12
8.67705e-12
1.21656e-11
1.70894e-11
2.40653e-11
3.39945e-11
4.82093e-11
6.87072e-11
9.85368e-11
1.42456e-10
2.08092e-10
3.08027e-10
4.63478e-10
7.1082e-10
1.11049e-09
1.76256e-09
2.8103e-09
4.39256e-09
6.44222e-09
1.33082e-26
2.1841e-26
3.75852e-26
6.46119e-26
1.10571e-25
1.88345e-25
3.19357e-25
5.3906e-25
9.0585e-25
1.51548e-24
2.52423e-24
4.18613e-24
6.91212e-24
1.13643e-23
1.86046e-23
3.03295e-23
4.92374e-23
7.96033e-23
1.28173e-22
2.05546e-22
3.28319e-22
5.22371e-22
8.27905e-22
1.30715e-21
2.05604e-21
3.222e-21
5.03071e-21
7.82646e-21
1.21327e-20
1.87428e-20
2.88548e-20
4.42727e-20
6.77045e-20
1.03202e-19
1.56812e-19
2.37529e-19
3.58696e-19
5.40054e-19
8.10731e-19
1.21358e-18
1.81151e-18
2.6966e-18
4.00332e-18
5.92755e-18
8.75396e-18
1.28953e-17
1.89485e-17
2.77753e-17
4.06166e-17
5.92555e-17
8.62494e-17
1.25258e-16
1.81507e-16
2.62448e-16
3.7868e-16
5.45255e-16
7.8351e-16
1.12364e-15
1.60831e-15
2.29769e-15
3.27654e-15
4.66405e-15
6.62761e-15
9.40206e-15
1.33164e-14
1.8831e-14
2.65897e-14
3.74921e-14
5.27939e-14
7.42476e-14
1.04297e-13
1.46351e-13
2.05162e-13
2.87357e-13
4.02187e-13
5.62568e-13
7.86557e-13
1.09944e-12
1.53669e-12
2.14821e-12
3.00438e-12
4.20488e-12
5.89158e-12
8.26745e-12
1.1625e-11
1.63894e-11
2.31851e-11
3.29411e-11
4.70645e-11
6.77344e-11
9.84278e-11
1.44909e-10
2.17169e-10
3.33232e-10
5.2702e-10
8.62881e-10
1.46541e-09
2.56234e-09
4.48369e-09
7.40037e-09
1.02298e-26
1.66651e-26
2.86287e-26
4.91686e-26
8.40674e-26
1.43065e-25
2.42344e-25
4.08655e-25
6.86006e-25
1.14648e-24
1.90762e-24
3.16025e-24
5.21279e-24
8.56167e-24
1.40025e-23
2.2805e-23
3.69876e-23
5.97453e-23
9.61162e-23
1.54013e-22
2.45815e-22
3.90816e-22
6.18974e-22
9.76634e-22
1.53523e-21
2.40447e-21
3.75228e-21
5.83478e-21
9.04135e-21
1.3962e-20
2.14881e-20
3.29616e-20
5.03974e-20
7.68115e-20
1.16705e-19
1.76778e-19
2.66974e-19
4.02008e-19
6.03607e-19
9.03755e-19
1.34943e-18
2.00943e-18
2.98432e-18
4.42066e-18
6.53162e-18
9.62647e-18
1.41529e-17
2.07576e-17
3.03725e-17
4.43379e-17
6.45771e-17
9.38449e-17
1.36078e-16
1.96893e-16
2.84284e-16
4.09613e-16
5.88996e-16
8.45254e-16
1.21065e-15
1.7307e-15
2.46957e-15
3.51753e-15
5.00139e-15
7.09911e-15
1.00601e-14
1.42334e-14
2.01074e-14
2.8364e-14
3.99558e-14
5.62112e-14
7.8983e-14
1.10854e-13
1.55423e-13
2.17709e-13
3.04709e-13
4.26188e-13
5.95786e-13
8.32589e-13
1.16335e-12
1.62564e-12
2.27244e-12
3.1787e-12
4.45096e-12
6.24154e-12
8.76981e-12
1.23546e-11
1.74641e-11
2.4797e-11
3.54162e-11
5.09842e-11
7.4198e-11
1.0963e-10
1.6538e-10
2.56374e-10
4.1148e-10
6.88858e-10
1.21227e-09
2.249e-09
4.31861e-09
8.05878e-09
3.35308e-14
2.85193e-14
3.16114e-14
3.64003e-14
4.12402e-14
4.55781e-14
4.91903e-14
5.19916e-14
5.39794e-14
5.52126e-14
5.58032e-14
5.59133e-14
5.57552e-14
5.55945e-14
5.57543e-14
5.66144e-14
5.859e-14
6.20448e-14
6.69944e-14
7.21692e-14
9.15373e-14
8.47664e-14
9.21146e-14
1.02583e-13
1.1277e-13
1.2149e-13
1.28317e-13
1.33142e-13
1.36035e-13
1.3719e-13
1.369e-13
1.35551e-13
1.33621e-13
1.31693e-13
1.30464e-13
1.30745e-13
1.33412e-13
1.39205e-13
1.48092e-13
1.57459e-13
2.62599e-13
2.53186e-13
2.67533e-13
2.86993e-13
3.05288e-13
3.20075e-13
3.30526e-13
3.36515e-13
3.38297e-13
3.36371e-13
3.31423e-13
3.243e-13
3.16016e-13
3.07789e-13
3.01069e-13
2.97546e-13
2.99063e-13
3.07217e-13
3.22088e-13
3.38763e-13
7.66321e-13
7.43519e-13
7.62767e-13
7.89887e-13
8.13802e-13
8.30379e-13
8.38204e-13
8.37186e-13
8.27971e-13
8.1165e-13
7.89643e-13
7.63646e-13
7.35641e-13
7.08002e-13
6.83593e-13
6.65806e-13
6.58435e-13
6.649e-13
6.85841e-13
7.12665e-13
2.19343e-12
2.11333e-12
2.10919e-12
2.11784e-12
2.11998e-12
2.109e-12
2.08294e-12
2.04197e-12
1.98743e-12
1.92135e-12
1.84628e-12
1.76516e-12
1.68143e-12
1.59931e-12
1.52408e-12
1.46223e-12
1.42132e-12
1.40854e-12
1.42649e-12
1.46164e-12
6.04702e-12
5.76412e-12
5.61657e-12
5.49304e-12
5.36197e-12
5.214e-12
5.04704e-12
4.86193e-12
4.66089e-12
4.44677e-12
4.22309e-12
3.9938e-12
3.76378e-12
3.5395e-12
3.32979e-12
3.14634e-12
3.00356e-12
2.91657e-12
2.89392e-12
2.91845e-12
1.59223e-11
1.50177e-11
1.43414e-11
1.37173e-11
1.31022e-11
1.24867e-11
1.18698e-11
1.12529e-11
1.06378e-11
1.00258e-11
9.41852e-12
8.81794e-12
8.22793e-12
7.65576e-12
7.11379e-12
6.62112e-12
6.20448e-12
5.89562e-12
5.72031e-12
5.66981e-12
3.98809e-11
3.72832e-11
3.5018e-11
3.28715e-11
3.08142e-11
2.88513e-11
2.69864e-11
2.52177e-11
2.35391e-11
2.19413e-11
2.04117e-11
1.89386e-11
1.75148e-11
1.61405e-11
1.48266e-11
1.36002e-11
1.25093e-11
1.16213e-11
1.10097e-11
1.07177e-11
9.48414e-11
8.80854e-11
8.16205e-11
7.54066e-11
6.95456e-11
6.41054e-11
5.91056e-11
5.45265e-11
5.03251e-11
4.64482e-11
4.2837e-11
3.94336e-11
3.61897e-11
3.30711e-11
3.00688e-11
2.72106e-11
2.45784e-11
2.23177e-11
2.06309e-11
1.97252e-11
2.13984e-10
1.97943e-10
1.81392e-10
1.65301e-10
1.50288e-10
1.36616e-10
1.24345e-10
1.13389e-10
1.03594e-10
9.47789e-11
8.67533e-11
7.93297e-11
7.23423e-11
6.56528e-11
5.9178e-11
5.29168e-11
4.69987e-11
4.17415e-11
3.76671e-11
3.53867e-11
4.48325e-10
4.14202e-10
3.76278e-10
3.38937e-10
3.04323e-10
2.73281e-10
2.45933e-10
2.2202e-10
2.011e-10
1.82679e-10
1.66248e-10
1.51324e-10
1.3746e-10
1.2428e-10
1.11499e-10
9.90034e-11
8.69436e-11
7.59234e-11
6.71036e-11
6.19651e-11
8.30187e-10
7.68807e-10
6.95829e-10
6.22855e-10
5.55283e-10
4.95156e-10
4.42741e-10
3.97465e-10
3.58374e-10
3.24402e-10
2.94481e-10
2.67609e-10
2.42866e-10
2.19464e-10
1.96784e-10
1.74507e-10
1.52788e-10
1.3256e-10
1.15891e-10
1.05913e-10
1.40916e-09
1.31169e-09
1.18632e-09
1.05863e-09
9.40123e-10
8.35049e-10
7.44046e-10
6.66083e-10
5.99388e-10
5.41952e-10
4.9181e-10
4.47137e-10
4.06274e-10
3.67779e-10
3.30502e-10
2.93772e-10
2.5768e-10
2.23549e-10
1.94625e-10
1.76634e-10
2.22779e-09
2.08951e-09
1.89278e-09
1.68792e-09
1.49696e-09
1.3279e-09
1.18206e-09
1.05772e-09
9.51934e-10
8.61384e-10
7.82815e-10
7.13221e-10
6.49858e-10
5.90328e-10
5.32691e-10
4.75699e-10
4.19256e-10
3.65139e-10
3.18147e-10
2.87703e-10
3.3131e-09
3.13825e-09
2.85292e-09
2.54789e-09
2.26183e-09
2.00851e-09
1.79032e-09
1.60472e-09
1.44722e-09
1.31283e-09
1.19663e-09
1.09403e-09
1.00087e-09
9.13469e-10
8.28763e-10
7.44635e-10
6.60599e-10
5.78924e-10
5.06474e-10
4.57739e-10
4.67057e-09
4.47642e-09
4.09082e-09
3.66622e-09
3.26518e-09
2.90937e-09
2.60264e-09
2.34153e-09
2.11987e-09
1.93075e-09
1.76733e-09
1.62319e-09
1.49243e-09
1.3697e-09
1.25046e-09
1.13139e-09
1.0113e-09
8.92934e-10
7.85844e-10
7.11485e-10
6.28504e-09
6.10184e-09
5.61259e-09
5.05759e-09
4.52977e-09
4.0597e-09
3.65286e-09
3.30505e-09
3.00857e-09
2.75476e-09
2.53495e-09
2.34081e-09
2.1645e-09
1.99872e-09
1.83703e-09
1.67444e-09
1.50872e-09
1.3429e-09
1.18994e-09
1.08086e-09
8.13238e-09
7.99272e-09
7.40509e-09
6.72362e-09
6.07186e-09
5.48731e-09
4.97685e-09
4.53638e-09
4.15771e-09
3.83124e-09
3.54699e-09
3.29497e-09
3.0654e-09
2.84885e-09
2.6366e-09
2.42144e-09
2.19951e-09
1.97385e-09
1.76134e-09
1.60598e-09
1.02038e-08
1.01109e-08
9.43926e-09
8.65981e-09
7.90872e-09
7.22474e-09
6.6171e-09
6.08433e-09
5.62011e-09
5.21558e-09
4.86045e-09
4.54367e-09
4.25373e-09
3.97898e-09
3.70806e-09
3.431e-09
3.14154e-09
2.84199e-09
2.55336e-09
2.3362e-09
1.25384e-08
1.23999e-08
1.16903e-08
1.08773e-08
1.00741e-08
9.31912e-09
8.62912e-09
8.00998e-09
7.46063e-09
6.97519e-09
6.54454e-09
6.15735e-09
5.80075e-09
5.46085e-09
5.12341e-09
4.77507e-09
4.40624e-09
4.01735e-09
3.63251e-09
3.33087e-09
6.78976e-95
6.72259e-95
6.61411e-95
6.48842e-95
6.36329e-95
6.25187e-95
6.16311e-95
6.10248e-95
6.07298e-95
6.07591e-95
6.11148e-95
6.17913e-95
6.27748e-95
6.404e-95
6.55434e-95
6.72149e-95
6.89477e-95
7.05901e-95
7.19418e-95
7.27571e-95
6.40487e-94
6.33169e-94
6.22123e-94
6.09636e-94
5.97393e-94
5.86615e-94
5.78112e-94
5.72366e-94
5.69627e-94
5.69998e-94
5.73486e-94
5.80037e-94
5.89533e-94
6.01753e-94
6.16319e-94
6.32602e-94
6.49622e-94
6.65963e-94
6.79722e-94
6.88543e-94
5.18359e-93
5.11448e-93
5.01677e-93
4.90962e-93
4.80647e-93
4.71682e-93
4.64685e-93
4.60013e-93
4.57843e-93
4.58235e-93