/*--------------------------------*- C++ -*----------------------------------*\
| =========                 |                                                 |
| \\      /  F ield         | OpenFOAM: The Open Source CFD Toolbox           |
|  \\    /   O peration     | Version:  2.1.0                                 |
|   \\  /    A nd           | Web:      www.OpenFOAM.org                      |
|    \\/     M anipulation  |                                                 |
\*---------------------------------------------------------------------------*/
FoamFile
{
    version     2.0;
    format      ascii;
    class       volScalarField;
    location    "0.1";
    object      k;
}
// * * * * * * * * * * * * * * * * * * * * * * * * * * * * * * * * * * * * * //

dimensions      [0 2 -2 0 0 0 0];

internalField   nonuniform List<scalar> 
6400
(
0.0253257
0.0250587
0.0249369
0.0246866
0.0245189
0.0242618
0.0240574
0.0237929
0.0235615
0.0232909
0.0230404
0.0227691
0.022509
0.0222416
0.0219831
0.0217279
0.0214847
0.0212532
0.0210381
0.0208398
0.0206604
0.0204998
0.0203581
0.0202347
0.020129
0.0200411
0.019971
0.0199168
0.0198943
0.019896
0.0199206
0.0199722
0.0200514
0.020158
0.0202903
0.0204459
0.0206208
0.0208099
0.0210084
0.021213
0.0214213
0.0216304
0.0218372
0.0220387
0.0222324
0.0224161
0.0225881
0.0227466
0.0228906
0.0230189
0.0231311
0.023226
0.0233035
0.0233657
0.0233987
0.0234058
0.0234009
0.0233793
0.0233382
0.0232754
0.0231898
0.0230815
0.0229528
0.0228043
0.0226366
0.0224474
0.0222304
0.0219876
0.0217298
0.0214574
0.0211538
0.0208129
0.0204509
0.0200717
0.0196681
0.0192406
0.0187944
0.018333
0.0178597
0.0173778
0.0168873
0.0163777
0.015828
0.0152586
0.0146727
0.0140555
0.0133963
0.0126779
0.0118657
0.0109261
0.00980081
0.00841295
0.00670243
0.0046435
0.00245596
0.00164548
0.00209138
0.00428079
0.00630735
0.00695088
0.0114718
0.0113683
0.011354
0.0113549
0.0113814
0.0114686
0.0116057
0.0118131
0.0120679
0.0124021
0.0127935
0.0132664
0.0137962
0.0144044
0.0150809
0.0158428
0.0166793
0.0175873
0.0185499
0.0195567
0.0205933
0.0216486
0.0227131
0.0237855
0.0248694
0.0259708
0.027096
0.0282494
0.0294328
0.0306459
0.0318866
0.0331509
0.0344325
0.0357235
0.0370148
0.038298
0.0395635
0.0408006
0.0420054
0.0431772
0.0443155
0.0454173
0.0464801
0.0475019
0.0484824
0.0494218
0.0503201
0.0511772
0.0519939
0.0527707
0.0535078
0.0542041
0.0548589
0.0554713
0.0560423
0.0565738
0.0570672
0.0575234
0.0579451
0.0583235
0.0586562
0.0589518
0.0592171
0.0594471
0.0596479
0.0598128
0.0599041
0.0599468
0.0599618
0.059945
0.0598197
0.0596159
0.0593766
0.0590584
0.0586347
0.0581204
0.0575185
0.0568182
0.0560178
0.0551215
0.0541316
0.0530306
0.0518203
0.0504404
0.0488987
0.0471639
0.0451926
0.0429439
0.0403506
0.0373817
0.0340001
0.0302588
0.026265
0.0221578
0.0179522
0.0139539
0.0109374
0.00876302
0.00732699
0.00608224
0.00426219
0.00459082
0.00474507
0.00510838
0.00539868
0.00587508
0.00631361
0.00692819
0.00752258
0.00826187
0.0089894
0.00984416
0.0107281
0.0117342
0.0127946
0.013957
0.0151714
0.0164546
0.0177778
0.0191478
0.0205501
0.021987
0.0234479
0.0249268
0.026421
0.0279311
0.0294581
0.0310028
0.0325648
0.0341419
0.0357297
0.0373229
0.0389139
0.0404939
0.0420541
0.0435863
0.0450862
0.0465515
0.0479772
0.0493592
0.0506962
0.0519854
0.0532239
0.0544095
0.0555419
0.0566205
0.0576441
0.0586115
0.0595228
0.0603788
0.0611806
0.0619274
0.062616
0.063243
0.0638138
0.0643364
0.0648097
0.0652363
0.0656107
0.0659198
0.066152
0.0663406
0.0664665
0.0665186
0.0665349
0.0665177
0.06639
0.066179
0.0659372
0.0656142
0.0651783
0.0646685
0.0640865
0.0633838
0.0625573
0.0616254
0.0605694
0.0593704
0.0580319
0.0565531
0.0549257
0.0531464
0.0512257
0.0491857
0.0470189
0.0447287
0.0423217
0.0397977
0.0371298
0.0342956
0.0312777
0.0280491
0.0245705
0.020869
0.0170292
0.0133107
0.0101831
0.00766927
0.00576123
0.00390225
0.00314449
0.0036029
0.00381813
0.00431947
0.00471649
0.00534795
0.00593957
0.00673611
0.00752111
0.00848208
0.00944139
0.0105333
0.011621
0.0128038
0.0139847
0.0152416
0.0165132
0.0178568
0.0192286
0.0206583
0.0221193
0.0236256
0.0251649
0.0267364
0.0283236
0.0299247
0.0315423
0.0331765
0.0348223
0.0364734
0.0381244
0.0397694
0.0414012
0.0430119
0.0445943
0.0461422
0.0476511
0.0491166
0.0505339
0.0518984
0.0532071
0.0544562
0.055643
0.0567648
0.0578208
0.058809
0.0597268
0.0605706
0.0613392
0.0620337
0.062658
0.0632142
0.0636898
0.0640688
0.0643675
0.0645965
0.0647059
0.0647487
0.0647526
0.0646481
0.0643937
0.0640923
0.0637142
0.0631991
0.0625977
0.0619182
0.061112
0.0602015
0.0592156
0.0581215
0.0569176
0.0556364
0.0542634
0.0527861
0.0512282
0.0495984
0.0478863
0.0461006
0.0442483
0.0423233
0.0403364
0.0382979
0.0362108
0.0340691
0.0318734
0.0296348
0.027357
0.0250697
0.0227874
0.0205196
0.0182444
0.0159865
0.0137968
0.0116625
0.00957568
0.00764107
0.00586268
0.00437082
0.00332795
0.00284176
0.00299051
0.00352534
0.00378106
0.00438131
0.00485336
0.00558422
0.00626932
0.00714883
0.00801617
0.00902626
0.0100235
0.0111215
0.0122032
0.0133587
0.014507
0.0157201
0.0169422
0.0182245
0.019526
0.0208749
0.0222443
0.0236463
0.0250651
0.0265044
0.0279579
0.0294231
0.0308949
0.0323703
0.0338451
0.0353121
0.0367643
0.0381957
0.0395999
0.0409703
0.0423
0.0435832
0.0448142
0.0459878
0.0470984
0.0481411
0.0491114
0.0500045
0.0508164
0.0515439
0.0521859
0.0527438
0.0532146
0.0535856
0.0538546
0.0540064
0.0540694
0.0540835
0.0540174
0.0537839
0.053469
0.0531057
0.0526262
0.0520473
0.0514104
0.050686
0.0498616
0.0489808
0.0480339
0.0469991
0.0459052
0.0447589
0.0435427
0.0422769
0.0409715
0.0396145
0.038201
0.0367432
0.0352331
0.0336857
0.0321234
0.0305365
0.0289242
0.027279
0.0256163
0.0239606
0.0223317
0.0207281
0.0191269
0.0175326
0.0159601
0.014474
0.0131079
0.0118247
0.0106467
0.00952963
0.00838275
0.00733075
0.00642918
0.00560094
0.0047588
0.00405741
0.00339068
0.00300161
0.00281992
0.00278417
0.00284183
0.00339824
0.00366688
0.00429996
0.00479426
0.00554463
0.00623253
0.00708538
0.00789939
0.00880755
0.0096741
0.0105978
0.0114885
0.0124273
0.0133547
0.0143301
0.0153085
0.0163278
0.0173534
0.0184079
0.0194695
0.0205498
0.021636
0.0227311
0.0238271
0.0249214
0.0260086
0.0270847
0.0281452
0.029183
0.0301924
0.0311686
0.0321054
0.0329972
0.0338381
0.034623
0.0353471
0.0360057
0.0365946
0.0371114
0.0375556
0.0379213
0.0382014
0.0383919
0.0384793
0.0385092
0.0385044
0.0383844
0.0381423
0.0378614
0.0375208
0.0370753
0.0365589
0.0359834
0.0353348
0.0346218
0.0338541
0.0330299
0.0321557
0.0312403
0.0302776
0.0292776
0.0282437
0.027177
0.0260813
0.0249697
0.0238373
0.022687
0.0215247
0.0203453
0.0192157
0.0180996
0.0170401
0.0160014
0.0150093
0.0140402
0.0131097
0.0122241
0.0113895
0.0106012
0.00985881
0.00915849
0.00848973
0.00787708
0.0072934
0.00677142
0.00627234
0.00583268
0.00539881
0.00500461
0.00461902
0.00427888
0.00394294
0.00365521
0.00335952
0.00313827
0.00296474
0.00288888
0.00287312
0.00293847
0.00255891
0.00306878
0.00331604
0.00389763
0.00434461
0.0050134
0.00560799
0.00632173
0.00696906
0.00766358
0.00829341
0.00895013
0.00956532
0.0102106
0.0108368
0.0114897
0.0121304
0.012788
0.0134363
0.0140962
0.0147528
0.0154163
0.0160758
0.016733
0.0173804
0.0180164
0.0186368
0.0192383
0.0198169
0.0203681
0.0208872
0.0213708
0.021814
0.0222133
0.0225646
0.022866
0.0231138
0.0233041
0.0234223
0.023474
0.0234899
0.023471
0.0233487
0.0231622
0.0229483
0.0226643
0.0223167
0.0219274
0.0214788
0.0209828
0.0204525
0.0198937
0.0193024
0.0187053
0.0180851
0.0174528
0.01682
0.0161805
0.0155341
0.0148952
0.0142627
0.013632
0.0130197
0.0124217
0.011836
0.0112756
0.0107313
0.0102052
0.00970194
0.00922041
0.00876853
0.00834036
0.00794116
0.00756
0.00720607
0.00686874
0.0065552
0.00626296
0.00598864
0.00573198
0.00549347
0.00526807
0.00505675
0.00486105
0.00467123
0.00449811
0.00432768
0.00417024
0.00401305
0.00386887
0.00372546
0.00359571
0.00347101
0.00336442
0.00327047
0.00321793
0.00319422
0.00321008
0.00335579
0.00343903
0.00215753
0.00255338
0.00276544
0.00324373
0.00363031
0.0041719
0.00464844
0.00518126
0.00564555
0.00611305
0.00652347
0.00693378
0.00731215
0.00769622
0.00805652
0.00841396
0.00874391
0.00906662
0.00936999
0.00967198
0.00996401
0.0102518
0.0105266
0.0107894
0.0110368
0.0112706
0.0114893
0.0116913
0.0118741
0.0120364
0.0121759
0.0122917
0.0123826
0.0124435
0.0124709
0.0124802
0.0124774
0.0124329
0.0123519
0.0122617
0.0121449
0.0119949
0.0118244
0.0116394
0.011437
0.0112185
0.0109858
0.0107458
0.0105
0.010248
0.00999447
0.00974441
0.00949549
0.00925352
0.00901564
0.00878536
0.00856508
0.00835272
0.00814851
0.00795766
0.0077755
0.00760203
0.00744252
0.00729129
0.00714919
0.00701956
0.00689747
0.00678567
0.00668346
0.00658922
0.00650354
0.00642507
0.00635373
0.00628704
0.00622714
0.00617005
0.00611768
0.00606861
0.00602098
0.00597624
0.00593224
0.0058892
0.00584594
0.00580223
0.00575546
0.00570543
0.00564907
0.00558603
0.00551478
0.00543509
0.00534672
0.00525225
0.00515446
0.00506079
0.00499028
0.00495935
0.00495629
0.00509294
0.00530613
0.00544989
0.00179407
0.00210581
0.00229872
0.0026652
0.00297642
0.00337324
0.00371717
0.00407468
0.00437639
0.00466293
0.00490742
0.00514359
0.0053531
0.00555655
0.00573227
0.00589327
0.00602454
0.00614422
0.00624722
0.00634714
0.00643712
0.00652039
0.00659165
0.00665367
0.00670707
0.00675432
0.00679559
0.00683066
0.00685938
0.00688204
0.00689766
0.00690468
0.0069071
0.00690692
0.00689925
0.00688448
0.00686762
0.00684581
0.00681851
0.00679077
0.00676099
0.00672786
0.006696
0.00666612
0.00663652
0.00660978
0.00658639
0.00656644
0.00655145
0.00654028
0.00653451
0.00653254
0.00653655
0.00654535
0.0065602
0.0065812
0.00660798
0.00664081
0.00668009
0.00672627
0.00677835
0.00683728
0.00690326
0.00697521
0.00705392
0.00713964
0.00723116
0.00732953
0.0074344
0.00754572
0.00766356
0.00778804
0.00791901
0.00805664
0.00820167
0.00835376
0.0085133
0.00868074
0.00885536
0.00903804
0.00922738
0.00942409
0.00962691
0.00983562
0.0100488
0.0102664
0.0104861
0.0107069
0.0109222
0.0111327
0.0113336
0.0115256
0.0117072
0.0118837
0.0120615
0.0122674
0.012559
0.012981
0.0134957
0.0138087
0.00160722
0.00188014
0.00205377
0.00235787
0.0026214
0.00293519
0.00320441
0.00347005
0.00368905
0.00388828
0.00405591
0.0042121
0.00434576
0.00446819
0.00456273
0.0046406
0.00469249
0.0047359
0.00476738
0.004798
0.00482123
0.00483994
0.0048513
0.00485905
0.00486532
0.00487209
0.00487977
0.00488822
0.00489813
0.00491023
0.0049249
0.00494177
0.00496069
0.00498192
0.00500553
0.00503184
0.00506142
0.00509387
0.00512921
0.00516801
0.00521029
0.00525578
0.00530504
0.00535814
0.00541497
0.00547601
0.00554129
0.00561047
0.00568381
0.00576097
0.00584169
0.00592622
0.00601452
0.00610669
0.00620307
0.00630396
0.00640932
0.00651966
0.00663523
0.00675621
0.0068828
0.00701534
0.00715411
0.00729915
0.00745111
0.00761013
0.00777661
0.00795101
0.0081337
0.00832496
0.00852522
0.00873478
0.00895408
0.0091836
0.00942407
0.00967591
0.0099401
0.0102174
0.0105086
0.0108148
0.011137
0.0114765
0.0118343
0.0122119
0.0126106
0.0130319
0.0134775
0.0139491
0.0144523
0.0149879
0.0155636
0.0161811
0.0168488
0.0175706
0.0183552
0.0192046
0.0201049
0.0210046
0.0214855
0.0216433
0.00162662
0.00189918
0.00207267
0.00237948
0.00264431
0.00296253
0.00323483
0.00350519
0.00372762
0.00393076
0.00410131
0.00426134
0.00439834
0.00452534
0.00462421
0.0047068
0.00476281
0.00480973
0.00484391
0.00487665
0.0049015
0.00492151
0.00493397
0.00494251
0.00494951
0.00495693
0.00496514
0.00497386
0.00498353
0.00499486
0.0050085
0.00502404
0.0050412
0.00506015
0.00508107
0.00510392
0.00512944
0.00515762
0.00518812
0.00522157
0.0052582
0.00529733
0.00533985
0.00538596
0.00543508
0.00548813
0.00554514
0.0056055
0.00566979
0.00573795
0.00580931
0.00588427
0.00596292
0.00604501
0.00613124
0.00622166
0.0063161
0.00641533
0.00651927
0.00662791
0.00674165
0.00686079
0.00698536
0.00711579
0.00725211
0.0073949
0.00754406
0.00770011
0.0078631
0.00803332
0.00821082
0.00839576
0.00858833
0.00878858
0.00899712
0.00921398
0.00943996
0.00967526
0.00992054
0.0101763
0.010443
0.0107215
0.0110124
0.011317
0.0116364
0.0119721
0.0123259
0.0126997
0.0130963
0.0135175
0.0139654
0.0144445
0.0149665
0.0155361
0.0161704
0.0168828
0.0176912
0.0185748
0.0192285
0.0195001
0.0018309
0.00213767
0.00232652
0.00269441
0.00300558
0.00340782
0.00375665
0.00412241
0.00443085
0.00472539
0.00497605
0.0052198
0.00543586
0.00564862
0.00583351
0.00600622
0.00614904
0.00628051
0.00639352
0.00650298
0.00660105
0.00669173
0.00677018
0.00683878
0.00689941
0.00695446
0.00700345
0.0070466
0.0070826
0.00711155
0.00713415
0.00714759
0.00715325
0.00715478
0.00715122
0.00713539
0.0071147
0.00709124
0.00705828
0.0070204
0.00698193
0.00693702
0.00688909
0.00684231
0.00679275
0.00674385
0.00669753
0.0066507
0.00660651
0.00656714
0.00652909
0.00649486
0.00646575
0.00643882
0.00641751
0.00640107
0.00638832
0.00638211
0.0063797
0.00638113
0.00638983
0.00640304
0.00642061
0.00644366
0.00647018
0.00650163
0.00653671
0.00657542
0.00661639
0.00666003
0.00670484
0.00675063
0.00679674
0.0068418
0.00688617
0.0069282
0.00696823
0.00700512
0.00703873
0.00706833
0.00709328
0.00711339
0.00712804
0.0071371
0.00714138
0.00714279
0.00714182
0.00713753
0.00713555
0.00713486
0.00714177
0.00715522
0.00718017
0.00722681
0.00730404
0.00743547
0.0076533
0.00799764
0.0084787
0.0088094
0.00218956
0.00257718
0.00277688
0.0032451
0.00362348
0.00415982
0.00463448
0.00517022
0.00563921
0.00611345
0.00652996
0.00694677
0.0073296
0.0077228
0.00809271
0.0084667
0.00881487
0.00915938
0.00948331
0.00980533
0.0101156
0.0104218
0.0107145
0.0109945
0.0112622
0.0115183
0.0117605
0.0119893
0.0122009
0.0123929
0.0125644
0.012713
0.0128375
0.012936
0.0130035
0.0130347
0.0130458
0.0130443
0.0129992
0.0129132
0.0128169
0.012691
0.01253
0.0123498
0.0121429
0.0119171
0.0116786
0.0114159
0.0111407
0.0108621
0.0105689
0.0102724
0.00997839
0.00967832
0.0093879
0.00910087
0.00881587
0.00854292
0.00827911
0.00801869
0.00777488
0.00753835
0.00731094
0.00709773
0.00689109
0.00669462
0.00650868
0.00632992
0.00616305
0.00600475
0.00585628
0.00571327
0.00557993
0.00544999
0.00532683
0.00520794
0.00509296
0.00498114
0.00487318
0.00476721
0.00466414
0.00456388
0.00446595
0.00436976
0.00427772
0.00418682
0.00410132
0.00401923
0.00394289
0.00387177
0.00380842
0.00375186
0.00370708
0.00367321
0.00365854
0.00365683
0.00372817
0.00385305
0.00405299
0.00414508
0.00255627
0.00304575
0.00328272
0.00384016
0.00426904
0.00491243
0.00548641
0.00618119
0.0068153
0.00750103
0.00812472
0.00877603
0.00938649
0.0100305
0.0106583
0.0113168
0.0119658
0.012634
0.0132941
0.0139666
0.0146366
0.0153154
0.0159937
0.0166737
0.0173482
0.0180157
0.0186726
0.0193158
0.0199414
0.020545
0.0211222
0.0216691
0.022181
0.0226544
0.023084
0.0234668
0.0237994
0.0240789
0.0242991
0.0244582
0.0245367
0.0245673
0.0245694
0.024494
0.0243199
0.0241165
0.0238556
0.023515
0.0231299
0.0226857
0.0221749
0.0216298
0.0210451
0.0204145
0.0197813
0.0191185
0.0184343
0.0177486
0.0170594
0.0163565
0.0156658
0.0149775
0.014293
0.0136306
0.0129801
0.0123447
0.0117353
0.0111468
0.0105793
0.0100392
0.00952698
0.00904471
0.00858901
0.00816435
0.00775755
0.00738306
0.00702566
0.00669203
0.00637389
0.00607744
0.00578954
0.00552444
0.005272
0.00503044
0.00480475
0.00458267
0.00437308
0.00417311
0.00398649
0.00380361
0.00363963
0.00347384
0.0033347
0.00319954
0.00308642
0.00299999
0.00296029
0.00295161
0.00306457
0.00314008
0.00280643
0.00333255
0.00358604
0.00418291
0.0046494
0.00535944
0.00601176
0.00682633
0.00760602
0.00848216
0.0093205
0.010218
0.0110834
0.0119994
0.0129055
0.0138627
0.0148264
0.015835
0.0168535
0.0179043
0.0189652
0.0200475
0.0211392
0.0222431
0.0233522
0.0244644
0.0255753
0.0266806
0.0277759
0.028856
0.0299151
0.0309486
0.0319498
0.0329146
0.0338366
0.0347102
0.0355298
0.0362911
0.0369887
0.0376188
0.0381778
0.0386657
0.0390793
0.0394097
0.0396561
0.0398026
0.0398644
0.0398813
0.0398449
0.0396669
0.0394039
0.0391069
0.0387183
0.0382335
0.0376893
0.0370711
0.036373
0.0356202
0.0348018
0.033916
0.03299
0.032014
0.0309857
0.0299285
0.0288379
0.0277069
0.0265531
0.0253764
0.0241707
0.0229477
0.0217164
0.0205475
0.019382
0.0182922
0.0172084
0.016187
0.0151881
0.0142443
0.0133219
0.0124558
0.011601
0.0107879
0.0100238
0.00929918
0.0086295
0.00798294
0.00735438
0.00673705
0.00620178
0.0056884
0.00522676
0.00471885
0.00426554
0.00383204
0.00349447
0.00316807
0.00292473
0.00281399
0.00278401
0.00282315
0.00292882
0.00342989
0.00366856
0.00422735
0.00466574
0.00534761
0.00598644
0.00681204
0.00762598
0.00858195
0.00952777
0.0105755
0.0116095
0.0127191
0.0138231
0.0149935
0.0161746
0.0174182
0.0186847
0.0200029
0.021346
0.0227258
0.0241277
0.0255535
0.026995
0.0284498
0.0299167
0.0313918
0.0328707
0.0343496
0.0358222
0.0372815
0.0387212
0.0401363
0.04152
0.0428658
0.0441679
0.0454213
0.0466205
0.0477603
0.0488358
0.0498429
0.0507772
0.0516343
0.0524109
0.0531052
0.0537166
0.0542472
0.0546892
0.0550294
0.0552751
0.0554044
0.0554552
0.0554619
0.0553682
0.0551146
0.054799
0.0544231
0.0539219
0.0533288
0.0526828
0.0519442
0.0511044
0.0502109
0.0492573
0.0482139
0.0471156
0.0459769
0.0447664
0.0435006
0.0421981
0.0408315
0.0394162
0.0379664
0.0364754
0.0349437
0.0333848
0.0317998
0.0301905
0.0285695
0.0269266
0.0252351
0.0234954
0.0217333
0.0200127
0.0183699
0.0168319
0.015085
0.01342
0.0118966
0.0106717
0.00936513
0.00794089
0.0064476
0.00550284
0.00462607
0.00371204
0.00310352
0.00282214
0.00273011
0.00306617
0.00349607
0.0036967
0.00416165
0.00452715
0.00511271
0.00565767
0.00639868
0.00712711
0.008026
0.00892436
0.00995438
0.0109825
0.0121058
0.0132304
0.01443
0.015643
0.016927
0.0182416
0.0196167
0.0210255
0.0224805
0.023969
0.0254925
0.0270455
0.0286236
0.0302161
0.0318224
0.0334464
0.0350845
0.0367281
0.038371
0.0400085
0.0416338
0.0432394
0.0448182
0.0463646
0.0478742
0.049343
0.0507666
0.0521407
0.0534617
0.0547267
0.0559328
0.0570777
0.0581606
0.0591801
0.060134
0.06102
0.0618353
0.0625807
0.0632581
0.0638715
0.0644221
0.064894
0.0652772
0.0655936
0.0658497
0.065996
0.0660607
0.0660799
0.0660405
0.065848
0.0655821
0.0652718
0.0648333
0.0642879
0.0636814
0.0629714
0.0621442
0.061231
0.0602284
0.0591168
0.0579061
0.0566192
0.0552392
0.053764
0.0522165
0.0505896
0.048875
0.0470873
0.0452226
0.04326
0.0411999
0.0390463
0.0368062
0.0344657
0.0319887
0.0293455
0.0265963
0.0237905
0.0208965
0.017904
0.0149239
0.0121006
0.00941622
0.00707647
0.00511133
0.00366796
0.00299296
0.00414126
0.0044508
0.00459498
0.00493267
0.00519951
0.00564236
0.00604555
0.00661525
0.00716484
0.00785382
0.00852818
0.0093203
0.0101382
0.0110686
0.0120537
0.0131356
0.0142756
0.0154866
0.0167416
0.0180476
0.0193908
0.0207732
0.02219
0.0236328
0.0250929
0.0265642
0.028052
0.0295608
0.0310903
0.0326386
0.0342025
0.0357772
0.037357
0.0389345
0.0405014
0.0420493
0.0435712
0.0450609
0.0465164
0.0479357
0.0493141
0.050649
0.0519387
0.0531805
0.0543719
0.0555128
0.0566032
0.0576415
0.0586271
0.05956
0.0604408
0.0612714
0.0620527
0.0627847
0.0634635
0.064088
0.0646658
0.0652039
0.0656976
0.0661503
0.0665715
0.0669412
0.0672445
0.0674998
0.0677296
0.0679063
0.0680122
0.0680627
0.0680789
0.0680555
0.0679235
0.067736
0.0674957
0.0671407
0.0666872
0.0661498
0.0654809
0.0646573
0.0637023
0.0625853
0.0612742
0.0597762
0.0580787
0.0561639
0.0540256
0.0516635
0.0490766
0.046266
0.0432235
0.0399219
0.0363498
0.0324511
0.0282195
0.0237011
0.0191384
0.0149781
0.0113827
0.008699
0.00662477
0.0043264
0.0112375
0.0111158
0.0110956
0.0110932
0.0111076
0.0111743
0.0112892
0.0114712
0.0116986
0.0119998
0.012355
0.0127868
0.0132729
0.013831
0.0144511
0.0151491
0.0159194
0.0167619
0.0176619
0.0186102
0.0195938
0.0206019
0.0216239
0.0226548
0.0236962
0.0247521
0.0258297
0.0269361
0.0280747
0.029246
0.0304485
0.0316789
0.0329326
0.0342021
0.0354792
0.0367548
0.0380207
0.0392697
0.0404939
0.0416866
0.0428473
0.0439759
0.0450698
0.046126
0.0471426
0.048119
0.0490559
0.0499529
0.0508102
0.0516287
0.0524093
0.0531533
0.0538611
0.054533
0.0551686
0.0557688
0.056336
0.0568738
0.0573828
0.0578614
0.0583098
0.0587306
0.0591157
0.0594707
0.059807
0.0601212
0.0604029
0.0606555
0.0608863
0.0610808
0.061218
0.0613007
0.0613332
0.0613325
0.0612155
0.0610142
0.0607474
0.0603318
0.0597841
0.0591088
0.0582679
0.0572518
0.056055
0.0546651
0.0530607
0.0512251
0.0491133
0.0466936
0.0438063
0.0404973
0.0366591
0.0323643
0.0277694
0.0230387
0.0186214
0.0147297
0.0116122
0.00941374
0.00806743
0.00667404
0.025295
0.0250225
0.0248984
0.0246436
0.0244733
0.0242117
0.0240036
0.0237338
0.0234979
0.0232214
0.0229648
0.0226866
0.0224183
0.0221424
0.0218732
0.0216063
0.0213492
0.0211022
0.0208698
0.020653
0.0204538
0.020273
0.0201108
0.0199665
0.0198396
0.0197297
0.0196374
0.0195634
0.019506
0.0194823
0.0194839
0.0195091
0.019562
0.0196434
0.0197522
0.019887
0.0200448
0.0202222
0.0204144
0.0206166
0.0208253
0.0210384
0.0212535
0.0214676
0.0216777
0.0218814
0.0220768
0.0222622
0.0224361
0.0225972
0.0227446
0.0228778
0.0229961
0.0230986
0.0231846
0.0232535
0.0233069
0.0233424
0.023353
0.0233513
0.0233361
0.0233044
0.0232542
0.0231853
0.0230993
0.0229969
0.0228775
0.0227405
0.0225858
0.0224103
0.0222092
0.0219833
0.02174
0.0214796
0.0211798
0.0208382
0.0204792
0.0200853
0.0196473
0.0191731
0.0186604
0.0181059
0.0175095
0.0168683
0.0161739
0.0154227
0.01458
0.0135902
0.0124279
0.0110362
0.00932107
0.00730139
0.00533029
0.00355911
0.00233618
0.00174958
0.00205595
0.00433385
0.00675097
0.00754817
0.006439
0.00170382
0.00153923
0.00146597
0.00140102
0.00134265
0.00131767
0.00131352
0.00131345
0.00132171
0.00133914
0.00134244
0.00133487
0.00132616
0.00133634
0.00146614
0.00195052
0.00306859
0.0047334
0.00515285
0.00443247
0.00176024
0.00161913
0.00155628
0.00144931
0.00140704
0.00139052
0.00138229
0.00137954
0.00139277
0.0014005
0.00140253
0.00139571
0.0013951
0.00143958
0.00165713
0.00223086
0.00346247
0.00465566
0.00463427
0.00304034
0.00188087
0.00176075
0.00160422
0.00152656
0.00149025
0.00147455
0.00147005
0.00147781
0.00148813
0.00148965
0.00147217
0.00146606
0.00147534
0.00157795
0.00189474
0.00264656
0.0038627
0.00450508
0.00406793
0.00260546
0.00197057
0.00184422
0.00170075
0.00164994
0.00162232
0.00161124
0.00160829
0.00160967
0.0016045
0.00157259
0.00156371
0.00157462
0.00163426
0.00184044
0.0023477
0.0031132
0.0040311
0.0042523
0.00345962
0.00255253
0.0021113
0.00200689
0.00189282
0.00185329
0.00181912
0.00180727
0.00179706
0.00179309
0.00176918
0.00174379
0.00175602
0.00181258
0.00197383
0.00235958
0.00287865
0.00366953
0.00399577
0.00392881
0.00283085
0.0026252
0.00235886
0.00227625
0.00219093
0.00216393
0.00214983
0.00215075
0.00215918
0.00216356
0.00215892
0.0021592
0.00222783
0.00238232
0.00270443
0.00307262
0.00360032
0.00385125
0.00389856
0.00343635
0.00220762
0.0030575
0.00296599
0.0029261
0.0029067
0.00293972
0.00298591
0.00305851
0.00312816
0.00321161
0.00325083
0.00320892
0.00330396
0.00345708
0.00363601
0.00384562
0.0039455
0.00393738
0.00366007
0.00276291
0.00161603
0.0052443
0.00537094
0.00551883
0.00568085
0.00589888
0.00597404
0.0059131
0.00553494
0.00537353
0.00505655
0.00492257
0.00477825
0.00470946
0.00455628
0.00447703
0.00418017
0.0038273
0.0031859
0.00197709
0.00109811
0.0133621
0.0130868
0.012684
0.0117444
0.0107362
0.00990406
0.00901721
0.00841056
0.00770013
0.00724613
0.00667272
0.00628981
0.0057463
0.00533252
0.00475189
0.00406745
0.00339111
0.00230765
0.00117504
0.000642869
0.0188505
0.0173388
0.0160611
0.0142876
0.0132774
0.0118051
0.0110571
0.00985717
0.00926479
0.00825054
0.00774678
0.0067948
0.00624996
0.0052546
0.00455108
0.00325334
0.00225695
0.00109076
0.000531685
0.000275575
0.0174759
0.0159517
0.0151322
0.0133974
0.0125792
0.0112411
0.0105963
0.00956022
0.00906188
0.00821928
0.00780594
0.00701904
0.00659406
0.00571633
0.00516863
0.00418438
0.00292372
0.00162722
0.000720549
0.000323704
0.00880999
0.00896403
0.00901796
0.00890379
0.00854896
0.0080233
0.00762542
0.00707459
0.00680478
0.00643604
0.00625709
0.00600916
0.00582918
0.00551862
0.00514728
0.0046779
0.00402481
0.00307148
0.0015034
0.000730616
0.00383099
0.00382429
0.00385536
0.00390744
0.00401745
0.00412912
0.00427812
0.00434381
0.00429931
0.00426163
0.00424602
0.00432812
0.00448918
0.00462551
0.00468574
0.00469112
0.00434808
0.0038383
0.00246109
0.00124219
0.00272729
0.00261244
0.00255664
0.00251472
0.00250867
0.00251201
0.00254774
0.00258222
0.00263764
0.00271725
0.00280972
0.00292266
0.00318375
0.00357042
0.00396222
0.00431308
0.00442875
0.00425766
0.00332459
0.00183826
0.0024926
0.00221483
0.00212835
0.00204001
0.00201167
0.00199289
0.00198879
0.00198603
0.00198438
0.00197262
0.00198092
0.00205205
0.00221226
0.0025703
0.00307249
0.00381387
0.00433439
0.00445633
0.00402502
0.00250436
0.00246712
0.00203463
0.00192667
0.00180948
0.00177211
0.00174441
0.00173562
0.00172823
0.00172367
0.0016903
0.00167074
0.00168391
0.00174374
0.00191993
0.00233368
0.00296382
0.00404938
0.00453645
0.00453121
0.00320186
0.00257396
0.00192657
0.00180556
0.00165512
0.00159245
0.0015617
0.00154894
0.00154716
0.00155903
0.00156309
0.00153441
0.00152612
0.00153874
0.00160869
0.00185876
0.00243849
0.00335395
0.00456384
0.00486225
0.003899
0.00317005
0.00182908
0.00170884
0.00158667
0.0015035
0.00147131
0.00144831
0.00144008
0.0014385
0.00145467
0.00145933
0.00144726
0.00144195
0.00145466
0.00157115
0.00194119
0.0028166
0.00430975
0.0051077
0.00456439
0.00485152
0.00174283
0.00159411
0.00152264
0.00142253
0.00137679
0.00136342
0.00135951
0.00135968
0.00136958
0.00137923
0.0013811
0.0013749
0.00137627
0.00143094
0.00169372
0.00237798
0.00384447
0.00526393
0.00518015
0.00706141
0.00168801
0.00152704
0.00146116
0.00139146
0.00133014
0.00130125
0.00129256
0.00129127
0.00130466
0.00132413
0.00133019
0.0013204
0.00131134
0.00132764
0.00147069
0.00203662
0.00337232
0.00534345
0.00574125
0.00397171
0.00375022
0.0037468
0.00374681
0.00374652
0.00374628
0.00374612
0.00374604
0.003746
0.00374598
0.00374598
0.003746
0.00374604
0.00374612
0.00374628
0.00374652
0.00374681
0.0037468
0.00375022
0.00397171
0.00441687
0.00375353
0.00374141
0.00374094
0.00374055
0.00374011
0.00373987
0.00373975
0.00373968
0.00373965
0.00373965
0.00373968
0.00373975
0.00373987
0.00374011
0.00374055
0.00374094
0.00374141
0.00375353
0.00441687
0.00485579
0.00376039
0.0037328
0.0037326
0.00373283
0.00373273
0.00373256
0.00373242
0.00373235
0.00373231
0.00373231
0.00373235
0.00373242
0.00373256
0.00373273
0.00373283
0.0037326
0.0037328
0.00376039
0.00485577
0.00529822
0.00377217
0.00372442
0.00372402
0.00372495
0.00372526
0.00372526
0.00372519
0.00372514
0.00372512
0.00372512
0.00372514
0.00372519
0.00372526
0.00372526
0.00372495
0.00372402
0.00372442
0.00377217
0.00529822
0.00574493
0.00378554
0.00371548
0.00371483
0.00371666
0.00371758
0.00371789
0.00371795
0.00371795
0.00371794
0.00371794
0.00371795
0.00371795
0.00371789
0.00371758
0.00371666
0.00371482
0.00371548
0.00378553
0.00574493
0.00617533
0.00379728
0.00370551
0.00370497
0.00370793
0.00370965
0.00371041
0.00371069
0.00371077
0.0037108
0.0037108
0.00371077
0.00371069
0.00371041
0.00370965
0.00370793
0.00370497
0.00370551
0.00379728
0.00617534
0.00658631
0.00380852
0.00369508
0.00369478
0.00369895
0.00370155
0.00370284
0.0037034
0.00370361
0.00370368
0.00370368
0.00370361
0.0037034
0.00370284
0.00370155
0.00369895
0.00369478
0.00369508
0.00380852
0.00658632
0.00699448
0.00381774
0.00368325
0.00368386
0.00368952
0.00369317
0.00369511
0.00369604
0.00369643
0.00369657
0.00369657
0.00369643
0.00369604
0.00369511
0.00369317
0.00368952
0.00368386
0.00368325
0.00381774
0.00699447
0.00739777
0.00382303
0.00366904
0.00367172
0.00367942
0.00368439
0.00368714
0.00368855
0.00368919
0.00368943
0.00368943
0.00368919
0.00368855
0.00368714
0.00368439
0.00367942
0.00367172
0.00366904
0.00382303
0.00739777
0.00777452
0.00382632
0.00365344
0.00365875
0.0036688
0.00367525
0.00367895
0.00368092
0.00368188
0.00368226
0.00368226
0.00368188
0.00368092
0.00367895
0.00367525
0.0036688
0.00365875
0.00365344
0.00382632
0.00777453
0.00811836
0.00383018
0.0036375
0.00364541
0.00365787
0.00366588
0.00367058
0.00367319
0.00367451
0.00367506
0.00367506
0.00367451
0.00367319
0.00367058
0.00366588
0.00365787
0.00364541
0.0036375
0.00383018
0.00811835
0.00844321
0.00383121
0.00362036
0.00363144
0.00364655
0.00365625
0.00366203
0.00366532
0.00366706
0.00366779
0.00366779
0.00366706
0.00366532
0.00366203
0.00365625
0.00364655
0.00363144
0.00362036
0.00383121
0.00844321
0.00875498
0.00383072
0.00360143
0.00361643
0.00363462
0.00364622
0.00365321
0.00365728
0.00365947
0.00366041
0.00366041
0.00365947
0.00365728
0.00365321
0.00364622
0.00363462
0.00361642
0.00360143
0.00383072
0.008755
0.00904133
0.00382913
0.00358075
0.00360028
0.00362198
0.00363573
0.00364408
0.003649
0.00365171
0.0036529
0.0036529
0.00365171
0.00364901
0.00364408
0.00363574
0.00362199
0.00360029
0.00358076
0.00382913
0.00904133
0.00929192
0.00382558
0.00355911
0.00358344
0.00360886
0.00362489
0.00363468
0.00364053
0.0036438
0.00364526
0.00364526
0.0036438
0.00364053
0.00363468
0.00362489
0.00360886
0.00358344
0.0035591
0.00382557
0.00929193
0.00951287
0.00382245
0.00353745
0.00356638
0.0035955
0.00361384
0.0036251
0.0036319
0.00363575
0.00363748
0.00363748
0.00363575
0.0036319
0.0036251
0.00361384
0.0035955
0.00356638
0.00353744
0.00382243
0.00951289
0.0097152
0.00382043
0.00351573
0.00354906
0.0035819
0.00360258
0.00361534
0.00362311
0.00362755
0.00362957
0.00362957
0.00362755
0.00362311
0.00361534
0.00360258
0.0035819
0.00354906
0.00351573
0.00382041
0.00971522
0.00989902
0.00381783
0.00349297
0.003531
0.00356782
0.00359099
0.00360533
0.00361412
0.00361918
0.00362149
0.00362149
0.00361918
0.00361412
0.00360533
0.00359099
0.00356782
0.003531
0.00349296
0.00381779
0.00989903
0.010056
0.00381347
0.00346866
0.00351188
0.00355305
0.00357892
0.00359497
0.00360484
0.00361055
0.00361317
0.00361317
0.00361055
0.00360484
0.00359497
0.00357892
0.00355304
0.00351187
0.00346864
0.00381341
0.010056
0.010183
0.00380868
0.00344349
0.00349194
0.00353765
0.00356638
0.00358422
0.00359523
0.00360163
0.00360457
0.00360457
0.00360163