/*--------------------------------*- C++ -*----------------------------------*\
| =========                 |                                                 |
| \\      /  F ield         | OpenFOAM: The Open Source CFD Toolbox           |
|  \\    /   O peration     | Version:  2.1.0                                 |
|   \\  /    A nd           | Web:      www.OpenFOAM.org                      |
|    \\/     M anipulation  |                                                 |
\*---------------------------------------------------------------------------*/
FoamFile
{
    version     2.0;
    format      ascii;
    class       volScalarField;
    location    "0.1";
    object      nut;
}
// * * * * * * * * * * * * * * * * * * * * * * * * * * * * * * * * * * * * * //

dimensions      [0 2 -1 0 0 0 0];

internalField   nonuniform List<scalar> 
6400
(
5.17518e-06
5.13327e-06
5.12634e-06
5.09774e-06
5.08914e-06
5.06415e-06
5.05173e-06
5.02791e-06
5.01195e-06
4.98836e-06
4.96957e-06
4.94664e-06
4.92637e-06
4.90461e-06
4.8848e-06
4.86565e-06
4.84906e-06
4.83494e-06
4.82438e-06
4.81747e-06
4.81477e-06
4.81633e-06
4.82228e-06
4.83253e-06
4.84704e-06
4.86589e-06
4.88919e-06
4.91654e-06
4.95194e-06
4.99363e-06
5.04143e-06
5.09648e-06
5.15909e-06
5.22934e-06
5.307e-06
5.39155e-06
5.48214e-06
5.57755e-06
5.67665e-06
5.77864e-06
5.88297e-06
5.98901e-06
6.09597e-06
6.20312e-06
6.30984e-06
6.41564e-06
6.52007e-06
6.62276e-06
6.72345e-06
6.82192e-06
6.91807e-06
7.01173e-06
7.10289e-06
7.19229e-06
7.27569e-06
7.35407e-06
7.43187e-06
7.50765e-06
7.58064e-06
7.65011e-06
7.71565e-06
7.77728e-06
7.83571e-06
7.89115e-06
7.94367e-06
7.9925e-06
8.03524e-06
8.07239e-06
8.1078e-06
8.14164e-06
8.16748e-06
8.18255e-06
8.19291e-06
8.19982e-06
8.20028e-06
8.19423e-06
8.18373e-06
8.17046e-06
8.15608e-06
8.14279e-06
8.13165e-06
8.11887e-06
8.09529e-06
8.07268e-06
8.05536e-06
8.03838e-06
8.01846e-06
7.9871e-06
7.9206e-06
7.78619e-06
7.51525e-06
6.98751e-06
6.0365e-06
4.47895e-06
2.44755e-06
1.60244e-06
1.83113e-06
2.97449e-06
2.89553e-06
3.09701e-06
1.34241e-05
1.33489e-05
1.34313e-05
1.3552e-05
1.36992e-05
1.39172e-05
1.41873e-05
1.45401e-05
1.49448e-05
1.54459e-05
1.60139e-05
1.66832e-05
1.74216e-05
1.82591e-05
1.91818e-05
2.02134e-05
2.1339e-05
2.25551e-05
2.38383e-05
2.51742e-05
2.6542e-05
2.79252e-05
2.9309e-05
3.06898e-05
3.20705e-05
3.34578e-05
3.48594e-05
3.62806e-05
3.7724e-05
3.91899e-05
4.06759e-05
4.21778e-05
4.36882e-05
4.51973e-05
4.66939e-05
4.8167e-05
4.96041e-05
5.09913e-05
5.23227e-05
5.35964e-05
5.48109e-05
5.59615e-05
5.70436e-05
5.80535e-05
5.89897e-05
5.98509e-05
6.06357e-05
6.13428e-05
6.19716e-05
6.25211e-05
6.29902e-05
6.33767e-05
6.36787e-05
6.38944e-05
6.40246e-05
6.40715e-05
6.40361e-05
6.39192e-05
6.37243e-05
6.34421e-05
6.3071e-05
6.26223e-05
6.21045e-05
6.1513e-05
6.08562e-05
6.01288e-05
5.92947e-05
5.8383e-05
5.74178e-05
5.63965e-05
5.52512e-05
5.40171e-05
5.27387e-05
5.13822e-05
4.99319e-05
4.84084e-05
4.68217e-05
4.51709e-05
4.34622e-05
4.17064e-05
3.99115e-05
3.80709e-05
3.61925e-05
3.42418e-05
3.22343e-05
3.01604e-05
2.80065e-05
2.57655e-05
2.34206e-05
2.0985e-05
1.84769e-05
1.59707e-05
1.35647e-05
1.13337e-05
9.23375e-06
7.31273e-06
5.83131e-06
4.7401e-06
4.09719e-06
4.92208e-06
1.26051e-05
1.34082e-05
1.36983e-05
1.4521e-05
1.50535e-05
1.60499e-05
1.68685e-05
1.80968e-05
1.91938e-05
2.05922e-05
2.18806e-05
2.34072e-05
2.4923e-05
2.66488e-05
2.84176e-05
3.0338e-05
3.22926e-05
3.43201e-05
3.63573e-05
3.84219e-05
4.04841e-05
4.25525e-05
4.46077e-05
4.66405e-05
4.86483e-05
5.06341e-05
5.26015e-05
5.45536e-05
5.6491e-05
5.84109e-05
6.03073e-05
6.21719e-05
6.3993e-05
6.57577e-05
6.74521e-05
6.90647e-05
7.05898e-05
7.20248e-05
7.33624e-05
7.45965e-05
7.57255e-05
7.67449e-05
7.76502e-05
7.84377e-05
7.91072e-05
7.96576e-05
8.00874e-05
8.03954e-05
8.05823e-05
8.06497e-05
8.05996e-05
8.04329e-05
8.01476e-05
7.9741e-05
7.92243e-05
7.86108e-05
7.79e-05
7.70993e-05
7.62063e-05
7.52088e-05
7.40986e-05
7.29208e-05
7.16588e-05
7.03061e-05
6.89095e-05
6.74758e-05
6.59316e-05
6.43126e-05
6.26765e-05
6.09795e-05
5.92017e-05
5.73875e-05
5.55447e-05
5.36386e-05
5.16764e-05
4.96823e-05
4.76496e-05
4.55726e-05
4.34636e-05
4.13308e-05
3.91775e-05
3.70109e-05
3.48481e-05
3.27131e-05
3.06092e-05
2.85475e-05
2.65412e-05
2.4599e-05
2.2715e-05
2.08782e-05
1.90841e-05
1.73568e-05
1.55951e-05
1.38135e-05
1.1955e-05
1.01025e-05
8.33588e-06
6.77226e-06
5.95255e-06
7.07809e-06
1.33367e-05
1.48384e-05
1.5272e-05
1.66466e-05
1.74188e-05
1.89235e-05
2.01232e-05
2.18799e-05
2.34406e-05
2.54048e-05
2.72082e-05
2.92494e-05
3.11318e-05
3.31341e-05
3.49991e-05
3.69334e-05
3.8786e-05
4.07002e-05
4.25747e-05
4.44816e-05
4.63647e-05
4.82587e-05
5.01397e-05
5.20096e-05
5.38382e-05
5.56254e-05
5.73784e-05
5.90991e-05
6.07801e-05
6.24122e-05
6.39877e-05
6.54994e-05
6.69376e-05
6.82928e-05
6.95567e-05
7.07236e-05
7.17899e-05
7.27527e-05
7.3608e-05
7.43523e-05
7.49843e-05
7.55017e-05
7.59032e-05
7.61883e-05
7.63581e-05
7.64132e-05
7.63532e-05
7.61765e-05
7.58855e-05
7.5486e-05
7.49859e-05
7.43925e-05
7.36957e-05
7.28808e-05
7.19739e-05
7.09931e-05
6.98887e-05
6.8726e-05
6.75397e-05
6.6262e-05
6.48587e-05
6.34415e-05
6.1986e-05
6.04408e-05
5.88617e-05
5.72625e-05
5.56052e-05
5.39169e-05
5.22295e-05
5.05157e-05
4.87821e-05
4.7058e-05
4.53358e-05
4.36099e-05
4.19035e-05
4.02257e-05
3.85709e-05
3.69465e-05
3.53568e-05
3.37963e-05
3.22683e-05
3.07698e-05
2.92986e-05
2.78595e-05
2.64176e-05
2.49823e-05
2.35377e-05
2.20886e-05
2.06272e-05
1.91477e-05
1.76421e-05
1.61107e-05
1.45577e-05
1.29631e-05
1.13275e-05
9.73289e-06
8.34443e-06
7.5188e-06
6.74761e-06
6.29454e-06
1.43537e-05
1.63274e-05
1.69745e-05
1.88642e-05
1.98903e-05
2.17889e-05
2.32508e-05
2.52667e-05
2.70084e-05
2.90644e-05
3.0881e-05
3.28475e-05
3.45999e-05
3.64159e-05
3.8072e-05
3.97699e-05
4.13693e-05
4.30025e-05
4.45751e-05
4.61572e-05
4.76927e-05
4.92127e-05
5.06886e-05
5.21327e-05
5.35367e-05
5.48997e-05
5.62153e-05
5.74815e-05
5.86941e-05
5.98442e-05
6.09238e-05
6.19277e-05
6.28505e-05
6.36869e-05
6.44319e-05
6.50824e-05
6.5636e-05
6.6091e-05
6.64449e-05
6.66968e-05
6.68468e-05
6.68944e-05
6.68392e-05
6.6684e-05
6.64326e-05
6.60928e-05
6.56665e-05
6.51426e-05
6.45241e-05
6.3803e-05
6.30127e-05
6.2203e-05
6.13411e-05
6.03379e-05
5.92912e-05
5.8239e-05
5.7116e-05
5.5944e-05
5.47671e-05
5.35604e-05
5.23158e-05
5.10756e-05
4.98317e-05
4.85678e-05
4.73091e-05
4.60619e-05
4.48113e-05
4.35728e-05
4.23553e-05
4.11404e-05
3.99216e-05
3.87106e-05
3.75091e-05
3.6293e-05
3.50948e-05
3.38905e-05
3.26782e-05
3.14467e-05
3.01945e-05
2.89354e-05
2.76693e-05
2.63986e-05
2.50986e-05
2.37755e-05
2.23046e-05
2.06728e-05
1.91758e-05
1.77561e-05
1.64452e-05
1.5177e-05
1.3802e-05
1.25175e-05
1.14257e-05
1.04151e-05
9.32436e-06
8.4275e-06
7.50602e-06
7.05527e-06
6.89149e-06
6.93429e-06
1.5251e-05
1.76382e-05
1.85122e-05
2.0832e-05
2.20555e-05
2.42295e-05
2.5776e-05
2.78517e-05
2.94782e-05
3.13425e-05
3.28313e-05
3.44083e-05
3.57217e-05
3.70824e-05
3.82969e-05
3.95542e-05
4.07306e-05
4.19316e-05
4.30736e-05
4.42154e-05
4.53103e-05
4.63881e-05
4.74255e-05
4.84331e-05
4.93993e-05
5.0324e-05
5.12013e-05
5.20287e-05
5.28029e-05
5.35161e-05
5.41644e-05
5.47455e-05
5.52549e-05
5.569e-05
5.60476e-05
5.63263e-05
5.65256e-05
5.66443e-05
5.66827e-05
5.66436e-05
5.65322e-05
5.63463e-05
5.60807e-05
5.57368e-05
5.53037e-05
5.48403e-05
5.43741e-05
5.38149e-05
5.316e-05
5.2507e-05
5.18266e-05
5.10774e-05
5.02966e-05
4.94954e-05
4.86594e-05
4.77972e-05
4.69158e-05
4.60162e-05
4.50973e-05
4.41643e-05
4.32235e-05
4.22763e-05
4.12932e-05
4.03113e-05
3.93024e-05
3.82844e-05
3.72539e-05
3.61959e-05
3.5118e-05
3.34804e-05
3.19312e-05
3.04024e-05
2.89693e-05
2.75585e-05
2.62139e-05
2.48929e-05
2.36172e-05
2.23991e-05
2.12422e-05
2.01358e-05
1.90813e-05
1.80688e-05
1.70826e-05
1.61674e-05
1.52699e-05
1.44574e-05
1.36517e-05
1.29394e-05
1.22046e-05
1.15315e-05
1.08515e-05
1.02505e-05
9.63418e-06
9.11843e-06
8.56329e-06
8.17244e-06
7.86029e-06
7.72654e-06
7.70613e-06
7.89049e-06
1.68038e-05
1.9533e-05
2.05482e-05
2.30658e-05
2.43257e-05
2.65616e-05
2.80228e-05
2.9983e-05
3.13449e-05
3.29121e-05
3.39727e-05
3.51547e-05
3.60169e-05
3.69727e-05
3.7764e-05
3.86129e-05
3.93684e-05
4.01461e-05
4.08641e-05
4.15877e-05
4.22774e-05
4.29633e-05
4.36228e-05
4.42642e-05
4.48748e-05
4.54559e-05
4.60018e-05
4.65119e-05
4.69823e-05
4.74082e-05
4.7787e-05
4.81165e-05
4.83919e-05
4.86116e-05
4.87731e-05
4.88764e-05
4.89204e-05
4.89013e-05
4.88022e-05
4.86341e-05
4.84397e-05
4.82199e-05
4.78874e-05
4.74924e-05
4.70799e-05
4.65999e-05
4.60587e-05
4.54769e-05
4.48244e-05
4.41308e-05
4.30438e-05
4.19155e-05
4.07811e-05
3.96424e-05
3.84961e-05
3.7354e-05
3.62164e-05
3.50906e-05
3.3961e-05
3.28482e-05
3.17568e-05
3.06665e-05
2.96096e-05
2.85746e-05
2.75547e-05
2.65729e-05
2.56091e-05
2.46678e-05
2.37527e-05
2.28665e-05
2.20193e-05
2.12e-05
2.04228e-05
1.96628e-05
1.89454e-05
1.82458e-05
1.75815e-05
1.69496e-05
1.63401e-05
1.57587e-05
1.52062e-05
1.46715e-05
1.41607e-05
1.36761e-05
1.31972e-05
1.27512e-05
1.23054e-05
1.18866e-05
1.14648e-05
1.10735e-05
1.06822e-05
1.03247e-05
9.97681e-06
9.67447e-06
9.40118e-06
9.21915e-06
9.10407e-06
9.04993e-06
9.40493e-06
9.63142e-06
1.81691e-05
1.92053e-05
2.00642e-05
2.22756e-05
2.43021e-05
2.67155e-05
2.90991e-05
3.10761e-05
3.29835e-05
3.41971e-05
3.55452e-05
3.62978e-05
3.73127e-05
3.79259e-05
3.86545e-05
3.91077e-05
3.95117e-05
3.97659e-05
3.99687e-05
4.01341e-05
4.02751e-05
4.03935e-05
4.04703e-05
4.05121e-05
4.05175e-05
4.04997e-05
4.04602e-05
4.03977e-05
4.03097e-05
4.01935e-05
4.00485e-05
3.98738e-05
3.96678e-05
3.94178e-05
3.91148e-05
3.88084e-05
3.85183e-05
3.81528e-05
3.77271e-05
3.73236e-05
3.69005e-05
3.64173e-05
3.58948e-05
3.53663e-05
3.48492e-05
3.43069e-05
3.37364e-05
3.31746e-05
3.26189e-05
3.20499e-05
3.14813e-05
3.093e-05
3.03817e-05
2.98414e-05
2.93105e-05
2.87936e-05
2.82883e-05
2.7796e-05
2.73121e-05
2.68467e-05
2.63917e-05
2.59423e-05
2.55128e-05
2.50894e-05
2.46744e-05
2.42765e-05
2.38798e-05
2.35023e-05
2.31463e-05
2.2785e-05
2.24465e-05
2.21084e-05
2.17872e-05
2.14644e-05
2.11567e-05
2.08462e-05
2.05432e-05
2.02439e-05
1.99415e-05
1.96455e-05
1.93457e-05
1.90481e-05
1.87471e-05
1.84443e-05
1.81328e-05
1.78123e-05
1.74761e-05
1.71236e-05
1.67512e-05
1.63594e-05
1.59476e-05
1.5523e-05
1.50925e-05
1.46746e-05
1.43184e-05
1.40583e-05
1.38626e-05
1.4031e-05
1.45125e-05
1.48871e-05
1.6133e-05
1.72689e-05
1.83466e-05
2.04809e-05
2.24679e-05
2.46917e-05
2.67441e-05
2.83835e-05
2.98328e-05
3.07521e-05
3.17119e-05
3.22943e-05
3.3021e-05
3.34041e-05
3.38287e-05
3.39487e-05
3.40266e-05
3.39604e-05
3.38847e-05
3.37783e-05
3.36594e-05
3.35095e-05
3.33259e-05
3.31207e-05
3.29067e-05
3.26954e-05
3.24872e-05
3.22803e-05
3.2076e-05
3.18767e-05
3.16785e-05
3.14727e-05
3.12768e-05
3.1099e-05
3.09164e-05
3.07277e-05
3.05538e-05
3.03819e-05
3.02051e-05
3.00399e-05
2.98796e-05
2.97157e-05
2.95608e-05
2.94192e-05
2.92835e-05
2.91544e-05
2.90321e-05
2.89197e-05
2.8819e-05
2.87206e-05
2.86318e-05
2.85443e-05
2.84661e-05
2.83905e-05
2.83248e-05
2.82671e-05
2.82155e-05
2.81722e-05
2.81381e-05
2.81137e-05
2.8097e-05
2.80904e-05
2.80939e-05
2.8105e-05
2.81256e-05
2.81555e-05
2.81917e-05
2.82366e-05
2.82888e-05
2.83477e-05
2.84133e-05
2.8485e-05
2.85626e-05
2.86454e-05
2.87363e-05
2.88332e-05
2.89363e-05
2.90472e-05
2.91619e-05
2.92824e-05
2.94024e-05
2.9526e-05
2.96475e-05
2.97676e-05
2.98819e-05
2.99911e-05
3.00896e-05
3.01758e-05
3.02365e-05
3.02752e-05
3.02829e-05
3.02644e-05
3.02176e-05
3.01558e-05
3.00912e-05
3.00732e-05
3.02013e-05
3.05665e-05
3.11663e-05
2.99614e-05
1.50695e-05
1.62768e-05
1.73974e-05
1.94402e-05
2.13394e-05
2.33921e-05
2.52128e-05
2.66539e-05
2.7843e-05
2.86148e-05
2.93917e-05
2.99162e-05
3.04966e-05
3.08015e-05
3.10856e-05
3.10821e-05
3.10411e-05
3.08746e-05
3.07214e-05
3.05431e-05
3.03561e-05
3.01356e-05
2.98916e-05
2.96393e-05
2.93983e-05
2.9174e-05
2.8966e-05
2.87709e-05
2.85939e-05
2.84387e-05
2.83058e-05
2.81905e-05
2.80897e-05
2.80043e-05
2.79338e-05
2.78786e-05
2.78395e-05
2.7813e-05
2.77981e-05
2.77965e-05
2.7807e-05
2.78274e-05
2.78586e-05
2.79008e-05
2.79525e-05
2.80142e-05
2.80855e-05
2.81645e-05
2.82516e-05
2.83439e-05
2.84401e-05
2.85405e-05
2.86446e-05
2.87521e-05
2.88645e-05
2.8982e-05
2.91044e-05
2.92331e-05
2.93683e-05
2.95102e-05
2.9659e-05
2.9815e-05
2.99784e-05
3.01487e-05
3.03273e-05
3.05136e-05
3.07081e-05
3.09111e-05
3.11228e-05
3.13428e-05
3.15707e-05
3.18059e-05
3.20487e-05
3.22984e-05
3.25558e-05
3.282e-05
3.30922e-05
3.33723e-05
3.36603e-05
3.39583e-05
3.42658e-05
3.45829e-05
3.49101e-05
3.52476e-05
3.55958e-05
3.59547e-05
3.63245e-05
3.67052e-05
3.7104e-05
3.75173e-05
3.79534e-05
3.84094e-05
3.88918e-05
3.93989e-05
3.9935e-05
4.04933e-05
4.10473e-05
4.15295e-05
4.14476e-05
4.13062e-05
1.51834e-05
1.63452e-05
1.74458e-05
1.94801e-05
2.13682e-05
2.34283e-05
2.52554e-05
2.67118e-05
2.79121e-05
2.86902e-05
2.94696e-05
2.99982e-05
3.05848e-05
3.08999e-05
3.11983e-05
3.12073e-05
3.11755e-05
3.10138e-05
3.08609e-05
3.06818e-05
3.04917e-05
3.02683e-05
3.00204e-05
2.97635e-05
2.95181e-05
2.92898e-05
2.90783e-05
2.8879e-05
2.86963e-05
2.85337e-05
2.83932e-05
2.827e-05
2.81604e-05
2.80647e-05
2.79835e-05
2.79152e-05
2.78616e-05
2.78207e-05
2.77901e-05
2.7772e-05
2.77652e-05
2.77663e-05
2.77776e-05
2.77992e-05
2.78279e-05
2.78668e-05
2.79147e-05
2.79681e-05
2.80295e-05
2.80973e-05
2.81681e-05
2.82428e-05
2.83217e-05
2.84035e-05
2.84899e-05
2.85812e-05
2.86767e-05
2.87784e-05
2.88856e-05
2.8998e-05
2.9116e-05
2.92409e-05
2.93718e-05
2.95095e-05
2.96537e-05
2.98054e-05
2.99633e-05
3.01287e-05
3.03003e-05
3.04782e-05
3.06621e-05
3.08514e-05
3.10453e-05
3.12434e-05
3.14457e-05
3.16517e-05
3.18624e-05
3.20775e-05
3.22975e-05
3.25227e-05
3.27527e-05
3.29886e-05
3.32305e-05
3.34798e-05
3.37377e-05
3.40056e-05
3.42857e-05
3.45795e-05
3.48901e-05
3.52179e-05
3.55637e-05
3.59315e-05
3.6336e-05
3.67794e-05
3.72806e-05
3.78498e-05
3.84995e-05
3.91912e-05
3.95184e-05
3.95972e-05
1.63726e-05
1.73832e-05
1.83943e-05
2.0485e-05
2.24359e-05
2.46545e-05
2.67152e-05
2.83826e-05
2.98569e-05
3.07941e-05
3.17628e-05
3.2355e-05
3.30938e-05
3.35021e-05
3.39616e-05
3.41175e-05
3.42268e-05
3.41825e-05
3.41216e-05
3.4025e-05
3.3911e-05
3.37619e-05
3.35787e-05
3.33701e-05
3.31548e-05
3.29433e-05
3.27351e-05
3.25285e-05
3.23211e-05
3.21146e-05
3.19128e-05
3.17026e-05
3.1489e-05
3.12876e-05
3.10939e-05
3.08763e-05
3.06643e-05
3.04652e-05
3.02503e-05
3.0036e-05
2.98337e-05
2.96206e-05
2.94085e-05
2.9208e-05
2.90008e-05
2.88017e-05
2.86131e-05
2.84174e-05
2.82298e-05
2.80549e-05
2.78765e-05
2.77003e-05
2.75333e-05
2.73642e-05
2.72011e-05
2.70437e-05
2.68887e-05
2.67437e-05
2.65989e-05
2.64571e-05
2.63278e-05
2.62038e-05
2.60842e-05
2.5972e-05
2.58624e-05
2.57603e-05
2.56603e-05
2.55649e-05
2.54679e-05
2.5372e-05
2.52713e-05
2.51662e-05
2.5054e-05
2.49319e-05
2.48009e-05
2.46571e-05
2.45019e-05
2.43329e-05
2.41502e-05
2.39528e-05
2.37393e-05
2.351e-05
2.32645e-05
2.30026e-05
2.27281e-05
2.24489e-05
2.21658e-05
2.18763e-05
2.15968e-05
2.13235e-05
2.10727e-05
2.08408e-05
2.06402e-05
2.0493e-05
2.04158e-05
2.04582e-05
2.06891e-05
2.12043e-05
2.21561e-05
2.28772e-05
1.84462e-05
1.93332e-05
2.00705e-05
2.21642e-05
2.41109e-05
2.64626e-05
2.88215e-05
3.08098e-05
3.27442e-05
3.39839e-05
3.50842e-05
3.60023e-05
3.65397e-05
3.72317e-05
3.76919e-05
3.82373e-05
3.86369e-05
3.90668e-05
3.94146e-05
3.97783e-05
4.01069e-05
4.04388e-05
4.06994e-05
4.07542e-05
4.07807e-05
4.07865e-05
4.07711e-05
4.07377e-05
4.06793e-05
4.05911e-05
4.04754e-05
4.03297e-05
4.01534e-05
3.99436e-05
3.96884e-05
3.93718e-05
3.9047e-05
3.87357e-05
3.8346e-05
3.78866e-05
3.74466e-05
3.69669e-05
3.6445e-05
3.59013e-05
3.52989e-05
3.46903e-05
3.40992e-05
3.345e-05
3.27855e-05
3.21457e-05
3.14769e-05
3.08011e-05
3.01417e-05
2.947e-05
2.88178e-05
2.81693e-05
2.75194e-05
2.68903e-05
2.62728e-05
2.56536e-05
2.5062e-05
2.44727e-05
2.38935e-05
2.33327e-05
2.27724e-05
2.22244e-05
2.16853e-05
2.11506e-05
2.06353e-05
2.01262e-05
1.96371e-05
1.91581e-05
1.86869e-05
1.82257e-05
1.77711e-05
1.73282e-05
1.68896e-05
1.646e-05
1.60393e-05
1.56241e-05
1.52196e-05
1.48229e-05
1.44371e-05
1.40578e-05
1.36949e-05
1.33353e-05
1.29938e-05
1.26628e-05
1.23499e-05
1.20528e-05
1.17778e-05
1.15221e-05
1.12964e-05
1.11025e-05
1.09569e-05
1.0835e-05
1.09037e-05
1.1115e-05
1.16184e-05
1.18918e-05
1.65061e-05
1.91026e-05
2.00685e-05
2.24672e-05
2.36466e-05
2.57662e-05
2.71353e-05
2.9016e-05
3.0324e-05
3.18661e-05
3.29051e-05
3.40901e-05
3.49367e-05
3.59114e-05
3.67151e-05
3.75967e-05
3.83831e-05
3.91996e-05
3.99538e-05
4.07152e-05
4.14414e-05
4.21646e-05
4.28661e-05
4.35501e-05
4.42091e-05
4.48433e-05
4.54472e-05
4.60194e-05
4.6555e-05
4.70513e-05
4.75034e-05
4.79107e-05
4.82679e-05
4.85743e-05
4.88255e-05
4.90187e-05
4.9154e-05
4.92312e-05
4.92433e-05
4.91911e-05
4.90533e-05
4.8874e-05
4.86783e-05
4.84053e-05
4.80325e-05
4.76412e-05
4.71985e-05
4.66827e-05
4.61292e-05
4.55165e-05
4.4833e-05
4.39539e-05
4.27571e-05
4.15124e-05
4.03284e-05
3.9093e-05
3.78572e-05
3.66476e-05
3.54371e-05
3.42245e-05
3.30435e-05
3.18706e-05
3.07125e-05
2.95935e-05
2.84932e-05
2.74166e-05
2.63789e-05
2.537e-05
2.4387e-05
2.34417e-05
2.25318e-05
2.16602e-05
2.08228e-05
2.00248e-05
1.92456e-05
1.85114e-05
1.77967e-05
1.71155e-05
1.64523e-05
1.58227e-05
1.51988e-05
1.46151e-05
1.4049e-05
1.34974e-05
1.29767e-05
1.24579e-05
1.19672e-05
1.14968e-05
1.10559e-05
1.0623e-05
1.02381e-05
9.84774e-06
9.52622e-06
9.20476e-06
8.94082e-06
8.72044e-06
8.61553e-06
8.53945e-06
8.82319e-06
9.03996e-06
1.51003e-05
1.73384e-05
1.81529e-05
2.03344e-05
2.14677e-05
2.35129e-05
2.49565e-05
2.69327e-05
2.84781e-05
3.02821e-05
3.17236e-05
3.32746e-05
3.4559e-05
3.59119e-05
3.71178e-05
3.8382e-05
3.95712e-05
4.07969e-05
4.197e-05
4.31501e-05
4.42879e-05
4.54131e-05
4.6504e-05
4.75686e-05
4.85979e-05
4.95916e-05
5.05447e-05
5.14538e-05
5.23143e-05
5.3122e-05
5.38712e-05
5.45593e-05
5.51808e-05
5.57341e-05
5.62152e-05
5.66203e-05
5.69473e-05
5.71962e-05
5.7364e-05
5.74516e-05
5.746e-05
5.73942e-05
5.72559e-05
5.70384e-05
5.67449e-05
5.63625e-05
5.59149e-05
5.54508e-05
5.49619e-05
5.4353e-05
5.36925e-05
5.30354e-05
5.23199e-05
5.15471e-05
5.07543e-05
4.99277e-05
4.90619e-05
4.818e-05
4.72692e-05
4.63279e-05
4.53825e-05
4.44133e-05
4.34271e-05
4.24505e-05
4.14445e-05
4.04201e-05
3.93899e-05
3.83334e-05
3.72649e-05
3.61682e-05
3.44938e-05
3.28866e-05
3.1291e-05
2.98142e-05
2.83472e-05
2.69737e-05
2.56237e-05
2.43516e-05
2.30924e-05
2.19114e-05
2.07249e-05
1.95908e-05
1.85176e-05
1.7486e-05
1.65243e-05
1.55762e-05
1.46376e-05
1.37033e-05
1.28998e-05
1.2109e-05
1.14042e-05
1.0584e-05
9.86594e-06
9.15473e-06
8.63096e-06
8.09507e-06
7.71255e-06
7.57406e-06
7.56675e-06
7.73517e-06
1.43017e-05
1.61463e-05
1.67359e-05
1.84912e-05
1.94215e-05
2.11878e-05
2.2537e-05
2.44324e-05
2.60643e-05
2.80233e-05
2.97582e-05
3.16579e-05
3.33549e-05
3.51292e-05
3.67516e-05
3.84256e-05
4.00088e-05
4.16357e-05
4.32129e-05
4.48116e-05
4.63743e-05
4.79315e-05
4.94558e-05
5.09545e-05
5.24155e-05
5.38381e-05
5.52233e-05
5.65672e-05
5.78642e-05
5.91104e-05
6.02983e-05
6.14198e-05
6.24685e-05
6.34407e-05
6.43306e-05
6.5133e-05
6.58442e-05
6.64623e-05
6.69841e-05
6.74076e-05
6.77306e-05
6.7953e-05
6.80744e-05
6.80937e-05
6.80117e-05
6.78322e-05
6.75591e-05
6.72006e-05
6.67522e-05
6.6202e-05
6.55657e-05
6.48241e-05
6.40222e-05
6.32019e-05
6.23046e-05
6.12716e-05
6.02126e-05
5.91331e-05
5.79713e-05
5.67663e-05
5.55604e-05
5.43179e-05
5.30361e-05
5.17615e-05
5.04882e-05
4.9193e-05
4.79083e-05
4.66448e-05
4.53774e-05
4.41198e-05
4.2881e-05
4.16417e-05
4.04116e-05
3.91965e-05
3.79816e-05
3.67741e-05
3.55884e-05
3.43839e-05
3.31927e-05
3.19882e-05
3.07791e-05
2.9532e-05
2.825e-05
2.69426e-05
2.56272e-05
2.38924e-05
2.2289e-05
2.04045e-05
1.86164e-05
1.69948e-05
1.57746e-05
1.44059e-05
1.2806e-05
1.09914e-05
9.99821e-06
9.04705e-06
7.85819e-06
7.11099e-06
6.85511e-06
6.86879e-06
1.33367e-05
1.47545e-05
1.51462e-05
1.64219e-05
1.71132e-05
1.85096e-05
1.96033e-05
2.12459e-05
2.26958e-05
2.455e-05
2.62529e-05
2.82041e-05
3.00069e-05
3.19394e-05
3.37453e-05
3.56249e-05
3.74222e-05
3.92843e-05
4.11157e-05
4.29898e-05
4.48485e-05
4.67234e-05
4.85899e-05
5.0455e-05
5.23094e-05
5.41469e-05
5.59488e-05
5.7716e-05
5.94571e-05
6.1167e-05
6.28317e-05
6.44428e-05
6.59943e-05
6.74776e-05
6.88832e-05
7.02027e-05
7.14309e-05
7.25639e-05
7.35988e-05
7.45317e-05
7.53587e-05
7.60768e-05
7.66845e-05
7.71796e-05
7.7561e-05
7.78295e-05
7.79851e-05
7.80274e-05
7.79556e-05
7.77683e-05
7.74705e-05
7.7067e-05
7.65659e-05
7.5973e-05
7.52732e-05
7.44583e-05
7.35608e-05
7.25928e-05
7.15044e-05
7.03341e-05
6.9127e-05
6.78734e-05
6.64827e-05
6.50452e-05
6.35944e-05
6.20551e-05
6.04569e-05
5.88486e-05
5.71973e-05
5.54985e-05
5.37824e-05
5.20523e-05
5.0295e-05
4.85254e-05
4.67671e-05
4.50128e-05
4.32662e-05
4.15484e-05
3.98586e-05
3.81932e-05
3.65648e-05
3.49712e-05
3.34008e-05
3.18535e-05
3.0324e-05
2.88003e-05
2.72993e-05
2.57767e-05
2.41976e-05
2.25933e-05
2.09235e-05
1.91682e-05
1.72809e-05
1.53314e-05
1.33381e-05
1.13293e-05
9.5372e-06
8.32217e-06
7.09597e-06
6.53142e-06
1.25077e-05
1.32742e-05
1.35476e-05
1.43231e-05
1.48134e-05
1.57519e-05
1.65081e-05
1.7661e-05
1.86846e-05
2.00059e-05
2.12119e-05
2.26418e-05
2.40568e-05
2.56679e-05
2.73284e-05
2.91357e-05
3.09955e-05
3.29381e-05
3.49022e-05
3.69054e-05
3.89194e-05
4.09512e-05
4.29925e-05
4.50289e-05
4.7046e-05
4.90344e-05
5.10062e-05
5.29714e-05
5.49308e-05
5.68825e-05
5.88222e-05
6.07427e-05
6.26356e-05
6.44894e-05
6.62919e-05
6.80301e-05
6.96936e-05
7.12742e-05
7.2769e-05
7.41757e-05
7.54869e-05
7.66984e-05
7.78072e-05
7.88086e-05
7.9698e-05
8.04747e-05
8.11374e-05
8.16837e-05
8.2112e-05
8.24217e-05
8.26136e-05
8.26896e-05
8.26511e-05
8.24988e-05
8.22288e-05
8.18406e-05
8.13468e-05
8.07586e-05
8.00701e-05
7.92887e-05
7.84284e-05
7.74679e-05
7.63928e-05
7.52311e-05
7.40122e-05
7.2709e-05
7.13088e-05
6.98351e-05
6.83152e-05
6.67479e-05
6.50716e-05
6.3347e-05
6.15832e-05
5.97314e-05
5.78169e-05
5.58612e-05
5.38333e-05
5.17265e-05
4.95718e-05
4.7357e-05
4.50719e-05
4.27369e-05
4.03585e-05
3.79416e-05
3.5501e-05
3.30556e-05
3.06291e-05
2.82447e-05
2.59225e-05
2.36679e-05
2.1462e-05
1.92969e-05
1.71637e-05
1.49939e-05
1.28866e-05
1.09135e-05
9.06693e-06
7.53943e-06
6.63438e-06
7.4456e-06
1.32423e-05
1.31457e-05
1.32235e-05
1.33435e-05
1.34807e-05
1.3679e-05
1.39282e-05
1.42569e-05
1.46355e-05
1.51045e-05
1.56368e-05
1.62654e-05
1.69603e-05
1.77469e-05
1.86115e-05
1.95764e-05
2.06336e-05
2.17833e-05
2.30051e-05
2.42863e-05
2.56077e-05
2.69534e-05
2.83071e-05
2.96602e-05
3.10128e-05
3.2369e-05
3.37377e-05
3.51282e-05
3.65454e-05
3.79903e-05
3.94618e-05
4.09567e-05
4.24698e-05
4.39923e-05
4.55142e-05
4.70241e-05
4.85118e-05
4.99678e-05
5.13813e-05
5.27434e-05
5.40527e-05
5.53082e-05
5.65057e-05
5.76405e-05
5.87086e-05
5.97082e-05
6.06386e-05
6.1498e-05
6.22851e-05
6.29992e-05
6.36397e-05
6.42062e-05
6.46973e-05
6.51119e-05
6.54479e-05
6.57046e-05
6.58841e-05
6.59894e-05
6.60196e-05
6.59716e-05
6.58451e-05
6.56421e-05
6.53529e-05
6.49842e-05
6.45492e-05
6.40432e-05
6.34555e-05
6.27909e-05
6.20578e-05
6.12418e-05
6.03236e-05
5.93107e-05
5.82114e-05
5.70452e-05
5.57402e-05
5.43341e-05
5.28511e-05
5.12277e-05
4.94911e-05
4.76573e-05
4.57091e-05
4.36545e-05
4.15051e-05
3.92683e-05
3.69457e-05
3.45443e-05
3.20563e-05
2.94893e-05
2.67805e-05
2.40073e-05
2.11535e-05
1.82853e-05
1.54693e-05
1.27303e-05
1.02791e-05
8.17071e-06
6.47635e-06
5.26516e-06
4.55568e-06
4.98731e-06
5.17446e-06
5.13174e-06
5.12461e-06
5.09533e-06
5.08648e-06
5.06091e-06
5.04813e-06
5.02363e-06
5.00725e-06
4.98296e-06
4.96345e-06
4.93969e-06
4.91833e-06
4.89545e-06
4.87407e-06
4.85313e-06
4.83426e-06
4.81752e-06
4.80391e-06
4.79364e-06
4.78728e-06
4.78503e-06
4.78704e-06
4.79322e-06
4.80352e-06
4.81795e-06
4.83674e-06
4.86011e-06
4.88772e-06
4.92397e-06
4.9669e-06
5.01622e-06
5.0731e-06
5.13787e-06
5.2105e-06
5.2907e-06
5.37795e-06
5.47141e-06
5.57001e-06
5.67255e-06
5.7782e-06
5.88649e-06
5.99684e-06
6.10853e-06
6.22082e-06
6.33308e-06
6.44488e-06
6.55586e-06
6.66559e-06
6.77386e-06
6.88047e-06
6.98538e-06
7.08849e-06
7.18974e-06
7.28897e-06
7.38619e-06
7.48202e-06
7.57594e-06
7.66578e-06
7.75589e-06
7.84617e-06
7.93595e-06
8.02483e-06
8.11305e-06
8.20158e-06
8.29113e-06
8.3819e-06
8.47433e-06
8.56899e-06
8.66545e-06
8.76257e-06
8.86153e-06
8.96636e-06
9.07845e-06
9.18959e-06
9.29972e-06
9.42091e-06
9.54694e-06
9.67484e-06
9.81002e-06
9.953e-06
1.0104e-05
1.02647e-05
1.04354e-05
1.06121e-05
1.07928e-05
1.09499e-05
1.10269e-05
1.09678e-05
1.06549e-05
9.86801e-06
8.42619e-06
6.5885e-06
4.56044e-06
2.97556e-06
2.08777e-06
2.09513e-06
3.31207e-06
3.22096e-06
3.40702e-06
8.5299e-06
8.00405e-07
1.01492e-06
1.34647e-06
1.67721e-06
1.98065e-06
2.30445e-06
2.65139e-06
2.99674e-06
3.35096e-06
3.70791e-06
3.99069e-06
4.18348e-06
4.29573e-06
4.41522e-06
5.08685e-06
6.7316e-06
8.01313e-06
8.3985e-06
4.33062e-06
3.78366e-06
1.02506e-06
1.03252e-06
1.24925e-06
1.47193e-06
1.7509e-06
2.07172e-06
2.40188e-06
2.74476e-06
3.13186e-06
3.4627e-06
3.75022e-06
3.98704e-06
4.19818e-06
4.66679e-06
5.86311e-06
7.63856e-06
8.51589e-06
8.27237e-06
4.45079e-06
3.39491e-06
1.49023e-06
1.51168e-06
1.4766e-06
1.62321e-06
1.84343e-06
2.10077e-06
2.41017e-06
2.78288e-06
3.23014e-06
3.46273e-06
3.675e-06
3.94187e-06
4.39923e-06
5.32287e-06
6.94042e-06
8.42047e-06
9.06628e-06
8.07398e-06
4.58173e-06
3.76144e-06
2.12152e-06
2.14274e-06
1.95976e-06
2.09897e-06
2.18421e-06
2.46461e-06
2.80271e-06
3.28571e-06
3.91699e-06
3.84737e-06
4.0826e-06
4.65054e-06
5.47685e-06
6.98467e-06
8.77428e-06
8.94372e-06
9.12194e-06
7.79051e-06
4.7253e-06
4.425e-06
3.03402e-06
3.05186e-06
2.75503e-06
3.03416e-06
3.02444e-06
3.40581e-06
3.7986e-06
4.49868e-06
5.10207e-06
5.01623e-06
5.74746e-06
6.54429e-06
7.92215e-06
9.60066e-06
9.43838e-06
9.81242e-06
8.99567e-06
7.52414e-06
4.87853e-06
5.38636e-06
4.29276e-06
4.28031e-06
3.89948e-06
4.28337e-06
4.42014e-06
5.01074e-06
5.84117e-06
7.14298e-06
7.94271e-06
8.55668e-06
9.52581e-06
1.05688e-05
1.09196e-05
1.04965e-05
1.05176e-05
9.81004e-06
8.89922e-06
7.05841e-06
4.18907e-06
6.9908e-06
6.28667e-06
6.29978e-06
6.11502e-06
6.85086e-06
7.71181e-06
9.36332e-06
1.14898e-05
1.51369e-05
1.54992e-05
1.40928e-05
1.32809e-05
1.25848e-05
1.19264e-05
1.14699e-05
1.07798e-05
1.0055e-05
8.70015e-06
6.3144e-06
3.36407e-06
1.07216e-05
1.10789e-05
1.1596e-05
1.27535e-05
1.50168e-05
1.81043e-05
2.11141e-05
1.95666e-05
1.85535e-05
1.69588e-05
1.58967e-05
1.48653e-05
1.40323e-05
1.30488e-05
1.23715e-05
1.12387e-05
1.00439e-05
8.31042e-06
5.24885e-06
2.52163e-06
2.39307e-05
2.63461e-05
2.75644e-05
2.95533e-05
2.74359e-05
2.58388e-05
2.37613e-05
2.23746e-05
2.05767e-05
1.94243e-05
1.79118e-05
1.68992e-05
1.54548e-05
1.44159e-05
1.29727e-05
1.12134e-05
9.65564e-06
7.12398e-06
3.80816e-06
1.64099e-06
3.7072e-05
3.52824e-05
3.31976e-05
3.07055e-05
2.90751e-05
2.67104e-05
2.54363e-05
2.33223e-05
2.22402e-05
2.03049e-05
1.93508e-05
1.74032e-05
1.63532e-05
1.42375e-05
1.2859e-05
9.85704e-06
7.11931e-06
4.15171e-06
2.147e-06
7.81663e-07
3.63065e-05
3.42533e-05
3.29587e-05
3.02138e-05
2.88383e-05
2.6437e-05
2.52413e-05
2.31954e-05
2.21901e-05
2.0402e-05
1.95295e-05
1.77838e-05
1.68949e-05
1.4911e-05
1.37918e-05
1.17274e-05
8.55925e-06
5.64713e-06
2.68964e-06
9.04287e-07
1.74339e-05
1.93777e-05
2.03859e-05
2.26027e-05
2.50086e-05
2.36156e-05
2.24921e-05
2.07137e-05
1.96613e-05
1.82601e-05
1.7408e-05
1.63439e-05
1.55449e-05
1.44518e-05
1.33648e-05
1.20828e-05
1.0431e-05
8.47466e-06
4.39944e-06
1.82377e-06
9.26877e-06
9.03934e-06
9.18603e-06
9.46745e-06
1.0831e-05
1.28884e-05
1.58156e-05
1.79455e-05
1.71159e-05
1.59779e-05
1.49699e-05
1.41806e-05
1.36958e-05
1.31311e-05
1.25196e-05
1.19132e-05
1.05987e-05
9.20302e-06
5.97965e-06
2.76985e-06
6.62358e-06
5.80915e-06
5.74677e-06
5.37896e-06
5.90449e-06
6.33175e-06
7.45935e-06
8.95993e-06
1.13703e-05
1.22759e-05
1.32841e-05
1.27594e-05
1.2153e-05
1.18705e-05
1.16016e-05
1.12854e-05
1.06113e-05
9.40844e-06
7.00879e-06
3.68792e-06
5.21547e-06
4.06826e-06
4.0336e-06
3.65253e-06
3.98542e-06
4.05434e-06
4.54815e-06
5.17364e-06
6.23984e-06
6.58944e-06
7.20827e-06
8.2175e-06
9.48649e-06
1.06525e-05
1.04338e-05
1.07782e-05
1.04726e-05
9.52269e-06
7.69992e-06
4.56223e-06
4.32045e-06
2.89603e-06
2.88164e-06
2.56592e-06
2.79977e-06
2.77488e-06
3.1064e-06
3.48217e-06
4.11398e-06
4.65438e-06
4.49923e-06
5.1694e-06
6.00049e-06
7.45458e-06
9.41267e-06
9.45814e-06
1.03103e-05
9.5932e-06
8.13048e-06
5.0939e-06
3.74235e-06
2.06259e-06
2.06906e-06
1.89592e-06
2.01827e-06
2.08791e-06
2.32335e-06
2.63078e-06
3.07308e-06
3.64471e-06
3.64631e-06
3.84919e-06
4.38916e-06
5.24801e-06
6.85834e-06
8.88062e-06
9.22979e-06
9.77122e-06
8.385e-06
4.93201e-06
3.50996e-06
1.44381e-06
1.43746e-06
1.43505e-06
1.58134e-06
1.8088e-06
2.05527e-06
2.3511e-06
2.68624e-06
3.10479e-06
3.3449e-06
3.56771e-06
3.81484e-06
4.25064e-06
5.23196e-06
6.98738e-06
8.5908e-06
9.57429e-06
8.64558e-06
4.77942e-06
4.16935e-06
1.01485e-06
1.01611e-06
1.22139e-06
1.44779e-06
1.71759e-06
2.0332e-06
2.36358e-06
2.70348e-06
3.07054e-06
3.39878e-06
3.6767e-06
3.89681e-06
4.09079e-06
4.57008e-06
5.88884e-06
7.85905e-06
8.96867e-06
8.85024e-06
4.64307e-06
8.99875e-06
7.98308e-07
1.01073e-06
1.34656e-06
1.66948e-06
1.96458e-06
2.27513e-06
2.60418e-06
2.93607e-06
3.29066e-06
3.64164e-06
3.92047e-06
4.09158e-06
4.18163e-06
4.30269e-06
5.02216e-06
6.84235e-06
8.34457e-06
8.97768e-06
4.51837e-06
1.23438e-06
0.000116588
0.000294231
0.000330907
0.00033481
0.000335356
0.000335357
0.000335342
0.000335343
0.000335345
0.000335345
0.000335343
0.000335342
0.000335357
0.000335356
0.00033481
0.000330907
0.000294232
0.000116588
1.23438e-06
1.37033e-06
6.81125e-05
0.000219432
0.00030942
0.0003309
0.000334526
0.000335272
0.000335315
0.000335296
0.000335287
0.000335287
0.000335296
0.000335315
0.000335272
0.000334526
0.0003309
0.00030942
0.000219431
6.81122e-05
1.37033e-06
1.51226e-06
5.29507e-05
0.000176596
0.000280686
0.000322181
0.000332509
0.000334605
0.000335101
0.000335168
0.000335172