/*--------------------------------*- C++ -*----------------------------------*\
| =========                 |                                                 |
| \\      /  F ield         | OpenFOAM: The Open Source CFD Toolbox           |
|  \\    /   O peration     | Version:  2.1.0                                 |
|   \\  /    A nd           | Web:      www.OpenFOAM.org                      |
|    \\/     M anipulation  |                                                 |
\*---------------------------------------------------------------------------*/
FoamFile
{
    version     2.0;
    format      ascii;
    class       volScalarField;
    location    "0.1";
    object      omega;
}
// * * * * * * * * * * * * * * * * * * * * * * * * * * * * * * * * * * * * * //

dimensions      [0 0 -1 0 0 0 0];

internalField   nonuniform List<scalar> 
6400
(
1453.63
1446.35
1443.02
1436.15
1431.52
1424.4
1418.7
1411.3
1404.78
1397.12
1389.98
1382.21
1374.71
1366.94
1359.39
1351.88
1344.67
1337.76
1331.31
1325.31
1319.86
1314.95
1310.6
1306.79
1303.5
1300.75
1298.54
1296.82
1296
1295.99
1296.66
1298.15
1300.49
1303.65
1307.6
1312.25
1317.48
1323.12
1329.04
1335.11
1341.28
1347.45
1353.53
1359.43
1365.09
1370.44
1375.43
1380.02
1384.18
1387.89
1391.12
1393.86
1396.09
1397.89
1398.88
1399.11
1398.99
1398.41
1397.28
1395.53
1393.12
1390.07
1386.41
1382.18
1377.38
1371.95
1365.68
1358.63
1351.09
1343.09
1334.12
1323.97
1313.09
1301.59
1289.25
1276.04
1262.1
1247.53
1232.4
1216.79
1200.71
1183.76
1165.21
1145.67
1125.21
1103.24
1079.29
1052.56
1021.5
984.347
937.923
877.277
796.197
686.02
545.095
482.593
517.938
664.791
776.346
808.558
705.698
691.324
685.186
673.982
668.117
658.871
654.082
646.871
642.474
636.627
633.187
629.552
628.191
627.747
627.7
627.957
628.821
630.328
632.424
635.008
638.029
641.415
645.123
649.11
653.356
657.842
662.553
667.47
672.575
677.85
683.272
688.818
694.468
700.203
706.004
711.856
717.744
723.654
729.582
735.53
741.502
747.498
753.521
759.574
765.665
771.807
778.018
784.307
790.686
797.169
803.773
810.516
817.418
824.5
831.777
839.264
847.01
855.063
863.443
872.17
881.279
890.778
900.694
911.05
921.847
933.061
944.822
957.167
970.187
983.898
998.307
1013.47
1029.5
1046.45
1064.37
1083.35
1103.49
1124.91
1147.76
1172.24
1197.74
1224.13
1251.85
1280.4
1309.49
1338.47
1366.62
1393.07
1416.88
1437.08
1451.36
1457.79
1458.78
1443.62
1405.2
1318.99
1198.83
1050.95
890.374
732.295
315.551
312.069
311.212
310.756
310.615
310.696
312.272
315.965
323.377
332.774
343.628
354.47
365.637
376.642
387.886
399.034
410.27
421.329
432.369
443.268
454.079
464.699
475.162
485.432
495.544
505.496
515.312
524.997
534.559
544
553.323
562.525
571.608
580.573
589.423
598.162
606.802
615.353
623.833
632.26
640.653
649.03
657.412
665.819
674.275
682.8
691.415
700.142
709.01
718.044
727.267
736.702
746.371
756.297
766.504
777.012
787.849
799.038
810.595
822.533
834.866
847.624
860.822
874.468
888.586
903.198
918.193
933.568
949.274
965.274
981.488
997.901
1014.48
1031.14
1047.84
1064.59
1081.36
1098.12
1114.9
1131.73
1148.58
1165.5
1182.53
1199.65
1216.71
1233.59
1249.95
1265.33
1278.91
1288.58
1292.92
1293.63
1280.26
1252.19
1199.67
1118.23
1004.73
860.827
701.021
551.314
163.856
182.928
191.171
207.581
215.441
229.919
238.724
252.005
262.995
276.256
288.618
301.733
314.475
327.432
340.306
353.22
366.127
378.98
391.727
404.265
416.659
428.882
440.964
452.853
464.572
476.119
487.521
498.786
509.92
520.923
531.8
542.554
553.187
563.7
574.097
584.383
594.566
604.654
614.66
624.593
634.466
644.291
654.082
663.852
673.612
683.371
693.134
702.917
712.736
722.597
732.504
742.461
752.467
762.52
772.622
782.772
792.958
803.185
813.448
823.705
833.933
844.193
854.455
864.655
874.831
884.982
895.033
904.997
914.893
924.658
934.248
943.705
952.946
961.874
970.47
978.639
986.285
993.313
999.603
1005.01
1009.31
1012.11
1013.39
1013.68
1011.41
1006.97
999.656
989.246
975.2
957.009
934.353
906.272
871.477
828.617
776.063
712.288
639.851
562.475
493.204
451.464
139.2
161.215
169.94
186.793
195.167
211.155
219.187
234.759
243.504
257.892
268.354
281.705
293.46
306.267
318.536
331.081
343.432
355.825
368.11
380.349
392.485
404.53
416.458
428.266
439.945
451.504
462.943
474.269
485.473
496.55
507.5
518.319
529.005
539.547
549.946
560.198
570.3
580.251
590.05
599.697
609.189
618.53
627.721
636.764
645.651
654.386
662.965
671.394
679.678
687.802
695.769
703.593
711.254
718.709
725.99
733.107
739.996
746.674
753.143
759.356
765.279
770.932
776.253
781.207
785.778
789.936
793.608
796.767
799.417
801.46
802.596
803.075
803.128
801.857
799.859
796.774
792.656
787.418
780.896
773.199
764.184
754.033
742.509
729.721
715.551
700.149
683.564
665.951
647.406
627.9
607.359
585.641
562.696
537.773
510.362
481.449
451.728
425.442
409.189
401.508
132.841
153.387
161.287
175.788
182.92
196.341
203.181
216.296
223.385
236.623
245.186
257.732
267.777
279.561
290.312
301.663
312.682
323.893
335.01
346.145
357.196
368.175
379.047
389.819
400.475
411.022
421.439
431.738
441.903
451.91
461.765
471.46
480.977
490.304
499.437
508.362
517.07
525.554
533.802
541.801
549.533
557.003
564.21
571.132
577.737
584.048
590.054
595.713
601.027
606.012
610.636
614.836
618.629
621.966
624.864
627.324
629.291
630.839
631.874
632.359
632.519
632.279
631.118
629.683
627.504
624.749
621.468
617.437
612.925
607.678
601.783
595.333
588.212
580.634
572.569
564.024
555.089
545.74
536.174
526.484
516.674
506.869
496.981
487.219
477.631
468.372
459.454
450.768
442.36
433.994
425.656
417.43
409.266
400.859
392.316
384.007
377.179
373.891
372.835
372.406
126.276
143.96
150.446
161.693
167.183
177.306
182.446
192.366
198.137
208.885
215.489
226.038
233.645
243.396
251.709
261.033
269.907
279.232
288.433
297.731
306.926
316.078
325.137
334.117
342.986
351.725
360.297
368.708
376.936
384.947
392.745
400.309
407.605
414.622
421.346
427.745
433.804
439.521
444.879
449.835
454.391
458.558
462.293
465.564
468.367
470.733
472.642
474.022
474.769
475.094
475.156
474.615
473.317
471.851
469.791
467.226
464.432
461.105
457.41
453.454
449.124
444.523
439.713
434.71
429.544
424.328
419.04
413.706
408.456
403.227
398.22
393.414
388.838
384.483
380.36
376.456
372.846
369.506
366.499
363.735
361.265
359.067
357.098
355.442
353.958
352.759
351.688
350.836
350.033
349.382
348.756
348.264
347.907
347.762
347.878
349.049
350.856
354.708
356.812
357.064
118.747
132.951
137.83
145.618
149.383
156.16
159.745
166.728
171.163
178.759
183.526
191.025
195.969
202.928
208.424
215.148
221.299
228
234.434
240.991
247.399
253.799
260.106
266.326
272.397
278.288
283.966
289.405
294.573
299.462
304.03
308.267
312.157
315.681
318.828
321.585
323.935
325.871
327.402
328.525
329.126
329.373
329.419
329.109
328.186
327.004
325.637
323.916
321.899
319.752
317.473
315.048
312.54
310.09
307.591
305.115
302.778
300.5
298.348
296.411
294.619
293.036
291.717
290.612
289.741
289.151
288.842
288.723
288.748
289.191
289.735
290.616
291.627
292.905
294.335
295.98
297.796
299.775
301.932
304.204
306.643
309.175
311.831
314.582
317.406
320.308
323.246
326.219
329.217
332.231
335.268
338.352
341.525
344.867
348.522
352.77
357.53
362.976
365.625
366.083
111.205
121.943
125.294
130.131
132.474
136.614
138.99
143.558
146.697
151.63
154.75
159.272
162.112
166.343
169.45
173.594
177.054
180.923
184.367
187.905
191.243
194.583
197.793
200.891
203.821
206.583
209.178
211.605
213.848
215.896
217.739
219.386
220.838
222.095
223.159
224.048
224.771
225.325
225.74
226.058
226.274
226.408
226.516
226.591
226.63
226.716
226.866
227.058
227.331
227.721
228.226
228.856
229.626
230.547
231.606
232.822
234.197
235.722
237.404
239.253
241.248
243.403
245.721
248.184
250.801
253.579
256.499
259.576
262.804
266.185
269.718
273.409
277.251
281.254
285.411
289.727
294.208
298.849
303.662
308.65
313.83
319.179
324.712
330.414
336.283
342.315
348.497
354.816
361.226
367.718
374.257
380.831
387.43
394.077
400.832
407.916
415.844
424.68
433.02
437.098
106.654
115.51
118.05
121.289
122.843
125.478
127.095
130.189
132.495
135.884
137.995
140.796
142.5
145.064
146.779
149.301
151.17
153.392
155.181
157.089
158.822
160.605
162.296
163.94
165.497
167.001
168.465
169.902
171.3
172.66
173.989
175.299
176.602
177.899
179.193
180.491
181.807
183.147
184.517
185.923
187.373
188.871
190.427
192.042
193.72
195.473
197.301
199.203
201.186
203.252
205.403
207.642
209.971
212.391
214.903
217.513
220.218
223.023
225.932
228.944
232.065
235.296
238.642
242.105
245.69
249.402
253.243
257.221
261.342
265.61
270.036
274.627
279.39
284.336
289.475
294.817
300.376
306.164
312.195
318.475
325.019
331.853
338.992
346.459
354.272
362.455
371.031
380.03
389.508
399.493
410.07
421.28
433.223
445.967
459.628
474.266
489.798
505.775
518.378
523.971
107.131
116.192
118.806
122.15
123.749
126.451
128.085
131.223
133.548
137.007
139.171
142.053
143.808
146.452
148.22
150.824
152.774
155.083
156.959
158.942
160.749
162.596
164.354
166.06
167.677
169.237
170.751
172.231
173.665
175.051
176.398
177.716
179.017
180.303
181.574
182.837
184.105
185.388
186.689
188.016
189.381
190.783
192.236
193.745
195.31
196.941
198.646
200.425
202.28
204.217
206.237
208.346
210.543
212.826
215.207
217.684
220.252
222.922
225.693
228.564
231.544
234.63
237.825
241.135
244.56
248.106
251.776
255.574
259.506
263.576
267.784
272.136
276.639
281.294
286.116
291.106
296.273
301.621
307.161
312.898
318.844
325.006
331.395
338.026
344.909
352.062
359.505
367.26
375.358
383.825
392.686
402.002
411.892
422.413
433.748
446.046
459.518
473.953
486.57
492.462
111.827
122.973
126.48
131.531
133.963
138.223
140.619
145.245
148.403
153.451
156.663
161.329
164.256
168.605
171.768
176.045
179.656
183.735
187.375
191.123
194.658
198.204
201.621
204.937
208.097
211.104
213.943
216.629
219.132
221.443
223.551
225.457
227.167
228.678
229.988
231.096
232.019
232.765
233.329
233.733
234.029
234.195
234.255
234.261
234.227
234.148
234.072
234.036
234.026
234.082
234.215
234.469
234.833
235.301
235.928
236.693
237.584
238.64
239.848
241.188
242.703
244.355
246.15
248.101
250.177
252.39
254.74
257.205
259.793
262.495
265.314
268.242
271.284
274.42
277.658
280.983
284.396
287.886
291.456
295.095
298.799
302.568
306.391
310.274
314.209
318.18
322.2
326.267
330.398
334.601
338.912
343.328
347.873
352.647
357.764
363.446
369.92
377.17
382.68
385.073
118.7
133.303
138.356
146.412
150.284
157.196
160.799
167.811
172.22
179.893
184.729
192.356
197.419
204.516
210.117
216.949
223.195
230.04
236.632
243.403
250.035
256.684
263.26
269.775
276.164
282.405
288.452
294.305
299.928
305.312
310.421
315.226
319.71
323.856
327.64
331.067
334.105
336.75
338.997
340.839
342.272
343.306
343.805
343.994
344.001
343.528
342.49
341.282
339.805
337.901
335.766
333.508
331.049
328.413
325.767
323.078
320.352
317.696
315.121
312.575
310.226
308.032
305.98
304.197
302.607
301.228
300.142
299.278
298.665
298.355
298.226
298.216
298.602
299.028
299.748
300.547
301.545
302.622
303.827
305.118
306.456
307.895
309.338
310.843
312.358
313.965
315.636
317.405
319.264
321.235
323.357
325.624
328.164
330.846
333.903
337.502
341.917
346.655
348.843
348.565
125.167
143.086
149.695
161.17
166.752
176.987
182.147
192.069
197.766
208.481
215.075
225.639
233.305
243.136
251.534
260.911
269.8
279.141
288.361
297.723
307.013
316.276
325.478
334.617
343.653
352.581
361.359
369.986
378.428
386.689
394.737
402.591
410.215
417.609
424.754
431.622
438.203
444.48
450.445
456.088
461.365
466.284
470.839
474.995
478.746
482.06
484.923
487.381
489.38
490.828
491.709
492.102
492.201
491.769
490.505
489.05
486.943
484.305
481.4
477.919
474.097
469.948
465.382
460.595
455.55
450.265
444.876
439.367
433.812
428.263
422.824
417.573
412.481
407.712
403.083
398.839
394.773
390.992
387.415
384.096
380.921
377.994
375.257
372.696
370.26
367.852
365.422
362.981
360.575
358.056
355.5
352.755
350.055
347.596
345.205
344.018
343.6
345.644
347.331
347.355
130.518
151.077
159.01
173.596
180.756
194.205
201.021
214.09
221.068
234.147
242.61
255.009
264.971
276.674
287.357
298.633
309.567
320.696
331.726
342.788
353.787
364.715
375.554
386.296
396.92
407.444
417.837
428.115
438.252
448.253
458.1
467.801
477.34
486.717
495.923
504.941
513.77
522.406
530.836
539.056
547.055
554.823
562.352
569.645
576.699
583.478
589.984
596.234
602.191
607.831
613.178
618.21
622.89
627.212
631.103
634.594
637.675
640.325
642.482
644.166
645.441
646.13
646.406
646.429
645.656
644.393
642.665
640.207
637.333
633.703
629.573
624.8
619.411
613.54
607.058
600.102
592.736
584.945
576.896
568.46
559.762
550.661
541.311
531.807
522.23
512.509
502.429
491.636
480.767
469.766
458.317
445.848
432.35
418.586
404.876
391.357
379.217
371.53
367.928
364.976
135.639
157.513
166.178
182.879
191.174
207.017
214.958
230.342
239.028
253.132
263.453
276.533
288.112
300.717
312.82
325.197
337.39
349.625
361.76
373.853
385.851
397.75
409.541
421.209
432.745
444.153
455.428
466.584
477.617
488.528
499.312
509.964
520.484
530.869
541.117
551.223
561.187
571.01
580.692
590.233
599.635
608.898
618.027
627.024
635.894
644.632
653.245
661.731
670.095
678.343
686.48
694.49
702.388
710.191
717.853
725.363
732.759
740.026
747.1
754.003
760.756
767.299
773.612
779.707
785.533
791.049
796.255
801.128
805.625
809.688
813.34
816.389
818.891
820.74
821.749
822.144
822.151
820.724
818.77
815.484
811.301
805.754
798.88
790.583
780.586
768.859
755.167
739.299
720.872
700.016
676.509
650.092
620.09
586.602
550.383
511.335
472.378
436.44
411.684
397.466
158.989
177.822
185.972
202.32
210.144
224.381
233.182
246.012
256.787
269.656
281.773
294.603
307.118
319.816
332.462
345.125
357.803
370.425
383.023
395.461
407.729
419.796
431.731
443.474
455.047
466.42
477.628
488.677
499.584
510.351
520.98
531.469
541.826
552.052
562.151
572.125
581.982
591.73
601.38
610.943
620.433
629.862
639.244
648.592
657.914
667.218
676.533
685.879
695.27
704.719
714.238
723.834
733.514
743.288
753.152
763.111
773.173
783.336
793.588
803.933
814.381
824.906
835.474
846.116
856.837
867.558
878.306
889.126
899.971
910.808
921.688
932.58
943.461
954.295
965.093
975.801
986.35
996.675
1006.75
1016.39
1025.53
1034
1041.64
1048.2
1053.05
1055.4
1056.15
1053.86
1047.14
1036.02
1017.89
992.318
957.041
911.035
852.094
777.899
691.956
598.797
516.908
458.24
311.311
307.682
306.78
306.227
306.004
305.961
306.933
309.7
316.072
324.744
335.16
345.701
356.602
367.335
378.334
389.27
400.354
411.306
422.217
432.966
443.651
454.17
464.54
474.707
484.706
494.526
504.194
513.714
523.098
532.347
541.462
550.442
559.287
567.995
576.569
585.012
593.331
601.534
609.635
617.649
625.594
633.488
641.351
649.2
657.055
664.935
672.866
680.874
688.986
697.228
705.626
714.207
722.996
732.02
741.306
750.881
760.774
771.014
781.629
792.651
804.106
816.019
828.417
841.326
854.769
868.756
883.325
898.523
914.407
930.764
947.667
965.043
982.864
1001.05
1019.57
1038.41
1057.52
1076.83
1096.35
1116.04
1135.89
1155.95
1176.24
1196.76
1217.47
1238.33
1259.16
1279.45
1298.5
1315.14
1324.75
1328.27
1320.7
1289.5
1234.81
1154.87
1045.6
909.566
745.36
581.068
702.927
688.404
682.151
670.618
664.403
654.615
649.253
641.538
636.638
630.216
626.289
621.913
619.575
618.602
618.395
618.442
618.953
620.105
621.887
624.194
626.966
630.134
633.645
637.446
641.509
645.811
650.338
655.069
659.983
665.059
670.278
675.616
681.05
686.557
692.121
697.724
703.352
708.992
714.633
720.267
725.898
731.529
737.162
742.798
748.45
754.133
759.848
765.596
771.384
777.228
783.147
789.159
795.283
801.541
807.954
814.546
821.345
828.381
835.68
843.279
851.221
859.54
868.27
877.448
887.12
897.343
908.108
919.402
931.183
943.698
956.911
970.914
985.774
1001.52
1018.18
1035.85
1054.67
1074.65
1095.88
1118.48
1142.57
1168.27
1195.76
1224.67
1254.31
1284.68
1314.67
1342.8
1367.18
1383.35
1390.13
1390.93
1379.77
1360.56
1326.25
1267.18
1176.31
1057.48
921.193
766.538
1452.8
1445.37
1441.97
1434.97
1430.26
1423.01
1417.21
1409.65
1403
1395.17
1387.84
1379.86
1372.11
1364.09
1356.21
1348.34
1340.71
1333.33
1326.34
1319.77
1313.7
1308.16
1303.16
1298.69
1294.74
1291.29
1288.39
1286.04
1284.19
1283.33
1283.31
1284.01
1285.55
1287.98
1291.25
1295.31
1300.07
1305.42
1311.21
1317.29
1323.55
1329.91
1336.3
1342.65
1348.85
1354.85
1360.58
1366
1371.06
1375.74
1380.02
1383.87
1387.29
1390.25
1392.74
1394.73
1396.27
1397.33
1397.66
1397.63
1397.23
1396.35
1394.96
1393.02
1390.6
1387.7
1384.3
1380.39
1375.95
1370.9
1365.09
1358.53
1351.41
1343.76
1334.91
1324.73
1313.94
1302.01
1288.61
1273.94
1257.89
1240.29
1221.08
1200.08
1176.91
1151.32
1121.92
1086.38
1043.09
988.759
917.383
825.468
724.635
620.2
536.352
491.067
515.223
667.954
798.692
837.347
754.874
297.572
165.166
112.543
88.5958
70.1234
56.9396
50.8471
45.2844
42.8134
42.1456
43.5957
50.9522
67.0217
95.0289
151.734
246.181
382.946
563.601
715.088
611.27
301.161
199.015
142.036
108.263
85.3916
72.8987
62.6289
56.0077
53.2167
52.585
55.5341
66.2818
83.9204
120.726
183.533
279.957
406.59
562.797
685.732
495.341
294.958
224.653
163.811
128.658
104.492
86.3704
75.0073
69.0062
66.806
66.6941
72.2323
84.5717
110.117
152.585
221.317
314.3
426.051
557.975
652.162
414.476
282.796
235.108
174.165
145.949
117.586
102.751
92.0375
87.0282
85.1582
85.0844
93.5217
113.674
143.885
194.642
263.941
348.087
441.912
545.831
614.057
362.835
275.089
240.599
188.048
164.987
137.645
124.99
113.555
108.795
107.068
110.402
128.897
152.362
190.633
242.876
304.994
373.968
444.188
522.161
571.998
329.808
270.09
243.903
199.808
180.963
157.498
147.301
140.465
138.524
142.692
157.443
179.603
207.879
247.668
292.728
342.315
392.582
438.078
486.846
526.996
314.873
274.33
255.162
223.012
209.379
196.41
192.235
191.376
198.221
209.742
227.699
248.776
274.703
304.87
335.279
366.009
391.585
420.691
437.558
480.38
330.107
309.579
300.548
287.284
282.632
280.573
280.054
282.878
289.624
298.167
309.659
321.437
335.616
349.172
361.882
371.944
381.056
383.362
376.671
435.475
424.548
414.974
410.482
397.398
391.319
383.302
379.491
375.898
374.216
373.045
372.532
372.197
371.813
369.905
366.3
362.732
351.205
323.927
308.558
391.756
508.483
491.428
483.802
465.31
456.657
441.965
434.697
422.649
416.578
406.332
400.333
390.434
382.185
369.068
353.921
330.052
297.157
262.725
247.64
352.549
481.343
465.699
459.126
443.421
436.196
425.201
419.801
412.159
408.375
402.867
399.699
394.687
390.298
383.363
374.76
356.803
327.519
288.151
267.898
357.966
364.17
357.141
353.245
345.14
341.84
339.746
339.026
341.541
346.1
352.465
359.437
367.67
374.99
381.863
385.138
387.155
385.853
362.431
341.725
400.608
308.464
281.329
268.834
247.997
240.013
236.164
235.737
242.055
251.189
266.72
283.636
305.214
327.777
352.256
374.271
393.774
410.247
417.07
411.577
448.469
305.788
263.777
243.625
208.708
193.757
176.802
170.195
167.543
170.265
183.49
203.656
229.059
261.972
300.781
341.523
382.182
417.36
452.536
474.346
498.456
322.587
262.296
236.165
192.788
173.857
149.906
139.278
130.895
128.155
128.085
142.642
165.23
196.088
241.287
294.475
353.851
413.877
467.969
522.736
548.933
355.257
267.348
232.5
179.931
156.804
129.691
117.136
106.74
102.341
100.85
102.287
120.22
144.603
184.786
242.662
313.362
392.749
472.882
557.311
597.221
408.542
276.951
229.395
170.121
142.124
113.702
97.689
86.9253
81.8635
80.138
80.8833
88.3533
108.744
140.561
194.026
269.609
363.383
467.07
579.875
641.855
495.684
287.842
216.177
158.363
124.454
101.529
83.7102
72.4655
65.9763
63.5309
63.2672
69.0615
81.3945
107.717
153.104
226.281
327.862
450.137
590.787
681.725
630.588
296.889
194.826
136.801
105.28
82.8731
70.1266
60.4787
54.0566
51.2824
50.6135
53.0748
63.9406
82.4677
121.012
187.806
291.345
428.656
594.778
716.644
784.71
296.83
161.734
109.508
85.2638
69.2734
55.747
49.2393
43.9061
41.4673
40.8273
42.4072
49.2554
65.6016
96.0233
155.848
256.905
404.134
595.193
747.041
646.09
32.1663
12.7342
11.3228
11.19
11.171
11.1705
11.1708
11.1706
11.1705
11.1705
11.1706
11.1708
11.1705
11.171
11.19
11.3228
12.7342
32.1663
646.09
672.851
55.1078
17.0504
12.0902
11.3042
11.1803
11.1547
11.1529
11.1534
11.1536
11.1536
11.1534
11.1529
11.1547
11.1803
11.3042
12.0902
17.0505
55.108
672.851
698.24
71.0168
21.1374
13.2981
11.5861
11.2259
11.1551
11.1382
11.1358
11.1355
11.1355
11.1358
11.1382
11.1551
11.2259
11.5861
13.2981
21.1374
71.0164
698.24
722.953
85.7329
25.1115
14.6388
12.0407
11.3362
11.1683
11.1265
11.1182
11.1171
11.1171
11.1182
11.1265
11.1683
11.3362
12.0407
14.6388
25.1115
85.7331
722.953
747.055
102.081
29.2475
16.077
12.5925
11.5249
11.2066
11.1274
11.105
11.1004
11.1004
11.105
11.1274
11.2066
11.5249
12.5926
16.077
29.2475
102.081
747.055
769.541
118.626
33.4105
17.5537
13.2021
11.7644
11.2838
11.1367
11.0945
11.0843
11.0843
11.0945
11.1367
11.2838
11.7644
13.2021
17.5536
33.4104
118.626
769.541
790.437
134.767
37.5291
19.0408
13.8463
12.0414
11.3865
11.1599
11.0917
11.0718
11.0718
11.0917
11.1599
11.3865
12.0414
13.8463
19.0408
37.5292
134.767
790.437
810.682
150.976
41.7151
20.5649
14.5271
12.3535
11.5162
11.2025
11.0954
11.0624
11.0624
11.0954
11.2025
11.5162
12.3535
14.5271
20.5649
41.7149
150.976
810.681
830.181
167.22
45.9884
22.1334
15.2429
12.6971
11.6709
11.2604
11.1065
11.0594
11.0594
11.1065
11.2604
11.6709
12.6971
15.2429
22.1334
45.9883
167.22
830.181
847.967
182.693
50.1916
23.7017
15.9736
13.061
11.8451
11.3334
11.1294
11.062
11.062
11.1294
11.3334
11.8451
13.061
15.9736
23.7018
50.1917
182.693
847.967
863.889
197.073
54.2232
25.2324
16.7008
13.4343
12.0326
11.4185
11.1612
11.0699
11.0699
11.1612
11.4185
12.0326
13.4342
16.7008
25.2324
54.2231
197.073
863.889
878.691
210.87
58.1662
26.7429
17.4275
13.816
12.2319
11.5147
11.2017
11.0861
11.0861
11.2017
11.5147
12.2319
13.816
17.4275
26.7428
58.166
210.87
878.692
892.665
224.401
62.1209
28.2661
18.166
14.2106
12.4443
11.6229
11.2521
11.1108
11.1108
11.2521
11.6229
12.4443
14.2106
18.166
28.2662
62.121
224.401
892.666
905.288
237.311
66.0448
29.7982
18.916
14.6175
12.6693
11.7427
11.3126
11.1446
11.1446
11.3126
11.7427
12.6693
14.6174
18.9159
29.798
66.0442
237.31
905.288
916.186
249.151
69.8071
31.2973
19.6599
15.0276
12.9014
11.8712
11.3817
11.1866
11.1866
11.3817
11.8712
12.9014
15.0276
19.6599
31.2972
69.8069
249.15
916.187
925.703
259.982
73.3687
32.7404
20.3857
15.4338
13.1364
12.0056
11.458
11.236
11.236
11.458
12.0055
13.1363
15.4337
20.3856
32.7402
73.3682
259.981
925.704
934.344
270.195
76.8158
34.1492
21.0995
15.8376
13.3741
12.1454
11.541
11.2924
11.2924
11.541
12.1454
13.374
15.8374
21.0991
34.1485
76.814
270.192
934.345
942.118
279.944
80.2229
35.5535
21.8141
16.2449
13.6172
12.292
11.6315
11.3567
11.3566
11.6315
12.292
13.6172
16.2448
21.8139
35.553
80.2213
279.94
942.119
948.693
288.996
83.5552
36.9517
22.5317
16.6575
13.867
12.4462
11.7301
11.4292
11.4292
11.73
12.4462
13.8669
16.6573
22.5314
36.9511
83.5534
288.991
948.695
953.98
297.112
86.7242
38.3141
23.2404
17.0697
14.12
12.6057
11.835
11.5086
11.5086
11.8349
12.6056
14.1198
17.0692
23.2394
38.3118
86.7184
297.103
953.984
958.3
304.336
89.6712
39.6085
23.9239
17.4724
14.371
12.7671
11.9441
11.5932
11.5932
11.9441
12.767
14.3708
17.472
23.9231
39.6063
89.6654
304.327
958.307
962.013
310.927
92.4327
40.8367
24.5793
17.8629
14.618
12.9294
12.057
11.6829
11.6829
12.0569
12.9292
14.6177
17.8625
24.5786
40.8349
92.4273
310.915
962.019
965.155
317.078
95.1146
42.0415
25.2251
18.2498
14.8649
13.0938
12.1733
11.7767
11.7766
12.1732
13.0935
14.8643
18.2488
25.2231
42.0368
95.1017
317.057
965.166
967.538
322.723
97.7308
43.2372
25.8708
18.6386
15.1143
13.2611
12.2929
11.874
11.8739
12.2927
13.2607
15.1134
18.6369
25.8673
43.229
97.7098
322.692
967.556
969.099
327.665
100.153
44.3761
26.4972
19.0216
15.3642
13.4327
12.4191
11.979
11.979
12.4189
13.4323
15.3636
19.0203
26.4946
44.3699
100.136
327.639
969.126
969.957
331.81
102.314
45.4309
27.0908
19.3907
15.61
13.606
12.5506
12.091
12.0909
12.5503
13.6055
15.6093
19.3895
27.088
45.4237
102.294
331.781
969.989
970.356
335.29
104.259
46.4096
27.6533
19.746
15.8496
13.7767
12.681
12.2025
12.2024
12.6808
13.7762
15.8485
19.7437
27.6481
46.3962
104.221
335.243
970.401
970.916
338.403
105.995
47.3011
28.1797
20.0856
16.0807
13.9407
12.8047
12.3071
12.3069
12.8042
13.9397
16.0788
20.0819
28.172
47.2832
105.948
338.349
970.969
970.959
341.089
107.465
48.0774
28.6516
20.3992
16.2994
14.0999
12.9287
12.4145
12.4143
12.928
14.0985
16.2968
20.3943
28.6422
48.0578
107.419
341.044
971.051
970.809
343.363
108.692
48.7505
29.0691
20.6795
16.5013
14.2555
13.058
12.532
12.5317
13.0572
14.254
16.4989
20.6758
29.0618
48.7316
108.641
343.31
970.912
970.412
345.26
109.774
49.3646
29.4604
20.9446
16.6964
14.4118
13.1929
12.657
12.6568
13.1924
14.4113
16.6957
20.9425
29.4533
49.344
109.713
345.207
970.53
969.692
346.897
110.763
49.9387
29.846
21.2212
16.9069
14.5807
13.3359
12.7874
12.7874
13.3359
14.5805
16.9064
21.2199
29.8421
49.924
110.712
346.881
969.843
969.004
348.211
111.549
50.4531
30.2259
21.5184
17.1447
14.7712
13.4925
12.9265
12.9264
13.4921
14.7702
17.143
21.5161
30.2214
50.44
111.508
348.232
969.183
968.355
349.049
112.031
50.8798
30.5845
21.8239
17.3981
14.9738
13.6571
13.072
13.072
13.6569
14.9723
17.394
21.8174
30.5756
50.863
111.998
349.117
968.552
967.848
349.733
112.358
51.233
30.9107
22.1201
17.6533
15.1828
13.8302
13.2269
13.2265
13.8288
15.1792
17.6476
22.1125
30.9026
51.224
112.354
349.867
968.054
967.222
350.51
112.71
51.567
31.231
22.4159
17.9095
15.3955
14.0116
13.3935
13.3925
14.0085
15.3893
17.9005
22.41
31.2334
51.5825
112.768
350.75
967.416
966.376
351.358
113.115
51.9218
31.5849
22.749
18.1916
15.6292
14.2185
13.5909
13.5908
14.2179
15.626
18.1852
22.7436
31.5914
51.9535
113.204
351.652
966.551
965.454
352.365
113.576
52.3295
32.007
23.1517
18.5347
15.9145
14.4719
13.8345
13.8362
14.4754
15.9132
18.5256
23.1468
32.0171
52.3598
113.636
352.632
965.615
964.415
353.693
114.169
52.8484
32.5352
23.6484
18.9508
16.257
14.7744
14.123
14.1267
14.7848
16.266
18.9468
23.6369
32.5436
52.8726
114.191
353.94
964.555
962.914
355.145
114.972
53.5289
33.179
24.2296
19.4264
16.6309
15.0929
14.4222
14.4288
15.1125
16.6489
19.4225
24.2224
33.2032
53.5803
115.051
355.479
962.998
960.562
356.047
115.983
54.3639
33.9151
24.8513
19.9022
16.9869
15.3808
14.6853
14.6944
15.4057
17.0095
19.904
24.8558
33.9707
54.4828
116.227
356.511
960.54
957.196
356.168
117.088
55.2452
34.6406
25.441
20.3274
17.2681
15.5933
14.8743
14.8825
15.6164
17.2864
20.325
25.4585
34.735
55.4372
117.482
356.671
957.037
952.918
356.029
118.074
56.002
35.2509
25.9007
20.6152
17.4316
15.7005
14.9622
14.9695
15.7146
17.4355
20.6181
25.9369
35.3719
56.2441
118.512
356.495
952.622
948.012
355.581
118.754
56.482
35.6329
26.1658
20.7545
17.4799
15.7169
14.973
14.9788
15.7242
17.4709
20.7497
26.2204
35.785
56.7485
119.164
355.911
947.596
942.831
355.485
119.092
56.6526
35.7744
26.2536
20.7705
17.4622
15.6842
14.9361
14.9402
15.6871
17.448
20.764
26.3125
35.94
56.9206
119.435
355.713
942.313
937.676
355.938
119.156
56.6384
35.7661
26.2307
20.6968
17.3319
15.5223
14.7539
14.7523
15.5103
17.3039
20.6819
26.2871
35.931
56.9018
119.455
356.078
937.085
932.781
358.573
118.974
56.3726
35.5451
25.9692
20.3402
16.8618
14.9779
14.1646
14.1525
14.9384
16.7962
20.2911
26.0105
35.7014
56.6164
119.227
358.516
932.136
928.266
366.475
117.584
55.1884
34.5914
24.9699
19.1403
15.4606
13.4986
12.6542
12.6257
13.4133
15.3136
18.9949
24.9445
34.7021
55.3634
117.655
366.227
927.594
924.207
373.657
116.706
52.2374
32.0164
22.5356
16.8249
13.3769
11.5785
10.7956
10.7575
11.4704
13.1931
16.6162
22.4354
32.0557
52.3111
116.559
373.413
923.541
920.656
378.125
117.073
49.5179
29.174
19.9412
14.5017
11.3646
9.7466
9.03691
8.99821
9.62159
11.1601
14.2617
19.7997
29.1508
49.5273
116.871
377.817
920.031
917.613
381.056
118.684
47.2599
26.6307
17.5854
12.4188
9.57291
8.129
7.49634
7.45112
7.99965
9.36017
12.1893
17.4119
26.5478
47.1619
118.35
380.624
917.069
915.07
382.947
120.591
45.287
24.4756
15.5919
10.6921
8.08042
6.79361
6.22521
6.18039
6.67537
7.87288
10.442
15.4175
24.3588
45.0878
119.908
382.357
914.615
912.997
383.903
121.389
43.5828
22.7455
14.0233
9.33325
6.94034
5.7753
5.2526
5.20596
5.64156
6.73595
9.07364
13.8168
22.5888
43.3182
120.403
383.187
912.639
911.318
384.159
121.493
42.2173
21.4129
12.8447
8.36597
6.12119
5.04045
4.56148
4.51646
4.90498
5.90771
8.06403
12.6096
21.2206
41.8724
120.395
383.373
911.088
910.005
384.109
121.41
41.1883
20.4429
12.0116
7.67855
5.55101
4.53404
4.0918
4.05507
4.419
5.34943
7.38845
11.7694
20.2162
40.7614
120.152
383.267
909.892
909
383.733
121.089
40.4337
19.759
11.4427
7.20957
5.17808
4.20958
3.78719
3.76854
4.12317
5.01752
6.98679
11.195
19.5142
39.9705
119.51
382.741
908.967
908.214
383.078
120.429
39.8889
19.2976
11.0497
6.91019
4.94501
4.00991
3.60625
3.59943
3.94813
4.81274
6.72838
10.8476
19.0844
39.4641
119.025
382.245
908.235
907.581
382.495
119.833
39.5203
19.0048
10.8157
6.72833
4.79646
3.87985
3.48792
3.47362
3.8201
4.68507
6.56202
10.6442
18.8295
39.1759
118.746
381.765
907.658
907.062
381.989
119.381
39.2957
18.8289
10.6626
6.61908
4.7064
3.79084
3.4075
3.40554
3.75159
4.6043
6.4733
10.5068
18.6683
39.0427
118.51
381.162
907.231
906.646
381.543
119.076
39.1683
18.7101
10.5705
6.55777
4.66604
3.75615
3.37653
3.37307
3.71813
4.56002
6.40519
10.4428
18.5867
38.9162
118.253
380.758
906.938
906.312
381.171
118.902
39.099
18.6288
10.5015
6.51236
4.63199
3.73565
3.36245
3.35209
3.69106
4.53679
6.37106
10.3796
18.5155
38.8528
118.003
380.496
906.732
906.041
380.837
118.765
39.0752
18.5837
10.445
6.47455
4.61229
3.71506
3.34007
3.32585
3.6592
4.49749
6.33543
10.354
18.4822
38.7759
117.784
380.309
906.56
905.823
380.486
118.548
39.0294
18.5684
10.4283
6.44362
4.59355
3.70657
3.3331
3.31671
3.6501
4.48968
6.32712
10.3113
18.4396
38.7179
117.572
380.064
906.416
905.668
380.056
118.206
38.9746
18.5334
10.3907
6.40805
4.548
3.68111
3.31934
3.31482
3.65119
4.48632
6.31668
10.2995
18.4065
38.6728
117.464
379.911
906.284
905.56
379.553
117.756
38.8429
18.4763
10.3581
6.37648
4.53123
3.66877
3.31966
3.31649
3.64816
4.48935
6.33786
10.2877
18.3892
38.6745
117.457
379.882