/*--------------------------------*- C++ -*----------------------------------*\
| =========                 |                                                 |
| \\      /  F ield         | OpenFOAM: The Open Source CFD Toolbox           |
|  \\    /   O peration     | Version:  2.1.0                                 |
|   \\  /    A nd           | Web:      www.OpenFOAM.org                      |
|    \\/     M anipulation  |                                                 |
\*---------------------------------------------------------------------------*/
FoamFile
{
    version     2.0;
    format      ascii;
    class       surfaceScalarField;
    location    "0.1";
    object      phi;
}
// * * * * * * * * * * * * * * * * * * * * * * * * * * * * * * * * * * * * * //

dimensions      [0 3 -1 0 0 0 0];

internalField   nonuniform List<scalar> 
12460
(
-2.63294e-05
-4.6209e-08
-2.62733e-05
-5.61298e-08
-2.61981e-05
-7.51857e-08
-2.61054e-05
-9.26831e-08
-2.59977e-05
-1.07721e-07
-2.58772e-05
-1.20452e-07
-2.57463e-05
-1.30982e-07
-2.56064e-05
-1.39858e-07
-2.54591e-05
-1.47325e-07
-2.53053e-05
-1.53798e-07
-2.51459e-05
-1.59376e-07
-2.49816e-05
-1.6431e-07
-2.4813e-05
-1.68611e-07
-2.46406e-05
-1.7241e-07
-2.44649e-05
-1.75684e-07
-2.42864e-05
-1.78533e-07
-2.41054e-05
-1.80987e-07
-2.39222e-05
-1.83173e-07
-2.3737e-05
-1.8516e-07
-2.355e-05
-1.8705e-07
-2.33611e-05
-1.8889e-07
-2.31704e-05
-1.90712e-07
-2.29779e-05
-1.92487e-07
-2.27837e-05
-1.94152e-07
-2.25881e-05
-1.95618e-07
-2.23913e-05
-1.96801e-07
-2.21937e-05
-1.97634e-07
-2.19956e-05
-1.98074e-07
-2.17975e-05
-1.98105e-07
-2.15998e-05
-1.9772e-07
-2.14029e-05
-1.96944e-07
-2.1207e-05
-1.95835e-07
-2.10125e-05
-1.94467e-07
-2.08196e-05
-1.92927e-07
-2.06283e-05
-1.91312e-07
-2.04386e-05
-1.89722e-07
-2.02503e-05
-1.88248e-07
-2.00634e-05
-1.86956e-07
-1.98775e-05
-1.85886e-07
-1.96924e-05
-1.85077e-07
-1.95079e-05
-1.84569e-07
-1.93235e-05
-1.84385e-07
-1.91389e-05
-1.84554e-07
-1.89538e-05
-1.85109e-07
-1.87677e-05
-1.86077e-07
-1.85803e-05
-1.87472e-07
-1.8391e-05
-1.89291e-07
-1.81994e-05
-1.91525e-07
-1.80053e-05
-1.9418e-07
-1.7808e-05
-1.97276e-07
-1.76071e-05
-2.00843e-07
-1.74023e-05
-2.04868e-07
-1.7193e-05
-2.09279e-07
-1.6979e-05
-2.14032e-07
-1.67598e-05
-2.19146e-07
-1.65352e-05
-2.24601e-07
-1.63049e-05
-2.30359e-07
-1.60684e-05
-2.36444e-07
-1.58256e-05
-2.42851e-07
-1.55761e-05
-2.49473e-07
-1.53198e-05
-2.56307e-07
-1.50564e-05
-2.634e-07
-1.47857e-05
-2.70643e-07
-1.45077e-05
-2.78024e-07
-1.4222e-05
-2.85672e-07
-1.39285e-05
-2.93535e-07
-1.3627e-05
-3.01496e-07
-1.33174e-05
-3.09604e-07
-1.29995e-05
-3.17913e-07
-1.2673e-05
-3.26462e-07
-1.23378e-05
-3.35267e-07
-1.19935e-05
-3.44248e-07
-1.16402e-05
-3.53317e-07
-1.12777e-05
-3.6254e-07
-1.09056e-05
-3.72099e-07
-1.05235e-05
-3.82089e-07
-1.01309e-05
-3.92601e-07
-9.72699e-06
-4.03876e-07
-9.31071e-06
-4.16286e-07
-8.88039e-06
-4.30322e-07
-8.43378e-06
-4.46608e-07
-7.96788e-06
-4.65898e-07
-7.47889e-06
-4.88993e-07
-6.96237e-06
-5.16513e-07
-6.41332e-06
-5.49051e-07
-5.82616e-06
-5.8716e-07
-5.19545e-06
-6.30715e-07
-4.51705e-06
-6.78396e-07
-3.79023e-06
-7.26828e-07
-3.0217e-06
-7.68527e-07
-2.23332e-06
-7.88375e-07
-1.47761e-06
-7.55718e-07
-8.48462e-07
-6.29143e-07
-4.55907e-07
-3.92555e-07
-3.58115e-07
-9.77918e-08
-6.10582e-07
2.52468e-07
-1.49249e-06
8.81907e-07
-3.69948e-06
2.20699e-06
-8.95656e-06
5.25708e-06
1.45451e-05
-2.35017e-05
-3.42978e-05
-1.01776e-07
-3.41664e-05
-1.87536e-07
-3.3993e-05
-2.4859e-07
-3.37941e-05
-2.91538e-07
-3.35792e-05
-3.22574e-07
-3.33534e-05
-3.46261e-07
-3.31198e-05
-3.64667e-07
-3.288e-05
-3.79597e-07
-3.26356e-05
-3.91731e-07
-3.23875e-05
-4.01878e-07
-3.21367e-05
-4.10177e-07
-3.1884e-05
-4.17023e-07
-3.16302e-05
-4.22429e-07
-3.1376e-05
-4.26654e-07
-3.11219e-05
-4.29718e-07
-3.08686e-05
-4.31817e-07
-3.06166e-05
-4.32996e-07
-3.03664e-05
-4.33446e-07
-3.01183e-05
-4.33244e-07
-2.98728e-05
-4.32563e-07
-2.96302e-05
-4.31488e-07
-2.93907e-05
-4.30137e-07
-2.91547e-05
-4.28557e-07
-2.8922e-05
-4.26772e-07
-2.86929e-05
-4.24747e-07
-2.84673e-05
-4.22445e-07
-2.82451e-05
-4.19825e-07
-2.80263e-05
-4.16858e-07
-2.78109e-05
-4.13524e-07
-2.75988e-05
-4.09819e-07
-2.73899e-05
-4.0578e-07
-2.71843e-05
-4.01475e-07
-2.69818e-05
-3.96992e-07
-2.67823e-05
-3.92433e-07
-2.65857e-05
-3.87908e-07
-2.63919e-05
-3.83535e-07
-2.62007e-05
-3.79421e-07
-2.6012e-05
-3.75658e-07
-2.58255e-05
-3.72333e-07
-2.56411e-05
-3.69523e-07
-2.54584e-05
-3.67291e-07
-2.52771e-05
-3.65668e-07
-2.50969e-05
-3.64694e-07
-2.49176e-05
-3.6442e-07
-2.47388e-05
-3.64886e-07
-2.45602e-05
-3.66111e-07
-2.43814e-05
-3.68081e-07
-2.42022e-05
-3.70766e-07
-2.40222e-05
-3.74171e-07
-2.38411e-05
-3.78313e-07
-2.36587e-05
-3.83232e-07
-2.34747e-05
-3.88909e-07
-2.32888e-05
-3.95197e-07
-2.31008e-05
-4.02017e-07
-2.29105e-05
-4.09415e-07
-2.27178e-05
-4.17331e-07
-2.25225e-05
-4.25684e-07
-2.23244e-05
-4.34537e-07
-2.21234e-05
-4.43851e-07
-2.19194e-05
-4.53419e-07
-2.17125e-05
-4.63231e-07
-2.15026e-05
-4.73355e-07
-2.12896e-05
-4.83591e-07
-2.10738e-05
-4.93879e-07
-2.08551e-05
-5.04376e-07
-2.06335e-05
-5.15054e-07
-2.04092e-05
-5.25833e-07
-2.0182e-05
-5.36757e-07
-1.99522e-05
-5.47788e-07
-1.97196e-05
-5.59009e-07
-1.94844e-05
-5.70528e-07
-1.92463e-05
-5.82261e-07
-1.90055e-05
-5.94118e-07
-1.87618e-05
-6.06257e-07
-1.85149e-05
-6.18986e-07
-1.82645e-05
-6.32483e-07
-1.80102e-05
-6.46988e-07
-1.77511e-05
-6.62922e-07
-1.74865e-05
-6.80858e-07
-1.72153e-05
-7.01525e-07
-1.69361e-05
-7.2583e-07
-1.66472e-05
-7.54837e-07
-1.63464e-05
-7.89751e-07
-1.60313e-05
-8.31593e-07
-1.56991e-05
-8.81261e-07
-1.53468e-05
-9.39529e-07
-1.49715e-05
-1.00599e-06
-1.45716e-05
-1.07827e-06
-1.41475e-05
-1.1509e-06
-1.37035e-05
-1.21253e-06
-1.325e-05
-1.24189e-06
-1.28041e-05
-1.20162e-06
-1.23966e-05
-1.03669e-06
-1.20998e-05
-6.8932e-07
-1.21143e-05
-8.3294e-08
-1.25806e-05
7.18779e-07
-1.38046e-05
2.10587e-06
-1.62869e-05
4.68929e-06
-2.10141e-05
9.98431e-06
2.48772e-05
-3.13462e-05
-3.69065e-05
-1.54009e-07
-3.6778e-05
-3.16112e-07
-3.66141e-05
-4.12455e-07
-3.64316e-05
-4.74018e-07
-3.62389e-05
-5.15321e-07
-3.60401e-05
-5.44996e-07
-3.58378e-05
-5.6699e-07
-3.56333e-05
-5.84124e-07
-3.54274e-05
-5.97596e-07
-3.52208e-05
-6.08502e-07
-3.50138e-05
-6.17226e-07
-3.48065e-05
-6.24279e-07
-3.45992e-05
-6.2976e-07
-3.43919e-05
-6.33911e-07
-3.41849e-05
-6.36725e-07
-3.39784e-05
-6.38312e-07
-3.37728e-05
-6.38654e-07
-3.35683e-05
-6.37897e-07
-3.33654e-05
-6.36115e-07
-3.31645e-05
-6.33498e-07
-3.29658e-05
-6.30167e-07
-3.27697e-05
-6.26288e-07
-3.25762e-05
-6.21977e-07
-3.23857e-05
-6.17355e-07
-3.21979e-05
-6.1247e-07
-3.20131e-05
-6.07334e-07
-3.18309e-05
-6.01932e-07
-3.16516e-05
-5.96248e-07
-3.14748e-05
-5.90271e-07
-3.13006e-05
-5.83996e-07
-3.1129e-05
-5.77445e-07
-3.09598e-05
-5.70671e-07
-3.0793e-05
-5.63743e-07
-3.06287e-05
-5.56742e-07
-3.04668e-05
-5.49774e-07
-3.03074e-05
-5.42956e-07
-3.01504e-05
-5.36398e-07
-2.99959e-05
-5.30203e-07
-2.98437e-05
-5.24488e-07
-2.96939e-05
-5.19369e-07
-2.95463e-05
-5.14924e-07
-2.94007e-05
-5.11186e-07
-2.92572e-05
-5.082e-07
-2.91156e-05
-5.06035e-07
-2.89758e-05
-5.0474e-07
-2.88375e-05
-5.04344e-07
-2.87008e-05
-5.04822e-07
-2.85654e-05
-5.06119e-07
-2.84314e-05
-5.08233e-07
-2.82985e-05
-5.11157e-07
-2.81668e-05
-5.14936e-07
-2.80362e-05
-5.19579e-07
-2.79065e-05
-5.24885e-07
-2.77778e-05
-5.30732e-07
-2.765e-05
-5.37172e-07
-2.75232e-05
-5.44096e-07
-2.73976e-05
-5.51344e-07
-2.72732e-05
-5.58938e-07
-2.71502e-05
-5.66864e-07
-2.70286e-05
-5.74955e-07
-2.69087e-05
-5.83121e-07
-2.67908e-05
-5.91306e-07
-2.6675e-05
-5.99344e-07
-2.65618e-05
-6.07153e-07
-2.64514e-05
-6.14731e-07
-2.63444e-05
-6.2201e-07
-2.62413e-05
-6.28997e-07
-2.61423e-05
-6.35725e-07
-2.60481e-05
-6.41968e-07
-2.59593e-05
-6.47857e-07
-2.58762e-05
-6.53593e-07
-2.57994e-05
-6.59051e-07
-2.57294e-05
-6.64118e-07
-2.56667e-05
-6.68954e-07
-2.56118e-05
-6.73946e-07
-2.55649e-05
-6.79378e-07
-2.55262e-05
-6.8564e-07
-2.54959e-05
-6.93292e-07
-2.54736e-05
-7.03103e-07
-2.54591e-05
-7.16036e-07
-2.54517e-05
-7.33246e-07
-2.54505e-05
-7.56059e-07
-2.54542e-05
-7.86029e-07
-2.54612e-05
-8.24608e-07
-2.54695e-05
-8.72956e-07
-2.54769e-05
-9.32075e-07
-2.54815e-05
-1.00142e-06
-2.5482e-05
-1.0778e-06
-2.54783e-05
-1.15452e-06
-2.54727e-05
-1.21819e-06
-2.54695e-05
-1.24505e-06
-2.54752e-05
-1.19592e-06
-2.55006e-05
-1.0113e-06
-2.55774e-05
-6.12497e-07
-2.57371e-05
7.63228e-08
-2.61648e-05
1.14657e-06
-2.70585e-05
2.99954e-06
-2.87797e-05
6.41051e-06
-3.20174e-05
1.32219e-05
2.91224e-05
-3.62625e-05
-3.84699e-05
-1.9302e-07
-3.83867e-05
-3.9927e-07
-3.82811e-05
-5.18024e-07
-3.81641e-05
-5.9102e-07
-3.80412e-05
-6.38221e-07
-3.79153e-05
-6.70924e-07
-3.77878e-05
-6.94542e-07
-3.76593e-05
-7.12547e-07
-3.75304e-05
-7.26548e-07
-3.74011e-05
-7.37762e-07
-3.72716e-05
-7.46747e-07
-3.71418e-05
-7.54058e-07
-3.70117e-05
-7.59866e-07
-3.68813e-05
-7.6435e-07
-3.67505e-05
-7.67469e-07
-3.66196e-05
-7.69212e-07
-3.64888e-05
-7.69517e-07
-3.63582e-05
-7.68456e-07
-3.62282e-05
-7.66117e-07
-3.6099e-05
-7.62688e-07
-3.59709e-05
-7.58323e-07
-3.5844e-05
-7.53192e-07
-3.57185e-05
-7.47419e-07
-3.55947e-05
-7.41148e-07
-3.54727e-05
-7.34482e-07
-3.53526e-05
-7.27491e-07
-3.52343e-05
-7.2019e-07
-3.5118e-05
-7.12577e-07
-3.50036e-05
-7.04649e-07
-3.48912e-05
-6.96401e-07
-3.47808e-05
-6.87846e-07
-3.46725e-05
-6.79014e-07
-3.45662e-05
-6.69955e-07
-3.44623e-05
-6.60731e-07
-3.43606e-05
-6.51438e-07
-3.42613e-05
-6.422e-07
-3.41646e-05
-6.33127e-07
-3.40705e-05
-6.24308e-07
-3.39791e-05
-6.15858e-07
-3.38906e-05
-6.07907e-07
-3.3805e-05
-6.00544e-07
-3.37224e-05
-5.93789e-07
-3.36429e-05
-5.87679e-07
-3.35666e-05
-5.82292e-07
-3.34937e-05
-5.77679e-07
-3.34242e-05
-5.73877e-07
-3.33581e-05
-5.70871e-07
-3.32957e-05
-5.68579e-07
-3.32369e-05
-5.67007e-07
-3.3182e-05
-5.66096e-07
-3.3131e-05
-5.65841e-07
-3.30843e-05
-5.66303e-07
-3.30418e-05
-5.67363e-07
-3.30037e-05
-5.68877e-07
-3.29701e-05
-5.70741e-07
-3.29414e-05
-5.7285e-07
-3.29176e-05
-5.75106e-07
-3.28991e-05
-5.77417e-07
-3.28863e-05
-5.79682e-07
-3.28794e-05
-5.81847e-07
-3.28787e-05
-5.83851e-07
-3.28845e-05
-5.85517e-07
-3.28971e-05
-5.86702e-07
-3.29169e-05
-5.87367e-07
-3.29442e-05
-5.87401e-07
-3.29796e-05
-5.86665e-07
-3.30234e-05
-5.85197e-07
-3.30759e-05
-5.83223e-07
-3.31376e-05
-5.80305e-07
-3.32087e-05
-5.76753e-07
-3.32892e-05
-5.73034e-07
-3.33794e-05
-5.689e-07
-3.34791e-05
-5.64342e-07
-3.35885e-05
-5.59627e-07
-3.37071e-05
-5.55348e-07
-3.38345e-05
-5.5196e-07
-3.39701e-05
-5.50023e-07
-3.41131e-05
-5.50282e-07
-3.42625e-05
-5.53668e-07
-3.44173e-05
-5.61312e-07
-3.45759e-05
-5.7458e-07
-3.4737e-05
-5.94959e-07
-3.48989e-05
-6.24144e-07
-3.50599e-05
-6.63609e-07
-3.52187e-05
-7.14215e-07
-3.53745e-05
-7.76272e-07
-3.55268e-05
-8.49058e-07
-3.56754e-05
-9.29216e-07
-3.58206e-05
-1.00937e-06
-3.59632e-05
-1.07559e-06
-3.61043e-05
-1.10386e-06
-3.62439e-05
-1.05639e-06
-3.63803e-05
-8.74842e-07
-3.65121e-05
-4.80773e-07
-3.6643e-05
2.07235e-07
-3.68796e-05
1.38323e-06
-3.73475e-05
3.46738e-06
-3.8207e-05
7.27004e-06
-3.96285e-05
1.46434e-05
2.90366e-05
-3.95427e-05
-3.97936e-05
-2.11921e-07
-3.97642e-05
-4.28685e-07
-3.97276e-05
-5.54691e-07
-3.96873e-05
-6.31328e-07
-3.96453e-05
-6.80162e-07
-3.96028e-05
-7.13432e-07
-3.95601e-05
-7.37272e-07
-3.95172e-05
-7.55388e-07
-3.94743e-05
-7.69524e-07
-3.94311e-05
-7.8088e-07
-3.93879e-05
-7.90006e-07
-3.93445e-05
-7.97411e-07
-3.93011e-05
-8.03281e-07
-3.92577e-05
-8.07767e-07
-3.92143e-05
-8.10864e-07
-3.9171e-05
-8.12534e-07
-3.91277e-05
-8.12746e-07
-3.90847e-05
-8.11537e-07
-3.90418e-05
-8.09002e-07
-3.89992e-05
-8.05298e-07
-3.89569e-05
-8.00563e-07
-3.89152e-05
-7.94933e-07
-3.88741e-05
-7.88502e-07
-3.88339e-05
-7.81385e-07
-3.87947e-05
-7.73688e-07
-3.87566e-05
-7.6551e-07
-3.87199e-05
-7.56891e-07
-3.86847e-05
-7.47838e-07
-3.8651e-05
-7.38344e-07
-3.8619e-05
-7.28409e-07
-3.85888e-05
-7.18042e-07
-3.85605e-05
-7.0727e-07
-3.85343e-05
-6.96136e-07
-3.85104e-05
-6.84692e-07
-3.84888e-05
-6.73022e-07
-3.84697e-05
-6.61255e-07
-3.84534e-05
-6.49493e-07
-3.84399e-05
-6.378e-07
-3.84295e-05
-6.26275e-07
-3.84223e-05
-6.15059e-07
-3.84186e-05
-6.04254e-07
-3.84185e-05
-5.93865e-07
-3.84223e-05
-5.83907e-07
-3.84301e-05
-5.74479e-07
-3.84422e-05
-5.65616e-07
-3.84588e-05
-5.57305e-07
-3.848e-05
-5.49602e-07
-3.85061e-05
-5.42492e-07
-3.85371e-05
-5.35995e-07
-3.85733e-05
-5.29908e-07
-3.86148e-05
-5.24307e-07
-3.86618e-05
-5.19332e-07
-3.87144e-05
-5.14783e-07
-3.87726e-05
-5.10642e-07
-3.88366e-05
-5.0682e-07
-3.89062e-05
-5.03177e-07
-3.89816e-05
-4.99696e-07
-3.90627e-05
-4.96322e-07
-3.91495e-05
-4.92863e-07
-3.92421e-05
-4.89274e-07
-3.93404e-05
-4.85614e-07
-3.94441e-05
-4.8175e-07
-3.95533e-05
-4.77494e-07
-3.96679e-05
-4.72798e-07
-3.97877e-05
-4.67605e-07
-3.99126e-05
-4.61761e-07
-4.00425e-05
-4.55294e-07
-4.01773e-05
-4.48475e-07
-4.03167e-05
-4.40886e-07
-4.04611e-05
-4.32332e-07
-4.0611e-05
-4.2309e-07
-4.07666e-05
-4.13352e-07
-4.09276e-05
-4.03342e-07
-4.10938e-05
-3.93451e-07
-4.12648e-05
-3.84356e-07
-4.14402e-05
-3.76555e-07
-4.16196e-05
-3.70615e-07
-4.18025e-05
-3.6732e-07
-4.19885e-05
-3.67673e-07
-4.21769e-05
-3.72896e-07
-4.23671e-05
-3.84415e-07
-4.25583e-05
-4.03716e-07
-4.27501e-05
-4.32389e-07
-4.29417e-05
-4.71996e-07
-4.31323e-05
-5.23591e-07
-4.33213e-05
-5.87348e-07
-4.3508e-05
-6.6236e-07
-4.36921e-05
-7.45054e-07
-4.38737e-05
-8.27824e-07
-4.4052e-05
-8.97252e-07
-4.42247e-05
-9.3121e-07
-4.43853e-05
-8.95781e-07
-4.45203e-05
-7.39836e-07
-4.46105e-05
-3.90591e-07
-4.46547e-05
2.51485e-07
-4.46821e-05
1.4106e-06
-4.4708e-05
3.49326e-06
-4.47294e-05
7.29146e-06
-4.44328e-05
1.43469e-05
2.62206e-05
-4.16168e-05
-4.10192e-05
-2.08091e-07
-4.10398e-05
-4.08084e-07
-4.10679e-05
-5.26603e-07
-4.11006e-05
-5.9866e-07
-4.11365e-05
-6.44267e-07
-4.11748e-05
-6.75052e-07
-4.12151e-05
-6.97016e-07
-4.12568e-05
-7.13707e-07
-4.12996e-05
-7.26732e-07
-4.13433e-05
-7.37178e-07
-4.13877e-05
-7.45577e-07
-4.14328e-05
-7.5231e-07
-4.14784e-05
-7.57664e-07
-4.15245e-05
-7.61664e-07
-4.1571e-05
-7.64416e-07
-4.16177e-05
-7.65775e-07
-4.16647e-05
-7.65768e-07
-4.17119e-05
-7.64367e-07
-4.17592e-05
-7.61684e-07
-4.18067e-05
-7.57829e-07
-4.18543e-05
-7.52918e-07
-4.19022e-05
-7.47039e-07
-4.19504e-05
-7.40263e-07
-4.19992e-05
-7.32674e-07
-4.20485e-05
-7.24365e-07
-4.20986e-05
-7.15422e-07
-4.21496e-05
-7.05886e-07
-4.22016e-05
-6.95768e-07
-4.22549e-05
-6.85069e-07
-4.23095e-05
-6.738e-07
-4.23656e-05
-6.61981e-07
-4.24232e-05
-6.49643e-07
-4.24825e-05
-6.36847e-07
-4.25436e-05
-6.23638e-07
-4.26065e-05
-6.10092e-07
-4.26714e-05
-5.96353e-07
-4.27383e-05
-5.8253e-07
-4.28075e-05
-5.68654e-07
-4.28789e-05
-5.54829e-07
-4.29528e-05
-5.41207e-07
-4.30292e-05
-5.27876e-07
-4.31081e-05
-5.1489e-07
-4.31898e-05
-5.02289e-07
-4.32741e-05
-4.90167e-07
-4.33611e-05
-4.78593e-07
-4.34509e-05
-4.67539e-07
-4.35435e-05
-4.57009e-07
-4.36389e-05
-4.47077e-07
-4.3737e-05
-4.37845e-07
-4.38378e-05
-4.29101e-07
-4.39414e-05
-4.20696e-07
-4.40481e-05
-4.12657e-07
-4.4158e-05
-4.04941e-07
-4.42709e-05
-3.97661e-07
-4.43869e-05
-3.90837e-07
-4.45058e-05
-3.84314e-07
-4.46275e-05
-3.78026e-07
-4.47518e-05
-3.71939e-07
-4.48788e-05
-3.659e-07
-4.50082e-05
-3.59841e-07
-4.51401e-05
-3.53745e-07
-4.52744e-05
-3.47493e-07
-4.54109e-05
-3.40933e-07
-4.55497e-05
-3.33977e-07
-4.56908e-05
-3.26557e-07
-4.58341e-05
-3.18493e-07
-4.59796e-05
-3.09741e-07
-4.61277e-05
-3.00435e-07
-4.62781e-05
-2.90463e-07
-4.64306e-05
-2.79849e-07
-4.65851e-05
-2.68558e-07
-4.67418e-05
-2.56675e-07
-4.69006e-05
-2.44472e-07
-4.70618e-05
-2.323e-07
-4.72252e-05
-2.20925e-07
-4.73908e-05
-2.10968e-07
-4.75584e-05
-2.02968e-07
-4.7728e-05
-1.97729e-07
-4.78994e-05
-1.96298e-07
-4.80724e-05
-1.99926e-07
-4.82468e-05
-2.10032e-07
-4.84224e-05
-2.28105e-07
-4.85992e-05
-2.55567e-07
-4.8777e-05
-2.94237e-07
-4.89552e-05
-3.45355e-07
-4.91337e-05
-4.08841e-07
-4.93121e-05
-4.84004e-07
-4.94898e-05
-5.67274e-07
-4.96664e-05
-6.51232e-07
-4.98397e-05
-7.23975e-07
-5.00044e-05
-7.66499e-07
-5.01503e-05
-7.49898e-07
-5.02558e-05
-6.34303e-07
-5.02921e-05
-3.54376e-07
-5.02371e-05
1.96537e-07
-5.0061e-05
1.23447e-06
-4.96851e-05
3.11742e-06
-4.89475e-05
6.55385e-06
-4.72617e-05
1.26611e-05
2.17668e-05
-4.28079e-05
-4.20965e-05
-1.81015e-07
-4.21593e-05
-3.45305e-07
-4.22426e-05
-4.43275e-07
-4.23389e-05
-5.02372e-07
-4.24438e-05
-5.39327e-07
-4.25549e-05
-5.63969e-07
-4.26705e-05
-5.81472e-07
-4.27894e-05
-5.94814e-07
-4.29109e-05
-6.05235e-07
-4.30345e-05
-6.1357e-07
-4.31598e-05
-6.20261e-07
-4.32865e-05
-6.25595e-07
-4.34143e-05
-6.29871e-07
-4.35429e-05
-6.33091e-07
-4.36719e-05
-6.35367e-07
-4.38012e-05
-6.36486e-07
-4.39305e-05
-6.36447e-07
-4.40597e-05
-6.35147e-07
-4.41888e-05
-6.32676e-07
-4.43175e-05
-6.29095e-07
-4.44459e-05
-6.24504e-07
-4.4574e-05
-6.18955e-07
-4.47018e-05
-6.12486e-07
-4.48293e-05
-6.05148e-07
-4.49566e-05
-5.97012e-07
-4.50839e-05
-5.8815e-07
-4.52112e-05
-5.78604e-07
-4.53386e-05
-5.68392e-07
-4.54661e-05
-5.57529e-07
-4.55939e-05
-5.4605e-07
-4.57219e-05
-5.33988e-07
-4.58501e-05
-5.21383e-07
-4.59787e-05
-5.0831e-07
-4.61075e-05
-4.94832e-07
-4.62365e-05
-4.81003e-07
-4.63659e-05
-4.66952e-07
-4.64957e-05
-4.52824e-07
-4.66256e-05
-4.38669e-07
-4.67559e-05
-4.2458e-07
-4.68864e-05
-4.10707e-07
-4.70172e-05
-3.97108e-07
-4.71482e-05
-3.83827e-07
-4.72795e-05
-3.70965e-07
-4.74111e-05
-3.58608e-07
-4.75429e-05
-3.46813e-07
-4.76748e-05
-3.35586e-07
-4.7807e-05
-3.24884e-07
-4.79393e-05
-3.14761e-07
-4.80719e-05
-3.05262e-07
-4.82046e-05
-2.96399e-07
-4.83371e-05
-2.88125e-07
-4.84695e-05
-2.803e-07
-4.86015e-05
-2.72882e-07
-4.87333e-05
-2.6593e-07
-4.88647e-05
-2.59432e-07
-4.89957e-05
-2.53285e-07
-4.91263e-05
-2.47403e-07
-4.92566e-05
-2.41703e-07
-4.93864e-05
-2.36069e-07
-4.95158e-05
-2.30409e-07
-4.96449e-05
-2.24632e-07
-4.97738e-05
-2.18621e-07
-4.99025e-05
-2.12247e-07
-5.00311e-05
-2.05406e-07
-5.01596e-05
-1.98021e-07
-5.02882e-05
-1.89888e-07
-5.04172e-05
-1.80802e-07
-5.05465e-05
-1.71098e-07
-5.06762e-05
-1.60724e-07
-5.08062e-05
-1.499e-07
-5.09362e-05
-1.38528e-07
-5.10664e-05
-1.2645e-07
-5.11971e-05
-1.13853e-07
-5.13285e-05
-1.00875e-07
-5.1461e-05
-8.83807e-08
-5.15947e-05
-7.72591e-08
-5.17298e-05
-6.7872e-08
-5.18666e-05
-6.1002e-08
-5.20052e-05
-5.7689e-08
-5.21459e-05
-5.91794e-08
-5.22891e-05
-6.68735e-08
-5.24348e-05
-8.23963e-08
-5.25835e-05
-1.06812e-07
-5.27355e-05
-1.42274e-07
-5.28904e-05
-1.90423e-07
-5.30491e-05
-2.5014e-07
-5.32113e-05
-3.21824e-07
-5.33758e-05
-4.02746e-07
-5.35412e-05
-4.85874e-07
-5.37035e-05
-5.61701e-07
-5.38551e-05
-6.14834e-07
-5.39825e-05
-6.22498e-07
-5.40618e-05
-5.54994e-07
-5.40531e-05
-3.63103e-07
-5.39093e-05
5.26812e-08
-5.35583e-05
8.83558e-07
-5.28428e-05
2.40188e-06
-5.14713e-05
5.18235e-06
-4.87607e-05
9.9505e-06
1.63967e-05
-4.33906e-05
-4.29765e-05
-1.31014e-07
-4.3075e-05
-2.46733e-07
-4.32027e-05
-3.15561e-07
-4.33487e-05
-3.56471e-07
-4.35063e-05
-3.81716e-07
-4.3672e-05
-3.98261e-07
-4.38435e-05
-4.09907e-07
-4.40197e-05
-4.18673e-07
-4.41995e-05
-4.25451e-07
-4.43823e-05
-4.30752e-07
-4.45676e-05
-4.34923e-07
-4.4755e-05
-4.38241e-07
-4.4944e-05
-4.40843e-07
-4.51343e-05
-4.42808e-07
-4.53255e-05
-4.44111e-07
-4.55174e-05
-4.44584e-07
-4.57097e-05
-4.44172e-07
-4.59021e-05
-4.4279e-07
-4.60942e-05
-4.40506e-07
-4.6286e-05
-4.37364e-07
-4.64771e-05
-4.33425e-07
-4.66673e-05
-4.28705e-07
-4.68566e-05
-4.23203e-07
-4.70448e-05
-4.16939e-07
-4.72318e-05
-4.0997e-07
-4.74176e-05
-4.02359e-07
-4.76021e-05
-3.94142e-07
-4.77851e-05
-3.8534e-07
-4.79667e-05
-3.75976e-07
-4.81467e-05
-3.66095e-07
-4.83249e-05
-3.55741e-07
-4.85013e-05
-3.44957e-07
-4.86758e-05
-3.33809e-07
-4.88483e-05
-3.22392e-07
-4.90185e-05
-3.10784e-07
-4.91864e-05
-2.99043e-07
-4.9352e-05
-2.87257e-07
-4.95151e-05
-2.75554e-07
-4.96756e-05
-2.64046e-07
-4.98335e-05
-2.52798e-07
-4.99888e-05
-2.41843e-07
-5.01414e-05
-2.31246e-07
-5.02912e-05
-2.21137e-07
-5.04382e-05
-2.1157e-07
-5.05825e-05
-2.02523e-07
-5.07241e-05
-1.94021e-07
-5.08629e-05
-1.86079e-07
-5.09989e-05
-1.7871e-07
-5.11323e-05
-1.71879e-07
-5.1263e-05
-1.65678e-07
-5.1391e-05
-1.6018e-07
-5.15161e-05
-1.55202e-07
-5.16384e-05
-1.50597e-07
-5.1758e-05
-1.4634e-07
-5.1875e-05
-1.42382e-07
-5.19897e-05
-1.38627e-07
-5.21021e-05
-1.34971e-07
-5.22125e-05
-1.31313e-07
-5.2321e-05
-1.27545e-07
-5.24279e-05
-1.23547e-07
-5.25333e-05
-1.19212e-07
-5.26375e-05
-1.14422e-07
-5.27407e-05
-1.09039e-07
-5.28431e-05
-1.02971e-07
-5.2945e-05
-9.61168e-08
-5.30466e-05
-8.83776e-08
-5.31483e-05
-7.90588e-08
-5.32502e-05
-6.92135e-08
-5.33524e-05
-5.84871e-08
-5.34554e-05
-4.69019e-08
-5.35595e-05
-3.44101e-08
-5.3665e-05
-2.09994e-08
-5.37718e-05
-7.03725e-09
-5.38807e-05
7.984e-09
-5.3992e-05
2.29785e-08
-5.41054e-05
3.61074e-08
-5.42211e-05
4.78605e-08
-5.43396e-05
5.74446e-08
-5.44611e-05
6.38092e-08
-5.4586e-05
6.57441e-08
-5.47147e-05
6.1871e-08
-5.48478e-05
5.07005e-08
-5.49853e-05
3.06433e-08
-5.51282e-05
6.48761e-10
-5.52763e-05
-4.23516e-08
-5.54301e-05
-9.63041e-08
-5.55891e-05
-1.62827e-07
-5.57509e-05
-2.4096e-07
-5.59137e-05
-3.23067e-07
-5.60723e-05
-4.03154e-07
-5.62174e-05
-4.69686e-07
-5.63328e-05
-5.07143e-07
-5.63938e-05
-4.9395e-07
-5.63543e-05
-4.02612e-07
-5.61486e-05
-1.5304e-07
-5.56558e-05
3.90818e-07
-5.46776e-05
1.42369e-06
-5.28252e-05
3.32993e-06
-4.9415e-05
6.54031e-06
1.05713e-05
-4.35896e-05
-4.3622e-05
-6.36704e-08
-4.37472e-05
-1.21505e-07
-4.3907e-05
-1.55794e-07
-4.40875e-05
-1.75964e-07
-4.42809e-05
-1.88277e-07
-4.4483e-05
-1.96157e-07
-4.46914e-05
-2.01578e-07
-4.49045e-05
-2.05487e-07
-4.51216e-05
-2.0838e-07
-4.53419e-05
-2.10481e-07
-4.55648e-05
-2.12021e-07
-4.57899e-05
-2.13153e-07
-4.60168e-05
-2.13897e-07
-4.62453e-05
-2.14332e-07
-4.6475e-05
-2.14378e-07
-4.67057e-05
-2.13964e-07
-4.69368e-05
-2.13053e-07
-4.71679e-05
-2.11624e-07
-4.73987e-05
-2.09729e-07
-4.76287e-05
-2.07396e-07
-4.78575e-05
-2.04653e-07
-4.80847e-05
-2.01498e-07
-4.831e-05
-1.97903e-07
-4.8533e-05
-1.93863e-07
-4.87536e-05
-1.89423e-07
-4.89713e-05
-1.84629e-07
-4.9186e-05
-1.79503e-07
-4.93972e-05
-1.74057e-07
-4.96049e-05
-1.68305e-07
-4.98087e-05
-1.62277e-07
-5.00085e-05
-1.56013e-07
-5.02039e-05
-1.49553e-07
-5.03947e-05
-1.42934e-07
-5.05809e-05
-1.36228e-07
-5.07622e-05
-1.29503e-07
-5.09384e-05
-1.22773e-07
-5.11096e-05
-1.16073e-07
-5.12757e-05
-1.09527e-07
-5.14365e-05
-1.03212e-07
-5.15922e-05
-9.71256e-08
-5.17427e-05
-9.12889e-08
-5.18882e-05
-8.57799e-08
-5.20286e-05
-8.06825e-08
-5.21642e-05
-7.59903e-08
-5.22951e-05
-7.16538e-08
-5.24214e-05
-6.76947e-08
-5.25434e-05
-6.41361e-08
-5.26611e-05
-6.09482e-08
-5.27749e-05
-5.81115e-08
-5.28849e-05
-5.56707e-08
-5.29915e-05
-5.36107e-08
-5.30949e-05
-5.17873e-08
-5.31954e-05
-5.00822e-08
-5.32933e-05
-4.84537e-08
-5.33888e-05
-4.68447e-08
-5.34823e-05
-4.51576e-08
-5.3574e-05
-4.32918e-08
-5.36641e-05
-4.11528e-08
-5.3753e-05
-3.86281e-08
-5.3841e-05
-3.55974e-08
-5.39282e-05
-3.19583e-08
-5.40151e-05
-2.75897e-08
-5.41017e-05
-2.23637e-08
-5.41885e-05
-1.62112e-08
-5.42756e-05
-9.01752e-09
-5.43628e-05
-1.20378e-09
-5.44515e-05
9.64699e-09
-5.45411e-05
2.03891e-08
-5.46318e-05
3.22652e-08
-5.47241e-05
4.53567e-08
-5.48182e-05
5.96753e-08
-5.49143e-05
7.50781e-08
-5.50127e-05
9.13942e-08
-5.51136e-05
1.08883e-07
-5.52172e-05
1.26536e-07
-5.53243e-05
1.43264e-07
-5.54353e-05
1.58804e-07
-5.55502e-05
1.72412e-07
-5.56695e-05
1.83081e-07
-5.57934e-05
1.8962e-07
-5.59221e-05
1.90654e-07
-5.60562e-05
1.84721e-07
-5.61954e-05
1.69878e-07
-5.63397e-05
1.44979e-07
-5.64908e-05
1.08729e-07
-5.66473e-05
6.01795e-08
-5.68103e-05
1.42868e-10
-5.69767e-05
-7.45753e-08
-5.71444e-05
-1.55331e-07
-5.73068e-05
-2.40738e-07
-5.74538e-05
-3.22692e-07
-5.75681e-05
-3.92876e-07
-5.76218e-05
-4.40257e-07
-5.75728e-05
-4.51575e-07
-5.73385e-05
-3.87287e-07
-5.67704e-05
-1.7737e-07
-5.56266e-05
2.79899e-07
-5.3469e-05
1.17235e-06
-4.96277e-05
2.69902e-06
4.54315e-06
-4.35996e-05
-4.39645e-05
1.27984e-08
-4.41038e-05
1.77817e-08
-4.42804e-05
2.07833e-08
-4.44791e-05
2.27319e-08
-4.46915e-05
2.41049e-08
-4.49128e-05
2.51708e-08
-4.51404e-05
2.6062e-08
-4.53728e-05
2.68441e-08
-4.56087e-05
2.75453e-08
-4.58474e-05
2.82185e-08
-4.60882e-05
2.88456e-08
-4.63309e-05
2.95179e-08
-4.65751e-05
3.02632e-08
-4.68205e-05
3.10742e-08
-4.70668e-05
3.19517e-08
-4.73136e-05
3.28528e-08
-4.75604e-05
3.37519e-08
-4.78067e-05
3.4622e-08
-4.80519e-05
3.54541e-08
-4.82955e-05
3.62452e-08
-4.85372e-05
3.69928e-08
-4.87763e-05
3.76824e-08
-4.90126e-05
3.83601e-08
-4.92455e-05
3.90745e-08
-4.94748e-05
3.98104e-08
-4.96999e-05
4.05519e-08
-4.99208e-05
4.13001e-08
-5.01369e-05
4.20609e-08
-5.0348e-05
4.28431e-08
-5.05539e-05
4.36496e-08
-5.07544e-05
4.44687e-08
-5.09493e-05
4.52909e-08
-5.11383e-05
4.61076e-08
-5.13214e-05
4.68807e-08
-5.14985e-05
4.75922e-08
-5.16696e-05
4.82733e-08
-5.18345e-05
4.88932e-08
-5.19934e-05
4.93716e-08
-5.21464e-05
4.97141e-08
-5.22934e-05
4.99487e-08
-5.24348e-05
5.00503e-08
-5.25705e-05
4.99797e-08
-5.27009e-05
4.97024e-08
-5.28262e-05
4.92526e-08
-5.29465e-05
4.8696e-08
-5.30622e-05
4.80151e-08
-5.31735e-05
4.71934e-08
-5.32808e-05
4.62802e-08
-5.33842e-05
4.52843e-08
-5.3484e-05
4.41889e-08
-5.35807e-05
4.30584e-08
-5.36745e-05
4.20176e-08
-5.37657e-05
4.11612e-08
-5.38547e-05
4.05258e-08
-5.39417e-05
4.01559e-08
-5.4027e-05
4.01502e-08
-5.41109e-05
4.06037e-08
-5.41937e-05
4.15988e-08
-5.42756e-05
4.32514e-08
-5.43568e-05
4.56719e-08
-5.44377e-05
4.89542e-08
-5.45186e-05
5.32231e-08
-5.45995e-05
5.85862e-08
-5.46809e-05
6.51392e-08
-5.47627e-05
7.28164e-08
-5.48458e-05
8.19176e-08
-5.49294e-05
9.32411e-08
-5.50145e-05
1.05488e-07
-5.51013e-05
1.19067e-07
-5.51901e-05
1.34124e-07
-5.52811e-05
1.50696e-07
-5.53747e-05
1.6866e-07
-5.54712e-05
1.87909e-07
-5.55706e-05
2.08335e-07
-5.56733e-05
2.29165e-07
-5.57797e-05
2.49653e-07
-5.58901e-05
2.69287e-07
-5.6005e-05
2.87317e-07
-5.61247e-05
3.02765e-07
-5.62496e-05
3.14467e-07
-5.638e-05
3.21091e-07
-5.65164e-05
3.21098e-07
-5.66593e-05
3.12795e-07
-5.6809e-05
2.94702e-07
-5.69657e-05
2.65411e-07
-5.71285e-05
2.22997e-07
-5.72957e-05
1.67317e-07
-5.74679e-05
9.76036e-08
-5.76393e-05
1.60781e-08
-5.78054e-05
-7.46217e-08
-5.79557e-05
-1.72366e-07
-5.80723e-05
-2.76276e-07
-5.81267e-05
-3.85936e-07
-5.80756e-05
-5.02599e-07
-5.7836e-05
-6.26875e-07
-5.72506e-05
-7.62834e-07
-5.6051e-05
-9.19711e-07
-5.37679e-05
-1.11067e-06
-4.97229e-05
-1.34601e-06
-1.56592e-06
-4.36138e-05
-4.39168e-05
8.85734e-08
-4.40546e-05
1.55642e-07
-4.42297e-05
1.95843e-07
-4.44269e-05
2.19965e-07
-4.46379e-05
2.3509e-07
-4.48579e-05
2.45149e-07
-4.50842e-05
2.52373e-07
-4.53152e-05
2.5786e-07
-4.55498e-05
2.62148e-07
-4.57872e-05
2.65608e-07
-4.60267e-05
2.68361e-07
-4.6268e-05
2.70806e-07
-4.65107e-05
2.72996e-07
-4.67547e-05
2.74995e-07
-4.69995e-05
2.76763e-07
-4.72447e-05
2.78125e-07
-4.749e-05
2.79014e-07
-4.77347e-05
2.7934e-07
-4.79784e-05
2.7914e-07
-4.82206e-05
2.78429e-07
-4.84608e-05
2.77235e-07
-4.86987e-05
2.75503e-07
-4.89336e-05
2.73304e-07
-4.91653e-05
2.70748e-07
-4.93933e-05
2.67838e-07
-4.96173e-05
2.64582e-07
-4.9837e-05
2.61011e-07
-5.00521e-05
2.57152e-07
-5.02623e-05
2.53034e-07
-5.04674e-05
2.48689e-07
-5.0667e-05
2.44138e-07
-5.08611e-05
2.39402e-07
-5.10495e-05
2.34496e-07
-5.12321e-05
2.29413e-07
-5.14087e-05
2.24185e-07
-5.15793e-05
2.18891e-07
-5.17439e-05
2.13513e-07
-5.19025e-05
2.07998e-07
-5.20552e-05
2.02422e-07
-5.22021e-05
1.96859e-07
-5.23434e-05
1.91288e-07
-5.24791e-05
1.85699e-07
-5.26095e-05
1.80092e-07
-5.27348e-05
1.74524e-07
-5.28552e-05
1.691e-07
-5.2971e-05
1.6381e-07
-5.30824e-05
1.58627e-07
-5.31897e-05
1.53623e-07
-5.32933e-05
1.48808e-07
-5.33932e-05
1.44173e-07
-5.349e-05
1.39819e-07
-5.35839e-05
1.35882e-07
-5.36752e-05
1.32449e-07
-5.37642e-05
1.29534e-07
-5.38512e-05
1.27152e-07
-5.39364e-05
1.25414e-07
-5.40202e-05
1.24421e-07
-5.41029e-05
1.24233e-07
-5.41846e-05
1.24966e-07
-5.42656e-05
1.26732e-07
-5.43463e-05
1.29607e-07
-5.44268e-05
1.33719e-07
-5.45074e-05
1.39177e-07
-5.45883e-05
1.46043e-07
-5.46698e-05
1.54358e-07
-5.47523e-05
1.64426e-07
-5.48356e-05
1.76483e-07
-5.49201e-05
1.89997e-07
-5.50061e-05
2.05108e-07
-5.5094e-05
2.21969e-07
-5.51839e-05
2.40651e-07
-5.52763e-05
2.6105e-07
-5.53714e-05
2.83014e-07
-5.54694e-05
3.06292e-07
-5.55705e-05
3.30289e-07
-5.56753e-05
3.54397e-07
-5.5784e-05
3.78042e-07
-5.58972e-05
4.00473e-07
-5.60151e-05
4.20743e-07
-5.61384e-05
4.37726e-07
-5.62674e-05
4.50117e-07
-5.64027e-05
4.56401e-07
-5.65449e-05
4.54937e-07
-5.66943e-05
4.44103e-07
-5.6851e-05
4.22126e-07
-5.70151e-05
3.87103e-07
-5.71854e-05
3.37665e-07
-5.73594e-05
2.71574e-07
-5.75324e-05
1.89075e-07
-5.76973e-05
9.02338e-08
-5.78448e-05
-2.48747e-08
-5.79595e-05
-1.61514e-07
-5.80134e-05
-3.32021e-07
-5.79615e-05
-5.54542e-07
-5.77229e-05
-8.65493e-07
-5.715e-05
-1.3357e-06
-5.59739e-05
-2.09586e-06
-5.37233e-05
-3.36126e-06
-4.97238e-05
-5.34549e-06
-7.6362e-06
-4.36535e-05
-4.35087e-05
1.54158e-07
-4.36307e-05
2.77624e-07
-4.37867e-05
3.51841e-07
-4.39633e-05
3.96554e-07
-4.41528e-05
4.24575e-07
-4.43509e-05
4.43286e-07
-4.45552e-05
4.56722e-07
-4.47644e-05
4.67059e-07
-4.49775e-05
4.75252e-07
-4.51939e-05
4.81927e-07
-4.54129e-05
4.87351e-07
-4.5634e-05
4.9198e-07
-4.5857e-05
4.95955e-07
-4.60813e-05
4.99343e-07
-4.63067e-05
5.02166e-07
-4.65328e-05
5.04196e-07
-4.67592e-05
5.05381e-07
-4.69854e-05
5.05602e-07
-4.72112e-05
5.04926e-07
-4.74362e-05
5.03388e-07
-4.766e-05
5.01041e-07
-4.78823e-05
4.97861e-07
-4.81029e-05
4.93898e-07
-4.83214e-05
4.89227e-07
-4.85374e-05
4.83858e-07
-4.87507e-05
4.77839e-07
-4.89609e-05
4.71238e-07
-4.91679e-05
4.64103e-07
-4.93713e-05
4.56471e-07
-4.9571e-05
4.48383e-07
-4.97667e-05
4.39875e-07
-4.99583e-05
4.3097e-07
-5.01455e-05
4.21696e-07
-5.03282e-05
4.12095e-07
-5.05062e-05
4.02217e-07
-5.06795e-05
3.92125e-07
-5.08478e-05
3.81855e-07
-5.10112e-05
3.71424e-07
-5.11697e-05
3.60905e-07
-5.13232e-05
3.50394e-07
-5.14719e-05