/*--------------------------------*- C++ -*----------------------------------*\
| =========                 |                                                 |
| \\      /  F ield         | OpenFOAM: The Open Source CFD Toolbox           |
|  \\    /   O peration     | Version:  2.1.0                                 |
|   \\  /    A nd           | Web:      www.OpenFOAM.org                      |
|    \\/     M anipulation  |                                                 |
\*---------------------------------------------------------------------------*/
FoamFile
{
    version     2.0;
    format      ascii;
    class       volScalarField;
    location    "0.1";
    object      T;
}
// * * * * * * * * * * * * * * * * * * * * * * * * * * * * * * * * * * * * * //

dimensions      [0 0 0 1 0 0 0];

internalField   nonuniform List<scalar> 
6400
(
293.15
293.15
293.15
293.15
293.15
293.15
293.15
293.15
293.15
293.15
293.15
293.15
293.15
293.15
293.15
293.15
293.15
293.15
293.15
293.15
293.15
293.15
293.15
293.15
293.15
293.15
293.15
293.15
293.15
293.15
293.15
293.15
293.15
293.15
293.15
293.15
293.15
293.15
293.15
293.15
293.15
293.15
293.15
293.15
293.15
293.15
293.15
293.15
293.15
293.15
293.15
293.15
293.15
293.15
293.15
293.15
293.15
293.15
293.15
293.15
293.15
293.15
293.15
293.15
293.15
293.15
293.15
293.15
293.15
293.15
293.15
293.15
293.15
293.15
293.15
293.15
293.15
293.15
293.15
293.15
293.15
293.15
293.15
293.15
293.15
293.15
293.15
293.15
293.15
293.15
293.15
293.15
293.15
293.15
293.15
293.15
293.15
293.15
293.15
293.15
293.15
293.15
293.15
293.15
293.15
293.15
293.15
293.15
293.15
293.15
293.15
293.15
293.15
293.15
293.15
293.15
293.15
293.15
293.15
293.15
293.15
293.15
293.15
293.15
293.15
293.15
293.15
293.15
293.15
293.15
293.15
293.15
293.15
293.15
293.15
293.15
293.15
293.15
293.15
293.15
293.15
293.15
293.15
293.15
293.15
293.15
293.15
293.15
293.15
293.15
293.15
293.15
293.15
293.15
293.15
293.15
293.15
293.15
293.15
293.15
293.15
293.15
293.15
293.15
293.15
293.15
293.15
293.15
293.15
293.15
293.15
293.15
293.15
293.15
293.15
293.15
293.15
293.15
293.15
293.15
293.15
293.15
293.15
293.15
293.15
293.15
293.15
293.15
293.15
293.15
293.15
293.15
293.15
293.15
293.15
293.15
293.15
293.15
293.15
293.15
293.15
293.15
293.15
293.15
293.15
293.15
293.15
293.15
293.15
293.15
293.15
293.15
293.15
293.15
293.15
293.15
293.15
293.15
293.15
293.15
293.15
293.15
293.15
293.15
293.15
293.15
293.15
293.15
293.15
293.15
293.15
293.15
293.15
293.15
293.15
293.15
293.15
293.15
293.15
293.15
293.15
293.15
293.15
293.15
293.15
293.15
293.15
293.15
293.15
293.15
293.15
293.15
293.15
293.15
293.15
293.15
293.15
293.15
293.15
293.15
293.15
293.15
293.15
293.15
293.15
293.15
293.15
293.15
293.15
293.15
293.15
293.15
293.15
293.15
293.15
293.15
293.15
293.15
293.15
293.15
293.15
293.15
293.15
293.15
293.15
293.15
293.15
293.15
293.15
293.15
293.15
293.15
293.15
293.15
293.15
293.15
293.15
293.15
293.15
293.15
293.15
293.15
293.15
293.15
293.15
293.15
293.15
293.15
293.15
293.15
293.15
293.15
293.15
293.15
293.15
293.15
293.15
293.15
293.15
293.15
293.15
293.15
293.15
293.15
293.15
293.15
293.15
293.15
293.15
293.15
293.15
293.15
293.15
293.15
293.15
293.15
293.15
293.15
293.15
293.15
293.15
293.15
293.15
293.15
293.15
293.15
293.15
293.15
293.15
293.15
293.15
293.15
293.15
293.15
293.15
293.15
293.15
293.15
293.15
293.15
293.15
293.15
293.15
293.15
293.15
293.15
293.15
293.15
293.15
293.15
293.15
293.15
293.15
293.15
293.15
293.15
293.15
293.15
293.15
293.15
293.15
293.15
293.15
293.15
293.15
293.15
293.15
293.15
293.15
293.15
293.15
293.15
293.15
293.15
293.15
293.15
293.15
293.15
293.15
293.15
293.15
293.15
293.15
293.15
293.15
293.15
293.15
293.15
293.15
293.15
293.15
293.15
293.15
293.15
293.15
293.15
293.15
293.15
293.15
293.15
293.15
293.15
293.15
293.15
293.15
293.15
293.15
293.15
293.15
293.15
293.15
293.15
293.15
293.15
293.15
293.15
293.15
293.15
293.15
293.15
293.15
293.15
293.15
293.15
293.15
293.15
293.15
293.15
293.15
293.15
293.15
293.15
293.15
293.15
293.15
293.15
293.15
293.15
293.15
293.15
293.15
293.15
293.15
293.15
293.15
293.15
293.15
293.15
293.15
293.15
293.15
293.15
293.15
293.15
293.15
293.15
293.15
293.15
293.15
293.15
293.15
293.15
293.15
293.15
293.15
293.15
293.15
293.15
293.15
293.15
293.15
293.15
293.15
293.15
293.15
293.15
293.15
293.15
293.15
293.15
293.15
293.15
293.15
293.15
293.15
293.15
293.15
293.15
293.15
293.15
293.15
293.15
293.15
293.15
293.15
293.15
293.15
293.15
293.15
293.15
293.15
293.15
293.15
293.15
293.15
293.15
293.15
293.15
293.15
293.15
293.15
293.15
293.15
293.15
293.15
293.15
293.15
293.15
293.15
293.15
293.15
293.15
293.15
293.15
293.15
293.15
293.15
293.15
293.15
293.15
293.15
293.15
293.15
293.15
293.15
293.15
293.15
293.15
293.15
293.15
293.15
293.15
293.15
293.15
293.15
293.15
293.15
293.15
293.15
293.15
293.15
293.15
293.15
293.15
293.15
293.15
293.15
293.15
293.15
293.15
293.15
293.15
293.15
293.15
293.15
293.15
293.15
293.15
293.15
293.15
293.15
293.15
293.15
293.15
293.15
293.15
293.15
293.15
293.15
293.15
293.15
293.15
293.15
293.15
293.15
293.15
293.15
293.15
293.15
293.15
293.15
293.15
293.15
293.15
293.15
293.15
293.15
293.15
293.15
293.15
293.15
293.15
293.15
293.15
293.15
293.15
293.15
293.15
293.15
293.15
293.15
293.15
293.15
293.15
293.15
293.15
293.15
293.15
293.15
293.15
293.15
293.15
293.15
293.15
293.15
293.15
293.15
293.15
293.15
293.15
293.15
293.15
293.15
293.15
293.15
293.15
293.15
293.15
293.15
293.15
293.15
293.15
293.15
293.15
293.15
293.15
293.15
293.15
293.15
293.15
293.15
293.15
293.15
293.15
293.15
293.15
293.15
293.15
293.15
293.15
293.15
293.15
293.15
293.15
293.15
293.15
293.15
293.15
293.15
293.15
293.15
293.15
293.15
293.15
293.15
293.15
293.15
293.15
293.15
293.15
293.15
293.15
293.15
293.15
293.15
293.15
293.15
293.15
293.15
293.15
293.15
293.15
293.15
293.15
293.15
293.15
293.15
293.15
293.15
293.15
293.15
293.15
293.15
293.15
293.15
293.15
293.15
293.15
293.15
293.15
293.15
293.15
293.15
293.15
293.15
293.15
293.15
293.15
293.15
293.15
293.15
293.15
293.15
293.15
293.15
293.15
293.15
293.15
293.15
293.15
293.15
293.15
293.15
293.15
293.15
293.15
293.15
293.15
293.15
293.15
293.15
293.15
293.15
293.15
293.15
293.15
293.15
293.15
293.15
293.15
293.15
293.15
293.15
293.15
293.15
293.15
293.15
293.15
293.15
293.15
293.15
293.15
293.15
293.15
293.15
293.15
293.15
293.15
293.15
293.15
293.15
293.15
293.15
293.15
293.15
293.15
293.15
293.15
293.15
293.15
293.15
293.15
293.15
293.15
293.15
293.15
293.15
293.15
293.15
293.15
293.15
293.15
293.15
293.15
293.15
293.15
293.15
293.15
293.15
293.15
293.15
293.15
293.15
293.15
293.15
293.15
293.15
293.15
293.15
293.15
293.15
293.15
293.15
293.15
293.15
293.15
293.15
293.15
293.15
293.15
293.15
293.15
293.15
293.15
293.15
293.15
293.15
293.15
293.15
293.15
293.15
293.15
293.15
293.15
293.15
293.15
293.15
293.15
293.15
293.15
293.15
293.15
293.15
293.15
293.15
293.15
293.15
293.15
293.15
293.15
293.15
293.15
293.15
293.15
293.15
293.15
293.15
293.15
293.15
293.15
293.15
293.15
293.15
293.15
293.15
293.15
293.15
293.15
293.15
293.15
293.15
293.15
293.15
293.15
293.15
293.15
293.15
293.15
293.15
293.15
293.15
293.15
293.15
293.15
293.15
293.15
293.15
293.15
293.15
293.15
293.15
293.15
293.15
293.15
293.15
293.15
293.15
293.15
293.15
293.15
293.15
293.15
293.15
293.15
293.15
293.15
293.15
293.15
293.15
293.15
293.15
293.15
293.15
293.15
293.15
293.15
293.15
293.15
293.15
293.15
293.15
293.15
293.15
293.15
293.15
293.15
293.15
293.15
293.15
293.15
293.15
293.15
293.15
293.15
293.15
293.15
293.15
293.15
293.15
293.15
293.15
293.15
293.15
293.15
293.15
293.15
293.15
293.15
293.15
293.15
293.15
293.15
293.15
293.15
293.15
293.15
293.15
293.15
293.15
293.15
293.15
293.15
293.15
293.15
293.15
293.15
293.15
293.15
293.15
293.15
293.15
293.15
293.15
293.15
293.15
293.15
293.15
293.15
293.15
293.15
293.15
293.15
293.15
293.15
293.15
293.15
293.15
293.15
293.15
293.15
293.15
293.15
293.15
293.15
293.15
293.15
293.15
293.15
293.15
293.15
293.15
293.15
293.15
293.15
293.15
293.15
293.15
293.15
293.15
293.15
293.15
293.15
293.15
293.15
293.15
293.15
293.15
293.15
293.15
293.15
293.15
293.15
293.15
293.15
293.15
293.15
293.15
293.15
293.15
293.15
293.15
293.15
293.15
293.15
293.15
293.15
293.15
293.15
293.15
293.15
293.15
293.15
293.15
293.15
293.15
293.15
293.15
293.15
293.15
293.15
293.15
293.15
293.15
293.15
293.15
293.15
293.15
293.15
293.15
293.15
293.15
293.15
293.15
293.15
293.15
293.15
293.15
293.15
293.15
293.15
293.15
293.15
293.15
293.15
293.15
293.15
293.15
293.15
293.15
293.15
293.15
293.15
293.15
293.15
293.15
293.15
293.15
293.15
293.15
293.15
293.15
293.15
293.15
293.15
293.15
293.15
293.15
293.15
293.15
293.15
293.15
293.15
293.15
293.15
293.15
293.15
293.15
293.15
293.15
293.15
293.15
293.15
293.15
293.15
293.15
293.15
293.15
293.15
293.15
293.15
293.15
293.15
293.15
293.15
293.15
293.15
293.15
293.15
293.15
293.15
293.15
293.15
293.15
293.15
293.15
293.15
293.15
293.15
293.15
293.15
293.15
293.15
293.15
293.15
293.15
293.15
293.15
293.15
293.15
293.15
293.15
293.15
293.15
293.15
293.15
293.15
293.15
293.15
293.15
293.15
293.15
293.15
293.15
293.15
293.15
293.15
293.15
293.15
293.15
293.15
293.15
293.15
293.15
293.15
293.15
293.15
293.15
293.15
293.15
293.15
293.15
293.15
293.15
293.15
293.15
293.15
293.15
293.15
293.15
293.15
293.15
293.15
293.15
293.15
293.15
293.15
293.15
293.15
293.15
293.15
293.15
293.15
293.15
293.15
293.15
293.15
293.15
293.15
293.15
293.15
293.15
293.15
293.15
293.15
293.15
293.15
293.15
293.15
293.15
293.15
293.15
293.15
293.15
293.15
293.15
293.15
293.15
293.15
293.15
293.15
293.15
293.15
293.15
293.15
293.15
293.15
293.15
293.15
293.15
293.15
293.15
293.15
293.15
293.15
293.15
293.15
293.15
293.15
293.15
293.15
293.15
293.15
293.15
293.15
293.15
293.15
293.15
293.15
293.15
293.15
293.15
293.15
293.15
293.15
293.15
293.15
293.15
293.15
293.15
293.15
293.15
293.15
293.15
293.15
293.15
293.15
293.15
293.15
293.15
293.15
293.15
293.15
293.15
293.15
293.15
293.15
293.15
293.15
293.15
293.15
293.15
293.15
293.15
293.15
293.15
293.15
293.15
293.15
293.15
293.15
293.15
293.15
293.15
293.15
293.15
293.15
293.15
293.15
293.15
293.15
293.15
293.15
293.15
293.15
293.15
293.15
293.15
293.15
293.15
293.15
293.15
293.15
293.15
293.15
293.15
293.15
293.15
293.15
293.15
293.15
293.15
293.15
293.15
293.15
293.15
293.15
293.15
293.15
293.15
293.15
293.15
293.15
293.15
293.15
293.15
293.15
293.15
293.15
293.15
293.15
293.15
293.15
293.15
293.15
293.15
293.15
293.15
293.15
293.15
293.15
293.15
293.15
293.15
293.15
293.15
293.15
293.15
293.15
293.15
293.15
293.15
293.15
293.15
293.15
293.15
293.15
293.15
293.15
293.15
293.15
293.15
293.15
293.15
293.15
293.15
293.15
293.15
293.15
293.15
293.15
293.15
293.15
293.15
293.15
293.15
293.15
293.15
293.15
293.15
293.15
293.15
293.15
293.15
293.15
293.15
293.15
293.15
293.15
293.15
293.15
293.15
293.15
293.15
293.15
293.15
293.15
293.15
293.15
293.15
293.15
293.15
293.15
293.15
293.15
293.15
293.15
293.15
293.15
293.15
293.15
293.15
293.15
293.15
293.15
293.15
293.15
293.15
293.15
293.15
293.15
293.15
293.15
293.15
293.15
293.15
293.15
293.15
293.15
293.15
293.15
293.15
293.15
293.15
293.15
293.15
293.15
293.15
293.15
293.15
293.15
293.15
293.15
293.15
293.15
293.15
293.15
293.15
293.15
293.15
293.15
293.15
293.15
293.15
293.15
293.15
293.15
293.15
293.15
293.15
293.15
293.15
293.15
293.15
293.15
293.15
293.15
293.15
293.15
293.15
293.15
293.15
293.15
293.15
293.15
293.15
293.15
293.15
293.15
293.15
293.15
293.15
293.15
293.15
293.15
293.15
293.15
293.15
293.15
293.15
293.15
293.15
293.15
293.15
293.15
293.15
293.15
293.15
293.15
293.15
293.15
293.15
293.15
293.15
293.15
293.15
293.15
293.15
293.15
293.15
293.15
293.15
293.15
293.15
293.15
293.15
293.15
293.15
293.15
293.15
293.15
293.15
293.15
293.15
293.15
293.15
293.15
293.15
293.15
293.15
293.15
293.15
293.15
293.15
293.15
293.15
293.15
293.15
293.15
293.15
293.15
293.15
293.15
293.15
293.15
293.15
293.15
293.15
293.15
293.15
293.15
293.15
293.15
293.15
293.15
293.15
293.15
293.15
293.15
293.15
293.15
293.15
293.15
293.15
293.15
293.15
293.15
293.15
293.15
293.15
293.15
293.15
293.15
293.15
293.15
293.15
293.15
293.15
293.15
293.15
293.15
293.15
293.15
293.15
293.15
293.15
293.15
293.15
293.15
293.15
293.15
293.15
293.15
293.15
293.15
293.15
293.15
293.15
293.15
293.15
293.15
293.15
293.15
293.15
293.15
293.15
293.15
293.15
293.15
293.15
293.15
293.15
293.15
293.15
293.15
293.15
293.15
293.15
293.15
293.15
293.15
293.15
293.15
293.15
293.15
293.15
293.15
293.15
293.15
293.15
293.15
293.15
293.15
293.15
293.15
293.15
293.15
293.15
293.15
293.15
293.15
293.15
293.15
293.15
293.15
293.15
293.15
293.15
293.15
293.15
293.15
293.15
293.15
293.15
293.15
293.15
293.15
293.15
293.15
293.15
293.15
293.15
293.15
293.15
293.15
293.15
293.15
293.15
293.15
293.15
293.15
293.15
293.15
293.15
293.15
293.15
293.15
293.15
293.15
293.15
293.15
293.15
293.15
293.15
293.15
293.15
293.15
293.15
293.15
293.15
293.15
293.15
293.15
293.15
293.15
293.15
293.15
293.15
293.15
293.15
293.15
293.15
293.15
293.15
293.15
293.15
293.15
293.15
293.15
293.15
293.15
293.15
293.15
293.15
293.15
293.15
293.15
293.15
293.15
293.15
293.15
293.15
293.15
293.15
293.15
293.15
293.15
293.15
293.15
293.15
293.15
293.15
293.15
293.15
293.15
293.15
293.15
293.15
293.15
293.15
293.15
293.15
293.15
293.15
293.15
293.15
293.15
293.15
293.15
293.15
293.15
293.15
293.15
293.15
293.15
293.15
293.15
293.15
293.15
293.15
293.15
293.15
293.15
293.15
293.15
293.15
293.15
293.15
293.15
293.15
293.15
293.15
293.15
293.15
293.15
293.15
293.15
293.15
293.15
293.15
293.15
293.15
293.15
293.15
293.15
293.15
293.15
293.15
293.15
293.15
293.15
293.15
293.15
293.15
293.15
293.15
293.15
293.15
293.15
293.15
293.15
293.15
293.15
293.15
293.15
293.15
293.15
293.15
293.15
293.15
293.15
293.15
293.15
293.15
293.15
293.15
293.15
293.15
293.15
293.15
293.15
293.15
293.15
293.15
293.15
293.15
293.15
293.15
293.15
293.15
293.15
293.15
293.15
293.15
293.15
293.15
293.15
293.15
293.15
293.15
293.15
293.15
293.15
293.15
293.15
293.15
293.15
293.15
293.15
293.15
293.15
293.15
293.15
293.15
293.15
293.15
293.15
293.15
293.15
293.15
293.15
293.15
293.15
293.15
293.15
293.15
293.15
293.15
293.15
293.15
293.15
293.15
293.15
293.15
293.15
293.15
293.15
293.15
293.15
293.15
293.15
293.15
293.15
293.15
293.15
293.15
293.15
293.15
293.15
293.15
293.15
293.15
293.15
293.15
293.15
293.15
293.15
293.15
293.15
293.15
293.15
293.15
293.15
293.15
293.15
293.15
293.15
293.15
293.15
293.15
293.15
293.15
293.15
293.15
293.15
293.15
293.15
293.15
293.15
293.15
293.15
293.15
293.15
293.15
293.15
293.15
293.15
293.15
293.15
293.15
293.15
293.15
293.15
293.15
293.15
293.15
293.15
293.15
293.15
293.15
293.15
293.15
293.15
293.15
293.15
293.15
293.15
293.15
293.15
293.15
293.15
293.15
293.15
293.15
293.15
293.15
293.15
293.15
293.15
293.15
293.15
293.15
293.15
293.15
293.15
293.15
293.15
293.15
293.15
293.15
293.15
293.15
293.15
293.15
293.15
293.15
293.15
293.15
293.15
293.15
293.15
293.15
293.15
293.15
293.15
293.15
293.15
293.15
293.15
293.15
293.15
293.15
293.15
293.15
293.15
293.15
293.15
293.15
293.15
293.15
293.15
293.15
293.15
293.15
293.15
293.15
293.15
293.15
293.15
293.15
293.15
293.15
293.15
293.15
293.15
293.15
293.15
293.15
293.15
293.15
293.15
293.15
293.15
293.15
293.15
293.15
293.15
293.15
293.15
293.15
293.15
293.15
293.15
293.15
293.15
293.15
293.15
293.15
293.15
293.15
293.15
293.15
293.15
293.15
293.15
293.15
293.15
293.15
293.15
293.15
293.15
293.15
293.15
293.15
293.15
293.15
293.15
293.15
293.15
293.15
293.15
293.15
293.15
293.15
293.15
293.15
293.15
293.15
293.15
293.15
293.15
293.15
293.15
293.15
293.15
293.15
293.15
293.15
293.15
293.15
293.15
293.15
293.15
293.15
293.15
293.15
293.15
293.15
293.15
293.15
293.15
293.15
293.15
293.15
293.15
293.15
293.15
293.15
293.15
293.15
293.15
293.15
293.15
293.15
293.15
293.15
293.15
293.15
293.15
293.15
293.15
293.15
293.15
293.15
293.15
293.15
293.15
293.15
293.15
293.15
293.15
293.15
293.15
293.15
293.15
293.15
293.15
293.15
293.15
293.15
293.15
293.15
293.15
293.15
293.15
293.15
293.15
293.15
293.15
293.15
293.15
293.15
293.15
293.15
293.15
293.15
293.15
293.15
293.15
293.15
293.15
293.15
293.15
293.15
293.15
293.15
293.15
293.15
293.15
293.15
293.15
293.15
293.15
293.15
293.15
293.15
293.15
293.15
293.15
293.15
293.15
293.15
293.15
293.15
293.15
293.15
293.15
293.15
293.15
293.15
293.15
293.15
293.15
293.15
293.15
293.15
293.15
293.15
293.15
293.15
293.15
293.15
293.15
293.15
293.15
293.15
293.15
293.15
293.15
293.15
293.15
293.15
293.15
293.15
293.15
293.15
293.15
293.15
293.15
293.15
293.15
293.15
293.15
293.15
293.15
293.15
293.15
293.15
293.15
293.15
293.15
293.15
293.15
293.15
293.15
293.15
293.15
293.15
293.15
293.15
293.15
293.15
293.15
293.15
293.15
293.15
293.15
293.15
293.15
293.15
293.15
293.15
293.15
293.15
293.15
293.15
293.15
293.15
293.15
293.15
293.15
293.15
293.15
293.15
293.15
293.15
293.15
293.15
293.15
293.15
293.15
293.15
293.15
293.15
293.15
293.15
293.15
293.15
293.15
293.15
293.15
293.15
293.15
293.15
293.15
293.15
293.15
293.15
293.15
293.15
293.15
293.15
293.15
293.15
293.15
293.15
293.15
293.15
293.15
293.15
293.15
293.15
293.15
293.15
293.15
293.15
293.15
293.15
293.15
293.15
293.15
293.15
293.15
293.15
293.15
293.15
293.15
293.15
293.15
293.15
293.15
293.15
293.15
293.15
293.15
293.15
293.15
293.15
293.15
293.15
293.15
293.15
293.15
293.15
293.15
293.15
293.15
293.15
293.15
293.15
293.15
293.15
293.15
293.15
293.15
293.15
293.15
293.15
293.15
293.15
293.15
293.15
293.15
293.15
293.15
293.15
293.15
293.15
293.15
293.15
293.15
293.15
293.15
293.15
293.15
293.15
293.15
293.15
293.15
293.15
293.15
393.15
393.15
393.15
393.15
393.15
393.15
393.15
393.15
393.15
393.15
393.15
393.15
393.15
393.15
393.15
393.15
393.15
393.15
393.15
393.15
393.15
393.15
393.15
393.15
393.15
393.15
393.15
393.15
393.15
393.15
393.15
393.15
393.15
393.15
393.15
393.15
393.15
393.15
393.15
393.15
393.15
393.15
393.15
393.15
393.15
393.15
393.15
393.15
393.15
393.15
393.15
393.15
393.15
393.15
393.15
393.15
393.15
393.15
393.15
393.15
393.15
393.15
393.15
393.15
393.15
393.15
393.15
393.15
393.15
393.15
393.15
393.15
393.15
393.15
393.15
393.15
393.15
393.15
393.15
393.15
393.15
393.15
393.15
393.15
393.15
393.15
393.15
393.15
393.15
393.15
393.15
393.15
393.15
393.15
393.15
393.15
393.15
393.15
393.15
393.15
393.15
393.15
393.15
393.15
393.15
393.15
393.15
393.15
393.15
393.15
393.15
393.15
393.15
393.15
393.15
393.15
393.15
393.15
393.15
393.15
393.15
393.15
393.15
393.15
393.15
393.15
393.15
393.15
393.15
393.15
393.15
393.15
393.15
393.15
393.15
393.15
393.15
393.15
393.15
393.15
393.15
393.15
393.15
393.15
393.15
393.15
393.15
393.15
393.15
393.15
393.15
393.15
393.15
393.15
393.15
393.15
393.15
393.15
393.15
393.15
393.15
393.15
393.15
393.15
393.15
393.15
393.15
393.15
393.15
393.15
393.15
393.15
393.15
393.15
393.15
393.15
393.15
393.15
393.15
393.15
393.15
393.15
393.15
393.15
393.15
393.15
393.15
393.15
393.15
393.15
393.15
393.15
393.15
393.15
393.15
393.15
393.15
393.15
393.15
393.15
393.15
393.15
393.15
393.15
393.15
393.15
393.15
393.15
393.15
393.15
393.15
393.15
393.15
393.15
393.15
393.15
393.15
393.15
393.15
393.15
393.15
393.15
393.15
393.15
393.15
393.15
393.15
393.15
393.15
393.15
393.15
393.15
393.15
393.15
393.15
393.15
393.15
393.15
393.15
393.15
393.15
393.15
393.15
393.15
393.15
393.15
393.15
393.15
393.15
393.15
393.15
393.15
393.15
393.15
393.15
393.15
393.15
393.15
393.15
393.15
393.15
393.15
393.15
393.15
393.15
393.15
393.15
393.15
393.15
393.15
393.15
393.15
393.15
393.15
393.15
393.15
393.15
393.15
393.15
393.15
393.15
393.15
393.15
393.15
393.15
393.15
393.15
393.15
393.15
393.15
393.15
393.15
393.15
393.15
393.15
393.15
393.15
393.15
393.15
393.15
393.15
393.15
393.15
393.15
393.15
393.15
393.15
393.15
393.15
393.15
393.15
393.15
393.15
393.15
393.15
393.15
393.15
393.15
393.15
393.15
393.15
393.15
393.15
393.15
393.15
393.15
393.15
393.15
393.15
393.15
393.15
393.15
393.15
393.15
393.15
393.15
393.15
393.15
393.15
393.15
393.15
393.15
393.15
393.15
393.15
393.15
393.15
393.149
393.149
393.149
393.149
393.149
393.149
393.15
393.15
393.15
393.15
393.15
393.15
393.15
393.15
393.15
393.15
393.149
393.149
393.149
393.149
393.149
393.149
393.149
393.149
393.149
393.149
393.149
393.149
393.149
393.149
393.15
393.15
393.15
393.15
393.15
393.149
393.149
393.149
393.148
393.148
393.148
393.148
393.148
393.148
393.148
393.148
393.148
393.148
393.149
393.149
393.149
393.15
393.15
393.149
393.149
393.149
393.148
393.148
393.147
393.147
393.147
393.146
393.146
393.146
393.146
393.147
393.147
393.147
393.148
393.148
393.149
393.149
393.149
393.148
393.148
393.147
393.146
393.146
393.145
393.144
393.144
393.144
393.144
393.144
393.144
393.144
393.144
393.145
393.146
393.146
393.147
393.148
393.148
393.145
393.146
393.145
393.143
393.142
393.141
393.14
393.14
393.139
393.139
393.139
393.139
393.14
393.14
393.141
393.142
393.143
393.145
393.146
393.145
393.139
393.143
393.141
393.138
393.136
393.135
393.133
393.132
393.131
393.131
393.131
393.131
393.132
393.133
393.135
393.136
393.138
393.141
393.143
393.139
393.128
393.136
393.134
393.13
393.127
393.124
393.122
393.12
393.119
393.118
393.118
393.119
393.12
393.121
393.124
393.127
393.13
393.134
393.136
393.128
393.107
393.125
393.121
393.116
393.111
393.106
393.103
393.1
393.098
393.098
393.098
393.098
393.1
393.103
393.106
393.111
393.116
393.122
393.125
393.107
393.068
393.105
393.101
393.093
393.085
393.079
393.073
393.069
393.067
393.066
393.065
393.067
393.069
393.073
393.079
393.085
393.093
393.101
393.105
393.068
393.001
393.072
393.069
393.057
393.045
393.036
393.028
393.022
393.018
393.016
393.016
393.018
393.022
393.028
393.035
393.045
393.056
393.069
393.072
393.001
392.887
393.018
393.017
393
392.984
392.97
392.959
392.951
392.945
392.942
392.942
392.945
392.95
392.959
392.97
392.983
393
393.017
393.018
392.887
392.702
392.931
392.937
392.914
392.891
392.872
392.856
392.845
392.837
392.832
392.832
392.836
392.844
392.856
392.871
392.891
392.914
392.937
392.931
392.703
392.412
392.797
392.816
392.786
392.755
392.728
392.706
392.689
392.678
392.672
392.672
392.677
392.689
392.705
392.727
392.753
392.785
392.816
392.797
392.413
391.972
392.594
392.637
392.598
392.556
392.519
392.489
392.466
392.45
392.441
392.441
392.449
392.465
392.487
392.517
392.554
392.597
392.636
392.594
391.975
391.328
392.297
392.376
392.329
392.273
392.223
392.182
392.149
392.126
392.114
392.114
392.125
392.147
392.179
392.22
392.269
392.326
392.374
392.296
391.332
390.416
391.871
392.006
391.95
391.876
391.81
391.753
391.707
391.675
391.658
391.657
391.673
391.704
391.748
391.804
391.871
391.944
392.002
391.869
390.42
389.161
391.276
391.492
391.426
391.331
391.242
391.165
391.102
391.056
391.032
391.031
391.053
391.096
391.157
391.234
391.322
391.417
391.485
391.273
389.166
387.489
390.464
390.791
390.716
390.596
390.479
390.375
390.289
390.226
390.192
390.19
390.22
390.279
390.363
390.466
390.582
390.704
390.781
390.458
387.494
385.323
389.381
389.857
389.775
389.624
389.473
389.335
389.219
389.133
389.087
389.084
389.124
389.203
389.316
389.452
389.603
389.756
389.841
389.371
385.326
382.595
387.967
388.636
388.551
388.364
388.171
387.992
387.839
387.727
387.666
387.661
387.712
387.816
387.963
388.14
388.333
388.523
388.612
387.952
382.595
379.253
386.163
387.074
386.99
386.763
386.523
386.296
386.099
385.954
385.875
385.868
385.933
386.066
386.253
386.478
386.719
386.95
387.04
386.139
379.247
375.269
383.913
385.117
385.04
384.77
384.477
384.196
383.95
383.768
383.669
383.659
383.739
383.903
384.136
384.414
384.709
384.984
385.069
383.877
375.255
370.646
381.166
382.714
382.653
382.338
381.989
381.65
381.35
381.129
381.009
380.996
381.09
381.287
381.57
381.904
382.256
382.577
382.648
381.115
370.621
365.426
377.89
379.824
379.789
379.431
379.026
378.627
378.268
378.007
377.869
377.853
377.961
378.193
378.526
378.915
379.324
379.69
379.738
377.82
365.386
359.686
374.073
376.424
376.426
376.029
375.569
375.106
374.69
374.394
374.241
374.224
374.345
374.606
374.988
375.432
375.893
376.3
376.314
373.984
359.629
353.54
369.731
372.511
372.559
372.129
371.62
371.097
370.628
370.303
370.136
370.12
370.25
370.532
370.957
371.455
371.963
372.403
372.374
369.622
353.467
347.134
364.907
368.107
368.209
367.757
367.208
366.633
366.112
365.764
365.591
365.574
365.706
366.001
366.467
367.012
367.558
368.021
367.942
364.779
347.047
340.633
359.673
363.261
363.42
362.956
362.378
361.751
361.188
360.818
360.648
360.628
360.753
361.059
361.559
362.15
362.724
363.199
363.069
359.53
340.536
334.21
354.128
358.044
358.254
357.788
357.185
356.514
355.921
355.54
355.362
355.338
355.457
355.769
356.294
356.929
357.525
358.004
357.828
353.974
334.107
328.041
348.387
352.548
352.792
352.326
351.713
351.016
350.397
350.011
349.824
349.793
349.914
350.221
350.767
351.431
352.038
352.518
352.313
348.225
327.937
322.293
342.562
346.874
347.135
346.677
346.07
345.342
344.694
344.307
344.11
344.065
344.2
344.501
345.07
345.766
346.371
346.843
346.626
342.4
322.193
317.089
336.779
341.135
341.399
340.958
340.353
339.601
338.958
338.57
338.377
338.334
338.442
338.76
339.319
340.036
340.641
341.097
340.881
336.622
316.998
312.502
331.16
335.45
335.704
335.284
334.69
333.941
333.318
332.939
332.769
332.728
332.809
333.113
333.658
334.371
334.966
335.401
335.198
331.013
312.422
308.556
325.817
329.935
330.169
329.775
329.201
328.463
327.854
327.509
327.333
327.273
327.392
327.654
328.184
328.89
329.466
329.875
329.693
325.687
308.488
305.237
320.845
324.699
324.906
324.542
323.987
323.276
322.719
322.401
322.234
322.201
322.304
322.53
323.012
323.693
324.25
324.629
324.472
320.733
305.181
302.501
316.311
319.83
320.009
319.675
319.15
318.492
317.987
317.714
317.582
317.556
317.626
317.828
318.249
318.88
319.407
319.754
319.625
316.217
302.458
300.289
312.255
315.398
315.548
315.246
314.762
314.163
313.718
313.483
313.362
313.347
313.394
313.578
313.951
314.521
315.006
315.322
315.216
312.179
300.257
298.53
308.695
311.443
311.568
311.297
310.861
310.333
309.957
309.747
309.65
309.648
309.673
309.828
310.149
310.653
311.091
311.372
311.287
308.636
298.507
297.154
305.627
307.983
308.085
307.848
307.467
307.014
306.703
306.541
306.459
306.452
306.492
306.596
306.862
307.29
307.675
307.922
307.853
305.582
297.139
296.094
303.03
305.012
305.097
304.894
304.567
304.189
303.943
303.817
303.743
303.74
303.77
303.857
304.068
304.424
304.753
304.963
304.908
302.997
296.084
295.288
300.869
302.509
302.578
302.408
302.134
301.825
301.633
301.536
301.473
301.469
301.489
301.574
301.732
302.021
302.296
302.473
302.427
300.846
295.283
294.685
299.101
300.435
300.492
300.353
300.127
299.883
299.733
299.651
299.617
299.595
299.631
299.689
299.812
300.043
300.266
300.411
300.373
299.085
294.682
294.239
297.678
298.747
298.794
298.682
298.501
298.309
298.19
298.128
298.111
298.091
298.116
298.163
298.256
298.438
298.617
298.733
298.7
297.668
294.238
293.914
296.551
297.394
297.433
297.344
297.202
297.054
296.968
296.925
296.902
296.899
296.904
296.943
297.016
297.157
297.297
297.388
297.361
296.545
293.913
293.679
295.672
296.328
296.359
296.291
296.181
296.071
296.01
295.977
295.959
295.957
295.962
295.984
296.042
296.148
296.257
296.327
296.304
295.668
293.679
293.513
294.997
295.499
295.525
295.473
295.39
295.308
295.262
295.239
295.227
295.225
295.23
295.247
295.287
295.367
295.45
295.503
295.483
294.995
293.513
293.396
294.486
294.865
294.886
294.848
294.785
294.725
294.69
294.672
294.668
294.663
294.671
294.681
294.71
294.769
294.832
294.871
294.854
294.485
293.396
293.315
294.104
294.387
294.404
294.376
294.33
294.285
294.262
294.25
294.246
294.244
294.248
294.254
294.277
294.319
294.365
294.394
294.38
294.104
293.315
293.26
293.824
294.032
294.045
294.024
293.991
293.959
293.943
293.935
293.932
293.932
293.933
293.939
293.953
293.984
294.018
294.038
294.027
293.823
293.26
293.222
293.62
293.771
293.781
293.767
293.742
293.72
293.708
293.703
293.702
293.702
293.701
293.706
293.716
293.738
293.762
293.777
293.768
293.619
293.222
293.197
293.474
293.582
293.59
293.58
293.563
293.547
293.539
293.537
293.535
293.535
293.534
293.537
293.545
293.56
293.577
293.587
293.58
293.473
293.197
293.18
293.371
293.447
293.453
293.446
293.434
293.424
293.418
293.416
293.417
293.415
293.416
293.417
293.422
293.432
293.444
293.451
293.446
293.37
293.18
293.169
293.298
293.352
293.357
293.352
293.344
293.336
293.333
293.331
293.331
293.331
293.331
293.332
293.335
293.342
293.351
293.355
293.351
293.298
293.169
293.162
293.249
293.286
293.289
293.286
293.28
293.276
293.273
293.272
293.272
293.272
293.272
293.272
293.275
293.28
293.285
293.288
293.285
293.248
293.162
293.158
293.215
293.24
293.243
293.241
293.237
293.234
293.232
293.231
293.231
293.231
293.231
293.232
293.233
293.236
293.24
293.242
293.24
293.215
293.157
293.155
293.192
293.209
293.211
293.21
293.207
293.205
293.204
293.204
293.204
293.204
293.204
293.204
293.205
293.207
293.209
293.211
293.209
293.192
293.155
293.153
293.177
293.189
293.19
293.189
293.187
293.186
293.185
293.185
293.185
293.185
293.185
293.185
293.186
293.187
293.189
293.189
293.188
293.177
293.153
293.152
293.167
293.175
293.176
293.175
293.174
293.173
293.173
293.173
293.172
293.173
293.173
293.173
293.173
293.174
293.175
293.175
293.175
293.167
293.152
293.151
293.161
293.166
293.166
293.166
293.165
293.165
293.165
293.164
293.164
293.164
293.164
293.164
293.165
293.165
293.166
293.166
293.166
293.161
293.151
293.151
293.157
293.16
293.16
293.16
293.16
293.159
293.159
293.159
293.159
293.159
293.159
293.159
293.159
293.16
293.16
293.16
293.16
293.157
293.151
293.15
293.154
293.156
293.156
293.156
293.156
293.156
293.156
293.156
293.156
293.156
293.156
293.156
293.156
293.156
293.156
293.156
293.156
293.154
293.15
293.15
293.153
293.154
293.154
293.154
293.154
293.154
293.154
293.154
293.154
293.154
293.154
293.154
293.154
293.154
293.154
293.154
293.154
293.152
293.15
293.15
293.152
293.152
293.152