/*--------------------------------*- C++ -*----------------------------------*\
| =========                 |                                                 |
| \\      /  F ield         | OpenFOAM: The Open Source CFD Toolbox           |
|  \\    /   O peration     | Version:  2.1.0                                 |
|   \\  /    A nd           | Web:      www.OpenFOAM.org                      |
|    \\/     M anipulation  |                                                 |
\*---------------------------------------------------------------------------*/
FoamFile
{
    version     2.0;
    format      ascii;
    class       volVectorField;
    location    "0.1";
    object      U;
}
// * * * * * * * * * * * * * * * * * * * * * * * * * * * * * * * * * * * * * //

dimensions      [0 1 -1 0 0 0 0];

internalField   nonuniform List<vector> 
6400
(
(-1.31764 -0.000583262 0)
(-1.31502 -0.000708564 0)
(-1.31177 -0.000949068 0)
(-1.30758 -0.00116986 0)
(-1.30257 -0.00135956 0)
(-1.29687 -0.00152013 0)
(-1.29058 -0.00165291 0)
(-1.28381 -0.00176481 0)
(-1.27663 -0.00185892 0)
(-1.26911 -0.00194052 0)
(-1.26128 -0.0020108 0)
(-1.25319 -0.002073 0)
(-1.24486 -0.00212721 0)
(-1.23634 -0.00217511 0)
(-1.22764 -0.00221641 0)
(-1.21878 -0.00225237 0)
(-1.20979 -0.00228337 0)
(-1.20069 -0.00231102 0)
(-1.19148 -0.00233616 0)
(-1.18218 -0.00236012 0)
(-1.17278 -0.00238344 0)
(-1.16329 -0.00240657 0)
(-1.15371 -0.00242911 0)
(-1.14404 -0.00245029 0)
(-1.1343 -0.00246896 0)
(-1.12449 -0.00248408 0)
(-1.11463 -0.00249479 0)
(-1.10473 -0.00250056 0)
(-1.09483 -0.00250118 0)
(-1.08493 -0.00249656 0)
(-1.07507 -0.002487 0)
(-1.06525 -0.00247324 0)
(-1.05549 -0.0024562 0)
(-1.04581 -0.002437 0)
(-1.0362 -0.00241684 0)
(-1.02667 -0.00239699 0)
(-1.01722 -0.0023786 0)
(-1.00784 -0.00236249 0)
(-0.998523 -0.00234918 0)
(-0.989249 -0.00233916 0)
(-0.980007 -0.00233293 0)
(-0.970783 -0.00233079 0)
(-0.961559 -0.0023331 0)
(-0.952318 -0.00234028 0)
(-0.943038 -0.00235268 0)
(-0.933699 -0.00237047 0)
(-0.924279 -0.00239361 0)
(-0.914759 -0.002422 0)
(-0.905116 -0.0024557 0)
(-0.895329 -0.00249498 0)
(-0.885376 -0.0025402 0)
(-0.875233 -0.00259123 0)
(-0.864879 -0.00264712 0)
(-0.854297 -0.00270733 0)
(-0.843467 -0.00277212 0)
(-0.832373 -0.00284122 0)
(-0.820999 -0.00291414 0)
(-0.809329 -0.00299121 0)
(-0.797347 -0.00307234 0)
(-0.785039 -0.0031562 0)
(-0.772395 -0.00324273 0)
(-0.759402 -0.00333256 0)
(-0.746051 -0.00342428 0)
(-0.732335 -0.00351775 0)
(-0.718242 -0.00361461 0)
(-0.703762 -0.00371421 0)
(-0.688886 -0.00381505 0)
(-0.673609 -0.00391775 0)
(-0.657922 -0.00402302 0)
(-0.641812 -0.00413136 0)
(-0.625269 -0.00424294 0)
(-0.608282 -0.00435677 0)
(-0.590843 -0.00447174 0)
(-0.572947 -0.00458869 0)
(-0.554581 -0.00470992 0)
(-0.535727 -0.00483663 0)
(-0.51636 -0.00496999 0)
(-0.496448 -0.00511305 0)
(-0.475944 -0.00527054 0)
(-0.454779 -0.00544867 0)
(-0.432856 -0.00565539 0)
(-0.410043 -0.00590024 0)
(-0.386171 -0.00619344 0)
(-0.361034 -0.00654287 0)
(-0.334395 -0.00695611 0)
(-0.305991 -0.00744024 0)
(-0.275545 -0.00799378 0)
(-0.242819 -0.00860012 0)
(-0.207692 -0.00921652 0)
(-0.170312 -0.00974808 0)
(-0.131394 -0.0100028 0)
(-0.0927941 -0.00959085 0)
(-0.058171 -0.00798555 0)
(-0.0326215 -0.0049822 0)
(-0.0203589 -0.00124079 0)
(-0.0242331 0.00320482 0)
(-0.0526644 0.0112061 0)
(-0.130294 0.0280899 0)
(-0.319734 0.0670851 0)
(-0.898604 0.186516 0)
(-1.71639 -0.00184823 0)
(-1.71139 -0.00304674 0)
(-1.70395 -0.00404859 0)
(-1.69465 -0.00480428 0)
(-1.68433 -0.00538016 0)
(-1.67331 -0.00583548 0)
(-1.66183 -0.00619732 0)
(-1.64999 -0.00649523 0)
(-1.6379 -0.00674063 0)
(-1.62558 -0.00694889 0)
(-1.61311 -0.00712287 0)
(-1.60052 -0.0072707 0)
(-1.58786 -0.0073926 0)
(-1.57516 -0.00749348 0)
(-1.56246 -0.00757325 0)
(-1.54977 -0.00763563 0)
(-1.53714 -0.00768152 0)
(-1.52458 -0.0077149 0)
(-1.51212 -0.00773759 0)
(-1.49978 -0.00775303 0)
(-1.48758 -0.00776285 0)
(-1.47553 -0.00776896 0)
(-1.46364 -0.00777158 0)
(-1.45192 -0.00777022 0)
(-1.44038 -0.00776334 0)
(-1.42901 -0.00774944 0)
(-1.41781 -0.00772717 0)
(-1.40679 -0.00769564 0)
(-1.39593 -0.00765438 0)
(-1.38524 -0.00760329 0)
(-1.37472 -0.0075431 0)
(-1.36436 -0.00747541 0)
(-1.35415 -0.00740224 0)
(-1.3441 -0.00732595 0)
(-1.3342 -0.00724915 0)
(-1.32444 -0.00717453 0)
(-1.31481 -0.00710459 0)
(-1.30532 -0.0070413 0)
(-1.29594 -0.00698625 0)
(-1.28666 -0.00694092 0)
(-1.27748 -0.00690655 0)
(-1.26838 -0.00688385 0)
(-1.25935 -0.00687367 0)
(-1.25036 -0.00687709 0)
(-1.24141 -0.00689491 0)
(-1.23247 -0.00692757 0)
(-1.22354 -0.00697485 0)
(-1.21458 -0.00703626 0)
(-1.2056 -0.00711194 0)
(-1.19658 -0.00720234 0)
(-1.18749 -0.00730835 0)
(-1.17833 -0.00742958 0)
(-1.16908 -0.00756328 0)
(-1.15973 -0.00770789 0)
(-1.15028 -0.00786428 0)
(-1.1407 -0.00803141 0)
(-1.131 -0.00820779 0)
(-1.12117 -0.00839454 0)
(-1.11119 -0.00859109 0)
(-1.10107 -0.00879352 0)
(-1.09079 -0.00900165 0)
(-1.08037 -0.00921697 0)
(-1.0698 -0.00943558 0)
(-1.05908 -0.00965657 0)
(-1.04822 -0.00988353 0)
(-1.03721 -0.0101155 0)
(-1.02606 -0.01035 0)
(-1.01478 -0.0105882 0)
(-1.00335 -0.0108303 0)
(-0.99179 -0.0110778 0)
(-0.980096 -0.0113323 0)
(-0.968266 -0.0115918 0)
(-0.956295 -0.011854 0)
(-0.944181 -0.0121218 0)
(-0.931917 -0.0124014 0)
(-0.919486 -0.012696 0)
(-0.906866 -0.01301 0)
(-0.894031 -0.0133517 0)
(-0.880941 -0.0137327 0)
(-0.867546 -0.0141686 0)
(-0.853786 -0.0146784 0)
(-0.839581 -0.0152849 0)
(-0.824838 -0.0160133 0)
(-0.809442 -0.0168843 0)
(-0.793259 -0.0179166 0)
(-0.776143 -0.0191268 0)
(-0.757951 -0.0205086 0)
(-0.73857 -0.0220155 0)
(-0.71797 -0.0235369 0)
(-0.696265 -0.0248368 0)
(-0.673821 -0.025459 0)
(-0.651328 -0.0245519 0)
(-0.629999 -0.0209066 0)
(-0.612435 -0.0135881 0)
(-0.605815 -0.00226232 0)
(-0.61786 0.0122445 0)
(-0.660517 0.037623 0)
(-0.754462 0.0867415 0)
(-0.940654 0.191426 0)
(-1.39365 0.493343 0)
(-1.84688 -0.00319682 0)
(-1.84183 -0.00629583 0)
(-1.83479 -0.00826355 0)
(-1.82609 -0.00957028 0)
(-1.81678 -0.0104748 0)
(-1.80695 -0.0111422 0)
(-1.79697 -0.0116475 0)
(-1.78677 -0.0120487 0)
(-1.77654 -0.0123692 0)
(-1.7662 -0.0126327 0)
(-1.75588 -0.0128458 0)
(-1.74551 -0.0130199 0)
(-1.73516 -0.0131562 0)
(-1.72478 -0.0132611 0)
(-1.71443 -0.0133346 0)
(-1.70409 -0.0133807 0)
(-1.69379 -0.0133997 0)
(-1.68353 -0.0133957 0)
(-1.67335 -0.0133708 0)
(-1.66325 -0.0133294 0)
(-1.65326 -0.0132742 0)
(-1.64339 -0.0132086 0)
(-1.63365 -0.0131347 0)
(-1.62405 -0.0130544 0)
(-1.61459 -0.0129678 0)
(-1.60528 -0.0128746 0)
(-1.5961 -0.0127741 0)
(-1.58706 -0.0126657 0)
(-1.57816 -0.0125491 0)
(-1.56939 -0.0124241 0)
(-1.56074 -0.0122915 0)
(-1.55222 -0.0121528 0)
(-1.54382 -0.0120099 0)
(-1.53554 -0.0118652 0)
(-1.52738 -0.0117213 0)
(-1.51935 -0.0115813 0)
(-1.51144 -0.0114477 0)
(-1.50365 -0.011323 0)
(-1.49599 -0.0112098 0)
(-1.48844 -0.0111106 0)
(-1.481 -0.0110269 0)
(-1.47367 -0.0109598 0)
(-1.46644 -0.0109101 0)
(-1.45931 -0.0108795 0)
(-1.45228 -0.010869 0)
(-1.44533 -0.0108792 0)
(-1.43845 -0.0109097 0)
(-1.43165 -0.0109594 0)
(-1.42491 -0.0110283 0)
(-1.41824 -0.0111165 0)
(-1.41163 -0.0112252 0)
(-1.40507 -0.0113541 0)
(-1.39856 -0.011499 0)
(-1.3921 -0.0116574 0)
(-1.38569 -0.0118304 0)
(-1.37932 -0.0120159 0)
(-1.37302 -0.012211 0)
(-1.36676 -0.0124166 0)
(-1.36058 -0.0126322 0)
(-1.35446 -0.0128531 0)
(-1.34843 -0.013078 0)
(-1.34248 -0.013307 0)
(-1.33664 -0.0135356 0)
(-1.33092 -0.013762 0)
(-1.32533 -0.0139882 0)
(-1.31989 -0.0142128 0)
(-1.31464 -0.0144351 0)
(-1.30959 -0.0146559 0)
(-1.30476 -0.0148719 0)
(-1.30018 -0.0150858 0)
(-1.29589 -0.0153015 0)
(-1.29189 -0.0155164 0)
(-1.28822 -0.0157277 0)
(-1.28491 -0.0159396 0)
(-1.28197 -0.0161608 0)
(-1.27942 -0.0163968 0)
(-1.27728 -0.0166557 0)
(-1.27556 -0.0169497 0)
(-1.27424 -0.0172955 0)
(-1.27333 -0.0177143 0)
(-1.27278 -0.0182319 0)
(-1.27256 -0.018878 0)
(-1.27263 -0.0196872 0)
(-1.27289 -0.0206903 0)
(-1.27327 -0.021913 0)
(-1.27367 -0.0233774 0)
(-1.27396 -0.0250714 0)
(-1.27408 -0.0269253 0)
(-1.274 -0.0287871 0)
(-1.27375 -0.0303473 0)
(-1.27351 -0.0310436 0)
(-1.27353 -0.0299207 0)
(-1.27428 -0.0255504 0)
(-1.27685 -0.0162278 0)
(-1.28407 -5.79174e-05 0)
(-1.29844 0.0233483 0)
(-1.33224 0.0638424 0)
(-1.39963 0.138729 0)
(-1.52997 0.289813 0)
(-1.7784 0.672681 0)
(-1.9249 -0.00433815 0)
(-1.92105 -0.00894291 0)
(-1.91671 -0.0116319 0)
(-1.91105 -0.0133141 0)
(-1.90518 -0.0144206 0)
(-1.89888 -0.0152004 0)
(-1.89262 -0.0157707 0)
(-1.88616 -0.0162099 0)
(-1.87977 -0.0165533 0)
(-1.87327 -0.0168297 0)
(-1.86684 -0.0170509 0)
(-1.86032 -0.0172302 0)
(-1.85385 -0.0173711 0)
(-1.84731 -0.0174789 0)
(-1.8408 -0.0175529 0)
(-1.83425 -0.0175944 0)
(-1.82771 -0.0176024 0)
(-1.82117 -0.0175796 0)
(-1.81466 -0.017528 0)
(-1.80818 -0.0174524 0)
(-1.80175 -0.0173562 0)
(-1.79537 -0.0172435 0)
(-1.78906 -0.0171173 0)
(-1.78283 -0.0169811 0)
(-1.77668 -0.0168366 0)
(-1.77063 -0.016685 0)
(-1.76467 -0.0165261 0)
(-1.7588 -0.0163598 0)
(-1.75304 -0.016186 0)
(-1.74737 -0.0160044 0)
(-1.7418 -0.0158156 0)
(-1.73633 -0.0156205 0)
(-1.73096 -0.0154206 0)
(-1.72571 -0.0152178 0)
(-1.72056 -0.0150146 0)
(-1.71554 -0.0148139 0)
(-1.71064 -0.0146186 0)
(-1.70587 -0.014431 0)
(-1.70123 -0.0142539 0)
(-1.69674 -0.0140906 0)
(-1.69238 -0.0139431 0)
(-1.68818 -0.0138119 0)
(-1.68413 -0.0136983 0)
(-1.68023 -0.0136039 0)
(-1.6765 -0.0135301 0)
(-1.67294 -0.0134776 0)
(-1.66955 -0.013446 0)
(-1.66634 -0.0134336 0)
(-1.66331 -0.0134404 0)
(-1.66047 -0.0134655 0)
(-1.65782 -0.0135096 0)
(-1.65538 -0.0135733 0)
(-1.65315 -0.0136529 0)
(-1.65114 -0.0137448 0)
(-1.64934 -0.0138485 0)
(-1.64778 -0.0139613 0)
(-1.64647 -0.01408 0)
(-1.64542 -0.0142037 0)
(-1.64463 -0.0143308 0)
(-1.64414 -0.0144587 0)
(-1.64396 -0.0145855 0)
(-1.64408 -0.0147082 0)
(-1.64454 -0.014823 0)
(-1.64535 -0.0149283 0)
(-1.64653 -0.0150227 0)
(-1.6481 -0.0151037 0)
(-1.65008 -0.0151717 0)
(-1.65249 -0.01523 0)
(-1.65534 -0.0152703 0)
(-1.65866 -0.0152981 0)
(-1.66246 -0.0153217 0)
(-1.66672 -0.0153365 0)
(-1.67147 -0.015341 0)
(-1.6767 -0.0153406 0)
(-1.6824 -0.0153475 0)
(-1.68855 -0.0153709 0)
(-1.69512 -0.0154228 0)
(-1.70209 -0.0155194 0)
(-1.7094 -0.0156822 0)
(-1.71701 -0.0159371 0)
(-1.72484 -0.0163157 0)
(-1.73284 -0.0168532 0)
(-1.74091 -0.0175901 0)
(-1.74898 -0.0185629 0)
(-1.75697 -0.0197969 0)
(-1.76484 -0.0213082 0)
(-1.77254 -0.0230809 0)
(-1.78006 -0.0250332 0)
(-1.78738 -0.0269896 0)
(-1.79455 -0.0286089 0)
(-1.80161 -0.0292948 0)
(-1.80857 -0.0280875 0)
(-1.81538 -0.0235173 0)
(-1.82229 -0.0136239 0)
(-1.83053 0.00355581 0)
(-1.83915 0.0315933 0)
(-1.85779 0.0807327 0)
(-1.89314 0.170732 0)
(-1.95418 0.347557 0)
(-2.04234 0.72482 0)
(-1.99074 -0.00506179 0)
(-1.98855 -0.0103492 0)
(-1.98734 -0.0134084 0)
(-1.98526 -0.0152786 0)
(-1.98337 -0.0164789 0)
(-1.98116 -0.0173033 0)
(-1.97912 -0.0178963 0)
(-1.9769 -0.0183476 0)
(-1.97481 -0.018699 0)
(-1.97261 -0.0189808 0)
(-1.97049 -0.0192069 0)
(-1.96829 -0.0193905 0)
(-1.96614 -0.0195362 0)
(-1.96395 -0.0196481 0)
(-1.9618 -0.0197256 0)
(-1.95962 -0.0197681 0)
(-1.95747 -0.0197744 0)
(-1.9553 -0.019746 0)
(-1.95316 -0.019685 0)
(-1.95102 -0.0195958 0)
(-1.9489 -0.0194821 0)
(-1.9468 -0.0193476 0)
(-1.94473 -0.0191951 0)
(-1.9427 -0.0190277 0)
(-1.94071 -0.0188483 0)
(-1.93878 -0.0186587 0)
(-1.93691 -0.0184598 0)
(-1.93511 -0.0182515 0)
(-1.93339 -0.0180338 0)
(-1.93174 -0.0178066 0)
(-1.93019 -0.0175702 0)
(-1.92873 -0.0173252 0)
(-1.92736 -0.0170729 0)
(-1.92611 -0.0168146 0)
(-1.92497 -0.0165527 0)
(-1.92396 -0.0162902 0)
(-1.92307 -0.0160299 0)
(-1.92232 -0.0157735 0)
(-1.92173 -0.0155239 0)
(-1.92129 -0.0152843 0)
(-1.92102 -0.0150572 0)
(-1.92092 -0.0148429 0)
(-1.92102 -0.014642 0)
(-1.92131 -0.0144567 0)
(-1.9218 -0.0142881 0)
(-1.92252 -0.0141365 0)
(-1.92346 -0.0140025 0)
(-1.92465 -0.0138847 0)
(-1.92608 -0.0137835 0)
(-1.92776 -0.0136958 0)
(-1.92971 -0.0136221 0)
(-1.93192 -0.0135652 0)
(-1.9344 -0.013521 0)
(-1.93718 -0.0134876 0)
(-1.94023 -0.0134625 0)
(-1.94357 -0.0134426 0)
(-1.9472 -0.0134266 0)
(-1.95111 -0.0134125 0)
(-1.95531 -0.0133968 0)
(-1.95979 -0.0133781 0)
(-1.96457 -0.0133566 0)
(-1.96962 -0.0133281 0)
(-1.97494 -0.0132888 0)
(-1.98053 -0.0132374 0)
(-1.9864 -0.013172 0)
(-1.99251 -0.0130887 0)
(-1.99888 -0.0129885 0)
(-2.0055 -0.0128777 0)
(-2.01234 -0.0127454 0)
(-2.01945 -0.0125931 0)
(-2.02681 -0.0124301 0)
(-2.03445 -0.0122557 0)
(-2.04236 -0.0120726 0)
(-2.05054 -0.0118892 0)
(-2.05897 -0.0117212 0)
(-2.06763 -0.0115805 0)
(-2.0765 -0.0114812 0)
(-2.08556 -0.0114425 0)
(-2.09479 -0.0114885 0)
(-2.10415 -0.0116485 0)
(-2.11361 -0.0119574 0)
(-2.12315 -0.0124523 0)
(-2.13272 -0.0131741 0)
(-2.1423 -0.0141609 0)
(-2.15186 -0.0154366 0)
(-2.16136 -0.0170072 0)
(-2.17075 -0.0188522 0)
(-2.18001 -0.0208851 0)
(-2.18913 -0.0229188 0)
(-2.19809 -0.024612 0)
(-2.20682 -0.0253889 0)
(-2.21508 -0.0243549 0)
(-2.22235 -0.0201439 0)
(-2.22841 -0.010869 0)
(-2.23332 0.00573003 0)
(-2.23456 0.0348734 0)
(-2.23691 0.0868722 0)
(-2.23989 0.181702 0)
(-2.23423 0.361632 0)
(-2.21075 0.689404 0)
(-2.05156 -0.00524964 0)
(-2.05107 -0.010458 0)
(-2.05278 -0.0135137 0)
(-2.05409 -0.0153717 0)
(-2.056 -0.0165518 0)
(-2.05772 -0.017352 0)
(-2.05979 -0.0179243 0)
(-2.06175 -0.018359 0)
(-2.06393 -0.0186983 0)
(-2.06603 -0.0189705 0)
(-2.06828 -0.0191894 0)
(-2.07048 -0.0193658 0)
(-2.07278 -0.019506 0)
(-2.07506 -0.0196119 0)
(-2.07739 -0.0196849 0)
(-2.07971 -0.0197226 0)
(-2.08206 -0.0197251 0)
(-2.08441 -0.0196923 0)
(-2.08678 -0.0196269 0)
(-2.08914 -0.0195323 0)
(-2.09152 -0.0194115 0)
(-2.09391 -0.0192676 0)
(-2.09631 -0.0191024 0)
(-2.09874 -0.0189185 0)
(-2.10119 -0.0187183 0)
(-2.10367 -0.0185042 0)
(-2.1062 -0.0182771 0)
(-2.10878 -0.0180374 0)
(-2.11141 -0.0177849 0)
(-2.1141 -0.0175198 0)
(-2.11687 -0.0172424 0)
(-2.11971 -0.0169535 0)
(-2.12264 -0.0166543 0)
(-2.12564 -0.016346 0)
(-2.12874 -0.0160307 0)
(-2.13194 -0.0157118 0)
(-2.13524 -0.015392 0)
(-2.13864 -0.0150722 0)
(-2.14215 -0.0147552 0)
(-2.14579 -0.0144446 0)
(-2.14954 -0.0141428 0)
(-2.15343 -0.0138504 0)
(-2.15744 -0.0135683 0)
(-2.16159 -0.0132987 0)
(-2.16588 -0.0130431 0)
(-2.1703 -0.0128008 0)
(-2.17485 -0.0125726 0)
(-2.17955 -0.0123593 0)
(-2.1844 -0.0121625 0)
(-2.18936 -0.0119768 0)
(-2.19448 -0.0118014 0)
(-2.19974 -0.0116383 0)
(-2.20515 -0.0114847 0)
(-2.21072 -0.0113415 0)
(-2.21645 -0.0112081 0)
(-2.22232 -0.0110806 0)
(-2.22833 -0.0109581 0)
(-2.23448 -0.0108395 0)
(-2.24077 -0.0107204 0)
(-2.24718 -0.0105995 0)
(-2.25371 -0.0104771 0)
(-2.26036 -0.0103504 0)
(-2.26713 -0.0102149 0)
(-2.27402 -0.0100689 0)
(-2.28102 -0.00991103 0)
(-2.28812 -0.00973696 0)
(-2.29534 -0.00954653 0)
(-2.30268 -0.0093448 0)
(-2.31011 -0.00912519 0)
(-2.31772 -0.00888571 0)
(-2.3254 -0.00862917 0)
(-2.33318 -0.00835906 0)
(-2.34107 -0.00808153 0)
(-2.34907 -0.00780587 0)
(-2.35718 -0.00755008 0)
(-2.36541 -0.00732817 0)
(-2.37374 -0.00715394 0)
(-2.38217 -0.00704724 0)
(-2.3907 -0.00703365 0)
(-2.39931 -0.00714408 0)
(-2.408 -0.00741404 0)
(-2.41675 -0.00788071 0)
(-2.42556 -0.00858168 0)
(-2.43442 -0.00955918 0)
(-2.44332 -0.0108418 0)
(-2.45224 -0.0124308 0)
(-2.46116 -0.0143061 0)
(-2.47005 -0.0163786 0)
(-2.47889 -0.0184606 0)
(-2.4876 -0.020236 0)
(-2.496 -0.0211914 0)
(-2.50368 -0.0205425 0)
(-2.50984 -0.0171538 0)
(-2.51381 -0.00930096 0)
(-2.51483 0.00559097 0)
(-2.50845 0.0330169 0)
(-2.4955 0.0825168 0)
(-2.46882 0.172813 0)
(-2.40751 0.337096 0)
(-2.31057 0.599313 0)
(-2.10487 -0.00486263 0)
(-2.10602 -0.00941445 0)
(-2.11015 -0.0121194 0)
(-2.11443 -0.0137578 0)
(-2.11964 -0.0147893 0)
(-2.12492 -0.0154816 0)
(-2.13066 -0.0159746 0)
(-2.13645 -0.0163496 0)
(-2.1425 -0.0166424 0)
(-2.1486 -0.0168768 0)
(-2.15485 -0.0170652 0)
(-2.16114 -0.0172158 0)
(-2.16751 -0.0173361 0)
(-2.17392 -0.0174261 0)
(-2.18037 -0.0174888 0)
(-2.18682 -0.0175195 0)
(-2.19329 -0.0175187 0)
(-2.19975 -0.0174848 0)
(-2.20621 -0.0174201 0)
(-2.21265 -0.017327 0)
(-2.21908 -0.017208 0)
(-2.22549 -0.017065 0)
(-2.23189 -0.0168992 0)
(-2.23827 -0.0167125 0)
(-2.24464 -0.0165067 0)
(-2.25101 -0.016284 0)
(-2.25737 -0.0160454 0)
(-2.26374 -0.0157911 0)
(-2.27011 -0.0155215 0)
(-2.27649 -0.015237 0)
(-2.28289 -0.0149384 0)
(-2.28929 -0.0146265 0)
(-2.29571 -0.0143031 0)
(-2.30215 -0.0139695 0)
(-2.30859 -0.0136272 0)
(-2.31506 -0.0132798 0)
(-2.32153 -0.0129304 0)
(-2.32802 -0.01258 0)
(-2.33453 -0.0122311 0)
(-2.34105 -0.0118874 0)
(-2.34758 -0.0115508 0)
(-2.35412 -0.0112225 0)
(-2.36069 -0.0109042 0)
(-2.36726 -0.0105982 0)
(-2.37384 -0.0103061 0)
(-2.38044 -0.0100276 0)
(-2.38704 -0.00976224 0)
(-2.39365 -0.00951158 0)
(-2.40027 -0.00927746 0)
(-2.40688 -0.00905741 0)
(-2.41354 -0.00884909 0)
(-2.42016 -0.00865096 0)
(-2.42678 -0.00846196 0)
(-2.43337 -0.00828423 0)
(-2.43995 -0.00811786 0)
(-2.44651 -0.00795964 0)
(-2.45305 -0.00780766 0)
(-2.45957 -0.00766045 0)
(-2.46607 -0.00751469 0)
(-2.47256 -0.00736835 0)
(-2.47902 -0.00722007 0)
(-2.48547 -0.00706693 0)
(-2.49191 -0.0069054 0)
(-2.49834 -0.00673308 0)
(-2.50477 -0.00654817 0)
(-2.5112 -0.00634586 0)
(-2.51764 -0.00612302 0)
(-2.52409 -0.00588555 0)
(-2.53055 -0.00563137 0)
(-2.53707 -0.00536352 0)
(-2.54356 -0.00508035 0)
(-2.55007 -0.00478098 0)
(-2.55659 -0.00447113 0)
(-2.56315 -0.0041569 0)
(-2.56974 -0.00385866 0)
(-2.5764 -0.00359528 0)
(-2.58312 -0.003378 0)
(-2.58992 -0.00322665 0)
(-2.59681 -0.0031673 0)
(-2.60379 -0.00323115 0)
(-2.61089 -0.00345344 0)
(-2.61812 -0.00387306 0)
(-2.62548 -0.00452106 0)
(-2.633 -0.00544706 0)
(-2.64068 -0.00668711 0)
(-2.64851 -0.00822618 0)
(-2.65653 -0.0100606 0)
(-2.66468 -0.0121118 0)
(-2.67291 -0.0141992 0)
(-2.68107 -0.0160555 0)
(-2.68887 -0.0172509 0)
(-2.69576 -0.0171402 0)
(-2.7008 -0.0148548 0)
(-2.70272 -0.00896426 0)
(-2.70055 0.00310715 0)
(-2.6874 0.0264451 0)
(-2.66132 0.0689224 0)
(-2.60966 0.14657 0)
(-2.50597 0.282453 0)
(-2.36346 0.477103 0)
(-2.14821 -0.00389901 0)
(-2.151 -0.00739799 0)
(-2.15707 -0.00948226 0)
(-2.16375 -0.0107318 0)
(-2.17143 -0.0115086 0)
(-2.17944 -0.0120228 0)
(-2.18787 -0.0123865 0)
(-2.19655 -0.0126623 0)
(-2.20543 -0.0128767 0)
(-2.21453 -0.0130468 0)
(-2.22371 -0.0131821 0)
(-2.23307 -0.0132901 0)
(-2.24245 -0.0133757 0)
(-2.25196 -0.0134403 0)
(-2.26147 -0.0134847 0)
(-2.27107 -0.0135044 0)
(-2.28067 -0.0134986 0)
(-2.29029 -0.013465 0)
(-2.2999 -0.0134055 0)
(-2.3095 -0.0133214 0)
(-2.31907 -0.0132148 0)
(-2.3286 -0.0130864 0)
(-2.33809 -0.0129368 0)
(-2.34753 -0.0127668 0)
(-2.35691 -0.0125781 0)
(-2.36623 -0.0123722 0)
(-2.37549 -0.0121503 0)
(-2.38468 -0.0119127 0)
(-2.39379 -0.01166 0)
(-2.40283 -0.0113931 0)
(-2.41178 -0.011113 0)
(-2.42065 -0.0108208 0)
(-2.42942 -0.0105182 0)
(-2.43809 -0.0102072 0)
(-2.44666 -0.0098894 0)
(-2.45512 -0.00956716 0)
(-2.46345 -0.00924339 0)
(-2.47167 -0.00892034 0)
(-2.47976 -0.00860055 0)
(-2.48772 -0.0082867 0)
(-2.49555 -0.00797993 0)
(-2.50324 -0.00768163 0)
(-2.51081 -0.00739467 0)
(-2.51823 -0.00712079 0)
(-2.52551 -0.0068604 0)
(-2.53266 -0.00661394 0)
(-2.53967 -0.00638104 0)
(-2.54654 -0.00616253 0)
(-2.55328 -0.00595852 0)
(-2.55987 -0.00577034 0)
(-2.56635 -0.00559827 0)
(-2.57267 -0.00543831 0)
(-2.57886 -0.00528809 0)
(-2.58491 -0.00514805 0)
(-2.59082 -0.00501743 0)
(-2.59662 -0.00489373 0)
(-2.60229 -0.00477457 0)
(-2.60786 -0.00465766 0)
(-2.61334 -0.00454021 0)
(-2.61872 -0.00441956 0)
(-2.62403 -0.00429322 0)
(-2.62927 -0.00415829 0)
(-2.63445 -0.00401141 0)
(-2.6396 -0.00385012 0)
(-2.64471 -0.00367223 0)
(-2.64979 -0.00347392 0)
(-2.65487 -0.00324397 0)
(-2.65996 -0.00299971 0)
(-2.66507 -0.00273607 0)
(-2.6702 -0.00245604 0)
(-2.67538 -0.00215781 0)
(-2.68062 -0.00183927 0)
(-2.68593 -0.00150736 0)
(-2.69133 -0.00115741 0)
(-2.69682 -0.000813822 0)
(-2.70244 -0.0005107 0)
(-2.70817 -0.000246428 0)
(-2.71402 -4.0697e-05 0)
(-2.72002 8.03722e-05 0)
(-2.72618 8.60819e-05 0)
(-2.73253 -5.82925e-05 0)
(-2.73907 -0.00039167 0)
(-2.74584 -0.000947236 0)
(-2.75291 -0.00176501 0)
(-2.76014 -0.00290377 0)
(-2.76769 -0.00432388 0)
(-2.7755 -0.00605053 0)
(-2.78351 -0.00803789 0)
(-2.7916 -0.0101026 0)
(-2.79961 -0.012051 0)
(-2.80715 -0.0135469 0)
(-2.81359 -0.014112 0)
(-2.81789 -0.0131057 0)
(-2.81829 -0.0095703 0)
(-2.81349 -0.00126199 0)
(-2.79566 0.0159119 0)
(-2.75894 0.0477863 0)
(-2.68818 0.106363 0)
(-2.55485 0.206153 0)
(-2.38633 0.337444 0)
(-2.17997 -0.00243283 0)
(-2.18405 -0.00460181 0)
(-2.19148 -0.00589041 0)
(-2.19986 -0.00665367 0)
(-2.20924 -0.00712285 0)
(-2.21909 -0.00742797 0)
(-2.22932 -0.00764109 0)
(-2.23988 -0.00779941 0)
(-2.2506 -0.00792016 0)
(-2.26159 -0.00801262 0)
(-2.27263 -0.00808389 0)
(-2.28388 -0.00813942 0)
(-2.29513 -0.00818112 0)
(-2.30656 -0.00821104 0)
(-2.31798 -0.00822781 0)
(-2.32951 -0.00822851 0)
(-2.34104 -0.00821191 0)
(-2.35261 -0.00817677 0)
(-2.36416 -0.0081245 0)
(-2.37568 -0.00805604 0)
(-2.38715 -0.0079725 0)
(-2.39855 -0.00787406 0)
(-2.40986 -0.00776035 0)
(-2.42107 -0.00763156 0)
(-2.43216 -0.00748898 0)
(-2.44312 -0.00733392 0)
(-2.45393 -0.00716717 0)
(-2.46458 -0.00698909 0)
(-2.47505 -0.00680018 0)
(-2.48534 -0.00660135 0)
(-2.49542 -0.00639368 0)
(-2.5053 -0.00617818 0)
(-2.51496 -0.00595615 0)
(-2.52438 -0.00572966 0)
(-2.53357 -0.00550056 0)
(-2.54251 -0.00526973 0)
(-2.55119 -0.00503873 0)
(-2.55962 -0.0048107 0)
(-2.5678 -0.00458798 0)
(-2.57571 -0.00437137 0)
(-2.58336 -0.00416154 0)
(-2.59077 -0.00396029 0)
(-2.59792 -0.00377027 0)
(-2.60482 -0.0035921 0)
(-2.61148 -0.00342487 0)
(-2.61791 -0.00326917 0)
(-2.62412 -0.00312547 0)
(-2.63011 -0.00299357 0)
(-2.6359 -0.00287276 0)
(-2.64149 -0.00276478 0)
(-2.64691 -0.00267033 0)
(-2.65216 -0.00258534 0)
(-2.65725 -0.00250648 0)
(-2.66221 -0.00243292 0)
(-2.66705 -0.00236335 0)
(-2.67178 -0.00229533 0)
(-2.6764 -0.00222632 0)
(-2.68095 -0.00215386 0)
(-2.68543 -0.00207522 0)
(-2.68985 -0.00198737 0)
(-2.69423 -0.00188771 0)
(-2.69858 -0.00177324 0)
(-2.70292 -0.00164066 0)
(-2.70726 -0.00148793 0)
(-2.7116 -0.00131237 0)
(-2.71597 -0.00111801 0)
(-2.72036 -0.000865933 0)
(-2.72482 -0.000608646 0)
(-2.72933 -0.000326181 0)
(-2.7339 -1.77941e-05 0)
(-2.73856 0.000317256 0)
(-2.74332 0.000677333 0)
(-2.74819 0.00105572 0)
(-2.75317 0.00146198 0)
(-2.75827 0.00186994 0)
(-2.76354 0.00224306 0)
(-2.76899 0.00258413 0)
(-2.77464 0.00287398 0)
(-2.78049 0.00308689 0)
(-2.78657 0.00319288 0)
(-2.79289 0.00315755 0)
(-2.79945 0.00294404 0)
(-2.80628 0.00250819 0)
(-2.81343 0.00182256 0)
(-2.82077 0.000832579 0)
(-2.82846 -0.000447936 0)
(-2.83656 -0.00202902 0)
(-2.84468 -0.00393841 0)
(-2.85302 -0.00597274 0)
(-2.86125 -0.00804008 0)
(-2.86894 -0.00989522 0)
(-2.87542 -0.0112405 0)
(-2.87953 -0.011669 0)
(-2.87946 -0.0106721 0)
(-2.87266 -0.00675698 0)
(-2.8529 0.00265334 0)
(-2.81002 0.0212746 0)
(-2.72685 0.0562769 0)
(-2.57558 0.115606 0)
(-2.39426 0.189367 0)
(-2.19681 -0.000635739 0)
(-2.20157 -0.00129631 0)
(-2.20974 -0.00168736 0)
(-2.219 -0.00191512 0)
(-2.2293 -0.00205185 0)
(-2.24009 -0.00213702 0)
(-2.25129 -0.00219365 0)
(-2.2628 -0.00223274 0)
(-2.27449 -0.00226016 0)
(-2.2864 -0.002278 0)
(-2.29836 -0.00228942 0)
(-2.31049 -0.00229514 0)
(-2.32262 -0.00229511 0)
(-2.33489 -0.00229039 0)
(-2.34715 -0.00227999 0)
(-2.3595 -0.00226355 0)
(-2.37184 -0.00224091 0)
(-2.38418 -0.00221216 0)
(-2.39646 -0.00217805 0)
(-2.40868 -0.002139 0)
(-2.42081 -0.00209535 0)
(-2.43283 -0.00204729 -2.40658e-41)
(-2.44472 -0.00199387 0)
(-2.45645 -0.00193444 0)
(-2.46801 -0.00186973 0)
(-2.47936 -0.00180052 0)
(-2.49051 -0.00172709 0)
(-2.50144 -0.0016495 0)
(-2.51212 -0.00156783 0)
(-2.52255 -0.00148239 0)
(-2.5327 -0.00139385 0)
(-2.54259 -0.00130282 0)
(-2.55218 -0.00120988 0)
(-2.56149 -0.00111639 0)
(-2.57049 -0.00102344 0)
(-2.5792 -0.0009308 0)
(-2.5876 -0.000839319 0)
(-2.59569 -0.000751527 0)
(-2.60349 -0.000668316 0)
(-2.61099 -0.00058931 0)
(-2.6182 -0.000515094 0)
(-2.62513 -0.000447125 0)
(-2.63178 -0.000386885 0)
(-2.63817 -0.000333866 0)
(-2.64431 -0.00028663 0)
(-2.65021 -0.000245662 0)
(-2.65589 -0.000211461 0)
(-2.66135 -0.000183036 0)
(-2.66662 -0.000160033 0)
(-2.6717 -0.000143222 0)
(-2.67661 -0.000131609 0)
(-2.68138 -0.00012183 0)
(-2.686 -0.000111224 0)
(-2.69051 -9.88157e-05 0)
(-2.69491 -8.33304e-05 0)
(-2.69922 -6.23182e-05 0)
(-2.70345 -3.33356e-05 0)
(-2.70762 5.83078e-06 0)
(-2.71173 5.80312e-05 0)
(-2.71581 0.000126152 0)
(-2.71987 0.000212642 0)
(-2.72391 0.000320575 0)
(-2.72795 0.000452895 0)
(-2.73201 0.000611658 0)
(-2.73609 0.000797476 0)
(-2.74023 0.00100884 0)
(-2.74439 0.00128589 0)
(-2.7486 0.00157313 0)
(-2.7529 0.00189117 0)
(-2.75729 0.00224284 0)
(-2.76179 0.00262876 0)
(-2.7664 0.00304561 0)
(-2.77115 0.00348991 0)
(-2.77605 0.00396355 0)
(-2.7811 0.00444429 0)
(-2.78633 0.0049092 0)
(-2.79175 0.00534858 0)
(-2.79738 0.00574377 0)
(-2.80325 0.00606999 0)
(-2.80936 0.00629781 0)
(-2.81574 0.00639341 0)
(-2.82241 0.00631934 0)
(-2.82939 0.00603016 7.08842e-41)
(-2.8367 0.0054931 0)
(-2.84436 0.00467445 0)
(-2.85235 0.00353827 0)
(-2.86071 0.00209284 0)
(-2.86909 0.000288547 3.39185e-42)
(-2.87779 -0.00173869 0)
(-2.88613 -0.00393827 0)
(-2.89399 -0.00618237 0)
(-2.90062 -0.00835651 0)
(-2.90482 -0.0103177 0)
(-2.90478 -0.0119164 -7.00382e-41)
(-2.89728 -0.0126672 0)
(-2.87669 -0.0117506 0)
(-2.83189 -0.00800849 -9.41394e-41)
(-2.74391 0.000756679 0)
(-2.58518 0.016948 0)
(-2.39917 0.0374013 0)
(-2.19444 0.00126687 0)
(-2.19915 0.00216741 0)
(-2.20724 0.00270736 0)
(-2.21643 0.0030332 0)
(-2.22665 0.00323937 0)
(-2.23738 0.00337841 0)
(-2.24851 0.00347985 0)
(-2.25996 0.0035582 0)
(-2.27158 0.00362058 0)
(-2.28343 0.00367224 0)
(-2.29532 0.00371446 0)
(-2.30738 0.00375341 0)
(-2.31944 0.00379004 0)
(-2.33163 0.00382514 0)
(-2.34382 0.00385815 0)
(-2.3561 0.00388644 0)
(-2.36835 0.00390877 0)
(-2.38062 0.00392372 0)
(-2.39282 0.00393159 0)
(-2.40497 0.00393258 0)
(-2.41703 0.00392698 0)
(-2.42898 0.00391395 4.60082e-41)
(-2.4408 0.00389492 0)
(-2.45247 0.00387188 0)
(-2.46396 0.00384468 0)
(-2.47526 0.00381322 0)
(-2.48636 0.00377792 0)
(-2.49723 0.00373917 0)
(-2.50786 0.00369746 0)
(-2.51824 0.00365321 0)
(-2.52836 0.00360654 0)
(-2.5382 0.0035576 0)
(-2.54776 0.00350647 0)
(-2.55703 0.00345257 0)
(-2.56601 0.00339611 0)
(-2.57469 0.00333843 0)
(-2.58307 0.00327894 0)
(-2.59115 0.00321598 0)
(-2.59894 0.00315055 0)
(-2.60643 0.00308394 0)
(-2.61363 0.00301557 0)
(-2.62056 0.00294482 0)
(-2.62721 0.00287125 0)
(-2.6336 0.00279604 0)
(-2.63974 0.00272128 0)
(-2.64565 0.00264663 0)
(-2.65133 0.00257159 0)
(-2.6568 0.00249761 0)
(-2.66207 0.00242499 0)
(-2.66716 0.00235336 0)
(-2.67208 0.0022848 0)
(-2.67684 0.00222257 0)
(-2.68147 0.00216896 0)
(-2.68598 0.00212457 0)
(-2.69038 0.00209017 0)
(-2.69469 0.00206835 0)
(-2.69892 0.00206159 0)
(-2.70308 0.00207165 0)
(-2.70719 0.00210143 0)
(-2.71126 0.00215371 0)
(-2.7153 0.00223063 0)
(-2.71933 0.0023353 0)
(-2.72336 0.00247047 0)
(-2.7274 0.00263809 0)
(-2.73146 0.00283786 0)
(-2.73556 0.0030773 0)
(-2.7397 0.00336937 0)
(-2.7439 0.00369118 0)
(-2.74816 0.00404957 0)
(-2.75251 0.00444826 0)
(-2.75695 0.00488862 0)
(-2.76151 0.00536782 0)
(-2.7662 0.00588261 0)
(-2.77103 0.00642849 0)
(-2.776 0.0069884 0)
(-2.78115 0.0075454 0)
(-2.78649 0.00808592 0)
(-2.79203 0.0085912 0)
(-2.79781 0.00903723 0)
(-2.80384 0.00939538 0)
(-2.81015 0.00963269 0)
(-2.81675 0.00971106 0)
(-2.82369 0.00958881 1.12716e-40)
(-2.83097 0.00922722 0)
(-2.83862 0.00858656 0)
(-2.84664 0.00761903 0)
(-2.855 0.00630576 0)
(-2.8636 0.00460935 5.41827e-41)
(-2.87239 0.00256042 0)
(-2.88078 0.000192598 0)
(-2.88868 -0.00246613 0)
(-2.89507 -0.00546994 0)
(-2.89925 -0.00896799 0)
(-2.89923 -0.0132024 -7.75967e-41)
(-2.89185 -0.0186356 0)
(-2.87135 -0.0262041 0)
(-2.82725 -0.0376656 -4.42756e-40)
(-2.74094 -0.0559045 0)
(-2.58409 -0.0837934 0)
(-2.3999 -0.115479 0)
(-2.17434 0.00303329 0)
(-2.1783 0.00541445 0)
(-2.18556 0.00684424 0)
(-2.19375 0.00770438 0)
(-2.20294 0.00824333 0)
(-2.21258 0.00860271 0)
(-2.22262 0.00886067 0)
(-2.23297 0.00905831 0)
(-2.24349 0.00921413 0)
(-2.25428 0.00934072 0)
(-2.26514 0.00944274 0)
(-2.27617 0.00953106 0)
(-2.28726 0.00960789 0)
(-2.29845 0.0096751 0)
(-2.30968 0.00973231 0)
(-2.32098 0.00977463 0)
(-2.33229 0.00980048 0)
(-2.34361 0.0098073 0)
(-2.35491 0.00979631 0)
(-2.36618 0.00976819 0)
(-2.3774 0.00972393 0)
(-2.38855 0.00966254 0)
(-2.39962 0.00958554 0)
(-2.41061 0.0094952 0)
(-2.42147 0.00939171 0)
(-2.4322 0.00927577 0)
(-2.44279 0.00914863 0)
(-2.45322 0.00901121 0)
(-2.46347 0.00886436 0)
(-2.47355 0.00870897 0)
(-2.48344 0.00854575 0)
(-2.49312 0.00837527 0)
(-2.50259 0.00819807 0)
(-2.51184 0.00801456 0)
(-2.52085 0.00782579 0)
(-2.52964 0.0076335 0)
(-2.53818 0.00743796 0)
(-2.54647 0.0072387 0)
(-2.55452 0.00703758 0)
(-2.56232 0.00683672 0)
(-2.56987 0.0066363 0)
(-2.57718 0.00643622 0)
(-2.58425 0.0062366 0)
(-2.59109 0.0060393 0)
(-2.5977 0.00584714 0)
(-2.60408 0.00566028 0)
(-2.61025 0.00547843 0)
(-2.61621 0.00530307 0)
(-2.62198 0.00513463 0)
(-2.62756 0.00497319 0)
(-2.63296 0.00482146 0)
(-2.6382 0.00468345 0)
(-2.64329 0.00456175 0)
(-2.64824 0.00445606 0)
(-2.65306 0.0043664 0)
(-2.65777 0.00429592 0)
(-2.66238 0.00424745 0)
(-2.6669 0.00422208 0)
(-2.67134 0.0042227 0)
(-2.67572 0.00425234 0)
(-2.68004 0.00431271 0)
(-2.68433 0.00440682 0)
(-2.68859 0.00453768 0)
(-2.69283 0.00470665 0)
(-2.69707 0.00491538 0)
(-2.70132 0.00517055 0)
(-2.70558 0.00547607 0)
(-2.70987 0.00582232 0)
(-2.7142 0.00621138 0)
(-2.71858 0.00664749 0)
(-2.72303 0.00713355 0)
(-2.72757 0.00766677 0)
(-2.7322 0.00824221 0)
(-2.73695 0.00885321 0)
(-2.74183 0.00948655 0)
(-2.74685 0.010128 0)
(-2.75204 0.0107632 0)
(-2.75742 0.0113737 0)
(-2.76301 0.0119362 0)
(-2.76883 0.0124232 0)
(-2.77493 0.0128027 0)
(-2.78131 0.0130372 0)
(-2.78803 0.013086 0)
(-2.7951 0.0129069 0)
(-2.80254 0.012453 0)
(-2.81036 0.0116735 0)
(-2.81854 0.0105206 0)
(-2.82701 0.00893054 0)
(-2.83561 0.00687468 0)
(-2.84403 0.00429489 0)
(-2.85191 0.00117851 0)
(-2.85835 -0.00263974 0)
(-2.86234 -0.0076047 0)
(-2.86267 -0.0143892 0)
(-2.85623 -0.0243102 0)
(-2.83777 -0.0399139 0)
(-2.79764 -0.0658619 0)
(-2.71842 -0.109956 0)
(-2.57172 -0.180396 0)