/*--------------------------------*- C++ -*----------------------------------*\
| =========                 |                                                 |
| \\      /  F ield         | OpenFOAM: The Open Source CFD Toolbox           |
|  \\    /   O peration     | Version:  2.1.0                                 |
|   \\  /    A nd           | Web:      www.OpenFOAM.org                      |
|    \\/     M anipulation  |                                                 |
\*---------------------------------------------------------------------------*/
FoamFile
{
    version     2.0;
    format      ascii;
    class       volScalarField;
    location    "0.37";
    object      C0;
}
// * * * * * * * * * * * * * * * * * * * * * * * * * * * * * * * * * * * * * //

dimensions      [0 0 0 0 0 0 0];

internalField   nonuniform List<scalar> 
6400
(
0.000471994
0.000473856
0.000476182
0.000478599
0.000481014
0.000483405
0.000485769
0.000488108
0.000490423
0.000492718
0.000494994
0.000497254
0.0004995
0.000501736
0.000503963
0.000506185
0.000508403
0.00051062
0.000512839
0.000515063
0.000517294
0.000519535
0.000521788
0.000524057
0.000526343
0.000528649
0.000530979
0.000533335
0.000535719
0.000538136
0.000540586
0.000543074
0.000545603
0.000548174
0.000550792
0.000553459
0.000556179
0.000558954
0.000561788
0.000564684
0.000567645
0.000570676
0.000573778
0.000576956
0.000580214
0.000583555
0.000586983
0.000590502
0.000594116
0.000597829
0.000601645
0.000605569
0.000609605
0.000613758
0.000618032
0.000622432
0.000626964
0.000631631
0.000636441
0.000641397
0.000646506
0.000651773
0.000657203
0.000662804
0.000668581
0.00067454
0.000680687
0.00068703
0.000693575
0.000700328
0.000707296
0.000714487
0.000721908
0.000729565
0.000737465
0.000745615
0.000754022
0.000762692
0.000771631
0.000780845
0.000790337
0.00080011
0.000810167
0.000820507
0.000831128
0.000842022
0.00085318
0.000864588
0.000876225
0.000888063
0.000900066
0.000912186
0.000924354
0.000936456
0.000948311
0.000959704
0.000970468
0.000980279
0.000988619
0.000994801
0.000472083
0.000473954
0.00047626
0.000478647
0.000481028
0.000483384
0.000485714
0.000488018
0.000490299
0.000492559
0.000494801
0.000497026
0.000499238
0.000501439
0.000503632
0.000505818
0.000508002
0.000510184
0.000512368
0.000514557
0.000516752
0.000518958
0.000521175
0.000523407
0.000525657
0.000527928
0.000530221
0.00053254
0.000534887
0.000537266
0.000539679
0.00054213
0.00054462
0.000547153
0.000549732
0.00055236
0.00055504
0.000557776
0.00056057
0.000563426
0.000566346
0.000569336
0.000572397
0.000575534
0.000578751
0.00058205
0.000585436
0.000588914
0.000592485
0.000596156
0.000599931
0.000603813
0.000607807
0.000611918
0.000616151
0.000620511
0.000625002
0.00062963
0.0006344
0.000639318
0.000644389
0.00064962
0.000655015
0.000660582
0.000666326
0.000672255
0.000678374
0.000684691
0.000691212
0.000697945
0.000704897
0.000712075
0.000719488
0.000727141
0.000735043
0.000743202
0.000751625
0.000760318
0.00076929
0.000778546
0.000788092
0.000797934
0.000808073
0.000818513
0.000829253
0.000840289
0.000851614
0.000863214
0.00087507
0.000887149
0.000899406
0.000911776
0.000924159
0.000936416
0.00094836
0.000959743
0.000970372
0.000979876
0.000987726
0.000993339
0.000471993
0.000473848
0.000476108
0.000478434
0.000480751
0.000483043
0.000485308
0.000487546
0.000489761
0.000491955
0.00049413
0.000496288
0.000498432
0.000500566
0.00050269
0.000504808
0.000506922
0.000509034
0.000511148
0.000513265
0.000515389
0.000517522
0.000519666
0.000521825
0.000524
0.000526195
0.000528412
0.000530654
0.000532923
0.000535223
0.000537556
0.000539925
0.000542333
0.000544783
0.000547278
0.000549821
0.000552415
0.000555063
0.000557769
0.000560535
0.000563365
0.000566262
0.00056923
0.000572273
0.000575394
0.000578597
0.000581885
0.000585264
0.000588736
0.000592306
0.000595979
0.000599758
0.000603649
0.000607656
0.000611785
0.000616039
0.000620424
0.000624946
0.000629609
0.00063442
0.000639385
0.000644508
0.000649797
0.000655259
0.000660898
0.000666724
0.000672741
0.000678958
0.000685382
0.000692021
0.000698882
0.000705974
0.000713305
0.000720883
0.000728717
0.000736815
0.000745187
0.000753841
0.000762787
0.000772031
0.000781584
0.000791453
0.000801645
0.000812167
0.000823021
0.00083421
0.000845732
0.000857576
0.000869725
0.000882146
0.000894786
0.00090756
0.000920342
0.00093295
0.000945135
0.000956637
0.000967248
0.000976595
0.000984213
0.00098961
0.00047156
0.000473374
0.000475559
0.000477798
0.000480024
0.000482223
0.000484394
0.000486538
0.000488658
0.000490756
0.000492834
0.000494894
0.00049694
0.000498973
0.000500997
0.000503012
0.000505023
0.000507032
0.00050904
0.00051105
0.000513066
0.000515089
0.000517122
0.000519168
0.000521229
0.000523308
0.000525408
0.00052753
0.000529678
0.000531855
0.000534063
0.000536305
0.000538584
0.000540903
0.000543264
0.000545671
0.000548126
0.000550634
0.000553196
0.000555816
0.000558498
0.000561245
0.00056406
0.000566946
0.000569908
0.000572949
0.000576073
0.000579284
0.000582586
0.000585983
0.000589479
0.000593079
0.000596788
0.00060061
0.000604549
0.000608612
0.000612803
0.000617126
0.000621589
0.000626196
0.000630954
0.000635868
0.000640945
0.000646191
0.000651613
0.000657218
0.000663014
0.000669007
0.000675205
0.000681617
0.00068825
0.000695114
0.000702217
0.000709567
0.000717176
0.000725052
0.000733206
0.000741648
0.000750389
0.000759441
0.000768815
0.000778522
0.000788576
0.000798988
0.000809768
0.000820926
0.000832468
0.000844395
0.000856696
0.000869346
0.000882295
0.000895458
0.000908699
0.000921816
0.000934529
0.000946589
0.000957766
0.000967673
0.000975825
0.000981612
0.000470653
0.000472403
0.000474489
0.000476617
0.000478728
0.000480809
0.00048286
0.000484884
0.000486882
0.000488856
0.000490809
0.000492743
0.00049466
0.000496564
0.000498455
0.000500337
0.000502212
0.000504083
0.000505951
0.00050782
0.000509691
0.000511568
0.000513452
0.000515346
0.000517253
0.000519174
0.000521114
0.000523073
0.000525055
0.000527062
0.000529097
0.000531163
0.000533262
0.000535397
0.000537571
0.000539787
0.000542047
0.000544355
0.000546713
0.000549125
0.000551594
0.000554123
0.000556715
0.000559373
0.000562102
0.000564905
0.000567785
0.000570746
0.000573792
0.000576927
0.000580155
0.000583481
0.000586908
0.000590442
0.000594086
0.000597846
0.000601726
0.000605732
0.000609869
0.000614143
0.000618558
0.000623121
0.000627839
0.000632716
0.000637761
0.000642978
0.000648377
0.000653963
0.000659745
0.000665731
0.000671928
0.000678345
0.000684992
0.000691878
0.000699013
0.000706407
0.000714073
0.000722022
0.000730268
0.000738824
0.000747706
0.00075693
0.000766514
0.000776477
0.000786839
0.000797621
0.000808841
0.000820516
0.000832655
0.000845252
0.000858281
0.00087168
0.00088534
0.000899084
0.000912649
0.000925794
0.000938251
0.000949562
0.000959074
0.000965773
0.000469168
0.000470836
0.000472802
0.000474798
0.000476771
0.000478713
0.000480623
0.000482503
0.000484355
0.000486182
0.000487984
0.000489765
0.000491528
0.000493273
0.000495004
0.000496723
0.000498431
0.000500133
0.000501828
0.000503521
0.000505213
0.000506906
0.000508603
0.000510307
0.000512019
0.000513741
0.000515477
0.000517229
0.000518998
0.000520788
0.000522601
0.000524439
0.000526305
0.000528202
0.000530131
0.000532096
0.000534099
0.000536143
0.000538231
0.000540365
0.000542549
0.000544785
0.000547077
0.000549427
0.000551838
0.000554315
0.000556859
0.000559476
0.000562167
0.000564937
0.00056779
0.000570729
0.000573758
0.000576882
0.000580104
0.000583429
0.000586861
0.000590405
0.000594065
0.000597847
0.000601756
0.000605797
0.000609975
0.000614297
0.000618768
0.000623394
0.000628183
0.00063314
0.000638272
0.000643588
0.000649095
0.000654801
0.000660715
0.000666847
0.000673207
0.000679806
0.000686655
0.000693769
0.000701161
0.000708848
0.000716848
0.000725182
0.000733873
0.000742947
0.000752433
0.000762364
0.000772775
0.000783702
0.000795178
0.000807233
0.000819879
0.000833107
0.000846867
0.000861057
0.000875486
0.000889904
0.000904014
0.000917244
0.000928635
0.00093652
0.000467029
0.000468598
0.000470427
0.000472275
0.000474095
0.00047588
0.000477631
0.000479348
0.000481035
0.000482693
0.000484323
0.000485929
0.000487513
0.000489076
0.000490621
0.000492149
0.000493664
0.000495167
0.000496659
0.000498145
0.000499624
0.000501101
0.000502576
0.000504052
0.00050553
0.000507014
0.000508505
0.000510006
0.000511518
0.000513044
0.000514585
0.000516145
0.000517724
0.000519327
0.000520954
0.000522608
0.000524291
0.000526007
0.000527756
0.000529542
0.000531367
0.000533234
0.000535145
0.000537103
0.00053911
0.00054117
0.000543285
0.000545458
0.000547692
0.00054999
0.000552356
0.000554792
0.000557301
0.000559888
0.000562556
0.000565308
0.000568148
0.000571081
0.000574109
0.000577237
0.000580469
0.000583811
0.000587265
0.000590839
0.000594535
0.00059836
0.000602319
0.000606418
0.000610663
0.00061506
0.000619617
0.00062434
0.000629237
0.000634318
0.000639591
0.000645068
0.000650758
0.000656677
0.000662837
0.000669257
0.000675954
0.000682953
0.000690278
0.00069796
0.000706034
0.000714541
0.000723529
0.000733052
0.000743167
0.000753936
0.000765417
0.000777663
0.000790706
0.000804555
0.00081915
0.000834242
0.000849535
0.000864375
0.000877466
0.000886384
0.000464196
0.000465652
0.000467334
0.000469023
0.000470679
0.000472296
0.000473874
0.000475416
0.000476923
0.000478397
0.00047984
0.000481254
0.00048264
0.000484002
0.000485341
0.000486658
0.000487956
0.000489237
0.000490503
0.000491755
0.000492996
0.000494227
0.00049545
0.000496667
0.00049788
0.000499091
0.000500302
0.000501514
0.000502729
0.00050395
0.000505177
0.000506414
0.000507661
0.000508921
0.000510195
0.000511485
0.000512794
0.000514123
0.000515474
0.000516849
0.00051825
0.000519679
0.000521139
0.00052263
0.000524156
0.000525719
0.00052732
0.000528962
0.000530648
0.000532379
0.000534158
0.000535988
0.000537871
0.000539809
0.000541806
0.000543864
0.000545986
0.000548174
0.000550432
0.000552763
0.000555169
0.000557654
0.000560222
0.000562877
0.000565621
0.000568459
0.000571395
0.000574433
0.000577577
0.000580833
0.000584206
0.000587701
0.000591325
0.000595085
0.000598988
0.000603042
0.000607257
0.000611645
0.000616218
0.000620991
0.000625981
0.000631209
0.000636699
0.00064248
0.000648586
0.000655058
0.000661946
0.000669309
0.000677216
0.000685743
0.000694978
0.000705018
0.000715966
0.000727939
0.000741049
0.000755125
0.000769884
0.00078473
0.000798194
0.000807341
0.00046068
0.000462017
0.000463548
0.000465075
0.000466563
0.000468007
0.000469408
0.000470768
0.000472089
0.000473371
0.000474618
0.00047583
0.00047701
0.00047816
0.000479281
0.000480374
0.000481443
0.000482487
0.00048351
0.000484513
0.000485497
0.000486464
0.000487415
0.000488353
0.000489278
0.000490193
0.000491099
0.000491996
0.000492888
0.000493775
0.000494658
0.00049554
0.000496421
0.000497304
0.000498189
0.000499078
0.000499972
0.000500873
0.000501782
0.000502701
0.00050363
0.000504573
0.000505529
0.0005065
0.000507489
0.000508496
0.000509522
0.00051057
0.000511641
0.000512736
0.000513857
0.000515005
0.000516183
0.000517391
0.000518632
0.000519907
0.000521217
0.000522565
0.000523952
0.00052538
0.00052685
0.000528365
0.000529926
0.000531536
0.000533196
0.000534909
0.000536677
0.000538503
0.000540388
0.000542336
0.00054435
0.000546432
0.000548588
0.000550819
0.000553133
0.000555533
0.000558026
0.000560619
0.000563322
0.000566145
0.000569099
0.0005722
0.000575465
0.000578915
0.000582575
0.000586474
0.000590648
0.000595145
0.00060002
0.000605337
0.000611172
0.000617619
0.000624792
0.000632836
0.00064195
0.000652355
0.000663565
0.000675303
0.000686356
0.000694036
0.000456558
0.000457775
0.000459158
0.000460527
0.000461851
0.000463127
0.000464355
0.000465536
0.000466672
0.000467765
0.000468816
0.000469828
0.000470801
0.000471738
0.000472639
0.000473507
0.000474343
0.000475148
0.000475923
0.000476672
0.000477393
0.00047809
0.000478762
0.000479413
0.000480042
0.000480651
0.000481241
0.000481813
0.000482369
0.000482909
0.000483435
0.000483947
0.000484447
0.000484936
0.000485414
0.000485883
0.000486343
0.000486795
0.000487241
0.00048768
0.000488114
0.000488545
0.000488971
0.000489395
0.000489817
0.000490237
0.000490657
0.000491077
0.000491498
0.000491921
0.000492346
0.000492774
0.000493205
0.00049364
0.00049408
0.000494524
0.000494975
0.000495431
0.000495894
0.000496364
0.00049684
0.000497324
0.000497815
0.000498314
0.000498821
0.000499337
0.000499861
0.000500395
0.000500937
0.000501488
0.000502049
0.00050262
0.000503202
0.000503795
0.000504401
0.000505021
0.000505656
0.00050631
0.000506985
0.000507687
0.00050842
0.000509191
0.000510008
0.00051088
0.000511817
0.000512829
0.000513921
0.000515118
0.000516441
0.000517911
0.000519554
0.000521407
0.00052352
0.000525962
0.000528838
0.00053229
0.000536424
0.000541022
0.000545647
0.000549133
0.000451963
0.000453064
0.00045431
0.000455533
0.000456706
0.000457825
0.000458891
0.000459905
0.000460868
0.000461782
0.000462648
0.000463469
0.000464245
0.000464978
0.000465669
0.000466319
0.00046693
0.000467504
0.00046804
0.000468541
0.000469007
0.000469439
0.000469839
0.000470207
0.000470545
0.000470853
0.000471133
0.000471384
0.000471608
0.000471805
0.000471976
0.000472122
0.000472243
0.00047234
0.000472413
0.000472463
0.00047249
0.000472495
0.000472478
0.000472438
0.000472378
0.000472295
0.000472192
0.000472067
0.000471921
0.000471754
0.000471566
0.000471357
0.000471127
0.000470875
0.000470601
0.000470306
0.000469988
0.000469647
0.000469282
0.000468894
0.000468481
0.000468042
0.000467577
0.000467086
0.000466565
0.000466017
0.000465437
0.000464827
0.000464182
0.000463503
0.000462787
0.000462031
0.000461235
0.000460396
0.000459511
0.000458577
0.000457593
0.000456555
0.000455461
0.000454306
0.000453089
0.000451806
0.000450453
0.000449027
0.000447526
0.000445945
0.000444282
0.000442533
0.000440696
0.000438769
0.000436754
0.000434634
0.000432389
0.000429988
0.000427381
0.000424539
0.000421419
0.000417991
0.000414213
0.000410034
0.000405409
0.000400393
0.000395459
0.000391891
0.000447075
0.000448073
0.000449198
0.000450294
0.000451334
0.000452315
0.000453236
0.0004541
0.000454908
0.000455661
0.00045636
0.000457007
0.000457604
0.000458151
0.000458649
0.0004591
0.000459504
0.000459863
0.000460177
0.000460448
0.000460676
0.000460863
0.000461008
0.000461112
0.000461177
0.000461203
0.00046119
0.000461138
0.000461049
0.000460922
0.000460758
0.000460557
0.000460319
0.000460044
0.000459733
0.000459386
0.000459001
0.00045858
0.000458122
0.000457627
0.000457094
0.000456524
0.000455915
0.000455267
0.00045458
0.000453853
0.000453085
0.000452275
0.000451424
0.000450528
0.000449588
0.000448603
0.000447571
0.00044649
0.00044536
0.000444178
0.000442943
0.000441654
0.000440307
0.000438902
0.000437435
0.000435905
0.000434309
0.000432643
0.000430905
0.000429091
0.000427198
0.000425221
0.000423157
0.000421002
0.000418749
0.000416395
0.000413933
0.000411359
0.000408664
0.000405843
0.000402887
0.00039979
0.000396542
0.000393134
0.000389557
0.000385798
0.000381847
0.000377689
0.000373311
0.000368693
0.000363814
0.000358645
0.00035315
0.000347287
0.000341013
0.000334216
0.000326748
0.00031856
0.000309589
0.000299785
0.000289213
0.000278266
0.000268082
0.000261125
0.00044209
0.000443
0.000444024
0.000445014
0.000445943
0.000446806
0.000447606
0.000448342
0.000449017
0.000449632
0.000450187
0.000450684
0.000451125
0.000451509
0.000451839
0.000452114
0.000452337
0.000452506
0.000452625
0.000452692
0.000452709
0.000452676
0.000452594
0.000452463
0.000452283
0.000452056
0.00045178
0.000451456
0.000451085
0.000450667
0.0004502
0.000449686
0.000449124
0.000448514
0.000447855
0.000447147
0.00044639
0.000445583
0.000444725
0.000443816
0.000442855
0.000441842
0.000440774
0.000439651
0.000438472
0.000437236
0.000435942
0.000434587
0.00043317
0.00043169
0.000430146
0.000428534
0.000426853
0.000425101
0.000423275
0.000421374
0.000419394
0.000417333
0.000415187
0.000412954
0.00041063
0.000408211
0.000405695
0.000403076
0.00040035
0.000397512
0.000394558
0.000391481
0.000388276
0.000384938
0.000381458
0.000377831
0.000374048
0.000370101
0.000365981
0.000361678
0.000357183
0.000352483
0.000347568
0.000342423
0.000337036
0.00033139
0.000325468
0.000319253
0.000312723
0.000305853
0.000298615
0.000290976
0.000282898
0.000274335
0.000265238
0.000255536
0.000245157
0.000233951
0.000221947
0.000209186
0.00019588
0.000182605
0.000170668
0.000162634
0.000437203
0.000438041
0.000438985
0.00043989
0.00044073
0.0004415
0.000442201
0.000442834
0.000443401
0.000443902
0.000444339
0.000444712
0.000445023
0.000445273
0.000445462
0.00044559
0.00044566
0.000445671
0.000445624
0.000445519
0.000445357
0.000445138
0.000444862
0.000444531
0.000444143
0.000443699
0.000443199
0.000442643
0.000442031
0.000441362
0.000440636
0.000439853
0.000439013
0.000438114
0.000437156
0.000436139
0.000435061
0.000433922
0.000432721
0.000431456
0.000430126
0.000428731
0.000427268
0.000425736
0.000424134
0.00042246
0.000420712
0.000418887
0.000416985
0.000415002
0.000412936
0.000410786
0.000408547
0.000406218
0.000403795
0.000401275
0.000398656
0.000395932
0.000393101
0.000390158
0.0003871
0.000383921
0.000380617
0.000377184
0.000373614
0.000369904
0.000366046
0.000362034
0.000357861
0.00035352
0.000349003
0.000344302
0.000339406
0.000334308
0.000328996
0.000323459
0.000317686
0.000311664
0.00030538
0.00029882
0.000291968
0.000284809
0.000277325
0.000269499
0.000261309
0.000252734
0.000243751
0.000234335
0.000224462
0.000214104
0.000203241
0.000191856
0.000179945
0.000167439
0.000154404
0.000140976
0.000127451
0.000114418
0.000103002
9.52671e-05
0.000432599
0.00043338
0.000434264
0.000435106
0.000435878
0.000436577
0.000437203
0.000437757
0.00043824
0.000438653
0.000438997
0.000439273
0.000439482
0.000439625
0.000439702
0.000439714
0.000439661
0.000439545
0.000439365
0.000439121
0.000438815
0.000438446
0.000438014
0.00043752
0.000436963
0.000436344
0.000435662
0.000434917
0.000434108
0.000433236
0.000432299
0.000431298
0.00043023
0.000429097
0.000427896
0.000426626
0.000425288
0.000423879
0.000422398
0.000420844
0.000419215
0.00041751
0.000415726
0.000413863
0.000411918
0.000409889
0.000407774
0.00040557
0.000403275
0.000400886
0.0003984
0.000395815
0.000393127
0.000390334
0.00038743
0.000384414
0.00038128
0.000378026
0.000374645
0.000371135
0.000367489
0.000363704
0.000359773
0.000355691
0.000351452
0.00034705
0.000342477
0.000337727
0.000332792
0.000327664
0.000322335
0.000316795
0.000311035
0.000305046
0.000298816
0.000292335
0.00028559
0.00027857
0.000271261
0.00026365
0.000255725
0.00024747
0.000238872
0.000229916
0.000220589
0.000210876
0.000200766
0.000190251
0.000179324
0.000167991
0.000156266
0.000144184
0.000131805
0.000119213
0.000106445
9.37088e-05
8.13136e-05
6.97664e-05
5.9886e-05
5.30748e-05
0.000428447
0.000429186
0.000430025
0.000430822
0.000431548
0.000432197
0.000432769
0.000433266
0.000433689
0.000434037
0.000434313
0.000434518
0.000434651
0.000434714
0.000434707
0.00043463
0.000434485
0.000434272
0.00043399
0.000433641
0.000433224
0.00043274
0.000432188
0.000431569
0.000430882
0.000430128
0.000429305
0.000428414
0.000427454
0.000426425
0.000425325
0.000424154
0.000422912
0.000421598
0.000420209
0.000418746
0.000417207
0.00041559
0.000413895
0.000412119
0.000410261
0.00040832
0.000406292
0.000404176
0.000401971
0.000399673
0.00039728
0.000394789
0.000392198
0.000389504
0.000386704
0.000383794
0.000380771
0.000377631
0.000374371
0.000370986
0.000367473
0.000363827
0.000360043
0.000356117
0.000352042
0.000347815
0.000343429
0.000338877
0.000334155
0.000329255
0.000324171
0.000318894
0.000313418
0.000307734
0.000301834
0.000295708
0.000289349
0.000282745
0.000275887
0.000268765
0.000261367
0.000253682
0.000245701
0.00023741
0.0002288
0.00021986
0.00021058
0.000200951
0.000190966
0.000180623
0.000169919
0.000158862
0.000147466
0.000135759
0.000123789
0.000111631
9.93956e-05
8.72344e-05
7.52342e-05
6.36022e-05
5.26298e-05
4.27269e-05
3.44524e-05
2.86503e-05
0.000424894
0.000425601
0.000426412
0.000427181
0.000427877
0.000428495
0.000429033
0.000429493
0.000429875
0.000430181
0.000430411
0.000430567
0.000430648
0.000430655
0.00043059
0.000430452
0.000430241
0.000429959
0.000429605
0.000429181
0.000428684
0.000428117
0.000427479
0.000426769
0.000425988
0.000425135
0.000424211
0.000423213
0.000422143
0.000420999
0.000419781
0.000418488
0.000417118
0.000415672
0.000414147
0.000412543
0.000410859
0.000409092
0.000407242
0.000405306
0.000403284
0.000401172
0.00039897
0.000396674
0.000394283
0.000391794
0.000389205
0.000386512
0.000383714
0.000380807
0.000377787
0.000374652
0.000371398
0.000368021
0.000364518
0.000360883
0.000357114
0.000353205
0.000349152
0.00034495
0.000340594
0.000336077
0.000331396
0.000326543
0.000321512
0.000316297
0.000310891
0.000305288
0.000299478
0.000293456
0.000287212
0.000280738
0.000274026
0.000267067
0.000259851
0.000252369
0.000244612
0.000236571
0.000228236
0.000219598
0.00021065
0.000201384
0.000191795
0.000181879
0.000171635
0.000161065
0.000150178
0.000138989
0.000127525
0.000115826
0.000103957
9.20078e-05
8.01075e-05
6.8427e-05
5.71246e-05
4.63704e-05
3.6439e-05
2.76848e-05
2.05284e-05
1.54779e-05
0.000422069
0.000422754
0.000423547
0.000424302
0.000424984
0.000425586
0.000426106
0.000426546
0.000426906
0.000427188
0.000427391
0.000427518
0.000427567
0.000427541
0.000427439
0.000427262
0.000427011
0.000426685
0.000426285
0.000425811
0.000425263
0.000424641
0.000423946
0.000423177
0.000422333
0.000421415
0.000420423
0.000419355
0.000418211
0.00041699
0.000415693
0.000414317
0.000412862
0.000411328
0.000409712
0.000408014
0.000406232
0.000404365
0.000402412
0.00040037
0.000398237
0.000396013
0.000393695
0.00039128
0.000388767
0.000386153
0.000383436
0.000380612
0.000377679
0.000374635
0.000371475
0.000368197
0.000364797
0.000361271
0.000357616
0.000353828
0.000349902
0.000345834
0.000341619
0.000337253
0.000332731
0.000328048
0.000323197
0.000318174
0.000312972
0.000307586
0.000302009
0.000296234
0.000290254
0.000284063
0.000277653
0.000271017
0.000264146
0.000257033
0.00024967
0.000242049
0.000234162
0.000226002
0.00021756
0.000208832
0.00019981
0.00019049
0.000180871
0.00017095
0.000160732
0.000150221
0.000139431
0.000128379
0.000117095
0.00010562
9.40165e-05
8.23709e-05
7.08018e-05
5.94612e-05
4.85409e-05
3.8195e-05
2.86793e-05
2.0339e-05
1.35847e-05
8.83361e-06
0.000420083
0.000420752
0.000421537
0.000422289
0.000422967
0.000423565
0.00042408
0.000424513
0.000424866
0.000425137
0.00042533
0.000425443
0.000425478
0.000425436
0.000425316
0.00042512
0.000424847
0.000424498
0.000424074
0.000423574
0.000422998
0.000422347
0.00042162
0.000420817
0.000419939
0.000418984
0.000417953
0.000416845
0.000415659
0.000414395
0.000413052
0.000411629
0.000410125
0.000408539
0.000406871
0.000405118
0.00040328
0.000401355
0.000399341
0.000397238
0.000395042
0.000392753
0.000390368
0.000387885
0.000385302
0.000382617
0.000379827
0.000376929
0.00037392
0.000370799
0.000367561
0.000364203
0.000360723
0.000357116
0.000353379
0.000349508
0.000345499
0.000341348
0.00033705
0.000332602
0.000327997
0.000323231
0.0003183
0.000313197
0.000307917
0.000302455
0.000296805
0.00029096
0.000284914
0.000278662
0.000272196
0.000265509
0.000258596
0.000251449
0.000244061
0.000236426
0.000228537
0.000220389
0.000211976
0.000203292
0.000194335
0.000185103
0.000175593
0.000165808
0.000155754
0.000145436
0.00013487
0.000124072
0.000113069
0.000101897
9.06059e-05
7.92664e-05
6.79741e-05
5.68532e-05
4.60667e-05
3.57729e-05
2.61993e-05
1.76853e-05
1.06947e-05
5.73103e-06
0.000419034
0.000419693
0.000420476
0.00042123
0.000421912
0.000422512
0.00042303
0.000423465
0.000423818
0.00042409
0.000424281
0.000424393
0.000424426
0.00042438
0.000424256
0.000424054
0.000423776
0.00042342
0.000422988
0.000422479
0.000421894
0.000421233
0.000420495
0.000419681
0.000418789
0.000417821
0.000416775
0.000415652
0.00041445
0.000413169
0.000411807
0.000410366
0.000408842
0.000407237
0.000405547
0.000403773
0.000401912
0.000399963
0.000397926
0.000395798
0.000393577
0.000391261
0.00038885
0.000386339
0.000383729
0.000381015
0.000378195
0.000375268
0.00037223
0.000369078
0.00036581
0.000362422
0.000358911
0.000355273
0.000351505
0.000347604
0.000343565
0.000339384
0.000335057
0.00033058
0.000325947
0.000321156
0.000316199
0.000311073
0.000305772
0.000300291
0.000294624
0.000288764
0.000282708
0.000276448
0.000269978
0.000263293
0.000256386
0.000249252
0.000241883
0.000234275
0.000226421
0.000218317
0.000209957
0.000201339
0.000192459
0.000183317
0.000173911
0.000164246
0.000154326
0.00014416
0.000133761
0.000123145
0.000112337
0.000101364
9.02654e-05
7.90925e-05
6.79257e-05
5.68883e-05
4.61351e-05
3.58231e-05
2.61424e-05
1.73766e-05
9.96883e-06
4.51286e-06
0.000997957
0.000997956
0.000997451
0.000996742
0.000995905
0.000994961
0.000993916
0.000992764
0.000991492
0.00099008
0.000988498
0.000986708
0.000984659
0.000982295
0.000979555
0.000976387
0.000972782
0.000968832
0.000964871
0.000961791
0.000996029
0.000995858
0.000994971
0.000993767
0.000992374
0.000990836
0.000989167
0.000987361
0.000985402
0.000983259
0.00098089
0.000978237
0.000975229
0.000971785
0.000967822
0.000963281
0.000958164
0.000952638
0.000947228
0.000943201
0.000992062
0.000991452
0.000989944
0.000988004
0.000985805
0.00098342
0.000980875
0.00097817
0.000975283
0.000972173
0.000968779
0.000965022
0.000960805
0.000956018
0.000950558
0.000944354
0.000937433
0.000930054
0.000922957
0.000917834
0.000983849
0.000982544
0.000980128
0.000977176
0.000973904
0.000970414
0.000966748
0.000962911
0.000958878
0.000954596
0.000949984
0.000944935
0.000939324
0.000933012
0.00092587
0.000917822
0.00090893
0.000899567
0.000890722
0.000884549
0.000967685
0.000965466
0.000961897
0.000957703
0.000953156
0.000948383
0.000943443
0.000938348
0.000933067
0.000927537
0.000921653
0.000915281
0.000908264
0.000900433
0.000891637
0.000881799
0.000871032
0.000859845
0.000849492
0.000842526
0.00093795
0.000934739
0.000929956
0.000924488
0.000918672
0.000912662
0.000906529
0.00090029
0.000893911
0.000887316
0.000880378
0.000872938
0.000864812
0.000855801
0.000845736
0.000834551
0.000822424
0.000810011
0.000798821
0.000791553
0.000887261
0.000883276
0.000877585
0.000871204
0.000864522
0.000857715
0.000850866
0.000843992
0.00083706
0.000829977
0.000822601
0.00081476
0.000806255
0.000796867
0.000786418
0.000774859
0.000762443
0.000749971
0.000739122
0.000732346
0.000807823
0.000803695
0.000797918
0.000791525
0.000784919
0.000778286
0.00077171
0.000765208
0.000758734
0.000752186
0.000745436
0.000738326
0.000730659
0.00072222
0.000712832
0.00070247
0.000691449
0.000680668
0.000671744
0.000666494
0.000694466
0.00069122
0.000686685
0.000681713
0.000676645
0.000671647
0.000666782
0.000662052
0.000657399
0.000652753
0.000648034
0.00064313
0.000637885
0.00063213
0.000625705
0.000618608
0.000611153
0.00060414
0.000598738
0.000595878
0.000549629
0.000548404
0.000546645
0.000544742
0.000542852
0.000541064
0.000539395
0.00053784
0.000536386
0.000535029
0.000533739
0.000532488
0.000531207
0.000529843
0.000528316
0.000526625
0.000524901
0.000523451
0.000522641
0.000522484
0.000391585
0.00039298
0.000394959
0.000397155
0.000399431
0.000401721
0.000404035
0.000406404
0.000408863
0.000411451
0.000414204
0.000417185
0.000420469
0.000424144
0.000428296
0.000432898
0.000437718
0.00044233
0.000446214
0.000448724
0.000260891
0.000263978
0.000268296
0.000273088
0.000278064
0.000283093
0.000288134
0.000293196
0.000298351
0.000303688
0.000309296
0.000315297
0.00032185
0.000329118
0.000337235
0.000346176
0.0003556
0.000364681
0.000372184
0.000376838
0.000162291
0.000166006
0.000171229
0.000177065
0.000183174
0.000189407
0.000195706
0.000202067
0.000208547
0.000215245
0.000222296
0.000229854
0.000238108
0.000247253
0.000257441
0.000268671
0.000280624
0.000292422
0.00030244
0.0003087
9.45188e-05
9.79918e-05
0.00010299
0.000108643
0.000114628
0.0001208
0.000127103
0.000133532
0.00014013
0.000146987
0.000154242
0.000162056
0.000170617
0.000180119
0.000190722
0.000202457
0.000215072
0.000227791
0.000238967
0.000246089
5.1815e-05
5.45474e-05
5.86657e-05
6.3416e-05
6.8518e-05
7.38483e-05
7.93549e-05
8.50346e-05
9.09251e-05
9.71037e-05
0.00010369
0.000110833
0.000118702
0.000127476
0.000137309
0.000148254
0.000160137
0.00017233
0.000183375
0.000190595
2.69629e-05
2.88138e-05
3.18427e-05
3.5438e-05
3.93712e-05
4.35408e-05
4.79047e-05
5.24609e-05
5.72422e-05
6.23133e-05
6.77712e-05
7.3741e-05
8.03673e-05
8.78039e-05
9.61891e-05
0.00010559
0.000115899
0.000126637
0.000136614
0.000143386
1.35104e-05
1.45746e-05
1.66025e-05
1.91094e-05
2.19119e-05
2.493e-05
2.8133e-05
3.15222e-05
3.51251e-05
3.89936e-05
4.32036e-05
4.78537e-05
5.30607e-05
5.89511e-05
6.56427e-05
7.32057e-05
8.15805e-05
9.04211e-05
9.88029e-05
0.000104707
6.68066e-06
7.15726e-06
8.41192e-06
1.00488e-05
1.19206e-05
1.39689e-05
1.61754e-05
1.85448e-05
2.10998e-05
2.38799e-05
2.6942e-05
3.03601e-05
3.42238e-05
3.86325e-05
4.36826e-05
4.94388e-05
5.58755e-05
6.27541e-05
6.93892e-05
7.42115e-05
3.37133e-06
3.48294e-06
4.21587e-06
5.22764e-06
6.40897e-06
7.72398e-06
9.16456e-06
1.07372e-05
1.24595e-05
1.436e-05
1.64794e-05
1.88708e-05
2.15994e-05
2.47397e-05
2.8367e-05
3.25377e-05
3.72478e-05
4.23444e-05
4.73444e-05
5.10788e-05
1.74788e-06
1.72588e-06
2.14176e-06
2.73637e-06
3.44522e-06
4.25045e-06
5.14989e-06
6.14959e-06
7.26228e-06
8.50765e-06
9.91323e-06
1.15152e-05
1.33587e-05
1.54965e-05
1.79841e-05
2.08674e-05
2.41564e-05
2.77667e-05
3.13909e-05
3.42112e-05
0.001
0.001
0.001
0.001
0.001
0.001
0.001
0.001
0.001
0.001
0.001
0.001
0.001
0.001
0.001
0.001
0.001
0.001
0.001
0.001
0.001
0.001
0.001
0.001
0.001
0.001
0.001
0.001
0.001
0.001
0.001
0.001
0.001
0.001
0.001
0.001
0.001
0.001
0.001
0.001
0.001
0.001
0.001
0.001
0.001
0.001
0.001
0.001
0.001
0.001
0.001
0.001
0.001
0.001
0.001
0.001
0.001
0.001
0.001
0.001
0.001
0.001
0.001
0.001
0.001
0.001
0.001
0.001
0.001
0.001
0.001
0.001
0.001
0.001
0.001
0.001
0.001
0.001
0.001
0.001
0.001
0.001
0.001
0.001
0.001
0.001
0.001
0.001
0.001
0.001
0.001
0.001
0.001
0.001
0.001
0.001
0.001
0.001
0.001