/*--------------------------------*- C++ -*----------------------------------*\
| =========                 |                                                 |
| \\      /  F ield         | OpenFOAM: The Open Source CFD Toolbox           |
|  \\    /   O peration     | Version:  2.1.0                                 |
|   \\  /    A nd           | Web:      www.OpenFOAM.org                      |
|    \\/     M anipulation  |                                                 |
\*---------------------------------------------------------------------------*/
FoamFile
{
    version     2.0;
    format      ascii;
    class       volScalarField;
    location    "0.37";
    object      C1;
}
// * * * * * * * * * * * * * * * * * * * * * * * * * * * * * * * * * * * * * //

dimensions      [0 0 0 0 0 0 0];

internalField   nonuniform List<scalar> 
6400
(
4.69979e-05
4.62362e-05
4.54274e-05
4.46038e-05
4.37712e-05
4.29323e-05
4.20887e-05
4.12415e-05
4.03916e-05
3.95397e-05
3.86866e-05
3.78328e-05
3.69788e-05
3.61252e-05
3.52725e-05
3.44213e-05
3.35719e-05
3.2725e-05
3.18809e-05
3.10402e-05
3.02033e-05
2.93707e-05
2.85429e-05
2.77204e-05
2.69036e-05
2.6093e-05
2.5289e-05
2.4492e-05
2.37025e-05
2.29209e-05
2.21476e-05
2.1383e-05
2.06276e-05
1.98817e-05
1.91458e-05
1.84202e-05
1.77053e-05
1.70015e-05
1.63091e-05
1.56286e-05
1.49603e-05
1.43045e-05
1.36615e-05
1.30317e-05
1.24154e-05
1.18129e-05
1.12245e-05
1.06504e-05
1.0091e-05
9.54646e-06
9.01706e-06
8.50306e-06
8.0047e-06
7.52215e-06
7.05557e-06
6.6051e-06
6.17088e-06
5.75306e-06
5.35174e-06
4.96698e-06
4.59879e-06
4.24716e-06
3.91205e-06
3.59337e-06
3.291e-06
3.0048e-06
2.73458e-06
2.48012e-06
2.24116e-06
2.01741e-06
1.80856e-06
1.61423e-06
1.43406e-06
1.26761e-06
1.11445e-06
9.74104e-07
8.46079e-07
7.29857e-07
6.249e-07
5.30654e-07
4.46547e-07
3.71998e-07
3.06414e-07
2.49197e-07
1.99745e-07
1.57455e-07
1.21734e-07
9.19956e-08
6.76638e-08
4.81708e-08
3.29564e-08
2.14664e-08
1.31617e-08
7.51606e-09
3.97953e-09
1.9606e-09
8.11403e-10
2.52292e-10
5.56073e-11
9.66724e-12
5.39823e-05
5.31945e-05
5.2342e-05
5.14639e-05
5.05704e-05
4.96665e-05
4.8755e-05
4.78378e-05
4.6916e-05
4.59908e-05
4.50629e-05
4.4133e-05
4.32016e-05
4.22693e-05
4.13366e-05
4.04041e-05
3.94721e-05
3.85413e-05
3.7612e-05
3.66848e-05
3.57601e-05
3.48383e-05
3.392e-05
3.30056e-05
3.20957e-05
3.11906e-05
3.0291e-05
2.93971e-05
2.85095e-05
2.76287e-05
2.6755e-05
2.5889e-05
2.50311e-05
2.41817e-05
2.33413e-05
2.25103e-05
2.16891e-05
2.08783e-05
2.00782e-05
1.92892e-05
1.85119e-05
1.77465e-05
1.69937e-05
1.62536e-05
1.55269e-05
1.48139e-05
1.41149e-05
1.34304e-05
1.27608e-05
1.21064e-05
1.14676e-05
1.08447e-05
1.02381e-05
9.64828e-06
9.07553e-06
8.52023e-06
7.98268e-06
7.4632e-06
6.96207e-06
6.47953e-06
6.01577e-06
5.57091e-06
5.14507e-06
4.73832e-06
4.35069e-06
3.98217e-06
3.63272e-06
3.30222e-06
2.99053e-06
2.69746e-06
2.42277e-06
2.16616e-06
1.92729e-06
1.70579e-06
1.50123e-06
1.31311e-06
1.14094e-06
9.8413e-07
8.42095e-07
7.14198e-07
5.9977e-07
4.98119e-07
4.08532e-07
3.3028e-07
2.62625e-07
2.04826e-07
1.56141e-07
1.15836e-07
8.31742e-08
5.74146e-08
3.77942e-08
2.35133e-08
1.37163e-08
7.48296e-09
3.84674e-09
1.94965e-09
8.87248e-10
3.52917e-10
1.26698e-10
4.73501e-11
6.90658e-05
6.82206e-05
6.72834e-05
6.63029e-05
6.52957e-05
6.42705e-05
6.32319e-05
6.2183e-05
6.11257e-05
6.00615e-05
5.89912e-05
5.79157e-05
5.68357e-05
5.57517e-05
5.46642e-05
5.35738e-05
5.24809e-05
5.1386e-05
5.02896e-05
4.91922e-05
4.80941e-05
4.69958e-05
4.58978e-05
4.48005e-05
4.37044e-05
4.26099e-05
4.15177e-05
4.04282e-05
3.9342e-05
3.82595e-05
3.71814e-05
3.6108e-05
3.50399e-05
3.39776e-05
3.29216e-05
3.18725e-05
3.08308e-05
2.9797e-05
2.87717e-05
2.77555e-05
2.67489e-05
2.57525e-05
2.47669e-05
2.37927e-05
2.28305e-05
2.1881e-05
2.09447e-05
2.00222e-05
1.91142e-05
1.82214e-05
1.73444e-05
1.64838e-05
1.56403e-05
1.48148e-05
1.40078e-05
1.32203e-05
1.24528e-05
1.17059e-05
1.09805e-05
1.02769e-05
9.5959e-06
8.93784e-06
8.30324e-06
7.69255e-06
7.10614e-06
6.54437e-06
6.00751e-06
5.49579e-06
5.00935e-06
4.5483e-06
4.11263e-06
3.70229e-06
3.31713e-06
2.95693e-06
2.62139e-06
2.31011e-06
2.02261e-06
1.75835e-06
1.51669e-06
1.29694e-06
1.09833e-06
9.20024e-07
7.61162e-07
6.20832e-07
4.98095e-07
3.91991e-07
3.01546e-07
2.25771e-07
1.6365e-07
1.14114e-07
7.60022e-08
4.80118e-08
2.86573e-08
1.62649e-08
9.05318e-09
5.1175e-09
2.73521e-09
1.38799e-09
6.96996e-10
3.89655e-10
9.31266e-05
9.21984e-05
9.115e-05
9.0038e-05
8.88851e-05
8.77036e-05
8.65006e-05
8.52806e-05
8.40463e-05
8.27994e-05
8.15413e-05
8.02729e-05
7.89949e-05
7.77079e-05
7.64124e-05
7.51089e-05
7.37979e-05
7.24798e-05
7.1155e-05
6.9824e-05
6.84872e-05
6.71449e-05
6.57977e-05
6.44459e-05
6.30899e-05
6.17302e-05
6.03673e-05
5.90018e-05
5.76342e-05
5.62651e-05
5.4895e-05
5.35244e-05
5.21538e-05
5.07838e-05
4.9415e-05
4.8048e-05
4.66834e-05
4.53218e-05
4.39639e-05
4.26105e-05
4.12621e-05
3.99196e-05
3.85838e-05
3.72554e-05
3.59352e-05
3.46242e-05
3.33233e-05
3.20333e-05
3.07552e-05
2.94901e-05
2.82391e-05
2.70033e-05
2.57838e-05
2.45817e-05
2.3398e-05
2.22341e-05
2.10911e-05
1.99702e-05
1.88725e-05
1.77992e-05
1.67514e-05
1.57303e-05
1.47369e-05
1.37722e-05
1.28374e-05
1.19333e-05
1.1061e-05
1.02211e-05
9.41453e-06
8.64189e-06
7.90376e-06
7.2006e-06
6.53277e-06
5.90047e-06
5.30381e-06
4.74276e-06
4.21713e-06
3.72663e-06
3.27083e-06
2.8492e-06
2.46107e-06
2.10569e-06
1.78225e-06
1.48988e-06
1.22768e-06
9.94761e-07
7.90213e-07
6.13154e-07
4.62686e-07
3.37819e-07
2.37358e-07
1.59738e-07
1.02831e-07
6.38791e-08
3.94743e-08
2.45845e-08
1.48047e-08
8.7347e-09
5.27662e-09
3.62374e-09
0.000127218
0.000126203
0.000125046
0.000123806
0.000122512
0.000121177
0.000119812
0.000118422
0.000117009
0.000115578
0.000114128
0.000112662
0.000111179
0.000109681
0.000108168
0.00010664
0.000105098
0.000103542
0.000101972
0.000100389
9.87938e-05
9.71858e-05
9.55656e-05
9.39338e-05
9.22907e-05
9.06367e-05
8.89719e-05
8.7297e-05
8.56122e-05
8.39181e-05
8.22152e-05
8.05038e-05
7.87845e-05
7.70577e-05
7.53241e-05
7.35841e-05
7.18384e-05
7.00876e-05
6.83323e-05
6.65733e-05
6.48114e-05
6.30473e-05
6.12818e-05
5.9516e-05
5.77506e-05
5.59868e-05
5.42255e-05
5.2468e-05
5.07152e-05
4.89686e-05
4.72294e-05
4.5499e-05
4.37787e-05
4.20699e-05
4.03741e-05
3.86929e-05
3.70281e-05
3.53812e-05
3.3754e-05
3.21484e-05
3.05659e-05
2.90083e-05
2.74773e-05
2.59748e-05
2.45026e-05
2.30624e-05
2.16559e-05
2.02847e-05
1.89505e-05
1.76547e-05
1.63988e-05
1.51841e-05
1.40118e-05
1.2883e-05
1.17986e-05
1.07596e-05
9.76656e-06
8.82008e-06
7.92058e-06
7.06845e-06
6.26394e-06
5.50718e-06
4.79833e-06
4.13756e-06
3.52514e-06
2.96149e-06
2.44723e-06
1.98328e-06
1.57083e-06
1.21117e-06
9.05476e-07
6.54275e-07
4.56789e-07
3.10389e-07
2.10138e-07
1.42696e-07
9.48466e-08
6.26751e-08
4.29051e-08
3.32757e-08
0.000172505
0.000171439
0.000170221
0.00016891
0.000167534
0.000166108
0.000164643
0.000163145
0.000161619
0.000160067
0.00015849
0.00015689
0.000155267
0.000153621
0.000151954
0.000150266
0.000148556
0.000146825
0.000145074
0.000143302
0.00014151
0.000139698
0.000137867
0.000136016
0.000134146
0.000132256
0.000130348
0.000128421
0.000126476
0.000124512
0.00012253
0.00012053
0.000118513
0.000116479
0.000114427
0.000112359
0.000110275
0.000108175
0.000106059
0.000103929
0.000101783
9.96242e-05
9.74516e-05
9.5266e-05
9.30682e-05
9.08589e-05
8.86388e-05
8.64088e-05
8.41696e-05
8.19223e-05
7.96679e-05
7.74074e-05
7.5142e-05
7.28729e-05
7.06013e-05
6.83288e-05
6.60569e-05
6.37872e-05
6.15215e-05
5.92615e-05
5.70091e-05
5.4766e-05
5.25342e-05
5.03158e-05
4.81129e-05
4.59277e-05
4.37626e-05
4.16196e-05
3.95012e-05
3.74096e-05
3.5347e-05
3.33158e-05
3.13181e-05
2.93562e-05
2.74323e-05
2.55483e-05
2.37064e-05
2.19084e-05
2.01563e-05
1.84519e-05
1.67973e-05
1.51944e-05
1.36456e-05
1.21533e-05
1.07205e-05
9.3513e-06
8.05045e-06
6.8244e-06
5.68139e-06
4.63147e-06
3.68626e-06
2.85803e-06
2.15803e-06
1.59414e-06
1.17005e-06
8.59927e-07
6.2316e-07
4.51788e-07
3.39551e-07
2.84485e-07
0.000229999
0.000228977
0.000227812
0.000226555
0.00022523
0.000223852
0.000222431
0.000220973
0.000219483
0.000217962
0.000216412
0.000214835
0.000213231
0.0002116
0.000209943
0.00020826
0.000206552
0.000204818
0.000203058
0.000201272
0.000199461
0.000197625
0.000195764
0.000193877
0.000191965
0.000190028
0.000188066
0.000186079
0.000184066
0.000182027
0.000179963
0.000177873
0.000175758
0.000173616
0.000171448
0.000169254
0.000167034
0.000164787
0.000162512
0.000160211
0.000157883
0.000155527
0.000153143
0.000150731
0.000148291
0.000145823
0.000143326
0.0001408
0.000138246
0.000135662
0.00013305
0.000130408
0.000127738
0.000125038
0.00012231
0.000119553
0.000116768
0.000113956
0.000111118
0.000108253
0.000105363
0.000102448
9.95093e-05
9.65482e-05
9.35659e-05
9.05641e-05
8.75442e-05
8.45077e-05
8.14564e-05
7.83919e-05
7.53162e-05
7.2231e-05
6.91382e-05
6.60396e-05
6.29371e-05
5.98324e-05
5.67271e-05
5.36228e-05
5.0521e-05
4.74231e-05
4.43303e-05
4.12442e-05
3.81668e-05
3.51007e-05
3.20499e-05
2.90204e-05
2.60211e-05
2.30651e-05
2.01723e-05
1.73702e-05
1.46949e-05
1.21918e-05
9.91375e-06
7.91541e-06
6.25651e-06
4.94941e-06
3.87834e-06
3.0455e-06
2.4658e-06
2.17645e-06
0.000299942
0.000299127
0.000298199
0.000297192
0.000296125
0.000295008
0.000293851
0.000292657
0.000291432
0.000290176
0.000288892
0.00028758
0.000286241
0.000284875
0.000283483
0.000282065
0.000280621
0.000279151
0.000277655
0.000276134
0.000274587
0.000273015
0.000271416
0.000269792
0.000268142
0.000266465
0.000264763
0.000263033
0.000261276
0.000259491
0.000257679
0.000255838
0.000253968
0.000252068
0.000250138
0.000248177
0.000246184
0.000244159
0.0002421
0.000240007
0.000237879
0.000235714
0.000233511
0.00023127
0.000228989
0.000226667
0.000224303
0.000221895
0.000219442
0.000216943
0.000214396
0.0002118
0.000209154
0.000206456
0.000203704
0.000200898
0.000198035
0.000195115
0.000192137
0.000189098
0.000185998
0.000182835
0.000179607
0.000176312
0.000172951
0.000169522
0.000166023
0.000162454
0.000158814
0.0001551
0.000151312
0.000147448
0.000143505
0.000139482
0.000135376
0.000131184
0.000126901
0.000122523
0.000118045
0.000113459
0.000108757
0.000103929
9.8965e-05
9.38538e-05
8.85846e-05
8.31481e-05
7.75375e-05
7.17516e-05
6.58026e-05
5.97185e-05
5.35492e-05
4.73732e-05
4.13015e-05
3.5477e-05
3.00895e-05
2.55039e-05
2.14911e-05
1.81316e-05
1.56343e-05
1.43341e-05
0.000380802
0.000380403
0.000379931
0.000379403
0.000378829
0.000378217
0.000377571
0.000376896
0.000376194
0.000375466
0.000374713
0.000373937
0.000373137
0.000372315
0.000371471
0.000370605
0.000369718
0.00036881
0.000367881
0.000366932
0.000365962
0.000364972
0.000363961
0.000362929
0.000361876
0.000360803
0.000359708
0.000358591
0.000357452
0.000356291
0.000355107
0.0003539
0.00035267
0.000351414
0.000350134
0.000348828
0.000347494
0.000346134
0.000344745
0.000343326
0.000341876
0.000340395
0.000338881
0.000337333
0.000335749
0.000334128
0.000332468
0.000330769
0.000329029
0.000327245
0.000325416
0.000323541
0.000321617
0.000319644
0.000317618
0.000315538
0.000313401
0.000311207
0.000308952
0.000306634
0.000304251
0.000301799
0.000299271
0.000296667
0.000293984
0.000291217
0.000288363
0.000285418
0.000282378
0.000279237
0.00027599
0.000272632
0.000269155
0.000265553
0.000261816
0.000257936
0.0002539
0.000249695
0.000245305
0.000240711
0.000235889
0.000230813
0.000225447
0.000219755
0.00021369
0.000207202
0.000200231
0.000192706
0.00018457
0.000175778
0.000166297
0.000156126
0.000145296
0.000133888
0.000122035
0.000110093
9.94238e-05
8.97165e-05
8.18945e-05
7.74633e-05
0.000468548
0.000468758
0.000468935
0.000469081
0.000469199
0.000469292
0.000469361
0.000469408
0.000469435
0.000469441
0.000469429
0.0004694
0.000469353
0.00046929
0.000469211
0.000469117
0.000469009
0.000468887
0.000468752
0.000468604
0.000468443
0.000468271
0.000468086
0.00046789
0.000467683
0.000467465
0.000467235
0.000466995
0.000466744
0.000466483
0.000466211
0.000465929
0.000465636
0.000465334
0.00046502
0.000464696
0.000464362
0.000464016
0.00046366
0.000463292
0.000462913
0.000462523
0.00046212
0.000461705
0.000461277
0.000460837
0.000460384
0.000459917
0.000459436
0.000458941
0.000458433
0.000457909
0.000457371
0.000456819
0.000456252
0.000455671
0.000455077
0.00045447
0.00045385
0.000453221
0.000452582
0.000451937
0.000451276
0.000450597
0.000449901
0.000449184
0.000448445
0.000447683
0.000446893
0.000446074
0.00044522
0.000444328
0.000443391
0.000442403
0.000441358
0.000440245
0.000439055
0.000437778
0.000436399
0.000434907
0.000433285
0.000431517
0.000429588
0.000427479
0.000425174
0.000422656
0.000419912
0.000416787
0.000413167
0.000408961
0.000404061
0.000398351
0.000391704
0.000383952
0.00037486
0.000364138
0.000351698
0.000338987
0.000327426
0.000319624
0.000556866
0.000557832
0.000558797
0.00055974
0.000560664
0.000561567
0.000562452
0.000563318
0.000564168
0.000565002
0.000565821
0.000566627
0.000567421
0.000568202
0.000568974
0.000569736
0.00057049
0.000571236
0.000571976
0.00057271
0.000573439
0.000574164
0.000574886
0.000575606
0.000576324
0.000577041
0.000577758
0.000578476
0.000579196
0.000579918
0.000580643
0.000581372
0.000582106
0.000582845
0.000583591
0.000584344
0.000585105
0.000585875
0.000586655
0.000587445
0.000588248
0.000589063
0.000589891
0.000590735
0.000591595
0.000592472
0.000593368
0.000594283
0.00059522
0.00059618
0.000597164
0.000598173
0.000599211
0.000600277
0.000601375
0.000602506
0.000603672
0.000604874
0.000606115
0.000607396
0.000608717
0.000610082
0.000611497
0.00061297
0.000614508
0.000616115
0.000617796
0.000619559
0.00062141
0.000623356
0.000625404
0.000627565
0.000629846
0.000632257
0.00063481
0.000637514
0.00064038
0.00064342
0.000646645
0.000650065
0.000653689
0.000657525
0.000661578
0.000665853
0.000670348
0.000675063
0.000679991
0.000685254
0.000690949
0.000697156
0.000703975
0.000711338
0.000719275
0.000727819
0.000736982
0.000746723
0.000756858
0.000766866
0.00077549
0.000780363
0.000637487
0.000639215
0.000640973
0.000642725
0.000644464
0.000646187
0.000647892
0.000649579
0.000651249
0.000652901
0.000654537
0.000656159
0.000657767
0.000659362
0.000660947
0.000662523
0.00066409
0.000665651
0.000667206
0.000668757
0.000670305
0.000671851
0.000673397
0.000674944
0.000676492
0.000678044
0.0006796
0.000681162
0.00068273
0.000684307
0.000685893
0.000687489
0.000689097
0.000690718
0.000692354
0.000694005
0.000695673
0.000697359
0.000699065
0.000700791
0.00070254
0.000704313
0.000706112
0.000707937
0.000709791
0.000711676
0.000713592
0.000715542
0.000717529
0.000719553
0.000721618
0.000723725
0.000725877
0.000728077
0.000730327
0.000732632
0.000734993
0.000737415
0.000739901
0.000742457
0.000745086
0.000747795
0.000750586
0.000753467
0.000756444
0.000759523
0.000762712
0.000766017
0.000769445
0.000773005
0.000776705
0.000780553
0.000784557
0.000788727
0.00079307
0.000797597
0.000802314
0.000807229
0.000812348
0.000817677
0.000823218
0.000828973
0.000834942
0.00084112
0.000847502
0.000854079
0.000860841
0.000867769
0.000874841
0.00088202
0.000889258
0.000896689
0.000904348
0.000912052
0.00091971
0.000927186
0.000934258
0.00094055
0.000945409
0.000947764
0.000704223
0.000706665
0.000709173
0.000711681
0.000714176
0.000716651
0.000719103
0.000721531
0.000723932
0.000726309
0.000728661
0.000730991
0.0007333
0.000735588
0.000737859
0.000740113
0.000742351
0.000744576
0.000746789
0.000748992
0.000751185
0.000753371
0.000755551
0.000757726
0.000759897
0.000762067
0.000764235
0.000766405
0.000768576
0.00077075
0.000772929
0.000775114
0.000777305
0.000779506
0.000781715
0.000783936
0.000786169
0.000788415
0.000790675
0.000792952
0.000795245
0.000797558
0.000799889
0.000802243
0.000804618
0.000807018
0.000809443
0.000811895
0.000814375
0.000816886
0.000819429
0.000822006
0.000824619
0.000827269
0.00082996
0.000832692
0.000835469
0.000838294
0.000841168
0.000844094
0.000847076
0.000850115
0.000853214
0.000856376
0.000859604
0.000862901
0.000866269
0.000869713
0.000873233
0.000876833
0.000880514
0.000884278
0.000888127
0.000892061
0.00089608
0.000900184
0.000904369
0.000908633
0.00091297
0.000917375
0.000921838
0.000926348
0.000930893
0.000935457
0.000940023
0.000944571
0.000949079
0.000953521
0.000957869
0.00096209
0.00096615
0.00097001
0.000973621
0.000977069
0.000980273
0.000983185
0.000985742
0.00098785
0.000989365
0.000990039
0.000753385
0.000756543
0.000759782
0.00076301
0.000766212
0.000769381
0.000772512
0.000775602
0.000778652
0.000781661
0.000784631
0.000787563
0.000790458
0.000793318
0.000796144
0.000798939
0.000801704
0.000804441
0.000807151
0.000809835
0.000812496
0.000815136
0.000817755
0.000820354
0.000822937
0.000825503
0.000828054
0.000830592
0.000833118
0.000835633
0.000838138
0.000840635
0.000843125
0.000845608
0.000848087
0.000850561
0.000853033
0.000855502
0.00085797
0.000860439
0.000862907
0.000865378
0.00086785
0.000870326
0.000872806
0.000875291
0.000877782
0.000880279
0.000882783
0.000885295
0.000887815
0.000890345
0.000892885
0.000895436
0.000897999
0.000900574
0.000903163
0.000905765
0.000908382
0.000911014
0.000913662
0.000916325
0.000919004
0.0009217
0.000924411
0.000927138
0.000929882
0.00093264
0.000935412
0.000938197
0.000940992
0.000943797
0.000946607
0.000949421
0.000952234
0.000955042
0.000957838
0.000960618
0.000963373
0.000966096
0.000968779
0.00097141
0.00097398
0.000976478
0.000978892
0.000981209
0.000983419
0.000985508
0.000987464
0.000989274
0.000990926
0.000992405
0.0009937
0.00099483
0.000995816
0.000996655
0.000997343
0.000997873
0.000998233
0.000998387
0.000783619
0.000787539
0.000791532
0.000795488
0.000799394
0.000803243
0.000807031
0.000810758
0.000814424
0.000818029
0.000821573
0.00082506
0.000828488
0.000831862
0.000835181
0.000838448
0.000841664
0.000844831
0.00084795
0.000851024
0.000854054
0.000857042
0.000859988
0.000862895
0.000865763
0.000868595
0.000871392
0.000874155
0.000876886
0.000879585
0.000882254
0.000884894
0.000887506
0.000890092
0.000892653
0.000895189
0.000897701
0.00090019
0.000902657
0.000905104
0.000907529
0.000909935
0.000912322
0.00091469
0.00091704
0.000919372
0.000921687
0.000923985
0.000926266
0.000928531
0.000930779
0.000933012
0.000935228
0.000937427
0.000939611
0.000941778
0.000943929
0.000946063
0.00094818
0.000950279
0.000952361
0.000954424
0.000956467
0.000958489
0.000960491
0.00096247
0.000964426
0.000966357
0.000968261
0.000970137
0.000971983
0.000973796
0.000975575
0.000977316
0.000979016
0.000980673
0.000982282
0.00098384
0.000985344
0.000986789
0.000988171
0.000989485
0.000990729
0.000991897
0.000992987
0.000993994
0.000994918
0.000995755
0.000996504
0.000997165
0.000997736
0.00099822
0.000998616
0.000998929
0.000999187
0.000999392
0.00099955
0.000999664
0.000999737
0.000999769
0.000795598
0.000800337
0.00080513
0.000809848
0.000814485
0.000819039
0.000823509
0.000827894
0.000832197
0.000836416
0.000840554
0.000844612
0.00084859
0.000852491
0.000856316
0.000860066
0.000863743
0.000867348
0.000870882
0.000874349
0.000877748
0.000881081
0.000884351
0.000887558
0.000890704
0.00089379
0.000896818
0.000899789
0.000902705
0.000905566
0.000908375
0.000911132
0.000913838
0.000916495
0.000919105
0.000921667
0.000924183
0.000926654
0.000929081
0.000931466
0.000933807
0.000936108
0.000938368
0.000940588
0.000942768
0.00094491
0.000947013
0.000949079
0.000951108
0.000953099
0.000955054
0.000956972
0.000958853
0.000960698
0.000962507
0.000964279
0.000966014
0.000967713
0.000969375
0.000971
0.000972587
0.000974136
0.000975647
0.000977118
0.00097855
0.000979941
0.000981291
0.0009826
0.000983866
0.000985088
0.000986267
0.0009874
0.000988487
0.000989527
0.000990519
0.000991462
0.000992355
0.000993197
0.000993988
0.000994726
0.000995412
0.000996044
0.000996623
0.000997148
0.000997621
0.000998043
0.000998413
0.000998735
0.000999011
0.000999242
0.000999431
0.000999581
0.000999697
0.000999781
0.000999845
0.000999892
0.000999926
0.000999949
0.000999963
0.00099997
0.000791884
0.000797455
0.000803062
0.000808559
0.000813947
0.000819228
0.000824405
0.000829478
0.000834448
0.000839317
0.000844085
0.000848754
0.000853324
0.000857797
0.000862173
0.000866454
0.000870642
0.000874737
0.00087874
0.000882654
0.000886479
0.000890217
0.000893869
0.000897436
0.000900921
0.000904324
0.000907647
0.000910892
0.000914059
0.00091715
0.000920167
0.000923111
0.000925983
0.000928784
0.000931517
0.000934181
0.000936779
0.000939311
0.000941778
0.000944183
0.000946526
0.000948808
0.00095103
0.000953193
0.000955298
0.000957347
0.00095934
0.000961277
0.000963161
0.000964991
0.000966768
0.000968494
0.000970168
0.000971792
0.000973365
0.000974889
0.000976363
0.000977788
0.000979166
0.000980495
0.000981776
0.000983011
0.000984197
0.000985337
0.000986431
0.000987478
0.000988479
0.000989434
0.000990343
0.000991206
0.000992025
0.000992798
0.000993526
0.00099421
0.000994849
0.000995445
0.000995998
0.000996509
0.000996977
0.000997405
0.000997792
0.000998141
0.000998452
0.000998728
0.000998969
0.000999177
0.000999356
0.000999506
0.00099963
0.00099973
0.000999809
0.000999869
0.000999913
0.000999944
0.000999964
0.000999978
0.000999987
0.000999992
0.000999995
0.000999996
0.000777055
0.000783385
0.00078975
0.000795982
0.000802085
0.000808067
0.00081393
0.000819675
0.000825304
0.000830817
0.000836216
0.000841501
0.000846673
0.000851731
0.000856678
0.000861514
0.00086624
0.000870857
0.000875365
0.000879766
0.000884062
0.000888253
0.00089234
0.000896325
0.00090021
0.000903994
0.000907681
0.000911271
0.000914765
0.000918166
0.000921474
0.000924691
0.000927818
0.000930857
0.00093381
0.000936677
0.00093946
0.000942161
0.000944781
0.000947321
0.000949782
0.000952167
0.000954476
0.000956712
0.000958874
0.000960965
0.000962986
0.000964938
0.000966822
0.00096864
0.000970393
0.000972082
0.000973709
0.000975274
0.000976778
0.000978224
0.000979611
0.000980942
0.000982216
0.000983436
0.000984601
0.000985714
0.000986775
0.000987785
0.000988745
0.000989656
0.000990519
0.000991335
0.000992105
0.00099283
0.000993511
0.000994149
0.000994745
0.0009953
0.000995816
0.000996293
0.000996732
0.000997136
0.000997505
0.00099784
0.000998143
0.000998416
0.00099866
0.000998877
0.000999068
0.000999236
0.000999382
0.000999508
0.000999615
0.000999707
0.000999783
0.000999847
0.000999898
0.000999938
0.000999966
0.000999984
0.000999993
0.000999998
0.000999999
0.001
0.000757694
0.000764607
0.000771584
0.00077842
0.000785122
0.000791695
0.000798142
0.000804464
0.000810662
0.000816736
0.000822687
0.000828514
0.000834219
0.000839802
0.000845262
0.000850601
0.000855819
0.000860916
0.000865894
0.000870753
0.000875494
0.000880119
0.000884627
0.000889021
0.000893302
0.00089747
0.000901527
0.000905475
0.000909314
0.000913046
0.000916673
0.000920196
0.000923616
0.000926934
0.000930154
0.000933274
0.000936298
0.000939227
0.000942063
0.000944806
0.000947459
0.000950024
0.000952501
0.000954892
0.000957199
0.000959424
0.000961568
0.000963633
0.00096562
0.000967532
0.000969368
0.000971132
0.000972825
0.000974448
0.000976003
0.000977492
0.000978915
0.000980276
0.000981575
0.000982813
0.000983993
0.000985115
0.000986182
0.000987195
0.000988154
0.000989063
0.000989921
0.000990732
0.000991495
0.000992213
0.000992887
0.000993519
0.000994109
0.000994661
0.000995174
0.00099565
0.000996092
0.0009965
0.000996876
0.000997222
0.000997539
0.000997828
0.000998093
0.000998333
0.00099855
0.000998748
0.000998925
0.000999086
0.000999231
0.000999362
0.000999483
0.000999594
0.0009997
0.000999799
0.000999885
0.000999948
0.000999983
0.000999996
0.000999999
0.001
0.000742031
0.000749262
0.000756616
0.000763835
0.00077092
0.000777875
0.000784702
0.000791402
0.000797975
0.00080442
0.000810739
0.00081693
0.000822994
0.00082893
0.00083474
0.000840422
0.000845979
0.000851409
0.000856713
0.000861893
0.000866948
0.00087188
0.00087669
0.000881379
0.000885947
0.000890396
0.000894726
0.00089894
0.000903038
0.000907022
0.000910893
0.000914652
0.000918302
0.000921842
0.000925275
0.000928603
0.000931826
0.000934947
0.000937967
0.000940887
0.00094371
0.000946438
0.00094907
0.000951611
0.000954061
0.000956421
0.000958695
0.000960882
0.000962986
0.000965008
0.00096695
0.000968814
0.000970601
0.000972313
0.000973953
0.000975521
0.00097702
0.000978451
0.000979817
0.000981118
0.000982357
0.000983536
0.000984656
0.000985718
0.000986726
0.00098768
0.000988583
0.000989435
0.00099024
0.000990997
0.00099171
0.00099238
0.000993008
0.000993596
0.000994145
0.000994659
0.000995137
0.000995582
0.000995995
0.000996378
0.000996733
0.000997061
0.000997364
0.000997644
0.000997901
0.000998138
0.000998357
0.000998558
0.000998743
0.000998914
0.000999075
0.000999229
0.000999385
0.00099955
0.000999716
0.00099986
0.000999953
0.000999991
0.000999999
0.001
2.20762e-12
4.44893e-12
9.01381e-12
1.69111e-11
3.00292e-11
5.13808e-11
8.5835e-11
1.41449e-10
2.31908e-10
3.81096e-10
6.31911e-10
1.06371e-09
1.82799e-09
3.22334e-09
5.85751e-09
1.10037e-08
2.13834e-08
4.27693e-08
8.61096e-08
1.60087e-07
2.67182e-11
4.46262e-11
7.7584e-11
1.31271e-10
2.1532e-10
3.4448e-10
5.41921e-10
8.45062e-10
1.31617e-09
2.06198e-09
3.27098e-09
5.28616e-09
8.75105e-09
1.49111e-08
2.62501e-08
4.78472e-08
9.0252e-08
1.74964e-07
3.40158e-07
6.05974e-07
3.20292e-10
4.74175e-10
7.22624e-10
1.09653e-09
1.64406e-09
2.43412e-09
3.57097e-09
5.21857e-09
7.64328e-09
1.1291e-08
1.69299e-08
2.59222e-08
4.07534e-08
6.60942e-08
1.10972e-07
1.93265e-07
3.48817e-07
6.47516e-07
1.2042e-06
2.0367e-06
3.48297e-09
4.70124e-09
6.48758e-09
8.96523e-09
1.23489e-08
1.69277e-08
2.3122e-08
3.15758e-08
4.33149e-08
6.00204e-08
8.4517e-08
1.21679e-07
1.80119e-07
2.75484e-07
4.36992e-07
7.20405e-07
1.23275e-06
2.17139e-06
3.82609e-06
6.06387e-06
3.40361e-08
4.2609e-08
5.42786e-08
6.93568e-08
8.8622e-08
1.13098e-07
1.44239e-07
1.84248e-07
2.36601e-07
3.06904e-07
4.04413e-07
5.44654e-07
7.54135e-07
1.07939e-06
1.60404e-06
2.4806e-06
3.98614e-06
6.59327e-06
1.08763e-05
1.59746e-05
2.96289e-07
3.48532e-07
4.15601e-07
4.97195e-07
5.95366e-07
7.12883e-07
8.53799e-07
1.02441e-06
1.23476e-06
1.50104e-06
1.85003e-06
2.32502e-06
2.99771e-06
3.9897e-06
5.50975e-06
7.9178e-06
1.18215e-05
1.81375e-05
2.75674e-05
3.72434e-05
2.25911e-06
2.52474e-06
2.85062e-06
3.22737e-06
3.65701e-06
4.14372e-06
4.69527e-06
5.32552e-06
6.05809e-06
6.93356e-06
8.01829e-06
9.41545e-06
1.12919e-05
1.39214e-05
1.77488e-05
2.34872e-05
3.22088e-05
4.51852e-05
6.21576e-05
7.6979e-05
1.46881e-05
1.57457e-05
1.70001e-05
1.83877e-05
1.98938e-05
2.15116e-05
2.3246e-05
2.5116e-05
2.71711e-05
2.94989e-05
3.22254e-05
3.55483e-05
3.97884e-05
4.54562e-05
5.33323e-05
6.4524e-05
8.03681e-05
0.00010147
0.000124653
0.00014185
7.81825e-05
8.10632e-05
8.44013e-05
8.7941e-05
9.1591e-05
9.52826e-05
9.90047e-05
0.000102785
0.000106731
0.000110938
0.00011555
0.000120823
0.000127218
0.000135411
0.000146449
0.000161459
0.000181046
0.000203371
0.000222878
0.000235275
0.000318886
0.000322132
0.000325877
0.000329619
0.000333155
0.00033631
0.000339117
0.000341606
0.000343752
0.000345471
0.000346833
0.000347842
0.000348825
0.00034989
0.000351689
0.000354471
0.000357701
0.000359182
0.00035686
0.000354291
0.000778737
0.000774766
0.00077016
0.000765224
0.000760033
0.000754623
0.000748842
0.000742509
0.000735474
0.000727537
0.00071843
0.000707666
0.00069451
0.000677846
0.000655966
0.000627318
0.000591796
0.000552113
0.000514241
0.000487677
0.000946302
0.00094363
0.000940493
0.000937025
0.000933242
0.000929135
0.000924647
0.000919679
0.000914033
0.000907465
0.000899655
0.000890085
0.000877916
0.000861899
0.000840129
0.000810114
0.000769263
0.000717717
0.000663224
0.000621077
0.000989499
0.000988538
0.000987375
0.000986037
0.000984511
0.000982772
0.000980779
0.000978469
0.000975738
0.000972427
0.000968293
0.000962971
0.000955877
0.000946088
0.000932144
0.000911825
0.000882005
0.000839705
0.000787832
0.0007427
0.000998257
0.000998003
0.000997683
0.000997297
0.000996834
0.000996277
0.000995603
0.00099478
0.000993753
0.000992443
0.000990719
0.00098838
0.0009851
0.000980338
0.000973197
0.000962182
0.000944902
0.000918069
0.000880409
0.000843438
0.000999746
0.000999691
0.000999619
0.000999526
0.000999408
0.000999258
0.000999067
0.000998818
0.00099849
0.000998048
0.000997434
0.000996556
0.000995259
0.000993277
0.000990147
0.000985052
0.000976573
0.000962447
0.000940482
0.000916399
0.000999967
0.000999957
0.000999942
0.000999923
0.000999897
0.000999861
0.000999813
0.000999746
0.000999653
0.000999521
0.000999328
0.000999037
0.000998584
0.000997858
0.000996654
0.000994593
0.000990978
0.000984592
0.000973858
0.000960507
0.000999996
0.000999994
0.000999992
0.000999988
0.000999983
0.000999975
0.000999964
0.000999948
0.000999924
0.000999889
0.000999834
0.000999747
0.000999606
0.000999369
0.000998957
0.00099822
0.000996866
0.000994352
0.000989862
0.000983615
0.001
0.000999999
0.000999999
0.000999998
0.000999997
0.000999996
0.000999993
0.00099999
0.000999984
0.000999975
0.000999961
0.000999938
0.000999898
0.000999828
0.000999702
0.000999468
0.000999019
0.00099815
0.000996518
0.000994043
0.001
0.001
0.001
0.001
0.001
0.000999999
0.000999999
0.000999998
0.000999997
0.000999995
0.000999991
0.000999985
0.000999975
0.000999956
0.000999922
0.000999855
0.000999722
0.000999457
0.000998937
0.000998098
0.001
0.001
0.001
0.001
0.001
0.001
0.001
0.001
0.000999999
0.000999999
0.000999998
0.000999997
0.000999994
0.000999989
0.000999981
0.000999963
0.000999928
0.000999856
0.000999711
0.000999465
1.20293e-143
1.08901e-143
1.03039e-143
1.22538e-143
1.98591e-143
3.92034e-143
8.2824e-143
1.76241e-142
3.69865e-142
7.59758e-142
1.5215e-141
2.95744e-141
5.5632e-141
1.00891e-140
1.75553e-140
2.91251e-140
4.56801e-140
6.69141e-140
8.98718e-140
1.07322e-139
3.35421e-142
2.98599e-142
2.77803e-142
3.26065e-142
5.2624e-142
1.04099e-141
2.20813e-141
4.72001e-141
9.95383e-141
2.05538e-140
4.1397e-140
8.095e-140
1.53251e-139
2.79842e-139
4.90579e-139
8.20631e-139
1.29898e-138
1.92267e-138
2.61315e-138
3.16458e-138
8.74063e-141
7.63595e-141
6.97116e-141
8.0642e-141
1.29555e-140
2.56877e-140
5.47268e-140
1.17554e-139
2.49201e-139
5.17471e-139
1.04856e-138
2.06376e-138
3.93442e-138
7.2389e-138
1.27948e-137