/*--------------------------------*- C++ -*----------------------------------*\
| =========                 |                                                 |
| \\      /  F ield         | OpenFOAM: The Open Source CFD Toolbox           |
|  \\    /   O peration     | Version:  2.1.0                                 |
|   \\  /    A nd           | Web:      www.OpenFOAM.org                      |
|    \\/     M anipulation  |                                                 |
\*---------------------------------------------------------------------------*/
FoamFile
{
    version     2.0;
    format      ascii;
    class       volScalarField;
    location    "0.37";
    object      C2;
}
// * * * * * * * * * * * * * * * * * * * * * * * * * * * * * * * * * * * * * //

dimensions      [0 0 0 0 0 0 0];

internalField   nonuniform List<scalar> 
6400
(
0.00227374
0.002276
0.00227861
0.00228101
0.00228307
0.00228475
0.00228604
0.00228695
0.00228748
0.00228763
0.0022874
0.00228681
0.00228584
0.00228451
0.00228281
0.00228075
0.00227832
0.00227553
0.00227238
0.00226886
0.00226498
0.00226073
0.00225612
0.00225114
0.00224579
0.00224006
0.00223396
0.00222748
0.00222062
0.00221337
0.00220572
0.00219768
0.00218923
0.00218037
0.0021711
0.0021614
0.00215127
0.0021407
0.00212968
0.0021182
0.00210625
0.00209382
0.0020809
0.00206747
0.00205353
0.00203907
0.00202405
0.00200849
0.00199235
0.00197562
0.00195828
0.00194033
0.00192173
0.00190247
0.00188253
0.00186189
0.00184053
0.00181843
0.00179556
0.0017719
0.00174742
0.0017221
0.00169591
0.00166882
0.00164082
0.00161186
0.00158192
0.00155096
0.00151896
0.00148589
0.0014517
0.00141637
0.00137987
0.00134216
0.00130321
0.00126299
0.00122146
0.00117859
0.00113436
0.00108874
0.00104171
0.000993251
0.000943365
0.000892052
0.000839325
0.000785217
0.000729778
0.000673082
0.000615235
0.000556376
0.000496689
0.000436414
0.000375899
0.000315713
0.000256762
0.00020012
0.000146619
9.78728e-05
5.64452e-05
2.57561e-05
0.00227847
0.00228079
0.00228342
0.00228584
0.00228791
0.0022896
0.00229091
0.00229183
0.00229238
0.00229256
0.00229236
0.0022918
0.00229087
0.00228958
0.00228793
0.00228592
0.00228355
0.00228082
0.00227772
0.00227427
0.00227047
0.00226629
0.00226176
0.00225686
0.0022516
0.00224597
0.00223996
0.00223358
0.00222682
0.00221968
0.00221215
0.00220422
0.0021959
0.00218716
0.00217802
0.00216845
0.00215846
0.00214803
0.00213715
0.00212582
0.00211402
0.00210174
0.00208898
0.00207571
0.00206194
0.00204763
0.00203279
0.00201739
0.00200142
0.00198487
0.00196771
0.00194993
0.0019315
0.00191242
0.00189266
0.0018722
0.00185101
0.00182908
0.00180638
0.00178288
0.00175857
0.00173341
0.00170737
0.00168044
0.00165257
0.00162374
0.00159392
0.00156308
0.00153118
0.00149818
0.00146407
0.00142879
0.00139231
0.0013546
0.00131563
0.00127535
0.00123372
0.00119072
0.00114632
0.00110047
0.00105316
0.00100435
0.000954041
0.000902216
0.00084888
0.000794052
0.000737772
0.000680105
0.000621157
0.000561084
0.000500114
0.000438582
0.000376978
0.000316007
0.000256597
0.000199991
0.000147142
9.99036e-05
6.08952e-05
3.30149e-05
0.00228755
0.00228996
0.00229268
0.00229516
0.0022973
0.00229906
0.00230044
0.00230145
0.00230209
0.00230237
0.00230228
0.00230183
0.00230103
0.00229986
0.00229835
0.00229648
0.00229427
0.0022917
0.00228878
0.00228551
0.00228188
0.00227791
0.00227358
0.0022689
0.00226386
0.00225846
0.00225269
0.00224656
0.00224006
0.00223319
0.00222593
0.00221829
0.00221026
0.00220183
0.002193
0.00218376
0.00217409
0.002164
0.00215347
0.0021425
0.00213107
0.00211917
0.00210679
0.00209392
0.00208055
0.00206666
0.00205223
0.00203726
0.00202173
0.00200562
0.00198891
0.00197158
0.00195362
0.00193501
0.00191572
0.00189573
0.00187503
0.00185358
0.00183137
0.00180837
0.00178454
0.00175988
0.00173434
0.00170789
0.00168051
0.00165217
0.00162282
0.00159244
0.001561
0.00152845
0.00149475
0.00145988
0.00142378
0.00138642
0.00134776
0.00130776
0.00126636
0.00122354
0.00117924
0.00113342
0.00108605
0.00103709
0.000986494
0.000934242
0.000880312
0.000824698
0.000767416
0.00070851
0.000648073
0.000586271
0.000523371
0.000459795
0.000396178
0.000333427
0.00027279
0.000215558
0.000162764
0.00011627
7.83872e-05
5.1552e-05
0.00230055
0.00230312
0.00230598
0.00230861
0.00231089
0.0023128
0.00231435
0.00231553
0.00231635
0.00231682
0.00231694
0.00231671
0.00231613
0.00231521
0.00231395
0.00231235
0.00231041
0.00230813
0.00230552
0.00230256
0.00229927
0.00229564
0.00229167
0.00228736
0.0022827
0.0022777
0.00227234
0.00226664
0.00226058
0.00225416
0.00224738
0.00224023
0.0022327
0.00222479
0.00221649
0.0022078
0.0021987
0.00218919
0.00217926
0.0021689
0.00215811
0.00214686
0.00213515
0.00212296
0.00211029
0.00209711
0.00208343
0.00206921
0.00205445
0.00203912
0.00202322
0.00200671
0.00198959
0.00197184
0.00195343
0.00193434
0.00191455
0.00189403
0.00187277
0.00185073
0.00182788
0.00180421
0.00177969
0.00175427
0.00172793
0.00170064
0.00167236
0.00164306
0.0016127
0.00158125
0.00154865
0.00151488
0.00147989
0.00144363
0.00140606
0.00136713
0.00132679
0.001285
0.00124169
0.0011968
0.0011503
0.00110211
0.00105217
0.00100044
0.000946851
0.000891363
0.000833945
0.000774598
0.000713372
0.000650395
0.000585918
0.000520369
0.000454425
0.000389095
0.000325783
0.000265722
0.000210062
0.000160734
0.000120147
9.13308e-05
0.00231698
0.00231976
0.00232285
0.00232571
0.00232823
0.00233039
0.0023322
0.00233367
0.00233478
0.00233556
0.002336
0.00233611
0.00233589
0.00233534
0.00233446
0.00233327
0.00233175
0.0023299
0.00232774
0.00232526
0.00232246
0.00231934
0.00231589
0.00231213
0.00230804
0.00230363
0.00229888
0.00229381
0.0022884
0.00228265
0.00227657
0.00227013
0.00226334
0.0022562
0.00224869
0.00224081
0.00223255
0.00222391
0.00221487
0.00220543
0.00219558
0.0021853
0.00217459
0.00216344
0.00215183
0.00213975
0.00212718
0.00211412
0.00210054
0.00208644
0.00207179
0.00205658
0.00204079
0.0020244
0.0020074
0.00198975
0.00197144
0.00195245
0.00193275
0.00191232
0.00189113
0.00186915
0.00184637
0.00182274
0.00179824
0.00177283
0.00174649
0.00171917
0.00169085
0.00166148
0.00163102
0.00159944
0.00156668
0.00153271
0.00149746
0.0014609
0.00142296
0.00138359
0.00134272
0.00130028
0.0012562
0.00121039
0.00116277
0.00111324
0.0010617
0.00100806
0.000952212
0.000894083
0.000833631
0.00077088
0.000705966
0.000639193
0.000571113
0.000502611
0.000434996
0.000369475
0.000307381
0.000250999
0.000203584
0.000170181
0.0023362
0.00233928
0.00234269
0.00234588
0.00234875
0.00235127
0.00235346
0.00235532
0.00235685
0.00235807
0.00235896
0.00235954
0.00235981
0.00235977
0.00235943
0.00235879
0.00235784
0.0023566
0.00235506
0.00235322
0.00235109
0.00234866
0.00234593
0.00234291
0.00233959
0.00233597
0.00233205
0.00232783
0.00232331
0.00231847
0.00231333
0.00230787
0.00230209
0.00229598
0.00228955
0.00228278
0.00227567
0.00226821
0.0022604
0.00225222
0.00224368
0.00223475
0.00222543
0.00221571
0.00220558
0.00219503
0.00218405
0.00217261
0.00216072
0.00214836
0.0021355
0.00212214
0.00210827
0.00209385
0.00207888
0.00206334
0.0020472
0.00203045
0.00201307
0.00199504
0.00197632
0.0019569
0.00193675
0.00191585
0.00189416
0.00187166
0.00184832
0.00182411
0.00179898
0.00177291
0.00174586
0.00171779
0.00168866
0.00165841
0.001627
0.00159438
0.00156048
0.00152525
0.0014886
0.00145047
0.00141075
0.00136935
0.00132616
0.00128104
0.00123384
0.00118441
0.00113257
0.00107814
0.00102095
0.000960871
0.000897824
0.000831864
0.000763236
0.000692457
0.000620476
0.000548544
0.000478148
0.000412138
0.000355289
0.000315918
0.00235747
0.00236091
0.00236475
0.00236838
0.00237171
0.00237472
0.00237742
0.0023798
0.00238188
0.00238366
0.00238514
0.00238634
0.00238724
0.00238787
0.00238821
0.00238828
0.00238808
0.0023876
0.00238685
0.00238584
0.00238456
0.00238301
0.0023812
0.00237913
0.00237679
0.00237419
0.00237132
0.00236819
0.00236479
0.00236112
0.00235718
0.00235296
0.00234847
0.0023437
0.00233864
0.0023333
0.00232766
0.00232173
0.00231549
0.00230894
0.00230208
0.0022949
0.00228738
0.00227953
0.00227132
0.00226277
0.00225384
0.00224455
0.00223486
0.00222478
0.00221428
0.00220337
0.00219202
0.00218022
0.00216796
0.00215521
0.00214198
0.00212823
0.00211396
0.00209913
0.00208375
0.00206778
0.0020512
0.00203399
0.00201612
0.00199759
0.00197835
0.00195838
0.00193765
0.00191614
0.0018938
0.0018706
0.00184651
0.00182148
0.00179547
0.00176842
0.00174028
0.00171099
0.00168047
0.00164864
0.0016154
0.00158064
0.00154423
0.00150603
0.00146586
0.00142351
0.00137874
0.00133129
0.00128087
0.00122717
0.0011699
0.0011088
0.0010437
0.000974578
0.000901716
0.000826363
0.000749997
0.000675882
0.000610488
0.000565888
0.00237988
0.00238379
0.00238816
0.00239235
0.00239626
0.00239987
0.00240319
0.00240623
0.00240898
0.00241146
0.00241368
0.00241563
0.00241731
0.00241875
0.00241993
0.00242087
0.00242156
0.00242202
0.00242223
0.00242222
0.00242197
0.00242149
0.00242079
0.00241986
0.0024187
0.00241732
0.00241572
0.0024139
0.00241185
0.00240958
0.00240709
0.00240438
0.00240144
0.00239827
0.00239488
0.00239125
0.00238739
0.0023833
0.00237896
0.00237439
0.00236956
0.00236448
0.00235915
0.00235355
0.00234768
0.00234154
0.00233512
0.00232841
0.00232141
0.0023141
0.00230648
0.00229854
0.00229027
0.00228166
0.0022727
0.00226338
0.00225369
0.00224362
0.00223316
0.00222228
0.00221098
0.00219925
0.00218707
0.00217442
0.00216128
0.00214764
0.00213349
0.00211879
0.00210353
0.00208769
0.00207124
0.00205415
0.0020364
0.00201795
0.00199876
0.00197879
0.001958
0.00193633
0.00191371
0.00189009
0.00186535
0.00183942
0.00181216
0.00178343
0.00175306
0.00172085
0.00168655
0.00164986
0.00161044
0.00156791
0.00152182
0.00147171
0.00141704
0.00135724
0.00129174
0.00122141
0.00114765
0.00107344
0.00100611
0.000960284
0.00240246
0.00240691
0.00241191
0.00241676
0.00242137
0.0024257
0.00242977
0.00243357
0.00243712
0.00244043
0.00244349
0.00244632
0.00244892
0.0024513
0.00245345
0.00245539
0.00245713
0.00245865
0.00245998
0.00246111
0.00246204
0.00246279
0.00246335
0.00246372
0.00246392
0.00246394
0.00246378
0.00246345
0.00246294
0.00246227
0.00246143
0.00246042
0.00245924
0.00245789
0.00245638
0.0024547
0.00245286
0.00245085
0.00244867
0.00244632
0.0024438
0.00244111
0.00243824
0.0024352
0.00243198
0.00242857
0.00242499
0.00242121
0.00241724
0.00241308
0.00240872
0.00240415
0.00239938
0.00239439
0.00238918
0.00238375
0.00237809
0.00237219
0.00236605
0.00235967
0.00235303
0.00234612
0.00233895
0.0023315
0.00232376
0.00231573
0.00230739
0.00229873
0.00228975
0.00228043
0.00227076
0.00226071
0.00225028
0.00223945
0.00222819
0.00221647
0.00220427
0.00219155
0.00217827
0.00216437
0.0021498
0.00213448
0.00211832
0.00210122
0.00208306
0.00206369
0.00204293
0.00202055
0.00199626
0.00196974
0.00194063
0.00190844
0.00187261
0.0018324
0.00178684
0.00173481
0.00167873
0.00161998
0.00156462
0.00152605
0.00242417
0.00242923
0.00243494
0.00244056
0.00244595
0.0024511
0.002456
0.00246068
0.00246512
0.00246935
0.00247337
0.00247718
0.00248078
0.0024842
0.00248743
0.00249048
0.00249335
0.00249605
0.00249859
0.00250097
0.0025032
0.00250527
0.00250721
0.002509
0.00251066
0.00251219
0.00251359
0.00251487
0.00251603
0.00251707
0.002518
0.00251882
0.00251954
0.00252015
0.00252066
0.00252107
0.00252138
0.0025216
0.00252173
0.00252176
0.00252171
0.00252157
0.00252134
0.00252102
0.00252062
0.00252014
0.00251958
0.00251893
0.0025182
0.00251739
0.0025165
0.00251553
0.00251448
0.00251335
0.00251214
0.00251085
0.00250948
0.00250804
0.00250651
0.00250491
0.00250323
0.00250148
0.00249965
0.00249774
0.00249576
0.00249371
0.00249158
0.00248938
0.00248711
0.00248476
0.00248234
0.00247985
0.00247728
0.00247463
0.0024719
0.00246908
0.00246616
0.00246313
0.00245998
0.00245668
0.0024532
0.00244952
0.00244559
0.00244137
0.00243682
0.00243187
0.00242651
0.00242061
0.00241407
0.00240677
0.0023986
0.00238936
0.00237881
0.00236659
0.00235219
0.00233489
0.00231414
0.00229105
0.00226777
0.00225012
0.00244406
0.00244976
0.00245626
0.00246271
0.00246895
0.00247498
0.0024808
0.00248641
0.00249181
0.00249702
0.00250205
0.0025069
0.00251158
0.00251609
0.00252045
0.00252466
0.00252873
0.00253267
0.00253647
0.00254016
0.00254373
0.00254719
0.00255055
0.00255381
0.00255698
0.00256007
0.00256308
0.00256601
0.00256888
0.00257169
0.00257444
0.00257713
0.00257978
0.00258239
0.00258496
0.0025875
0.00259002
0.00259251
0.00259498
0.00259744
0.00259989
0.00260234
0.00260479
0.00260724
0.0026097
0.00261218
0.00261468
0.0026172
0.00261975
0.00262233
0.00262495
0.00262761
0.00263033
0.00263309
0.00263592
0.00263881
0.00264177
0.00264481
0.00264793
0.00265115
0.00265446
0.00265788
0.00266141
0.00266506
0.00266885
0.00267278
0.00267687
0.00268111
0.00268554
0.00269016
0.00269497
0.00270001
0.00270527
0.00271079
0.00271656
0.00272262
0.00272897
0.00273563
0.00274262
0.00274996
0.00275766
0.00276574
0.00277422
0.00278311
0.00279242
0.00280218
0.00281236
0.00282304
0.00283434
0.00284641
0.00285949
0.00287373
0.00288934
0.00290648
0.00292535
0.00294621
0.00296927
0.00299425
0.00301877
0.0030364
0.0024614
0.00246775
0.00247506
0.00248236
0.0024895
0.00249644
0.00250319
0.00250975
0.00251614
0.00252236
0.00252842
0.00253432
0.00254008
0.00254571
0.00255121
0.00255659
0.00256186
0.00256703
0.0025721
0.00257709
0.002582
0.00258683
0.0025916
0.00259632
0.00260098
0.00260561
0.0026102
0.00261477
0.00261931
0.00262384
0.00262837
0.0026329
0.00263744
0.002642
0.00264658
0.0026512
0.00265585
0.00266055
0.0026653
0.00267011
0.00267499
0.00267994
0.00268498
0.00269011
0.00269534
0.00270067
0.00270612
0.0027117
0.0027174
0.00272325
0.00272924
0.00273539
0.00274172
0.00274822
0.00275491
0.0027618
0.0027689
0.00277623
0.00278379
0.00279161
0.00279968
0.00280803
0.00281668
0.00282563
0.00283491
0.00284453
0.00285453
0.0028649
0.00287569
0.0028869
0.00289858
0.00291073
0.0029234
0.00293662
0.00295041
0.00296482
0.00297987
0.00299562
0.00301211
0.00302937
0.00304747
0.00306645
0.00308639
0.00310734
0.00312938
0.00315261
0.00317712
0.00320307
0.00323065
0.00326004
0.00329148
0.00332552
0.00336291
0.00340387
0.00344874
0.00349776
0.0035506
0.0036053
0.00365613
0.00369076
0.00247574
0.00248271
0.00249081
0.00249897
0.00250699
0.00251483
0.0025225
0.00253001
0.00253736
0.00254456
0.00255163
0.00255856
0.00256537
0.00257208
0.00257868
0.00258519
0.00259161
0.00259796
0.00260425
0.00261047
0.00261666
0.0026228
0.00262891
0.002635
0.00264108
0.00264715
0.00265324
0.00265933
0.00266545
0.00267161
0.0026778
0.00268405
0.00269035
0.00269673
0.00270318
0.00270973
0.00271636
0.00272311
0.00272997
0.00273696
0.00274409
0.00275136
0.00275879
0.00276638
0.00277416
0.00278212
0.00279029
0.00279866
0.00280726
0.0028161
0.00282519
0.00283454
0.00284417
0.00285409
0.00286431
0.00287486
0.00288574
0.00289698
0.00290859
0.00292058
0.00293299
0.00294583
0.00295911
0.00297287
0.00298713
0.00300191
0.00301724
0.00303315
0.00304967
0.00306683
0.00308467
0.00310323
0.00312254
0.00314264
0.00316359
0.00318543
0.00320822
0.003232
0.00325685
0.00328283
0.00331
0.00333845
0.00336827
0.00339953
0.00343237
0.00346688
0.00350322
0.00354155
0.00358208
0.003625
0.0036706
0.0037192
0.00377118
0.00382729
0.00388738
0.00395124
0.00401782
0.00408422
0.0041439
0.004184
0.00248691
0.00249445
0.00250331
0.00251228
0.00252113
0.00252983
0.00253838
0.00254677
0.00255503
0.00256316
0.00257116
0.00257906
0.00258685
0.00259456
0.00260218
0.00260973
0.00261722
0.00262466
0.00263205
0.00263942
0.00264676
0.00265409
0.00266142
0.00266876
0.00267612
0.0026835
0.00269093
0.00269841
0.00270594
0.00271355
0.00272123
0.00272901
0.00273689
0.00274488
0.002753
0.00276125
0.00276965
0.0027782
0.00278693
0.00279584
0.00280494
0.00281425
0.00282377
0.00283353
0.00284354
0.0028538
0.00286434
0.00287517
0.00288629
0.00289774
0.00290952
0.00292165
0.00293415
0.00294703
0.00296032
0.00297403
0.00298818
0.0030028
0.00301789
0.0030335
0.00304964
0.00306633
0.00308361
0.00310149
0.00312002
0.00313921
0.00315911
0.00317974
0.00320114
0.00322336
0.00324643
0.0032704
0.00329531
0.00332121
0.00334816
0.00337621
0.00340542
0.00343585
0.00346758
0.00350067
0.0035352
0.00357125
0.00360892
0.00364828
0.00368945
0.00373252
0.00377763
0.00382489
0.00387443
0.00392638
0.00398085
0.00403791
0.00409761
0.00416026
0.00422556
0.00429281
0.00436055
0.00442581
0.00448295
0.00452162
0.002495
0.00250303
0.00251257
0.00252229
0.00253191
0.0025414
0.00255074
0.00255994
0.00256902
0.00257798
0.00258684
0.0025956
0.00260427
0.00261286
0.0026214
0.00262987
0.0026383
0.0026467
0.00265508
0.00266344
0.0026718
0.00268018
0.00268857
0.00269699
0.00270546
0.00271398
0.00272256
0.00273122
0.00273997
0.00274882
0.00275778
0.00276686
0.00277608
0.00278544
0.00279496
0.00280466
0.00281453
0.00282461
0.0028349
0.00284541
0.00285616
0.00286717
0.00287844
0.00288999
0.00290184
0.00291401
0.0029265
0.00293934
0.00295254
0.00296613
0.00298011
0.00299451
0.00300935
0.00302465
0.00304043
0.00305671
0.00307351
0.00309086
0.00310878
0.0031273
0.00314644
0.00316623
0.00318671
0.0032079
0.00322983
0.00325254
0.00327607
0.00330045
0.00332572
0.00335192
0.0033791
0.0034073
0.00343658
0.00346698
0.00349856
0.00353138
0.00356549
0.00360096
0.00363786
0.00367624
0.00371618
0.00375776
0.00380103
0.00384609
0.00389298
0.0039418
0.00399258
0.00404539
0.00410024
0.00415711
0.00421594
0.00427654
0.00433863
0.00440176
0.00446578
0.00452962
0.00459175
0.00464963
0.00469914
0.00473325
0.00250028
0.00250872
0.00251885
0.00252922
0.00253953
0.0025497
0.00255974
0.00256965
0.00257944
0.00258913
0.00259872
0.00260822
0.00261765
0.00262702
0.00263633
0.00264559
0.00265483
0.00266404
0.00267325
0.00268246
0.00269168
0.00270092
0.0027102
0.00271953
0.00272892
0.00273838
0.00274792
0.00275756
0.0027673
0.00277717
0.00278717
0.00279731
0.00280761
0.00281808
0.00282874
0.00283959
0.00285065
0.00286194
0.00287347
0.00288526
0.00289731
0.00290965
0.00292229
0.00293525
0.00294854
0.00296218
0.00297619
0.00299058
0.00300538
0.00302061
0.00303628
0.00305241
0.00306903
0.00308615
0.0031038
0.00312201
0.0031408
0.00316019
0.00318021
0.00320088
0.00322224
0.00324432
0.00326714
0.00329074
0.00331516
0.00334042
0.00336657
0.00339363
0.00342167
0.00345071
0.00348079
0.00351198
0.00354431
0.00357783
0.0036126
0.00364867
0.00368609
0.00372493
0.00376523
0.00380706
0.00385047
0.00389552
0.00394225
0.00399071
0.00404093
0.00409295
0.00414675
0.00420231
0.00425955
0.00431834
0.00437844
0.00443947
0.00450088
0.00456191
0.00462213
0.0046805
0.00473556
0.00478525
0.00482676
0.00485587
0.00250315
0.00251191
0.00252252
0.00253344
0.00254431
0.00255506
0.00256568
0.00257618
0.00258657
0.00259686
0.00260706
0.00261718
0.00262723
0.00263722
0.00264717
0.00265708
0.00266697
0.00267684
0.00268672
0.00269661
0.00270652
0.00271646
0.00272645
0.0027365
0.00274662
0.00275682
0.00276712
0.00277752
0.00278805
0.00279871
0.00280951
0.00282048
0.00283161
0.00284294
0.00285446
0.0028662
0.00287817
0.00289038
0.00290284
0.00291559
0.00292862
0.00294195
0.00295561
0.0029696
0.00298395
0.00299867
0.00301378
0.00302931
0.00304526
0.00306165
0.00307852
0.00309588
0.00311375
0.00313215
0.00315112
0.00317066
0.00319081
0.00321159
0.00323303
0.00325516
0.00327801
0.0033016
0.00332596
0.00335114
0.00337716
0.00340405
0.00343186
0.00346063
0.00349038
0.00352116
0.00355302
0.003586
0.00362014
0.00365549
0.00369209
0.00373
0.00376927
0.00380993
0.00385204
0.00389565
0.00394079
0.00398751
0.00403583
0.00408576
0.00413733
0.00419051
0.00424527
0.00430153
0.00435916
0.00441795
0.00447758
0.00453761
0.00459739
0.00465607
0.00471284
0.00476686
0.00481674
0.00486072
0.00489668
0.00492205
0.00250413
0.00251308
0.00252406
0.0025354
0.00254671
0.00255791
0.00256899
0.00257995
0.00259081
0.00260156
0.00261223
0.00262282
0.00263335
0.00264383
0.00265426
0.00266466
0.00267505
0.00268543
0.00269581
0.00270621
0.00271663
0.0027271
0.00273762
0.0027482
0.00275886
0.00276961
0.00278047
0.00279144
0.00280253
0.00281377
0.00282516
0.00283672
0.00284846
0.0028604
0.00287254
0.00288491
0.00289752
0.00291038
0.00292351
0.00293692
0.00295063
0.00296466
0.00297902
0.00299373
0.0030088
0.00302426
0.00304012
0.0030564
0.00307312
0.0030903
0.00310797
0.00312613
0.00314481
0.00316404
0.00318384
0.00320423
0.00322524
0.00324689
0.00326921
0.00329222
0.00331595
0.00334044
0.00336571
0.00339179
0.00341872
0.00344653
0.00347525
0.00350491
0.00353556
0.00356724
0.00359997
0.0036338
0.00366878
0.00370493
0.00374232
0.00378096
0.00382091
0.00386221
0.00390489
0.00394899
0.00399453
0.00404155
0.00409005
0.00414005
0.00419152
0.00424444
0.00429874
0.00435435
0.00441111
0.00446881
0.00452716
0.0045857
0.00464386
0.00470087
0.00475577
0.00480779
0.00485564
0.00489758
0.00493156
0.00495546
0.00250384
0.00251286
0.00252407
0.0025357
0.00254732
0.00255884
0.00257023
0.00258151
0.00259269
0.00260376
0.00261476
0.00262567
0.00263653
0.00264733
0.00265809
0.00266883
0.00267955
0.00269026
0.00270098
0.00271172
0.00272249
0.0027333
0.00274417
0.00275511
0.00276612
0.00277723
0.00278845
0.00279978
0.00281124
0.00282285
0.00283462
0.00284656
0.00285869
0.00287101
0.00288355
0.00289632
0.00290933
0.0029226
0.00293614
0.00294996
0.0029641
0.00297855
0.00299334
0.00300848
0.00302399
0.0030399
0.0030562
0.00307294
0.00309011
0.00310775
0.00312588
0.0031445
0.00316366
0.00318336
0.00320362
0.00322449
0.00324596
0.00326808
0.00329087
0.00331434
0.00333854
0.00336348
0.0033892
0.00341573
0.00344309
0.00347131
0.00350043
0.00353049
0.0035615
0.00359352
0.00362657
0.00366068
0.0036959
0.00373226
0.0037698
0.00380854
0.00384853
0.00388979
0.00393236
0.00397625
0.0040215
0.00406811
0.00411608
0.00416542
0.00421609
0.00426807
0.00432128
0.00437564
0.00443101
0.00448722
0.00454403
0.00460106
0.00465786
0.0047138
0.00476806
0.00481985
0.00486803
0.00491088
0.00494607
0.00497107
0.00250304
0.00251204
0.00252334
0.00253511
0.0025469
0.00255858
0.00257015
0.00258159
0.00259293
0.00260418
0.00261534
0.00262642
0.00263744
0.00264841
0.00265935
0.00267025
0.00268114
0.00269202
0.00270291
0.00271382
0.00272476
0.00273574
0.00274678
0.00275789
0.00276908
0.00278036
0.00279175
0.00280326
0.0028149
0.00282668
0.00283863
0.00285075
0.00286306
0.00287556
0.00288828
0.00290123
0.00291443
0.00292788
0.00294161
0.00295563
0.00296995
0.00298459
0.00299957
0.00301491
0.00303061
0.00304671
0.00306321
0.00308014
0.00309751
0.00311534
0.00313366
0.00315248
0.00317182
0.00319171
0.00321217
0.00323322
0.00325488
0.00327718
0.00330014
0.00332379
0.00334815
0.00337325
0.00339912
0.00342579
0.00345328
0.00348162
0.00351085
0.00354099
0.00357209
0.00360416
0.00363724
0.00367137
0.00370657
0.00374289
0.00378034
0.00381897
0.0038588
0.00389985
0.00394216
0.00398575
0.00403062
0.00407679
0.00412426
0.00417301
0.00422303
0.00427426
0.00432664
0.0043801
0.00443451
0.00448974
0.00454559
0.00460181
0.00465799
0.00471353
0.00476764
0.00481954
0.00486827
0.0049124
0.00494971
0.00497721
1.00923e-05
1.00919e-05
1.25841e-05
1.60846e-05
2.02194e-05
2.48783e-05
3.00398e-05
3.57288e-05
4.20075e-05
4.89777e-05
5.67853e-05
6.56246e-05
7.57397e-05
8.74167e-05
0.000100957
0.000116612
0.000134435
0.000153974
0.000173569
0.000188813
1.96555e-05
2.0491e-05
2.48766e-05
3.08334e-05
3.77226e-05
4.53245e-05
5.35777e-05
6.25036e-05
7.21869e-05
8.27751e-05
9.44827e-05
0.000107595
0.000122463
0.000139491
0.000159087
0.000181555
0.000206877
0.000234231
0.000261022
0.000280971
3.93544e-05
4.2365e-05
4.9829e-05
5.9439e-05
7.03256e-05
8.21305e-05
9.47237e-05
0.000108109
0.000122392
0.000137776
0.000154561
0.000173145
0.000194011
0.000217696
0.000244722
0.000275441
0.000309718
0.000346278
0.000381452
0.000406852
8.01755e-05
8.66364e-05
9.86079e-05
0.000113244
0.000129456
0.000146748
0.000164909
0.000183911
0.00020388
0.000225079
0.000247909
0.0002729
0.000300683
0.000331941
0.000367317
0.000407196
0.000451267
0.000497692
0.000541564
0.000572191
0.0001606
0.000171596
0.000189299
0.000210107
0.000232659
0.000256323
0.000280811
0.000306065
0.000332227
0.000359625
0.000388769
0.000420331
0.000455093
0.000493893
0.00053749
0.000586266
0.000639664
0.000695173
0.000746556
0.00078114
0.000308693
0.00032461
0.000348351
0.000375487
0.00040435
0.000434167
0.000464584
0.000495521
0.000527139
0.000559822
0.000594199
0.000631065
0.000671337
0.000715999
0.000765902
0.000821378
0.000881552
0.00094317
0.000998735
0.00103484
0.000561358
0.000581118
0.00060937
0.000641048
0.000674219
0.000707996
0.000741971
0.000776053
0.000810417
0.000845518
0.000882064
0.000920909
0.000963054
0.00100958
0.00106139
0.00111872
0.00118033
0.00124225
0.00129613
0.0013298
0.000957666
0.000978116
0.00100678
0.00103851
0.00107129
0.00110419
0.00113679
0.00116901
0.00120107
0.00123349
0.00126689
0.00130208
0.00134003
0.00138181
0.00142832
0.00147967
0.00153432
0.00158781
0.0016321
0.00165817
0.00152364
0.00153966
0.00156212
0.00158675
0.00161184
0.00163656
0.00166061
0.00168397
0.00170694
0.00172984
0.0017531
0.00177726
0.00180311
0.00183148
0.00186318
0.00189823
0.00193508
0.00196976
0.00199648
0.00201062
0.00224734
0.00225326
0.00226184
0.00227112
0.00228033
0.00228901
0.00229708
0.00230458
0.00231155
0.00231802
0.00232414
0.00233004
0.00233608
0.00234251
0.00234973
0.00235776
0.00236598
0.00237287
0.00237665
0.00237728
0.00303763
0.00303045
0.00302034
0.00300913
0.00299751
0.0029858
0.00297396
0.00296183
0.00294923
0.00293598
0.00292188
0.00290662
0.00288982
0.00287105
0.00284988
0.00282645
0.00280194
0.00277851
0.00275881
0.00274611
0.00369167
0.00367604
0.00365423
0.00363004
0.00360491
0.0035795
0.00355402
0.00352842
0.00350234
0.00347533
0.00344695
0.00341658
0.00338343
0.00334668
0.00330566
0.00326052
0.00321297
0.00316717
0.00312935
0.00310591
0.00418551
0.00416675
0.00414043
0.00411101
0.00408022
0.00404879
0.00401702
0.00398492
0.00395222
0.0039184
0.0038828
0.00384465
0.00380298
0.00375684
0.00370545
0.00364884
0.00358861
0.0035292
0.00347877
0.00344727
0.00452523
0.00450771
0.00448253
0.00445404
0.00442388
0.00439277
0.00436099
0.00432857
0.00429528
0.00426069
0.00422408
0.00418465
0.00414146
0.00409353
0.00404007
0.00398093
0.00391738
0.00385334
0.00379709
0.00376125
0.00473949
0.0047257
0.00470494
0.004681
0.00465528
0.0046284
0.00460063
0.00457198
0.00454226
0.00451108
0.00447784
0.00444179
0.00440209
0.00435783
0.00430824
0.00425307
0.00419318
0.00413177
0.00407615
0.00403981
0.00486429
0.00485495
0.00483967
0.00482154
0.0048017
0.00478066
0.00475864
0.00473564
0.00471151
0.0046859
0.00465835
0.0046282
0.00459475
0.00455722
0.00451491
0.0044675
0.00441552
0.0043614
0.00431113
0.00427702
0.00493192
0.00492654
0.0049163
0.00490365
0.0048895
0.00487426
0.00485808
0.00484096
0.00482276
0.00480322
0.00478194
0.00475845
0.00473215
0.0047024
0.00466861
0.00463044
0.00458818
0.00454359
0.00450133
0.00447157
0.00496629
0.00496387
0.00495753
0.00494926
0.0049398
0.00492945
0.00491829
0.00490631
0.00489339
0.00487933
0.00486385
0.00484657
0.00482703
0.00480475
0.00477923
0.00475015
0.00471765
0.00468292
0.00464944
0.00462511
0.00498296
0.00498239
0.00497868
0.00497356
0.00496758
0.00496093
0.00495364
0.00494568
0.00493696
0.00492734
0.00491661
0.0049045
0.0048907
0.00487481
0.00485646
0.00483538
0.00481157
0.00478582
0.00476057
0.00474171
0.00499115
0.00499125
0.00498914
0.00498613
0.00498254
0.00497846
0.0049739
0.00496884
0.0049632
0.00495688
0.00494976
0.00494164
0.00493231
0.00492148
0.00490888
0.00489429
0.00487765
0.00485939
0.00484107
0.00482682
1.85775e-53
1.85451e-53
1.85156e-53
1.85073e-53
1.85359e-53
1.86135e-53
1.8749e-53
1.89474e-53
1.92102e-53
1.95356e-53
1.99183e-53
2.035e-53
2.08192e-53
2.13113e-53
2.18087e-53
2.22909e-53
2.27345e-53
2.3113e-53
2.3398e-53
2.35586e-53
9.72641e-53
9.69984e-53
9.67674e-53
9.66602e-53
9.67583e-53
9.71265e-53
9.7811e-53
9.88375e-53
1.00214e-52
1.01929e-52
1.03957e-52
1.06252e-52
1.08756e-52
1.1139e-52
1.14066e-52
1.16674e-52
1.19092e-52
1.21181e-52
1.22792e-52
1.23776e-52
3.55909e-52
3.54434e-52
3.53144e-52
3.52393e-52
3.52472e-52
3.53608e-52
3.55969e-52
3.59651e-52
3.64682e-52
3.71026e-52
3.78586e-52
3.87198e-52
3.9664e-52
4.06633e-52
4.16838e-52
4.2686e-52
4.36246e-52
4.44497e-52
4.51073e-52
4.5539e-52
1.21303e-51
1.20602e-51
1.19986e-51
1.19587e-51
1.19501e-51
1.19803e-51
1.20549e-51
1.21773e-51
1.23486e-51
1.25676e-51
1.28311e-51
1.31335e-51
1.34672e-51
1.38224e-51
1.41875e-51
1.45488e-51
1.48908e-51
1.51965e-51
1.5448e-51
1.56234e-51
4.05547e-51
4.02549e-51
3.99844e-51
3.97981e-51
3.97281e-51
3.97985e-51
4.00272e-51
4.04258e-51
4.09982e-51
4.1741e-51
4.26434e-51
4.36866e-51
4.4845e-51
4.60859e-51
4.73694e-51
4.86491e-51
4.98735e-51
5.0987e-51
5.19283e-51
5.26103e-51
1.34703e-50
1.33485e-50
1.32369e-50
1.31565e-50
1.31187e-50
1.31314e-50
1.32004e-50
1.33292e-50
1.35194e-50
1.37699e-50
1.4077e-50
1.44346e-50
1.48342e-50
1.52646e-50
1.57126e-50
1.61628e-50
1.65982e-50
1.70002e-50
1.73474e-50
1.76068e-50
4.45986e-50
4.41209e-50
4.36781e-50
4.33496e-50
4.31748e-50
4.31803e-50
4.33848e-50
4.38e-50
4.44304e-50
4.52724e-50
4.63144e-50
4.75358e-50
4.89083e-50
5.03952e-50
5.19526e-50
5.35295e-50
5.50697e-50
5.65107e-50
5.77779e-50
5.87483e-50
1.47316e-49
1.4549e-49
1.43784e-49
1.4249e-49
1.41746e-49
1.41641e-49
1.42237e-49
1.43571e-49
1.45656e-49
1.48481e-49
1.52008e-49
1.56168e-49
1.60867e-49
1.65987e-49
1.71381e-49
1.76882e-49
1.82305e-49
1.87438e-49
1.92022e-49
1.95605e-49
4.85576e-49
4.7874e-49
4.72306e-49
4.67348e-49
4.64342e-49
4.63589e-49
4.6529e-49
4.69563e-49
4.76451e-49
4.85911e-49
4.97817e-49
5.11947e-49
5.27994e-49
5.45563e-49
5.64182e-49
5.83301e-49
6.02304e-49
6.2048e-49
6.36936e-49
6.50015e-49
1.59723e-48
1.57205e-48
1.54821e-48
1.52961e-48
1.5179e-48
1.51408e-48
1.51881e-48
1.53247e-48
1.55518e-48
1.5868e-48
1.6269e-48
1.67478e-48
1.72941e-48
1.78952e-48
1.85357e-48
1.91977e-48
1.98606e-48
2.05006e-48
2.10871e-48
2.15599e-48
5.24302e-48
5.15148e-48
5.06444e-48
4.99589e-48
4.95147e-48
4.93454e-48
4.94724e-48
4.99079e-48
5.06555e-48
5.17103e-48
5.30585e-48
5.46762e-48
5.65311e-48
5.85817e-48
6.07777e-48
6.30606e-48
6.5363e-48
6.76051e-48
6.96813e-48
7.13756e-48
1.71749e-47
1.68461e-47
1.65321e-47
1.62831e-47
1.61181e-47
1.60483e-47
1.60808e-47
1.62194e-47
1.64652e-47
1.68164e-47
1.72685e-47
1.78138e-47
1.84419e-47