/*--------------------------------*- C++ -*----------------------------------*\
| =========                 |                                                 |
| \\      /  F ield         | OpenFOAM: The Open Source CFD Toolbox           |
|  \\    /   O peration     | Version:  2.1.0                                 |
|   \\  /    A nd           | Web:      www.OpenFOAM.org                      |
|    \\/     M anipulation  |                                                 |
\*---------------------------------------------------------------------------*/
FoamFile
{
    version     2.0;
    format      ascii;
    class       volScalarField;
    location    "0.37";
    object      k;
}
// * * * * * * * * * * * * * * * * * * * * * * * * * * * * * * * * * * * * * //

dimensions      [0 2 -2 0 0 0 0];

internalField   nonuniform List<scalar> 
6400
(
0.0328061
0.0328515
0.0328566
0.032856
0.0328351
0.0328256
0.0327973
0.0327836
0.0327511
0.0327345
0.0326997
0.0326792
0.0326432
0.0326184
0.0325813
0.032552
0.0325138
0.0324803
0.0324407
0.0324034
0.0323623
0.0323218
0.0322792
0.0322359
0.0321919
0.0321462
0.0321004
0.0320524
0.0320045
0.0319541
0.0319037
0.0318508
0.0317977
0.031742
0.0316858
0.0316268
0.0315669
0.031504
0.0314397
0.0313716
0.0313011
0.0312262
0.0311477
0.0310638
0.0309749
0.0308796
0.0307779
0.0306684
0.0305511
0.0304247
0.0302891
0.0301433
0.029986
0.0298132
0.0296248
0.0294161
0.0292068
0.0289795
0.028749
0.028503
0.0282517
0.0279883
0.0277168
0.0274346
0.0271416
0.026838
0.0265221
0.0261946
0.0258502
0.0254913
0.0251149
0.024721
0.0243079
0.0238755
0.0234229
0.022951
0.0224596
0.0219509
0.0214262
0.0208886
0.0203397
0.0197805
0.019205
0.018591
0.0179264
0.0172354
0.0164901
0.0156714
0.0147433
0.0136562
0.0123364
0.0106751
0.00858519
0.00609866
0.0034409
0.00235888
0.00274849
0.00552539
0.00876229
0.00991664
0.0522161
0.0525379
0.0526862
0.0529573
0.0531249
0.0533937
0.0535798
0.0538426
0.0540459
0.0543032
0.0545211
0.0547747
0.0550043
0.0552555
0.055494
0.0557442
0.0559891
0.056239
0.0564885
0.0567388
0.0569918
0.0572436
0.0575001
0.0577549
0.0580168
0.0582772
0.0585451
0.0588125
0.0590871
0.0593619
0.0596435
0.059926
0.0602151
0.0605056
0.0608023
0.0611012
0.0614063
0.0617143
0.062029
0.0623467
0.0626685
0.0629925
0.0633193
0.0636466
0.0639746
0.0643007
0.0646243
0.0649425
0.0652545
0.0655571
0.0658499
0.0661318
0.0664093
0.0666684
0.0669116
0.0671216
0.0673402
0.0675334
0.0677224
0.0678853
0.0680338
0.0681667
0.0682794
0.0683782
0.0684518
0.0685055
0.0685304
0.0685379
0.0685069
0.0684347
0.0683177
0.0681482
0.067918
0.0676199
0.0672437
0.0667819
0.0662242
0.065564
0.0647926
0.0639056
0.0628984
0.0617721
0.0605312
0.0591677
0.0576349
0.0558782
0.0538693
0.0515475
0.048851
0.0457113
0.0420717
0.0378933
0.0332288
0.0283472
0.0233616
0.0186309
0.0149782
0.012396
0.0107861
0.00922065
0.0579331
0.0584071
0.058624
0.0590187
0.0592888
0.0596695
0.0599723
0.060344
0.06067
0.0610374
0.0613807
0.0617472
0.0621037
0.0624713
0.0628378
0.0632075
0.0635813
0.0639532
0.0643315
0.0647046
0.0650845
0.0654585
0.0658399
0.0662148
0.0665984
0.0669787
0.0673664
0.0677518
0.0681436
0.0685334
0.068929
0.0693226
0.0697211
0.0701179
0.0705184
0.070917
0.071318
0.0717163
0.0721144
0.0725094
0.0729035
0.0732935
0.0736804
0.0740609
0.0744353
0.0747995
0.0751529
0.0754899
0.0758084
0.0761001
0.0763619
0.0765789
0.0767841
0.0769639
0.0771232
0.0772597
0.0773742
0.077463
0.0775297
0.0775662
0.0775814
0.0775737
0.0775071
0.0774165
0.0772703
0.077088
0.0768487
0.076564
0.0762174
0.0758144
0.0753403
0.074795
0.0741643
0.0734437
0.0726189
0.0716824
0.07062
0.0694231
0.0680789
0.0665802
0.064917
0.063085
0.0610779
0.0588929
0.0565378
0.054029
0.0513557
0.0485248
0.0455129
0.0423093
0.0388719
0.0351689
0.0311774
0.0268938
0.0224361
0.0180856
0.0144232
0.0114601
0.00928247
0.00710576
0.0620908
0.0626137
0.062853
0.0633063
0.0636237
0.0640591
0.0644187
0.0648424
0.0652279
0.0656457
0.0660484
0.0664644
0.066879
0.0672956
0.0677185
0.068137
0.0685655
0.0689861
0.0694179
0.0698398
0.0702724
0.070691
0.0711155
0.0715229
0.0719287
0.0723319
0.0727358
0.0731335
0.0735318
0.073922
0.0743114
0.0746912
0.0750683
0.0754344
0.0757951
0.0761433
0.0764834
0.0768099
0.0771256
0.0774236
0.0777084
0.0779731
0.0782209
0.0784454
0.078649
0.0788253
0.0789767
0.0790966
0.0791871
0.0792339
0.0792529
0.0792534
0.0791913
0.0791073
0.0789663
0.0787889
0.0785537
0.0782693
0.0779215
0.0775114
0.0770302
0.0764812
0.0758524
0.0751482
0.0743557
0.0734796
0.0725082
0.071447
0.0702866
0.0690326
0.0676784
0.0662301
0.0646845
0.0630483
0.0613199
0.0595071
0.0576093
0.0556344
0.0535828
0.0514614
0.0492706
0.0470161
0.0446987
0.0423229
0.0398911
0.0374064
0.0348729
0.0323131
0.0297236
0.0271209
0.0245082
0.0218992
0.0193013
0.0167328
0.0142278
0.0118632
0.00969404
0.00785708
0.0065859
0.00598995
0.0630685
0.0635589
0.0637788
0.0642103
0.0645003
0.0649124
0.0652391
0.065633
0.0659792
0.0663584
0.066714
0.0670811
0.0674391
0.0677955
0.0681508
0.0684962
0.0688443
0.0691773
0.069514
0.0698323
0.0701534
0.0704562
0.0707589
0.0710418
0.0713245
0.0715887
0.0718492
0.0720899
0.0723234
0.0725352
0.072736
0.0729131
0.0730751
0.073211
0.0733275
0.073415
0.0734741
0.0735013
0.073509
0.0734762
0.0734076
0.0732995
0.0731525
0.0729603
0.0727253
0.0724398
0.0721076
0.0717205
0.0712829
0.0707869
0.0702385
0.0696286
0.0689609
0.068233
0.0674431
0.0665952
0.0656854
0.0647161
0.0636848
0.0625938
0.0614421
0.0602324
0.0589642
0.057641
0.0562628
0.0548339
0.0533546
0.0518299
0.0502606
0.0486521
0.0470056
0.0453263
0.0436169
0.0418827
0.0401317
0.0383662
0.0365926
0.0348138
0.0330371
0.0312654
0.0295069
0.0277657
0.0260509
0.0243665
0.0227219
0.02112
0.0195704
0.0180582
0.0166017
0.015188
0.0138323
0.0125225
0.0112745
0.0100809
0.00896459
0.00793679
0.00702902
0.00639773
0.00612464
0.0061217
0.059275
0.0595566
0.0596841
0.0599474
0.0601206
0.0603674
0.0605563
0.0607794
0.060968
0.0611656
0.0613442
0.0615155
0.061677
0.0618207
0.0619593
0.0620732
0.0621837
0.0622648
0.0623423
0.0623873
0.0624175
0.0624278
0.0624273
0.0623855
0.0623354
0.0622462
0.0621461
0.0620109
0.0618598
0.0616726
0.0614647
0.0612195
0.0609493
0.0606404
0.0603028
0.0599253
0.059516
0.0590664
0.0585827
0.0580566
0.0574951
0.0568915
0.0562514
0.0555693
0.0548509
0.054091
0.0532959
0.0524604
0.0515917
0.0506844
0.0497462
0.0487719
0.0477695
0.0467345
0.0456747
0.0445862
0.0434763
0.0423422
0.0411922
0.040026
0.038849
0.0376613
0.036468
0.0352697
0.0340711
0.0328733
0.0316806
0.0304945
0.0293192
0.0281564
0.0270099
0.0258816
0.0247748
0.0236913
0.0226295
0.0215938
0.0205851
0.0196059
0.0186591
0.0177453
0.0168642
0.0160129
0.0151954
0.014407
0.0136515
0.012923
0.0122248
0.0115501
0.0109019
0.0102718
0.00966335
0.00906764
0.00849041
0.00792681
0.00739291
0.00689696
0.00653527
0.00637783
0.00635157
0.00656877
0.0497545
0.0496805
0.0496528
0.0496161
0.0495914
0.0495434
0.0495029
0.0494308
0.0493652
0.049263
0.049167
0.0490317
0.048902
0.0487315
0.0485656
0.0483585
0.0481546
0.0479101
0.0476674
0.0473851
0.0471033
0.0467826
0.0464559
0.0460914
0.0457198
0.0453109
0.0448935
0.0444405
0.0439769
0.0434795
0.0429698
0.0424286
0.0418739
0.0412901
0.0406925
0.0400682
0.0394306
0.0387691
0.0380952
0.0374004
0.0366951
0.0359739
0.0352449
0.034503
0.0337566
0.0330006
0.0322435
0.0314801
0.0307192
0.0299556
0.0291979
0.028441
0.0276936
0.0269503
0.0262196
0.0254936
0.0247822
0.024079
0.0233922
0.0227139
0.0220535
0.021404
0.0207734
0.0201551
0.0195557
0.0189697
0.0184036
0.0178492
0.017313
0.0167884
0.0162803
0.0157829
0.0153002
0.0148268
0.0143656
0.0139121
0.0134682
0.0130298
0.0125973
0.0121682
0.011758
0.0113559
0.0109706
0.0105923
0.0102286
0.00987047
0.00952533
0.00918514
0.00885767
0.00853656
0.00823129
0.00793823
0.00766976
0.00742628
0.00723034
0.00710152
0.00704864
0.00709324
0.00743333
0.00762515
0.0366811
0.0363032
0.0361449
0.03585
0.0356668
0.0353695
0.0351555
0.0348452
0.034599
0.0342702
0.0339918
0.0336419
0.0333321
0.0329595
0.0326192
0.0322232
0.0318533
0.0314333
0.0310347
0.0305907
0.0301639
0.0297009
0.0292567
0.0287816
0.0283239
0.0278414
0.0273714
0.0268785
0.0263984
0.0258999
0.0254154
0.0249164
0.0244328
0.0239382
0.0234606
0.0229751
0.022508
0.022036
0.0215837
0.0211291
0.0206949
0.0202594
0.0198447
0.0194309
0.0190381
0.0186481
0.0182793
0.0179145
0.0175708
0.0172321
0.0169135
0.0166008
0.0163086
0.0160229
0.0157569
0.0154977
0.0152575
0.0150238
0.0148076
0.0145976
0.014404
0.0142163
0.0140438
0.0138768
0.0137242
0.013576
0.0134396
0.0133097
0.0131909
0.0130778
0.0129744
0.0128757
0.012785
0.0126979
0.0126172
0.0125389
0.0124653
0.0123926
0.0123226
0.0122517
0.0121811
0.012105
0.0120256
0.0119368
0.0118405
0.0117306
0.0116085
0.0114689
0.0113142
0.0111413
0.0109555
0.0107586
0.0105622
0.0103757
0.0102428
0.0101848
0.0101777
0.0104207
0.0107819
0.0109591
0.0239799
0.0234465
0.0232264
0.0228114
0.0225758
0.0221731
0.021921
0.0215266
0.0212604
0.0208724
0.0205953
0.0202132
0.0199285
0.0195527
0.0192635
0.018895
0.0186045
0.0182446
0.0179556
0.0176061
0.0173216
0.0169864
0.0167127
0.0163948
0.0161338
0.015835
0.0155883
0.0153098
0.0150797
0.0148228
0.0146109
0.0143768
0.0141841
0.0139736
0.0138009
0.0136145
0.0134622
0.0133001
0.0131684
0.0130305
0.0129198
0.0128054
0.0127158
0.0126246
0.0125562
0.0124878
0.0124405
0.0123946
0.0123687
0.0123493
0.0123419
0.0123406
0.0123563
0.0123774
0.0124141
0.0124561
0.0125136
0.0125766
0.0126557
0.0127407
0.0128417
0.012949
0.0130721
0.0132021
0.0133477
0.0135008
0.0136695
0.0138459
0.0140376
0.0142378
0.0144534
0.0146784
0.0149188
0.0151695
0.0154355
0.0157127
0.0160052
0.0163092
0.0166281
0.0169584
0.0173023
0.0176563
0.0180215
0.0183937
0.0187725
0.0191528
0.019532
0.0199037
0.0202639
0.0206056
0.0209254
0.0212188
0.0214871
0.0217341
0.0219746
0.0222535
0.0227027
0.0233036
0.0241305
0.0250249
0.017516
0.0169793
0.0167625
0.01635
0.0161348
0.0157426
0.0155306
0.0151603
0.0149538
0.0146065
0.014408
0.0140846
0.0138962
0.0135973
0.0134211
0.0131471
0.0129846
0.0127359
0.0125884
0.012365
0.0122337
0.0120355
0.0119211
0.0117475
0.0116503
0.0115008
0.0114207
0.0112947
0.0112318
0.0111307
0.0110811
0.0110059
0.0109696
0.0109198
0.0108964
0.0108721
0.0108623
0.0108585
0.0108635
0.0108797
0.0109045
0.0109376
0.010981
0.0110315
0.0110934
0.0111614
0.0112415
0.0113274
0.0114258
0.0115299
0.0116467
0.0117698
0.0119054
0.0120478
0.0122029
0.0123651
0.0125406
0.0127238
0.0129205
0.0131255
0.0133447
0.0135731
0.0138165
0.0140703
0.0143399
0.0146211
0.0149193
0.0152305
0.01556
0.0159043
0.0162685
0.0166496
0.0170525
0.0174749
0.0179215
0.0183907
0.0188869
0.0194095
0.0199628
0.020547
0.0211664
0.0218222
0.0225193
0.0232596
0.0240487
0.0248899
0.02579
0.0267546
0.0277921
0.0289106
0.0301214
0.0314361
0.0328701
0.0344401
0.0361647
0.0380547
0.0401077
0.0422979
0.0438238
0.044446
0.0211995
0.0206174
0.020378
0.0199203
0.0196712
0.0192303
0.0189742
0.0185507
0.0182912
0.0178862
0.0176267
0.0172412
0.0169848
0.0166205
0.016371
0.0160288
0.0157895
0.0154703
0.0152439
0.0149485
0.0147371
0.0144661
0.0142714
0.0140249
0.0138482
0.0136265
0.0134686
0.0132716
0.0131331
0.0129608
0.0128419
0.0126941
0.0125948
0.0124714
0.0123915
0.0122923
0.0122316
0.0121564
0.0121152
0.0120654
0.0120413
0.0120205
0.0120125
0.0120106
0.012024
0.0120447
0.0120789
0.0121202
0.0121753
0.0122373
0.0123131
0.0123959
0.0124927
0.0125968
0.0127149
0.0128407
0.0129802
0.013128
0.0132896
0.0134599
0.013644
0.0138377
0.0140458
0.0142642
0.0144978
0.0147425
0.0150032
0.015276
0.0155658
0.0158691
0.0161903
0.0165267
0.0168824
0.0172552
0.0176491
0.0180626
0.0184993
0.0189584
0.0194436
0.0199547
0.0204955
0.0210664
0.0216714
0.0223119
0.0229922
0.0237146
0.0244838
0.0253031
0.0261774
0.0271116
0.0281123
0.0291925
0.0303628
0.0316401
0.0330463
0.0346094
0.0363659
0.0382906
0.0398451
0.040529
0.0321388
0.0315825
0.0313471
0.0308972
0.030629
0.0301831
0.0298828
0.0294356
0.0291071
0.0286571
0.0283054
0.0278514
0.0274742
0.0270134
0.0266175
0.0261515
0.0257424
0.0252741
0.024857
0.0243898
0.0239696
0.023507
0.023088
0.0226334
0.0222198
0.0217766
0.0213723
0.0209437
0.020552
0.0201409
0.0197651
0.019374
0.0190169
0.0186482
0.018312
0.0179668
0.0176527
0.0173322
0.017042
0.0167477
0.0164824
0.0162154
0.0159758
0.0157377
0.015525
0.015316
0.0151304
0.0149501
0.0147917
0.0146396
0.014508
0.0143836
0.0142785
0.0141814
0.0141026
0.014032
0.0139783
0.0139326
0.0139029
0.0138852
0.0138782
0.0138773
0.0138955
0.0139188
0.0139586
0.0140042
0.0140647
0.0141311
0.0142108
0.0142957
0.0143915
0.0144919
0.0146015
0.0147147
0.014835
0.0149575
0.0150849
0.0152129
0.0153433
0.0154723
0.0156012
0.0157264
0.0158487
0.0159652
0.0160762
0.0161794
0.016275
0.016362
0.0164408
0.016512
0.0165775
0.0166329
0.0166862
0.0167563
0.0168608
0.0170443
0.017362
0.0178922
0.0186246
0.0196706
0.0451921
0.0448601
0.0447199
0.0444517
0.0442809
0.0440022
0.0437933
0.0434921
0.0432436
0.0429148
0.0426266
0.0422678
0.0419408
0.0415506
0.0411851
0.0407632
0.0403599
0.0399063
0.0394665
0.0389817
0.0385072
0.0379925
0.0374855
0.0369427
0.0364057
0.0358373
0.0352735
0.0346827
0.0340961
0.0334865
0.0328813
0.0322573
0.0316385
0.0310051
0.030378
0.0297409
0.029112
0.0284707
0.0278395
0.0272014
0.0265755
0.0259476
0.025334
0.0247225
0.0241272
0.0235374
0.0229656
0.0224021
0.0218581
0.0213235
0.0208082
0.0203039
0.0198189
0.0193456
0.0188907
0.0184476
0.018023
0.0176098
0.0172134
0.0168315
0.0164652
0.0161126
0.0157751
0.0154485
0.0151355
0.0148318
0.0145403
0.0142548
0.0139788
0.0137105
0.0134521
0.0131995
0.0129553
0.0127152
0.0124821
0.0122514
0.0120262
0.0118024
0.0115827
0.0113637
0.011148
0.0109328
0.010721
0.0105102
0.0103034
0.0100994
0.00989854
0.00970149
0.00950985
0.00932624
0.00915291
0.00899571
0.0088575
0.00874453
0.00868866
0.00867065
0.00878192
0.00904153
0.00944543
0.00962433
0.0566167
0.0566236
0.0566379
0.0566572
0.0566698
0.0566739
0.056674
0.0566446
0.0566158
0.0565504
0.0564858
0.0563822
0.0562843
0.0561443
0.0560084
0.0558293
0.0556512
0.0554296
0.0552057
0.0549387
0.0546658
0.0543503
0.0540257
0.0536604
0.0532818
0.0528632
0.0524289
0.0519561
0.051465
0.0509367
0.0503884
0.0498041
0.0491988
0.048559
0.0478979
0.047204
0.0464895
0.0457442
0.0449789
0.0441852
0.0433729
0.0425349
0.0416805
0.0408036
0.0399131
0.0390043
0.0380849
0.0371517
0.0362116
0.0352636
0.0343139
0.0333612
0.0324116
0.0314641
0.0305244
0.0295921
0.0286722
0.0277647
0.0268742
0.0259993
0.0251435
0.0243016
0.0234805
0.0226772
0.0218969
0.021137
0.0204013
0.0196892
0.0190025
0.018337
0.0176944
0.0170724
0.0164717
0.01589
0.0153273
0.0147813
0.0142515
0.0137356
0.0132333
0.0127418
0.0122608
0.0117874
0.0113212
0.0108596
0.010402
0.0099673
0.00954292
0.00914447
0.00875698
0.00839602
0.00804834
0.00773049
0.0074292
0.00716993
0.00692643
0.00676892
0.00669862
0.00669724
0.00702878
0.00721752
0.062961
0.0632875
0.0634341
0.0637249
0.0639205
0.0641916
0.0644046
0.0646511
0.0648659
0.0650885
0.0652957
0.0654955
0.0656891
0.0658652
0.0660393
0.0661898
0.0663394
0.0664615
0.0665817
0.066672
0.066758
0.0668125
0.0668527
0.0668692
0.0668731
0.0668439
0.0667957
0.0667158
0.0666144
0.0664789
0.0663192
0.0661227
0.0658985
0.0656346
0.065339
0.0650009
0.0646272
0.0642155
0.0637663
0.0632757
0.0627452
0.0621687
0.061551
0.0608857
0.0601775
0.0594214
0.0586213
0.0577742
0.0568832
0.0559468
0.0549681
0.0539467
0.0528855
0.0517854
0.0506489
0.0494779
0.0482753
0.0470432
0.0457852
0.0445031
0.0432033
0.041889
0.0405638
0.0392312
0.0378949
0.0365583
0.0352252
0.0338985
0.032582
0.0312784
0.0299912
0.0287231
0.0274772
0.026256
0.0250619
0.0238966
0.0227613
0.0216504
0.0205705
0.0195185
0.0184983
0.017509
0.0165521
0.015628
0.014737
0.0138783
0.0130462
0.0122427
0.0114634
0.0107115
0.00998299
0.00928135
0.00860456
0.00796155
0.00736337
0.00681409
0.00640011
0.00621159
0.00617279
0.0063592
0.0642089
0.0646945
0.0649126
0.0653329
0.0656191
0.0660187
0.0663403
0.0667223
0.0670629
0.0674318
0.0677817
0.0681407
0.0684937
0.0688442
0.0691955
0.0695376
0.0698836
0.0702163
0.0705537
0.0708755
0.0712009
0.0715093
0.0718194
0.0721128
0.0724042
0.0726775
0.0729464
0.073197
0.0734409
0.0736666
0.073885
0.0740825
0.0742697
0.0744338
0.0745837
0.074708
0.0748143
0.0748941
0.0749462
0.0749697
0.0749755
0.0749403
0.074873
0.0747668
0.0746227
0.0744351
0.0742038
0.073924
0.0735945
0.0732115
0.0727731
0.0722764
0.0717196
0.0711018
0.0704203
0.0696725
0.0688612
0.0679811
0.0670364
0.066022
0.064943
0.063798
0.0625912
0.0613206
0.0599909
0.0586021
0.0571581
0.055661
0.0541138
0.0525204
0.0508833
0.0492074
0.0474944
0.0457499
0.0439747
0.0421752
0.0403522
0.0385206
0.0366726
0.0348218
0.0329614
0.0311046
0.0292456
0.0273983
0.0255581
0.02374
0.0219419
0.0201787
0.0184522
0.0167569
0.0151139
0.0135243
0.0120115
0.0105828
0.00928202
0.00808417
0.00708333
0.00635307
0.00603019
0.00600285
0.0615983
0.0621002
0.0623298
0.0627537
0.0630532
0.0634582
0.0637953
0.0641885
0.0645488
0.0649364
0.0653118
0.0656976
0.0660832
0.0664695
0.066862
0.06725
0.0676472
0.0680372
0.0684372
0.0688289
0.0692302
0.0696225
0.0700231
0.0704144
0.0708112
0.0711977
0.0715862
0.0719616
0.0723325
0.0726865
0.0730495
0.0734002
0.0737555
0.074101
0.0744489
0.0747894
0.0751295
0.0754582
0.0757828
0.0760966
0.0764034
0.0766961
0.0769793
0.077247
0.0775013
0.0777374
0.0779559
0.0781534
0.0783288
0.0784794
0.0786038
0.0786985
0.0787545
0.0787787
0.0787825
0.0787293
0.078648
0.0785123
0.0783352
0.0780986
0.0778084
0.0774509
0.077027
0.0765246
0.0759411
0.0752753
0.0745181
0.0736713
0.0727227
0.0716772
0.0705231
0.0692674
0.0679009
0.066433
0.0648563
0.0631825
0.0614061
0.0595382
0.0575748
0.0555257
0.0533865
0.0511646
0.048854
0.0464594
0.043973
0.0413976
0.0387278
0.035965
0.0331124
0.0301947
0.0272115
0.0241855
0.0211413
0.0181273
0.0152514
0.0125211
0.0101292
0.00809009
0.00662634
0.00592559
0.0563859
0.0568187
0.0570176
0.0573753
0.0576229
0.0579675
0.0582444
0.0585807
0.0588781
0.0592104
0.059523
0.0598548
0.0601792
0.0605126
0.0608464
0.061183
0.0615243
0.0618645
0.0622118
0.0625558
0.0629075
0.0632548
0.0636094
0.063959
0.0643148
0.0646653
0.0650209
0.0653713
0.0657263
0.066079
0.0664397
0.066798
0.0671643
0.0675284
0.0678989
0.0682666
0.068639
0.0690116
0.069388
0.0697646
0.0701439
0.070523
0.070904
0.071284
0.0716643
0.0720426
0.0724192
0.0727938
0.0731657
0.0735316
0.0738894
0.0742358
0.074566
0.0748761
0.0751556
0.0753898
0.0756108
0.0758062
0.0759817
0.0761277
0.0762489
0.0763399
0.0764068
0.0764446
0.0764608
0.0764533
0.0763763
0.0762711
0.0760981
0.0758808
0.0755926
0.075247
0.0748141
0.0743068
0.0736938
0.0729812
0.0721383
0.0711647
0.0700312
0.0687333
0.0672451
0.0655617
0.0636625
0.0615453
0.059196
0.0566191
0.0538041
0.0507596
0.0474867
0.0439875
0.0402262
0.0361827
0.0318463
0.027242
0.0225327
0.0182277
0.0144575
0.0116268
0.00943711
0.00727432
0.0498533
0.0501427
0.0502757
0.0505162
0.0506665
0.0509053
0.051072
0.0513057
0.0514881
0.0517176
0.0519136
0.0521407
0.0523481
0.0525745
0.0527911
0.053018
0.0532417
0.05347
0.053699
0.0539289
0.0541616
0.054393
0.0546281
0.0548608
0.0550974
0.0553313
0.0555695
0.0558056
0.0560469
0.0562883
0.0565352
0.0567828
0.0570366
0.057291
0.0575515
0.0578132
0.0580811
0.0583513
0.0586276
0.058907
0.0591925
0.0594819
0.0597775
0.060078
0.0603852
0.0606982
0.0610187
0.0613416
0.0616682
0.0619953
0.0623229
0.0626482
0.0629701
0.0632867
0.0635965
0.0639024
0.0642118
0.0645183
0.0648239
0.0651209
0.0654058
0.0656664
0.0658901
0.0660951
0.0662763
0.0664442
0.0665869
0.0667147
0.0668102
0.0668752
0.0669032
0.0669079
0.0668406
0.0667247
0.066527
0.0662534
0.0658749
0.06539
0.0647722
0.0640159
0.063097
0.0620088
0.0607307
0.0592576
0.0575753
0.0556866
0.0535408
0.0511398
0.0483272
0.0450693
0.0412902
0.0369439
0.032224
0.0273452
0.0224742
0.0180587
0.0146164
0.0122367
0.0107432
0.00922554
0.0309164
0.0309479
0.0309489
0.0309349
0.0309117
0.0308955
0.0308633
0.0308459
0.0308102
0.0307908
0.0307541
0.0307317
0.0306947
0.0306688
0.0306317
0.0306021
0.0305642
0.0305309
0.0304919
0.0304549
0.0304141
0.0303736
0.0303307
0.0302869
0.0302418
0.0301951
0.0301479
0.0300989
0.0300499
0.0299992
0.0299484
0.0298957
0.0298429
0.0297881
0.0297331
0.0296762
0.0296192
0.0295602
0.029501
0.0294399
0.0293784
0.029315
0.0292509
0.0291849
0.0291175
0.0290478
0.0289756
0.0288997
0.0288204
0.0287362
0.0286476
0.0285534
0.0284539
0.0283487
0.028238
0.0281224
0.0280012
0.0278715
0.0277323
0.0275795
0.0274103
0.0272198
0.0270041
0.0267766
0.0265365
0.0262864
0.0260249
0.0257521
0.0254655
0.0251655
0.024851
0.0245205
0.0241655
0.0237936
0.0233931
0.02297
0.0225151
0.0220321
0.0215143
0.0209644
0.0203779
0.0197572
0.0190995
0.0184073
0.0176779
0.0169075
0.0160683
0.0151176
0.014013
0.0127282
0.0111674
0.00925007
0.00705942
0.0049508
0.0030182
0.00232222
0.00260758
0.00527872
0.00862364
0.00984786
0.00947198
0.00467542
0.00403035
0.00390135
0.00387303
0.00389698
0.00381756
0.00378052
0.00376591
0.00376303
0.00378553
0.00385634
0.00413303
0.00471552
0.00547244
0.00655075
0.00691964
0.00690149
0.00576583
0.00340506
0.0077758
0.00468055
0.0042895
0.00419006
0.00416605
0.0040457
0.00396672
0.00393212
0.00392029
0.00392264
0.00397573
0.00416291
0.00455696
0.00514019
0.00621786
0.00686746
0.0070037
0.00675926
0.00519468
0.00278543
0.00621329
0.00478474
0.00460493
0.00454101
0.0043688
0.00426775
0.00419999
0.00417286
0.00416479
0.00417752
0.00430486
0.00456609
0.00505002
0.00598973
0.00679536
0.00704903
0.00703851
0.00647958
0.00456607
0.00215452
0.00579525
0.00511612
0.00503432
0.00479458
0.00463731
0.00452197
0.00446454
0.00444032
0.00443802
0.00453946
0.00476476
0.00519617
0.00606263
0.00686718
0.00719336
0.00725361
0.00697809
0.0060279
0.0037857
0.00154918
0.00591802
0.00548185
0.00534375
0.00505453
0.00493999
0.00486748
0.00484953
0.00488338
0.00500224
0.00528528
0.00568494
0.0065089
0.00718294
0.00748797
0.00757452
0.00739576
0.00678231
0.00540712
0.00293948
0.00102099
0.00628518
0.00593573
0.00580223
0.00561801
0.00558601
0.00559498
0.00572179
0.00595371
0.00637379
0.00689706
0.00751723
0.00799837
0.00820382
0.00824706
0.00796153
0.007327
0.00637287
0.00459065
0.00189977
0.000565596
0.00721838
0.00709259
0.00707709
0.00710612
0.00738121
0.0077043
0.00825252
0.00895205
0.00962467
0.00982497
0.00988983
0.00974866
0.00942216
0.0088396
0.00802174
0.00707994
0.00564667
0.00348319
0.00115354
0.000251732
0.0108647
0.0113038
0.0118082
0.012466
0.0134232
0.0144089
0.0148886
0.0150388
0.0140099
0.013413
0.0123231
0.0115341
0.0103123
0.00918024
0.00784732
0.0064503
0.00446198
0.00225632
0.000648252
9.13238e-05
0.025277
0.0257557
0.0259578
0.0259564
0.0252621
0.0238991
0.0222425
0.0199715
0.0182315
0.0162855
0.0144858
0.0126754
0.0107395
0.00894932
0.00709259
0.00504528
0.00298064
0.0013342
0.000398944
4.22236e-05
0.0411904
0.0394094
0.0374395
0.0346471
0.0321097
0.0285224
0.0258939
0.0227244
0.0203374
0.0174574
0.0151993
0.0124673
0.0101362
0.00735648
0.00517545
0.00316692
0.00192869
0.000934228
0.000378666
7.1232e-05
0.0379924
0.0364549
0.0348628
0.0323853
0.0302239
0.0269201
0.0245035
0.0216001
0.0194363
0.0167826
0.0147903
0.0122
0.0102442
0.0074603
0.0054191
0.00314726
0.00185238
0.000793218
0.000289549
5.85509e-05
0.0200604
0.0209866
0.0215004
0.0217554
0.0218394
0.021126
0.0199214
0.0180583
0.0167577
0.0149681
0.0137701
0.0119466
0.0106115
0.00879173
0.00721264
0.00516713
0.00296084
0.00117126
0.000295097
3.90819e-05
0.0094659
0.00966368
0.0100704
0.0105361
0.011327
0.0122409
0.0130307
0.0133417
0.0131628
0.0122393
0.0117918
0.0108625
0.0100325
0.00897853
0.00781979
0.00648945
0.00456155
0.00224452
0.00056989
4.89535e-05
0.00684662
0.00666481
0.00660985
0.00658331
0.00675402
0.00699401
0.00742079
0.00801308
0.00879193
0.00916247
0.00933949
0.0094071
0.00914805
0.00870792
0.00794826
0.00707177
0.00567493
0.00353344
0.00107654
0.00013008
0.00610435
0.00576861
0.00563711
0.00543485
0.00538469
0.00537071
0.00545191
0.00562555
0.00598577
0.00643982
0.00712843
0.00772676
0.00801438
0.00809308
0.00792595
0.0073107
0.00639046
0.00465292
0.00191693
0.00043844
0.00578489
0.00538216
0.00525259
0.0049684
0.00485175
0.00476911
0.00474312
0.00475481
0.00485395
0.00509604
0.00547482
0.00624447
0.00702763
0.00738778
0.00749109
0.00738735
0.00679513
0.00545664
0.00300873
0.000937775
0.00568011
0.00502002
0.00494826
0.00474251
0.00458542
0.00447313
0.00440724
0.0043776
0.00436901
0.00445217
0.00466662
0.00506552
0.00588316
0.00677737
0.00715309
0.00722394
0.00698939
0.00607168
0.00386038
0.00151428
0.00618002
0.00473012
0.00453119
0.00446366
0.00432354
0.00421906
0.00415374
0.0041269
0.00411889
0.00412747
0.00424243
0.00449716
0.00495642
0.00585631
0.00674242
0.00703795
0.00704415
0.00651543
0.00464036
0.00215898
0.00780375
0.00465331
0.00425613
0.00414755
0.00411482
0.00402155
0.00393552
0.00389784
0.00388562
0.00388732
0.00393623
0.00410919
0.00449914
0.00507832
0.0061356
0.0068457
0.00700232
0.00678711
0.00525858
0.002818
0.00947298
0.00465274
0.00399497
0.00386818
0.00383822
0.00385173
0.00379683
0.00375401
0.00373925
0.00373624
0.00375828
0.00382545
0.00407885
0.0046402
0.00541909
0.00652159
0.00691885
0.00692013
0.00582793
0.00345056
0.00397117
0.00375019
0.00374679
0.0037468
0.00374652
0.00374628
0.00374612
0.00374604
0.003746
0.00374598
0.00374598
0.003746
0.00374604
0.00374612
0.00374628
0.00374652
0.0037468
0.00374679
0.00375019
0.00397117
0.00441489
0.00375346
0.00374141
0.00374096
0.00374056
0.00374012
0.00373987
0.00373975
0.00373969
0.00373966
0.00373966
0.00373969
0.00373975
0.00373987
0.00374012
0.00374056
0.00374096
0.00374141
0.00375346
0.00441489
0.0048594
0.00376059
0.00373287
0.00373264
0.00373284
0.00373273
0.00373256
0.00373242
0.00373235
0.00373231
0.00373231
0.00373235
0.00373242
0.00373256
0.00373273
0.00373284
0.00373264
0.00373287
0.00376059
0.0048594
0.00530178
0.00377206
0.0037243
0.00372396
0.00372492
0.00372524
0.00372525
0.00372519
0.00372514
0.00372512
0.00372512
0.00372514
0.00372519
0.00372525
0.00372524
0.00372492
0.00372396
0.0037243
0.00377206
0.00530178
0.00573924
0.00378544
0.00371551
0.00371483
0.00371665
0.00371758
0.00371789
0.00371795
0.00371795
0.00371795
0.00371795
0.00371795
0.00371795
0.00371789
0.00371758
0.00371665
0.00371483
0.00371551
0.00378544
0.00573925
0.00617059
0.00379767
0.00370577
0.0037051
0.003708
0.00370969
0.00371043
0.0037107
0.00371078
0.0037108
0.0037108
0.00371078
0.0037107
0.00371043
0.00370969
0.003708
0.0037051
0.00370577
0.00379767
0.00617059
0.00659185
0.00380847
0.00369498
0.00369474
0.00369894
0.00370155
0.00370284
0.0037034
0.00370361
0.00370368
0.00370368
0.00370361
0.0037034
0.00370284
0.00370155
0.00369894
0.00369474
0.00369498
0.00380847
0.00659185
0.00700084
0.00381671
0.00368272
0.00368362
0.00368941
0.00369311
0.00369508
0.00369602
0.00369642
0.00369656
0.00369656
0.00369642
0.00369602
0.00369508
0.00369311
0.00368941
0.00368362
0.00368272
0.00381671
0.00700084
0.00739335
0.00382334
0.00366915
0.00367174
0.00367942
0.00368437
0.00368714
0.00368854
0.00368919
0.00368943
0.00368943
0.00368919
0.00368854
0.00368714
0.00368437
0.00367942
0.00367174
0.00366915
0.00382334
0.00739336
0.00776769
0.00382735
0.00365405
0.00365903
0.00366893
0.00367532
0.00367898
0.00368095
0.0036819
0.00368228
0.00368228
0.0036819
0.00368095
0.00367898
0.00367532
0.00366893
0.00365903
0.00365405
0.00382735
0.00776769
0.00812024
0.00383021
0.00363764
0.00364552
0.00365794
0.00366592
0.00367061
0.00367321
0.00367453
0.00367507
0.00367507
0.00367453
0.00367321
0.00367061
0.00366592
0.00365794
0.00364552
0.00363764
0.00383021
0.00812024
0.00845034
0.00383068
0.00361989
0.00363122
0.00364645
0.0036562
0.00366201
0.00366531
0.00366705
0.00366779
0.00366779
0.00366705
0.00366531
0.00366201
0.0036562
0.00364645
0.00363122
0.00361989
0.00383069
0.00845034
0.00875524
0.00383018
0.0036009
0.00361613
0.00363446
0.00364613
0.00365316
0.00365725
0.00365946
0.00366041
0.00366041
0.00365946
0.00365725
0.00365316
0.00364613
0.00363446
0.00361613
0.0036009
0.00383019
0.00875524
0.00903545
0.00382886
0.00358085
0.00360032
0.00362199
0.00363573
0.00364408
0.00364901
0.00365173
0.00365292
0.00365292
0.00365173
0.00364901
0.00364408
0.00363573
0.00362199
0.00360032
0.00358085
0.00382887
0.00903544
0.00928895
0.00382648
0.00355981
0.0035838
0.00360904
0.003625
0.00363475
0.00364059
0.00364385
0.00364531
0.00364531
0.00364385
0.00364059
0.00363475
0.00362499
0.00360904
0.00358379
0.00355981
0.00382647
0.00928894
0.00951739
0.00382339
0.00353793
0.00356664
0.00359565
0.00361394
0.00362518
0.00363197
0.00363582
0.00363755
0.00363755
0.00363582
0.00363197
0.00362518
0.00361394
0.00359565
0.00356664
0.00353794
0.0038234
0.00951738
0.00971929
0.00382011
0.00351532
0.00354885
0.00358181
0.00360255
0.00361535
0.00362316
0.00362762
0.00362964
0.00362964
0.00362762
0.00362316
0.00361535
0.00360255
0.00358181
0.00354885
0.00351531
0.00382011
0.00971928
0.00989731
0.00381662
0.00349215
0.00353054
0.00356757
0.00359087
0.00360529
0.00361414
0.00361924
0.00362157
0.00362157
0.00361924
0.00361414
0.00360529
0.00359087
0.00356758
0.00353055
0.00349217
0.00381663
0.0098973
0.0100502
0.00381347
0.0034685
0.00351171
0.00355293
0.00357888
0.00359499
0.00360492
0.00361068
0.00361332
0.00361332
0.00361068
0.00360492
0.00359499
0.00357887
0.00355293
0.0035117
0.00346849
0.00381347
0.0100502
0.0101815
0.00381057
0.00344461
0.00349247
0.00353795
0.0035666
0.00358445
0.0035955
0.00360193
0.0036049
0.0036049
0.00360193
0.0035955
0.00358445
0.0035666
0.00353795
0.00349248
0.00344464
0.00381058
0.0101815
0.0102898
0.00380853
0.00342047
0.0034728
0.0035226
0.00355404
0.00357367
0.00358587
0.003593
0.0035963
0.0035963
0.003593
0.00358586
0.00357367
0.00355404
0.0035226
0.00347279
0.00342045
0.00380853
0.0102897
0.0103794
0.00380713
0.00339643
0.00345287
0.00350697
0.00354123
0.00356267
0.00357603
0.00358387
0.00358751
0.00358751
0.00358387
0.00357603
0.00356267
0.00354123
0.00350698
0.00345288
0.00339645
0.00380714
0.0103794
0.0104486
0.00380736
0.0033723
0.00343259
0.00349103
0.00352816
0.00355145
0.003566
0.00357455
0.00357853
0.00357853
0.00357455
0.003566
0.00355145
0.00352816