/*--------------------------------*- C++ -*----------------------------------*\
| =========                 |                                                 |
| \\      /  F ield         | OpenFOAM: The Open Source CFD Toolbox           |
|  \\    /   O peration     | Version:  2.1.0                                 |
|   \\  /    A nd           | Web:      www.OpenFOAM.org                      |
|    \\/     M anipulation  |                                                 |
\*---------------------------------------------------------------------------*/
FoamFile
{
    version     2.0;
    format      ascii;
    class       volScalarField;
    location    "0.37";
    object      nut;
}
// * * * * * * * * * * * * * * * * * * * * * * * * * * * * * * * * * * * * * //

dimensions      [0 2 -1 0 0 0 0];

internalField   nonuniform List<scalar> 
6400
(
7.10483e-06
7.12343e-06
7.13476e-06
7.15048e-06
7.16382e-06
7.18117e-06
7.19542e-06
7.21378e-06
7.22869e-06
7.24778e-06
7.26347e-06
7.28294e-06
7.29956e-06
7.3193e-06
7.33692e-06
7.35692e-06
7.37556e-06
7.39593e-06
7.4156e-06
7.43649e-06
7.45724e-06
7.47883e-06
7.50073e-06
7.52322e-06
7.54632e-06
7.56986e-06
7.59421e-06
7.61892e-06
7.64456e-06
7.67057e-06
7.69756e-06
7.72495e-06
7.75337e-06
7.78225e-06
7.81216e-06
7.8426e-06
7.87409e-06
7.90615e-06
7.93923e-06
7.97283e-06
8.00731e-06
8.04228e-06
8.07798e-06
8.11406e-06
8.15068e-06
8.18753e-06
8.22472e-06
8.26196e-06
8.29933e-06
8.33657e-06
8.37371e-06
8.41046e-06
8.44656e-06
8.48088e-06
8.51339e-06
8.54259e-06
8.57434e-06
8.6034e-06
8.63428e-06
8.66329e-06
8.69358e-06
8.72316e-06
8.75337e-06
8.78345e-06
8.8135e-06
8.84365e-06
8.87352e-06
8.90343e-06
8.93177e-06
8.95944e-06
8.98559e-06
9.01034e-06
9.03325e-06
9.05456e-06
9.07411e-06
9.09259e-06
9.1104e-06
9.12898e-06
9.1497e-06
9.175e-06
9.20721e-06
9.24888e-06
9.29998e-06
9.35269e-06
9.40368e-06
9.46923e-06
9.5387e-06
9.60412e-06
9.64248e-06
9.6098e-06
9.41968e-06
8.90503e-06
7.82471e-06
5.98073e-06
3.48004e-06
2.31756e-06
2.40612e-06
3.78083e-06
3.87653e-06
4.18259e-06
7.55674e-05
7.60142e-05
7.60955e-05
7.63842e-05
7.64779e-05
7.6717e-05
7.6831e-05
7.70371e-05
7.71679e-05
7.73509e-05
7.74924e-05
7.76585e-05
7.78049e-05
7.79578e-05
7.81041e-05
7.82457e-05
7.83881e-05
7.85194e-05
7.86549e-05
7.87765e-05
7.89035e-05
7.9016e-05
7.91339e-05
7.9238e-05
7.93478e-05
7.94451e-05
7.95461e-05
7.96359e-05
7.97273e-05
7.98084e-05
7.98892e-05
7.996e-05
8.00286e-05
8.00872e-05
8.01416e-05
8.01856e-05
8.02233e-05
8.02495e-05
8.02709e-05
8.02815e-05
8.0282e-05
8.02697e-05
8.02443e-05
8.02031e-05
8.0145e-05
8.00669e-05
7.99673e-05
7.98423e-05
7.96903e-05
7.95078e-05
7.92934e-05
7.90454e-05
7.87745e-05
7.84629e-05
7.81149e-05
7.74675e-05
7.67841e-05
7.60451e-05
7.5277e-05
7.44568e-05
7.3599e-05
7.27031e-05
7.17643e-05
7.07909e-05
6.9771e-05
6.87112e-05
6.76032e-05
6.64592e-05
6.52597e-05
6.4004e-05
6.2691e-05
6.13166e-05
5.9877e-05
5.83702e-05
5.67924e-05
5.51435e-05
5.34217e-05
5.1629e-05
4.97665e-05
4.78391e-05
4.58518e-05
4.38137e-05
4.17351e-05
3.96177e-05
3.74385e-05
3.51739e-05
3.28222e-05
3.03669e-05
2.77991e-05
2.51165e-05
2.23362e-05
1.94949e-05
1.66716e-05
1.40091e-05
1.15001e-05
9.23476e-06
7.49386e-06
6.28889e-06
5.67818e-06
6.86603e-06
0.000115337
0.000115569
0.00011566
0.00011575
0.000115827
0.000115879
0.000115946
0.00011597
0.000116025
0.000116026
0.000116064
0.000116044
0.000116061
0.00011602
0.000116012
0.000115946
0.000115908
0.000115816
0.000115744
0.000115622
0.000115513
0.000115359
0.000115214
0.000115026
0.000114844
0.000114631
0.000114417
0.000114175
0.000113929
0.000113656
0.000113375
0.000113068
0.000112751
0.000112408
0.000112052
0.00011167
0.000111272
0.00011085
0.000110399
0.000109925
0.000109423
0.000108893
0.000108333
0.000107739
0.000107111
0.000106445
0.000105739
0.000104986
0.000104184
0.000103323
0.000102403
0.000101049
9.95637e-05
9.80331e-05
9.64672e-05
9.48722e-05
9.32442e-05
9.15827e-05
8.98939e-05
8.81718e-05
8.6429e-05
8.46661e-05
8.28466e-05
8.10122e-05
7.91327e-05
7.7233e-05
7.52954e-05
7.33361e-05
7.13436e-05
6.9328e-05
6.72808e-05
6.52072e-05
6.31009e-05
6.09643e-05
5.87925e-05
5.65869e-05
5.43441e-05
5.20663e-05
4.97527e-05
4.74073e-05
4.50333e-05
4.26379e-05
4.02278e-05
3.7813e-05
3.5411e-05
3.3044e-05
3.0719e-05
2.8454e-05
2.62509e-05
2.41184e-05
2.20305e-05
2.00051e-05
1.80183e-05
1.59813e-05
1.39409e-05
1.19319e-05
1.01351e-05
8.62186e-06
8.12515e-06
1.13141e-05
0.00013696
0.000136637
0.000136513
0.000136215
0.000136092
0.00013577
0.000135621
0.000135283
0.000135098
0.000134743
0.000134518
0.000134146
0.000133879
0.000133485
0.000133175
0.000132756
0.000132401
0.000131953
0.000131551
0.000131069
0.000130618
0.000130091
0.000129577
0.000128992
0.000128015
0.000127
0.000125966
0.0001249
0.000123819
0.000122706
0.000121576
0.000120416
0.000119236
0.000118026
0.000116795
0.000115533
0.000114248
0.000112933
0.000111595
0.000110224
0.000108829
0.000107402
0.00010595
0.000104466
0.000102957
0.000101416
9.985e-05
9.82526e-05
9.66308e-05
9.49704e-05
9.32931e-05
9.16189e-05
8.98939e-05
8.81701e-05
8.64118e-05
8.46476e-05
8.28545e-05
8.1045e-05
7.92072e-05
7.73472e-05
7.5461e-05
7.35564e-05
7.16276e-05
6.9683e-05
6.77162e-05
6.57366e-05
6.37395e-05
6.17346e-05
5.97195e-05
5.77039e-05
5.56872e-05
5.36792e-05
5.16815e-05
4.97028e-05
4.77457e-05
4.58178e-05
4.39213e-05
4.2062e-05
4.02408e-05
3.84603e-05
3.67188e-05
3.50158e-05
3.33422e-05
3.16964e-05
3.00882e-05
2.84833e-05
2.68902e-05
2.52995e-05
2.37054e-05
2.21e-05
2.04799e-05
1.88402e-05
1.71722e-05
1.54542e-05
1.36932e-05
1.19729e-05
1.05078e-05
9.77368e-06
1.19114e-05
1.20608e-05
0.000138367
0.000138392
0.00013814
0.000137965
0.000137214
0.000136605
0.00013571
0.000134916
0.000133971
0.000133077
0.000132103
0.000131141
0.000130138
0.000129123
0.000128087
0.000127023
0.000125949
0.000124838
0.000123722
0.000122564
0.000121401
0.000120199
0.00011899
0.000117738
0.000116494
0.000115211
0.000113921
0.0001126
0.000111272
0.000109914
0.000108547
0.000107153
0.000105749
0.000104319
0.000102876
0.00010141
9.9925e-05
9.84186e-05
9.69111e-05
9.53769e-05
9.38264e-05
9.22578e-05
9.0676e-05
8.90762e-05
8.74657e-05
8.58387e-05
8.42037e-05
8.25549e-05
8.09012e-05
7.92379e-05
7.75738e-05
7.59035e-05
7.42307e-05
7.25526e-05
7.08699e-05
6.91884e-05
6.75076e-05
6.58318e-05
6.41605e-05
6.24976e-05
6.08442e-05
5.92041e-05
5.75784e-05
5.59702e-05
5.43798e-05
5.28103e-05
5.12614e-05
4.97355e-05
4.82315e-05
4.67509e-05
4.5287e-05
4.38471e-05
4.24368e-05
4.10291e-05
3.96513e-05
3.82768e-05
3.69216e-05
3.55658e-05
3.422e-05
3.28668e-05
3.15142e-05
3.01505e-05
2.8781e-05
2.74025e-05
2.60197e-05
2.46306e-05
2.32494e-05
2.1867e-05
2.05048e-05
1.91595e-05
1.78505e-05
1.65755e-05
1.53574e-05
1.41792e-05
1.3096e-05
1.22679e-05
1.2083e-05
1.37495e-05
1.37865e-05
1.41301e-05
0.000125027
0.000124357
0.000123961
0.000123415
0.000122519
0.000121623
0.000120566
0.000119522
0.000118405
0.000117288
0.000116143
0.000114982
0.000113817
0.000112625
0.00011144
0.000110224
0.000109021
0.000107783
0.000106563
0.00010531
0.000104057
0.000102795
0.000101545
0.000100252
9.8979e-05
9.76682e-05
9.63686e-05
9.50414e-05
9.37205e-05
9.23752e-05
9.10333e-05
8.96703e-05
8.83089e-05
8.69296e-05
8.55512e-05
8.41583e-05
8.27666e-05
8.13649e-05
7.9965e-05
7.85571e-05
7.71536e-05
7.57461e-05
7.43444e-05
7.2942e-05
7.15479e-05
7.01558e-05
6.87744e-05
6.73973e-05
6.60329e-05
6.46747e-05
6.33299e-05
6.19912e-05
6.06673e-05
5.93511e-05
5.80491e-05
5.67574e-05
5.54801e-05
5.42176e-05
5.29706e-05
5.17319e-05
5.05095e-05
4.92956e-05
4.80952e-05
4.6902e-05
4.5719e-05
4.45421e-05
4.33728e-05
4.22087e-05
4.10507e-05
3.98972e-05
3.87492e-05
3.76088e-05
3.64755e-05
3.53493e-05
3.42305e-05
3.31185e-05
3.20176e-05
3.09253e-05
2.98528e-05
2.87908e-05
2.77495e-05
2.67233e-05
2.57206e-05
2.47362e-05
2.3778e-05
2.28395e-05
2.19241e-05
2.1031e-05
2.01754e-05
1.93546e-05
1.85881e-05
1.78804e-05
1.72629e-05
1.67688e-05
1.6529e-05
1.6635e-05
1.60615e-05
1.58179e-05
1.57929e-05
1.32076e-05
0.000109562
0.000108362
0.000107834
0.000106972
0.00010607
0.000104999
0.000103954
0.000102804
0.000101705
0.000100527
9.94055e-05
9.82187e-05
9.7088e-05
9.58998e-05
9.47647e-05
9.35789e-05
9.24431e-05
9.12632e-05
9.01298e-05
8.89609e-05
8.78333e-05
8.66705e-05
8.55463e-05
8.43945e-05
8.32743e-05
8.21313e-05
8.10194e-05
7.98882e-05
7.87846e-05
7.76652e-05
7.65699e-05
7.54624e-05
7.43758e-05
7.32801e-05
7.22026e-05
7.11185e-05
7.00501e-05
6.89771e-05
6.7917e-05
6.68503e-05
6.58015e-05
6.47527e-05
6.37111e-05
6.26726e-05
6.1642e-05
6.06135e-05
5.95931e-05
5.85742e-05
5.75639e-05
5.6555e-05
5.55547e-05
5.45562e-05
5.35681e-05
5.25835e-05
5.16131e-05
5.0641e-05
4.96814e-05
4.87246e-05
4.77807e-05
4.684e-05
4.59147e-05
4.49973e-05
4.40987e-05
4.32097e-05
4.23389e-05
4.14816e-05
4.06501e-05
3.98337e-05
3.9044e-05
3.82724e-05
3.75287e-05
3.68023e-05
3.61012e-05
3.54182e-05
3.47588e-05
3.41163e-05
3.34939e-05
3.28832e-05
3.2259e-05
3.12903e-05
3.03425e-05
2.9397e-05
2.84729e-05
2.75527e-05
2.66547e-05
2.57624e-05
2.48941e-05
2.40346e-05
2.32043e-05
2.23902e-05
2.16156e-05
2.08713e-05
2.01805e-05
1.95452e-05
1.90027e-05
1.86007e-05
1.83396e-05
1.82376e-05
1.89318e-05
1.49385e-05
9.91567e-05
9.73748e-05
9.68354e-05
9.57577e-05
9.4933e-05
9.37707e-05
9.28419e-05
9.16795e-05
9.07213e-05
8.95902e-05
8.86333e-05
8.75409e-05
8.65955e-05
8.55402e-05
8.46086e-05
8.35857e-05
8.26667e-05
8.16699e-05
8.07603e-05
7.97814e-05
7.86959e-05
7.74016e-05
7.62075e-05
7.49548e-05
7.37656e-05
7.25543e-05
7.14035e-05
7.02274e-05
6.91203e-05
6.79889e-05
6.69312e-05
6.5852e-05
6.48492e-05
6.38267e-05
6.28809e-05
6.19186e-05
6.10329e-05
6.0134e-05
5.93101e-05
5.84761e-05
5.77124e-05
5.69389e-05
5.62315e-05
5.55149e-05
5.48607e-05
5.41978e-05
5.35924e-05
5.29785e-05
5.24171e-05
5.18462e-05
5.13222e-05
5.07899e-05
5.0294e-05
4.97872e-05
4.93151e-05
4.88296e-05
4.83727e-05
4.7899e-05
4.74464e-05
4.69734e-05
4.65166e-05
4.60365e-05
4.5565e-05
4.50647e-05
4.45833e-05
4.40844e-05
4.35746e-05
4.30655e-05
4.25512e-05
4.20345e-05
4.15145e-05
4.09905e-05
4.04644e-05
3.99331e-05
3.94001e-05
3.88611e-05
3.83205e-05
3.77726e-05
3.72238e-05
3.66639e-05
3.6099e-05
3.55153e-05
3.49217e-05
3.43043e-05
3.36709e-05
3.30081e-05
3.23228e-05
3.16036e-05
3.08591e-05
3.00828e-05
2.92894e-05
2.84826e-05
2.76891e-05
2.69289e-05
2.62997e-05
2.58325e-05
2.54535e-05
2.56135e-05
2.6145e-05
2.05187e-05
8.20686e-05
8.00116e-05
7.91791e-05
7.76341e-05
7.67755e-05
7.53404e-05
7.44609e-05
7.31113e-05
7.22382e-05
7.09567e-05
7.01108e-05
6.8891e-05
6.80744e-05
6.69192e-05
6.61354e-05
6.50467e-05
6.42999e-05
6.32794e-05
6.25738e-05
6.16234e-05
6.09631e-05
6.00893e-05
5.94836e-05
5.86904e-05
5.814e-05
5.74282e-05
5.69342e-05
5.62997e-05
5.58628e-05
5.5301e-05
5.49187e-05
5.44257e-05
5.40937e-05
5.36662e-05
5.33813e-05
5.30145e-05
5.27704e-05
5.24582e-05
5.22495e-05
5.19847e-05
5.18055e-05
5.15793e-05
5.14248e-05
5.12296e-05
5.10949e-05
5.09237e-05
5.07976e-05
5.064e-05
5.05412e-05
5.04132e-05
5.02987e-05
5.01596e-05
5.00648e-05
4.99444e-05
4.98604e-05
4.97526e-05
4.96786e-05
4.95838e-05
4.95233e-05
4.94451e-05
4.93991e-05
4.93385e-05
4.93074e-05
4.92642e-05
4.92483e-05
4.92224e-05
4.92239e-05
4.92173e-05
4.92339e-05
4.92455e-05
4.92776e-05
4.93065e-05
4.9353e-05
4.93978e-05
4.94574e-05
4.95158e-05
4.95859e-05
4.9654e-05
4.97298e-05
4.98017e-05
4.9876e-05
4.99414e-05
5.00015e-05
5.00449e-05
5.00721e-05
5.0071e-05
5.00388e-05
4.99624e-05
4.98382e-05
4.96545e-05
4.94097e-05
4.90991e-05
4.87302e-05
4.83126e-05
4.78753e-05
4.74951e-05
4.73671e-05
4.74725e-05
4.80159e-05
3.97904e-05
7.39502e-05
7.20902e-05
7.13461e-05
6.995e-05
6.9252e-05
6.79367e-05
6.72801e-05
6.60523e-05
6.54374e-05
6.42992e-05
6.37283e-05
6.26788e-05
6.21542e-05
6.11927e-05
6.07157e-05
5.98404e-05
5.94115e-05
5.862e-05
5.82392e-05
5.75283e-05
5.71947e-05
5.65607e-05
5.62723e-05
5.57104e-05
5.54637e-05
5.49689e-05
5.47602e-05
5.43272e-05
5.41526e-05
5.37858e-05
5.36246e-05
5.33203e-05
5.31708e-05
5.29372e-05
5.27997e-05
5.26248e-05
5.24928e-05
5.23579e-05
5.22371e-05
5.21386e-05
5.20519e-05
5.19727e-05
5.19149e-05
5.18581e-05
5.18278e-05
5.17939e-05
5.17889e-05
5.17787e-05
5.17983e-05
5.18109e-05
5.18529e-05
5.18897e-05
5.19575e-05
5.20206e-05
5.2114e-05
5.2204e-05
5.23236e-05
5.24409e-05
5.25867e-05
5.27311e-05
5.29035e-05
5.30759e-05
5.32759e-05
5.3478e-05
5.37071e-05
5.394e-05
5.41991e-05
5.44635e-05
5.47539e-05
5.50513e-05
5.53741e-05
5.57061e-05
5.60636e-05
5.64326e-05
5.68272e-05
5.72361e-05
5.76713e-05
5.81236e-05
5.86033e-05
5.91036e-05
5.96332e-05
6.01872e-05
6.07733e-05
6.13884e-05
6.20396e-05
6.27257e-05
6.34536e-05
6.42252e-05
6.50475e-05
6.59241e-05
6.68633e-05
6.78706e-05
6.8955e-05
7.01238e-05
7.13837e-05
7.27281e-05
7.41386e-05
7.56029e-05
7.63258e-05
6.62117e-05
8.00969e-05
7.8049e-05
7.72355e-05
7.56765e-05
7.48844e-05
7.34156e-05
7.26473e-05
7.12731e-05
7.05334e-05
6.92568e-05
6.85512e-05
6.73739e-05
6.67057e-05
6.56289e-05
6.50071e-05
6.40248e-05
6.34547e-05
6.25631e-05
6.20474e-05
6.12428e-05
6.0782e-05
6.00603e-05
5.96533e-05
5.90097e-05
5.8654e-05
5.80831e-05
5.77755e-05
5.72719e-05
5.7008e-05
5.65655e-05
5.63397e-05
5.59535e-05
5.576e-05
5.54248e-05
5.52574e-05
5.49675e-05
5.48205e-05
5.45707e-05
5.44303e-05
5.42236e-05
5.41083e-05
5.39398e-05
5.38212e-05
5.36707e-05
5.35743e-05
5.34569e-05
5.33817e-05
5.32881e-05
5.32339e-05
5.31644e-05
5.31314e-05
5.30866e-05
5.30753e-05
5.30562e-05
5.30673e-05
5.30723e-05
5.31087e-05
5.31409e-05
5.32032e-05
5.32628e-05
5.33499e-05
5.34373e-05
5.35513e-05
5.36671e-05
5.38091e-05
5.39542e-05
5.41247e-05
5.42998e-05
5.44991e-05
5.47047e-05
5.4933e-05
5.51693e-05
5.54278e-05
5.5696e-05
5.59856e-05
5.62869e-05
5.66101e-05
5.69473e-05
5.73071e-05
5.76835e-05
5.80841e-05
5.85043e-05
5.89509e-05
5.94208e-05
5.992e-05
6.04471e-05
6.10073e-05
6.16e-05
6.22296e-05
6.28969e-05
6.36069e-05
6.43728e-05
6.52006e-05
6.61049e-05
6.71025e-05
6.82161e-05
6.9487e-05
7.08912e-05
7.19358e-05
6.30654e-05
9.92983e-05
9.70524e-05
9.6127e-05
9.43878e-05
9.33953e-05
9.1746e-05
9.06958e-05
8.91248e-05
8.80311e-05
8.65324e-05
8.54096e-05
8.39915e-05
8.28433e-05
8.14654e-05
8.03519e-05
7.90206e-05
7.79365e-05
7.6659e-05
7.56107e-05
7.43922e-05
7.3386e-05
7.22308e-05
7.12722e-05
7.01837e-05
6.92775e-05
6.82581e-05
6.74061e-05
6.64582e-05
6.56654e-05
6.47888e-05
6.40563e-05
6.32508e-05
6.25791e-05
6.18434e-05
6.12318e-05
6.0562e-05
6.00064e-05
5.93994e-05
5.88966e-05
5.83484e-05
5.78936e-05
5.73995e-05
5.69837e-05
5.65344e-05
5.61515e-05
5.57407e-05
5.53854e-05
5.50052e-05
5.46706e-05
5.43135e-05
5.39938e-05
5.36534e-05
5.3334e-05
5.30028e-05
5.27141e-05
5.23885e-05
5.21023e-05
5.1792e-05
5.15142e-05
5.12313e-05
5.09591e-05
5.06651e-05
5.04119e-05
5.01374e-05
4.98938e-05
4.96343e-05
4.93991e-05
4.91549e-05
4.8931e-05
4.86978e-05
4.8478e-05
4.8249e-05
4.80288e-05
4.77975e-05
4.75691e-05
4.73272e-05
4.70827e-05
4.68218e-05
4.65528e-05
4.62643e-05
4.59648e-05
4.56445e-05
4.53092e-05
4.49514e-05
4.45755e-05
4.41767e-05
4.37588e-05
4.33204e-05
4.28651e-05
4.23954e-05
4.19173e-05
4.14212e-05
4.09252e-05
4.04581e-05
4.00498e-05
3.97645e-05
3.96947e-05
3.99661e-05
4.06121e-05
3.43321e-05
0.000106643
0.000105091
0.000104422
0.000103284
0.000102358
0.000101119
0.000100078
9.88228e-05
9.77399e-05
9.6502e-05
9.54093e-05
9.42006e-05
9.31134e-05
9.1934e-05
9.08593e-05
8.97087e-05
8.86475e-05
8.75242e-05
8.64778e-05
8.53806e-05
8.43495e-05
8.32763e-05
8.22604e-05
8.12094e-05
8.0208e-05
7.91731e-05
7.81895e-05
7.71791e-05
7.62069e-05
7.52136e-05
7.42555e-05
7.32816e-05
7.23388e-05
7.13838e-05
7.04566e-05
6.95221e-05
6.86134e-05
6.76817e-05
6.67714e-05
6.58468e-05
6.4942e-05
6.40298e-05
6.31369e-05
6.22431e-05
6.13691e-05
6.04984e-05
5.9652e-05
5.88116e-05
5.79992e-05
5.71947e-05
5.64188e-05
5.56544e-05
5.4919e-05
5.41967e-05
5.35026e-05
5.28229e-05
5.21774e-05
5.15444e-05
5.07883e-05
5.00334e-05
4.92859e-05
4.85362e-05
4.7791e-05
4.70346e-05
4.62788e-05
4.55085e-05
4.47383e-05
4.39485e-05
4.31479e-05
4.23415e-05
4.15478e-05
4.07304e-05
3.99229e-05
3.91005e-05
3.82879e-05
3.74642e-05
3.66502e-05
3.5829e-05
3.50183e-05
3.42047e-05
3.33974e-05
3.25884e-05
3.17887e-05
3.09923e-05
3.02093e-05
2.94352e-05
2.86737e-05
2.79249e-05
2.71949e-05
2.64885e-05
2.5812e-05
2.51767e-05
2.45896e-05
2.4064e-05
2.36854e-05
2.33763e-05
2.33535e-05
2.36282e-05
2.43741e-05
1.89124e-05
0.000120858
0.000119706
0.000119163
0.000118261
0.000117271
0.000116125
0.00011498
0.000113725
0.000112508
0.000111208
0.000109951
0.000108629
0.000107358
0.000106028
0.000104747
0.000103411
0.000102119
0.000100778
9.94751e-05
9.81299e-05
9.68177e-05
9.54689e-05
9.41494e-05
9.28005e-05
9.14756e-05
9.01267e-05
8.87998e-05
8.74539e-05
8.61262e-05
8.47835e-05
8.3458e-05
8.21222e-05
8.0802e-05
7.94748e-05
7.81629e-05
7.68474e-05
7.55477e-05
7.42505e-05
7.29686e-05
7.16904e-05
7.04265e-05
6.91669e-05
6.7918e-05
6.66748e-05
6.54533e-05
6.42235e-05
6.3016e-05
6.18046e-05
6.0611e-05
5.94179e-05
5.82405e-05
5.70658e-05
5.59048e-05
5.47483e-05
5.36049e-05
5.24673e-05
5.13436e-05
5.02299e-05
4.91321e-05
4.80466e-05
4.69785e-05
4.5915e-05
4.48664e-05
4.38282e-05
4.28085e-05
4.18028e-05
4.08162e-05
3.98541e-05
3.89161e-05
3.80027e-05
3.71152e-05
3.62551e-05
3.54229e-05
3.46202e-05
3.38401e-05
3.30879e-05
3.23586e-05
3.16554e-05
3.09739e-05
3.03153e-05
2.9671e-05
2.90472e-05
2.84351e-05
2.78399e-05
2.68372e-05
2.58635e-05
2.49049e-05
2.39992e-05
2.31132e-05
2.22845e-05
2.14823e-05
2.07458e-05
2.00417e-05
1.94191e-05
1.88152e-05
1.84075e-05
1.81779e-05
1.79899e-05
1.87238e-05
1.44603e-05
0.000137475
0.000136835
0.000136415
0.000135823
0.000134832
0.000133834
0.000132658
0.000131487
0.000130241
0.000128986
0.000127704
0.0001264
0.000125092
0.000123752
0.000122418
0.000121046
0.000119686
0.000118286
0.0001169
0.000115475
0.000114062
0.000112614
0.000111165
0.000109701
0.000108243
0.00010676
0.00010528
0.000103783
0.000102289
0.000100783
9.92753e-05
9.77496e-05
9.62212e-05
9.46749e-05
9.31258e-05
9.15608e-05
8.99934e-05
8.84226e-05
8.68519e-05
8.52783e-05
8.37057e-05
8.21293e-05
8.05567e-05
7.89824e-05
7.7414e-05
7.58466e-05
7.42875e-05
7.27331e-05
7.11892e-05
6.96538e-05
6.81314e-05
6.66207e-05
6.51251e-05
6.36438e-05
6.21783e-05
6.0728e-05
5.92945e-05
5.7876e-05
5.64722e-05
5.50898e-05
5.37225e-05
5.23746e-05
5.10465e-05
4.97354e-05
4.8442e-05
4.71626e-05
4.58972e-05
4.46429e-05
4.33995e-05
4.21644e-05
4.09378e-05
3.97179e-05
3.85047e-05
3.72975e-05
3.61023e-05
3.49144e-05
3.37366e-05
3.25656e-05
3.14036e-05
3.0253e-05
2.91127e-05
2.79901e-05
2.68808e-05
2.57944e-05
2.47225e-05
2.36738e-05
2.26425e-05
2.16365e-05
2.06493e-05
1.96887e-05
1.8766e-05
1.78818e-05
1.70577e-05
1.63869e-05
1.59511e-05
1.61205e-05
1.60763e-05
1.58671e-05
1.58836e-05
1.31664e-05
0.000149086
0.000149221
0.00014894
0.00014873
0.000147907
0.00014721
0.00014622
0.000145323
0.000144276
0.000143275
0.000142197
0.000141128
0.000140021
0.000138899
0.000137759
0.000136591
0.000135415
0.000134203
0.000132988
0.000131735
0.000130478
0.000129183
0.000127883
0.000126548
0.000125205
0.000123826
0.000122438
0.000121018
0.000119586
0.000118137
0.000116675
0.000115185
0.000113687
0.000112163
0.00011063
0.000109072
0.000107504
0.000105915
0.000104307
0.00010268
0.000101054
9.93989e-05
9.77299e-05
9.60415e-05
9.43391e-05
9.26184e-05
9.08839e-05
8.9133e-05
8.7369e-05
8.55912e-05
8.38024e-05
8.20034e-05
8.01969e-05
7.83862e-05
7.65716e-05
7.47555e-05
7.2941e-05
7.11232e-05
6.93079e-05
6.74931e-05
6.56858e-05
6.38873e-05
6.2103e-05
6.03329e-05
5.85826e-05
5.68522e-05
5.51455e-05
5.34636e-05
5.18084e-05
5.01813e-05
4.85824e-05
4.70127e-05
4.54704e-05
4.395e-05
4.2457e-05
4.09991e-05
3.95409e-05
3.81195e-05
3.66959e-05
3.52939e-05
3.38835e-05
3.24802e-05
3.10607e-05
2.96367e-05
2.8189e-05
2.67291e-05
2.52504e-05
2.37568e-05
2.22566e-05
2.0747e-05
1.92443e-05
1.7745e-05
1.62466e-05
1.48149e-05
1.3489e-05
1.24396e-05
1.20864e-05
1.36367e-05
1.385e-05
1.43374e-05
0.000142301
0.000141976
0.000141847
0.000141519
0.000141376
0.000141023
0.000140848
0.00014048
0.000140268
0.000139888
0.000139637
0.000139242
0.00013895
0.000138535
0.0001382
0.000137762
0.000137383
0.000136917
0.000136493
0.000135995
0.000135525
0.000134991
0.000134472
0.000133896
0.000133323
0.000132698
0.000132065
0.000131379
0.000130627
0.000129456
0.000128277
0.000127058
0.00012583
0.000124571
0.000123303
0.000122008
0.000120699
0.000119359
0.000117999
0.000116611
0.000115201
0.000113759
0.000112294
0.000110798
0.000109277
0.000107724
0.000106144
0.000104533
0.000102893
0.000101223
9.95238e-05
9.77948e-05
9.60283e-05
9.42371e-05
9.24372e-05
9.05936e-05
8.87413e-05
8.68541e-05
8.49528e-05
8.3024e-05
8.10798e-05
7.91111e-05
7.71248e-05
7.51126e-05
7.30759e-05
7.1018e-05
6.89367e-05
6.68392e-05
6.47214e-05
6.25935e-05
6.04521e-05
5.83091e-05
5.61633e-05
5.40276e-05
5.19019e-05
4.97999e-05
4.77214e-05
4.56791e-05
4.3672e-05
4.17099e-05
3.979e-05
3.79176e-05
3.60868e-05
3.42979e-05
3.25318e-05
3.07936e-05
2.90953e-05
2.73724e-05
2.56656e-05
2.39324e-05
2.21817e-05
2.03762e-05
1.85024e-05
1.65633e-05
1.46342e-05
1.27088e-05
1.10479e-05
1.00832e-05
1.19771e-05
1.21315e-05
0.000117386
0.000117615
0.000117703
0.000117779
0.000117848
0.000117886
0.000117944
0.000117956
0.000118001
0.000117991
0.000118019
0.000117989
0.000117995
0.000117946
0.000117932
0.000117863
0.000117824
0.000117734
0.000117667
0.000117554
0.000117456
0.000117317
0.000117186
0.000117016
0.000116848
0.000116644
0.000116436
0.000116195
0.000115947
0.000115672
0.000115395
0.000115092
0.000114785
0.000114451
0.00011411
0.000113744
0.000113367
0.00011297
0.000112552
0.000112112
0.000111648
0.000111158
0.000110642
0.000110094
0.000109516
0.000108903
0.000108263
0.00010759
0.00010689
0.000106155
0.000105377
0.000104555
0.000103681
0.000102751
0.000101753
0.00010037
9.87678e-05
9.711e-05
9.54121e-05
9.36671e-05
9.18855e-05
9.00643e-05
8.82166e-05
8.6337e-05
8.44351e-05
8.25114e-05
8.05209e-05
7.85133e-05
7.64527e-05
7.43686e-05
7.22405e-05
7.00873e-05
6.78879e-05
6.56609e-05
6.33863e-05
6.10779e-05
5.87187e-05
5.63188e-05
5.38658e-05
5.13685e-05
4.882e-05
4.6231e-05
4.36019e-05
4.09474e-05
3.82757e-05
3.56094e-05
3.29637e-05
3.03663e-05
2.78417e-05
2.54097e-05
2.30484e-05
2.07634e-05
1.85484e-05
1.63057e-05
1.41371e-05
1.21357e-05
1.03212e-05
8.92387e-06
8.38107e-06
1.15401e-05
7.51264e-05
7.5568e-05
7.56506e-05
7.59255e-05
7.60169e-05
7.62433e-05
7.6354e-05
7.65491e-05
7.66762e-05
7.68502e-05
7.69883e-05
7.71477e-05
7.72917e-05
7.74406e-05
7.75861e-05
7.77267e-05
7.78701e-05
7.80031e-05
7.81414e-05
7.82668e-05
7.83976e-05
7.85145e-05
7.86357e-05
7.87431e-05
7.88534e-05
7.89505e-05
7.90492e-05
7.91362e-05
7.92242e-05
7.93031e-05
7.93822e-05
7.94518e-05
7.95206e-05
7.95792e-05
7.96351e-05
7.96802e-05
7.97206e-05
7.97499e-05
7.97752e-05
7.97902e-05
7.9799e-05
7.97979e-05
7.97891e-05
7.97703e-05
7.97431e-05
7.97064e-05
7.96614e-05
7.96008e-05
7.95258e-05
7.9431e-05
7.93153e-05
7.91755e-05
7.90085e-05
7.8812e-05
7.85831e-05
7.83244e-05
7.80461e-05
7.77396e-05
7.74065e-05
7.70378e-05
7.66292e-05
7.61676e-05
7.54533e-05
7.45658e-05
7.36159e-05
7.26201e-05
7.15676e-05
7.0472e-05
6.93152e-05
6.8101e-05
6.68239e-05
6.54996e-05
6.40822e-05
6.25986e-05
6.10218e-05
5.93637e-05
5.76054e-05
5.57546e-05
5.37989e-05
5.17458e-05
4.95889e-05
4.73376e-05
4.49916e-05
4.25634e-05
4.00594e-05
3.74986e-05
3.48657e-05
3.21852e-05
2.9389e-05
2.65012e-05
2.35284e-05
2.0491e-05
1.75098e-05
1.46477e-05
1.19545e-05
9.59637e-06
7.77641e-06
6.54426e-06
5.87501e-06
6.77579e-06
6.98049e-06
6.9979e-06
7.01011e-06
7.02448e-06
7.0387e-06
7.05593e-06
7.07041e-06
7.0891e-06
7.10421e-06
7.12368e-06
7.1397e-06
7.15962e-06
7.17671e-06
7.19695e-06
7.21514e-06
7.23571e-06
7.25498e-06
7.27594e-06
7.29621e-06
7.31765e-06
7.33891e-06
7.36093e-06
7.38316e-06
7.40592e-06
7.42917e-06
7.45285e-06
7.47724e-06
7.50205e-06
7.52774e-06
7.55388e-06
7.58095e-06
7.60852e-06
7.63709e-06
7.6662e-06
7.69639e-06
7.72721e-06
7.75919e-06
7.79194e-06
7.82593e-06
7.86082e-06
7.89703e-06
7.93428e-06
7.97292e-06
8.01276e-06
8.05402e-06
8.09653e-06
8.14039e-06
8.18532e-06
8.23155e-06
8.27884e-06
8.3274e-06
8.37711e-06
8.42818e-06
8.48069e-06
8.53492e-06
8.59114e-06
8.64932e-06
8.70882e-06
8.76944e-06
8.83013e-06
8.89024e-06
8.94835e-06
9.00331e-06
9.05969e-06
9.11758e-06
9.17805e-06
9.24107e-06
9.3071e-06
9.3758e-06
9.44786e-06
9.52356e-06
9.60312e-06
9.68395e-06
9.76989e-06
9.85718e-06
9.9492e-06
1.00431e-05
1.01415e-05
1.02426e-05
1.0349e-05
1.04597e-05
1.05776e-05
1.07029e-05
1.08389e-05
1.09864e-05
1.11451e-05
1.12975e-05
1.14074e-05
1.14235e-05
1.12827e-05
1.08152e-05
9.78181e-06
8.05367e-06
5.92521e-06
3.62945e-06
2.64051e-06
2.55868e-06
3.91895e-06
4.01928e-06
4.33147e-06
1.09391e-05
2.07717e-06
2.60044e-06
3.51729e-06
4.54819e-06
5.62279e-06
6.48693e-06
7.33658e-06
8.15005e-06
8.90635e-06
9.62016e-06
1.03368e-05
1.14546e-05
1.3332e-05
1.54667e-05
1.78501e-05
1.75987e-05
1.55449e-05
1.02904e-05
3.99651e-06
5.8786e-06
2.186e-06
2.47501e-06
3.1841e-06
4.05603e-06
4.86354e-06
5.69295e-06
6.55209e-06
7.41551e-06
8.29895e-06
9.27355e-06
1.03701e-05
1.20225e-05
1.40942e-05
1.70474e-05
1.83215e-05
1.74932e-05
1.47104e-05
9.53525e-06
3.96834e-06
4.94533e-06
2.6952e-06
2.90097e-06
3.41646e-06
4.01074e-06
4.7172e-06
5.48146e-06
6.31606e-06
7.22182e-06
8.38862e-06
9.50825e-06
1.10174e-05
1.2934e-05
1.58286e-05
1.80216e-05
1.83031e-05
1.71523e-05
1.40077e-05
8.87512e-06
3.84288e-06
5.05606e-06
3.43938e-06
3.63809e-06
3.87581e-06
4.36881e-06
4.92941e-06
5.6741e-06
6.5823e-06
7.7148e-06
9.48661e-06
1.12135e-05
1.2947e-05
1.57306e-05
1.82118e-05
1.91913e-05
1.88161e-05
1.70285e-05
1.32393e-05
7.98117e-06
3.26393e-06
5.68861e-06
4.47726e-06
4.61707e-06
4.63445e-06
5.19478e-06
5.69358e-06
6.58619e-06
7.8434e-06
9.59913e-06
1.31025e-05
1.47698e-05
1.70802e-05
1.93425e-05
2.04283e-05
2.0431e-05
1.92152e-05
1.65427e-05
1.24972e-05
6.8908e-06
2.38419e-06
6.89561e-06
5.97756e-06
6.049e-06
6.02806e-06
6.77388e-06
7.76983e-06
9.35229e-06
1.16061e-05
1.61181e-05
1.95113e-05
2.09838e-05
2.23742e-05
2.3065e-05
2.28646e-05
2.16681e-05
1.91071e-05
1.59606e-05
1.15661e-05
5.16021e-06
1.47388e-06
9.04432e-06
8.62875e-06
8.86038e-06
9.46561e-06
1.11837e-05
1.36729e-05
1.70829e-05
2.20313e-05
2.87721e-05
2.94212e-05
2.91019e-05
2.83118e-05
2.69105e-05
2.47768e-05
2.16926e-05
1.85261e-05
1.4829e-05
1.01301e-05
3.8334e-06
7.19625e-07
1.46629e-05
1.61433e-05
1.73716e-05
1.96693e-05
2.32004e-05
2.75251e-05
3.30985e-05
4.00636e-05
3.99377e-05
3.77726e-05
3.42883e-05
3.16727e-05
2.81154e-05
2.49251e-05
2.08585e-05
1.70877e-05
1.2936e-05
8.12132e-06
2.78541e-06
2.75799e-07
3.25444e-05
3.55027e-05
3.67299e-05
3.91916e-05
4.36473e-05
4.79897e-05
5.20561e-05
4.78255e-05
4.42094e-05
4.02783e-05
3.64111e-05
3.26128e-05
2.84025e-05
2.33333e-05
1.85747e-05
1.40786e-05
1.02154e-05
6.55293e-06
2.47266e-06
1.29842e-07
5.28303e-05
5.57148e-05
5.59692e-05
5.74723e-05
6.2323e-05
5.94969e-05
5.51982e-05
5.02459e-05
4.61487e-05
4.11955e-05
3.71076e-05
3.19374e-05
2.70344e-05
1.97757e-05
1.4077e-05
9.73043e-06
7.79066e-06
6.50646e-06
3.22237e-06
2.16701e-07
5.03352e-05
5.30673e-05
5.34364e-05
5.502e-05
5.98175e-05
5.78163e-05
5.3701e-05
4.89434e-05
4.50818e-05
4.02965e-05
3.66125e-05
3.14905e-05
2.76285e-05
2.04948e-05
1.48452e-05
9.8587e-06
7.39719e-06
5.50425e-06
2.51121e-06
1.78957e-07
2.80092e-05
3.09051e-05
3.2267e-05
3.47406e-05
3.91392e-05
4.36814e-05
4.96357e-05
4.56383e-05
4.26531e-05
3.84336e-05
3.56763e-05
3.13313e-05
2.83528e-05
2.39289e-05
1.93616e-05
1.46016e-05
1.00124e-05
5.52799e-06
1.72614e-06
1.20323e-07
1.30978e-05
1.40382e-05
1.5014e-05
1.70591e-05
2.02208e-05
2.42674e-05
2.95279e-05
3.64148e-05
3.97691e-05
3.61551e-05
3.4027e-05
3.0617e-05
2.76784e-05
2.45122e-05
2.12703e-05
1.73779e-05
1.29896e-05
7.81605e-06
2.37929e-06
1.50159e-07
8.6375e-06
8.11503e-06
8.26209e-06
8.65673e-06
1.00743e-05
1.22163e-05
1.52161e-05
1.98345e-05
2.63126e-05
2.74774e-05
2.77735e-05
2.75851e-05
2.66644e-05
2.47334e-05
2.14496e-05
1.86223e-05
1.48317e-05
1.00271e-05
3.49691e-06
3.87449e-07
6.73708e-06
5.80446e-06
5.86884e-06
5.83152e-06
6.51252e-06
7.37218e-06
8.75754e-06
1.07463e-05
1.48332e-05
1.81893e-05
1.99787e-05
2.17281e-05
2.2748e-05
2.27817e-05
2.18385e-05
1.89583e-05
1.58308e-05
1.14941e-05
5.11844e-06
1.18378e-06
5.62047e-06
4.42659e-06
4.56423e-06
4.60689e-06
5.15438e-06
5.64429e-06
6.48827e-06
7.64023e-06
9.24564e-06
1.23689e-05
1.41475e-05
1.65216e-05
1.90553e-05
2.03514e-05
2.04594e-05
1.93537e-05
1.6414e-05
1.24378e-05
6.93596e-06
2.23038e-06
5.04242e-06
3.43509e-06
3.63723e-06
3.91556e-06
4.41477e-06
4.99475e-06
5.72907e-06
6.61071e-06
7.68757e-06
9.33884e-06
1.09274e-05
1.26813e-05
1.54263e-05
1.81261e-05
1.92538e-05
1.88979e-05
1.70966e-05
1.31899e-05
8.03313e-06
3.2102e-06
5.04843e-06
2.73358e-06
2.9326e-06
3.46318e-06
4.09262e-06
4.80727e-06
5.58411e-06
6.42157e-06
7.31323e-06
8.42081e-06
9.50467e-06
1.09534e-05
1.28372e-05
1.56607e-05
1.80409e-05
1.8394e-05
1.7209e-05
1.39503e-05
8.94649e-06
3.80013e-06
6.12169e-06
2.24223e-06
2.53641e-06
3.25416e-06
4.13352e-06
4.98504e-06
5.8203e-06
6.68742e-06
7.55755e-06
8.43078e-06
9.3679e-06
1.04304e-05
1.20467e-05
1.40887e-05
1.6995e-05
1.83773e-05
1.7519e-05
1.47207e-05
9.58666e-06
3.95347e-06
1.09721e-05
2.13846e-06
2.66076e-06
3.59613e-06
4.64402e-06
5.72195e-06
6.63789e-06
7.48958e-06
8.31159e-06
9.06952e-06
9.77603e-06
1.04638e-05
1.15082e-05
1.33024e-05
1.5466e-05
1.78813e-05
1.76252e-05
1.55214e-05
1.03491e-05
3.99042e-06
1.23421e-06
0.000116558
0.000294184
0.000330906
0.00033481
0.000335356
0.000335357
0.000335342
0.000335343
0.000335345
0.000335345
0.000335343
0.000335342
0.000335357
0.000335356
0.00033481
0.000330906
0.000294184
0.000116558
1.23421e-06
1.36973e-06
6.81668e-05
0.000219584
0.000309503
0.000330909
0.000334527
0.000335273
0.000335315
0.000335296
0.000335287
0.000335287
0.000335296
0.000335315
0.000335273
0.000334527
0.000330909
0.000309503
0.000219584
6.8167e-05
1.36973e-06
1.51338e-06
5.28962e-05
0.00017646
0.00028058
0.000322148
0.000332504
0.000334604
0.0003351
0.000335168
0.000335172
0.000335172
0.000335168