/*--------------------------------*- C++ -*----------------------------------*\
| =========                 |                                                 |
| \\      /  F ield         | OpenFOAM: The Open Source CFD Toolbox           |
|  \\    /   O peration     | Version:  2.1.0                                 |
|   \\  /    A nd           | Web:      www.OpenFOAM.org                      |
|    \\/     M anipulation  |                                                 |
\*---------------------------------------------------------------------------*/
FoamFile
{
    version     2.0;
    format      ascii;
    class       volScalarField;
    location    "0.37";
    object      omega;
}
// * * * * * * * * * * * * * * * * * * * * * * * * * * * * * * * * * * * * * //

dimensions      [0 0 -1 0 0 0 0];

internalField   nonuniform List<scalar> 
6400
(
1644.54
1645.63
1645.76
1645.74
1645.24
1645.01
1644.33
1644
1643.21
1642.81
1641.97
1641.48
1640.61
1640.01
1639.11
1638.4
1637.48
1636.66
1635.7
1634.8
1633.8
1632.82
1631.78
1630.73
1629.66
1628.55
1627.43
1626.26
1625.09
1623.86
1622.63
1621.34
1620.04
1618.68
1617.3
1615.85
1614.38
1612.83
1611.25
1609.58
1607.84
1605.99
1604.05
1601.97
1599.77
1597.41
1594.88
1592.15
1589.23
1586.07
1582.68
1579.02
1575.06
1570.7
1565.94
1560.64
1555.32
1549.51
1543.6
1537.27
1530.77
1523.93
1516.85
1509.45
1501.73
1493.69
1485.28
1476.51
1467.23
1457.5
1447.22
1436.39
1424.94
1412.85
1400.09
1386.66
1372.53
1357.75
1342.34
1326.36
1309.85
1292.8
1275.03
1255.78
1234.62
1212.22
1187.58
1159.92
1127.74
1088.84
1039.66
974.234
885.08
765.598
612.644
538.053
566.043
735.298
892.976
942.85
690.987
691.16
692.369
693.302
694.643
695.983
697.372
698.917
700.368
702.037
703.567
705.327
706.951
708.788
710.513
712.425
714.256
716.244
718.182
720.25
722.297
724.456
726.618
728.879
731.171
733.553
735.99
738.517
741.115
743.804
746.578
749.45
752.419
755.496
758.686
761.998
765.442
769.03
772.746
776.601
780.605
784.76
789.081
793.568
798.235
803.086
808.135
813.385
818.85
824.537
830.459
836.63
843.031
849.681
856.58
863.726
871.252
879.064
887.273
895.826
904.811
914.209
924.086
934.454
945.368
956.872
968.838
981.291
994.33
1008.08
1022.54
1037.8
1053.88
1070.88
1088.85
1107.88
1128.06
1149.49
1172.31
1196.66
1222.73
1250.79
1280.33
1310.69
1342.72
1375.39
1408.26
1440.11
1469.68
1495.36
1514.03
1522.6
1524.32
1509.99
1474.67
1395.44
1285.25
1150.84
1005.82
848.237
502.296
505.389
506.866
509.879
511.875
514.928
517.245
520.34
522.907
526.066
528.852
532.101
535.094
538.455
541.651
545.146
548.547
552.198
555.807
559.622
563.437
567.433
571.459
575.651
579.903
584.299
588.778
593.4
598.123
602.99
607.972
613.103
618.365
623.78
629.339
635.058
640.932
646.969
653.214
659.623
666.251
673.078
680.131
687.411
694.933
702.706
710.742
719.051
727.642
736.523
745.7
755.174
764.969
775.083
785.538
796.344
807.545
819.128
831.135
843.56
856.437
869.765
883.568
897.848
912.615
927.869
943.67
960.026
976.823
993.984
1011.49
1029.27
1047.29
1065.49
1083.83
1102.26
1120.77
1139.33
1157.95
1176.63
1195.42
1214.33
1233.37
1252.58
1271.95
1291.25
1310.34
1328.69
1345.63
1359.99
1367.91
1370.77
1364.42
1338.33
1289.93
1210.22
1101.94
960.702
797.23
628.043
453.349
458.248
460.417
464.752
467.506
471.82
474.99
479.31
482.82
487.19
490.999
495.463
499.549
504.142
508.494
513.249
517.863
522.807
527.687
532.847
538
543.397
548.829
554.477
560.189
566.1
572.098
578.283
584.576
591.049
597.65
604.429
611.35
618.45
625.706
633.145
640.75
648.544
656.5
664.672
673.001
681.53
690.225
699.107
708.155
717.377
726.758
736.297
745.981
755.805
765.757
775.828
786.011
796.293
806.667
817.126
827.663
838.266
848.926
859.63
870.366
881.122
891.882
902.63
913.342
923.995
934.624
945.186
955.672
966.053
976.307
986.414
996.321
1005.97
1015.35
1024.33
1032.91
1040.93
1048.32
1054.93
1060.62
1065.2
1068.19
1069.55
1069.86
1067.36
1062.54
1054.54
1043.18
1027.62
1007.3
981.219
948.142
906.278
853.617
788.303
711.925
629.032
552.908
496.648
442.189
448.144
450.729
455.907
459.16
464.294
468.017
473.132
477.228
482.365
486.778
491.977
496.67
501.964
506.912
512.326
517.511
523.062
528.472
534.177
539.805
545.672
551.507
557.54
563.57
569.774
575.996
582.363
588.761
595.28
601.837
608.496
615.195
621.978
628.8
635.688
642.609
649.58
656.573
663.598
670.639
677.699
684.76
691.824
698.873
705.907
712.908
719.873
726.789
733.65
740.446
747.167
753.805
760.351
766.783
773.132
779.353
785.444
791.35
797.066
802.548
807.774
812.704
817.308
821.543
825.377
828.763
831.66
834.021
835.802
836.775
837.173
837.197
835.917
834.189
831.259
827.632
822.808
817.097
810.161
802.186
792.947
782.56
770.971
758.222
744.24
729.22
713.009
695.758
677.268
657.526
636.149
613.007
587.362
558.564
527.428
495.106
465.306
444.249
432.597
432.137
437.941
440.43
445.436
448.511
453.441
456.905
461.751
465.498
470.28
474.244
478.987
483.123
487.845
492.118
496.832
501.213
505.926
510.391
515.105
519.633
524.346
528.915
533.62
538.211
542.896
547.521
552.238
556.904
561.626
566.297
570.995
575.635
580.275
584.846
589.391
593.852
598.261
602.568
606.796
610.904
614.9
618.749
622.461
625.996
629.362
632.523
635.481
638.201
640.685
642.897
644.834
646.463
647.779
648.747
649.435
649.761
649.865
649.587
648.847
647.749
646.186
644.215
641.778
638.902
635.562
631.772
627.525
622.833
617.702
612.143
606.223
599.933
593.295
586.373
579.136
571.684
563.965
556.152
548.16
540.108
531.979
523.878
515.78
507.772
499.786
491.786
483.743
475.756
467.666
459.512
451.111
442.45
433.328
423.901
414.605
406.891
403.203
402.178
402.162
401.4
406.03
407.993
411.941
414.28
418.146
420.71
424.457
427.161
430.785
433.577
437.083
439.923
443.316
446.171
449.453
452.295
455.463
458.266
461.314
464.057
466.965
469.603
472.342
474.851
477.397
479.771
482.151
484.353
486.51
488.476
490.358
492.029
493.585
494.912
496.095
497.031
497.801
498.302
498.551
498.635
498.506
498.035
497.39
496.425
495.261
493.792
492.111
490.141
487.959
485.506
482.851
479.952
476.874
473.613
470.158
466.525
462.751
458.832
454.82
450.719
446.571
442.385
438.194
433.996
429.843
425.788
421.834
418.03
414.38
410.926
407.64
404.559
401.675
399.015
396.566
394.337
392.293
390.505
388.879
387.509
386.295
385.301
384.437
383.744
383.135
382.634
382.163
381.725
381.264
380.804
380.341
380.057
379.953
380.49
381.788
384.34
388.935
392.637
393.698
353.531
356.731
358.047
360.642
362.045
364.498
365.905
368.163
369.519
371.56
372.823
374.638
375.775
377.353
378.334
379.666
380.465
381.538
382.13
382.913
383.298
383.725
383.909
383.987
383.972
383.731
383.334
382.735
381.92
380.944
379.724
378.37
376.763
375.051
373.095
371.053
368.785
366.448
363.912
361.328
358.586
355.81
352.91
350.012
347.027
344.076
341.08
338.148
335.212
332.37
329.556
326.853
324.265
321.828
319.516
317.384
315.415
313.656
312.091
310.763
309.654
308.804
308.215
307.93
307.831
307.955
308.427
309.056
310.001
311.121
312.527
314.113
315.956
317.979
320.233
322.659
325.291
328.084
331.041
334.162
337.435
340.838
344.358
347.969
351.654
355.385
359.142
362.899
366.641
370.353
374.042
377.726
381.456
385.298
389.464
394.261
399.856
406.844
412.389
414.649
292.193
293.038
293.34
293.832
294.05
294.305
294.396
294.436
294.309
294.157
293.753
293.408
292.745
292.183
291.274
290.483
289.339
288.318
286.951
285.705
284.133
282.686
280.963
279.344
277.499
275.735
273.796
271.934
269.942
268.039
266.046
264.154
262.213
260.38
258.534
256.807
255.108
253.537
252.03
250.661
249.391
248.267
247.27
246.432
245.743
245.225
244.904
244.759
244.725
244.963
245.372
246.026
246.806
247.822
248.977
250.36
251.891
253.644
255.551
257.674
259.958
262.453
265.115
267.985
271.028
274.281
277.7
281.322
285.12
289.12
293.306
297.698
302.287
307.089
312.098
317.327
322.777
328.457
334.369
340.518
346.906
353.54
360.419
367.544
374.91
382.513
390.338
398.373
406.593
414.98
423.507
432.162
440.94
449.863
458.997
468.544
479.294
490.887
502.552
508.308
236.863
235.529
234.946
233.738
232.986
231.724
230.835
229.519
228.521
227.165
226.085
224.711
223.577
222.205
221.048
219.703
218.553
217.261
216.15
214.937
213.896
212.789
211.847
210.868
210.052
209.224
208.558
207.902
207.41
206.945
206.643
206.412
206.309
206.278
206.372
206.597
206.929
207.39
207.965
208.668
209.493
210.449
211.52
212.725
214.043
215.496
217.063
218.765
220.582
222.539
224.61
226.823
229.138
231.596
234.158
236.862
239.674
242.63
245.699
248.914
252.247
255.73
259.339
263.103
267.002
271.063
275.268
279.646
284.181
288.9
293.792
298.883
304.163
309.66
315.368
321.312
327.493
333.935
340.643
347.643
354.944
362.573
370.546
378.892
387.634
396.806
406.438
416.575
427.258
438.544
450.492
463.178
476.689
491.133
506.624
523.247
540.983
559.475
574.167
580.722
264.673
264.16
263.842
263.23
262.687
261.937
261.182
260.277
259.327
258.26
257.132
255.904
254.623
253.25
251.834
250.353
248.831
247.276
245.681
244.086
242.459
240.859
239.238
237.672
236.099
234.603
233.119
231.73
230.374
229.129
227.937
226.87
225.875
225.015
224.25
223.629
223.121
222.764
222.582
222.512
222.54
222.849
223.193
223.784
224.435
225.315
226.275
227.447
228.713
230.178
231.747
233.504
235.376
237.424
239.599
241.948
244.409
247.041
249.789
252.707
255.745
258.953
262.287
265.79
269.43
273.24
277.196
281.328
285.616
290.087
294.729
299.564
304.584
309.811
315.244
320.901
326.784
332.911
339.288
345.934
352.858
360.082
367.618
375.49
383.715
392.32
401.326
410.764
420.659
431.048
441.969
453.491
465.683
478.635
492.475
507.349
523.348
540.132
553.898
560.131
323.659
325.417
326.1
327.343
327.95
328.986
329.484
330.274
330.645
331.171
331.407
331.597
331.64
331.594
331.262
330.945
330.299
329.695
328.75
327.855
326.623
325.443
323.941
322.489
320.736
319.034
317.067
315.141
312.981
310.87
308.558
306.305
303.886
301.538
299.061
296.667
294.18
291.79
289.354
287.03
284.702
282.501
280.357
278.374
276.484
274.772
273.184
271.795
270.56
269.54
268.698
268.084
267.718
267.56
267.531
267.845
268.285
269.01
269.884
271.03
272.339
273.903
275.639
277.613
279.767
282.148
284.716
287.48
290.426
293.558
296.867
300.358
304.016
307.855
311.861
316.044
320.392
324.911
329.589
334.433
339.416
344.54
349.79
355.165
360.651
366.242
371.925
377.698
383.547
389.476
395.481
401.555
407.726
414.165
420.996
428.631
437.388
447.684
458.596
464.327
373.024
376.531
377.99
380.845
382.445
385.163
386.812
389.351
390.997
393.342
394.95
397.103
398.671
400.629
402.096
403.846
405.167
406.686
407.819
409.083
409.994
410.98
411.635
412.321
412.691
412.982
413.091
413.11
412.854
412.503
411.895
411.183
410.217
409.143
407.822
406.394
404.733
402.879
400.782
398.52
396.026
393.394
390.552
387.607
384.484
381.277
377.96
374.581
371.147
367.687
364.222
360.775
357.366
354.011
350.726
347.547
344.515
341.643
338.925
336.405
334.076
331.97
330.085
328.449
327.051
325.913
325.009
324.352
323.973
323.807
323.775
324.069
324.509
325.194
326.005
327.017
328.135
329.408
330.762
332.226
333.799
335.483
337.257
339.124
341.067
343.106
345.214
347.413
349.692
352.086
354.6
357.303
360.213
363.387
366.837
370.916
376.043
382.658
387.519
389.311
408.881
413.726
415.785
419.882
422.344
426.33
429.035
432.886
435.741
439.458
442.401
446.004
449.049
452.582
455.686
459.15
462.275
465.664
468.779
472.081
475.154
478.354
481.355
484.436
487.335
490.272
493.045
495.812
498.417
500.985
503.386
505.72
507.877
509.936
511.805
513.546
515.081
516.557
517.801
518.916
519.771
520.441
520.774
520.909
520.908
520.414
519.798
518.756
517.515
515.893
514.03
511.818
509.348
506.56
503.514
500.185
496.616
492.805
488.824
484.647
480.327
475.829
471.206
466.468
461.658
456.787
451.88
447.037
442.235
437.549
432.976
428.581
424.351
420.347
416.478
412.839
409.363
406.115
403.034
400.16
397.383
394.798
392.289
389.922
387.595
385.382
383.174
381.033
378.874
376.765
374.65
372.629
370.686
369.22
368.129
367.727
368.504
372.278
375.393
376.287
423.861
429.688
432.192
437.186
440.286
445.195
448.698
453.532
457.335
462.123
466.165
470.941
475.182
479.968
484.373
489.183
493.724
498.567
503.22
508.098
512.842
517.755
522.571
527.511
532.38
537.34
542.244
547.211
552.134
557.098
562.025
566.972
571.878
576.783
581.636
586.463
591.222
596.003
600.706
605.389
609.979
614.508
618.923
623.247
627.429
631.47
635.352
639.048
642.555
645.837
648.892
651.684
654.21
656.434
658.349
659.923
661.145
661.939
662.311
662.418
662.031
661.272
660.138
658.567
656.568
654.098
651.173
647.764
643.889
639.537
634.723
629.448
623.728
617.572
611.097
604.243
597.07
589.616
581.851
573.864
565.59
557.167
548.492
539.69
530.655
521.436
511.96
502.252
492.145
481.568
470.6
459.063
446.982
434.304
421.682
408.902
398.109
391.476
388.627
387.348
424.657
430.324
432.791
437.69
440.792
445.641
449.195
454.029
457.944
462.81
467.037
471.975
476.473
481.517
486.27
491.447
496.442
501.771
506.997
512.492
517.942
523.614
529.281
535.135
541.011
547.048
553.126
559.344
565.615
572.007
578.462
585.021
591.646
598.363
605.145
612.012
618.941
625.947
633.004
640.128
647.294
654.512
661.762
669.05
676.357
683.686
691.02
698.351
705.663
712.94
720.196
727.403
734.56
741.651
748.669
755.597
762.434
769.158
775.762
782.218
788.497
794.622
800.544
806.238
811.666
816.79
821.573
825.971
829.943
833.446
836.437
838.866
840.684
841.642
842.019
842.005
840.557
838.672
835.439
831.441
826.062
819.632
811.704
802.45
791.53
779.036
764.805
748.667
730.654
710.514
688.161
663.176
635.264
603.925
570.005
532.927
495.733
460.591
435.392
418.685
432.873
437.399
439.416
443.431
445.998
449.986
452.937
456.923
460.182
464.205
467.724
471.824
475.589
479.803
483.806
488.162
492.399
496.923
501.396
506.112
510.828
515.756
520.726
525.889
531.123
536.541
542.054
547.742
553.543
559.512
565.608
571.872
578.278
584.856
591.592
598.512
605.606
612.896
620.36
628.021
635.868
643.913
652.15
660.584
669.207
678.025
687.078
696.353
705.876
715.646
725.59
735.746
746.073
756.585
767.254
778.075
789.033
800.112
811.298
822.576
833.938
845.371
856.868
868.421
880.021
891.654
903.302
914.945
926.549
938.08
949.569
960.993
972.336
983.563
994.658
1005.56
1016.18
1026.52
1036.41
1045.81
1054.52
1062.42
1069.24
1074.77
1078.13
1079.55
1079.69
1075.15
1067.78
1054.95
1036.94
1011.58
977.855
933.293
877.608
807.601
725.378
634.572
553.252
488.446
480.345
483.09
484.419
487.144
488.96
491.724
493.832
496.632
498.964
501.821
504.352
507.293
510.013
513.052
515.947
519.102
522.173
525.46
528.71
532.145
535.581
539.179
542.809
546.584
550.415
554.383
558.425
562.599
566.864
571.262
575.757
580.389
585.134
590.018
595.027
600.178
605.46
610.884
616.495
622.278
628.259
634.441
640.844
647.48
654.371
661.53
668.922
676.583
684.497
692.679
701.19
710.016
719.189
728.714
738.604
748.865
759.518
770.572
782.045
793.953
806.317
819.16
832.506
846.391
860.83
875.844
891.445
907.649
924.465
941.909
960.058
978.555
997.585
1016.99
1036.76
1056.8
1077.08
1097.53
1118.1
1138.77
1159.52
1180.35
1201.19
1222.06
1243.06
1264.07
1284.92
1305.05
1323.96
1340.29
1350.07
1353.76
1348.78
1321.24
1271.3
1196.11
1093.15
963.605
802.537
630.351
663.592
663.544
664.578
665.339
666.516
667.669
668.885
670.233
671.501
672.967
674.306
675.856
677.28
678.901
680.419
682.108
683.725
685.486
687.203
689.04
690.858
692.777
694.699
696.705
698.732
700.836
702.974
705.185
707.447
709.786
712.19
714.682
717.255
719.925
722.69
725.565
728.557
731.678
734.911
738.274
741.769
745.406
749.194
753.137
757.246
761.523
765.976
770.615
775.449
780.493
785.761
791.258
797.004
803.008
809.29
815.869
822.742
829.929
837.448
845.311
853.536
862.131
871.105
880.563
890.517
901
912.04
923.672
935.933
948.863
962.271
976.549
991.56
1007.49
1024.32
1042.18
1061.1
1081.2
1102.55
1125.26
1149.43
1175.17
1202.6
1231.86
1263.14
1294.92
1327.52
1359.19
1388.44
1412.9
1426.89
1432.04
1429.87
1413.7
1381.83
1321.17
1233.28
1122.23
997.852
848.998
1598.31
1599.09
1599.12
1598.77
1598.19
1597.79
1596.99
1596.56
1595.67
1595.19
1594.28
1593.72
1592.8
1592.16
1591.23
1590.49
1589.55
1588.72
1587.74
1586.82
1585.8
1584.79
1583.71
1582.62
1581.49
1580.32
1579.13
1577.9
1576.67
1575.39
1574.11
1572.78
1571.45
1570.07
1568.68
1567.24
1565.8
1564.3
1562.8
1561.25
1559.69
1558.08
1556.44
1554.76
1553.04
1551.26
1549.41
1547.47
1545.43
1543.27
1540.99
1538.57
1536
1533.28
1530.42
1527.42
1524.27
1520.89
1517.26
1513.26
1508.82
1503.8
1498.1
1492.07
1485.67
1478.98
1471.95
1464.58
1456.8
1448.61
1439.98
1430.85
1420.97
1410.55
1399.25
1387.21
1374.14
1360.13
1344.94
1328.63
1311
1292.09
1271.74
1249.97
1226.61
1201.44
1173.41
1140.83
1101.76
1054.5
994.065
914.378
813.837
703.62
584.634
535.345
556.082
721.87
886.797
939.953
865.881
324.744
176.609
119.707
95.2683
82.3307
76.1258
73.1577
72.1856
74.0307
80.9437
97.4298
118.858
156.175
207.057
271.508
348.937
443.972
560.311
610.314
693.168
329.191
219.156
154.344
121.765
104.135
92.9347
87.463
85.536
87.5245
99.6344
115.567
144.526
184.695
237.885
299.878
372.296
459.489
544.787
568.625
544.615
318.754
242.286
180.167
147.632
125.464
111.881
105.977
104.307
108.659
120.2
144.091
174.676
218.7
269.469
326.112
390.215
462.573
514.479
522.774
444.664
305.194
256.31
198.177
171.21
146.163
134.088
128.447
126.893
131.241
154.112
177.668
213.899
256.37
302.004
352.175
406.465
455.305
474.329
474.635
388.231
300.446
266.315
214.693
192.007
168.737
159.188
155.454
155.207
175.029
195.427
222.802
257.313
292.754
330.734
370.693
409.989
432.668
426.58
428.233
360.116
300.393
273.856
232.045
214.548
201.053
197.443
197.422
211.653
227.836
247.842
272.586
299.375
326.718
355.807
383.47
398.879
396.906
368.157
383.747
352.35
312.873
296.079
273.015
265.934
263.403
263.037
269.86
279.094
291.125
305.944
322.299
339.193
355.514
369.792
376.603
374.939
343.844
300.919
349.809
386.942
375.281
371.457
361.668
356.91
351.379
349.172
348.638
350.794
355.1
359.396
364.164
366.783
367.784
366.31
357.959
331.272
277.826
232.731
331.125
499.138
483.896
476.501
457.581
448.682
434.326
427.279
417.592
412.389
404.324
397.841
388.663
378.119
365.436
349.139
316.677
268.23
203.604
161.342
325.192
563.241
541.837
532.173
509.101
498.05
479.393
469.107
452.263
440.691
423.771
409.6
390.367
370.278
341.584
302.028
251.65
197.83
143.585
117.512
328.711
544.362
524.208
515.152
493.397
483.01
465.615
456.295
441.329
431.135
416.477
403.969
387.418
369.672
345.096
309.363
259.56
203.507
144.097
115.303
327.178
457.599
446.409
440.813
424.855
417.563
406.612
401.351
395.683
392.884
389.453
385.974
381.299
374.267
364.778
353.406
326.941
279.271
211.878
170.957
324.809
358.869
343.745
338.749
330.805
327.41
324.307
323.468
326.112
330.981
338.521
346.541
354.787
362.465
366.288
367.639
363.257
339.747
287.168
239.521
326.011
336.633
296.753
279.22
254.017
245.618
242.65
242.458
250.832
261.548
275.543
292.879
311.7
331.935
352.071
370.554
379.747
380.945
352.389
307.855
335.735
346.74
288.142
262.249
221.009
203.596
189.09
184.744
184.26
198.047
215.312
236.78
263.099
291.917
321.638
353.754
385.621
403.673
404.809
374.514
370.374
374.456
289.275
255.998
206.237
184.289
161.457
151.801
147.721
147.122
165.153
186.524
214.581
250.418
287.628
327.688
370.129
413.984
438.715
433.788
420.456
429.518
293.958
246.181
189.982
163.811
140.043
128.534
123.186
121.732
125.944
147.091
171.276
207.61
251.189
298.616
350.828
407.655
460.328
480.557
471.71
531.535
308.184
233.656
173.696
141.906
120.367
107.403
101.719
100.14
104.673
116.011
138.992
169.903
213.816
265.743
324.049
390.642
467.047
518.679
523.112
686.629
318.07
211.227
148.234
116.975
99.8486
89.5109
84.4154
82.6277
84.6633
96.1376
112.068
140.557
180.737
234.208
297.316
371.222
461.06
548.532
570.892
863.369
313.482
170.677
115.725
92.0659
79.5821
73.1916
70.4879
69.7056
72.0661
78.747
94.3629
116.001
152.714
203.734
268.869
347.682
444.736
563.135
613.263
646.053
32.1745
12.7362
11.3229
11.19
11.171
11.1705
11.1708
11.1706
11.1705
11.1705
11.1706
11.1708
11.1705
11.171
11.19
11.3229
12.7362
32.1744
646.053
672.741
55.0629
17.0386
12.087
11.3039
11.1803
11.1547
11.1529
11.1534
11.1536
11.1536
11.1534
11.1529
11.1547
11.1803
11.3039
12.087
17.0386
55.0628
672.741
698.453
71.0937
21.1542
13.3033
11.5874
11.2261
11.1552
11.1382
11.1358
11.1355
11.1355
11.1358
11.1382
11.1552
11.2261
11.5874
13.3033
21.1542
71.0936
698.453
723.136
85.8501
25.1368
14.6461
12.0431
11.3371
11.1684
11.1265
11.1183
11.1171
11.1171
11.1183
11.1265
11.1684
11.3371
12.0431
14.6461
25.1368
85.85
723.136
746.743
101.867
29.2065
16.0658
12.5885
11.5234
11.2064
11.1273
11.105
11.1003
11.1003
11.105
11.1273
11.2064
11.5234
12.5885
16.0658
29.2065
101.867
746.743
769.31
118.433
33.367
17.5406
13.1971
11.7624
11.283
11.1366
11.0944
11.0843
11.0843
11.0944
11.1366
11.283
11.7624
13.1971
17.5406
33.367
118.433
769.31
790.728
134.968
37.5677
19.0511
13.8502
12.0431
11.3872
11.16
11.0918
11.0718
11.0718
11.0918
11.16
11.3872
12.0431
13.8502
19.0511
37.5677
134.968
790.728
810.982
151.25
41.78
20.5851
14.5352
12.3571
11.5178
11.2031
11.0955
11.0625
11.0625
11.0955
11.2031
11.5178
12.3571
14.5352
20.5851
41.7801
151.251
810.982
829.955
167.079
45.9691
22.1303
15.2422
12.6968
11.6708
11.2604
11.1065
11.0594
11.0594
11.1065
11.2604
11.6708
12.6968
15.2422
22.1303
45.9692
167.079
829.955
847.653
182.401
50.1208
23.6797
15.9647
13.0568
11.8431
11.3324
11.129
11.0619
11.0619
11.129
11.3324
11.8431
13.0568
15.9648
23.6797
50.121
182.402
847.653
863.991
197.096
54.2106
25.2248
16.6968
13.4322
12.0315
11.4179
11.1609
11.0697
11.0698
11.1609
11.4179
12.0315
13.4322
16.6968
25.2248
54.2107
197.097
863.991
879.013
211.155
58.232
26.7618
17.4347
13.8192
12.2335
11.5156
11.2021
11.0862
11.0862
11.2021
11.5156
12.2335
13.8193
17.4347
26.7619
58.2322
211.155
879.012
892.663
224.491
62.1652
28.2844
18.1745
14.2149
12.4467
11.6242
11.2528
11.1113
11.1113
11.2528
11.6242
12.4467
14.2149
18.1745
28.2845
62.1654
224.492
892.663
905.026
237.119
66.0088
29.7907
18.9141
14.6169
12.6691
11.7427
11.3126
11.1446
11.1446
11.3126
11.7427
12.6691
14.6169
18.9141
29.7908
66.0091
237.119
905.026
916.068
248.97
69.7459
31.2755
19.6507
15.0231
12.899
11.8698
11.381
11.1861
11.1861
11.381
11.8698
12.899
15.0231
19.6507
31.2755
69.746
248.971
916.067
925.904
260.09
73.3779
32.7378
20.3829
15.4318
13.1351
12.0048
11.4576
11.2357
11.2357
11.4576
12.0048
13.1352
15.4319
20.383
32.738
73.3782
260.09
925.904
934.512
270.423
76.8908
34.1735
21.1088
15.8418
13.3762
12.1466
11.5418
11.293
11.293
11.5418
12.1466
13.3762
15.8418
21.1088
34.1734
76.8909
270.424
934.512
942.037
280.036
80.2889
35.5824
21.8276
16.2519
13.6211
12.2944
11.6331
11.3579
11.3579
11.6331
12.2944
13.6211
16.2519
21.8276
35.5825
80.2891
280.035
942.036
948.451
288.886
83.5605
36.9608
22.5374
16.661
13.8691
12.4475
11.7309
11.4299
11.4299
11.7309
12.4475
13.8691
16.6609
22.5374
36.9608
83.5605
288.886
948.451
953.925
297.052
86.7121
38.3096
23.2383
17.0685
14.1193
12.6053
11.8348
11.5085
11.5085
11.8348
12.6053
14.1194
17.0685
23.2383
38.3097
86.7122
297.05
953.924
958.416
304.505
89.7342
39.625
23.9283
17.4735
14.3712
12.7671
11.9442
11.5934
11.5934
11.9442
12.7671
14.3712
17.4735
23.9283
39.625
89.7343
304.506
958.416
962.12
311.327
92.6353
40.9092
24.608
17.8757
14.6242
12.9325
12.0587
11.684
11.684
12.0587
12.9325
14.6242
17.8757
24.608
40.9093
92.6354
311.325
962.119
964.967
317.504
95.4077
42.158
25.2755
18.2742
14.8776
13.1009
12.1777
11.78
11.78
12.1777
13.1009
14.8776
18.2742
25.2755
42.158
95.4079
317.506
964.966
967.18
323.104
98.0614
43.3749
25.9317
18.669
15.1313
13.2719
12.3009
11.8809
11.8809
12.3009
13.2719
15.1313
18.669
25.9318
43.3751
98.0616
323.102
967.179
968.649
328.146
100.59
44.5555
26.5749
19.0593
15.3846
13.445
12.4277
11.9862
11.9862
12.4277
13.445
15.3846
19.0593
26.5749
44.5554
100.59
328.148
968.648
969.635
332.656
103.004
45.7041
27.2063
19.4452
15.6374
13.62
12.5579
12.0955
12.0955
12.5579
13.62
15.6374
19.4453
27.2064
45.7045
103.005
332.652
969.634
969.97
336.703
105.3
46.8163
27.824
19.8261
15.8892
13.7964
12.691
12.2085
12.2085
12.691
13.7964
15.8892
19.826
27.8239
46.816
105.3
336.706
969.969
969.834
340.244
107.487
47.8971
28.4295
20.2021
16.14
13.974
12.8267
12.3248
12.3248
12.8267
13.9741
16.14
20.2022
28.4298
47.8977
107.488
340.24
969.833
969.425
343.401
109.561
48.9417
29.0212
20.5725
16.3892
14.1525
12.9646
12.4441
12.4441
12.9646
14.1525
16.3892
20.5724
29.0209
48.9412
109.56
343.404
969.424
968.579
346.142
111.538
49.9565
29.6006
20.9378
16.637
14.3316
13.1045
12.5659
12.5659
13.1045
14.3316
16.637
20.938
29.6009
49.9572
111.539
346.138
968.578
967.379
348.533
113.406
50.9356
30.166
21.2973
16.8828
14.5111
13.2461
12.69
12.69
13.2461
14.511
16.8827
21.2972
30.1657
50.9349
113.405
348.535
967.378
965.891
350.553
115.187
51.8869
30.7195
21.6515
17.1267
14.6907
13.389
12.8161
12.8161
13.389
14.6907
17.1268
21.6516
30.7197
51.8875
115.188
350.55
965.891
964.155
352.264
116.865
52.8032
31.2588
21.9995
17.3684
14.8702
13.5331
12.944
12.944
13.5331
14.8702
17.3684
21.9994
31.2585
52.8025
116.863
352.265
964.154
962.205
353.659
118.464
53.694
31.7867
22.3422
17.608
15.0495
13.6782
13.0733
13.0733
13.6782
15.0495
17.6081
22.3424
31.787
53.6946
118.465
353.657
962.204
960.074
354.765
119.965
54.551
32.3007
22.6787
17.8451
15.2284
13.8239
13.2039
13.2039
13.8239
15.2283
17.845
22.6786
32.3003
54.5503
119.964
354.765
960.073
957.789
355.616
121.398
55.3849
32.8037
23.0098
18.0798
15.4067
13.9702
13.3355
13.3355
13.9702
15.4067
18.0799
23.01
32.8041
55.3855
121.399
355.615
957.789
955.382
356.175
122.737
56.1863
33.2931
23.3347
18.3119
15.5842
14.1168
13.468
13.468
14.1168
15.5842
18.3118
23.3345
33.2927
56.1855
122.735
356.173
955.381
952.87
356.557
124.015
56.9673
33.7723
23.6543
18.5414
15.761
14.2636
13.6011
13.6011
14.2636
15.761
18.5415
23.6545
33.7727
56.9679
124.016
356.557
952.869
950.286
356.612
125.204
57.717
34.2381
23.9677
18.7681
15.9367
14.4103
13.7346
13.7346
14.4103
15.9366
18.768
23.9674
34.2376
57.716
125.203
356.611
950.286
947.635
356.52
126.341
58.4491
34.6946
24.2759
18.9922
16.1114
14.557
13.8684
13.8684
14.557
16.1115
18.9924
24.2762
34.6951
58.4499
126.341
356.519
947.635
944.958
356.291
127.393
59.1514
35.1382
24.578
19.2134
16.2849
14.7033
14.0024
14.0024
14.7033
16.2848
19.2132
24.5776
35.1375
59.1503
127.392
356.29
944.958
942.243
355.82
128.405
59.8392
35.5732
24.8751
19.4319
16.4571
14.8493
14.1364
14.1364
14.8494
16.4572
19.4321
24.8755
35.5739
59.8401
128.405
355.822
942.243
939.539
355.244
129.336
60.499
35.996
25.1662
19.6474
16.628
14.9948
14.2703
14.2703
14.9947
16.6279
19.6472
25.1658
35.9952
60.4978
129.335
355.24
939.54
936.82
354.506
130.25
61.1487
36.4112
25.4527
19.8603
16.7975
15.1397
14.404
14.404
15.1398
16.7976
19.8605
25.4532
36.412
61.1496
130.25
354.508
936.82
934.145
353.722
131.1
61.7745
36.815
25.7334
20.0701
16.9655
15.2839
14.5373
14.5373
15.2838
16.9653
20.0699
25.7328
36.814
61.7734
131.1
353.717
934.146
931.466
352.873
131.986
62.3992
37.2124
26.0097
20.2774
17.132
15.4273
14.6702
14.6703
15.4274
17.1322
20.2777
26.0103
37.2135
62.4001
131.985
352.875
931.465
928.859
352.024
132.869
63.0128
37.5999
26.2805
20.4816
17.2969
15.5699
14.8026
14.8025
15.5698
17.2967
20.4812
26.2798
37.5987
63.0118
132.871
352.021
928.86
926.333
351.164
133.825
63.6385
37.9832
26.5474
20.6833
17.4603
15.7116
14.9344
14.9344
15.7117
17.4605
20.6837
26.5483
37.9847
63.6397
133.823
351.166
926.332
923.872
350.422
134.84
64.264
38.3588
26.8093
20.882
17.622
15.8522
15.0654
15.0654
15.8521
17.6217
20.8815
26.8084
38.3572
64.2626
134.843
350.421
923.873
921.484
349.753
135.976
64.9118
38.7329
27.0679
21.0783
17.7821
15.9919
15.1958
15.1959
15.992
17.7824
21.0789
27.0691
38.7349
64.9138
135.973
349.755
921.482
919.155
349.293
137.189
65.5651
39.1016
27.3221
21.2718
17.9404
16.1304
15.3253
15.3252
16.1303
17.9401
21.2712
27.3209
39.0994
65.5631
137.192
349.293
919.157
916.897
348.942
138.532
66.2459
39.4712
27.5738
21.4631
18.0973
16.2679
15.4541
15.4541
16.2681
18.0977
21.4639
27.5754
39.474
66.249
138.531
348.943
916.894
914.693
348.851
139.937
66.9332
39.8374
27.8218
21.6517
18.2523
16.4041
15.5817
15.5816
16.404
18.252
21.6509
27.8202
39.8346
66.9304
139.941
348.853
914.695
912.56
348.916
141.463
67.6494
40.2064
28.0679
21.8384
18.4059
16.5394
15.7086
15.7087
16.5396
18.4065
21.8395
28.07
40.2101
67.6538
141.462
348.918
912.556
910.479
349.098
143.023
68.3711
40.5736
28.3112
22.0226
18.5577
16.6731
15.8342
15.8342
16.6729
18.5572
22.0216
28.3092
40.5701
68.3677
143.027
349.101
910.481
908.471
349.47
144.675
69.1202
40.9447
28.5532
22.2052
18.7081
16.806
15.9592
15.9593
16.8063
18.7089
22.2066
28.556
40.9497
69.1266
144.677
349.48
908.465
906.513
349.99
146.342
69.873
41.315
28.793
22.3855
18.8567
16.9373
16.0827
16.0826
16.937
18.8562
22.3843
28.7905
41.3108
69.8686
146.345
349.989
906.514
904.629
350.63
148.077
70.651
41.6902
29.0321
22.5644
19.0041
17.0677
16.2056
16.2058
17.0682
19.0051
22.5664
29.0359
41.6969
70.6604
148.083
350.645
904.621
902.794
351.376
149.806
71.4301
42.065
29.2695
22.7414
19.1497
17.1965
16.3268
16.3268
17.1962
19.149
22.7399
29.2667
42.0602
71.4252
149.809
351.379
902.794
901.034
352.209
151.58
72.2316
42.4452
29.5067
22.9171
19.2942
17.3245
16.4477
16.4479
17.3252
19.2957
22.9198
29.5118
42.4541
72.2447
151.594
352.231
901.023
899.321
353.116
153.335
73.0313
42.8251
29.7426
23.0911
19.437
17.4508
16.5666
16.5665
17.4504
19.4362
23.0895
29.7395
42.8201
73.027
153.338
353.127
899.318
897.684
354.081
155.115
73.8509
43.2104
29.9786
23.264
19.5787
17.5764
16.6853
16.6856
17.5774
19.5808
23.268
29.9857
43.2227
73.8695
155.139
354.116
897.666
896.089
355.096
156.865
74.6654
43.5955
30.2137
23.4356
19.7188
17.7001
16.8017
16.8017
17.6998
19.718
23.4339
30.2105
43.5908
74.6633
156.872
355.122
896.081
894.571
356.143
158.624
75.4973
43.9856
30.4488
23.6061
19.858
17.8234
16.9184
16.9188
17.8249
19.861
23.6117
30.459
44.0032
75.5248
158.663
356.199
894.543
893.092
357.219
160.343
76.3209
44.3755
30.6836
23.7754
19.9955
17.9447
17.0324
17.0324
17.9445
19.995
23.774
30.6809
44.3724
76.3242
160.361
357.27
893.073