/*--------------------------------*- C++ -*----------------------------------*\
| =========                 |                                                 |
| \\      /  F ield         | OpenFOAM: The Open Source CFD Toolbox           |
|  \\    /   O peration     | Version:  2.1.0                                 |
|   \\  /    A nd           | Web:      www.OpenFOAM.org                      |
|    \\/     M anipulation  |                                                 |
\*---------------------------------------------------------------------------*/
FoamFile
{
    version     2.0;
    format      ascii;
    class       volScalarField;
    location    "0.37";
    object      p;
}
// * * * * * * * * * * * * * * * * * * * * * * * * * * * * * * * * * * * * * //

dimensions      [1 -1 -2 0 0 0 0];

internalField   nonuniform List<scalar> 
6400
(
99998.5
99995.8
99993.9
99992.2
99990.7
99989.3
99987.9
99986.5
99985
99983.5
99982
99980.4
99978.8
99977.1
99975.3
99973.4
99971.5
99969.5
99967.5
99965.3
99963.1
99960.8
99958.5
99956
99953.5
99950.8
99948.1
99945.4
99942.5
99939.5
99936.4
99933.3
99930
99926.6
99923.2
99919.6
99915.9
99912.1
99908.2
99904.1
99900
99895.7
99891.2
99886.7
99881.9
99877.1
99872
99866.8
99861.5
99855.9
99850.1
99844.2
99838.1
99831.7
99825.1
99818.4
99811.4
99804.1
99796.6
99788.9
99780.9
99772.7
99764.2
99755.3
99746.2
99736.7
99726.9
99716.7
99706.2
99695.3
99684
99672.2
99660
99647.4
99634.2
99620.6
99606.4
99591.6
99576.2
99560.2
99543.4
99525.9
99507.5
99488
99467.4
99445.3
99421.4
99395.4
99367
99335.9
99302.2
99267.1
99232.7
99200.1
99167.6
99134.3
99077.1
98961.8
98590.7
96982.4
99996.9
99995.1
99993.4
99991.8
99990.3
99988.9
99987.5
99986.1
99984.6
99983.1
99981.6
99980
99978.4
99976.6
99974.9
99973
99971.1
99969.1
99967
99964.9
99962.7
99960.4
99958
99955.5
99953
99950.4
99947.7
99944.9
99942
99939
99935.9
99932.8
99929.5
99926.1
99922.7
99919.1
99915.4
99911.6
99907.6
99903.6
99899.4
99895.1
99890.7
99886.1
99881.4
99876.5
99871.5
99866.3
99860.9
99855.3
99849.6
99843.6
99837.5
99831.2
99824.6
99817.9
99810.9
99803.6
99796.2
99788.5
99780.5
99772.3
99763.8
99754.9
99745.8
99736.4
99726.6
99716.5
99706
99695.1
99683.8
99672.1
99659.9
99647.3
99634.2
99620.5
99606.4
99591.6
99576.3
99560.3
99543.5
99526
99507.6
99488.2
99467.5
99445.4
99421.6
99395.8
99367.6
99336.7
99303.3
99268.4
99233.9
99201.7
99173.8
99144.7
99093.1
98992.1
98691.3
98136.9
99995.4
99994.3
99992.9
99991.4
99990
99988.6
99987.3
99985.9
99984.4
99982.9
99981.4
99979.8
99978.2
99976.4
99974.7
99972.8
99970.9
99968.9
99966.8
99964.7
99962.5
99960.2
99957.8
99955.3
99952.8
99950.2
99947.5
99944.7
99941.8
99938.8
99935.8
99932.6
99929.3
99926
99922.5
99918.9
99915.2
99911.4
99907.5
99903.5
99899.3
99895
99890.6
99886
99881.3
99876.5
99871.5
99866.3
99860.9
99855.4
99849.7
99843.8
99837.7
99831.4
99824.9
99818.2
99811.3
99804.1
99796.7
99789
99781.1
99772.9
99764.4
99755.6
99746.6
99737.2
99727.5
99717.4
99707
99696.2
99685
99673.3
99661.3
99648.8
99635.8
99622.3
99608.2
99593.6
99578.4
99562.5
99545.9
99528.5
99510.2
99490.8
99470.3
99448.3
99424.7
99399.1
99371.2
99341
99308.8
99275.7
99243.6
99215
99191.6
99163.7
99128
99065.9
98909.6
98999.6
99993.4
99993.4
99992.4
99991.2
99989.9
99988.6
99987.3
99985.9
99984.5
99983
99981.5
99979.9
99978.3
99976.6
99974.8
99972.9
99971
99969.1
99967
99964.9
99962.7
99960.4
99958
99955.6
99953.1
99950.5
99947.8
99945
99942.1
99939.2
99936.1
99933
99929.7
99926.4
99922.9
99919.4
99915.7
99911.9
99908
99904
99899.9
99895.6
99891.2
99886.7
99882
99877.2
99872.2
99867.1
99861.8
99856.3
99850.6
99844.8
99838.8
99832.5
99826
99819.4
99812.5
99805.3
99798
99790.4
99782.5
99774.3
99765.9
99757.2
99748.2
99738.9
99729.2
99719.2
99708.8
99698.1
99686.9
99675.3
99663.3
99650.8
99637.8
99624.3
99610.2
99595.6
99580.3
99564.3
99547.6
99530
99511.5
99492
99471.3
99449.2
99425.4
99399.9
99372.4
99343
99312.3
99281.9
99253.7
99230.3
99213
99200.3
99194.8
99199.5
99226
99646.4
99991.3
99992.3
99992
99991
99989.9
99988.8
99987.5
99986.2
99984.8
99983.4
99981.9
99980.3
99978.7
99977
99975.2
99973.4
99971.5
99969.5
99967.5
99965.4
99963.2
99960.9
99958.6
99956.2
99953.7
99951.1
99948.5
99945.7
99942.9
99939.9
99936.9
99933.8
99930.5
99927.2
99923.8
99920.3
99916.6
99912.9
99909
99905
99900.9
99896.6
99892.3
99887.8
99883.1
99878.3
99873.3
99868.2
99862.9
99857.5
99851.8
99846
99840
99833.7
99827.3
99820.7
99813.8
99806.7
99799.3
99791.7
99783.8
99775.7
99767.3
99758.6
99749.5
99740.2
99730.5
99720.5
99710.1
99699.3
99688
99676.4
99664.3
99651.7
99638.6
99625
99610.9
99596.1
99580.7
99564.5
99547.6
99529.9
99511.3
99491.6
99470.6
99448.4
99424.6
99399.3
99372.3
99344
99315.5
99288.5
99265.6
99249.1
99243.1
99253
99290
99382.1
99580.3
100156
99989.2
99991.3
99991.5
99991
99990.1
99989.1
99987.9
99986.6
99985.3
99983.9
99982.4
99980.9
99979.2
99977.6
99975.8
99974
99972.1
99970.2
99968.2
99966.1
99963.9
99961.6
99959.3
99956.9
99954.4
99951.9
99949.2
99946.5
99943.6
99940.7
99937.7
99934.6
99931.4
99928.1
99924.6
99921.1
99917.5
99913.7
99909.9
99905.9
99901.8
99897.5
99893.1
99888.6
99883.9
99879.1
99874.2
99869
99863.7
99858.3
99852.6
99846.8
99840.7
99834.5
99828
99821.3
99814.4
99807.3
99799.9
99792.3
99784.4
99776.2
99767.8
99759
99750
99740.6
99730.9
99720.8
99710.4
99699.6
99688.3
99676.6
99664.5
99651.9
99638.7
99625.1
99610.8
99595.9
99580.4
99564.1
99547.1
99529.2
99510.3
99490.4
99469.3
99446.8
99423.1
99397.9
99371.6
99344.6
99318.3
99295.1
99277.8
99269.7
99278.1
99315.1
99401.5
99586.4
99921.1
100556
99987.2
99990.3
99991.1
99990.9
99990.3
99989.4
99988.3
99987.1
99985.8
99984.4
99982.9
99981.4
99979.8
99978.1
99976.4
99974.6
99972.7
99970.7
99968.7
99966.6
99964.4
99962.2
99959.8
99957.4
99955
99952.4
99949.7
99947
99944.1
99941.2
99938.2
99935.1
99931.8
99928.5
99925.1
99921.5
99917.9
99914.1
99910.2
99906.2
99902.1
99897.8
99893.4
99888.9
99884.2
99879.4
99874.4
99869.2
99863.9
99858.4
99852.8
99846.9
99840.8
99834.6
99828.1
99821.4
99814.5
99807.3
99800
99792.3
99784.4
99776.2
99767.8
99759.1
99750
99740.6
99730.9
99720.8
99710.4
99699.6
99688.3
99676.6
99664.4
99651.8
99638.6
99624.9
99610.5
99595.6
99579.9
99563.5
99546.3
99528.2
99509.1
99489
99467.6
99445.1
99421.2
99396.3
99370.6
99344.8
99320.6
99300.9
99289.1
99289.6
99313.1
99377.6
99513.5
99782.5
100214
100860
99985.6
99989.4
99990.6
99990.7
99990.3
99989.5
99988.5
99987.4
99986.1
99984.7
99983.2
99981.7
99980.1
99978.4
99976.6
99974.8
99972.9
99971
99968.9
99966.8
99964.7
99962.4
99960.1
99957.6
99955.1
99952.6
99949.9
99947.1
99944.3
99941.3
99938.3
99935.1
99931.9
99928.5
99925.1
99921.5
99917.9
99914.1
99910.2
99906.2
99902
99897.7
99893.3
99888.8
99884.1
99879.2
99874.2
99869.1
99863.7
99858.2
99852.6
99846.7
99840.6
99834.4
99827.9
99821.2
99814.3
99807.2
99799.8
99792.2
99784.3
99776.1
99767.7
99759
99750
99740.6
99730.9
99720.8
99710.4
99699.6
99688.3
99676.6
99664.4
99651.8
99638.5
99624.8
99610.4
99595.3
99579.5
99563
99545.6
99527.3
99508
99487.6
99466
99443.3
99419.4
99394.6
99369.4
99344.7
99322.3
99305.2
99297.9
99306.1
99343.3
99431.6
99610.3
99946.4
100441
101076
99984.5
99988.6
99990.1
99990.5
99990.2
99989.5
99988.6
99987.4
99986.1
99984.7
99983.3
99981.7
99980.1
99978.4
99976.7
99974.8
99972.9
99971
99968.9
99966.8
99964.6
99962.3
99960
99957.6
99955
99952.4
99949.7
99947
99944.1
99941.1
99938.1
99934.9
99931.7
99928.3
99924.9
99921.3
99917.6
99913.8
99909.9
99905.9
99901.7
99897.5
99893
99888.5
99883.8
99879
99874
99868.8
99863.5
99858
99852.3
99846.5
99840.4
99834.2
99827.7
99821.1
99814.2
99807.1
99799.7
99792.1
99784.2
99776.1
99767.7
99759
99750
99740.6
99730.9
99720.9
99710.5
99699.6
99688.4
99676.7
99664.5
99651.8
99638.6
99624.7
99610.3
99595.1
99579.2
99562.6
99545
99526.5
99507
99486.4
99464.5
99441.6
99417.6
99392.9
99368
99344
99322.8
99307.7
99303.4
99317.2
99363.2
99469.9
99679.4
100061
100591
101213
99983.9
99988.2
99989.9
99990.3
99990.1
99989.5
99988.5
99987.4
99986.1
99984.7
99983.3
99981.7
99980.1
99978.4
99976.6
99974.8
99972.9
99970.9
99968.8
99966.7
99964.5
99962.2
99959.9
99957.4
99954.9
99952.3
99949.6
99946.8
99943.9
99941
99937.9
99934.8
99931.5
99928.2
99924.7
99921.1
99917.5
99913.7
99909.8
99905.7
99901.6
99897.3
99892.9
99888.4
99883.7
99878.8
99873.8
99868.7
99863.4
99857.9
99852.2
99846.4
99840.4
99834.1
99827.7
99821
99814.2
99807.1
99799.7
99792.1
99784.2
99776.2
99767.8
99759.1
99750.1
99740.8
99731.1
99721.1
99710.7
99699.9
99688.6
99676.9
99664.7
99652
99638.7
99624.8
99610.3
99595.1
99579.1
99562.3
99544.6
99525.9
99506.2
99485.3
99463.3
99440
99415.9
99391.2
99366.4
99342.8
99322.3
99308.1
99305.2
99322
99373.7
99488.7
99713.7
100118
100665
101281
99983.6
99988.1
99989.9
99990.3
99990.1
99989.5
99988.6
99987.4
99986.2
99984.8
99983.3
99981.8
99980.2
99978.5
99976.7
99974.9
99973
99971
99968.9
99966.8
99964.6
99962.3
99960
99957.5
99955
99952.4
99949.7
99946.9
99944
99941.1
99938
99934.9
99931.6
99928.2
99924.8
99921.2
99917.5
99913.8
99909.8
99905.8
99901.7
99897.4
99893
99888.4
99883.7
99878.9
99873.9
99868.8
99863.5
99858
99852.3
99846.5
99840.5
99834.2
99827.8
99821.2
99814.3
99807.2
99799.9
99792.4
99784.6
99776.5
99768
99759.4
99750.4
99741.1
99731.4
99721.4
99711
99700.2
99689
99677.3
99665.1
99652.3
99639
99625.1
99610.5
99595.2
99579.2
99562.2
99544.4
99525.5
99505.6
99484.6
99462.3
99439
99414.5
99389.5
99364.6
99340.9
99320.5
99306.3
99303.4
99320.2
99372.2
99487
99711.1
100114
100661
101277
99983.9
99988.4
99990
99990.4
99990.2
99989.5
99988.6
99987.5
99986.2
99984.8
99983.4
99981.9
99980.3
99978.6
99976.8
99975
99973.1
99971.2
99969.1
99967
99964.8
99962.6
99960.2
99957.8
99955.3
99952.7
99950
99947.2
99944.4
99941.4
99938.4
99935.2
99932
99928.6
99925.1
99921.6
99917.9
99914.1
99910.2
99906.2
99902
99897.7
99893.3
99888.7
99884
99879.2
99874.2
99869
99863.7
99858.2
99852.6
99846.7
99840.7
99834.5
99828.1
99821.4
99814.6
99807.5
99800.2
99792.7
99784.9
99776.8
99768.4
99759.7
99750.7
99741.4
99731.8
99721.8
99711.4
99700.6
99689.4
99677.7
99665.5
99652.7
99639.4
99625.5
99610.8
99595.4
99579.3
99562.2
99544.2
99525.2
99505
99483.8
99461.3
99437.6
99412.8
99387.5
99362.1
99338.1
99317.1
99301.8
99297.1
99311.1
99358
99463
99669.9
100048
100577
101199
99984.9
99988.9
99990.3
99990.5
99990.2
99989.4
99988.5
99987.3
99986.1
99984.7
99983.3
99981.7
99980.1
99978.5
99976.8
99974.9
99973.1
99971.1
99969.1
99967
99964.9
99962.6
99960.3
99957.9
99955.4
99952.8
99950.1
99947.4
99944.5
99941.6
99938.5
99935.4
99932.2
99928.8
99925.4
99921.8
99918.1
99914.4
99910.5
99906.4
99902.3
99898
99893.6
99889
99884.3
99879.5
99874.5
99869.3
99864
99858.5
99852.9
99847
99841
99834.8
99828.4
99821.7
99814.9
99807.8
99800.5
99793
99785.2
99777.1
99768.7
99760
99751.1
99741.8
99732.1
99722.2
99711.8
99701
99689.8
99678.1
99665.9
99653.1
99639.8
99625.8
99611.1
99595.7
99579.4
99562.3
99544.1
99524.9
99504.6
99483.1
99460.4
99436.4
99411.2
99385.4
99359.4
99334.6
99312.5
99295.3
99287.4
99296
99333
99419.8
99594.7
99924.9
100416
101052
99986.4
99989.7
99990.6
99990.6
99990
99989.2
99988.1
99987
99985.7
99984.3
99982.9
99981.4
99979.8
99978.1
99976.4
99974.6
99972.7
99970.8
99968.8
99966.7
99964.6
99962.3
99960
99957.6
99955.1
99952.6
99949.9
99947.2
99944.3
99941.4
99938.4
99935.3
99932
99928.7
99925.3
99921.7
99918.1
99914.3
99910.4
99906.4
99902.3
99898
99893.6
99889.1
99884.4
99879.6
99874.6
99869.4
99864.1
99858.7
99853
99847.2
99841.2
99835
99828.6
99822
99815.1
99808.1
99800.8
99793.2
99785.4
99777.3
99769
99760.3
99751.4
99742.1
99732.5
99722.5
99712.2
99701.4
99690.2
99678.5
99666.3
99653.6
99640.2
99626.2
99611.5
99596
99579.7
99562.5
99544.2
99524.9
99504.4
99482.7
99459.7
99435.4
99409.9
99383.5
99356.7
99330.7
99307.1
99287.5
99275.3
99276.6
99300.1
99362.4
99493.5
99755.1
100181
100826
99988.3
99990.6
99991
99990.6
99989.8
99988.8
99987.7
99986.5
99985.1
99983.8
99982.3
99980.8
99979.2
99977.5
99975.8
99974
99972.1
99970.2
99968.2
99966.1
99963.9
99961.7
99959.3
99956.9
99954.5
99951.9
99949.2
99946.5
99943.7
99940.7
99937.7
99934.6
99931.4
99928.1
99924.6
99921.1
99917.5
99913.7
99909.8
99905.8
99901.7
99897.5
99893.1
99888.6
99883.9
99879.1
99874.2
99869.1
99863.8
99858.4
99852.7
99847
99841
99834.8
99828.4
99821.9
99815.1
99808
99800.8
99793.3
99785.5
99777.5
99769.1
99760.5
99751.6
99742.4
99732.8
99722.9
99712.5
99701.8
99690.6
99679
99666.8
99654
99640.7
99626.7
99612
99596.5
99580.1
99562.8
99544.5
99525.1
99504.5
99482.6
99459.4
99434.8
99408.8
99381.8
99354.1
99326.6
99301
99278.7
99262.3
99255.2
99263.5
99298.1
99379.3
99555.6
99882.1
100515
99990.4
99991.6
99991.4
99990.6
99989.6
99988.5
99987.2
99986
99984.6
99983.2
99981.7
99980.2
99978.6
99976.9
99975.1
99973.3
99971.4
99969.5
99967.5
99965.4
99963.2
99960.9
99958.6
99956.2
99953.7
99951.1
99948.4
99945.7
99942.8
99939.9
99936.9
99933.7
99930.5
99927.1
99923.7
99920.2
99916.5
99912.7
99908.8
99904.8
99900.7
99896.5
99892.1
99887.6
99882.9
99878.1
99873.2
99868.1
99862.8
99857.4
99851.8
99846.1
99840.1
99834
99827.6
99821.1
99814.3
99807.3
99800.1
99792.7
99784.9
99777
99768.7
99760.1
99751.3
99742.1
99732.6
99722.7
99712.4
99701.7
99690.6
99679
99666.9
99654.2
99640.8
99626.9
99612.2
99596.7
99580.3
99563
99544.6
99525.1
99504.5
99482.5
99459
99434.2
99407.9
99380.2
99351.6
99322.6
99294.8
99269.6
99248.9
99234.2
99228.1
99235.8
99267.5
99350.8
99538.6
100107
99992.5
99992.6
99991.8
99990.7
99989.5
99988.3
99987
99985.7
99984.3
99982.9
99981.4
99979.8
99978.2
99976.5
99974.7
99972.9
99971
99969
99967
99964.9
99962.7
99960.4
99958.1
99955.6
99953.1
99950.5
99947.8
99945
99942.1
99939.2
99936.1
99933
99929.7
99926.3
99922.9
99919.3
99915.6
99911.8
99907.9
99903.9
99899.7
99895.5
99891
99886.5
99881.8
99877
99872
99866.9
99861.6
99856.2
99850.6
99844.8
99838.8
99832.7
99826.3
99819.8
99813
99806
99798.8
99791.3
99783.6
99775.6
99767.4
99758.8
99750
99740.8
99731.3
99721.5
99711.3
99700.6
99689.5
99678
99665.9
99653.3
99640.1
99626.1
99611.5
99596
99579.7
99562.4
99544.1
99524.6
99503.9
99481.8
99458.3
99433.3
99406.6
99378.5
99349
99318.7
99288.9
99260.9
99236.5
99216.2
99198.6
99184
99173.5
99169.8
99184.3
99590.9
99994.5
99993.6
99992.3
99990.9
99989.6
99988.3
99987
99985.6
99984.3
99982.8
99981.3
99979.7
99978.1
99976.4
99974.6
99972.8
99970.9
99968.9
99966.9
99964.7
99962.5
99960.2
99957.9
99955.4
99952.9
99950.3
99947.6
99944.8
99941.9
99938.9
99935.8
99932.6
99929.3
99926
99922.5
99918.9
99915.2
99911.4
99907.4
99903.4
99899.2
99894.9
99890.5
99885.9
99881.2
99876.4
99871.4
99866.2
99860.9
99855.4
99849.8
99843.9
99837.9
99831.7
99825.3
99818.7
99811.8
99804.8
99797.5
99790
99782.3
99774.3
99766
99757.4
99748.5
99739.3
99729.7
99719.8
99709.5
99698.9
99687.7
99676.2
99664
99651.4
99638.1
99624.2
99609.5
99594
99577.7
99560.4
99542
99522.5
99501.8
99479.7
99456.2
99431
99404.2
99375.7
99345.7
99314.5
99283.1
99253.2
99226.1
99202.9
99178.4
99148.6
99108.4
99038.6
98869.7
98936.4
99996
99994.4
99992.8
99991.3
99989.9
99988.6
99987.2
99985.9
99984.5
99983
99981.5
99979.9
99978.3
99976.6
99974.8
99973
99971.1
99969.1
99967.1
99964.9
99962.7
99960.4
99958.1
99955.6
99953.1
99950.5
99947.8
99945
99942.1
99939.1
99936
99932.8
99929.5
99926.1
99922.7
99919.1
99915.4
99911.5
99907.6
99903.6
99899.4
99895.1
99890.6
99886
99881.3
99876.5
99871.4
99866.3
99860.9
99855.4
99849.8
99843.9
99837.9
99831.6
99825.2
99818.5
99811.6
99804.6
99797.2
99789.7
99781.9
99773.8
99765.5
99756.9
99747.9
99738.7
99729.1
99719.1
99708.8
99698
99686.8
99675.2
99663
99650.2
99636.8
99622.8
99608
99592.4
99575.9
99558.4
99539.9
99520.2
99499.2
99476.8
99453
99427.6
99400.4
99371.4
99340.7
99308.5
99275.8
99244
99214.6
99188.5
99164.2
99130.7
99074.6
98966.2
98652.9
98060.2
99997.7
99995.1
99993.2
99991.7
99990.3
99988.9
99987.6
99986.2
99984.8
99983.4
99981.9
99980.3
99978.7
99977
99975.2
99973.4
99971.5
99969.5
99967.5
99965.4
99963.2
99960.9
99958.5
99956.1
99953.6
99951
99948.3
99945.5
99942.6
99939.6
99936.5
99933.3
99930.1
99926.7
99923.2
99919.6
99915.9
99912.1
99908.2
99904.1
99899.9
99895.6
99891.2
99886.6
99881.9
99877.1
99872.1
99866.9
99861.6
99856.1
99850.4
99844.6
99838.5
99832.3
99825.8
99819.2
99812.3
99805.2
99797.9
99790.4
99782.6
99774.5
99766.1
99757.5
99748.5
99739.2
99729.6
99719.7
99709.3
99698.6
99687.4
99675.7
99663.5
99650.7
99637.3
99623.2
99608.4
99592.8
99576.2
99558.7
99540.2
99520.4
99499.4
99477
99453.1
99427.6
99400.3
99371.2
99340.2
99307.9
99275.1
99243.5
99214
99187.1
99152.5
99114.3
99054.1
98934
98552.3
96886.7
100562
101838
102381
102690
102902
103061
103186
103286
103368
103435
103490
103535
103572
103601
103624
103640
103651
103657
103658
103655
100516
101543
102176
102576
102843
103035
103180
103293
103382
103455
103513
103559
103596
103625
103646
103661
103670
103674
103673
103665
100804
101574
102119
102516
102803
103013
103172
103295
103391
103468
103528
103576
103612
103640
103661
103674
103682
103684
103683
103671
101081
101707
102169
102529
102806
103019
103182
103309
103409
103487
103548
103596
103632
103658
103677
103688
103694
103695
103692
103676
101317
101848
102252
102578
102838
103043
103205
103332
103433
103511
103572
103618
103652
103676
103693
103702
103705
103704
103699
103679
101516
101980
102343
102641
102884
103080
103237
103361
103460
103537
103596
103640
103673
103694
103708
103715
103716
103713
103705
103681
101678
102093
102426
102703
102932
103119
103271
103392
103488
103563
103620
103663
103693
103712
103722
103726
103725
103721
103710
103682
101799
102181
102494
102756
102975
103155
103302
103421
103515
103588
103644
103684
103712
103728
103736
103737
103734
103727
103713
103684
101880
102242
102542
102796
103008
103185
103329
103445
103538
103610
103665
103703
103728
103742
103747
103746
103741
103732
103715
103687
101924
102276
102571
102820
103030
103205
103348
103463
103555
103626
103679
103717
103740
103753
103756
103753
103747
103736
103716
103691
101922
102274
102568
102818
103028
103202
103345
103461
103553
103624
103678
103715
103739
103751
103755
103752
103745
103735
103717
103690
101869
102232
102532
102787
103000
103177
103321
103439
103532
103605
103659
103699
103725
103739
103745
103744
103739
103730
103715
103689
101780
102164
102478
102742
102962
103143
103291
103411
103506
103580
103637
103678
103707
103724
103733
103734
103732
103725
103712
103688
101651
102069
102403
102683
102914
103103
103256
103379
103477
103553
103612
103656
103687
103707
103719
103723
103723
103718
103708
103686
101483
101950
102315
102616
102861
103060
103219
103346
103447
103526
103586
103632
103666
103689
103704
103711
103713
103711
103703
103681
101278
101813
102220
102550
102813
103021
103186
103316
103418
103499
103561
103609
103645
103671
103688
103698
103702
103702
103697
103679
101037
101667
102133
102498
102779
102995
103161
103291
103394
103474
103537
103586
103624
103652
103672
103684
103691
103692
103689
103675
100755
101530
102080
102483
102774
102988
103150
103276
103375
103454
103516
103566
103604
103634
103655
103670
103678
103681
103680
103671
100461
101495
102137
102543
102815
103010
103158
103274
103366
103440
103501
103549
103587
103618
103640
103656
103666
103671
103670
103664
100505
101793
102343
102658
102874
103036
103164
103267
103351
103420
103478
103524
103563
103593
103617
103635
103647
103653
103655
103652
103497
103495
103494
103493
103493
103492
103492
103491
103491
103491
103491
103491
103491
103492
103492
103493
103493
103494
103495
103497
103494
103492
103492
103491
103491
103491
103490
103490
103490
103490
103490
103490
103490
103490
103491
103491
103491
103492
103492
103494
103493
103491
103491
103491
103491
103491
103491
103491
103491
103491
103491
103491
103491
103491
103491
103491
103491
103491
103491
103493
103493
103492
103491
103491
103491
103491
103491
103491
103491
103491
103491
103491
103491
103491
103491
103491
103491
103491
103492
103493
103493
103491
103491
103491
103491
103491
103491
103491
103491
103491
103491
103491
103491
103491
103491
103491
103491
103491
103491
103493
103492
103491
103491
103490
103490
103490
103490
103490
103490
103490
103490
103490
103490
103490
103490
103490
103490
103490
103491
103492
103492
103490
103490
103490
103490
103490
103490
103490
103490
103490
103490
103490
103490
103490
103490
103490
103490
103490
103490
103492
103491
103489
103489
103489
103489
103489
103489
103489
103489
103489
103489
103489
103489
103489
103489
103489
103489
103489
103489
103491
103490
103489
103489
103489
103488
103488
103488
103488
103488
103488
103488
103488
103488
103488
103488
103488
103489
103489
103489
103490
103490
103488
103488
103488
103488
103488
103488
103488
103488
103488
103488
103488
103488
103488
103488
103488
103488
103488
103488
103490
103489
103487
103487
103487
103487
103487
103487
103487
103487
103487
103487
103487
103487
103487
103487
103487
103487
103487
103487
103489
103488
103487
103487
103486
103486
103486
103486
103486
103486
103486
103486
103486
103486
103486
103486
103486
103486
103487
103487
103488
103488
103486
103486
103486
103486
103486
103486
103485
103485
103485
103485
103485
103485
103486
103486
103486
103486
103486
103486
103488
103487
103485
103485
103485
103485
103485
103485
103485
103485
103485
103485
103485
103485
103485
103485
103485
103485
103485
103485
103487
103486
103484
103484
103484
103484
103484
103484
103484
103484
103484
103484
103484
103484
103484
103484
103484
103484
103484
103484
103486
103485
103484
103484
103483
103483
103483
103483
103483
103483
103483
103483
103483
103483
103483
103483
103483
103484
103484
103484
103485
103484
103483
103483
103483
103483
103483
103483
103482
103482
103482
103482
103482
103482
103483
103483
103483
103483
103483
103483
103484
103484
103482
103482
103482
103482
103482
103482
103482
103482
103482
103482
103482
103482
103482
103482
103482
103482
103482
103482
103484
103483
103481
103481
103481
103481
103481
103481
103481
103481
103481
103481
103481
103481
103481
103481
103481
103481
103481
103481
103483
103482
103481
103480
103480
103480
103480
103480
103480
103480
103480
103480
103480
103480
103480
103480
103480
103480
103480
103481
103482
103481
103480
103480
103480
103480
103479
103479
103479
103479
103479
103479
103479
103479
103479
103479
103480
103480
103480
103480
103481
103480
103479
103479
103479
103479
103479
103479
103479
103479
103479
103479
103479
103479
103479
103479
103479
103479
103479
103479
103480
103479
103478
103478
103478
103478
103478
103478
103478
103478
103478
103478
103478
103478
103478
103478
103478
103478
103478
103478
103479
103479
103477
103477
103477
103477
103477
103477
103477
103477
103477
103477
103477
103477
103477
103477
103477
103477
103477
103477
103479
103478
103477
103476
103476
103476
103476
103476
103476
103476
103476
103476
103476
103476
103476
103476
103476
103476
103476
103477
103478
103477
103476
103476
103476
103476
103475
103475
103475
103475
103475
103475
103475
103475
103475
103475
103476
103476
103476
103476
103477
103476
103475
103475
103475
103475
103475
103475
103475
103475
103475
103475
103475
103475
103475
103475
103475
103475
103475
103475
103476
103475
103474
103474
103474
103474
103474
103474
103474
103474
103474
103474
103474
103474
103474
103474
103474
103474
103474
103474
103475
103474
103473
103473
103473
103473
103473
103473
103473
103473
103473
103473
103473
103473
103473
103473
103473
103473
103473
103473
103474
103474
103473
103472
103472
103472
103472
103472
103472
103472
103472
103472
103472
103472
103472
103472
103472
103472
103472
103473
103474
103473
103472
103472
103472
103472
103471
103471
103471
103471
103471
103471
103471
103471
103471
103471
103472
103472
103472
103472
103473
103472
103471
103471
103471
103471
103471
103471
103471
103471
103471
103471
103471
103471
103471
103471
103471
103471
103471
103471
103472
103471
103470
103470
103470
103470
103470
103470
103470
103470
103470
103470
103470
103470
103470
103470
103470
103470
103470
103470
103471
103470
103469
103469
103469
103469
103469
103469
103469
103469
103469
103469
103469
103469
103469
103469
103469
103469
103469
103469
103470
103469
103469
103468
103468
103468
103468
103468
103468
103468
103468
103468
103468
103468
103468
103468
103468
103468
103468
103469
103469
103468
103468
103468
103468
103468
103468
103467
103467
103467
103467
103467
103467
103467
103467
103468
103468
103468
103468
103468
103468
103468
103467
103467
103467
103467
103467
103467
103467
103467
103467
103467
103467
103467
103467
103467
103467
103467
103467
103467
103468
103467
103466
103466
103466
103466
103466
103466
103466
103466
103466
103466
103466
103466
103466
103466
103466
103466
103466
103466
103467
103466
103465
103465
103465
103465
103465
103465
103465
103465
103465
103465
103465
103465
103465
103465
103465
103465
103465
103465
103466
103465
103465
103465
103464
103464
103464
103464
103464
103464
103464
103464
103464
103464
103464
103464
103464
103464
103465
103465
103465
103464
103464
103464
103464
103464
103464
103464
103464
103464
103464
103464
103464
103464
103464
103464
103464
103464
103464
103464
103464
103464
103463
103463
103463
103463
103463
103463
103463
103463
103463
103463
103463
103463
103463
103463
103463
103463
103463
103463
103464
103463
103462
103462
103462
103462
103462
103462
103462
103462
103462
103462
103462
103462
103462
103462
103462
103462
103462
103462
103463
103462
103462
103462
103461
103461
103461
103461
103461
103461
103461
103461
103461
103461
103461
103461
103461
103461
103462
103462
103462
103461
103461
103461
103461
103461
103461
103461
103461
103461
103461
103461
103461
103461
103461
103461
103461
103461
103461
103461
103461
103460
103460
103460
103460
103460
103460
103460
103460
103460
103460
103460
103460
103460
103460
103460
103460
103460
103460
103460
103460
103460
103459
103459
103459
103459
103459
103459
103459
103459
103459
103459
103459
103459
103459
103459
103459
103459
103459
103459
103460
103459
103459
103459
103459
103458
103458
103458
103458
103458
103458
103458
103458
103458
103458
103458
103458
103459
103459
103459
103459
103458
103458
103458
103458
103458
103458
103458
103458
103458
103458
103458
103458
103458
103458
103458
103458
103458
103458
103458
103458
103457
103457
103457
103457
103457
103457
103457
103457
103457
103457
103457
103457
103457
103457
103457
103457
103457
103457
103457
103457
103457
103457
103456
103456
103456
103456
103456
103456
103456
103456
103456
103456
103456
103456
103456
103456
103456
103456
103457
103457
103456
103456
103456
103456
103456
103456
103456
103456
103456
103456
103456
103456
103456
103456
103456
103456
103456
103456
103456
103456
103455
103455
103455
103455
103455
103455
103455
103455
103455
103455
103455
103455
103455
103455
103455
103455
103455
103455
103455
103455
103455
103454
103454
103454
103454
103454
103454
103454
103454
103454
103454
103454
103454
103454
103454
103454
103454
103454
103454
103455
103454
103454
103454
103454
103454
103453
103453
103453
103453
103453
103453
103453
103453
103453
103453
103454
103454
103454
103454
103454
103453
103453
103453
103453
103453
103453
103453
103453
103453
103453
103453
103453
103453
103453
103453
103453
103453
103453
103453
103453
103452
103452
103452
103452
103452
103452
103452
103452
103452
103452
103452
103452
103452
103452
103452
103452
103452
103452
103452
103452
103452
103452
103452
103451
103451
103451
103451
103451
103451
103451
103451
103451
103451
103451
103451
103451
103451
103452
103452
103452
103451
103451
103451
103451
103451
103451
103451
103451
103451
103451
103451
103451
103451
103451
103451
103451
103451
103451
103451
103451
103450
103450
103450
103450
103450
103450
103450
103450
103450
103450
103450
103450
103450
103450
103450
103450
103450
103450
103450
103450
103450
103450
103450
103449
103449
103449
103449
103449
103449
103449
103449
103449
103449
103449
103449
103449
103449
103450
103450
103450
103449
103449
103449
103449
103449
103449
103449
103449
103449
103449
103449
103449
103449
103449
103449
103449
103449
103449
103449
103449
103448
103448
103448
103448
103448
103448
103448
103448
103448
103448
103448
103448
103448
103448
103448
103448
103448
103448
103448
103448
103448
103448
103448
103447
103447
103447
103447
103447
103447
103447
103447
103447
103447
103447
103447
103447
103447
103448
103448
103448
103447
103447
103447
103447
103447
103447
103447
103447
103447
103447
103447
103447
103447
103447
103447
103447
103447
103447
103447
103447
103446
103446
103446
103446
103446
103446
103446
103446
103446
103446
103446
103446
103446
103446
103446
103446
103446
103446
103446
103446
103446
103446
103446
103445
103445
103445
103445
103445
103445
103445
103445
103445
103445
103445
103446
103446
103446
103446
103446
103446
103445
103445
103445
103445
103445
103445
103445
103445
103445
103445
103445
103445
103445
103445
103445
103445
103445
103445
103445
103445
103444
103444
103444
103444
103444
103444
103444
103444
103444
103444
103444
103444
103444
103444
103444
103444
103444
103444
103444
103444
103444
103444
103444
103443
103443
103443
103443
103443
103443
103443
103444
103444
103444
103444
103444
103444
103444
103444
103444
103444
103443
103443
103443
103443
103443
103443
103443
103443
103443
103443
103443
103443
103443
103443
103443
103443
103443
103443
103443
103443
103442
103442
103442
103442
103442
103442
103442
103442
103442
103442
103442
103442
103442
103442
103442
103442
103443
103443
103443
103443
103442
103442
103441
103441
103441
103441
103441
103442
103442
103442
103442
103442
103442
103442
103442
103442
103442
103442
103442
103442
103441
103441
103441
103441
103441
103441
103441
103441
103441
103441
103441
103441
103441
103441
103441
103441
103441
103442
103442
103442
103440
103440
103440
103440
103440
103440
103440
103440
103440
103440
103440
103440
103441
103441
103441
103441
103441
103441
103441
103441
103439
103439
103439
103439
103439
103439
103439
103439
103440
103440
103440
103440
103440
103440
103440
103440
103440
103441
103441
103441
103438
103438
103438
103438
103439
103439
103439
103439
103439
103439
103439
103439
103439
103440
103440
103440