/*--------------------------------*- C++ -*----------------------------------*\
| =========                 |                                                 |
| \\      /  F ield         | OpenFOAM: The Open Source CFD Toolbox           |
|  \\    /   O peration     | Version:  2.1.0                                 |
|   \\  /    A nd           | Web:      www.OpenFOAM.org                      |
|    \\/     M anipulation  |                                                 |
\*---------------------------------------------------------------------------*/
FoamFile
{
    version     2.0;
    format      ascii;
    class       surfaceScalarField;
    location    "0.37";
    object      phi;
}
// * * * * * * * * * * * * * * * * * * * * * * * * * * * * * * * * * * * * * //

dimensions      [0 3 -1 0 0 0 0];

internalField   nonuniform List<scalar> 
12460
(
-2.59458e-05
-4.82965e-09
-2.59134e-05
-4.23458e-08
-2.58581e-05
-6.50001e-08
-2.5791e-05
-7.65704e-08
-2.57166e-05
-8.34863e-08
-2.56374e-05
-8.81577e-08
-2.55546e-05
-9.15316e-08
-2.54689e-05
-9.4177e-08
-2.53807e-05
-9.64013e-08
-2.52904e-05
-9.83921e-08
-2.51979e-05
-1.0026e-07
-2.51035e-05
-1.02066e-07
-2.5007e-05
-1.03849e-07
-2.49086e-05
-1.05627e-07
-2.48081e-05
-1.0742e-07
-2.47057e-05
-1.09228e-07
-2.46012e-05
-1.11065e-07
-2.44946e-05
-1.12926e-07
-2.4386e-05
-1.14818e-07
-2.42753e-05
-1.1673e-07
-2.41624e-05
-1.18674e-07
-2.40474e-05
-1.20656e-07
-2.39301e-05
-1.2269e-07
-2.38107e-05
-1.24708e-07
-2.3689e-05
-1.26794e-07
-2.35649e-05
-1.29014e-07
-2.34383e-05
-1.31316e-07
-2.33092e-05
-1.33688e-07
-2.31775e-05
-1.36134e-07
-2.30431e-05
-1.38656e-07
-2.2906e-05
-1.41267e-07
-2.2766e-05
-1.43968e-07
-2.2623e-05
-1.46769e-07
-2.2477e-05
-1.49677e-07
-2.23279e-05
-1.527e-07
-2.21754e-05
-1.55839e-07
-2.20196e-05
-1.59105e-07
-2.18602e-05
-1.625e-07
-2.16972e-05
-1.66036e-07
-2.15304e-05
-1.69728e-07
-2.13595e-05
-1.73587e-07
-2.11846e-05
-1.77616e-07
-2.10053e-05
-1.81822e-07
-2.08215e-05
-1.86213e-07
-2.0633e-05
-1.90792e-07
-2.04396e-05
-1.95559e-07
-2.02412e-05
-2.00516e-07
-2.00376e-05
-2.05652e-07
-1.98285e-05
-2.10953e-07
-1.96139e-05
-2.16463e-07
-1.93937e-05
-2.21979e-07
-1.91677e-05
-2.27632e-07
-1.89355e-05
-2.33765e-07
-1.86967e-05
-2.40259e-07
-1.84511e-05
-2.46967e-07
-1.81989e-05
-2.53544e-07
-1.79403e-05
-2.59847e-07
-1.76755e-05
-2.66046e-07
-1.74043e-05
-2.72317e-07
-1.71266e-05
-2.78734e-07
-1.68423e-05
-2.85342e-07
-1.65511e-05
-2.92125e-07
-1.62529e-05
-2.99132e-07
-1.59473e-05
-3.06404e-07
-1.56341e-05
-3.13957e-07
-1.53131e-05
-3.21832e-07
-1.49837e-05
-3.30063e-07
-1.46456e-05
-3.38707e-07
-1.42985e-05
-3.47798e-07
-1.39417e-05
-3.57365e-07
-1.35747e-05
-3.67442e-07
-1.31971e-05
-3.7808e-07
-1.28083e-05
-3.8932e-07
-1.24074e-05
-4.01234e-07
-1.19939e-05
-4.13899e-07
-1.15668e-05
-4.27421e-07
-1.11252e-05
-4.41934e-07
-1.06679e-05
-4.57605e-07
-1.01935e-05
-4.74672e-07
-9.70021e-06
-4.93478e-07
-9.18596e-06
-5.14441e-07
-8.64804e-06
-5.38087e-07
-8.08309e-06
-5.65084e-07
-7.48704e-06
-5.96153e-07
-6.85529e-06
-6.31828e-07
-6.18303e-06
-6.72292e-07
-5.46586e-06
-7.1717e-07
-4.70096e-06
-7.64848e-07
-3.88954e-06
-8.1131e-07
-3.04155e-06
-8.47814e-07
-2.1847e-06
-8.56576e-07
-1.38194e-06
-8.02409e-07
-7.37504e-07
-6.44025e-07
-3.56603e-07
-3.80616e-07
-2.79142e-07
-7.79141e-08
-5.32182e-07
2.51559e-07
-1.42539e-06
8.91553e-07
-3.71875e-06
2.29307e-06
-9.2896e-06
5.57084e-06
1.54964e-05
-2.4786e-05
-3.1287e-05
-2.53923e-08
-3.12435e-05
-9.61466e-08
-3.11847e-05
-1.34017e-07
-3.11165e-05
-1.54711e-07
-3.10422e-05
-1.67448e-07
-3.09638e-05
-1.76072e-07
-3.08822e-05
-1.82305e-07
-3.07982e-05
-1.87183e-07
-3.07121e-05
-1.91283e-07
-3.0624e-05
-1.94948e-07
-3.05342e-05
-1.98389e-07
-3.04426e-05
-2.01712e-07
-3.03493e-05
-2.05003e-07
-3.02543e-05
-2.08287e-07
-3.01575e-05
-2.1161e-07
-3.00589e-05
-2.14968e-07
-2.99586e-05
-2.18392e-07
-2.98565e-05
-2.21868e-07
-2.97525e-05
-2.25411e-07
-2.96466e-05
-2.28995e-07
-2.95388e-05
-2.32643e-07
-2.94291e-05
-2.36342e-07
-2.93175e-05
-2.40153e-07
-2.92039e-05
-2.43877e-07
-2.90885e-05
-2.47654e-07
-2.89712e-05
-2.51667e-07
-2.88518e-05
-2.55778e-07
-2.87304e-05
-2.59986e-07
-2.86071e-05
-2.64304e-07
-2.84816e-05
-2.6874e-07
-2.8354e-05
-2.73311e-07
-2.82242e-05
-2.78021e-07
-2.80923e-05
-2.82887e-07
-2.7958e-05
-2.87918e-07
-2.78214e-05
-2.93126e-07
-2.76825e-05
-2.98513e-07
-2.75411e-05
-3.04101e-07
-2.73971e-05
-3.09899e-07
-2.72505e-05
-3.1591e-07
-2.71013e-05
-3.22153e-07
-2.69493e-05
-3.28652e-07
-2.67944e-05
-3.35416e-07
-2.66366e-05
-3.42458e-07
-2.64758e-05
-3.49797e-07
-2.63117e-05
-3.57445e-07
-2.61444e-05
-3.65413e-07
-2.59736e-05
-3.73715e-07
-2.57992e-05
-3.82355e-07
-2.5621e-05
-3.91328e-07
-2.54389e-05
-4.00686e-07
-2.52526e-05
-4.10248e-07
-2.50624e-05
-4.19813e-07
-2.48686e-05
-4.2945e-07
-2.46715e-05
-4.39149e-07
-2.44713e-05
-4.48935e-07
-2.42677e-05
-4.58793e-07
-2.40605e-05
-4.68567e-07
-2.38498e-05
-4.78295e-07
-2.36355e-05
-4.88124e-07
-2.34175e-05
-4.98154e-07
-2.31958e-05
-5.08443e-07
-2.29702e-05
-5.18983e-07
-2.27408e-05
-5.29798e-07
-2.25076e-05
-5.40917e-07
-2.22703e-05
-5.52375e-07
-2.20291e-05
-5.64227e-07
-2.17837e-05
-5.76527e-07
-2.15342e-05
-5.89344e-07
-2.12803e-05
-6.02752e-07
-2.10218e-05
-6.16826e-07
-2.07586e-05
-6.31648e-07
-2.04903e-05
-6.47329e-07
-2.02166e-05
-6.6397e-07
-1.99371e-05
-6.81727e-07
-1.96511e-05
-7.00775e-07
-1.93581e-05
-7.21326e-07
-1.90573e-05
-7.4365e-07
-1.87477e-05
-7.68054e-07
-1.84283e-05
-7.94931e-07
-1.80978e-05
-8.24829e-07
-1.77548e-05
-8.58381e-07
-1.73974e-05
-8.96299e-07
-1.70239e-05
-9.39437e-07
-1.66323e-05
-9.88716e-07
-1.62202e-05
-1.04482e-06
-1.57855e-05
-1.1079e-06
-1.53267e-05
-1.17706e-06
-1.48431e-05
-1.24946e-06
-1.4337e-05
-1.31869e-06
-1.38143e-05
-1.3719e-06
-1.32875e-05
-1.38503e-06
-1.27751e-05
-1.31685e-06
-1.23127e-05
-1.10903e-06
-1.19806e-05
-7.15982e-07
-1.20442e-05
-1.75101e-08
-1.25786e-05
7.83708e-07
-1.39511e-05
2.26253e-06
-1.66792e-05
5.02094e-06
-2.1803e-05
1.06945e-05
2.65648e-05
-3.28713e-05
-3.42867e-05
-5.34498e-08
-3.42499e-05
-1.43262e-07
-3.42009e-05
-1.93193e-07
-3.41441e-05
-2.21503e-07
-3.40822e-05
-2.39076e-07
-3.40169e-05
-2.50931e-07
-3.39491e-05
-2.59404e-07
-3.38793e-05
-2.65997e-07
-3.3808e-05
-2.71461e-07
-3.37352e-05
-2.76327e-07
-3.36611e-05
-2.80843e-07
-3.35858e-05
-2.85204e-07
-3.35092e-05
-2.89494e-07
-3.34315e-05
-2.93787e-07
-3.33525e-05
-2.98118e-07
-3.32723e-05
-3.02515e-07
-3.31908e-05
-3.06999e-07
-3.3108e-05
-3.11582e-07
-3.30239e-05
-3.16274e-07
-3.29384e-05
-3.21062e-07
-3.28514e-05
-3.25973e-07
-3.27629e-05
-3.31019e-07
-3.26728e-05
-3.36255e-07
-3.25809e-05
-3.41514e-07
-3.24875e-05
-3.46738e-07
-3.23926e-05
-3.51991e-07
-3.22964e-05
-3.57257e-07
-3.21989e-05
-3.62596e-07
-3.21001e-05
-3.68041e-07
-3.20001e-05
-3.73607e-07
-3.18987e-05
-3.7931e-07
-3.1796e-05
-3.85159e-07
-3.16921e-05
-3.91168e-07
-3.15868e-05
-3.97343e-07
-3.14803e-05
-4.03697e-07
-3.13725e-05
-4.10228e-07
-3.12634e-05
-4.1695e-07
-3.11531e-05
-4.23885e-07
-3.10415e-05
-4.31023e-07
-3.09286e-05
-4.38368e-07
-3.08146e-05
-4.4595e-07
-3.06993e-05
-4.5377e-07
-3.0583e-05
-4.61835e-07
-3.04655e-05
-4.70161e-07
-3.0347e-05
-4.78752e-07
-3.02275e-05
-4.87615e-07
-3.0107e-05
-4.96759e-07
-2.99857e-05
-5.06183e-07
-2.98636e-05
-5.15874e-07
-2.97408e-05
-5.25778e-07
-2.96174e-05
-5.35852e-07
-2.94934e-05
-5.45985e-07
-2.93689e-05
-5.5598e-07
-2.92443e-05
-5.6576e-07
-2.91197e-05
-5.75413e-07
-2.89952e-05
-5.8516e-07
-2.88705e-05
-5.94977e-07
-2.87458e-05
-6.04755e-07
-2.8621e-05
-6.14531e-07
-2.84964e-05
-6.2437e-07
-2.83721e-05
-6.343e-07
-2.82483e-05
-6.44303e-07
-2.81251e-05
-6.54361e-07
-2.8003e-05
-6.64463e-07
-2.78821e-05
-6.74631e-07
-2.77627e-05
-6.8489e-07
-2.76453e-05
-6.9527e-07
-2.75301e-05
-7.05802e-07
-2.74175e-05
-7.16539e-07
-2.7308e-05
-7.27551e-07
-2.72019e-05
-7.38914e-07
-2.70996e-05
-7.50748e-07
-2.70016e-05
-7.63152e-07
-2.69081e-05
-7.76317e-07
-2.68195e-05
-7.90467e-07
-2.67361e-05
-8.05877e-07
-2.66579e-05
-8.22916e-07
-2.6585e-05
-8.42003e-07
-2.65174e-05
-8.63645e-07
-2.64548e-05
-8.88569e-07
-2.63966e-05
-9.17601e-07
-2.63424e-05
-9.51595e-07
-2.62915e-05
-9.91507e-07
-2.6243e-05
-1.0383e-06
-2.61962e-05
-1.0927e-06
-2.61504e-05
-1.15482e-06
-2.61053e-05
-1.22337e-06
-2.60612e-05
-1.29465e-06
-2.60203e-05
-1.36078e-06
-2.59866e-05
-1.40679e-06
-2.59664e-05
-1.40642e-06
-2.59676e-05
-1.31679e-06
-2.60019e-05
-1.07567e-06
-2.61137e-05
-6.0486e-07
-2.62944e-05
1.62772e-07
-2.68065e-05
1.29566e-06
-2.78321e-05
3.288e-06
-2.97578e-05
6.94662e-06
-3.33063e-05
1.4243e-05
3.11908e-05
-3.79322e-05
-3.69989e-05
-8.10005e-08
-3.69741e-05
-1.78286e-07
-3.69419e-05
-2.35551e-07
-3.69039e-05
-2.69456e-07
-3.6862e-05
-2.90723e-07
-3.68176e-05
-3.04921e-07
-3.67714e-05
-3.149e-07
-3.6724e-05
-3.22515e-07
-3.66757e-05
-3.2868e-07
-3.66266e-05
-3.34073e-07
-3.6577e-05
-3.38981e-07
-3.65268e-05
-3.43668e-07
-3.64762e-05
-3.48219e-07
-3.64251e-05
-3.52746e-07
-3.63736e-05
-3.57272e-07
-3.63218e-05
-3.6185e-07
-3.62696e-05
-3.66488e-07
-3.62171e-05
-3.71218e-07
-3.61643e-05
-3.76045e-07
-3.61112e-05
-3.80949e-07
-3.60578e-05
-3.85953e-07
-3.60041e-05
-3.911e-07
-3.59503e-05
-3.96314e-07
-3.58963e-05
-4.01624e-07
-3.58419e-05
-4.07015e-07
-3.57873e-05
-4.1234e-07
-3.57325e-05
-4.1762e-07
-3.56776e-05
-4.22922e-07
-3.56226e-05
-4.28286e-07
-3.55676e-05
-4.33725e-07
-3.55127e-05
-4.39256e-07
-3.54578e-05
-4.44881e-07
-3.5403e-05
-4.50611e-07
-3.53484e-05
-4.56446e-07
-3.52941e-05
-4.62392e-07
-3.52401e-05
-4.68441e-07
-3.51866e-05
-4.7459e-07
-3.51336e-05
-4.80849e-07
-3.50813e-05
-4.87218e-07
-3.50296e-05
-4.93689e-07
-3.49789e-05
-5.00268e-07
-3.49292e-05
-5.06942e-07
-3.48807e-05
-5.13704e-07
-3.48335e-05
-5.20554e-07
-3.47879e-05
-5.27478e-07
-3.4744e-05
-5.3446e-07
-3.47022e-05
-5.41487e-07
-3.46626e-05
-5.48535e-07
-3.46256e-05
-5.55569e-07
-3.45915e-05
-5.62501e-07
-3.45605e-05
-5.69281e-07
-3.45328e-05
-5.76133e-07
-3.4508e-05
-5.8306e-07
-3.44861e-05
-5.89805e-07
-3.44673e-05
-5.96333e-07
-3.44518e-05
-6.02714e-07
-3.44398e-05
-6.08922e-07
-3.44315e-05
-6.14886e-07
-3.44272e-05
-6.20596e-07
-3.44271e-05
-6.26092e-07
-3.44317e-05
-6.31378e-07
-3.44411e-05
-6.36407e-07
-3.44558e-05
-6.41155e-07
-3.44761e-05
-6.45612e-07
-3.45023e-05
-6.49797e-07
-3.45347e-05
-6.53739e-07
-3.45738e-05
-6.57479e-07
-3.46197e-05
-6.61065e-07
-3.46728e-05
-6.64578e-07
-3.47333e-05
-6.68115e-07
-3.48014e-05
-6.71803e-07
-3.48773e-05
-6.75822e-07
-3.4961e-05
-6.80377e-07
-3.50525e-05
-6.85741e-07
-3.51516e-05
-6.92254e-07
-3.52579e-05
-7.00332e-07
-3.5371e-05
-7.10498e-07
-3.54904e-05
-7.23347e-07
-3.56152e-05
-7.39484e-07
-3.57446e-05
-7.59814e-07
-3.58774e-05
-7.85335e-07
-3.60125e-05
-8.16959e-07
-3.61489e-05
-8.55666e-07
-3.62852e-05
-9.02359e-07
-3.64207e-05
-9.57608e-07
-3.65547e-05
-1.02119e-06
-3.66871e-05
-1.09129e-06
-3.68185e-05
-1.16346e-06
-3.69506e-05
-1.22897e-06
-3.70854e-05
-1.27214e-06
-3.72251e-05
-1.26689e-06
-3.7369e-05
-1.17298e-06
-3.75167e-05
-9.28065e-07
-3.76661e-05
-4.5552e-07
-3.7823e-05
3.19664e-07
-3.81211e-05
1.59375e-06
-3.86795e-05
3.84641e-06
-3.96703e-05
7.93741e-06
-4.12776e-05
1.58503e-05
3.12526e-05
-4.13395e-05
-3.97377e-05
-1.01139e-07
-3.973e-05
-1.95976e-07
-3.9721e-05
-2.54607e-07
-3.97097e-05
-2.9064e-07
-3.96966e-05
-3.13504e-07
-3.96825e-05
-3.28498e-07
-3.96679e-05
-3.38832e-07
-3.96531e-05
-3.4641e-07
-3.96384e-05
-3.52345e-07
-3.96239e-05
-3.57312e-07
-3.96098e-05
-3.61697e-07
-3.95961e-05
-3.65743e-07
-3.95829e-05
-3.69585e-07
-3.95704e-05
-3.73312e-07
-3.95585e-05
-3.76975e-07
-3.95474e-05
-3.80605e-07
-3.95372e-05
-3.84222e-07
-3.95279e-05
-3.8784e-07
-3.95197e-05
-3.91482e-07
-3.95125e-05
-3.95095e-07
-3.95067e-05
-3.98673e-07
-3.95022e-05
-4.02283e-07
-3.94992e-05
-4.05847e-07
-3.94978e-05
-4.09383e-07
-3.9498e-05
-4.13085e-07
-3.94996e-05
-4.16869e-07
-3.95025e-05
-4.20615e-07
-3.95069e-05
-4.24329e-07
-3.95128e-05
-4.2803e-07
-3.95204e-05
-4.31724e-07
-3.95296e-05
-4.35423e-07
-3.95406e-05
-4.39127e-07
-3.95535e-05
-4.42841e-07
-3.95683e-05
-4.46558e-07
-3.95853e-05
-4.50281e-07
-3.96044e-05
-4.53996e-07
-3.96259e-05
-4.57702e-07
-3.96498e-05
-4.61391e-07
-3.96763e-05
-4.65061e-07
-3.97055e-05
-4.68711e-07
-3.97375e-05
-4.72339e-07
-3.97725e-05
-4.75925e-07
-3.98106e-05
-4.79465e-07
-3.98519e-05
-4.82956e-07
-3.98966e-05
-4.8639e-07
-3.99448e-05
-4.8975e-07
-3.99966e-05
-4.93029e-07
-4.00521e-05
-4.96216e-07
-4.01115e-05
-4.99279e-07
-4.01748e-05
-5.02185e-07
-4.0242e-05
-5.0493e-07
-4.03133e-05
-5.07606e-07
-4.03888e-05
-5.10214e-07
-4.04685e-05
-5.12611e-07
-4.05525e-05
-5.14744e-07
-4.06409e-05
-5.16624e-07
-4.07337e-05
-5.18234e-07
-4.08311e-05
-5.19554e-07
-4.09331e-05
-5.2059e-07
-4.10396e-05
-5.214e-07
-4.11507e-05
-5.22031e-07
-4.12663e-05
-5.22458e-07
-4.13863e-05
-5.22634e-07
-4.15108e-05
-5.22574e-07
-4.16396e-05
-5.22334e-07
-4.17726e-05
-5.21965e-07
-4.19097e-05
-5.2154e-07
-4.20507e-05
-5.21132e-07
-4.21954e-05
-5.20838e-07
-4.23436e-05
-5.20776e-07
-4.24951e-05
-5.21091e-07
-4.26497e-05
-5.21969e-07
-4.28071e-05
-5.23634e-07
-4.29671e-05
-5.26367e-07
-4.31293e-05
-5.30511e-07
-4.32937e-05
-5.36483e-07
-4.34598e-05
-5.44801e-07
-4.36273e-05
-5.56142e-07
-4.37962e-05
-5.70984e-07
-4.3966e-05
-5.90262e-07
-4.41365e-05
-6.15092e-07
-4.43073e-05
-6.46276e-07
-4.44784e-05
-6.84743e-07
-4.46496e-05
-7.31298e-07
-4.4821e-05
-7.86381e-07
-4.49926e-05
-8.49647e-07
-4.51648e-05
-9.19116e-07
-4.53382e-05
-9.90165e-07
-4.55131e-05
-1.05415e-06
-4.56891e-05
-1.09616e-06
-4.58638e-05
-1.09224e-06
-4.60302e-05
-1.00658e-06
-4.61734e-05
-7.84848e-07
-4.62732e-05
-3.55763e-07
-4.6333e-05
3.79492e-07
-4.63923e-05
1.65301e-06
-4.64666e-05
3.92071e-06
-4.65556e-05
8.02646e-06
-4.63352e-05
1.56299e-05
2.8425e-05
-4.35076e-05
-4.26361e-05
-1.07431e-07
-4.26502e-05
-1.91582e-07
-4.26694e-05
-2.4498e-07
-4.2691e-05
-2.78543e-07
-4.2714e-05
-2.99874e-07
-4.27382e-05
-3.13535e-07
-4.27634e-05
-3.22611e-07
-4.27898e-05
-3.28859e-07
-4.28175e-05
-3.33424e-07
-4.28464e-05
-3.36927e-07
-4.28767e-05
-3.39793e-07
-4.29084e-05
-3.4223e-07
-4.29417e-05
-3.44402e-07
-4.29765e-05
-3.46376e-07
-4.30131e-05
-3.48219e-07
-4.30514e-05
-3.49947e-07
-4.30915e-05
-3.51591e-07
-4.31336e-05
-3.53147e-07
-4.31776e-05
-3.54671e-07
-4.32237e-05
-3.56094e-07
-4.3272e-05
-3.57363e-07
-4.33225e-05
-3.58591e-07
-4.33753e-05
-3.59794e-07
-4.34303e-05
-3.6095e-07
-4.34876e-05
-3.62171e-07
-4.35474e-05
-3.63411e-07
-4.36097e-05
-3.64591e-07
-4.36744e-05
-3.65709e-07
-4.37417e-05
-3.66768e-07
-4.38115e-05
-3.67775e-07
-4.3884e-05
-3.68739e-07
-4.39591e-05
-3.69669e-07
-4.40369e-05
-3.70572e-07
-4.41175e-05
-3.71446e-07
-4.42009e-05
-3.723e-07
-4.4287e-05
-3.73125e-07
-4.43759e-05
-3.73932e-07
-4.44677e-05
-3.74714e-07
-4.45622e-05
-3.7547e-07
-4.46596e-05
-3.76203e-07
-4.47598e-05
-3.76929e-07
-4.48628e-05
-3.77641e-07
-4.49685e-05
-3.78338e-07
-4.50769e-05
-3.79024e-07
-4.5188e-05
-3.79703e-07
-4.53017e-05
-3.80364e-07
-4.54179e-05
-3.81007e-07
-4.55366e-05
-3.81631e-07
-4.56576e-05
-3.82217e-07
-4.5781e-05
-3.8274e-07
-4.59065e-05
-3.83212e-07
-4.60341e-05
-3.83678e-07
-4.61638e-05
-3.84131e-07
-4.62954e-05
-3.84494e-07
-4.64288e-05
-3.84732e-07
-4.65638e-05
-3.84831e-07
-4.67005e-05
-3.84769e-07
-4.68385e-05
-3.84535e-07
-4.69779e-05
-3.8413e-07
-4.71185e-05
-3.83605e-07
-4.72602e-05
-3.83041e-07
-4.74029e-05
-3.8241e-07
-4.75464e-05
-3.81586e-07
-4.76908e-05
-3.80577e-07
-4.78359e-05
-3.79448e-07
-4.79818e-05
-3.78229e-07
-4.81283e-05
-3.76998e-07
-4.82756e-05
-3.75815e-07
-4.84234e-05
-3.74757e-07
-4.8572e-05
-3.73934e-07
-4.87212e-05
-3.73481e-07
-4.8871e-05
-3.73562e-07
-4.90217e-05
-3.74388e-07
-4.91731e-05
-3.76239e-07
-4.93253e-05
-3.79456e-07
-4.94784e-05
-3.8445e-07
-4.96325e-05
-3.91729e-07
-4.97876e-05
-4.01967e-07
-4.99438e-05
-4.15673e-07
-5.01013e-05
-4.33538e-07
-5.02605e-05
-4.56567e-07
-5.04216e-05
-4.85732e-07
-5.0585e-05
-5.21969e-07
-5.07507e-05
-5.66009e-07
-5.09193e-05
-6.18245e-07
-5.1091e-05
-6.78379e-07
-5.12659e-05
-7.44501e-07
-5.14442e-05
-8.1218e-07
-5.16251e-05
-8.73501e-07
-5.18062e-05
-9.15251e-07
-5.19818e-05
-9.16767e-07
-5.21406e-05
-8.47925e-07
-5.22585e-05
-6.67003e-07
-5.23065e-05
-3.07793e-07
-5.22668e-05
3.39796e-07
-5.21118e-05
1.49792e-06
-5.17594e-05
3.56825e-06
-5.10393e-05
7.30641e-06
-4.93356e-05
1.39261e-05
2.38319e-05
-4.47425e-05
-4.56131e-05
-9.82259e-08
-4.56499e-05
-1.63572e-07
-4.56974e-05
-2.06295e-07
-4.57509e-05
-2.3364e-07
-4.58084e-05
-2.50846e-07
-4.58688e-05
-2.61481e-07
-4.59315e-05
-2.68115e-07
-4.59962e-05
-2.72222e-07
-4.60628e-05
-2.74802e-07
-4.61311e-05
-2.764e-07
-4.62012e-05
-2.77392e-07
-4.6273e-05
-2.7797e-07
-4.63465e-05
-2.78285e-07
-4.64218e-05
-2.78401e-07
-4.64988e-05
-2.78389e-07
-4.65775e-05
-2.78262e-07
-4.66581e-05
-2.78059e-07
-4.67403e-05
-2.77776e-07
-4.68243e-05
-2.77469e-07
-4.69101e-05
-2.7709e-07
-4.69975e-05
-2.76537e-07
-4.70869e-05
-2.75798e-07
-4.71782e-05
-2.7495e-07
-4.72715e-05
-2.74038e-07
-4.73668e-05
-2.73149e-07
-4.74642e-05
-2.7226e-07
-4.75636e-05
-2.71348e-07
-4.7665e-05
-2.704e-07
-4.77684e-05
-2.69431e-07
-4.78736e-05
-2.6844e-07
-4.79808e-05
-2.67456e-07
-4.80898e-05
-2.66483e-07
-4.82006e-05
-2.65555e-07
-4.83132e-05
-2.64661e-07
-4.84273e-05
-2.63832e-07
-4.85431e-05
-2.63054e-07
-4.86602e-05
-2.6235e-07
-4.87788e-05
-2.61708e-07
-4.88987e-05
-2.61154e-07
-4.90198e-05
-2.60686e-07
-4.91419e-05
-2.60314e-07
-4.9265e-05
-2.60035e-07
-4.93889e-05
-2.59853e-07
-4.95136e-05
-2.59767e-07
-4.9639e-05
-2.59783e-07
-4.97649e-05
-2.59884e-07
-4.98913e-05
-2.60063e-07
-5.0018e-05
-2.6032e-07
-5.0145e-05
-2.60639e-07
-5.02722e-05
-2.60985e-07
-5.03995e-05
-2.6136e-07
-5.05268e-05
-2.61788e-07
-5.0654e-05
-2.62241e-07
-5.07813e-05
-2.62655e-07
-5.09084e-05
-2.62993e-07
-5.10354e-05
-2.63226e-07
-5.11622e-05
-2.63319e-07
-5.12888e-05
-2.63244e-07
-5.14153e-05
-2.62983e-07
-5.15416e-05
-2.62562e-07
-5.16678e-05
-2.62109e-07
-5.17938e-05
-2.61608e-07
-5.19198e-05
-2.60798e-07
-5.20458e-05
-2.59674e-07
-5.2172e-05
-2.58325e-07
-5.22985e-05
-2.56783e-07
-5.24253e-05
-2.55102e-07
-5.25526e-05
-2.53336e-07
-5.26805e-05
-2.51551e-07
-5.28093e-05
-2.49842e-07
-5.2939e-05
-2.48328e-07
-5.30699e-05
-2.47164e-07
-5.3202e-05
-2.46554e-07
-5.33357e-05
-2.4676e-07
-5.34711e-05
-2.48114e-07
-5.36085e-05
-2.51019e-07
-5.37481e-05
-2.55954e-07
-5.38904e-05
-2.63435e-07
-5.40354e-05
-2.74227e-07
-5.41831e-05
-2.89157e-07
-5.4334e-05
-3.08954e-07
-5.44883e-05
-3.34494e-07
-5.46465e-05
-3.66677e-07
-5.48091e-05
-4.06167e-07
-5.49766e-05
-4.53324e-07
-5.51493e-05
-5.0808e-07
-5.53272e-05
-5.68876e-07
-5.55097e-05
-6.31683e-07
-5.56953e-05
-6.89846e-07
-5.58797e-05
-7.32503e-07
-5.60548e-05
-7.43179e-07
-5.62057e-05
-6.98232e-07
-5.63045e-05
-5.69261e-07
-5.63125e-05
-3.00618e-07
-5.61842e-05
2.10909e-07
-5.58455e-05
1.1587e-06
-5.51298e-05
2.85188e-06
-5.37282e-05
5.90387e-06
-5.09165e-05
1.11133e-05
1.82146e-05
-4.53008e-05
-4.82754e-05
-7.65854e-08
-4.83275e-05
-1.18773e-07
-4.83927e-05
-1.48466e-07
-4.8466e-05
-1.67479e-07
-4.85446e-05
-1.79256e-07
-4.86267e-05
-1.86257e-07
-4.87112e-05
-1.90268e-07
-4.87977e-05
-1.92385e-07
-4.88856e-05
-1.93317e-07
-4.89748e-05
-1.93487e-07
-4.90653e-05
-1.93171e-07
-4.91568e-05
-1.92521e-07
-4.92494e-05
-1.91652e-07
-4.93431e-05
-1.90623e-07
-4.94378e-05
-1.89488e-07
-4.95335e-05
-1.88266e-07
-4.96301e-05
-1.86985e-07
-4.97278e-05
-1.85644e-07
-4.98265e-05
-1.84224e-07
-4.99262e-05
-1.82734e-07
-5.00269e-05
-1.81252e-07
-5.01282e-05
-1.79711e-07
-5.02303e-05
-1.78096e-07
-5.0333e-05
-1.76473e-07
-5.04364e-05
-1.7491e-07
-5.05403e-05
-1.73391e-07
-5.06448e-05
-1.71927e-07
-5.07497e-05
-1.70494e-07
-5.0855e-05
-1.69125e-07
-5.09606e-05
-1.6779e-07
-5.10665e-05
-1.66545e-07
-5.11726e-05
-1.65364e-07
-5.12788e-05
-1.64309e-07
-5.13851e-05
-1.63341e-07
-5.14915e-05
-1.62513e-07
-5.15978e-05
-1.61786e-07
-5.1704e-05
-1.61196e-07
-5.18101e-05
-1.6071e-07
-5.19161e-05
-1.60359e-07
-5.20219e-05
-1.6014e-07
-5.21274e-05
-1.60043e-07
-5.22328e-05
-1.60064e-07
-5.23378e-05
-1.60198e-07
-5.24427e-05
-1.6044e-07
-5.25473e-05
-1.60786e-07
-5.26517e-05
-1.61216e-07
-5.27559e-05
-1.6171e-07
-5.28598e-05
-1.62262e-07
-5.29637e-05
-1.62855e-07
-5.30674e-05
-1.63457e-07
-5.3171e-05
-1.64049e-07
-5.32745e-05
-1.64628e-07
-5.33782e-05
-1.65171e-07
-5.34819e-05
-1.65621e-07
-5.35858e-05
-1.65934e-07
-5.36899e-05
-1.66077e-07
-5.37944e-05
-1.6601e-07
-5.38992e-05
-1.657e-07
-5.40045e-05
-1.6512e-07
-5.41104e-05
-1.64244e-07
-5.4217e-05
-1.63279e-07
-5.43243e-05
-1.62337e-07
-5.44323e-05
-1.60887e-07
-5.45413e-05
-1.58944e-07
-5.46514e-05
-1.56627e-07
-5.47627e-05
-1.54002e-07
-5.48755e-05
-1.51104e-07
-5.49898e-05
-1.47965e-07
-5.51057e-05
-1.44644e-07
-5.52235e-05
-1.41217e-07
-5.53434e-05
-1.37795e-07
-5.54655e-05
-1.34517e-07
-5.559e-05
-1.31581e-07
-5.57172e-05
-1.29229e-07
-5.58474e-05
-1.2778e-07
-5.59807e-05
-1.27617e-07
-5.61174e-05
-1.29198e-07
-5.62579e-05
-1.33001e-07
-5.64024e-05
-1.39841e-07
-5.65511e-05
-1.50589e-07
-5.67044e-05
-1.65917e-07
-5.68626e-05
-1.86602e-07
-5.70261e-05
-2.13468e-07
-5.71955e-05
-2.47152e-07
-5.73713e-05
-2.87932e-07
-5.75536e-05
-3.36142e-07
-5.77419e-05
-3.90959e-07
-5.79351e-05
-4.48734e-07
-5.81307e-05
-5.0448e-07
-5.8323e-05
-5.50218e-07
-5.85018e-05
-5.74035e-07
-5.86495e-05
-5.5986e-07
-5.87386e-05
-4.88897e-07
-5.87205e-05
-3.26625e-07
-5.852e-05
3.49047e-09
-5.80389e-05
6.71076e-07
-5.70395e-05
1.84506e-06
-5.51173e-05
3.97232e-06
-5.15366e-05
7.52057e-06
1.20378e-05
-4.53747e-05
-5.02578e-05
-4.29859e-08
-5.0316e-05
-6.58235e-08
-5.03875e-05
-8.20311e-08
-5.04674e-05
-9.24084e-08
-5.05526e-05
-9.87993e-08
-5.06409e-05
-1.02588e-07
-5.07309e-05
-1.04691e-07
-5.08219e-05
-1.0571e-07
-5.09134e-05
-1.06029e-07
-5.10051e-05
-1.05875e-07
-5.10968e-05
-1.05418e-07
-5.11884e-05
-1.04738e-07
-5.12798e-05
-1.03907e-07
-5.13711e-05
-1.02967e-07
-5.14621e-05
-1.01953e-07
-5.15529e-05
-1.00878e-07
-5.16435e-05
-9.97607e-08
-5.17337e-05
-9.86009e-08
-5.18237e-05
-9.7367e-08
-5.19134e-05
-9.60963e-08
-5.20027e-05
-9.49296e-08
-5.20914e-05
-9.3844e-08
-5.21797e-05
-9.27714e-08
-5.22673e-05
-9.17353e-08
-5.23543e-05
-9.07642e-08
-5.24407e-05
-8.98506e-08
-5.25265e-05
-8.90021e-08
-5.26117e-05
-8.82001e-08
-5.26963e-05
-8.74605e-08
-5.27803e-05
-8.67591e-08
-5.28637e-05
-8.61313e-08
-5.29465e-05
-8.55616e-08
-5.30288e-05
-8.50926e-08
-5.31106e-05
-8.46975e-08
-5.3192e-05
-8.44084e-08
-5.32728e-05
-8.4198e-08
-5.33533e-05
-8.40853e-08
-5.34334e-05
-8.40368e-08
-5.35133e-05
-8.40767e-08
-5.35928e-05
-8.41993e-08
-5.36722e-05
-8.44014e-08
-5.37514e-05
-8.46629e-08
-5.38305e-05
-8.49795e-08
-5.39097e-05
-8.5343e-08
-5.39889e-05
-8.57483e-08
-5.40682e-05
-8.6176e-08
-5.41477e-05
-8.6611e-08
-5.42274e-05
-8.70307e-08
-5.43075e-05
-8.74031e-08
-5.4388e-05
-8.77238e-08
-5.4469e-05
-8.7983e-08
-5.45506e-05
-8.81409e-08
-5.46329e-05
-8.81732e-08
-5.47159e-05
-8.80388e-08
-5.47997e-05
-8.76912e-08
-5.48845e-05
-8.70963e-08
-5.49702e-05
-8.62193e-08
-5.50571e-05
-8.50123e-08
-5.51451e-05
-8.34629e-08
-5.52345e-05
-8.1458e-08
-5.53254e-05
-7.92173e-08
-5.54175e-05
-7.73344e-08
-5.55111e-05
-7.46234e-08
-5.56065e-05
-7.1214e-08
-5.57038e-05
-6.7328e-08
-5.5803e-05
-6.30414e-08
-5.59044e-05
-5.83713e-08
-5.60079e-05
-5.33375e-08
-5.61139e-05
-4.79817e-08
-5.62225e-05
-4.23695e-08
-5.63339e-05
-3.65974e-08
-5.64482e-05
-3.07905e-08
-5.65656e-05
-2.513e-08
-5.66865e-05
-1.98435e-08
-5.68111e-05
-1.52249e-08
-5.69396e-05
-1.16377e-08
-5.70724e-05
-9.50697e-09
-5.72098e-05
-9.35055e-09
-5.7352e-05
-1.18802e-08
-5.74997e-05
-1.78526e-08
-5.76533e-05
-2.79695e-08
-5.78134e-05
-4.29989e-08
-5.79804e-05
-6.37097e-08
-5.81549e-05
-9.0833e-08
-5.83375e-05
-1.2443e-07
-5.85286e-05
-1.65243e-07
-5.8727e-05
-2.1402e-07
-5.89315e-05
-2.66915e-07
-5.91392e-05
-3.21034e-07
-5.93435e-05
-3.71724e-07
-5.95335e-05
-4.11657e-07
-5.969e-05
-4.32654e-07
-5.97855e-05
-4.24491e-07
-5.97687e-05
-3.76197e-07
-5.95609e-05
-2.38619e-07
-5.89951e-05
7.04945e-08
-5.78286e-05
6.42104e-07
-5.5586e-05
1.687e-06
-5.15415e-05
3.42379e-06
5.56087e-06
-4.51254e-05
-5.11474e-05
-3.71498e-09
-5.12049e-05
-1.07052e-08
-5.12754e-05
-1.38991e-08
-5.13541e-05
-1.59738e-08
-5.14375e-05
-1.75591e-08
-5.15233e-05
-1.88257e-08
-5.16101e-05
-1.98416e-08
-5.16971e-05
-2.06371e-08
-5.17837e-05
-2.12702e-08
-5.18695e-05
-2.17409e-08
-5.19546e-05
-2.21087e-08
-5.20386e-05
-2.23676e-08
-5.21215e-05
-2.25316e-08
-5.22034e-05
-2.26305e-08
-5.22842e-05
-2.26658e-08
-5.23639e-05
-2.26479e-08
-5.24425e-05
-2.25743e-08
-5.252e-05
-2.24471e-08
-5.25965e-05
-2.22503e-08
-5.26719e-05
-2.20277e-08
-5.27464e-05
-2.18403e-08
-5.28199e-05
-2.16858e-08
-5.28924e-05
-2.15203e-08
-5.29642e-05
-2.13612e-08
-5.3035e-05
-2.12109e-08
-5.31051e-05
-2.1077e-08
-5.31745e-05
-2.0954e-08
-5.32432e-05
-2.08427e-08
-5.33113e-05
-2.07194e-08
-5.33789e-05
-2.06014e-08
-5.34459e-05
-2.04784e-08
-5.35125e-05
-2.03869e-08
-5.35787e-05
-2.03102e-08
-5.36445e-05
-2.02758e-08
-5.37101e-05
-2.02613e-08
-5.37755e-05
-2.02898e-08
-5.38407e-05
-2.03415e-08
-5.39058e-05
-2.04164e-08
-5.39708e-05
-2.05115e-08
-5.40359e-05
-2.06224e-08
-5.41011e-05
-2.07552e-08
-5.41664e-05
-2.08862e-08
-5.4232e-05
-2.10111e-08
-5.42978e-05
-2.11169e-08
-5.43639e-05
-2.12003e-08
-5.44305e-05
-2.12425e-08
-5.44975e-05
-2.1229e-08
-5.4565e-05
-2.1133e-08
-5.46332e-05
-2.09242e-08
-5.4702e-05
-2.05988e-08
-5.47715e-05
-2.0151e-08
-5.48419e-05
-1.95307e-08
-5.49131e-05
-1.87065e-08
-5.49853e-05
-1.76529e-08
-5.50585e-05
-1.63147e-08
-5.51328e-05
-1.46552e-08
-5.52083e-05
-1.26519e-08
-5.5285e-05
-1.02443e-08
-5.53631e-05
-7.38036e-09
-5.54425e-05
-4.07895e-09
-5.55238e-05
5.60426e-11
-5.56061e-05
2.86817e-09
-5.56901e-05
7.14712e-09
-5.5776e-05
1.2364e-08
-5.58639e-05
1.80958e-08
-5.59539e-05
2.43059e-08
-5.6046e-05
3.1003e-08
-5.61405e-05
3.81841e-08
-5.62374e-05
4.58233e-08
-5.6337e-05
5.38666e-08
-5.64394e-05
6.2234e-08
-5.65449e-05
7.08186e-08
-5.66536e-05
7.94597e-08
-5.67659e-05
8.79486e-08
-5.68819e-05
9.60198e-08
-5.70021e-05
1.03338e-07
-5.71267e-05
1.09503e-07
-5.7256e-05
1.14015e-07
-5.73906e-05
1.16246e-07
-5.75308e-05
1.15521e-07
-5.76772e-05
1.11156e-07
-5.78303e-05
1.02403e-07
-5.79907e-05
8.84951e-08
-5.81588e-05
6.87851e-08
-5.83347e-05
4.25839e-08
-5.85194e-05
1.0179e-08
-5.87108e-05
-3.22478e-08
-5.89086e-05
-7.98264e-08
-5.91094e-05
-1.32313e-07
-5.93062e-05
-1.88593e-07
-5.94878e-05
-2.45814e-07
-5.96366e-05
-3.02325e-07
-5.97224e-05
-3.60714e-07
-5.97013e-05
-4.23584e-07
-5.94843e-05
-4.87854e-07
-5.89047e-05
-5.48962e-07
-5.7687e-05
-6.21746e-07
-5.53311e-05
-7.18749e-07
-5.11052e-05
-8.52931e-07
-9.7497e-07
-4.46141e-05
-5.06173e-05
3.44379e-08
-5.06746e-05
4.66027e-08
-5.07458e-05
5.72525e-08
-5.08257e-05
6.38141e-08
-5.09106e-05
6.73451e-08
-5.09984e-05
6.88779e-08
-5.10876e-05
6.92223e-08
-5.11772e-05
6.88876e-08
-5.12668e-05
6.81787e-08
-5.13559e-05
6.72789e-08
-5.14444e-05
6.62891e-08
-5.15322e-05
6.52604e-08
-5.16191e-05
6.42498e-08
-5.17051e-05
6.32442e-08
-5.17902e-05
6.22755e-08
-5.18743e-05
6.13378e-08
-5.19575e-05
6.04527e-08
-5.20397e-05
5.96154e-08
-5.21209e-05
5.88414e-08
-5.22011e-05
5.80923e-08
-5.22803e-05
5.7349e-08
-5.23586e-05
5.66058e-08
-5.24361e-05
5.58941e-08
-5.25126e-05
5.5197e-08
-5.25883e-05
5.45274e-08
-5.26631e-05
5.3872e-08
-5.27372e-05
5.32408e-08
-5.28104e-05
5.26288e-08
-5.2883e-05
5.2078e-08
-5.29548e-05
5.15658e-08
-5.30261e-05
5.11151e-08
-5.30967e-05
5.06732e-08
-5.31668e-05
5.02731e-08
-5.32364e-05
4.98728e-08
-5.33056e-05
4.95141e-08
-5.33743e-05
4.91565e-08
-5.34427e-05
4.8841e-08
-5.35108e-05
4.85431e-08
-5.35787e-05
4.82898e-08
-5.36464e-05
4.80795e-08
-5.3714e-05
4.79235e-08
-5.37816e-05
4.78194e-08
-5.38491e-05
4.77795e-08
-5.39167e-05
4.78201e-08
-5.39845e-05
4.79553e-08
-5.40524e-05
4.81981e-08
-5.41206e-05
4.85689e-08
-5.41891e-05
4.90894e-08
-5.42581e-05
4.97842e-08
-5.43274e-05
5.06659e-08
-5.43973e-05
5.17502e-08
-5.44678e-05
5.30748e-08
-5.4539e-05
5.46745e-08
-5.46109e-05
5.65763e-08
-5.46836e-05
5.88349e-08
-5.47572e-05
6.14969e-08
-5.48318e-05
6.45565e-08
-5.49073e-05
6.80972e-08
-5.4984e-05
7.21868e-08
-5.50618e-05
7.68114e-08
-5.51404e-05
8.18611e-08
-5.5221e-05
8.68096e-08
-5.53031e-05
9.27625e-08
-5.53867e-05
9.96082e-08
-5.54718e-05
1.07134e-07
-5.55586e-05
1.15291e-07
-5.56473e-05
1.24083e-07
-5.5738e-05
1.33514e-07
-5.58308e-05
1.43574e-07
-5.59259e-05
1.54216e-07
-5.60235e-05
1.65383e-07
-5.61237e-05
1.76992e-07
-5.62268e-05
1.88906e-07
-5.6333e-05
2.0094e-07
-5.64425e-05
2.12859e-07
-5.65557e-05
2.24362e-07
-5.66729e-05
2.35077e-07
-5.67944e-05
2.44541e-07
-5.69206e-05
2.52193e-07
-5.70519e-05
2.57417e-07
-5.71888e-05
2.5956e-07
-5.73319e-05
2.5789e-07
-5.74816e-05
2.51617e-07
-5.76382e-05
2.40068e-07
-5.7802e-05
2.22318e-07
-5.79721e-05
1.97558e-07
-5.81497e-05
1.64396e-07
-5.83313e-05
1.23305e-07
-5.85121e-05
7.282e-08
-5.86845e-05
1.13501e-08
-5.88386e-05
-6.06159e-08
-5.89573e-05
-1.48904e-07
-5.90114e-05
-2.67973e-07
-5.89539e-05
-4.37989e-07
-5.87009e-05
-6.92665e-07
-5.80956e-05
-1.10069e-06
-5.68602e-05
-1.79764e-06
-5.45076e-05
-3.00589e-06
-5.03351e-05
-4.95502e-06
-7.28983e-06
-4.39509e-05
-4.89564e-05
6.38277e-08
-4.90103e-05
1.02365e-07
-4.90787e-05
1.27614e-07
-4.91566e-05
1.43573e-07
-4.92404e-05
1.53039e-07
-4.9328e-05
1.58287e-07
-4.9418e-05
1.61034e-07
-4.95095e-05
1.62238e-07
-4.9602e-05
1.62588e-07
-4.96953e-05
1.62389e-07
-4.97891e-05
1.61935e-07
-4.98833e-05
1.61281e-07
-4.99777e-05
1.6054e-07
-5.00724e-05
1.59734e-07
-5.01671e-05
1.58906e-07
-5.0262e-05
1.58054e-07
-5.03569e-05
1.57207e-07
-5.04517e-05
1.56358e-07
-5.05465e-05
1.55521e-07
-5.06412e-05
1.54662e-07
-5.07356e-05
1.53779e-07
-5.08299e-05
1.52866e-07
-5.0924e-05
1.51943e-07
-5.10177e-05
1.50997e-07
-5.11112e-05
1.5004e-07
-5.12043e-05
1.49062e-07
-5.1297e-05
1.48072e-07
-5.13892e-05
1.47068e-07
-5.1481e-05
1.46096e-07
-5.15723e-05
1.45159e-07
-5.1663e-05
1.44263e-07
-5.17533e-05
1.43371e-07
-5.1843e-05
1.42497e-07
-5.19322e-05
1.41625e-07
-5.20208e-05
1.40784e-07
-5.21089e-05
1.39959e-07
-5.21964e-05
1.39181e-07
-5.22833e-05
1.38433e-07
-5.23698e-05