/*--------------------------------*- C++ -*----------------------------------*\
| =========                 |                                                 |
| \\      /  F ield         | OpenFOAM: The Open Source CFD Toolbox           |
|  \\    /   O peration     | Version:  2.1.0                                 |
|   \\  /    A nd           | Web:      www.OpenFOAM.org                      |
|    \\/     M anipulation  |                                                 |
\*---------------------------------------------------------------------------*/
FoamFile
{
    version     2.0;
    format      ascii;
    class       volScalarField;
    location    "0.37";
    object      rho;
}
// * * * * * * * * * * * * * * * * * * * * * * * * * * * * * * * * * * * * * //

dimensions      [1 -3 0 0 0 0 0];

internalField   nonuniform List<scalar> 
6400
(
957.772
957.402
957.043
956.694
956.354
956.022
955.698
955.381
955.072
954.77
954.476
954.189
953.908
953.635
953.369
953.109
952.857
952.61
952.371
952.138
951.911
951.691
951.476
951.268
951.066
950.87
950.679
950.494
950.315
950.141
949.973
949.81
949.652
949.5
949.352
949.209
949.071
948.938
948.81
948.686
948.567
948.452
948.341
948.234
948.132
948.034
947.939
947.848
947.761
947.678
947.598
947.522
947.449
947.38
947.313
947.25
947.19
947.132
947.078
947.025
946.976
946.929
946.884
946.842
946.802
946.765
946.73
946.698
946.668
946.641
946.616
946.593
946.574
946.557
946.542
946.531
946.523
946.518
946.517
946.519
946.527
946.539
946.558
946.584
946.621
946.671
946.741
946.839
946.98
947.193
947.535
948.131
949.28
951.625
955.098
950.364
944.938
944.56
944.555
944.555
955.324
955.011
954.7
954.398
954.103
953.816
953.535
953.261
952.994
952.733
952.479
952.231
951.989
951.754
951.524
951.301
951.083
950.872
950.666
950.465
950.271
950.082
949.898
949.719
949.546
949.378
949.215
949.057
948.904
948.755
948.612
948.473
948.338
948.208
948.082
947.961
947.844
947.73
947.621
947.516
947.415
947.317
947.223
947.133
947.046
946.962
946.882
946.805
946.731
946.66
946.592
946.527
946.465
946.405
946.348
946.293
946.24
946.189
946.141
946.094
946.05
946.007
945.966
945.927
945.889
945.853
945.818
945.785
945.754
945.723
945.694
945.666
945.639
945.614
945.59
945.567
945.545
945.524
945.505
945.486
945.47
945.454
945.44
945.428
945.418
945.41
945.404
945.399
945.397
945.394
945.389
945.374
945.335
945.245
945.068
944.81
944.587
944.556
944.555
944.555
954.089
953.806
953.523
953.246
952.976
952.712
952.455
952.204
951.958
951.718
951.484
951.256
951.034
950.816
950.605
950.399
950.198
950.002
949.811
949.626
949.445
949.27
949.1
948.934
948.773
948.617
948.465
948.318
948.175
948.037
947.903
947.773
947.648
947.526
947.409
947.295
947.185
947.079
946.977
946.878
946.783
946.692
946.604
946.519
946.437
946.359
946.283
946.211
946.141
946.074
946.01
945.948
945.889
945.832
945.777
945.725
945.675
945.627
945.58
945.536
945.494
945.453
945.414
945.376
945.34
945.305
945.271
945.238
945.207
945.176
945.146
945.117
945.089
945.061
945.034
945.007
944.981
944.955
944.929
944.904
944.879
944.855
944.83
944.806
944.783
944.759
944.736
944.714
944.692
944.67
944.65
944.63
944.61
944.593
944.579
944.569
944.558
944.555
944.555
944.555
953.397
953.138
952.875
952.617
952.365
952.119
951.877
951.641
951.411
951.185
950.964
950.749
950.538
950.332
950.131
949.935
949.743
949.556
949.374
949.196
949.022
948.853
948.688
948.527
948.371
948.218
948.07
947.926
947.786
947.649
947.517
947.388
947.264
947.143
947.026
946.912
946.802
946.696
946.593
946.493
946.397
946.305
946.215
946.129
946.046
945.966
945.889
945.815
945.744
945.676
945.611
945.548
945.488
945.431
945.377
945.324
945.275
945.227
945.182
945.139
945.099
945.06
945.023
944.988
944.955
944.924
944.894
944.866
944.839
944.814
944.791
944.768
944.747
944.727
944.709
944.691
944.675
944.66
944.646
944.634
944.622
944.612
944.602
944.594
944.587
944.58
944.575
944.57
944.566
944.563
944.561
944.559
944.558
944.557
944.556
944.556
944.555
944.555
944.555
944.555
953.273
953.034
952.789
952.549
952.312
952.079
951.851
951.627
951.407
951.192
950.981
950.774
950.572
950.373
950.179
949.988
949.802
949.619
949.441
949.266
949.095
948.927
948.764
948.603
948.447
948.294
948.145
947.999
947.856
947.717
947.582
947.449
947.32
947.194
947.072
946.953
946.836
946.724
946.614
946.507
946.404
946.303
946.206
946.112
946.021
945.933
945.849
945.767
945.689
945.613
945.541
945.471
945.405
945.342
945.282
945.224
945.17
945.119
945.07
945.024
944.981
944.941
944.903
944.868
944.836
944.806
944.778
944.752
944.729
944.707
944.688
944.67
944.655
944.641
944.628
944.617
944.607
944.598
944.591
944.584
944.579
944.574
944.57
944.567
944.564
944.562
944.56
944.558
944.557
944.556
944.556
944.555
944.555
944.555
944.555
944.555
944.555
944.555
944.555
944.555
953.922
953.704
953.48
953.259
953.039
952.823
952.61
952.4
952.194
951.992
951.793
951.597
951.405
951.216
951.03
950.847
950.668
950.491
950.318
950.148
949.98
949.816
949.654
949.495
949.34
949.186
949.036
948.888
948.743
948.601
948.461
948.323
948.188
948.055
947.925
947.798
947.672
947.549
947.429
947.31
947.194
947.081
946.97
946.861
946.755
946.651
946.549
946.45
946.354
946.26
946.168
946.079
945.993
945.909
945.828
945.75
945.675
945.602
945.532
945.464
945.4
945.338
945.28
945.224
945.17
945.12
945.072
945.027
944.985
944.945
944.908
944.873
944.841
944.811
944.783
944.757
944.734
944.712
944.692
944.674
944.657
944.642
944.629
944.616
944.605
944.596
944.587
944.579
944.573
944.568
944.563
944.56
944.558
944.556
944.556
944.555
944.555
944.555
944.555
944.555
955.727
955.535
955.34
955.144
954.951
954.759
954.57
954.383
954.2
954.019
953.841
953.666
953.493
953.323
953.156
952.99
952.827
952.666
952.506
952.349
952.193
952.039
951.887
951.737
951.589
951.443
951.298
951.155
951.014
950.875
950.736
950.6
950.464
950.33
950.197
950.065
949.935
949.805
949.676
949.548
949.421
949.295
949.169
949.044
948.92
948.796
948.673
948.55
948.427
948.306
948.184
948.064
947.943
947.824
947.705
947.587
947.469
947.352
947.237
947.122
947.008
946.896
946.785
946.676
946.568
946.462
946.359
946.257
946.157
946.06
945.966
945.874
945.784
945.697
945.613
945.532
945.454
945.378
945.306
945.236
945.169
945.105
945.044
944.985
944.93
944.877
944.827
944.781
944.737
944.698
944.663
944.633
944.609
944.591
944.579
944.573
944.568
944.564
944.562
944.561
959.054
958.896
958.737
958.577
958.419
958.263
958.109
957.957
957.809
957.662
957.518
957.377
957.238
957.1
956.966
956.832
956.702
956.572
956.444
956.318
956.193
956.07
955.948
955.827
955.707
955.588
955.471
955.354
955.238
955.122
955.007
954.892
954.777
954.662
954.547
954.432
954.317
954.201
954.084
953.967
953.848
953.729
953.609
953.487
953.364
953.239
953.112
952.984
952.854
952.722
952.588
952.452
952.314
952.174
952.031
951.886
951.739
951.589
951.437
951.283
951.126
950.967
950.806
950.642
950.476
950.308
950.138
949.966
949.793
949.617
949.44
949.262
949.083
948.902
948.72
948.538
948.354
948.17
947.984
947.798
947.61
947.42
947.229
947.035
946.84
946.642
946.443
946.242
946.041
945.842
945.647
945.461
945.288
945.134
945.006
944.914
944.839
944.779
944.735
944.709
964.256
964.146
964.035
963.925
963.817
963.711
963.608
963.506
963.407
963.31
963.216
963.124
963.035
962.947
962.862
962.779
962.698
962.618
962.541
962.466
962.392
962.319
962.248
962.176
962.106
962.035
961.965
961.894
961.823
961.752
961.681
961.608
961.535
961.461
961.386
961.31
961.233
961.154
961.074
960.992
960.909
960.824
960.737
960.648
960.557
960.465
960.37
960.272
960.173
960.071
959.966
959.859
959.749
959.636
959.52
959.402
959.28
959.155
959.027
958.895
958.759
958.62
958.477
958.329
958.177
958.021
957.859
957.693
957.521
957.345
957.162
956.973
956.778
956.577
956.368
956.151
955.927
955.693
955.449
955.195
954.928
954.648
954.352
954.038
953.705
953.349
952.968
952.558
952.119
951.647
951.144
950.61
950.052
949.476
948.892
948.324
947.838
947.394
947.019
946.751
971.393
971.342
971.29
971.239
971.19
971.142
971.095
971.049
971.005
970.962
970.92
970.88
970.84
970.802
970.764
970.727
970.691
970.656
970.621
970.587
970.553
970.519
970.486
970.452
970.419
970.386
970.353
970.32
970.287
970.253
970.22
970.186
970.152
970.118
970.084
970.049
970.014
969.979
969.943
969.908
969.871
969.835
969.798
969.761
969.724
969.686
969.648
969.61
969.571
969.532
969.492
969.452
969.412
969.371
969.33
969.288
969.246
969.203
969.16
969.117
969.073
969.03
968.985
968.94
968.893
968.845
968.796
968.745
968.692
968.637
968.58
968.52
968.457
968.39
968.32
968.245
968.165
968.08
967.988
967.889
967.782
967.667
967.541
967.404
967.254
967.092
966.914
966.711
966.474
966.198
965.875
965.499
965.061
964.551
963.954
963.251
962.437
961.598
960.801
960.173
978.966
978.968
978.97
978.972
978.973
978.975
978.976
978.977
978.978
978.978
978.978
978.978
978.978
978.978
978.978
978.978
978.977
978.977
978.977
978.978
978.979
978.98
978.981
978.984
978.987
978.99
978.995
979
979.006
979.013
979.021
979.03
979.041
979.052
979.065
979.079
979.094
979.111
979.129
979.148
979.169
979.191
979.215
979.24
979.267
979.295
979.325
979.357
979.39
979.425
979.462
979.502
979.543
979.586
979.632
979.68
979.731
979.784
979.84
979.899
979.96
980.025
980.094
980.167
980.245
980.328
980.416
980.511
980.612
980.72
980.835
980.959
981.091
981.233
981.385
981.547
981.722
981.909
982.109
982.323
982.551
982.794
983.053
983.328
983.618
983.925
984.247
984.594
984.972
985.385
985.841
986.334
986.868
987.447
988.073
988.748
989.469
990.222
990.969
991.637
985.068
985.114
985.161
985.21
985.258
985.307
985.356
985.405
985.454
985.503
985.551
985.6
985.649
985.698
985.746
985.795
985.843
985.892
985.941
985.99
986.04
986.09
986.14
986.19
986.241
986.293
986.346
986.399
986.453
986.508
986.564
986.622
986.68
986.74
986.8
986.863
986.927
986.992
987.06
987.129
987.199
987.272
987.347
987.424
987.504
987.586
987.67
987.757
987.846
987.939
988.034
988.132
988.234
988.338
988.446
988.558
988.673
988.792
988.915
989.043
989.176
989.313
989.456
989.605
989.76
989.921
990.089
990.264
990.447
990.638
990.838
991.046
991.264
991.491
991.727
991.974
992.232
992.499
992.777
993.065
993.363
993.67
993.985
994.308
994.637
994.971
995.308
995.646
995.982
996.314
996.639
996.963
997.289
997.607
997.915
998.209
998.483
998.729
998.938
999.094
989.615
989.681
989.751
989.824
989.898
989.973
990.049
990.125
990.202
990.279
990.356
990.434
990.512
990.591
990.669
990.749
990.828
990.908
990.988
991.069
991.15
991.232
991.314
991.397
991.481
991.565
991.65
991.735
991.822
991.909
991.997
992.086
992.176
992.267
992.359
992.452
992.547
992.642
992.739
992.837
992.937
993.038
993.14
993.244
993.35
993.457
993.565
993.676
993.788
993.902
994.018
994.135
994.255
994.377
994.5
994.626
994.754
994.884
995.017
995.152
995.289
995.428
995.57
995.714
995.86
996.008
996.159
996.311
996.465
996.622
996.78
996.939
997.1
997.261
997.424
997.586
997.748
997.909
998.069
998.227
998.383
998.535
998.682
998.824
998.961
999.09
999.212
999.325
999.428
999.522
999.605
999.676
999.735
999.787
999.832
999.87
999.901
999.926
999.944
999.956
992.911
992.98
993.056
993.134
993.215
993.297
993.379
993.463
993.547
993.631
993.716
993.801
993.887
993.973
994.059
994.145
994.232
994.319
994.407
994.495
994.583
994.672
994.761
994.851
994.941
995.032
995.123
995.214
995.306
995.399
995.491
995.584
995.678
995.772
995.866
995.961
996.056
996.152
996.247
996.343
996.439
996.536
996.632
996.728
996.825
996.921
997.018
997.114
997.21
997.305
997.401
997.496
997.591
997.685
997.779
997.872
997.964
998.056
998.147
998.238
998.327
998.415
998.501
998.587
998.671
998.753
998.833
998.912
998.989
999.064
999.136
999.207
999.274
999.34
999.403
999.463
999.52
999.574
999.625
999.673
999.717
999.758
999.796
999.83
999.861
999.888
999.911
999.931
999.947
999.961
999.972
999.98
999.986
999.989
999.993
999.995
999.996
999.998
999.998
999.999
995.132
995.198
995.27
995.345
995.422
995.501
995.58
995.66
995.74
995.82
995.901
995.981
996.062
996.143
996.224
996.305
996.386
996.467
996.548
996.629
996.71
996.791
996.872
996.953
997.034
997.114
997.194
997.274
997.354
997.434
997.513
997.592
997.67
997.748
997.825
997.902
997.978
998.054
998.129
998.203
998.276
998.348
998.419
998.489
998.558
998.625
998.692
998.757
998.82
998.883
998.944
999.003
999.061
999.117
999.171
999.224
999.275
999.324
999.372
999.417
999.461
999.503
999.542
999.58
999.617
999.651
999.683
999.714
999.742
999.769
999.794
999.818
999.839
999.859
999.878
999.895
999.91
999.924
999.936
999.947
999.957
999.965
999.972
999.979
999.984
999.988
999.991
999.994
999.996
999.997
999.998
999.999
999.999
1000
1000
1000
1000
1000
1000
1000
996.593
996.652
996.716
996.783
996.852
996.921
996.992
997.062
997.132
997.203
997.273
997.343
997.413
997.483
997.552
997.621
997.69
997.759
997.827
997.894
997.961
998.028
998.094
998.159
998.224
998.288
998.352
998.414
998.476
998.537
998.597
998.656
998.715
998.772
998.828
998.883
998.937
998.99
999.042
999.092
999.141
999.189
999.236
999.281
999.324
999.367
999.407
999.447
999.484
999.521
999.555
999.588
999.62
999.65
999.679
999.706
999.731
999.755
999.778
999.799
999.819
999.837
999.854
999.87
999.884
999.898
999.91
999.921
999.931
999.941
999.949
999.956
999.963
999.969
999.974
999.978
999.982
999.986
999.989
999.991
999.993
999.995
999.996
999.997
999.998
999.999
999.999
999.999
1000
1000
1000
1000
1000
1000
1000
1000
1000
1000
1000
1000
997.584
997.634
997.689
997.746
997.804
997.862
997.92
997.978
998.036
998.094
998.151
998.208
998.265
998.321
998.377
998.432
998.487
998.541
998.594
998.647
998.699
998.75
998.801
998.851
998.899
998.948
998.995
999.041
999.087
999.131
999.175
999.217
999.259
999.299
999.338
999.376
999.413
999.448
999.483
999.516
999.548
999.578
999.607
999.636
999.662
999.688
999.712
999.735
999.757
999.778
999.797
999.816
999.833
999.849
999.863
999.877
999.89
999.902
999.913
999.923
999.932
999.94
999.948
999.954
999.961
999.966
999.971
999.975
999.979
999.982
999.985
999.988
999.99
999.992
999.994
999.995
999.996
999.997
999.998
999.998
999.999
999.999
999.999
1000
1000
1000
1000
1000
1000
1000
1000
1000
1000
1000
1000
1000
1000
1000
1000
1000
998.288
998.329
998.374
998.42
998.466
998.512
998.558
998.604
998.65
998.695
998.739
998.784
998.827
998.87
998.913
998.955
998.996
999.037
999.077
999.117
999.155
999.193
999.231
999.267
999.303
999.338
999.372
999.405
999.437
999.469
999.499
999.528
999.557
999.584
999.611
999.636
999.661
999.684
999.707
999.728
999.748
999.768
999.786
999.803
999.82
999.835
999.85
999.863
999.876
999.888
999.899
999.909
999.919
999.928
999.936
999.943
999.95
999.956
999.961
999.966
999.971
999.975
999.978
999.982
999.984
999.987
999.989
999.991
999.992
999.994
999.995
999.996
999.997
999.997
999.998
999.998
999.999
999.999
999.999
1000
1000
1000
1000
1000
1000
1000
1000
1000
1000
1000
1000
1000
1000
1000
1000
1000
1000
1000
1000
1000
998.805
998.838
998.873
998.908
998.943
998.978
999.013
999.048
999.082
999.116
999.15
999.183
999.215
999.247
999.279
999.31
999.34
999.37
999.399
999.427
999.455
999.482
999.509
999.535
999.56
999.584
999.608
999.63
999.652
999.674
999.694
999.714
999.733
999.751
999.768
999.785
999.801
999.816
999.83
999.843
999.856
999.868
999.879
999.89
999.9
999.909
999.918
999.926
999.933
999.94
999.947
999.952
999.958
999.963
999.967
999.971
999.975
999.978
999.981
999.984
999.986
999.988
999.99
999.992
999.993
999.994
999.995
999.996
999.997
999.997
999.998
999.998
999.999
999.999
999.999
999.999
1000
1000
1000
1000
1000
1000
1000
1000
1000
1000
1000
1000
1000
1000
1000
1000
1000
1000
1000
1000
1000
1000
1000
1000
999.267
999.29
999.313
999.337
999.361
999.384
999.408
999.431
999.453
999.476
999.498
999.519
999.541
999.561
999.582
999.602
999.621
999.64
999.658
999.676
999.693
999.71
999.727
999.742
999.758
999.772
999.787
999.8
999.813
999.826
999.838
999.849
999.86
999.87
999.88
999.889
999.898
999.906
999.914
999.921
999.928
999.935
999.941
999.946
999.951
999.956
999.961
999.965
999.968
999.972
999.975
999.978
999.981
999.983
999.985
999.987
999.989
999.99
999.992
999.993
999.994
999.995
999.996
999.996
999.997
999.998
999.998
999.998
999.999
999.999
999.999
999.999
999.999
1000
1000
1000
1000
1000
1000
1000
1000
1000
1000
1000
1000
1000
1000
1000
1000
1000
1000
1000
1000
1000
1000
1000
1000
1000
1000
1000
944.555
944.555
944.555
944.555
944.555
944.555
944.555
944.555
944.555
944.555
944.555
944.555
944.555
944.555
944.555
944.555
944.555
944.556
944.557
944.56
944.555
944.555
944.555
944.555
944.555
944.555
944.555
944.555
944.555
944.555
944.555
944.555
944.555
944.555
944.555
944.555
944.556
944.557
944.56
944.57
944.555
944.555
944.555
944.555
944.555
944.555
944.555
944.555
944.555
944.555
944.555
944.555
944.555
944.555
944.556
944.557
944.558
944.563
944.575
944.619
944.555
944.555
944.555
944.555
944.555
944.555
944.555
944.555
944.555
944.555
944.555
944.555
944.556
944.557
944.559
944.562
944.57
944.589
944.646
944.879
944.555
944.555
944.555
944.555
944.555
944.555
944.555
944.555
944.556
944.556
944.557
944.558
944.56
944.565
944.572
944.589
944.625
944.716
944.999
946.235
944.555
944.555
944.555
944.556
944.556
944.557
944.558
944.559
944.561
944.564
944.567
944.574
944.584
944.602
944.636
944.703
944.851
945.225
946.413
951.886
944.562
944.564
944.566
944.57
944.574
944.579
944.586
944.594
944.602
944.613
944.629
944.654
944.693
944.758
944.875
945.102
945.581
946.746
950.349
966.638
944.715
944.736
944.76
944.787
944.817
944.847
944.874
944.895
944.917
944.947
944.991
945.059
945.168
945.351
945.673
946.272
947.477
950.207
957.686
985.382
946.715
946.826
946.936
947.047
947.143
947.191
947.211
947.202
947.209
947.227
947.274
947.357
947.521
947.824
948.459
949.707
952.214
957.356
968.372
995.114
960.008
960.226
960.444
960.647
960.805
960.844
960.853
960.875
960.892
960.882
960.878
960.85
960.891
960.982
961.521
962.943
966.262
972.523
983.394
995.011
991.959
991.879
991.827
991.8
991.834
992.019
992.257
992.506
992.772
993.082
993.422
993.84
994.31
994.909
995.404
995.758
995.829
996.044
997.307
998.273
999.141
999.106
999.074
999.047
999.031
999.045
999.079
999.138
999.197
999.263
999.329
999.406
999.481
999.566
999.631
999.676
999.691
999.714
999.818
999.452
999.957
999.952
999.947
999.941
999.936
999.932
999.93
999.932
999.937
999.944
999.95
999.958
999.964
999.97
999.975
999.979
999.981
999.983
999.983
999.867
999.999
999.999
999.998
999.998
999.998
999.997
999.997
999.997
999.997
999.997
999.997
999.998
999.998
999.998
999.999
999.999
999.999
999.999
999.998
999.986
1000
1000
1000
1000
1000
1000
1000
1000
1000
1000
1000
1000
1000
1000
1000
1000
1000
1000
1000
1000
1000
1000
1000
1000
1000
1000
1000
1000
1000
1000
1000
1000
1000
1000
1000
1000
1000
1000
1000
1000
1000
1000
1000
1000
1000
1000
1000
1000
1000
1000
1000
1000
1000
1000
1000
1000
1000
1000
1000
1000
1000
1000
1000
1000
1000
1000
1000
1000
1000
1000
1000
1000
1000
1000
1000
1000
1000
1000
1000
1000
1000
1000
1000
1000
1000
1000
1000
1000
1000
1000
1000
1000
1000
1000
1000
1000
1000
1000
1000
1000
1000
1000
1000
1000
1000
1000
1000
1000
1000
1000
1000
1000
1000
1000
1000
1000
1000
1000
1000
1000
944.555
944.555
944.555
944.555
944.555
944.555
944.555
944.555
944.555
944.555
944.555
944.555
944.555
944.555
944.555
944.555
944.555
944.555
944.555
944.555
944.555
944.555
944.555
944.555
944.555
944.555
944.555
944.555
944.555
944.555
944.555
944.555
944.555
944.555
944.555
944.555
944.555
944.555
944.555
944.555
944.555
944.555
944.555
944.555
944.555
944.555
944.555
944.555
944.555
944.555
944.555
944.555
944.555
944.555
944.555
944.555
944.555
944.555
944.555
944.555
944.555
944.555
944.555
944.555
944.555
944.555
944.555
944.555
944.555
944.555
944.555
944.555
944.555
944.555
944.555
944.555
944.555
944.555
944.555
944.555
944.555
944.555
944.555
944.555
944.555
944.555
944.555
944.555
944.555
944.555
944.555
944.555
944.555
944.555
944.555
944.555
944.555
944.555
944.555
944.555
944.555
944.555
944.555
944.555
944.555
944.555
944.555
944.555
944.555
944.555
944.555
944.555
944.555
944.555
944.555
944.555
944.555
944.555
944.555
944.555
944.555
944.555
944.555
944.555
944.555
944.555
944.555
944.555
944.555
944.555
944.555
944.555
944.555
944.555
944.555
944.555
944.555
944.555
944.555
944.555
944.555
944.555
944.555
944.555
944.555
944.555
944.555
944.555
944.555
944.555
944.555
944.555
944.555
944.555
944.555
944.555
944.555
944.555
944.555
944.555
944.555
944.555
944.555
944.555
944.555
944.555
944.555
944.555
944.555
944.555
944.555
944.555
944.555
944.555
944.555
944.555
944.555
944.555
944.555
944.555
944.555
944.555
944.555
944.555
944.555
944.555
944.555
944.555
944.555
944.555
944.555
944.555
944.555
944.555
944.555
944.555
944.555
944.555
944.555
944.555
944.555
944.555
944.555
944.555
944.555
944.555
944.555
944.555
944.555
944.555
944.555
944.555
944.555
944.555
944.555
944.555
944.555
944.555
944.555
944.555
944.555
944.555
944.555
944.555
944.555
944.555
944.555
944.555
944.555
944.555
944.555
944.555
944.555
944.555
944.555
944.555
944.555
944.555
944.555
944.555
944.555
944.555
944.555
944.555
944.555
944.555
944.555
944.555
944.555
944.555
944.555
944.555
944.555
944.555
944.555
944.555
944.555
944.555
944.555
944.555
944.555
944.555
944.555
944.555
944.555
944.555
944.555
944.555
944.555
944.555
944.555
944.555
944.555
944.555
944.555
944.555
944.555
944.555
944.555
944.555
944.555
944.555
944.555
944.555
944.555
944.555
944.555
944.555
944.555
944.555
944.555
944.555
944.555
944.555
944.555
944.555
944.555
944.555
944.555
944.555
944.555
944.555
944.555
944.555
944.555
944.555
944.555
944.555
944.555
944.555
944.555
944.555
944.555
944.555
944.555
944.555
944.555
944.555
944.555
944.555
944.555
944.555
944.555
944.555
944.555
944.555
944.555
944.555
944.555
944.555
944.555
944.555
944.555
944.555
944.555
944.555
944.555
944.555
944.555
944.555
944.555
944.555
944.555
944.555
944.555
944.555
944.555
944.555
944.555
944.555
944.555
944.555
944.555
944.555
944.555
944.555
944.555
944.555
944.555
944.555
944.555
944.555
944.555
944.555
944.555
944.555
944.555
944.555
944.555
944.555
944.555
944.555
944.555
944.555
944.555
944.555
944.555
944.555
944.555
944.555
944.555
944.555
944.555
944.555
944.555
944.555
944.555
944.555
944.555
944.555
944.555
944.555
944.555
944.555
944.555
944.555
944.555
944.555
944.555
944.555
944.555
944.555
944.555
944.555
944.555
944.555
944.555
944.555
944.555
944.555
944.555
944.555
944.555
944.555
944.555
944.555
944.555
944.555
944.555
944.555
944.555
944.555
944.555
944.555
944.555
944.555
944.555
944.555
944.555
944.555
944.555
944.555
944.555
944.555
944.555
944.555
944.555
944.555
944.555
944.555
944.555
944.555
944.555
944.555
944.555
944.555
944.555
944.555
944.555
944.555
944.555
944.555
944.555
944.555
944.555
944.555
944.555
944.555
944.555
944.555
944.555
944.555
944.555
944.555
944.555
944.555
944.555
944.555
944.555
944.555
944.555
944.555
944.555
944.555
944.555
944.555
944.555
944.555
944.555
944.555
944.555
944.555
944.555
944.555
944.555
944.555
944.555
944.555
944.555
944.555
944.555
944.555
944.555
944.555
944.555
944.555
944.555
944.555
944.555
944.555
944.555
944.555
944.555
944.555
944.555
944.555
944.555
944.555
944.555
944.555
944.555
944.555
944.555
944.555
944.555
944.555
944.555
944.555
944.555
944.555
944.555
944.555
944.555
944.555
944.555
944.555
944.555
944.555
944.555
944.555
944.555
944.555
944.555
944.555
944.555
944.555
944.555
944.555
944.555
944.555
944.555
944.555
944.555
944.555
944.555
944.555
944.555
944.555
944.555
944.555
944.555
944.555
944.555
944.555
944.555
944.555
944.555
944.555
944.555
944.555
944.555
944.555
944.555
944.555
944.555
944.555
944.555
944.555
944.555
944.555
944.555
944.555
944.555
944.555
944.555
944.555
944.555
944.555
944.555
944.555
944.555
944.555
944.555
944.555
944.555
944.555
944.555
944.555
944.555
944.555
944.555
944.555
944.555
944.555
944.555
944.555
944.555
944.555
944.555
944.555
944.555
944.555
944.555
944.555
944.555
944.555
944.555
944.555
944.555
944.555
944.555
944.555
944.555
944.555
944.555
944.555
944.555
944.555
944.555
944.555
944.555
944.555
944.555
944.555
944.555
944.555
944.555
944.555
944.555
944.555
944.555
944.555
944.555
944.555
944.555
944.555
944.555
944.555
944.555
944.555
944.555
944.555
944.555
944.555
944.555
944.555
944.555
944.555
944.555
944.555
944.555
944.555
944.555
944.555
944.555
944.555
944.555
944.555
944.555
944.555
944.555
944.555
944.555
944.555
944.555
944.555
944.555
944.555
944.555
944.555
944.555
944.555
944.555
944.555
944.555
944.555
944.555
944.555
944.555
944.555
944.555
944.555
944.555
944.555
944.555
944.555
944.555
944.555
944.555
944.555
944.555
944.555
944.555
944.555
944.555
944.555
944.555
944.555
944.555
944.555
944.555
944.555
944.555
944.555
944.555
944.555
944.555
944.555
944.555
944.555
944.555
944.555
944.555
944.555
944.555
944.555
944.555
944.555
944.555
944.555
944.555
944.555
944.555
944.555
944.555
944.555
944.555
944.555
944.555
944.555
944.555
944.555
944.555
944.555
944.555
944.555
944.555
944.555
944.555
944.555
944.555
944.555
944.555
944.555
944.555
944.555
944.555
944.555
944.555
944.555
944.555
944.555
944.555
944.555
944.555
944.555
944.555
944.555
944.555
944.555
944.555
944.555
944.555
944.555
944.555
944.555
944.555
944.555
944.555
944.555
944.555
944.555
944.555
944.555
944.555
944.555
944.555
944.555
944.555
944.555
944.555
944.555
944.555
944.555
944.555
944.555
944.555
944.555
944.555
944.555
944.555
944.555
944.555
944.555
944.555
944.555
944.555
944.555
944.555
944.555
944.555
944.555
944.555
944.555
944.555
944.555
944.555
944.555
944.555
944.555
944.555
944.555
944.555
944.555
944.555
944.555
944.555
944.555
944.555
944.555
944.555
944.555
944.555
944.555
944.555
944.555
944.555
944.555
944.555
944.555
944.555
944.555
944.555
944.555
944.555
944.555
944.555
944.555
944.555
944.555
944.555
944.555
944.555
944.555
944.555
944.555
944.555
944.555
944.555
944.555
944.555
944.555
944.555
944.555
944.555
944.555
944.555
944.555
944.555
944.555
944.555
944.555
944.555
944.555
944.555
944.555
944.555
944.555
944.555
944.555
944.555
944.555
944.555
944.555
944.555
944.555
944.555
944.555
944.555
944.555
944.555
944.555
944.555
944.555
944.555
944.555
944.555
944.555
944.555
944.555
944.555
944.555
944.555
944.555
944.555
944.555
944.555
944.555
944.555
944.555
944.555
944.555
944.555
944.555
944.555
944.555
944.555
944.555
944.555
944.555
944.555
944.555
944.555
944.555
944.555
944.555
944.555
944.555
944.555
944.555
944.555
944.555
944.555
944.555
944.555
944.555
944.555
944.555
944.555
944.555
944.555
944.555
944.555
944.555
944.555
944.555
944.555
944.555
944.555
944.555
944.555
944.555
944.555
944.555
944.555
944.555
944.555
944.555
944.555
944.555
944.555
944.555
944.555
944.555
944.555
944.555
944.555
944.555
944.555
944.555
944.555
944.555
944.555
944.555
944.555
944.555
944.555
944.555
944.555
944.555
944.555
944.555
944.555
944.555
944.555
944.555
944.555
944.555
944.555
944.555
944.555
944.555
944.555
944.555
944.555
944.555
944.555
944.555
944.555
944.555
944.555
944.555
944.555
944.555
944.555
944.555
944.555
944.555
944.555
944.555
944.555
944.555
944.555
944.555
944.555
944.555
944.555
944.555
944.555
944.555
944.555
944.555
944.555
944.555
944.555
944.555
944.555
944.555
944.555
944.555
944.555
944.555
944.555
944.555
944.555
944.555
944.555
944.555
944.555
944.555
944.555
944.555
944.555
944.555
944.555
944.555
944.555
944.555
944.555
944.555
944.555
944.555
944.555
944.555
944.555
944.555
944.555
944.555
944.555
944.555
944.555
944.555
944.555
944.555
944.555
944.555
944.555
944.555
944.555
944.555
944.555
944.555
944.555
944.555
944.555
944.555
944.555
944.555
944.555
944.555
944.555
944.555
944.555
944.555
944.555
944.555
944.555
944.555
944.555
944.555
944.555
944.555
944.555
944.555
944.555
944.555
944.555
944.555
944.555
944.555
944.555
944.555
944.555
944.555
944.555
944.555
944.555
944.555
944.555
944.555
944.555
944.555
944.555
944.555
944.555
944.555
944.555
944.555
944.555
944.555
944.555
944.555
944.555
944.555
944.555
944.555
944.555
944.555
944.555
944.555
944.555
944.555
944.555
944.555
944.555
944.555
944.555
944.555
944.555
944.555
944.555
944.555
944.555
944.555
944.555
944.555
944.555
944.555
944.555
944.555
944.555
944.555
944.555
944.555
944.555
944.555
944.555
944.555
944.555
944.555
944.555
944.555
944.555
944.555
944.555
944.555
944.555
944.555
944.555
944.555
944.555
944.555
944.555
944.555
944.555
944.555
944.555
944.555
944.555
944.555
944.555
944.555
944.555
944.555
944.555
944.555
944.555
944.555
944.555
944.555
944.555
944.555
944.555
944.555
944.555
944.555
944.555
944.555
944.555
944.555
944.555
944.555
944.555
944.555
944.555
944.555
944.555
944.555
944.555
944.555
944.555
944.555
944.555
944.555
944.555
944.555
944.555
944.555
944.555
944.555
944.555
944.555
944.555
944.555
944.555
944.555
944.555
944.555
944.555
944.555
944.555
944.555
944.555
944.555
944.555
944.555
944.555
944.555
944.555
944.555
944.555
944.555
944.555
944.555
944.555
944.555
944.555
944.555
944.555
944.555
944.555
944.555
944.555
944.555
944.555
944.555
944.555
944.555
944.555
944.555
944.555
944.555
944.555
944.555
944.555
944.555
944.555
944.555
944.555
944.555
944.555
944.555
944.555
944.555
944.555
944.555
944.555
944.555
944.555
944.555
944.555
944.555
944.555
944.555
944.555
944.555
944.555
944.555
944.555
944.555
944.555
944.555
944.555
944.555
944.555
944.555
944.555
944.555
944.555
944.555
944.555
944.555
944.555
944.555
944.555
944.555
944.555
944.555
944.555
944.555
944.555
944.555
944.555
944.555
944.555
944.555
944.555
944.555
944.555
944.555
944.555
944.555
944.555
944.555
944.555
944.555
944.555
944.555
944.555
944.555
944.555
944.555
944.555
944.555
944.555
944.555
944.555
944.555
944.555
944.555
944.555
944.555
944.555
944.555
944.555
944.555
944.555
944.555
944.555
944.555
944.555
944.555
944.555
944.555
944.555
944.555
944.555
944.555
944.555
944.555
944.555
944.555
944.555
944.555
944.555
944.555