/*--------------------------------*- C++ -*----------------------------------*\
| =========                 |                                                 |
| \\      /  F ield         | OpenFOAM: The Open Source CFD Toolbox           |
|  \\    /   O peration     | Version:  2.1.0                                 |
|   \\  /    A nd           | Web:      www.OpenFOAM.org                      |
|    \\/     M anipulation  |                                                 |
\*---------------------------------------------------------------------------*/
FoamFile
{
    version     2.0;
    format      ascii;
    class       volScalarField;
    location    "0.37";
    object      T;
}
// * * * * * * * * * * * * * * * * * * * * * * * * * * * * * * * * * * * * * //

dimensions      [0 0 0 1 0 0 0];

internalField   nonuniform List<scalar> 
6400
(
368.258
368.945
369.612
370.262
370.895
371.514
372.118
372.709
373.286
373.85
374.4
374.938
375.462
375.974
376.473
376.96
377.434
377.896
378.346
378.784
379.21
379.625
380.028
380.42
380.801
381.17
381.53
381.878
382.216
382.544
382.862
383.169
383.467
383.756
384.035
384.304
384.565
384.817
385.06
385.294
385.52
385.738
385.948
386.15
386.344
386.531
386.71
386.882
387.047
387.205
387.356
387.501
387.639
387.771
387.897
388.017
388.131
388.241
388.345
388.444
388.538
388.628
388.712
388.792
388.868
388.939
389.005
389.066
389.123
389.175
389.223
389.265
389.303
389.335
389.362
389.383
389.399
389.408
389.411
389.406
389.392
389.369
389.333
389.283
389.213
389.117
388.984
388.798
388.53
388.125
387.477
386.346
384.172
379.748
373.239
382.124
392.418
393.14
393.15
393.15
372.817
373.401
373.982
374.547
375.098
375.636
376.162
376.675
377.176
377.665
378.143
378.609
379.063
379.506
379.937
380.358
380.768
381.167
381.555
381.932
382.3
382.657
383.003
383.34
383.668
383.985
384.294
384.593
384.882
385.163
385.435
385.699
385.954
386.2
386.438
386.669
386.891
387.106
387.313
387.512
387.705
387.89
388.069
388.24
388.405
388.564
388.717
388.863
389.003
389.138
389.267
389.39
389.509
389.623
389.732
389.837
389.937
390.034
390.126
390.215
390.299
390.381
390.459
390.534
390.605
390.674
390.74
390.803
390.863
390.921
390.977
391.03
391.081
391.129
391.176
391.22
391.261
391.301
391.338
391.373
391.404
391.434
391.46
391.483
391.503
391.518
391.53
391.538
391.543
391.548
391.558
391.586
391.661
391.832
392.171
392.663
393.089
393.148
393.15
393.15
375.125
375.654
376.185
376.704
377.21
377.705
378.188
378.661
379.122
379.573
380.013
380.442
380.862
381.271
381.67
382.059
382.438
382.807
383.167
383.517
383.858
384.19
384.512
384.826
385.13
385.426
385.713
385.992
386.262
386.524
386.778
387.024
387.263
387.493
387.716
387.932
388.14
388.342
388.536
388.723
388.904
389.078
389.246
389.407
389.562
389.712
389.855
389.993
390.126
390.253
390.376
390.493
390.606
390.714
390.818
390.918
391.014
391.105
391.193
391.278
391.359
391.436
391.511
391.583
391.652
391.719
391.783
391.845
391.905
391.964
392.021
392.076
392.13
392.183
392.235
392.286
392.336
392.386
392.435
392.483
392.53
392.577
392.624
392.67
392.715
392.759
392.803
392.846
392.888
392.929
392.969
393.007
393.043
393.077
393.104
393.123
393.144
393.15
393.15
393.15
376.421
376.907
377.401
377.884
378.357
378.82
379.274
379.718
380.152
380.577
380.992
381.399
381.796
382.184
382.563
382.934
383.296
383.649
383.994
384.331
384.659
384.979
385.291
385.596
385.892
386.181
386.462
386.735
387.001
387.26
387.511
387.755
387.991
388.221
388.444
388.659
388.868
389.071
389.266
389.455
389.638
389.814
389.984
390.148
390.306
390.459
390.605
390.746
390.881
391.01
391.135
391.254
391.368
391.478
391.582
391.681
391.776
391.866
391.952
392.034
392.112
392.185
392.256
392.322
392.385
392.445
392.502
392.555
392.606
392.654
392.7
392.742
392.783
392.821
392.856
392.889
392.92
392.949
392.975
392.999
393.021
393.041
393.059
393.075
393.089
393.101
393.111
393.12
393.128
393.133
393.138
393.142
393.144
393.146
393.147
393.148
393.149
393.15
393.15
393.15
376.654
377.103
377.561
378.013
378.458
378.895
379.324
379.745
380.158
380.564
380.961
381.351
381.733
382.107
382.474
382.834
383.186
383.53
383.868
384.199
384.522
384.839
385.148
385.451
385.748
386.037
386.32
386.597
386.867
387.131
387.388
387.639
387.884
388.123
388.356
388.583
388.803
389.018
389.227
389.429
389.626
389.817
390.002
390.181
390.354
390.521
390.682
390.838
390.987
391.131
391.269
391.401
391.527
391.648
391.763
391.872
391.976
392.074
392.166
392.254
392.336
392.412
392.484
392.551
392.613
392.671
392.724
392.773
392.818
392.858
392.895
392.929
392.959
392.986
393.01
393.031
393.05
393.066
393.081
393.093
393.104
393.113
393.12
393.127
393.132
393.137
393.14
393.143
393.145
393.147
393.148
393.149
393.149
393.15
393.15
393.15
393.15
393.15
393.15
393.15
375.439
375.847
376.266
376.681
377.092
377.498
377.898
378.292
378.679
379.059
379.434
379.802
380.164
380.52
380.87
381.214
381.552
381.885
382.212
382.533
382.849
383.16
383.465
383.765
384.059
384.349
384.633
384.913
385.187
385.457
385.722
385.983
386.239
386.49
386.737
386.979
387.217
387.45
387.679
387.903
388.123
388.339
388.55
388.757
388.959
389.156
389.349
389.537
389.721
389.9
390.074
390.243
390.407
390.567
390.721
390.87
391.014
391.153
391.286
391.414
391.537
391.655
391.767
391.874
391.975
392.071
392.162
392.248
392.329
392.405
392.476
392.542
392.604
392.661
392.714
392.763
392.808
392.85
392.888
392.923
392.954
392.983
393.009
393.032
393.053
393.072
393.088
393.103
393.115
393.125
393.134
393.14
393.144
393.147
393.148
393.149
393.149
393.149
393.149
393.149
372.066
372.424
372.788
373.153
373.515
373.873
374.226
374.575
374.918
375.257
375.59
375.918
376.241
376.56
376.875
377.185
377.492
377.794
378.093
378.389
378.682
378.971
379.257
379.539
379.817
380.093
380.364
380.633
380.899
381.162
381.423
381.681
381.936
382.189
382.44
382.688
382.935
383.18
383.423
383.665
383.905
384.144
384.382
384.618
384.853
385.088
385.321
385.554
385.785
386.016
386.246
386.474
386.702
386.929
387.155
387.379
387.602
387.824
388.043
388.261
388.477
388.69
388.901
389.109
389.313
389.514
389.712
389.905
390.095
390.279
390.46
390.635
390.805
390.971
391.131
391.285
391.435
391.579
391.717
391.851
391.978
392.1
392.217
392.328
392.434
392.534
392.629
392.718
392.801
392.876
392.943
393
393.046
393.081
393.103
393.115
393.125
393.131
393.136
393.138
365.883
366.175
366.47
366.767
367.059
367.349
367.634
367.916
368.192
368.464
368.731
368.995
369.253
369.508
369.759
370.007
370.25
370.492
370.729
370.965
371.197
371.427
371.655
371.88
372.103
372.325
372.544
372.763
372.98
373.196
373.411
373.626
373.84
374.055
374.269
374.485
374.701
374.918
375.136
375.355
375.577
375.8
376.026
376.254
376.485
376.719
376.956
377.196
377.44
377.688
377.939
378.194
378.454
378.718
378.986
379.258
379.535
379.817
380.103
380.393
380.688
380.988
381.292
381.601
381.914
382.231
382.551
382.876
383.204
383.535
383.869
384.206
384.545
384.887
385.231
385.576
385.924
386.274
386.625
386.979
387.335
387.695
388.058
388.426
388.797
389.172
389.551
389.933
390.316
390.695
391.066
391.421
391.751
392.045
392.289
392.464
392.607
392.722
392.805
392.856
356.3
356.501
356.704
356.906
357.104
357.299
357.488
357.675
357.856
358.034
358.206
358.376
358.54
358.701
358.857
359.011
359.159
359.305
359.447
359.586
359.721
359.855
359.987
360.118
360.248
360.379
360.508
360.638
360.768
360.899
361.031
361.165
361.299
361.435
361.573
361.714
361.856
362.001
362.149
362.3
362.454
362.611
362.771
362.935
363.102
363.274
363.449
363.629
363.813
364.002
364.195
364.394
364.597
364.805
365.019
365.239
365.464
365.696
365.933
366.177
366.428
366.686
366.952
367.226
367.508
367.799
368.098
368.407
368.726
369.055
369.394
369.745
370.108
370.483
370.872
371.275
371.694
372.13
372.584
373.059
373.557
374.082
374.635
375.222
375.846
376.513
377.227
377.996
378.822
379.709
380.656
381.66
382.714
383.802
384.906
385.98
386.902
387.744
388.456
388.966
343.319
343.412
343.505
343.597
343.686
343.773
343.858
343.94
344.02
344.098
344.173
344.247
344.318
344.388
344.456
344.522
344.587
344.651
344.714
344.776
344.838
344.898
344.959
345.019
345.079
345.139
345.199
345.259
345.319
345.379
345.44
345.501
345.562
345.624
345.687
345.749
345.813
345.876
345.941
346.005
346.071
346.137
346.203
346.27
346.338
346.406
346.475
346.544
346.615
346.686
346.757
346.83
346.903
346.977
347.053
347.128
347.205
347.282
347.36
347.439
347.518
347.597
347.678
347.76
347.845
347.932
348.021
348.114
348.21
348.309
348.413
348.522
348.637
348.757
348.885
349.021
349.166
349.321
349.488
349.668
349.862
350.073
350.302
350.551
350.823
351.12
351.443
351.814
352.246
352.749
353.338
354.025
354.825
355.759
356.854
358.143
359.638
361.184
362.653
363.812
329.753
329.749
329.745
329.742
329.74
329.737
329.735
329.733
329.732
329.731
329.731
329.731
329.731
329.731
329.732
329.732
329.733
329.733
329.733
329.732
329.73
329.728
329.725
329.721
329.716
329.71
329.702
329.693
329.682
329.669
329.655
329.638
329.62
329.599
329.577
329.552
329.525
329.495
329.463
329.429
329.392
329.353
329.311
329.266
329.219
329.168
329.115
329.059
328.999
328.937
328.871
328.801
328.728
328.651
328.57
328.485
328.395
328.301
328.201
328.097
327.987
327.872
327.75
327.62
327.482
327.335
327.178
327.011
326.832
326.641
326.437
326.218
325.984
325.733
325.464
325.176
324.868
324.538
324.184
323.807
323.404
322.974
322.518
322.034
321.522
320.983
320.416
319.807
319.143
318.416
317.618
316.753
315.819
314.807
313.715
312.537
311.281
309.972
308.675
307.517
318.973
318.892
318.81
318.725
318.64
318.554
318.468
318.382
318.296
318.21
318.125
318.039
317.954
317.869
317.784
317.698
317.613
317.527
317.442
317.355
317.269
317.182
317.094
317.005
316.916
316.825
316.733
316.639
316.545
316.448
316.35
316.25
316.148
316.044
315.937
315.828
315.716
315.601
315.484
315.363
315.24
315.112
314.981
314.846
314.708
314.565
314.418
314.266
314.11
313.948
313.782
313.611
313.434
313.251
313.063
312.868
312.667
312.46
312.245
312.023
311.792
311.552
311.304
311.045
310.776
310.495
310.203
309.898
309.581
309.249
308.903
308.542
308.164
307.771
307.361
306.933
306.488
306.025
305.544
305.047
304.532
304.003
303.459
302.902
302.335
301.761
301.181
300.6
300.022
299.452
298.895
298.339
297.781
297.236
296.709
296.206
295.738
295.317
294.962
294.695
311.028
310.912
310.79
310.664
310.536
310.405
310.273
310.14
310.007
309.873
309.739
309.604
309.468
309.332
309.195
309.058
308.92
308.781
308.642
308.502
308.361
308.219
308.076
307.933
307.788
307.642
307.495
307.347
307.197
307.046
306.894
306.739
306.584
306.426
306.267
306.106
305.943
305.777
305.61
305.44
305.268
305.094
304.917
304.737
304.555
304.37
304.183
303.992
303.799
303.602
303.403
303.2
302.994
302.784
302.571
302.354
302.134
301.91
301.681
301.449
301.214
300.974
300.731
300.483
300.232
299.978
299.72
299.458
299.193
298.925
298.654
298.38
298.105
297.828
297.551
297.273
296.995
296.719
296.445
296.175
295.91
295.65
295.398
295.155
294.923
294.702
294.494
294.301
294.124
293.965
293.824
293.702
293.602
293.513
293.436
293.371
293.318
293.277
293.246
293.225
305.313
305.193
305.063
304.927
304.788
304.647
304.504
304.36
304.215
304.069
303.923
303.776
303.628
303.48
303.332
303.183
303.033
302.883
302.732
302.58
302.428
302.275
302.121
301.967
301.812
301.656
301.499
301.342
301.184
301.025
300.866
300.706
300.545
300.383
300.221
300.058
299.895
299.731
299.567
299.402
299.237
299.072
298.907
298.742
298.576
298.411
298.246
298.081
297.917
297.753
297.589
297.426
297.264
297.103
296.943
296.783
296.625
296.468
296.312
296.158
296.005
295.855
295.707
295.561
295.418
295.277
295.14
295.005
294.874
294.747
294.623
294.503
294.387
294.275
294.168
294.066
293.968
293.876
293.789
293.707
293.632
293.562
293.498
293.439
293.387
293.342
293.302
293.268
293.239
293.216
293.198
293.184
293.175
293.168
293.163
293.159
293.156
293.154
293.153
293.152
301.484
301.37
301.247
301.117
300.984
300.849
300.713
300.576
300.439
300.3
300.162
300.023
299.885
299.746
299.607
299.468
299.329
299.19
299.051
298.912
298.773
298.634
298.495
298.357
298.219
298.081
297.943
297.806
297.669
297.533
297.397
297.263
297.128
296.995
296.863
296.731
296.601
296.472
296.344
296.218
296.093
295.97
295.848
295.729
295.611
295.495
295.382
295.271
295.162
295.055
294.951
294.85
294.752
294.656
294.563
294.473
294.386
294.302
294.221
294.144
294.069
293.998
293.93
293.865
293.803
293.745
293.69
293.638
293.589
293.543
293.5
293.461
293.424
293.39
293.358
293.33
293.304
293.28
293.259
293.24
293.224
293.209
293.197
293.187
293.178
293.171
293.165
293.16
293.157
293.155
293.153
293.152
293.151
293.151
293.15
293.15
293.15
293.15
293.15
293.15
298.974
298.874
298.763
298.648
298.53
298.411
298.29
298.17
298.049
297.929
297.808
297.688
297.568
297.449
297.33
297.212
297.094
296.977
296.861
296.745
296.63
296.516
296.403
296.291
296.18
296.071
295.962
295.855
295.75
295.646
295.543
295.442
295.343
295.245
295.149
295.055
294.962
294.872
294.784
294.698
294.614
294.532
294.453
294.376
294.302
294.23
294.16
294.093
294.029
293.967
293.908
293.852
293.798
293.746
293.698
293.652
293.608
293.567
293.529
293.493
293.459
293.428
293.399
293.372
293.347
293.324
293.303
293.284
293.267
293.251
293.237
293.224
293.213
293.203
293.194
293.187
293.18
293.174
293.169
293.165
293.162
293.159
293.157
293.155
293.153
293.152
293.152
293.151
293.151
293.15
293.15
293.15
293.15
293.15
293.15
293.15
293.15
293.15
293.15
293.15
297.276
297.19
297.096
296.999
296.9
296.8
296.701
296.601
296.502
296.403
296.305
296.208
296.111
296.015
295.92
295.825
295.732
295.64
295.549
295.458
295.37
295.282
295.196
295.111
295.027
294.945
294.864
294.785
294.707
294.631
294.557
294.485
294.414
294.345
294.279
294.214
294.151
294.091
294.032
293.976
293.921
293.869
293.819
293.771
293.725
293.682
293.64
293.601
293.564
293.529
293.495
293.464
293.435
293.408
293.383
293.359
293.337
293.317
293.299
293.282
293.266
293.252
293.239
293.228
293.217
293.208
293.2
293.192
293.186
293.18
293.175
293.171
293.167
293.164
293.161
293.159
293.157
293.155
293.154
293.153
293.152
293.152
293.151
293.151
293.15
293.15
293.15
293.15
293.15
293.15
293.15
293.15
293.15
293.15
293.15
293.15
293.15
293.15
293.15
293.15
296.072
296.001
295.924
295.846
295.767
295.688
295.609
295.531
295.454
295.377
295.3
295.225
295.15
295.076
295.004
294.932
294.861
294.792
294.723
294.656
294.59
294.525
294.462
294.399
294.339
294.279
294.221
294.165
294.109
294.056
294.004
293.954
293.905
293.858
293.813
293.77
293.728
293.688
293.65
293.614
293.579
293.546
293.515
293.485
293.457
293.431
293.406
293.383
293.361
293.341
293.322
293.305
293.288
293.273
293.26
293.247
293.236
293.225
293.216
293.207
293.2
293.193
293.187
293.181
293.177
293.172
293.169
293.166
293.163
293.161
293.159
293.157
293.156
293.154
293.153
293.153
293.152
293.151
293.151
293.151
293.151
293.15
293.15
293.15
293.15
293.15
293.15
293.15
293.15
293.15
293.15
293.15
293.15
293.15
293.15
293.15
293.15
293.15
293.15
293.15
295.189
295.132
295.073
295.013
294.952
294.892
294.832
294.773
294.715
294.657
294.6
294.543
294.488
294.433
294.379
294.327
294.275
294.224
294.175
294.126
294.079
294.032
293.987
293.943
293.901
293.859
293.819
293.78
293.742
293.706
293.671
293.637
293.605
293.574
293.545
293.517
293.49
293.464
293.44
293.417
293.395
293.375
293.356
293.338
293.321
293.305
293.29
293.276
293.264
293.252
293.241
293.231
293.222
293.213
293.206
293.199
293.193
293.187
293.182
293.178
293.174
293.17
293.167
293.164
293.162
293.16
293.158
293.157
293.155
293.154
293.154
293.153
293.152
293.152
293.151
293.151
293.151
293.151
293.15
293.15
293.15
293.15
293.15
293.15
293.15
293.15
293.15
293.15
293.15
293.15
293.15
293.15
293.15
293.15
293.15
293.15
293.15
293.15
293.15
293.15
294.4
294.361
294.321
294.28
294.24
294.199
294.16
294.12
294.082
294.043
294.006
293.969
293.933
293.898
293.863
293.829
293.796
293.764
293.732
293.702
293.672
293.644
293.616
293.589
293.563
293.538
293.514
293.491
293.468
293.447
293.427
293.407
293.389
293.371
293.355
293.339
293.324
293.31
293.297
293.284
293.272
293.262
293.251
293.242
293.233
293.225
293.217
293.21
293.204
293.198
293.192
293.188
293.183
293.179
293.175
293.172
293.169
293.166
293.164
293.162
293.16
293.159
293.157
293.156
293.155
293.154
293.153
293.153
293.152
293.152
293.151
293.151
293.151
293.151
293.151
293.15
293.15
293.15
293.15
293.15
293.15
293.15
293.15
293.15
293.15
293.15
293.15
293.15
293.15
293.15
293.15
293.15
293.15
293.15
293.15
293.15
293.15
293.15
293.15
293.15
393.15
393.15
393.15
393.15
393.15
393.15
393.15
393.15
393.15
393.15
393.15
393.15
393.15
393.15
393.15
393.149
393.149
393.148
393.146
393.14
393.15
393.15
393.15
393.15
393.15
393.15
393.15
393.15
393.15
393.15
393.15
393.15
393.15
393.15
393.149
393.149
393.148
393.145
393.139
393.12
393.15
393.15
393.15
393.15
393.15
393.15
393.15
393.15
393.15
393.15
393.15
393.15
393.149
393.149
393.148
393.146
393.143
393.135
393.112
393.028
393.15
393.15
393.15
393.15
393.15
393.15
393.15
393.15
393.15
393.15
393.149
393.149
393.148
393.146
393.143
393.136
393.121
393.084
392.975
392.531
393.15
393.15
393.15
393.15
393.15
393.15
393.149
393.149
393.148
393.147
393.146
393.143
393.139
393.131
393.116
393.085
393.016
392.842
392.301
389.947
393.149
393.149
393.149
393.148
393.147
393.146
393.144
393.142
393.138
393.133
393.125
393.113
393.094
393.059
392.995
392.867
392.584
391.871
389.608
379.257
393.136
393.132
393.128
393.121
393.113
393.103
393.09
393.076
393.059
393.038
393.007
392.96
392.886
392.761
392.537
392.105
391.192
388.974
382.152
351.944
392.844
392.804
392.758
392.706
392.649
392.593
392.541
392.499
392.458
392.401
392.318
392.187
391.979
391.63
391.016
389.875
387.587
382.42
368.419
318.422
389.035
388.824
388.615
388.404
388.22
388.129
388.092
388.108
388.095
388.061
387.972
387.814
387.503
386.929
385.725
383.364
378.641
369.031
348.789
301.514
364.118
363.714
363.312
362.936
362.646
362.573
362.557
362.517
362.485
362.503
362.511
362.562
362.486
362.318
361.324
358.708
352.631
341.28
321.917
301.692
306.96
307.098
307.187
307.234
307.176
306.856
306.444
306.013
305.553
305.018
304.43
303.709
302.899
301.867
301.015
300.408
300.286
299.916
297.751
296.097
294.614
294.675
294.728
294.776
294.803
294.779
294.72
294.62
294.519
294.407
294.294
294.163
294.035
293.89
293.778
293.703
293.677
293.637
293.459
294.084
293.223
293.231
293.24
293.25
293.259
293.266
293.269
293.265
293.257
293.245
293.234
293.222
293.211
293.2
293.192
293.186
293.182
293.178
293.179
293.377
293.152
293.152
293.153
293.153
293.154
293.155
293.155
293.156
293.156
293.155
293.155
293.154
293.153
293.153
293.152
293.152
293.152
293.152
293.153
293.174
293.15
293.15
293.15
293.15
293.15
293.15
293.15
293.15
293.15
293.15
293.15
293.15
293.15
293.15
293.15
293.15
293.15
293.15
293.15
293.15
293.15
293.15
293.15
293.15
293.15
293.15
293.15
293.15
293.15
293.15
293.15
293.15
293.15
293.15
293.15
293.15
293.15
293.15
293.15
293.15
293.15
293.15
293.15
293.15
293.15
293.15
293.15
293.15
293.15
293.15
293.15
293.15
293.15
293.15
293.15
293.15
293.15
293.15
293.15
293.15
293.15
293.15
293.15
293.15
293.15
293.15
293.15
293.15
293.15
293.15
293.15
293.15
293.15
293.15
293.15
293.15
293.15
293.15
293.15
293.15
293.15
293.15
293.15
293.15
293.15
293.15
293.15
293.15
293.15
293.15
293.15
293.15
293.15
293.15
293.15
293.15
293.15
293.15
293.15
293.15
293.15
293.15
293.15
293.15
293.15
293.15
293.15
293.15
293.15
293.15
293.15
293.15
293.15
293.15
293.15
293.15
293.15
293.15
293.15
293.15
393.15
393.15
393.15
393.15
393.15
393.15
393.15
393.15
393.15
393.15
393.15
393.15
393.15
393.15
393.15
393.15
393.15
393.15
393.15
393.15
393.15
393.15
393.15
393.15
393.15
393.15
393.15
393.15
393.15
393.15
393.15
393.15
393.15
393.15
393.15
393.15
393.15
393.15
393.15
393.15
393.15
393.15
393.15
393.15
393.15
393.15
393.15
393.15
393.15
393.15
393.15
393.15
393.15
393.15
393.15
393.15
393.15
393.15
393.15
393.15
393.15
393.15
393.15
393.15
393.15
393.15
393.15
393.15
393.15
393.15
393.15
393.15
393.15
393.15
393.15
393.15
393.15
393.15
393.15
393.15
393.15
393.15
393.15
393.15
393.15
393.15
393.15
393.15
393.15
393.15
393.15
393.15
393.15
393.15
393.15
393.15
393.15
393.15
393.15
393.15
393.15
393.15
393.15
393.15
393.15
393.15
393.15
393.15
393.15
393.15
393.15
393.15
393.15
393.15
393.15
393.15
393.15
393.15
393.15
393.15
393.15
393.15
393.15
393.15
393.15
393.15
393.15
393.15
393.15
393.15
393.15
393.15
393.15
393.15
393.15
393.15
393.15
393.15
393.15
393.15
393.15
393.15
393.15
393.15
393.15
393.15
393.15
393.15
393.15
393.15
393.15
393.15
393.15
393.15
393.15
393.15
393.15
393.15
393.15
393.15
393.15
393.15
393.15
393.15
393.15
393.15
393.15
393.15
393.15
393.15
393.15
393.15
393.15
393.15
393.15
393.15
393.15
393.15
393.15
393.15
393.15
393.15
393.15
393.15
393.15
393.15
393.15
393.15
393.15
393.15
393.15
393.15
393.15
393.15
393.15
393.15
393.15
393.15
393.15
393.15
393.15
393.15
393.15
393.15
393.15
393.15
393.15
393.15
393.15
393.15
393.15
393.15
393.15
393.15
393.15
393.15
393.15
393.15
393.15
393.15
393.15
393.15
393.15
393.15
393.15
393.15
393.15
393.15
393.15
393.15
393.15
393.15
393.15
393.15
393.15
393.15
393.15
393.15
393.15
393.15
393.15
393.15
393.15
393.15
393.15
393.15
393.15
393.15
393.15
393.15
393.15
393.15
393.15
393.15
393.15
393.15
393.15
393.15
393.15
393.15
393.15
393.15
393.15
393.15
393.15
393.15
393.15
393.15
393.15
393.15
393.15
393.15
393.15
393.15
393.15
393.15
393.15
393.15
393.15
393.15
393.15
393.15
393.15
393.15
393.15
393.15
393.15
393.15
393.15
393.15
393.15
393.15
393.15
393.15
393.15
393.15
393.15
393.15
393.15
393.15
393.15
393.15
393.15
393.15
393.15
393.15
393.15
393.15
393.15
393.15
393.15
393.15
393.15
393.15
393.15
393.15
393.15
393.15
393.15
393.15
393.15
393.15
393.15
393.15
393.15
393.15
393.15
393.15
393.15
393.15
393.15
393.15
393.15
393.15
393.15
393.15
393.15
393.15
393.15
393.15
393.15
393.15
393.15
393.15
393.15
393.15
393.15
393.15
393.15
393.15
393.15
393.15
393.15
393.15
393.15
393.15
393.15
393.15
393.15
393.15
393.15
393.15
393.15
393.15
393.15
393.15
393.15
393.15
393.15
393.15
393.15
393.15
393.15
393.15
393.15
393.15
393.15
393.15
393.15
393.15
393.15
393.15
393.15
393.15
393.15
393.15
393.15
393.15
393.15
393.15
393.15
393.15
393.15
393.15
393.15
393.15
393.15
393.15
393.15
393.15
393.15
393.15
393.15
393.15
393.15
393.15
393.15
393.15
393.15
393.15
393.15
393.15
393.15
393.15
393.15
393.15
393.15
393.15
393.15
393.15
393.15
393.15
393.15
393.15
393.15
393.15
393.15
393.15
393.15
393.15
393.15
393.15
393.15
393.15
393.15
393.15
393.15
393.15
393.15
393.15
393.15
393.15
393.15
393.15
393.15
393.15
393.15
393.15
393.15
393.15
393.15
393.15
393.15
393.15
393.15
393.15
393.15
393.15
393.15
393.15
393.15
393.15
393.15
393.15
393.15
393.15
393.15
393.15
393.15
393.15
393.15
393.15
393.15
393.15
393.15
393.15
393.15
393.15
393.15
393.15
393.15
393.15
393.15
393.15
393.15
393.15
393.15
393.15
393.15
393.15
393.15
393.15
393.15
393.15
393.15
393.15
393.15
393.15
393.15
393.15
393.15
393.15
393.15
393.15
393.15
393.15
393.15
393.15
393.15
393.15
393.15
393.15
393.15
393.15
393.15
393.15
393.15
393.15
393.15
393.15
393.15
393.15
393.15
393.15
393.15
393.15
393.15
393.15
393.15
393.15
393.15
393.15
393.15
393.15
393.15
393.15
393.15
393.15
393.15
393.15
393.15
393.15
393.15
393.15
393.15
393.15
393.15
393.15
393.15
393.15
393.15
393.15
393.15
393.15
393.15
393.15
393.15
393.15
393.15
393.15
393.15
393.15
393.15
393.15
393.15
393.15
393.15
393.15
393.15
393.15
393.15
393.15
393.15
393.15
393.15
393.15
393.15
393.15
393.15
393.15
393.15
393.15
393.15
393.15
393.15
393.15
393.15
393.15
393.15
393.15
393.15
393.15
393.15
393.15
393.15
393.15
393.15
393.15
393.15
393.15
393.15
393.15
393.15
393.15
393.15
393.15
393.15
393.15
393.15
393.15
393.15
393.15
393.15
393.15
393.15
393.15
393.15
393.15
393.15
393.15
393.15
393.15
393.15
393.15
393.15
393.15
393.15
393.15
393.15
393.15
393.15
393.15
393.15
393.15
393.15
393.15
393.15
393.15
393.15
393.15
393.15
393.15
393.15
393.15
393.15
393.15
393.15
393.15
393.15
393.15
393.15
393.15
393.15
393.15
393.15
393.15
393.15
393.15
393.15
393.15
393.15
393.15
393.15
393.15
393.15
393.15
393.15
393.15
393.15
393.15
393.15
393.15
393.15
393.15
393.15
393.15
393.15
393.15
393.15
393.15
393.15
393.15
393.15
393.15
393.15
393.15
393.15
393.15
393.15
393.15
393.15
393.15
393.15
393.15
393.15
393.15
393.15
393.15
393.15
393.15
393.15
393.15
393.15
393.15
393.15
393.15
393.15
393.15
393.15
393.15
393.15
393.15
393.15
393.15
393.15
393.15
393.15
393.15
393.15
393.15
393.15
393.15
393.15
393.15
393.15
393.15
393.15
393.15
393.15
393.15
393.15
393.15
393.15
393.15
393.15
393.15
393.15
393.15
393.15
393.15
393.15
393.15
393.15
393.15
393.15
393.15
393.15
393.15
393.15
393.15
393.15
393.15
393.15
393.15
393.15
393.15
393.15
393.15
393.15
393.15
393.15
393.15
393.15
393.15
393.15
393.15
393.15
393.15
393.15
393.15
393.15
393.15
393.15
393.15
393.15
393.15
393.15
393.15
393.15
393.15
393.15
393.15
393.15
393.15
393.15
393.15
393.15
393.15
393.15
393.15
393.15
393.15
393.15
393.15
393.15
393.15
393.15
393.15
393.15
393.15
393.15
393.15
393.15
393.15
393.15
393.15
393.15
393.15
393.15
393.15
393.15
393.15
393.15
393.15
393.15
393.15
393.15
393.15
393.15
393.15
393.15
393.15
393.15
393.15
393.15
393.15
393.15
393.15
393.15
393.15
393.15
393.15
393.15
393.15
393.15
393.15
393.15
393.15
393.15
393.15
393.15
393.15
393.15
393.15
393.15
393.15
393.15
393.15
393.15
393.15
393.15
393.15
393.15
393.15
393.15
393.15
393.15
393.15
393.15
393.15
393.15
393.15
393.15
393.15
393.15
393.15
393.15
393.15
393.15
393.15
393.15
393.15
393.15
393.15
393.15
393.15
393.15
393.15
393.15
393.15
393.15
393.15
393.15
393.15
393.15
393.15
393.15
393.15
393.15
393.15
393.15
393.15
393.15
393.15
393.15
393.15
393.15
393.15
393.15
393.15
393.15
393.15
393.15
393.15
393.15
393.15
393.15
393.15
393.15
393.15
393.15
393.15
393.15
393.15
393.15
393.15
393.15
393.15
393.15
393.15
393.15
393.15
393.15
393.15
393.15
393.15
393.15
393.15
393.15
393.15
393.15
393.15
393.15
393.15
393.15
393.15
393.15
393.15
393.15
393.15
393.15
393.15
393.15
393.15
393.15
393.15
393.15
393.15
393.15
393.15
393.15
393.15
393.15
393.15
393.15
393.15
393.15
393.15
393.15
393.15
393.15
393.15
393.15
393.15
393.15
393.15
393.15
393.15
393.15
393.15
393.15
393.15
393.15
393.15
393.15
393.15
393.15
393.15
393.15
393.15
393.15
393.15
393.15
393.15
393.15
393.15
393.15
393.15
393.15
393.15
393.15
393.15
393.15
393.15
393.15
393.15
393.15
393.15
393.15
393.15
393.15
393.15
393.15
393.15
393.15
393.15
393.15
393.15
393.15
393.15
393.15
393.15
393.15
393.15
393.15
393.15
393.15
393.15
393.15
393.15
393.15
393.15
393.15
393.15
393.15
393.15
393.15
393.15
393.15
393.15
393.15
393.15
393.15
393.15
393.15
393.15
393.15
393.15
393.15
393.15
393.15
393.15
393.15
393.15
393.15
393.15
393.15
393.15
393.15
393.15
393.15
393.15
393.15
393.15
393.15
393.15
393.15
393.15
393.15
393.15
393.15
393.15
393.15
393.15
393.15
393.15
393.15
393.15
393.15
393.15
393.15
393.15
393.15
393.15
393.15
393.15
393.15
393.15
393.15
393.15
393.15
393.15
393.15
393.15
393.15
393.15
393.15
393.15
393.15
393.15
393.15
393.15
393.15
393.15
393.15
393.15
393.15
393.15
393.15
393.15
393.15
393.15
393.15
393.15
393.15
393.15
393.15
393.15
393.15
393.15
393.15
393.15
393.15
393.15
393.15
393.15
393.15
393.15
393.15
393.15
393.15
393.15
393.15
393.15
393.15
393.15
393.15
393.15
393.15
393.15
393.15
393.15
393.15
393.15
393.15
393.15
393.15
393.15
393.15
393.15
393.15
393.15
393.15
393.15
393.15
393.15
393.15
393.15
393.15
393.15
393.15
393.15
393.15
393.15
393.15
393.15
393.15
393.15
393.15
393.15
393.15
393.15
393.15
393.15
393.15
393.15
393.15
393.15
393.15
393.15
393.15
393.15
393.15
393.15
393.15
393.15
393.15
393.15
393.15
393.15
393.15
393.15
393.15
393.15
393.15
393.15
393.15
393.15
393.15
393.15
393.15
393.15
393.15
393.15
393.15
393.15
393.15
393.15
393.15
393.15
393.15
393.15
393.15
393.15
393.15
393.15
393.15
393.15
393.15
393.15
393.15
393.15
393.15
393.15
393.15
393.15
393.15
393.15
393.15
393.15
393.15
393.15
393.15
393.15
393.15
393.15
393.15
393.15
393.15
393.15
393.15
393.15
393.15
393.15
393.15
393.15
393.15
393.15
393.15
393.15
393.15
393.15
393.15
393.15
393.15
393.15
393.15
393.15
393.15
393.15
393.15
393.15
393.15
393.15
393.15
393.15
393.15
393.15
393.15
393.15
393.15
393.15
393.15
393.15
393.15
393.15
393.15
393.15
393.15
393.15
393.15
393.15
393.15
393.15
393.15
393.15
393.15
393.15
393.15
393.15
393.15
393.15
393.15
393.15
393.15
393.15
393.15
393.15
393.15
393.15
393.15
393.15
393.15
393.15
393.15
393.15
393.15
393.15
393.15
393.15
393.15
393.15
393.15
393.15
393.15
393.15
393.15
393.15
393.15
393.15
393.15
393.15
393.15
393.15
393.15
393.15
393.15
393.15
393.15
393.15
393.15
393.15
393.15
393.15
393.15
393.15
393.15
393.15
393.15
393.15
393.15
393.15
393.15
393.15
393.15
393.15
393.15
393.15
393.15
393.15
393.15
393.15
393.15
393.15
393.15
393.15
393.15
393.15
393.15
393.15
393.15
393.15
393.15
393.15
393.15
393.15
393.15
393.15
393.15
393.15
393.15
393.15
393.15
393.15
393.15
393.15
393.15
393.15
393.15
393.15
393.15
393.15
393.15
393.15
393.15
393.15
393.15
393.15
393.15
393.15
393.15
393.15
393.15
393.15
393.15
393.15
393.15
393.15
393.15
393.15
393.15
393.15
393.15
393.15
393.15
393.15
393.15
393.15
393.15
393.15
393.15
393.15
393.15
393.15
393.15
393.15
393.15
393.15
393.15
393.15
393.15
393.15
393.15
393.15
393.15
393.15
393.15
393.15
393.15
393.15
393.15
393.15
393.15
393.15
393.15
393.15
393.15
393.15
393.15
393.15
393.15
393.15
393.15
393.15
393.15
393.15
393.15
393.15
393.15
393.15
393.15
393.15
393.15
393.15
393.15
393.15
393.15
393.15
393.15
393.15
393.15
393.15
393.15
393.15
393.15
393.15
393.15
393.15
393.15
393.15
393.15
393.15
393.15
393.15
393.15
393.15
393.15
393.15
393.15
393.15
393.15
393.15
393.15
393.15
393.15
393.15
393.15
393.15
393.15
393.15
393.15
393.15
393.15
393.15
393.15
393.15
393.15
393.15
393.15
393.15
393.15
393.15