/*--------------------------------*- C++ -*----------------------------------*\
| =========                 |                                                 |
| \\      /  F ield         | OpenFOAM: The Open Source CFD Toolbox           |
|  \\    /   O peration     | Version:  2.1.0                                 |
|   \\  /    A nd           | Web:      www.OpenFOAM.org                      |
|    \\/     M anipulation  |                                                 |
\*---------------------------------------------------------------------------*/
FoamFile
{
    version     2.0;
    format      ascii;
    class       volVectorField;
    location    "0.37";
    object      U;
}
// * * * * * * * * * * * * * * * * * * * * * * * * * * * * * * * * * * * * * //

dimensions      [0 1 -1 0 0 0 0];

internalField   nonuniform List<vector> 
6400
(
(-1.29723 -6.0965e-05 0)
(-1.29639 -0.000534986 0)
(-1.29428 -0.000821234 0)
(-1.29122 -0.000967462 0)
(-1.28769 -0.00105489 0)
(-1.28385 -0.00111396 0)
(-1.2798 -0.00115663 0)
(-1.27559 -0.0011901 0)
(-1.27124 -0.00121826 0)
(-1.26678 -0.00124346 0)
(-1.26221 -0.00126711 0)
(-1.25754 -0.00128998 0)
(-1.25276 -0.00131256 0)
(-1.24789 -0.00133508 0)
(-1.24292 -0.00135778 0)
(-1.23785 -0.00138067 0)
(-1.23267 -0.00140395 0)
(-1.2274 -0.00142751 0)
(-1.22202 -0.00145148 0)
(-1.21653 -0.00147569 0)
(-1.21094 -0.00150032 0)
(-1.20524 -0.00152541 0)
(-1.19944 -0.00155117 0)
(-1.19352 -0.00157673 0)
(-1.18749 -0.00160316 0)
(-1.18135 -0.00163126 0)
(-1.17508 -0.00166042 0)
(-1.16869 -0.00169045 0)
(-1.16217 -0.00172142 0)
(-1.15552 -0.00175337 0)
(-1.14873 -0.00178643 0)
(-1.1418 -0.00182063 0)
(-1.13473 -0.00185611 0)
(-1.1275 -0.00189293 0)
(-1.12012 -0.00193121 0)
(-1.11258 -0.00197096 0)
(-1.10488 -0.00201232 0)
(-1.097 -0.00205531 0)
(-1.08894 -0.0021001 0)
(-1.08069 -0.00214685 0)
(-1.07225 -0.00219571 0)
(-1.0636 -0.00224675 0)
(-1.05475 -0.00230001 0)
(-1.04567 -0.00235562 0)
(-1.03636 -0.00241361 0)
(-1.02682 -0.00247399 0)
(-1.01702 -0.00253676 0)
(-1.00697 -0.0026018 0)
(-0.996652 -0.00266895 0)
(-0.98606 -0.00273872 0)
(-0.975188 -0.00280858 0)
(-0.964032 -0.00288015 0)
(-0.952577 -0.00295779 0)
(-0.940802 -0.00304001 0)
(-0.92869 -0.00312492 0)
(-0.916249 -0.00320817 0)
(-0.903479 -0.00328794 0)
(-0.890393 -0.0033664 0)
(-0.876992 -0.00344577 0)
(-0.863271 -0.00352699 0)
(-0.849221 -0.00361065 0)
(-0.834834 -0.00369651 0)
(-0.820099 -0.00378522 0)
(-0.805004 -0.00387728 0)
(-0.789536 -0.0039729 0)
(-0.77368 -0.00407263 0)
(-0.757419 -0.00417686 0)
(-0.740733 -0.00428633 0)
(-0.723602 -0.00440147 0)
(-0.706003 -0.00452266 0)
(-0.68791 -0.00465031 0)
(-0.669297 -0.0047851 0)
(-0.650136 -0.00492753 0)
(-0.630393 -0.00507851 0)
(-0.610035 -0.00523903 0)
(-0.58902 -0.00541043 0)
(-0.567303 -0.00559441 0)
(-0.544829 -0.00579312 0)
(-0.521536 -0.00600953 0)
(-0.497344 -0.00624803 0)
(-0.472157 -0.00651393 0)
(-0.445853 -0.00681389 0)
(-0.418282 -0.00715642 0)
(-0.389257 -0.00755069 0)
(-0.358563 -0.00800351 0)
(-0.325965 -0.00851726 0)
(-0.291231 -0.0090872 0)
(-0.254182 -0.00969295 0)
(-0.214779 -0.0102835 0)
(-0.173298 -0.0107479 0)
(-0.130682 -0.0108598 0)
(-0.0891944 -0.0101719 0)
(-0.0530091 -0.00815944 0)
(-0.0273582 -0.0048152 0)
(-0.0158668 -0.000983452 0)
(-0.0202762 0.00318458 0)
(-0.0490594 0.0113306 0)
(-0.129146 0.0292034 0)
(-0.328912 0.0711559 0)
(-0.948473 0.19898 0)
(-1.56534 -0.000379425 0)
(-1.56252 -0.00173454 0)
(-1.56069 -0.00249164 0)
(-1.55751 -0.00289534 0)
(-1.55397 -0.0031413 0)
(-1.55014 -0.00330767 0)
(-1.54615 -0.00342791 0)
(-1.54201 -0.00352204 0)
(-1.53776 -0.0036012 0)
(-1.5334 -0.00367197 0)
(-1.52896 -0.00373841 0)
(-1.52442 -0.00380258 0)
(-1.5198 -0.00386609 0)
(-1.51509 -0.00392943 0)
(-1.51029 -0.00399345 0)
(-1.50541 -0.00405809 0)
(-1.50044 -0.00412393 0)
(-1.49538 -0.0041907 0)
(-1.49022 -0.00425872 0)
(-1.48498 -0.00432749 0)
(-1.47963 -0.00439747 0)
(-1.4742 -0.00446855 0)
(-1.46867 -0.00454168 0)
(-1.46304 -0.00461352 0)
(-1.45731 -0.00468684 0)
(-1.45149 -0.00476477 0)
(-1.44557 -0.00484497 0)
(-1.43956 -0.00492722 0)
(-1.43344 -0.00501179 0)
(-1.42722 -0.00509879 0)
(-1.42089 -0.00518856 0)
(-1.41446 -0.0052812 0)
(-1.40791 -0.00537705 0)
(-1.40126 -0.00547629 0)
(-1.39449 -0.00557917 0)
(-1.3876 -0.00568575 0)
(-1.38059 -0.00579641 0)
(-1.37345 -0.00591131 0)
(-1.36619 -0.00603066 0)
(-1.35879 -0.00615482 0)
(-1.35126 -0.00628428 0)
(-1.34359 -0.00641919 0)
(-1.33578 -0.00655977 0)
(-1.32781 -0.00670638 0)
(-1.31968 -0.0068592 0)
(-1.3114 -0.00701837 0)
(-1.30295 -0.0071841 0)
(-1.29432 -0.00735631 0)
(-1.2855 -0.00753475 0)
(-1.27649 -0.00772062 0)
(-1.26728 -0.00790915 0)
(-1.25787 -0.00809938 0)
(-1.24827 -0.00829642 0)
(-1.2385 -0.00849871 0)
(-1.22856 -0.00870475 0)
(-1.21847 -0.00891018 0)
(-1.2082 -0.00911121 0)
(-1.19776 -0.00931039 0)
(-1.18713 -0.00951177 0)
(-1.17632 -0.00971751 0)
(-1.16533 -0.00992891 0)
(-1.15415 -0.0101457 0)
(-1.14278 -0.0103687 0)
(-1.13121 -0.0105988 0)
(-1.11945 -0.0108368 0)
(-1.10748 -0.0110837 0)
(-1.09532 -0.0113408 0)
(-1.08295 -0.0116095 0)
(-1.07036 -0.0118912 0)
(-1.05755 -0.0121873 0)
(-1.04451 -0.0124993 0)
(-1.03122 -0.0128291 0)
(-1.01767 -0.0131785 0)
(-1.00384 -0.0135505 0)
(-0.989703 -0.0139482 0)
(-0.975228 -0.0143757 0)
(-0.960382 -0.0148379 0)
(-0.945122 -0.015341 0)
(-0.929398 -0.0158927 0)
(-0.913152 -0.0165044 0)
(-0.896313 -0.0171892 0)
(-0.878802 -0.0179626 0)
(-0.860532 -0.0188438 0)
(-0.841402 -0.0198534 0)
(-0.821308 -0.0210067 0)
(-0.80014 -0.0223081 0)
(-0.777801 -0.0237418 0)
(-0.754239 -0.0252521 0)
(-0.729495 -0.0267085 0)
(-0.703769 -0.0278406 0)
(-0.677523 -0.0281243 0)
(-0.651535 -0.0266031 0)
(-0.627177 -0.0220264 0)
(-0.60736 -0.0137983 0)
(-0.601133 -0.0011869 0)
(-0.616078 0.0130743 0)
(-0.664259 0.0397576 0)
(-0.768185 0.0920606 0)
(-0.971075 0.204384 0)
(-1.45972 0.526452 0)
(-1.71597 -0.000986505 0)
(-1.71223 -0.00299259 0)
(-1.71124 -0.00408968 0)
(-1.70861 -0.00470206 0)
(-1.70565 -0.00508081 0)
(-1.70248 -0.00533668 0)
(-1.69914 -0.00552041 0)
(-1.69571 -0.00566371 0)
(-1.69218 -0.00578316 0)
(-1.68858 -0.00588971 0)
(-1.6849 -0.00598906 0)
(-1.68118 -0.00608502 0)
(-1.67737 -0.00617968 0)
(-1.67352 -0.0062743 0)
(-1.6696 -0.00636986 0)
(-1.66562 -0.0064667 0)
(-1.66157 -0.00656544 0)
(-1.65747 -0.00666607 0)
(-1.6533 -0.00676892 0)
(-1.64906 -0.00687348 0)
(-1.64474 -0.00698037 0)
(-1.64036 -0.0070896 0)
(-1.63589 -0.0072026 0)
(-1.63134 -0.00731482 0)
(-1.62671 -0.00742722 0)
(-1.622 -0.0075429 0)
(-1.61722 -0.00765996 0)
(-1.61238 -0.00777915 0)
(-1.60748 -0.00790103 0)
(-1.6025 -0.0080259 0)
(-1.59747 -0.00815416 0)
(-1.59237 -0.008286 0)
(-1.5872 -0.00842176 0)
(-1.58197 -0.00856166 0)
(-1.57668 -0.00870601 0)
(-1.57132 -0.00885483 0)
(-1.5659 -0.00900852 0)
(-1.56041 -0.00916749 0)
(-1.55486 -0.00933169 0)
(-1.54925 -0.00950135 0)
(-1.54358 -0.00967718 0)
(-1.53785 -0.0098593 0)
(-1.53206 -0.010048 0)
(-1.52621 -0.0102436 0)
(-1.52031 -0.0104464 0)
(-1.51436 -0.0106566 0)
(-1.50836 -0.0108745 0)
(-1.50232 -0.0111002 0)
(-1.49623 -0.0113333 0)
(-1.4901 -0.0115739 0)
(-1.48394 -0.0118193 0)
(-1.47776 -0.0120656 0)
(-1.47155 -0.0123113 0)
(-1.46533 -0.012555 0)
(-1.45909 -0.0127982 0)
(-1.45287 -0.0130436 0)
(-1.44664 -0.0132888 0)
(-1.44041 -0.013533 0)
(-1.43417 -0.0137784 0)
(-1.42794 -0.0140272 0)
(-1.42171 -0.0142804 0)
(-1.41551 -0.0145376 0)
(-1.40934 -0.0147991 0)
(-1.4032 -0.0150648 0)
(-1.39713 -0.0153357 0)
(-1.39112 -0.0156126 0)
(-1.3852 -0.0158966 0)
(-1.37938 -0.016189 0)
(-1.37369 -0.0164913 0)
(-1.36814 -0.0168054 0)
(-1.36275 -0.0171331 0)
(-1.35754 -0.0174775 0)
(-1.35253 -0.0178409 0)
(-1.34774 -0.0182277 0)
(-1.34319 -0.0186428 0)
(-1.33889 -0.0190924 0)
(-1.33485 -0.0195844 0)
(-1.33108 -0.0201279 0)
(-1.32757 -0.0207341 0)
(-1.32431 -0.0214189 0)
(-1.32129 -0.0222005 0)
(-1.31848 -0.0230985 0)
(-1.31585 -0.0241355 0)
(-1.31337 -0.0253349 0)
(-1.31099 -0.0267143 0)
(-1.30867 -0.0282766 0)
(-1.3064 -0.0299946 0)
(-1.30416 -0.0317861 0)
(-1.30203 -0.0334722 0)
(-1.30015 -0.0347051 0)
(-1.29878 -0.0348564 0)
(-1.29826 -0.032876 0)
(-1.29912 -0.0272602 0)
(-1.30284 -0.0164608 0)
(-1.31153 0.00184696 0)
(-1.3285 0.0260396 0)
(-1.36781 0.069427 0)
(-1.44389 0.149603 0)
(-1.5877 0.311463 0)
(-1.8586 0.719396 0)
(-1.85186 -0.0016807 0)
(-1.84785 -0.00401759 0)
(-1.84787 -0.00535676 0)
(-1.84613 -0.00613412 0)
(-1.84414 -0.00661936 0)
(-1.84199 -0.00694485 0)
(-1.83972 -0.00717535 0)
(-1.83739 -0.00735283 0)
(-1.83499 -0.00749805 0)
(-1.83256 -0.00762619 0)
(-1.83008 -0.00774385 0)
(-1.8276 -0.00785685 0)
(-1.82507 -0.00796723 0)
(-1.82254 -0.00807737 0)
(-1.81996 -0.00818796 0)
(-1.81739 -0.00830004 0)
(-1.81478 -0.00841394 0)
(-1.81217 -0.00853023 0)
(-1.80953 -0.00864911 0)
(-1.80689 -0.00877014 0)
(-1.80422 -0.00889397 0)
(-1.80155 -0.00902128 0)
(-1.79886 -0.00915179 0)
(-1.79615 -0.00928383 0)
(-1.79345 -0.00941659 0)
(-1.79073 -0.0095489 0)
(-1.78799 -0.00968083 0)
(-1.78525 -0.00981397 0)
(-1.78251 -0.00994922 0)
(-1.77976 -0.0100869 0)
(-1.77701 -0.0102275 0)
(-1.77426 -0.0103711 0)
(-1.77152 -0.010518 0)
(-1.76879 -0.0106683 0)
(-1.76606 -0.0108222 0)
(-1.76336 -0.0109797 0)
(-1.76067 -0.0111408 0)
(-1.75801 -0.0113059 0)
(-1.75537 -0.011475 0)
(-1.75277 -0.0116479 0)
(-1.75021 -0.0118252 0)
(-1.7477 -0.0120066 0)
(-1.74525 -0.0121922 0)
(-1.74286 -0.0123822 0)
(-1.74054 -0.0125764 0)
(-1.7383 -0.0127747 0)
(-1.73616 -0.0129771 0)
(-1.73412 -0.0131833 0)
(-1.73221 -0.0133926 0)
(-1.73043 -0.0136033 0)
(-1.7288 -0.0138141 0)
(-1.72733 -0.0140266 0)
(-1.72602 -0.0142382 0)
(-1.72485 -0.0144449 0)
(-1.72384 -0.0146472 0)
(-1.72298 -0.0148488 0)
(-1.72229 -0.0150491 0)
(-1.72178 -0.0152458 0)
(-1.72147 -0.0154393 0)
(-1.72136 -0.0156308 0)
(-1.72148 -0.0158208 0)
(-1.72182 -0.0160084 0)
(-1.72243 -0.0161932 0)
(-1.7233 -0.0163747 0)
(-1.72447 -0.0165536 0)
(-1.72593 -0.0167304 0)
(-1.72772 -0.0169061 0)
(-1.72984 -0.0170817 0)
(-1.73232 -0.0172588 0)
(-1.73516 -0.0174395 0)
(-1.73838 -0.0176263 0)
(-1.74198 -0.0178229 0)
(-1.74597 -0.0180332 0)
(-1.75035 -0.018263 0)
(-1.75511 -0.0185193 0)
(-1.76025 -0.0188107 0)
(-1.76573 -0.0191484 0)
(-1.77155 -0.0195451 0)
(-1.77765 -0.0200147 0)
(-1.78401 -0.0205776 0)
(-1.79056 -0.0212565 0)
(-1.79726 -0.0220735 0)
(-1.80405 -0.0230529 0)
(-1.81086 -0.0242177 0)
(-1.81766 -0.0255844 0)
(-1.82439 -0.0271512 0)
(-1.83105 -0.0288795 0)
(-1.83764 -0.0306674 0)
(-1.84421 -0.0323074 0)
(-1.85086 -0.033417 0)
(-1.85768 -0.0333432 0)
(-1.8647 -0.0310494 0)
(-1.8719 -0.024982 0)
(-1.87977 -0.0132101 0)
(-1.88892 0.00604214 0)
(-1.89985 0.0360905 0)
(-1.92241 0.0890754 0)
(-1.9636 0.185762 0)
(-2.03277 0.375322 0)
(-2.13359 0.778095 0)
(-1.98874 -0.0022766 0)
(-1.98511 -0.00467665 0)
(-1.98624 -0.00612469 0)
(-1.98572 -0.00699854 0)
(-1.98515 -0.00755005 0)
(-1.98446 -0.00791488 0)
(-1.98376 -0.00816883 0)
(-1.98302 -0.00835878 0)
(-1.98229 -0.00851012 0)
(-1.98156 -0.00863969 0)
(-1.98084 -0.00875597 0)
(-1.98015 -0.00886522 0)
(-1.97947 -0.00897026 0)
(-1.97883 -0.00907354 0)
(-1.97822 -0.00917603 0)
(-1.97765 -0.00927876 0)
(-1.97711 -0.00938208 0)
(-1.97663 -0.00948656 0)
(-1.97619 -0.00959258 0)
(-1.97581 -0.00969917 0)
(-1.97548 -0.0098066 0)
(-1.97522 -0.0099162 0)
(-1.97503 -0.0100261 0)
(-1.97492 -0.0101368 0)
(-1.9749 -0.0102505 0)
(-1.97494 -0.0103645 0)
(-1.97505 -0.0104774 0)
(-1.97524 -0.0105902 0)
(-1.97549 -0.0107037 0)
(-1.97583 -0.0108179 0)
(-1.97625 -0.0109334 0)
(-1.97676 -0.0110501 0)
(-1.97735 -0.0111682 0)
(-1.97805 -0.0112877 0)
(-1.97884 -0.0114087 0)
(-1.97975 -0.0115308 0)
(-1.98076 -0.011654 0)
(-1.9819 -0.0117784 0)
(-1.98316 -0.0119039 0)
(-1.98455 -0.0120304 0)
(-1.98608 -0.0121579 0)
(-1.98775 -0.0122861 0)
(-1.98958 -0.0124149 0)
(-1.99157 -0.012544 0)
(-1.99372 -0.0126733 0)
(-1.99604 -0.0128024 0)
(-1.99854 -0.0129311 0)
(-2.00122 -0.0130588 0)
(-2.00409 -0.0131847 0)
(-2.00716 -0.0133073 0)
(-2.01043 -0.013426 0)
(-2.01389 -0.0135446 0)
(-2.01756 -0.0136633 0)
(-2.02144 -0.0137769 0)
(-2.02553 -0.0138845 0)
(-2.02984 -0.0139871 0)
(-2.03437 -0.014084 0)
(-2.03913 -0.0141743 0)
(-2.04411 -0.0142577 0)
(-2.04932 -0.0143356 0)
(-2.05477 -0.0144085 0)
(-2.06043 -0.0144756 0)
(-2.06632 -0.0145361 0)
(-2.07244 -0.0145899 0)
(-2.07877 -0.014638 0)
(-2.08531 -0.0146814 0)
(-2.09206 -0.0147216 0)
(-2.09902 -0.01476 0)
(-2.10616 -0.014799 0)
(-2.11348 -0.0148411 0)
(-2.12098 -0.0148899 0)
(-2.12863 -0.0149498 0)
(-2.13643 -0.0150263 0)
(-2.14436 -0.0151263 0)
(-2.15242 -0.0152583 0)
(-2.16058 -0.0154327 0)
(-2.16884 -0.0156625 0)
(-2.17719 -0.0159636 0)
(-2.1856 -0.0163496 0)
(-2.19406 -0.0168433 0)
(-2.20257 -0.0174711 0)
(-2.21111 -0.0182546 0)
(-2.21966 -0.0192174 0)
(-2.22821 -0.0203808 0)
(-2.23678 -0.0217576 0)
(-2.24535 -0.0233404 0)
(-2.25394 -0.025082 0)
(-2.26257 -0.0268692 0)
(-2.27126 -0.0284847 0)
(-2.28 -0.0295473 0)
(-2.28871 -0.0294322 0)
(-2.29715 -0.0271908 0)
(-2.30477 -0.0213678 0)
(-2.31163 -0.0101171 0)
(-2.31688 0.0087331 0)
(-2.31945 0.0405291 0)
(-2.32397 0.0969365 0)
(-2.32993 0.199182 0)
(-2.3279 0.392644 0)
(-2.31028 0.744431 0)
(-2.13325 -0.00260778 0)
(-2.13067 -0.00484506 0)
(-2.13295 -0.00624548 0)
(-2.13396 -0.00711546 0)
(-2.13512 -0.00766801 0)
(-2.13629 -0.00802625 0)
(-2.13754 -0.00826898 0)
(-2.13883 -0.00844185 0)
(-2.14018 -0.00857318 0)
(-2.1416 -0.00867912 0)
(-2.14308 -0.00876983 0)
(-2.14463 -0.0088509 0)
(-2.14625 -0.00892615 0)
(-2.14796 -0.00899745 0)
(-2.14974 -0.00906633 0)
(-2.15162 -0.00913334 0)
(-2.15357 -0.00919912 0)
(-2.15563 -0.00926382 0)
(-2.15778 -0.00932841 0)
(-2.16004 -0.00939134 0)
(-2.16239 -0.0094519 0)
(-2.16487 -0.00951229 0)
(-2.16744 -0.00957181 0)
(-2.17014 -0.00963038 0)
(-2.17295 -0.00969176 0)
(-2.17588 -0.00975442 0)
(-2.17893 -0.00981584 0)
(-2.18211 -0.00987605 0)
(-2.1854 -0.00993536 0)
(-2.18883 -0.00999392 0)
(-2.19239 -0.010052 0)
(-2.19608 -0.0101097 0)
(-2.1999 -0.0101671 0)
(-2.20387 -0.0102243 0)
(-2.20796 -0.0102812 0)
(-2.2122 -0.0103376 0)
(-2.21658 -0.0103937 0)
(-2.2211 -0.0104493 0)
(-2.22575 -0.0105043 0)
(-2.23055 -0.0105587 0)
(-2.23549 -0.0106127 0)
(-2.24057 -0.010666 0)
(-2.24579 -0.0107186 0)
(-2.25114 -0.0107704 0)
(-2.25663 -0.0108213 0)
(-2.26225 -0.0108711 0)
(-2.26799 -0.0109197 0)
(-2.27387 -0.0109668 0)
(-2.27986 -0.0110119 0)
(-2.28597 -0.0110542 0)
(-2.29219 -0.0110939 0)
(-2.29852 -0.0111326 0)
(-2.30495 -0.0111704 0)
(-2.31148 -0.0112043 0)
(-2.31811 -0.0112334 0)
(-2.32482 -0.0112576 0)
(-2.33161 -0.0112764 0)
(-2.33848 -0.0112894 0)
(-2.34542 -0.0112968 0)
(-2.35242 -0.0112998 0)
(-2.35947 -0.0113002 0)
(-2.36658 -0.0112971 0)
(-2.37374 -0.0112886 0)
(-2.38093 -0.0112748 0)
(-2.38817 -0.0112572 0)
(-2.39545 -0.011237 0)
(-2.40276 -0.0112159 0)
(-2.4101 -0.0111956 0)
(-2.41748 -0.0111784 0)
(-2.42489 -0.011167 0)
(-2.43233 -0.0111649 0)
(-2.43981 -0.0111766 0)
(-2.44732 -0.0112075 0)
(-2.45487 -0.0112645 0)
(-2.46247 -0.0113562 0)
(-2.4701 -0.0114929 0)
(-2.47778 -0.0116875 0)
(-2.48551 -0.0119568 0)
(-2.49328 -0.0123131 0)
(-2.50114 -0.0127768 0)
(-2.50906 -0.0133743 0)
(-2.51707 -0.0141277 0)
(-2.52518 -0.0150604 0)
(-2.53341 -0.0161914 0)
(-2.54177 -0.0175313 0)
(-2.55027 -0.0190719 0)
(-2.55893 -0.0207647 0)
(-2.56775 -0.0224965 0)
(-2.57671 -0.0240606 0)
(-2.58572 -0.0251061 0)
(-2.59458 -0.0250759 0)
(-2.60285 -0.0231471 0)
(-2.60963 -0.0181214 0)
(-2.61465 -0.0082825 0)
(-2.61593 0.00897809 0)
(-2.61057 0.0393284 0)
(-2.59889 0.0934704 0)
(-2.57329 0.19136 0)
(-2.51173 0.368869 0)
(-2.41558 0.652584 0)
(-2.28157 -0.00257102 0)
(-2.28025 -0.00443968 0)
(-2.28364 -0.00564112 0)
(-2.28619 -0.00640244 0)
(-2.28896 -0.0068841 0)
(-2.29193 -0.00718773 0)
(-2.295 -0.00738402 0)
(-2.2982 -0.00751336 0)
(-2.30147 -0.00760257 0)
(-2.30486 -0.00766622 0)
(-2.3083 -0.00771433 0)
(-2.31186 -0.00775189 0)
(-2.31548 -0.00778286 0)
(-2.31922 -0.00780884 0)
(-2.32301 -0.0078316 0)
(-2.32692 -0.00785146 0)
(-2.33089 -0.00786933 0)
(-2.33497 -0.00788508 0)
(-2.33911 -0.00790014 0)
(-2.34336 -0.007913 0)
(-2.34769 -0.00792178 0)
(-2.35212 -0.0079277 0)
(-2.35663 -0.00793194 0)
(-2.36125 -0.00793477 0)
(-2.36596 -0.00793871 0)
(-2.37078 -0.00794287 0)
(-2.3757 -0.007946 0)
(-2.38072 -0.00794788 0)
(-2.38584 -0.00794876 0)
(-2.39106 -0.00794871 0)
(-2.39636 -0.00794823 0)
(-2.40177 -0.00794743 0)
(-2.40726 -0.00794687 0)
(-2.41285 -0.00794639 0)
(-2.41851 -0.00794643 0)
(-2.42427 -0.00794678 0)
(-2.43008 -0.00794783 0)
(-2.43598 -0.00794934 0)
(-2.44194 -0.00795164 0)
(-2.44797 -0.00795473 0)
(-2.45404 -0.00795893 0)
(-2.46018 -0.00796414 0)
(-2.46635 -0.00797039 0)
(-2.47257 -0.0079777 0)
(-2.47882 -0.00798622 0)
(-2.4851 -0.00799558 0)
(-2.49141 -0.00800572 0)
(-2.49774 -0.0080166 0)
(-2.50408 -0.00802781 0)
(-2.51043 -0.00803857 0)
(-2.51679 -0.00804908 0)
(-2.52316 -0.00806018 0)
(-2.52952 -0.00807144 0)
(-2.53589 -0.00808112 0)
(-2.54224 -0.00808828 0)
(-2.5486 -0.00809241 0)
(-2.55494 -0.0080928 0)
(-2.56128 -0.00808895 0)
(-2.5676 -0.00808064 0)
(-2.57393 -0.00806884 0)
(-2.58024 -0.00805616 0)
(-2.58654 -0.00804204 0)
(-2.59284 -0.00802165 0)
(-2.59914 -0.00799501 0)
(-2.60545 -0.00796405 0)
(-2.61177 -0.00792956 0)
(-2.6181 -0.00789317 0)
(-2.62445 -0.00785629 0)
(-2.63083 -0.00782074 0)
(-2.63725 -0.00778904 0)
(-2.64371 -0.0077644 0)
(-2.65023 -0.00775078 0)
(-2.6568 -0.00775339 0)
(-2.66345 -0.00777897 0)
(-2.67018 -0.00783595 0)
(-2.677 -0.0079345 0)
(-2.68393 -0.00808696 0)
(-2.69097 -0.00830818 0)
(-2.69813 -0.00861411 0)
(-2.70548 -0.00902381 0)
(-2.71294 -0.00955888 0)
(-2.72058 -0.0102424 0)
(-2.72839 -0.0110972 0)
(-2.73641 -0.0121408 0)
(-2.74466 -0.0133825 0)
(-2.75317 -0.0148178 0)
(-2.76192 -0.0164034 0)
(-2.77093 -0.0180335 0)
(-2.7801 -0.019526 0)
(-2.78932 -0.0205803 0)
(-2.79825 -0.0207326 0)
(-2.80632 -0.0193115 0)
(-2.81242 -0.0154417 0)
(-2.81571 -0.00760149 0)
(-2.81384 0.00687359 0)
(-2.80154 0.0331731 0)
(-2.77586 0.0801738 0)
(-2.72351 0.164981 0)
(-2.61592 0.312772 0)
(-2.47008 0.525645 0)
(-2.41428 -0.0021844 0)
(-2.41387 -0.0035277 0)
(-2.41795 -0.00443242 0)
(-2.42149 -0.00501157 0)
(-2.42522 -0.0053736 0)
(-2.42931 -0.00559387 0)
(-2.43342 -0.00572674 0)
(-2.43775 -0.00580442 0)
(-2.44206 -0.00584816 0)
(-2.44654 -0.00587014 0)
(-2.45099 -0.00587846 0)
(-2.45558 -0.00587742 0)
(-2.46014 -0.00587037 0)
(-2.46483 -0.00585881 0)
(-2.46951 -0.00584433 0)
(-2.4743 -0.00582733 0)
(-2.47908 -0.00580865 0)
(-2.48397 -0.0057882 0)
(-2.48885 -0.00576648 0)
(-2.49382 -0.00574297 0)
(-2.49881 -0.00571745 0)
(-2.50389 -0.0056889 0)
(-2.50895 -0.00565806 0)
(-2.5141 -0.00562634 0)
(-2.51923 -0.00559565 0)
(-2.52443 -0.00556552 0)
(-2.52962 -0.00553578 0)
(-2.53487 -0.00550598 0)
(-2.54011 -0.00547672 0)
(-2.5454 -0.00544762 0)
(-2.55067 -0.00541974 0)
(-2.55599 -0.00539279 0)
(-2.56128 -0.00536798 0)
(-2.56661 -0.0053447 0)
(-2.57191 -0.00532397 0)
(-2.57724 -0.00530515 0)
(-2.58254 -0.00528897 0)
(-2.58786 -0.00527486 0)
(-2.59315 -0.00526357 0)
(-2.59846 -0.00525498 0)
(-2.60373 -0.00524911 0)
(-2.60901 -0.00524591 0)
(-2.61426 -0.00524533 0)
(-2.61952 -0.00524728 0)
(-2.62475 -0.00525182 0)
(-2.62998 -0.00525848 0)
(-2.63519 -0.00526692 0)
(-2.6404 -0.00527706 0)
(-2.64559 -0.00528849 0)
(-2.65078 -0.00530037 0)
(-2.65596 -0.00531249 0)
(-2.66114 -0.0053251 0)
(-2.66632 -0.00533759 0)
(-2.6715 -0.00534842 0)
(-2.67669 -0.00535658 0)
(-2.68189 -0.00536132 0)
(-2.6871 -0.00536167 0)
(-2.69234 -0.0053569 0)
(-2.69759 -0.00534643 0)
(-2.70288 -0.00533025 0)
(-2.70818 -0.00531254 0)
(-2.71353 -0.00529455 0)
(-2.71891 -0.00526633 0)
(-2.72434 -0.00522802 0)
(-2.72981 -0.0051822 0)
(-2.73535 -0.00513013 0)
(-2.74096 -0.0050729 0)
(-2.74663 -0.00501158 0)
(-2.75239 -0.00494774 0)
(-2.75823 -0.00488351 0)
(-2.76417 -0.00482178 0)
(-2.77023 -0.00476621 0)
(-2.77639 -0.00472183 0)
(-2.78269 -0.00469495 0)
(-2.78912 -0.00469372 0)
(-2.79571 -0.00472794 0)
(-2.80246 -0.00480935 0)
(-2.80939 -0.00495041 0)
(-2.81651 -0.00517085 0)
(-2.82385 -0.0054919 0)
(-2.8314 -0.00593114 0)
(-2.83919 -0.00650922 0)
(-2.84723 -0.00724771 0)
(-2.85556 -0.00816293 0)
(-2.86419 -0.0092628 0)
(-2.87314 -0.0105507 0)
(-2.8824 -0.0119969 0)
(-2.89192 -0.0135054 0)
(-2.90162 -0.0149305 0)
(-2.91129 -0.0160366 0)
(-2.92051 -0.016469 0)
(-2.92861 -0.015731 0)
(-2.93441 -0.013233 0)
(-2.9363 -0.00784823 0)
(-2.9323 0.00267067 0)
(-2.91436 0.0228633 0)
(-2.87768 0.0587062 0)
(-2.80463 0.12347 0)
(-2.66451 0.233054 0)
(-2.48907 0.378716 0)
(-2.51292 -0.00149343 0)
(-2.51335 -0.00230577 0)
(-2.51752 -0.00287912 0)
(-2.52144 -0.00324624 0)
(-2.52545 -0.00347315 0)
(-2.5299 -0.00360792 0)
(-2.53425 -0.00368423 0)
(-2.53887 -0.00372338 0)
(-2.54334 -0.00373894 0)
(-2.54801 -0.0037391 0)
(-2.55251 -0.00372938 0)
(-2.55717 -0.00371272 0)
(-2.56167 -0.00369142 0)
(-2.56631 -0.00366677 0)
(-2.5708 -0.00363985 0)
(-2.57541 -0.0036111 0)
(-2.57988 -0.00358107 0)
(-2.58446 -0.00354977 0)
(-2.58891 -0.00351654 0)
(-2.59345 -0.00348199 0)
(-2.59787 -0.00344882 0)
(-2.60238 -0.00341593 0)
(-2.60676 -0.00338227 0)
(-2.6112 -0.00334899 0)
(-2.61552 -0.00331726 0)
(-2.6199 -0.00328682 0)
(-2.62417 -0.00325786 0)
(-2.62848 -0.00322989 0)
(-2.63269 -0.00320348 0)
(-2.63693 -0.003178 0)
(-2.64109 -0.00315456 0)
(-2.64527 -0.00313264 0)
(-2.64938 -0.00311356 0)
(-2.6535 -0.00309649 0)
(-2.65756 -0.00308251 0)
(-2.66163 -0.00307077 0)
(-2.66565 -0.00306196 0)
(-2.66968 -0.00305524 0)
(-2.67366 -0.00305134 0)
(-2.67766 -0.00305011 0)
(-2.68162 -0.00305139 0)
(-2.6856 -0.00305491 0)
(-2.68955 -0.00306051 0)
(-2.69351 -0.00306804 0)
(-2.69746 -0.00307741 0)
(-2.70143 -0.0030881 0)
(-2.70539 -0.00309968 0)
(-2.70938 -0.00311179 0)
(-2.71337 -0.00312382 0)
(-2.71739 -0.00313531 0)
(-2.72142 -0.00314591 0)
(-2.7255 -0.00315508 0)
(-2.72958 -0.00316222 0)
(-2.73372 -0.00316611 0)
(-2.73789 -0.00316561 0)
(-2.74211 -0.0031599 0)
(-2.74636 -0.00314803 0)
(-2.75068 -0.00312899 0)
(-2.75505 -0.0031023 0)
(-2.75949 -0.00306619 0)
(-2.764 -0.00302601 0)
(-2.76857 -0.00299061 0)
(-2.77321 -0.00293848 0)
(-2.77794 -0.00287145 0)
(-2.78276 -0.00279377 0)
(-2.78767 -0.00270723 0)
(-2.79268 -0.00261246 0)
(-2.79781 -0.00251012 0)
(-2.80305 -0.00240145 0)
(-2.80841 -0.00228824 0)
(-2.81391 -0.00217307 0)
(-2.81955 -0.00205925 0)
(-2.82535 -0.00195151 0)
(-2.83131 -0.00185574 0)
(-2.83744 -0.00177958 0)
(-2.84377 -0.00173238 0)
(-2.8503 -0.00172518 0)
(-2.85706 -0.00177045 0)
(-2.86405 -0.00188729 0)
(-2.8713 -0.00209605 0)
(-2.87883 -0.00241394 0)
(-2.88668 -0.0028603 0)
(-2.89485 -0.0034551 0)
(-2.90339 -0.00421548 0)
(-2.91231 -0.00514569 0)
(-2.92165 -0.00625931 0)
(-2.93138 -0.00755568 0)
(-2.94144 -0.00894105 0)
(-2.95173 -0.010317 0)
(-2.962 -0.0115258 0)
(-2.97181 -0.0123269 0)
(-2.98042 -0.0124172 0)
(-2.98663 -0.0114337 0)
(-2.98841 -0.00880855 0)
(-2.9836 -0.00296922 0)
(-2.96423 0.00924123 0)
(-2.92048 0.0310814 0)
(-2.83482 0.0708056 0)
(-2.67545 0.137085 0)
(-2.48504 0.220743 0)
(-2.55721 -0.000581835 0)
(-2.5579 -0.000953975 0)
(-2.56195 -0.00119586 0)
(-2.56582 -0.0013511 0)
(-2.56972 -0.00145054 0)
(-2.57409 -0.00151359 0)
(-2.57827 -0.00155247 0)
(-2.58275 -0.00157511 0)
(-2.58696 -0.00158698 0)
(-2.59139 -0.00159094 0)
(-2.59555 -0.00158983 0)
(-2.59988 -0.00158458 0)
(-2.60396 -0.00157625 0)
(-2.60817 -0.00156576 0)
(-2.61215 -0.00155354 0)
(-2.61625 -0.00153991 0)
(-2.62012 -0.00152504 0)
(-2.62411 -0.00150898 0)
(-2.62788 -0.00149112 0)
(-2.63175 -0.00147249 0)
(-2.63543 -0.00145558 0)
(-2.63919 -0.0014401 -1.69283e-41)
(-2.64278 -0.00142464 0)
(-2.64645 -0.00140972 0)
(-2.64995 -0.00139572 0)
(-2.65353 -0.00138264 0)
(-2.65697 -0.00137051 0)
(-2.66047 -0.0013591 0)
(-2.66384 -0.00134832 0)
(-2.66728 -0.00133809 0)
(-2.6706 -0.00132871 0)
(-2.67398 -0.00132044 0)
(-2.67727 -0.00131362 0)
(-2.68059 -0.00130825 0)
(-2.68386 -0.00130445 0)
(-2.68715 -0.00130216 0)
(-2.6904 -0.00130139 0)
(-2.69367 -0.0013017 0)
(-2.69691 -0.00130337 0)
(-2.70018 -0.00130626 0)
(-2.70342 -0.00131042 0)
(-2.70669 -0.00131529 0)
(-2.70996 -0.00132078 0)
(-2.71325 -0.0013266 0)
(-2.71654 -0.00133266 0)
(-2.71986 -0.00133849 0)
(-2.7232 -0.0013437 0)
(-2.72657 -0.00134768 0)
(-2.72995 -0.00134966 0)
(-2.73338 -0.00134953 0)
(-2.73684 -0.0013471 0)
(-2.74034 -0.00134123 0)
(-2.74387 -0.00133124 0)
(-2.74746 -0.0013163 0)
(-2.75109 -0.00129513 0)
(-2.75479 -0.00126684 0)
(-2.75853 -0.00123073 0)
(-2.76234 -0.00118543 0)
(-2.7662 -0.00113013 0)
(-2.77014 -0.00106368 0)
(-2.77416 -0.00098382 0)
(-2.77825 -0.00092502 0)
(-2.78241 -0.000837493 0)
(-2.78666 -0.000729495 0)
(-2.791 -0.000609098 0)
(-2.79545 -0.000477709 0)
(-2.8 -0.000335429 0)
(-2.80467 -0.000182542 0)
(-2.80945 -1.98884e-05 0)
(-2.81437 0.000151037 0)
(-2.81941 0.000328031 0)
(-2.82461 0.0005082 0)
(-2.82997 0.000687273 0)
(-2.83549 0.000859803 0)
(-2.8412 0.0010188 0)
(-2.84711 0.00115555 0)
(-2.85322 0.00125973 0)
(-2.85957 0.00131862 0)
(-2.86617 0.00131551 0)
(-2.87304 0.0012325 0)
(-2.88021 0.00105227 0)
(-2.8877 0.00075589 0)
(-2.89553 0.000324134 3.81018e-42)
(-2.90375 -0.000260219 0)
(-2.91235 -0.00100662 0)
(-2.92141 -0.00192068 0)
(-2.93077 -0.0030597 0)
(-2.94048 -0.00431468 -5.07188e-41)
(-2.95042 -0.00564675 0)
(-2.96034 -0.00698424 0)
(-2.96976 -0.00820074 0)
(-2.97797 -0.00917427 0)
(-2.98376 -0.00981119 0)
(-2.98522 -0.0100091 -5.88281e-41)
(-2.9791 -0.00912173 0)
(-2.95947 -0.0060751 0)
(-2.91382 7.93601e-05 9.32873e-43)
(-2.82374 0.0118147 0)
(-2.65764 0.0317416 0)
(-2.46249 0.0569456 0)
(-2.53085 0.00038537 0)
(-2.53133 0.000450949 0)
(-2.53544 0.000544718 0)
(-2.53938 0.000601172 0)
(-2.54334 0.000625718 0)
(-2.5478 0.000629186 0)
(-2.55209 0.000620866 0)
(-2.55669 0.000606783 0)
(-2.56104 0.00059002 0)
(-2.56563 0.000572895 0)
(-2.56996 0.000555911 0)
(-2.57447 0.000539805 0)
(-2.57874 0.000525096 0)
(-2.58315 0.00051127 0)
(-2.58735 0.000498689 0)
(-2.59166 0.000487169 0)
(-2.59576 0.000476992 0)
(-2.59997 0.000468089 0)
(-2.60398 0.000460839 0)
(-2.60808 0.000454229 0)
(-2.61201 0.000447247 0)
(-2.61601 0.000439863 5.17056e-42)
(-2.61984 0.000433003 0)
(-2.62375 0.000426253 0)
(-2.6275 0.000419734 0)
(-2.63131 0.000413193 0)
(-2.63499 0.000406815 0)
(-2.63872 0.000400538 0)
(-2.64232 0.000395173 0)
(-2.64597 0.000390229 0)
(-2.64951 0.000386117 0)
(-2.65309 0.000381726 0)
(-2.65658 0.000377672 0)
(-2.6601 0.000373092 0)
(-2.66354 0.000368785 0)
(-2.66701 0.000363958 0)
(-2.67042 0.000359369 0)
(-2.67385 0.000354713 0)
(-2.67724 0.000350365 0)
(-2.68064 0.000346362 0)
(-2.68401 0.000342766 0)
(-2.6874 0.000339843 0)
(-2.69077 0.000337803 0)
(-2.69415 0.00033701 0)
(-2.69753 0.000337683 0)
(-2.70093 0.000340218 0)
(-2.70433 0.000345052 0)
(-2.70775 0.000352791 0)
(-2.71118 0.00036412 0)
(-2.71464 0.000379244 0)
(-2.71812 0.000398432 0)
(-2.72164 0.000422782 0)
(-2.72517 0.000453118 0)
(-2.72876 0.000490096 0)
(-2.73237 0.000535093 0)
(-2.73603 0.000589144 0)
(-2.73973 0.000652459 0)
(-2.74349 0.000726837 0)
(-2.74729 0.000813775 0)
(-2.75115 0.000912862 0)
(-2.75507 0.00102764 0)
(-2.75905 0.0011247 0)
(-2.76311 0.0012526 0)
(-2.76726 0.00140335 0)
(-2.77147 0.00156902 0)
(-2.77577 0.00174856 0)
(-2.78016 0.00194209 0)
(-2.78464 0.00214966 0)
(-2.78923 0.00237079 0)
(-2.79393 0.00260424 0)
(-2.79875 0.00284828 0)
(-2.80369 0.00310053 0)
(-2.80877 0.00335729 0)
(-2.81401 0.00361364 0)
(-2.8194 0.00386333 0)
(-2.82497 0.0040984 0)
(-2.83073 0.00430923 0)
(-2.8367 0.0044838 0)
(-2.84289 0.00460729 0)
(-2.84933 0.00466359 0)
(-2.85603 0.00463603 0)
(-2.86304 0.00450616 0)
(-2.87035 0.0042546 5.00125e-41)
(-2.87801 0.0038649 0)
(-2.88602 0.00331694 0)
(-2.89442 0.00260422 0)
(-2.90309 0.00166193 0)
(-2.91205 0.000556556 6.54228e-42)
(-2.92111 -0.000727081 0)
(-2.93002 -0.0021949 0)
(-2.9381 -0.00380493 0)
(-2.94488 -0.00560944 0)
(-2.94917 -0.00782169 0)
(-2.94901 -0.0107261 -6.30422e-41)
(-2.94111 -0.0147065 0)
(-2.91943 -0.0205682 0)
(-2.87301 -0.030202 -3.55022e-40)
(-2.78253 -0.0465721 0)
(-2.61773 -0.0727878 0)
(-2.42399 -0.103866 0)
(-2.44831 0.00122784 0)
(-2.44797 0.00186167 0)
(-2.45216 0.00231037 0)
(-2.45595 0.00259191 0)
(-2.45987 0.00275436 0)
(-2.46427 0.00283917 0)
(-2.4686 0.00287784 0)
(-2.47323 0.00288875 0)
(-2.47775 0.00288429 0)
(-2.48247 0.0028706 0)
(-2.48708 0.00285258 0)
(-2.49184 0.00283159 0)
(-2.4965 0.00280972 0)
(-2.50128 0.00278712 0)
(-2.50597 0.00276469 0)
(-2.51076 0.00274235 0)
(-2.51545 0.00272073 0)
(-2.52024 0.00269969 0)
(-2.52494 0.00267957 0)
(-2.52971 0.00265951 0)
(-2.5344 0.0026392 0)
(-2.53916 0.00261852 0)
(-2.54383 0.00259811 0)
(-2.54856 0.00257759 0)
(-2.55321 0.00255729 0)
(-2.55791 0.00253689 0)
(-2.56252 0.00251663 0)
(-2.56717 0.00249646 0)
(-2.57175 0.00247743 0)
(-2.57635 0.00245933 0)
(-2.58087 0.0024425 0)
(-2.58542 0.00242584 0)
(-2.5899 0.00240991 0)
(-2.59439 0.00239402 0)
(-2.59882 0.00237902 0)
(-2.60325 0.00236424 0)
(-2.60763 0.00235057 0)
(-2.612 0.00233748 0)
(-2.61633 0.00232573 0)
(-2.62065 0.00231522 0)
(-2.62492 0.00230645 0)
(-2.62919 0.00229925 0)
(-2.63341 0.0022942 0)
(-2.63764 0.00229161 0)
(-2.64183 0.002292 0)
(-2.64601 0.00229571 0)
(-2.65017 0.00230337 0)
(-2.65433 0.00231549 0)
(-2.65846 0.00233276 0)
(-2.66261 0.00235555 0)
(-2.66673 0.00238444 0)
(-2.67087 0.0024202 0)
(-2.67501 0.00246366 0)
(-2.67916 0.00251581 0)
(-2.68332 0.00257792 0)
(-2.6875 0.00265124 0)
(-2.69169 0.00273589 0)
(-2.69592 0.00283345 0)
(-2.70017 0.00294558 0)
(-2.70445 0.00307163 0)
(-2.70876 0.00320829 0)
(-2.71313 0.0033486 0)
(-2.71753 0.00351277 0)
(-2.72199 0.00369935 0)
(-2.72649 0.00390449 0)
(-2.73106 0.00412719 0)
(-2.73569 0.00436757 0)
(-2.7404 0.00462583 0)
(-2.74518 0.00490185 0)
(-2.75005 0.00519475 0)
(-2.75501 0.00550331 0)
(-2.76008 0.00582566 0)
(-2.76526 0.00615875 0)
(-2.77057 0.00649825 0)
(-2.77602 0.00683863 0)
(-2.78163 0.00717275 0)
(-2.78741 0.00749175 0)
(-2.79339 0.00778454 0)
(-2.79957 0.00803778 0)
(-2.806 0.0082367 0)
(-2.81268 0.00836535 0)
(-2.81965 0.00840583 0)
(-2.82694 0.00833738 0)
(-2.83457 0.00814274 0)
(-2.84255 0.00779962 0)
(-2.85091 0.0072806 0)
(-2.85964 0.00654807 0)
(-2.86866 0.00558967 0)
(-2.87781 0.00433826 0)
(-2.8869 0.00272551 0)
(-2.8952 0.000695224 0)