/*--------------------------------*- C++ -*----------------------------------*\
| =========                 |                                                 |
| \\      /  F ield         | OpenFOAM: The Open Source CFD Toolbox           |
|  \\    /   O peration     | Version:  2.1.0                                 |
|   \\  /    A nd           | Web:      www.OpenFOAM.org                      |
|    \\/     M anipulation  |                                                 |
\*---------------------------------------------------------------------------*/
FoamFile
{
    version     2.0;
    format      ascii;
    class       volScalarField;
    location    "0.26";
    object      C2;
}
// * * * * * * * * * * * * * * * * * * * * * * * * * * * * * * * * * * * * * //

dimensions      [0 0 0 0 0 0 0];

internalField   nonuniform List<scalar> 
6400
(
0.000142041
0.000148862
0.000157724
0.000167399
0.000177595
0.000188247
0.000199346
0.000210894
0.000222892
0.000235346
0.000248254
0.00026162
0.00027544
0.000289713
0.000304436
0.000319602
0.000335206
0.000351238
0.00036769
0.000384549
0.000401802
0.000419434
0.000437427
0.000455764
0.000474423
0.000493382
0.000512616
0.000532098
0.0005518
0.000571691
0.000591738
0.000611906
0.00063216
0.00065246
0.000672767
0.00069304
0.000713234
0.000733306
0.000753209
0.000772895
0.000792317
0.000811424
0.000830165
0.000848489
0.000866345
0.000883678
0.000900436
0.000916567
0.000932016
0.00094673
0.000960657
0.000973744
0.000985938
0.000997187
0.00100744
0.00101665
0.00102475
0.00103172
0.00103748
0.001042
0.00104523
0.00104713
0.00104765
0.00104674
0.00104437
0.00104049
0.00103507
0.00102807
0.00101945
0.00100918
0.000997221
0.000983549
0.000968132
0.000950943
0.000931959
0.000911155
0.000888515
0.000864021
0.000837663
0.000809434
0.000779333
0.000747367
0.000713551
0.000677911
0.000640486
0.000601332
0.000560524
0.000518162
0.000474377
0.000429339
0.000383263
0.000336424
0.000289197
0.000242157
0.000196191
0.000152275
0.000110995
7.34879e-05
4.18435e-05
1.86639e-05
0.000145727
0.000152831
0.000161944
0.000171853
0.000182282
0.000193172
0.000204515
0.000216312
0.000228568
0.000241284
0.000254463
0.000268103
0.000282205
0.000296765
0.00031178
0.000327243
0.000343148
0.000359486
0.000376247
0.000393419
0.000410988
0.000428938
0.000447252
0.000465911
0.000484894
0.000504177
0.000523735
0.000543542
0.000563567
0.000583781
0.000604149
0.000624636
0.000645205
0.000665818
0.000686434
0.000707011
0.000727506
0.000747873
0.000768065
0.000788035
0.000807734
0.000827111
0.000846116
0.000864696
0.000882799
0.000900372
0.000917361
0.000933713
0.000949374
0.000964291
0.000978409
0.000991676
0.00100404
0.00101545
0.00102585
0.00103519
0.00104342
0.00105049
0.00105635
0.00106096
0.00106426
0.00106621
0.00106677
0.00106589
0.00106353
0.00105965
0.00105421
0.00104717
0.0010385
0.00102815
0.00101609
0.0010023
0.000986738
0.000969377
0.000950189
0.000929151
0.000906239
0.000881434
0.000854721
0.000826086
0.000795523
0.000763031
0.000728615
0.000692292
0.000654089
0.000614049
0.000572237
0.000528744
0.000483701
0.000437288
0.000389757
0.00034146
0.000292894
0.00024475
0.00019794
0.00015356
0.000112334
7.56358e-05
4.55251e-05
2.41732e-05
0.000152122
0.000159638
0.000169162
0.000179474
0.000190309
0.000201615
0.000213387
0.000225625
0.000238334
0.000251516
0.000265172
0.000279302
0.000293905
0.000308977
0.000324515
0.000340512
0.00035696
0.00037385
0.000391172
0.000408913
0.000427058
0.000445591
0.000464495
0.000483749
0.000503331
0.000523217
0.000543383
0.000563799
0.000584436
0.000605262
0.000626243
0.000647343
0.000668523
0.000689745
0.000710968
0.000732148
0.000753242
0.000774203
0.000794984
0.000815538
0.000835814
0.000855761
0.000875328
0.000894463
0.000913111
0.000931221
0.000948737
0.000965606
0.000981773
0.000997184
0.00101179
0.00102552
0.00103835
0.0010502
0.00106103
0.00107079
0.00107943
0.00108689
0.00109313
0.0010981
0.00110175
0.00110404
0.00110492
0.00110434
0.00110226
0.00109865
0.00109346
0.00108664
0.00107817
0.001068
0.0010561
0.00104243
0.00102696
0.00100965
0.000990479
0.000969408
0.000946411
0.00092146
0.000894531
0.0008656
0.000834647
0.000801655
0.000766613
0.000729515
0.000690366
0.000649183
0.000606007
0.000560907
0.000514001
0.000465473
0.000415606
0.000364825
0.000313747
0.000263228
0.000214395
0.00016858
0.000126491
8.95663e-05
5.96183e-05
3.84824e-05
0.000160579
0.000168599
0.000178653
0.000189495
0.000200869
0.000212731
0.000225074
0.000237903
0.00025122
0.000265027
0.000279325
0.000294115
0.000309393
0.000325158
0.000341403
0.000358123
0.000375309
0.000392952
0.00041104
0.000429559
0.000448495
0.000467831
0.000487548
0.000507624
0.000528039
0.000548766
0.000569779
0.00059105
0.000612548
0.00063424
0.000656091
0.000678064
0.000700121
0.000722221
0.000744322
0.000766382
0.000788355
0.000810194
0.000831853
0.000853282
0.00087443
0.000895248
0.000915682
0.00093568
0.000955189
0.000974154
0.000992522
0.00101024
0.00102725
0.0010435
0.00105893
0.0010735
0.00108715
0.00109982
0.00111146
0.00112203
0.00113148
0.00113974
0.00114678
0.00115254
0.00115699
0.00116006
0.00116172
0.00116193
0.00116063
0.00115779
0.00115337
0.00114732
0.00113961
0.00113019
0.00111903
0.00110609
0.00109134
0.00107473
0.00105622
0.0010358
0.00101341
0.000989018
0.000962594
0.000934097
0.00090349
0.000870737
0.000835799
0.000798641
0.000759232
0.00071755
0.000673591
0.00062738
0.000578989
0.000528566
0.000476375
0.000422844
0.000368626
0.000314667
0.00026226
0.000212763
0.000167038
0.00012661
9.34194e-05
6.98142e-05
0.000170436
0.000179024
0.000189686
0.000201144
0.00021315
0.000225663
0.00023868
0.000252203
0.000266236
0.000280781
0.000295838
0.000311408
0.000327487
0.000344072
0.000361158
0.000378737
0.000396803
0.000415343
0.000434346
0.000453798
0.000473684
0.000493984
0.000514681
0.000535753
0.000557176
0.000578925
0.000600973
0.000623291
0.000645846
0.000668607
0.000691535
0.000714595
0.000737747
0.000760951
0.000784163
0.000807342
0.000830441
0.000853413
0.000876211
0.000898786
0.000921087
0.000943064
0.000964665
0.000985837
0.00100653
0.00102668
0.00104625
0.00106517
0.0010834
0.00110088
0.00111755
0.00113337
0.00114828
0.00116223
0.00117518
0.00118706
0.00119783
0.00120745
0.00121586
0.00122302
0.00122888
0.0012334
0.00123653
0.00123823
0.00123846
0.00123718
0.00123435
0.00122992
0.00122386
0.00121613
0.00120669
0.0011955
0.00118252
0.00116771
0.00115103
0.00113244
0.0011119
0.00108936
0.00106477
0.00103807
0.00100922
0.00097815
0.000944787
0.000909059
0.000870888
0.000830195
0.000786909
0.000740978
0.000692384
0.000641178
0.000587514
0.000531708
0.000474304
0.000416148
0.000358485
0.000302761
0.000250046
0.000202216
0.000161966
0.000133331
0.000180935
0.000190122
0.000201428
0.000213541
0.000226222
0.000239433
0.000253172
0.000267441
0.000282243
0.000297581
0.000313456
0.000329865
0.000346808
0.000364279
0.000382274
0.000400785
0.000419803
0.000439317
0.000459316
0.000479784
0.000500706
0.000522063
0.000543836
0.000566002
0.000588538
0.000611419
0.000634616
0.0006581
0.00068184
0.000705802
0.000729949
0.000754245
0.000778649
0.000803122
0.000827622
0.000852105
0.000876527
0.000900841
0.000925001
0.000948957
0.000972662
0.000996064
0.00101911
0.00104176
0.00106395
0.00108563
0.00110676
0.00112727
0.00114712
0.00116626
0.00118463
0.00120219
0.00121888
0.00123466
0.00124948
0.00126328
0.00127603
0.00128768
0.00129819
0.0013075
0.00131559
0.00132239
0.00132789
0.00133202
0.00133477
0.00133607
0.00133591
0.00133424
0.00133102
0.00132621
0.00131978
0.00131169
0.00130189
0.00129035
0.00127702
0.00126186
0.00124482
0.00122583
0.00120486
0.00118182
0.00115664
0.00112923
0.00109949
0.00106732
0.00103258
0.000995119
0.000954799
0.000911463
0.00086497
0.000815212
0.000762155
0.00070588
0.000646655
0.000585008
0.00052186
0.000458774
0.000397073
0.000339152
0.000289044
0.000253573
0.000191181
0.000200954
0.000212886
0.000225639
0.00023898
0.000252874
0.000267321
0.000282321
0.00029788
0.000313998
0.000330676
0.000347914
0.000365708
0.000384055
0.000402949
0.000422382
0.000442346
0.000462831
0.000483822
0.000505306
0.000527268
0.000549687
0.000572546
0.000595822
0.000619491
0.000643528
0.000667906
0.000692595
0.000717566
0.000742783
0.000768212
0.000793816
0.000819557
0.000845397
0.000871293
0.000897205
0.000923089
0.0009489
0.000974594
0.00100012
0.00102544
0.0010505
0.00107526
0.00109966
0.00112366
0.0011472
0.00117024
0.00119274
0.00121463
0.00123588
0.00125644
0.00127626
0.00129529
0.00131349
0.00133082
0.00134723
0.00136268
0.00137713
0.00139053
0.00140286
0.00141407
0.00142412
0.00143298
0.0014406
0.00144697
0.00145203
0.00145575
0.0014581
0.00145905
0.00145856
0.00145659
0.00145311
0.00144808
0.00144145
0.00143319
0.00142324
0.00141156
0.00139808
0.00138275
0.00136548
0.00134619
0.00132478
0.00130113
0.00127509
0.00124651
0.00121518
0.00118088
0.00114338
0.00110242
0.00105771
0.00100901
0.000956114
0.000898901
0.000837404
0.000771905
0.000703762
0.000634711
0.000567449
0.000507506
0.000465012
0.000200159
0.00021045
0.000222931
0.000236246
0.000250168
0.000264665
0.000279736
0.000295384
0.000311612
0.000328422
0.000345815
0.00036379
0.000382345
0.000401475
0.000421177
0.000441441
0.000462261
0.000483625
0.000505522
0.000527938
0.000550856
0.00057426
0.000598131
0.000622448
0.000647187
0.000672324
0.000697835
0.000723689
0.000749858
0.00077631
0.000803012
0.000829928
0.000857024
0.000884261
0.000911602
0.000939008
0.000966437
0.000993849
0.0010212
0.00104845
0.00107555
0.00110247
0.00112914
0.00115554
0.00118162
0.00120733
0.00123262
0.00125746
0.0012818
0.0013056
0.00132881
0.00135139
0.0013733
0.00139451
0.00141497
0.00143464
0.00145349
0.00147149
0.00148859
0.00150476
0.00151997
0.0015342
0.00154739
0.00155953
0.00157059
0.00158053
0.00158932
0.00159694
0.00160335
0.00160852
0.00161243
0.00161503
0.0016163
0.0016162
0.00161468
0.00161171
0.00160724
0.00160121
0.00159355
0.00158421
0.00157308
0.00156008
0.00154509
0.00152796
0.00150852
0.00148656
0.00146184
0.00143409
0.00140297
0.00136812
0.00132914
0.00128562
0.00123709
0.00118313
0.00112326
0.00105745
0.000988461
0.00091855
0.000853946
0.000807148
0.000206846
0.000217532
0.000230431
0.000244173
0.000258539
0.000273498
0.000289049
0.000305196
0.000321943
0.000339291
0.000357243
0.000375798
0.000394954
0.000414708
0.000435055
0.00045599
0.000477505
0.000499591
0.000522236
0.000545428
0.000569153
0.000593395
0.000618136
0.000643356
0.000669036
0.000695153
0.000721682
0.000748597
0.000775873
0.000803479
0.000831385
0.000859559
0.000887969
0.000916581
0.000945359
0.000974269
0.00100327
0.00103233
0.00106141
0.00109047
0.00111947
0.00114838
0.00117714
0.00120573
0.00123409
0.00126221
0.00129002
0.0013175
0.00134461
0.0013713
0.00139755
0.00142331
0.00144855
0.00147324
0.00149735
0.00152083
0.00154366
0.00156582
0.00158726
0.00160797
0.00162791
0.00164707
0.00166541
0.00168291
0.00169955
0.00171529
0.00173013
0.00174403
0.00175698
0.00176894
0.00177989
0.00178981
0.00179868
0.00180646
0.00181312
0.00181862
0.00182293
0.001826
0.00182779
0.00182823
0.00182727
0.00182481
0.00182077
0.00181504
0.00180749
0.00179794
0.00178619
0.00177202
0.00175513
0.00173521
0.00171187
0.00168469
0.00165314
0.00161656
0.00157406
0.0015245
0.00146942
0.00141107
0.00135424
0.00131037
0.000210383
0.000221291
0.000234429
0.00024842
0.000263047
0.00027828
0.000294121
0.000310572
0.000327639
0.000345325
0.000363631
0.000382559
0.000402109
0.000422278
0.000443063
0.00046446
0.000486463
0.000509063
0.000532252
0.00055602
0.000580354
0.000605239
0.000630662
0.000656606
0.000683051
0.000709979
0.000737368
0.000765196
0.000793439
0.000822071
0.000851065
0.000880393
0.000910027
0.000939937
0.000970092
0.00100046
0.00103101
0.00106171
0.00109252
0.00112341
0.00115435
0.0011853
0.00121622
0.00124709
0.00127787
0.00130852
0.00133902
0.00136932
0.00139939
0.00142921
0.00145874
0.00148795
0.00151681
0.00154529
0.00157338
0.00160103
0.00162823
0.00165495
0.00168117
0.00170687
0.00173202
0.00175662
0.00178064
0.00180406
0.00182687
0.00184906
0.00187059
0.00189147
0.00191166
0.00193117
0.00194998
0.00196806
0.0019854
0.00200198
0.0020178
0.00203281
0.00204701
0.00206035
0.00207281
0.00208435
0.00209493
0.0021045
0.002113
0.0021204
0.00212666
0.00213163
0.00213525
0.00213738
0.00213791
0.00213665
0.00213345
0.00212808
0.0021203
0.00210978
0.00209606
0.00207846
0.00205598
0.00202896
0.00199934
0.00197155
0.000210262
0.00022119
0.000234364
0.000248399
0.000263079
0.000278375
0.000294287
0.000310823
0.000327986
0.000345782
0.000364214
0.000383284
0.000402994
0.000423344
0.000444332
0.000465956
0.000488212
0.000511094
0.000534596
0.00055871
0.000583426
0.000608733
0.000634619
0.00066107
0.000688072
0.000715608
0.000743659
0.000772209
0.000801235
0.000830718
0.000860633
0.000890959
0.000921669
0.000952739
0.000984142
0.00101585
0.00104784
0.00108008
0.00111254
0.00114519
0.00117801
0.00121096
0.00124401
0.00127714
0.00131032
0.00134352
0.00137671
0.00140986
0.00144295
0.00147594
0.00150882
0.00154156
0.00157414
0.00160653
0.00163871
0.00167067
0.00170238
0.00173383
0.001765
0.00179587
0.00182644
0.00185669
0.0018866
0.00191616
0.00194537
0.00197423
0.00200272
0.00203083
0.00205857
0.00208592
0.00211289
0.00213946
0.00216564
0.00219143
0.00221681
0.00224179
0.00226637
0.00229053
0.00231427
0.00233758
0.00236045
0.00238287
0.00240481
0.00242624
0.00244711
0.00246746
0.00248731
0.00250675
0.0025258
0.00254448
0.0025629
0.00258113
0.0025993
0.00261759
0.00263613
0.00265503
0.00267418
0.00269286
0.00270826
0.00271304
0.000206544
0.000217293
0.000230298
0.000244173
0.000258697
0.000273841
0.000289607
0.000306003
0.000323034
0.000340707
0.000359029
0.000378002
0.00039763
0.000417916
0.000438859
0.000460461
0.000482719
0.000505631
0.000529192
0.000553399
0.000578244
0.00060372
0.000629817
0.000656526
0.000683836
0.000711733
0.000740203
0.000769233
0.000798806
0.000828906
0.000859513
0.00089061
0.000922176
0.00095419
0.00098663
0.00101948
0.0010527
0.00108629
0.00112021
0.00115444
0.00118896
0.00122374
0.00125876
0.001294
0.00132943
0.00136502
0.00140076
0.00143663
0.00147259
0.00150864
0.00154474
0.00158089
0.00161706
0.00165324
0.00168941
0.00172556
0.00176167
0.00179773
0.00183374
0.00186967
0.00190554
0.00194132
0.00197702
0.00201263
0.00204815
0.00208358
0.00211893
0.00215419
0.00218937
0.00222447
0.00225951
0.00229449
0.00232941
0.0023643
0.00239916
0.00243401
0.00246886
0.00250372
0.00253862
0.00257357
0.00260859
0.0026437
0.00267892
0.00271427
0.00274978
0.0027855
0.00282149
0.00285779
0.00289455
0.00293206
0.00297071
0.0030107
0.00305239
0.00309612
0.00314223
0.00319088
0.00324154
0.00329195
0.00333583
0.0033596
0.000199793
0.000210194
0.000222851
0.000236383
0.000250564
0.000265363
0.000280783
0.000296832
0.00031352
0.000330855
0.000348843
0.000367491
0.000386805
0.000406788
0.000427445
0.000448777
0.000470785
0.000493471
0.000516833
0.000540869
0.000565576
0.00059095
0.000616986
0.000643676
0.000671014
0.000698991
0.000727597
0.000756822
0.000786654
0.000817081
0.000848089
0.000879664
0.000911791
0.000944454
0.000977636
0.00101132
0.00104549
0.00108012
0.0011152
0.00115071
0.00118663
0.00122294
0.00125962
0.00129666
0.00133403
0.00137171
0.00140969
0.00144796
0.00148648
0.00152526
0.00156427
0.0016035
0.00164293
0.00168256
0.00172237
0.00176236
0.00180251
0.00184282
0.00188329
0.00192392
0.00196469
0.00200562
0.0020467
0.00208794
0.00212934
0.00217091
0.00221266
0.0022546
0.00229674
0.00233911
0.0023817
0.00242455
0.00246768
0.0025111
0.00255484
0.00259894
0.00264342
0.00268831
0.00273365
0.00277947
0.00282583
0.00287275
0.00292029
0.0029685
0.00301744
0.00306719
0.00311782
0.00316944
0.0032222
0.00327626
0.00333177
0.00338929
0.00344923
0.00351173
0.00357688
0.00364446
0.00371332
0.00378027
0.00383801
0.00387183
0.000190861
0.000200789
0.00021296
0.000226009
0.000239699
0.000254
0.000268914
0.000284453
0.000300625
0.000317443
0.000334913
0.000353045
0.000371846
0.000391323
0.000411482
0.000432326
0.000453862
0.00047609
0.000499014
0.000522634
0.000546951
0.000571964
0.000597672
0.00062407
0.000651157
0.000678926
0.000707372
0.00073649
0.000766271
0.000796708
0.000827792
0.000859514
0.000891862
0.000924827
0.000958395
0.000992555
0.00102729
0.0010626
0.00109845
0.00113484
0.00117176
0.00120918
0.0012471
0.0012855
0.00132437
0.00136369
0.00140345
0.00144364
0.00148425
0.00152526
0.00156666
0.00160845
0.00165061
0.00169315
0.00173604
0.0017793
0.0018229
0.00186687
0.00191118
0.00195585
0.00200088
0.00204627
0.00209204
0.00213818
0.00218472
0.00223167
0.00227903
0.00232684
0.0023751
0.00242385
0.0024731
0.00252288
0.00257323
0.00262417
0.00267575
0.00272799
0.00278093
0.00283464
0.00288914
0.00294449
0.00300074
0.00305794
0.00311616
0.00317545
0.00323587
0.0032975
0.00336041
0.00342466
0.00349035
0.00355753
0.00362627
0.00369662
0.00376885
0.00384304
0.0039188
0.00399546
0.00407141
0.00414335
0.00420472
0.00424287
0.000180739
0.000190122
0.000201723
0.000214198
0.000227306
0.00024101
0.000255317
0.000270237
0.000285781
0.000301962
0.00031879
0.000336274
0.000354425
0.000373251
0.000392759
0.000412957
0.000433851
0.000455447
0.000477749
0.000500762
0.000524489
0.000548931
0.000574091
0.000599969
0.000626564
0.000653876
0.000681903
0.000710642
0.000740089
0.000770242
0.000801095
0.000832643
0.00086488
0.0008978
0.000931394
0.000965655
0.00100057
0.00103614
0.00107235
0.00110919
0.00114665
0.00118472
0.00122339
0.00126266
0.00130251
0.00134293
0.00138391
0.00142545
0.00146754
0.00151017
0.00155333
0.00159702
0.00164123
0.00168597
0.00173122
0.00177699
0.00182328
0.00187009
0.00191743
0.00196529
0.00201369
0.00206264
0.00211215
0.00216223
0.0022129
0.00226418
0.00231608
0.00236864
0.00242186
0.00247579
0.00253045
0.00258588
0.0026421
0.00269917
0.00275711
0.00281597
0.0028758
0.00293666
0.00299858
0.00306162
0.00312584
0.00319129
0.00325803
0.00332611
0.00339558
0.00346649
0.00353887
0.00361274
0.0036881
0.00376489
0.003843
0.00392224
0.00400226
0.00408303
0.00416381
0.00424358
0.00432053
0.00439163
0.00445172
0.00449136
0.000170395
0.000179212
0.000190213
0.000202084
0.000214576
0.000227651
0.000241312
0.000255573
0.000270445
0.000285941
0.000302073
0.000318853
0.000336291
0.000354397
0.000373182
0.000392654
0.000412821
0.000433691
0.000455271
0.000477568
0.000500587
0.000524333
0.00054881
0.000574021
0.00059997
0.000626657
0.000654086
0.000682255
0.000711165
0.000740816
0.000771207
0.000802336
0.0008342
0.000866797
0.000900123
0.000934173
0.000968942
0.00100443
0.00104062
0.00107752
0.00111511
0.0011534
0.00119237
0.00123202
0.00127234
0.00131333
0.00135498
0.00139729
0.00144026
0.00148387
0.00152812
0.00157302
0.00161856
0.00166474
0.00171156
0.00175903
0.00180714
0.0018559
0.00190533
0.00195542
0.00200619
0.00205765
0.00210982
0.00216271
0.00221634
0.00227073
0.0023259
0.00238189
0.00243871
0.00249641
0.002555
0.00261454
0.00267505
0.00273657
0.00279916
0.00286285
0.00292769
0.00299374
0.00306104
0.00312965
0.00319962
0.003271
0.00334383
0.00341817
0.00349405
0.00357149
0.00365048
0.00373101
0.003813
0.00389632
0.00398074
0.0040659
0.00415123
0.00423605
0.00431974
0.00440098
0.00447788
0.00454765
0.00460622
0.00464693
0.000160681
0.000168953
0.000179376
0.000190667
0.000202568
0.000215037
0.000228078
0.000241703
0.000255925
0.000270757
0.000286213
0.000302304
0.000319044
0.000336442
0.000354511
0.00037326
0.000392699
0.000412838
0.000433685
0.000455249
0.000477537
0.000500556
0.000524312
0.000548811
0.000574057
0.000600056
0.000626812
0.000654326
0.000682602
0.000711643
0.00074145
0.000772024
0.000803366
0.000835475
0.000868351
0.000901991
0.000936396
0.000971561
0.00100748
0.00104416
0.0010816
0.00111978
0.0011587
0.00119837
0.00123878
0.00127992
0.0013218
0.0013644
0.00140774
0.0014518
0.00149658
0.00154209
0.00158832
0.00163528
0.00168296
0.00173138
0.00178053
0.00183043
0.00188108
0.00193249
0.00198468
0.00203765
0.00209143
0.00214603
0.00220147
0.00225777
0.00231496
0.00237307
0.00243211
0.00249214
0.00255317
0.00261525
0.00267841
0.0027427
0.00280815
0.00287482
0.00294274
0.00301198
0.00308257
0.00315457
0.00322802
0.00330298
0.00337948
0.00345755
0.00353723
0.00361852
0.00370141
0.00378585
0.00387176
0.00395899
0.00404728
0.00413626
0.00422534
0.00431368
0.00440048
0.00448445
0.00456362
0.00463519
0.00469532
0.00473876
0.000152332
0.000160112
0.000170022
0.000180804
0.00019219
0.000204131
0.00021663
0.000229699
0.000243351
0.000257601
0.000272461
0.000287946
0.000304068
0.000320839
0.000338271
0.000356375
0.000375163
0.000394644
0.000414829
0.000435728
0.000457349
0.0004797
0.00050279
0.000526626
0.000551214
0.000576561
0.000602672
0.000629553
0.000657208
0.000685641
0.000714857
0.000744859
0.000775648
0.000807227
0.000839597
0.000872759
0.000906713
0.000941458
0.000976995
0.00101332
0.00105044
0.00108834
0.00112703
0.00116651
0.00120676
0.0012478
0.00128962
0.00133222
0.00137559
0.00141974
0.00146466
0.00151036
0.00155684
0.00160409
0.00165213
0.00170096
0.00175057
0.00180099
0.00185221
0.00190425
0.00195712
0.00201083
0.0020654
0.00212085
0.00217719
0.00223445
0.00229264
0.00235181
0.00241196
0.00247314
0.00253537
0.0025987
0.00266315
0.00272876
0.00279558
0.00286364
0.00293299
0.00300368
0.00307575
0.00314924
0.0032242
0.00330067
0.00337869
0.00345828
0.00353947
0.00362227
0.00370666
0.00379263
0.00388009
0.00396894
0.00405899
0.00414997
0.00424146
0.00433287
0.00442337
0.00451181
0.00459636
0.00467406
0.00474053
0.00479
0.000146003
0.000153374
0.000162878
0.000173267
0.000184256
0.000195792
0.000207875
0.000220517
0.000233732
0.000247533
0.000261936
0.000276953
0.000292597
0.000308883
0.000325821
0.000343424
0.000361704
0.000380672
0.000400339
0.000420715
0.00044181
0.000463634
0.000486195
0.000509502
0.000533562
0.000558384
0.000583973
0.000610338
0.000637482
0.000665413
0.000694134
0.000723652
0.000753968
0.000785087
0.000817011
0.000849743
0.000883283
0.000917633
0.000952794
0.000988766
0.00102555
0.00106314
0.00110155
0.00114076
0.00118078
0.00122161
0.00126325
0.00130569
0.00134894
0.001393
0.00143786
0.00148352
0.00152999
0.00157728
0.00162537
0.00167428
0.00172401
0.00177457
0.00182596
0.0018782
0.0019313
0.00198527
0.00204011
0.00209586
0.00215253
0.00221013
0.00226868
0.00232822
0.00238877
0.00245035
0.002513
0.00257674
0.00264161
0.00270763
0.00277486
0.00284332
0.00291305
0.00298409
0.00305647
0.00313025
0.00320545
0.00328211
0.00336026
0.00343993
0.00352113
0.00360389
0.00368819
0.00377402
0.00386135
0.00395012
0.00404027
0.00413165
0.0042241
0.00431732
0.00441076
0.00450365
0.0045945
0.00468062
0.00475713
0.0048166
0.000142343
0.000149429
0.000158681
0.000168836
0.000179592
0.000190891
0.000202731
0.000215124
0.000228082
0.000241622
0.000255756
0.000270499
0.000285864
0.000301864
0.000318512
0.000335821
0.000353802
0.000372467
0.000391828
0.000411895
0.000432678
0.000454188
0.000476434
0.000499425
0.00052317
0.000547676
0.00057295
0.000599001
0.000625835
0.000653457
0.000681874
0.000711091
0.000741112
0.00077194
0.000803581
0.000836035
0.000869305
0.000903394
0.000938303
0.000974031
0.00101058
0.00104795
0.00108614
0.00112516
0.00116499
0.00120565
0.00124712
0.00128941
0.00133252
0.00137645
0.0014212
0.00146677
0.00151316
0.00156037
0.0016084
0.00165727
0.00170697
0.0017575
0.00180889
0.00186113
0.00191423
0.00196821
0.00202308
0.00207886
0.00213556
0.00219319
0.00225179
0.00231138
0.00237197
0.00243359
0.00249627
0.00256004
0.00262492
0.00269096
0.00275817
0.0028266
0.00289627
0.00296723
0.00303951
0.00311314
0.00318815
0.00326458
0.00334246
0.00342181
0.00350265
0.003585
0.00366884
0.00375419
0.00384105
0.00392941
0.00401929
0.0041107
0.00420359
0.00429769
0.00439254
0.00448753
0.00458168
0.00467321
0.004758
0.00482813
6.99739e-06
6.84038e-06
8.4503e-06
1.0737e-05
1.34234e-05
1.64246e-05
1.97195e-05
2.33198e-05
2.72644e-05
3.16197e-05
3.64838e-05
4.19896e-05
4.83066e-05
5.5637e-05
6.42004e-05
7.4191e-05
8.56825e-05
9.84174e-05
0.000111329
0.000121474
1.39867e-05
1.43675e-05
1.72937e-05
2.12925e-05
2.58865e-05
3.09072e-05
3.63023e-05
4.20797e-05
4.82936e-05
5.50435e-05
6.24777e-05
7.07962e-05
8.025e-05
9.11317e-05
0.000103746
0.000118341
0.000134957
0.000153101
0.000171061
0.000184566
2.87622e-05
3.06414e-05
3.57591e-05
4.23599e-05
4.97813e-05
5.77462e-05
6.61486e-05
7.49818e-05
8.43157e-05
9.42917e-05
0.000105123
0.000117098
0.000130567
0.000145933
0.000163595
0.000183853
0.000206686
0.000231296
0.000255214
0.000272637
6.02292e-05
6.45224e-05
7.29004e-05
8.31399e-05
9.43895e-05
0.000106259
0.000118577
0.000131311
0.000144545
0.000158471
0.00017338
0.000189667
0.000207802
0.000228309
0.000251693
0.000278295
0.000307983
0.000339558
0.000369638
0.000390728
0.000123939
0.000131405
0.000143956
0.000158699
0.000174541
0.000190972
0.000207754
0.000224831
0.000242301
0.000260408
0.000279537
0.000300196
0.000322988
0.000348563
0.000377534
0.000410255
0.000446416
0.000484299
0.000519489
0.000543024
0.000244504
0.000255302
0.000272182
0.000291479
0.000311818
0.00033256
0.000353408
0.000374284
0.000395304
0.000416763
0.000439148
0.000463073
0.00048926
0.00051849
0.000551467
0.000588515
0.000629079
0.000670837
0.000708352
0.000732153
0.000455916
0.00046892
0.000488691
0.00051091
0.000533941
0.000557032
0.000579837
0.000602266
0.000624449
0.000646746
0.000669711
0.000694024
0.000720489
0.000749988
0.000783281
0.000820644
0.000861238
0.000902185
0.000937426
0.000958674
0.000796676
0.000808858
0.000827729
0.000848764
0.000870212
0.000891271
0.000911586
0.000931073
0.000949901
0.000968476
0.000987308
0.00100704
0.00102847
0.00105252
0.00107996
0.00111102
0.00114468
0.00117782
0.00120494
0.00122067
0.00129649
0.00130295
0.00131469
0.00132786
0.00134093
0.00135319
0.00136439
0.00137449
0.00138372
0.00139232
0.00140063
0.00140911
0.00141844
0.00142936
0.00144264
0.00145852
0.00147613
0.00149307
0.00150613
0.00151364
0.00195389
0.00194924
0.00194655
0.001944
0.00194091
0.0019369
0.00193193
0.00192597
0.00191904
0.00191114
0.00190238
0.00189288
0.00188295
0.00187288
0.00186325
0.00185443
0.00184655
0.00183962
0.00183387
0.00183072
0.00269767
0.00267953
0.00265798
0.00263486
0.0026109
0.00258646
0.0025615
0.00253588
0.00250941
0.0024819
0.00245312
0.00242279
0.00239054
0.00235606
0.00231915
0.0022804
0.00224182
0.00220684
0.00217948
0.0021635
0.0033447
0.00331776
0.00328381
0.00324685
0.00320849
0.00316947
0.00313004
0.00309015
0.00304945
0.00300749
0.0029638
0.00291776
0.00286861
0.00281565
0.00275843
0.00269751
0.00263536
0.00257731
0.00253083
0.00250302
0.00386002
0.00382983
0.00379052
0.00374721
0.00370194
0.00365561
0.00360861
0.00356099
0.00351245
0.00346248
0.00341036
0.00335528
0.00329631
0.00323252
0.00316337
0.00308926
0.00301252
0.00293874
0.00287754
0.00284016
0.00423701
0.00420848
0.00416988
0.0041267
0.00408108
0.00403402
0.00398595
0.00393693
0.00388674
0.00383488
0.0037806
0.00372301
0.00366113
0.00359401
0.00352099
0.00344229
0.00335985
0.00327875
0.00320907
0.00316549
0.004493
0.00446937
0.0044355
0.00439678
0.00435534
0.00431217
0.0042677
0.00422201
0.00417491
0.00412595
0.00407444
0.00401952
0.00396026
0.00389575
0.00382528
0.00374889
0.00366807
0.00358719
0.00351555
0.00346956
0.00465624
0.0046389
0.00461159
0.00457942
0.00454444
0.00450759
0.00446929
0.00442964
0.00438845
0.00434533
0.00429969
0.00425077
0.00419772
0.0041397
0.00407605
0.00400663
0.00393256
0.00385737
0.00378915
0.00374372
0.00475527
0.00474416
0.00472353
0.00469822
0.00467022
0.0046404
0.00460913
0.00457648
0.0045423
0.00450626
0.00446786
0.00442647
0.00438137
0.0043318
0.00427715
0.00421723
0.00415278
0.00408661
0.00402544
0.00398326
0.0048134
0.00480758
0.00479269
0.00477353
0.00475198
0.00472879
0.00470427
0.00467843
0.00465115
0.00462218
0.0045911
0.00455743
0.00452056
0.00447986
0.0044348
0.00438513
0.00433136
0.00427561
0.00422328
0.00418613
0.00484751
0.0048454
0.00483487
0.00482076
0.00480469
0.00478723
0.00476855
0.00474868
0.00472752
0.00470486
0.00468041
0.00465379
0.00462454
0.00459214
0.00455615
0.00451631
0.00447293
0.00442755
0.00438437
0.00435294
0.00486897
0.00486822
0.00486076
0.00485068
0.00483904
0.00482619
0.00481227
0.00479728
0.00478115
0.00476376
0.00474488
0.00472426
0.00470154
0.00467634
0.0046483
0.00461719
0.00458317
0.00454726
0.00451249
0.00448625
5.56929e-59
5.561e-59
5.55372e-59
5.55556e-59
5.57328e-59
5.61235e-59
5.67677e-59
5.76901e-59
5.89005e-59
6.03932e-59
6.21475e-59
6.41271e-59
6.62808e-59
6.85425e-59
7.08308e-59
7.30498e-59
7.50891e-59
7.68255e-59
7.81265e-59
7.88523e-59
3.22025e-58
3.21161e-58
3.20427e-58
3.20269e-58
3.21082e-58
3.23183e-58
3.26806e-58
3.32094e-58
3.39102e-58
3.47795e-58
3.58057e-58
3.69675e-58
3.82356e-58
3.95716e-58
4.09288e-58
4.22518e-58
4.34762e-58
4.45301e-58
4.53359e-58
4.58149e-58
1.37092e-57
1.36503e-57
1.3599e-57
1.3576e-57
1.35978e-57
1.36777e-57
1.38256e-57
1.40477e-57
1.43464e-57
1.47204e-57
1.51647e-57
1.56704e-57
1.62249e-57
1.68119e-57
1.74114e-57
1.79995e-57
1.85489e-57
1.90289e-57
1.94064e-57
1.96454e-57
5.57014e-57
5.53608e-57
5.50618e-57
5.48943e-57
5.49246e-57
5.52061e-57
5.57782e-57
5.66666e-57
5.7882e-57
5.94195e-57
6.12594e-57
6.33656e-57
6.5687e-57
6.81572e-57
7.06937e-57
7.31989e-57
7.55611e-57
7.7656e-57
7.93489e-57
8.04824e-57
2.23925e-56
2.22161e-56
2.20571e-56
2.1958e-56
2.19456e-56
2.20406e-56
2.22588e-56
2.26104e-56
2.30999e-56
2.37258e-56
2.448e-56
2.53484e-56
2.63104e-56
2.73391e-56
2.84012e-56
2.94573e-56
3.04624e-56
3.13671e-56
3.21164e-56
3.26372e-56
8.96343e-56
8.87685e-56
8.79766e-56
8.74486e-56
8.72962e-56
8.76023e-56
8.84281e-56
8.98142e-56
9.17788e-56
9.43158e-56
9.73947e-56
1.00958e-55
1.04926e-55
1.09188e-55
1.13613e-55
1.18043e-55
1.22299e-55
1.26181e-55
1.29461e-55
1.31813e-55
3.57658e-55
3.53563e-55
3.49778e-55
3.47142e-55
3.46117e-55
3.47036e-55
3.5014e-55
3.55588e-55
3.6345e-55
3.73705e-55
3.86231e-55
4.00805e-55
4.17102e-55
4.34696e-55
4.53057e-55
4.7156e-55
4.89495e-55
5.06056e-55
5.20295e-55
5.30772e-55
1.42287e-54
1.40402e-54
1.38646e-54
1.37385e-54
1.3681e-54
1.37054e-54
1.38214e-54
1.40349e-54
1.43487e-54
1.4762e-54
1.527e-54
1.58639e-54
1.65311e-54
1.72545e-54
1.80134e-54
1.87832e-54
1.95355e-54
2.02379e-54