/*--------------------------------*- C++ -*----------------------------------*\
| =========                 |                                                 |
| \\      /  F ield         | OpenFOAM: The Open Source CFD Toolbox           |
|  \\    /   O peration     | Version:  2.1.0                                 |
|   \\  /    A nd           | Web:      www.OpenFOAM.org                      |
|    \\/     M anipulation  |                                                 |
\*---------------------------------------------------------------------------*/
FoamFile
{
    version     2.0;
    format      ascii;
    class       volScalarField;
    location    "0.26";
    object      k;
}
// * * * * * * * * * * * * * * * * * * * * * * * * * * * * * * * * * * * * * //

dimensions      [0 2 -2 0 0 0 0];

internalField   nonuniform List<scalar> 
6400
(
0.0299499
0.0299767
0.0299755
0.0299591
0.029935
0.0299172
0.0298845
0.029866
0.0298306
0.0298106
0.0297747
0.0297526
0.0297175
0.0296932
0.0296594
0.0296334
0.0296012
0.0295743
0.0295442
0.0295175
0.0294897
0.0294637
0.0294381
0.0294133
0.0293899
0.0293666
0.0293454
0.0293241
0.029305
0.029286
0.0292691
0.0292518
0.0292364
0.0292202
0.0292053
0.0291893
0.0291738
0.0291565
0.0291384
0.0291173
0.0290935
0.0290648
0.0290316
0.0289914
0.0289446
0.028889
0.028824
0.0287481
0.0286601
0.0285578
0.0284476
0.0283289
0.0282031
0.0280689
0.0279248
0.0277731
0.0276089
0.0274345
0.027247
0.0270474
0.0268361
0.0266148
0.0263781
0.0261297
0.0258707
0.0255953
0.0253091
0.0250121
0.0246948
0.024357
0.0240093
0.0236386
0.0232482
0.0228422
0.022414
0.0219704
0.0215105
0.021038
0.0205566
0.0200699
0.0195805
0.0190856
0.0185693
0.017997
0.0174017
0.0167749
0.0160871
0.0153196
0.0144436
0.0134075
0.0121497
0.0105686
0.00855163
0.00612325
0.00352474
0.00227683
0.00270345
0.00548337
0.0086944
0.00984104
0.04815
0.0484401
0.0485741
0.0488198
0.0489753
0.0492205
0.0493952
0.049637
0.0498296
0.0500689
0.0502772
0.0505159
0.0507374
0.0509775
0.0512104
0.0514539
0.0516975
0.0519471
0.0522022
0.0524619
0.0527311
0.0530038
0.0532885
0.0535764
0.0538773
0.0541823
0.0545005
0.0548244
0.0551615
0.0555053
0.0558619
0.0562257
0.0566023
0.0569866
0.0573834
0.0577885
0.0582054
0.0586304
0.059066
0.0595082
0.0599588
0.060411
0.0608664
0.0613194
0.0617695
0.0622126
0.0626466
0.0630691
0.0634825
0.0638726
0.0642547
0.0646262
0.0649899
0.0653369
0.0656702
0.0659881
0.0662868
0.0665632
0.066816
0.0670388
0.0672317
0.0674094
0.0675454
0.0676598
0.0677537
0.0678032
0.067825
0.0678277
0.0677744
0.0676681
0.0675258
0.0673092
0.0670357
0.0666905
0.066263
0.0657557
0.0651556
0.0644619
0.06367
0.0627771
0.0617829
0.0606889
0.0594825
0.0581576
0.0566098
0.0548591
0.0528283
0.0504978
0.0478163
0.0447198
0.041193
0.0371701
0.0326652
0.0279235
0.0230599
0.018462
0.0148594
0.0122941
0.0106696
0.00914242
0.0539038
0.0543368
0.0545361
0.0548989
0.0551519
0.0555034
0.0557903
0.0561366
0.0564482
0.0567943
0.0571254
0.0574748
0.0578217
0.0581768
0.0585369
0.0588992
0.0592709
0.0596413
0.0600241
0.060406
0.0608054
0.0612038
0.0616197
0.0620363
0.0624692
0.0629043
0.0633536
0.0638084
0.0642773
0.064752
0.0652399
0.0657332
0.0662385
0.066749
0.0672705
0.0677962
0.0683309
0.0688686
0.0694129
0.0699566
0.0705009
0.0710407
0.0715758
0.0720995
0.0726087
0.0730966
0.0735557
0.0739757
0.0743911
0.074774
0.0751404
0.0754735
0.0757877
0.0760648
0.0763021
0.0765073
0.0766778
0.0768024
0.0768987
0.0769459
0.0769641
0.0769585
0.0768702
0.0767418
0.0765727
0.0763326
0.0760495
0.075709
0.0752968
0.0748284
0.0742858
0.0736638
0.0729639
0.0721684
0.0712759
0.0702742
0.0691545
0.0679077
0.0665254
0.0649981
0.0633199
0.0614829
0.0594834
0.0573187
0.055019
0.0525704
0.049988
0.0472586
0.0443733
0.0413051
0.0380212
0.0344749
0.030643
0.0265122
0.0221829
0.0178837
0.0142895
0.0113361
0.0091862
0.00705995
0.0584038
0.0588928
0.0591179
0.0595419
0.0598447
0.0602535
0.0606
0.0610013
0.0613764
0.061777
0.0621726
0.062577
0.0629882
0.0633988
0.0638224
0.0642397
0.0646714
0.0650922
0.0655242
0.0659406
0.0663815
0.0668132
0.067263
0.0677085
0.0681685
0.0686273
0.0690989
0.069568
0.0700459
0.0705214
0.0710028
0.071481
0.0719634
0.0724413
0.0729205
0.0733923
0.0738617
0.0743205
0.0747718
0.0752078
0.0756321
0.0760385
0.0764234
0.0767849
0.0771191
0.0774247
0.0776968
0.0779349
0.078137
0.078296
0.0784067
0.0784577
0.0784752
0.0784582
0.0783432
0.0781846
0.0779623
0.0776535
0.0772871
0.0768282
0.076293
0.0756784
0.0749668
0.0741795
0.0732938
0.0723185
0.0712501
0.0700884
0.0688306
0.0674855
0.0660467
0.0645235
0.0629164
0.0612269
0.0594631
0.0576232
0.0557168
0.0537424
0.0517077
0.0496117
0.0474613
0.0452562
0.0430034
0.0407027
0.0383614
0.0359777
0.0335686
0.0311376
0.0286927
0.0262326
0.023768
0.021295
0.0188284
0.0163735
0.0139685
0.0116965
0.00956837
0.00778121
0.00653872
0.00595747
0.0600476
0.0605017
0.060707
0.0611089
0.0613839
0.0617685
0.0620816
0.0624517
0.0627867
0.0631469
0.0634943
0.0638477
0.0642013
0.0645498
0.0649059
0.0652504
0.0656055
0.0659455
0.0662973
0.0666332
0.066983
0.0673166
0.0676589
0.0679869
0.0683187
0.0686365
0.0689538
0.0692567
0.0695563
0.0698386
0.0701139
0.0703704
0.070617
0.0708414
0.071051
0.0712339
0.0713971
0.0715295
0.0716354
0.0716971
0.0717243
0.0717291
0.0716749
0.0715758
0.0714237
0.0712193
0.0709531
0.0706284
0.070238
0.0697806
0.0692547
0.0686569
0.0679904
0.0672497
0.0664371
0.0655564
0.0646058
0.0635816
0.0624966
0.0613392
0.0601235
0.0588452
0.0575087
0.0561216
0.0546791
0.0531945
0.0516627
0.0500952
0.04849
0.0468561
0.0451933
0.0435093
0.0418057
0.0400912
0.0383696
0.036644
0.0349206
0.0332013
0.0314927
0.0297976
0.0281227
0.0264727
0.0248542
0.0232732
0.021735
0.020245
0.0187997
0.0173963
0.0160389
0.0147231
0.0134517
0.0122218
0.0110397
0.00990729
0.00883863
0.00785337
0.00696539
0.00635409
0.00608981
0.00609154
0.0572943
0.0575375
0.0576496
0.0578793
0.0580357
0.0582492
0.0584211
0.0586132
0.0587857
0.0589558
0.0591197
0.0592672
0.0594163
0.059541
0.059671
0.0597718
0.0598787
0.0599537
0.0600332
0.0600786
0.0601242
0.0601447
0.0601525
0.0601391
0.060108
0.0600478
0.0599706
0.0598612
0.0597389
0.059583
0.0594103
0.0592048
0.0589793
0.0587185
0.0584334
0.0581102
0.0577593
0.0573673
0.0569426
0.0564732
0.055968
0.0554167
0.0548222
0.0541802
0.0534939
0.0527596
0.0519789
0.051152
0.0502807
0.049365
0.0484098
0.0474141
0.0463844
0.0453197
0.0442268
0.0431061
0.0419631
0.0407988
0.0396231
0.0384337
0.0372396
0.0360396
0.0348405
0.0336439
0.0324531
0.0312718
0.0301011
0.0289455
0.0278059
0.0266862
0.0255881
0.0245138
0.0234665
0.022443
0.0214487
0.0204815
0.0195464
0.018641
0.0177686
0.0169274
0.0161162
0.0153356
0.0145854
0.0138645
0.0131724
0.0125063
0.0118651
0.0112449
0.0106445
0.0100587
0.00948742
0.00892594
0.00837592
0.00783643
0.00731977
0.00684126
0.00649624
0.0063462
0.00632291
0.00654313
0.0488539
0.0487194
0.048666
0.0485752
0.0485202
0.0484175
0.0483441
0.0482185
0.0481186
0.0479651
0.0478345
0.0476508
0.0474874
0.0472725
0.0470754
0.0468288
0.0465971
0.0463186
0.0460521
0.0457413
0.0454398
0.0450984
0.0447611
0.0443882
0.0440158
0.0436065
0.043192
0.0427437
0.0422886
0.0418025
0.0413096
0.04079
0.0402623
0.0397079
0.0391437
0.0385534
0.0379525
0.037325
0.0366854
0.0360198
0.0353419
0.0346407
0.0339286
0.0331964
0.0324561
0.0317001
0.0309394
0.030169
0.0293991
0.0286252
0.0278578
0.0270921
0.0263382
0.0255897
0.0248542
0.0241296
0.0234217
0.0227288
0.0220522
0.0213918
0.0207511
0.0201274
0.0195255
0.0189406
0.0183773
0.0178309
0.0173061
0.0167946
0.016303
0.0158239
0.0153626
0.0149125
0.0144779
0.0140527
0.0136402
0.0132345
0.0128376
0.0124433
0.012064
0.0116871
0.011329
0.0109734
0.0106346
0.0102968
0.00997356
0.00965002
0.00933831
0.00902605
0.0087244
0.00842425
0.00813728
0.00785947
0.00760344
0.00737061
0.00718181
0.00706907
0.00702107
0.00707588
0.00740961
0.0075976
0.0359998
0.0355519
0.0353637
0.0350064
0.0347888
0.034429
0.0341775
0.033806
0.0335206
0.0331331
0.0328152
0.03241
0.032062
0.0316388
0.0312632
0.030823
0.0304234
0.0299675
0.0295463
0.0290758
0.028635
0.028151
0.0276922
0.027195
0.026719
0.0262205
0.025746
0.0252514
0.024776
0.0242837
0.0238142
0.0233315
0.0228726
0.0224004
0.0219515
0.0214908
0.0210533
0.0206045
0.0201787
0.0197439
0.0193324
0.0189131
0.0185166
0.0181151
0.0177368
0.0173563
0.0169999
0.0166441
0.0163122
0.0159844
0.01568
0.0153818
0.0151059
0.0148386
0.0145922
0.0143548
0.0141374
0.0139286
0.0137388
0.013557
0.013393
0.0132369
0.0130974
0.0129653
0.0128487
0.0127371
0.0126392
0.0125477
0.0124689
0.0123953
0.0123328
0.012275
0.0122261
0.0121817
0.0121436
0.0121088
0.0120773
0.0120467
0.0120175
0.0119862
0.0119529
0.0119128
0.0118674
0.01181
0.0117426
0.0116579
0.011558
0.0114363
0.0112955
0.0111318
0.0109508
0.0107545
0.0105548
0.0103631
0.0102164
0.0101501
0.0101399
0.0103656
0.0106933
0.0108499
0.022379
0.0217874
0.0215422
0.0210755
0.0208129
0.0203598
0.0200816
0.0196392
0.0193495
0.018918
0.0186217
0.0182026
0.0179044
0.0174997
0.0172042
0.0168158
0.016526
0.0161557
0.0158748
0.0155242
0.0152551
0.0149257
0.0146705
0.0143636
0.0141241
0.0138448
0.0136268
0.0133751
0.0131787
0.0129542
0.0127799
0.0125835
0.0124317
0.0122602
0.0121286
0.0119804
0.0118683
0.0117415
0.0116481
0.0115427
0.0114682
0.0113841
0.0113286
0.0112655
0.0112283
0.0111875
0.0111678
0.011155
0.011151
0.0111565
0.0111758
0.0112058
0.0112455
0.011297
0.0113583
0.0114294
0.0115126
0.0116033
0.0117078
0.0118204
0.0119472
0.0120825
0.0122318
0.0123899
0.0125625
0.0127434
0.0129396
0.0131433
0.0133629
0.0135907
0.0138347
0.0140884
0.0143582
0.0146394
0.014936
0.0152453
0.0155689
0.0159055
0.0162559
0.0166187
0.0169947
0.017381
0.0177784
0.0181818
0.0185907
0.0189989
0.019404
0.0197983
0.0201771
0.0205326
0.0208598
0.0211536
0.021414
0.0216451
0.0218589
0.0221013
0.022491
0.0230652
0.0238011
0.0245563
0.0137861
0.0132757
0.0130726
0.012691
0.0125006
0.0121446
0.0119674
0.0116397
0.0114768
0.0111789
0.011031
0.0107636
0.0106312
0.0103945
0.0102775
0.0100711
0.00996943
0.00979265
0.00970579
0.00955767
0.00948519
0.00936471
0.00930612
0.00921236
0.0091672
0.00909929
0.00906711
0.00902383
0.00900402
0.0089848
0.00897737
0.00897479
0.00898316
0.00899556
0.00902079
0.00904686
0.009087
0.00912734
0.00918156
0.00923674
0.00930549
0.00937545
0.00945886
0.00954395
0.00964192
0.00974243
0.00985567
0.00997204
0.0101009
0.0102337
0.0103793
0.0105294
0.0106921
0.0108601
0.0110403
0.0112265
0.0114254
0.0116309
0.0118495
0.0120758
0.0123155
0.0125646
0.0128277
0.0131011
0.0133896
0.0136888
0.0140045
0.0143319
0.0146775
0.0150363
0.0154151
0.0158097
0.0162261
0.0166615
0.0171204
0.0176017
0.0181086
0.0186414
0.0192035
0.0197959
0.0204226
0.0210849
0.0217876
0.0225324
0.023325
0.0241693
0.0250717
0.0260381
0.0270767
0.0281959
0.0294069
0.0307214
0.0321548
0.0337236
0.0354465
0.0373355
0.0393692
0.041511
0.0430113
0.043621
0.0158329
0.0153264
0.015124
0.0147445
0.014555
0.0141994
0.0140222
0.0136926
0.0135283
0.0132252
0.0130742
0.0127977
0.0126598
0.0124093
0.0122844
0.0120585
0.0119459
0.0117432
0.011642
0.0114611
0.0113707
0.0112105
0.0111304
0.0109901
0.0109201
0.0107994
0.0107393
0.0106383
0.0105881
0.0105062
0.0104655
0.0104021
0.0103709
0.0103266
0.0103051
0.0102804
0.0102689
0.010263
0.0102615
0.0102706
0.0102878
0.0103097
0.0103444
0.0103819
0.010433
0.0104875
0.0105551
0.0106271
0.0107119
0.0108015
0.0109045
0.0110123
0.0111341
0.0112608
0.0114015
0.0115476
0.0117078
0.0118742
0.0120545
0.0122421
0.0124435
0.0126538
0.0128778
0.0131118
0.01336
0.0136189
0.0138925
0.0141774
0.0144784
0.0147914
0.0151222
0.0154665
0.01583
0.0162097
0.0166098
0.017029
0.0174702
0.0179334
0.0184215
0.018935
0.0194777
0.0200501
0.0206567
0.0212986
0.0219804
0.0227039
0.0234739
0.0242937
0.0251716
0.0261137
0.0271285
0.0282236
0.0294129
0.0307106
0.0321396
0.0337317
0.0355218
0.037487
0.0391079
0.0398282
0.0267737
0.0262513
0.0260353
0.0256318
0.0254071
0.0250189
0.0247838
0.0244077
0.024164
0.0237983
0.0235442
0.0231862
0.0229251
0.0225741
0.0223087
0.0219639
0.0216953
0.0213561
0.0210848
0.0207506
0.0204771
0.0201476
0.0198729
0.0195487
0.0192741
0.018956
0.0186836
0.018373
0.0181048
0.0178034
0.0175401
0.0172468
0.0169887
0.016707
0.0164572
0.0161875
0.0159466
0.0156907
0.0154603
0.0152191
0.0150017
0.0147769
0.014575
0.0143683
0.014184
0.0139984
0.0138343
0.0136717
0.0135302
0.0133918
0.0132743
0.0131609
0.0130685
0.0129807
0.0129132
0.0128509
0.0128084
0.0127715
0.0127532
0.0127444
0.0127426
0.0127569
0.012779
0.0128153
0.0128588
0.0129157
0.0129798
0.0130545
0.0131381
0.0132288
0.01333
0.0134347
0.0135484
0.0136654
0.0137889
0.0139151
0.0140454
0.0141767
0.0143104
0.0144433
0.014577
0.0147085
0.0148394
0.014967
0.0150929
0.0152153
0.0153355
0.0154525
0.0155654
0.0156725
0.0157758
0.0158824
0.0159931
0.016123
0.0162902
0.016531
0.0169047
0.017477
0.0182511
0.0193177
0.040404
0.040077
0.0399416
0.039691
0.0395411
0.0392916
0.0391207
0.0388631
0.0386701
0.0384012
0.0381867
0.0379051
0.0376694
0.0373741
0.0371169
0.0368063
0.0365267
0.0361987
0.0358955
0.0355479
0.0352197
0.0348504
0.0344961
0.0341041
0.0337236
0.0333084
0.0329019
0.0324638
0.0320323
0.0315716
0.0311143
0.0306293
0.0301471
0.029642
0.02914
0.0286173
0.0280976
0.0275605
0.0270253
0.0264721
0.0259217
0.025358
0.024799
0.0242309
0.0236701
0.0231047
0.0225495
0.0219941
0.0214536
0.020917
0.0203984
0.0198855
0.0193922
0.0189069
0.0184427
0.0179875
0.0175544
0.0171308
0.0167304
0.01634
0.0159717
0.0156143
0.0152767
0.0149489
0.0146376
0.0143351
0.014046
0.0137635
0.0134924
0.0132242
0.0129647
0.0127135
0.01247
0.0122327
0.0120027
0.0117766
0.0115571
0.0113395
0.0111282
0.0109175
0.0107132
0.010509
0.0103116
0.0101151
0.00992605
0.00973968
0.00956147
0.00938766
0.00922259
0.00906554
0.00892135
0.00878416
0.00866667
0.00857592
0.0085336
0.00852403
0.00866323
0.00892215
0.00933963
0.00952251
0.0523138
0.0522949
0.0522922
0.0522953
0.0523001
0.0522993
0.0522989
0.0522758
0.0522614
0.0522162
0.052186
0.052121
0.0520716
0.0519856
0.0519139
0.051805
0.0517075
0.0515727
0.0514464
0.0512827
0.0511235
0.0509267
0.0507305
0.0504973
0.0502613
0.0499882
0.0497086
0.0493923
0.049066
0.0487045
0.0483261
0.0479119
0.0474784
0.0470098
0.0465212
0.0459975
0.0454519
0.0448716
0.0442689
0.0436316
0.0429707
0.042276
0.0415581
0.0408076
0.0400349
0.0392318
0.0384093
0.0375601
0.0366941
0.0358066
0.0349067
0.0339926
0.0330726
0.0321452
0.0312182
0.0302903
0.0293696
0.028454
0.0275517
0.02666
0.0257867
0.0249289
0.0240921
0.02327
0.0224696
0.0216869
0.0209273
0.0201871
0.0194705
0.0187755
0.0181056
0.0174528
0.0168236
0.0162118
0.0156212
0.0150467
0.0144904
0.0139478
0.0134206
0.0129048
0.0124019
0.0119077
0.0114235
0.0109452
0.010474
0.0100265
0.00958813
0.00917282
0.00877502
0.00840253
0.0080485
0.00772349
0.00742077
0.00714797
0.00690218
0.00673736
0.00666429
0.00666123
0.00698948
0.00718039
0.0592011
0.0594879
0.059618
0.0598815
0.0600608
0.060311
0.0605119
0.0607452
0.0609543
0.0611724
0.0613821
0.0615863
0.0617912
0.0619822
0.0621785
0.0623555
0.0625392
0.0627003
0.0628675
0.0630105
0.0631575
0.0632781
0.0633994
0.0634937
0.0635863
0.0636508
0.0637083
0.0637366
0.0637488
0.0637498
0.0637155
0.0636581
0.0635738
0.0634563
0.063312
0.0631304
0.0629178
0.0626641
0.0623775
0.0620502
0.0616859
0.0612762
0.0608258
0.0603266
0.059784
0.0591881
0.0585451
0.0578499
0.057104
0.0563073
0.0554598
0.0545632
0.0536181
0.0526267
0.0515917
0.0505135
0.0493979
0.048244
0.0470586
0.0458414
0.044599
0.0433312
0.0420448
0.0407416
0.0394292
0.0381066
0.0367806
0.0354506
0.0341227
0.0327971
0.0314788
0.0301699
0.0288749
0.0275965
0.0263386
0.0251036
0.023894
0.0227116
0.0215563
0.0204246
0.0193243
0.0182514
0.0172131
0.0162058
0.0152352
0.0142967
0.0133938
0.0125246
0.0116844
0.0108773
0.0101008
0.00935868
0.00865051
0.00799204
0.00736763
0.00681758
0.00639091
0.00619864
0.00615866
0.00634199
0.0608147
0.0612597
0.0614598
0.0618492
0.0621149
0.0624876
0.0627895
0.063149
0.0634726
0.0638238
0.0641609
0.0645077
0.0648533
0.0651983
0.0655494
0.065894
0.0662481
0.0665922
0.0669468
0.0672899
0.067643
0.0679832
0.0683316
0.0686666
0.0690087
0.0693379
0.0696727
0.0699929
0.0703163
0.0706259
0.0709324
0.0712242
0.0715091
0.0717767
0.0720341
0.0722722
0.0724959
0.0726967
0.0728803
0.0730382
0.0731737
0.073279
0.0733526
0.0733873
0.0733985
0.0733719
0.0732897
0.0731733
0.0729979
0.0727779
0.0724959
0.07216
0.0717593
0.0712966
0.0707676
0.0701701
0.0695056
0.0687707
0.0679642
0.0670832
0.0661348
0.0651086
0.0640175
0.0628546
0.0616261
0.0603305
0.0589701
0.0575473
0.0560619
0.0545194
0.0529182
0.0512653
0.0495601
0.047809
0.0460142
0.04418
0.0423108
0.0404092
0.038483
0.0365387
0.0345773
0.0326062
0.0306273
0.0286505
0.0266781
0.0247224
0.0227885
0.0208886
0.01903
0.0172184
0.0154608
0.0137782
0.0121803
0.010699
0.00933994
0.00812408
0.007089
0.00635416
0.00602674
0.00599754
0.0584917
0.0589527
0.0591636
0.0595561
0.0598344
0.0602105
0.060526
0.060893
0.0612325
0.061597
0.0619537
0.0623204
0.062691
0.0630631
0.0634456
0.0638251
0.0642182
0.0646063
0.0650088
0.0654054
0.0658159
0.0662196
0.0666349
0.0670415
0.0674556
0.067857
0.0682739
0.0686834
0.069105
0.0695211
0.0699461
0.070367
0.0707938
0.0712167
0.0716436
0.0720674
0.0724944
0.0729192
0.0733415
0.0737579
0.0741706
0.0745744
0.0749718
0.0753582
0.075736
0.0760972
0.0764432
0.0767723
0.0770797
0.0773667
0.077627
0.0778611
0.078064
0.0782336
0.0783683
0.0784635
0.0785102
0.0785264
0.0785053
0.0784012
0.0782666
0.0780477
0.0777743
0.0774173
0.0769804
0.0764521
0.0758309
0.0751143
0.0742882
0.0733574
0.0723091
0.0711425
0.0698571
0.0684454
0.0669161
0.0652622
0.0634938
0.0616113
0.0596183
0.0575221
0.0553192
0.0530196
0.0506151
0.0481144
0.0455074
0.0428014
0.0399915
0.0370836
0.0340808
0.0310029
0.0278691
0.024694
0.0215176
0.018389
0.0154237
0.0126222
0.010193
0.00810133
0.00663272
0.00592712
0.0535775
0.0539728
0.0541543
0.0544815
0.0547084
0.0550237
0.0552785
0.0555872
0.0558625
0.0561693
0.0564608
0.0567694
0.0570745
0.0573878
0.0577048
0.0580246
0.0583525
0.0586801
0.0590179
0.059354
0.0597012
0.060046
0.060402
0.0607557
0.0611207
0.0614854
0.0618637
0.0622423
0.0626345
0.063028
0.0634344
0.0638435
0.0642642
0.0646882
0.0651221
0.0655592
0.0660037
0.0664502
0.0669049
0.0673631
0.067828
0.068296
0.0687695
0.0692454
0.0697252
0.0702056
0.0706879
0.071168
0.0716477
0.0721236
0.0725926
0.0730525
0.0734978
0.0739226
0.0743183
0.074672
0.0750232
0.0753464
0.0756487
0.0759166
0.0761644
0.0763729
0.0765567
0.0767071
0.0768286
0.0769165
0.0769544
0.0769625
0.0768993
0.0767708
0.0765852
0.0763121
0.0759722
0.0755249
0.0749827
0.0743211
0.0735237
0.0725859
0.0714733
0.070187
0.0686918
0.0669872
0.0650462
0.0628693
0.060441
0.0577636
0.0548363
0.0516612
0.0482366
0.0445752
0.0406676
0.0364777
0.032026
0.0273119
0.0225821
0.0182334
0.0144733
0.011646
0.0094173
0.00728137
0.0474632
0.047723
0.0478423
0.0480573
0.0481917
0.0484052
0.0485547
0.0487641
0.0489285
0.0491348
0.0493125
0.0495178
0.049707
0.049913
0.0501122
0.0503206
0.0505284
0.0507405
0.0509559
0.051173
0.0513957
0.051619
0.0518496
0.0520809
0.0523211
0.0525634
0.0528156
0.0530704
0.0533355
0.0536035
0.053882
0.0541642
0.0544565
0.0547531
0.0550591
0.05537
0.0556901
0.0560155
0.05635
0.0566904
0.0570395
0.0573948
0.0577585
0.0581287
0.0585072
0.0588924
0.0592858
0.0596859
0.0600903
0.0604977
0.0609064
0.0613153
0.0617225
0.0621265
0.0625262
0.0629232
0.0633264
0.0637237
0.06412
0.0645082
0.0648853
0.0652419
0.0655704
0.0658748
0.0661551
0.0664079
0.0666376
0.0668466
0.0670177
0.0671594
0.0672576
0.067302
0.0673142
0.0672545
0.0671055
0.0668846
0.0665396
0.0660918
0.065493
0.0647498
0.0638288
0.0627247
0.0614152
0.0598916
0.0581398
0.0561525
0.0539059
0.0513714
0.0484924
0.045139
0.0412126
0.0367654
0.0320387
0.0271956
0.0223901
0.0179703
0.0145517
0.0122529
0.0107059
0.00920901
0.0293978
0.0294189
0.0294077
0.0293888
0.0293574
0.0293351
0.029296
0.0292717
0.0292299
0.0292034
0.0291611
0.029132
0.02909
0.0290581
0.0290166
0.0289821
0.028941
0.0289043
0.0288636
0.0288253
0.0287851
0.028746
0.0287067
0.0286676
0.0286295
0.0285914
0.0285547
0.0285175
0.028482
0.0284458
0.0284114
0.0283763
0.0283431
0.0283094
0.0282775
0.0282451
0.0282142
0.0281828
0.0281525
0.0281216
0.0280912
0.02806
0.0280289
0.0279966
0.0279637
0.0279292
0.0278933
0.0278547
0.0278133
0.0277684
0.0277196
0.0276667
0.0276092
0.0275469
0.0274795
0.0274071
0.027329
0.0272421
0.0271458
0.0270374
0.0269132
0.0267707
0.0266063
0.0264271
0.0262293
0.0260216
0.0257987
0.025562
0.0253075
0.0250377
0.0247488
0.0244401
0.0241157
0.0237611
0.023376
0.0229705
0.0225219
0.022046
0.0215273
0.0209706
0.0203711
0.0197283
0.0190412
0.0183088
0.0175304
0.0167018
0.0158101
0.0148331
0.0137114
0.012367
0.0107327
0.00875687
0.0065951
0.00458184
0.00296594
0.00227981
0.00257559
0.0052573
0.00860463
0.00982987
0.00940491
0.00462977
0.00402389
0.00391839
0.00388546
0.00388162
0.00378946
0.0037457
0.00372636
0.00372137
0.0037396
0.00379345
0.0039783
0.0044763
0.00529227
0.00642938
0.00688501
0.00690713
0.00585315
0.00338995
0.00769484
0.00466225
0.00430232
0.00418078
0.0041304
0.00402182
0.00393807
0.00389785
0.00388239
0.00388036
0.00390802
0.00403659
0.00437389
0.00495847
0.00596969
0.00677314
0.00696349
0.00677735
0.00528424
0.00275639
0.00618984
0.00476963
0.00457263
0.00449467
0.0043527
0.00425476
0.00416794
0.00413097
0.0041154
0.00411202
0.00418581
0.00440042
0.00482816
0.00567927
0.00664107
0.00699073
0.0070115
0.00651103
0.00464078
0.00209981
0.00576806
0.00508422
0.00499672
0.00478259
0.00462559
0.00449489
0.00441402
0.00437849
0.00436625
0.0044249
0.00458679
0.00495957
0.00571119
0.00666296
0.0070805
0.00717039
0.0069625
0.00607792
0.00390265
0.00147463
0.00589287
0.00546084
0.00532433
0.00503118
0.0049099
0.00480793
0.00477601
0.00477974
0.00486898
0.00506976
0.00539691
0.00610389
0.00692887
0.00732363
0.00744776
0.00736337
0.00678154
0.00548508
0.00297062
0.000930912
0.00626108
0.00590701
0.00577016
0.00555524
0.0054997
0.00548143
0.00557099
0.00574098
0.00608536
0.00647267
0.00708764
0.00772691
0.00802623
0.00810561
0.0078954
0.0073005
0.00640144
0.00464731
0.00188387
0.000513395
0.00715892
0.00700497
0.00696426
0.0069478
0.00717128
0.00745076
0.00792067
0.00853015
0.00921131
0.0094772
0.00960606
0.00961538
0.00925768
0.00871863
0.00796475
0.0070571
0.00564329
0.0034745
0.00115946
0.000251381
0.0106894
0.0110447
0.0115223
0.0121044
0.0130081
0.0139467
0.0144046
0.0145568
0.0136664
0.0130544
0.0120865
0.0113013
0.010134
0.00906926
0.00779683
0.00641507
0.00441842
0.00238057
0.00072643
0.000117921
0.0247364
0.0251413
0.0253157
0.0252185
0.0245521
0.0231237
0.0215038
0.0193782
0.0176923
0.0158622
0.0141387
0.0124365
0.0105561
0.00888503
0.00703664
0.00502134
0.00314516
0.00161772
0.000542466
7.18528e-05
0.0403604
0.0385975
0.0366355
0.033873
0.0313679
0.0278076
0.0254004
0.0222414
0.0200586
0.0171747
0.0151083
0.0123493
0.0101859
0.00745428
0.00527683
0.00351739
0.0022213
0.00115948
0.000469948
8.85145e-05
0.0374284
0.035886
0.034372
0.0319012
0.0298014
0.0265093
0.0243087
0.0214057
0.0194254
0.0167598
0.0149086
0.0122798
0.0104137
0.00766077
0.00569343
0.00359307
0.00224956
0.00111161
0.000407349
7.70912e-05
0.0197169
0.0206533
0.021173
0.0214317
0.0215164
0.0207928
0.0195779
0.0178388
0.0165271
0.0148557
0.0136431
0.0119297
0.0105874
0.00878636
0.00723907
0.00520967
0.00324083
0.00155393
0.000455237
6.29969e-05
0.00936454
0.00954493
0.00994674
0.0104046
0.0111908
0.0121164
0.012896
0.0132078
0.0130334
0.0121333
0.0117
0.0107643
0.00997502
0.00892122
0.00779336
0.00645873
0.00453331
0.00240469
0.000673239
7.90814e-05
0.00681475
0.00662729
0.00656727
0.00653289
0.00668922
0.006927
0.00733952
0.00792434
0.00871369
0.00909884
0.00930925
0.00938723
0.00911508
0.00865442
0.00791792
0.00704199
0.00564948
0.00351451
0.00111848
0.000165861
0.00608717
0.00575234
0.0056215
0.00541326
0.00535694
0.0053382
0.00541219
0.00557527
0.00592305
0.00635687
0.00701947
0.00767321
0.00798588
0.00807417
0.00790105
0.00728886
0.00637094
0.00464251
0.00191499
0.000436874
0.00577764
0.00537035
0.00524132
0.00496022
0.00484166
0.00475052
0.00472135
0.00472702
0.00481984
0.00504598
0.00541291
0.00615067
0.00696801
0.0073498
0.0074639
0.00737006
0.00677943
0.00544795
0.00298018
0.000889573
0.00568046
0.00501496
0.00493285
0.00473951
0.00457835
0.00446351
0.00439208
0.00435977
0.00434897
0.00441956
0.00462626
0.00501342
0.00581141
0.00673339
0.00712658
0.00720401
0.00697615
0.00606996
0.00388527
0.0014778
0.0061733
0.00473517
0.00453193
0.00445509
0.00432324
0.00421317
0.00414572
0.00411627
0.00410574
0.00410536
0.00420698
0.00445778
0.00490675
0.00579376
0.00670725
0.0070211
0.0070311
0.00650615
0.00463721
0.00214023
0.00777573
0.00464909
0.00427217
0.0041579
0.00411426
0.0040157
0.00392883
0.00389313
0.00388085
0.00388141
0.0039203
0.00407456
0.00445789
0.00504564
0.00608302
0.00682465
0.00699129
0.00678258
0.00527869
0.00281814
0.00945811
0.00463242
0.00398998
0.00388151
0.00385611
0.00386065
0.00378524
0.00374515
0.00372921
0.00372639
0.00375356
0.0038162
0.0040336
0.00459518
0.00537989
0.00649412
0.00690762
0.0069147
0.00583694
0.00345741
0.00397119
0.00375019
0.00374679
0.0037468
0.00374652
0.00374628
0.00374612
0.00374604
0.003746
0.00374598
0.00374598
0.003746
0.00374604
0.00374612
0.00374628
0.00374652
0.0037468
0.00374679
0.00375019
0.00397119
0.00441491
0.00375347
0.00374141
0.00374095
0.00374056
0.00374012
0.00373987
0.00373975
0.00373969
0.00373966
0.00373966
0.00373969
0.00373975
0.00373987
0.00374012
0.00374056
0.00374095
0.00374141
0.00375347
0.00441491
0.00485931
0.00376058
0.00373286
0.00373263
0.00373284
0.00373273
0.00373256
0.00373242
0.00373235
0.00373231
0.00373231
0.00373235
0.00373242
0.00373256
0.00373273
0.00373284
0.00373263
0.00373286
0.00376058
0.00485931
0.00530176
0.00377207
0.0037243
0.00372396
0.00372492
0.00372524
0.00372525
0.00372519
0.00372514
0.00372512
0.00372512
0.00372514
0.00372519
0.00372525
0.00372524
0.00372492
0.00372396
0.0037243
0.00377207
0.00530176
0.00573936
0.00378544
0.0037155
0.00371483
0.00371665
0.00371758
0.00371789
0.00371795
0.00371795
0.00371795
0.00371795
0.00371795
0.00371795
0.00371789
0.00371758
0.00371665
0.00371483
0.0037155
0.00378544
0.00573936
0.00617062
0.00379766
0.00370577
0.0037051
0.003708
0.00370969
0.00371043
0.0037107
0.00371078
0.0037108
0.0037108
0.00371078
0.0037107
0.00371043
0.00370969
0.003708
0.0037051
0.00370577
0.00379766
0.00617062
0.00659173
0.00380848
0.00369498
0.00369474
0.00369894
0.00370155
0.00370284
0.0037034
0.00370361
0.00370368
0.00370368
0.00370361
0.0037034
0.00370284
0.00370155
0.00369894
0.00369474
0.00369498
0.00380848
0.00659174
0.00700079
0.00381672
0.00368272
0.00368362
0.00368941
0.00369311
0.00369508
0.00369602
0.00369642
0.00369656
0.00369656
0.00369642
0.00369602
0.00369508
0.00369311
0.00368941
0.00368362
0.00368272
0.00381672
0.00700079
0.00739344
0.00382333
0.00366915
0.00367174
0.00367942
0.00368437
0.00368714
0.00368854
0.00368919
0.00368943
0.00368943
0.00368919
0.00368854
0.00368714
0.00368437
0.00367942
0.00367174
0.00366914
0.00382333
0.00739344
0.00776774
0.00382733
0.00365404
0.00365902
0.00366893
0.00367531
0.00367898
0.00368095
0.0036819
0.00368228
0.00368228
0.0036819
0.00368095
0.00367898
0.00367531
0.00366893
0.00365902
0.00365404
0.00382733
0.00776774
0.00812019
0.00383022
0.00363765
0.00364552
0.00365794
0.00366592
0.00367061
0.00367321
0.00367453
0.00367507
0.00367507
0.00367453
0.00367321
0.00367061
0.00366592
0.00365794
0.00364552
0.00363765
0.00383022
0.00812019
0.00845029
0.00383069
0.00361989
0.00363122
0.00364645
0.0036562
0.00366201
0.00366531
0.00366705
0.00366779
0.00366779
0.00366705
0.00366531
0.00366201
0.0036562
0.00364645
0.00363122
0.00361989
0.00383069
0.00845029
0.00875527
0.00383019
0.00360091
0.00361614
0.00363446
0.00364613
0.00365316
0.00365725
0.00365946
0.00366041
0.00366041
0.00365946
0.00365725
0.00365316
0.00364613
0.00363446
0.00361614
0.00360091
0.00383019
0.00875526
0.00903549
0.00382885
0.00358084
0.00360032
0.00362199
0.00363573
0.00364408
0.00364901
0.00365173
0.00365292
0.00365292
0.00365173
0.00364901
0.00364408
0.00363573
0.00362199
0.00360032
0.00358084
0.00382886
0.00903548
0.00928895
0.00382646
0.0035598
0.00358379
0.00360904
0.00362499
0.00363475
0.00364059
0.00364385
0.00364531
0.00364531
0.00364385
0.00364059
0.00363475
0.00362499
0.00360904
0.00358379
0.00355981
0.00382647
0.00928894
0.00951737
0.00382339
0.00353793
0.00356663
0.00359565
0.00361394
0.00362518
0.00363197
0.00363582
0.00363755
0.00363755
0.00363582
0.00363197
0.00362517
0.00361394
0.00359565
0.00356663
0.00353793
0.00382339
0.00951736
0.00971929
0.00382013
0.00351532
0.00354886
0.00358181
0.00360256
0.00361535
0.00362316
0.00362762
0.00362964
0.00362964
0.00362762
0.00362316
0.00361535
0.00360256
0.00358181
0.00354886
0.00351533
0.00382013
0.00971928
0.00989733
0.00381663
0.00349216
0.00353055
0.00356758
0.00359087
0.00360529
0.00361414
0.00361924
0.00362157
0.00362157
0.00361924
0.00361414
0.00360529
0.00359087
0.00356758
0.00353055
0.00349216
0.00381663
0.00989732
0.0100502
0.00381346
0.0034685
0.0035117
0.00355293
0.00357887
0.00359499
0.00360492
0.00361068
0.00361332
0.00361332
0.00361068
0.00360492
0.00359499
0.00357887
0.00355293
0.0035117
0.0034685
0.00381346
0.0100502
0.0101815
0.00381056
0.00344461
0.00349246
0.00353795
0.0035666
0.00358445
0.00359549
0.00360193
0.0036049
0.0036049
0.00360193
0.00359549
0.00358445
0.0035666
0.00353795
0.00349247
0.00344461
0.00381056
0.0101815
0.0102898
0.00380854
0.00342047
0.0034728
0.0035226
0.00355404
0.00357367
0.00358586
0.003593
0.0035963
0.0035963
0.003593
0.00358586
0.00357367
0.00355404
0.0035226
0.0034728
0.00342047
0.00380854
0.0102897
0.0103795
0.00380714
0.00339643
0.00345287
0.00350698
0.00354123
0.00356267
0.00357603
0.00358387
0.00358751
0.00358751
0.00358387
0.00357603
0.00356267
0.00354123
0.00350698
0.00345287
0.00339643
0.00380714
0.0103794
0.0104486
0.00380736
0.00337231
0.0034326
0.00349103
0.00352816
0.00355145
0.003566
0.00357455
0.00357853
0.00357853
0.00357455
0.003566
0.00355145
0.00352816
0.00349103