/*--------------------------------*- C++ -*----------------------------------*\
| =========                 |                                                 |
| \\      /  F ield         | OpenFOAM: The Open Source CFD Toolbox           |
|  \\    /   O peration     | Version:  2.1.0                                 |
|   \\  /    A nd           | Web:      www.OpenFOAM.org                      |
|    \\/     M anipulation  |                                                 |
\*---------------------------------------------------------------------------*/
FoamFile
{
    version     2.0;
    format      ascii;
    class       volScalarField;
    location    "0.26";
    object      nut;
}
// * * * * * * * * * * * * * * * * * * * * * * * * * * * * * * * * * * * * * //

dimensions      [0 2 -1 0 0 0 0];

internalField   nonuniform List<scalar> 
6400
(
6.83148e-06
6.84748e-06
6.85872e-06
6.87175e-06
6.88484e-06
6.90068e-06
6.91394e-06
6.93118e-06
6.94502e-06
6.96297e-06
6.9777e-06
6.99609e-06
7.01188e-06
7.03068e-06
7.04767e-06
7.067e-06
7.08532e-06
7.10541e-06
7.12519e-06
7.14629e-06
7.16761e-06
7.1899e-06
7.21282e-06
7.23648e-06
7.26106e-06
7.28627e-06
7.31261e-06
7.33962e-06
7.36793e-06
7.39702e-06
7.42753e-06
7.45886e-06
7.49162e-06
7.52522e-06
7.56022e-06
7.59608e-06
7.63329e-06
7.67132e-06
7.71053e-06
7.7504e-06
7.79115e-06
7.8322e-06
7.8738e-06
7.91537e-06
7.95706e-06
7.99837e-06
8.03922e-06
8.07912e-06
8.11781e-06
8.15462e-06
8.19134e-06
8.22775e-06
8.26428e-06
8.30054e-06
8.33606e-06
8.37159e-06
8.40562e-06
8.43887e-06
8.47048e-06
8.5007e-06
8.5297e-06
8.55805e-06
8.58401e-06
8.60884e-06
8.6329e-06
8.65436e-06
8.67512e-06
8.69538e-06
8.71191e-06
8.72474e-06
8.73782e-06
8.74654e-06
8.75232e-06
8.75689e-06
8.75804e-06
8.75874e-06
8.75914e-06
8.76149e-06
8.76825e-06
8.78241e-06
8.80699e-06
8.84324e-06
8.88682e-06
8.92399e-06
8.97407e-06
9.03762e-06
9.10352e-06
9.16447e-06
9.20283e-06
9.17619e-06
9.01196e-06
8.56125e-06
7.57849e-06
5.85736e-06
3.50511e-06
2.21668e-06
2.35321e-06
3.74046e-06
3.84677e-06
4.15848e-06
7.2456e-05
7.28656e-05
7.2939e-05
7.31995e-05
7.32843e-05
7.34992e-05
7.36038e-05
7.37893e-05
7.39107e-05
7.40762e-05
7.42087e-05
7.436e-05
7.44981e-05
7.46391e-05
7.47788e-05
7.49124e-05
7.50516e-05
7.51804e-05
7.53187e-05
7.54465e-05
7.55859e-05
7.5714e-05
7.58535e-05
7.59826e-05
7.61214e-05
7.62516e-05
7.63893e-05
7.65206e-05
7.66572e-05
7.67879e-05
7.69213e-05
7.70475e-05
7.71747e-05
7.72955e-05
7.74156e-05
7.75289e-05
7.76395e-05
7.77423e-05
7.78402e-05
7.79276e-05
7.80061e-05
7.80669e-05
7.81116e-05
7.81336e-05
7.81321e-05
7.81028e-05
7.80428e-05
7.79499e-05
7.78307e-05
7.75861e-05
7.7169e-05
7.67143e-05
7.62294e-05
7.57055e-05
7.51472e-05
7.45537e-05
7.39209e-05
7.32456e-05
7.25276e-05
7.17599e-05
7.09443e-05
7.00971e-05
6.91909e-05
6.82482e-05
6.72705e-05
6.62344e-05
6.51578e-05
6.40497e-05
6.28759e-05
6.16418e-05
6.03653e-05
5.90151e-05
5.76107e-05
5.61435e-05
5.461e-05
5.30183e-05
5.13638e-05
4.96527e-05
4.78878e-05
4.60734e-05
4.4215e-05
4.23189e-05
4.03809e-05
3.84018e-05
3.63203e-05
3.41614e-05
3.18915e-05
2.95189e-05
2.70389e-05
2.44492e-05
2.17855e-05
1.90662e-05
1.63532e-05
1.37794e-05
1.13414e-05
9.14385e-06
7.4277e-06
6.23816e-06
5.62586e-06
6.84152e-06
0.000110572
0.000110736
0.0001108
0.000110841
0.000110891
0.000110898
0.000110936
0.000110919
0.000110946
0.00011091
0.000110922
0.000110869
0.000110861
0.00011079
0.000110759
0.000110669
0.000110612
0.000110502
0.000110419
0.000110291
0.000110193
0.000110055
0.00010994
0.000109792
0.000109658
0.000109498
0.000109344
0.00010917
0.000108999
0.00010881
0.000108622
0.000108416
0.000108204
0.00010797
0.000107724
0.000107453
0.000107166
0.000106851
0.000106522
0.000106164
0.000105783
0.000105365
0.000104915
0.000104423
0.000103886
0.000103297
0.000102649
0.000101548
0.000100399
9.91952e-05
9.79624e-05
9.66779e-05
9.5363e-05
9.39978e-05
9.258e-05
9.11237e-05
8.96279e-05
8.80816e-05
8.65088e-05
8.48874e-05
8.32433e-05
8.15834e-05
7.98483e-05
7.8087e-05
7.63016e-05
7.44664e-05
7.26123e-05
7.07294e-05
6.88087e-05
6.68693e-05
6.48987e-05
6.28982e-05
6.08741e-05
5.8817e-05
5.6732e-05
5.46156e-05
5.24678e-05
5.02887e-05
4.80795e-05
4.58413e-05
4.35781e-05
4.12935e-05
3.89944e-05
3.66897e-05
3.4409e-05
3.21542e-05
2.99463e-05
2.77899e-05
2.56942e-05
2.36582e-05
2.16621e-05
1.97167e-05
1.78023e-05
1.58308e-05
1.38279e-05
1.18405e-05
1.00563e-05
8.54542e-06
8.06406e-06
1.12847e-05
0.000130985
0.00013059
0.000130438
0.00013009
0.000129939
0.000129574
0.000129399
0.000129023
0.000128814
0.000128427
0.000128179
0.00012778
0.000127491
0.000127074
0.000126744
0.000126304
0.000125927
0.000125454
0.000124974
0.000124094
0.000123229
0.000122321
0.000121424
0.000120499
0.000119579
0.000118636
0.000117696
0.000116732
0.000115764
0.000114775
0.000113782
0.000112769
0.000111748
0.000110706
0.000109655
0.000108581
0.000107495
0.000106385
0.000105259
0.000104106
0.000102935
0.000101739
0.000100516
9.9265e-05
9.7985e-05
9.6677e-05
9.53355e-05
9.39711e-05
9.25751e-05
9.11452e-05
8.96781e-05
8.81626e-05
8.66311e-05
8.50845e-05
8.34576e-05
8.18137e-05
8.0136e-05
7.84056e-05
7.66573e-05
7.4861e-05
7.30383e-05
7.11908e-05
6.93082e-05
6.74147e-05
6.54943e-05
6.35604e-05
6.1614e-05
5.96597e-05
5.76996e-05
5.57448e-05
5.37936e-05
5.18566e-05
4.99367e-05
4.80373e-05
4.61661e-05
4.4323e-05
4.25152e-05
4.07415e-05
3.90059e-05
3.73061e-05
3.56432e-05
3.40132e-05
3.24078e-05
3.08331e-05
2.92917e-05
2.77433e-05
2.62202e-05
2.46874e-05
2.31591e-05
2.16105e-05
2.00511e-05
1.84633e-05
1.68488e-05
1.51822e-05
1.34775e-05
1.18349e-05
1.03971e-05
9.7014e-06
1.18774e-05
1.2022e-05
0.000130353
0.000130279
0.00012992
0.000129615
0.000128793
0.000128092
0.000127146
0.000126281
0.000125298
0.000124348
0.000123346
0.000122344
0.000121322
0.000120282
0.000119241
0.000118172
0.00011711
0.000116015
0.000114933
0.000113827
0.000112736
0.000111615
0.000110507
0.000109376
0.000108253
0.000107109
0.000105969
0.000104811
0.000103655
0.000102484
0.000101316
0.000100134
9.89539e-05
9.77587e-05
9.6562e-05
9.53494e-05
9.41333e-05
9.29004e-05
9.16597e-05
9.03905e-05
8.91086e-05
8.78307e-05
8.65148e-05
8.51809e-05
8.38229e-05
8.24446e-05
8.10372e-05
7.96098e-05
7.81518e-05
7.66643e-05
7.51485e-05
7.36046e-05
7.20394e-05
7.0451e-05
6.88469e-05
6.72327e-05
6.56108e-05
6.398e-05
6.23555e-05
6.07278e-05
5.91124e-05
5.75057e-05
5.59136e-05
5.43415e-05
5.27852e-05
5.12541e-05
4.97425e-05
4.82572e-05
4.67923e-05
4.5351e-05
4.39373e-05
4.25447e-05
4.11683e-05
3.98139e-05
3.8474e-05
3.71485e-05
3.58321e-05
3.45218e-05
3.32128e-05
3.1903e-05
3.05878e-05
2.92672e-05
2.79425e-05
2.66138e-05
2.52814e-05
2.39533e-05
2.26286e-05
2.13119e-05
2.00119e-05
1.87337e-05
1.74869e-05
1.62753e-05
1.51157e-05
1.4004e-05
1.29808e-05
1.22029e-05
1.20287e-05
1.36988e-05
1.37355e-05
1.406e-05
0.000116731
0.000116031
0.000115528
0.000114877
0.000113934
0.000112979
0.000111907
0.000110832
0.000109719
0.000108593
0.000107467
0.000106318
0.00010519
0.000104033
0.000102908
0.000101753
0.000100636
9.94922e-05
9.83865e-05
9.72571e-05
9.61592e-05
9.5049e-05
9.39511e-05
9.28527e-05
9.17565e-05
9.06477e-05
8.95464e-05
8.84271e-05
8.73236e-05
8.62063e-05
8.51048e-05
8.39935e-05
8.28929e-05
8.17807e-05
8.06752e-05
7.9557e-05
7.84429e-05
7.73145e-05
7.6185e-05
7.50387e-05
7.3889e-05
7.2722e-05
7.15444e-05
7.035e-05
6.91447e-05
6.79238e-05
6.66906e-05
6.54447e-05
6.41898e-05
6.29256e-05
6.16576e-05
6.03842e-05
5.91116e-05
5.78401e-05
5.65744e-05
5.53169e-05
5.40747e-05
5.28291e-05
5.16069e-05
5.03849e-05
4.91832e-05
4.79846e-05
4.68028e-05
4.56269e-05
4.44632e-05
4.33064e-05
4.21584e-05
4.10177e-05
3.98844e-05
3.87586e-05
3.76433e-05
3.65358e-05
3.54402e-05
3.4352e-05
3.32755e-05
3.22089e-05
3.11565e-05
3.0116e-05
2.90924e-05
2.80869e-05
2.70978e-05
2.61297e-05
2.51806e-05
2.42555e-05
2.33527e-05
2.2469e-05
2.16059e-05
2.07654e-05
1.99568e-05
1.91823e-05
1.8457e-05
1.77901e-05
1.72082e-05
1.67573e-05
1.65626e-05
1.6545e-05
1.59868e-05
1.57486e-05
1.57243e-05
1.31695e-05
0.000100462
9.92734e-05
9.87145e-05
9.78321e-05
9.69644e-05
9.59235e-05
9.49471e-05
9.38529e-05
9.2839e-05
9.17349e-05
9.07121e-05
8.96153e-05
8.85966e-05
8.75165e-05
8.651e-05
8.5452e-05
8.44627e-05
8.34301e-05
8.24608e-05
8.14545e-05
8.05079e-05
7.9533e-05
7.86088e-05
7.76672e-05
7.67613e-05
7.58374e-05
7.49497e-05
7.4046e-05
7.31754e-05
7.22956e-05
7.14493e-05
7.05974e-05
6.97691e-05
6.89308e-05
6.81087e-05
6.72731e-05
6.64496e-05
6.56115e-05
6.47782e-05
6.39241e-05
6.30701e-05
6.21968e-05
6.13199e-05
6.04249e-05
5.9525e-05
5.86093e-05
5.76883e-05
5.6756e-05
5.58213e-05
5.48802e-05
5.3941e-05
5.29995e-05
5.20644e-05
5.1128e-05
5.01942e-05
4.92654e-05
4.83432e-05
4.74302e-05
4.65264e-05
4.56322e-05
4.4754e-05
4.38869e-05
4.30418e-05
4.22101e-05
4.14001e-05
4.06065e-05
3.98405e-05
3.90908e-05
3.83694e-05
3.76669e-05
3.69897e-05
3.63314e-05
3.56986e-05
3.50831e-05
3.4492e-05
3.39143e-05
3.33545e-05
3.25142e-05
3.16299e-05
3.07283e-05
2.98516e-05
2.8962e-05
2.80985e-05
2.72225e-05
2.63749e-05
2.55211e-05
2.46916e-05
2.38605e-05
2.30577e-05
2.22623e-05
2.15035e-05
2.07712e-05
2.00951e-05
1.94648e-05
1.89241e-05
1.85394e-05
1.82876e-05
1.81977e-05
1.88808e-05
1.48766e-05
8.69208e-05
8.53872e-05
8.48993e-05
8.39573e-05
8.32831e-05
8.23065e-05
8.15643e-05
8.06028e-05
7.98428e-05
7.89177e-05
7.81621e-05
7.72782e-05
7.65364e-05
7.56918e-05
7.49688e-05
7.41585e-05
7.346e-05
7.26765e-05
7.20008e-05
7.1242e-05
7.0589e-05
6.98518e-05
6.92027e-05
6.84865e-05
6.74843e-05
6.6379e-05
6.53735e-05
6.43237e-05
6.33751e-05
6.23855e-05
6.14986e-05
6.05754e-05
5.9751e-05
5.88891e-05
5.812e-05
5.73137e-05
5.65941e-05
5.58379e-05
5.51644e-05
5.44579e-05
5.38306e-05
5.317e-05
5.25832e-05
5.1966e-05
5.14183e-05
5.08431e-05
5.03336e-05
4.98e-05
4.93245e-05
4.88313e-05
4.83883e-05
4.79343e-05
4.75175e-05
4.70938e-05
4.67003e-05
4.62969e-05
4.59189e-05
4.5526e-05
4.51541e-05
4.47627e-05
4.4388e-05
4.39932e-05
4.36026e-05
4.31948e-05
4.28132e-05
4.23929e-05
4.19873e-05
4.15661e-05
4.11531e-05
4.07295e-05
4.03089e-05
3.98831e-05
3.94546e-05
3.90265e-05
3.85897e-05
3.81551e-05
3.77068e-05
3.7257e-05
3.67916e-05
3.6318e-05
3.58266e-05
3.53163e-05
3.47868e-05
3.42282e-05
3.36452e-05
3.30244e-05
3.23727e-05
3.16777e-05
3.09474e-05
3.0175e-05
2.93743e-05
2.85512e-05
2.77335e-05
2.69474e-05
2.6275e-05
2.57771e-05
2.53835e-05
2.55032e-05
2.59756e-05
2.03431e-05
7.16733e-05
6.96667e-05
6.88546e-05
6.73457e-05
6.65136e-05
6.5098e-05
6.4287e-05
6.2948e-05
6.21645e-05
6.09058e-05
6.01577e-05
5.89834e-05
5.82786e-05
5.71917e-05
5.65356e-05
5.55367e-05
5.49308e-05
5.40219e-05
5.3469e-05
5.26497e-05
5.21514e-05
5.14227e-05
5.09812e-05
5.03398e-05
4.99577e-05
4.94099e-05
4.90967e-05
4.86379e-05
4.83893e-05
4.80121e-05
4.78203e-05
4.7517e-05
4.73763e-05
4.71343e-05
4.70356e-05
4.68462e-05
4.6784e-05
4.66383e-05
4.66055e-05
4.64977e-05
4.64898e-05
4.64139e-05
4.64247e-05
4.63725e-05
4.63929e-05
4.63634e-05
4.63827e-05
4.63817e-05
4.63857e-05
4.64085e-05
4.64088e-05
4.64371e-05
4.64399e-05
4.64753e-05
4.64898e-05
4.65247e-05
4.65525e-05
4.65877e-05
4.66277e-05
4.66729e-05
4.67288e-05
4.67875e-05
4.68597e-05
4.69322e-05
4.70209e-05
4.71055e-05
4.72126e-05
4.73106e-05
4.74317e-05
4.75454e-05
4.76799e-05
4.7811e-05
4.79586e-05
4.81078e-05
4.82669e-05
4.84294e-05
4.85953e-05
4.87629e-05
4.89301e-05
4.90949e-05
4.92558e-05
4.94067e-05
4.9547e-05
4.96661e-05
4.97622e-05
4.98217e-05
4.98416e-05
4.9808e-05
4.97152e-05
4.95519e-05
4.93144e-05
4.89988e-05
4.86079e-05
4.81558e-05
4.76653e-05
4.72175e-05
4.69967e-05
4.70649e-05
4.74761e-05
3.9423e-05
5.83842e-05
5.67287e-05
5.60763e-05
5.48686e-05
5.42955e-05
5.3179e-05
5.26789e-05
5.16612e-05
5.12304e-05
5.03156e-05
4.99489e-05
4.91371e-05
4.88284e-05
4.81206e-05
4.78668e-05
4.72613e-05
4.70571e-05
4.65485e-05
4.63872e-05
4.59725e-05
4.58488e-05
4.55231e-05
4.54307e-05
4.51899e-05
4.51242e-05
4.49627e-05
4.49194e-05
4.48312e-05
4.48047e-05
4.47813e-05
4.47785e-05
4.47812e-05
4.48251e-05
4.48483e-05
4.4926e-05
4.49712e-05
4.50719e-05
4.51407e-05
4.52586e-05
4.53505e-05
4.54858e-05
4.55971e-05
4.57472e-05
4.58764e-05
4.60392e-05
4.61845e-05
4.6362e-05
4.65227e-05
4.67139e-05
4.68911e-05
4.70957e-05
4.72909e-05
4.75088e-05
4.77234e-05
4.7956e-05
4.81882e-05
4.8437e-05
4.86875e-05
4.8954e-05
4.92243e-05
4.95105e-05
4.9803e-05
5.01122e-05
5.04274e-05
5.07606e-05
5.10976e-05
5.14546e-05
5.1814e-05
5.21953e-05
5.25796e-05
5.29868e-05
5.34004e-05
5.38363e-05
5.42836e-05
5.47513e-05
5.52341e-05
5.57354e-05
5.62544e-05
5.67937e-05
5.73535e-05
5.79373e-05
5.85446e-05
5.91799e-05
5.98421e-05
6.05368e-05
6.12654e-05
6.20331e-05
6.28432e-05
6.3702e-05
6.46145e-05
6.55879e-05
6.66287e-05
6.77455e-05
6.89459e-05
7.02363e-05
7.16122e-05
7.30291e-05
7.44631e-05
7.51826e-05
6.59012e-05
6.16017e-05
5.98992e-05
5.9227e-05
5.79826e-05
5.73906e-05
5.62392e-05
5.57197e-05
5.467e-05
5.42201e-05
5.32749e-05
5.28895e-05
5.20484e-05
5.17244e-05
5.09821e-05
5.07164e-05
5.00663e-05
4.98534e-05
4.92891e-05
4.91232e-05
4.86388e-05
4.8514e-05
4.81039e-05
4.80146e-05
4.7674e-05
4.76148e-05
4.73399e-05
4.73062e-05
4.70941e-05
4.70812e-05
4.69275e-05
4.6931e-05
4.6831e-05
4.68454e-05
4.67931e-05
4.68139e-05
4.68092e-05
4.68341e-05
4.68654e-05
4.68864e-05
4.69375e-05
4.69961e-05
4.70473e-05
4.71193e-05
4.71802e-05
4.72634e-05
4.73359e-05
4.74332e-05
4.75175e-05
4.76277e-05
4.77249e-05
4.7848e-05
4.79597e-05
4.80966e-05
4.82235e-05
4.83739e-05
4.85167e-05
4.86808e-05
4.88387e-05
4.90205e-05
4.91976e-05
4.93984e-05
4.95982e-05
4.98198e-05
5.00425e-05
5.02861e-05
5.05314e-05
5.07963e-05
5.10628e-05
5.13495e-05
5.16375e-05
5.19464e-05
5.22589e-05
5.2591e-05
5.29319e-05
5.32898e-05
5.36604e-05
5.40465e-05
5.44475e-05
5.48657e-05
5.53011e-05
5.57574e-05
5.62338e-05
5.67352e-05
5.72602e-05
5.78139e-05
5.83945e-05
5.90069e-05
5.96511e-05
6.03371e-05
6.10676e-05
6.18501e-05
6.26877e-05
6.35912e-05
6.45703e-05
6.5643e-05
6.68394e-05
6.8196e-05
6.96919e-05
7.08492e-05
6.27366e-05
8.12961e-05
7.93571e-05
7.85726e-05
7.71212e-05
7.63343e-05
7.4988e-05
7.41998e-05
7.2952e-05
7.21691e-05
7.10208e-05
7.02435e-05
6.9169e-05
6.84287e-05
6.74159e-05
6.67197e-05
6.57641e-05
6.51045e-05
6.42057e-05
6.35779e-05
6.27327e-05
6.21339e-05
6.13388e-05
6.07683e-05
6.00211e-05
5.94787e-05
5.8778e-05
5.82642e-05
5.76111e-05
5.71271e-05
5.6523e-05
5.60696e-05
5.55101e-05
5.50866e-05
5.45732e-05
5.41808e-05
5.37103e-05
5.33462e-05
5.29176e-05
5.25798e-05
5.21901e-05
5.18796e-05
5.1524e-05
5.12402e-05
5.09171e-05
5.06574e-05
5.03625e-05
5.01228e-05
4.98535e-05
4.9632e-05
4.93827e-05
4.91754e-05
4.89411e-05
4.87448e-05
4.85201e-05
4.83188e-05
4.81044e-05
4.79316e-05
4.77072e-05
4.75391e-05
4.7341e-05
4.71523e-05
4.69651e-05
4.67878e-05
4.66116e-05
4.64408e-05
4.62742e-05
4.6111e-05
4.59478e-05
4.57921e-05
4.563e-05
4.54812e-05
4.53185e-05
4.51637e-05
4.4996e-05
4.48282e-05
4.4648e-05
4.44616e-05
4.42599e-05
4.40489e-05
4.38191e-05
4.35784e-05
4.33187e-05
4.3049e-05
4.27602e-05
4.24615e-05
4.21461e-05
4.18222e-05
4.14856e-05
4.11382e-05
4.07752e-05
4.04042e-05
4.00371e-05
3.96764e-05
3.93466e-05
3.90758e-05
3.89139e-05
3.89577e-05
3.93186e-05
4.00449e-05
3.39496e-05
9.28505e-05
9.15158e-05
9.10266e-05
9.01725e-05
8.94958e-05
8.85819e-05
8.78376e-05
8.69263e-05
8.61701e-05
8.52902e-05
8.45475e-05
8.37068e-05
8.29861e-05
8.21836e-05
8.14842e-05
8.07148e-05
8.00326e-05
7.92892e-05
7.86189e-05
7.7894e-05
7.72292e-05
7.65152e-05
7.58512e-05
7.51437e-05
7.4477e-05
7.37679e-05
7.3101e-05
7.23925e-05
7.17295e-05
7.10165e-05
7.03287e-05
6.96001e-05
6.88934e-05
6.81602e-05
6.74425e-05
6.67018e-05
6.59705e-05
6.5221e-05
6.44716e-05
6.3695e-05
6.29165e-05
6.21153e-05
6.13127e-05
6.04915e-05
5.96717e-05
5.8839e-05
5.80109e-05
5.71171e-05
5.62224e-05
5.53308e-05
5.44833e-05
5.36365e-05
5.28318e-05
5.2026e-05
5.12608e-05
5.04911e-05
4.97605e-05
4.90213e-05
4.83148e-05
4.75953e-05
4.69052e-05
4.62043e-05
4.55244e-05
4.48304e-05
4.41463e-05
4.34459e-05
4.27472e-05
4.20282e-05
4.1309e-05
4.05629e-05
3.98045e-05
3.90475e-05
3.83001e-05
3.75256e-05
3.67713e-05
3.59961e-05
3.52396e-05
3.44662e-05
3.37128e-05
3.29468e-05
3.22031e-05
3.14474e-05
3.07115e-05
2.9971e-05
2.92536e-05
2.85388e-05
2.78494e-05
2.71699e-05
2.65163e-05
2.58827e-05
2.52843e-05
2.47031e-05
2.41748e-05
2.37157e-05
2.33732e-05
2.30909e-05
2.31477e-05
2.34212e-05
2.42098e-05
1.8803e-05
0.000107955
0.000106933
0.000106464
0.000105717
0.000104904
0.000103979
0.000103055
0.000102055
0.000101095
0.000100076
9.91153e-05
9.81025e-05
9.71503e-05
9.61503e-05
9.52081e-05
9.42214e-05
9.32873e-05
9.23119e-05
9.13831e-05
9.0416e-05
8.94883e-05
8.85242e-05
8.75932e-05
8.6629e-05
8.5692e-05
8.47231e-05
8.3777e-05
8.28034e-05
8.18486e-05
8.08652e-05
7.98872e-05
7.88837e-05
7.7886e-05
7.68691e-05
7.58575e-05
7.48281e-05
7.38016e-05
7.27592e-05
7.172e-05
7.06679e-05
6.96168e-05
6.85527e-05
6.74884e-05
6.64103e-05
6.53284e-05
6.42359e-05
6.3148e-05
6.20387e-05
6.0934e-05
5.98154e-05
5.86986e-05
5.75745e-05
5.64527e-05
5.53283e-05
5.42067e-05
5.30862e-05
5.19718e-05
5.08613e-05
4.97599e-05
4.86651e-05
4.75844e-05
4.65158e-05
4.54592e-05
4.44088e-05
4.33723e-05
4.23473e-05
4.13389e-05
4.03448e-05
3.93689e-05
3.84148e-05
3.74861e-05
3.65779e-05
3.56991e-05
3.48454e-05
3.40227e-05
3.32286e-05
3.24572e-05
3.17143e-05
3.09938e-05
3.03006e-05
2.96292e-05
2.89778e-05
2.83421e-05
2.77262e-05
2.67426e-05
2.5783e-05
2.48324e-05
2.39226e-05
2.30462e-05
2.22192e-05
2.14291e-05
2.06972e-05
2.00049e-05
1.93726e-05
1.8777e-05
1.83566e-05
1.81427e-05
1.79441e-05
1.8678e-05
1.44409e-05
0.000124721
0.00012413
0.000123732
0.000123209
0.000122347
0.000121497
0.000120499
0.000119518
0.00011848
0.000117445
0.000116398
0.000115339
0.000114291
0.000113221
0.000112174
0.0001111
0.000110052
0.000108977
0.000107928
0.000106851
0.0001058
0.000104721
0.000103663
0.000102582
0.000101518
0.000100434
9.93606e-05
9.8261e-05
9.7158e-05
9.60548e-05
9.49183e-05
9.37687e-05
9.26047e-05
9.14186e-05
9.02222e-05
8.90021e-05
8.77703e-05
8.65147e-05
8.52497e-05
8.39667e-05
8.26733e-05
8.13608e-05
8.00376e-05
7.86961e-05
7.73449e-05
7.59744e-05
7.45956e-05
7.32023e-05
7.18004e-05
7.03901e-05
6.89744e-05
6.75557e-05
6.61366e-05
6.47195e-05
6.33073e-05
6.18997e-05
6.05027e-05
5.91134e-05
5.77368e-05
5.63679e-05
5.50123e-05
5.36743e-05
5.23467e-05
5.10365e-05
4.97423e-05
4.8461e-05
4.71922e-05
4.59315e-05
4.46789e-05
4.34308e-05
4.21868e-05
4.09453e-05
3.97059e-05
3.84682e-05
3.72322e-05
3.59999e-05
3.4775e-05
3.35539e-05
3.23424e-05
3.11325e-05
2.99355e-05
2.87453e-05
2.75719e-05
2.64135e-05
2.52729e-05
2.41501e-05
2.30505e-05
2.19747e-05
2.09245e-05
1.98997e-05
1.89091e-05
1.7959e-05
1.71099e-05
1.63678e-05
1.58836e-05
1.60545e-05
1.60655e-05
1.58564e-05
1.58784e-05
1.3191e-05
0.000137419
0.000137455
0.000137189
0.000136986
0.000136248
0.000135635
0.000134767
0.00013399
0.000133087
0.000132229
0.000131313
0.000130408
0.000129482
0.000128546
0.000127608
0.000126649
0.000125697
0.000124719
0.000123751
0.000122754
0.000121767
0.000120751
0.000119742
0.000118705
0.000117672
0.000116621
0.000115574
0.000114498
0.000113426
0.000112328
0.000111221
0.00011009
0.000108947
0.00010778
0.000106598
0.000105391
0.000104167
0.000102914
0.000101644
0.000100346
9.90276e-05
9.76797e-05
9.6304e-05
9.48935e-05
9.34716e-05
9.20228e-05
9.05286e-05
8.9019e-05
8.74686e-05
8.58986e-05
8.42939e-05
8.26685e-05
8.10154e-05
7.9343e-05
7.76507e-05
7.59426e-05
7.42204e-05
7.24832e-05
7.07331e-05
6.89721e-05
6.72101e-05
6.54413e-05
6.36801e-05
6.19238e-05
6.018e-05
5.84496e-05
5.67355e-05
5.50406e-05
5.3365e-05
5.17131e-05
5.00823e-05
4.84769e-05
4.68937e-05
4.53349e-05
4.37917e-05
4.22724e-05
4.07854e-05
3.92935e-05
3.78277e-05
3.63616e-05
3.49039e-05
3.34396e-05
3.19685e-05
3.04837e-05
2.89793e-05
2.74557e-05
2.59106e-05
2.43489e-05
2.27723e-05
2.11893e-05
1.96037e-05
1.80193e-05
1.64531e-05
1.49538e-05
1.35609e-05
1.24844e-05
1.20865e-05
1.3607e-05
1.38565e-05
1.43473e-05
0.000134842
0.000134519
0.000134393
0.000134089
0.000133963
0.000133642
0.000133496
0.000133166
0.000132988
0.000132648
0.000132438
0.000132092
0.000131851
0.000131497
0.000131228
0.000130864
0.000130565
0.000130187
0.000129858
0.000129461
0.0001291
0.00012868
0.000128281
0.000127828
0.000127383
0.000126598
0.000125763
0.000124894
0.000124029
0.000123134
0.000122235
0.00012131
0.000120377
0.000119418
0.000118447
0.000117451
0.000116441
0.000115408
0.00011435
0.000113262
0.00011215
0.000111004
0.00010983
0.000108622
0.000107385
0.000106108
0.000104795
0.000103445
0.000102054
0.000100626
9.91548e-05
9.76449e-05
9.60931e-05
9.45009e-05
9.28685e-05
9.1201e-05
8.94865e-05
8.77524e-05
8.59958e-05
8.41731e-05
8.23476e-05
8.04679e-05
7.85713e-05
7.66339e-05
7.46642e-05
7.26567e-05
7.06173e-05
6.85504e-05
6.6451e-05
6.43311e-05
6.21864e-05
6.00246e-05
5.78523e-05
5.5671e-05
5.34947e-05
5.13248e-05
4.9175e-05
4.70503e-05
4.49588e-05
4.29083e-05
4.08996e-05
3.89394e-05
3.70224e-05
3.51509e-05
3.33067e-05
3.14927e-05
2.97224e-05
2.79399e-05
2.61676e-05
2.43753e-05
2.25627e-05
2.06981e-05
1.87635e-05
1.67788e-05
1.47838e-05
1.28133e-05
1.11188e-05
1.01074e-05
1.19843e-05
1.21431e-05
0.0001125
0.000112696
0.000112771
0.000112831
0.00011289
0.000112914
0.000112961
0.000112962
0.000113
0.000112983
0.00011301
0.00011298
0.000112993
0.00011295
0.000112947
0.000112893
0.000112873
0.000112805
0.000112765
0.000112684
0.000112624
0.000112526
0.000112443
0.000112328
0.000112223
0.000112092
0.000111973
0.000111829
0.000111695
0.000111538
0.000111386
0.000111215
0.000111044
0.000110855
0.000110663
0.000110453
0.00011023
0.000109983
0.000109722
0.000109438
0.000109136
0.000108807
0.000108456
0.000108075
0.000107665
0.000107222
0.000106751
0.000106245
0.000105708
0.000105137
0.00010452
0.000103858
0.000103142
0.000102365
0.000101519
0.000100219
9.88088e-05
9.73325e-05
9.58055e-05
9.42139e-05
9.25819e-05
9.08881e-05
8.9156e-05
8.73787e-05
8.55622e-05
8.37056e-05
8.17953e-05
7.98587e-05
7.78571e-05
7.5804e-05
7.3714e-05
7.15646e-05
6.93825e-05
6.71386e-05
6.4853e-05
6.25132e-05
6.01163e-05
5.76693e-05
5.51575e-05
5.25953e-05
4.99706e-05
4.72991e-05
4.45786e-05
4.18273e-05
3.90542e-05
3.62822e-05
3.35339e-05
3.08342e-05
2.82071e-05
2.56793e-05
2.32382e-05
2.0884e-05
1.86105e-05
1.63342e-05
1.41606e-05
1.21493e-05
1.03389e-05
8.94517e-06
8.37807e-06
1.155e-05
7.27281e-05
7.31342e-05
7.32119e-05
7.34612e-05
7.35457e-05
7.375e-05
7.38513e-05
7.40272e-05
7.41437e-05
7.4301e-05
7.44281e-05
7.45729e-05
7.47063e-05
7.48427e-05
7.49787e-05
7.51091e-05
7.52451e-05
7.53711e-05
7.55052e-05
7.56277e-05
7.57591e-05
7.58791e-05
7.60079e-05
7.61266e-05
7.6254e-05
7.6374e-05
7.65017e-05
7.66221e-05
7.67488e-05
7.68682e-05
7.69924e-05
7.71102e-05
7.72309e-05
7.73452e-05
7.74596e-05
7.75665e-05
7.76731e-05
7.77729e-05
7.78706e-05
7.79613e-05
7.80476e-05
7.81262e-05
7.81988e-05
7.82625e-05
7.83188e-05
7.83655e-05
7.84036e-05
7.84308e-05
7.8443e-05
7.84378e-05
7.84119e-05
7.83637e-05
7.82897e-05
7.81879e-05
7.80558e-05
7.78942e-05
7.77161e-05
7.75044e-05
7.72652e-05
7.69893e-05
7.6674e-05
7.63079e-05
7.57932e-05
7.50283e-05
7.41961e-05
7.32969e-05
7.23382e-05
7.13248e-05
7.02393e-05
6.90924e-05
6.78715e-05
6.65685e-05
6.52075e-05
6.37526e-05
6.21925e-05
6.05495e-05
5.87835e-05
5.69231e-05
5.49375e-05
5.28456e-05
5.06344e-05
4.83166e-05
4.58923e-05
4.33739e-05
4.07706e-05
3.80975e-05
3.53603e-05
3.25652e-05
2.97074e-05
2.67484e-05
2.36813e-05
2.05769e-05
1.75737e-05
1.47011e-05
1.20071e-05
9.61484e-06
7.78346e-06
6.57533e-06
5.8666e-06
6.75081e-06
6.80956e-06
6.82505e-06
6.83471e-06
6.84784e-06
6.85992e-06
6.87547e-06
6.88798e-06
6.90474e-06
6.91794e-06
6.93531e-06
6.94942e-06
6.96716e-06
6.9823e-06
7.00034e-06
7.01656e-06
7.03496e-06
7.0523e-06
7.07119e-06
7.08968e-06
7.10928e-06
7.12901e-06
7.14958e-06
7.17072e-06
7.19257e-06
7.21532e-06
7.23873e-06
7.26323e-06
7.28836e-06
7.31467e-06
7.34156e-06
7.36973e-06
7.39857e-06
7.42883e-06
7.45991e-06
7.49249e-06
7.52604e-06
7.56118e-06
7.59741e-06
7.63527e-06
7.67435e-06
7.71509e-06
7.75718e-06
7.80099e-06
7.84627e-06
7.89333e-06
7.94195e-06
7.99237e-06
8.04436e-06
8.09803e-06
8.15337e-06
8.21044e-06
8.26937e-06
8.33026e-06
8.39327e-06
8.45859e-06
8.52641e-06
8.59678e-06
8.66898e-06
8.74312e-06
8.81856e-06
8.89443e-06
8.9702e-06
9.04491e-06
9.12118e-06
9.19804e-06
9.27884e-06
9.36217e-06
9.44907e-06
9.53856e-06
9.63219e-06
9.72927e-06
9.83023e-06
9.9376e-06
1.00464e-05
1.01573e-05
1.02758e-05
1.03927e-05
1.05164e-05
1.06405e-05
1.07684e-05
1.08985e-05
1.10315e-05
1.11676e-05
1.13066e-05
1.14485e-05
1.159e-05
1.17194e-05
1.18122e-05
1.17993e-05
1.15624e-05
1.09358e-05
9.69546e-06
7.82055e-06
5.64527e-06
3.64181e-06
2.63137e-06
2.55199e-06
3.92535e-06
4.02185e-06
4.33117e-06
1.08927e-05
2.06018e-06
2.59774e-06
3.53453e-06
4.56619e-06
5.60652e-06
6.44837e-06
7.28304e-06
8.08536e-06
8.83711e-06
9.54034e-06
1.02007e-05
1.10703e-05
1.27107e-05
1.49853e-05
1.75312e-05
1.74854e-05
1.54869e-05
1.04083e-05
3.97387e-06
5.8297e-06
2.1798e-06
2.48337e-06
3.1785e-06
4.02399e-06
4.83929e-06
5.65898e-06
6.50604e-06
7.36014e-06
8.22416e-06
9.10832e-06
1.00587e-05
1.1545e-05
1.35927e-05
1.63994e-05
1.80606e-05
1.73547e-05
1.46637e-05
9.67249e-06
3.92955e-06
4.9311e-06
2.68974e-06
2.88514e-06
3.38415e-06
3.99888e-06
4.70666e-06
5.44546e-06
6.25938e-06
7.14034e-06
8.21872e-06
9.21347e-06
1.05592e-05
1.23551e-05
1.50644e-05
1.75947e-05
1.81145e-05
1.70222e-05
1.39731e-05
9.028e-06
3.75938e-06
5.03994e-06
3.4235e-06
3.61726e-06
3.86634e-06
4.35882e-06
4.90107e-06
5.61216e-06
6.48866e-06
7.5782e-06
9.17173e-06
1.06746e-05
1.23185e-05
1.49219e-05
1.76671e-05
1.88838e-05
1.86193e-05
1.69559e-05
1.32721e-05
8.21938e-06
3.14874e-06
5.67807e-06
4.47031e-06
4.61157e-06
4.62368e-06
5.17764e-06
5.62821e-06
6.47455e-06
7.64534e-06
9.28871e-06
1.23297e-05
1.40527e-05
1.62182e-05
1.87302e-05
2.00411e-05
2.01916e-05
1.91551e-05
1.64282e-05
1.26159e-05
7.00809e-06
2.21763e-06
6.88589e-06
5.96295e-06
6.032e-06
5.9722e-06
6.6794e-06
7.56588e-06
9.02917e-06
1.11297e-05
1.53206e-05
1.85703e-05
2.02374e-05
2.17353e-05
2.2741e-05
2.26601e-05
2.16294e-05
1.89244e-05
1.59502e-05
1.16987e-05
5.15874e-06
1.35707e-06
8.99596e-06
8.55037e-06
8.74929e-06
9.24485e-06
1.08491e-05
1.3232e-05
1.65135e-05
2.13264e-05
2.79468e-05
2.88362e-05
2.86754e-05
2.80999e-05
2.68688e-05
2.44521e-05
2.14314e-05
1.85381e-05
1.48117e-05
1.01466e-05
3.88742e-06
7.18684e-07
1.44629e-05
1.58523e-05
1.70422e-05
1.93128e-05
2.28293e-05
2.71141e-05
3.26614e-05
3.96059e-05
3.90722e-05
3.68308e-05
3.36362e-05
3.09943e-05
2.75658e-05
2.45977e-05
2.09466e-05
1.7091e-05
1.28292e-05
8.68811e-06
3.16152e-06
3.52735e-07
3.22019e-05
3.51606e-05
3.64066e-05
3.88472e-05
4.33309e-05
4.76985e-05
5.04799e-05
4.65287e-05
4.2992e-05
3.93113e-05
3.55859e-05
3.20384e-05
2.79404e-05
2.3467e-05
1.86413e-05
1.40439e-05
1.0678e-05
7.98749e-06
3.29587e-06
2.18536e-07
5.25778e-05
5.54643e-05
5.57615e-05
5.73014e-05
6.21817e-05
5.81665e-05
5.43062e-05
4.93234e-05
4.56541e-05
4.06489e-05
3.6994e-05
3.17293e-05
2.71457e-05
1.98982e-05
1.42256e-05
1.04559e-05
8.94065e-06
7.77776e-06
3.75287e-06
2.67585e-07
5.02023e-05
5.297e-05
5.3408e-05
5.50713e-05
5.99536e-05
5.6828e-05
5.31529e-05
4.83499e-05
4.48951e-05
4.0067e-05
3.67359e-05
3.15364e-05
2.78672e-05
2.07034e-05
1.51454e-05
1.06751e-05
8.79665e-06
7.38835e-06
3.31344e-06
2.34023e-07
2.77548e-05
3.06995e-05
3.21116e-05
3.4629e-05
3.90666e-05
4.37268e-05
4.8658e-05
4.49046e-05
4.18703e-05
3.79255e-05
3.5142e-05
3.10907e-05
2.81348e-05
2.39583e-05
1.93501e-05
1.45703e-05
1.06714e-05
7.37119e-06
2.63829e-06
1.92229e-07
1.29929e-05
1.38834e-05
1.4829e-05
1.68805e-05
2.00336e-05
2.41034e-05
2.93515e-05
3.63846e-05
3.93691e-05
3.57395e-05
3.36462e-05
3.01867e-05
2.73769e-05
2.42335e-05
2.10998e-05
1.73184e-05
1.29116e-05
8.43333e-06
2.81577e-06
2.39885e-07
8.61428e-06
8.08004e-06
8.21808e-06
8.59144e-06
9.98129e-06
1.21003e-05
1.50667e-05
1.96726e-05
2.616e-05
2.738e-05
2.77741e-05
2.76149e-05
2.67579e-05
2.4458e-05
2.12666e-05
1.84718e-05
1.47624e-05
9.9813e-06
3.63121e-06
4.879e-07
6.73031e-06
5.79396e-06
5.85775e-06
5.81407e-06
6.48565e-06
7.32688e-06
8.68986e-06
1.06468e-05
1.46818e-05
1.80203e-05
1.98284e-05
2.16359e-05
2.27152e-05
2.27967e-05
2.18702e-05
1.88122e-05
1.57415e-05
1.14652e-05
5.1262e-06
1.18006e-06
5.62121e-06
4.42242e-06
4.55948e-06
4.60413e-06
5.14917e-06
5.62807e-06
6.46252e-06
7.59752e-06
9.18038e-06
1.2227e-05
1.40149e-05
1.63568e-05
1.89554e-05
2.02954e-05
2.04381e-05
1.93432e-05
1.63178e-05
1.23963e-05
6.90169e-06
2.13908e-06
5.04893e-06
3.43539e-06
3.63098e-06
3.91666e-06
4.41232e-06
4.98823e-06
5.71365e-06
6.58725e-06
7.65406e-06
9.26841e-06
1.08222e-05
1.25554e-05
1.52721e-05
1.80307e-05
1.92104e-05
1.88753e-05
1.70443e-05
1.31527e-05
8.08006e-06
3.1536e-06
5.05401e-06
2.73972e-06
2.93676e-06
3.46056e-06
4.09661e-06
4.80491e-06
5.57769e-06
6.40914e-06
7.29316e-06
8.37419e-06
9.42827e-06
1.08569e-05
1.27208e-05
1.55095e-05
1.79543e-05
1.83574e-05
1.71732e-05
1.3887e-05
8.94264e-06
3.76547e-06
6.1153e-06
2.24319e-06
2.54895e-06
3.26567e-06
4.13666e-06
4.98161e-06
5.81429e-06
6.68342e-06
7.55263e-06
8.42157e-06
9.32984e-06
1.0344e-05
1.19432e-05
1.40027e-05
1.68609e-05
1.83285e-05
1.74917e-05
1.4673e-05
9.60988e-06
3.95003e-06
1.09612e-05
2.13177e-06
2.66015e-06
3.61164e-06
4.66922e-06
5.73918e-06
6.62193e-06
7.47669e-06
8.29481e-06
9.05209e-06
9.77187e-06
1.04447e-05
1.13896e-05
1.31837e-05
1.53586e-05
1.7807e-05
1.75914e-05
1.54954e-05
1.03479e-05
3.99342e-06
1.23422e-06
0.000116558
0.000294184
0.000330906
0.00033481
0.000335356
0.000335357
0.000335342
0.000335343
0.000335345
0.000335345
0.000335343
0.000335342
0.000335357
0.000335356
0.00033481
0.000330906
0.000294184
0.000116558
1.23422e-06
1.36973e-06
6.8166e-05
0.000219582
0.000309502
0.000330908
0.000334527
0.000335273
0.000335315
0.000335296
0.000335287
0.000335287
0.000335296
0.000335315
0.000335273
0.000334527
0.000330908
0.000309502
0.000219582
6.81661e-05
1.36973e-06
1.51336e-06
5.28976e-05
0.000176463
0.000280583
0.000322149
0.000332504
0.000334604
0.0003351
0.000335168
0.000335172
0.000335172
0.000335168