/*--------------------------------*- C++ -*----------------------------------*\
| =========                 |                                                 |
| \\      /  F ield         | OpenFOAM: The Open Source CFD Toolbox           |
|  \\    /   O peration     | Version:  2.1.0                                 |
|   \\  /    A nd           | Web:      www.OpenFOAM.org                      |
|    \\/     M anipulation  |                                                 |
\*---------------------------------------------------------------------------*/
FoamFile
{
    version     2.0;
    format      ascii;
    class       volScalarField;
    location    "0.26";
    object      rho;
}
// * * * * * * * * * * * * * * * * * * * * * * * * * * * * * * * * * * * * * //

dimensions      [1 -3 0 0 0 0 0];

internalField   nonuniform List<scalar> 
6400
(
999.863
999.846
999.828
999.809
999.787
999.763
999.737
999.709
999.678
999.644
999.607
999.566
999.522
999.474
999.422
999.366
999.305
999.239
999.167
999.09
999.007
998.917
998.821
998.718
998.607
998.488
998.361
998.226
998.081
997.927
997.762
997.588
997.403
997.208
997.001
996.782
996.552
996.31
996.056
995.79
995.511
995.22
994.917
994.601
994.274
993.935
993.583
993.221
992.846
992.461
992.064
991.655
991.235
990.802
990.358
989.903
989.436
988.958
988.47
987.97
987.461
986.941
986.411
985.871
985.322
984.763
984.195
983.618
983.032
982.439
981.838
981.229
980.614
979.991
979.363
978.727
978.084
977.435
976.777
976.112
975.44
974.761
974.08
973.401
972.733
972.088
971.484
970.95
970.53
970.302
970.405
971.121
973.015
977.036
983.148
980.386
961.672
949.323
946.511
945.918
999.669
999.633
999.593
999.549
999.502
999.45
999.393
999.332
999.265
999.193
999.114
999.03
998.938
998.839
998.733
998.618
998.495
998.363
998.221
998.069
997.907
997.734
997.549
997.353
997.143
996.921
996.685
996.435
996.171
995.891
995.596
995.285
994.958
994.615
994.255
993.878
993.483
993.071
992.642
992.196
991.732
991.25
990.752
990.237
989.705
989.158
988.595
988.017
987.423
986.814
986.19
985.55
984.896
984.229
983.547
982.852
982.143
981.423
980.689
979.944
979.186
978.418
977.638
976.848
976.047
975.236
974.416
973.587
972.75
971.905
971.053
970.196
969.334
968.468
967.6
966.731
965.863
964.995
964.131
963.272
962.418
961.573
960.737
959.915
959.109
958.323
957.561
956.827
956.122
955.445
954.786
954.118
953.389
952.509
951.373
949.984
948.253
946.714
945.993
945.666
999.454
999.396
999.332
999.263
999.188
999.106
999.018
998.922
998.818
998.706
998.585
998.454
998.314
998.163
998
997.827
997.641
997.442
997.231
997.005
996.765
996.51
996.239
995.952
995.648
995.327
994.987
994.63
994.253
993.857
993.441
993.005
992.549
992.073
991.575
991.057
990.517
989.957
989.375
988.773
988.15
987.507
986.844
986.161
985.459
984.738
984
983.244
982.47
981.681
980.875
980.055
979.222
978.375
977.516
976.646
975.765
974.874
973.974
973.066
972.15
971.227
970.299
969.365
968.428
967.488
966.546
965.604
964.662
963.722
962.786
961.856
960.934
960.021
959.119
958.232
957.362
956.51
955.68
954.874
954.095
953.345
952.627
951.944
951.296
950.687
950.118
949.59
949.102
948.653
948.24
947.861
947.51
947.182
946.874
946.584
946.256
945.913
945.641
945.429
999.175
999.091
998.997
998.895
998.786
998.667
998.538
998.4
998.25
998.088
997.914
997.728
997.527
997.312
997.082
996.836
996.573
996.293
995.995
995.679
995.343
994.988
994.611
994.214
993.795
993.353
992.889
992.401
991.89
991.355
990.795
990.211
989.603
988.971
988.314
987.632
986.927
986.198
985.446
984.67
983.873
983.054
982.214
981.354
980.475
979.578
978.664
977.734
976.789
975.833
974.866
973.889
972.904
971.913
970.917
969.917
968.916
967.915
966.915
965.919
964.927
963.943
962.968
962.004
961.053
960.118
959.2
958.303
957.427
956.577
955.753
954.959
954.196
953.466
952.771
952.112
951.49
950.906
950.36
949.853
949.384
948.951
948.555
948.194
947.866
947.57
947.302
947.062
946.846
946.653
946.478
946.321
946.179
946.047
945.923
945.806
945.676
945.536
945.392
945.24
998.819
998.701
998.57
998.429
998.276
998.111
997.932
997.74
997.533
997.311
997.072
996.816
996.541
996.248
995.935
995.601
995.245
994.867
994.466
994.04
993.591
993.116
992.616
992.089
991.536
990.956
990.348
989.713
989.051
988.361
987.644
986.899
986.128
985.331
984.509
983.662
982.791
981.897
980.982
980.046
979.092
978.12
977.132
976.13
975.116
974.092
973.06
972.022
970.981
969.937
968.894
967.855
966.821
965.794
964.777
963.773
962.784
961.813
960.861
959.931
959.025
958.145
957.294
956.473
955.684
954.928
954.206
953.519
952.868
952.252
951.673
951.13
950.621
950.147
949.706
949.297
948.92
948.571
948.249
947.954
947.683
947.434
947.206
946.997
946.805
946.63
946.469
946.321
946.186
946.063
945.95
945.846
945.75
945.663
945.582
945.505
945.426
945.342
945.251
945.15
998.382
998.224
998.05
997.861
997.658
997.439
997.203
996.949
996.677
996.385
996.072
995.738
995.382
995.002
994.598
994.17
993.716
993.236
992.729
992.195
991.633
991.043
990.425
989.779
989.104
988.402
987.671
986.913
986.128
985.317
984.481
983.621
982.738
981.834
980.909
979.966
979.007
978.032
977.044
976.046
975.038
974.024
973.005
971.984
970.963
969.944
968.93
967.924
966.926
965.94
964.968
964.013
963.075
962.158
961.263
960.391
959.545
958.726
957.934
957.172
956.439
955.736
955.064
954.422
953.811
953.23
952.679
952.157
951.663
951.197
950.758
950.345
949.956
949.59
949.247
948.925
948.623
948.339
948.073
947.824
947.591
947.372
947.166
946.974
946.793
946.623
946.464
946.315
946.175
946.045
945.925
945.814
945.713
945.623
945.543
945.474
945.409
945.347
945.29
945.247
997.916
997.72
997.504
997.272
997.022
996.754
996.466
996.159
995.83
995.48
995.108
994.712
994.293
993.849
993.38
992.887
992.367
991.822
991.251
990.654
990.032
989.384
988.712
988.015
987.294
986.55
985.785
984.998
984.193
983.369
982.528
981.673
980.804
979.923
979.033
978.134
977.23
976.321
975.409
974.497
973.587
972.679
971.777
970.881
969.993
969.116
968.25
967.396
966.556
965.732
964.924
964.133
963.36
962.606
961.87
961.155
960.459
959.783
959.127
958.491
957.875
957.278
956.702
956.144
955.606
955.086
954.584
954.1
953.633
953.183
952.748
952.33
951.927
951.538
951.163
950.802
950.454
950.118
949.794
949.481
949.18
948.889
948.607
948.335
948.072
947.817
947.57
947.332
947.102
946.883
946.675
946.482
946.305
946.148
946.016
945.915
945.832
945.768
945.737
945.769
997.577
997.36
997.125
996.872
996.603
996.315
996.009
995.685
995.341
994.977
994.593
994.189
993.764
993.319
992.853
992.366
991.859
991.332
990.785
990.219
989.635
989.032
988.412
987.777
987.125
986.46
985.783
985.094
984.395
983.687
982.972
982.251
981.525
980.796
980.064
979.332
978.6
977.87
977.142
976.419
975.701
974.988
974.283
973.585
972.896
972.215
971.544
970.882
970.231
969.59
968.959
968.339
967.73
967.131
966.543
965.965
965.398
964.841
964.293
963.756
963.228
962.709
962.198
961.697
961.204
960.718
960.241
959.77
959.307
958.85
958.4
957.956
957.517
957.084
956.655
956.23
955.809
955.391
954.974
954.558
954.141
953.724
953.304
952.881
952.454
952.021
951.583
951.14
950.692
950.241
949.793
949.351
948.926
948.528
948.17
947.873
947.652
947.494
947.434
947.545
997.566
997.363
997.145
996.913
996.668
996.409
996.136
995.849
995.548
995.232
994.903
994.56
994.202
993.831
993.447
993.049
992.639
992.217
991.783
991.338
990.883
990.417
989.943
989.461
988.971
988.474
987.972
987.464
986.951
986.435
985.915
985.393
984.87
984.345
983.819
983.295
982.771
982.249
981.729
981.212
980.699
980.189
979.684
979.184
978.688
978.198
977.713
977.233
976.76
976.292
975.83
975.374
974.924
974.48
974.042
973.61
973.184
972.764
972.349
971.94
971.536
971.137
970.743
970.354
969.968
969.587
969.209
968.834
968.462
968.092
967.724
967.357
966.99
966.624
966.256
965.885
965.512
965.135
964.752
964.362
963.961
963.549
963.122
962.677
962.21
961.718
961.196
960.64
960.048
959.416
958.744
958.031
957.282
956.505
955.71
954.923
954.245
953.716
953.383
953.408
998.013
997.862
997.701
997.531
997.354
997.168
996.974
996.771
996.56
996.341
996.114
995.879
995.635
995.384
995.125
994.859
994.585
994.304
994.016
993.722
993.421
993.115
992.803
992.485
992.163
991.836
991.505
991.171
990.833
990.493
990.151
989.806
989.46
989.113
988.765
988.416
988.068
987.721
987.375
987.03
986.688
986.348
986.01
985.676
985.344
985.017
984.693
984.374
984.059
983.749
983.443
983.142
982.847
982.557
982.272
981.994
981.721
981.454
981.193
980.938
980.69
980.449
980.213
979.984
979.76
979.541
979.327
979.118
978.913
978.713
978.517
978.325
978.136
977.95
977.767
977.587
977.409
977.231
977.055
976.879
976.703
976.527
976.351
976.173
975.993
975.801
975.594
975.367
975.117
974.837
974.524
974.172
973.776
973.33
972.824
972.245
971.575
970.908
970.402
970.269
998.712
998.621
998.525
998.424
998.318
998.208
998.094
997.974
997.85
997.722
997.588
997.45
997.307
997.16
997.008
996.852
996.691
996.527
996.357
996.184
996.007
995.827
995.642
995.454
995.263
995.07
994.873
994.674
994.473
994.269
994.064
993.858
993.65
993.442
993.234
993.026
992.818
992.611
992.405
992.2
991.997
991.796
991.598
991.402
991.21
991.02
990.835
990.653
990.476
990.303
990.136
989.973
989.815
989.663
989.517
989.376
989.242
989.114
988.993
988.878
988.769
988.668
988.574
988.487
988.409
988.34
988.28
988.23
988.189
988.159
988.139
988.129
988.131
988.145
988.17
988.207
988.257
988.319
988.394
988.483
988.584
988.698
988.825
988.963
989.113
989.284
989.477
989.695
989.937
990.203
990.496
990.818
991.175
991.571
992.01
992.496
993.029
993.605
994.204
994.787
999.254
999.205
999.153
999.098
999.042
998.983
998.922
998.859
998.794
998.726
998.656
998.583
998.509
998.432
998.353
998.272
998.188
998.103
998.016
997.927
997.835
997.743
997.648
997.553
997.455
997.357
997.258
997.157
997.056
996.955
996.853
996.75
996.647
996.545
996.442
996.34
996.239
996.139
996.039
995.941
995.845
995.75
995.658
995.568
995.48
995.395
995.313
995.235
995.16
995.088
995.021
994.958
994.9
994.847
994.799
994.756
994.719
994.687
994.662
994.644
994.632
994.627
994.63
994.639
994.657
994.682
994.716
994.759
994.809
994.869
994.938
995.016
995.103
995.2
995.306
995.421
995.546
995.68
995.822
995.974
996.133
996.299
996.471
996.65
996.832
997.017
997.204
997.39
997.578
997.771
997.968
998.167
998.364
998.56
998.751
998.936
999.11
999.268
999.404
999.511
999.586
999.561
999.533
999.505
999.476
999.445
999.414
999.382
999.349
999.314
999.279
999.243
999.206
999.168
999.129
999.09
999.049
999.008
998.966
998.924
998.881
998.838
998.794
998.75
998.706
998.662
998.618
998.574
998.53
998.487
998.443
998.401
998.359
998.317
998.277
998.237
998.199
998.162
998.126
998.091
998.059
998.028
997.998
997.971
997.947
997.924
997.904
997.886
997.871
997.859
997.85
997.844
997.841
997.842
997.845
997.853
997.864
997.879
997.897
997.92
997.946
997.977
998.011
998.05
998.092
998.138
998.188
998.242
998.299
998.36
998.423
998.49
998.56
998.632
998.706
998.782
998.86
998.938
999.017
999.095
999.173
999.25
999.324
999.397
999.466
999.531
999.592
999.649
999.7
999.746
999.786
999.822
999.855
999.884
999.909
999.93
999.948
999.962
999.972
999.979
999.779
999.766
999.752
999.738
999.723
999.708
999.692
999.676
999.66
999.643
999.626
999.609
999.591
999.573
999.555
999.537
999.518
999.5
999.481
999.462
999.443
999.424
999.406
999.387
999.369
999.351
999.333
999.316
999.299
999.283
999.268
999.253
999.239
999.226
999.213
999.201
999.191
999.181
999.172
999.165
999.159
999.154
999.151
999.149
999.148
999.149
999.151
999.155
999.161
999.168
999.176
999.186
999.198
999.211
999.226
999.242
999.26
999.279
999.299
999.321
999.344
999.368
999.393
999.419
999.446
999.474
999.502
999.531
999.559
999.588
999.617
999.646
999.674
999.702
999.73
999.756
999.782
999.806
999.829
999.851
999.872
999.89
999.908
999.923
999.937
999.95
999.96
999.969
999.976
999.982
999.987
999.99
999.993
999.995
999.996
999.997
999.998
999.999
999.999
1000
999.884
999.877
999.87
999.863
999.856
999.848
999.841
999.833
999.825
999.818
999.81
999.802
999.794
999.786
999.778
999.769
999.761
999.753
999.745
999.738
999.73
999.722
999.715
999.708
999.701
999.694
999.688
999.682
999.677
999.672
999.667
999.663
999.66
999.656
999.654
999.652
999.65
999.65
999.65
999.65
999.651
999.653
999.656
999.659
999.663
999.667
999.673
999.679
999.685
999.693
999.701
999.709
999.718
999.728
999.738
999.748
999.759
999.77
999.782
999.793
999.805
999.817
999.829
999.84
999.852
999.863
999.874
999.885
999.896
999.906
999.915
999.924
999.933
999.941
999.949
999.956
999.962
999.968
999.973
999.978
999.982
999.986
999.989
999.991
999.993
999.995
999.997
999.998
999.998
999.999
999.999
1000
1000
1000
1000
1000
1000
1000
1000
1000
999.939
999.935
999.932
999.928
999.925
999.921
999.917
999.914
999.91
999.907
999.903
999.899
999.896
999.892
999.888
999.885
999.882
999.878
999.875
999.872
999.869
999.866
999.863
999.861
999.858
999.856
999.854
999.852
999.85
999.849
999.848
999.847
999.847
999.847
999.847
999.847
999.848
999.849
999.85
999.852
999.854
999.856
999.858
999.861
999.864
999.868
999.871
999.875
999.88
999.884
999.889
999.893
999.898
999.903
999.909
999.914
999.919
999.924
999.929
999.935
999.94
999.945
999.949
999.954
999.958
999.963
999.967
999.97
999.974
999.977
999.98
999.983
999.986
999.988
999.99
999.992
999.993
999.994
999.996
999.997
999.997
999.998
999.999
999.999
999.999
1000
1000
1000
1000
1000
1000
1000
1000
1000
1000
1000
1000
1000
1000
1000
999.968
999.966
999.964
999.963
999.961
999.959
999.957
999.956
999.954
999.952
999.95
999.949
999.947
999.945
999.944
999.942
999.941
999.939
999.938
999.937
999.935
999.934
999.933
999.932
999.932
999.931
999.93
999.93
999.93
999.929
999.929
999.929
999.93
999.93
999.93
999.931
999.932
999.933
999.934
999.935
999.936
999.938
999.94
999.941
999.943
999.945
999.947
999.949
999.952
999.954
999.956
999.959
999.961
999.963
999.966
999.968
999.971
999.973
999.975
999.977
999.98
999.982
999.983
999.985
999.987
999.989
999.99
999.991
999.993
999.994
999.995
999.996
999.996
999.997
999.998
999.998
999.999
999.999
999.999
999.999
1000
1000
1000
1000
1000
1000
1000
1000
1000
1000
1000
1000
1000
1000
1000
1000
1000
1000
1000
1000
999.984
999.983
999.982
999.981
999.98
999.979
999.979
999.978
999.977
999.976
999.975
999.975
999.974
999.973
999.972
999.972
999.971
999.97
999.97
999.969
999.969
999.968
999.968
999.968
999.967
999.967
999.967
999.967
999.967
999.967
999.967
999.967
999.967
999.968
999.968
999.969
999.969
999.97
999.97
999.971
999.972
999.973
999.974
999.974
999.975
999.976
999.977
999.978
999.98
999.981
999.982
999.983
999.984
999.985
999.986
999.987
999.988
999.989
999.99
999.991
999.992
999.993
999.994
999.995
999.995
999.996
999.997
999.997
999.998
999.998
999.998
999.999
999.999
999.999
999.999
999.999
1000
1000
1000
1000
1000
1000
1000
1000
1000
1000
1000
1000
1000
1000
1000
1000
1000
1000
1000
1000
1000
1000
1000
1000
999.993
999.992
999.992
999.991
999.991
999.991
999.99
999.99
999.989
999.989
999.989
999.988
999.988
999.988
999.987
999.987
999.987
999.987
999.986
999.986
999.986
999.986
999.986
999.985
999.985
999.985
999.985
999.985
999.985
999.985
999.985
999.986
999.986
999.986
999.986
999.986
999.987
999.987
999.987
999.988
999.988
999.988
999.989
999.989
999.99
999.99
999.99
999.991
999.991
999.992
999.992
999.993
999.993
999.994
999.994
999.995
999.995
999.996
999.996
999.997
999.997
999.997
999.998
999.998
999.998
999.999
999.999
999.999
999.999
999.999
999.999
1000
1000
1000
1000
1000
1000
1000
1000
1000
1000
1000
1000
1000
1000
1000
1000
1000
1000
1000
1000
1000
1000
1000
1000
1000
1000
1000
1000
1000
999.998
999.998
999.998
999.997
999.997
999.997
999.997
999.997
999.997
999.997
999.997
999.996
999.996
999.996
999.996
999.996
999.996
999.996
999.996
999.996
999.996
999.996
999.996
999.996
999.996
999.996
999.996
999.996
999.996
999.996
999.996
999.996
999.996
999.996
999.996
999.996
999.996
999.996
999.996
999.996
999.996
999.996
999.997
999.997
999.997
999.997
999.997
999.997
999.997
999.998
999.998
999.998
999.998
999.998
999.998
999.998
999.999
999.999
999.999
999.999
999.999
999.999
999.999
999.999
999.999
1000
1000
1000
1000
1000
1000
1000
1000
1000
1000
1000
1000
1000
1000
1000
1000
1000
1000
1000
1000
1000
1000
1000
1000
1000
1000
1000
1000
1000
1000
1000
1000
1000
1000
1000
945.756
944.919
944.761
944.737
944.748
944.772
944.807
944.856
944.924
945.02
945.16
945.366
945.672
946.13
946.82
947.858
949.428
951.848
955.729
962.548
945.445
944.877
944.774
944.77
944.795
944.835
944.889
944.964
945.066
945.21
945.414
945.706
946.13
946.746
947.645
948.959
950.905
953.858
958.578
967.207
945.189
944.857
944.809
944.829
944.875
944.94
945.026
945.143
945.3
945.516
945.814
946.23
946.814
947.638
948.803
950.467
952.888
956.524
962.361
973.424
945.042
944.885
944.89
944.942
945.022
945.129
945.269
945.453
945.696
946.021
946.456
947.044
947.843
948.934
950.438
952.542
955.556
960.046
967.273
981.041
945.036
945.007
945.069
945.173
945.312
945.49
945.719
946.013
946.389
946.873
947.5
948.318
949.394
950.82
952.742
955.379
959.098
964.564
973.27
988.927
945.25
945.332
945.478
945.671
945.915
946.218
946.595
947.059
947.631
948.334
949.21
950.316
951.726
953.55
955.956
959.196
963.678
970.099
979.993
995.112
945.947
946.171
946.461
946.817
947.244
947.752
948.351
949.053
949.867
950.832
951.999
953.429
955.206
957.458
960.37
964.213
969.39
976.589
986.867
998.413
947.997
948.447
948.977
949.587
950.277
951.045
951.893
952.826
953.88
955.109
956.557
958.287
960.39
963.006
966.323
970.614
976.276
983.778
992.985
999.582
954.102
954.811
955.591
956.434
957.324
958.228
959.19
960.234
961.429
962.783
964.342
966.148
968.31
970.947
974.303
978.645
984.238
990.881
997.141
999.868
970.834
971.489
972.191
972.92
973.656
974.371
975.149
976.01
976.947
977.955
979.081
980.339
981.839
983.637
986.017
989.12
992.875
996.615
999.206
999.902
995.174
995.209
995.271
995.357
995.491
995.737
996.003
996.282
996.566
996.88
997.202
997.57
997.954
998.401
998.795
999.125
999.389
999.672
999.923
999.982
999.556
999.545
999.538
999.535
999.539
999.56
999.591
999.633
999.674
999.717
999.759
999.804
999.846
999.89
999.923
999.948
999.964
999.979
999.996
999.997
999.981
999.979
999.977
999.975
999.973
999.972
999.973
999.975
999.978
999.981
999.985
999.988
999.991
999.994
999.996
999.997
999.998
999.999
1000
1000
1000
1000
999.999
999.999
999.999
999.999
999.999
999.999
999.999
999.999
999.999
999.999
1000
1000
1000
1000
1000
1000
1000
1000
1000
1000
1000
1000
1000
1000
1000
1000
1000
1000
1000
1000
1000
1000
1000
1000
1000
1000
1000
1000
1000
1000
1000
1000
1000
1000
1000
1000
1000
1000
1000
1000
1000
1000
1000
1000
1000
1000
1000
1000
1000
1000
1000
1000
1000
1000
1000
1000
1000
1000
1000
1000
1000
1000
1000
1000
1000
1000
1000
1000
1000
1000
1000
1000
1000
1000
1000
1000
1000
1000
1000
1000
1000
1000
1000
1000
1000
1000
1000
1000
1000
1000
1000
1000
1000
1000
1000
1000
1000
1000
1000
1000
1000
1000
1000
1000
1000
1000
1000
1000
1000
1000
1000
1000
1000
1000
1000
1000
1000
1000
1000
1000
1000
1000
1000
1000
1000
1000
1000
1000
944.555
944.555
944.555
944.555
944.555
944.555
944.555
944.555
944.555
944.555
944.555
944.555
944.555
944.555
944.555
944.555
944.555
944.555
944.555
944.555
944.555
944.555
944.555
944.555
944.555
944.555
944.555
944.555
944.555
944.555
944.555
944.555
944.555
944.555
944.555
944.555
944.555
944.555
944.555
944.555
944.555
944.555
944.555
944.555
944.555
944.555
944.555
944.555
944.555
944.555
944.555
944.555
944.555
944.555
944.555
944.555
944.555
944.555
944.555
944.555
944.555
944.555
944.555
944.555
944.555
944.555
944.555
944.555
944.555
944.555
944.555
944.555
944.555
944.555
944.555
944.555
944.555
944.555
944.555
944.555
944.555
944.555
944.555
944.555
944.555
944.555
944.555
944.555
944.555
944.555
944.555
944.555
944.555
944.555
944.555
944.555
944.555
944.555
944.555
944.555
944.555
944.555
944.555
944.555
944.555
944.555
944.555
944.555
944.555
944.555
944.555
944.555
944.555
944.555
944.555
944.555
944.555
944.555
944.555
944.555
944.555
944.555
944.555
944.555
944.555
944.555
944.555
944.555
944.555
944.555
944.555
944.555
944.555
944.555
944.555
944.555
944.555
944.555
944.555
944.555
944.555
944.555
944.555
944.555
944.555
944.555
944.555
944.555
944.555
944.555
944.555
944.555
944.555
944.555
944.555
944.555
944.555
944.555
944.555
944.555
944.555
944.555
944.555
944.555
944.555
944.555
944.555
944.555
944.555
944.555
944.555
944.555
944.555
944.555
944.555
944.555
944.555
944.555
944.555
944.555
944.555
944.555
944.555
944.555
944.555
944.555
944.555
944.555
944.555
944.555
944.555
944.555
944.555
944.555
944.555
944.555
944.555
944.555
944.555
944.555
944.555
944.555
944.555
944.555
944.555
944.555
944.555
944.555
944.555
944.555
944.555
944.555
944.555
944.555
944.555
944.555
944.555
944.555
944.555
944.555
944.555
944.555
944.555
944.555
944.555
944.555
944.555
944.555
944.555
944.555
944.555
944.555
944.555
944.555
944.555
944.555
944.555
944.555
944.555
944.555
944.555
944.555
944.555
944.555
944.555
944.555
944.555
944.555
944.555
944.555
944.555
944.555
944.555
944.555
944.555
944.555
944.555
944.555
944.555
944.555
944.555
944.555
944.555
944.555
944.555
944.555
944.555
944.555
944.555
944.555
944.555
944.555
944.555
944.555
944.555
944.555
944.555
944.555
944.555
944.555
944.555
944.555
944.555
944.555
944.555
944.555
944.555
944.555
944.555
944.555
944.555
944.555
944.555
944.555
944.555
944.555
944.555
944.555
944.555
944.555
944.555
944.555
944.555
944.555
944.555
944.555
944.555
944.555
944.555
944.555
944.555
944.555
944.555
944.555
944.555
944.555
944.555
944.555
944.555
944.555
944.555
944.555
944.555
944.555
944.555
944.555
944.555
944.555
944.555
944.555
944.555
944.555
944.555
944.555
944.555
944.555
944.555
944.555
944.555
944.555
944.555
944.555
944.555
944.555
944.555
944.555
944.555
944.555
944.555
944.555
944.555
944.555
944.555
944.555
944.555
944.555
944.555
944.555
944.555
944.555
944.555
944.555
944.555
944.555
944.555
944.555
944.555
944.555
944.555
944.555
944.555
944.555
944.555
944.555
944.555
944.555
944.555
944.555
944.555
944.555
944.555
944.555
944.555
944.555
944.555
944.555
944.555
944.555
944.555
944.555
944.555
944.555
944.555
944.555
944.555
944.555
944.555
944.555
944.555
944.555
944.555
944.555
944.555
944.555
944.555
944.555
944.555
944.555
944.555
944.555
944.555
944.555
944.555
944.555
944.555
944.555
944.555
944.555
944.555
944.555
944.555
944.555
944.555
944.555
944.555
944.555
944.555
944.555
944.555
944.555
944.555
944.555
944.555
944.555
944.555
944.555
944.555
944.555
944.555
944.555
944.555
944.555
944.555
944.555
944.555
944.555
944.555
944.555
944.555
944.555
944.555
944.555
944.555
944.555
944.555
944.555
944.555
944.555
944.555
944.555
944.555
944.555
944.555
944.555
944.555
944.555
944.555
944.555
944.555
944.555
944.555
944.555
944.555
944.555
944.555
944.555
944.555
944.555
944.555
944.555
944.555
944.555
944.555
944.555
944.555
944.555
944.555
944.555
944.555
944.555
944.555
944.555
944.555
944.555
944.555
944.555
944.555
944.555
944.555
944.555
944.555
944.555
944.555
944.555
944.555
944.555
944.555
944.555
944.555
944.555
944.555
944.555
944.555
944.555
944.555
944.555
944.555
944.555
944.555
944.555
944.555
944.555
944.555
944.555
944.555
944.555
944.555
944.555
944.555
944.555
944.555
944.555
944.555
944.555
944.555
944.555
944.555
944.555
944.555
944.555
944.555
944.555
944.555
944.555
944.555
944.555
944.555
944.555
944.555
944.555
944.555
944.555
944.555
944.555
944.555
944.555
944.555
944.555
944.555
944.555
944.555
944.555
944.555
944.555
944.555
944.555
944.555
944.555
944.555
944.555
944.555
944.555
944.555
944.555
944.555
944.555
944.555
944.555
944.555
944.555
944.555
944.555
944.555
944.555
944.555
944.555
944.555
944.555
944.555
944.555
944.555
944.555
944.555
944.555
944.555
944.555
944.555
944.555
944.555
944.555
944.555
944.555
944.555
944.555
944.555
944.555
944.555
944.555
944.555
944.555
944.555
944.555
944.555
944.555
944.555
944.555
944.555
944.555
944.555
944.555
944.555
944.555
944.555
944.555
944.555
944.555
944.555
944.555
944.555
944.555
944.555
944.555
944.555
944.555
944.555
944.555
944.555
944.555
944.555
944.555
944.555
944.555
944.555
944.555
944.555
944.555
944.555
944.555
944.555
944.555
944.555
944.555
944.555
944.555
944.555
944.555
944.555
944.555
944.555
944.555
944.555
944.555
944.555
944.555
944.555
944.555
944.555
944.555
944.555
944.555
944.555
944.555
944.555
944.555
944.555
944.555
944.555
944.555
944.555
944.555
944.555
944.555
944.555
944.555
944.555
944.555
944.555
944.555
944.555
944.555
944.555
944.555
944.555
944.555
944.555
944.555
944.555
944.555
944.555
944.555
944.555
944.555
944.555
944.555
944.555
944.555
944.555
944.555
944.555
944.555
944.555
944.555
944.555
944.555
944.555
944.555
944.555
944.555
944.555
944.555
944.555
944.555
944.555
944.555
944.555
944.555
944.555
944.555
944.555
944.555
944.555
944.555
944.555
944.555
944.555
944.555
944.555
944.555
944.555
944.555
944.555
944.555
944.555
944.555
944.555
944.555
944.555
944.555
944.555
944.555
944.555
944.555
944.555
944.555
944.555
944.555
944.555
944.555
944.555
944.555
944.555
944.555
944.555
944.555
944.555
944.555
944.555
944.555
944.555
944.555
944.555
944.555
944.555
944.555
944.555
944.555
944.555
944.555
944.555
944.555
944.555
944.555
944.555
944.555
944.555
944.555
944.555
944.555
944.555
944.555
944.555
944.555
944.555
944.555
944.555
944.555
944.555
944.555
944.555
944.555
944.555
944.555
944.555
944.555
944.555
944.555
944.555
944.555
944.555
944.555
944.555
944.555
944.555
944.555
944.555
944.555
944.555
944.555
944.555
944.555
944.555
944.555
944.555
944.555
944.555
944.555
944.555
944.555
944.555
944.555
944.555
944.555
944.555
944.555
944.555
944.555
944.555
944.555
944.555
944.555
944.555
944.555
944.555
944.555
944.555
944.555
944.555
944.555
944.555
944.555
944.555
944.555
944.555
944.555
944.555
944.555
944.555
944.555
944.555
944.555
944.555
944.555
944.555
944.555
944.555
944.555
944.555
944.555
944.555
944.555
944.555
944.555
944.555
944.555
944.555
944.555
944.555
944.555
944.555
944.555
944.555
944.555
944.555
944.555
944.555
944.555
944.555
944.555
944.555
944.555
944.555
944.555
944.555
944.555
944.555
944.555
944.555
944.555
944.555
944.555
944.555
944.555
944.555
944.555
944.555
944.555
944.555
944.555
944.555
944.555
944.555
944.555
944.555
944.555
944.555
944.555
944.555
944.555
944.555
944.555
944.555
944.555
944.555
944.555
944.555
944.555
944.555
944.555
944.555
944.555
944.555
944.555
944.555
944.555
944.555
944.555
944.555
944.555
944.555
944.555
944.555
944.555
944.555
944.555
944.555
944.555
944.555
944.555
944.555
944.555
944.555
944.555
944.555
944.555
944.555
944.555
944.555
944.555
944.555
944.555
944.555
944.555
944.555
944.555
944.555
944.555
944.555
944.555
944.555
944.555
944.555
944.555
944.555
944.555
944.555
944.555
944.555
944.555
944.555
944.555
944.555
944.555
944.555
944.555
944.555
944.555
944.555
944.555
944.555
944.555
944.555
944.555
944.555
944.555
944.555
944.555
944.555
944.555
944.555
944.555
944.555
944.555
944.555
944.555
944.555
944.555
944.555
944.555
944.555
944.555
944.555
944.555
944.555
944.555
944.555
944.555
944.555
944.555
944.555
944.555
944.555
944.555
944.555
944.555
944.555
944.555
944.555
944.555
944.555
944.555
944.555
944.555
944.555
944.555
944.555
944.555
944.555
944.555
944.555
944.555
944.555
944.555
944.555
944.555
944.555
944.555
944.555
944.555
944.555
944.555
944.555
944.555
944.555
944.555
944.555
944.555
944.555
944.555
944.555
944.555
944.555
944.555
944.555
944.555
944.555
944.555
944.555
944.555
944.555
944.555
944.555
944.555
944.555
944.555
944.555
944.555
944.555
944.555
944.555
944.555
944.555
944.555
944.555
944.555
944.555
944.555
944.555
944.555
944.555
944.555
944.555
944.555
944.555
944.555
944.555
944.555
944.555
944.555
944.555
944.555
944.555
944.555
944.555
944.555
944.555
944.555
944.555
944.555
944.555
944.555
944.555
944.555
944.555
944.555
944.555
944.555
944.555
944.555
944.555
944.555
944.555
944.555
944.555
944.555
944.555
944.555
944.555
944.555
944.555
944.555
944.555
944.555
944.555
944.555
944.555
944.555
944.555
944.555
944.555
944.555
944.555
944.555
944.555
944.555
944.555
944.555
944.555
944.555
944.555
944.555
944.555
944.555
944.555
944.555
944.555
944.555
944.555
944.555
944.555
944.555
944.555
944.555
944.555
944.555
944.555
944.555
944.555
944.555
944.555
944.555
944.555
944.555
944.555
944.555
944.555
944.555
944.555
944.555
944.555
944.555
944.555
944.555
944.555
944.555
944.555
944.555
944.555
944.555
944.555
944.555
944.555
944.555
944.555
944.555
944.555
944.555
944.555
944.555
944.555
944.555
944.555
944.555
944.555
944.555
944.555
944.555
944.555
944.555
944.555
944.555
944.555
944.555
944.555
944.555
944.555
944.555
944.555
944.555
944.555
944.555
944.555
944.555
944.555
944.555
944.555
944.555
944.555
944.555
944.555
944.555
944.555
944.555
944.555
944.555
944.555
944.555
944.555
944.555
944.555
944.555
944.555
944.555
944.555
944.555
944.555
944.555
944.555
944.555
944.555
944.555
944.555
944.555
944.555
944.555
944.555
944.555
944.555
944.555
944.555
944.555
944.555
944.555
944.555
944.555
944.555
944.555
944.555
944.555
944.555
944.555
944.555
944.555
944.555
944.555
944.555
944.555
944.555
944.555
944.555
944.555
944.555
944.555
944.555
944.555
944.555
944.555
944.555
944.555
944.555
944.555
944.555
944.555
944.555
944.555
944.555
944.555
944.555
944.555
944.555
944.555
944.555
944.555
944.555
944.555
944.555
944.555
944.555
944.555
944.555
944.555
944.555
944.555
944.555
944.555
944.555
944.555
944.555
944.555
944.555
944.555
944.555
944.555
944.555
944.555
944.555
944.555
944.555
944.555
944.555
944.555
944.555
944.555
944.555
944.555
944.555
944.555
944.555
944.555
944.555
944.555
944.555
944.555
944.555
944.555
944.555
944.555
944.555
944.555
944.555
944.555
944.555
944.555
944.555
944.555
944.555
944.555
944.555
944.555
944.555
944.555
944.555
944.555
944.555
944.555
944.555
944.555
944.555
944.555
944.555
944.555
944.555