/*--------------------------------*- C++ -*----------------------------------*\
| =========                 |                                                 |
| \\      /  F ield         | OpenFOAM: The Open Source CFD Toolbox           |
|  \\    /   O peration     | Version:  2.1.0                                 |
|   \\  /    A nd           | Web:      www.OpenFOAM.org                      |
|    \\/     M anipulation  |                                                 |
\*---------------------------------------------------------------------------*/
FoamFile
{
    version     2.0;
    format      ascii;
    class       volScalarField;
    location    "0.26";
    object      T;
}
// * * * * * * * * * * * * * * * * * * * * * * * * * * * * * * * * * * * * * //

dimensions      [0 0 0 1 0 0 0];

internalField   nonuniform List<scalar> 
6400
(
293.384
293.412
293.443
293.476
293.513
293.553
293.598
293.646
293.699
293.757
293.82
293.889
293.965
294.046
294.135
294.231
294.335
294.448
294.57
294.702
294.843
294.996
295.161
295.337
295.526
295.729
295.946
296.178
296.426
296.69
296.97
297.269
297.585
297.92
298.275
298.649
299.044
299.459
299.895
300.353
300.832
301.332
301.853
302.396
302.96
303.545
304.151
304.778
305.424
306.091
306.777
307.485
308.214
308.963
309.734
310.526
311.338
312.169
313.021
313.892
314.782
315.69
316.618
317.563
318.526
319.507
320.506
321.521
322.553
323.599
324.661
325.737
326.827
327.93
329.046
330.176
331.319
332.477
333.649
334.837
336.04
337.256
338.479
339.698
340.9
342.063
343.152
344.117
344.876
345.289
345.101
343.807
340.394
333.188
322.349
327.231
361.044
384.088
389.421
390.549
293.713
293.775
293.844
293.918
294
294.088
294.184
294.289
294.403
294.526
294.66
294.805
294.961
295.13
295.312
295.508
295.718
295.944
296.186
296.445
296.723
297.019
297.335
297.672
298.03
298.411
298.816
299.245
299.699
300.179
300.685
301.22
301.782
302.373
302.994
303.644
304.324
305.035
305.777
306.549
307.353
308.187
309.051
309.945
310.869
311.822
312.802
313.81
314.847
315.912
317.005
318.125
319.273
320.447
321.646
322.871
324.121
325.395
326.693
328.014
329.359
330.725
332.114
333.523
334.954
336.405
337.875
339.363
340.87
342.392
343.93
345.48
347.042
348.612
350.19
351.772
353.357
354.942
356.524
358.101
359.669
361.226
362.766
364.286
365.778
367.234
368.649
370.014
371.326
372.589
373.82
375.069
376.435
378.086
380.221
382.84
386.115
389.034
390.406
391.029
294.081
294.179
294.288
294.406
294.535
294.674
294.825
294.989
295.166
295.358
295.564
295.788
296.028
296.286
296.563
296.86
297.178
297.518
297.881
298.267
298.679
299.116
299.581
300.074
300.596
301.148
301.732
302.348
302.997
303.679
304.397
305.149
305.938
306.762
307.624
308.522
309.458
310.432
311.443
312.492
313.578
314.7
315.86
317.055
318.285
319.55
320.849
322.18
323.544
324.938
326.363
327.816
329.295
330.801
332.331
333.883
335.458
337.054
338.668
340.301
341.95
343.615
345.293
346.983
348.684
350.393
352.109
353.83
355.552
357.274
358.992
360.703
362.404
364.09
365.757
367.402
369.018
370.603
372.15
373.654
375.111
376.516
377.863
379.147
380.365
381.512
382.586
383.584
384.507
385.356
386.137
386.857
387.523
388.145
388.73
389.282
389.906
390.559
391.077
391.482
294.557
294.701
294.861
295.034
295.221
295.424
295.644
295.881
296.137
296.413
296.71
297.03
297.373
297.742
298.136
298.558
299.008
299.488
299.999
300.543
301.12
301.732
302.379
303.064
303.787
304.549
305.351
306.194
307.078
308.006
308.976
309.989
311.047
312.148
313.293
314.482
315.714
316.99
318.309
319.67
321.072
322.514
323.996
325.515
327.071
328.663
330.287
331.943
333.627
335.336
337.068
338.821
340.591
342.377
344.175
345.983
347.798
349.617
351.437
353.254
355.066
356.868
358.658
360.431
362.183
363.91
365.607
367.271
368.896
370.478
372.013
373.496
374.923
376.29
377.593
378.831
380.001
381.1
382.129
383.087
383.973
384.791
385.54
386.225
386.846
387.409
387.917
388.373
388.783
389.151
389.483
389.781
390.053
390.304
390.539
390.763
391.01
391.277
391.552
391.841
295.164
295.365
295.589
295.831
296.092
296.375
296.68
297.008
297.363
297.744
298.153
298.592
299.063
299.566
300.104
300.678
301.289
301.939
302.63
303.363
304.139
304.958
305.823
306.734
307.692
308.698
309.752
310.855
312.008
313.21
314.462
315.763
317.112
318.509
319.953
321.443
322.978
324.556
326.174
327.832
329.527
331.255
333.016
334.805
336.619
338.455
340.31
342.18
344.06
345.947
347.837
349.726
351.608
353.481
355.34
357.179
358.995
360.783
362.538
364.255
365.932
367.562
369.143
370.671
372.142
373.553
374.903
376.19
377.411
378.566
379.655
380.679
381.637
382.531
383.364
384.136
384.851
385.511
386.12
386.68
387.194
387.667
388.1
388.497
388.861
389.195
389.501
389.781
390.038
390.274
390.489
390.687
390.869
391.036
391.19
391.336
391.486
391.647
391.82
392.013
295.91
296.18
296.478
296.801
297.149
297.524
297.928
298.363
298.83
299.331
299.868
300.442
301.054
301.707
302.402
303.14
303.923
304.751
305.627
306.551
307.523
308.546
309.618
310.741
311.915
313.139
314.414
315.738
317.112
318.534
320.002
321.515
323.07
324.667
326.302
327.973
329.677
331.411
333.172
334.956
336.759
338.578
340.409
342.249
344.091
345.934
347.772
349.601
351.416
353.214
354.99
356.741
358.461
360.147
361.796
363.404
364.969
366.486
367.954
369.371
370.735
372.045
373.3
374.499
375.643
376.732
377.766
378.746
379.674
380.551
381.378
382.158
382.892
383.583
384.231
384.841
385.413
385.95
386.454
386.927
387.369
387.785
388.175
388.541
388.885
389.207
389.51
389.794
390.06
390.307
390.537
390.747
390.939
391.112
391.263
391.395
391.52
391.638
391.746
391.829
296.707
297.043
297.412
297.81
298.238
298.698
299.191
299.719
300.283
300.884
301.525
302.206
302.928
303.693
304.502
305.355
306.252
307.196
308.185
309.22
310.301
311.427
312.599
313.814
315.073
316.373
317.714
319.093
320.509
321.959
323.441
324.952
326.489
328.05
329.631
331.229
332.841
334.464
336.094
337.729
339.364
340.996
342.622
344.24
345.845
347.436
349.008
350.561
352.09
353.595
355.072
356.52
357.938
359.324
360.677
361.996
363.28
364.53
365.744
366.922
368.065
369.173
370.246
371.284
372.288
373.259
374.197
375.103
375.977
376.821
377.636
378.421
379.179
379.911
380.616
381.296
381.953
382.587
383.199
383.789
384.359
384.91
385.443
385.958
386.458
386.941
387.409
387.862
388.297
388.714
389.109
389.477
389.813
390.111
390.362
390.555
390.714
390.835
390.893
390.833
297.288
297.659
298.062
298.495
298.957
299.451
299.975
300.533
301.124
301.75
302.411
303.107
303.839
304.608
305.413
306.254
307.131
308.045
308.993
309.976
310.992
312.041
313.12
314.23
315.367
316.531
317.717
318.926
320.153
321.398
322.658
323.93
325.213
326.504
327.8
329.1
330.401
331.701
332.997
334.289
335.573
336.849
338.114
339.367
340.607
341.833
343.044
344.239
345.417
346.577
347.721
348.846
349.954
351.044
352.116
353.17
354.206
355.225
356.228
357.213
358.183
359.136
360.074
360.998
361.907
362.802
363.685
364.554
365.411
366.257
367.091
367.916
368.731
369.537
370.335
371.126
371.911
372.691
373.47
374.247
375.026
375.808
376.594
377.388
378.19
379.003
379.826
380.661
381.505
382.355
383.202
384.035
384.84
385.593
386.272
386.834
387.254
387.553
387.667
387.456
297.306
297.654
298.028
298.425
298.845
299.29
299.758
300.251
300.768
301.31
301.877
302.469
303.084
303.724
304.387
305.074
305.782
306.513
307.264
308.035
308.824
309.632
310.456
311.295
312.147
313.013
313.889
314.776
315.672
316.575
317.485
318.401
319.32
320.243
321.167
322.091
323.014
323.935
324.853
325.767
326.676
327.579
328.475
329.364
330.245
331.117
331.981
332.836
333.681
334.517
335.343
336.159
336.965
337.761
338.547
339.323
340.089
340.846
341.593
342.33
343.059
343.779
344.491
345.195
345.893
346.584
347.269
347.949
348.625
349.297
349.966
350.634
351.302
351.97
352.642
353.318
353.999
354.688
355.389
356.104
356.838
357.594
358.378
359.196
360.054
360.961
361.923
362.948
364.041
365.21
366.456
367.778
369.168
370.615
372.096
373.565
374.832
375.823
376.447
376.399
296.542
296.801
297.076
297.366
297.67
297.988
298.321
298.668
299.03
299.406
299.796
300.2
300.618
301.05
301.495
301.954
302.425
302.909
303.405
303.912
304.431
304.96
305.5
306.049
306.606
307.172
307.745
308.324
308.91
309.5
310.094
310.693
311.296
311.9
312.507
313.114
313.721
314.327
314.932
315.534
316.133
316.729
317.32
317.906
318.487
319.062
319.63
320.191
320.745
321.292
321.83
322.359
322.88
323.392
323.894
324.387
324.869
325.341
325.803
326.253
326.692
327.12
327.537
327.944
328.342
328.731
329.11
329.482
329.845
330.201
330.55
330.892
331.229
331.56
331.885
332.206
332.525
332.841
333.156
333.47
333.784
334.098
334.413
334.73
335.052
335.395
335.766
336.172
336.621
337.123
337.684
338.316
339.026
339.828
340.739
341.781
342.989
344.193
345.109
345.35
295.348
295.503
295.667
295.839
296.019
296.207
296.404
296.608
296.82
297.04
297.269
297.505
297.749
298.001
298.262
298.529
298.805
299.088
299.378
299.675
299.979
300.289
300.606
300.929
301.257
301.591
301.929
302.272
302.618
302.969
303.322
303.678
304.036
304.395
304.755
305.114
305.474
305.832
306.188
306.542
306.893
307.241
307.585
307.924
308.258
308.586
308.907
309.222
309.53
309.83
310.122
310.405
310.679
310.943
311.198
311.442
311.676
311.898
312.11
312.31
312.499
312.676
312.84
312.991
313.127
313.247
313.352
313.44
313.51
313.564
313.599
313.615
313.612
313.589
313.545
313.48
313.393
313.284
313.153
312.999
312.822
312.623
312.403
312.162
311.9
311.603
311.267
310.888
310.466
310.004
309.497
308.937
308.318
307.631
306.871
306.03
305.109
304.115
303.082
302.077
294.422
294.506
294.595
294.687
294.784
294.884
294.988
295.096
295.208
295.323
295.443
295.567
295.694
295.825
295.961
296.099
296.242
296.388
296.537
296.69
296.845
297.004
297.165
297.329
297.496
297.664
297.835
298.006
298.179
298.353
298.529
298.704
298.88
299.056
299.232
299.407
299.581
299.753
299.924
300.092
300.258
300.42
300.579
300.734
300.885
301.031
301.172
301.307
301.436
301.559
301.674
301.782
301.882
301.974
302.057
302.131
302.195
302.249
302.292
302.324
302.344
302.352
302.348
302.331
302.301
302.257
302.199
302.126
302.039
301.936
301.817
301.683
301.533
301.367
301.184
300.986
300.772
300.542
300.297
300.037
299.764
299.479
299.182
298.877
298.564
298.247
297.927
297.608
297.286
296.956
296.618
296.279
295.941
295.607
295.28
294.965
294.668
294.398
294.166
293.983
293.855
293.899
293.946
293.994
294.044
294.095
294.149
294.204
294.26
294.319
294.379
294.44
294.504
294.569
294.635
294.702
294.771
294.842
294.913
294.985
295.058
295.132
295.207
295.282
295.357
295.433
295.508
295.583
295.658
295.732
295.806
295.879
295.95
296.021
296.09
296.158
296.224
296.287
296.349
296.408
296.464
296.517
296.567
296.613
296.655
296.694
296.728
296.758
296.784
296.805
296.82
296.831
296.836
296.835
296.828
296.816
296.797
296.771
296.74
296.701
296.656
296.603
296.545
296.479
296.407
296.328
296.242
296.151
296.053
295.949
295.84
295.726
295.607
295.484
295.357
295.227
295.095
294.961
294.827
294.693
294.56
294.429
294.302
294.178
294.06
293.949
293.845
293.748
293.661
293.582
293.515
293.453
293.397
293.348
293.305
293.269
293.239
293.215
293.197
293.185
293.526
293.549
293.573
293.597
293.622
293.648
293.674
293.701
293.729
293.758
293.787
293.816
293.846
293.877
293.908
293.939
293.971
294.003
294.035
294.067
294.099
294.131
294.163
294.195
294.226
294.257
294.287
294.316
294.344
294.372
294.398
294.423
294.448
294.47
294.492
294.512
294.53
294.546
294.561
294.573
294.584
294.592
294.598
294.601
294.603
294.601
294.597
294.59
294.581
294.569
294.555
294.538
294.518
294.495
294.47
294.442
294.412
294.38
294.345
294.308
294.268
294.227
294.184
294.14
294.094
294.047
293.999
293.95
293.901
293.851
293.802
293.753
293.705
293.657
293.611
293.566
293.522
293.481
293.441
293.404
293.369
293.337
293.307
293.281
293.257
293.236
293.218
293.203
293.191
293.18
293.173
293.167
293.162
293.159
293.156
293.154
293.153
293.152
293.151
293.151
293.348
293.36
293.372
293.384
293.396
293.409
293.421
293.434
293.447
293.461
293.474
293.488
293.501
293.515
293.529
293.543
293.557
293.57
293.584
293.597
293.61
293.623
293.636
293.648
293.659
293.671
293.681
293.691
293.701
293.709
293.717
293.724
293.73
293.735
293.74
293.743
293.746
293.747
293.747
293.746
293.745
293.741
293.737
293.732
293.725
293.717
293.708
293.697
293.686
293.674
293.66
293.646
293.63
293.614
293.597
293.579
293.56
293.541
293.522
293.502
293.482
293.462
293.442
293.422
293.403
293.383
293.364
293.346
293.328
293.311
293.294
293.279
293.264
293.25
293.237
293.225
293.214
293.204
293.196
293.188
293.181
293.174
293.169
293.165
293.161
293.158
293.156
293.154
293.153
293.152
293.151
293.151
293.15
293.15
293.15
293.15
293.15
293.15
293.15
293.15
293.255
293.26
293.266
293.273
293.279
293.285
293.291
293.297
293.303
293.309
293.315
293.322
293.328
293.334
293.34
293.346
293.352
293.357
293.363
293.368
293.374
293.379
293.383
293.388
293.392
293.396
293.399
293.402
293.405
293.407
293.409
293.41
293.411
293.411
293.411
293.411
293.409
293.408
293.406
293.403
293.4
293.396
293.391
293.387
293.381
293.375
293.369
293.362
293.355
293.348
293.34
293.332
293.323
293.315
293.306
293.297
293.288
293.279
293.27
293.261
293.253
293.244
293.236
293.228
293.221
293.214
293.207
293.2
293.194
293.189
293.184
293.179
293.175
293.171
293.167
293.164
293.162
293.159
293.157
293.156
293.154
293.153
293.152
293.152
293.151
293.151
293.151
293.15
293.15
293.15
293.15
293.15
293.15
293.15
293.15
293.15
293.15
293.15
293.15
293.15
293.205
293.208
293.211
293.214
293.217
293.22
293.223
293.226
293.229
293.232
293.235
293.237
293.24
293.243
293.246
293.248
293.251
293.253
293.256
293.258
293.26
293.262
293.264
293.265
293.267
293.268
293.269
293.27
293.27
293.27
293.271
293.27
293.27
293.269
293.268
293.267
293.266
293.264
293.263
293.261
293.258
293.256
293.253
293.25
293.247
293.243
293.24
293.236
293.233
293.229
293.225
293.221
293.216
293.212
293.208
293.204
293.2
293.196
293.192
293.188
293.185
293.181
293.178
293.175
293.172
293.169
293.167
293.165
293.162
293.161
293.159
293.157
293.156
293.155
293.154
293.153
293.152
293.152
293.151
293.151
293.151
293.151
293.15
293.15
293.15
293.15
293.15
293.15
293.15
293.15
293.15
293.15
293.15
293.15
293.15
293.15
293.15
293.15
293.15
293.15
293.178
293.179
293.181
293.182
293.184
293.185
293.186
293.188
293.189
293.191
293.192
293.193
293.195
293.196
293.197
293.198
293.199
293.201
293.202
293.202
293.203
293.204
293.205
293.205
293.206
293.206
293.206
293.206
293.206
293.206
293.206
293.206
293.205
293.205
293.204
293.203
293.203
293.202
293.2
293.199
293.198
293.197
293.195
293.194
293.192
293.19
293.188
293.187
293.185
293.183
293.181
293.179
293.177
293.175
293.173
293.171
293.17
293.168
293.166
293.165
293.163
293.162
293.16
293.159
293.158
293.157
293.156
293.155
293.154
293.153
293.153
293.152
293.152
293.151
293.151
293.151
293.151
293.15
293.15
293.15
293.15
293.15
293.15
293.15
293.15
293.15
293.15
293.15
293.15
293.15
293.15
293.15
293.15
293.15
293.15
293.15
293.15
293.15
293.15
293.15
293.163
293.163
293.164
293.165
293.165
293.166
293.167
293.167
293.168
293.169
293.169
293.17
293.17
293.171
293.172
293.172
293.172
293.173
293.173
293.174
293.174
293.174
293.175
293.175
293.175
293.175
293.175
293.175
293.175
293.175
293.175
293.175
293.174
293.174
293.174
293.173
293.173
293.172
293.172
293.171
293.171
293.17
293.169
293.169
293.168
293.167
293.166
293.165
293.165
293.164
293.163
293.162
293.161
293.16
293.16
293.159
293.158
293.157
293.156
293.156
293.155
293.155
293.154
293.153
293.153
293.153
293.152
293.152
293.151
293.151
293.151
293.151
293.151
293.15
293.15
293.15
293.15
293.15
293.15
293.15
293.15
293.15
293.15
293.15
293.15
293.15
293.15
293.15
293.15
293.15
293.15
293.15
293.15
293.15
293.15
293.15
293.15
293.15
293.15
293.15
293.154
293.154
293.154
293.154
293.155
293.155
293.155
293.155
293.155
293.156
293.156
293.156
293.156
293.156
293.157
293.157
293.157
293.157
293.157
293.157
293.157
293.157
293.157
293.158
293.158
293.158
293.158
293.158
293.158
293.158
293.158
293.157
293.157
293.157
293.157
293.157
293.157
293.157
293.157
293.156
293.156
293.156
293.156
293.156
293.155
293.155
293.155
293.155
293.154
293.154
293.154
293.154
293.153
293.153
293.153
293.153
293.152
293.152
293.152
293.152
293.152
293.151
293.151
293.151
293.151
293.151
293.151
293.151
293.15
293.15
293.15
293.15
293.15
293.15
293.15
293.15
293.15
293.15
293.15
293.15
293.15
293.15
293.15
293.15
293.15
293.15
293.15
293.15
293.15
293.15
293.15
293.15
293.15
293.15
293.15
293.15
293.15
293.15
293.15
293.15
390.858
392.454
392.755
392.802
392.781
392.735
392.668
392.575
392.446
392.261
391.994
391.602
391.019
390.145
388.833
386.862
383.89
379.326
372.059
359.43
391.451
392.534
392.731
392.739
392.691
392.615
392.511
392.369
392.173
391.899
391.51
390.953
390.146
388.974
387.267
384.777
381.103
375.556
366.761
350.906
391.938
392.572
392.664
392.626
392.538
392.415
392.249
392.027
391.727
391.316
390.748
389.956
388.845
387.28
385.072
381.928
377.373
370.577
359.775
339.657
392.22
392.518
392.51
392.41
392.257
392.054
391.787
391.436
390.972
390.354
389.526
388.409
386.891
384.824
381.983
378.023
372.381
364.044
350.785
326.069
392.232
392.286
392.167
391.97
391.705
391.364
390.928
390.369
389.653
388.732
387.542
385.99
383.955
381.262
377.648
372.712
365.797
355.732
339.934
312.224
391.823
391.666
391.388
391.02
390.556
389.978
389.262
388.379
387.293
385.961
384.302
382.213
379.557
376.132
371.637
365.616
357.356
345.655
327.928
301.518
390.495
390.068
389.515
388.84
388.028
387.064
385.928
384.6
383.06
381.241
379.044
376.359
373.036
368.84
363.446
356.376
346.939
333.987
315.821
295.857
386.6
385.746
384.743
383.59
382.287
380.84
379.244
377.491
375.515
373.216
370.516
367.301
363.408
358.589
352.519
344.725
334.545
321.24
305.184
293.862
375.101
373.773
372.318
370.746
369.09
367.411
365.627
363.698
361.492
359.001
356.14
352.837
348.9
344.123
338.078
330.321
320.431
308.828
298.034
293.376
344.327
343.145
341.878
340.565
339.241
337.958
336.564
335.022
333.349
331.551
329.547
327.315
324.661
321.488
317.309
311.889
305.374
298.937
294.504
293.318
301.41
301.352
301.244
301.096
300.866
300.443
299.987
299.507
299.02
298.483
297.93
297.299
296.642
295.878
295.205
294.642
294.192
293.709
293.282
293.181
293.906
293.925
293.937
293.943
293.936
293.899
293.847
293.775
293.706
293.632
293.561
293.485
293.413
293.338
293.281
293.239
293.212
293.185
293.157
293.155
293.183
293.186
293.189
293.192
293.195
293.197
293.196
293.193
293.188
293.182
293.176
293.17
293.165
293.161
293.157
293.155
293.153
293.152
293.15
293.151
293.151
293.151
293.151
293.151
293.151
293.152
293.152
293.152
293.152
293.152
293.151
293.151
293.151
293.15
293.15
293.15
293.15
293.15
293.15
293.15
293.15
293.15
293.15
293.15
293.15
293.15
293.15
293.15
293.15
293.15
293.15
293.15
293.15
293.15
293.15
293.15
293.15
293.15
293.15
293.15
293.15
293.15
293.15
293.15
293.15
293.15
293.15
293.15
293.15
293.15
293.15
293.15
293.15
293.15
293.15
293.15
293.15
293.15
293.15
293.15
293.15
293.15
293.15
293.15
293.15
293.15
293.15
293.15
293.15
293.15
293.15
293.15
293.15
293.15
293.15
293.15
293.15
293.15
293.15
293.15
293.15
293.15
293.15
293.15
293.15
293.15
293.15
293.15
293.15
293.15
293.15
293.15
293.15
293.15
293.15
293.15
293.15
293.15
293.15
293.15
293.15
293.15
293.15
293.15
293.15
293.15
293.15
293.15
293.15
293.15
293.15
293.15
293.15
293.15
293.15
293.15
293.15
293.15
293.15
293.15
293.15
293.15
293.15
293.15
293.15
293.15
293.15
293.15
293.15
293.15
293.15
293.15
293.15
293.15
293.15
293.15
293.15
293.15
293.15
293.15
393.15
393.15
393.15
393.15
393.15
393.15
393.15
393.15
393.15
393.15
393.15
393.15
393.15
393.15
393.15
393.15
393.15
393.15
393.15
393.15
393.15
393.15
393.15
393.15
393.15
393.15
393.15
393.15
393.15
393.15
393.15
393.15
393.15
393.15
393.15
393.15
393.15
393.15
393.15
393.15
393.15
393.15
393.15
393.15
393.15
393.15
393.15
393.15
393.15
393.15
393.15
393.15
393.15
393.15
393.15
393.15
393.15
393.15
393.15
393.15
393.15
393.15
393.15
393.15
393.15
393.15
393.15
393.15
393.15
393.15
393.15
393.15
393.15
393.15
393.15
393.15
393.15
393.15
393.15
393.15
393.15
393.15
393.15
393.15
393.15
393.15
393.15
393.15
393.15
393.15
393.15
393.15
393.15
393.15
393.15
393.15
393.15
393.15
393.15
393.15
393.15
393.15
393.15
393.15
393.15
393.15
393.15
393.15
393.15
393.15
393.15
393.15
393.15
393.15
393.15
393.15
393.15
393.15
393.15
393.15
393.15
393.15
393.15
393.15
393.15
393.15
393.15
393.15
393.15
393.15
393.15
393.15
393.15
393.15
393.15
393.15
393.15
393.15
393.15
393.15
393.15
393.15
393.15
393.15
393.15
393.15
393.15
393.15
393.15
393.15
393.15
393.15
393.15
393.15
393.15
393.15
393.15
393.15
393.15
393.15
393.15
393.15
393.15
393.15
393.15
393.15
393.15
393.15
393.15
393.15
393.15
393.15
393.15
393.15
393.15
393.15
393.15
393.15
393.15
393.15
393.15
393.15
393.15
393.15
393.15
393.15
393.15
393.15
393.15
393.15
393.15
393.15
393.15
393.15
393.15
393.15
393.15
393.15
393.15
393.15
393.15
393.15
393.15
393.15
393.15
393.15
393.15
393.15
393.15
393.15
393.15
393.15
393.15
393.15
393.15
393.15
393.15
393.15
393.15
393.15
393.15
393.15
393.15
393.15
393.15
393.15
393.15
393.15
393.15
393.15
393.15
393.15
393.15
393.15
393.15
393.15
393.15
393.15
393.15
393.15
393.15
393.15
393.15
393.15
393.15
393.15
393.15
393.15
393.15
393.15
393.15
393.15
393.15
393.15
393.15
393.15
393.15
393.15
393.15
393.15
393.15
393.15
393.15
393.15
393.15
393.15
393.15
393.15
393.15
393.15
393.15
393.15
393.15
393.15
393.15
393.15
393.15
393.15
393.15
393.15
393.15
393.15
393.15
393.15
393.15
393.15
393.15
393.15
393.15
393.15
393.15
393.15
393.15
393.15
393.15
393.15
393.15
393.15
393.15
393.15
393.15
393.15
393.15
393.15
393.15
393.15
393.15
393.15
393.15
393.15
393.15
393.15
393.15
393.15
393.15
393.15
393.15
393.15
393.15
393.15
393.15
393.15
393.15
393.15
393.15
393.15
393.15
393.15
393.15
393.15
393.15
393.15
393.15
393.15
393.15
393.15
393.15
393.15
393.15
393.15
393.15
393.15
393.15
393.15
393.15
393.15
393.15
393.15
393.15
393.15
393.15
393.15
393.15
393.15
393.15
393.15
393.15
393.15
393.15
393.15
393.15
393.15
393.15
393.15
393.15
393.15
393.15
393.15
393.15
393.15
393.15
393.15
393.15
393.15
393.15
393.15
393.15
393.15
393.15
393.15
393.15
393.15
393.15
393.15
393.15
393.15
393.15
393.15
393.15
393.15
393.15
393.15
393.15
393.15
393.15
393.15
393.15
393.15
393.15
393.15
393.15
393.15
393.15
393.15
393.15
393.15
393.15
393.15
393.15
393.15
393.15
393.15
393.15
393.15
393.15
393.15
393.15
393.15
393.15
393.15
393.15
393.15
393.15
393.15
393.15
393.15
393.15
393.15
393.15
393.15
393.15
393.15
393.15
393.15
393.15
393.15
393.15
393.15
393.15
393.15
393.15
393.15
393.15
393.15
393.15
393.15
393.15
393.15
393.15
393.15
393.15
393.15
393.15
393.15
393.15
393.15
393.15
393.15
393.15
393.15
393.15
393.15
393.15
393.15
393.15
393.15
393.15
393.15
393.15
393.15
393.15
393.15
393.15
393.15
393.15
393.15
393.15
393.15
393.15
393.15
393.15
393.15
393.15
393.15
393.15
393.15
393.15
393.15
393.15
393.15
393.15
393.15
393.15
393.15
393.15
393.15
393.15
393.15
393.15
393.15
393.15
393.15
393.15
393.15
393.15
393.15
393.15
393.15
393.15
393.15
393.15
393.15
393.15
393.15
393.15
393.15
393.15
393.15
393.15
393.15
393.15
393.15
393.15
393.15
393.15
393.15
393.15
393.15
393.15
393.15
393.15
393.15
393.15
393.15
393.15
393.15
393.15
393.15
393.15
393.15
393.15
393.15
393.15
393.15
393.15
393.15
393.15
393.15
393.15
393.15
393.15
393.15
393.15
393.15
393.15
393.15
393.15
393.15
393.15
393.15
393.15
393.15
393.15
393.15
393.15
393.15
393.15
393.15
393.15
393.15
393.15
393.15
393.15
393.15
393.15
393.15
393.15
393.15
393.15
393.15
393.15
393.15
393.15
393.15
393.15
393.15
393.15
393.15
393.15
393.15
393.15
393.15
393.15
393.15
393.15
393.15
393.15
393.15
393.15
393.15
393.15
393.15
393.15
393.15
393.15
393.15
393.15
393.15
393.15
393.15
393.15
393.15
393.15
393.15
393.15
393.15
393.15
393.15
393.15
393.15
393.15
393.15
393.15
393.15
393.15
393.15
393.15
393.15
393.15
393.15
393.15
393.15
393.15
393.15
393.15
393.15
393.15
393.15
393.15
393.15
393.15
393.15
393.15
393.15
393.15
393.15
393.15
393.15
393.15
393.15
393.15
393.15
393.15
393.15
393.15
393.15
393.15
393.15
393.15
393.15
393.15
393.15
393.15
393.15
393.15
393.15
393.15
393.15
393.15
393.15
393.15
393.15
393.15
393.15
393.15
393.15
393.15
393.15
393.15
393.15
393.15
393.15
393.15
393.15
393.15
393.15
393.15
393.15
393.15
393.15
393.15
393.15
393.15
393.15
393.15
393.15
393.15
393.15
393.15
393.15
393.15
393.15
393.15
393.15
393.15
393.15
393.15
393.15
393.15
393.15
393.15
393.15
393.15
393.15
393.15
393.15
393.15
393.15
393.15
393.15
393.15
393.15
393.15
393.15
393.15
393.15
393.15
393.15
393.15
393.15
393.15
393.15
393.15
393.15
393.15
393.15
393.15
393.15
393.15
393.15
393.15
393.15
393.15
393.15
393.15
393.15
393.15
393.15
393.15
393.15
393.15
393.15
393.15
393.15
393.15
393.15
393.15
393.15
393.15
393.15
393.15
393.15
393.15
393.15
393.15
393.15
393.15
393.15
393.15
393.15
393.15
393.15
393.15
393.15
393.15
393.15
393.15
393.15
393.15
393.15
393.15
393.15
393.15
393.15
393.15
393.15
393.15
393.15
393.15
393.15
393.15
393.15
393.15
393.15
393.15
393.15
393.15
393.15
393.15
393.15
393.15
393.15
393.15
393.15
393.15
393.15
393.15
393.15
393.15
393.15
393.15
393.15
393.15
393.15
393.15
393.15
393.15
393.15
393.15
393.15
393.15
393.15
393.15
393.15
393.15
393.15
393.15
393.15
393.15
393.15
393.15
393.15
393.15
393.15
393.15
393.15
393.15
393.15
393.15
393.15
393.15
393.15
393.15
393.15
393.15
393.15
393.15
393.15
393.15
393.15
393.15
393.15
393.15
393.15
393.15
393.15
393.15
393.15
393.15
393.15
393.15
393.15
393.15
393.15
393.15
393.15
393.15
393.15
393.15
393.15
393.15
393.15
393.15
393.15
393.15
393.15
393.15
393.15
393.15
393.15
393.15
393.15
393.15
393.15
393.15
393.15
393.15
393.15
393.15
393.15
393.15
393.15
393.15
393.15
393.15
393.15
393.15
393.15
393.15
393.15
393.15
393.15
393.15
393.15
393.15
393.15
393.15
393.15
393.15
393.15
393.15
393.15
393.15
393.15
393.15
393.15
393.15
393.15
393.15
393.15
393.15
393.15
393.15
393.15
393.15
393.15
393.15
393.15
393.15
393.15
393.15
393.15
393.15
393.15
393.15
393.15
393.15
393.15
393.15
393.15
393.15
393.15
393.15
393.15
393.15
393.15
393.15
393.15
393.15
393.15
393.15
393.15
393.15
393.15
393.15
393.15
393.15
393.15
393.15
393.15
393.15
393.15
393.15
393.15
393.15
393.15
393.15
393.15
393.15
393.15
393.15
393.15
393.15
393.15
393.15
393.15
393.15
393.15
393.15
393.15
393.15
393.15
393.15
393.15
393.15
393.15
393.15
393.15
393.15
393.15
393.15
393.15
393.15
393.15
393.15
393.15
393.15
393.15
393.15
393.15
393.15
393.15
393.15
393.15
393.15
393.15
393.15
393.15
393.15
393.15
393.15
393.15
393.15
393.15
393.15
393.15
393.15
393.15
393.15
393.15
393.15
393.15
393.15
393.15
393.15
393.15
393.15
393.15
393.15
393.15
393.15
393.15
393.15
393.15
393.15
393.15
393.15
393.15
393.15
393.15
393.15
393.15
393.15
393.15
393.15
393.15
393.15
393.15
393.15
393.15
393.15
393.15
393.15
393.15
393.15
393.15
393.15
393.15
393.15
393.15
393.15
393.15
393.15
393.15
393.15
393.15
393.15
393.15
393.15
393.15
393.15
393.15
393.15
393.15
393.15
393.15
393.15
393.15
393.15
393.15
393.15
393.15
393.15
393.15
393.15
393.15
393.15
393.15
393.15
393.15
393.15
393.15
393.15
393.15
393.15
393.15
393.15
393.15
393.15
393.15
393.15
393.15
393.15
393.15
393.15
393.15
393.15
393.15
393.15
393.15
393.15
393.15
393.15
393.15
393.15
393.15
393.15
393.15
393.15
393.15
393.15
393.15
393.15
393.15
393.15
393.15
393.15
393.15
393.15
393.15
393.15
393.15
393.15
393.15
393.15
393.15
393.15
393.15
393.15
393.15
393.15
393.15
393.15
393.15
393.15
393.15
393.15
393.15
393.15
393.15
393.15
393.15
393.15
393.15
393.15
393.15
393.15
393.15
393.15
393.15
393.15
393.15
393.15
393.15
393.15
393.15
393.15
393.15
393.15
393.15
393.15
393.15
393.15
393.15
393.15
393.15
393.15
393.15
393.15
393.15
393.15
393.15
393.15
393.15
393.15
393.15
393.15
393.15
393.15
393.15
393.15
393.15
393.15
393.15
393.15
393.15
393.15
393.15
393.15
393.15
393.15
393.15
393.15
393.15
393.15
393.15
393.15
393.15
393.15
393.15
393.15
393.15
393.15
393.15
393.15
393.15
393.15
393.15
393.15
393.15
393.15
393.15
393.15
393.15
393.15
393.15
393.15
393.15
393.15
393.15
393.15
393.15
393.15
393.15
393.15
393.15
393.15
393.15
393.15
393.15
393.15
393.15
393.15
393.15
393.15
393.15
393.15
393.15
393.15
393.15
393.15
393.15
393.15
393.15
393.15
393.15
393.15
393.15
393.15
393.15
393.15
393.15
393.15
393.15
393.15
393.15
393.15
393.15
393.15
393.15
393.15
393.15
393.15
393.15
393.15
393.15
393.15
393.15
393.15
393.15
393.15
393.15
393.15
393.15
393.15
393.15
393.15
393.15
393.15
393.15
393.15
393.15
393.15
393.15
393.15
393.15
393.15
393.15
393.15
393.15
393.15
393.15
393.15
393.15
393.15
393.15
393.15
393.15
393.15
393.15
393.15
393.15
393.15
393.15
393.15
393.15
393.15
393.15
393.15
393.15
393.15
393.15
393.15
393.15
393.15
393.15
393.15
393.15
393.15
393.15
393.15
393.15
393.15
393.15
393.15
393.15
393.15
393.15
393.15
393.15
393.15
393.15
393.15
393.15
393.15
393.15
393.15
393.15
393.15
393.15
393.15
393.15
393.15
393.15
393.15
393.15
393.15
393.15
393.15
393.15
393.149
393.15
393.15
393.15
393.15
393.15
393.15
393.15
393.15
393.15
393.15
393.15
393.15
393.15
393.15
393.15
393.15
393.15
393.15
393.149
393.149
393.15
393.15
393.15
393.15
393.15
393.15
393.15
393.15
393.15
393.15
393.15
393.15
393.15
393.15
393.15
393.15
393.15
393.15
393.149
393.148
393.15
393.15
393.15
393.15
393.15
393.15
393.15
393.15
393.15
393.15
393.15
393.15
393.15
393.15
393.15
393.15
393.15
393.15
393.148
393.147
393.149
393.15
393.15
393.15
393.15
393.15
393.15
393.15
393.15
393.15
393.15
393.15
393.15
393.15
393.15
393.15
393.15
393.149
393.147
393.145
393.149
393.15
393.15
393.15
393.15
393.15
393.15
393.15
393.15
393.15
393.15
393.15
393.15
393.15
393.15
393.15
393.15
393.149
393.145
393.142
393.149
393.15
393.15
393.15
393.15
393.15
393.15
393.15
393.15
393.15
393.15
393.15
393.15
393.15
393.15
393.15
393.15
393.149
393.142
393.138
393.148
393.149
393.15
393.15