/*--------------------------------*- C++ -*----------------------------------*\
| =========                 |                                                 |
| \\      /  F ield         | OpenFOAM: The Open Source CFD Toolbox           |
|  \\    /   O peration     | Version:  2.1.0                                 |
|   \\  /    A nd           | Web:      www.OpenFOAM.org                      |
|    \\/     M anipulation  |                                                 |
\*---------------------------------------------------------------------------*/
FoamFile
{
    version     2.0;
    format      ascii;
    class       volVectorField;
    location    "0.26";
    object      U;
}
// * * * * * * * * * * * * * * * * * * * * * * * * * * * * * * * * * * * * * //

dimensions      [0 1 -1 0 0 0 0];

internalField   nonuniform List<vector> 
6400
(
(-1.23041 -3.70472e-05 0)
(-1.22927 -0.000471356 0)
(-1.22695 -0.000750556 0)
(-1.22374 -0.000890543 0)
(-1.22009 -0.00097126 0)
(-1.21617 -0.00102398 0)
(-1.21208 -0.00106124 0)
(-1.20786 -0.00108992 0)
(-1.20354 -0.00111389 0)
(-1.19914 -0.00113527 0)
(-1.19465 -0.00115536 0)
(-1.19009 -0.00117474 0)
(-1.18546 -0.00119388 0)
(-1.18076 -0.00121285 0)
(-1.17599 -0.00123188 0)
(-1.17115 -0.00125085 0)
(-1.16623 -0.00127006 0)
(-1.16125 -0.00128938 0)
(-1.1562 -0.00130829 0)
(-1.15108 -0.00132749 0)
(-1.14588 -0.00134813 0)
(-1.14061 -0.0013694 0)
(-1.13526 -0.00139124 0)
(-1.12984 -0.00141351 0)
(-1.12433 -0.00143655 0)
(-1.11873 -0.00146056 0)
(-1.11305 -0.00148598 0)
(-1.10727 -0.00151324 0)
(-1.10139 -0.00154284 0)
(-1.0954 -0.00157473 0)
(-1.08929 -0.0016086 0)
(-1.08305 -0.00164402 0)
(-1.07667 -0.00168097 0)
(-1.07016 -0.00171961 0)
(-1.06351 -0.00176019 0)
(-1.0567 -0.00180282 0)
(-1.04973 -0.00184773 0)
(-1.04258 -0.00189506 0)
(-1.03526 -0.00194493 0)
(-1.02774 -0.0019974 0)
(-1.02003 -0.00205264 0)
(-1.0121 -0.0021104 0)
(-1.00395 -0.00217061 0)
(-0.995561 -0.00223311 0)
(-0.986935 -0.00229766 0)
(-0.97806 -0.0023645 0)
(-0.96893 -0.00243085 0)
(-0.959543 -0.00249911 0)
(-0.949883 -0.00257204 0)
(-0.939945 -0.00264429 0)
(-0.929738 -0.00271292 0)
(-0.919273 -0.00277802 0)
(-0.90856 -0.00284171 0)
(-0.897604 -0.00290474 0)
(-0.886404 -0.00296804 0)
(-0.874957 -0.00303238 0)
(-0.86326 -0.00309758 0)
(-0.851307 -0.003164 0)
(-0.839093 -0.00323188 0)
(-0.826611 -0.00330113 0)
(-0.813855 -0.00337246 0)
(-0.800815 -0.00344565 0)
(-0.787484 -0.00352086 0)
(-0.77385 -0.00359937 0)
(-0.7599 -0.0036813 0)
(-0.745619 -0.00376722 0)
(-0.730987 -0.00385831 0)
(-0.715983 -0.00395518 0)
(-0.700581 -0.00405872 0)
(-0.684754 -0.00416953 0)
(-0.66847 -0.0042877 0)
(-0.651701 -0.00441401 0)
(-0.634409 -0.00454912 0)
(-0.616561 -0.0046936 0)
(-0.598115 -0.00484857 0)
(-0.579028 -0.00501531 0)
(-0.559248 -0.0051957 0)
(-0.538717 -0.00539254 0)
(-0.51736 -0.00560966 0)
(-0.495087 -0.00585225 0)
(-0.471784 -0.00612738 0)
(-0.447301 -0.00644393 0)
(-0.421455 -0.00681215 0)
(-0.394019 -0.00724151 0)
(-0.364739 -0.00773754 0)
(-0.333343 -0.00830265 0)
(-0.299564 -0.00893186 0)
(-0.263185 -0.00960433 0)
(-0.224129 -0.0102699 0)
(-0.182629 -0.0108214 0)
(-0.139551 -0.0110438 0)
(-0.097032 -0.0105065 0)
(-0.0592377 -0.00861326 0)
(-0.031728 -0.00526627 0)
(-0.0182146 -0.00152566 0)
(-0.0212152 0.00302516 0)
(-0.0497666 0.0111824 0)
(-0.130064 0.0289997 0)
(-0.329336 0.0708289 0)
(-0.94692 0.198326 0)
(-1.48752 -0.000286401 0)
(-1.48458 -0.00155148 0)
(-1.48249 -0.00227751 0)
(-1.47919 -0.00265846 0)
(-1.47557 -0.00288374 0)
(-1.47172 -0.00303172 0)
(-1.46773 -0.00313643 0)
(-1.46364 -0.00321708 0)
(-1.45947 -0.00328451 0)
(-1.45523 -0.00334469 0)
(-1.45093 -0.00340133 0)
(-1.44658 -0.00345604 0)
(-1.44216 -0.00351023 0)
(-1.4377 -0.00356405 0)
(-1.43318 -0.00361817 0)
(-1.4286 -0.00367223 0)
(-1.42397 -0.00372681 0)
(-1.41929 -0.00378184 0)
(-1.41455 -0.00383513 0)
(-1.40977 -0.00388828 0)
(-1.40494 -0.00394523 0)
(-1.40006 -0.00400326 0)
(-1.39513 -0.00406246 0)
(-1.39016 -0.00412257 0)
(-1.38514 -0.0041846 0)
(-1.38007 -0.00424924 0)
(-1.37494 -0.00431768 0)
(-1.36977 -0.00439121 0)
(-1.36452 -0.00447118 0)
(-1.35922 -0.00455741 0)
(-1.35383 -0.0046488 0)
(-1.34837 -0.00474421 0)
(-1.34283 -0.00484355 0)
(-1.3372 -0.00494726 0)
(-1.33149 -0.00505593 0)
(-1.32568 -0.00516996 0)
(-1.31977 -0.00528984 0)
(-1.31377 -0.00541597 0)
(-1.30765 -0.00554863 0)
(-1.30141 -0.00568813 0)
(-1.29506 -0.00583495 0)
(-1.28857 -0.00598861 0)
(-1.28194 -0.00614902 0)
(-1.27517 -0.00631597 0)
(-1.26824 -0.00648896 0)
(-1.26116 -0.00666845 0)
(-1.25389 -0.00684869 0)
(-1.24647 -0.00703032 0)
(-1.23888 -0.00721597 0)
(-1.23115 -0.00739901 0)
(-1.22329 -0.00757637 0)
(-1.21527 -0.00774774 0)
(-1.20711 -0.00791638 0)
(-1.1988 -0.00808322 0)
(-1.19033 -0.00824999 0)
(-1.18173 -0.00841851 0)
(-1.17298 -0.00858803 0)
(-1.16408 -0.00875958 0)
(-1.15504 -0.00893376 0)
(-1.14587 -0.00911057 0)
(-1.13655 -0.00929195 0)
(-1.12708 -0.00947755 0)
(-1.11747 -0.00966792 0)
(-1.10771 -0.00986527 0)
(-1.0978 -0.01007 0)
(-1.08773 -0.0102843 0)
(-1.07749 -0.0105106 0)
(-1.06708 -0.0107508 0)
(-1.05649 -0.0110073 0)
(-1.04571 -0.0112822 0)
(-1.0347 -0.0115766 0)
(-1.02346 -0.0118927 0)
(-1.01196 -0.0122331 0)
(-1.00016 -0.0126001 0)
(-0.988036 -0.0129973 0)
(-0.975545 -0.013429 0)
(-0.962637 -0.0139007 0)
(-0.949257 -0.0144202 0)
(-0.93534 -0.0149977 0)
(-0.92081 -0.0156461 0)
(-0.905581 -0.0163823 0)
(-0.889555 -0.017227 0)
(-0.872623 -0.0182035 0)
(-0.854662 -0.0193339 0)
(-0.835543 -0.0206315 0)
(-0.815129 -0.0220998 0)
(-0.793305 -0.0237223 0)
(-0.769997 -0.025442 0)
(-0.745226 -0.0271284 0)
(-0.719188 -0.0285159 0)
(-0.692344 -0.0290958 0)
(-0.665509 -0.0279261 0)
(-0.639975 -0.0236741 0)
(-0.618648 -0.0154479 0)
(-0.609317 -0.00363591 0)
(-0.621207 0.0122288 0)
(-0.667744 0.0391364 0)
(-0.770443 0.0912522 0)
(-0.971788 0.20328 0)
(-1.45818 0.524648 0)
(-1.63357 -0.000797483 0)
(-1.62984 -0.00269675 0)
(-1.62859 -0.00373277 0)
(-1.62587 -0.00430206 0)
(-1.62287 -0.00464533 0)
(-1.61972 -0.00487133 0)
(-1.61644 -0.00503016 0)
(-1.61311 -0.00515222 0)
(-1.60971 -0.00525338 0)
(-1.60629 -0.00534362 0)
(-1.60282 -0.00542815 0)
(-1.59934 -0.00551009 0)
(-1.59581 -0.00559129 0)
(-1.59228 -0.00567252 0)
(-1.58869 -0.00575455 0)
(-1.5851 -0.00583731 0)
(-1.58146 -0.00592129 0)
(-1.57779 -0.00600692 0)
(-1.57408 -0.00609082 0)
(-1.57035 -0.0061728 0)
(-1.56658 -0.00625668 0)
(-1.5628 -0.00634012 0)
(-1.559 -0.00642415 0)
(-1.5552 -0.00650883 0)
(-1.55139 -0.00659569 0)
(-1.54757 -0.00668622 0)
(-1.54374 -0.00678211 0)
(-1.5399 -0.00688548 0)
(-1.53605 -0.0069983 0)
(-1.53218 -0.00712013 0)
(-1.52829 -0.00724882 0)
(-1.52438 -0.00738252 0)
(-1.52045 -0.0075211 0)
(-1.5165 -0.0076652 0)
(-1.51252 -0.00781564 0)
(-1.50853 -0.00797298 0)
(-1.50451 -0.00813783 0)
(-1.50048 -0.00831064 0)
(-1.49641 -0.00849169 0)
(-1.49232 -0.00868134 0)
(-1.4882 -0.00888044 0)
(-1.48406 -0.00908834 0)
(-1.47989 -0.00930484 0)
(-1.47569 -0.00952996 0)
(-1.47146 -0.00976303 0)
(-1.46721 -0.0100031 0)
(-1.46291 -0.0102463 0)
(-1.45862 -0.0104895 0)
(-1.45428 -0.0107292 0)
(-1.44992 -0.0109641 0)
(-1.44555 -0.0111957 0)
(-1.44114 -0.0114229 0)
(-1.4367 -0.0116467 0)
(-1.43224 -0.011867 0)
(-1.42776 -0.0120849 0)
(-1.42326 -0.0123016 0)
(-1.41876 -0.0125161 0)
(-1.41426 -0.0127294 0)
(-1.40978 -0.0129421 0)
(-1.40533 -0.0131546 0)
(-1.40091 -0.0133688 0)
(-1.39653 -0.0135847 0)
(-1.39222 -0.013803 0)
(-1.38797 -0.014025 0)
(-1.38381 -0.0142512 0)
(-1.37974 -0.0144846 0)
(-1.37578 -0.014728 0)
(-1.37195 -0.0149834 0)
(-1.36826 -0.0152541 0)
(-1.36472 -0.0155437 0)
(-1.36134 -0.0158539 0)
(-1.35813 -0.0161886 0)
(-1.3551 -0.0165518 0)
(-1.35225 -0.0169478 0)
(-1.34959 -0.0173826 0)
(-1.3471 -0.0178635 0)
(-1.34479 -0.018399 0)
(-1.34263 -0.0190008 0)
(-1.34059 -0.0196833 0)
(-1.33866 -0.0204639 0)
(-1.33679 -0.021364 0)
(-1.33493 -0.0224087 0)
(-1.33304 -0.0236257 0)
(-1.33106 -0.0250408 0)
(-1.32893 -0.0266706 0)
(-1.32659 -0.0285158 0)
(-1.32399 -0.0305474 0)
(-1.32112 -0.0326809 0)
(-1.31802 -0.0347337 0)
(-1.31484 -0.0363559 0)
(-1.31186 -0.0369204 0)
(-1.30948 -0.0353737 0)
(-1.30824 -0.0301973 0)
(-1.3094 -0.0195599 0)
(-1.31675 -0.00202747 0)
(-1.33312 0.0242635 0)
(-1.37111 0.0677791 0)
(-1.44563 0.147852 0)
(-1.58783 0.309443 0)
(-1.85695 0.716639 0)
(-1.76681 -0.00139145 0)
(-1.76292 -0.00360997 0)
(-1.7627 -0.00486376 0)
(-1.76092 -0.00557794 0)
(-1.75895 -0.00601262 0)
(-1.75688 -0.00629666 0)
(-1.75473 -0.00649297 0)
(-1.75258 -0.00664159 0)
(-1.75039 -0.00676203 0)
(-1.74823 -0.00686819 0)
(-1.74605 -0.00696603 0)
(-1.74391 -0.00706052 0)
(-1.74177 -0.0071534 0)
(-1.73968 -0.00724649 0)
(-1.73759 -0.00734029 0)
(-1.73555 -0.00743546 0)
(-1.73352 -0.00753205 0)
(-1.73154 -0.00762999 0)
(-1.72957 -0.00772773 0)
(-1.72768 -0.00782399 0)
(-1.7258 -0.00791828 0)
(-1.72397 -0.00801003 0)
(-1.72217 -0.00810118 0)
(-1.72043 -0.00819191 0)
(-1.71874 -0.00828413 0)
(-1.7171 -0.00838029 0)
(-1.71552 -0.00848232 0)
(-1.714 -0.00859314 0)
(-1.71253 -0.00871535 0)
(-1.71112 -0.00884814 0)
(-1.70975 -0.00898794 0)
(-1.70845 -0.00913205 0)
(-1.7072 -0.00928031 0)
(-1.70602 -0.0094336 0)
(-1.70491 -0.00959288 0)
(-1.70386 -0.00975877 0)
(-1.70288 -0.00993189 0)
(-1.70198 -0.0101126 0)
(-1.70115 -0.010301 0)
(-1.70041 -0.0104972 0)
(-1.69974 -0.0107018 0)
(-1.69916 -0.0109142 0)
(-1.69867 -0.011134 0)
(-1.69828 -0.0113608 0)
(-1.69798 -0.0115935 0)
(-1.6978 -0.0118294 0)
(-1.69772 -0.0120669 0)
(-1.69778 -0.0123065 0)
(-1.69793 -0.0125433 0)
(-1.69818 -0.0127745 0)
(-1.69852 -0.0130012 0)
(-1.69896 -0.0132219 0)
(-1.69952 -0.0134349 0)
(-1.70019 -0.0136397 0)
(-1.70101 -0.0138368 0)
(-1.70196 -0.0140257 0)
(-1.70308 -0.0142053 0)
(-1.70438 -0.0143764 0)
(-1.70586 -0.0145391 0)
(-1.70756 -0.0146939 0)
(-1.70948 -0.0148422 0)
(-1.71163 -0.014984 0)
(-1.71405 -0.0151203 0)
(-1.71673 -0.0152518 0)
(-1.7197 -0.0153793 0)
(-1.72296 -0.0155058 0)
(-1.72653 -0.0156346 0)
(-1.73042 -0.015768 0)
(-1.73463 -0.01591 0)
(-1.73916 -0.0160651 0)
(-1.74403 -0.0162368 0)
(-1.74922 -0.0164303 0)
(-1.75472 -0.0166515 0)
(-1.76053 -0.016907 0)
(-1.76662 -0.0172055 0)
(-1.77296 -0.0175575 0)
(-1.77952 -0.0179745 0)
(-1.78627 -0.0184718 0)
(-1.79316 -0.019068 0)
(-1.80013 -0.0197839 0)
(-1.80712 -0.0206438 0)
(-1.81408 -0.0216756 0)
(-1.82094 -0.0229088 0)
(-1.82763 -0.024369 0)
(-1.8341 -0.026071 0)
(-1.84032 -0.0280096 0)
(-1.84627 -0.0301431 0)
(-1.85198 -0.032366 0)
(-1.85752 -0.0344635 0)
(-1.86299 -0.0360453 0)
(-1.86852 -0.0364479 0)
(-1.87421 -0.0346227 0)
(-1.88005 -0.0290166 0)
(-1.88623 -0.0175054 0)
(-1.89518 0.00176999 0)
(-1.90414 0.0334066 0)
(-1.92491 0.0864842 0)
(-1.96457 0.183146 0)
(-2.03233 0.372491 0)
(-2.1318 0.774634 0)
(-1.90355 -0.00188976 0)
(-1.90017 -0.00415809 0)
(-1.90114 -0.00549845 0)
(-1.90069 -0.00628993 0)
(-1.90024 -0.00677596 0)
(-1.89974 -0.00708794 0)
(-1.89928 -0.00729845 0)
(-1.89884 -0.00745185 0)
(-1.89845 -0.00757167 0)
(-1.89813 -0.0076732 0)
(-1.89787 -0.00776397 0)
(-1.89769 -0.00784929 0)
(-1.89758 -0.00793146 0)
(-1.89757 -0.00801232 0)
(-1.89764 -0.0080925 0)
(-1.89782 -0.00817253 0)
(-1.8981 -0.00825222 0)
(-1.89851 -0.00833026 0)
(-1.89902 -0.00840744 0)
(-1.89968 -0.00848549 0)
(-1.90045 -0.0085624 0)
(-1.90134 -0.00863639 0)
(-1.90234 -0.00870907 0)
(-1.90346 -0.00877953 0)
(-1.90471 -0.00884988 0)
(-1.9061 -0.00892368 0)
(-1.90761 -0.00900282 0)
(-1.90927 -0.00909088 0)
(-1.91105 -0.00919155 0)
(-1.91297 -0.0093038 0)
(-1.91503 -0.00942227 0)
(-1.91722 -0.00954316 0)
(-1.91955 -0.00966643 0)
(-1.92203 -0.00979325 0)
(-1.92465 -0.00992475 0)
(-1.92742 -0.0100616 0)
(-1.93034 -0.0102044 0)
(-1.93341 -0.0103533 0)
(-1.93663 -0.0105085 0)
(-1.94001 -0.0106698 0)
(-1.94354 -0.0108373 0)
(-1.94722 -0.0110106 0)
(-1.95106 -0.0111891 0)
(-1.95505 -0.0113719 0)
(-1.9592 -0.0115574 0)
(-1.9635 -0.0117429 0)
(-1.96797 -0.0119273 0)
(-1.97258 -0.0121129 0)
(-1.97736 -0.0122965 0)
(-1.98231 -0.0124729 0)
(-1.98742 -0.0126402 0)
(-1.99271 -0.0127966 0)
(-1.99817 -0.0129395 0)
(-2.00382 -0.0130674 0)
(-2.00966 -0.0131811 0)
(-2.01569 -0.0132799 0)
(-2.02192 -0.0133627 0)
(-2.02836 -0.0134305 0)
(-2.03499 -0.0134834 0)
(-2.04182 -0.0135225 0)
(-2.04885 -0.0135496 0)
(-2.05607 -0.0135657 0)
(-2.06348 -0.0135721 0)
(-2.07106 -0.0135695 0)
(-2.07882 -0.0135597 0)
(-2.08673 -0.0135465 0)
(-2.0948 -0.013534 0)
(-2.10299 -0.0135256 0)
(-2.11132 -0.0135266 0)
(-2.11975 -0.0135419 0)
(-2.12828 -0.013577 0)
(-2.13688 -0.0136385 0)
(-2.14555 -0.0137335 0)
(-2.15427 -0.0138704 0)
(-2.16302 -0.0140597 0)
(-2.17178 -0.0143149 0)
(-2.18055 -0.0146485 0)
(-2.18929 -0.0150778 0)
(-2.198 -0.0156248 0)
(-2.20665 -0.0163114 0)
(-2.21523 -0.017163 0)
(-2.22371 -0.0182076 0)
(-2.23209 -0.0194744 0)
(-2.24035 -0.0209868 0)
(-2.24849 -0.0227537 0)
(-2.25652 -0.0247612 0)
(-2.26446 -0.0269581 0)
(-2.27233 -0.0292256 0)
(-2.28018 -0.0313372 0)
(-2.28802 -0.032899 0)
(-2.29579 -0.0332696 0)
(-2.3033 -0.0314782 0)
(-2.31005 -0.0260836 0)
(-2.31561 -0.015046 0)
(-2.32117 0.00398487 0)
(-2.32206 0.0368573 0)
(-2.32526 0.0935294 0)
(-2.32998 0.195829 0)
(-2.32684 0.389145 0)
(-2.30824 0.740424 0)
(-2.05127 -0.00213654 0)
(-2.04903 -0.00420704 0)
(-2.05134 -0.00547383 0)
(-2.05259 -0.00624271 0)
(-2.05405 -0.00671593 0)
(-2.05559 -0.00701125 0)
(-2.05727 -0.00720258 0)
(-2.05906 -0.00733265 0)
(-2.06096 -0.00742723 0)
(-2.06298 -0.00750076 0)
(-2.06512 -0.00756219 0)
(-2.06739 -0.00761612 0)
(-2.06979 -0.00766568 0)
(-2.07233 -0.00771213 0)
(-2.07499 -0.00775652 0)
(-2.07782 -0.00779897 0)
(-2.08077 -0.00783935 0)
(-2.08389 -0.00787657 0)
(-2.08714 -0.00791192 0)
(-2.09055 -0.00794839 0)
(-2.09411 -0.00798494 0)
(-2.09784 -0.00801869 0)
(-2.10172 -0.00805133 0)
(-2.10576 -0.00807952 0)
(-2.10997 -0.00810519 0)
(-2.11436 -0.00813403 0)
(-2.1189 -0.00816745 0)
(-2.12363 -0.00820962 0)
(-2.12851 -0.00826615 0)
(-2.13357 -0.00833632 0)
(-2.13877 -0.0084122 0)
(-2.14413 -0.00848869 0)
(-2.14964 -0.00856616 0)
(-2.15531 -0.0086462 0)
(-2.16113 -0.0087301 0)
(-2.1671 -0.00881861 0)
(-2.17322 -0.00891221 0)
(-2.17948 -0.00901107 0)
(-2.18588 -0.00911529 0)
(-2.19241 -0.00922481 0)
(-2.19908 -0.00933933 0)
(-2.20588 -0.00945808 0)
(-2.2128 -0.00958058 0)
(-2.21985 -0.00970583 0)
(-2.22702 -0.00983222 0)
(-2.23431 -0.00995748 0)
(-2.2417 -0.0100809 0)
(-2.24921 -0.0102023 0)
(-2.25682 -0.0103189 0)
(-2.26453 -0.0104267 0)
(-2.27233 -0.0105235 0)
(-2.28022 -0.0106072 0)
(-2.28819 -0.0106756 0)
(-2.29623 -0.010727 0)
(-2.30433 -0.010762 0)
(-2.31248 -0.0107807 0)
(-2.32068 -0.0107825 0)
(-2.32892 -0.0107688 0)
(-2.33718 -0.01074 0)
(-2.34546 -0.0106978 0)
(-2.35375 -0.0106446 0)
(-2.36204 -0.0105833 0)
(-2.37033 -0.0105147 0)
(-2.3786 -0.0104385 0)
(-2.38686 -0.0103575 0)
(-2.39509 -0.0102759 0)
(-2.40331 -0.010198 0)
(-2.41149 -0.0101282 0)
(-2.41965 -0.0100714 0)
(-2.42778 -0.0100327 0)
(-2.43588 -0.0100179 0)
(-2.44396 -0.0100335 0)
(-2.45201 -0.0100872 0)
(-2.46003 -0.0101876 0)
(-2.46804 -0.0103447 0)
(-2.47602 -0.0105732 0)
(-2.48398 -0.0108862 0)
(-2.49193 -0.0112994 0)
(-2.49987 -0.0118329 0)
(-2.50781 -0.0125104 0)
(-2.51576 -0.0133576 0)
(-2.52373 -0.0144018 0)
(-2.53172 -0.0156701 0)
(-2.53974 -0.0171848 0)
(-2.54781 -0.0189506 0)
(-2.55595 -0.020948 0)
(-2.56418 -0.0231233 0)
(-2.57252 -0.0253585 0)
(-2.58095 -0.0274346 0)
(-2.58941 -0.0289843 0)
(-2.59772 -0.0294304 0)
(-2.60548 -0.0279174 0)
(-2.61185 -0.0232466 0)
(-2.61592 -0.0135943 0)
(-2.61799 0.00379462 0)
(-2.61126 0.0350095 0)
(-2.59875 0.0894211 0)
(-2.57228 0.187412 0)
(-2.50994 0.364822 0)
(-2.41312 0.648123 0)
(-2.20686 -0.00204259 0)
(-2.20599 -0.00367749 0)
(-2.20955 -0.00471768 0)
(-2.2125 -0.00536167 0)
(-2.21573 -0.00575397 0)
(-2.21923 -0.00598849 0)
(-2.22287 -0.00612929 0)
(-2.22672 -0.00621364 0)
(-2.23067 -0.00626531 0)
(-2.2348 -0.0062971 0)
(-2.23904 -0.00631774 0)
(-2.24344 -0.0063312 0)
(-2.24795 -0.00634079 0)
(-2.25262 -0.00634745 0)
(-2.25739 -0.00635248 0)
(-2.26232 -0.0063558 0)
(-2.26735 -0.00635762 0)
(-2.27253 -0.00635738 0)
(-2.2778 -0.0063564 0)
(-2.28322 -0.00635592 0)
(-2.28874 -0.00635537 0)
(-2.29439 -0.00635241 0)
(-2.30014 -0.00634935 0)
(-2.306 -0.00634155 0)
(-2.31197 -0.00632902 0)
(-2.31807 -0.00631713 0)
(-2.32426 -0.00630863 0)
(-2.33059 -0.00630908 0)
(-2.33701 -0.00632723 0)
(-2.34355 -0.00636337 0)
(-2.35016 -0.00640558 0)
(-2.35687 -0.00644668 0)
(-2.36365 -0.00648798 0)
(-2.37052 -0.00653161 0)
(-2.37747 -0.00657918 0)
(-2.38449 -0.00663131 0)
(-2.39157 -0.00668842 0)
(-2.39873 -0.00675047 0)
(-2.40594 -0.0068176 0)
(-2.41321 -0.00688969 0)
(-2.42052 -0.00696629 0)
(-2.4279 -0.00704656 0)
(-2.4353 -0.00713006 0)
(-2.44275 -0.00721593 0)
(-2.45023 -0.00730291 0)
(-2.45774 -0.00738909 0)
(-2.46526 -0.00747415 0)
(-2.4728 -0.00755658 0)
(-2.48035 -0.00763458 0)
(-2.4879 -0.00770487 0)
(-2.49544 -0.00776555 0)
(-2.50297 -0.00781438 0)
(-2.51047 -0.00784954 0)
(-2.51796 -0.00786985 0)
(-2.52541 -0.00787515 0)
(-2.53284 -0.00786538 0)
(-2.54022 -0.00784043 0)
(-2.54757 -0.00780146 0)
(-2.55488 -0.007749 0)
(-2.56216 -0.00768421 0)
(-2.56939 -0.00760958 0)
(-2.57659 -0.00752959 0)
(-2.58374 -0.0074443 0)
(-2.59086 -0.00735066 0)
(-2.59795 -0.00725206 0)
(-2.60502 -0.00715263 0)
(-2.61207 -0.0070568 0)
(-2.6191 -0.00696852 0)
(-2.62613 -0.00689245 0)
(-2.63315 -0.00683326 0)
(-2.64019 -0.00679641 0)
(-2.64724 -0.00678813 0)
(-2.65432 -0.00681636 0)
(-2.66144 -0.00688943 0)
(-2.6686 -0.00701741 0)
(-2.67582 -0.00721206 0)
(-2.68309 -0.0074915 0)
(-2.69046 -0.00787244 0)
(-2.6979 -0.00836775 0)
(-2.70543 -0.00900266 0)
(-2.71305 -0.00980348 0)
(-2.72079 -0.0107957 0)
(-2.72866 -0.0120045 0)
(-2.73669 -0.0134534 0)
(-2.74489 -0.0151451 0)
(-2.7533 -0.0170555 0)
(-2.76192 -0.0191356 0)
(-2.77076 -0.0212779 0)
(-2.77975 -0.0232858 0)
(-2.78878 -0.0248384 0)
(-2.79753 -0.025449 0)
(-2.80545 -0.0244101 0)
(-2.81153 -0.0207916 0)
(-2.81422 -0.0131338 0)
(-2.81349 0.00129444 0)
(-2.8001 0.028425 0)
(-2.77394 0.0756312 0)
(-2.72107 0.160543 0)
(-2.61305 0.308242 0)
(-2.46684 0.520754 0)
(-2.35281 -0.00162367 0)
(-2.35297 -0.00267706 0)
(-2.3572 -0.00339933 0)
(-2.36111 -0.00385333 0)
(-2.36527 -0.00412298 0)
(-2.36983 -0.00427369 0)
(-2.37447 -0.00435237 0)
(-2.37936 -0.00438785 0)
(-2.38428 -0.00439837 0)
(-2.38941 -0.00439425 0)
(-2.39455 -0.00438244 0)
(-2.39987 -0.00436622 0)
(-2.40519 -0.00434835 0)
(-2.41068 -0.00432951 0)
(-2.41617 -0.00431101 0)
(-2.42181 -0.0042924 0)
(-2.42745 -0.00427434 0)
(-2.43322 -0.00425607 0)
(-2.43899 -0.00423903 0)
(-2.44488 -0.00422296 0)
(-2.45076 -0.00420792 0)
(-2.45675 -0.00419171 0)
(-2.46274 -0.00417481 0)
(-2.46881 -0.00415502 0)
(-2.47491 -0.00413329 0)
(-2.48107 -0.00411026 0)
(-2.4872 -0.00408995 0)
(-2.49339 -0.0040786 0)
(-2.49955 -0.00408908 0)
(-2.50575 -0.00412432 0)
(-2.5119 -0.00416571 0)
(-2.51807 -0.00420241 0)
(-2.52419 -0.0042377 0)
(-2.53035 -0.00427466 0)
(-2.53646 -0.00431516 0)
(-2.5426 -0.00435968 0)
(-2.54869 -0.00440856 0)
(-2.5548 -0.00446151 0)
(-2.56087 -0.00451876 0)
(-2.56696 -0.00458008 0)
(-2.57301 -0.00464507 0)
(-2.57907 -0.00471317 0)
(-2.5851 -0.00478403 0)
(-2.59113 -0.00485683 0)
(-2.59713 -0.00493083 0)
(-2.60314 -0.00500439 0)
(-2.60911 -0.00507728 0)
(-2.61509 -0.00514756 0)
(-2.62104 -0.00521379 0)
(-2.62698 -0.00527304 0)
(-2.63291 -0.00532326 0)
(-2.63882 -0.00536208 0)
(-2.64473 -0.00538763 0)
(-2.65063 -0.00539873 0)
(-2.65653 -0.00539475 0)
(-2.66242 -0.00537551 0)
(-2.66831 -0.00534082 0)
(-2.67422 -0.00529155 0)
(-2.68012 -0.00522825 0)
(-2.68605 -0.00515159 0)
(-2.69199 -0.0050631 0)
(-2.69795 -0.00496998 0)
(-2.70393 -0.00487363 0)
(-2.70995 -0.00476382 0)
(-2.71598 -0.00464614 0)
(-2.72207 -0.00452559 0)
(-2.7282 -0.00440605 0)
(-2.73439 -0.00429132 0)
(-2.74063 -0.00418547 0)
(-2.74695 -0.00409288 0)
(-2.75335 -0.00401885 0)
(-2.75983 -0.00396908 0)
(-2.76641 -0.00395148 0)
(-2.7731 -0.00397428 0)
(-2.77991 -0.00404752 0)
(-2.78685 -0.00417852 0)
(-2.79394 -0.00439031 0)
(-2.80118 -0.00470717 0)
(-2.80858 -0.00513062 0)
(-2.81616 -0.00568742 0)
(-2.82393 -0.00640288 0)
(-2.83192 -0.0073002 0)
(-2.84014 -0.0084011 0)
(-2.84862 -0.00973329 0)
(-2.85738 -0.0113023 0)
(-2.86643 -0.0130755 0)
(-2.87578 -0.0150173 0)
(-2.88541 -0.0170394 0)
(-2.89522 -0.0189777 0)
(-2.90501 -0.020573 0)
(-2.91439 -0.0214446 0)
(-2.92269 -0.0210652 0)
(-2.92879 -0.0187353 0)
(-2.93068 -0.013537 0)
(-2.92763 -0.00303706 0)
(-2.9102 0.0175967 0)
(-2.8727 0.0537257 0)
(-2.7995 0.118568 0)
(-2.65937 0.228009 0)
(-2.4838 0.373303 0)
(-2.46882 -0.000936608 0)
(-2.46974 -0.00143545 0)
(-2.474 -0.00182621 0)
(-2.47816 -0.0020722 0)
(-2.48245 -0.00221202 0)
(-2.48719 -0.00228241 0)
(-2.49187 -0.00231047 0)
(-2.49685 -0.00231401 0)
(-2.5017 -0.00230393 0)
(-2.50678 -0.00228683 0)
(-2.5117 -0.00226698 0)
(-2.51682 -0.00224652 0)
(-2.52178 -0.00222717 0)
(-2.52691 -0.00220929 0)
(-2.53189 -0.00219375 0)
(-2.53701 -0.00217995 0)
(-2.54199 -0.00216848 0)
(-2.54708 -0.00215846 0)
(-2.55204 -0.00215098 0)
(-2.5571 -0.00214505 0)
(-2.56204 -0.00214065 0)
(-2.56705 -0.00213583 0)
(-2.57196 -0.00212886 0)
(-2.57691 -0.00212038 0)
(-2.58178 -0.00211481 0)
(-2.58667 -0.00210984 0)
(-2.59146 -0.00210788 0)
(-2.59627 -0.0021135 0)
(-2.60098 -0.00214345 0)
(-2.60569 -0.00220741 0)
(-2.61029 -0.00227605 0)
(-2.61488 -0.00233164 0)
(-2.61939 -0.00238253 0)
(-2.62391 -0.00243302 0)
(-2.62836 -0.00248546 0)
(-2.63282 -0.00254001 0)
(-2.63722 -0.00259715 0)
(-2.64163 -0.00265638 0)
(-2.64599 -0.00271786 0)
(-2.65037 -0.00278152 0)
(-2.65471 -0.00284683 0)
(-2.65908 -0.0029135 0)
(-2.66341 -0.00298116 0)
(-2.66776 -0.00304918 0)
(-2.6721 -0.00311688 0)
(-2.67647 -0.00318327 0)
(-2.68083 -0.00324726 0)
(-2.68521 -0.00330757 0)
(-2.68961 -0.00336214 0)
(-2.69403 -0.00340871 0)
(-2.69847 -0.00344494 0)
(-2.70294 -0.00346839 0)
(-2.70745 -0.00347722 0)
(-2.71199 -0.00346992 0)
(-2.71657 -0.00344598 0)
(-2.7212 -0.00340514 0)
(-2.72587 -0.00334742 0)
(-2.7306 -0.00327353 0)
(-2.73538 -0.0031842 0)
(-2.74022 -0.00308005 0)
(-2.74512 -0.00296052 0)
(-2.7501 -0.00283549 0)
(-2.75513 -0.00271485 0)
(-2.76024 -0.00257129 0)
(-2.76542 -0.00241656 0)
(-2.77069 -0.00225722 0)
(-2.77605 -0.00209664 0)
(-2.78151 -0.00193821 0)
(-2.78706 -0.00178538 0)
(-2.79273 -0.00164227 0)
(-2.79851 -0.0015138 0)
(-2.80442 -0.00140551 0)
(-2.81047 -0.0013244 0)
(-2.81666 -0.00127843 0)
(-2.82301 -0.00127813 0)
(-2.82954 -0.00132954 0)
(-2.83627 -0.00145127 0)
(-2.84317 -0.00168429 0)
(-2.85031 -0.00200758 0)
(-2.85768 -0.00245754 0)
(-2.86532 -0.0030572 0)
(-2.87325 -0.00382859 0)
(-2.8815 -0.00478582 0)
(-2.8901 -0.00596357 0)
(-2.89907 -0.0073827 0)
(-2.90842 -0.00898654 0)
(-2.91816 -0.0107662 0)
(-2.92826 -0.0126597 0)
(-2.93859 -0.0145423 0)
(-2.94893 -0.0162261 0)
(-2.95886 -0.0174477 0)
(-2.96763 -0.0178689 0)
(-2.97405 -0.01705 0)
(-2.97619 -0.0145316 0)
(-2.97144 -0.00861817 0)
(-2.95325 0.00360448 0)
(-2.90986 0.0257541 0)
(-2.82415 0.0655464 0)
(-2.66526 0.131622 0)
(-2.47494 0.214931 0)
(-2.53275 -5.34947e-05 0)
(-2.53397 -0.000152573 0)
(-2.53782 -0.000239667 0)
(-2.54165 -0.000291684 0)
(-2.54552 -0.000318234 0)
(-2.54982 -0.000328335 0)
(-2.55395 -0.000329451 0)
(-2.55836 -0.000326271 0)
(-2.56253 -0.000322201 0)
(-2.56691 -0.00031887 0)
(-2.57102 -0.000317547 0)
(-2.57532 -0.000318942 0)
(-2.57936 -0.000323329 0)
(-2.58356 -0.00033081 0)
(-2.58751 -0.000341351 0)
(-2.5916 -0.000354594 0)
(-2.59547 -0.000370377 0)
(-2.59946 -0.000388301 0)
(-2.60324 -0.000408359 0)
(-2.60713 -0.000429899 0)
(-2.61083 -0.000452068 0)
(-2.61462 -0.000473595 -5.56709e-42)
(-2.61825 -0.000492473 0)
(-2.62195 -0.000510184 0)
(-2.62551 -0.000530071 0)
(-2.62913 -0.000550773 0)
(-2.63264 -0.000573 0)
(-2.63619 -0.000599737 0)
(-2.63968 -0.000649688 0)
(-2.64316 -0.000747747 0)
(-2.64656 -0.000848283 0)
(-2.64997 -0.000920596 0)
(-2.65333 -0.000984703 0)
(-2.65672 -0.00104633 0)
(-2.66007 -0.00110798 0)
(-2.66344 -0.00116959 0)
(-2.6668 -0.00123153 0)
(-2.67017 -0.00129329 0)
(-2.67353 -0.00135482 0)
(-2.67692 -0.00141621 0)
(-2.6803 -0.00147677 0)
(-2.68371 -0.0015364 0)
(-2.68713 -0.00159465 0)
(-2.69058 -0.00165109 0)
(-2.69405 -0.00170502 0)
(-2.69756 -0.00175604 0)
(-2.70108 -0.00180235 0)
(-2.70466 -0.00184319 0)
(-2.70826 -0.00187611 0)
(-2.71191 -0.00189941 0)
(-2.7156 -0.00191056 0)
(-2.71933 -0.00190716 0)
(-2.72312 -0.00188737 0)
(-2.72697 -0.00184944 0)
(-2.73086 -0.00179299 0)
(-2.73483 -0.00171798 0)
(-2.73885 -0.00162455 0)
(-2.74294 -0.00151343 0)
(-2.7471 -0.00138571 0)
(-2.75133 -0.00124163 0)
(-2.75563 -0.00108105 0)
(-2.76003 -0.000905271 0)
(-2.76448 -0.000756974 0)
(-2.76901 -0.00056574 0)
(-2.77363 -0.000361835 0)
(-2.77835 -0.000152579 0)
(-2.78317 5.96155e-05 0)
(-2.78809 0.000271997 0)
(-2.79312 0.000481691 0)
(-2.79827 0.000685002 0)
(-2.80355 0.000877508 0)
(-2.80896 0.00105367 0)
(-2.81451 0.00120768 0)
(-2.82022 0.00133254 0)
(-2.82609 0.00141773 0)
(-2.83215 0.00145501 0)
(-2.8384 0.0014294 0)
(-2.84486 0.00130348 0)
(-2.85156 0.0010963 0)
(-2.85851 0.000772484 0)
(-2.86572 0.000310371 0)
(-2.87324 -0.000311273 0)
(-2.88107 -0.00110778 -1.30219e-41)
(-2.8893 -0.00209644 0)
(-2.89777 -0.00334968 0)
(-2.90668 -0.00475539 0)
(-2.91598 -0.00635158 0)
(-2.92561 -0.00810718 -9.52994e-41)
(-2.93544 -0.00993582 0)
(-2.94523 -0.0117248 0)
(-2.95454 -0.0133341 0)
(-2.96263 -0.014606 0)
(-2.96829 -0.015403 0)
(-2.96965 -0.0155929 -9.1647e-41)
(-2.96337 -0.014618 0)
(-2.94377 -0.0115042 0)
(-2.8986 -0.00512246 -6.02142e-41)
(-2.80853 0.00680087 0)
(-2.64307 0.0267489 0)
(-2.44814 0.0519843 0)
(-2.51747 0.00088497 0)
(-2.51843 0.0011059 0)
(-2.52217 0.00130856 0)
(-2.52584 0.00144041 0)
(-2.52956 0.00151788 0)
(-2.53371 0.00155869 0)
(-2.5377 0.00157495 0)
(-2.54196 0.00157542 0)
(-2.546 0.00156446 0)
(-2.55024 0.00154556 0)
(-2.55424 0.0015206 0)
(-2.55841 0.00149045 0)
(-2.56234 0.00145635 0)
(-2.56642 0.00141851 0)
(-2.57029 0.0013779 0)
(-2.57428 0.00133463 0)
(-2.57808 0.00128964 0)
(-2.58199 0.0012428 0)
(-2.58572 0.0011951 0)
(-2.58956 0.00114657 0)
(-2.59323 0.00109886 0)
(-2.59699 0.00105244 1.23713e-41)
(-2.60061 0.00100913 0)
(-2.6043 0.000967239 0)
(-2.60787 0.000926278 0)
(-2.61149 0.000885776 0)
(-2.61501 0.000845669 0)
(-2.61857 0.000801369 0)
(-2.62205 0.000735613 0)
(-2.62556 0.000624134 0)
(-2.62903 0.000512445 0)
(-2.63255 0.000430492 0)
(-2.63602 0.000358554 0)
(-2.6395 0.00029063 0)
(-2.64294 0.000224888 0)
(-2.6464 0.000160934 0)
(-2.64983 9.89109e-05 0)
(-2.65328 3.89214e-05 0)
(-2.65672 -1.88016e-05 0)
(-2.66017 -7.40906e-05 0)
(-2.66362 -0.000126531 0)
(-2.66709 -0.000175945 0)
(-2.67056 -0.000221929 0)
(-2.67406 -0.000264064 0)
(-2.67757 -0.000301814 0)
(-2.68111 -0.000334894 0)
(-2.68466 -0.000361534 0)
(-2.68825 -0.000380621 0)
(-2.69186 -0.000390106 0)
(-2.69552 -0.000388343 0)
(-2.69919 -0.000372742 0)
(-2.70292 -0.000340872 0)
(-2.70667 -0.000290705 0)
(-2.71048 -0.00022059 0)
(-2.71433 -0.000129916 0)
(-2.71824 -1.90212e-05 0)
(-2.7222 0.000111872 0)
(-2.72622 0.000261876 0)
(-2.73029 0.000429718 0)
(-2.73443 0.000615111 0)
(-2.73864 0.000816964 0)
(-2.7429 0.00103654 0)
(-2.74724 0.00123183 0)
(-2.75167 0.00147137 0)
(-2.75617 0.00172518 0)
(-2.76076 0.00198652 0)
(-2.76542 0.0022533 0)
(-2.77019 0.00252317 0)
(-2.77504 0.00279361 0)
(-2.78001 0.00306156 0)
(-2.78508 0.00332299 0)
(-2.79028 0.00357276 0)
(-2.7956 0.00380578 0)
(-2.80108 0.00401581 0)
(-2.8067 0.00419351 0)
(-2.81249 0.00432892 0)
(-2.81847 0.00440563 0)
(-2.82465 0.00440542 0)
(-2.83105 0.00432482 0)
(-2.83769 0.00414 0)
(-2.84459 0.00382987 0)
(-2.85178 0.00337337 0)
(-2.85927 0.00274667 3.2287e-41)
(-2.86712 0.0019469 0)
(-2.87522 0.00090235 0)
(-2.88372 -0.000300626 0)
(-2.89256 -0.00170984 0)
(-2.90156 -0.00332135 -3.90422e-41)
(-2.91063 -0.0050851 0)
(-2.91959 -0.00697259 0)
(-2.92795 -0.00896167 0)
(-2.93498 -0.0110606 0)
(-2.93952 -0.0134124 0)
(-2.93966 -0.0162817 -9.56951e-41)
(-2.93212 -0.0201211 0)
(-2.91093 -0.0258178 0)
(-2.86517 -0.0351894 -4.13649e-40)
(-2.77549 -0.05125 0)
(-2.61174 -0.077152 0)
(-2.41884 -0.107797 0)
(-2.43349 0.00169182 0)
(-2.43361 0.00235714 0)
(-2.43747 0.00286441 0)
(-2.44105 0.00319206 0)
(-2.44474 0.00338731 0)
(-2.44886 0.00349425 0)
(-2.45292 0.00354509 0)
(-2.45725 0.00356033 0)
(-2.46145 0.00355284 0)
(-2.46585 0.00353006 0)
(-2.47013 0.00349712 0)
(-2.47456 0.00345658 0)
(-2.47888 0.00341073 0)
(-2.48333 0.00336048 0)
(-2.48766 0.00330722 0)
(-2.49212 0.00325123 0)
(-2.49647 0.00319371 0)
(-2.50094 0.00313453 0)
(-2.5053 0.00307492 0)
(-2.50977 0.00301482 0)
(-2.51415 0.00295596 0)
(-2.51862 0.00289846 0)
(-2.52301 0.00284383 0)
(-2.52747 0.0027906 0)
(-2.53186 0.00273931 0)
(-2.53632 0.0026888 0)
(-2.54071 0.00263861 0)
(-2.54515 0.00258202 0)
(-2.54954 0.00250557 0)
(-2.55399 0.00240018 0)
(-2.5584 0.00229565 0)
(-2.56288 0.00220845 0)
(-2.56731 0.00213082 0)
(-2.57177 0.00205795 0)
(-2.5762 0.00198896 0)
(-2.58065 0.0019228 0)
(-2.58508 0.00186015 0)
(-2.58952 0.00180065 0)
(-2.59394 0.00174463 0)
(-2.59838 0.00169252 0)
(-2.60281 0.00164439 0)
(-2.60725 0.0016006 0)
(-2.61167 0.00156153 0)
(-2.61612 0.00152769 0)
(-2.62055 0.00149957 0)
(-2.625 0.00147746 0)
(-2.62944 0.00146299 0)
(-2.6339 0.00145767 0)
(-2.63836 0.00146314 0)
(-2.64283 0.00148128 0)
(-2.64731 0.00151469 0)
(-2.65182 0.00156582 0)
(-2.65632 0.00163671 0)
(-2.66085 0.00172871 0)
(-2.66539 0.00184278 0)
(-2.66996 0.00197903 0)
(-2.67454 0.00213675 0)
(-2.67916 0.00231497 0)
(-2.68379 0.00251287 0)
(-2.68846 0.00272922 0)
(-2.69315 0.0029633 0)
(-2.69789 0.00320937 0)
(-2.70267 0.00345849 0)
(-2.7075 0.00373569 0)
(-2.71237 0.0040296 0)
(-2.71731 0.00433493 0)
(-2.72229 0.00464914 0)
(-2.72735 0.00497009 0)
(-2.73248 0.0052954 0)
(-2.73769 0.0056226 0)
(-2.74298 0.00594816 0)
(-2.74838 0.00626747 0)
(-2.75388 0.00657613 0)
(-2.75952 0.00686809 0)
(-2.76528 0.00713524 0)
(-2.7712 0.0073676 0)
(-2.77729 0.00755067 0)
(-2.78357 0.00767113 0)
(-2.79006 0.00771866 0)
(-2.79679 0.00767361 0)
(-2.80377 0.00751596 0)
(-2.81104 0.00722402 0)
(-2.81862 0.00677257 0)
(-2.82653 0.00614826 0)
(-2.8348 0.00532678 0)
(-2.84344 0.00431013 0)
(-2.85244 0.00306854 0)