/*--------------------------------*- C++ -*----------------------------------*\
| =========                 |                                                 |
| \\      /  F ield         | OpenFOAM: The Open Source CFD Toolbox           |
|  \\    /   O peration     | Version:  2.1.0                                 |
|   \\  /    A nd           | Web:      www.OpenFOAM.org                      |
|    \\/     M anipulation  |                                                 |
\*---------------------------------------------------------------------------*/
FoamFile
{
    version     2.0;
    format      ascii;
    class       volScalarField;
    location    "0.48";
    object      C0;
}
// * * * * * * * * * * * * * * * * * * * * * * * * * * * * * * * * * * * * * //

dimensions      [0 0 0 0 0 0 0];

internalField   nonuniform List<scalar> 
6400
(
0.000513343
0.000513955
0.000514741
0.000515588
0.00051647
0.00051738
0.000518318
0.000519284
0.000520278
0.000521302
0.000522357
0.000523443
0.000524562
0.000525715
0.000526902
0.000528125
0.000529385
0.000530683
0.000532021
0.0005334
0.000534821
0.000536285
0.000537795
0.000539351
0.000540955
0.000542608
0.000544313
0.000546071
0.000547883
0.000549752
0.000551679
0.000553667
0.000555717
0.000557831
0.000560012
0.000562261
0.000564582
0.000566976
0.000569446
0.000571994
0.000574624
0.000577337
0.000580137
0.000583026
0.000586008
0.000589086
0.000592262
0.000595541
0.000598926
0.00060242
0.000606028
0.000609752
0.000613598
0.000617569
0.000621669
0.000625904
0.000630277
0.000634794
0.000639459
0.000644278
0.000649255
0.000654396
0.000659706
0.000665192
0.000670858
0.000676712
0.000682759
0.000689005
0.000695457
0.000702122
0.000709006
0.000716116
0.000723458
0.00073104
0.000738867
0.000746948
0.000755288
0.000763894
0.00077277
0.000781922
0.000791355
0.000801071
0.000811071
0.000821355
0.00083192
0.00084276
0.000853864
0.000865218
0.000876801
0.000888585
0.000900534
0.000912599
0.000924712
0.000936761
0.000948574
0.000959927
0.000970637
0.000980393
0.000988689
0.000994837
0.000512805
0.000513416
0.00051419
0.000515023
0.00051589
0.000516784
0.000517705
0.000518655
0.000519632
0.000520639
0.000521676
0.000522744
0.000523844
0.000524977
0.000526145
0.000527347
0.000528587
0.000529864
0.00053118
0.000532537
0.000533935
0.000535377
0.000536862
0.000538394
0.000539973
0.000541601
0.00054328
0.000545011
0.000546797
0.000548638
0.000550537
0.000552496
0.000554516
0.000556601
0.000558751
0.000560969
0.000563258
0.00056562
0.000568057
0.000570572
0.000573168
0.000575847
0.000578612
0.000581466
0.000584412
0.000587454
0.000590594
0.000593836
0.000597184
0.000600641
0.000604211
0.000607898
0.000611707
0.00061564
0.000619704
0.000623902
0.000628239
0.000632719
0.000637349
0.000642133
0.000647076
0.000652184
0.000657462
0.000662917
0.000668555
0.000674381
0.000680403
0.000686626
0.000693058
0.000699705
0.000706575
0.000713675
0.000721011
0.000728592
0.000736425
0.000744517
0.000752875
0.000761506
0.000770418
0.000779615
0.000789104
0.000798889
0.000808974
0.00081936
0.000830046
0.000841028
0.000852299
0.000863845
0.000875646
0.00088767
0.000899872
0.000912186
0.000924514
0.000936717
0.000948613
0.00095995
0.00097053
0.000979987
0.000987799
0.000993384
0.000511652
0.000512246
0.000512992
0.000513793
0.000514625
0.000515485
0.00051637
0.000517283
0.000518223
0.000519191
0.000520189
0.000521216
0.000522275
0.000523365
0.000524489
0.000525648
0.000526841
0.000528072
0.00052934
0.000530647
0.000531995
0.000533384
0.000534817
0.000536294
0.000537817
0.000539388
0.000541009
0.00054268
0.000544404
0.000546182
0.000548017
0.00054991
0.000551864
0.000553879
0.00055596
0.000558106
0.000560322
0.000562609
0.00056497
0.000567407
0.000569923
0.000572521
0.000575203
0.000577974
0.000580834
0.000583789
0.000586841
0.000589994
0.000593251
0.000596615
0.000600092
0.000603685
0.000607398
0.000611235
0.000615201
0.0006193
0.000623538
0.000627919
0.000632449
0.000637132
0.000641975
0.000646982
0.000652161
0.000657516
0.000663055
0.000668783
0.000674709
0.000680838
0.000687178
0.000693736
0.000700521
0.000707539
0.0007148
0.000722311
0.00073008
0.000738116
0.000746428
0.000755025
0.000763914
0.000773105
0.000782604
0.000792421
0.000802561
0.000813031
0.000823834
0.000834971
0.000846439
0.000858229
0.000870323
0.000882688
0.000895269
0.000907985
0.000920708
0.000933258
0.000945386
0.000956841
0.000967407
0.000976714
0.000984298
0.000989672
0.000509856
0.000510418
0.000511118
0.000511867
0.000512646
0.00051345
0.000514279
0.000515134
0.000516014
0.000516922
0.000517856
0.00051882
0.000519812
0.000520835
0.00052189
0.000522976
0.000524097
0.000525252
0.000526443
0.000527671
0.000528937
0.000530243
0.00053159
0.000532979
0.000534412
0.000535891
0.000537416
0.000538991
0.000540615
0.000542291
0.000544021
0.000545807
0.00054765
0.000549553
0.000551517
0.000553545
0.00055564
0.000557802
0.000560036
0.000562343
0.000564726
0.000567187
0.00056973
0.000572358
0.000575073
0.000577878
0.000580778
0.000583775
0.000586874
0.000590077
0.000593388
0.000596812
0.000600353
0.000604015
0.000607802
0.00061172
0.000615772
0.000619965
0.000624303
0.000628791
0.000633436
0.000638242
0.000643216
0.000648365
0.000653694
0.00065921
0.000664921
0.000670834
0.000676956
0.000683295
0.000689858
0.000696656
0.000703695
0.000710986
0.000718536
0.000726357
0.000734458
0.000742849
0.00075154
0.000760543
0.000769869
0.00077953
0.000789537
0.0007999
0.000810632
0.00082174
0.00083323
0.000845103
0.000857347
0.000869939
0.000882827
0.000895926
0.000909103
0.000922155
0.000934805
0.000946816
0.00095795
0.000967819
0.000975941
0.000981708
0.00050742
0.000507934
0.000508569
0.000509247
0.000509952
0.000510681
0.000511432
0.000512206
0.000513005
0.000513828
0.000514676
0.00051555
0.00051645
0.000517379
0.000518337
0.000519324
0.000520342
0.000521392
0.000522475
0.000523592
0.000524744
0.000525933
0.000527159
0.000528425
0.000529731
0.000531078
0.000532469
0.000533905
0.000535388
0.000536918
0.000538499
0.00054013
0.000541815
0.000543556
0.000545353
0.00054721
0.000549128
0.00055111
0.000553158
0.000555274
0.000557461
0.000559721
0.000562058
0.000564473
0.00056697
0.000569552
0.000572222
0.000574984
0.00057784
0.000580794
0.00058385
0.000587012
0.000590284
0.000593669
0.000597173
0.000600799
0.000604552
0.000608438
0.00061246
0.000616625
0.000620938
0.000625403
0.000630027
0.000634817
0.000639777
0.000644916
0.000650239
0.000655753
0.000661467
0.000667388
0.000673524
0.000679883
0.000686475
0.000693308
0.000700393
0.00070774
0.00071536
0.000723265
0.000731468
0.000739982
0.000748822
0.000758005
0.000767546
0.000777466
0.000787784
0.000798518
0.000809688
0.00082131
0.000833392
0.000845929
0.000858894
0.000872226
0.000885817
0.000899489
0.000912985
0.000926076
0.000938489
0.000949762
0.000959244
0.000965925
0.000504371
0.00050482
0.000505372
0.00050596
0.000506572
0.000507204
0.000507856
0.000508529
0.000509222
0.000509937
0.000510674
0.000511433
0.000512217
0.000513024
0.000513857
0.000514716
0.000515602
0.000516516
0.000517459
0.000518432
0.000519436
0.000520472
0.000521541
0.000522645
0.000523784
0.000524961
0.000526175
0.00052743
0.000528725
0.000530062
0.000531444
0.000532871
0.000534346
0.000535869
0.000537443
0.00053907
0.000540751
0.000542489
0.000544285
0.000546142
0.000548062
0.000550047
0.0005521
0.000554223
0.000556419
0.000558691
0.000561041
0.000563472
0.000565987
0.000568591
0.000571285
0.000574073
0.000576959
0.000579947
0.00058304
0.000586243
0.000589559
0.000592994
0.000596551
0.000600235
0.000604051
0.000608004
0.000612099
0.000616342
0.000620739
0.000625295
0.000630016
0.00063491
0.000639983
0.000645243
0.000650697
0.000656353
0.000662219
0.000668306
0.000674624
0.000681182
0.000687993
0.000695069
0.000702425
0.000710076
0.000718041
0.00072634
0.000734994
0.00074403
0.000753476
0.000763364
0.000773728
0.000784604
0.000796026
0.000808021
0.000820603
0.000833762
0.00084745
0.000861564
0.000875918
0.000890278
0.00090434
0.00091753
0.000928891
0.000936759
0.00050076
0.00050113
0.000501582
0.000502062
0.000502562
0.000503078
0.00050361
0.000504159
0.000504726
0.00050531
0.000505912
0.000506533
0.000507173
0.000507833
0.000508514
0.000509216
0.000509941
0.000510688
0.00051146
0.000512256
0.000513077
0.000513925
0.000514801
0.000515704
0.000516638
0.000517601
0.000518596
0.000519624
0.000520686
0.000521783
0.000522916
0.000524087
0.000525297
0.000526547
0.000527839
0.000529175
0.000530556
0.000531983
0.000533459
0.000534985
0.000536563
0.000538195
0.000539884
0.00054163
0.000543437
0.000545306
0.00054724
0.000549242
0.000551313
0.000553457
0.000555677
0.000557974
0.000560352
0.000562815
0.000565365
0.000568005
0.00057074
0.000573573
0.000576507
0.000579547
0.000582696
0.000585959
0.000589339
0.000592842
0.000596473
0.000600235
0.000604136
0.000608179
0.000612372
0.00061672
0.000621231
0.00062591
0.000630767
0.000635809
0.000641046
0.000646488
0.000652146
0.000658033
0.000664163
0.000670553
0.000677221
0.00068419
0.000691484
0.000699133
0.000707173
0.000715643
0.00072459
0.000734066
0.000744131
0.000754844
0.000766265
0.000778445
0.000791418
0.000805192
0.000819708
0.000834736
0.000849979
0.000864779
0.000877838
0.000886742
0.000496671
0.000496948
0.000497283
0.00049764
0.00049801
0.000498392
0.000498787
0.000499194
0.000499614
0.000500046
0.000500492
0.000500952
0.000501426
0.000501915
0.000502419
0.000502939
0.000503475
0.000504029
0.0005046
0.000505189
0.000505797
0.000506424
0.000507072
0.000507741
0.000508432
0.000509145
0.000509882
0.000510643
0.000511428
0.00051224
0.000513079
0.000513946
0.000514841
0.000515767
0.000516723
0.000517712
0.000518734
0.000519791
0.000520884
0.000522013
0.000523182
0.00052439
0.000525641
0.000526934
0.000528271
0.000529656
0.000531088
0.00053257
0.000534104
0.000535692
0.000537335
0.000539036
0.000540797
0.00054262
0.000544508
0.000546463
0.000548488
0.000550585
0.000552757
0.000555006
0.000557337
0.00055975
0.000562251
0.000564842
0.000567527
0.000570309
0.000573192
0.00057618
0.000579279
0.000582491
0.000585824
0.000589281
0.000592869
0.000596594
0.000600465
0.000604489
0.000608676
0.000613037
0.000617584
0.000622332
0.000627298
0.0006325
0.000637964
0.000643718
0.000649795
0.000656237
0.000663091
0.000670414
0.000678277
0.000686756
0.000695938
0.00070592
0.000716806
0.000728712
0.000741751
0.000755753
0.000770462
0.000785268
0.000798703
0.000807838
0.000492218
0.00049239
0.000492598
0.000492818
0.000493046
0.000493281
0.000493524
0.000493774
0.000494032
0.000494297
0.00049457
0.000494852
0.000495142
0.00049544
0.000495748
0.000496066
0.000496393
0.000496731
0.000497079
0.000497438
0.000497809
0.000498191
0.000498585
0.000498992
0.000499412
0.000499846
0.000500294
0.000500756
0.000501233
0.000501726
0.000502235
0.000502761
0.000503305
0.000503866
0.000504446
0.000505046
0.000505665
0.000506305
0.000506967
0.000507652
0.000508359
0.000509091
0.000509848
0.00051063
0.000511439
0.000512276
0.000513142
0.000514038
0.000514965
0.000515924
0.000516917
0.000517944
0.000519006
0.000520106
0.000521244
0.000522421
0.000523641
0.000524902
0.000526209
0.000527561
0.00052896
0.000530408
0.000531906
0.000533457
0.000535062
0.000536723
0.000538443
0.000540222
0.000542065
0.000543973
0.00054595
0.000547997
0.000550119
0.00055232
0.000554603
0.000556974
0.00055944
0.000562008
0.000564688
0.000567488
0.00057042
0.000573497
0.000576738
0.000580163
0.000583799
0.000587673
0.00059182
0.000596284
0.000601123
0.0006064
0.000612192
0.000618591
0.000625715
0.000633712
0.000642783
0.000653094
0.000664257
0.000675958
0.000686984
0.000694652
0.000487551
0.000487612
0.000487684
0.00048776
0.000487838
0.000487918
0.000488001
0.000488085
0.000488171
0.00048826
0.000488351
0.000488444
0.000488539
0.000488637
0.000488738
0.000488841
0.000488948
0.000489057
0.000489169
0.000489285
0.000489404
0.000489526
0.000489652
0.000489781
0.000489915
0.000490052
0.000490194
0.00049034
0.00049049
0.000490645
0.000490804
0.000490969
0.000491139
0.000491314
0.000491494
0.000491681
0.000491873
0.000492071
0.000492276
0.000492487
0.000492705
0.000492931
0.000493163
0.000493403
0.000493651
0.000493907
0.000494171
0.000494444
0.000494726
0.000495017
0.000495317
0.000495627
0.000495947
0.000496277
0.000496617
0.000496969
0.000497331
0.000497704
0.000498089
0.000498485
0.000498892
0.000499311
0.000499742
0.000500184
0.000500638
0.000501103
0.000501581
0.00050207
0.000502571
0.000503084
0.000503609
0.000504146
0.000504696
0.000505259
0.000505837
0.00050643
0.00050704
0.000507668
0.000508316
0.00050899
0.000509696
0.000510441
0.000511231
0.000512075
0.000512985
0.000513972
0.000515046
0.000516213
0.000517503
0.00051894
0.000520549
0.00052236
0.000524428
0.000526825
0.000529656
0.000533069
0.000537154
0.000541711
0.000546306
0.000549771
0.000482839
0.000482786
0.000482721
0.000482651
0.000482578
0.000482501
0.000482422
0.000482339
0.000482252
0.000482162
0.000482069
0.000481972
0.000481871
0.000481766
0.000481658
0.000481545
0.000481428
0.000481307
0.000481181
0.000481051
0.000480916
0.000480775
0.00048063
0.000480479
0.000480323
0.000480161
0.000479994
0.00047982
0.00047964
0.000479454
0.00047926
0.00047906
0.000478853
0.000478638
0.000478415
0.000478184
0.000477945
0.000477698
0.000477441
0.000477175
0.000476899
0.000476613
0.000476317
0.00047601
0.000475691
0.000475361
0.000475018
0.000474663
0.000474294
0.000473911
0.000473514
0.000473102
0.000472673
0.000472228
0.000471766
0.000471285
0.000470785
0.000470266
0.000469725
0.000469161
0.000468574
0.000467961
0.000467322
0.000466655
0.000465957
0.000465228
0.000464465
0.000463666
0.000462828
0.00046195
0.000461029
0.000460062
0.000459046
0.000457978
0.000456855
0.000455674
0.00045443
0.00045312
0.000451741
0.000450289
0.000448761
0.000447154
0.000445463
0.000443685
0.000441815
0.00043985
0.000437787
0.000435626
0.000433344
0.000430911
0.000428283
0.000425402
0.00042224
0.00041876
0.00041493
0.000410698
0.000406022
0.000400963
0.000395994
0.000392401
0.000478252
0.00047809
0.000477894
0.000477683
0.000477464
0.000477236
0.000477
0.000476756
0.000476502
0.00047624
0.000475969
0.000475688
0.000475398
0.000475097
0.000474787
0.000474465
0.000474133
0.000473789
0.000473434
0.000473066
0.000472685
0.000472292
0.000471885
0.000471464
0.000471029
0.000470579
0.000470113
0.000469632
0.000469133
0.000468618
0.000468085
0.000467533
0.000466963
0.000466372
0.000465762
0.00046513
0.000464475
0.000463799
0.000463098
0.000462373
0.000461623
0.000460846
0.000460041
0.000459209
0.000458346
0.000457453
0.000456529
0.000455571
0.000454578
0.00045355
0.000452485
0.000451381
0.000450236
0.00044905
0.00044782
0.000446544
0.000445221
0.000443848
0.000442424
0.000440945
0.000439409
0.000437813
0.000436155
0.000434431
0.000432638
0.000430773
0.000428831
0.000426809
0.000424703
0.000422507
0.000420218
0.000417828
0.000415334
0.000412727
0.000410003
0.000407153
0.00040417
0.000401046
0.000397771
0.000394336
0.000390731
0.000386945
0.000382965
0.000378776
0.000374363
0.000369707
0.000364787
0.000359576
0.000354037
0.000348125
0.000341788
0.000334953
0.000327455
0.000319216
0.000310189
0.00030033
0.000289708
0.000278718
0.0002685
0.000261519
0.000473937
0.000473676
0.000473358
0.000473017
0.000472663
0.000472294
0.000471913
0.000471519
0.000471111
0.000470689
0.000470253
0.000469802
0.000469336
0.000468854
0.000468357
0.000467843
0.000467311
0.000466762
0.000466194
0.000465607
0.000465
0.000464373
0.000463725
0.000463055
0.000462363
0.000461647
0.000460907
0.000460142
0.000459351
0.000458533
0.000457687
0.000456812
0.000455908
0.000454973
0.000454005
0.000453005
0.00045197
0.000450899
0.000449791
0.000448645
0.00044746
0.000446233
0.000444963
0.000443649
0.00044229
0.000440882
0.000439425
0.000437916
0.000436354
0.000434736
0.000433061
0.000431326
0.000429529
0.000427666
0.000425737
0.000423737
0.000421665
0.000419516
0.000417288
0.000414978
0.000412581
0.000410093
0.000407511
0.000404831
0.000402047
0.000399155
0.000396149
0.000393024
0.000389774
0.000386393
0.000382873
0.000379208
0.000375389
0.000371408
0.000367256
0.000362922
0.000358397
0.000353668
0.000348724
0.000343551
0.000338134
0.000332459
0.000326507
0.000320259
0.000313693
0.000306785
0.000299506
0.000291824
0.000283697
0.000275083
0.000265928
0.000256173
0.000245743
0.000234486
0.000222426
0.000209613
0.000196259
0.000182944
0.000170975
0.00016292
0.000470014
0.000469667
0.00046924
0.000468783
0.000468307
0.000467813
0.000467303
0.000466775
0.000466229
0.000465665
0.000465082
0.00046448
0.000463859
0.000463216
0.000462553
0.000461868
0.00046116
0.000460429
0.000459673
0.000458893
0.000458086
0.000457253
0.000456393
0.000455503
0.000454584
0.000453635
0.000452653
0.000451639
0.000450591
0.000449507
0.000448388
0.00044723
0.000446033
0.000444796
0.000443517
0.000442194
0.000440827
0.000439413
0.00043795
0.000436437
0.000434873
0.000433254
0.00043158
0.000429848
0.000428056
0.000426201
0.000424282
0.000422296
0.00042024
0.000418112
0.000415909
0.000413628
0.000411266
0.00040882
0.000406286
0.000403662
0.000400943
0.000398126
0.000395207
0.000392181
0.000389044
0.000385791
0.000382417
0.000378917
0.000375285
0.000371515
0.000367601
0.000363537
0.000359315
0.000354927
0.000350365
0.000345622
0.000340687
0.00033555
0.000330202
0.000324631
0.000318825
0.00031277
0.000306455
0.000299863
0.00029298
0.000285789
0.000278272
0.000270411
0.000262184
0.00025357
0.000244545
0.000235083
0.00022516
0.000214749
0.000203828
0.000192381
0.000180402
0.000167856
0.000154769
0.000141294
0.000127726
0.000114657
0.000103213
9.54599e-05
0.000466574
0.000466154
0.000465634
0.000465077
0.000464497
0.000463895
0.000463273
0.000462631
0.000461967
0.000461281
0.000460574
0.000459843
0.000459088
0.000458309
0.000457505
0.000456674
0.000455817
0.000454931
0.000454017
0.000453073
0.000452098
0.000451091
0.000450051
0.000448977
0.000447867
0.000446721
0.000445538
0.000444315
0.000443052
0.000441746
0.000440398
0.000439005
0.000437565
0.000436077
0.000434539
0.000432949
0.000431307
0.000429608
0.000427853
0.000426038
0.000424161
0.000422221
0.000420214
0.000418139
0.000415993
0.000413773
0.000411476
0.0004091
0.000406642
0.000404098
0.000401466
0.000398742
0.000395922
0.000393003
0.000389981
0.000386852
0.000383612
0.000380256
0.00037678
0.00037318
0.000369449
0.000365582
0.000361574
0.00035742
0.000353112
0.000348644
0.000344009
0.0003392
0.00033421
0.00032903
0.00032365
0.000318064
0.000312259
0.000306227
0.000299957
0.000293436
0.000286654
0.000279597
0.000272252
0.000264607
0.000256647
0.000248357
0.000239723
0.00023073
0.000221364
0.00021161
0.000201457
0.000190895
0.000179919
0.000168532
0.000156751
0.000144611
0.000132173
0.00011953
0.000106715
9.39367e-05
8.15051e-05
6.99272e-05
6.00229e-05
5.31963e-05
0.00046368
0.000463201
0.000462605
0.000461965
0.000461299
0.000460608
0.000459895
0.000459158
0.000458397
0.000457612
0.000456802
0.000455965
0.000455102
0.000454212
0.000453292
0.000452343
0.000451364
0.000450354
0.00044931
0.000448234
0.000447122
0.000445975
0.000444791
0.000443568
0.000442305
0.000441002
0.000439656
0.000438267
0.000436832
0.00043535
0.00043382
0.00043224
0.000430607
0.000428921
0.000427179
0.00042538
0.000423521
0.000421601
0.000419616
0.000417566
0.000415447
0.000413257
0.000410993
0.000408653
0.000406234
0.000403734
0.000401148
0.000398475
0.000395711
0.000392851
0.000389894
0.000386835
0.000383671
0.000380397
0.000377009
0.000373503
0.000369875
0.000366119
0.000362232
0.000358207
0.000354039
0.000349723
0.000345252
0.000340621
0.000335823
0.000330851
0.000325698
0.000320356
0.000314818
0.000309075
0.000303119
0.00029694
0.00029053
0.000283878
0.000276973
0.000269806
0.000262366
0.00025464
0.000246618
0.000238288
0.00022964
0.000220661
0.000211342
0.000201674
0.00019165
0.000181264
0.000170517
0.000159414
0.00014797
0.000136212
0.00012419
0.000111978
9.96887e-05
8.7476e-05
7.54346e-05
6.37668e-05
5.27633e-05
4.28343e-05
3.45394e-05
2.87238e-05
0.000461373
0.00046085
0.000460194
0.00045949
0.000458756
0.000457996
0.000457211
0.0004564
0.000455564
0.000454701
0.000453811
0.000452893
0.000451946
0.000450968
0.00044996
0.00044892
0.000447847
0.000446739
0.000445597
0.000444418
0.000443202
0.000441947
0.000440652
0.000439316
0.000437937
0.000436514
0.000435045
0.000433529
0.000431964
0.000430349
0.000428682
0.000426961
0.000425184
0.00042335
0.000421456
0.0004195
0.000417481
0.000415396
0.000413242
0.000411018
0.000408721
0.000406349
0.000403898
0.000401366
0.00039875
0.000396048
0.000393255
0.00039037
0.000387387
0.000384305
0.000381119
0.000377826
0.000374421
0.000370901
0.000367261
0.000363497
0.000359605
0.000355579
0.000351414
0.000347106
0.000342649
0.000338036
0.000333263
0.000328323
0.000323209
0.000317916
0.000312434
0.000306759
0.000300881
0.000294793
0.000288487
0.000281954
0.000275185
0.000268172
0.000260904
0.000253372
0.000245567
0.00023748
0.0002291
0.000220419
0.000211428
0.00020212
0.00019249
0.000182532
0.000172246
0.000161634
0.000150704
0.000139471
0.000127961
0.000116215
0.000104298
9.22999e-05
8.03508e-05
6.86221e-05
5.72836e-05
4.64972e-05
3.65379e-05
2.77602e-05
2.05853e-05
1.55222e-05
0.000459673
0.000459121
0.000458423
0.000457672
0.000456888
0.000456078
0.000455241
0.000454378
0.000453487
0.000452569
0.000451621
0.000450644
0.000449636
0.000448596
0.000447524
0.000446419
0.000445278
0.000444102
0.000442889
0.000441637
0.000440346
0.000439015
0.000437642
0.000436225
0.000434763
0.000433255
0.0004317
0.000430095
0.000428439
0.00042673
0.000424967
0.000423148
0.00042127
0.000419333
0.000417333
0.00041527
0.00041314
0.000410941
0.000408672
0.00040633
0.000403911
0.000401415
0.000398837
0.000396176
0.000393428
0.000390591
0.00038766
0.000384634
0.000381509
0.000378281
0.000374946
0.000371502
0.000367943
0.000364267
0.000360468
0.000356543
0.000352487
0.000348295
0.000343962
0.000339484
0.000334854
0.000330068
0.00032512
0.000320004
0.000314713
0.000309242
0.000303584
0.000297732
0.000291678
0.000285417
0.000278939
0.000272238
0.000265305
0.000258133
0.000250713
0.000243037
0.000235098
0.000226886
0.000218396
0.00020962
0.000200552
0.000191188
0.000181524
0.00017156
0.000161299
0.000150745
0.000139912
0.000128817
0.000117489
0.000105971
9.4323e-05
8.26335e-05
7.10211e-05
5.96395e-05
4.86829e-05
3.83059e-05
2.87627e-05
2.03988e-05
1.36257e-05
8.86161e-06
0.000458579
0.000458013
0.00045729
0.000456509
0.000455695
0.000454853
0.000453983
0.000453086
0.000452162
0.000451208
0.000450224
0.00044921
0.000448164
0.000447086
0.000445974
0.000444827
0.000443645
0.000442425
0.000441168
0.000439872
0.000438534
0.000437155
0.000435733
0.000434267
0.000432754
0.000431194
0.000429585
0.000427925
0.000426213
0.000424447
0.000422625
0.000420746
0.000418807
0.000416807
0.000414743
0.000412614
0.000410417
0.000408151
0.000405812
0.000403398
0.000400908
0.000398337
0.000395685
0.000392947
0.000390121
0.000387205
0.000384194
0.000381087
0.000377879
0.000374567
0.000371148
0.000367619
0.000363974
0.000360211
0.000356325
0.000352312
0.000348167
0.000343887
0.000339466
0.0003349
0.000330183
0.000325311
0.000320277
0.000315077
0.000309704
0.000304153
0.000298417
0.000292491
0.000286368
0.000280041
0.000273503
0.000266748
0.000259769
0.000252559
0.000245111
0.000237418
0.000229473
0.000221271
0.000212806
0.000204072
0.000195066
0.000185786
0.000176231
0.000166401
0.000156302
0.000145942
0.000135332
0.000124492
0.000113448
0.000102234
9.09024e-05
7.95224e-05
6.81904e-05
5.70317e-05
4.62093e-05
3.58835e-05
2.62808e-05
1.77411e-05
1.07295e-05
5.75079e-06
0.000458068
0.0004575
0.000456767
0.000455973
0.000455145
0.000454289
0.000453405
0.000452493
0.000451552
0.000450583
0.000449583
0.000448552
0.000447489
0.000446393
0.000445263
0.000444098
0.000442897
0.000441658
0.000440381
0.000439065
0.000437707
0.000436307
0.000434863
0.000433374
0.000431839
0.000430255
0.000428623
0.000426938
0.000425202
0.00042341
0.000421563
0.000419657
0.000417691
0.000415664
0.000413572
0.000411415
0.000409189
0.000406893
0.000404524
0.00040208
0.000399558
0.000396957
0.000394272
0.000391502
0.000388644
0.000385695
0.000382651
0.00037951
0.000376268
0.000372923
0.00036947
0.000365906
0.000362227
0.00035843
0.00035451
0.000350463
0.000346285
0.000341973
0.00033752
0.000332923
0.000328176
0.000323275
0.000318214
0.000312988
0.000307592
0.000302019
0.000296264
0.000290322
0.000284185
0.000277849
0.000271306
0.00026455
0.000257576
0.000250376
0.000242945
0.000235277
0.000227365
0.000219206
0.000210793
0.000202123
0.000193193
0.000184002
0.000174549
0.000164838
0.000154874
0.000144664
0.000134223
0.000123566
0.000112717
0.000101704
9.05663e-05
7.93547e-05
6.81497e-05
5.70747e-05
4.6285e-05
3.59395e-05
2.62279e-05
1.74341e-05
1.00027e-05
4.52923e-06
0.000997976
0.000997976
0.000997476
0.000996774
0.000995945
0.00099501
0.000993975
0.000992835
0.000991576
0.000990179
0.000988615
0.000986844
0.000984819
0.000982481
0.000979772
0.000976641
0.000973077
0.000969172
0.000965257
0.000962211
0.00099606
0.000995892
0.000995013
0.000993818
0.000992437
0.000990913
0.000989258
0.000987469
0.000985529
0.000983407
0.000981062
0.000978436
0.00097546
0.000972053
0.000968135
0.000963644
0.000958585
0.000953123
0.000947776
0.000943795
0.000992114
0.00099151
0.000990014
0.000988087
0.000985905
0.000983539
0.000981015
0.000978332
0.000975471
0.000972389
0.000969027
0.000965307
0.000961132
0.000956395
0.000950994
0.000944858
0.000938017
0.000930725
0.000923717
0.000918659
0.000983939
0.000982643
0.000980244
0.000977311
0.000974061
0.000970596
0.000966957
0.000963149
0.000959148
0.000954902
0.000950331
0.00094533
0.000939772
0.000933523
0.000926456
0.000918497
0.00090971
0.000900466
0.000891746
0.000885673
0.000967837
0.000965632
0.000962084
0.000957914
0.000953395
0.000948652
0.000943745
0.000938686
0.000933445
0.000927957
0.000922123
0.000915807
0.000908855
0.000901101
0.000892396
0.000882667
0.000872032
0.000860999
0.000850821
0.000844014
0.000938194
0.000935002
0.000930243
0.000924805
0.00091902
0.000913044
0.000906949
0.00090075
0.000894416
0.00088787
0.000880987
0.00087361
0.000865557
0.000856633
0.000846672
0.000835612
0.000823637
0.000811408
0.000800433
0.000793377
0.00088763
0.000883664
0.000877999
0.000871649
0.000864999
0.000858229
0.000851418
0.000844587
0.0008377
0.000830668
0.000823349
0.000815574
0.000807145
0.000797847
0.000787505
0.000776074
0.000763811
0.000751514
0.000740842
0.00073417
0.000808331
0.000804222
0.000798469
0.000792104
0.000785528
0.000778928
0.000772388
0.000765924
0.000759493
0.000752992
0.000746295
0.000739245
0.000731647
0.000723289
0.000713994
0.00070374
0.000692836
0.000682161
0.00067327
0.000667831
0.000695088
0.000691855
0.000687336
0.000682384
0.000677338
0.000672365
0.000667527
0.000662826
0.000658205
0.000653594
0.000648913
0.000644051
0.000638852
0.000633148
0.000626778
0.000619734
0.000612314
0.000605293
0.000599782
0.000596661
0.000550258
0.000549034
0.000547279
0.000545383
0.000543502
0.000541724
0.000540067
0.000538524
0.000537083
0.000535738
0.000534459
0.000533217
0.00053194
0.000530573
0.000529031
0.000527306
0.000525507
0.000523934
0.000522978
0.000522771
0.000392083
0.000393476
0.000395457
0.000397655
0.000399935
0.00040223
0.000404547
0.00040692
0.00040938
0.000411967
0.000414715
0.000417686
0.000420951
0.000424592
0.000428691
0.00043321
0.000437907
0.000442362
0.000446112
0.000448649
0.000261276
0.000264364
0.000268686
0.000273483
0.000278464
0.000283499
0.000288545
0.00029361
0.000298768
0.000304105
0.000309709
0.000315701
0.000322237
0.000329478
0.00033755
0.000346424
0.000355753
0.000364716
0.000372105
0.000376717
0.000162572
0.000166291
0.000171521
0.000177366
0.000183484
0.000189725
0.000196031
0.0002024
0.000208885
0.000215587
0.000222639
0.000230194
0.00023844
0.000247569
0.000257729
0.000268918
0.000280813
0.000292536
0.000302475
0.000308669
9.47089e-05
9.81878e-05
0.000103194
0.000108858
0.000114853
0.000121036
0.000127349
0.000133788
0.000140395
0.000147259
0.00015452
0.000162337
0.000170897
0.000180395
0.000190986
0.0002027
0.000215284
0.000227962
0.000239092
0.000246172
5.19342e-05
5.46727e-05
5.88001e-05
6.35608e-05
6.86739e-05
7.40153e-05
7.95331e-05
8.52236e-05
9.11246e-05
9.73127e-05
0.000103908
0.000111058
0.000118932
0.00012771
0.000137541
0.000148481
0.000160353
0.00017253
0.000183555
0.000190756
2.70334e-05
2.88894e-05
3.19262e-05
3.55308e-05
3.9474e-05
4.3654e-05
4.80285e-05
5.25953e-05
5.73871e-05
6.24684e-05
6.79363e-05
7.39156e-05
8.05506e-05
8.79948e-05
9.63861e-05
0.000105792
0.000116102
0.000126838
0.000136811
0.000143579
1.35504e-05
1.46181e-05
1.66522e-05
1.91666e-05
2.19774e-05
2.50043e-05
2.82164e-05
3.16149e-05
3.52273e-05
3.91054e-05
4.33251e-05
4.7985e-05
5.32019e-05
5.9102e-05
6.58032e-05
7.33751e-05
8.17579e-05
9.06053e-05
9.89922e-05
0.0001049
6.70302e-06
7.18162e-06
8.4407e-06
1.00832e-05
1.19613e-05
1.40165e-05
1.62302e-05
1.86072e-05
2.117e-05
2.39584e-05
2.70291e-05
3.04562e-05
3.43293e-05
3.87478e-05
4.38082e-05
4.9575e-05
5.60223e-05
6.29112e-05
6.95554e-05
7.43839e-05
3.38404e-06
3.4965e-06
4.23241e-06
5.24814e-06
6.43403e-06
7.75403e-06
9.20001e-06
1.07784e-05
1.25068e-05
1.4414e-05
1.65404e-05
1.89393e-05
2.1676e-05
2.4825e-05
2.84618e-05
3.26427e-05
3.73635e-05
4.24709e-05
4.74809e-05
5.12225e-05
1.75527e-06
1.73361e-06
2.15143e-06
2.74869e-06
3.46064e-06
4.26935e-06
5.17261e-06
6.17649e-06
7.29373e-06
8.54404e-06
9.955e-06
1.15629e-05
1.34129e-05
1.55578e-05
1.80533e-05
2.09453e-05
2.42436e-05
2.78637e-05
3.14972e-05
3.43244e-05
0.001
0.001
0.001
0.001
0.001
0.001
0.001
0.001
0.001
0.001
0.001
0.001
0.001
0.001
0.001
0.001
0.001
0.001
0.001
0.001
0.001
0.001
0.001
0.001
0.001
0.001
0.001
0.001
0.001
0.001
0.001
0.001
0.001
0.001
0.001
0.001
0.001
0.001
0.001
0.001
0.001
0.001
0.001
0.001
0.001
0.001
0.001
0.001
0.001
0.001
0.001
0.001
0.001
0.001
0.001
0.001
0.001
0.001
0.001
0.001
0.001
0.001
0.001
0.001
0.001
0.001
0.001
0.001
0.001
0.001
0.001
0.001
0.001
0.001
0.001
0.001
0.001
0.001
0.001
0.001
0.001
0.001
0.001
0.001
0.001
0.001
0.001
0.001
0.001
0.001
0.001
0.001
0.001
0.001
0.001
0.001
0.001
0.001
0.001
0.001
0.001
0.001
0.001
0.001