/*--------------------------------*- C++ -*----------------------------------*\
| =========                 |                                                 |
| \\      /  F ield         | OpenFOAM: The Open Source CFD Toolbox           |
|  \\    /   O peration     | Version:  2.1.0                                 |
|   \\  /    A nd           | Web:      www.OpenFOAM.org                      |
|    \\/     M anipulation  |                                                 |
\*---------------------------------------------------------------------------*/
FoamFile
{
    version     2.0;
    format      ascii;
    class       volScalarField;
    location    "0.48";
    object      k;
}
// * * * * * * * * * * * * * * * * * * * * * * * * * * * * * * * * * * * * * //

dimensions      [0 2 -2 0 0 0 0];

internalField   nonuniform List<scalar> 
6400
(
0.0327728
0.032812
0.0328153
0.0328093
0.0327869
0.032776
0.0327459
0.0327314
0.0326978
0.032681
0.0326455
0.0326256
0.0325891
0.0325653
0.0325281
0.0325
0.0324619
0.0324296
0.0323901
0.0323538
0.0323127
0.0322728
0.03223
0.0321872
0.0321428
0.0320975
0.0320514
0.0320037
0.0319556
0.0319054
0.031855
0.0318022
0.0317492
0.0316935
0.0316375
0.0315787
0.0315193
0.031457
0.0313936
0.031327
0.0312583
0.0311854
0.0311095
0.0310284
0.0309432
0.0308517
0.0307545
0.03065
0.0305382
0.030418
0.0302891
0.0301507
0.0300022
0.0298406
0.0296632
0.0294683
0.0292521
0.0290352
0.0287988
0.0285599
0.0283037
0.0280434
0.0277692
0.0274883
0.0271936
0.0268903
0.0265731
0.0262456
0.0259011
0.025541
0.0251648
0.0247691
0.0243555
0.0239209
0.0234666
0.0229912
0.0224965
0.0219829
0.0214529
0.0209089
0.0203533
0.0197878
0.0192082
0.0185968
0.0179217
0.0172252
0.016474
0.0156492
0.0147166
0.0136237
0.0122987
0.0106304
0.00853729
0.00605534
0.00339743
0.00235681
0.00274594
0.00552293
0.00876172
0.00991657
0.0518723
0.0522103
0.0523651
0.0526488
0.0528241
0.0531054
0.0532996
0.0535748
0.0537868
0.0540565
0.0542836
0.0545495
0.0547889
0.0550527
0.0553015
0.0555642
0.0558199
0.0560824
0.0563428
0.0566052
0.0568687
0.0571313
0.0573971
0.0576611
0.0579301
0.058198
0.0584721
0.0587456
0.059026
0.0593061
0.059593
0.0598801
0.0601738
0.0604683
0.060769
0.0610711
0.0613793
0.0616897
0.0620066
0.0623266
0.0626533
0.0629808
0.0633126
0.0636448
0.0639787
0.0643114
0.0646424
0.0649693
0.0652905
0.0656041
0.0659078
0.0662011
0.0664866
0.0667654
0.0670252
0.0672672
0.0674726
0.0676874
0.0678731
0.0680542
0.0682062
0.0683462
0.0684621
0.068567
0.0686436
0.0687024
0.06873
0.0687395
0.0687159
0.0686452
0.0685343
0.0683672
0.0681418
0.0678461
0.0674728
0.067012
0.0664546
0.0657925
0.0650171
0.0641237
0.0631065
0.0619666
0.0607065
0.0593239
0.0577838
0.0560091
0.0539892
0.0516507
0.0489414
0.0457838
0.0421263
0.0379257
0.0332447
0.0283528
0.0233617
0.0186236
0.0149775
0.0123958
0.0107888
0.00922051
0.0576379
0.05814
0.0583686
0.0587838
0.059066
0.0594659
0.0597812
0.0601711
0.06051
0.0608947
0.0612511
0.0616342
0.0620041
0.0623879
0.0627681
0.0631539
0.0635418
0.06393
0.0643234
0.0647136
0.0651099
0.0655006
0.065897
0.0662859
0.0666817
0.067072
0.067471
0.0678655
0.068268
0.0686667
0.0690723
0.0694748
0.0698828
0.0702883
0.0706981
0.0711054
0.0715156
0.0719228
0.0723306
0.0727345
0.0731371
0.0735365
0.0739323
0.0743234
0.0747077
0.0750843
0.0754494
0.0758016
0.0761352
0.0764467
0.076729
0.0769731
0.0771775
0.077375
0.0775372
0.0776842
0.0777997
0.0778973
0.0779623
0.0780015
0.078017
0.0780178
0.0779543
0.0778695
0.0777254
0.0775472
0.0773088
0.0770259
0.0766788
0.0762759
0.0758003
0.0752535
0.07462
0.0738965
0.0730671
0.0721254
0.0710555
0.0698502
0.0684946
0.0669828
0.0653031
0.063453
0.0614242
0.0592168
0.0568299
0.0542938
0.0515861
0.0487256
0.0456792
0.0424463
0.0389763
0.0352471
0.0312282
0.0269247
0.0224483
0.018098
0.0144249
0.0114657
0.00928359
0.00710581
0.0619239
0.0624864
0.0627424
0.0632234
0.0635571
0.0640178
0.0643939
0.0648409
0.0652432
0.0656829
0.0661024
0.066539
0.0669701
0.0674063
0.0678455
0.0682826
0.0687271
0.0691654
0.0696127
0.0700513
0.0704989
0.070936
0.0713803
0.0718121
0.0722437
0.0726567
0.0730774
0.0734874
0.0739011
0.0743045
0.0747085
0.075102
0.0754933
0.0758732
0.0762481
0.0766103
0.0769645
0.0773043
0.0776347
0.0779478
0.0782446
0.0785258
0.078785
0.0790263
0.0792414
0.0794345
0.0795975
0.0797337
0.0798357
0.0798993
0.0799275
0.0799338
0.0798883
0.0798091
0.079679
0.0795081
0.0792807
0.0790036
0.0786622
0.0782601
0.0777843
0.0772382
0.0766116
0.0759084
0.0751146
0.0742366
0.0732604
0.0721931
0.0710234
0.0697587
0.0683906
0.0669269
0.0653624
0.0637061
0.0619543
0.0601172
0.058192
0.0561893
0.0541069
0.0519548
0.0497306
0.0474435
0.0450909
0.0426811
0.040213
0.037694
0.0351243
0.0325289
0.0299043
0.0272688
0.0246242
0.0219872
0.0193635
0.0167747
0.014253
0.0118786
0.00969942
0.00786217
0.00658648
0.00598985
0.063146
0.0636833
0.0639228
0.0643884
0.0646988
0.0651421
0.0654898
0.0659128
0.0662803
0.066687
0.0670641
0.0674574
0.0678369
0.0682185
0.0685952
0.068965
0.0693345
0.0696914
0.0700496
0.0703915
0.0707344
0.071059
0.0713827
0.0716871
0.0719866
0.0722695
0.072546
0.0728052
0.0730549
0.073285
0.0735024
0.0736974
0.073876
0.0740293
0.0741623
0.0742668
0.0743465
0.0743863
0.074402
0.0743978
0.0743336
0.0742489
0.0741083
0.0739356
0.073707
0.0734376
0.0731107
0.0727362
0.0723017
0.0718143
0.0712658
0.0706603
0.06999
0.0692613
0.0684659
0.06761
0.0666907
0.0657105
0.0646661
0.063561
0.0623921
0.0611645
0.0598752
0.0585303
0.0571274
0.0556734
0.0541662
0.0526135
0.0510137
0.0493749
0.047696
0.0459849
0.0442416
0.0424743
0.0406862
0.0388866
0.0370756
0.0352623
0.0334483
0.0316423
0.0298471
0.0280722
0.0263219
0.0246052
0.0229272
0.0212955
0.0197157
0.0181792
0.0166973
0.0152641
0.0138884
0.0125643
0.0113021
0.0100997
0.00897452
0.00794305
0.00703086
0.00639858
0.00612448
0.00612124
0.0597461
0.0600815
0.0602313
0.0605339
0.0607305
0.061013
0.0612258
0.0614822
0.061695
0.0619239
0.0621267
0.0623277
0.0625131
0.062685
0.0628472
0.062988
0.0631215
0.0632284
0.0633282
0.0633977
0.0634558
0.0634834
0.0634945
0.0634899
0.0634469
0.063387
0.063294
0.0631755
0.063032
0.0628592
0.0626591
0.062426
0.0621629
0.0618636
0.0615317
0.0611609
0.0607551
0.0603083
0.0598255
0.0592999
0.0587341
0.0581282
0.0574795
0.0567914
0.05606
0.0552901
0.0544779
0.0536283
0.0527384
0.0518129
0.0508499
0.0498537
0.0488232
0.0477628
0.0466721
0.0455557
0.0444131
0.0432489
0.0420635
0.0408644
0.0396505
0.0384283
0.0371972
0.0359633
0.0347267
0.0334929
0.0322625
0.0310408
0.0298287
0.0286311
0.0274491
0.0262875
0.025147
0.0240319
0.0229406
0.0218758
0.0208396
0.0198339
0.0188616
0.0179239
0.0170213
0.0161494
0.0153131
0.0145075
0.0137362
0.0129937
0.0122826
0.011597
0.0109386
0.0103006
0.00968443
0.00908343
0.00850083
0.0079343
0.00739701
0.00689973
0.00653551
0.00637725
0.00635069
0.00656773
0.0507247
0.0506983
0.0506902
0.0506865
0.0506812
0.0506627
0.0506405
0.0505948
0.050546
0.0504671
0.0503862
0.050271
0.0501542
0.0500006
0.049845
0.0496513
0.0494547
0.0492197
0.0489807
0.0487036
0.0484213
0.0481025
0.0477774
0.0474171
0.0470425
0.0466356
0.0462115
0.045757
0.045284
0.0447817
0.0442601
0.0437101
0.0431407
0.0425443
0.0419291
0.0412884
0.0406302
0.0399485
0.039251
0.0385325
0.0378002
0.0370507
0.0362915
0.0355188
0.0347393
0.0339505
0.033158
0.0323603
0.0315623
0.0307632
0.0299673
0.0291744
0.0283883
0.0276089
0.0268398
0.0260809
0.025332
0.0245965
0.0238746
0.0231659
0.0224722
0.0217938
0.0211318
0.0204865
0.0198583
0.019247
0.0186546
0.0180782
0.0175186
0.0169744
0.0164458
0.0159314
0.0154311
0.0149432
0.0144672
0.0140016
0.0135455
0.0130973
0.0126554
0.0122177
0.0117978
0.011389
0.010996
0.0106127
0.0102433
0.00988202
0.00953283
0.00919086
0.00886067
0.008539
0.00823207
0.00793929
0.00766974
0.00742698
0.00723021
0.00709987
0.0070464
0.0070903
0.0074309
0.00762308
0.0378748
0.0375263
0.0373792
0.0371029
0.0369276
0.0366452
0.0364359
0.0361364
0.0358919
0.0355698
0.0352898
0.0349426
0.0346282
0.0342551
0.0339076
0.0335081
0.0331286
0.0327028
0.0322926
0.0318407
0.031401
0.0309235
0.0304552
0.0299549
0.0294694
0.0289585
0.0284614
0.0279442
0.0274348
0.0269084
0.0263921
0.0258627
0.0253456
0.0248189
0.0243064
0.0237878
0.0232853
0.0227796
0.0222918
0.0218036
0.0213346
0.0208675
0.0204191
0.0199745
0.0195494
0.0191299
0.0187304
0.0183378
0.0179651
0.0176005
0.0172554
0.0169186
0.0166009
0.0162935
0.0160038
0.0157252
0.015463
0.0152124
0.0149762
0.0147513
0.0145395
0.0143386
0.0141497
0.013971
0.0138034
0.0136457
0.0134962
0.013357
0.0132266
0.0131054
0.0129916
0.0128857
0.0127859
0.0126926
0.0126039
0.0125202
0.0124396
0.0123624
0.0122865
0.0122119
0.0121369
0.0120584
0.011976
0.0118863
0.0117885
0.0116792
0.0115575
0.0114203
0.0112676
0.0110988
0.0109166
0.0107251
0.0105333
0.0103525
0.0102251
0.0101699
0.0101641
0.0104117
0.0107743
0.0109527
0.024961
0.0244324
0.0242125
0.0237951
0.023554
0.023146
0.0228839
0.0224814
0.0222009
0.0218027
0.0215083
0.0211139
0.0208093
0.0204189
0.0201076
0.0197224
0.0194079
0.0190295
0.0187152
0.0183457
0.0180346
0.0176762
0.0173717
0.0170275
0.0167365
0.0164117
0.0161363
0.0158323
0.0155743
0.0152926
0.0150541
0.014796
0.0145783
0.0143451
0.0141489
0.0139413
0.0137672
0.0135854
0.0134337
0.0132778
0.0131486
0.0130179
0.0129113
0.0128055
0.0127216
0.0126399
0.0125786
0.0125208
0.0124821
0.0124489
0.0124328
0.0124258
0.012425
0.0124428
0.0124657
0.0125048
0.0125501
0.0126102
0.0126785
0.0127608
0.012852
0.0129568
0.013071
0.0131985
0.0133362
0.0134869
0.0136483
0.0138225
0.0140075
0.0142056
0.0144149
0.0146376
0.0148722
0.0151204
0.0153811
0.0156557
0.0159429
0.016244
0.0165578
0.0168851
0.0172246
0.0175761
0.0179374
0.0183075
0.0186833
0.0190623
0.01944
0.0198118
0.020172
0.0205158
0.020838
0.021136
0.0214097
0.0216639
0.0219136
0.0222087
0.0226541
0.0232697
0.0240952
0.0250017
0.0177148
0.0171825
0.0169668
0.0165557
0.0163395
0.0159477
0.0157329
0.015362
0.0151511
0.0148024
0.0145981
0.0142725
0.0140773
0.0137755
0.0135914
0.013314
0.0131431
0.0128903
0.012734
0.0125062
0.0123658
0.0121629
0.0120396
0.0118615
0.0117558
0.0116021
0.0115141
0.0113841
0.011314
0.0112074
0.0111543
0.0110728
0.0110332
0.0109776
0.0109513
0.0109216
0.0109087
0.0109029
0.0109025
0.010917
0.0109374
0.010969
0.0110083
0.0110576
0.0111157
0.0111826
0.0112593
0.0113442
0.0114396
0.0115428
0.0116571
0.0117792
0.0119125
0.0120543
0.012207
0.0123691
0.0125421
0.0127254
0.0129197
0.013125
0.013342
0.0135708
0.0138121
0.0140664
0.014334
0.0146157
0.0149121
0.0152238
0.0155516
0.0158964
0.016259
0.0166406
0.0170421
0.017465
0.0179103
0.01838
0.0188754
0.0193986
0.0199515
0.0205362
0.0211552
0.0218114
0.0225081
0.0232488
0.0240376
0.0248792
0.0257789
0.0267431
0.0277798
0.0288973
0.0301065
0.0314195
0.0328511
0.0344182
0.0361392
0.0380252
0.0400822
0.0422699
0.0437975
0.0444203
0.0204381
0.0198845
0.0196574
0.0192241
0.0189899
0.0185732
0.0183338
0.0179343
0.0176927
0.0173112
0.0170702
0.0167082
0.0164711
0.01613
0.0158999
0.0155806
0.0153605
0.0150636
0.0148558
0.0145818
0.0143883
0.0141376
0.0139599
0.0137327
0.0135719
0.0133682
0.0132251
0.0130448
0.01292
0.012763
0.0126568
0.0125228
0.0124352
0.0123242
0.012255
0.012167
0.0121162
0.0120512
0.0120188
0.0119796
0.0119614
0.0119503
0.0119471
0.0119535
0.0119736
0.0120001
0.0120401
0.0120867
0.0121467
0.0122134
0.0122934
0.0123805
0.0124809
0.0125888
0.0127101
0.012839
0.0129813
0.0131319
0.0132958
0.0134685
0.0136546
0.0138508
0.0140603
0.0142811
0.0145158
0.0147628
0.0150243
0.0152993
0.0155899
0.0158952
0.0162174
0.0165557
0.0169123
0.0172869
0.0176818
0.0180969
0.0185347
0.0189954
0.0194816
0.0199942
0.0205359
0.0211082
0.0217141
0.0223557
0.0230366
0.0237597
0.0245292
0.025349
0.026224
0.0271587
0.0281598
0.0292356
0.0304044
0.0316771
0.0330807
0.0346395
0.036393
0.0383121
0.0398612
0.0405419
0.0308002
0.0302644
0.0300386
0.0296093
0.029356
0.0289326
0.0286516
0.0282293
0.0279241
0.0274996
0.0271676
0.0267374
0.0263834
0.025949
0.0255786
0.0251412
0.0247597
0.0243217
0.0239338
0.0234979
0.0231079
0.0226773
0.0222893
0.021867
0.0214846
0.0210735
0.0207001
0.0203031
0.0199419
0.0195616
0.0192156
0.0188542
0.0185258
0.0181855
0.0178762
0.0175576
0.0172688
0.0169738
0.0167073
0.0164368
0.0161932
0.015949
0.0157298
0.0155127
0.0153189
0.0151287
0.0149605
0.0147972
0.0146544
0.0145174
0.0143999
0.0142889
0.0141965
0.0141114
0.0140439
0.0139836
0.0139398
0.0139032
0.0138832
0.0138735
0.0138709
0.0138818
0.0139037
0.0139363
0.01398
0.0140336
0.0140979
0.0141713
0.014255
0.0143458
0.0144453
0.014551
0.014664
0.0147819
0.0149055
0.0150322
0.0151627
0.0152942
0.0154274
0.0155593
0.0156903
0.0158176
0.0159412
0.0160584
0.0161693
0.0162715
0.0163652
0.0164487
0.0165234
0.0165885
0.0166477
0.0167001
0.016746
0.016809
0.0169049
0.0170815
0.0173933
0.0179191
0.0186477
0.0196918
0.0437713
0.0434416
0.0433026
0.043038
0.04287
0.0425964
0.0423916
0.0420979
0.0418551
0.0415358
0.0412556
0.040908
0.0405908
0.0402133
0.0398596
0.0394518
0.0390625
0.0386247
0.038201
0.0377338
0.0372776
0.0367825
0.0362959
0.0357748
0.0352603
0.0347156
0.0341764
0.0336111
0.0330511
0.0324689
0.0318924
0.0312974
0.0307091
0.0301061
0.0295117
0.0289064
0.0283053
0.027697
0.0270963
0.026492
0.0258983
0.0253043
0.0247236
0.0241457
0.0235832
0.0230263
0.0224866
0.0219547
0.0214415
0.0209361
0.0204499
0.0199728
0.0195145
0.0190658
0.018635
0.0182146
0.0178114
0.0174179
0.0170434
0.0166789
0.0163319
0.0159951
0.0156743
0.0153618
0.0150632
0.0147719
0.0144922
0.0142171
0.0139508
0.0136925
0.0134421
0.0131979
0.0129605
0.0127271
0.0124994
0.0122739
0.012053
0.0118329
0.0116164
0.0113998
0.011186
0.010972
0.0107609
0.0105501
0.0103429
0.0101376
0.00993466
0.00973511
0.00954058
0.00935343
0.009177
0.00901551
0.00887462
0.008759
0.00870162
0.00868264
0.0087909
0.00905049
0.00945246
0.00963066
0.0553846
0.0553823
0.0553904
0.0554022
0.0554081
0.0554087
0.055396
0.0553634
0.0553233
0.0552549
0.0551871
0.0550843
0.0549834
0.0548436
0.0547051
0.0545257
0.0543457
0.0541241
0.0538992
0.0536326
0.0533599
0.0530459
0.052723
0.0523609
0.0519855
0.0515713
0.0511429
0.0506759
0.0501932
0.0496725
0.049135
0.0485608
0.0479688
0.0473417
0.0466967
0.0460187
0.0453229
0.0445962
0.0438523
0.04308
0.0422917
0.041478
0.0406503
0.0398003
0.0389393
0.0380596
0.0371722
0.0362701
0.035364
0.0344495
0.0335353
0.0326174
0.0317043
0.0307922
0.0298894
0.0289923
0.0281089
0.027236
0.02638
0.0255384
0.0247136
0.0239022
0.023111
0.0223362
0.021584
0.02085
0.0201406
0.0194521
0.0187891
0.0181436
0.0175219
0.0169172
0.0163345
0.0157674
0.01522
0.0146862
0.0141692
0.0136635
0.0131715
0.0126883
0.0122156
0.0117485
0.0112885
0.0108313
0.010378
0.00994654
0.00952744
0.00913094
0.0087475
0.00838747
0.00804295
0.00772522
0.0074271
0.00716707
0.00692864
0.00677083
0.0067012
0.00670015
0.00703198
0.00722021
0.0620821
0.0623996
0.0625421
0.062826
0.0630158
0.0632806
0.0634863
0.0637275
0.0639346
0.0641523
0.0643519
0.0645459
0.0647313
0.0649005
0.065066
0.0652088
0.0653493
0.065463
0.0655738
0.0656552
0.0657317
0.0657769
0.0658056
0.0658153
0.0658124
0.065769
0.0657162
0.0656244
0.0655176
0.0653722
0.0652066
0.0650014
0.0647712
0.0644995
0.0641984
0.0638538
0.0634825
0.0630671
0.0626198
0.0621284
0.0616005
0.0610251
0.0604129
0.0597511
0.0590515
0.0583018
0.0575137
0.0566764
0.0558007
0.0548781
0.0539182
0.0529142
0.0518754
0.0507962
0.049685
0.048538
0.0473632
0.0461575
0.0449292
0.0436758
0.0424099
0.0411262
0.0398363
0.0385357
0.0372355
0.0359316
0.0346344
0.0333404
0.0320592
0.0307876
0.0295349
0.0282978
0.0270849
0.0258933
0.0247305
0.0235933
0.0224842
0.0213991
0.0203438
0.0193151
0.0183178
0.0173495
0.0164134
0.0155081
0.0146358
0.0137936
0.0129762
0.0121863
0.0114189
0.0106777
0.00995837
0.00926429
0.00859394
0.00795468
0.00736095
0.00681248
0.00640054
0.00621284
0.00617433
0.00636102
0.0636333
0.0641144
0.0643302
0.064747
0.0650295
0.0654257
0.0657429
0.0661213
0.0664568
0.0668216
0.0671659
0.06752
0.0678667
0.0682115
0.068556
0.0688915
0.0692302
0.0695557
0.0698851
0.0701989
0.0705159
0.0708157
0.0711169
0.0714015
0.0716834
0.0719469
0.0722073
0.0724479
0.072684
0.0729019
0.073111
0.0733003
0.0734775
0.0736327
0.0737719
0.0738876
0.073985
0.0740554
0.0740958
0.0741119
0.0741129
0.0740606
0.0739901
0.0738697
0.073721
0.0735212
0.073285
0.0729949
0.072661
0.0722697
0.0718284
0.0713261
0.0707687
0.070149
0.0694697
0.0687232
0.0679184
0.0670428
0.0661084
0.0651022
0.064038
0.0629065
0.0617187
0.0604654
0.0591589
0.0577908
0.0563734
0.0548999
0.053382
0.0518149
0.050209
0.0485613
0.0468809
0.0451659
0.0434242
0.0416551
0.0398695
0.0380693
0.0362585
0.0344397
0.032616
0.0307912
0.0289679
0.0271519
0.0253458
0.0235571
0.0217903
0.0200537
0.0183543
0.01668
0.0150582
0.0134837
0.0119853
0.0105652
0.00927279
0.00807923
0.00708173
0.00635309
0.00603099
0.00600404
0.0612471
0.061746
0.0619739
0.0623963
0.0626937
0.0630971
0.0634318
0.063823
0.0641802
0.0645651
0.0649369
0.0653194
0.0657009
0.0660834
0.0664714
0.0668549
0.0672472
0.0676322
0.068027
0.068413
0.0688084
0.0691943
0.0695884
0.0699721
0.070361
0.0707383
0.0711164
0.0714789
0.0718349
0.0721911
0.0725442
0.0728943
0.0732428
0.0735875
0.073932
0.0742686
0.0746012
0.0749245
0.0752419
0.0755502
0.0758495
0.0761348
0.0764117
0.0766706
0.0769184
0.077145
0.077357
0.0775447
0.0777133
0.0778547
0.0779718
0.0780574
0.0781037
0.0781218
0.0781219
0.0780568
0.0779752
0.0778284
0.0776506
0.0774044
0.0771137
0.0767485
0.0763244
0.0758156
0.0752359
0.0745689
0.0738176
0.0729733
0.0720337
0.0709947
0.069853
0.0686087
0.0672589
0.0658071
0.0642516
0.0625986
0.0608477
0.0590046
0.0570702
0.0550489
0.0529415
0.0507499
0.0484731
0.0461106
0.0436593
0.041117
0.0384827
0.035753
0.032935
0.03005
0.0270989
0.0241011
0.021083
0.018089
0.015226
0.0125104
0.0101204
0.00808761
0.00662568
0.00592617
0.0562182
0.0566502
0.0568484
0.0572053
0.0574515
0.057795
0.05807
0.0584046
0.0586996
0.0590298
0.0593396
0.0596686
0.0599898
0.06032
0.0606502
0.0609829
0.0613201
0.061656
0.0619988
0.0623379
0.0626845
0.0630263
0.0633754
0.0637189
0.0640688
0.0644129
0.0647625
0.0651071
0.0654582
0.0658091
0.0661651
0.066522
0.0668829
0.0672442
0.0676077
0.0679731
0.0683422
0.0687125
0.0690855
0.0694595
0.0698352
0.0702113
0.0705887
0.0709648
0.0713413
0.071715
0.0720888
0.072459
0.0728263
0.0731855
0.0735372
0.0738745
0.0741955
0.0744933
0.0747579
0.0749753
0.0751996
0.0753818
0.0755578
0.0756937
0.0758162
0.0759027
0.075976
0.0760149
0.0760311
0.0760196
0.0759432
0.0758359
0.0756647
0.0754474
0.0751627
0.0748185
0.0743904
0.0738858
0.0732786
0.0725703
0.0717347
0.0707678
0.0696444
0.0683568
0.0668829
0.0652148
0.0633349
0.0612378
0.0589139
0.0563615
0.0535761
0.0505584
0.047324
0.0438532
0.0401282
0.0361109
0.031805
0.0272192
0.0225268
0.0182187
0.0144577
0.0116234
0.00943576
0.00727238
0.0498881
0.0501749
0.0503068
0.0505451
0.0506939
0.0509304
0.051095
0.0513263
0.0515061
0.0517328
0.0519258
0.0521497
0.0523536
0.0525763
0.0527889
0.0530118
0.0532311
0.0534549
0.053679
0.0539039
0.0541315
0.0543575
0.0545874
0.0548146
0.0550462
0.0552751
0.055509
0.0557413
0.0559801
0.0562184
0.056463
0.0567085
0.0569597
0.0572126
0.0574708
0.0577319
0.057998
0.0582676
0.0585428
0.0588218
0.0591066
0.059396
0.0596916
0.0599926
0.0603005
0.0606147
0.0609333
0.061255
0.061579
0.0619034
0.0622276
0.0625488
0.0628667
0.0631783
0.0634843
0.0637879
0.0640979
0.0643983
0.0647018
0.0649866
0.0652607
0.0654975
0.0657132
0.0659121
0.0660902
0.0662563
0.0663964
0.0665225
0.0666164
0.0666797
0.0667067
0.0667107
0.0666413
0.0665244
0.0663256
0.0660509
0.0656724
0.0651877
0.064572
0.0638187
0.0629059
0.0618255
0.0605594
0.0591019
0.0574431
0.0555744
0.0534601
0.0510872
0.0482827
0.0450501
0.0412795
0.0369509
0.0322311
0.0273607
0.022485
0.0180664
0.0146154
0.0122388
0.0107424
0.0092254
0.0311159
0.0311425
0.0311391
0.0311202
0.0310937
0.0310724
0.0310365
0.031014
0.0309745
0.03095
0.0309091
0.0308818
0.0308405
0.0308098
0.0307682
0.0307339
0.0306916
0.0306537
0.0306103
0.0305689
0.0305239
0.0304792
0.0304324
0.0303849
0.0303362
0.0302862
0.030236
0.0301841
0.0301325
0.030079
0.0300258
0.0299706
0.0299155
0.0298585
0.0298015
0.0297428
0.0296837
0.0296231
0.029562
0.0294994
0.0294362
0.0293713
0.0293055
0.0292378
0.0291685
0.0290966
0.0290217
0.0289432
0.0288607
0.0287736
0.0286816
0.0285842
0.0284813
0.0283727
0.0282587
0.0281396
0.0280137
0.0278776
0.0277315
0.0275685
0.0273892
0.027185
0.0269657
0.026737
0.026496
0.0262466
0.0259845
0.0257129
0.0254262
0.0251274
0.0248131
0.0244838
0.0241293
0.0237587
0.0233592
0.0229379
0.0224849
0.0220045
0.02149
0.0209442
0.0203629
0.0197486
0.0190991
0.0184165
0.0176982
0.016937
0.0161067
0.0151499
0.0140538
0.0127775
0.0112199
0.00930716
0.00710852
0.00498328
0.0030168
0.00232224
0.00260811
0.00528035
0.00862444
0.00984823
0.00947216
0.00467543
0.00403037
0.00390132
0.00387301
0.00389705
0.00381777
0.0037807
0.00376599
0.00376304
0.00378542
0.00385677
0.00413387
0.00471693
0.00547395
0.00655177
0.00692001
0.00690158
0.00576398
0.00340281
0.00777606
0.00468049
0.00428941
0.00419007
0.00416617
0.00404597
0.00396684
0.0039322
0.00392035
0.00392279
0.00397617
0.00416382
0.00455797
0.00514204
0.00622032
0.00686863
0.00700449
0.00675932
0.00519312
0.00278262
0.00621342
0.00478469
0.00460501
0.00454117
0.00436895
0.00426775
0.0042
0.00417289
0.00416486
0.00417782
0.00430542
0.004567
0.0050516
0.00599236
0.00679669
0.00704967
0.00703853
0.0064781
0.00456245
0.00215034
0.00579516
0.00511607
0.00503431
0.00479456
0.00463718
0.00452194
0.00446458
0.00444045
0.00443824
0.00454012
0.00476584
0.00519804
0.0060665
0.0068697
0.00719493
0.00725484
0.00697759
0.00602586
0.00378263
0.00154424
0.00591781
0.00548166
0.00534358
0.00505437
0.00493983
0.00486749
0.00484962
0.00488372
0.00500288
0.00528676
0.00568711
0.0065119
0.00718465
0.00748896
0.00757527
0.00739527
0.00678051
0.00540292
0.00293228
0.00101486
0.00628474
0.00593527
0.0058018
0.00561769
0.00558577
0.00559511
0.00572212
0.00595469
0.00637552
0.00689963
0.00752044
0.00800168
0.00820686
0.00825001
0.00796271
0.00732496
0.00636953
0.00458354
0.00189193
0.000561267
0.00721722
0.00709155
0.00707614
0.00710572
0.00738115
0.00770511
0.0082542
0.00895579
0.00963006
0.0098305
0.00989522
0.00975174
0.00942406
0.00883808
0.00801659
0.00707552
0.00563752
0.00346991
0.0011481
0.000251537
0.0108601
0.0113002
0.0118053
0.012465
0.0134242
0.0144103
0.0148905
0.0150407
0.0140089
0.0134128
0.01232
0.0115305
0.0103074
0.00917428
0.00784085
0.00644283
0.00445091
0.00224874
0.000646964
9.16866e-05
0.0252575
0.0257382
0.0259411
0.0259413
0.0252453
0.0238845
0.0222259
0.0199576
0.0182153
0.0162726
0.0144705
0.0126641
0.0107282
0.00894246
0.00708406
0.00504049
0.00296847
0.00131595
0.000390778
3.9419e-05
0.0411644
0.039383
0.0374113
0.0346174
0.0320765
0.0284859
0.0258638
0.0226916
0.0203109
0.0174293
0.0151771
0.0124447
0.0101177
0.00732546
0.00513349
0.00310124
0.00185533
0.000858999
0.000334062
6.11147e-05
0.0379907
0.0364549
0.0348546
0.0323772
0.0302085
0.0269029
0.0244873
0.0215811
0.01942
0.016763
0.0147743
0.012181
0.01023
0.0074344
0.00538489
0.00308586
0.00178018
0.000728235
0.000242439
4.80033e-05
0.0200806
0.0210033
0.0215144
0.0217674
0.0218498
0.021129
0.0199261
0.0180576
0.0167582
0.0149654
0.0137675
0.0119417
0.0106064
0.00878874
0.00721068
0.0051728
0.00295892
0.00116311
0.000285369
3.39537e-05
0.00947132
0.00966999
0.010077
0.0105435
0.0113355
0.0122507
0.0130386
0.0133491
0.0131654
0.0122424
0.0117941
0.0108633
0.0100316
0.0089766
0.00781822
0.0064871
0.00455518
0.00224081
0.000566426
4.56365e-05
0.00684794
0.00666642
0.00661157
0.00658517
0.00675643
0.00699668
0.00742408
0.00801727
0.00879646
0.0091665
0.00934294
0.00941009
0.00914931
0.00870831
0.00794733
0.00707076
0.00567246
0.00352676
0.00107157
0.000127116
0.00610538
0.00576936
0.00563772
0.00543543
0.00538541
0.00537157
0.00545294
0.00562681
0.00598736
0.00644181
0.00713109
0.00772869
0.00801592
0.00809436
0.00792655
0.00731032
0.00638992
0.0046521
0.00191331
0.000435218
0.00578598
0.00538285
0.00525314
0.00496868
0.00485189
0.0047695
0.0047436
0.00475538
0.00485461
0.00509689
0.00547585
0.00624684
0.00702893
0.00738841
0.00749147
0.00738722
0.00679452
0.00545427
0.00300657
0.00093504
0.00568118
0.00502087
0.00494892
0.00474286
0.00458537
0.00447323
0.00440756
0.00437797
0.00436941
0.00445263
0.00466674
0.00506615
0.00588555
0.0067787
0.00715365
0.00722423
0.00698918
0.0060713
0.00385845
0.00151229
0.00618021
0.00473059
0.00453199
0.00446449
0.00432381
0.00421878
0.0041539
0.00412724
0.00411935
0.00412848
0.00424297
0.004497
0.00495689
0.00585821
0.00674319
0.00703805
0.00704405
0.00651453
0.00463931
0.00215739
0.00780331
0.00465333
0.00425647
0.0041482
0.00411565
0.00402171
0.00393531
0.00389762
0.00388544
0.00388768
0.00393735
0.0041098
0.00449899
0.00507903
0.00613706
0.00684617
0.00700249
0.00678688
0.00525741
0.00281675
0.00947297
0.00465263
0.00399488
0.00386837
0.00383865
0.0038526
0.00379713
0.00375418
0.00373921
0.00373607
0.00375854
0.00382648
0.00407904
0.00464061
0.00542
0.0065221
0.00691892
0.00692008
0.00582735
0.00344959
0.00397118
0.00375019
0.00374679
0.0037468
0.00374652
0.00374628
0.00374612
0.00374604
0.003746
0.00374598
0.00374598
0.003746
0.00374604
0.00374612
0.00374628
0.00374652
0.0037468
0.00374679
0.00375019
0.00397117
0.00441489
0.00375346
0.00374141
0.00374096
0.00374056
0.00374012
0.00373987
0.00373975
0.00373969
0.00373966
0.00373966
0.00373969
0.00373975
0.00373987
0.00374012
0.00374056
0.00374096
0.00374141
0.00375346
0.00441489
0.0048594
0.00376059
0.00373287
0.00373264
0.00373284
0.00373273
0.00373256
0.00373242
0.00373235
0.00373231
0.00373231
0.00373235
0.00373242
0.00373256
0.00373273
0.00373284
0.00373264
0.00373287
0.00376059
0.0048594
0.00530178
0.00377206
0.0037243
0.00372396
0.00372492
0.00372524
0.00372525
0.00372519
0.00372514
0.00372512
0.00372512
0.00372514
0.00372519
0.00372525
0.00372524
0.00372492
0.00372396
0.0037243
0.00377206
0.00530179
0.00573924
0.00378544
0.0037155
0.00371483
0.00371665
0.00371758
0.00371789
0.00371795
0.00371795
0.00371795
0.00371795
0.00371795
0.00371795
0.00371789
0.00371758
0.00371665
0.00371483
0.00371551
0.00378544
0.00573924
0.00617058
0.00379767
0.00370577
0.0037051
0.003708
0.00370969
0.00371043
0.0037107
0.00371078
0.0037108
0.0037108
0.00371078
0.0037107
0.00371043
0.00370969
0.003708
0.0037051
0.00370577
0.00379767
0.00617059
0.00659185
0.00380847
0.00369498
0.00369474
0.00369894
0.00370155
0.00370284
0.0037034
0.00370361
0.00370368
0.00370368
0.00370361
0.0037034
0.00370284
0.00370155
0.00369894
0.00369474
0.00369498
0.00380847
0.00659185
0.00700084
0.00381671
0.00368272
0.00368362
0.00368941
0.00369311
0.00369508
0.00369602
0.00369642
0.00369656
0.00369656
0.00369642
0.00369602
0.00369508
0.00369311
0.00368941
0.00368362
0.00368272
0.00381671
0.00700084
0.00739336
0.00382333
0.00366915
0.00367174
0.00367942
0.00368437
0.00368714
0.00368854
0.00368919
0.00368943
0.00368943
0.00368919
0.00368854
0.00368714
0.00368437
0.00367942
0.00367174
0.00366915
0.00382334
0.00739335
0.00776768
0.00382735
0.00365405
0.00365903
0.00366893
0.00367532
0.00367898
0.00368095
0.0036819
0.00368228
0.00368228
0.0036819
0.00368095
0.00367898
0.00367532
0.00366893
0.00365903
0.00365405
0.00382735
0.00776768
0.00812024
0.00383021
0.00363764
0.00364552
0.00365794
0.00366592
0.00367061
0.00367321
0.00367453
0.00367507
0.00367507
0.00367453
0.00367321
0.00367061
0.00366592
0.00365794
0.00364552
0.00363765
0.00383021
0.00812023
0.00845034
0.00383068
0.00361989
0.00363122
0.00364645
0.0036562
0.00366201
0.00366531
0.00366705
0.00366779
0.00366779
0.00366705
0.00366531
0.00366201
0.0036562
0.00364645
0.00363121
0.00361989
0.00383069
0.00845034
0.00875525
0.00383018
0.0036009
0.00361613
0.00363446
0.00364613
0.00365316
0.00365725
0.00365946
0.00366041
0.00366041
0.00365946
0.00365725
0.00365316
0.00364613
0.00363446
0.00361613
0.00360091
0.00383019
0.00875524
0.00903545
0.00382886
0.00358085
0.00360032
0.00362199
0.00363573
0.00364408
0.00364901
0.00365173
0.00365292
0.00365292
0.00365173
0.00364901
0.00364408
0.00363573
0.00362199
0.00360032
0.00358084
0.00382886
0.00903544
0.00928895
0.00382647
0.00355981
0.00358379
0.00360904
0.003625
0.00363475
0.00364059
0.00364385
0.00364531
0.00364531
0.00364385
0.00364059
0.00363475
0.003625
0.00360904
0.0035838
0.00355982
0.00382648
0.00928894
0.00951739
0.0038234
0.00353794
0.00356664
0.00359565
0.00361394
0.00362518
0.00363197
0.00363582
0.00363755
0.00363755
0.00363582
0.00363197
0.00362518
0.00361394
0.00359565
0.00356663
0.00353793
0.00382339
0.00951738
0.00971929
0.00382011
0.00351531
0.00354885
0.00358181
0.00360255
0.00361535
0.00362316
0.00362762
0.00362964
0.00362964
0.00362762
0.00362316
0.00361535
0.00360255
0.00358181
0.00354886
0.00351532
0.00382012
0.00971928
0.00989731
0.00381663
0.00349216
0.00353055
0.00356758
0.00359087
0.00360529
0.00361414
0.00361924
0.00362157
0.00362157
0.00361924
0.00361414
0.00360529
0.00359087
0.00356757
0.00353054
0.00349215
0.00381662
0.0098973
0.0100502
0.00381347
0.00346849
0.0035117
0.00355293
0.00357887
0.00359499
0.00360492
0.00361068
0.00361332
0.00361332
0.00361068
0.00360492
0.00359499
0.00357888
0.00355293
0.00351171
0.00346851
0.00381348
0.0100502
0.0101815
0.00381057
0.00344463
0.00349248
0.00353795
0.0035666
0.00358445
0.0035955
0.00360193
0.0036049
0.0036049
0.00360193
0.00359549
0.00358445
0.0035666
0.00353795
0.00349247
0.00344461
0.00381057
0.0101815
0.0102898
0.00380853
0.00342045
0.00347279
0.0035226
0.00355404
0.00357367
0.00358587
0.003593
0.0035963
0.0035963
0.003593
0.00358587
0.00357367
0.00355404
0.00352261
0.0034728
0.00342048
0.00380854
0.0102897
0.0103794
0.00380714
0.00339644
0.00345288
0.00350698
0.00354123
0.00356267
0.00357603
0.00358387
0.00358751
0.00358751
0.00358387
0.00357603
0.00356267
0.00354123
0.00350697
0.00345286
0.00339641
0.00380714
0.0103794
0.0104486
0.00380736
0.00337228
0.00343258
0.00349103
0.00352816
0.00355145
0.003566
0.00357455
0.00357853
0.00357853
0.00357455
0.003566
0.00355145
0.00352816
0.00349104
0.0034326
0.00337232
0.00380737
0.0104486
0.0105025