/*--------------------------------*- C++ -*----------------------------------*\
| =========                 |                                                 |
| \\      /  F ield         | OpenFOAM: The Open Source CFD Toolbox           |
|  \\    /   O peration     | Version:  2.1.0                                 |
|   \\  /    A nd           | Web:      www.OpenFOAM.org                      |
|    \\/     M anipulation  |                                                 |
\*---------------------------------------------------------------------------*/
FoamFile
{
    version     2.0;
    format      ascii;
    class       volScalarField;
    location    "0.48";
    object      nut;
}
// * * * * * * * * * * * * * * * * * * * * * * * * * * * * * * * * * * * * * //

dimensions      [0 2 -1 0 0 0 0];

internalField   nonuniform List<scalar> 
6400
(
7.08452e-06
7.10333e-06
7.11577e-06
7.13172e-06
7.14608e-06
7.16441e-06
7.17946e-06
7.1988e-06
7.21458e-06
7.23472e-06
7.25129e-06
7.27189e-06
7.2894e-06
7.3103e-06
7.32882e-06
7.35e-06
7.36954e-06
7.39104e-06
7.41159e-06
7.43354e-06
7.45511e-06
7.47768e-06
7.50034e-06
7.52375e-06
7.54759e-06
7.572e-06
7.59708e-06
7.62264e-06
7.64902e-06
7.67582e-06
7.70356e-06
7.73172e-06
7.76088e-06
7.79051e-06
7.82118e-06
7.85239e-06
7.88467e-06
7.91756e-06
7.95155e-06
7.98615e-06
8.02174e-06
8.05783e-06
8.09483e-06
8.13223e-06
8.17037e-06
8.20881e-06
8.24776e-06
8.28688e-06
8.32628e-06
8.36573e-06
8.40528e-06
8.44473e-06
8.48392e-06
8.52213e-06
8.55853e-06
8.59269e-06
8.62335e-06
8.65663e-06
8.68695e-06
8.71939e-06
8.74951e-06
8.78144e-06
8.81219e-06
8.84415e-06
8.87511e-06
8.90696e-06
8.93796e-06
8.96956e-06
8.99955e-06
9.02858e-06
9.0566e-06
9.08261e-06
9.10729e-06
9.12971e-06
9.15065e-06
9.16988e-06
9.18842e-06
9.2071e-06
9.22765e-06
9.25222e-06
9.28343e-06
9.32404e-06
9.37488e-06
9.43041e-06
9.47709e-06
9.54031e-06
9.60651e-06
9.66744e-06
9.70082e-06
9.66019e-06
9.45898e-06
8.92671e-06
7.82544e-06
5.96505e-06
3.44715e-06
2.32031e-06
2.407e-06
3.78173e-06
3.87734e-06
4.18308e-06
7.54146e-05
7.58838e-05
7.59773e-05
7.62832e-05
7.63887e-05
7.66451e-05
7.6771e-05
7.69941e-05
7.71371e-05
7.73367e-05
7.74909e-05
7.76733e-05
7.78328e-05
7.80015e-05
7.81613e-05
7.83186e-05
7.84747e-05
7.86213e-05
7.87705e-05
7.89064e-05
7.90462e-05
7.91712e-05
7.93001e-05
7.94146e-05
7.9533e-05
7.96387e-05
7.97479e-05
7.98448e-05
7.99438e-05
8.00312e-05
8.01188e-05
8.01951e-05
8.02697e-05
8.0333e-05
8.03923e-05
8.044e-05
8.04813e-05
8.05101e-05
8.05339e-05
8.05466e-05
8.0553e-05
8.05447e-05
8.05251e-05
8.04894e-05
8.04379e-05
8.0367e-05
8.02751e-05
8.01593e-05
8.00167e-05
7.9845e-05
7.9641e-05
7.94037e-05
7.91364e-05
7.88428e-05
7.8507e-05
7.81321e-05
7.74344e-05
7.67076e-05
7.59203e-05
7.51035e-05
7.42316e-05
7.3325e-05
7.23708e-05
7.13847e-05
7.03486e-05
6.92746e-05
6.81498e-05
6.69883e-05
6.57761e-05
6.45019e-05
6.31743e-05
6.17816e-05
6.03254e-05
5.87994e-05
5.72028e-05
5.55332e-05
5.37898e-05
5.1974e-05
5.00871e-05
4.81341e-05
4.61194e-05
4.40525e-05
4.19428e-05
3.97965e-05
3.75978e-05
3.53085e-05
3.29382e-05
3.04626e-05
2.78787e-05
2.51791e-05
2.23839e-05
1.95275e-05
1.66927e-05
1.40216e-05
1.15075e-05
9.23649e-06
7.49676e-06
6.29065e-06
5.68016e-06
6.86391e-06
0.000115549
0.000115825
0.000115935
0.000116057
0.000116153
0.000116235
0.00011632
0.000116372
0.000116446
0.000116473
0.00011653
0.000116534
0.00011657
0.00011655
0.000116561
0.000116516
0.000116497
0.000116425
0.000116374
0.000116273
0.000116186
0.000116051
0.000115923
0.00011575
0.00011558
0.000115372
0.000115168
0.000114931
0.000114692
0.000114423
0.000114148
0.000113845
0.000113532
0.000113192
0.00011284
0.000112462
0.000112069
0.00011165
0.000111204
0.000110726
0.000110224
0.000109695
0.000109135
0.000108544
0.000107917
0.000107254
0.000106549
0.000105802
0.000105004
0.000104154
0.000103242
0.000102148
0.000100632
9.90891e-05
9.74908e-05
9.58677e-05
9.42069e-05
9.25213e-05
9.07962e-05
8.90426e-05
8.72663e-05
8.54791e-05
8.36295e-05
8.17681e-05
7.98583e-05
7.79305e-05
7.59623e-05
7.39739e-05
7.19507e-05
6.99059e-05
6.78287e-05
6.57263e-05
6.35909e-05
6.14261e-05
5.9226e-05
5.69928e-05
5.47221e-05
5.24171e-05
5.00757e-05
4.77034e-05
4.53017e-05
4.28796e-05
4.04427e-05
3.80028e-05
3.55723e-05
3.31818e-05
3.0832e-05
2.85471e-05
2.63242e-05
2.41765e-05
2.20738e-05
2.00382e-05
1.804e-05
1.59949e-05
1.3948e-05
1.19391e-05
1.01375e-05
8.6261e-06
8.12567e-06
1.13134e-05
0.000137753
0.000137482
0.000137379
0.000137114
0.000137011
0.000136718
0.000136589
0.000136276
0.000136109
0.000135777
0.00013557
0.000135218
0.000134967
0.000134591
0.000134296
0.000133893
0.000133551
0.000133117
0.000132726
0.000132256
0.000131813
0.000131299
0.0001308
0.000130237
0.000129668
0.00012874
0.000127698
0.000126615
0.000125517
0.000124385
0.000123237
0.000122057
0.000120858
0.000119627
0.000118375
0.000117092
0.000115786
0.000114448
0.000113089
0.000111697
0.000110275
0.000108829
0.000107349
0.000105844
0.000104306
0.000102743
0.000101147
9.95253e-05
9.78721e-05
9.61863e-05
9.44751e-05
9.27582e-05
9.1008e-05
8.92433e-05
8.7452e-05
8.56491e-05
8.38236e-05
8.19826e-05
8.01145e-05
7.82264e-05
7.63101e-05
7.43738e-05
7.24134e-05
7.04372e-05
6.84381e-05
6.64269e-05
6.4397e-05
6.23599e-05
6.03116e-05
5.82635e-05
5.62136e-05
5.41731e-05
5.21426e-05
5.01322e-05
4.81432e-05
4.61852e-05
4.42587e-05
4.23716e-05
4.0523e-05
3.87175e-05
3.69517e-05
3.52269e-05
3.35321e-05
3.18676e-05
3.02413e-05
2.86203e-05
2.70115e-05
2.5406e-05
2.3798e-05
2.21797e-05
2.0547e-05
1.88958e-05
1.72159e-05
1.54858e-05
1.37161e-05
1.19876e-05
1.05124e-05
9.77675e-06
1.19118e-05
1.2061e-05
0.000140559
0.000140675
0.000140411
0.00014026
0.000139491
0.000138891
0.000137976
0.000137182
0.000136218
0.000135319
0.000134325
0.000133355
0.000132333
0.000131306
0.000130251
0.000129175
0.000128082
0.000126957
0.000125822
0.00012465
0.000123469
0.00012225
0.000121021
0.000119756
0.000118472
0.000117169
0.000115851
0.000114505
0.000113145
0.000111759
0.000110361
0.000108938
0.000107501
0.00010604
0.000104565
0.000103067
0.000101555
0.00010001
9.84592e-05
9.69086e-05
9.53103e-05
9.37185e-05
9.20922e-05
9.04648e-05
8.88112e-05
8.71535e-05
8.54757e-05
8.37935e-05
8.20968e-05
8.03976e-05
7.86904e-05
7.69823e-05
7.5269e-05
7.35551e-05
7.18343e-05
7.01145e-05
6.8396e-05
6.66832e-05
6.49752e-05
6.32767e-05
6.1587e-05
5.99117e-05
5.82502e-05
5.66077e-05
5.49829e-05
5.33807e-05
5.17994e-05
5.02432e-05
4.87091e-05
4.72008e-05
4.571e-05
4.42447e-05
4.28089e-05
4.13804e-05
3.99778e-05
3.85844e-05
3.72074e-05
3.58343e-05
3.4469e-05
3.31e-05
3.17295e-05
3.03506e-05
2.8964e-05
2.75699e-05
2.61706e-05
2.4765e-05
2.3367e-05
2.19692e-05
2.05909e-05
1.92312e-05
1.79074e-05
1.66194e-05
1.53877e-05
1.41963e-05
1.31039e-05
1.22703e-05
1.20796e-05
1.37498e-05
1.37877e-05
1.41385e-05
0.000127647
0.000127026
0.000126613
0.000126071
0.000125141
0.000124234
0.000123139
0.000122075
0.000120919
0.000119777
0.000118592
0.000117402
0.000116196
0.000114972
0.000113745
0.000112493
0.000111247
0.000109972
0.000108707
0.000107412
0.000106124
0.000104813
0.000103507
0.000102202
0.00010087
9.95428e-05
9.81958e-05
9.68377e-05
9.54734e-05
9.40958e-05
9.27127e-05
9.13158e-05
8.99142e-05
8.84996e-05
8.70815e-05
8.5652e-05
8.42202e-05
8.27797e-05
8.13403e-05
7.98934e-05
7.84476e-05
7.70019e-05
7.55567e-05
7.41163e-05
7.26784e-05
7.12487e-05
6.98241e-05
6.84101e-05
6.70036e-05
6.56097e-05
6.42249e-05
6.28526e-05
6.14902e-05
6.01414e-05
5.88037e-05
5.74797e-05
5.61678e-05
5.48753e-05
5.35983e-05
5.23308e-05
5.10809e-05
4.98402e-05
4.86135e-05
4.73952e-05
4.61877e-05
4.49874e-05
4.37954e-05
4.26094e-05
4.14298e-05
4.02556e-05
3.90869e-05
3.79252e-05
3.67716e-05
3.56248e-05
3.44875e-05
3.33558e-05
3.22365e-05
3.11256e-05
3.00339e-05
2.89543e-05
2.7895e-05
2.6852e-05
2.58325e-05
2.48329e-05
2.38595e-05
2.2909e-05
2.19803e-05
2.10768e-05
2.021e-05
1.9381e-05
1.86052e-05
1.78906e-05
1.72649e-05
1.67628e-05
1.65158e-05
1.66377e-05
1.60619e-05
1.5818e-05
1.57931e-05
1.32108e-05
0.000112073
0.000110897
0.000110345
0.000109471
0.000108532
0.00010744
0.000106354
0.000105178
0.000104035
0.000102828
0.000101662
0.000100442
9.92645e-05
9.80395e-05
9.68562e-05
9.56302e-05
9.4444e-05
9.32204e-05
9.20345e-05
9.08165e-05
8.96344e-05
8.84271e-05
8.72558e-05
8.60559e-05
8.48846e-05
8.36993e-05
8.25346e-05
8.13609e-05
8.02066e-05
7.90461e-05
7.79025e-05
7.67548e-05
7.56224e-05
7.44875e-05
7.33665e-05
7.22443e-05
7.11346e-05
7.00247e-05
6.89259e-05
6.78235e-05
6.67344e-05
6.5651e-05
6.45722e-05
6.34996e-05
6.24327e-05
6.13717e-05
6.03161e-05
5.9266e-05
5.82209e-05
5.7182e-05
5.61475e-05
5.51197e-05
5.40966e-05
5.3082e-05
5.20755e-05
5.10814e-05
5.00884e-05
4.91088e-05
4.81339e-05
4.71703e-05
4.62153e-05
4.52736e-05
4.4345e-05
4.34315e-05
4.25331e-05
4.16502e-05
4.07924e-05
3.99526e-05
3.91386e-05
3.83455e-05
3.75797e-05
3.6836e-05
3.61161e-05
3.54184e-05
3.47436e-05
3.40892e-05
3.34554e-05
3.28369e-05
3.22366e-05
3.12932e-05
3.03378e-05
2.93905e-05
2.84612e-05
2.7541e-05
2.66398e-05
2.57491e-05
2.48793e-05
2.40227e-05
2.31918e-05
2.23814e-05
2.16066e-05
2.08663e-05
2.01751e-05
1.95429e-05
1.90016e-05
1.85974e-05
1.83371e-05
1.82334e-05
1.89294e-05
1.49388e-05
0.000100878
9.91294e-05
9.85634e-05
9.74756e-05
9.66205e-05
9.54481e-05
9.44876e-05
9.3313e-05
9.23208e-05
9.1174e-05
9.01826e-05
8.90716e-05
8.80917e-05
8.70172e-05
8.60524e-05
8.50105e-05
8.40604e-05
8.3046e-05
8.21084e-05
8.11156e-05
8.01868e-05
7.92062e-05
7.8207e-05
7.68859e-05
7.56302e-05
7.43344e-05
7.31202e-05
7.18638e-05
7.06873e-05
6.94779e-05
6.83478e-05
6.7193e-05
6.61167e-05
6.50227e-05
6.40061e-05
6.29758e-05
6.2021e-05
6.10575e-05
6.01673e-05
5.92725e-05
5.8447e-05
5.76199e-05
5.68561e-05
5.60903e-05
5.53845e-05
5.46769e-05
5.40249e-05
5.33708e-05
5.27672e-05
5.21611e-05
5.15995e-05
5.10358e-05
5.05077e-05
4.99761e-05
4.94715e-05
4.89665e-05
4.84799e-05
4.79917e-05
4.75124e-05
4.70288e-05
4.65479e-05
4.60602e-05
4.55702e-05
4.50652e-05
4.45563e-05
4.40548e-05
4.35326e-05
4.30131e-05
4.24862e-05
4.19613e-05
4.14287e-05
4.0898e-05
4.03601e-05
3.98233e-05
3.92795e-05
3.87362e-05
3.8186e-05
3.76352e-05
3.70782e-05
3.65169e-05
3.59472e-05
3.53646e-05
3.47689e-05
3.41555e-05
3.35233e-05
3.28676e-05
3.21873e-05
3.14786e-05
3.07423e-05
2.99793e-05
2.91969e-05
2.84054e-05
2.76242e-05
2.6879e-05
2.62628e-05
2.58046e-05
2.5428e-05
2.56002e-05
2.61343e-05
2.05148e-05
8.40973e-05
8.1996e-05
8.11421e-05
7.95523e-05
7.86599e-05
7.71788e-05
7.62553e-05
7.48765e-05
7.3935e-05
7.26183e-05
7.17093e-05
7.04533e-05
6.95717e-05
6.83776e-05
6.75272e-05
6.63977e-05
6.55832e-05
6.45206e-05
6.37468e-05
6.2753e-05
6.20248e-05
6.11019e-05
6.0423e-05
5.95761e-05
5.89565e-05
5.8193e-05
5.76362e-05
5.69525e-05
5.6459e-05
5.5852e-05
5.54199e-05
5.48857e-05
5.45106e-05
5.40449e-05
5.37208e-05
5.33201e-05
5.30428e-05
5.27012e-05
5.24635e-05
5.21746e-05
5.19704e-05
5.17246e-05
5.15485e-05
5.13375e-05
5.11839e-05
5.10003e-05
5.0864e-05
5.06939e-05
5.05651e-05
5.04357e-05
5.03103e-05
5.01912e-05
5.00455e-05
4.99488e-05
4.98243e-05
4.97355e-05
4.96266e-05
4.95462e-05
4.94548e-05
4.93878e-05
4.93145e-05
4.92623e-05
4.92072e-05
4.91704e-05
4.91333e-05
4.91117e-05
4.90939e-05
4.90904e-05
4.90903e-05
4.91036e-05
4.91209e-05
4.91506e-05
4.91843e-05
4.92292e-05
4.92779e-05
4.93359e-05
4.93963e-05
4.94635e-05
4.95308e-05
4.96021e-05
4.96703e-05
4.97365e-05
4.97928e-05
4.98383e-05
4.98643e-05
4.98671e-05
4.98374e-05
4.97684e-05
4.96499e-05
4.94769e-05
4.92422e-05
4.89464e-05
4.85923e-05
4.81929e-05
4.7776e-05
4.74254e-05
4.72939e-05
4.74255e-05
4.79662e-05
3.97702e-05
7.42604e-05
7.23938e-05
7.16462e-05
7.0243e-05
6.95374e-05
6.82156e-05
6.75483e-05
6.63147e-05
6.56846e-05
6.45428e-05
6.39542e-05
6.29019e-05
6.23578e-05
6.13938e-05
6.08961e-05
6.00185e-05
5.95685e-05
5.87749e-05
5.83728e-05
5.766e-05
5.73054e-05
5.66698e-05
5.63614e-05
5.5799e-05
5.55345e-05
5.50401e-05
5.48157e-05
5.43836e-05
5.41957e-05
5.38219e-05
5.36637e-05
5.33521e-05
5.32011e-05
5.29503e-05
5.28251e-05
5.26319e-05
5.25071e-05
5.23705e-05
5.22431e-05
5.21441e-05
5.20518e-05
5.19752e-05
5.19101e-05
5.18577e-05
5.18193e-05
5.17897e-05
5.17767e-05
5.17701e-05
5.17824e-05
5.17994e-05
5.18347e-05
5.18752e-05
5.19337e-05
5.20022e-05
5.20855e-05
5.21816e-05
5.22908e-05
5.24145e-05
5.25503e-05
5.27013e-05
5.28643e-05
5.30431e-05
5.32343e-05
5.34426e-05
5.36636e-05
5.3902e-05
5.41539e-05
5.44235e-05
5.47074e-05
5.50094e-05
5.53268e-05
5.56628e-05
5.60157e-05
5.63883e-05
5.67793e-05
5.71915e-05
5.76243e-05
5.80801e-05
5.85587e-05
5.90623e-05
5.95908e-05
6.01473e-05
6.07328e-05
6.13501e-05
6.20011e-05
6.26892e-05
6.34169e-05
6.41888e-05
6.50101e-05
6.5886e-05
6.68232e-05
6.78286e-05
6.89101e-05
7.00755e-05
7.13311e-05
7.26707e-05
7.40878e-05
7.55494e-05
7.62746e-05
6.62003e-05
7.88442e-05
7.68768e-05
7.60866e-05
7.45966e-05
7.38345e-05
7.24301e-05
7.16963e-05
7.03824e-05
6.96799e-05
6.84599e-05
6.77913e-05
6.66682e-05
6.60364e-05
6.50109e-05
6.4422e-05
6.34883e-05
6.29479e-05
6.21017e-05
6.16123e-05
6.08494e-05
6.04119e-05
5.97279e-05
5.93411e-05
5.87313e-05
5.83929e-05
5.7852e-05
5.75586e-05
5.70813e-05
5.68289e-05
5.64092e-05
5.61932e-05
5.58254e-05
5.56402e-05
5.53197e-05
5.51595e-05
5.48809e-05
5.47402e-05
5.44907e-05
5.43618e-05
5.41835e-05
5.40303e-05
5.39073e-05
5.37586e-05
5.36434e-05
5.35354e-05
5.34402e-05
5.33563e-05
5.32815e-05
5.32211e-05
5.31673e-05
5.31302e-05
5.30985e-05
5.3085e-05
5.30767e-05
5.30853e-05
5.31015e-05
5.3136e-05
5.31781e-05
5.32388e-05
5.33068e-05
5.33925e-05
5.3488e-05
5.35998e-05
5.37233e-05
5.38629e-05
5.40151e-05
5.41832e-05
5.43645e-05
5.45616e-05
5.47725e-05
5.49997e-05
5.52406e-05
5.54984e-05
5.57705e-05
5.60595e-05
5.63639e-05
5.66867e-05
5.70263e-05
5.73857e-05
5.77639e-05
5.81638e-05
5.85851e-05
5.90307e-05
5.95008e-05
5.99986e-05
6.05248e-05
6.1083e-05
6.16746e-05
6.23026e-05
6.29685e-05
6.36767e-05
6.44327e-05
6.52559e-05
6.61509e-05
6.71428e-05
6.82485e-05
6.95129e-05
7.0908e-05
7.19432e-05
6.30813e-05
9.66385e-05
9.44748e-05
9.35854e-05
9.19164e-05
9.09704e-05
8.93905e-05
8.83952e-05
8.68939e-05
8.58622e-05
8.44402e-05
8.3373e-05
8.20297e-05
8.09428e-05
7.96537e-05
7.85985e-05
7.73525e-05
7.63313e-05
7.51357e-05
7.41525e-05
7.30128e-05
7.20723e-05
7.09925e-05
7.0099e-05
6.90823e-05
6.82394e-05
6.72882e-05
6.64966e-05
6.56136e-05
6.48778e-05
6.40617e-05
6.3383e-05
6.26333e-05
6.2012e-05
6.13275e-05
6.07607e-05
6.01371e-05
5.96228e-05
5.90571e-05
5.8592e-05
5.80803e-05
5.76586e-05
5.71952e-05
5.68056e-05
5.6384e-05
5.60235e-05
5.56365e-05
5.52997e-05
5.49397e-05
5.46206e-05
5.42803e-05
5.39736e-05
5.3643e-05
5.33366e-05
5.30289e-05
5.27385e-05
5.2431e-05
5.21504e-05
5.18553e-05
5.15865e-05
5.13164e-05
5.10381e-05
5.07729e-05
5.05145e-05
5.02607e-05
5.0015e-05
4.97723e-05
4.95383e-05
4.93086e-05
4.90879e-05
4.8866e-05
4.86491e-05
4.84298e-05
4.82127e-05
4.79892e-05
4.77637e-05
4.7528e-05
4.72859e-05
4.70292e-05
4.67616e-05
4.64753e-05
4.61762e-05
4.58558e-05
4.55188e-05
4.51579e-05
4.47774e-05
4.43717e-05
4.39453e-05
4.34951e-05
4.30278e-05
4.25418e-05
4.20477e-05
4.15434e-05
4.10303e-05
4.05486e-05
4.01227e-05
3.98238e-05
3.97429e-05
4.00061e-05
4.06457e-05
3.43553e-05
0.000104597
0.000103056
0.000102418
0.000101321
0.00010043
9.92332e-05
9.82296e-05
9.70189e-05
9.59752e-05
9.4784e-05
9.37324e-05
9.25706e-05
9.15244e-05
9.03912e-05
8.93572e-05
8.82511e-05
8.72306e-05
8.61503e-05
8.5144e-05
8.4088e-05
8.30963e-05
8.20635e-05
8.10872e-05
8.00754e-05
7.91127e-05
7.81151e-05
7.71705e-05
7.61957e-05
7.52598e-05
7.43033e-05
7.33823e-05
7.24446e-05
7.15386e-05
7.06195e-05
6.97305e-05
6.88322e-05
6.79435e-05
6.70463e-05
6.61619e-05
6.52725e-05
6.43968e-05
6.35207e-05
6.266e-05
6.18024e-05
6.09629e-05
6.01297e-05
5.93187e-05
5.85165e-05
5.77399e-05
5.69719e-05
5.62317e-05
5.55026e-05
5.48019e-05
5.41138e-05
5.34509e-05
5.28049e-05
5.21869e-05
5.14646e-05
5.07349e-05
4.99946e-05
4.9269e-05
4.85326e-05
4.78041e-05
4.70593e-05
4.63166e-05
4.55568e-05
4.47965e-05
4.40122e-05
4.32191e-05
4.24291e-05
4.16373e-05
4.08277e-05
4.00258e-05
3.92091e-05
3.8401e-05
3.7581e-05
3.67703e-05
3.59509e-05
3.51422e-05
3.43286e-05
3.35206e-05
3.27093e-05
3.19073e-05
3.11065e-05
3.03195e-05
2.9539e-05
2.87697e-05
2.80123e-05
2.72735e-05
2.65567e-05
2.58713e-05
2.52247e-05
2.46303e-05
2.40959e-05
2.37126e-05
2.33999e-05
2.33683e-05
2.36431e-05
2.43838e-05
1.89185e-05
0.000118423
0.00011728
0.000116747
0.000115866
0.000114899
0.000113788
0.000112659
0.000111442
0.000110244
0.000108984
0.000107764
0.000106488
0.000105255
0.000103969
0.000102725
0.000101432
0.000100178
9.88785e-05
9.76139e-05
9.63095e-05
9.50364e-05
9.37286e-05
9.24496e-05
9.11424e-05
8.98576e-05
8.85497e-05
8.72638e-05
8.59568e-05
8.46697e-05
8.33659e-05
8.20818e-05
8.07841e-05
7.95046e-05
7.82154e-05
7.6944e-05
7.56668e-05
7.441e-05
7.31499e-05
7.19088e-05
7.06665e-05
6.94409e-05
6.82151e-05
6.70029e-05
6.57961e-05
6.46046e-05
6.34101e-05
6.22327e-05
6.10539e-05
5.98901e-05
5.87284e-05
5.75807e-05
5.64359e-05
5.53048e-05
5.41778e-05
5.30636e-05
5.19541e-05
5.08593e-05
4.97716e-05
4.87013e-05
4.76432e-05
4.65983e-05
4.55593e-05
4.45355e-05
4.35223e-05
4.25265e-05
4.1544e-05
4.05825e-05
3.96433e-05
3.87293e-05
3.78368e-05
3.69718e-05
3.61309e-05
3.53192e-05
3.45316e-05
3.37687e-05
3.30296e-05
3.23146e-05
3.16225e-05
3.09523e-05
3.03022e-05
2.96666e-05
2.9049e-05
2.84431e-05
2.78513e-05
2.68371e-05
2.58608e-05
2.49063e-05
2.3997e-05
2.31142e-05
2.22814e-05
2.14821e-05
2.07413e-05
2.00415e-05
1.94159e-05
1.88209e-05
1.84109e-05
1.81794e-05
1.79933e-05
1.87269e-05
1.44605e-05
0.000134792
0.000134155
0.000133741
0.000133162
0.000132194
0.000131222
0.000130072
0.000128935
0.000127717
0.0001265
0.00012525
0.000123984
0.000122708
0.000121405
0.000120105
0.00011877
0.000117444
0.000116081
0.00011473
0.000113342
0.000111966
0.000110557
0.000109143
0.000107722
0.000106308
0.000104858
0.000103425
0.000101963
0.000100518
9.90451e-05
9.75772e-05
9.60847e-05
9.45935e-05
9.30812e-05
9.15689e-05
9.00386e-05
8.85179e-05
8.69839e-05
8.54567e-05
8.3921e-05
8.23895e-05
8.08507e-05
7.93195e-05
7.77824e-05
7.62554e-05
7.47251e-05
7.32071e-05
7.16896e-05
7.01865e-05
6.86878e-05
6.72053e-05
6.57308e-05
6.42741e-05
6.28279e-05
6.1399e-05
5.99815e-05
5.85823e-05
5.71924e-05
5.58203e-05
5.44669e-05
5.31278e-05
5.18104e-05
5.05093e-05
4.9226e-05
4.79574e-05
4.67026e-05
4.54601e-05
4.42278e-05
4.30056e-05
4.17907e-05
4.05841e-05
3.93828e-05
3.81887e-05
3.70008e-05
3.58246e-05
3.46551e-05
3.34942e-05
3.23408e-05
3.11958e-05
3.00621e-05
2.89394e-05
2.78333e-05
2.67414e-05
2.56709e-05
2.46159e-05
2.35825e-05
2.25667e-05
2.15749e-05
2.06003e-05
1.96521e-05
1.87412e-05
1.78706e-05
1.70524e-05
1.63924e-05
1.59634e-05
1.61333e-05
1.60763e-05
1.58675e-05
1.58837e-05
1.31639e-05
0.000146583
0.000146694
0.000146421
0.000146216
0.000145408
0.000144731
0.000143761
0.000142887
0.000141863
0.000140887
0.000139832
0.000138789
0.000137705
0.000136609
0.000135493
0.00013435
0.000133199
0.000132013
0.000130824
0.000129596
0.000128366
0.000127098
0.000125824
0.000124517
0.0001232
0.000121849
0.000120491
0.000119097
0.000117708
0.000116286
0.000114855
0.000113398
0.000111932
0.000110442
0.00010894
0.000107416
0.000105883
0.000104327
0.000102749
0.000101159
9.95728e-05
9.79407e-05
9.63134e-05
9.46523e-05
9.2989e-05
9.12981e-05
8.96018e-05
8.78824e-05
8.61566e-05
8.4412e-05
8.2662e-05
8.08981e-05
7.91316e-05
7.73582e-05
7.55834e-05
7.38051e-05
7.20291e-05
7.02456e-05
6.8468e-05
6.66872e-05
6.4918e-05
6.31549e-05
6.14086e-05
5.96733e-05
5.79601e-05
5.62627e-05
5.45914e-05
5.29405e-05
5.13184e-05
4.972e-05
4.81515e-05
4.6608e-05
4.50931e-05
4.35961e-05
4.21279e-05
4.06897e-05
3.92559e-05
3.78525e-05
3.64502e-05
3.50645e-05
3.36729e-05
3.22846e-05
3.08824e-05
2.94725e-05
2.8041e-05
2.65958e-05
2.51326e-05
2.36533e-05
2.21692e-05
2.06731e-05
1.91855e-05
1.76989e-05
1.62136e-05
1.47898e-05
1.34775e-05
1.24363e-05
1.20866e-05
1.36438e-05
1.38508e-05
1.43363e-05
0.000140785
0.000140463
0.000140335
0.000140014
0.000139876
0.000139531
0.000139362
0.000139002
0.000138797
0.000138423
0.000138177
0.000137787
0.0001375
0.00013709
0.00013676
0.000136326
0.000135952
0.000135491
0.000135072
0.000134578
0.000134113
0.000133582
0.000133067
0.000132494
0.000131924
0.000131299
0.000130666
0.000129971
0.000128856
0.000127715
0.000126551
0.000125365
0.000124162
0.000122937
0.000121699
0.000120432
0.000119146
0.000117832
0.000116496
0.000115134
0.000113749
0.000112331
0.000110893
0.00010942
0.000107926
0.000106397
0.000104845
0.000103258
0.000101647
0.000100003
9.83336e-05
9.66324e-05
9.4894e-05
9.31356e-05
9.13711e-05
8.95555e-05
8.77413e-05
8.58813e-05
8.40188e-05
8.21194e-05
8.02137e-05
7.82758e-05
7.63261e-05
7.43415e-05
7.23406e-05
7.03119e-05
6.82654e-05
6.61982e-05
6.4115e-05
6.20179e-05
5.99109e-05
5.77994e-05
5.56876e-05
5.35833e-05
5.14909e-05
4.94196e-05
4.7373e-05
4.53596e-05
4.33822e-05
4.14464e-05
3.9553e-05
3.77037e-05
3.58959e-05
3.41268e-05
3.23805e-05
3.0659e-05
2.89768e-05
2.72689e-05
2.55761e-05
2.38566e-05
2.21191e-05
2.0326e-05
1.84651e-05
1.65336e-05
1.46136e-05
1.26977e-05
1.1039e-05
1.00806e-05
1.19765e-05
1.21315e-05
0.000116525
0.000116753
0.000116841
0.000116918
0.000116987
0.000117026
0.000117084
0.000117096
0.00011714
0.00011713
0.000117157
0.000117126
0.000117131
0.00011708
0.000117063
0.000116992
0.000116951
0.000116858
0.000116789
0.000116673
0.000116572
0.000116429
0.000116295
0.000116121
0.00011595
0.000115742
0.000115533
0.00011529
0.000115043
0.000114775
0.000114498
0.000114202
0.000113894
0.000113565
0.000113222
0.00011286
0.000112486
0.000112095
0.000111681
0.000111245
0.000110785
0.000110298
0.000109785
0.00010924
0.000108664
0.000108059
0.000107426
0.000106764
0.000106073
0.000105339
0.000104567
0.000103744
0.000102872
0.000101941
0.000100915
9.93609e-05
9.77891e-05
9.61436e-05
9.44778e-05
9.27527e-05
9.10058e-05
8.92135e-05
8.7407e-05
8.55594e-05
8.36884e-05
8.17909e-05
7.9832e-05
7.78528e-05
7.58241e-05
7.37696e-05
7.1674e-05
6.95504e-05
6.73829e-05
6.51849e-05
6.2941e-05
6.06607e-05
5.83311e-05
5.59588e-05
5.35347e-05
5.10646e-05
4.85447e-05
4.59828e-05
4.33815e-05
4.07531e-05
3.81086e-05
3.54666e-05
3.28457e-05
3.02689e-05
2.77687e-05
2.53533e-05
2.30105e-05
2.07369e-05
1.85356e-05
1.62978e-05
1.4135e-05
1.21307e-05
1.03197e-05
8.92086e-06
8.37946e-06
1.15374e-05
7.48773e-05
7.53148e-05
7.53988e-05
7.56711e-05
7.57626e-05
7.59871e-05
7.60965e-05
7.62897e-05
7.64146e-05
7.65865e-05
7.67218e-05
7.68786e-05
7.70192e-05
7.7165e-05
7.73067e-05
7.74437e-05
7.7583e-05
7.77119e-05
7.78458e-05
7.79665e-05
7.80927e-05
7.82047e-05
7.83214e-05
7.8424e-05
7.853e-05
7.8623e-05
7.87184e-05
7.88024e-05
7.8889e-05
7.8966e-05
7.9043e-05
7.91116e-05
7.91778e-05
7.92358e-05
7.92896e-05
7.93352e-05
7.93744e-05
7.94039e-05
7.94285e-05
7.94439e-05
7.94527e-05
7.94524e-05
7.94443e-05
7.94271e-05
7.94021e-05
7.93682e-05
7.9322e-05
7.92613e-05
7.91839e-05
7.90866e-05
7.89682e-05
7.88241e-05
7.86537e-05
7.84526e-05
7.82209e-05
7.79611e-05
7.76872e-05
7.73761e-05
7.70446e-05
7.66662e-05
7.62505e-05
7.56742e-05
7.48462e-05
7.39623e-05
7.30234e-05
7.20421e-05
7.10046e-05
6.99253e-05
6.87852e-05
6.75879e-05
6.63286e-05
6.50225e-05
6.36223e-05
6.21571e-05
6.0599e-05
5.89599e-05
5.72218e-05
5.53916e-05
5.34583e-05
5.14281e-05
4.92961e-05
4.70705e-05
4.47523e-05
4.2353e-05
3.98815e-05
3.73485e-05
3.47484e-05
3.20954e-05
2.93121e-05
2.64456e-05
2.34827e-05
2.04602e-05
1.74845e-05
1.46344e-05
1.19459e-05
9.59181e-06
7.77108e-06
6.54232e-06
5.87324e-06
6.77698e-06
6.97637e-06
6.99304e-06
7.00466e-06
7.01831e-06
7.03217e-06
7.04865e-06
7.06274e-06
7.08068e-06
7.09535e-06
7.11407e-06
7.12959e-06
7.14877e-06
7.16528e-06
7.1848e-06
7.20235e-06
7.22219e-06
7.24077e-06
7.261e-06
7.28057e-06
7.30128e-06
7.32182e-06
7.34314e-06
7.36467e-06
7.38676e-06
7.40937e-06
7.43242e-06
7.45623e-06
7.48046e-06
7.50559e-06
7.53113e-06
7.55766e-06
7.58466e-06
7.61268e-06
7.64127e-06
7.67092e-06
7.70126e-06
7.7327e-06
7.76497e-06
7.79843e-06
7.83285e-06
7.86854e-06
7.90531e-06
7.94341e-06
7.98269e-06
8.02332e-06
8.06511e-06
8.10807e-06
8.15215e-06
8.19736e-06
8.24366e-06
8.29111e-06
8.33968e-06
8.38958e-06
8.44082e-06
8.49377e-06
8.5485e-06
8.60483e-06
8.66176e-06
8.7196e-06
8.77636e-06
8.83248e-06
8.88529e-06
8.93808e-06
8.99301e-06
9.0493e-06
9.10865e-06
9.16993e-06
9.23478e-06
9.30165e-06
9.3723e-06
9.4461e-06
9.52395e-06
9.60267e-06
9.68675e-06
9.77186e-06
9.86191e-06
9.95371e-06
1.00503e-05
1.01498e-05
1.02548e-05
1.03649e-05
1.04827e-05
1.06092e-05
1.07477e-05
1.08994e-05
1.10623e-05
1.12202e-05
1.13269e-05
1.13536e-05
1.12282e-05
1.07782e-05
9.77172e-06
8.06206e-06
5.93866e-06
3.61722e-06
2.63533e-06
2.55605e-06
3.91741e-06
4.01821e-06
4.33061e-06
1.09393e-05
2.07737e-06
2.60066e-06
3.5175e-06
4.54842e-06
5.62319e-06
6.48758e-06
7.3372e-06
8.15047e-06
8.90656e-06
9.62003e-06
1.03382e-05
1.14568e-05
1.33358e-05
1.54703e-05
1.78509e-05
1.75965e-05
1.55411e-05
1.02869e-05
3.99557e-06
5.87995e-06
2.18619e-06
2.47518e-06
3.18437e-06
4.05643e-06
4.86416e-06
5.69343e-06
6.55251e-06
7.4159e-06
8.29961e-06
9.27526e-06
1.03728e-05
1.20262e-05
1.41001e-05
1.70545e-05
1.83245e-05
1.74934e-05
1.47065e-05
9.53274e-06
3.96676e-06
4.94622e-06
2.69542e-06
2.90125e-06
3.41686e-06
4.01118e-06
4.71752e-06
5.48182e-06
6.31647e-06
7.22235e-06
8.39005e-06
9.51044e-06
1.10221e-05
1.29404e-05
1.58381e-05
1.80275e-05
1.83054e-05
1.71507e-05
1.40004e-05
8.86957e-06
3.83887e-06
5.05654e-06
3.43953e-06
3.63822e-06
3.87601e-06
4.36893e-06
4.92968e-06
5.67451e-06
6.58295e-06
7.7158e-06
9.48954e-06
1.12201e-05
1.2955e-05
1.57429e-05
1.82224e-05
1.91994e-05
1.88227e-05
1.70303e-05
1.32326e-05
7.97764e-06
3.25637e-06
5.68869e-06
4.47717e-06
4.61694e-06
4.63444e-06
5.19475e-06
5.69388e-06
6.58673e-06
7.84452e-06
9.60106e-06
1.3111e-05
1.47785e-05
1.70922e-05
1.9354e-05
2.04397e-05
2.04418e-05
1.92221e-05
1.65345e-05
1.24878e-05
6.8774e-06
2.37303e-06
6.89545e-06
5.97704e-06
6.04844e-06
6.0276e-06
6.77334e-06
7.76991e-06
9.35323e-06
1.16083e-05
1.61274e-05
1.95234e-05
2.09986e-05
2.23913e-05
2.30819e-05
2.28811e-05
2.16806e-05
1.90985e-05
1.59601e-05
1.15523e-05
5.1431e-06
1.4643e-06
9.0436e-06
8.62742e-06
8.85899e-06
9.46556e-06
1.11852e-05
1.36766e-05
1.70888e-05
2.20437e-05
2.87898e-05
2.94411e-05
2.91222e-05
2.83302e-05
2.69253e-05
2.47861e-05
2.16765e-05
1.85295e-05
1.48175e-05
1.0098e-05
3.81932e-06
7.19114e-07
1.46592e-05
1.61387e-05
1.73672e-05
1.96656e-05
2.31969e-05
2.75238e-05
3.30983e-05
4.00646e-05
3.99367e-05
3.77733e-05
3.42804e-05
3.16631e-05
2.8102e-05
2.4927e-05
2.08586e-05
1.70832e-05
1.2914e-05
8.10265e-06
2.78104e-06
2.76858e-07
3.25302e-05
3.54866e-05
3.6713e-05
3.91747e-05
4.36284e-05
4.79723e-05
5.20234e-05
4.77963e-05
4.41727e-05
4.02474e-05
3.63717e-05
3.25818e-05
2.83688e-05
2.3326e-05
1.85614e-05
1.40704e-05
1.01876e-05
6.44291e-06
2.41384e-06
1.21346e-07
5.28239e-05
5.5708e-05
5.59617e-05
5.74659e-05
6.23172e-05
5.94047e-05
5.51184e-05
5.01574e-05
4.60725e-05
4.1113e-05
3.70372e-05
3.1864e-05
2.7027e-05
1.97569e-05
1.40317e-05
9.61579e-06
7.53328e-06
5.99302e-06
2.87322e-06
1.86617e-07
5.03425e-05
5.30752e-05
5.34409e-05
5.50239e-05
5.98191e-05
5.77669e-05
5.36547e-05
4.88915e-05
4.50362e-05
4.02437e-05
3.65679e-05
3.14381e-05
2.76183e-05
2.04752e-05
1.48118e-05
9.76141e-06
7.16456e-06
5.06122e-06
2.14541e-06
1.47297e-07
2.8025e-05
3.09213e-05
3.22775e-05
3.47513e-05
3.91498e-05
4.3689e-05
4.9643e-05
4.56337e-05
4.26524e-05
3.84264e-05
3.56694e-05
3.13191e-05
2.83397e-05
2.3932e-05
1.9367e-05
1.46132e-05
1.00118e-05
5.48065e-06
1.67112e-06
1.04737e-07
1.31033e-05
1.40469e-05
1.50244e-05
1.70703e-05
2.02339e-05
2.42827e-05
2.95452e-05
3.64326e-05
3.97668e-05
3.61571e-05
3.40279e-05
3.06152e-05
2.76741e-05
2.45059e-05
2.12654e-05
1.73736e-05
1.29724e-05
7.81017e-06
2.36679e-06
1.40158e-07
8.63833e-06
8.1169e-06
8.2643e-06
8.65976e-06
1.00788e-05
1.22223e-05
1.52242e-05
1.98455e-05
2.63263e-05
2.74913e-05
2.77854e-05
2.7596e-05
2.66719e-05
2.47311e-05
2.14454e-05
1.86186e-05
1.48274e-05
1.00104e-05
3.48316e-06
3.79016e-07
6.73715e-06
5.80506e-06
5.86946e-06
5.83214e-06
6.51348e-06
7.37382e-06
8.76012e-06
1.07502e-05
1.48403e-05
1.81981e-05
1.99879e-05
2.17364e-05
2.2755e-05
2.27876e-05
2.18417e-05
1.89558e-05
1.58293e-05
1.14925e-05
5.11127e-06
1.17618e-06
5.62046e-06
4.42679e-06
4.56443e-06
4.60688e-06
5.15436e-06
5.64456e-06
6.48891e-06
7.64148e-06
9.24777e-06
1.23738e-05
1.41529e-05
1.65292e-05
1.9061e-05
2.03558e-05
2.04624e-05
1.93545e-05
1.64118e-05
1.24332e-05
6.93212e-06
2.22524e-06
5.04236e-06
3.4352e-06
3.6373e-06
3.91539e-06
4.41431e-06
4.99442e-06
5.72908e-06
6.61099e-06
7.68823e-06
9.34031e-06
1.09293e-05
1.26848e-05
1.54329e-05
1.81305e-05
1.92564e-05
1.88995e-05
1.70966e-05
1.31888e-05
8.03009e-06
3.20711e-06
5.04744e-06
2.73341e-06
2.93266e-06
3.46328e-06
4.09232e-06
4.80638e-06
5.58374e-06
6.42154e-06
7.3136e-06
8.42267e-06
9.50571e-06
1.09536e-05
1.28394e-05
1.56659e-05
1.80431e-05
1.83943e-05
1.72083e-05
1.39473e-05
8.94536e-06
3.79886e-06
6.1198e-06
2.24183e-06
2.53617e-06
3.25416e-06
4.13378e-06
4.98462e-06
5.81934e-06
6.68638e-06
7.55651e-06
8.43097e-06
9.37005e-06
1.04314e-05
1.20461e-05
1.40908e-05
1.69986e-05
1.83782e-05
1.75187e-05
1.47187e-05
9.58486e-06
3.95289e-06
1.09719e-05
2.13801e-06
2.66026e-06
3.59576e-06
4.64391e-06
5.72254e-06
6.63768e-06
7.48916e-06
8.31073e-06
9.06832e-06
9.77592e-06
1.04659e-05
1.1508e-05
1.3303e-05
1.54678e-05
1.78817e-05
1.76243e-05
1.55201e-05
1.03481e-05
3.99019e-06
1.23421e-06
0.000116558
0.000294184
0.000330906
0.00033481
0.000335356
0.000335357
0.000335342
0.000335343
0.000335345
0.000335345
0.000335343
0.000335342
0.000335357
0.000335356
0.00033481
0.000330906
0.000294184
0.000116558
1.23421e-06
1.36973e-06
6.8167e-05
0.000219584
0.000309504
0.000330909
0.000334527
0.000335273
0.000335315
0.000335296
0.000335287
0.000335287
0.000335296
0.000335315
0.000335273
0.000334527
0.000330909
0.000309503
0.000219584
6.8167e-05
1.36973e-06
1.51338e-06
5.28962e-05
0.00017646
0.00028058
0.000322148
0.000332504
0.000334604
0.0003351
0.000335168
0.000335172