/*--------------------------------*- C++ -*----------------------------------*\
| =========                 |                                                 |
| \\      /  F ield         | OpenFOAM: The Open Source CFD Toolbox           |
|  \\    /   O peration     | Version:  2.1.0                                 |
|   \\  /    A nd           | Web:      www.OpenFOAM.org                      |
|    \\/     M anipulation  |                                                 |
\*---------------------------------------------------------------------------*/
FoamFile
{
    version     2.0;
    format      ascii;
    class       volScalarField;
    location    "0.48";
    object      omega;
}
// * * * * * * * * * * * * * * * * * * * * * * * * * * * * * * * * * * * * * //

dimensions      [0 0 -1 0 0 0 0];

internalField   nonuniform List<scalar> 
6400
(
1643.74
1644.68
1644.76
1644.62
1644.08
1643.82
1643.09
1642.74
1641.93
1641.52
1640.66
1640.18
1639.3
1638.72
1637.82
1637.14
1636.22
1635.43
1634.48
1633.6
1632.6
1631.63
1630.59
1629.55
1628.47
1627.36
1626.24
1625.07
1623.9
1622.67
1621.44
1620.15
1618.85
1617.49
1616.11
1614.67
1613.21
1611.68
1610.12
1608.47
1606.78
1604.98
1603.1
1601.1
1598.98
1596.71
1594.3
1591.69
1588.91
1585.9
1582.68
1579.21
1575.47
1571.4
1566.92
1561.97
1556.48
1550.94
1544.88
1538.74
1532.12
1525.37
1518.22
1510.87
1503.11
1495.09
1486.65
1477.89
1468.61
1458.86
1448.59
1437.72
1426.26
1414.13
1401.33
1387.81
1373.6
1358.69
1343.13
1326.97
1310.26
1293.03
1275.13
1255.97
1234.47
1211.89
1187.05
1159.16
1126.8
1087.66
1038.22
972.411
882.927
763.346
609.818
537.901
565.864
735.164
892.951
942.848
687.828
688.03
689.221
690.175
691.517
692.874
694.268
695.83
697.288
698.975
700.516
702.295
703.931
705.79
707.53
709.464
711.311
713.323
715.278
717.371
719.436
721.618
723.796
726.077
728.378
730.775
733.212
735.747
738.343
741.037
743.808
746.68
749.646
752.72
755.905
759.213
762.653
766.236
769.945
773.796
777.789
781.936
786.246
790.723
795.381
800.222
805.261
810.503
815.961
821.643
827.562
833.729
840.152
846.816
853.749
860.942
868.402
876.262
884.43
893.021
901.976
911.396
921.252
931.624
942.513
953.997
966.044
978.545
991.592
1005.38
1019.87
1035.16
1051.28
1068.32
1086.34
1105.42
1125.66
1147.15
1170.03
1194.44
1220.56
1248.65
1278.43
1308.9
1341.13
1373.98
1407.07
1439.12
1468.88
1494.69
1513.38
1521.95
1523.66
1509.34
1473.96
1394.68
1284.98
1150.73
1005.89
848.27
498.818
501.963
503.46
506.507
508.519
511.603
513.935
517.058
519.639
522.823
525.624
528.896
531.904
535.287
538.499
542.018
545.438
549.109
552.731
556.567
560.396
564.411
568.454
572.664
576.929
581.353
585.847
590.491
595.229
600.115
605.112
610.26
615.534
620.963
626.532
632.26
638.138
644.181
650.433
656.887
663.531
670.37
677.439
684.733
692.272
700.062
708.118
716.448
725.067
733.98
743.198
752.722
762.563
772.737
783.246
794.114
805.352
817.003
829.057
841.557
854.495
867.907
881.788
896.164
911.029
926.399
942.281
958.744
975.708
993.015
1010.7
1028.65
1046.86
1065.25
1083.77
1102.39
1121.08
1139.8
1158.58
1177.42
1196.33
1215.36
1234.5
1253.8
1273.24
1292.61
1311.74
1330.12
1347.06
1361.39
1369.22
1372.03
1365.43
1339.15
1290.42
1210.69
1102.17
960.984
797.355
628.089
449.53
454.508
456.71
461.1
463.884
468.246
471.444
475.807
479.345
483.754
487.589
492.087
496.197
500.822
505.196
509.978
514.612
519.582
524.482
529.666
534.841
540.262
545.719
551.397
557.143
563.088
569.125
575.35
581.685
588.201
594.846
601.671
608.64
615.79
623.097
630.59
638.253
646.106
654.122
662.32
670.72
679.329
688.108
697.082
706.229
715.557
725.051
734.711
744.523
754.483
764.577
774.797
785.128
795.567
806.092
816.706
827.391
838.149
848.961
859.823
870.716
881.633
892.553
903.465
914.342
925.166
935.919
946.636
957.253
967.775
978.158
988.394
998.426
1008.2
1017.69
1026.79
1035.47
1043.59
1051.08
1057.77
1063.53
1068.16
1071.18
1072.55
1072.86
1070.29
1065.4
1057.27
1045.75
1029.98
1009.42
983.058
949.674
907.483
854.484
788.984
712.249
629.231
552.935
496.627
438.386
444.469
447.11
452.382
455.69
460.911
464.692
469.889
474.047
479.264
483.74
489.019
493.778
499.151
504.168
509.66
514.917
520.549
526.038
531.827
537.538
543.493
549.416
555.541
561.667
567.96
574.281
580.747
587.254
593.88
600.554
607.328
614.15
621.056
628.007
635.027
642.085
649.195
656.333
663.507
670.693
677.897
685.105
692.318
699.516
706.701
713.852
720.971
728.036
735.049
741.988
748.856
755.632
762.319
768.888
775.334
781.684
787.886
793.926
799.76
805.377
810.724
815.786
820.508
824.868
828.814
832.313
835.314
837.775
839.646
840.719
841.175
841.233
840.055
838.325
835.453
831.808
826.998
821.241
814.275
806.216
796.896
786.38
774.633
761.708
747.495
732.236
715.742
698.197
679.388
659.32
637.61
614.135
588.165
559.074
527.749
495.237
465.358
444.197
432.552
429.597
435.614
438.193
443.361
446.534
451.617
455.187
460.181
464.042
468.969
473.056
477.942
482.207
487.074
491.481
496.341
500.862
505.723
510.332
515.196
519.87
524.732
529.451
534.308
539.049
543.89
548.637
553.446
558.234
563.068
567.868
572.691
577.468
582.242
586.955
591.642
596.25
600.805
605.262
609.639
613.896
618.046
622.042
625.907
629.586
633.103
636.403
639.507
642.361
644.982
647.32
649.385
651.13
652.561
653.635
654.354
654.724
654.854
654.679
653.951
652.933
651.379
649.458
647.012
644.153
640.782
636.975
632.673
627.931
622.718
617.078
611.026
604.62
597.826
590.753
583.34
575.708
567.797
559.765
551.563
543.275
534.914
526.562
518.224
509.959
501.753
493.509
485.252
477.029
468.739
460.372
451.791
442.944
433.674
424.093
414.704
406.896
403.164
402.117
402.094
401.425
406.272
408.328
412.443
414.886
418.91
421.588
425.488
428.314
432.088
435.008
438.661
441.634
445.171
448.163
451.587
454.567
457.873
460.815
463.998
466.874
469.925
472.715
475.614
478.27
480.975
483.46
485.955
488.286
490.586
492.698
494.737
496.564
498.281
499.766
501.107
502.197
503.115
503.765
504.157
504.32
504.346
503.969
503.431
502.537
501.452
500.027
498.396
496.442
494.277
491.81
489.137
486.19
483.055
479.695
476.196
472.45
468.589
464.536
460.396
456.14
451.831
447.469
443.094
438.711
434.335
430.075
425.886
421.864
417.974
414.296
410.791
407.489
404.391
401.52
398.864
396.441
394.211
392.228
390.428
388.879
387.504
386.351
385.344
384.513
383.781
383.164
382.591
382.061
381.523
380.997
380.483
380.158
380.034
380.504
381.767
384.269
388.863
392.558
393.621
355.782
359.243
360.668
363.465
364.986
367.631
369.163
371.602
373.094
375.302
376.705
378.677
379.955
381.683
382.804
384.276
385.212
386.416
387.14
388.063
388.549
389.14
389.418
389.601
389.651
389.571
389.242
388.849
388.114
387.295
386.144
384.902
383.346
381.696
379.752
377.73
375.442
373.085
370.497
367.853
365.025
362.157
359.136
356.113
352.977
349.872
346.699
343.592
340.46
337.425
334.41
331.504
328.681
326.025
323.496
321.142
318.958
316.98
315.206
313.665
312.356
311.302
310.504
310.018
309.798
309.744
310.025
310.533
311.315
312.32
313.589
315.069
316.796
318.722
320.877
323.217
325.765
328.48
331.367
334.419
337.632
340.975
344.445
348.006
351.651
355.342
359.07
362.797
366.52
370.214
373.896
377.573
381.306
385.153
389.336
394.111
399.723
406.705
412.267
414.535
296.811
297.971
298.397
299.113
299.441
299.901
300.096
300.247
300.276
300.237
299.937
299.687
299.106
298.619
297.771
297.033
295.928
294.937
293.586
292.347
290.765
289.29
287.502
285.811
283.879
282.022
279.969
277.992
275.851
273.806
271.636
269.579
267.439
265.428
263.379
261.463
259.549
257.782
256.057
254.488
253.001
251.678
250.47
249.437
248.546
247.841
247.299
246.989
246.852
246.827
247.123
247.568
248.273
249.111
250.194
251.425
252.891
254.515
256.365
258.379
260.612
263.016
265.632
268.425
271.428
274.617
278.003
281.573
285.342
289.298
293.457
297.811
302.376
307.143
312.13
317.328
322.754
328.404
334.293
340.412
346.779
353.384
360.241
367.339
374.684
382.261
390.068
398.079
406.284
414.654
423.173
431.82
440.599
449.524
458.675
468.286
479.006
490.657
502.338
508.109
238.55
237.347
236.813
235.692
234.975
233.784
232.914
231.653
230.665
229.343
228.259
226.901
225.75
224.379
223.191
221.831
220.638
219.316
218.15
216.895
215.789
214.628
213.614
212.576
211.685
210.793
210.052
209.33
208.762
208.232
207.856
207.542
207.387
207.319
207.313
207.508
207.756
208.188
208.687
209.363
210.126
211.044
212.065
213.23
214.509
215.923
217.459
219.126
220.917
222.836
224.89
227.068
229.379
231.804
234.365
237.04
239.854
242.783
245.855
249.046
252.383
255.845
259.459
263.205
267.109
271.154
275.365
279.729
284.269
288.976
293.872
298.954
304.238
309.727
315.438
321.376
327.56
333.998
340.709
347.705
355.008
362.633
370.609
378.952
387.696
396.866
406.5
416.632
427.314
438.594
450.539
463.218
476.724
491.159
506.641
523.253
541.01
559.499
574.208
580.77
259.222
258.653
258.356
257.708
257.195
256.429
255.715
254.812
253.914
252.866
251.804
250.617
249.424
248.113
246.809
245.41
244.019
242.563
241.117
239.637
238.17
236.7
235.249
233.822
232.424
231.075
229.768
228.53
227.35
226.257
225.237
224.321
223.493
222.781
222.174
221.698
221.34
221.161
221.089
221.093
221.383
221.683
222.236
222.833
223.658
224.552
225.655
226.846
228.23
229.715
231.383
233.161
235.112
237.182
239.428
241.783
244.304
246.941
249.739
252.661
255.74
258.951
262.32
265.827
269.495
273.308
277.287
281.422
285.729
290.204
294.863
299.701
304.735
309.966
315.411
321.073
326.967
333.099
339.486
346.137
353.07
360.3
367.844
375.721
383.952
392.561
401.572
411.013
420.914
431.306
442.231
453.739
465.926
478.862
492.692
507.549
523.543
540.308
554.064
560.29
318.715
320.343
320.976
322.133
322.698
323.665
324.131
324.871
325.22
325.67
325.856
325.948
325.951
325.773
325.434
325.021
324.372
323.704
322.764
321.833
320.622
319.433
317.969
316.535
314.841
313.182
311.296
309.434
307.377
305.355
303.166
301.026
298.746
296.531
294.206
291.96
289.635
287.414
285.146
283.001
280.847
278.852
276.906
275.126
273.437
271.921
270.535
269.335
268.295
267.453
266.796
266.37
266.169
266.107
266.294
266.705
267.3
268.115
269.124
270.351
271.774
273.41
275.242
277.281
279.516
281.956
284.586
287.401
290.398
293.573
296.928
300.455
304.153
308.025
312.067
316.281
320.66
325.207
329.915
334.787
339.792
344.941
350.211
355.606
361.105
366.71
372.399
378.173
384.018
389.935
395.925
401.992
408.138
414.539
421.331
428.926
437.644
447.91
458.786
464.503
369.847
373.251
374.664
377.436
378.981
381.622
383.211
385.679
387.261
389.548
391.11
393.205
394.704
396.585
397.973
399.632
400.864
402.284
403.323
404.485
405.299
406.184
406.744
407.328
407.617
407.807
407.862
407.784
407.455
407.041
406.376
405.618
404.615
403.516
402.182
400.754
399.017
397.165
395.041
392.801
390.322
387.736
384.95
382.078
379.044
375.951
372.749
369.515
366.223
362.934
359.635
356.377
353.15
349.992
346.896
343.941
341.11
338.445
335.931
333.615
331.484
329.575
327.885
326.436
325.222
324.253
323.512
323.026
322.792
322.714
322.839
323.257
323.803
324.595
325.495
326.599
327.791
329.141
330.553
332.078
333.706
335.439
337.255
339.16
341.13
343.195
345.316
347.53
349.811
352.207
354.717
357.408
360.314
363.505
366.961
371.055
376.188
382.796
387.654
389.441
407.681
412.436
414.454
418.474
420.881
424.79
427.424
431.193
433.962
437.604
440.506
444.064
447.051
450.529
453.564
456.961
460.008
463.32
466.348
469.565
472.545
475.653
478.556
481.539
484.336
487.17
489.837
492.495
494.992
497.447
499.736
501.954
503.997
505.939
507.693
509.32
510.831
512.182
513.361
514.347
515.119
515.647
515.9
515.983
515.81
515.291
514.549
513.476
512.151
510.506
508.595
506.38
503.897
501.13
498.106
494.824
491.309
487.585
483.682
479.618
475.399
471.019
466.52
461.931
457.264
452.555
447.829
443.171
438.561
434.073
429.705
425.513
421.491
417.667
413.992
410.531
407.238
404.164
401.252
398.537
395.922
393.486
391.126
388.897
386.705
384.618
382.531
380.503
378.447
376.434
374.403
372.456
370.586
369.133
368.136
367.761
368.616
372.368
375.502
376.393
424.732
430.509
432.989
437.942
441.01
445.879
449.343
454.135
457.894
462.641
466.634
471.362
475.546
480.277
484.618
489.366
493.836
498.61
503.186
507.99
512.651
517.482
522.21
527.064
531.84
536.708
541.516
546.388
551.212
556.079
560.902
565.746
570.542
575.334
580.068
584.772
589.474
594.132
598.753
603.311
607.801
612.203
616.509
620.702
624.763
628.676
632.431
636.001
639.379
642.538
645.467
648.14
650.546
652.659
654.463
655.934
657.056
657.733
658.036
658.099
657.586
656.871
655.639
654.092
652.028
649.582
646.623
643.246
639.371
635.066
630.281
625.071
619.408
613.367
606.987
600.268
593.225
585.924
578.318
570.503
562.424
554.196
545.737
537.151
528.352
519.361
510.133
500.666
490.78
480.434
469.687
458.364
446.491
433.961
421.521
408.821
398.135
391.545
388.722
387.457
426.62
432.288
434.754
439.659
442.758
447.615
451.166
456.008
459.918
464.785
468.997
473.928
478.406
483.437
488.167
493.324
498.291
503.594
508.786
514.25
519.66
525.292
530.913
536.72
542.543
548.525
554.542
560.697
566.897
573.223
579.598
586.082
592.621
599.257
605.949
612.729
619.566
626.474
633.434
640.452
647.514
654.619
661.759
668.928
676.119
683.323
690.53
697.725
704.897
712.053
719.173
726.252
733.277
740.24
747.13
753.933
760.65
767.25
773.736
780.067
786.231
792.257
798.062
803.658
808.972
814
818.675
822.982
826.858
830.279
833.189
835.548
837.304
838.212
838.566
838.492
837.052
835.145
831.942
827.963
822.645
816.277
808.45
799.307
788.535
776.225
762.192
746.284
728.544
708.679
686.629
661.938
634.322
603.247
569.511
532.671
495.583
460.596
435.425
418.799
435.039
439.589
441.613
445.642
448.21
452.21
455.158
459.15
462.403
466.433
469.954
474.061
477.825
482.043
486.044
490.404
494.638
499.164
503.634
508.35
513.063
517.991
522.956
528.117
533.346
538.758
544.263
549.94
555.724
561.678
567.753
573.997
580.38
586.936
593.647
600.541
607.607
614.866
622.297
629.92
637.726
645.725
653.911
662.287
670.844
679.63
688.63
697.872
707.354
717.01
726.877
736.918
747.143
757.532
768.081
778.768
789.595
800.528
811.573
822.7
833.919
845.205
856.562
867.975
879.439
890.934
902.443
913.944
925.403
936.79
948.175
959.473
970.709
981.822
992.813
1003.6
1014.13
1024.37
1034.17
1043.49
1052.12
1059.96
1066.73
1072.23
1075.59
1077.02
1077.18
1072.75
1065.48
1052.83
1035.02
1009.92
976.483
932.226
876.753
807.112
725.007
634.419
553.223
488.493
482.458
485.215
486.547
489.278
491.093
493.863
495.969
498.775
501.105
503.968
506.497
509.441
512.16
515.204
518.098
521.255
524.325
527.613
530.862
534.297
537.731
541.328
544.954
548.728
552.555
556.52
560.557
564.727
568.99
573.376
577.871
582.495
587.239
592.119
597.127
602.276
607.56
612.984
618.597
624.383
630.37
636.559
642.972
649.622
656.531
663.667
671.054
678.685
686.569
694.764
703.258
712.082
721.241
730.751
740.618
750.85
761.475
772.489
783.923
795.785
808.104
820.896
834.198
848.033
862.417
877.369
892.9
909.03
925.765
943.133
961.151
979.542
998.404
1017.66
1037.26
1057.14
1077.23
1097.51
1117.91
1138.42
1159
1179.66
1200.33
1221.13
1242.02
1262.96
1283.75
1303.85
1322.76
1339.12
1349.01
1352.77
1348.15
1320.87
1271.28
1196.04
1093.13
963.504
802.41
630.333
666.265
666.203
667.209
667.958
669.114
670.251
671.451
672.782
674.034
675.482
676.806
678.338
679.747
681.349
682.85
684.521
686.118
687.86
689.556
691.373
693.169
695.067
696.966
698.952
700.958
703.041
705.16
707.355
709.605
711.931
714.332
716.817
719.39
722.055
724.822
727.695
730.689
733.813
737.05
740.419
743.922
747.567
751.364
755.316
759.432
763.715
768.177
772.823
777.671
782.73
788.009
793.524
799.284
805.305
811.604
818.201
825.077
832.275
839.797
847.657
855.873
864.443
873.437
882.919
892.881
903.38
914.427
926.078
938.353
951.291
964.693
978.977
993.972
1009.9
1026.71
1044.56
1063.46
1083.54
1104.87
1127.56
1151.71
1177.44
1204.87
1234.23
1265.3
1297.07
1329.54
1361.13
1390.29
1414.71
1428.67
1433.81
1431.56
1415.22
1383.18
1321.95
1233.75
1122.43
997.865
848.98
1603.26
1603.92
1603.83
1603.37
1602.71
1602.18
1601.29
1600.74
1599.76
1599.15
1598.14
1597.46
1596.43
1595.67
1594.64
1593.78
1592.73
1591.79
1590.7
1589.67
1588.55
1587.43
1586.26
1585.07
1583.86
1582.6
1581.34
1580.04
1578.75
1577.4
1576.06
1574.67
1573.29
1571.85
1570.41
1568.93
1567.43
1565.9
1564.35
1562.76
1561.16
1559.51
1557.83
1556.11
1554.34
1552.51
1550.59
1548.58
1546.47
1544.23
1541.87
1539.36
1536.71
1533.9
1530.95
1527.86
1524.59
1521.05
1517.24
1512.97
1508.26
1502.88
1497.08
1491.01
1484.59
1477.91
1470.86
1463.52
1455.73
1447.57
1438.93
1429.83
1419.96
1409.57
1398.29
1386.29
1373.26
1359.32
1344.22
1328.02
1310.55
1291.83
1271.73
1250.26
1227.27
1202.42
1174.71
1141.95
1103.23
1056.35
996.163
916.855
816.23
705.452
584.539
535.346
556.12
721.96
886.833
939.968
865.883
324.718
176.599
119.702
95.2633
82.3299
76.1286
73.1612
72.1892
74.034
80.9589
97.4726
118.9
156.243
207.129
271.575
349.008
444.086
560.324
610.167
693.158
329.16
219.136
154.328
121.756
104.135
92.9363
87.467
85.5419
87.5403
99.6677
115.602
144.587
184.776
237.989
300.004
372.442
459.614
544.766
568.429
544.567
318.723
242.262
180.152
147.623
125.458
111.88
105.98
104.313
108.677
120.225
144.154
174.752
218.805
269.572
326.201
390.282
462.71
514.393
522.456
444.605
305.157
256.278
198.156
171.193
146.155
134.087
128.451
126.902
131.267
154.18
177.742
213.993
256.471
302.109
352.31
406.686
455.379
474.154
474.222
388.171
300.41
266.283
214.672
191.99
168.731
159.188
155.462
155.219
175.094
195.486
222.887
257.41
292.869
330.865
370.838
410.082
432.655
426.365
427.664
360.068
300.355
273.822
232.017
214.522
201.041
197.444
197.433
211.713
227.903
247.927
272.692
299.488
326.836
355.907
383.536
398.928
396.765
367.858
383.3
352.304
312.829
296.039
273.002
265.945
263.43
263.072
269.924
279.163
291.203
306.026
322.384
339.264
355.57
369.828
376.636
374.927
343.625
300.604
349.788
386.859
375.203
371.388
361.61
356.852
351.339
349.14
348.612
350.778
355.087
359.389
364.161
366.784
367.788
366.315
357.913
331.027
277.531
232.634
331.168
499.01
483.784
476.399
457.497
448.606
434.267
427.229
417.556
412.367
404.314
397.85
388.688
378.169
365.478
349.206
316.754
268.558
204.248
161.891
324.849
563.32
541.925
532.27
509.21
498.166
479.523
469.241
452.408
440.846
423.936
409.779
390.557
370.491
341.877
302.393
252.078
198.313
143.333
116.267
327.487
544.492
524.334
515.274
493.51
483.119
465.714
456.387
441.409
431.208
416.538
404.024
387.46
369.71
345.132
309.444
259.771
203.684
143.124
113.003
325.896
457.723
446.524
440.881
424.922
417.621
406.656
401.389
395.708
392.903
389.457
385.976
381.292
374.26
364.765
353.378
326.915
279.405
212.221
170.765
324.181
358.979
343.878
338.892
330.931
327.528
324.415
323.571
326.198
331.065
338.589
346.6
354.833
362.491
366.303
367.649
363.227
339.553
286.91
239.323
325.607
336.7
296.821
279.287
254.09
245.697
242.731
242.54
250.915
261.626
275.622
292.951
311.77
331.995
352.121
370.584
379.77
380.963
352.31
307.643
335.384
346.803
288.197
262.299
221.052
203.637
189.136
184.793
184.313
198.111
215.378
236.847
263.165
291.979
321.7
353.805
385.651
403.678
404.793
374.332
370.028
374.532
289.33
256.044
206.272
184.319
161.486
151.832
147.754
147.158
165.204
186.58
214.645
250.476
287.687
327.746
370.178
414.003
438.687
433.716
420.197
429.616
294.018
246.231
190.016
163.839
140.068
128.558
123.21
121.756
125.97
147.128
171.328
207.67
251.244
298.671
350.886
407.722
460.337
480.498
471.542
531.61
308.243
233.704
173.725
141.931
120.383
107.423
101.741
100.163
104.702
116.034
139.025
169.953
213.873
265.792
324.093
390.675
467.081
518.628
522.991
686.664
318.129
211.269
148.266
116.998
99.8646
89.5227
84.427
82.6404
84.6852
96.1675
112.091
140.589
180.788
234.262
297.37
371.279
461.106
548.512
570.806
863.381
313.535
170.706
115.745
92.0828
79.5946
73.2051
70.4995
69.7164
72.0763
78.7676
94.3924
116.023
152.751
203.776
268.908
347.717
444.775
563.132
613.2
646.054
32.1745
12.7362
11.3229
11.19
11.171
11.1705
11.1708
11.1706
11.1705
11.1705
11.1706
11.1708
11.1705
11.171
11.19
11.3229
12.7362
32.1744
646.053
672.74
55.0628
17.0386
12.087
11.3039
11.1803
11.1547
11.1529
11.1534
11.1536
11.1536
11.1534
11.1529
11.1547
11.1803
11.3039
12.087
17.0386
55.0628
672.741
698.453
71.0937
21.1542
13.3033
11.5874
11.2261
11.1552
11.1382
11.1358
11.1355
11.1355
11.1358
11.1382
11.1552
11.2261
11.5874
13.3033
21.1542
71.0935
698.453
723.136
85.8503
25.1369
14.6461
12.0431
11.3371
11.1684
11.1265
11.1183
11.1171
11.1171
11.1183
11.1265
11.1684
11.3371
12.0431
14.6461
25.1369
85.8503
723.136
746.743
101.867
29.2065
16.0658
12.5885
11.5234
11.2064
11.1273
11.105
11.1003
11.1003
11.105
11.1273
11.2064
11.5234
12.5885
16.0658
29.2065
101.867
746.743
769.31
118.432
33.3669
17.5406
13.1971
11.7624
11.283
11.1366
11.0944
11.0843
11.0843
11.0944
11.1366
11.283
11.7624
13.1971
17.5406
33.3669
118.433
769.31
790.729
134.968
37.5676
19.0511
13.8502
12.0431
11.3872
11.16
11.0918
11.0718
11.0718
11.0918
11.16
11.3872
12.0431
13.8502
19.0511
37.5677
134.968
790.728
810.982
151.251
41.7801
20.5852
14.5352
12.3571
11.5178
11.2031
11.0955
11.0625
11.0625
11.0955
11.2031
11.5178
12.3571
14.5352
20.5852
41.7802
151.251
810.982
829.955
167.079
45.9691
22.1303
15.2422
12.6968
11.6708
11.2604
11.1065
11.0594
11.0594
11.1065
11.2604
11.6708
12.6968
15.2422
22.1303
45.9692
167.079
829.955
847.653
182.401
50.1209
23.6797
15.9648
13.0568
11.8431
11.3324
11.129
11.0619
11.0619
11.129
11.3324
11.8431
13.0568
15.9648
23.6797
50.121
182.402
847.653
863.991
197.096
54.2105
25.2247
16.6968
13.4321
12.0315
11.4179
11.1609
11.0697
11.0698
11.1609
11.4179
12.0315
13.4322
16.6968
25.2248
54.2106
197.096
863.99
879.013
211.155
58.2321
26.7619
17.4347
13.8193
12.2335
11.5156
11.2021
11.0862
11.0862
11.2021
11.5156
12.2335
13.8193
17.4347
26.7619
58.2323
211.156
879.013
892.663
224.491
62.1651
28.2844
18.1745
14.2149
12.4467
11.6242
11.2528
11.1113
11.1113
11.2528
11.6242
12.4467
14.2149
18.1745
28.2845
62.1653
224.491
892.663
905.026
237.118
66.009
29.7908
18.9141
14.6169
12.6691
11.7427
11.3126
11.1446
11.1446
11.3126
11.7427
12.6691
14.6169
18.9141
29.7908
66.0092
237.119
905.026
916.068
248.971
69.7457
31.2753
19.6506
15.023
12.899
11.8698
11.381
11.1861
11.1861
11.381
11.8698
12.899
15.0231
19.6507
31.2755
69.7459
248.97
916.067
925.904
260.089
73.3781
32.7379
20.383
15.4319
13.1352
12.0048
11.4576
11.2357
11.2357
11.4576
12.0048
13.1352
15.4319
20.383
32.7379
73.3782
260.09
925.904
934.512
270.424
76.8906
34.1733
21.1087
15.8417
13.3762
12.1466
11.5418
11.293
11.293
11.5418
12.1466
13.3762
15.8418
21.1088
34.1735
76.8908
270.423
934.512
942.037
280.035
80.2892
35.5826
21.8277
16.2519
13.6211
12.2944
11.6331
11.3579
11.3579
11.6331
12.2944
13.6211
16.2519
21.8276
35.5825
80.2892
280.036
942.036
948.451
288.886
83.5602
36.9606
22.5374
16.6609
13.8691
12.4475
11.7309
11.4299
11.4299
11.7309
12.4475
13.8691
16.661
22.5375
36.9608
83.5604
288.885
948.45
953.925
297.051
86.7124
38.3098
23.2383
17.0685
14.1194
12.6053
11.8348
11.5085
11.5085
11.8348
12.6053
14.1194
17.0685
23.2383
38.3097
86.7123
297.052
953.924
958.416
304.506
89.734
39.6248
23.9282
17.4734
14.3712
12.7671
11.9442
11.5934
11.5934
11.9442
12.7671
14.3712
17.4735
23.9283
39.6251
89.7342
304.504
958.415
962.12
311.326
92.6356
40.9093
24.608
17.8757
14.6242
12.9325
12.0587
11.684
11.684
12.0587
12.9325
14.6242
17.8757
24.608
40.9092
92.6355
311.327
962.12
964.967
317.506
95.4074
42.1578
25.2754
18.2741
14.8776
13.1009
12.1777
11.78
11.78
12.1777
13.1009
14.8776
18.2742
25.2755
42.1581
95.4078
317.503
964.966
967.18
323.102
98.0618
43.3751
25.9318
18.669
15.1313
13.2719
12.3009
11.8809
11.8809
12.3009
13.2719
15.1313
18.669
25.9318
43.3749
98.0616
323.105
967.179
968.649
328.148
100.59
44.5553
26.5748
19.0592
15.3846
13.445
12.4277
11.9862
11.9862
12.4277
13.445
15.3846
19.0593
26.575
44.5556
100.59
328.144
968.648
969.635
332.653
103.005
45.7045
27.2064
19.4453
15.6374
13.62
12.5579
12.0955
12.0955
12.5579
13.62
15.6374
19.4452
27.2063
45.7042
103.005
332.657
969.634
969.97
336.705
105.299
46.8159
27.8239
19.826
15.8892
13.7964
12.691
12.2085
12.2085
12.691
13.7964
15.8892
19.8261
27.824
46.8163
105.3
336.7
969.969
969.834
340.242
107.488
47.8975
28.4297
20.2021
16.14
13.9741
12.8267
12.3248
12.3248
12.8267
13.9741
16.14
20.2021
28.4296
47.8972
107.488
340.246
969.833
969.425
343.403
109.561
48.9414
29.021
20.5725
16.3892
14.1525
12.9646
12.4441
12.4441
12.9646
14.1525
16.3892
20.5725
29.0212
48.9418
109.561
343.397
969.424
968.579
346.14
111.539
49.9569
29.6008
20.9379
16.637
14.3316
13.1045
12.5659
12.5659
13.1045
14.3316
16.637
20.9379
29.6006
49.9565
111.538
346.144
968.578
967.379
348.534
113.406
50.9352
30.1658
21.2973
16.8828
14.511
13.2461
12.69
12.69
13.2461
14.511
16.8828
21.2973
30.166
50.9357
113.406
348.528
967.378
965.891
350.552
115.188
51.8872
30.7196
21.6515
17.1267
14.6907
13.389
12.8161
12.8161
13.389
14.6907
17.1267
21.6515
30.7194
51.8867
115.187
350.556
965.89
964.155
352.265
116.864
52.8028
31.2587
21.9995
17.3684
14.8702
13.5331
12.944
12.944
13.5331
14.8702
17.3684
21.9995
31.2588
52.8033
116.865
352.259
964.155
962.205
353.658
118.465
53.6944
31.7868
22.3423
17.608
15.0495
13.6782
13.0733
13.0733
13.6782
15.0495
17.608
22.3422
31.7867
53.6937
118.463
353.662
962.203
960.073
354.766
119.965
54.5507
32.3005
22.6787
17.8451
15.2283
13.8239
13.2039
13.2039
13.8239
15.2283
17.8451
22.6787
32.3006
54.5512
119.966
354.761
960.074
957.789
355.615
121.399
55.3853
32.8039
23.0099
18.0798
15.4067
13.9702
13.3355
13.3355
13.9702
15.4067
18.0799
23.0099
32.8037
55.3846
121.397
355.618
957.788
955.381
356.175
122.736
56.186
33.293
23.3347
18.3118
15.5842
14.1168
13.468
13.468
14.1168
15.5842
18.3118
23.3346
33.2931
56.1865
122.737
356.171
955.382
952.87
356.557
124.016
56.9676
33.7724
23.6544
18.5414
15.761
14.2636
13.6011
13.6011
14.2636
15.761
18.5415
23.6544
33.7723
56.9667
124.013
356.559
952.868
950.286
356.613
125.204
57.7167
34.238
23.9676
18.7681
15.9367
14.4103
13.7346
13.7346
14.4103
15.9366
18.768
23.9676
34.2381
57.7173
125.206
356.611
950.287
947.636
356.52
126.342
58.4494
34.6947
24.2759
18.9922
16.1114
14.557
13.8684
13.8684
14.557
16.1114
18.9923
24.276
34.6946
58.4485
126.338
356.519
947.634
944.957
356.291
127.392
59.1511
35.1381
24.5779
19.2134
16.2848
14.7033
14.0024
14.0024
14.7033
16.2848
19.2133
24.5778
35.138
59.1518
127.395
356.29
944.959
942.244
355.82
128.406
59.8395
35.5733
24.8751
19.4319
16.4571
14.8493
14.1364
14.1364
14.8494
16.4572
19.432
24.8753
35.5733
59.8385
128.402
355.826
942.242
939.539
355.244
129.335
60.4986
35.9959
25.1662
19.6474
16.628
14.9948
14.2703
14.2703
14.9947
16.6279
19.6473
25.1659
35.9957
60.4995
129.339
355.236
939.541
936.821
354.505
130.251
61.149
36.4113
25.4527
19.8603
16.7975
15.1397
14.404
14.404
15.1398
16.7976
19.8605
25.453
36.4115
61.1479
130.246
354.511
936.818
934.145
353.722
131.099
61.7743
36.8149
25.7334
20.0701
16.9655
15.2839
14.5373
14.5373
15.2838
16.9653
20.0699
25.7329
36.8145
61.7751
131.104
353.714
934.147
931.466
352.872
131.987
62.3994
37.2125
26.0097
20.2774
17.132
15.4273
14.6702
14.6703
15.4274
17.1321
20.2777
26.0102
37.213
62.3985
131.98
352.877
931.463
928.859
352.024
132.869
63.0126
37.5999
26.2805
20.4816
17.2969
15.5699
14.8026
14.8025
15.5698
17.2967
20.4813
26.2799
37.5991
63.0133
132.875
352.019
928.862
926.333
351.164
133.826
63.6387
37.9833
26.5474
20.6833
17.4603
15.7116
14.9344
14.9344
15.7117
17.4605
20.6837
26.5481
37.9843
63.6383
133.819
351.166
926.33
923.871
350.422
134.84
64.2638
38.3588
26.8093
20.882
17.622
15.8522
15.0654
15.0654
15.8521
17.6217
20.8816
26.8085
38.3576
64.264
134.846
350.42
923.875
921.484
349.753
135.976
64.912
38.7329
27.0679
21.0783
17.7821
15.9919
15.1958
15.1959
15.992
17.7824
21.0789
27.0689
38.7345
64.9124
135.97
349.755
921.481
919.155
349.293
137.189
65.565
39.1016
27.3221
21.2718
17.9404
16.1304
15.3253
15.3252
16.1303
17.9402
21.2712
27.321
39.0999
65.5646
137.196
349.292
919.158
916.897
348.942
138.533
66.246
39.4712
27.5738
21.4631
18.0973
16.2679
15.4541
15.4541
16.2681
18.0977
21.4638
27.5752
39.4735
66.2475
138.527
348.943
916.893
914.693
348.851
139.937
66.9331
39.8374
27.8218
21.6517
18.2523
16.4041
15.5817
15.5816
16.404
18.252
21.651
27.8204
39.8351
66.9318
139.944
348.853
914.696
912.56
348.916
141.463
67.6495
40.2064
28.0679
21.8384
18.4059
16.5394
15.7086
15.7087
16.5396
18.4064
21.8394
28.0699
40.2097
67.6525
141.459
348.918
912.554
910.479
349.098
143.022
68.3711
40.5735
28.3111
22.0226
18.5577
16.6731
15.8342
15.8342
16.6729
18.5573
22.0217
28.3094
40.5706
68.3689
143.029
349.101
910.482
908.471
349.471
144.676
69.1203
40.9447
28.5532
22.2052
18.7081
16.806
15.9592
15.9593
16.8063
18.7088
22.2066
28.5558
40.9492
69.1254
144.675
349.481
908.463
906.512
349.99
146.342
69.873
41.315
28.793
22.3855
18.8567
16.9373
16.0827
16.0826
16.937
18.8562
22.3844
28.7908
41.3113
69.87
146.347
349.989
906.516
904.629
350.63
148.077
70.6511
41.6902
29.0321
22.5644
19.0041
17.0677
16.2056
16.2058
17.0682
19.0051
22.5663
29.0357
41.6964
70.659
148.081
350.645
904.62
902.794
351.376
149.806
71.4301
42.065
29.2695
22.7414
19.1497
17.1965
16.3268
16.3268
17.1962
19.1491
22.74
29.2669
42.0608
71.4266
149.811
351.379
902.796
901.035
352.209
151.58
72.2316
42.4452
29.5067
22.9171
19.2942
17.3245
16.4477
16.4479
17.3252
19.2956
22.9198
29.5117
42.4537
72.2435
151.592
352.231
901.021
899.321
353.116
153.335
73.0313
42.8251
29.7426
23.0911
19.437
17.4508
16.5666
16.5665
17.4504
19.4362
23.0895
29.7397
42.8206
73.0281
153.339
353.127
899.319
897.684
354.081
155.115
73.8509
43.2104
29.9786
23.264
19.5787
17.5764
16.6853
16.6856
17.5774
19.5808
23.2679
29.9856
43.2223
73.8685
155.138
354.116
897.665
896.089
355.096
156.864
74.6654
43.5954
30.2137
23.4356
19.7188
17.7001
16.8017
16.8017
17.6998
19.7181
23.434
30.2107
43.5913
74.6644
156.873
355.121
896.082
894.571
356.143
158.624
75.4974
43.9856
30.4488
23.6061
19.858
17.8234
16.9184
16.9188
17.8249
19.861
23.6117
30.4589
44.0027
75.5236
158.662
356.199
894.542
893.092
357.219
160.343
76.3209
44.3755
30.6836
23.7754
19.9955
17.9447
17.0324
17.0324
17.9445
19.995