/*--------------------------------*- C++ -*----------------------------------*\
| =========                 |                                                 |
| \\      /  F ield         | OpenFOAM: The Open Source CFD Toolbox           |
|  \\    /   O peration     | Version:  2.1.0                                 |
|   \\  /    A nd           | Web:      www.OpenFOAM.org                      |
|    \\/     M anipulation  |                                                 |
\*---------------------------------------------------------------------------*/
FoamFile
{
    version     2.0;
    format      ascii;
    class       surfaceScalarField;
    location    "0.48";
    object      phi;
}
// * * * * * * * * * * * * * * * * * * * * * * * * * * * * * * * * * * * * * //

dimensions      [0 3 -1 0 0 0 0];

internalField   nonuniform List<scalar> 
12460
(
-2.60088e-05
-3.40569e-09
-2.59707e-05
-3.92986e-08
-2.59097e-05
-6.22192e-08
-2.5837e-05
-7.38766e-08
-2.57574e-05
-8.07616e-08
-2.56731e-05
-8.53811e-08
-2.55855e-05
-8.87114e-08
-2.54953e-05
-9.13305e-08
-2.54028e-05
-9.35435e-08
-2.53082e-05
-9.55414e-08
-2.52118e-05
-9.74261e-08
-2.51134e-05
-9.92623e-08
-2.50133e-05
-1.01087e-07
-2.49112e-05
-1.02916e-07
-2.48073e-05
-1.04767e-07
-2.47015e-05
-1.06642e-07
-2.45937e-05
-1.08552e-07
-2.4484e-05
-1.10491e-07
-2.43723e-05
-1.12468e-07
-2.42585e-05
-1.14473e-07
-2.41427e-05
-1.16516e-07
-2.40248e-05
-1.18583e-07
-2.39047e-05
-1.2069e-07
-2.37825e-05
-1.22839e-07
-2.3658e-05
-1.25001e-07
-2.35314e-05
-1.27202e-07
-2.34024e-05
-1.29534e-07
-2.32709e-05
-1.31962e-07
-2.31369e-05
-1.34469e-07
-2.30003e-05
-1.37048e-07
-2.28611e-05
-1.39709e-07
-2.2719e-05
-1.42454e-07
-2.25741e-05
-1.45294e-07
-2.24262e-05
-1.48234e-07
-2.22753e-05
-1.51283e-07
-2.21212e-05
-1.54439e-07
-2.19638e-05
-1.57713e-07
-2.1803e-05
-1.61109e-07
-2.16386e-05
-1.64637e-07
-2.14705e-05
-1.6831e-07
-2.12986e-05
-1.72153e-07
-2.11227e-05
-1.76163e-07
-2.09425e-05
-1.80347e-07
-2.0758e-05
-1.84716e-07
-2.05689e-05
-1.89271e-07
-2.03751e-05
-1.94018e-07
-2.01763e-05
-1.98956e-07
-1.99723e-05
-2.04081e-07
-1.97631e-05
-2.09382e-07
-1.95483e-05
-2.1487e-07
-1.93279e-05
-2.20513e-07
-1.91018e-05
-2.2616e-07
-1.88698e-05
-2.32117e-07
-1.86313e-05
-2.38594e-07
-1.83859e-05
-2.45418e-07
-1.81335e-05
-2.52476e-07
-1.78742e-05
-2.59385e-07
-1.76082e-05
-2.65986e-07
-1.73358e-05
-2.72442e-07
-1.70569e-05
-2.78965e-07
-1.67713e-05
-2.85632e-07
-1.64789e-05
-2.92453e-07
-1.61794e-05
-2.9948e-07
-1.58726e-05
-3.06775e-07
-1.55583e-05
-3.14349e-07
-1.52361e-05
-3.22247e-07
-1.49056e-05
-3.30494e-07
-1.45664e-05
-3.39152e-07
-1.42181e-05
-3.48257e-07
-1.38603e-05
-3.57842e-07
-1.34923e-05
-3.67933e-07
-1.31137e-05
-3.78582e-07
-1.27239e-05
-3.89826e-07
-1.23222e-05
-4.01732e-07
-1.19078e-05
-4.14373e-07
-1.14799e-05
-4.27842e-07
-1.10376e-05
-4.42263e-07
-1.05798e-05
-4.57793e-07
-1.01051e-05
-4.74654e-07
-9.61189e-06
-4.93177e-07
-9.09808e-06
-5.13774e-07
-8.56109e-06
-5.36953e-07
-7.99769e-06
-5.6337e-07
-7.40389e-06
-5.93757e-07
-6.77516e-06
-6.28683e-07
-6.10676e-06
-6.6835e-07
-5.39433e-06
-7.12383e-07
-4.63511e-06
-7.59151e-07
-3.83044e-06
-8.046e-07
-2.9904e-06
-8.39954e-07
-2.14294e-06
-8.47365e-07
-1.35106e-06
-7.91766e-07
-7.17853e-07
-6.33087e-07
-3.45025e-07
-3.72771e-07
-2.74265e-07
-7.09292e-08
-5.29285e-07
2.54687e-07
-1.42267e-06
8.93162e-07
-3.71645e-06
2.29375e-06
-9.28757e-06
5.57112e-06
1.54964e-05
-2.47839e-05
-3.13234e-05
-2.20454e-08
-3.12728e-05
-9.1609e-08
-3.12076e-05
-1.29204e-07
-3.11335e-05
-1.49729e-07
-3.10536e-05
-1.62304e-07
-3.09699e-05
-1.70796e-07
-3.08833e-05
-1.76928e-07
-3.07945e-05
-1.81742e-07
-3.07038e-05
-1.85809e-07
-3.06114e-05
-1.89471e-07
-3.05174e-05
-1.92931e-07
-3.04218e-05
-1.96297e-07
-3.03247e-05
-1.99648e-07
-3.0226e-05
-2.0301e-07
-3.01257e-05
-2.06424e-07
-3.00237e-05
-2.09885e-07
-2.99202e-05
-2.13421e-07
-2.98149e-05
-2.17019e-07
-2.97078e-05
-2.20697e-07
-2.9599e-05
-2.24439e-07
-2.94884e-05
-2.28262e-07
-2.9376e-05
-2.32137e-07
-2.92616e-05
-2.36074e-07
-2.91454e-05
-2.40097e-07
-2.90273e-05
-2.44101e-07
-2.89074e-05
-2.48103e-07
-2.87855e-05
-2.52313e-07
-2.86617e-05
-2.56655e-07
-2.85359e-05
-2.61098e-07
-2.84081e-05
-2.65645e-07
-2.82783e-05
-2.70315e-07
-2.81464e-05
-2.75114e-07
-2.80123e-05
-2.80059e-07
-2.78761e-05
-2.85157e-07
-2.77376e-05
-2.90423e-07
-2.75968e-05
-2.9586e-07
-2.74536e-05
-3.01481e-07
-2.7308e-05
-3.07302e-07
-2.71598e-05
-3.13335e-07
-2.7009e-05
-3.19573e-07
-2.68556e-05
-3.26061e-07
-2.66994e-05
-3.32809e-07
-2.65403e-05
-3.39828e-07
-2.63783e-05
-3.47141e-07
-2.62132e-05
-3.54758e-07
-2.60449e-05
-3.62694e-07
-2.58732e-05
-3.70964e-07
-2.5698e-05
-3.79578e-07
-2.55191e-05
-3.88536e-07
-2.53364e-05
-3.97865e-07
-2.51496e-05
-4.07555e-07
-2.49586e-05
-4.17351e-07
-2.47637e-05
-4.27193e-07
-2.45654e-05
-4.37158e-07
-2.43637e-05
-4.47239e-07
-2.41589e-05
-4.57463e-07
-2.39507e-05
-4.67751e-07
-2.37389e-05
-4.77927e-07
-2.35235e-05
-4.88e-07
-2.33044e-05
-4.98154e-07
-2.30817e-05
-5.08493e-07
-2.28552e-05
-5.19062e-07
-2.26248e-05
-5.29899e-07
-2.23907e-05
-5.41043e-07
-2.21526e-05
-5.52527e-07
-2.19105e-05
-5.64402e-07
-2.16644e-05
-5.76713e-07
-2.14141e-05
-5.89531e-07
-2.11595e-05
-6.02927e-07
-2.09004e-05
-6.16979e-07
-2.06367e-05
-6.31761e-07
-2.03679e-05
-6.4738e-07
-2.00939e-05
-6.63932e-07
-1.98141e-05
-6.81564e-07
-1.95282e-05
-7.00444e-07
-1.92353e-05
-7.20767e-07
-1.89349e-05
-7.42787e-07
-1.86259e-05
-7.66793e-07
-1.83075e-05
-7.93158e-07
-1.79784e-05
-8.22416e-07
-1.7637e-05
-8.55189e-07
-1.72819e-05
-8.92171e-07
-1.69112e-05
-9.34196e-07
-1.65229e-05
-9.8217e-07
-1.61149e-05
-1.03681e-06
-1.56851e-05
-1.0983e-06
-1.52318e-05
-1.16579e-06
-1.47547e-05
-1.23642e-06
-1.42558e-05
-1.30374e-06
-1.37411e-05
-1.35489e-06
-1.3223e-05
-1.36586e-06
-1.27196e-05
-1.29558e-06
-1.22667e-05
-1.08655e-06
-1.19448e-05
-6.95467e-07
-1.20155e-05
-8.8777e-10
-1.25606e-05
7.99332e-07
-1.39381e-05
2.27039e-06
-1.66703e-05
5.02603e-06
-2.17972e-05
1.0698e-05
2.65672e-05
-3.2868e-05
-3.4298e-05
-4.8461e-08
-3.42545e-05
-1.37369e-07
-3.41992e-05
-1.86738e-07
-3.41365e-05
-2.14651e-07
-3.40691e-05
-2.31922e-07
-3.39985e-05
-2.43557e-07
-3.39257e-05
-2.51868e-07
-3.38512e-05
-2.58356e-07
-3.37753e-05
-2.63759e-07
-3.36982e-05
-2.68609e-07
-3.362e-05
-2.73139e-07
-3.35407e-05
-2.77546e-07
-3.34604e-05
-2.81904e-07
-3.3379e-05
-2.86287e-07
-3.32965e-05
-2.90722e-07
-3.3213e-05
-2.95236e-07
-3.31283e-05
-2.99845e-07
-3.30425e-05
-3.04557e-07
-3.29555e-05
-3.09383e-07
-3.28672e-05
-3.14329e-07
-3.27777e-05
-3.19411e-07
-3.26868e-05
-3.24617e-07
-3.25944e-05
-3.29957e-07
-3.25005e-05
-3.35471e-07
-3.2405e-05
-3.41081e-07
-3.23078e-05
-3.46661e-07
-3.22092e-05
-3.52246e-07
-3.21094e-05
-3.57837e-07
-3.20082e-05
-3.6348e-07
-3.19059e-05
-3.69215e-07
-3.18023e-05
-3.75069e-07
-3.16975e-05
-3.81054e-07
-3.15915e-05
-3.87185e-07
-3.14843e-05
-3.93471e-07
-3.13758e-05
-3.99922e-07
-3.12661e-05
-4.06543e-07
-3.11551e-05
-4.13338e-07
-3.1043e-05
-4.20324e-07
-3.09297e-05
-4.27527e-07
-3.08151e-05
-4.34909e-07
-3.06995e-05
-4.42512e-07
-3.05827e-05
-4.5035e-07
-3.04648e-05
-4.58422e-07
-3.03458e-05
-4.66753e-07
-3.02259e-05
-4.75344e-07
-3.0105e-05
-4.84205e-07
-2.99831e-05
-4.93345e-07
-2.98605e-05
-5.02771e-07
-2.9737e-05
-5.12477e-07
-2.96129e-05
-5.22449e-07
-2.94883e-05
-5.32633e-07
-2.93631e-05
-5.42968e-07
-2.92373e-05
-5.53329e-07
-2.91113e-05
-5.63542e-07
-2.89853e-05
-5.73609e-07
-2.88594e-05
-5.83592e-07
-2.87338e-05
-5.93664e-07
-2.86083e-05
-6.03774e-07
-2.84827e-05
-6.13778e-07
-2.83574e-05
-6.23735e-07
-2.82324e-05
-6.33691e-07
-2.8108e-05
-6.43689e-07
-2.79844e-05
-6.53744e-07
-2.78618e-05
-6.63851e-07
-2.77404e-05
-6.74026e-07
-2.76207e-05
-6.84285e-07
-2.7503e-05
-6.94652e-07
-2.73875e-05
-7.05151e-07
-2.72748e-05
-7.15825e-07
-2.71652e-05
-7.26743e-07
-2.70591e-05
-7.37974e-07
-2.6957e-05
-7.49626e-07
-2.68593e-05
-7.61793e-07
-2.67664e-05
-7.74649e-07
-2.66786e-05
-7.8841e-07
-2.65962e-05
-8.03327e-07
-2.65193e-05
-8.19749e-07
-2.64482e-05
-8.38072e-07
-2.63828e-05
-8.58779e-07
-2.63228e-05
-8.8258e-07
-2.62679e-05
-9.10295e-07
-2.62174e-05
-9.42766e-07
-2.61709e-05
-9.80932e-07
-2.61275e-05
-1.02574e-06
-2.60866e-05
-1.07794e-06
-2.60474e-05
-1.13768e-06
-2.60096e-05
-1.20379e-06
-2.59737e-05
-1.27256e-06
-2.59416e-05
-1.33613e-06
-2.59172e-05
-1.37955e-06
-2.59066e-05
-1.3767e-06
-2.59174e-05
-1.28496e-06
-2.59615e-05
-1.04264e-06
-2.6083e-05
-5.74096e-07
-2.62702e-05
1.86235e-07
-2.67848e-05
1.31389e-06
-2.78163e-05
3.30191e-06
-2.97469e-05
6.95664e-06
-3.32992e-05
1.42503e-05
3.11962e-05
-3.79283e-05
-3.69822e-05
-7.4709e-08
-3.6951e-05
-1.71275e-07
-3.69127e-05
-2.27806e-07
-3.6869e-05
-2.61156e-07
-3.68217e-05
-2.82004e-07
-3.67721e-05
-2.95899e-07
-3.6721e-05
-3.05659e-07
-3.66689e-05
-3.13131e-07
-3.66162e-05
-3.19211e-07
-3.65628e-05
-3.24577e-07
-3.6509e-05
-3.29499e-07
-3.64549e-05
-3.3424e-07
-3.64004e-05
-3.38874e-07
-3.63457e-05
-3.4351e-07
-3.62907e-05
-3.48163e-07
-3.62354e-05
-3.52885e-07
-3.618e-05
-3.57675e-07
-3.61243e-05
-3.6256e-07
-3.60684e-05
-3.67538e-07
-3.60123e-05
-3.72626e-07
-3.59561e-05
-3.77839e-07
-3.58997e-05
-3.83169e-07
-3.58431e-05
-3.88617e-07
-3.57865e-05
-3.94142e-07
-3.57299e-05
-3.99789e-07
-3.5673e-05
-4.05532e-07
-3.56159e-05
-4.11228e-07
-3.55588e-05
-4.16857e-07
-3.55016e-05
-4.22476e-07
-3.54445e-05
-4.28137e-07
-3.53875e-05
-4.33864e-07
-3.53305e-05
-4.3967e-07
-3.52738e-05
-4.45565e-07
-3.52173e-05
-4.51554e-07
-3.51612e-05
-4.57638e-07
-3.51054e-05
-4.63813e-07
-3.50502e-05
-4.70075e-07
-3.49955e-05
-4.76423e-07
-3.49415e-05
-4.82877e-07
-3.48883e-05
-4.89418e-07
-3.4836e-05
-4.96059e-07
-3.47848e-05
-5.02786e-07
-3.47348e-05
-5.0959e-07
-3.46862e-05
-5.16475e-07
-3.46392e-05
-5.2343e-07
-3.4594e-05
-5.30441e-07
-3.45508e-05
-5.37495e-07
-3.45099e-05
-5.44573e-07
-3.44717e-05
-5.51647e-07
-3.44363e-05
-5.58676e-07
-3.44041e-05
-5.65567e-07
-3.43755e-05
-5.72392e-07
-3.43501e-05
-5.79385e-07
-3.43279e-05
-5.86423e-07
-3.43089e-05
-5.9328e-07
-3.42932e-05
-5.99926e-07
-3.4281e-05
-6.06398e-07
-3.42727e-05
-6.12633e-07
-3.42684e-05
-6.18531e-07
-3.42685e-05
-6.24111e-07
-3.42733e-05
-6.29372e-07
-3.42831e-05
-6.34316e-07
-3.42982e-05
-6.38974e-07
-3.43191e-05
-6.4335e-07
-3.4346e-05
-6.47455e-07
-3.43793e-05
-6.51305e-07
-3.44193e-05
-6.5493e-07
-3.44664e-05
-6.58369e-07
-3.45207e-05
-6.61692e-07
-3.45827e-05
-6.64993e-07
-3.46526e-05
-6.68385e-07
-3.47303e-05
-6.7204e-07
-3.48162e-05
-6.76152e-07
-3.491e-05
-6.80983e-07
-3.50118e-05
-6.86861e-07
-3.51211e-05
-6.94178e-07
-3.52375e-05
-7.03434e-07
-3.53606e-05
-7.15209e-07
-3.54894e-05
-7.30084e-07
-3.56231e-05
-7.48942e-07
-3.57608e-05
-7.72794e-07
-3.59011e-05
-8.02545e-07
-3.6043e-05
-8.3916e-07
-3.61853e-05
-8.83536e-07
-3.6327e-05
-9.36245e-07
-3.64677e-05
-9.97131e-07
-3.6607e-05
-1.06452e-06
-3.67456e-05
-1.13404e-06
-3.68848e-05
-1.19692e-06
-3.70268e-05
-1.23756e-06
-3.71735e-05
-1.23005e-06
-3.73241e-05
-1.13442e-06
-3.74781e-05
-8.88622e-07
-3.76333e-05
-4.18899e-07
-3.77971e-05
3.50025e-07
-3.81008e-05
1.61753e-06
-3.86641e-05
3.86524e-06
-3.96594e-05
7.95193e-06
-4.12704e-05
1.58614e-05
3.12613e-05
-4.13355e-05
-3.96837e-05
-9.41208e-08
-3.96701e-05
-1.88093e-07
-3.96554e-05
-2.45853e-07
-3.96387e-05
-2.81193e-07
-3.96205e-05
-3.03538e-07
-3.96016e-05
-3.1815e-07
-3.95824e-05
-3.28211e-07
-3.95632e-05
-3.35608e-07
-3.95443e-05
-3.4144e-07
-3.95257e-05
-3.46375e-07
-3.95077e-05
-3.50782e-07
-3.94902e-05
-3.549e-07
-3.94734e-05
-3.58852e-07
-3.94573e-05
-3.62723e-07
-3.9442e-05
-3.66555e-07
-3.94276e-05
-3.70376e-07
-3.94142e-05
-3.74198e-07
-3.94017e-05
-3.78029e-07
-3.93903e-05
-3.81873e-07
-3.93802e-05
-3.85729e-07
-3.93713e-05
-3.89617e-07
-3.93638e-05
-3.9352e-07
-3.93579e-05
-3.97391e-07
-3.93536e-05
-4.01198e-07
-3.93512e-05
-4.05017e-07
-3.93504e-05
-4.08962e-07
-3.93513e-05
-4.13008e-07
-3.93538e-05
-4.1703e-07
-3.93579e-05
-4.20998e-07
-3.93636e-05
-4.24931e-07
-3.93712e-05
-4.28845e-07
-3.93806e-05
-4.32746e-07
-3.93919e-05
-4.36639e-07
-3.94054e-05
-4.40521e-07
-3.9421e-05
-4.44391e-07
-3.94389e-05
-4.48233e-07
-3.94591e-05
-4.52046e-07
-3.9482e-05
-4.55828e-07
-3.95074e-05
-4.59567e-07
-3.95357e-05
-4.63262e-07
-3.95669e-05
-4.66927e-07
-3.96012e-05
-4.7053e-07
-3.96387e-05
-4.74069e-07
-3.96795e-05
-4.77542e-07
-3.97239e-05
-4.80943e-07
-3.97719e-05
-4.84257e-07
-3.98236e-05
-4.87478e-07
-3.98793e-05
-4.90594e-07
-3.9939e-05
-4.93591e-07
-4.00028e-05
-4.96451e-07
-4.00707e-05
-4.99141e-07
-4.01429e-05
-5.01718e-07
-4.02193e-05
-5.04319e-07
-4.03002e-05
-5.06881e-07
-4.03855e-05
-5.09273e-07
-4.04753e-05
-5.11418e-07
-4.05695e-05
-5.13277e-07
-4.06685e-05
-5.148e-07
-4.07721e-05
-5.15943e-07
-4.08805e-05
-5.16739e-07
-4.09936e-05
-5.17216e-07
-4.11114e-05
-5.17414e-07
-4.12338e-05
-5.17369e-07
-4.13608e-05
-5.17114e-07
-4.14923e-05
-5.16691e-07
-4.16281e-05
-5.1614e-07
-4.17681e-05
-5.15513e-07
-4.19122e-05
-5.14876e-07
-4.20601e-05
-5.14317e-07
-4.22116e-05
-5.13946e-07
-4.23665e-05
-5.13897e-07
-4.25246e-05
-5.14344e-07
-4.26856e-05
-5.15496e-07
-4.28493e-05
-5.17625e-07
-4.30153e-05
-5.21065e-07
-4.31836e-05
-5.26207e-07
-4.33537e-05
-5.33534e-07
-4.35254e-05
-5.43713e-07
-4.36984e-05
-5.57199e-07
-4.38726e-05
-5.74884e-07
-4.40476e-05
-5.97919e-07
-4.42232e-05
-6.27108e-07
-4.43991e-05
-6.6336e-07
-4.45752e-05
-7.0748e-07
-4.47516e-05
-7.59899e-07
-4.49285e-05
-8.20329e-07
-4.5106e-05
-8.87006e-07
-4.52847e-05
-9.55419e-07
-4.54647e-05
-1.01687e-06
-4.56458e-05
-1.05654e-06
-4.58252e-05
-1.05066e-06
-4.59959e-05
-9.63713e-07
-4.6143e-05
-7.41529e-07
-4.62469e-05
-3.15008e-07
-4.63117e-05
4.14799e-07
-4.63751e-05
1.68096e-06
-4.64532e-05
3.94339e-06
-4.65459e-05
8.04457e-06
-4.63287e-05
1.56442e-05
2.84365e-05
-4.3504e-05
-4.25382e-05
-9.99522e-08
-4.2547e-05
-1.83013e-07
-4.25613e-05
-2.35317e-07
-4.25782e-05
-2.68043e-07
-4.25968e-05
-2.88748e-07
-4.26169e-05
-3.0193e-07
-4.26382e-05
-3.10661e-07
-4.2661e-05
-3.16668e-07
-4.26851e-05
-3.21088e-07
-4.27108e-05
-3.24531e-07
-4.27379e-05
-3.27401e-07
-4.27667e-05
-3.29901e-07
-4.27971e-05
-3.32183e-07
-4.28292e-05
-3.34305e-07
-4.28632e-05
-3.36328e-07
-4.2899e-05
-3.38261e-07
-4.29368e-05
-3.40129e-07
-4.29766e-05
-3.41922e-07
-4.30185e-05
-3.43653e-07
-4.30626e-05
-3.45315e-07
-4.31089e-05
-3.46935e-07
-4.31576e-05
-3.48534e-07
-4.32086e-05
-3.49963e-07
-4.32621e-05
-3.51283e-07
-4.33181e-05
-3.5265e-07
-4.33766e-05
-3.54053e-07
-4.34377e-05
-3.55476e-07
-4.35014e-05
-3.56839e-07
-4.35678e-05
-3.58118e-07
-4.3637e-05
-3.59318e-07
-4.37088e-05
-3.60454e-07
-4.37835e-05
-3.61532e-07
-4.38611e-05
-3.62562e-07
-4.39415e-05
-3.63545e-07
-4.40248e-05
-3.64483e-07
-4.41111e-05
-3.65367e-07
-4.42003e-05
-3.66202e-07
-4.42925e-05
-3.66998e-07
-4.43877e-05
-3.67747e-07
-4.44858e-05
-3.68436e-07
-4.45869e-05
-3.691e-07
-4.46909e-05
-3.6973e-07
-4.47979e-05
-3.70323e-07
-4.49078e-05
-3.70887e-07
-4.50204e-05
-3.71426e-07
-4.51359e-05
-3.71936e-07
-4.5254e-05
-3.72416e-07
-4.53748e-05
-3.72865e-07
-4.54981e-05
-3.73281e-07
-4.56238e-05
-3.73651e-07
-4.57519e-05
-3.73973e-07
-4.58822e-05
-3.74284e-07
-4.60146e-05
-3.7468e-07
-4.61491e-05
-3.75144e-07
-4.62854e-05
-3.75616e-07
-4.64234e-05
-3.7601e-07
-4.6563e-05
-3.76232e-07
-4.6704e-05
-3.76199e-07
-4.68465e-05
-3.75894e-07
-4.69901e-05
-3.7535e-07
-4.7135e-05
-3.74599e-07
-4.72809e-05
-3.73677e-07
-4.74277e-05
-3.72606e-07
-4.75754e-05
-3.71404e-07
-4.77238e-05
-3.70114e-07
-4.7873e-05
-3.68748e-07
-4.80229e-05
-3.67349e-07
-4.81734e-05
-3.65973e-07
-4.83246e-05
-3.64689e-07
-4.84764e-05
-3.63591e-07
-4.86289e-05
-3.62807e-07
-4.8782e-05
-3.62487e-07
-4.89358e-05
-3.62823e-07
-4.90905e-05
-3.64082e-07
-4.9246e-05
-3.66604e-07
-4.94024e-05
-3.70775e-07
-4.95597e-05
-3.77062e-07
-4.97181e-05
-3.86124e-07
-4.98776e-05
-3.98457e-07
-5.00384e-05
-4.14728e-07
-5.0201e-05
-4.35957e-07
-5.03655e-05
-4.63105e-07
-5.05322e-05
-4.97091e-07
-5.07015e-05
-5.38679e-07
-5.08735e-05
-5.88233e-07
-5.10487e-05
-6.45452e-07
-5.12273e-05
-7.08753e-07
-5.1409e-05
-7.73932e-07
-5.15932e-05
-8.32907e-07
-5.17773e-05
-8.72536e-07
-5.19557e-05
-8.72387e-07
-5.21169e-05
-8.0267e-07
-5.22367e-05
-6.21728e-07
-5.22875e-05
-2.6431e-07
-5.22515e-05
3.78842e-07
-5.20988e-05
1.52822e-06
-5.1749e-05
3.5935e-06
-5.10316e-05
7.32718e-06
-4.93304e-05
1.3943e-05
2.38457e-05
-4.47397e-05
-4.54852e-05
-9.04219e-08
-4.55179e-05
-1.54188e-07
-4.55617e-05
-1.95521e-07
-4.56119e-05
-2.2183e-07
-4.56664e-05
-2.38269e-07
-4.57241e-05
-2.48285e-07
-4.57844e-05
-2.54455e-07
-4.58468e-05
-2.58207e-07
-4.59114e-05
-2.60537e-07
-4.5978e-05
-2.61978e-07
-4.60465e-05
-2.62884e-07
-4.6117e-05
-2.63435e-07
-4.61895e-05
-2.63772e-07
-4.62639e-05
-2.63949e-07
-4.63402e-05
-2.64027e-07
-4.64185e-05
-2.64015e-07
-4.64988e-05
-2.63943e-07
-4.6581e-05
-2.63804e-07
-4.66652e-05
-2.63617e-07
-4.67513e-05
-2.63378e-07
-4.68393e-05
-2.63119e-07
-4.69291e-05
-2.62866e-07
-4.70208e-05
-2.62484e-07
-4.71145e-05
-2.61898e-07
-4.72102e-05
-2.61217e-07
-4.7308e-05
-2.60493e-07
-4.7408e-05
-2.5976e-07
-4.75102e-05
-2.58985e-07
-4.76145e-05
-2.58162e-07
-4.77208e-05
-2.57295e-07
-4.78292e-05
-2.56413e-07
-4.79396e-05
-2.55517e-07
-4.80519e-05
-2.5464e-07
-4.8166e-05
-2.53781e-07
-4.8282e-05
-2.5296e-07
-4.83996e-05
-2.52162e-07
-4.85188e-05
-2.51416e-07
-4.86396e-05
-2.50711e-07
-4.87618e-05
-2.50075e-07
-4.88853e-05
-2.49495e-07
-4.90099e-05
-2.48997e-07
-4.91356e-05
-2.48577e-07
-4.92623e-05
-2.48242e-07
-4.93899e-05
-2.4799e-07
-4.95181e-05
-2.4783e-07
-4.9647e-05
-2.47752e-07
-4.97764e-05
-2.47752e-07
-4.99061e-05
-2.47818e-07
-5.00362e-05
-2.47961e-07
-5.01665e-05
-2.48146e-07
-5.02969e-05
-2.48389e-07
-5.04273e-05
-2.48685e-07
-5.05578e-05
-2.49109e-07
-5.06881e-05
-2.49673e-07
-5.08182e-05
-2.50337e-07
-5.09481e-05
-2.50995e-07
-5.10777e-05
-2.51504e-07
-5.12071e-05
-2.51725e-07
-5.13362e-05
-2.51637e-07
-5.14651e-05
-2.51286e-07
-5.15939e-05
-2.50697e-07
-5.17224e-05
-2.49891e-07
-5.18509e-05
-2.48873e-07
-5.19794e-05
-2.47641e-07
-5.2108e-05
-2.46224e-07
-5.22367e-05
-2.44627e-07
-5.23657e-05
-2.4287e-07
-5.24952e-05
-2.40997e-07
-5.26252e-05
-2.39063e-07
-5.27559e-05
-2.37151e-07
-5.28876e-05
-2.35372e-07
-5.30203e-05
-2.33864e-07
-5.31543e-05
-2.32811e-07
-5.32898e-05
-2.32458e-07
-5.3427e-05
-2.3315e-07
-5.35662e-05
-2.35263e-07
-5.37075e-05
-2.39241e-07
-5.38515e-05
-2.45565e-07
-5.39983e-05
-2.54946e-07
-5.41479e-05
-2.68226e-07
-5.43006e-05
-2.86211e-07
-5.44567e-05
-3.09745e-07
-5.46168e-05
-3.39663e-07
-5.47813e-05
-3.76712e-07
-5.49506e-05
-4.21236e-07
-5.51253e-05
-4.72983e-07
-5.53052e-05
-5.30858e-07
-5.54896e-05
-5.9137e-07
-5.56768e-05
-6.4739e-07
-5.58627e-05
-6.8812e-07
-5.60391e-05
-6.97363e-07
-5.61911e-05
-6.51836e-07
-5.62903e-05
-5.23369e-07
-5.62998e-05
-2.55567e-07
-5.61753e-05
2.5389e-07
-5.58371e-05
1.18947e-06
-5.51228e-05
2.8786e-06
-5.37229e-05
5.92653e-06
-5.09131e-05
1.11323e-05
1.82304e-05
-4.5299e-05
-4.81592e-05
-6.84198e-08
-4.82088e-05
-1.08369e-07
-4.82718e-05
-1.36228e-07
-4.83434e-05
-1.53996e-07
-4.84206e-05
-1.64872e-07
-4.85015e-05
-1.71111e-07
-4.85851e-05
-1.74518e-07
-4.86709e-05
-1.76156e-07
-4.87584e-05
-1.76726e-07
-4.88474e-05
-1.76631e-07
-4.89378e-05
-1.76133e-07
-4.90295e-05
-1.75367e-07
-4.91225e-05
-1.7444e-07
-4.92167e-05
-1.73397e-07
-4.93121e-05
-1.72286e-07
-4.94087e-05
-1.71116e-07
-4.95064e-05
-1.69913e-07
-4.96052e-05
-1.68671e-07
-4.9705e-05
-1.67411e-07
-4.9806e-05
-1.66124e-07
-4.9908e-05
-1.64814e-07
-5.00112e-05
-1.63441e-07
-5.01153e-05
-1.62104e-07
-5.02202e-05
-1.60801e-07
-5.03257e-05
-1.59468e-07
-5.04319e-05
-1.58113e-07
-5.05388e-05
-1.56796e-07
-5.06461e-05
-1.555e-07
-5.0754e-05
-1.54239e-07
-5.08622e-05
-1.53008e-07
-5.09708e-05
-1.51851e-07
-5.10796e-05
-1.50746e-07
-5.11886e-05
-1.49743e-07
-5.12977e-05
-1.4882e-07
-5.14069e-05
-1.48016e-07
-5.1516e-05
-1.47288e-07
-5.16251e-05
-1.46686e-07
-5.1734e-05
-1.46164e-07
-5.18428e-05
-1.45771e-07
-5.19514e-05
-1.45484e-07
-5.20598e-05
-1.45313e-07
-5.21679e-05
-1.45248e-07
-5.22757e-05
-1.45288e-07
-5.23832e-05
-1.45431e-07
-5.24904e-05
-1.45671e-07
-5.25974e-05
-1.45994e-07
-5.2704e-05
-1.46384e-07
-5.28105e-05
-1.46825e-07
-5.29167e-05
-1.47315e-07
-5.30227e-05
-1.47828e-07
-5.31285e-05
-1.48364e-07
-5.32343e-05
-1.48903e-07
-5.334e-05
-1.4948e-07
-5.34458e-05
-1.50153e-07
-5.35516e-05
-1.50934e-07
-5.36575e-05
-1.5167e-07
-5.37635e-05
-1.52194e-07
-5.38698e-05
-1.52284e-07
-5.39766e-05
-1.51942e-07
-5.40838e-05
-1.51244e-07
-5.41917e-05
-1.50222e-07
-5.43002e-05
-1.48887e-07
-5.44095e-05
-1.4724e-07
-5.45198e-05
-1.45277e-07
-5.4631e-05
-1.42992e-07
-5.47434e-05
-1.4039e-07
-5.48571e-05
-1.37488e-07
-5.49723e-05
-1.34309e-07
-5.50891e-05
-1.30897e-07
-5.52077e-05
-1.27322e-07
-5.53283e-05
-1.23679e-07
-5.54511e-05
-1.20099e-07
-5.55763e-05
-1.16754e-07
-5.57042e-05
-1.13852e-07
-5.58349e-05
-1.1176e-07
-5.59688e-05
-1.10832e-07
-5.61061e-05
-1.11469e-07
-5.62471e-05
-1.14124e-07
-5.63921e-05
-1.19538e-07
-5.65415e-05
-1.28567e-07
-5.66954e-05
-1.42054e-07
-5.68541e-05
-1.60766e-07
-5.70182e-05
-1.85348e-07
-5.71882e-05
-2.16582e-07
-5.73644e-05
-2.54865e-07
-5.75472e-05
-2.9997e-07
-5.77362e-05
-3.51548e-07
-5.79299e-05
-4.07372e-07
-5.81257e-05
-4.61204e-07
-5.8318e-05
-5.05153e-07
-5.84968e-05
-5.27691e-07
-5.86442e-05
-5.13104e-07
-5.87326e-05
-4.43098e-07
-5.87137e-05
-2.81913e-07
-5.8519e-05
5.27367e-08
-5.80355e-05
6.99789e-07
-5.70366e-05
1.87264e-06
-5.51152e-05
3.99656e-06
-5.15357e-05
7.54152e-06
1.20558e-05
-4.53749e-05
-5.01955e-05
-3.48166e-08
-5.02524e-05
-5.4206e-08
-5.03231e-05
-6.82316e-08
-5.04025e-05
-7.71917e-08
-5.04873e-05
-8.26227e-08
-5.05753e-05
-8.5536e-08
-5.06654e-05
-8.69003e-08
-5.07566e-05
-8.73328e-08
-5.08485e-05
-8.71999e-08
-5.09408e-05
-8.66988e-08
-5.10332e-05
-8.59865e-08
-5.11257e-05
-8.51274e-08
-5.12181e-05
-8.4186e-08
-5.13105e-05
-8.31873e-08
-5.14027e-05
-8.21595e-08
-5.14948e-05
-8.11072e-08
-5.15868e-05
-8.00448e-08
-5.16785e-05
-7.89704e-08
-5.177e-05
-7.78949e-08
-5.18612e-05
-7.68132e-08
-5.19523e-05
-7.57163e-08
-5.2043e-05
-7.45744e-08
-5.21335e-05
-7.35644e-08
-5.22234e-05
-7.27663e-08
-5.23127e-05
-7.20525e-08
-5.24014e-05
-7.13631e-08
-5.24895e-05
-7.07194e-08
-5.25769e-05
-7.01075e-08
-5.26637e-05
-6.95357e-08
-5.27499e-05
-6.90013e-08
-5.28354e-05
-6.8538e-08
-5.29203e-05
-6.81278e-08
-5.30047e-05
-6.78005e-08
-5.30884e-05
-6.75384e-08
-5.31716e-05
-6.73657e-08
-5.32543e-05
-6.72481e-08
-5.33365e-05
-6.72116e-08
-5.34183e-05
-6.72149e-08
-5.34997e-05
-6.73138e-08
-5.35807e-05
-6.7454e-08
-5.36615e-05
-6.7668e-08
-5.37421e-05
-6.79331e-08
-5.38226e-05
-6.82352e-08
-5.3903e-05
-6.85858e-08
-5.39833e-05
-6.89645e-08
-5.40638e-05
-6.93587e-08
-5.41443e-05
-6.97507e-08
-5.42251e-05
-7.01382e-08
-5.43062e-05
-7.04801e-08
-5.43876e-05
-7.0777e-08
-5.44695e-05
-7.1009e-08
-5.45519e-05
-7.11844e-08
-5.4635e-05
-7.12759e-08
-5.47188e-05
-7.1367e-08
-5.48033e-05
-7.16155e-08
-5.48887e-05
-7.17504e-08
-5.49749e-05
-7.16506e-08
-5.50621e-05
-7.09169e-08
-5.51505e-05
-6.96e-08
-5.52402e-05
-6.78414e-08
-5.53313e-05
-6.56905e-08
-5.54239e-05
-6.31482e-08
-5.55181e-05
-6.02082e-08
-5.56139e-05
-5.6856e-08
-5.57115e-05
-5.30764e-08
-5.58111e-05
-4.88655e-08
-5.59127e-05
-4.42329e-08
-5.60166e-05
-3.91916e-08
-5.61229e-05
-3.37742e-08
-5.62317e-05
-2.80377e-08
-5.63432e-05
-2.20659e-08
-5.64577e-05
-1.59728e-08
-5.65754e-05
-9.92501e-09
-5.66964e-05
-4.13421e-09
-5.68211e-05
1.12206e-09
-5.69498e-05
5.50632e-09
-5.70828e-05
8.54322e-09
-5.72204e-05
9.82836e-09
-5.73628e-05
8.68234e-09
-5.75107e-05
4.37373e-09
-5.76644e-05
-3.86058e-09
-5.78245e-05
-1.69057e-08
-5.79915e-05
-3.53236e-08
-5.81661e-05
-5.99104e-08
-5.83485e-05
-9.12702e-08
-5.85393e-05
-1.29054e-07
-5.87382e-05
-1.73684e-07
-5.89426e-05
-2.25356e-07
-5.91497e-05
-2.77818e-07
-5.93534e-05
-3.26757e-07
-5.95425e-05
-3.65499e-07
-5.96981e-05
-3.86111e-07
-5.97924e-05
-3.79154e-07
-5.97754e-05
-3.30863e-07
-5.95614e-05
-1.94411e-07
-5.89993e-05
1.03884e-07
-5.78335e-05
6.71025e-07
-5.55911e-05
1.71232e-06
-5.15468e-05
3.44608e-06
5.58029e-06
-4.51311e-05
-5.11857e-05
4.6289e-09
-5.12418e-05
1.23032e-09
-5.13111e-05
3.91297e-10
-5.13887e-05
-2.21908e-10
-5.14709e-05
-9.74191e-10
-5.15557e-05
-1.29566e-09
-5.16416e-05
-1.51002e-09
-5.17277e-05
-1.67021e-09
-5.18136e-05
-1.80984e-09
-5.18988e-05
-1.89876e-09
-5.19832e-05
-1.976e-09
-5.20667e-05
-2.02432e-09
-5.21492e-05
-2.04994e-09
-5.22307e-05
-2.06746e-09
-5.23112e-05
-2.06534e-09
-5.23906e-05
-2.0509e-09
-5.2469e-05
-2.01452e-09
-5.25464e-05
-1.96202e-09
-5.26227e-05
-1.8854e-09
-5.26981e-05
-1.78709e-09
-5.27726e-05
-1.64738e-09
-5.28461e-05
-1.47926e-09
-5.29187e-05
-1.4205e-09
-5.29903e-05
-1.53387e-09
-5.30612e-05
-1.67138e-09
-5.31313e-05
-1.79558e-09
-5.32006e-05
-1.91332e-09
-5.32693e-05
-2.01468e-09
-5.33374e-05
-2.0903e-09
-5.34049e-05
-2.16249e-09
-5.34718e-05
-2.23282e-09
-5.35384e-05
-2.32942e-09
-5.36045e-05
-2.43822e-09
-5.36702e-05
-2.56845e-09
-5.37357e-05
-2.70233e-09
-5.3801e-05
-2.86059e-09
-5.38661e-05
-3.0099e-09
-5.3931e-05
-3.16425e-09
-5.3996e-05
-3.33724e-09
-5.40609e-05
-3.49772e-09
-5.41259e-05
-3.6611e-09
-5.41911e-05
-3.81556e-09
-5.42565e-05
-3.94708e-09
-5.43221e-05
-4.05491e-09
-5.4388e-05
-4.12897e-09
-5.44544e-05
-4.15074e-09
-5.45212e-05
-4.10592e-09
-5.45886e-05
-3.98896e-09
-5.46566e-05
-3.75828e-09
-5.47252e-05
-3.41361e-09
-5.47946e-05
-2.93451e-09
-5.48648e-05
-2.31913e-09
-5.49359e-05
-1.52574e-09
-5.50081e-05
-5.56961e-10
-5.50812e-05
4.14865e-11
-5.51553e-05
9.28423e-10
-5.52304e-05
1.90041e-09
-5.53067e-05
3.81164e-09
-5.53844e-05
6.48048e-09
-5.54637e-05
9.64187e-09
-5.55444e-05
1.3242e-08
-5.56268e-05
1.72969e-08
-5.57109e-05
2.18294e-08
-5.57967e-05
2.68681e-08
-5.58846e-05
3.2429e-08
-5.59744e-05
3.85241e-08
-5.60665e-05
4.51578e-08
-5.61608e-05
5.23263e-08
-5.62576e-05
6.00066e-08
-5.63571e-05
6.81548e-08
-5.64595e-05
7.67025e-08
-5.65648e-05
8.55529e-08
-5.66735e-05
9.45525e-08
-5.67856e-05
1.03489e-07
-5.69016e-05
1.12187e-07
-5.70217e-05
1.20334e-07
-5.71463e-05
1.27462e-07
-5.72757e-05
1.33135e-07
-5.74103e-05
1.36719e-07
-5.75505e-05
1.37508e-07
-5.76969e-05
1.34889e-07
-5.78501e-05
1.2812e-07
-5.80106e-05
1.1645e-07
-5.81788e-05
9.91345e-08
-5.83553e-05
7.55648e-08
-5.85396e-05
4.50658e-08
-5.87324e-05
8.52255e-09
-5.89298e-05
-3.91766e-08
-5.91301e-05
-9.01257e-08
-5.93265e-05
-1.44602e-07
-5.95078e-05
-2.00671e-07
-5.9656e-05
-2.57151e-07
-5.97419e-05
-3.16019e-07
-5.97199e-05
-3.80066e-07
-5.95001e-05
-4.47372e-07
-5.89216e-05
-5.15187e-07
-5.77042e-05
-5.93154e-07
-5.53481e-05
-6.94528e-07
-5.11216e-05
-8.32572e-07
-9.58389e-07
-4.46299e-05
-5.07683e-05
4.26202e-08
-5.08229e-05
5.71714e-08
-5.0891e-05
6.97123e-08
-5.09676e-05
7.75752e-08
-5.10495e-05
8.20055e-08
-5.11341e-05
8.43804e-08
-5.12201e-05
8.54451e-08
-5.13064e-05
8.56938e-08
-5.13927e-05
8.54444e-08
-5.14786e-05
8.49018e-08
-5.15639e-05
8.41838e-08
-5.16485e-05
8.33552e-08
-5.17322e-05
8.24836e-08
-5.1815e-05
8.15668e-08
-5.1897e-05
8.06503e-08
-5.1978e-05
7.97288e-08
-5.20581e-05
7.88312e-08
-5.21373e-05
7.79492e-08
-5.22156e-05
7.71046e-08
-5.22929e-05
7.62902e-08
-5.23694e-05
7.5527e-08
-5.24449e-05
7.47788e-08
-5.25196e-05
7.39787e-08
-5.25935e-05
7.30935e-08
-5.26666e-05
7.22136e-08
-5.27389e-05
7.13581e-08
-5.28106e-05
7.05428e-08
-5.28815e-05
6.97787e-08
-5.29518e-05
6.90916e-08
-5.30215e-05
6.84508e-08
-5.30906e-05
6.7866e-08
-5.31592e-05
6.72928e-08
-5.32274e-05
6.67637e-08
-5.32951e-05
6.62565e-08
-5.33624e-05
6.58043e-08
-5.34294e-05
6.53727e-08
-5.34962e-05
6.50101e-08
-5.35627e-05
6.46713e-08
-5.3629e-05
6.44154e-08
-5.36953e-05
6.41918e-08
-5.37614e-05
6.40468e-08
-5.38276e-05
6.39679e-08
-5.38939e-05
6.39562e-08
-5.39603e-05
6.40426e-08
-5.40268e-05
6.42264e-08
-5.40936e-05
6.4527e-08
-5.41607e-05
6.49579e-08
-5.42282e-05
6.55344e-08
-5.42962e-05
6.62808e-08
-5.43646e-05
6.721e-08
-5.44336e-05
6.83314e-08
-5.45032e-05
6.96573e-08
-5.45735e-05
7.12061e-08
-5.46444e-05
7.28842e-08
-5.47162e-05
7.45742e-08
-5.47891e-05
7.65109e-08
-5.48631e-05
7.88188e-08
-5.49383e-05
8.1949e-08
-5.50145e-05
8.58159e-08
-5.50918e-05
9.02681e-08
-5.51704e-05
9.52734e-08
-5.52504e-05
1.00841e-07
-5.53318e-05
1.06995e-07
-5.54147e-05
1.13764e-07
-5.54993e-05
1.21172e-07
-5.55856e-05
1.29236e-07
-5.56739e-05
1.37974e-07
-5.57641e-05
1.47401e-07
-5.58564e-05
1.57504e-07
-5.59511e-05
1.68253e-07
-5.60482e-05
1.79603e-07
-5.6148e-05
1.91477e-07
-5.62507e-05
2.03747e-07
-5.63565e-05
2.16246e-07
-5.64656e-05
2.28792e-07
-5.65784e-05
2.41097e-07
-5.66952e-05
2.52773e-07
-5.68162e-05
2.63384e-07
-5.69419e-05
2.7237e-07
-5.70728e-05
2.79118e-07
-5.72093e-05
2.83013e-07
-5.73519e-05
2.83342e-07
-5.75011e-05
2.79317e-07
-5.76573e-05
2.70208e-07
-5.78208e-05
2.55259e-07
-5.79914e-05
2.33305e-07
-5.81671e-05
2.03444e-07
-5.83488e-05
1.63777e-07
-5.85301e-05
1.15214e-07
-5.87027e-05
5.5283e-08
-5.88557e-05
-1.66303e-08
-5.89734e-05
-1.04664e-07
-5.90269e-05
-2.23788e-07
-5.89683e-05
-3.95343e-07
-5.87137e-05
-6.53671e-07
-5.81078e-05
-1.0673e-06
-5.68718e-05
-1.76942e-06
-5.45182e-05
-2.98239e-06
-5.03444e-05
-4.93581e-06
-7.27455e-06
-4.3959e-05
-4.91855e-05
7.17377e-08
-4.92369e-05
1.11411e-07
-4.93023e-05
1.38021e-07
-4.9377e-05
1.55011e-07
-4.94575e-05
1.65254e-07
-4.95416e-05
1.71183e-07
-4.9628e-05
1.74497e-07
-4.97158e-05
1.76152e-07
-4.98046e-05
1.76855e-07
-4.9894e-05
1.76916e-07
-4.99839e-05
1.76642e-07
-5.0074e-05
1.76104e-07
-5.01644e-05
1.75437e-07
-5.0255e-05
1.74663e-07
-5.03456e-05
1.73834e-07
-5.04363e-05
1.72956e-07
-5.05271e-05
1.72059e-07
-5.06177e-05
1.7114e-07
-5.07083e-05
1.7022e-07
-5.07988e-05
1.69291e-07
-5.08891e-05
1.68367e-07
-5.09792e-05
1.67414e-07
-5.10691e-05
1.66398e-07
-5.11587e-05
1.65298e-07
-5.12481e-05
1.64172e-07
-5.13371e-05
1.63028e-07
-5.14258e-05
1.61888e-07
-5.15141e-05
1.60777e-07
-5.16019e-05
1.59729e-07
-5.16894e-05
1.58722e-07
-5.17765e-05
1.57748e-07
-5.1863e-05
1.56783e-07
-5.19492e-05
1.55848e-07
-5.20348e-05
1.54939e-07
-5.212e-05
1.5408e-07
-5.22047e-05
1.53262e-07
-5.22889e-05
1.52506e-07
-5.23727e-05
1.51794e-07