/*--------------------------------*- C++ -*----------------------------------*\
| =========                 |                                                 |
| \\      /  F ield         | OpenFOAM: The Open Source CFD Toolbox           |
|  \\    /   O peration     | Version:  2.1.0                                 |
|   \\  /    A nd           | Web:      www.OpenFOAM.org                      |
|    \\/     M anipulation  |                                                 |
\*---------------------------------------------------------------------------*/
FoamFile
{
    version     2.0;
    format      ascii;
    class       volScalarField;
    location    "0.48";
    object      rho;
}
// * * * * * * * * * * * * * * * * * * * * * * * * * * * * * * * * * * * * * //

dimensions      [1 -3 0 0 0 0 0];

internalField   nonuniform List<scalar> 
6400
(
946.03
945.984
945.939
945.895
945.852
945.809
945.768
945.728
945.688
945.65
945.612
945.576
945.541
945.506
945.473
945.441
945.409
945.379
945.349
945.321
945.293
945.267
945.241
945.216
945.192
945.169
945.147
945.126
945.106
945.087
945.068
945.051
945.034
945.018
945.003
944.988
944.974
944.961
944.949
944.938
944.927
944.917
944.907
944.898
944.89
944.882
944.875
944.869
944.863
944.857
944.852
944.847
944.843
944.84
944.837
944.834
944.832
944.83
944.828
944.827
944.826
944.825
944.825
944.825
944.825
944.825
944.826
944.827
944.829
944.831
944.833
944.835
944.838
944.841
944.845
944.849
944.854
944.859
944.864
944.871
944.878
944.887
944.896
944.908
944.921
944.938
944.958
944.985
945.022
945.076
945.16
945.305
945.582
946.139
946.864
945.358
944.579
944.555
944.555
944.555
946.429
946.375
946.32
946.266
946.212
946.158
946.106
946.055
946.004
945.955
945.906
945.859
945.812
945.767
945.722
945.679
945.636
945.595
945.555
945.516
945.477
945.44
945.404
945.369
945.335
945.302
945.27
945.239
945.21
945.181
945.154
945.127
945.102
945.077
945.054
945.032
945.01
944.99
944.97
944.952
944.935
944.918
944.902
944.888
944.874
944.861
944.848
944.837
944.826
944.816
944.807
944.798
944.79
944.783
944.776
944.77
944.764
944.759
944.755
944.75
944.746
944.743
944.74
944.737
944.734
944.732
944.73
944.728
944.726
944.724
944.723
944.722
944.721
944.72
944.719
944.718
944.717
944.717
944.717
944.716
944.716
944.716
944.716
944.716
944.717
944.718
944.718
944.719
944.721
944.721
944.721
944.718
944.708
944.687
944.645
944.588
944.557
944.555
944.555
944.555
946.945
946.883
946.818
946.752
946.687
946.622
946.559
946.496
946.433
946.372
946.312
946.253
946.194
946.137
946.081
946.025
945.971
945.918
945.866
945.815
945.765
945.716
945.668
945.622
945.576
945.531
945.488
945.446
945.405
945.365
945.327
945.29
945.254
945.219
945.185
945.153
945.122
945.092
945.063
945.036
945.01
944.985
944.961
944.938
944.917
944.896
944.877
944.859
944.842
944.826
944.81
944.796
944.783
944.77
944.759
944.748
944.738
944.728
944.719
944.711
944.704
944.697
944.691
944.685
944.679
944.674
944.669
944.664
944.66
944.656
944.652
944.648
944.644
944.641
944.637
944.633
944.63
944.626
944.622
944.618
944.614
944.61
944.606
944.602
944.598
944.594
944.59
944.585
944.581
944.577
944.572
944.568
944.564
944.561
944.558
944.556
944.555
944.555
944.555
944.555
947.697
947.626
947.551
947.473
947.395
947.318
947.241
947.164
947.088
947.013
946.939
946.865
946.793
946.721
946.65
946.581
946.512
946.444
946.377
946.312
946.247
946.184
946.121
946.06
945.999
945.94
945.882
945.825
945.77
945.715
945.662
945.61
945.56
945.511
945.463
945.416
945.371
945.327
945.285
945.244
945.204
945.166
945.13
945.094
945.06
945.028
944.997
944.968
944.939
944.913
944.887
944.863
944.84
944.819
944.798
944.779
944.762
944.745
944.729
944.715
944.701
944.688
944.677
944.666
944.656
944.646
944.638
944.63
944.623
944.616
944.61
944.604
944.599
944.594
944.589
944.585
944.581
944.578
944.575
944.572
944.569
944.567
944.565
944.563
944.561
944.56
944.559
944.558
944.557
944.556
944.556
944.555
944.555
944.555
944.555
944.555
944.555
944.555
944.555
944.555
948.811
948.731
948.644
948.556
948.466
948.375
948.284
948.194
948.104
948.015
947.926
947.837
947.75
947.663
947.576
947.491
947.406
947.322
947.238
947.156
947.074
946.994
946.914
946.835
946.757
946.681
946.605
946.53
946.456
946.384
946.312
946.242
946.172
946.104
946.037
945.971
945.906
945.843
945.781
945.72
945.661
945.603
945.547
945.492
945.439
945.387
945.337
945.289
945.242
945.197
945.154
945.112
945.072
945.034
944.997
944.962
944.929
944.898
944.869
944.841
944.814
944.79
944.767
944.746
944.726
944.708
944.691
944.675
944.661
944.648
944.636
944.626
944.616
944.608
944.6
944.593
944.587
944.582
944.577
944.573
944.57
944.567
944.565
944.562
944.561
944.559
944.558
944.557
944.556
944.556
944.555
944.555
944.555
944.555
944.555
944.555
944.555
944.555
944.555
944.555
950.512
950.424
950.329
950.231
950.132
950.032
949.931
949.83
949.729
949.628
949.528
949.428
949.328
949.228
949.129
949.029
948.93
948.832
948.734
948.636
948.538
948.441
948.344
948.248
948.152
948.057
947.962
947.868
947.775
947.682
947.589
947.497
947.406
947.316
947.226
947.137
947.048
946.961
946.874
946.788
946.703
946.619
946.536
946.454
946.373
946.294
946.215
946.138
946.062
945.988
945.915
945.844
945.774
945.706
945.64
945.576
945.513
945.453
945.394
945.338
945.283
945.231
945.181
945.133
945.088
945.044
945.003
944.964
944.928
944.893
944.861
944.831
944.803
944.776
944.752
944.73
944.709
944.69
944.673
944.657
944.642
944.629
944.618
944.607
944.598
944.589
944.582
944.575
944.57
944.565
944.562
944.559
944.557
944.556
944.555
944.555
944.555
944.555
944.555
944.555
953.134
953.043
952.946
952.846
952.744
952.641
952.538
952.434
952.33
952.227
952.123
952.019
951.915
951.811
951.708
951.603
951.499
951.395
951.29
951.185
951.08
950.974
950.867
950.76
950.654
950.547
950.44
950.333
950.227
950.12
950.013
949.906
949.799
949.693
949.586
949.479
949.372
949.265
949.157
949.05
948.943
948.835
948.727
948.619
948.511
948.403
948.295
948.186
948.078
947.97
947.861
947.753
947.645
947.536
947.429
947.321
947.214
947.107
947.001
946.896
946.792
946.689
946.587
946.486
946.387
946.29
946.194
946.1
946.009
945.919
945.832
945.747
945.665
945.585
945.508
945.434
945.362
945.293
945.227
945.163
945.102
945.044
944.989
944.936
944.887
944.839
944.795
944.753
944.714
944.679
944.648
944.622
944.6
944.585
944.575
944.569
944.565
944.561
944.559
944.558
956.977
956.891
956.802
956.71
956.618
956.524
956.431
956.337
956.244
956.151
956.059
955.966
955.874
955.782
955.69
955.598
955.507
955.415
955.324
955.232
955.14
955.048
954.956
954.863
954.771
954.677
954.584
954.491
954.397
954.302
954.207
954.112
954.016
953.919
953.821
953.722
953.623
953.522
953.42
953.317
953.212
953.106
952.998
952.889
952.778
952.665
952.55
952.433
952.314
952.193
952.07
951.944
951.816
951.686
951.554
951.418
951.281
951.141
950.998
950.853
950.705
950.555
950.403
950.248
950.091
949.932
949.772
949.609
949.444
949.278
949.11
948.941
948.771
948.6
948.428
948.255
948.081
947.907
947.732
947.556
947.379
947.201
947.022
946.841
946.658
946.474
946.288
946.102
945.915
945.73
945.549
945.377
945.217
945.075
944.958
944.872
944.801
944.745
944.703
944.676
962.421
962.359
962.297
962.233
962.169
962.105
962.043
961.98
961.919
961.858
961.799
961.74
961.682
961.624
961.568
961.513
961.458
961.404
961.351
961.298
961.247
961.196
961.146
961.095
961.045
960.994
960.943
960.891
960.838
960.785
960.73
960.674
960.617
960.558
960.498
960.437
960.373
960.308
960.242
960.173
960.102
960.03
959.955
959.878
959.799
959.717
959.633
959.547
959.458
959.366
959.271
959.174
959.074
958.971
958.864
958.754
958.641
958.524
958.404
958.28
958.152
958.019
957.883
957.743
957.597
957.447
957.293
957.133
956.968
956.797
956.621
956.438
956.25
956.054
955.852
955.642
955.423
955.194
954.955
954.706
954.446
954.174
953.887
953.583
953.26
952.916
952.548
952.154
951.731
951.277
950.793
950.28
949.743
949.189
948.628
948.087
947.613
947.178
946.807
946.531
969.678
969.66
969.642
969.625
969.608
969.591
969.575
969.559
969.544
969.529
969.515
969.501
969.487
969.474
969.461
969.448
969.435
969.422
969.409
969.396
969.383
969.37
969.357
969.343
969.328
969.314
969.298
969.282
969.266
969.249
969.231
969.213
969.194
969.174
969.154
969.133
969.112
969.09
969.067
969.044
969.02
968.996
968.971
968.945
968.919
968.893
968.866
968.838
968.81
968.781
968.752
968.723
968.693
968.662
968.631
968.599
968.566
968.533
968.499
968.464
968.427
968.39
968.352
968.312
968.271
968.229
968.185
968.138
968.09
968.039
967.986
967.929
967.869
967.806
967.738
967.665
967.588
967.505
967.416
967.32
967.214
967.097
966.969
966.83
966.677
966.509
966.325
966.123
965.889
965.616
965.297
964.924
964.488
963.979
963.381
962.676
961.863
961.017
960.202
959.534
977.483
977.512
977.541
977.569
977.595
977.622
977.647
977.672
977.695
977.718
977.74
977.762
977.783
977.804
977.824
977.843
977.862
977.881
977.9
977.919
977.937
977.956
977.974
977.993
978.012
978.032
978.052
978.072
978.093
978.114
978.137
978.16
978.183
978.208
978.233
978.26
978.287
978.316
978.345
978.376
978.408
978.441
978.475
978.51
978.547
978.584
978.624
978.664
978.707
978.75
978.796
978.843
978.891
978.942
978.994
979.049
979.106
979.165
979.227
979.292
979.361
979.433
979.509
979.589
979.674
979.763
979.859
979.96
980.067
980.181
980.303
980.433
980.571
980.72
980.878
981.047
981.228
981.422
981.63
981.851
982.088
982.341
982.609
982.895
983.198
983.518
983.855
984.21
984.593
985.013
985.473
985.98
986.527
987.118
987.756
988.443
989.173
989.933
990.681
991.341
983.874
983.94
984.008
984.076
984.144
984.213
984.28
984.348
984.414
984.481
984.547
984.612
984.677
984.742
984.806
984.87
984.933
984.997
985.06
985.123
985.186
985.25
985.313
985.377
985.441
985.505
985.57
985.635
985.701
985.768
985.835
985.904
985.973
986.044
986.115
986.188
986.263
986.338
986.416
986.495
986.575
986.658
986.743
986.829
986.918
987.009
987.102
987.198
987.297
987.398
987.502
987.609
987.719
987.833
987.949
988.069
988.193
988.32
988.452
988.588
988.728
988.874
989.026
989.183
989.346
989.515
989.692
989.876
990.067
990.266
990.474
990.691
990.918
991.154
991.4
991.657
991.924
992.202
992.49
992.789
993.099
993.418
993.746
994.082
994.425
994.773
995.125
995.478
995.831
996.18
996.521
996.855
997.189
997.518
997.836
998.138
998.42
998.673
998.886
999.045
988.69
988.774
988.862
988.952
989.043
989.135
989.227
989.32
989.412
989.505
989.597
989.69
989.782
989.874
989.967
990.059
990.151
990.244
990.337
990.43
990.523
990.616
990.71
990.804
990.898
990.993
991.089
991.185
991.281
991.378
991.476
991.575
991.674
991.775
991.876
991.979
992.082
992.187
992.292
992.399
992.508
992.617
992.728
992.841
992.955
993.07
993.188
993.306
993.427
993.549
993.674
993.8
993.928
994.058
994.19
994.324
994.46
994.599
994.74
994.883
995.028
995.175
995.325
995.477
995.631
995.788
995.946
996.107
996.27
996.434
996.6
996.768
996.937
997.107
997.277
997.448
997.618
997.788
997.956
998.123
998.286
998.446
998.602
998.753
998.897
999.034
999.163
999.284
999.395
999.495
999.583
999.659
999.722
999.777
999.824
999.863
999.896
999.921
999.94
999.952
992.209
992.295
992.386
992.481
992.577
992.675
992.773
992.871
992.97
993.068
993.167
993.265
993.364
993.463
993.561
993.66
993.759
993.858
993.957
994.056
994.156
994.255
994.355
994.455
994.555
994.655
994.756
994.857
994.958
995.06
995.161
995.263
995.365
995.468
995.57
995.673
995.777
995.88
995.983
996.087
996.191
996.294
996.398
996.502
996.606
996.709
996.812
996.916
997.018
997.121
997.223
997.325
997.426
997.527
997.627
997.727
997.826
997.924
998.021
998.117
998.212
998.306
998.398
998.489
998.578
998.666
998.751
998.835
998.917
998.996
999.074
999.149
999.221
999.291
999.358
999.422
999.483
999.541
999.595
999.647
999.694
999.739
999.779
999.816
999.849
999.878
999.903
999.925
999.943
999.958
999.97
999.978
999.985
999.989
999.992
999.994
999.996
999.997
999.998
999.999
994.604
994.685
994.772
994.862
994.954
995.047
995.14
995.233
995.327
995.42
995.513
995.606
995.699
995.791
995.883
995.975
996.067
996.159
996.25
996.341
996.431
996.522
996.612
996.702
996.791
996.88
996.968
997.057
997.144
997.231
997.318
997.404
997.49
997.575
997.659
997.742
997.825
997.907
997.987
998.067
998.146
998.224
998.3
998.376
998.45
998.523
998.594
998.664
998.733
998.799
998.865
998.928
998.99
999.051
999.109
999.165
999.22
999.273
999.324
999.372
999.419
999.464
999.507
999.547
999.586
999.623
999.657
999.69
999.721
999.75
999.777
999.802
999.825
999.847
999.867
999.885
999.901
999.916
999.93
999.942
999.952
999.962
999.969
999.976
999.982
999.987
999.99
999.993
999.995
999.997
999.998
999.999
999.999
1000
1000
1000
1000
1000
1000
1000
996.19
996.262
996.34
996.421
996.503
996.585
996.668
996.75
996.833
996.915
996.996
997.077
997.157
997.237
997.316
997.395
997.473
997.55
997.627
997.703
997.778
997.853
997.926
997.999
998.071
998.142
998.212
998.281
998.349
998.416
998.482
998.546
998.61
998.672
998.734
998.794
998.853
998.91
998.966
999.021
999.074
999.126
999.176
999.224
999.272
999.317
999.361
999.403
999.444
999.483
999.52
999.556
999.59
999.622
999.653
999.682
999.709
999.735
999.759
999.782
999.803
999.823
999.842
999.859
999.874
999.889
999.902
999.914
999.925
999.935
999.944
999.952
999.959
999.966
999.971
999.976
999.981
999.984
999.987
999.99
999.992
999.994
999.996
999.997
999.998
999.998
999.999
999.999
1000
1000
1000
1000
1000
1000
1000
1000
1000
1000
1000
1000
997.268
997.331
997.398
997.467
997.536
997.606
997.675
997.744
997.812
997.88
997.947
998.013
998.079
998.144
998.208
998.271
998.333
998.395
998.455
998.515
998.573
998.631
998.688
998.744
998.798
998.852
998.904
998.956
999.006
999.055
999.103
999.15
999.195
999.239
999.282
999.323
999.363
999.402
999.44
999.476
999.51
999.543
999.575
999.606
999.635
999.662
999.689
999.714
999.737
999.76
999.781
999.8
999.819
999.836
999.852
999.867
999.881
999.893
999.905
999.916
999.926
999.935
999.943
999.95
999.957
999.963
999.968
999.973
999.977
999.981
999.984
999.987
999.989
999.991
999.993
999.994
999.996
999.997
999.997
999.998
999.999
999.999
999.999
999.999
1000
1000
1000
1000
1000
1000
1000
1000
1000
1000
1000
1000
1000
1000
1000
1000
998.034
998.087
998.143
998.2
998.256
998.312
998.368
998.423
998.478
998.531
998.584
998.636
998.688
998.738
998.788
998.837
998.884
998.931
998.977
999.022
999.066
999.11
999.152
999.193
999.233
999.272
999.31
999.347
999.383
999.418
999.452
999.485
999.516
999.546
999.576
999.604
999.63
999.656
999.68
999.704
999.726
999.747
999.767
999.786
999.804
999.821
999.837
999.851
999.865
999.878
999.89
999.901
999.912
999.921
999.93
999.938
999.945
999.952
999.958
999.963
999.968
999.972
999.976
999.98
999.983
999.986
999.988
999.99
999.992
999.993
999.994
999.995
999.996
999.997
999.998
999.998
999.999
999.999
999.999
999.999
1000
1000
1000
1000
1000
1000
1000
1000
1000
1000
1000
1000
1000
1000
1000
1000
1000
1000
1000
1000
998.598
998.641
998.686
998.731
998.775
998.819
998.863
998.906
998.948
998.989
999.03
999.07
999.109
999.147
999.184
999.221
999.256
999.291
999.325
999.358
999.39
999.422
999.452
999.481
999.51
999.538
999.565
999.59
999.615
999.639
999.662
999.684
999.705
999.726
999.745
999.763
999.781
999.797
999.813
999.828
999.842
999.855
999.868
999.879
999.89
999.9
999.91
999.919
999.927
999.934
999.941
999.948
999.954
999.959
999.964
999.968
999.972
999.976
999.979
999.982
999.985
999.987
999.989
999.991
999.992
999.994
999.995
999.996
999.996
999.997
999.998
999.998
999.999
999.999
999.999
999.999
1000
1000
1000
1000
1000
1000
1000
1000
1000
1000
1000
1000
1000
1000
1000
1000
1000
1000
1000
1000
1000
1000
1000
1000
999.099
999.132
999.164
999.197
999.229
999.26
999.291
999.321
999.35
999.379
999.407
999.434
999.461
999.487
999.512
999.537
999.56
999.583
999.606
999.627
999.648
999.668
999.687
999.706
999.724
999.741
999.758
999.773
999.788
999.803
999.817
999.83
999.842
999.854
999.865
999.875
999.885
999.895
999.904
999.912
999.92
999.927
999.934
999.94
999.946
999.951
999.956
999.961
999.965
999.969
999.972
999.975
999.978
999.981
999.983
999.986
999.987
999.989
999.991
999.992
999.993
999.994
999.995
999.996
999.997
999.997
999.998
999.998
999.999
999.999
999.999
999.999
999.999
1000
1000
1000
1000
1000
1000
1000
1000
1000
1000
1000
1000
1000
1000
1000
1000
1000
1000
1000
1000
1000
1000
1000
1000
1000
1000
1000
944.555
944.555
944.555
944.555
944.555
944.555
944.555
944.555
944.555
944.555
944.555
944.555
944.555
944.555
944.555
944.555
944.555
944.555
944.555
944.555
944.555
944.555
944.555
944.555
944.555
944.555
944.555
944.555
944.555
944.555
944.555
944.555
944.555
944.555
944.555
944.555
944.555
944.555
944.555
944.555
944.555
944.555
944.555
944.555
944.555
944.555
944.555
944.555
944.555
944.555
944.555
944.555
944.555
944.555
944.555
944.555
944.555
944.555
944.555
944.555
944.555
944.555
944.555
944.555
944.555
944.555
944.555
944.555
944.555
944.555
944.555
944.555
944.555
944.555
944.555
944.555
944.555
944.555
944.555
944.556
944.555
944.555
944.555
944.555
944.555
944.555
944.555
944.555
944.555
944.555
944.555
944.555
944.555
944.555
944.555
944.555
944.556
944.558
944.563
944.583
944.555
944.555
944.555
944.555
944.555
944.555
944.555
944.555
944.555
944.556
944.556
944.556
944.557
944.557
944.559
944.563
944.57
944.59
944.65
944.943
944.558
944.559
944.56
944.561
944.563
944.564
944.566
944.568
944.568
944.569
944.569
944.571
944.574
944.579
944.591
944.615
944.67
944.816
945.327
948.222
944.675
944.688
944.703
944.719
944.734
944.747
944.754
944.753
944.746
944.738
944.731
944.727
944.73
944.745
944.789
944.892
945.134
945.775
948.037
962.165
946.465
946.547
946.624
946.697
946.749
946.747
946.709
946.632
946.554
946.464
946.37
946.268
946.172
946.094
946.128
946.365
947.034
948.631
952.85
980.935
959.299
959.468
959.627
959.762
959.839
959.781
959.673
959.553
959.399
959.177
958.907
958.531
958.102
957.516
957.047
956.87
957.666
959.962
965.492
981.382
991.64
991.54
991.467
991.415
991.423
991.581
991.787
991.999
992.222
992.482
992.763
993.11
993.488
993.972
994.282
994.315
993.771
992.819
991.749
990.167
999.09
999.049
999.013
998.98
998.958
998.968
998.998
999.053
999.108
999.169
999.23
999.3
999.366
999.441
999.487
999.496
999.436
999.306
999.002
995.037
999.953
999.948
999.942
999.936
999.929
999.924
999.922
999.924
999.928
999.934
999.94
999.947
999.952
999.957
999.959
999.957
999.946
999.911
999.744
998.031
999.999
999.999
999.998
999.998
999.997
999.997
999.996
999.996
999.996
999.996
999.996
999.997
999.997
999.997
999.997
999.996
999.994
999.987
999.953
999.653
1000
1000
1000
1000
1000
1000
1000
1000
1000
1000
1000
1000
1000
1000
1000
1000
1000
999.999
999.998
999.994
1000
1000
1000
1000
1000
1000
1000
1000
1000
1000
1000
1000
1000
1000
1000
1000
1000
1000
1000
1000
1000
1000
1000
1000
1000
1000
1000
1000
1000
1000
1000
1000
1000
1000
1000
1000
1000
1000
1000
1000
1000
1000
1000
1000
1000
1000
1000
1000
1000
1000
1000
1000
1000
1000
1000
1000
1000
1000
1000
1000
1000
1000
1000
1000
1000
1000
1000
1000
1000
1000
1000
1000
1000
1000
1000
1000
1000
1000
1000
1000
1000
1000
1000
1000
1000
1000
1000
1000
1000
1000
1000
1000
1000
1000
1000
1000
1000
1000
1000
1000
944.555
944.555
944.555
944.555
944.555
944.555
944.555
944.555
944.555
944.555
944.555
944.555
944.555
944.555
944.555
944.555
944.555
944.555
944.555
944.555
944.555
944.555
944.555
944.555
944.555
944.555
944.555
944.555
944.555
944.555
944.555
944.555
944.555
944.555
944.555
944.555
944.555
944.555
944.555
944.555
944.555
944.555
944.555
944.555
944.555
944.555
944.555
944.555
944.555
944.555
944.555
944.555
944.555
944.555
944.555
944.555
944.555
944.555
944.555
944.555
944.555
944.555
944.555
944.555
944.555
944.555
944.555
944.555
944.555
944.555
944.555
944.555
944.555
944.555
944.555
944.555
944.555
944.555
944.555
944.555
944.555
944.555
944.555
944.555
944.555
944.555
944.555
944.555
944.555
944.555
944.555
944.555
944.555
944.555
944.555
944.555
944.555
944.555
944.555
944.555
944.555
944.555
944.555
944.555
944.555
944.555
944.555
944.555
944.555
944.555
944.555
944.555
944.555
944.555
944.555
944.555
944.555
944.555
944.555
944.555
944.555
944.555
944.555
944.555
944.555
944.555
944.555
944.555
944.555
944.555
944.555
944.555
944.555
944.555
944.555
944.555
944.555
944.555
944.555
944.555
944.555
944.555
944.555
944.555
944.555
944.555
944.555
944.555
944.555
944.555
944.555
944.555
944.555
944.555
944.555
944.555
944.555
944.555
944.555
944.555
944.555
944.555
944.555
944.555
944.555
944.555
944.555
944.555
944.555
944.555
944.555
944.555
944.555
944.555
944.555
944.555
944.555
944.555
944.555
944.555
944.555
944.555
944.555
944.555
944.555
944.555
944.555
944.555
944.555
944.555
944.555
944.555
944.555
944.555
944.555
944.555
944.555
944.555
944.555
944.555
944.555
944.555
944.555
944.555
944.555
944.555
944.555
944.555
944.555
944.555
944.555
944.555
944.555
944.555
944.555
944.555
944.555
944.555
944.555
944.555
944.555
944.555
944.555
944.555
944.555
944.555
944.555
944.555
944.555
944.555
944.555
944.555
944.555
944.555
944.555
944.555
944.555
944.555
944.555
944.555
944.555
944.555
944.555
944.555
944.555
944.555
944.555
944.555
944.555
944.555
944.555
944.555
944.555
944.555
944.555
944.555
944.555
944.555
944.555
944.555
944.555
944.555
944.555
944.555
944.555
944.555
944.555
944.555
944.555
944.555
944.555
944.555
944.555
944.555
944.555
944.555
944.555
944.555
944.555
944.555
944.555
944.555
944.555
944.555
944.555
944.555
944.555
944.555
944.555
944.555
944.555
944.555
944.555
944.555
944.555
944.555
944.555
944.555
944.555
944.555
944.555
944.555
944.555
944.555
944.555
944.555
944.555
944.555
944.555
944.555
944.555
944.555
944.555
944.555
944.555
944.555
944.555
944.555
944.555
944.555
944.555
944.555
944.555
944.555
944.555
944.555
944.555
944.555
944.555
944.555
944.555
944.555
944.555
944.555
944.555
944.555
944.555
944.555
944.555
944.555
944.555
944.555
944.555
944.555
944.555
944.555
944.555
944.555
944.555
944.555
944.555
944.555
944.555
944.555
944.555
944.555
944.555
944.555
944.555
944.555
944.555
944.555
944.555
944.555
944.555
944.555
944.555
944.555
944.555
944.555
944.555
944.555
944.555
944.555
944.555
944.555
944.555
944.555
944.555
944.555
944.555
944.555
944.555
944.555
944.555
944.555
944.555
944.555
944.555
944.555
944.555
944.555
944.555
944.555
944.555
944.555
944.555
944.555
944.555
944.555
944.555
944.555
944.555
944.555
944.555
944.555
944.555
944.555
944.555
944.555
944.555
944.555
944.555
944.555
944.555
944.555
944.555
944.555
944.555
944.555
944.555
944.555
944.555
944.555
944.555
944.555
944.555
944.555
944.555
944.555
944.555
944.555
944.555
944.555
944.555
944.555
944.555
944.555
944.555
944.555
944.555
944.555
944.555
944.555
944.555
944.555
944.555
944.555
944.555
944.555
944.555
944.555
944.555
944.555
944.555
944.555
944.555
944.555
944.555
944.555
944.555
944.555
944.555
944.555
944.555
944.555
944.555
944.555
944.555
944.555
944.555
944.555
944.555
944.555
944.555
944.555
944.555
944.555
944.555
944.555
944.555
944.555
944.555
944.555
944.555
944.555
944.555
944.555
944.555
944.555
944.555
944.555
944.555
944.555
944.555
944.555
944.555
944.555
944.555
944.555
944.555
944.555
944.555
944.555
944.555
944.555
944.555
944.555
944.555
944.555
944.555
944.555
944.555
944.555
944.555
944.555
944.555
944.555
944.555
944.555
944.555
944.555
944.555
944.555
944.555
944.555
944.555
944.555
944.555
944.555
944.555
944.555
944.555
944.555
944.555
944.555
944.555
944.555
944.555
944.555
944.555
944.555
944.555
944.555
944.555
944.555
944.555
944.555
944.555
944.555
944.555
944.555
944.555
944.555
944.555
944.555
944.555
944.555
944.555
944.555
944.555
944.555
944.555
944.555
944.555
944.555
944.555
944.555
944.555
944.555
944.555
944.555
944.555
944.555
944.555
944.555
944.555
944.555
944.555
944.555
944.555
944.555
944.555
944.555
944.555
944.555
944.555
944.555
944.555
944.555
944.555
944.555
944.555
944.555
944.555
944.555
944.555
944.555
944.555
944.555
944.555
944.555
944.555
944.555
944.555
944.555
944.555
944.555
944.555
944.555
944.555
944.555
944.555
944.555
944.555
944.555
944.555
944.555
944.555
944.555
944.555
944.555
944.555
944.555
944.555
944.555
944.555
944.555
944.555
944.555
944.555
944.555
944.555
944.555
944.555
944.555
944.555
944.555
944.555
944.555
944.555
944.555
944.555
944.555
944.555
944.555
944.555
944.555
944.555
944.555
944.555
944.555
944.555
944.555
944.555
944.555
944.555
944.555
944.555
944.555
944.555
944.555
944.555
944.555
944.555
944.555
944.555
944.555
944.555
944.555
944.555
944.555
944.555
944.555
944.555
944.555
944.555
944.555
944.555
944.555
944.555
944.555
944.555
944.555
944.555
944.555
944.555
944.555
944.555
944.555
944.555
944.555
944.555
944.555
944.555
944.555
944.555
944.555
944.555
944.555
944.555
944.555
944.555
944.555
944.555
944.555
944.555
944.555
944.555
944.555
944.555
944.555
944.555
944.555
944.555
944.555
944.555
944.555
944.555
944.555
944.555
944.555
944.555
944.555
944.555
944.555
944.555
944.555
944.555
944.555
944.555
944.555
944.555
944.555
944.555
944.555
944.555
944.555
944.555
944.555
944.555
944.555
944.555
944.555
944.555
944.555
944.555
944.555
944.555
944.555
944.555
944.555
944.555
944.555
944.555
944.555
944.555
944.555
944.555
944.555
944.555
944.555
944.555
944.555
944.555
944.555
944.555
944.555
944.555
944.555
944.555
944.555
944.555
944.555
944.555
944.555
944.555
944.555
944.555
944.555
944.555
944.555
944.555
944.555
944.555
944.555
944.555
944.555
944.555
944.555
944.555
944.555
944.555
944.555
944.555
944.555
944.555
944.555
944.555
944.555
944.555
944.555
944.555
944.555
944.555
944.555
944.555
944.555
944.555
944.555
944.555
944.555
944.555
944.555
944.555
944.555
944.555
944.555
944.555
944.555
944.555
944.555
944.555
944.555
944.555
944.555
944.555
944.555
944.555
944.555
944.555
944.555
944.555
944.555
944.555
944.555
944.555
944.555
944.555
944.555
944.555
944.555
944.555
944.555
944.555
944.555
944.555
944.555
944.555
944.555
944.555
944.555
944.555
944.555
944.555
944.555
944.555
944.555
944.555
944.555
944.555
944.555
944.555
944.555
944.555
944.555
944.555
944.555
944.555
944.555
944.555
944.555
944.555
944.555
944.555
944.555
944.555
944.555
944.555
944.555
944.555
944.555
944.555
944.555
944.555
944.555
944.555
944.555
944.555
944.555
944.555
944.555
944.555
944.555
944.555
944.555
944.555
944.555
944.555
944.555
944.555
944.555
944.555
944.555
944.555
944.555
944.555
944.555
944.555
944.555
944.555
944.555
944.555
944.555
944.555
944.555
944.555
944.555
944.555
944.555
944.555
944.555
944.555
944.555
944.555
944.555
944.555
944.555
944.555
944.555
944.555
944.555
944.555
944.555
944.555
944.555
944.555
944.555
944.555
944.555
944.555
944.555
944.555
944.555
944.555
944.555
944.555
944.555
944.555
944.555
944.555
944.555
944.555
944.555
944.555
944.555
944.555
944.555
944.555
944.555
944.555
944.555
944.555
944.555
944.555
944.555
944.555
944.555
944.555
944.555
944.555
944.555
944.555
944.555
944.555
944.555
944.555
944.555
944.555
944.555
944.555
944.555
944.555
944.555
944.555
944.555
944.555
944.555
944.555
944.555
944.555
944.555
944.555
944.555
944.555
944.555
944.555
944.555
944.555
944.555
944.555
944.555
944.555
944.555
944.555
944.555
944.555
944.555
944.555
944.555
944.555
944.555
944.555
944.555
944.555
944.555
944.555
944.555
944.555
944.555
944.555
944.555
944.555
944.555
944.555
944.555
944.555
944.555
944.555
944.555
944.555
944.555
944.555
944.555
944.555
944.555
944.555
944.555
944.555
944.555
944.555
944.555
944.555
944.555
944.555
944.555
944.555
944.555
944.555
944.555
944.555
944.555
944.555
944.555
944.555
944.555
944.555
944.555
944.555
944.555
944.555
944.555
944.555
944.555
944.555
944.555
944.555
944.555
944.555
944.555
944.555
944.555
944.555
944.555
944.555
944.555
944.555
944.555
944.555
944.555
944.555
944.555
944.555
944.555
944.555
944.555
944.555
944.555
944.555
944.555
944.555
944.555
944.555
944.555
944.555
944.555
944.555
944.555
944.555
944.555
944.555
944.555
944.555
944.555
944.555
944.555
944.555
944.555
944.555
944.555
944.555
944.555
944.555
944.555
944.555
944.555
944.555
944.555
944.555
944.555
944.555
944.555
944.555
944.555
944.555
944.555
944.555
944.555
944.555
944.555
944.555
944.555
944.555
944.555
944.555
944.555
944.555
944.555
944.555
944.555
944.555
944.555
944.555
944.555
944.555
944.555
944.555
944.555
944.555
944.555
944.555
944.555
944.555
944.555
944.555
944.555
944.555
944.555
944.555
944.555
944.555
944.555
944.555
944.555
944.555
944.555
944.555
944.555
944.555
944.555
944.555
944.555
944.555
944.555
944.555
944.555
944.555
944.555
944.555
944.555
944.555
944.555
944.555
944.555
944.555
944.555
944.555
944.555
944.555
944.555
944.555
944.555
944.555
944.555
944.555
944.555
944.555
944.555
944.555
944.555
944.555
944.555
944.555
944.555
944.555
944.555
944.555
944.555
944.555
944.555
944.555
944.555
944.555
944.555
944.555
944.555
944.555
944.555
944.555
944.555
944.555
944.555
944.555
944.555
944.555
944.555
944.555
944.555
944.555
944.555
944.555
944.555
944.555
944.555
944.555
944.555
944.555
944.555
944.555
944.555
944.555
944.555
944.555
944.555
944.555
944.555
944.555
944.555
944.555
944.555
944.555
944.555
944.555
944.555
944.555
944.555
944.555
944.555
944.555
944.555
944.555
944.555
944.555
944.555
944.555
944.555
944.555
944.555
944.555
944.555
944.555
944.555
944.555
944.555
944.555
944.555
944.555
944.555
944.555
944.555
944.555
944.555
944.555
944.555
944.555
944.555
944.555
944.555
944.555
944.555
944.555
944.555
944.555
944.555
944.555
944.555
944.555
944.555
944.555
944.555
944.555
944.555
944.555
944.555
944.555
944.555
944.555
944.555
944.555
944.555
944.555
944.555
944.555
944.555
944.555
944.555
944.555
944.555
944.555
944.555
944.555
944.555
944.555
944.555
944.555
944.555
944.555
944.555
944.555
944.555
944.555
944.555
944.555
944.555
944.555
944.555
944.555
944.555
944.555
944.555
944.555
944.555
944.555
944.555
944.555
944.555
944.555
944.555
944.555
944.555
944.555
944.555