/*--------------------------------*- C++ -*----------------------------------*\
| =========                 |                                                 |
| \\      /  F ield         | OpenFOAM: The Open Source CFD Toolbox           |
|  \\    /   O peration     | Version:  2.1.0                                 |
|   \\  /    A nd           | Web:      www.OpenFOAM.org                      |
|    \\/     M anipulation  |                                                 |
\*---------------------------------------------------------------------------*/
FoamFile
{
    version     2.0;
    format      ascii;
    class       volScalarField;
    location    "0.48";
    object      T;
}
// * * * * * * * * * * * * * * * * * * * * * * * * * * * * * * * * * * * * * //

dimensions      [0 0 0 1 0 0 0];

internalField   nonuniform List<scalar> 
6400
(
390.338
390.424
390.51
390.594
390.676
390.757
390.836
390.913
390.988
391.061
391.132
391.202
391.269
391.335
391.398
391.46
391.52
391.578
391.634
391.688
391.741
391.792
391.841
391.888
391.933
391.977
392.019
392.059
392.098
392.134
392.17
392.203
392.236
392.266
392.295
392.323
392.349
392.374
392.397
392.419
392.44
392.459
392.477
392.494
392.51
392.525
392.538
392.551
392.562
392.573
392.582
392.591
392.599
392.606
392.612
392.617
392.621
392.625
392.628
392.631
392.633
392.634
392.634
392.635
392.634
392.633
392.631
392.629
392.626
392.623
392.619
392.614
392.609
392.603
392.596
392.588
392.579
392.57
392.559
392.546
392.532
392.516
392.498
392.476
392.45
392.419
392.379
392.328
392.257
392.155
391.995
391.719
391.191
390.13
388.75
391.618
393.104
393.15
393.15
393.15
389.578
389.68
389.784
389.889
389.991
390.093
390.193
390.29
390.387
390.481
390.573
390.663
390.752
390.839
390.923
391.006
391.087
391.165
391.242
391.317
391.39
391.461
391.529
391.596
391.661
391.724
391.785
391.843
391.9
391.955
392.007
392.058
392.106
392.153
392.197
392.24
392.281
392.319
392.356
392.391
392.425
392.456
392.486
392.514
392.541
392.566
392.589
392.611
392.631
392.651
392.668
392.685
392.7
392.714
392.727
392.739
392.749
392.759
392.768
392.777
392.784
392.791
392.797
392.802
392.807
392.812
392.816
392.82
392.823
392.826
392.828
392.831
392.833
392.835
392.836
392.838
392.839
392.84
392.841
392.842
392.842
392.842
392.842
392.841
392.84
392.839
392.837
392.835
392.833
392.832
392.833
392.839
392.856
392.898
392.978
393.087
393.146
393.15
393.15
393.15
388.598
388.716
388.839
388.964
389.087
389.21
389.332
389.452
389.57
389.686
389.801
389.914
390.025
390.134
390.241
390.346
390.449
390.55
390.649
390.747
390.842
390.935
391.026
391.115
391.202
391.287
391.369
391.45
391.528
391.603
391.677
391.748
391.816
391.883
391.947
392.008
392.067
392.124
392.179
392.231
392.281
392.329
392.374
392.418
392.459
392.498
392.534
392.569
392.602
392.633
392.662
392.689
392.715
392.739
392.761
392.781
392.801
392.819
392.835
392.851
392.865
392.878
392.89
392.902
392.913
392.922
392.932
392.941
392.949
392.957
392.964
392.972
392.979
392.986
392.993
393
393.007
393.014
393.021
393.028
393.036
393.043
393.051
393.059
393.067
393.075
393.083
393.092
393.1
393.108
393.116
393.124
393.131
393.138
393.144
393.147
393.15
393.15
393.15
393.15
387.169
387.304
387.448
387.594
387.742
387.889
388.036
388.181
388.325
388.468
388.609
388.749
388.886
389.023
389.157
389.289
389.42
389.549
389.676
389.801
389.924
390.045
390.164
390.281
390.396
390.508
390.619
390.727
390.833
390.937
391.038
391.137
391.233
391.327
391.418
391.507
391.593
391.676
391.757
391.835
391.91
391.983
392.053
392.12
392.185
392.246
392.306
392.362
392.416
392.467
392.515
392.561
392.605
392.646
392.684
392.721
392.755
392.787
392.817
392.845
392.871
392.895
392.917
392.938
392.957
392.975
392.991
393.006
393.02
393.033
393.045
393.056
393.066
393.076
393.084
393.092
393.099
393.106
393.112
393.117
393.122
393.127
393.131
393.134
393.137
393.14
393.142
393.144
393.146
393.147
393.148
393.149
393.149
393.15
393.15
393.15
393.15
393.15
393.15
393.15
385.06
385.211
385.374
385.542
385.713
385.885
386.056
386.227
386.398
386.568
386.736
386.904
387.07
387.235
387.399
387.561
387.722
387.882
388.04
388.197
388.352
388.505
388.656
388.806
388.954
389.1
389.244
389.386
389.526
389.664
389.801
389.935
390.067
390.197
390.324
390.45
390.573
390.693
390.811
390.927
391.04
391.15
391.257
391.361
391.463
391.561
391.657
391.749
391.838
391.924
392.007
392.087
392.163
392.236
392.305
392.372
392.435
392.494
392.551
392.604
392.654
392.701
392.745
392.785
392.823
392.858
392.89
392.92
392.947
392.972
392.994
393.014
393.032
393.049
393.063
393.076
393.088
393.098
393.107
393.114
393.121
393.126
393.131
393.135
393.139
393.141
393.144
393.146
393.147
393.148
393.149
393.149
393.15
393.15
393.15
393.15
393.15
393.15
393.15
393.15
381.846
382.013
382.191
382.375
382.563
382.752
382.942
383.133
383.323
383.514
383.703
383.893
384.082
384.27
384.458
384.646
384.833
385.02
385.206
385.391
385.576
385.76
385.943
386.125
386.307
386.487
386.666
386.845
387.022
387.199
387.374
387.548
387.721
387.893
388.064
388.233
388.401
388.567
388.732
388.895
389.057
389.216
389.374
389.53
389.684
389.835
389.984
390.131
390.275
390.417
390.556
390.691
390.824
390.953
391.08
391.202
391.321
391.437
391.548
391.656
391.76
391.859
391.955
392.046
392.133
392.215
392.294
392.368
392.438
392.504
392.565
392.623
392.677
392.727
392.773
392.816
392.855
392.892
392.925
392.955
392.983
393.007
393.03
393.05
393.068
393.084
393.098
393.111
393.121
393.13
393.137
393.142
393.146
393.148
393.149
393.149
393.149
393.15
393.15
393.15
376.916
377.087
377.268
377.456
377.647
377.84
378.034
378.229
378.424
378.619
378.814
379.009
379.204
379.399
379.595
379.79
379.986
380.183
380.38
380.578
380.777
380.976
381.176
381.378
381.579
381.78
381.982
382.183
382.384
382.586
382.787
382.989
383.191
383.392
383.594
383.796
383.999
384.201
384.404
384.607
384.81
385.014
385.218
385.422
385.627
385.831
386.036
386.242
386.447
386.653
386.858
387.064
387.269
387.474
387.679
387.883
388.086
388.289
388.49
388.69
388.888
389.084
389.278
389.469
389.658
389.843
390.025
390.204
390.378
390.549
390.714
390.876
391.033
391.184
391.331
391.473
391.61
391.741
391.868
391.989
392.105
392.216
392.321
392.421
392.517
392.607
392.692
392.771
392.845
392.912
392.972
393.022
393.063
393.093
393.112
393.123
393.131
393.137
393.141
393.143
369.738
369.897
370.063
370.234
370.406
370.58
370.754
370.929
371.102
371.276
371.448
371.621
371.792
371.964
372.135
372.306
372.477
372.648
372.818
372.99
373.161
373.333
373.505
373.679
373.852
374.026
374.2
374.375
374.551
374.728
374.905
375.084
375.264
375.445
375.628
375.813
376
376.189
376.38
376.573
376.769
376.968
377.17
377.375
377.584
377.796
378.011
378.231
378.454
378.682
378.913
379.149
379.39
379.635
379.884
380.138
380.398
380.662
380.93
381.204
381.482
381.765
382.052
382.344
382.64
382.939
383.243
383.551
383.862
384.176
384.493
384.812
385.134
385.458
385.784
386.112
386.441
386.772
387.104
387.437
387.773
388.111
388.452
388.795
389.143
389.493
389.846
390.201
390.556
390.909
391.253
391.581
391.886
392.156
392.381
392.544
392.679
392.787
392.867
392.919
359.669
359.782
359.897
360.015
360.132
360.249
360.364
360.479
360.592
360.704
360.813
360.923
361.029
361.135
361.238
361.341
361.441
361.541
361.639
361.736
361.83
361.925
362.017
362.11
362.202
362.296
362.391
362.487
362.584
362.683
362.784
362.888
362.993
363.101
363.212
363.326
363.442
363.562
363.686
363.813
363.943
364.077
364.216
364.358
364.504
364.655
364.811
364.971
365.136
365.305
365.48
365.66
365.846
366.037
366.234
366.438
366.648
366.864
367.088
367.318
367.556
367.801
368.054
368.315
368.585
368.863
369.151
369.448
369.755
370.073
370.401
370.741
371.092
371.456
371.834
372.226
372.634
373.061
373.507
373.972
374.459
374.968
375.506
376.075
376.679
377.324
378.014
378.755
379.551
380.405
381.317
382.284
383.298
384.345
385.405
386.43
387.329
388.154
388.86
389.385
346.422
346.454
346.486
346.517
346.548
346.578
346.607
346.636
346.663
346.691
346.716
346.742
346.767
346.791
346.815
346.839
346.862
346.885
346.908
346.932
346.955
346.979
347.004
347.029
347.055
347.082
347.11
347.138
347.168
347.199
347.231
347.265
347.299
347.335
347.371
347.409
347.448
347.488
347.529
347.571
347.614
347.658
347.704
347.75
347.797
347.845
347.894
347.944
347.995
348.047
348.1
348.154
348.208
348.264
348.321
348.379
348.438
348.498
348.56
348.624
348.69
348.757
348.827
348.899
348.973
349.051
349.131
349.215
349.303
349.395
349.493
349.595
349.704
349.82
349.944
350.076
350.216
350.367
350.528
350.704
350.898
351.11
351.342
351.596
351.875
352.181
352.517
352.885
353.312
353.811
354.395
355.077
355.875
356.808
357.904
359.2
360.695
362.254
363.76
364.995
332.393
332.341
332.29
332.24
332.193
332.146
332.101
332.057
332.015
331.974
331.934
331.895
331.858
331.821
331.786
331.751
331.717
331.683
331.65
331.616
331.584
331.55
331.517
331.484
331.45
331.415
331.38
331.344
331.307
331.268
331.229
331.188
331.145
331.102
331.056
331.009
330.96
330.91
330.857
330.802
330.746
330.687
330.627
330.564
330.499
330.431
330.361
330.289
330.214
330.137
330.056
329.972
329.886
329.796
329.703
329.606
329.505
329.399
329.289
329.173
329.052
328.924
328.789
328.647
328.496
328.337
328.168
327.988
327.798
327.595
327.379
327.149
326.904
326.641
326.361
326.061
325.741
325.398
325.031
324.639
324.221
323.775
323.301
322.797
322.263
321.7
321.106
320.481
319.807
319.07
318.262
317.374
316.417
315.382
314.267
313.069
311.796
310.475
309.175
308.03
321.072
320.955
320.837
320.716
320.597
320.476
320.358
320.239
320.122
320.005
319.889
319.774
319.66
319.546
319.434
319.321
319.21
319.098
318.988
318.876
318.766
318.654
318.543
318.431
318.32
318.206
318.093
317.978
317.863
317.746
317.628
317.507
317.386
317.262
317.137
317.009
316.879
316.746
316.611
316.472
316.331
316.187
316.038
315.887
315.732
315.572
315.409
315.241
315.069
314.892
314.71
314.523
314.331
314.133
313.93
313.72
313.505
313.283
313.053
312.816
312.571
312.317
312.053
311.78
311.496
311.201
310.894
310.574
310.242
309.895
309.534
309.157
308.764
308.355
307.928
307.483
307.021
306.54
306.04
305.523
304.989
304.438
303.872
303.292
302.701
302.101
301.496
300.888
300.282
299.683
299.097
298.525
297.951
297.389
296.845
296.327
295.846
295.414
295.049
294.779
312.638
312.491
312.338
312.181
312.023
311.862
311.702
311.541
311.38
311.219
311.059
310.898
310.737
310.576
310.416
310.255
310.095
309.934
309.773
309.611
309.45
309.287
309.125
308.961
308.798
308.633
308.467
308.301
308.134
307.965
307.796
307.625
307.452
307.278
307.103
306.926
306.747
306.565
306.383
306.197
306.01
305.821
305.629
305.434
305.237
305.038
304.835
304.63
304.422
304.211
303.996
303.779
303.558
303.334
303.106
302.875
302.64
302.401
302.159
301.912
301.663
301.409
301.151
300.89
300.625
300.356
300.084
299.808
299.529
299.246
298.961
298.674
298.385
298.094
297.802
297.509
297.217
296.927
296.639
296.354
296.074
295.801
295.535
295.278
295.031
294.797
294.576
294.371
294.182
294.012
293.861
293.731
293.623
293.53
293.45
293.383
293.328
293.284
293.252
293.231
306.526
306.378
306.22
306.056
305.89
305.721
305.552
305.382
305.212
305.041
304.871
304.701
304.53
304.36
304.19
304.019
303.849
303.678
303.507
303.336
303.165
302.993
302.822
302.649
302.477
302.304
302.131
301.957
301.783
301.608
301.433
301.258
301.082
300.906
300.73
300.553
300.375
300.198
300.02
299.842
299.664
299.486
299.308
299.13
298.952
298.775
298.598
298.421
298.245
298.069
297.894
297.719
297.546
297.373
297.202
297.031
296.862
296.694
296.528
296.364
296.202
296.041
295.884
295.728
295.576
295.426
295.28
295.137
294.997
294.861
294.729
294.602
294.478
294.359
294.245
294.136
294.032
293.933
293.84
293.752
293.671
293.596
293.527
293.464
293.408
293.358
293.315
293.278
293.247
293.222
293.202
293.187
293.176
293.169
293.164
293.159
293.156
293.154
293.153
293.152
302.392
302.253
302.103
301.948
301.79
301.63
301.47
301.309
301.149
300.989
300.829
300.669
300.51
300.351
300.192
300.034
299.877
299.719
299.563
299.407
299.251
299.096
298.942
298.788
298.634
298.482
298.33
298.179
298.029
297.88
297.731
297.584
297.437
297.292
297.148
297.005
296.864
296.724
296.586
296.449
296.314
296.181
296.05
295.922
295.795
295.67
295.548
295.429
295.312
295.198
295.086
294.977
294.872
294.769
294.669
294.573
294.48
294.39
294.303
294.22
294.14
294.064
293.991
293.922
293.856
293.793
293.734
293.678
293.626
293.576
293.53
293.487
293.448
293.411
293.377
293.346
293.318
293.292
293.27
293.249
293.231
293.216
293.202
293.19
293.181
293.173
293.167
293.162
293.158
293.155
293.153
293.152
293.151
293.151
293.15
293.15
293.15
293.15
293.15
293.15
299.665
299.542
299.408
299.269
299.129
298.987
298.845
298.704
298.563
298.423
298.283
298.144
298.007
297.87
297.734
297.6
297.466
297.334
297.202
297.072
296.944
296.816
296.69
296.566
296.443
296.321
296.202
296.084
295.968
295.853
295.741
295.63
295.521
295.415
295.31
295.207
295.107
295.009
294.913
294.82
294.729
294.641
294.555
294.472
294.392
294.314
294.239
294.167
294.098
294.031
293.968
293.907
293.849
293.794
293.741
293.692
293.645
293.601
293.56
293.521
293.485
293.451
293.42
293.391
293.364
293.339
293.317
293.296
293.278
293.261
293.245
293.232
293.219
293.208
293.199
293.19
293.183
293.177
293.171
293.167
293.163
293.16
293.157
293.155
293.154
293.153
293.152
293.151
293.151
293.15
293.15
293.15
293.15
293.15
293.15
293.15
293.15
293.15
293.15
293.15
297.816
297.71
297.595
297.477
297.358
297.239
297.12
297.002
296.885
296.769
296.655
296.541
296.429
296.318
296.209
296.101
295.994
295.889
295.786
295.684
295.584
295.485
295.388
295.293
295.2
295.108
295.019
294.931
294.845
294.761
294.679
294.6
294.522
294.447
294.374
294.304
294.235
294.169
294.105
294.044
293.985
293.928
293.874
293.822
293.772
293.725
293.68
293.638
293.598
293.56
293.524
293.49
293.459
293.429
293.402
293.377
293.353
293.332
293.312
293.293
293.276
293.261
293.247
293.235
293.223
293.213
293.204
293.196
293.189
293.183
293.177
293.173
293.169
293.165
293.162
293.16
293.158
293.156
293.155
293.153
293.152
293.152
293.151
293.151
293.151
293.15
293.15
293.15
293.15
293.15
293.15
293.15
293.15
293.15
293.15
293.15
293.15
293.15
293.15
293.15
296.505
296.415
296.319
296.223
296.126
296.03
295.934
295.84
295.747
295.656
295.565
295.476
295.389
295.302
295.218
295.134
295.053
294.973
294.894
294.817
294.742
294.668
294.596
294.526
294.458
294.391
294.326
294.263
294.201
294.142
294.084
294.028
293.975
293.923
293.873
293.826
293.78
293.736
293.695
293.655
293.617
293.581
293.547
293.514
293.484
293.455
293.428
293.403
293.38
293.358
293.337
293.318
293.301
293.284
293.27
293.256
293.243
293.232
293.222
293.213
293.204
293.197
293.19
293.184
293.179
293.175
293.171
293.167
293.164
293.162
293.16
293.158
293.156
293.155
293.154
293.153
293.152
293.152
293.151
293.151
293.151
293.15
293.15
293.15
293.15
293.15
293.15
293.15
293.15
293.15
293.15
293.15
293.15
293.15
293.15
293.15
293.15
293.15
293.15
293.15
295.542
295.469
295.392
295.315
295.239
295.164
295.089
295.016
294.944
294.874
294.805
294.737
294.67
294.605
294.541
294.479
294.418
294.359
294.301
294.244
294.189
294.136
294.084
294.034
293.985
293.938
293.892
293.848
293.806
293.765
293.726
293.688
293.652
293.618
293.585
293.554
293.524
293.495
293.469
293.443
293.419
293.397
293.376
293.356
293.337
293.32
293.303
293.288
293.274
293.262
293.25
293.239
293.229
293.22
293.211
293.204
293.197
293.191
293.185
293.18
293.176
293.172
293.169
293.166
293.163
293.161
293.159
293.157
293.156
293.155
293.154
293.153
293.152
293.152
293.151
293.151
293.151
293.151
293.15
293.15
293.15
293.15
293.15
293.15
293.15
293.15
293.15
293.15
293.15
293.15
293.15
293.15
293.15
293.15
293.15
293.15
293.15
293.15
293.15
293.15
294.686
294.631
294.575
294.52
294.465
294.412
294.359
294.308
294.257
294.208
294.161
294.114
294.069
294.025
293.982
293.94
293.899
293.86
293.822
293.786
293.75
293.716
293.683
293.651
293.621
293.591
293.563
293.536
293.51
293.486
293.463
293.44
293.419
293.399
293.38
293.362
293.345
293.329
293.314
293.3
293.287
293.275
293.263
293.253
293.243
293.233
293.225
293.217
293.21
293.203
293.197
293.192
293.187
293.182
293.178
293.175
293.171
293.168
293.166
293.164
293.162
293.16
293.158
293.157
293.156
293.155
293.154
293.153
293.153
293.152
293.152
293.151
293.151
293.151
293.151
293.15
293.15
293.15
293.15
293.15
293.15
293.15
293.15
293.15
293.15
293.15
293.15
293.15
293.15
293.15
293.15
293.15
293.15
293.15
293.15
293.15
293.15
293.15
293.15
293.15
393.15
393.15
393.15
393.15
393.15
393.15
393.15
393.15
393.15
393.15
393.15
393.15
393.15
393.15
393.15
393.15
393.15
393.15
393.15
393.15
393.15
393.15
393.15
393.15
393.15
393.15
393.15
393.15
393.15
393.15
393.15
393.15
393.15
393.15
393.15
393.15
393.15
393.15
393.15
393.15
393.15
393.15
393.15
393.15
393.15
393.15
393.15
393.15
393.15
393.15
393.15
393.15
393.15
393.15
393.15
393.15
393.15
393.15
393.15
393.15
393.15
393.15
393.15
393.15
393.15
393.15
393.15
393.15
393.15
393.15
393.15
393.15
393.15
393.15
393.15
393.15
393.15
393.15
393.149
393.147
393.15
393.15
393.15
393.15
393.15
393.15
393.15
393.15
393.15
393.15
393.15
393.15
393.15
393.15
393.149
393.148
393.147
393.144
393.135
393.096
393.15
393.15
393.15
393.15
393.15
393.149
393.149
393.149
393.149
393.148
393.148
393.147
393.146
393.145
393.141
393.135
393.12
393.083
392.968
392.409
393.143
393.142
393.14
393.137
393.134
393.131
393.128
393.125
393.124
393.123
393.122
393.119
393.114
393.103
393.081
393.035
392.93
392.652
391.677
386.173
392.921
392.895
392.867
392.837
392.807
392.783
392.77
392.772
392.785
392.8
392.814
392.821
392.816
392.786
392.702
392.505
392.045
390.823
386.524
360.138
389.51
389.353
389.207
389.069
388.969
388.973
389.045
389.191
389.341
389.512
389.69
389.885
390.066
390.215
390.15
389.7
388.428
385.4
377.448
326.26
365.43
365.117
364.823
364.573
364.429
364.537
364.737
364.958
365.244
365.655
366.156
366.852
367.647
368.735
369.608
369.938
368.457
364.201
354.037
325.469
307.513
307.684
307.813
307.901
307.888
307.615
307.257
306.89
306.505
306.055
305.569
304.97
304.316
303.481
302.947
302.89
303.828
305.472
307.323
310.068
294.702
294.771
294.833
294.889
294.926
294.91
294.859
294.766
294.671
294.567
294.464
294.343
294.23
294.102
294.024
294.009
294.111
294.333
294.852
301.648
293.229
293.239
293.249
293.26
293.271
293.279
293.284
293.28
293.273
293.262
293.252
293.24
293.231
293.223
293.219
293.223
293.242
293.302
293.586
296.512
293.152
293.152
293.153
293.154
293.154
293.155
293.156
293.157
293.157
293.156
293.156
293.155
293.155
293.155
293.155
293.157
293.16
293.173
293.23
293.741
293.15
293.15
293.15
293.15
293.15
293.15
293.15
293.15
293.15
293.15
293.15
293.15
293.15
293.15
293.15
293.15
293.151
293.152
293.154
293.161
293.15
293.15
293.15
293.15
293.15
293.15
293.15
293.15
293.15
293.15
293.15
293.15
293.15
293.15
293.15
293.15
293.15
293.15
293.15
293.15
293.15
293.15
293.15
293.15
293.15
293.15
293.15
293.15
293.15
293.15
293.15
293.15
293.15
293.15
293.15
293.15
293.15
293.15
293.15
293.15
293.15
293.15
293.15
293.15
293.15
293.15
293.15
293.15
293.15
293.15
293.15
293.15
293.15
293.15
293.15
293.15
293.15
293.15
293.15
293.15
293.15
293.15
293.15
293.15
293.15
293.15
293.15
293.15
293.15
293.15
293.15
293.15
293.15
293.15
293.15
293.15
293.15
293.15
293.15
293.15
293.15
293.15
293.15
293.15
293.15
293.15
293.15
293.15
293.15
293.15
293.15
293.15
293.15
293.15
293.15
293.15
293.15
293.15
293.15
293.15
393.15
393.15
393.15
393.15
393.15
393.15
393.15
393.15
393.15
393.15
393.15
393.15
393.15
393.15
393.15
393.15
393.15
393.15
393.15
393.15
393.15
393.15
393.15
393.15
393.15
393.15
393.15
393.15
393.15
393.15
393.15
393.15
393.15
393.15
393.15
393.15
393.15
393.15
393.15
393.15
393.15
393.15
393.15
393.15
393.15
393.15
393.15
393.15
393.15
393.15
393.15
393.15
393.15
393.15
393.15
393.15
393.15
393.15
393.15
393.15
393.15
393.15
393.15
393.15
393.15
393.15
393.15
393.15
393.15
393.15
393.15
393.15
393.15
393.15
393.15
393.15
393.15
393.15
393.15
393.15
393.15
393.15
393.15
393.15
393.15
393.15
393.15
393.15
393.15
393.15
393.15
393.15
393.15
393.15
393.15
393.15
393.15
393.15
393.15
393.15
393.15
393.15
393.15
393.15
393.15
393.15
393.15
393.15
393.15
393.15
393.15
393.15
393.15
393.15
393.15
393.15
393.15
393.15
393.15
393.15
393.15
393.15
393.15
393.15
393.15
393.15
393.15
393.15
393.15
393.15
393.15
393.15
393.15
393.15
393.15
393.15
393.15
393.15
393.15
393.15
393.15
393.15
393.15
393.15
393.15
393.15
393.15
393.15
393.15
393.15
393.15
393.15
393.15
393.15
393.15
393.15
393.15
393.15
393.15
393.15
393.15
393.15
393.15
393.15
393.15
393.15
393.15
393.15
393.15
393.15
393.15
393.15
393.15
393.15
393.15
393.15
393.15
393.15
393.15
393.15
393.15
393.15
393.15
393.15
393.15
393.15
393.15
393.15
393.15
393.15
393.15
393.15
393.15
393.15
393.15
393.15
393.15
393.15
393.15
393.15
393.15
393.15
393.15
393.15
393.15
393.15
393.15
393.15
393.15
393.15
393.15
393.15
393.15
393.15
393.15
393.15
393.15
393.15
393.15
393.15
393.15
393.15
393.15
393.15
393.15
393.15
393.15
393.15
393.15
393.15
393.15
393.15
393.15
393.15
393.15
393.15
393.15
393.15
393.15
393.15
393.15
393.15
393.15
393.15
393.15
393.15
393.15
393.15
393.15
393.15
393.15
393.15
393.15
393.15
393.15
393.15
393.15
393.15
393.15
393.15
393.15
393.15
393.15
393.15
393.15
393.15
393.15
393.15
393.15
393.15
393.15
393.15
393.15
393.15
393.15
393.15
393.15
393.15
393.15
393.15
393.15
393.15
393.15
393.15
393.15
393.15
393.15
393.15
393.15
393.15
393.15
393.15
393.15
393.15
393.15
393.15
393.15
393.15
393.15
393.15
393.15
393.15
393.15
393.15
393.15
393.15
393.15
393.15
393.15
393.15
393.15
393.15
393.15
393.15
393.15
393.15
393.15
393.15
393.15
393.15
393.15
393.15
393.15
393.15
393.15
393.15
393.15
393.15
393.15
393.15
393.15
393.15
393.15
393.15
393.15
393.15
393.15
393.15
393.15
393.15
393.15
393.15
393.15
393.15
393.15
393.15
393.15
393.15
393.15
393.15
393.15
393.15
393.15
393.15
393.15
393.15
393.15
393.15
393.15
393.15
393.15
393.15
393.15
393.15
393.15
393.15
393.15
393.15
393.15
393.15
393.15
393.15
393.15
393.15
393.15
393.15
393.15
393.15
393.15
393.15
393.15
393.15
393.15
393.15
393.15
393.15
393.15
393.15
393.15
393.15
393.15
393.15
393.15
393.15
393.15
393.15
393.15
393.15
393.15
393.15
393.15
393.15
393.15
393.15
393.15
393.15
393.15
393.15
393.15
393.15
393.15
393.15
393.15
393.15
393.15
393.15
393.15
393.15
393.15
393.15
393.15
393.15
393.15
393.15
393.15
393.15
393.15
393.15
393.15
393.15
393.15
393.15
393.15
393.15
393.15
393.15
393.15
393.15
393.15
393.15
393.15
393.15
393.15
393.15
393.15
393.15
393.15
393.15
393.15
393.15
393.15
393.15
393.15
393.15
393.15
393.15
393.15
393.15
393.15
393.15
393.15
393.15
393.15
393.15
393.15
393.15
393.15
393.15
393.15
393.15
393.15
393.15
393.15
393.15
393.15
393.15
393.15
393.15
393.15
393.15
393.15
393.15
393.15
393.15
393.15
393.15
393.15
393.15
393.15
393.15
393.15
393.15
393.15
393.15
393.15
393.15
393.15
393.15
393.15
393.15
393.15
393.15
393.15
393.15
393.15
393.15
393.15
393.15
393.15
393.15
393.15
393.15
393.15
393.15
393.15
393.15
393.15
393.15
393.15
393.15
393.15
393.15
393.15
393.15
393.15
393.15
393.15
393.15
393.15
393.15
393.15
393.15
393.15
393.15
393.15
393.15
393.15
393.15
393.15
393.15
393.15
393.15
393.15
393.15
393.15
393.15
393.15
393.15
393.15
393.15
393.15
393.15
393.15
393.15
393.15
393.15
393.15
393.15
393.15
393.15
393.15
393.15
393.15
393.15
393.15
393.15
393.15
393.15
393.15
393.15
393.15
393.15
393.15
393.15
393.15
393.15
393.15
393.15
393.15
393.15
393.15
393.15
393.15
393.15
393.15
393.15
393.15
393.15
393.15
393.15
393.15
393.15
393.15
393.15
393.15
393.15
393.15
393.15
393.15
393.15
393.15
393.15
393.15
393.15
393.15
393.15
393.15
393.15
393.15
393.15
393.15
393.15
393.15
393.15
393.15
393.15
393.15
393.15
393.15
393.15
393.15
393.15
393.15
393.15
393.15
393.15
393.15
393.15
393.15
393.15
393.15
393.15
393.15
393.15
393.15
393.15
393.15
393.15
393.15
393.15
393.15
393.15
393.15
393.15
393.15
393.15
393.15
393.15
393.15
393.15
393.15
393.15
393.15
393.15
393.15
393.15
393.15
393.15
393.15
393.15
393.15
393.15
393.15
393.15
393.15
393.15
393.15
393.15
393.15
393.15
393.15
393.15
393.15
393.15
393.15
393.15
393.15
393.15
393.15
393.15
393.15
393.15
393.15
393.15
393.15
393.15
393.15
393.15
393.15
393.15
393.15
393.15
393.15
393.15
393.15
393.15
393.15
393.15
393.15
393.15
393.15
393.15
393.15
393.15
393.15
393.15
393.15
393.15
393.15
393.15
393.15
393.15
393.15
393.15
393.15
393.15
393.15
393.15
393.15
393.15
393.15
393.15
393.15
393.15
393.15
393.15
393.15
393.15
393.15
393.15
393.15
393.15
393.15
393.15
393.15
393.15
393.15
393.15
393.15
393.15
393.15
393.15
393.15
393.15
393.15
393.15
393.15
393.15
393.15
393.15
393.15
393.15
393.15
393.15
393.15
393.15
393.15
393.15
393.15
393.15
393.15
393.15
393.15
393.15
393.15
393.15
393.15
393.15
393.15
393.15
393.15
393.15
393.15
393.15
393.15
393.15
393.15
393.15
393.15
393.15
393.15
393.15
393.15
393.15
393.15
393.15
393.15
393.15
393.15
393.15
393.15
393.15
393.15
393.15
393.15
393.15
393.15
393.15
393.15
393.15
393.15
393.15
393.15
393.15
393.15
393.15
393.15
393.15
393.15
393.15
393.15
393.15
393.15
393.15
393.15
393.15
393.15
393.15
393.15
393.15
393.15
393.15
393.15
393.15
393.15
393.15
393.15
393.15
393.15
393.15
393.15
393.15
393.15
393.15
393.15
393.15
393.15
393.15
393.15
393.15
393.15
393.15
393.15
393.15
393.15
393.15
393.15
393.15
393.15
393.15
393.15
393.15
393.15
393.15
393.15
393.15
393.15
393.15
393.15
393.15
393.15
393.15
393.15
393.15
393.15
393.15
393.15
393.15
393.15
393.15
393.15
393.15
393.15
393.15
393.15
393.15
393.15
393.15
393.15
393.15
393.15
393.15
393.15
393.15
393.15
393.15
393.15
393.15
393.15
393.15
393.15
393.15
393.15
393.15
393.15
393.15
393.15
393.15
393.15
393.15
393.15
393.15
393.15
393.15
393.15
393.15
393.15
393.15
393.15
393.15
393.15
393.15
393.15
393.15
393.15
393.15
393.15
393.15
393.15
393.15
393.15
393.15
393.15
393.15
393.15
393.15
393.15
393.15
393.15
393.15
393.15
393.15
393.15
393.15
393.15
393.15
393.15
393.15
393.15
393.15
393.15
393.15
393.15
393.15
393.15
393.15
393.15
393.15
393.15
393.15
393.15
393.15
393.15
393.15
393.15
393.15
393.15
393.15
393.15
393.15
393.15
393.15
393.15
393.15
393.15
393.15
393.15
393.15
393.15
393.15
393.15
393.15
393.15
393.15
393.15
393.15
393.15
393.15
393.15
393.15
393.15
393.15
393.15
393.15
393.15
393.15
393.15
393.15
393.15
393.15
393.15
393.15
393.15
393.15
393.15
393.15
393.15
393.15
393.15
393.15
393.15
393.15
393.15
393.15
393.15
393.15
393.15
393.15
393.15
393.15
393.15
393.15
393.15
393.15
393.15
393.15
393.15
393.15
393.15
393.15
393.15
393.15
393.15
393.15
393.15
393.15
393.15
393.15
393.15
393.15
393.15
393.15
393.15
393.15
393.15
393.15
393.15
393.15
393.15
393.15
393.15
393.15
393.15
393.15
393.15
393.15
393.15
393.15
393.15
393.15
393.15
393.15
393.15
393.15
393.15
393.15
393.15
393.15
393.15
393.15
393.15
393.15
393.15
393.15
393.15
393.15
393.15
393.15
393.15
393.15
393.15
393.15
393.15
393.15
393.15
393.15
393.15
393.15
393.15
393.15
393.15
393.15
393.15
393.15
393.15
393.15
393.15
393.15
393.15
393.15
393.15
393.15
393.15
393.15
393.15
393.15
393.15
393.15
393.15
393.15
393.15
393.15
393.15
393.15
393.15
393.15
393.15
393.15
393.15
393.15
393.15
393.15
393.15
393.15
393.15
393.15
393.15
393.15
393.15
393.15
393.15
393.15
393.15
393.15
393.15
393.15
393.15
393.15
393.15
393.15
393.15
393.15
393.15
393.15
393.15
393.15
393.15
393.15
393.15
393.15
393.15
393.15
393.15
393.15
393.15
393.15
393.15
393.15
393.15
393.15
393.15
393.15
393.15
393.15
393.15
393.15
393.15
393.15
393.15
393.15
393.15
393.15
393.15
393.15
393.15
393.15
393.15
393.15
393.15
393.15
393.15
393.15
393.15
393.15
393.15
393.15
393.15
393.15
393.15
393.15
393.15
393.15
393.15
393.15
393.15
393.15
393.15
393.15
393.15
393.15
393.15
393.15
393.15
393.15
393.15
393.15
393.15
393.15
393.15
393.15
393.15
393.15
393.15
393.15
393.15
393.15
393.15
393.15
393.15
393.15
393.15
393.15
393.15
393.15
393.15
393.15
393.15
393.15
393.15
393.15
393.15
393.15
393.15
393.15
393.15
393.15
393.15
393.15
393.15
393.15
393.15
393.15
393.15
393.15
393.15
393.15
393.15
393.15
393.15
393.15
393.15
393.15
393.15
393.15
393.15
393.15
393.15
393.15
393.15
393.15
393.15
393.15
393.15
393.15
393.15
393.15
393.15
393.15
393.15
393.15
393.15
393.15
393.15
393.15
393.15
393.15
393.15
393.15
393.15
393.15
393.15
393.15
393.15
393.15
393.15
393.15
393.15
393.15
393.15
393.15
393.15
393.15
393.15
393.15
393.15
393.15
393.15
393.15
393.15
393.15
393.15
393.15
393.15
393.15
393.15
393.15
393.15
393.15
393.15
393.15
393.15
393.15
393.15
393.15
393.15
393.15
393.15
393.15
393.15
393.15
393.15
393.15
393.15
393.15
393.15
393.15
393.15
393.15
393.15
393.15
393.15
393.15
393.15
393.15
393.15
393.15
393.15
393.15
393.15
393.15
393.15
393.15
393.15
393.15
393.15
393.15
393.15
393.15
393.15
393.15
393.15
393.15
393.15
393.15
393.15
393.15
393.15
393.15
393.15
393.15
393.15
393.15
393.15
393.15
393.15
393.15
393.15
393.15
393.15
393.15
393.15
393.15
393.15
393.15
393.15
393.15
393.15
393.15
393.15
393.15
393.15
393.15
393.15
393.15
393.15
393.15
393.15
393.15
393.15
393.15
393.15
393.15
393.15
393.15
393.15
393.15
393.15
393.15
393.15
393.15
393.15
393.15
393.15
393.15
393.15
393.15
393.15
393.15
393.15
393.15
393.15
393.15
393.15
393.15
393.15
393.15
393.15
393.15
393.15
393.15
393.15
393.15
393.15
393.15
393.15
393.15
393.15
393.15
393.15
393.15
393.15
393.15
393.15
393.15
393.15
393.15
393.15
393.15
393.15
393.15
393.15
393.15
393.15
393.15
393.15
393.15
393.15
393.15
393.15
393.15
393.15
393.15
393.15
393.15
393.15
393.15
393.15
393.15
393.15
393.15
393.15
393.15
393.15
393.15
393.15
393.15
393.15
393.15
393.15
393.15
393.15
393.15
393.15
393.15
393.15
393.15
393.15
393.15
393.15
393.15
393.15
393.15
393.15
393.15
393.15
393.15
393.15
393.15
393.15
393.15
393.15
393.15
393.15
393.15
393.15
393.15
393.15
393.15
393.15
393.15
393.15
393.15
393.15
393.15
393.15
393.15
393.15
393.15
393.15
393.15