/*--------------------------------*- C++ -*----------------------------------*\
| =========                 |                                                 |
| \\      /  F ield         | OpenFOAM: The Open Source CFD Toolbox           |
|  \\    /   O peration     | Version:  2.1.0                                 |
|   \\  /    A nd           | Web:      www.OpenFOAM.org                      |
|    \\/     M anipulation  |                                                 |
\*---------------------------------------------------------------------------*/
FoamFile
{
    version     2.0;
    format      ascii;
    class       volVectorField;
    location    "0.48";
    object      U;
}
// * * * * * * * * * * * * * * * * * * * * * * * * * * * * * * * * * * * * * //

dimensions      [0 1 -1 0 0 0 0];

internalField   nonuniform List<vector> 
6400
(
(-1.30056 -4.3053e-05 0)
(-1.29939 -0.000497196 0)
(-1.297 -0.000787195 0)
(-1.29366 -0.000934702 0)
(-1.28986 -0.00102182 0)
(-1.28576 -0.00108028 0)
(-1.28147 -0.00112243 0)
(-1.27702 -0.00115558 0)
(-1.27245 -0.00118359 0)
(-1.26777 -0.00120888 0)
(-1.263 -0.00123274 0)
(-1.25813 -0.00125599 0)
(-1.25317 -0.00127908 0)
(-1.24811 -0.00130224 0)
(-1.24296 -0.00132568 0)
(-1.23772 -0.00134942 0)
(-1.23238 -0.0013736 0)
(-1.22694 -0.00139815 0)
(-1.22141 -0.00142317 0)
(-1.21577 -0.00144856 0)
(-1.21003 -0.00147443 0)
(-1.20419 -0.00150059 0)
(-1.19824 -0.00152727 0)
(-1.19218 -0.00155448 0)
(-1.18601 -0.00158185 0)
(-1.17973 -0.00160972 0)
(-1.17334 -0.00163924 0)
(-1.16683 -0.00166998 0)
(-1.16019 -0.00170172 0)
(-1.15343 -0.00173437 0)
(-1.14653 -0.00176807 0)
(-1.1395 -0.00180282 0)
(-1.13233 -0.00183878 0)
(-1.12501 -0.00187601 0)
(-1.11754 -0.00191461 0)
(-1.10991 -0.00195458 0)
(-1.10212 -0.00199604 0)
(-1.09417 -0.00203903 0)
(-1.08604 -0.00208372 0)
(-1.07773 -0.00213022 0)
(-1.06923 -0.00217889 0)
(-1.06053 -0.00222969 0)
(-1.05163 -0.00228268 0)
(-1.04251 -0.00233801 0)
(-1.03317 -0.00239571 0)
(-1.0236 -0.00245582 0)
(-1.01378 -0.00251837 0)
(-1.00371 -0.00258329 0)
(-0.993383 -0.00265044 0)
(-0.982782 -0.00271995 0)
(-0.971903 -0.00279143 0)
(-0.960741 -0.00286296 0)
(-0.949289 -0.00293838 0)
(-0.937525 -0.00302039 0)
(-0.925428 -0.0031068 0)
(-0.91298 -0.00319617 0)
(-0.90019 -0.00328364 0)
(-0.887058 -0.00336719 0)
(-0.8736 -0.00344894 0)
(-0.859817 -0.00353151 0)
(-0.845703 -0.00361593 0)
(-0.831252 -0.00370229 0)
(-0.816455 -0.00379127 0)
(-0.8013 -0.00388366 0)
(-0.785772 -0.00397958 0)
(-0.769858 -0.00407962 0)
(-0.753539 -0.00418408 0)
(-0.736798 -0.00429376 0)
(-0.719613 -0.00440913 0)
(-0.70196 -0.00453059 0)
(-0.683815 -0.00465848 0)
(-0.665152 -0.00479345 0)
(-0.645941 -0.004936 0)
(-0.626151 -0.00508695 0)
(-0.605748 -0.00524724 0)
(-0.584692 -0.00541806 0)
(-0.562938 -0.005601 0)
(-0.540436 -0.00579801 0)
(-0.517124 -0.00601195 0)
(-0.492927 -0.00624702 0)
(-0.467752 -0.00650844 0)
(-0.441482 -0.00680268 0)
(-0.413973 -0.0071381 0)
(-0.385043 -0.00752401 0)
(-0.354481 -0.0079677 0)
(-0.322054 -0.00847176 0)
(-0.287535 -0.00903155 0)
(-0.250747 -0.00962646 0)
(-0.211653 -0.0102051 0)
(-0.17054 -0.010656 0)
(-0.128356 -0.0107523 0)
(-0.0873749 -0.0100481 0)
(-0.0517438 -0.00803353 0)
(-0.0265816 -0.00472798 0)
(-0.01548 -0.000898926 0)
(-0.0201024 0.00323226 0)
(-0.0488931 0.0113529 0)
(-0.129014 0.029212 0)
(-0.328803 0.0711592 0)
(-0.948362 0.198979 0)
(-1.56732 -0.000319862 0)
(-1.56416 -0.00164006 0)
(-1.56199 -0.00239702 0)
(-1.55851 -0.00279968 0)
(-1.55468 -0.00304323 0)
(-1.55058 -0.0032073 0)
(-1.54633 -0.00332573 0)
(-1.54194 -0.00341874 0)
(-1.53746 -0.00349733 0)
(-1.53288 -0.00356815 0)
(-1.52822 -0.00363504 0)
(-1.52348 -0.00370012 0)
(-1.51866 -0.00376489 0)
(-1.51377 -0.00382984 0)
(-1.50879 -0.00389572 0)
(-1.50374 -0.00396249 0)
(-1.4986 -0.00403064 0)
(-1.49338 -0.00409992 0)
(-1.48807 -0.00417067 0)
(-1.48267 -0.0042426 0)
(-1.47718 -0.00431599 0)
(-1.47161 -0.00439034 0)
(-1.46594 -0.00446597 0)
(-1.46018 -0.00454319 0)
(-1.45432 -0.00462033 0)
(-1.44837 -0.00469791 0)
(-1.44232 -0.0047797 0)
(-1.43618 -0.00486434 0)
(-1.42994 -0.00495124 0)
(-1.4236 -0.00504033 0)
(-1.41716 -0.00513198 0)
(-1.41062 -0.00522629 0)
(-1.40397 -0.0053236 0)
(-1.39721 -0.00542408 0)
(-1.39034 -0.00552801 0)
(-1.38336 -0.00563542 0)
(-1.37626 -0.00574661 0)
(-1.36904 -0.00586181 0)
(-1.36169 -0.00598131 0)
(-1.35422 -0.00610518 0)
(-1.34661 -0.00623431 0)
(-1.33887 -0.00636877 0)
(-1.33099 -0.00650879 0)
(-1.32296 -0.00665479 0)
(-1.31478 -0.00680693 0)
(-1.30645 -0.00696544 0)
(-1.29795 -0.00713053 0)
(-1.28928 -0.00730227 0)
(-1.28042 -0.00748052 0)
(-1.27138 -0.00766575 0)
(-1.26214 -0.00785745 0)
(-1.2527 -0.00805055 0)
(-1.24306 -0.008248 0)
(-1.23322 -0.00845342 0)
(-1.22322 -0.00866459 0)
(-1.21305 -0.00888048 0)
(-1.20274 -0.00909543 0)
(-1.19224 -0.00930521 0)
(-1.18156 -0.00951194 0)
(-1.17069 -0.00972052 0)
(-1.15965 -0.00993328 0)
(-1.14842 -0.0101509 0)
(-1.137 -0.0103744 0)
(-1.12538 -0.0106051 0)
(-1.11358 -0.0108437 0)
(-1.10157 -0.0110912 0)
(-1.08937 -0.0113485 0)
(-1.07696 -0.0116174 0)
(-1.06434 -0.0118992 0)
(-1.0515 -0.0121952 0)
(-1.03842 -0.0125068 0)
(-1.02511 -0.0128359 0)
(-1.01154 -0.0131843 0)
(-0.997699 -0.0135546 0)
(-0.983555 -0.0139498 0)
(-0.969084 -0.0143737 0)
(-0.954251 -0.014831 0)
(-0.939017 -0.0153272 0)
(-0.923334 -0.01587 0)
(-0.907145 -0.01647 0)
(-0.890383 -0.0171404 0)
(-0.872972 -0.0178962 0)
(-0.854827 -0.0187562 0)
(-0.83585 -0.0197407 0)
(-0.815942 -0.0208662 0)
(-0.794996 -0.0221375 0)
(-0.772919 -0.0235394 0)
(-0.749659 -0.0250157 0)
(-0.725257 -0.0264348 0)
(-0.699912 -0.0275258 0)
(-0.674083 -0.027764 0)
(-0.648537 -0.0261963 0)
(-0.624646 -0.0215979 0)
(-0.605323 -0.0134314 0)
(-0.599535 -0.000885564 0)
(-0.614899 0.013305 0)
(-0.663453 0.0398762 0)
(-0.76763 0.0921341 0)
(-0.970708 0.204432 0)
(-1.45949 0.526482 0)
(-1.71669 -0.000882538 0)
(-1.71263 -0.00286261 0)
(-1.71131 -0.00394928 0)
(-1.70838 -0.0045546 0)
(-1.70513 -0.00492757 0)
(-1.70169 -0.00517906 0)
(-1.6981 -0.00535949 0)
(-1.69442 -0.00550068 0)
(-1.69066 -0.00561894 0)
(-1.68684 -0.00572524 0)
(-1.68295 -0.00582501 0)
(-1.67902 -0.00592206 0)
(-1.67502 -0.00601832 0)
(-1.67099 -0.00611502 0)
(-1.66688 -0.006213 0)
(-1.66274 -0.0063126 0)
(-1.65853 -0.00641429 0)
(-1.65427 -0.00651805 0)
(-1.64994 -0.00662424 0)
(-1.64557 -0.00673274 0)
(-1.64112 -0.00684392 0)
(-1.63661 -0.00695734 0)
(-1.63202 -0.00707321 0)
(-1.62737 -0.00719232 0)
(-1.62263 -0.00731241 0)
(-1.61782 -0.00743208 0)
(-1.61292 -0.00755438 0)
(-1.60796 -0.00767838 0)
(-1.60294 -0.0078043 0)
(-1.59785 -0.00793267 0)
(-1.5927 -0.00806404 0)
(-1.5875 -0.00819867 0)
(-1.58222 -0.00833694 0)
(-1.57689 -0.00847907 0)
(-1.5715 -0.00862535 0)
(-1.56604 -0.00877589 0)
(-1.56053 -0.00893091 0)
(-1.55495 -0.00909081 0)
(-1.54931 -0.00925606 0)
(-1.54362 -0.00942612 0)
(-1.53786 -0.00960208 0)
(-1.53205 -0.00978421 0)
(-1.52618 -0.00997266 0)
(-1.52026 -0.010168 0)
(-1.51429 -0.0103704 0)
(-1.50827 -0.0105802 0)
(-1.5022 -0.0107976 0)
(-1.49609 -0.011023 0)
(-1.48993 -0.0112561 0)
(-1.48374 -0.0114972 0)
(-1.47752 -0.0117455 0)
(-1.47126 -0.0119971 0)
(-1.46501 -0.0122498 0)
(-1.45871 -0.0125023 0)
(-1.45241 -0.0127544 0)
(-1.44611 -0.0130072 0)
(-1.43983 -0.013262 0)
(-1.43355 -0.0135159 0)
(-1.42727 -0.0137673 0)
(-1.421 -0.014019 0)
(-1.41475 -0.0142732 0)
(-1.40851 -0.0145307 0)
(-1.40231 -0.0147923 0)
(-1.39615 -0.0150584 0)
(-1.39006 -0.0153297 0)
(-1.38403 -0.0156068 0)
(-1.37809 -0.0158908 0)
(-1.37226 -0.0161828 0)
(-1.36656 -0.0164841 0)
(-1.361 -0.0167967 0)
(-1.35561 -0.0171222 0)
(-1.35041 -0.0174635 0)
(-1.34541 -0.0178227 0)
(-1.34064 -0.018204 0)
(-1.33613 -0.0186121 0)
(-1.33187 -0.0190526 0)
(-1.32789 -0.019533 0)
(-1.32419 -0.0200618 0)
(-1.32078 -0.0206498 0)
(-1.31764 -0.0213123 0)
(-1.31477 -0.0220676 0)
(-1.31214 -0.0229346 0)
(-1.30972 -0.0239356 0)
(-1.30747 -0.0250936 0)
(-1.30536 -0.0264267 0)
(-1.30336 -0.0279391 0)
(-1.30143 -0.0296052 0)
(-1.29958 -0.0313427 0)
(-1.29787 -0.0329724 0)
(-1.29644 -0.0341469 0)
(-1.29554 -0.0342397 0)
(-1.29551 -0.032207 0)
(-1.29686 -0.0265617 0)
(-1.30108 -0.0158167 0)
(-1.31014 0.00234854 0)
(-1.32733 0.0264614 0)
(-1.36687 0.0696996 0)
(-1.44322 0.149792 0)
(-1.58725 0.311599 0)
(-1.85831 0.719494 0)
(-1.85118 -0.00153993 0)
(-1.84685 -0.00385656 0)
(-1.84656 -0.00517955 0)
(-1.84452 -0.005945 0)
(-1.84225 -0.00642124 0)
(-1.83984 -0.00674021 0)
(-1.83732 -0.00696592 0)
(-1.83475 -0.0071403 0)
(-1.83212 -0.00728368 0)
(-1.82948 -0.00741126 0)
(-1.82679 -0.00752927 0)
(-1.8241 -0.0076435 0)
(-1.82138 -0.00775576 0)
(-1.81866 -0.00786837 0)
(-1.8159 -0.00798183 0)
(-1.81316 -0.00809717 0)
(-1.81038 -0.00821452 0)
(-1.80761 -0.00833435 0)
(-1.80481 -0.00845677 0)
(-1.80202 -0.00858206 0)
(-1.79921 -0.00871061 0)
(-1.7964 -0.0088422 0)
(-1.79357 -0.00897691 0)
(-1.79074 -0.00911479 0)
(-1.78789 -0.00925539 0)
(-1.78506 -0.00939695 0)
(-1.78222 -0.00953805 0)
(-1.77937 -0.0096784 0)
(-1.77651 -0.00981929 0)
(-1.77365 -0.00996186 0)
(-1.7708 -0.0101067 0)
(-1.76795 -0.0102543 0)
(-1.76511 -0.0104048 0)
(-1.76228 -0.0105584 0)
(-1.75946 -0.0107152 0)
(-1.75667 -0.0108754 0)
(-1.75389 -0.0110388 0)
(-1.75114 -0.0112056 0)
(-1.74842 -0.0113766 0)
(-1.74574 -0.0115508 0)
(-1.74311 -0.0117291 0)
(-1.74052 -0.0119114 0)
(-1.73799 -0.0120976 0)
(-1.73552 -0.0122881 0)
(-1.73314 -0.0124827 0)
(-1.73083 -0.0126813 0)
(-1.72862 -0.012884 0)
(-1.72652 -0.0130906 0)
(-1.72454 -0.0133006 0)
(-1.7227 -0.0135133 0)
(-1.72101 -0.0137269 0)
(-1.71948 -0.0139415 0)
(-1.71814 -0.0141585 0)
(-1.71695 -0.0143743 0)
(-1.71592 -0.0145859 0)
(-1.71505 -0.0147938 0)
(-1.71436 -0.0150005 0)
(-1.71384 -0.0152048 0)
(-1.71353 -0.0154034 0)
(-1.71343 -0.0155975 0)
(-1.71355 -0.0157874 0)
(-1.71391 -0.0159739 0)
(-1.71454 -0.0161574 0)
(-1.71544 -0.016338 0)
(-1.71663 -0.0165159 0)
(-1.71814 -0.0166916 0)
(-1.71997 -0.0168657 0)
(-1.72215 -0.017039 0)
(-1.72468 -0.0172129 0)
(-1.72759 -0.0173894 0)
(-1.73089 -0.0175708 0)
(-1.73458 -0.0177606 0)
(-1.73867 -0.0179624 0)
(-1.74317 -0.0181816 0)
(-1.74806 -0.018425 0)
(-1.75333 -0.0187008 0)
(-1.75898 -0.0190193 0)
(-1.76496 -0.019393 0)
(-1.77126 -0.0198351 0)
(-1.77782 -0.0203655 0)
(-1.78461 -0.0210071 0)
(-1.79156 -0.0217817 0)
(-1.79861 -0.022713 0)
(-1.80572 -0.0238242 0)
(-1.81282 -0.0251316 0)
(-1.81987 -0.0266351 0)
(-1.82687 -0.0282991 0)
(-1.83381 -0.0300226 0)
(-1.84074 -0.0315978 0)
(-1.84775 -0.0326437 0)
(-1.85492 -0.0325109 0)
(-1.86228 -0.0301699 0)
(-1.86981 -0.0240767 0)
(-1.87805 -0.0123684 0)
(-1.88738 0.00671467 0)
(-1.8987 0.0366154 0)
(-1.92152 0.0894846 0)
(-1.96294 0.186069 0)
(-2.03232 0.375551 0)
(-2.1333 0.778271 0)
(-1.98622 -0.00211026 0)
(-1.98224 -0.00449031 0)
(-1.98311 -0.00591818 0)
(-1.9823 -0.00677636 0)
(-1.98147 -0.00731612 0)
(-1.98053 -0.00767237 0)
(-1.9796 -0.00792015 0)
(-1.97863 -0.00810602 0)
(-1.97769 -0.008255 0)
(-1.97675 -0.00838381 0)
(-1.97583 -0.00850053 0)
(-1.97495 -0.00861134 0)
(-1.97409 -0.00871877 0)
(-1.97327 -0.0088252 0)
(-1.97248 -0.00893138 0)
(-1.97174 -0.00903828 0)
(-1.97104 -0.00914607 0)
(-1.9704 -0.00925512 0)
(-1.9698 -0.00936553 0)
(-1.96926 -0.00947746 0)
(-1.96879 -0.00959136 0)
(-1.96838 -0.00970691 0)
(-1.96804 -0.00982352 0)
(-1.96779 -0.0099403 0)
(-1.96761 -0.0100587 0)
(-1.96754 -0.0101799 0)
(-1.96754 -0.0103018 0)
(-1.96763 -0.0104225 0)
(-1.96779 -0.0105425 0)
(-1.96804 -0.0106625 0)
(-1.96837 -0.0107831 0)
(-1.9688 -0.0109045 0)
(-1.96931 -0.0110269 0)
(-1.96993 -0.0111504 0)
(-1.97066 -0.0112748 0)
(-1.9715 -0.0114001 0)
(-1.97245 -0.0115261 0)
(-1.97353 -0.0116527 0)
(-1.97474 -0.0117802 0)
(-1.97608 -0.0119081 0)
(-1.97757 -0.0120369 0)
(-1.9792 -0.012166 0)
(-1.981 -0.0122952 0)
(-1.98296 -0.0124245 0)
(-1.98509 -0.0125538 0)
(-1.9874 -0.0126827 0)
(-1.98989 -0.0128109 0)
(-1.99258 -0.0129381 0)
(-1.99546 -0.0130637 0)
(-1.99855 -0.013187 0)
(-2.00184 -0.0133064 0)
(-2.00535 -0.0134235 0)
(-2.00906 -0.0135428 0)
(-2.01299 -0.0136622 0)
(-2.01715 -0.0137772 0)
(-2.02153 -0.0138863 0)
(-2.02613 -0.0139897 0)
(-2.03096 -0.0140859 0)
(-2.03602 -0.014173 0)
(-2.04132 -0.0142517 0)
(-2.04686 -0.0143224 0)
(-2.05263 -0.0143856 0)
(-2.05864 -0.0144422 0)
(-2.06487 -0.0144925 0)
(-2.07133 -0.0145374 0)
(-2.07802 -0.0145774 0)
(-2.08491 -0.0146136 0)
(-2.09201 -0.0146474 0)
(-2.09931 -0.0146806 0)
(-2.1068 -0.014716 0)
(-2.11446 -0.0147565 0)
(-2.12228 -0.0148065 0)
(-2.13026 -0.0148711 0)
(-2.13838 -0.0149569 0)
(-2.14662 -0.0150721 0)
(-2.15498 -0.0152267 0)
(-2.16344 -0.0154328 0)
(-2.17198 -0.015706 0)
(-2.1806 -0.0160593 0)
(-2.18929 -0.0165147 0)
(-2.19802 -0.0170993 0)
(-2.20678 -0.0178345 0)
(-2.21557 -0.0187435 0)
(-2.22437 -0.0198477 0)
(-2.23318 -0.0211595 0)
(-2.24201 -0.0226733 0)
(-2.25087 -0.0243463 0)
(-2.25976 -0.0260674 0)
(-2.26871 -0.0276186 0)
(-2.27771 -0.0286204 0)
(-2.28666 -0.0284526 0)
(-2.29533 -0.0261739 0)
(-2.30316 -0.0203342 0)
(-2.3103 -0.0091508 0)
(-2.31558 0.00955327 0)
(-2.31849 0.0411752 0)
(-2.3232 0.0974549 0)
(-2.32935 0.199589 0)
(-2.32749 0.39296 0)
(-2.31002 0.744681 0)
(-2.12851 -0.00242635 0)
(-2.12561 -0.00463892 0)
(-2.12767 -0.00601462 0)
(-2.12844 -0.00686539 0)
(-2.12937 -0.00740356 0)
(-2.13032 -0.007751 0)
(-2.13138 -0.00798598 0)
(-2.13247 -0.00815357 0)
(-2.13365 -0.00828179 0)
(-2.13489 -0.00838654 0)
(-2.13622 -0.0084776 0)
(-2.13761 -0.00856035 0)
(-2.13909 -0.00863834 0)
(-2.14066 -0.00871329 0)
(-2.14231 -0.00878653 0)
(-2.14406 -0.00885848 0)
(-2.14589 -0.00892964 0)
(-2.14784 -0.00899996 0)
(-2.14988 -0.00906966 0)
(-2.15203 -0.00913864 0)
(-2.15429 -0.00920748 0)
(-2.15667 -0.00927623 0)
(-2.15916 -0.00934245 0)
(-2.16177 -0.00940644 0)
(-2.16451 -0.00947117 0)
(-2.16737 -0.00953787 0)
(-2.17036 -0.00960607 0)
(-2.17348 -0.0096732 0)
(-2.17673 -0.0097386 0)
(-2.18012 -0.00980255 0)
(-2.18365 -0.00986547 0)
(-2.18731 -0.00992746 0)
(-2.19112 -0.00998876 0)
(-2.19507 -0.0100493 0)
(-2.19916 -0.0101091 0)
(-2.2034 -0.0101679 0)
(-2.20779 -0.0102257 0)
(-2.21232 -0.0102826 0)
(-2.21701 -0.0103383 0)
(-2.22184 -0.0103928 0)
(-2.22682 -0.0104465 0)
(-2.23195 -0.010499 0)
(-2.23723 -0.0105502 0)
(-2.24265 -0.0106003 0)
(-2.24821 -0.0106491 0)
(-2.25391 -0.0106964 0)
(-2.25975 -0.0107422 0)
(-2.26572 -0.0107862 0)
(-2.27183 -0.0108284 0)
(-2.27805 -0.0108682 0)
(-2.2844 -0.0109054 0)
(-2.29086 -0.010941 0)
(-2.29742 -0.0109779 0)
(-2.3041 -0.0110152 0)
(-2.31087 -0.0110504 0)
(-2.31772 -0.0110816 0)
(-2.32466 -0.0111071 0)
(-2.33168 -0.0111252 0)
(-2.33877 -0.0111352 0)
(-2.34592 -0.0111378 0)
(-2.35313 -0.0111339 0)
(-2.3604 -0.0111244 0)
(-2.36772 -0.01111 0)
(-2.37508 -0.0110913 0)
(-2.38248 -0.0110695 0)
(-2.38993 -0.0110451 0)
(-2.3974 -0.0110194 0)
(-2.40491 -0.0109939 0)
(-2.41246 -0.0109706 0)
(-2.42003 -0.0109519 0)
(-2.42764 -0.0109412 0)
(-2.43528 -0.0109425 0)
(-2.44295 -0.0109608 0)
(-2.45066 -0.0110029 0)
(-2.45842 -0.0110771 0)
(-2.46622 -0.0111932 0)
(-2.47406 -0.0113631 0)
(-2.48195 -0.0116032 0)
(-2.48989 -0.0119254 0)
(-2.49791 -0.0123493 0)
(-2.506 -0.0129019 0)
(-2.51418 -0.0136052 0)
(-2.52246 -0.0144821 0)
(-2.53086 -0.0155522 0)
(-2.53939 -0.0168253 0)
(-2.54807 -0.0182941 0)
(-2.55691 -0.0199168 0)
(-2.56591 -0.0215845 0)
(-2.57503 -0.0230878 0)
(-2.5842 -0.0240775 0)
(-2.59321 -0.0240021 0)
(-2.60161 -0.0220464 0)
(-2.6085 -0.0170149 0)
(-2.61374 -0.00723039 0)
(-2.61494 0.00990672 0)
(-2.60987 0.0400558 0)
(-2.59831 0.0940687 0)
(-2.57284 0.191845 0)
(-2.51141 0.369257 0)
(-2.41537 0.652899 0)
(-2.27531 -0.00237973 0)
(-2.27372 -0.00421477 0)
(-2.27695 -0.00538504 0)
(-2.27932 -0.00612286 0)
(-2.28194 -0.00658705 0)
(-2.28476 -0.00687694 0)
(-2.2877 -0.00706312 0)
(-2.29078 -0.007185 0)
(-2.29395 -0.00726927 0)
(-2.29724 -0.00733019 0)
(-2.30061 -0.0073773 0)
(-2.3041 -0.0074153 0)
(-2.30766 -0.00744793 0)
(-2.31134 -0.00747652 0)
(-2.3151 -0.00750266 0)
(-2.31898 -0.00752652 0)
(-2.32293 -0.00754882 0)
(-2.327 -0.00756934 0)
(-2.33115 -0.0075885 0)
(-2.33542 -0.00760613 0)
(-2.33976 -0.00762297 0)
(-2.34421 -0.00763963 0)
(-2.34874 -0.00765255 0)
(-2.35339 -0.00766154 0)
(-2.35812 -0.00766993 0)
(-2.36296 -0.0076782 0)
(-2.3679 -0.0076866 0)
(-2.37296 -0.00769373 0)
(-2.37812 -0.00769921 0)
(-2.38339 -0.00770315 0)
(-2.38875 -0.00770609 0)
(-2.39422 -0.00770812 0)
(-2.39979 -0.00770981 0)
(-2.40545 -0.00771111 0)
(-2.4112 -0.00771234 0)
(-2.41704 -0.00771318 0)
(-2.42296 -0.00771408 0)
(-2.42897 -0.00771498 0)
(-2.43504 -0.00771616 0)
(-2.44118 -0.00771732 0)
(-2.44738 -0.00771919 0)
(-2.45364 -0.00772162 0)
(-2.45995 -0.00772464 0)
(-2.46631 -0.00772838 0)
(-2.4727 -0.00773295 0)
(-2.47913 -0.0077382 0)
(-2.48558 -0.00774405 0)
(-2.49207 -0.00775037 0)
(-2.49856 -0.00775726 0)
(-2.50507 -0.0077641 0)
(-2.51159 -0.00777108 0)
(-2.51811 -0.00777861 0)
(-2.52463 -0.00778881 0)
(-2.53115 -0.00780162 0)
(-2.53766 -0.0078158 0)
(-2.54416 -0.00782895 0)
(-2.55065 -0.00783809 0)
(-2.55712 -0.00784045 0)
(-2.56358 -0.00783555 0)
(-2.57003 -0.0078244 0)
(-2.57648 -0.00780768 0)
(-2.58291 -0.00778612 0)
(-2.58934 -0.00776003 0)
(-2.59576 -0.00772965 0)
(-2.60219 -0.00769584 0)
(-2.60862 -0.00765883 0)
(-2.61507 -0.00761938 0)
(-2.62153 -0.00757877 0)
(-2.62801 -0.00753853 0)
(-2.63453 -0.00750088 0)
(-2.64109 -0.00746879 0)
(-2.6477 -0.00744587 0)
(-2.65437 -0.00743681 0)
(-2.66111 -0.00744802 0)
(-2.66793 -0.00748805 0)
(-2.67484 -0.00756642 0)
(-2.68185 -0.00769452 0)
(-2.68899 -0.00788657 0)
(-2.69623 -0.0081577 0)
(-2.70366 -0.00852684 0)
(-2.71123 -0.00901674 0)
(-2.71895 -0.00964993 0)
(-2.72686 -0.0104483 0)
(-2.73497 -0.0114307 0)
(-2.74332 -0.012606 0)
(-2.75192 -0.0139673 0)
(-2.76078 -0.0154811 0)
(-2.76987 -0.0170512 0)
(-2.77914 -0.0184877 0)
(-2.78843 -0.0194915 0)
(-2.79743 -0.0196051 0)
(-2.80556 -0.0181659 0)
(-2.8117 -0.0143023 0)
(-2.81517 -0.00649511 0)
(-2.81315 0.00789853 0)
(-2.80112 0.0339358 0)
(-2.77548 0.0808223 0)
(-2.7232 0.165522 0)
(-2.6157 0.313217 0)
(-2.46995 0.526012 0)
(-2.40856 -0.0019846 0)
(-2.40797 -0.00328007 0)
(-2.41196 -0.0041444 0)
(-2.41541 -0.004695 0)
(-2.41906 -0.00503617 0)
(-2.42308 -0.00523918 0)
(-2.42714 -0.00535872 0)
(-2.43142 -0.00542595 0)
(-2.43571 -0.00546207 0)
(-2.44017 -0.00547876 0)
(-2.44461 -0.00548374 0)
(-2.4492 -0.00548093 0)
(-2.45379 -0.00547344 0)
(-2.4585 -0.00546247 0)
(-2.46321 -0.00544944 0)
(-2.46804 -0.00543454 0)
(-2.47287 -0.00541848 0)
(-2.4778 -0.00540108 0)
(-2.48275 -0.00538287 0)
(-2.48779 -0.00536367 0)
(-2.49284 -0.00534393 0)
(-2.49798 -0.00532348 0)
(-2.50314 -0.00530189 0)
(-2.5084 -0.00527825 0)
(-2.51364 -0.00525305 0)
(-2.51895 -0.00522704 0)
(-2.52426 -0.00520138 0)
(-2.52963 -0.00517549 0)
(-2.535 -0.00514942 0)
(-2.54042 -0.00512319 0)
(-2.54582 -0.00509768 0)
(-2.55127 -0.00507266 0)
(-2.5567 -0.00504917 0)
(-2.56217 -0.00502688 0)
(-2.56761 -0.00500657 0)
(-2.57308 -0.00498751 0)
(-2.57852 -0.00497066 0)
(-2.58398 -0.00495534 0)
(-2.58942 -0.00494248 0)
(-2.59486 -0.00493167 0)
(-2.60028 -0.00492332 0)
(-2.6057 -0.00491729 0)
(-2.61109 -0.00491361 0)
(-2.61648 -0.00491228 0)
(-2.62184 -0.0049133 0)
(-2.6272 -0.00491639 0)
(-2.63253 -0.0049213 0)
(-2.63787 -0.00492767 0)
(-2.64318 -0.00493562 0)
(-2.64849 -0.00494438 0)
(-2.65378 -0.00495415 0)
(-2.65907 -0.00496463 0)
(-2.66436 -0.00497718 0)
(-2.66964 -0.00499268 0)
(-2.67493 -0.00501078 0)
(-2.68023 -0.00502826 0)
(-2.68552 -0.00504121 0)
(-2.69083 -0.00504513 0)
(-2.69616 -0.0050398 0)
(-2.70151 -0.00502671 0)
(-2.70689 -0.00500659 0)
(-2.7123 -0.00497987 0)
(-2.71774 -0.00494658 0)
(-2.72323 -0.00490666 0)
(-2.72877 -0.0048604 0)
(-2.73436 -0.00480791 0)
(-2.74002 -0.00474968 0)
(-2.74574 -0.00468652 0)
(-2.75154 -0.00461967 0)
(-2.75742 -0.00455106 0)
(-2.7634 -0.00448323 0)
(-2.76949 -0.00441958 0)
(-2.77569 -0.00436453 0)
(-2.78202 -0.00432378 0)
(-2.78848 -0.00430621 0)
(-2.7951 -0.00432095 0)
(-2.80188 -0.00437859 0)
(-2.80884 -0.00449079 0)
(-2.81598 -0.00467571 0)
(-2.82335 -0.00495461 0)
(-2.83093 -0.00534809 0)
(-2.83875 -0.00587639 0)
(-2.84682 -0.00655793 0)
(-2.85518 -0.00741192 0)
(-2.86383 -0.00844757 0)
(-2.8728 -0.00965894 0)
(-2.88209 -0.011028 0)
(-2.89165 -0.0124832 0)
(-2.90137 -0.0138575 0)
(-2.91104 -0.0149171 0)
(-2.92027 -0.0153155 0)
(-2.92835 -0.0145652 0)
(-2.93412 -0.0120855 0)
(-2.93612 -0.00672501 0)
(-2.93193 0.00382477 0)
(-2.91426 0.0236066 0)
(-2.87752 0.0593837 0)
(-2.8045 0.124053 0)
(-2.66444 0.233546 0)
(-2.48904 0.379128 0)
(-2.50989 -0.00128909 0)
(-2.51017 -0.0020302 0)
(-2.51432 -0.00255328 0)
(-2.51821 -0.0028871 0)
(-2.52219 -0.00309074 0)
(-2.52662 -0.00320504 0)
(-2.53097 -0.00326457 0)
(-2.5356 -0.0032904 0)
(-2.54009 -0.0032958 0)
(-2.54478 -0.00328831 0)
(-2.54931 -0.00327313 0)
(-2.55401 -0.0032528 0)
(-2.55856 -0.00322941 0)
(-2.56325 -0.00320386 0)
(-2.5678 -0.00317708 0)
(-2.57247 -0.00314928 0)
(-2.57701 -0.00312093 0)
(-2.58166 -0.00309195 0)
(-2.58619 -0.00306271 0)
(-2.59081 -0.00303308 0)
(-2.59532 -0.00300296 0)
(-2.59991 -0.00297149 0)
(-2.60439 -0.00294211 0)
(-2.60894 -0.00291581 0)
(-2.61339 -0.00289017 0)
(-2.61788 -0.00286459 0)
(-2.62226 -0.00284004 0)
(-2.62668 -0.00281617 0)
(-2.631 -0.00279322 0)
(-2.63536 -0.00277113 0)
(-2.63962 -0.00275085 0)
(-2.64391 -0.00273188 0)
(-2.64812 -0.00271523 0)
(-2.65234 -0.0027004 0)
(-2.65649 -0.00268817 0)
(-2.66066 -0.00267758 0)
(-2.66476 -0.00266958 0)
(-2.66888 -0.00266308 0)
(-2.67294 -0.00265938 0)
(-2.67702 -0.00265753 0)
(-2.68105 -0.00265804 0)
(-2.6851 -0.00266054 0)
(-2.68912 -0.00266479 0)
(-2.69314 -0.00267093 0)
(-2.69716 -0.00267864 0)
(-2.70118 -0.00268757 0)
(-2.7052 -0.00269732 0)
(-2.70924 -0.00270766 0)
(-2.71328 -0.00271802 0)
(-2.71734 -0.0027281 0)
(-2.72143 -0.00273766 0)
(-2.72553 -0.00274655 0)
(-2.72967 -0.00275486 0)
(-2.73384 -0.00276435 0)
(-2.73805 -0.00277717 0)
(-2.7423 -0.002788 0)
(-2.74659 -0.00279325 0)
(-2.75092 -0.00278513 0)
(-2.75532 -0.00276431 0)
(-2.75977 -0.00273351 0)
(-2.76429 -0.00269375 0)
(-2.76888 -0.00264518 0)
(-2.77355 -0.00258773 0)
(-2.7783 -0.00252115 0)
(-2.78314 -0.0024452 0)
(-2.78806 -0.00235988 0)
(-2.7931 -0.00226552 0)
(-2.79823 -0.00216258 0)
(-2.80349 -0.002052 0)
(-2.80886 -0.00193537 0)
(-2.81437 -0.00181493 0)
(-2.82002 -0.00169374 0)
(-2.82583 -0.00157603 0)
(-2.8318 -0.00146706 0)
(-2.83795 -0.00137487 0)
(-2.84427 -0.0013081 0)
(-2.85082 -0.00127774 0)
(-2.85758 -0.00129453 0)
(-2.86458 -0.00137621 0)
(-2.87184 -0.00154266 0)
(-2.87939 -0.00181395 0)
(-2.88723 -0.00221082 0)
(-2.89541 -0.00274835 0)
(-2.90395 -0.00344633 0)
(-2.91287 -0.00431734 0)
(-2.9222 -0.00535421 0)
(-2.93193 -0.00655798 0)
(-2.942 -0.0079036 0)
(-2.95227 -0.00923478 0)
(-2.96251 -0.0103991 0)
(-2.97229 -0.011169 0)
(-2.98085 -0.0112491 0)
(-2.987 -0.0102924 0)
(-2.98882 -0.00768039 0)
(-2.98375 -0.00179818 0)
(-2.96429 0.0100206 0)
(-2.9207 0.0317903 0)
(-2.83506 0.071427 0)
(-2.67571 0.137626 0)
(-2.4853 0.221211 0)
(-2.55916 -0.000375381 0)
(-2.55978 -0.000659504 0)
(-2.56376 -0.000844668 0)
(-2.56758 -0.000963918 0)
(-2.57143 -0.00104096 0)
(-2.57574 -0.00108124 0)
(-2.57987 -0.00110089 0)
(-2.5843 -0.00110825 0)
(-2.58848 -0.00110831 0)
(-2.59287 -0.00110317 0)
(-2.597 -0.00109523 0)
(-2.6013 -0.00108512 0)
(-2.60535 -0.00107368 0)
(-2.60955 -0.00106145 0)
(-2.61351 -0.00104859 0)
(-2.61759 -0.00103529 0)
(-2.62145 -0.00102158 0)
(-2.62542 -0.00100752 0)
(-2.62919 -0.000993147 0)
(-2.63306 -0.000978428 0)
(-2.63674 -0.000962996 0)
(-2.6405 -0.000946654 -1.11279e-41)
(-2.64409 -0.00093332 0)
(-2.64776 -0.000924785 0)
(-2.65126 -0.000917599 0)
(-2.65484 -0.000910554 0)
(-2.65828 -0.000903994 0)
(-2.66177 -0.000897629 0)
(-2.66515 -0.000891436 0)
(-2.66858 -0.00088567 0)
(-2.6719 -0.000880763 0)
(-2.67527 -0.00087685 0)
(-2.67856 -0.000874119 0)
(-2.68188 -0.000872472 0)
(-2.68514 -0.00087198 0)
(-2.68843 -0.000872483 0)
(-2.69167 -0.000873881 0)
(-2.69493 -0.000875837 0)
(-2.69817 -0.000879218 0)
(-2.70143 -0.000882953 0)
(-2.70467 -0.000887645 0)
(-2.70793 -0.000892857 0)
(-2.71119 -0.000898244 0)
(-2.71447 -0.000903933 0)
(-2.71775 -0.00090955 0)
(-2.72106 -0.000914699 0)
(-2.72439 -0.000918984 0)
(-2.72775 -0.000922305 0)
(-2.73113 -0.000923629 0)
(-2.73455 -0.000922962 0)
(-2.738 -0.000919797 0)
(-2.74148 -0.000914213 0)
(-2.74502 -0.000905347 0)
(-2.7486 -0.000894272 0)
(-2.75224 -0.000889802 0)
(-2.75591 -0.000880294 0)
(-2.75965 -0.000866795 0)
(-2.76343 -0.000833613 0)
(-2.76728 -0.000783659 0)
(-2.77121 -0.000722022 0)
(-2.77521 -0.000649993 0)
(-2.77928 -0.000567382 0)
(-2.78345 -0.000473821 0)
(-2.78769 -0.000368772 0)
(-2.79204 -0.000251846 0)
(-2.79648 -0.00012284 0)
(-2.80103 1.8178e-05 0)
(-2.80569 0.000171003 0)
(-2.81047 0.000334943 0)
(-2.81537 0.000508737 0)
(-2.82042 0.000690484 0)
(-2.82561 0.000877556 0)
(-2.83096 0.00106596 0)
(-2.83649 0.00125038 0)
(-2.84219 0.0014252 0)
(-2.84809 0.00158227 0)
(-2.8542 0.00170982 0)
(-2.86055 0.00179735 0)
(-2.86715 0.00182844 0)
(-2.87403 0.00178517 0)
(-2.8812 0.00165029 0)
(-2.88868 0.00140352 0)
(-2.89652 0.0010284 1.20888e-41)
(-2.90474 0.000505665 0)
(-2.91336 -0.000179855 0)
(-2.92238 -0.00103236 0)
(-2.93186 -0.00204599 0)
(-2.94156 -0.00328748 -3.86441e-41)
(-2.95147 -0.00457976 0)
(-2.96136 -0.00587298 0)
(-2.97077 -0.00706018 0)
(-2.97896 -0.0080286 0)
(-2.98474 -0.00868647 0)
(-2.98618 -0.00889919 -5.23047e-41)
(-2.98003 -0.008064 0)
(-2.96023 -0.00523475 0)
(-2.91466 0.00080053 9.41019e-42)
(-2.82459 0.012439 0)
(-2.65846 0.0322845 0)
(-2.46331 0.0574117 0)
(-2.53842 0.00059189 0)
(-2.53883 0.000732144 0)
(-2.54278 0.000878962 0)
(-2.54655 0.000969944 0)
(-2.55036 0.00101614 0)
(-2.55466 0.00104194 0)
(-2.55879 0.00105263 0)
(-2.56323 0.00105377 0)
(-2.56743 0.00104891 0)
(-2.57184 0.00104101 0)
(-2.57602 0.00103104 0)
(-2.58036 0.00102007 0)
(-2.58448 0.00100882 0)
(-2.58872 0.000997117 0)
(-2.59276 0.000985652 0)
(-2.59691 0.000974289 0)
(-2.60087 0.000963486 0)
(-2.60492 0.000953091 0)
(-2.60879 0.000943455 0)
(-2.61275 0.000934476 0)
(-2.61653 0.000926647 0)
(-2.62039 0.000919367 1.08071e-41)
(-2.62409 0.000910067 0)
(-2.62785 0.000897565 0)
(-2.63148 0.000884822 0)
(-2.63516 0.000872557 0)
(-2.63872 0.000860871 0)
(-2.64233 0.000850036 0)
(-2.64582 0.000840482 0)
(-2.64935 0.000831557 0)
(-2.65279 0.000823353 0)
(-2.65627 0.000814973 0)
(-2.65965 0.000806989 0)
(-2.66308 0.000799017 0)
(-2.66643 0.000791687 0)
(-2.66981 0.000784315 0)
(-2.67313 0.000777918 0)
(-2.67648 0.000771758 0)
(-2.67979 0.000766407 0)
(-2.68311 0.000761615 0)
(-2.68642 0.000757774 0)
(-2.68973 0.000754873 0)
(-2.69304 0.000753103 0)
(-2.69636 0.000752856 0)
(-2.69968 0.000754252 0)
(-2.70301 0.000757763 0)
(-2.70636 0.000763738 0)
(-2.70973 0.000772437 0)
(-2.71311 0.000784683 0)
(-2.71652 0.000800639 0)
(-2.71996 0.000820681 0)
(-2.72342 0.000844982 0)
(-2.72692 0.000874294 0)
(-2.73045 0.000907409 0)
(-2.73402 0.000936068 0)
(-2.73764 0.00097141 0)
(-2.74131 0.00101247 0)
(-2.74504 0.00107552 0)
(-2.74882 0.00115723 0)
(-2.75266 0.00125241 0)
(-2.75656 0.00135997 0)
(-2.76053 0.00148025 0)
(-2.76456 0.00161381 0)
(-2.76867 0.00176139 0)
(-2.77286 0.00192346 0)
(-2.77713 0.00210039 0)
(-2.7815 0.00229246 0)
(-2.78596 0.00249981 0)
(-2.79052 0.002722 0)
(-2.7952 0.00295808 0)
(-2.79999 0.00320664 0)
(-2.80492 0.00346552 0)
(-2.80998 0.00373119 0)
(-2.81519 0.00399893 0)
(-2.82057 0.00426426 0)
(-2.82612 0.00451969 0)
(-2.83186 0.00475453 0)
(-2.8378 0.00495789 0)
(-2.84397 0.00511487 0)
(-2.85038 0.00520905 0)
(-2.85707 0.00522509 0)
(-2.86405 0.00514488 0)
(-2.87134 0.00494922 5.81779e-41)
(-2.87898 0.00461976 0)
(-2.88697 0.00413953 0)
(-2.89532 0.00348556 0)
(-2.90403 0.00265762 0)
(-2.91294 0.00156849 1.84375e-41)
(-2.92199 0.000327837 0)
(-2.93085 -0.00109856 0)
(-2.93906 -0.00269414 0)
(-2.94572 -0.00449555 0)
(-2.94996 -0.00671481 0)
(-2.94976 -0.00965355 -5.67385e-41)
(-2.94179 -0.0137179 0)
(-2.92006 -0.0197338 0)
(-2.8736 -0.0294972 -3.46738e-40)
(-2.78308 -0.045982 0)
(-2.61822 -0.0723016 0)
(-2.42443 -0.103479 0)
(-2.45978 0.00142889 0)
(-2.45939 0.00210674 0)
(-2.46342 0.00259608 0)
(-2.46705 0.00290675 0)
(-2.47081 0.00309015 0)
(-2.47503 0.00319398 0)
(-2.47919 0.00324872 0)
(-2.48364 0.00327255 0)
(-2.48797 0.00327823 0)
(-2.4925 0.00327225 0)
(-2.49692 0.00325987 0)
(-2.50148 0.00324281 0)
(-2.50594 0.0032236 0)
(-2.51051 0.00320251 0)
(-2.51499 0.00318071 0)
(-2.51958 0.00315824 0)
(-2.52407 0.00313584 0)
(-2.52864 0.00311336 0)
(-2.53314 0.00309132 0)
(-2.5377 0.00306956 0)
(-2.54218 0.00304848 0)
(-2.54673 0.00302725 0)
(-2.55119 0.00300457 0)
(-2.55571 0.00297978 0)
(-2.56016 0.00295472 0)
(-2.56465 0.00292975 0)
(-2.56906 0.00290533 0)
(-2.57351 0.0028819 0)
(-2.57789 0.00286023 0)
(-2.5823 0.00283964 0)
(-2.58664 0.00282016 0)
(-2.591 0.00280095 0)
(-2.5953 0.00278265 0)
(-2.59961 0.00276495 0)
(-2.60386 0.00274856 0)
(-2.60813 0.00273293 0)
(-2.61233 0.00271895 0)
(-2.61655 0.0027058 0)
(-2.62071 0.00269501 0)
(-2.62488 0.00268512 0)
(-2.62901 0.00267765 0)
(-2.63313 0.00267215 0)
(-2.63722 0.00266883 0)
(-2.6413 0.00266846 0)
(-2.64536 0.00267114 0)
(-2.64942 0.00267734 0)
(-2.65346 0.00268753 0)
(-2.6575 0.00270212 0)
(-2.66152 0.00272171 0)
(-2.66556 0.00274672 0)
(-2.66958 0.00277738 0)
(-2.67362 0.00281393 0)
(-2.67766 0.00285671 0)
(-2.68171 0.0029038 0)
(-2.68578 0.00295371 0)
(-2.68988 0.00301114 0)
(-2.694 0.00307973 0)
(-2.69817 0.00316813 0)
(-2.70235 0.00327507 0)
(-2.70658 0.00339742 0)
(-2.71084 0.00353479 0)
(-2.71514 0.0036877 0)
(-2.71948 0.00385664 0)
(-2.72388 0.00404238 0)
(-2.72833 0.00424549 0)
(-2.73284 0.00446651 0)
(-2.73742 0.00470605 0)
(-2.74208 0.00496465 0)
(-2.74681 0.00524216 0)
(-2.75163 0.00553806 0)
(-2.75655 0.00585146 0)
(-2.76157 0.00618068 0)
(-2.76671 0.0065229 0)
(-2.77198 0.00687431 0)
(-2.77739 0.00723046 0)
(-2.78296 0.00758455 0)
(-2.7887 0.00792755 0)
(-2.79463 0.00824891 0)
(-2.80077 0.0085354 0)
(-2.80715 0.00877248 0)
(-2.81379 0.00894499 0)
(-2.82072 0.00903557 0)
(-2.82796 0.00902327 0)
(-2.83554 0.00889033 0)
(-2.84348 0.00861649 0)
(-2.8518 0.00816899 0)
(-2.86047 0.00751334 0)
(-2.86945 0.00659741 0)
(-2.87857 0.00540112 0)