/*--------------------------------*- C++ -*----------------------------------*\
| =========                 |                                                 |
| \\      /  F ield         | OpenFOAM: The Open Source CFD Toolbox           |
|  \\    /   O peration     | Version:  2.1.0                                 |
|   \\  /    A nd           | Web:      www.OpenFOAM.org                      |
|    \\/     M anipulation  |                                                 |
\*---------------------------------------------------------------------------*/
FoamFile
{
    version     2.0;
    format      ascii;
    class       volScalarField;
    location    "0.3";
    object      k;
}
// * * * * * * * * * * * * * * * * * * * * * * * * * * * * * * * * * * * * * //

dimensions      [0 2 -2 0 0 0 0];

internalField   nonuniform List<scalar> 
6400
(
0.0311137
0.0312239
0.0312591
0.0313065
0.0313286
0.0313683
0.0313869
0.0314227
0.0314399
0.0314726
0.0314887
0.0315186
0.0315334
0.031559
0.0315727
0.0315931
0.0316051
0.0316202
0.0316296
0.0316397
0.0316466
0.0316501
0.0316508
0.0316499
0.0316471
0.0316411
0.0316328
0.0316207
0.0316063
0.031588
0.0315674
0.0315428
0.0315159
0.0314848
0.0314511
0.031413
0.0313718
0.0313261
0.0312761
0.031221
0.0311609
0.0310948
0.0310227
0.0309434
0.0308573
0.0307625
0.0306595
0.0305467
0.0304241
0.0302909
0.0301462
0.0299877
0.0298136
0.0296223
0.029428
0.0292198
0.0290053
0.0287794
0.0285442
0.0283
0.0280467
0.027784
0.0275115
0.0272291
0.0269357
0.0266325
0.0263171
0.0259859
0.0256434
0.0252826
0.0249081
0.0245142
0.0241043
0.0236744
0.0232276
0.0227613
0.0222792
0.0217803
0.0212687
0.0207449
0.0202112
0.0196659
0.0190993
0.0184805
0.017839
0.0171609
0.0164309
0.0156289
0.0147155
0.0136467
0.0123468
0.0107151
0.00865206
0.00619548
0.00356888
0.00235112
0.0027488
0.00552832
0.00875828
0.0099113
0.0509819
0.0514462
0.0516565
0.0520346
0.0522745
0.0526398
0.0529029
0.0532546
0.0535359
0.0538762
0.0541705
0.0545015
0.0548043
0.0551277
0.0554352
0.0557523
0.0560615
0.0563731
0.056682
0.0569896
0.0572983
0.0576038
0.0579128
0.0582182
0.0585275
0.0588333
0.0591432
0.0594495
0.0597601
0.0600676
0.0603789
0.0606881
0.0610007
0.0613121
0.0616267
0.0619409
0.0622586
0.0625773
0.0628971
0.0632165
0.0635367
0.063855
0.0641727
0.0644865
0.0647974
0.0651018
0.0653997
0.0656877
0.065965
0.0662299
0.066484
0.0667264
0.0669483
0.0671444
0.0673438
0.0675253
0.0676998
0.0678562
0.0679976
0.0681194
0.0682267
0.0683196
0.0683926
0.06845
0.0684808
0.0684941
0.068495
0.0684504
0.0683824
0.0682684
0.0681144
0.067905
0.0676392
0.0673044
0.0668962
0.0664029
0.0658199
0.0651363
0.0643495
0.0634509
0.0624422
0.0613216
0.060099
0.058751
0.0572168
0.0554815
0.0534852
0.0511896
0.0485141
0.0454085
0.0418117
0.0377036
0.0331168
0.0282982
0.0233378
0.0186162
0.0149682
0.0123956
0.0107669
0.00921647
0.0573867
0.0580158
0.0582992
0.0588088
0.0591502
0.0596336
0.0600104
0.0604744
0.0608739
0.0613243
0.0617381
0.0621788
0.0626008
0.0630345
0.0634606
0.0638884
0.0643147
0.0647365
0.0651601
0.065576
0.0659953
0.0664058
0.0668225
0.0672324
0.0676466
0.0680546
0.0684666
0.0688719
0.069281
0.0696835
0.0700885
0.0704879
0.0708881
0.0712832
0.0716778
0.0720665
0.072453
0.0728322
0.0732095
0.073579
0.0739448
0.0743013
0.0746517
0.0749903
0.0753189
0.0756316
0.0759278
0.0762014
0.0764491
0.0766603
0.0768363
0.0770046
0.0771448
0.0772701
0.0773711
0.0774509
0.077508
0.077537
0.0775485
0.0775461
0.0774907
0.0774148
0.0772914
0.0771367
0.0769344
0.0766931
0.0764018
0.0760618
0.0756698
0.0752171
0.0747024
0.074114
0.0734479
0.0726918
0.0718385
0.0708757
0.0697946
0.0685835
0.0672348
0.0657375
0.0640874
0.0622748
0.0602982
0.0581489
0.0558514
0.0533944
0.0507886
0.0480194
0.0450798
0.0419421
0.0385774
0.0349402
0.0310168
0.0267903
0.0223816
0.0180392
0.0144032
0.0114373
0.00926042
0.00710359
0.0623077
0.0629856
0.0632898
0.0638494
0.0642298
0.0647577
0.0651783
0.0656821
0.0661249
0.0666114
0.0670659
0.0675396
0.0679991
0.068463
0.0689228
0.0693778
0.0698336
0.070279
0.0707267
0.0711598
0.071594
0.0720132
0.0724365
0.0728495
0.0732626
0.0736652
0.0740672
0.0744565
0.0748446
0.0752186
0.0755889
0.0759451
0.0762941
0.0766286
0.0769531
0.0772628
0.0775595
0.0778363
0.0781014
0.0783427
0.0785698
0.078771
0.0789538
0.0791091
0.0792413
0.0793437
0.0794172
0.0794531
0.079466
0.0794515
0.0793899
0.0793034
0.0791705
0.0790034
0.0787877
0.0785285
0.0782156
0.077849
0.0774216
0.0769312
0.0763745
0.0757506
0.0750508
0.0742777
0.0734213
0.0724848
0.0714606
0.0703509
0.0691516
0.0678633
0.0664866
0.0650212
0.0634708
0.0618355
0.0601197
0.0583254
0.0564563
0.0545158
0.0525072
0.0504333
0.0482975
0.0461009
0.0438474
0.0415369
0.0391751
0.0367597
0.0343017
0.0318151
0.0293
0.0267672
0.0242226
0.0216746
0.0191329
0.0166108
0.0141447
0.0118153
0.00966265
0.00783972
0.00657953
0.00598714
0.0639876
0.0645979
0.0648654
0.0653735
0.0657028
0.0661778
0.0665365
0.06698
0.0673505
0.0677664
0.068138
0.0685294
0.068895
0.0692638
0.0696178
0.0699642
0.0703022
0.0706268
0.0709462
0.0712477
0.0715433
0.071822
0.0720938
0.0723491
0.0725952
0.0728231
0.0730409
0.0732359
0.0734203
0.0735785
0.0737228
0.0738398
0.0739375
0.0740069
0.0740442
0.0740585
0.0740566
0.0739986
0.0739265
0.0738021
0.073653
0.0734534
0.0732204
0.0729373
0.0726135
0.0722386
0.0718176
0.0713442
0.0708212
0.0702437
0.0696118
0.0689262
0.0681824
0.0673847
0.0665305
0.0656214
0.0646547
0.0636322
0.0625532
0.0614187
0.0602298
0.0589878
0.0576937
0.0563511
0.0549593
0.0535244
0.0520446
0.050527
0.0489706
0.0473814
0.0457605
0.0441121
0.0424402
0.0407499
0.0390477
0.0373347
0.0356174
0.0338985
0.0321832
0.0304764
0.0287827
0.0271093
0.0254603
0.0238434
0.0222629
0.0207259
0.0192335
0.0177777
0.0163707
0.0150049
0.0136889
0.0124164
0.0111967
0.0100293
0.0089304
0.00791904
0.00701703
0.00639263
0.00612241
0.00612047
0.0607528
0.061093
0.0612405
0.061528
0.0617049
0.0619632
0.0621419
0.0623638
0.0625298
0.0627135
0.0628583
0.0630035
0.0631213
0.0632272
0.0633125
0.0633777
0.0634241
0.0634458
0.0634536
0.0634412
0.0633977
0.0633374
0.0632474
0.0631345
0.0629953
0.0628334
0.0626491
0.0624336
0.0621979
0.0619258
0.0616317
0.0613002
0.060942
0.0605472
0.0601218
0.0596606
0.0591666
0.0586329
0.0580697
0.0574639
0.0568291
0.0561521
0.0554451
0.054698
0.05392
0.0531047
0.0522587
0.051378
0.0504677
0.0495254
0.0485553
0.0475568
0.0465325
0.0454838
0.0444118
0.0433192
0.0422072
0.0410793
0.0399397
0.0387886
0.037631
0.0364666
0.0353009
0.0341338
0.0329699
0.0318104
0.030658
0.0295159
0.0283857
0.027271
0.0261734
0.0250957
0.0240403
0.0230061
0.0219955
0.0210094
0.020051
0.019121
0.0182227
0.017355
0.016516
0.0157073
0.0149269
0.0141763
0.0134525
0.0127564
0.0120845
0.0114366
0.0108091
0.0102003
0.0096071
0.00902744
0.00846005
0.00790722
0.00737818
0.00688961
0.00653235
0.0063772
0.00635176
0.00656957
0.0513335
0.0512366
0.0511936
0.051116
0.0510548
0.050957
0.0508626
0.0507319
0.0505983
0.0504288
0.050254
0.0500438
0.049827
0.0495752
0.0493166
0.0490237
0.0487244
0.0483927
0.0480548
0.0476856
0.0473095
0.0469023
0.0464824
0.0460347
0.0455729
0.0450845
0.0445826
0.0440528
0.0435118
0.042942
0.0423621
0.041755
0.0411371
0.0404956
0.0398424
0.0391692
0.0384851
0.0377831
0.0370731
0.0363486
0.0356197
0.0348786
0.0341358
0.0333842
0.0326332
0.0318772
0.0311242
0.0303698
0.0296211
0.0288742
0.0281362
0.0274029
0.0266811
0.0259662
0.0252623
0.0245686
0.0238887
0.0232208
0.0225666
0.0219254
0.0213003
0.0206886
0.0200947
0.0195141
0.0189514
0.0184034
0.0178723
0.0173541
0.0168514
0.0163612
0.0158849
0.0154197
0.0149665
0.0145223
0.0140884
0.0136608
0.0132413
0.0128249
0.012413
0.0120107
0.0116207
0.0112414
0.0108724
0.0105128
0.0101614
0.00981811
0.00948163
0.00915281
0.00883079
0.00851793
0.00821545
0.00792815
0.0076605
0.00742128
0.00722455
0.00710201
0.00705036
0.00709744
0.0074353
0.00762539
0.0377512
0.0373026
0.0371103
0.0367415
0.036506
0.03613
0.035849
0.0354572
0.0351334
0.034721
0.0343587
0.0339247
0.0335276
0.0330717
0.0326439
0.032167
0.0317117
0.0312152
0.0307353
0.0302196
0.0297167
0.0291918
0.0286831
0.0281563
0.027646
0.0271143
0.0266004
0.0260685
0.0255566
0.0250296
0.024524
0.0240069
0.0235118
0.0230092
0.0225285
0.0220443
0.0215819
0.0211189
0.0206783
0.0202371
0.0198187
0.0194011
0.0190066
0.0186144
0.018245
0.0178794
0.017536
0.0171975
0.0168803
0.0165688
0.0162771
0.0159929
0.0157275
0.0154701
0.0152304
0.014999
0.0147842
0.014577
0.0143853
0.0142011
0.0140313
0.0138683
0.0137188
0.0135757
0.0134453
0.013319
0.013205
0.0130964
0.012999
0.012906
0.0128229
0.012743
0.0126716
0.012602
0.0125396
0.0124775
0.0124209
0.012363
0.0123086
0.0122513
0.0121933
0.0121285
0.0120592
0.011979
0.0118895
0.0117848
0.011666
0.0115279
0.0113725
0.0111972
0.0110068
0.0108043
0.0106007
0.0104073
0.0102643
0.0102007
0.0101907
0.0104236
0.0107757
0.0109468
0.0242182
0.0236203
0.0233703
0.0228934
0.022619
0.0221542
0.0218575
0.0214025
0.0210885
0.0206435
0.0203183
0.019885
0.0195539
0.0191336
0.0188019
0.0183963
0.0180684
0.0176793
0.0173593
0.0169884
0.0166797
0.0163322
0.0160425
0.0157199
0.0154505
0.0151529
0.0149055
0.014633
0.0144085
0.0141616
0.0139599
0.0137393
0.0135601
0.0133659
0.013209
0.0130411
0.0129057
0.0127634
0.0126497
0.0125314
0.0124393
0.0123444
0.0122736
0.0122013
0.0121514
0.0121013
0.012072
0.0120469
0.0120358
0.012032
0.0120387
0.0120581
0.012086
0.0121247
0.0121733
0.0122314
0.0123004
0.0123787
0.0124691
0.0125683
0.0126804
0.0128011
0.012935
0.0130776
0.0132339
0.0133991
0.0135781
0.013766
0.013968
0.0141796
0.0144056
0.0146419
0.0148928
0.0151546
0.0154315
0.0157196
0.016023
0.0163378
0.0166675
0.0170082
0.0173627
0.0177265
0.0181015
0.0184826
0.0188699
0.0192571
0.0196424
0.0200184
0.0203811
0.0207228
0.0210396
0.0213268
0.0215857
0.0218201
0.0220447
0.0223056
0.022735
0.0233206
0.024122
0.0249819
0.0170351
0.0165049
0.0162892
0.0158758
0.0156579
0.0152637
0.0150467
0.014675
0.0144628
0.014116
0.0139121
0.013592
0.0133993
0.0131068
0.0129276
0.0126629
0.0124992
0.0122621
0.0121151
0.0119053
0.0117761
0.0115931
0.0114822
0.0113247
0.0112321
0.0110989
0.0110244
0.0109142
0.0108577
0.0107713
0.010729
0.0106679
0.0106387
0.0106025
0.0105859
0.0105751
0.010572
0.0105763
0.0105944
0.0106161
0.010652
0.0106912
0.0107443
0.0108014
0.0108715
0.0109466
0.0110337
0.0111266
0.0112311
0.0113421
0.0114645
0.0115939
0.0117346
0.0118827
0.0120425
0.0122099
0.0123898
0.0125775
0.0127783
0.0129875
0.0132105
0.0134427
0.0136898
0.0139472
0.0142201
0.0145047
0.0148058
0.0151203
0.0154523
0.0157996
0.0161659
0.0165498
0.0169545
0.0173793
0.0178274
0.0182986
0.0187961
0.0193202
0.0198745
0.0204597
0.0210799
0.0217362
0.0224337
0.0231742
0.0239635
0.024805
0.025706
0.0266715
0.0277105
0.0288309
0.0300441
0.0313618
0.0327996
0.0343742
0.0361045
0.0380022
0.0400458
0.0422346
0.0437545
0.0443747
0.0205842
0.0200843
0.0198765
0.0194736
0.0192506
0.0188582
0.0186234
0.018243
0.0180007
0.0176344
0.0173886
0.0170379
0.0167924
0.0164584
0.0162165
0.0159009
0.0156658
0.0153692
0.0151437
0.014867
0.0146535
0.0143973
0.0141982
0.013963
0.0137798
0.0135661
0.0134004
0.0132086
0.0130614
0.0128918
0.0127638
0.012617
0.0125085
0.0123849
0.0122962
0.0121958
0.0121268
0.0120497
0.0120011
0.0119468
0.0119192
0.0118922
0.0118809
0.0118771
0.0118838
0.0119039
0.0119329
0.0119733
0.0120243
0.0120851
0.0121579
0.0122393
0.0123337
0.0124362
0.0125525
0.0126765
0.0128149
0.0129607
0.0131214
0.0132901
0.0134735
0.0136656
0.0138726
0.0140901
0.014322
0.0145663
0.014825
0.0150978
0.0153853
0.0156884
0.0160072
0.0163431
0.0166961
0.0170682
0.0174594
0.0178717
0.0183057
0.0187634
0.019246
0.0197554
0.0202937
0.0208628
0.0214657
0.0221047
0.0227834
0.0235046
0.0242724
0.0250903
0.0259636
0.0268984
0.0279053
0.028991
0.030169
0.031454
0.0328693
0.034442
0.0362122
0.0381509
0.0397255
0.04042
0.031686
0.0312511
0.0310637
0.0306993
0.0304739
0.030105
0.0298431
0.0294646
0.0291698
0.0287809
0.0284578
0.0280588
0.0277131
0.0273009
0.02693
0.0265067
0.0261162
0.0256835
0.0252784
0.0248391
0.0244241
0.0239813
0.023561
0.0231181
0.0226971
0.0222576
0.0218405
0.0214083
0.0209993
0.0205784
0.0201812
0.0197757
0.0193941
0.0190072
0.0186447
0.0182795
0.0179385
0.0175966
0.0172792
0.016963
0.0166717
0.0163828
0.0161187
0.0158585
0.0156231
0.0153933
0.015187
0.0149876
0.0148106
0.0146411
0.0144929
0.0143527
0.0142328
0.0141213
0.0140293
0.0139459
0.0138808
0.0138239
0.013784
0.0137539
0.0137396
0.0137341
0.0137354
0.0137576
0.0137828
0.0138262
0.0138738
0.0139373
0.0140057
0.0140879
0.0141737
0.0142709
0.0143713
0.0144807
0.0145927
0.0147112
0.0148314
0.0149555
0.0150798
0.0152056
0.01533
0.0154533
0.0155735
0.0156905
0.0158028
0.01591
0.0160116
0.0161072
0.0161975
0.0162815
0.0163568
0.0164263
0.016501
0.0165881
0.0167152
0.0169166
0.0172531
0.0177957
0.0185415
0.0195947
0.0447578
0.0445545
0.0444656
0.044291
0.0441686
0.0439766
0.0438152
0.0435957
0.0433947
0.0431432
0.0429021
0.0426142
0.0423343
0.0420104
0.0416909
0.0413308
0.0409713
0.040575
0.0401753
0.0397426
0.0393032
0.0388338
0.0383561
0.0378502
0.0373362
0.0367954
0.0362473
0.0356742
0.0350949
0.0344936
0.0338869
0.0332622
0.0326333
0.0319903
0.0313455
0.0306902
0.0300365
0.0293763
0.0287169
0.0280522
0.027393
0.0267328
0.0260824
0.0254347
0.0248008
0.0241726
0.0235614
0.0229586
0.0223754
0.0218029
0.02125
0.020709
0.0201884
0.0196806
0.0191928
0.0187179
0.0182625
0.0178205
0.0173966
0.0169885
0.0165979
0.016222
0.0158623
0.015516
0.015183
0.0148623
0.0145528
0.014254
0.0139628
0.0136804
0.0134091
0.0131451
0.0128897
0.0126406
0.0123981
0.0121605
0.0119283
0.0116997
0.0114755
0.0112539
0.0110361
0.0108206
0.0106091
0.0104003
0.0101963
0.00999633
0.00980174
0.00961103
0.00942769
0.00925191
0.00908882
0.00893972
0.00880517
0.00869983
0.00864806
0.00863267
0.00875283
0.00901249
0.00942159
0.00960222
0.0560758
0.0562015
0.0562552
0.0563615
0.0564189
0.0565009
0.0565427
0.0565859
0.0566048
0.0566113
0.0566054
0.0565654
0.0565196
0.056444
0.0563605
0.0562469
0.056122
0.0559669
0.0557967
0.0555961
0.055377
0.0551262
0.054855
0.0545497
0.0542231
0.0538603
0.0534755
0.0530529
0.0526046
0.0521214
0.0516085
0.0510621
0.0504849
0.0498744
0.0492336
0.04856
0.0478575
0.0471232
0.0463623
0.045571
0.0447553
0.0439116
0.0430465
0.0421561
0.0412482
0.0403182
0.0393758
0.0384146
0.0374457
0.0364629
0.0354784
0.0344864
0.0334969
0.0325064
0.0315227
0.0305445
0.0295777
0.0286226
0.0276836
0.0267609
0.0258582
0.0249745
0.0241081
0.0232636
0.0224402
0.0216408
0.0208651
0.0201143
0.0193903
0.0186914
0.0180152
0.0173627
0.016732
0.0161229
0.015534
0.0149639
0.0144116
0.0138752
0.0133539
0.0128454
0.012349
0.0118623
0.0113842
0.010913
0.0104473
0.010006
0.00957148
0.00916857
0.0087736
0.0084102
0.00805732
0.0077376
0.00743394
0.00717001
0.0069232
0.00676286
0.00669111
0.00668899
0.00701987
0.00720983
0.0622847
0.0627027
0.0628856
0.0632411
0.0634692
0.0637999
0.064045
0.0643489
0.0645975
0.0648759
0.0651189
0.0653711
0.0656037
0.0658323
0.0660482
0.0662525
0.0664466
0.0666246
0.0667921
0.0669405
0.0670769
0.067191
0.0672914
0.0673659
0.0674225
0.0674493
0.067459
0.0674486
0.0673972
0.0673282
0.0672198
0.0670858
0.0669132
0.0667075
0.0664625
0.0661782
0.0658526
0.0654828
0.0650738
0.0646206
0.0641248
0.0635833
0.0629957
0.0623566
0.0616743
0.060937
0.0601564
0.0593212
0.058442
0.0575109
0.0565357
0.0555124
0.0544462
0.0533367
0.0521869
0.0509992
0.0497749
0.048519
0.0472318
0.0459193
0.0445823
0.0432291
0.0418618
0.0404857
0.0391037
0.03772
0.0363384
0.0349616
0.0335945
0.0322382
0.0308987
0.0295762
0.0282767
0.0270001
0.025752
0.0245319
0.023344
0.0221855
0.0210554
0.0199575
0.0188899
0.0178567
0.0168559
0.0158913
0.0149603
0.014065
0.0132016
0.0123675
0.0115624
0.0107861
0.010038
0.00931847
0.00862832
0.00797838
0.00736854
0.00681906
0.00639921
0.00620864
0.00616909
0.00635487
0.0633768
0.0639376
0.0641856
0.0646581
0.064971
0.0654187
0.0657662
0.0661936
0.0665603
0.0669724
0.0673494
0.0677498
0.0681317
0.0685228
0.0689054
0.0692882
0.0696678
0.0700423
0.0704156
0.0707807
0.071145
0.0714986
0.0718508
0.0721897
0.0725262
0.0728478
0.0731655
0.0734663
0.0737585
0.0740365
0.0743033
0.074554
0.0747902
0.0750075
0.0752072
0.0753848
0.0755411
0.0756713
0.0757769
0.0758532
0.0758917
0.0759062
0.075899
0.0758288
0.0757391
0.0755906
0.0754074
0.0751679
0.0748816
0.074538
0.0741384
0.0736784
0.0731551
0.0725682
0.0719141
0.0711934
0.070399
0.0695391
0.068603
0.0675996
0.0665207
0.0653739
0.0641582
0.0628766
0.0615297
0.0601204
0.0586525
0.0571261
0.0555482
0.0539175
0.0522426
0.0505217
0.0487637
0.0469674
0.0451404
0.0432833
0.0414024
0.0395025
0.0375922
0.0356705
0.0337444
0.0318146
0.0298876
0.0279664
0.0260584
0.0241685
0.0223061
0.0204762
0.0186923
0.0169432
0.0152544
0.0136239
0.0120794
0.0106262
0.0093066
0.00809653
0.00708854
0.00635324
0.0060284
0.00599997
0.0606397
0.0612068
0.0614628
0.0619331
0.0622571
0.0627046
0.0630657
0.0634985
0.0638826
0.0643073
0.0647068
0.0651278
0.0655382
0.0659583
0.0663767
0.0667978
0.0672222
0.0676451
0.0680738
0.0684988
0.0689304
0.0693571
0.0697903
0.0702172
0.0706493
0.0710737
0.0715004
0.0719163
0.0723292
0.0727256
0.0731295
0.073523
0.0739187
0.0743063
0.0746931
0.0750731
0.0754508
0.0758236
0.07619
0.076546
0.0768935
0.0772305
0.0775554
0.0778627
0.0781601
0.078435
0.0786956
0.0789316
0.0791473
0.0793363
0.0794986
0.0796318
0.0797316
0.0797881
0.0798112
0.0798133
0.0797489
0.0796568
0.0795017
0.0793018
0.079035
0.078708
0.0783066
0.0778291
0.077267
0.0766119
0.0758692
0.0750256
0.0740842
0.0730339
0.071878
0.0706077
0.0692284
0.0677348
0.0661327
0.0644209
0.0626061
0.0606888
0.0586767
0.056569
0.0543734
0.0520863
0.049713
0.0472477
0.044693
0.0420424
0.0393005
0.0364605
0.0335353
0.0305386
0.0274863
0.0243892
0.0212874
0.0182201
0.015317
0.0125464
0.0101544
0.00809336
0.00662812
0.00592408
0.0553324
0.0558195
0.0560408
0.0564396
0.0567099
0.0570927
0.0573923
0.0577641
0.0580843
0.0584498
0.0587855
0.0591483
0.059496
0.0598589
0.0602163
0.0605812
0.0609465
0.0613145
0.0616864
0.062058
0.0624353
0.0628107
0.0631925
0.0635714
0.0639564
0.0643378
0.0647245
0.0651075
0.0654953
0.0658811
0.0662752
0.0666678
0.0670682
0.067468
0.0678738
0.0682797
0.0686889
0.0690968
0.069507
0.0699182
0.0703314
0.0707446
0.0711584
0.0715712
0.0719842
0.0723939
0.0728026
0.0732061
0.0736075
0.0740036
0.0743926
0.0747712
0.0751354
0.0754811
0.0758024
0.0760885
0.0763207
0.0765546
0.0767469
0.0769247
0.0770631
0.077177
0.0772542
0.0772994
0.0773192
0.0773238
0.0772642
0.0771612
0.0770007
0.0767814
0.0765001
0.076148
0.0757172
0.0752007
0.0745856
0.0738601
0.0730103
0.0720185
0.0708713
0.0695481
0.068037
0.0663188
0.064385
0.0622218
0.0598256
0.0571901
0.0543197
0.0512109
0.0478636
0.0442942
0.04046
0.0363465
0.0319457
0.027288
0.022546
0.0182392
0.0144514
0.0116314
0.00943798
0.00727888
0.0487903
0.0491232
0.0492742
0.0495491
0.049719
0.0499897
0.0501768
0.0504401
0.0506431
0.0509001
0.0511168
0.0513696
0.0515976
0.0518483
0.0520851
0.0523354
0.0525794
0.0528304
0.05308
0.0533323
0.0535862
0.0538403
0.0540978
0.054354
0.0546144
0.0548731
0.0551364
0.0553984
0.0556658
0.0559336
0.0562074
0.0564822
0.0567634
0.0570456
0.0573335
0.0576232
0.0579176
0.0582146
0.0585169
0.0588221
0.0591326
0.0594462
0.059765
0.0600877
0.0604158
0.0607485
0.0610873
0.0614315
0.061778
0.0621262
0.062474
0.0628203
0.0631626
0.0634998
0.0638295
0.0641512
0.0644682
0.064792
0.065107
0.0654257
0.0657299
0.0660253
0.0662917
0.06652
0.0667151
0.066889
0.067041
0.0671715
0.067274
0.0673395
0.0673686
0.0673741
0.0673087
0.0671907
0.0669951
0.0667167
0.0663386
0.0658451
0.0652229
0.0644525
0.0635217
0.0624119
0.0611119
0.0596057
0.0578838
0.0559357
0.0537298
0.051242
0.0484144
0.0450883
0.0413093
0.0369279
0.0321986
0.027289
0.022432
0.0180552
0.0145987
0.0122297
0.0107404
0.00922617
0.0299829
0.0300367
0.0300475
0.0300518
0.0300479
0.0300466
0.030036
0.0300318
0.030019
0.0300132
0.0299985
0.0299913
0.0299751
0.0299658
0.0299484
0.0299364
0.0299176
0.0299025
0.0298823
0.0298638
0.0298418
0.0298201
0.029796
0.0297712
0.0297451
0.0297174
0.0296892
0.0296591
0.0296289
0.0295969
0.0295648
0.0295306
0.0294963
0.0294598
0.029423
0.029384
0.0293445
0.029303
0.0292608
0.0292165
0.0291713
0.0291238
0.0290751
0.029024
0.0289713
0.0289158
0.0288578
0.0287961
0.0287303
0.0286597
0.0285837
0.0285021
0.0284142
0.02832
0.0282195
0.028113
0.0280017
0.0278842
0.0277572
0.0276214
0.02747
0.0273029
0.0271117
0.0268942
0.0266569
0.0264104
0.0261491
0.0258769
0.0255893
0.0252874
0.0249707
0.0246379
0.0242797
0.0239032
0.0234991
0.023069
0.0226089
0.0221162
0.0215902
0.0210273
0.0204283
0.0197907
0.0191157
0.0184019
0.0176492
0.0168526
0.0159948
0.0150462
0.0139222
0.0126077
0.0110339
0.00910538
0.00692985
0.00485686
0.00301369
0.00231968
0.00260295
0.00527366
0.00862034
0.00984611
0.00946743
0.00467166
0.00402643
0.00389755
0.00386988
0.00389637
0.00381728
0.00377832
0.00376172
0.00375763
0.00377547
0.00384683
0.00411392
0.00467936
0.00544369
0.00653405
0.00691578
0.00690582
0.00579797
0.0034245
0.00777171
0.00467633
0.00428589
0.00418849
0.00416624
0.00404697
0.00396325
0.00392691
0.00391426
0.00391562
0.00396537
0.0041477
0.00452841
0.00510558
0.00617837
0.00685299
0.00699711
0.00677087
0.00522762
0.00280328
0.00620501
0.00478194
0.00460441
0.00454164
0.00436866
0.00426405
0.00419487
0.00416699
0.00415847
0.00416859
0.00428869
0.00454061
0.00501206
0.00593976
0.00677443
0.00704283
0.00704311
0.00649892
0.0046138
0.00216902
0.0057923
0.00511588
0.00503466
0.00479409
0.00463371
0.00451724
0.00445782
0.00443217
0.00442833
0.00452265
0.00473701
0.00515538
0.00600001
0.00683455
0.0071771
0.00724167
0.00698943
0.0060661
0.00382876
0.00155578
0.00591729
0.00548235
0.00534348
0.0050506
0.004934
0.00485906
0.00483959
0.00486869
0.00498205
0.00524969
0.00563498
0.00644113
0.00714565
0.00746653
0.00755846
0.00740564
0.00680292
0.00544709
0.00299522
0.00101597
0.00628477
0.00593239
0.00579704
0.00560843
0.00557478
0.00557688
0.00569862
0.00591704
0.00631912
0.00681029
0.00744691
0.0079467
0.00816913
0.00821795
0.00796206
0.00734507
0.00640839
0.00465957
0.0019335
0.000547728
0.0072093
0.00707901
0.00706074
0.00707828
0.00734772
0.00765456
0.00818873
0.00886031
0.0095314
0.00974649
0.00982055
0.00972718
0.00939384
0.00884942
0.00804888
0.00711323
0.00571513
0.0035371
0.00116058
0.000241357
0.0108364
0.0112584
0.011754
0.0123883
0.0133269
0.0143123
0.0147934
0.0149486
0.0139829
0.0133588
0.0123263
0.0115245
0.010328
0.00921229
0.00787991
0.00649294
0.00449376
0.00227436
0.000653128
9.62968e-05
0.0252181
0.025688
0.0258874
0.0258854
0.0252124
0.0238414
0.0222092
0.019946
0.018233
0.0162793
0.0145194
0.0126861
0.0107898
0.0089775
0.00713371
0.00508606
0.00304165
0.00143498
0.000451466
5.45186e-05
0.0411261
0.0393515
0.0373909
0.0346108
0.0320896
0.0285186
0.0258997
0.0227416
0.0203647
0.0174902
0.0152452
0.012507
0.0101996
0.00742462
0.00529012
0.00331663
0.00207615
0.0010772
0.000441724
8.30729e-05
0.0379292
0.0363895
0.0348239
0.0323487
0.0302106
0.0269146
0.024515
0.0216197
0.0194662
0.0168189
0.0148318
0.0122442
0.010287
0.0075261
0.0055132
0.00330811
0.00205096
0.000974582
0.000365396
6.96114e-05
0.0199885
0.0209231
0.0214434
0.0217035
0.0217911
0.0210955
0.0198866
0.0180455
0.0167416
0.0149659
0.0137666
0.011955
0.0106187
0.00879525
0.0072166
0.00516045
0.00301979
0.00128187
0.000356173
5.0554e-05
0.00944529
0.00963967
0.0100459
0.0105088
0.0112958
0.0122042
0.0129988
0.0133116
0.0131499
0.0122246
0.0117801
0.010854
0.0100307
0.00897745
0.00782041
0.00648798
0.00453007
0.00223096
0.000580218
5.93624e-05
0.00684193
0.00665831
0.00660291
0.00657609
0.00674551
0.00698329
0.00740618
0.00799298
0.00877036
0.00914421
0.00932583
0.00939598
0.00914274
0.00870557
0.00794933
0.00707625
0.00569996
0.00353568
0.00108176
0.000139816
0.00610254
0.00576635
0.0056346
0.00543205
0.00538202
0.00536817
0.0054482
0.00561978
0.00597633
0.00642566
0.00710956
0.00771511
0.00800568
0.0080859
0.00792311
0.00731093
0.00638955
0.00467043
0.00192393
0.00043872
0.00578293
0.00538157
0.00525189
0.00496687
0.00484986
0.00476803
0.00474224
0.00475357
0.00485138
0.00509013
0.00546379
0.00622939
0.00701915
0.00738256
0.00748702
0.00738711
0.00679678
0.00545848
0.00302285
0.000940859
0.00567733
0.00501961
0.00494833
0.00474194
0.00458361
0.00447208
0.00440691
0.00437763
0.00436919
0.00445131
0.00466074
0.0050564
0.00586929
0.00677009
0.00714928
0.0072213
0.00699004
0.00608123
0.0038685
0.00152386
0.00617541
0.0047286
0.00453101
0.00446436
0.00432325
0.00421703
0.00415203
0.00412551
0.004118
0.00412915
0.00424244
0.00449177
0.00494735
0.00584541
0.00673723
0.00703623
0.00704338
0.00651618
0.00465212
0.00216881
0.00780474
0.00465134
0.00425388
0.00414672
0.00411546
0.00402317
0.00393501
0.00389601
0.0038834
0.00388516
0.00393698
0.00411001
0.00449231
0.00507035
0.00612704
0.00684235
0.00700116
0.00678804
0.00526521
0.00282668
0.00947278
0.0046521
0.00399313
0.00386566
0.00383574
0.00385073
0.00379917
0.0037543
0.00373869
0.00373504
0.00375503
0.00382656
0.00407746
0.00463156
0.00541224
0.00651708
0.00691753
0.00692004
0.00583533
0.00345843
0.00397118
0.00375019
0.00374679
0.0037468
0.00374652
0.00374628
0.00374612
0.00374604
0.003746
0.00374598
0.00374598
0.003746
0.00374604
0.00374612
0.00374628
0.00374652
0.0037468
0.00374679
0.00375019
0.00397118
0.0044149
0.00375347
0.00374141
0.00374096
0.00374056
0.00374012
0.00373987
0.00373975
0.00373969
0.00373966
0.00373966
0.00373969
0.00373975
0.00373987
0.00374012
0.00374056
0.00374096
0.00374141
0.00375347
0.0044149
0.00485937
0.00376058
0.00373287
0.00373264
0.00373284
0.00373273
0.00373256
0.00373242
0.00373235
0.00373231
0.00373231
0.00373235
0.00373242
0.00373256
0.00373273
0.00373284
0.00373264
0.00373287
0.00376058
0.00485937
0.00530178
0.00377206
0.0037243
0.00372396
0.00372492
0.00372524
0.00372525
0.00372519
0.00372514
0.00372512
0.00372512
0.00372514
0.00372519
0.00372525
0.00372524
0.00372492
0.00372396
0.0037243
0.00377206
0.00530178
0.00573929
0.00378544
0.0037155
0.00371483
0.00371665
0.00371758
0.00371789
0.00371795
0.00371795
0.00371795
0.00371795
0.00371795
0.00371795
0.00371789
0.00371758
0.00371665
0.00371483
0.0037155
0.00378544
0.00573929
0.00617059
0.00379766
0.00370577
0.0037051
0.003708
0.00370969
0.00371043
0.0037107
0.00371078
0.0037108
0.0037108
0.00371078
0.0037107
0.00371043
0.00370969
0.003708
0.0037051
0.00370577
0.00379766
0.00617059
0.00659181
0.00380847
0.00369498
0.00369474
0.00369894
0.00370155
0.00370284
0.0037034
0.00370361
0.00370368
0.00370368
0.00370361
0.0037034
0.00370284
0.00370155
0.00369894
0.00369474
0.00369498
0.00380847
0.00659181
0.00700083
0.00381672
0.00368272
0.00368362
0.00368941
0.00369311
0.00369508
0.00369602
0.00369642
0.00369656
0.00369656
0.00369642
0.00369602
0.00369508
0.00369311
0.00368941
0.00368362
0.00368272
0.00381672
0.00700083
0.00739339
0.00382333
0.00366915
0.00367174
0.00367942
0.00368437
0.00368714
0.00368854
0.00368919
0.00368943
0.00368943
0.00368919
0.00368854
0.00368714
0.00368437
0.00367942
0.00367174
0.00366915
0.00382333
0.00739339
0.0077677
0.00382734
0.00365404
0.00365903
0.00366893
0.00367532
0.00367898
0.00368095
0.0036819
0.00368228
0.00368228
0.0036819
0.00368095
0.00367898
0.00367532
0.00366893
0.00365903
0.00365404
0.00382734
0.0077677
0.00812022
0.00383021
0.00363765
0.00364552
0.00365794
0.00366592
0.00367061
0.00367321
0.00367453
0.00367507
0.00367507
0.00367453
0.00367321
0.00367061
0.00366592
0.00365794
0.00364552
0.00363765
0.00383022
0.00812021
0.00845033
0.00383068
0.00361989
0.00363122
0.00364645
0.0036562
0.00366201
0.00366531
0.00366705
0.00366779
0.00366779
0.00366705
0.00366531
0.00366201
0.0036562
0.00364645
0.00363122
0.00361989
0.00383069
0.00845032
0.00875526
0.00383018
0.00360091
0.00361613
0.00363446
0.00364613
0.00365316
0.00365725
0.00365946
0.00366041
0.00366041
0.00365946
0.00365725
0.00365316
0.00364613
0.00363446
0.00361613
0.00360091
0.00383019
0.00875525
0.00903546
0.00382885
0.00358084
0.00360032
0.00362199
0.00363573
0.00364408
0.00364901
0.00365173
0.00365292
0.00365292
0.00365173
0.00364901
0.00364408
0.00363573
0.00362199
0.00360032
0.00358085
0.00382886
0.00903546
0.00928895
0.00382647
0.00355981
0.0035838
0.00360904
0.00362499
0.00363475
0.00364059
0.00364385
0.00364531
0.00364531
0.00364385
0.00364059
0.00363475
0.00362499
0.00360904
0.0035838
0.00355981
0.00382647
0.00928894
0.00951738
0.00382339
0.00353793
0.00356664
0.00359565
0.00361394
0.00362518
0.00363197
0.00363582
0.00363755
0.00363755
0.00363582
0.00363197
0.00362518
0.00361394
0.00359565
0.00356664
0.00353793
0.00382339
0.00951737
0.00971929
0.00382012
0.00351532
0.00354885
0.00358181
0.00360255
0.00361535
0.00362316
0.00362762
0.00362964
0.00362964
0.00362762
0.00362316
0.00361535
0.00360255
0.00358181
0.00354885
0.00351532
0.00382012
0.00971928
0.00989732
0.00381663
0.00349216
0.00353055
0.00356758
0.00359087
0.00360529
0.00361414
0.00361924
0.00362157
0.00362157
0.00361924
0.00361414
0.00360529
0.00359087
0.00356758
0.00353055
0.00349216
0.00381663
0.0098973
0.0100502
0.00381347
0.00346849
0.0035117
0.00355293
0.00357887
0.00359499
0.00360492
0.00361068
0.00361332
0.00361332
0.00361068
0.00360492
0.00359499
0.00357887
0.00355293
0.0035117
0.0034685
0.00381347
0.0100502
0.0101815
0.00381057
0.00344462
0.00349247
0.00353795
0.0035666
0.00358445
0.0035955
0.00360193
0.0036049
0.0036049
0.00360193
0.00359549
0.00358445
0.0035666
0.00353795
0.00349247
0.00344462
0.00381057
0.0101815
0.0102898
0.00380853
0.00342046
0.00347279
0.0035226
0.00355404
0.00357367
0.00358587
0.003593
0.0035963
0.0035963
0.003593
0.00358586
0.00357367
0.00355404
0.0035226
0.0034728
0.00342047
0.00380854
0.0102897
0.0103795
0.00380714
0.00339643
0.00345287
0.00350698
0.00354123
0.00356267
0.00357603
0.00358387
0.00358751
0.00358751
0.00358387
0.00357603
0.00356267
0.00354123
0.00350698
0.00345287
0.00339643
0.00380714
0.0103794
0.0104486
0.00380736
0.0033723
0.00343259
0.00349103
0.00352816
0.00355145
0.003566
0.00357455
0.00357853
0.00357853
0.00357455
0.003566
0.00355145
0.00352816
0.00349103
0.00343259
0.0033723