/*--------------------------------*- C++ -*----------------------------------*\
| =========                 |                                                 |
| \\      /  F ield         | OpenFOAM: The Open Source CFD Toolbox           |
|  \\    /   O peration     | Version:  2.1.0                                 |
|   \\  /    A nd           | Web:      www.OpenFOAM.org                      |
|    \\/     M anipulation  |                                                 |
\*---------------------------------------------------------------------------*/
FoamFile
{
    version     2.0;
    format      ascii;
    class       volScalarField;
    location    "0.3";
    object      nut;
}
// * * * * * * * * * * * * * * * * * * * * * * * * * * * * * * * * * * * * * //

dimensions      [0 2 -1 0 0 0 0];

internalField   nonuniform List<scalar> 
6400
(
6.98031e-06
7.01171e-06
7.02708e-06
7.05042e-06
7.06983e-06
7.09453e-06
7.11534e-06
7.14083e-06
7.1627e-06
7.18874e-06
7.21153e-06
7.23808e-06
7.26176e-06
7.28853e-06
7.31321e-06
7.3401e-06
7.36571e-06
7.39277e-06
7.41924e-06
7.44662e-06
7.47407e-06
7.50149e-06
7.52908e-06
7.5572e-06
7.58576e-06
7.61448e-06
7.6436e-06
7.67281e-06
7.7025e-06
7.73228e-06
7.7626e-06
7.79308e-06
7.82412e-06
7.85535e-06
7.88715e-06
7.91917e-06
7.95175e-06
7.98456e-06
8.01775e-06
8.05111e-06
8.08479e-06
8.11851e-06
8.1524e-06
8.18617e-06
8.21997e-06
8.25342e-06
8.28668e-06
8.3194e-06
8.35163e-06
8.38318e-06
8.41381e-06
8.4429e-06
8.46999e-06
8.4944e-06
8.52033e-06
8.54455e-06
8.56933e-06
8.59319e-06
8.61675e-06
8.64023e-06
8.66362e-06
8.68694e-06
8.71011e-06
8.73319e-06
8.75596e-06
8.77891e-06
8.80134e-06
8.82221e-06
8.84313e-06
8.86191e-06
8.88028e-06
8.89637e-06
8.91164e-06
8.92484e-06
8.93745e-06
8.94886e-06
8.96097e-06
8.97412e-06
8.99081e-06
9.01256e-06
9.04206e-06
9.08065e-06
9.12664e-06
9.16779e-06
9.22159e-06
9.28542e-06
9.35542e-06
9.42356e-06
9.46568e-06
9.4428e-06
9.27024e-06
8.79268e-06
7.76628e-06
5.99562e-06
3.57833e-06
2.29963e-06
2.39886e-06
3.77599e-06
3.87274e-06
4.18039e-06
7.4885e-05
7.54166e-05
7.55758e-05
7.59245e-05
7.60921e-05
7.63917e-05
7.65753e-05
7.68405e-05
7.7036e-05
7.72753e-05
7.74761e-05
7.76946e-05
7.78942e-05
7.80949e-05
7.82885e-05
7.8473e-05
7.86564e-05
7.88252e-05
7.89957e-05
7.91497e-05
7.93069e-05
7.94477e-05
7.95918e-05
7.97203e-05
7.98497e-05
7.99644e-05
8.00788e-05
8.01789e-05
8.02777e-05
8.03626e-05
8.0444e-05
8.05125e-05
8.05754e-05
8.0626e-05
8.06694e-05
8.06998e-05
8.07219e-05
8.07338e-05
8.07343e-05
8.07212e-05
8.06955e-05
8.06532e-05
8.05955e-05
8.0518e-05
8.04212e-05
8.03004e-05
8.01552e-05
7.99815e-05
7.97776e-05
7.95416e-05
7.92756e-05
7.89809e-05
7.86461e-05
7.80253e-05
7.73751e-05
7.66808e-05
7.59571e-05
7.51923e-05
7.43909e-05
7.35486e-05
7.26712e-05
7.17599e-05
7.08091e-05
6.98241e-05
6.87938e-05
6.77283e-05
6.6633e-05
6.54763e-05
6.4281e-05
6.30274e-05
6.17236e-05
6.03582e-05
5.8934e-05
5.74441e-05
5.58897e-05
5.42667e-05
5.25775e-05
5.08204e-05
4.90006e-05
4.71189e-05
4.51843e-05
4.32022e-05
4.11864e-05
3.91266e-05
3.69912e-05
3.4782e-05
3.24767e-05
3.00716e-05
2.75462e-05
2.49077e-05
2.21696e-05
1.93777e-05
1.66015e-05
1.39737e-05
1.14774e-05
9.21788e-06
7.48121e-06
6.28484e-06
5.66848e-06
6.87162e-06
0.000114561
0.000114942
0.0001151
0.000115304
0.000115458
0.000115607
0.000115752
0.000115861
0.000115988
0.000116061
0.000116164
0.000116203
0.000116274
0.00011628
0.000116316
0.000116288
0.000116283
0.000116217
0.000116168
0.000116063
0.000115968
0.000115823
0.000115687
0.00011551
0.000115333
0.00011512
0.000114903
0.000114652
0.000114394
0.000114104
0.000113804
0.000113473
0.000113129
0.000112756
0.000112366
0.000111948
0.00011151
0.000111038
0.000110546
0.00011002
0.00010947
0.000108884
0.000108269
0.000107616
0.000106927
0.000106196
0.000105421
0.000104596
0.000103718
0.00010269
0.000101248
9.97811e-05
9.82677e-05
9.67338e-05
9.51631e-05
9.35627e-05
9.19327e-05
9.02698e-05
8.85884e-05
8.68941e-05
8.5145e-05
8.33805e-05
8.15743e-05
7.97472e-05
7.78853e-05
7.60012e-05
7.40874e-05
7.21498e-05
7.01887e-05
6.82008e-05
6.61893e-05
6.4149e-05
6.2082e-05
5.99836e-05
5.78544e-05
5.56914e-05
5.34954e-05
5.12651e-05
4.90033e-05
4.67105e-05
4.43934e-05
4.20546e-05
3.97037e-05
3.73461e-05
3.50091e-05
3.26973e-05
3.04303e-05
2.82133e-05
2.60577e-05
2.39634e-05
2.19121e-05
1.9915e-05
1.79577e-05
1.59426e-05
1.39151e-05
1.191e-05
1.0119e-05
8.60623e-06
8.11344e-06
1.13169e-05
0.000136099
0.000135968
0.000135926
0.000135765
0.00013572
0.000135515
0.000135439
0.000135196
0.000135076
0.000134798
0.000134625
0.00013431
0.000134081
0.000133726
0.000133437
0.000133038
0.000132686
0.000132239
0.000131821
0.000131318
0.000130742
0.000129847
0.000128933
0.000127979
0.000127004
0.000125993
0.000124964
0.000123897
0.000122812
0.00012169
0.000120549
0.000119374
0.000118176
0.000116946
0.000115692
0.000114408
0.000113099
0.000111755
0.000110392
0.000108992
0.000107572
0.000106118
0.000104642
0.000103134
0.000101602
0.000100041
9.8455e-05
9.68358e-05
9.52046e-05
9.35585e-05
9.18822e-05
9.01981e-05
8.84868e-05
8.6767e-05
8.50225e-05
8.32618e-05
8.14767e-05
7.9671e-05
7.78414e-05
7.59898e-05
7.41179e-05
7.22284e-05
7.03186e-05
6.83948e-05
6.6453e-05
6.45005e-05
6.25355e-05
6.05649e-05
5.85895e-05
5.66148e-05
5.4645e-05
5.26843e-05
5.07389e-05
4.88125e-05
4.69108e-05
4.50375e-05
4.31968e-05
4.13917e-05
3.96239e-05
3.78943e-05
3.62023e-05
3.45451e-05
3.29152e-05
3.13101e-05
2.97407e-05
2.81692e-05
2.66114e-05
2.50507e-05
2.3487e-05
2.19077e-05
2.03139e-05
1.86965e-05
1.7051e-05
1.53533e-05
1.36175e-05
1.1932e-05
1.04813e-05
9.76078e-06
1.19087e-05
1.20561e-05
0.000135666
0.00013587
0.000135603
0.000135523
0.000134843
0.000134361
0.000133551
0.000132878
0.000132012
0.000131222
0.000130314
0.000129435
0.000128484
0.00012753
0.00012653
0.000125509
0.000124458
0.000123375
0.000122272
0.000121133
0.000119973
0.000118787
0.00011758
0.000116344
0.000115092
0.000113811
0.000112518
0.000111194
0.000109861
0.000108496
0.000107122
0.000105719
0.000104304
0.000102865
0.000101401
9.99257e-05
9.8452e-05
9.6929e-05
9.54154e-05
9.38644e-05
9.2315e-05
9.07375e-05
8.91568e-05
8.75554e-05
8.59485e-05
8.43267e-05
8.26998e-05
8.10637e-05
7.94246e-05
7.77793e-05
7.61321e-05
7.44806e-05
7.28221e-05
7.11625e-05
6.95023e-05
6.78449e-05
6.61898e-05
6.45405e-05
6.28983e-05
6.12655e-05
5.9645e-05
5.80386e-05
5.64483e-05
5.48771e-05
5.33243e-05
5.17941e-05
5.02843e-05
4.87985e-05
4.73341e-05
4.58912e-05
4.44679e-05
4.30717e-05
4.16916e-05
4.03285e-05
3.89825e-05
3.76489e-05
3.63245e-05
3.50069e-05
3.369e-05
3.23724e-05
3.10486e-05
2.97186e-05
2.83782e-05
2.70348e-05
2.56818e-05
2.43297e-05
2.29789e-05
2.16316e-05
2.02999e-05
1.89882e-05
1.77084e-05
1.64638e-05
1.52723e-05
1.41246e-05
1.30658e-05
1.22584e-05
1.20811e-05
1.37462e-05
1.37828e-05
1.41097e-05
0.000122486
0.000121966
0.000121566
0.000121077
0.000120246
0.000119442
0.000118455
0.0001175
0.000116441
0.000115399
0.000114297
0.000113196
0.00011206
0.000110913
0.000109749
0.000108565
0.000107372
0.000106158
0.000104949
0.000103734
0.000102493
0.000101255
9.99942e-05
9.87206e-05
9.74317e-05
9.61327e-05
9.48283e-05
9.35051e-05
9.21833e-05
9.08392e-05
8.94978e-05
8.8137e-05
8.67762e-05
8.54017e-05
8.40259e-05
8.26416e-05
8.12562e-05
7.98622e-05
7.84746e-05
7.70778e-05
7.56912e-05
7.42986e-05
7.29173e-05
7.15345e-05
7.01633e-05
6.8795e-05
6.74385e-05
6.60882e-05
6.47499e-05
6.34191e-05
6.21002e-05
6.07911e-05
5.94936e-05
5.82081e-05
5.69351e-05
5.56752e-05
5.44332e-05
5.31989e-05
5.19821e-05
5.07734e-05
4.95807e-05
4.83944e-05
4.72227e-05
4.60567e-05
4.49023e-05
4.37526e-05
4.26115e-05
4.14753e-05
4.03457e-05
3.92211e-05
3.81041e-05
3.69949e-05
3.58937e-05
3.47994e-05
3.37128e-05
3.26348e-05
3.15667e-05
3.05122e-05
2.94719e-05
2.8447e-05
2.74381e-05
2.6448e-05
2.54762e-05
2.45258e-05
2.35964e-05
2.26869e-05
2.17963e-05
2.09292e-05
2.00942e-05
1.92954e-05
1.85461e-05
1.78575e-05
1.72548e-05
1.67812e-05
1.65555e-05
1.66294e-05
1.60571e-05
1.58144e-05
1.57891e-05
1.31993e-05
0.00010721
0.000106093
0.000105597
0.000104769
0.000103937
0.000102925
0.000101942
0.000100848
9.97911e-05
9.86594e-05
9.75629e-05
9.64112e-05
9.52922e-05
9.41296e-05
9.29983e-05
9.18323e-05
9.06979e-05
8.95365e-05
8.84067e-05
8.72573e-05
8.61302e-05
8.49862e-05
8.38663e-05
8.27364e-05
8.16261e-05
8.05091e-05
7.94122e-05
7.83068e-05
7.72237e-05
7.613e-05
7.50587e-05
7.39778e-05
7.2916e-05
7.18485e-05
7.07959e-05
6.97408e-05
6.86963e-05
6.76493e-05
6.66216e-05
6.55859e-05
6.45692e-05
6.35462e-05
6.25406e-05
6.153e-05
6.05343e-05
5.95358e-05
5.85495e-05
5.75629e-05
5.65866e-05
5.56113e-05
5.4646e-05
5.36843e-05
5.27331e-05
5.17872e-05
5.08447e-05
4.99102e-05
4.89828e-05
4.80636e-05
4.71532e-05
4.62519e-05
4.53637e-05
4.44854e-05
4.3625e-05
4.27755e-05
4.1944e-05
4.11302e-05
4.03374e-05
3.95635e-05
3.88116e-05
3.80816e-05
3.73727e-05
3.66838e-05
3.60155e-05
3.53664e-05
3.47364e-05
3.41231e-05
3.35249e-05
3.29389e-05
3.21153e-05
3.11758e-05
3.02472e-05
2.93254e-05
2.84147e-05
2.75129e-05
2.66227e-05
2.57439e-05
2.48785e-05
2.40289e-05
2.31977e-05
2.23904e-05
2.16124e-05
2.08732e-05
2.01775e-05
1.95497e-05
1.89948e-05
1.86046e-05
1.83421e-05
1.82442e-05
1.89328e-05
1.49279e-05
9.61119e-05
9.4452e-05
9.39906e-05
9.29727e-05
9.22552e-05
9.11677e-05
9.0332e-05
8.92418e-05
8.83547e-05
8.72878e-05
8.63825e-05
8.53465e-05
8.44385e-05
8.34312e-05
8.25295e-05
8.15465e-05
8.06545e-05
7.9689e-05
7.88061e-05
7.7851e-05
7.66574e-05
7.53455e-05
7.40978e-05
7.28248e-05
7.16269e-05
7.04001e-05
6.92568e-05
6.80834e-05
6.69999e-05
6.58872e-05
6.48661e-05
6.38188e-05
6.28603e-05
6.18815e-05
6.09874e-05
6.00798e-05
5.92519e-05
5.84146e-05
5.76529e-05
5.68813e-05
5.61789e-05
5.54687e-05
5.48223e-05
5.41699e-05
5.35755e-05
5.29758e-05
5.24288e-05
5.18759e-05
5.13697e-05
5.08582e-05
5.03888e-05
4.9909e-05
4.94629e-05
4.90097e-05
4.85833e-05
4.81475e-05
4.77323e-05
4.73033e-05
4.68886e-05
4.64578e-05
4.60362e-05
4.55956e-05
4.51506e-05
4.46972e-05
4.42584e-05
4.37753e-05
4.33191e-05
4.28318e-05
4.23656e-05
4.18728e-05
4.13965e-05
4.08972e-05
4.04109e-05
3.9904e-05
3.94074e-05
3.88915e-05
3.83838e-05
3.78578e-05
3.73371e-05
3.67959e-05
3.62515e-05
3.56816e-05
3.51019e-05
3.44924e-05
3.38652e-05
3.32029e-05
3.25156e-05
3.17895e-05
3.10348e-05
3.02437e-05
2.9432e-05
2.86043e-05
2.77882e-05
2.70068e-05
2.63506e-05
2.58655e-05
2.54785e-05
2.56132e-05
2.6128e-05
2.04875e-05
8.0085e-05
7.80578e-05
7.72284e-05
7.56555e-05
7.48093e-05
7.33147e-05
7.24555e-05
7.10382e-05
7.01781e-05
6.88408e-05
6.79929e-05
6.67383e-05
6.59138e-05
6.47426e-05
6.39512e-05
6.28649e-05
6.21141e-05
6.11138e-05
6.04097e-05
5.94956e-05
5.88436e-05
5.80243e-05
5.74397e-05
5.6711e-05
5.6195e-05
5.55512e-05
5.51031e-05
5.4537e-05
5.41534e-05
5.36588e-05
5.3333e-05
5.29073e-05
5.26346e-05
5.22738e-05
5.20463e-05
5.17445e-05
5.15538e-05
5.13033e-05
5.1145e-05
5.09353e-05
5.08039e-05
5.06272e-05
5.05173e-05
5.0367e-05
5.02729e-05
5.01378e-05
5.00495e-05
4.99547e-05
4.98695e-05
4.97719e-05
4.96731e-05
4.95971e-05
4.95142e-05
4.94447e-05
4.93753e-05
4.93127e-05
4.92555e-05
4.92036e-05
4.91623e-05
4.91237e-05
4.9099e-05
4.90754e-05
4.90665e-05
4.90583e-05
4.90643e-05
4.90724e-05
4.90972e-05
4.91212e-05
4.91623e-05
4.92028e-05
4.92599e-05
4.9316e-05
4.93875e-05
4.94579e-05
4.95421e-05
4.96241e-05
4.97176e-05
4.98068e-05
4.99044e-05
4.99948e-05
5.0088e-05
5.01687e-05
5.02439e-05
5.02984e-05
5.03356e-05
5.03397e-05
5.03105e-05
5.0232e-05
5.01023e-05
4.99074e-05
4.96471e-05
4.93143e-05
4.89186e-05
4.8469e-05
4.79954e-05
4.7576e-05
4.74136e-05
4.74891e-05
4.79941e-05
3.97429e-05
7.10249e-05
6.93069e-05
6.86143e-05
6.73035e-05
6.66461e-05
6.54029e-05
6.4781e-05
6.36171e-05
6.30345e-05
6.19582e-05
6.14184e-05
6.04341e-05
5.994e-05
5.90485e-05
5.86015e-05
5.78013e-05
5.74022e-05
5.66898e-05
5.63382e-05
5.57094e-05
5.5405e-05
5.48553e-05
5.4596e-05
5.41178e-05
5.39001e-05
5.34861e-05
5.33065e-05
5.29493e-05
5.28047e-05
5.25065e-05
5.23762e-05
5.21345e-05
5.20155e-05
5.18445e-05
5.17301e-05
5.16166e-05
5.1508e-05
5.14071e-05
5.13406e-05
5.12635e-05
5.1222e-05
5.11678e-05
5.11464e-05
5.1117e-05
5.11158e-05
5.11119e-05
5.1131e-05
5.11512e-05
5.119e-05
5.12326e-05
5.12926e-05
5.13596e-05
5.14433e-05
5.15344e-05
5.16429e-05
5.17583e-05
5.18926e-05
5.20325e-05
5.21923e-05
5.23577e-05
5.25433e-05
5.27351e-05
5.29482e-05
5.31685e-05
5.34098e-05
5.36596e-05
5.39297e-05
5.421e-05
5.45101e-05
5.48219e-05
5.51536e-05
5.54986e-05
5.5864e-05
5.62445e-05
5.66463e-05
5.70649e-05
5.75066e-05
5.79668e-05
5.84525e-05
5.89591e-05
5.94938e-05
6.00529e-05
6.06435e-05
6.12627e-05
6.19179e-05
6.26081e-05
6.33415e-05
6.41183e-05
6.49471e-05
6.58305e-05
6.67778e-05
6.77933e-05
6.88877e-05
7.0067e-05
7.13392e-05
7.26977e-05
7.4099e-05
7.5566e-05
7.62868e-05
6.61628e-05
7.7187e-05
7.53812e-05
7.46803e-05
7.32709e-05
7.25622e-05
7.12281e-05
7.05211e-05
6.9268e-05
6.85733e-05
6.74073e-05
6.67346e-05
6.56587e-05
6.50167e-05
6.40321e-05
6.34262e-05
6.25337e-05
6.19703e-05
6.11637e-05
6.06481e-05
5.99228e-05
5.9458e-05
5.88097e-05
5.83968e-05
5.78208e-05
5.74588e-05
5.69499e-05
5.66369e-05
5.61895e-05
5.59225e-05
5.55311e-05
5.53048e-05
5.49655e-05
5.47743e-05
5.44826e-05
5.43202e-05
5.40712e-05
5.39315e-05
5.37195e-05
5.36007e-05
5.34094e-05
5.33066e-05
5.31868e-05
5.3065e-05
5.29626e-05
5.28503e-05
5.27782e-05
5.26946e-05
5.26375e-05
5.25801e-05
5.25399e-05
5.25077e-05
5.24861e-05
5.24785e-05
5.24772e-05
5.24944e-05
5.25145e-05
5.2555e-05
5.26e-05
5.26664e-05
5.27379e-05
5.28297e-05
5.29276e-05
5.30449e-05
5.31723e-05
5.33161e-05
5.34733e-05
5.36449e-05
5.3832e-05
5.40322e-05
5.42486e-05
5.44777e-05
5.47238e-05
5.4983e-05
5.52598e-05
5.55506e-05
5.58597e-05
5.61849e-05
5.6529e-05
5.68917e-05
5.72745e-05
5.76789e-05
5.81057e-05
5.85574e-05
5.90346e-05
5.95406e-05
6.00757e-05
6.06433e-05
6.12439e-05
6.18818e-05
6.25606e-05
6.32917e-05
6.40761e-05
6.49262e-05
6.5851e-05
6.68708e-05
6.80055e-05
6.93048e-05
7.0735e-05
7.18131e-05
6.29837e-05
9.69351e-05
9.50499e-05
9.42648e-05
9.2768e-05
9.18968e-05
9.04575e-05
8.9513e-05
8.81227e-05
8.71198e-05
8.57772e-05
8.47306e-05
8.34362e-05
8.23628e-05
8.11168e-05
8.00171e-05
7.88104e-05
7.77336e-05
7.6555e-05
7.55045e-05
7.43625e-05
7.33436e-05
7.22445e-05
7.12631e-05
7.02121e-05
6.92744e-05
6.82759e-05
6.73875e-05
6.64457e-05
6.56091e-05
6.47293e-05
6.39495e-05
6.31327e-05
6.24124e-05
6.166e-05
6.10006e-05
6.03125e-05
5.97121e-05
5.90851e-05
5.8542e-05
5.79734e-05
5.74845e-05
5.69705e-05
5.65292e-05
5.60663e-05
5.56636e-05
5.52425e-05
5.48723e-05
5.44858e-05
5.41416e-05
5.3781e-05
5.3456e-05
5.31141e-05
5.28023e-05
5.24647e-05
5.21565e-05
5.18531e-05
5.15497e-05
5.12494e-05
5.09589e-05
5.06733e-05
5.03983e-05
5.01233e-05
4.98317e-05
4.95834e-05
4.9309e-05
4.90686e-05
4.88092e-05
4.85759e-05
4.83319e-05
4.81083e-05
4.78728e-05
4.76507e-05
4.74173e-05
4.71911e-05
4.69519e-05
4.67139e-05
4.64618e-05
4.6205e-05
4.59325e-05
4.56497e-05
4.53502e-05
4.50386e-05
4.47093e-05
4.43651e-05
4.4003e-05
4.36248e-05
4.32302e-05
4.28205e-05
4.23989e-05
4.19642e-05
4.15132e-05
4.10523e-05
4.06016e-05
4.01726e-05
3.98095e-05
3.95614e-05
3.9526e-05
3.98225e-05
4.04913e-05
3.42468e-05
0.000104471
0.000103247
0.000102687
0.000101774
0.000100971
9.99491e-05
9.90283e-05
9.79692e-05
9.69972e-05
9.59328e-05
9.49384e-05
9.38769e-05
9.28777e-05
9.18271e-05
9.08288e-05
8.97908e-05
8.8797e-05
8.77715e-05
8.67825e-05
8.57695e-05
8.47855e-05
8.37823e-05
8.28029e-05
8.18069e-05
8.08328e-05
7.98429e-05
7.8874e-05
7.78841e-05
7.69248e-05
7.59451e-05
7.49857e-05
7.40153e-05
7.30614e-05
7.21005e-05
7.1154e-05
7.02037e-05
6.92682e-05
6.83317e-05
6.73981e-05
6.64566e-05
6.55218e-05
6.45836e-05
6.36544e-05
6.27263e-05
6.18118e-05
6.09007e-05
6.0007e-05
5.91228e-05
5.82584e-05
5.74083e-05
5.65789e-05
5.57661e-05
5.49776e-05
5.42075e-05
5.34624e-05
5.27363e-05
5.20371e-05
5.1364e-05
5.06e-05
4.9824e-05
4.90591e-05
4.8293e-05
4.7533e-05
4.67675e-05
4.59983e-05
4.52227e-05
4.44385e-05
4.36489e-05
4.28439e-05
4.20257e-05
4.12127e-05
4.0405e-05
3.95813e-05
3.87638e-05
3.79396e-05
3.71208e-05
3.63e-05
3.54846e-05
3.4672e-05
3.38658e-05
3.30648e-05
3.22656e-05
3.14765e-05
3.06933e-05
2.99249e-05
2.9167e-05
2.84275e-05
2.76986e-05
2.69939e-05
2.63095e-05
2.56608e-05
2.50474e-05
2.44715e-05
2.39705e-05
2.3603e-05
2.33035e-05
2.33054e-05
2.35804e-05
2.43407e-05
1.88913e-05
0.000118401
0.000117584
0.00011715
0.000116498
0.000115676
0.000114777
0.000113796
0.000112767
0.000111713
0.000110619
0.00010953
0.000108378
0.000107244
0.000106069
0.000104907
0.000103713
0.000102527
0.000101313
0.000100104
9.88718e-05
9.76419e-05
9.63908e-05
9.51416e-05
9.38716e-05
9.26058e-05
9.13201e-05
9.00407e-05
8.87414e-05
8.74466e-05
8.6138e-05
8.48305e-05
8.3516e-05
8.22019e-05
8.08834e-05
7.95672e-05
7.82492e-05
7.69363e-05
7.56238e-05
7.43218e-05
7.30229e-05
7.17355e-05
7.04519e-05
6.91794e-05
6.79076e-05
6.66512e-05
6.54047e-05
6.41592e-05
6.2926e-05
6.1697e-05
6.0477e-05
5.92646e-05
5.80602e-05
5.68641e-05
5.56756e-05
5.44957e-05
5.33244e-05
5.21619e-05
5.10115e-05
4.98711e-05
4.87468e-05
4.76373e-05
4.65431e-05
4.54556e-05
4.43826e-05
4.33239e-05
4.22828e-05
4.12601e-05
4.02561e-05
3.92813e-05
3.83291e-05
3.7405e-05
3.65068e-05
3.56397e-05
3.48005e-05
3.39932e-05
3.32086e-05
3.2455e-05
3.17242e-05
3.1022e-05
3.03415e-05
2.96836e-05
2.90408e-05
2.8419e-05
2.78105e-05
2.68231e-05
2.58567e-05
2.48912e-05
2.39932e-05
2.31029e-05
2.22826e-05
2.14778e-05
2.07477e-05
2.00432e-05
1.94181e-05
1.88115e-05
1.83989e-05
1.81744e-05
1.79818e-05
1.87168e-05
1.44602e-05
0.000134291
0.000133972
0.000133681
0.000133339
0.000132548
0.000131819
0.00013085
0.000129939
0.000128893
0.000127878
0.000126784
0.000125692
0.000124558
0.00012341
0.000122236
0.000121039
0.000119825
0.000118584
0.00011733
0.000116049
0.000114757
0.000113437
0.000112108
0.000110751
0.000109384
0.000107989
0.000106592
0.00010519
0.000103752
0.00010232
0.00010086
9.93921e-05
9.79006e-05
9.63961e-05
9.48734e-05
9.33356e-05
9.17836e-05
9.02167e-05
8.86453e-05
8.70657e-05
8.54833e-05
8.38958e-05
8.23057e-05
8.07097e-05
7.9119e-05
7.75227e-05
7.59355e-05
7.4347e-05
7.27698e-05
7.11967e-05
6.96365e-05
6.80857e-05
6.65491e-05
6.50262e-05
6.35184e-05
6.20265e-05
6.05495e-05
5.90911e-05
5.76437e-05
5.62161e-05
5.4812e-05
5.34147e-05
5.20492e-05
5.06945e-05
4.93652e-05
4.8047e-05
4.67486e-05
4.5459e-05
4.41843e-05
4.29158e-05
4.16585e-05
4.04058e-05
3.91617e-05
3.79215e-05
3.66906e-05
3.54687e-05
3.42554e-05
3.30528e-05
3.18558e-05
3.06719e-05
2.94965e-05
2.83379e-05
2.71934e-05
2.60704e-05
2.49636e-05
2.38788e-05
2.28167e-05
2.1777e-05
2.07644e-05
1.9774e-05
1.88271e-05
1.79086e-05
1.7082e-05
1.63798e-05
1.5925e-05
1.60966e-05
1.6079e-05
1.58674e-05
1.58848e-05
1.31759e-05
0.000145435
0.000145831
0.000145677
0.000145695
0.000145069
0.00014463
0.000143851
0.000143207
0.000142367
0.000141603
0.000140722
0.000139872
0.000138951
0.000138031
0.000137066
0.000136084
0.00013507
0.00013403
0.000132966
0.000131871
0.000130756
0.000129606
0.000128438
0.000127233
0.000126011
0.000124752
0.000123477
0.000122166
0.000120831
0.000119478
0.000118099
0.000116694
0.000115266
0.000113812
0.000112337
0.000110836
0.000109313
0.000107764
0.000106195
0.0001046
0.000102973
0.000101336
9.96942e-05
9.79968e-05
9.63052e-05
9.45726e-05
9.2834e-05
9.10669e-05
8.92875e-05
8.74877e-05
8.56742e-05
8.38466e-05
8.20068e-05
8.01593e-05
7.83051e-05
7.64477e-05
7.45866e-05
7.27274e-05
7.08618e-05
6.90007e-05
6.71393e-05
6.5287e-05
6.34461e-05
6.16201e-05
5.98122e-05
5.80249e-05
5.62629e-05
5.4525e-05
5.28171e-05
5.1136e-05
4.94872e-05
4.78664e-05
4.62773e-05
4.47108e-05
4.3173e-05
4.16689e-05
4.01754e-05
3.87068e-05
3.72503e-05
3.58066e-05
3.43653e-05
3.2924e-05
3.14745e-05
3.0014e-05
2.8536e-05
2.70406e-05
2.55298e-05
2.4001e-05
2.24668e-05
2.09237e-05
1.93877e-05
1.78538e-05
1.63286e-05
1.48713e-05
1.35183e-05
1.24514e-05
1.20877e-05
1.36214e-05
1.38495e-05
1.43406e-05
0.000139924
0.000139827
0.000139793
0.000139642
0.000139599
0.00013941
0.000139338
0.000139122
0.000139012
0.000138771
0.000138622
0.000138356
0.000138162
0.000137867
0.000137628
0.000137302
0.000137017
0.000136656
0.000136324
0.000135926
0.000135545
0.000135105
0.000134673
0.000134188
0.000133701
0.000133164
0.000132616
0.000132016
0.000131394
0.000130384
0.000129307
0.000128189
0.000127051
0.000125879
0.000124686
0.000123462
0.000122216
0.000120943
0.000119642
0.000118307
0.000116942
0.000115546
0.000114118
0.00011265
0.000111157
0.000109622
0.000108059
0.000106456
0.000104823
0.000103153
0.000101449
9.97131e-05
9.79426e-05
9.61297e-05
9.42915e-05
9.24443e-05
9.05471e-05
8.86411e-05
8.66945e-05
8.47336e-05
8.27416e-05
8.07316e-05
7.86953e-05
7.66371e-05
7.45545e-05
7.24426e-05
7.03125e-05
6.81576e-05
6.59876e-05
6.37993e-05
6.16025e-05
5.93964e-05
5.71922e-05
5.49917e-05
5.28052e-05
5.06373e-05
4.84975e-05
4.63905e-05
4.43248e-05
4.23025e-05
4.03294e-05
3.84034e-05
3.6526e-05
3.46907e-05
3.28842e-05
3.11062e-05
2.9374e-05
2.76169e-05
2.58801e-05
2.41148e-05
2.23354e-05
2.04997e-05
1.85966e-05
1.6637e-05
1.4688e-05
1.27379e-05
1.10738e-05
1.00898e-05
1.19783e-05
1.2132e-05
0.000115581
0.000115932
0.000116072
0.000116251
0.000116379
0.000116516
0.000116636
0.000116742
0.00011685
0.000116928
0.000117021
0.000117073
0.000117147
0.000117177
0.000117227
0.000117234
0.000117259
0.000117242
0.000117239
0.000117195
0.000117161
0.000117089
0.000117022
0.000116919
0.000116816
0.000116678
0.000116535
0.00011636
0.000116176
0.000115964
0.000115749
0.000115507
0.000115258
0.000114985
0.000114702
0.000114396
0.000114076
0.000113732
0.000113364
0.000112973
0.000112556
0.000112112
0.00011164
0.000111136
0.0001106
0.000110026
0.000109416
0.000108772
0.000108095
0.000107383
0.000106635
0.000105839
0.000104994
0.000104092
0.000103128
0.00010209
0.000100504
9.88541e-05
9.71299e-05
9.53737e-05
9.35594e-05
9.171e-05
8.98152e-05
8.78861e-05
8.59335e-05
8.39676e-05
8.19393e-05
7.98766e-05
7.7771e-05
7.56274e-05
7.34488e-05
7.12331e-05
6.89803e-05
6.66909e-05
6.43617e-05
6.1991e-05
5.95767e-05
5.71146e-05
5.46058e-05
5.20464e-05
4.94412e-05
4.67905e-05
4.41041e-05
4.1389e-05
3.86611e-05
3.59365e-05
3.32399e-05
3.05919e-05
2.80173e-05
2.55433e-05
2.31428e-05
2.08257e-05
1.85806e-05
1.6322e-05
1.41427e-05
1.21449e-05
1.03232e-05
8.93059e-06
8.38424e-06
1.15462e-05
7.4128e-05
7.4617e-05
7.4719e-05
7.50362e-05
7.51517e-05
7.54201e-05
7.55566e-05
7.57924e-05
7.59461e-05
7.61591e-05
7.63242e-05
7.65207e-05
7.66921e-05
7.68762e-05
7.70491e-05
7.72233e-05
7.73945e-05
7.75598e-05
7.77263e-05
7.7883e-05
7.80427e-05
7.81906e-05
7.83417e-05
7.84806e-05
7.86219e-05
7.87512e-05
7.88818e-05
7.90016e-05
7.91221e-05
7.92338e-05
7.93457e-05
7.94486e-05
7.95505e-05
7.96428e-05
7.97317e-05
7.98106e-05
7.98827e-05
7.99437e-05
7.99997e-05
8.00454e-05
8.00837e-05
8.01113e-05
8.01298e-05
8.0137e-05
8.01342e-05
8.01197e-05
8.00951e-05
8.00592e-05
8.00069e-05
7.9937e-05
7.98455e-05
7.97301e-05
7.95874e-05
7.94151e-05
7.92096e-05
7.89693e-05
7.8697e-05
7.84093e-05
7.80842e-05
7.77372e-05
7.73465e-05
7.69182e-05
7.64306e-05
7.57373e-05
7.47904e-05
7.37819e-05
7.27159e-05
7.15969e-05
7.04199e-05
6.91771e-05
6.78712e-05
6.65166e-05
6.50689e-05
6.355e-05
6.19406e-05
6.02423e-05
5.84471e-05
5.65506e-05
5.4552e-05
5.24474e-05
5.0241e-05
4.79332e-05
4.55319e-05
4.30424e-05
4.04757e-05
3.78431e-05
3.51437e-05
3.23859e-05
2.95634e-05
2.66215e-05
2.36382e-05
2.05698e-05
1.75706e-05
1.46742e-05
1.19709e-05
9.61759e-06
7.78161e-06
6.54917e-06
5.87753e-06
6.77252e-06
6.88161e-06
6.90331e-06
6.91649e-06
6.93348e-06
6.95041e-06
6.9693e-06
6.98692e-06
7.00685e-06
7.02538e-06
7.0462e-06
7.06551e-06
7.08718e-06
7.10732e-06
7.1297e-06
7.15076e-06
7.17375e-06
7.19578e-06
7.21937e-06
7.24242e-06
7.26663e-06
7.29072e-06
7.31564e-06
7.34079e-06
7.36654e-06
7.39283e-06
7.41961e-06
7.44713e-06
7.4751e-06
7.50401e-06
7.53339e-06
7.56376e-06
7.59465e-06
7.62661e-06
7.65913e-06
7.69275e-06
7.72706e-06
7.76251e-06
7.79879e-06
7.83631e-06
7.87474e-06
7.91451e-06
7.9553e-06
7.99749e-06
8.04086e-06
8.08569e-06
8.13181e-06
8.17937e-06
8.22819e-06
8.27824e-06
8.32953e-06
8.382e-06
8.43573e-06
8.49074e-06
8.54721e-06
8.60531e-06
8.66542e-06
8.72793e-06
8.79278e-06
8.85905e-06
8.92722e-06
8.99535e-06
9.06371e-06
9.12972e-06
9.19284e-06
9.25536e-06
9.32133e-06
9.38909e-06
9.46039e-06
9.53414e-06
9.61134e-06
9.69246e-06
9.77773e-06
9.86426e-06
9.95577e-06
1.00493e-05
1.01465e-05
1.02466e-05
1.03496e-05
1.04561e-05
1.05656e-05
1.06798e-05
1.07985e-05
1.09238e-05
1.10564e-05
1.11979e-05
1.13463e-05
1.14898e-05
1.16013e-05
1.15955e-05
1.14115e-05
1.08981e-05
9.79965e-06
8.02225e-06
5.87592e-06
3.65154e-06
2.65164e-06
2.56287e-06
3.92297e-06
4.02185e-06
4.3336e-06
1.09362e-05
2.07555e-06
2.59794e-06
3.51401e-06
4.54481e-06
5.62252e-06
6.48745e-06
7.33396e-06
8.14368e-06
8.89752e-06
9.60028e-06
1.03159e-05
1.1408e-05
1.32365e-05
1.53886e-05
1.78095e-05
1.75946e-05
1.55582e-05
1.03367e-05
4.00836e-06
5.87375e-06
2.18397e-06
2.47281e-06
3.18286e-06
4.0563e-06
4.86535e-06
5.6886e-06
6.54455e-06
7.40601e-06
8.28571e-06
9.24763e-06
1.03304e-05
1.19409e-05
1.39934e-05
1.69341e-05
1.82745e-05
1.74724e-05
1.47418e-05
9.58081e-06
3.9821e-06
4.93946e-06
2.69374e-06
2.90082e-06
3.41697e-06
4.01059e-06
4.71315e-06
5.47504e-06
6.30744e-06
7.21049e-06
8.36315e-06
9.46487e-06
1.09295e-05
1.28202e-05
1.56838e-05
1.79366e-05
1.82649e-05
1.71472e-05
1.40362e-05
8.95001e-06
3.85812e-06
5.05328e-06
3.43906e-06
3.63818e-06
3.87473e-06
4.36481e-06
4.92361e-06
5.66474e-06
6.56831e-06
7.69392e-06
9.43588e-06
1.1101e-05
1.2815e-05
1.55601e-05
1.80836e-05
1.91057e-05
1.87606e-05
1.70267e-05
1.33038e-05
8.05442e-06
3.27407e-06
5.68768e-06
4.47793e-06
4.61759e-06
4.63249e-06
5.19127e-06
5.68443e-06
6.57036e-06
7.81341e-06
9.54945e-06
1.29458e-05
1.46121e-05
1.68889e-05
1.91859e-05
2.03039e-05
2.03458e-05
1.92003e-05
1.65687e-05
1.25618e-05
7.0044e-06
2.37509e-06
6.89491e-06
5.97637e-06
6.04693e-06
6.02022e-06
6.7615e-06
7.73626e-06
9.29554e-06
1.15157e-05
1.59287e-05
1.92739e-05
2.07708e-05
2.21689e-05
2.29125e-05
2.27515e-05
2.16356e-05
1.91309e-05
1.60084e-05
1.17122e-05
5.24432e-06
1.43426e-06
9.03655e-06
8.61711e-06
8.84361e-06
9.42242e-06
1.11135e-05
1.35682e-05
1.69414e-05
2.18261e-05
2.85139e-05
2.91965e-05
2.89091e-05
2.81842e-05
2.68346e-05
2.47655e-05
2.17423e-05
1.85687e-05
1.4954e-05
1.02656e-05
3.85894e-06
6.92302e-07
1.46265e-05
1.60889e-05
1.73068e-05
1.95913e-05
2.31131e-05
2.74208e-05
3.29802e-05
3.99287e-05
3.99009e-05
3.7649e-05
3.43088e-05
3.16458e-05
2.81444e-05
2.49681e-05
2.09159e-05
1.716e-05
1.30063e-05
8.20197e-06
2.82264e-06
2.90293e-07
3.24946e-05
3.54588e-05
3.66909e-05
3.9154e-05
4.36192e-05
4.79604e-05
5.20126e-05
4.77943e-05
4.42377e-05
4.02822e-05
3.65094e-05
3.26489e-05
2.85399e-05
2.34082e-05
1.86621e-05
1.41535e-05
1.03759e-05
7.10802e-06
2.80137e-06
1.66881e-07
5.27833e-05
5.56689e-05
5.59317e-05
5.7439e-05
6.22917e-05
5.95737e-05
5.52906e-05
5.03572e-05
4.62784e-05
4.13314e-05
3.72715e-05
3.20804e-05
2.70987e-05
1.98423e-05
1.42199e-05
1.00186e-05
8.33611e-06
7.43346e-06
3.67012e-06
2.51632e-07
5.02928e-05
5.30284e-05
5.34115e-05
5.50061e-05
5.98164e-05
5.78348e-05
5.37493e-05
4.90006e-05
4.51585e-05
4.03841e-05
3.67123e-05
3.15981e-05
2.76594e-05
2.05386e-05
1.49326e-05
1.01235e-05
8.05661e-06
6.65963e-06
3.06922e-06
2.11896e-07
2.79519e-05
3.08548e-05
3.22269e-05
3.47063e-05
3.91075e-05
4.36647e-05
4.95552e-05
4.5604e-05
4.26068e-05
3.84174e-05
3.56572e-05
3.13421e-05
2.83631e-05
2.39127e-05
1.93422e-05
1.45673e-05
1.01252e-05
6.08042e-06
2.07284e-06
1.54974e-07
1.30777e-05
1.40065e-05
1.49762e-05
1.70191e-05
2.01745e-05
2.42151e-05
2.94691e-05
3.63602e-05
3.97602e-05
3.61295e-05
3.40067e-05
3.05997e-05
2.76745e-05
2.45077e-05
2.12695e-05
1.73806e-05
1.2926e-05
7.76874e-06
2.42118e-06
1.81382e-07
8.63497e-06
8.1091e-06
8.25481e-06
8.64588e-06
1.00581e-05
1.21929e-05
1.51837e-05
1.97886e-05
2.62552e-05
2.74204e-05
2.77266e-05
2.7541e-05
2.66371e-05
2.47369e-05
2.14539e-05
1.86313e-05
1.48781e-05
1.00203e-05
3.51002e-06
4.15025e-07
6.73767e-06
5.80323e-06
5.86727e-06
5.82954e-06
6.50973e-06
7.36672e-06
8.74763e-06
1.07298e-05
1.47986e-05
1.81431e-05
1.99302e-05
2.16834e-05
2.27114e-05
2.27533e-05
2.18238e-05
1.89612e-05
1.58258e-05
1.15321e-05
5.13477e-06
1.18445e-06
5.62138e-06
4.42704e-06
4.56449e-06
4.60687e-06
5.15385e-06
5.64376e-06
6.48674e-06
7.63608e-06
9.23671e-06
1.23405e-05
1.41136e-05
1.64782e-05
1.90203e-05
2.03226e-05
2.04392e-05
1.9347e-05
1.64183e-05
1.24364e-05
6.96131e-06
2.23619e-06
5.043e-06
3.43597e-06
3.6383e-06
3.91639e-06
4.41443e-06
4.99491e-06
5.72965e-06
6.61108e-06
7.68693e-06
9.33222e-06
1.0907e-05
1.26526e-05
1.53884e-05
1.80981e-05
1.9234e-05
1.88863e-05
1.70949e-05
1.32094e-05
8.04363e-06
3.225e-06
5.04921e-06
2.73404e-06
2.93372e-06
3.46516e-06
4.09382e-06
4.80645e-06
5.58322e-06
6.42064e-06
7.31246e-06
8.42267e-06
9.50208e-06
1.09357e-05
1.28108e-05
1.56299e-05
1.80217e-05
1.83869e-05
1.7209e-05
1.39545e-05
8.96215e-06
3.80978e-06
6.12695e-06
2.24246e-06
2.53628e-06
3.25486e-06
4.13563e-06
4.98855e-06
5.82104e-06
6.68572e-06
7.55459e-06
8.42723e-06
9.37036e-06
1.04319e-05
1.20274e-05
1.40663e-05
1.6971e-05
1.83679e-05
1.75182e-05
1.47297e-05
9.59504e-06
3.95949e-06
1.09725e-05
2.13928e-06
2.66072e-06
3.59518e-06
4.64259e-06
5.72213e-06
6.6437e-06
7.49188e-06
8.31209e-06
9.06831e-06
9.76946e-06
1.04687e-05
1.15058e-05
1.32798e-05
1.54486e-05
1.78724e-05
1.76267e-05
1.55266e-05
1.03602e-05
3.99465e-06
1.23421e-06
0.000116558
0.000294184
0.000330906
0.00033481
0.000335356
0.000335357
0.000335342
0.000335343
0.000335345
0.000335345
0.000335343
0.000335342
0.000335357
0.000335356
0.00033481
0.000330906
0.000294184
0.000116558
1.23421e-06
1.36973e-06
6.81666e-05
0.000219583
0.000309503
0.000330909
0.000334527
0.000335273
0.000335315
0.000335296
0.000335287
0.000335287
0.000335296
0.000335315
0.000335273
0.000334527
0.000330909
0.000309503
0.000219583
6.81667e-05
1.36973e-06
1.51337e-06
5.28968e-05
0.000176461
0.000280581
0.000322148
0.000332504
0.000334604
0.0003351
0.000335168
0.000335172