/*--------------------------------*- C++ -*----------------------------------*\
| =========                 |                                                 |
| \\      /  F ield         | OpenFOAM: The Open Source CFD Toolbox           |
|  \\    /   O peration     | Version:  2.1.0                                 |
|   \\  /    A nd           | Web:      www.OpenFOAM.org                      |
|    \\/     M anipulation  |                                                 |
\*---------------------------------------------------------------------------*/
FoamFile
{
    version     2.0;
    format      ascii;
    class       volScalarField;
    location    "0.3";
    object      p;
}
// * * * * * * * * * * * * * * * * * * * * * * * * * * * * * * * * * * * * * //

dimensions      [1 -1 -2 0 0 0 0];

internalField   nonuniform List<scalar> 
6400
(
99997.6
99995.2
99993.5
99992.1
99990.9
99989.7
99988.5
99987.2
99986
99984.6
99983.3
99981.8
99980.3
99978.7
99977.1
99975.3
99973.5
99971.7
99969.7
99967.6
99965.5
99963.3
99961
99958.6
99956.1
99953.6
99950.9
99948.2
99945.3
99942.4
99939.4
99936.2
99933
99929.6
99926.2
99922.6
99918.9
99915.1
99911.2
99907.1
99903
99898.6
99894.2
99889.6
99884.9
99880
99875
99869.7
99864.3
99858.8
99853
99847
99840.9
99834.5
99828
99821.2
99814.2
99807
99799.6
99791.9
99783.9
99775.7
99767.2
99758.4
99749.3
99739.8
99730.1
99720
99709.5
99698.6
99687.4
99675.7
99663.6
99651
99638
99624.4
99610.4
99595.7
99580.5
99564.6
99548
99530.6
99512.4
99493.1
99472.6
99450.6
99426.9
99401
99372.5
99341.3
99307.4
99271.8
99236.7
99203.5
99171.9
99136.1
99078.7
98963.5
98592.6
96985.7
99995.9
99994.5
99993.1
99991.8
99990.5
99989.3
99988.1
99986.9
99985.6
99984.3
99982.9
99981.4
99979.9
99978.3
99976.7
99974.9
99973.1
99971.2
99969.3
99967.2
99965.1
99962.8
99960.5
99958.1
99955.7
99953.1
99950.4
99947.7
99944.8
99941.9
99938.8
99935.7
99932.4
99929.1
99925.6
99922
99918.4
99914.6
99910.6
99906.6
99902.4
99898.1
99893.6
99889.1
99884.3
99879.4
99874.4
99869.2
99863.8
99858.2
99852.4
99846.5
99840.4
99834
99827.5
99820.7
99813.8
99806.6
99799.1
99791.4
99783.5
99775.3
99766.8
99758
99748.9
99739.5
99729.8
99719.7
99709.3
99698.4
99687.2
99675.6
99663.5
99651
99637.9
99624.4
99610.4
99595.7
99580.5
99564.6
99548
99530.7
99512.4
99493.1
99472.6
99450.7
99427
99401.2
99372.9
99341.9
99308.3
99273
99237.9
99205
99176.4
99146
99094.5
98993.7
98693.2
98139.5
99994.5
99993.8
99992.6
99991.4
99990.2
99989.1
99987.9
99986.7
99985.4
99984.1
99982.7
99981.2
99979.7
99978.1
99976.5
99974.7
99972.9
99971
99969.1
99967
99964.9
99962.6
99960.3
99958
99955.5
99952.9
99950.3
99947.5
99944.7
99941.7
99938.7
99935.5
99932.3
99928.9
99925.5
99921.9
99918.2
99914.4
99910.5
99906.5
99902.3
99898
99893.6
99889
99884.3
99879.4
99874.4
99869.2
99863.9
99858.3
99852.6
99846.7
99840.6
99834.3
99827.8
99821.1
99814.2
99807
99799.6
99792
99784.1
99775.9
99767.5
99758.7
99749.7
99740.4
99730.7
99720.7
99710.3
99699.5
99688.4
99676.8
99664.9
99652.4
99639.5
99626.1
99612.1
99597.6
99582.5
99566.8
99550.3
99533
99514.8
99495.6
99475.2
99453.4
99429.8
99404.2
99376.3
99346
99313.5
99280
99247.3
99217.7
99192.8
99165.2
99129.5
99067.6
98911.6
99002.1
99992.7
99992.9
99992.2
99991.2
99990.1
99989
99987.9
99986.7
99985.5
99984.1
99982.8
99981.3
99979.8
99978.2
99976.6
99974.9
99973.1
99971.2
99969.2
99967.2
99965.1
99962.9
99960.6
99958.2
99955.8
99953.2
99950.6
99947.8
99945
99942.1
99939
99935.9
99932.7
99929.4
99925.9
99922.4
99918.7
99914.9
99911
99907
99902.9
99898.6
99894.2
99889.7
99885
99880.2
99875.2
99870
99864.7
99859.3
99853.6
99847.7
99841.7
99835.4
99829
99822.3
99815.4
99808.3
99800.9
99793.3
99785.5
99777.4
99769
99760.3
99751.3
99742
99732.4
99722.5
99712.1
99701.4
99690.3
99678.8
99666.8
99654.4
99641.5
99628.1
99614.1
99599.5
99584.3
99568.5
99551.9
99534.4
99516.1
99496.7
99476.1
99454.1
99430.4
99404.9
99377.4
99347.9
99316.9
99286.1
99257.4
99233
99214.6
99201.9
99196.5
99201.3
99228.1
99648.8
99990.8
99992
99991.8
99991.1
99990.2
99989.2
99988.1
99987
99985.8
99984.5
99983.1
99981.7
99980.2
99978.6
99977
99975.3
99973.5
99971.7
99969.7
99967.7
99965.6
99963.5
99961.2
99958.8
99956.4
99953.9
99951.2
99948.5
99945.7
99942.8
99939.8
99936.7
99933.5
99930.2
99926.8
99923.2
99919.6
99915.9
99912
99908
99903.9
99899.6
99895.3
99890.7
99886.1
99881.3
99876.3
99871.2
99865.9
99860.4
99854.8
99848.9
99842.9
99836.7
99830.2
99823.6
99816.7
99809.6
99802.3
99794.7
99786.8
99778.7
99770.3
99761.6
99752.6
99743.3
99733.7
99723.7
99713.3
99702.6
99691.4
99679.8
99667.8
99655.3
99642.3
99628.7
99614.6
99599.9
99584.6
99568.6
99551.8
99534.2
99515.7
99496.1
99475.3
99453.1
99429.4
99404.1
99377.1
99348.7
99319.9
99292.6
99269.3
99252.1
99245.1
99254.9
99291.9
99384.2
99582.7
100159
99989
99991.1
99991.5
99991.1
99990.4
99989.5
99988.5
99987.4
99986.2
99985
99983.6
99982.2
99980.8
99979.2
99977.6
99975.9
99974.1
99972.3
99970.4
99968.4
99966.3
99964.1
99961.9
99959.5
99957.1
99954.6
99952
99949.3
99946.5
99943.6
99940.6
99937.5
99934.3
99931
99927.6
99924.1
99920.5
99916.7
99912.9
99908.9
99904.8
99900.5
99896.1
99891.6
99886.9
99882.1
99877.1
99872
99866.7
99861.2
99855.5
99849.7
99843.6
99837.4
99830.9
99824.3
99817.4
99810.2
99802.9
99795.2
99787.4
99779.2
99770.8
99762.1
99753.1
99743.7
99734.1
99724
99713.6
99702.8
99691.6
99680
99667.9
99655.3
99642.3
99628.7
99614.5
99599.7
99584.2
99568
99551.1
99533.3
99514.5
99494.7
99473.7
99451.4
99427.7
99402.5
99376.2
99349.1
99322.6
99299
99281.6
99272.9
99280.4
99317.3
99403.8
99588.7
99923.6
100559
99987.3
99990.3
99991.1
99991
99990.6
99989.8
99988.9
99987.8
99986.7
99985.5
99984.1
99982.7
99981.3
99979.7
99978.1
99976.4
99974.7
99972.8
99970.9
99968.9
99966.8
99964.6
99962.4
99960
99957.6
99955.1
99952.5
99949.8
99947
99944.1
99941.1
99938
99934.8
99931.4
99928
99924.5
99920.9
99917.1
99913.2
99909.2
99905.1
99900.8
99896.4
99891.9
99887.2
99882.4
99877.4
99872.2
99866.9
99861.4
99855.7
99849.8
99843.8
99837.5
99831
99824.4
99817.4
99810.3
99802.9
99795.3
99787.4
99779.3
99770.8
99762.1
99753.1
99743.7
99734.1
99724
99713.6
99702.8
99691.6
99679.9
99667.8
99655.2
99642.1
99628.4
99614.1
99599.2
99583.7
99567.3
99550.2
99532.2
99513.2
99493.1
99471.9
99449.4
99425.6
99400.7
99375
99349.2
99324.8
99304.8
99292.9
99293
99315.7
99380.1
99516.1
99785.1
100217
100862
99985.9
99989.5
99990.7
99990.9
99990.6
99990
99989.1
99988.1
99987
99985.7
99984.4
99983
99981.5
99980
99978.4
99976.7
99974.9
99973
99971.1
99969.1
99967
99964.8
99962.6
99960.2
99957.8
99955.2
99952.6
99949.9
99947.1
99944.1
99941.1
99938
99934.8
99931.5
99928
99924.5
99920.8
99917
99913.1
99909.1
99905
99900.7
99896.3
99891.7
99887
99882.2
99877.2
99872
99866.7
99861.2
99855.5
99849.7
99843.6
99837.4
99830.9
99824.2
99817.3
99810.2
99802.8
99795.2
99787.3
99779.2
99770.8
99762.1
99753.1
99743.7
99734.1
99724
99713.6
99702.8
99691.6
99679.9
99667.8
99655.1
99641.9
99628.2
99613.8
99598.8
99583.1
99566.6
99549.3
99531.1
99511.8
99491.5
99470
99447.4
99423.6
99398.8
99373.6
99348.8
99326.3
99309.1
99301.7
99309.7
99345.9
99434.4
99613.1
99949.2
100444
101078
99985
99988.9
99990.3
99990.7
99990.5
99990
99989.1
99988.1
99987
99985.8
99984.4
99983
99981.6
99980
99978.4
99976.6
99974.9
99973
99971.1
99969
99966.9
99964.7
99962.5
99960.1
99957.6
99955.1
99952.4
99949.7
99946.9
99943.9
99940.9
99937.8
99934.6
99931.2
99927.8
99924.2
99920.6
99916.8
99912.9
99908.9
99904.7
99900.4
99896
99891.5
99886.8
99882
99877
99871.8
99866.5
99861
99855.3
99849.5
99843.5
99837.2
99830.8
99824.1
99817.2
99810.1
99802.8
99795.2
99787.3
99779.2
99770.8
99762.1
99753.1
99743.8
99734.1
99724.1
99713.7
99702.9
99691.6
99679.9
99667.8
99655.1
99641.9
99628.1
99613.6
99598.5
99582.7
99566
99548.5
99530.1
99510.6
99490
99468.3
99445.4
99421.5
99396.8
99372
99348
99326.8
99311.5
99307.2
99321.1
99367.3
99473.2
99682.5
100064
100594
101216
99984.5
99988.5
99990.1
99990.6
99990.5
99989.9
99989.1
99988.1
99987
99985.7
99984.4
99983
99981.5
99979.9
99978.3
99976.5
99974.7
99972.9
99970.9
99968.9
99966.8
99964.6
99962.3
99959.9
99957.5
99954.9
99952.3
99949.5
99946.7
99943.8
99940.8
99937.6
99934.4
99931.1
99927.6
99924.1
99920.4
99916.7
99912.8
99908.8
99904.6
99900.3
99895.9
99891.4
99886.7
99881.9
99876.9
99871.8
99866.4
99861
99855.3
99849.5
99843.4
99837.2
99830.8
99824.1
99817.3
99810.2
99802.8
99795.3
99787.4
99779.2
99770.9
99762.2
99753.3
99744
99734.3
99724.3
99713.9
99703.1
99691.8
99680.1
99667.9
99655.2
99642
99628.1
99613.6
99598.4
99582.4
99565.6
99547.9
99529.3
99509.6
99488.7
99466.7
99443.7
99419.7
99394.9
99370.2
99346.6
99326.2
99312
99309.1
99326.1
99377.8
99492.3
99717
100121
100668
101283
99984.4
99988.6
99990.2
99990.7
99990.5
99990
99989.2
99988.2
99987.1
99985.8
99984.5
99983.1
99981.6
99980
99978.4
99976.7
99974.9
99973
99971
99969
99966.9
99964.7
99962.4
99960.1
99957.6
99955
99952.4
99949.7
99946.8
99943.9
99940.9
99937.8
99934.5
99931.2
99927.8
99924.2
99920.5
99916.8
99912.9
99908.9
99904.7
99900.4
99896
99891.5
99886.8
99882
99877
99871.9
99866.6
99861.1
99855.4
99849.6
99843.6
99837.4
99830.9
99824.3
99817.5
99810.4
99803.1
99795.5
99787.7
99779.7
99771.2
99762.6
99753.6
99744.3
99734.6
99724.6
99714.2
99703.4
99692.1
99680.4
99668.2
99655.5
99642.2
99628.3
99613.7
99598.4
99582.3
99565.4
99547.5
99528.7
99508.8
99487.8
99465.5
99442.2
99417.9
99392.9
99368.1
99344.6
99324.3
99310.2
99307.4
99324.4
99376.3
99490.7
99714.6
100117
100663
101279
99984.7
99988.8
99990.4
99990.8
99990.6
99990
99989.2
99988.2
99987.1
99985.9
99984.5
99983.1
99981.7
99980.1
99978.5
99976.8
99975
99973.2
99971.3
99969.3
99967.2
99965
99962.7
99960.4
99958
99955.4
99952.8
99950.1
99947.3
99944.4
99941.4
99938.3
99935.1
99931.8
99928.3
99924.8
99921.1
99917.4
99913.5
99909.4
99905.3
99901
99896.6
99892
99887.3
99882.5
99877.5
99872.3
99867
99861.5
99855.8
99850
99843.9
99837.7
99831.3
99824.6
99817.8
99810.7
99803.4
99795.9
99788.1
99780
99771.6
99762.9
99753.9
99744.6
99735
99725
99714.6
99703.8
99692.5
99680.8
99668.6
99655.8
99642.5
99628.5
99613.8
99598.5
99582.3
99565.2
99547.2
99528.1
99508
99486.7
99464.2
99440.6
99416
99390.7
99365.5
99341.6
99320.7
99305.6
99301.2
99315.4
99362.2
99467
99673.7
100051
100579
101201
99985.6
99989.3
99990.6
99990.9
99990.6
99989.9
99989.1
99988.1
99986.9
99985.7
99984.4
99983
99981.6
99980
99978.4
99976.7
99975
99973.1
99971.2
99969.2
99967.2
99965
99962.8
99960.4
99958
99955.5
99952.9
99950.2
99947.4
99944.6
99941.6
99938.5
99935.3
99932
99928.6
99925.1
99921.4
99917.7
99913.8
99909.8
99905.6
99901.4
99896.9
99892.4
99887.7
99882.8
99877.8
99872.7
99867.4
99861.9
99856.2
99850.3
99844.3
99838.1
99831.7
99825
99818.2
99811.1
99803.8
99796.2
99788.4
99780.4
99772
99763.3
99754.3
99745
99735.4
99725.4
99715
99704.2
99692.9
99681.2
99668.9
99656.2
99642.8
99628.8
99614
99598.6
99582.3
99565.1
99546.9
99527.7
99507.3
99485.8
99463.1
99439.1
99414.1
99388.4
99362.6
99338
99316
99299.2
99291.7
99300.5
99337.5
99424.1
99598.7
99928.5
100419
101054
99986.9
99990.1
99991
99990.9
99990.5
99989.7
99988.8
99987.8
99986.6
99985.4
99984.1
99982.7
99981.2
99979.7
99978.1
99976.4
99974.6
99972.8
99970.9
99968.9
99966.9
99964.7
99962.5
99960.2
99957.8
99955.3
99952.7
99950
99947.2
99944.4
99941.4
99938.3
99935.1
99931.9
99928.5
99924.9
99921.3
99917.6
99913.7
99909.7
99905.6
99901.3
99896.9
99892.4
99887.7
99882.9
99877.9
99872.8
99867.5
99862
99856.4
99850.5
99844.5
99838.3
99831.9
99825.3
99818.4
99811.4
99804.1
99796.5
99788.7
99780.7
99772.3
99763.7
99754.7
99745.4
99735.8
99725.8
99715.4
99704.6
99693.3
99681.6
99669.4
99656.6
99643.2
99629.1
99614.3
99598.8
99582.4
99565.1
99546.8
99527.5
99507
99485.3
99462.2
99438
99412.6
99386.3
99359.7
99334
99310.6
99291.4
99279.8
99281.3
99304.9
99367
99497.9
99759
100185
100829
99988.7
99990.9
99991.3
99991
99990.3
99989.4
99988.4
99987.3
99986.1
99984.9
99983.5
99982.1
99980.6
99979.1
99977.5
99975.8
99974
99972.2
99970.3
99968.3
99966.2
99964.1
99961.8
99959.5
99957.1
99954.6
99952
99949.3
99946.6
99943.7
99940.7
99937.7
99934.5
99931.2
99927.8
99924.3
99920.7
99917
99913.1
99909.1
99905
99900.8
99896.4
99891.9
99887.3
99882.5
99877.5
99872.4
99867.1
99861.7
99856.1
99850.3
99844.3
99838.1
99831.8
99825.2
99818.4
99811.4
99804.1
99796.6
99788.8
99780.8
99772.5
99763.9
99754.9
99745.7
99736.1
99726.1
99715.7
99704.9
99693.7
99682
99669.8
99657
99643.6
99629.5
99614.7
99599.2
99582.7
99565.4
99547
99527.5
99506.8
99484.9
99461.7
99437.1
99411.3
99384.4
99356.9
99329.8
99304.6
99282.7
99266.6
99260.1
99268.6
99303.1
99384.1
99560
99885.9
100518
99990.6
99991.9
99991.7
99991
99990.1
99989.1
99988
99986.9
99985.7
99984.4
99983
99981.6
99980.1
99978.5
99976.9
99975.2
99973.4
99971.6
99969.6
99967.6
99965.5
99963.4
99961.1
99958.8
99956.3
99953.8
99951.2
99948.5
99945.7
99942.9
99939.9
99936.8
99933.6
99930.3
99926.9
99923.4
99919.7
99916
99912.1
99908.1
99904
99899.8
99895.4
99890.9
99886.3
99881.5
99876.5
99871.4
99866.2
99860.7
99855.1
99849.4
99843.4
99837.3
99830.9
99824.4
99817.6
99810.6
99803.4
99796
99788.2
99780.3
99772
99763.4
99754.6
99745.4
99735.8
99725.9
99715.6
99704.8
99693.7
99682
99669.8
99657
99643.7
99629.6
99614.8
99599.2
99582.8
99565.4
99546.9
99527.4
99506.6
99484.6
99461.1
99436.3
99410.1
99382.6
99354.2
99325.7
99298.4
99273.7
99253.6
99239.4
99233.5
99241.2
99272.7
99355.7
99542.9
100111
99992.6
99992.8
99992.1
99991.1
99990
99989
99987.8
99986.6
99985.4
99984.1
99982.7
99981.3
99979.7
99978.2
99976.5
99974.8
99973
99971.1
99969.2
99967.2
99965.1
99962.9
99960.6
99958.2
99955.8
99953.3
99950.6
99947.9
99945.1
99942.2
99939.2
99936.1
99932.8
99929.5
99926.1
99922.5
99918.9
99915.1
99911.2
99907.2
99903.1
99898.8
99894.4
99889.9
99885.2
99880.4
99875.4
99870.2
99865
99859.5
99853.9
99848.1
99842.1
99835.9
99829.6
99823.1
99816.3
99809.3
99802.1
99794.6
99786.9
99778.9
99770.6
99762.1
99753.2
99744
99734.5
99724.6
99714.4
99703.7
99692.5
99680.9
99668.8
99656.1
99642.8
99628.8
99614.1
99598.5
99582.1
99564.7
99546.3
99526.7
99505.9
99483.8
99460.2
99435.2
99408.7
99380.7
99351.5
99321.7
99292.4
99265.1
99241.4
99221.6
99204.2
99189.7
99179.1
99175.1
99189.2
99595.1
99994.4
99993.7
99992.5
99991.3
99990.2
99989
99987.8
99986.6
99985.3
99984
99982.6
99981.2
99979.7
99978.1
99976.4
99974.7
99972.9
99971
99969.1
99967
99964.9
99962.7
99960.4
99958.1
99955.6
99953.1
99950.4
99947.7
99944.8
99941.9
99938.9
99935.7
99932.5
99929.2
99925.7
99922.1
99918.5
99914.7
99910.8
99906.7
99902.6
99898.3
99893.9
99889.3
99884.6
99879.7
99874.7
99869.6
99864.2
99858.8
99853.1
99847.3
99841.2
99835
99828.6
99822
99815.1
99808.1
99800.8
99793.3
99785.5
99777.5
99769.2
99760.6
99751.7
99742.5
99732.9
99722.9
99712.6
99701.9
99690.7
99679
99666.9
99654.1
99640.8
99626.7
99612
99596.4
99580
99562.5
99544.1
99524.5
99503.7
99481.5
99457.9
99432.8
99406.1
99377.8
99348
99317.3
99286.5
99257.3
99231.1
99208.7
99184.4
99154.5
99114.2
99044.2
98875.1
98941.3
99995.8
99994.4
99993
99991.7
99990.4
99989.2
99988
99986.8
99985.5
99984.2
99982.8
99981.4
99979.9
99978.3
99976.6
99974.9
99973.1
99971.2
99969.3
99967.2
99965.1
99962.9
99960.6
99958.3
99955.8
99953.3
99950.6
99947.9
99945
99942.1
99939.1
99935.9
99932.7
99929.3
99925.9
99922.3
99918.6
99914.9
99910.9
99906.9
99902.7
99898.4
99894
99889.4
99884.7
99879.8
99874.8
99869.6
99864.3
99858.8
99853.1
99847.3
99841.2
99835
99828.5
99821.8
99815
99807.9
99800.6
99793
99785.2
99777.1
99768.8
99760.1
99751.2
99741.9
99732.2
99722.2
99711.8
99701
99689.8
99678.1
99665.8
99652.9
99639.5
99625.3
99610.4
99594.7
99578.1
99560.5
99541.8
99522
99500.9
99478.5
99454.6
99429.2
99402.1
99373.2
99342.8
99311
99279
99248
99219.3
99194
99170.3
99136.6
99080.5
98971.9
98658.6
98065.7
99997.4
99995.1
99993.4
99992
99990.8
99989.6
99988.4
99987.2
99985.9
99984.6
99983.2
99981.8
99980.2
99978.7
99977
99975.3
99973.5
99971.6
99969.7
99967.7
99965.5
99963.4
99961.1
99958.7
99956.3
99953.7
99951.1
99948.3
99945.5
99942.6
99939.6
99936.4
99933.2
99929.9
99926.4
99922.9
99919.2
99915.4
99911.5
99907.5
99903.3
99899
99894.6
99890
99885.3
99880.4
99875.4
99870.3
99864.9
99859.4
99853.8
99847.9
99841.9
99835.7
99829.2
99822.6
99815.7
99808.6
99801.3
99793.7
99785.9
99777.9
99769.5
99760.8
99751.8
99742.5
99732.8
99722.8
99712.4
99701.6
99690.4
99678.6
99666.3
99653.5
99640
99625.8
99610.9
99595.1
99578.5
99560.8
99542.1
99522.2
99501.1
99478.6
99454.7
99429.1
99401.9
99372.9
99342.3
99310.4
99278.2
99247.4
99218.6
99192.4
99157.8
99119.6
99059.7
98939.7
98558.1
96893
100564
101840
102382
102692
102904
103062
103187
103287
103369
103436
103492
103537
103573
103602
103625
103641
103652
103658
103659
103656
100519
101544
102178
102578
102845
103036
103181
103294
103384
103456
103514
103560
103597
103626
103647
103662
103671
103675
103674
103667
100806
101576
102121
102518
102804
103015
103173
103296
103393
103469
103529
103577
103614
103642
103662
103676
103683
103686
103684
103673
101083
101709
102171
102531
102808
103020
103184
103311
103410
103489
103550
103597
103633
103660
103678
103690
103696
103696
103693
103677
101319
101850
102254
102580
102840
103045
103207
103334
103434
103512
103573
103619
103654
103678
103694
103703
103707
103706
103701
103680
101518
101982
102344
102643
102885
103081
103238
103363
103462
103538
103598
103642
103674
103696
103710
103716
103718
103715
103707
103682
101680
102095
102428
102705
102934
103121
103272
103394
103490
103565
103622
103665
103694
103714
103724
103728
103727
103723
103712
103684
101801
102183
102496
102758
102977
103157
103304
103422
103516
103590
103645
103686
103713
103730
103737
103739
103736
103729
103715
103685
101882
102244
102544
102798
103010
103187
103331
103447
103540
103612
103667
103705
103730
103744
103749
103748
103743
103734
103717
103688
101927
102279
102573
102822
103032
103207
103350
103465
103557
103628
103681
103719
103743
103755
103758
103755
103749
103738
103718
103693
101923
102276
102570
102819
103029
103204
103347
103463
103555
103626
103679
103717
103741
103753
103756
103754
103747
103737
103719
103692
101871
102233
102534
102788
103001
103178
103323
103440
103534
103606
103661
103701
103726
103741
103747
103746
103741
103732
103717
103691
101782
102166
102479
102743
102964
103145
103293
103412
103508
103582
103639
103680
103709
103726
103734
103736
103734
103727
103714
103690
101653
102071
102405
102685
102916
103105
103258
103381
103479
103555
103614
103658
103689
103709
103721
103725
103725
103720
103710
103687
101486
101952
102317
102618
102863
103062
103221
103348
103449
103527
103588
103634
103668
103691
103706
103713
103715
103713
103705
103683
101281
101815
102222
102551
102814
103023
103187
103317
103420
103500
103563
103611
103647
103672
103690
103700
103704
103704
103699
103681
101040
101670
102135
102500
102781
102996
103163
103293
103395
103476
103539
103588
103626
103654
103673
103686
103693
103694
103691
103677
100758
101532
102082
102485
102776
102990
103152
103278
103377
103455
103518
103567
103606
103635
103657
103672
103680
103683
103682
103673
100465
101498
102139
102545
102817
103012
103160
103276
103368
103442
103502
103551
103589
103619
103642
103658
103668
103672
103672
103666
100509
101796
102345
102660
102876
103038
103166
103269
103353
103422
103479
103526
103564
103595
103619
103636
103648
103655
103657
103654
103498
103496
103495
103494
103494
103493
103493
103492
103492
103492
103492
103492
103492
103493
103493
103494
103494
103495
103496
103498
103495
103493
103492
103492
103492
103491
103491
103491
103491
103491
103491
103491
103491
103491
103491
103492
103492
103492
103493
103495
103494
103492
103492
103492
103492
103492
103492
103492
103492
103492
103492
103492
103492
103492
103492
103492
103492
103492
103492
103494
103494
103493
103492
103492
103492
103492
103492
103492
103492
103492
103492
103492
103492
103492
103492
103492
103492
103492
103493
103494
103494
103492
103492
103492
103492
103492
103492
103492
103492
103492
103492
103492
103492
103492
103492
103492
103492
103492
103492
103494
103493
103491
103491
103491
103491
103491
103491
103491
103491
103491
103491
103491
103491
103491
103491
103491
103491
103491
103491
103493
103493
103491
103491
103491
103491
103490
103490
103490
103490
103490
103490
103490
103490
103490
103490
103491
103491
103491
103491
103493
103492
103490
103490
103490
103490
103490
103490
103490
103490
103490
103490
103490
103490
103490
103490
103490
103490
103490
103490
103492
103491
103490
103489
103489
103489
103489
103489
103489
103489
103489
103489
103489
103489
103489
103489
103489
103489
103489
103490
103491
103491
103489
103489
103489
103489
103489
103488
103488
103488
103488
103488
103488
103488
103488
103489
103489
103489
103489
103489
103491
103490
103488
103488
103488
103488
103488
103488
103488
103488
103488
103488
103488
103488
103488
103488
103488
103488
103488
103488
103490
103489
103488
103487
103487
103487
103487
103487
103487
103487
103487
103487
103487
103487
103487
103487
103487
103487
103487
103488
103489
103488
103487
103487
103487
103486
103486
103486
103486
103486
103486
103486
103486
103486
103486
103486
103486
103487
103487
103487
103488
103488
103486
103486
103486
103486
103486
103486
103486
103486
103486
103486
103486
103486
103486
103486
103486
103486
103486
103486
103488
103487
103485
103485
103485
103485
103485
103485
103485
103485
103485
103485
103485
103485
103485
103485
103485
103485
103485
103485
103487
103486
103485
103484
103484
103484
103484
103484
103484
103484
103484
103484
103484
103484
103484
103484
103484
103484
103484
103485
103486
103485
103484
103484
103484
103483
103483
103483
103483
103483
103483
103483
103483
103483
103483
103483
103483
103484
103484
103484
103485
103484
103483
103483
103483
103483
103483
103483
103483
103483
103483
103483
103483
103483
103483
103483
103483
103483
103483
103483
103484
103484
103482
103482
103482
103482
103482
103482
103482
103482
103482
103482
103482
103482
103482
103482
103482
103482
103482
103482
103484
103483
103481
103481
103481
103481
103481
103481
103481
103481
103481
103481
103481
103481
103481
103481
103481
103481
103481
103481
103483
103482
103481
103480
103480
103480
103480
103480
103480
103480
103480
103480
103480
103480
103480
103480
103480
103480
103480
103481
103482
103481
103480
103480
103480
103480
103480
103479
103479
103479
103479
103479
103479
103479
103479
103480
103480
103480
103480
103480
103481
103480
103479
103479
103479
103479
103479
103479
103479
103479
103479
103479
103479
103479
103479
103479
103479
103479
103479
103479
103480
103479
103478
103478
103478
103478
103478
103478
103478
103478
103478
103478
103478
103478
103478
103478
103478
103478
103478
103478
103479
103479
103477
103477
103477
103477
103477
103477
103477
103477
103477
103477
103477
103477
103477
103477
103477
103477
103477
103477
103479
103478
103477
103476
103476
103476
103476
103476
103476
103476
103476
103476
103476
103476
103476
103476
103476
103476
103476
103477
103478
103477
103476
103476
103476
103476
103476
103475
103475
103475
103475
103475
103475
103475
103475
103476
103476
103476
103476
103476
103477
103476
103475
103475
103475
103475
103475
103475
103475
103475
103475
103475
103475
103475
103475
103475
103475
103475
103475
103475
103476
103475
103474
103474
103474
103474
103474
103474
103474
103474
103474
103474
103474
103474
103474
103474
103474
103474
103474
103474
103475
103474
103473
103473
103473
103473
103473
103473
103473
103473
103473
103473
103473
103473
103473
103473
103473
103473
103473
103473
103474
103473
103473
103472
103472
103472
103472
103472
103472
103472
103472
103472
103472
103472
103472
103472
103472
103472
103472
103473
103473
103473
103472
103472
103472
103472
103472
103471
103471
103471
103471
103471
103471
103471
103471
103472
103472
103472
103472
103472
103473
103472
103471
103471
103471
103471
103471
103471
103471
103471
103471
103471
103471
103471
103471
103471
103471
103471
103471
103471
103472
103471
103470
103470
103470
103470
103470
103470
103470
103470
103470
103470
103470
103470
103470
103470
103470
103470
103470
103470
103471
103470
103469
103469
103469
103469
103469
103469
103469
103469
103469
103469
103469
103469
103469
103469
103469
103469
103469
103469
103470
103469
103469
103468
103468
103468
103468
103468
103468
103468
103468
103468
103468
103468
103468
103468
103468
103468
103468
103469
103469
103468
103468
103468
103468
103468
103468
103468
103468
103467
103467
103467
103467
103468
103468
103468
103468
103468
103468
103468
103468
103468
103467
103467
103467
103467
103467
103467
103467
103467
103467
103467
103467
103467
103467
103467
103467
103467
103467
103467
103468
103467
103466
103466
103466
103466
103466
103466
103466
103466
103466
103466
103466
103466
103466
103466
103466
103466
103466
103466
103467
103466
103466
103465
103465
103465
103465
103465
103465
103465
103465
103465
103465
103465
103465
103465
103465
103465
103465
103466
103466
103465
103465
103465
103465
103465
103464
103464
103464
103464
103464
103464
103464
103464
103464
103464
103465
103465
103465
103465
103465
103464
103464
103464
103464
103464
103464
103464
103464
103464
103464
103464
103464
103464
103464
103464
103464
103464
103464
103464
103464
103464
103463
103463
103463
103463
103463
103463
103463
103463
103463
103463
103463
103463
103463
103463
103463
103463
103463
103463
103464
103463
103462
103462
103462
103462
103462
103462
103462
103462
103462
103462
103462
103462
103462
103462
103462
103462
103462
103462
103463
103462
103462
103462
103462
103462
103461
103461
103461
103461
103461
103461
103461
103461
103461
103461
103462
103462
103462
103462
103462
103461
103461
103461
103461
103461
103461
103461
103461
103461
103461
103461
103461
103461
103461
103461
103461
103461
103461
103461
103461
103461
103460
103460
103460
103460
103460
103460
103460
103460
103460
103460
103460
103460
103460
103460
103460
103460
103460
103460
103461
103460
103460
103459
103459
103459
103459
103459
103459
103459
103459
103459
103459
103459
103459
103459
103459
103459
103459
103460
103460
103459
103459
103459
103459
103459
103459
103459
103459
103459
103458
103458
103459
103459
103459
103459
103459
103459
103459
103459
103459
103458
103458
103458
103458
103458
103458
103458
103458
103458
103458
103458
103458
103458
103458
103458
103458
103458
103458
103458
103458
103458
103457
103457
103457
103457
103457
103457
103457
103457
103457
103457
103457
103457
103457
103457
103457
103457
103457
103457
103458
103457
103457
103457
103456
103456
103456
103456
103456
103456
103456
103456
103456
103456
103456
103456
103456
103456
103457
103457
103457
103456
103456
103456
103456
103456
103456
103456
103456
103456
103456
103456
103456
103456
103456
103456
103456
103456
103456
103456
103456
103455
103455
103455
103455
103455
103455
103455
103455
103455
103455
103455
103455
103455
103455
103455
103455
103455
103455
103455
103455
103455
103455
103454
103454
103454
103454
103454
103454
103454
103454
103454
103454
103454
103454
103454
103454
103454
103454
103455
103455
103454
103454
103454
103454
103454
103454
103454
103454
103454
103454
103454
103454
103454
103454
103454
103454
103454
103454
103454
103454
103453
103453
103453
103453
103453
103453
103453
103453
103453
103453
103453
103453
103453
103453
103453
103453
103453
103453
103453
103453
103453
103452
103452
103452
103452
103452
103452
103452
103452
103452
103452
103452
103452
103452
103452
103452
103452
103452
103452
103453
103452
103452
103452
103452
103452
103452
103452
103452
103452
103452
103452
103452
103452
103452
103452
103452
103452
103452
103452
103452
103451
103451
103451
103451
103451
103451
103451
103451
103451
103451
103451
103451
103451
103451
103451
103451
103451
103451
103451
103451
103451
103450
103450
103450
103450
103450
103450
103450
103450
103450
103450
103450
103450
103450
103450
103450
103450
103450
103450
103451
103450
103450
103450
103450
103450
103450
103450
103450
103450
103450
103450
103450
103450
103450
103450
103450
103450
103450
103450
103450
103449
103449
103449
103449
103449
103449
103449
103449
103449
103449
103449
103449
103449
103449
103449
103449
103449
103449
103449
103449
103448
103448
103448
103448
103448
103448
103448
103448
103448
103448
103448
103448
103448
103448
103448
103448
103448
103448
103448
103449
103448
103448
103448
103448
103448
103448
103448
103448
103448
103448
103448
103448
103448
103448
103448
103448
103448
103448
103448
103448
103447
103447
103447
103447
103447
103447
103447
103447
103447
103447
103447
103447
103447
103447
103447
103447
103447
103447
103447
103447
103446
103446
103446
103446
103446
103446
103446
103446
103446
103446
103446
103446
103446
103446
103446
103446
103446
103446
103447
103447
103446
103446
103446
103446
103446
103446
103446
103446
103446
103446
103446
103446
103446
103446
103446
103446
103446
103446
103446
103446
103445
103445
103445
103445
103445
103445
103445
103445
103445
103445
103445
103445
103445
103445
103445
103445
103445
103445
103445
103445
103444
103444
103444
103444
103444
103444
103444
103444
103444
103444
103444
103444
103444
103444
103444
103445
103445
103445
103445
103445
103444
103444
103444
103444
103444
103444
103444
103444
103444
103444
103444
103444
103444
103444
103444
103444
103444
103444
103444
103444
103443
103443
103443
103443
103443
103443
103443
103443
103443
103443
103443
103443
103443
103443
103443
103443
103443
103443
103444
103444
103442
103442
103442
103442
103442
103442
103442
103442
103442
103442
103442
103443
103443
103443
103443
103443
103443
103443
103443
103443
103442
103442
103442
103442
103442
103442
103442
103442
103442
103442
103442
103442
103442
103442
103442
103442
103442
103442
103442
103442
103441
103441
103441
103441
103441
103441
103441
103441
103441
103441
103441
103441
103441
103442
103442
103442
103442
103442
103442
103442
103440
103440
103440
103440
103440
103440
103440
103440
103440
103441
103441
103441
103441
103441
103441
103441
103441
103441
103441
103441
103439
103439
103439
103439
103439
103439
103440
103440
103440
103440
103440
103440
103440
103440
103441
103441
103441
103441