/*--------------------------------*- C++ -*----------------------------------*\
| =========                 |                                                 |
| \\      /  F ield         | OpenFOAM: The Open Source CFD Toolbox           |
|  \\    /   O peration     | Version:  2.1.0                                 |
|   \\  /    A nd           | Web:      www.OpenFOAM.org                      |
|    \\/     M anipulation  |                                                 |
\*---------------------------------------------------------------------------*/
FoamFile
{
    version     2.0;
    format      ascii;
    class       surfaceScalarField;
    location    "0.3";
    object      phi;
}
// * * * * * * * * * * * * * * * * * * * * * * * * * * * * * * * * * * * * * //

dimensions      [0 3 -1 0 0 0 0];

internalField   nonuniform List<scalar> 
12460
(
-2.49997e-05
-1.96421e-10
-2.49762e-05
-3.25774e-08
-2.49318e-05
-5.37474e-08
-2.48769e-05
-6.46039e-08
-2.48158e-05
-7.10003e-08
-2.47507e-05
-7.53725e-08
-2.46826e-05
-7.85992e-08
-2.46123e-05
-8.12263e-08
-2.45399e-05
-8.35147e-08
-2.44657e-05
-8.56451e-08
-2.43897e-05
-8.77044e-08
-2.43119e-05
-8.97497e-08
-2.42324e-05
-9.18119e-08
-2.41509e-05
-9.39061e-08
-2.40676e-05
-9.6046e-08
-2.39824e-05
-9.82309e-08
-2.38951e-05
-1.0047e-07
-2.38057e-05
-1.02758e-07
-2.37141e-05
-1.051e-07
-2.36203e-05
-1.07469e-07
-2.35243e-05
-1.0987e-07
-2.3426e-05
-1.12341e-07
-2.33251e-05
-1.14922e-07
-2.32217e-05
-1.17563e-07
-2.31157e-05
-1.20258e-07
-2.30071e-05
-1.23e-07
-2.28956e-05
-1.2579e-07
-2.27813e-05
-1.28627e-07
-2.26642e-05
-1.3152e-07
-2.25441e-05
-1.34464e-07
-2.24209e-05
-1.3747e-07
-2.22946e-05
-1.40537e-07
-2.21652e-05
-1.43675e-07
-2.20324e-05
-1.46886e-07
-2.18962e-05
-1.50184e-07
-2.17565e-05
-1.53569e-07
-2.16133e-05
-1.57045e-07
-2.14663e-05
-1.60635e-07
-2.13154e-05
-1.64346e-07
-2.11606e-05
-1.68182e-07
-2.10016e-05
-1.7216e-07
-2.08383e-05
-1.76281e-07
-2.06705e-05
-1.80553e-07
-2.04981e-05
-1.84982e-07
-2.03209e-05
-1.89572e-07
-2.01387e-05
-1.94319e-07
-1.99514e-05
-1.99221e-07
-1.97588e-05
-2.04282e-07
-1.95608e-05
-2.09479e-07
-1.93573e-05
-2.14676e-07
-1.91481e-05
-2.20126e-07
-1.89328e-05
-2.26035e-07
-1.87112e-05
-2.32093e-07
-1.84834e-05
-2.3801e-07
-1.82497e-05
-2.43678e-07
-1.80102e-05
-2.49258e-07
-1.77648e-05
-2.54906e-07
-1.75134e-05
-2.60687e-07
-1.72558e-05
-2.66639e-07
-1.69919e-05
-2.72748e-07
-1.67214e-05
-2.79062e-07
-1.64441e-05
-2.85624e-07
-1.61598e-05
-2.92437e-07
-1.58681e-05
-2.99532e-07
-1.55689e-05
-3.06928e-07
-1.52616e-05
-3.14681e-07
-1.4946e-05
-3.22837e-07
-1.46215e-05
-3.31436e-07
-1.42878e-05
-3.40496e-07
-1.39443e-05
-3.50059e-07
-1.35904e-05
-3.60172e-07
-1.32257e-05
-3.70878e-07
-1.28493e-05
-3.82232e-07
-1.24607e-05
-3.94302e-07
-1.2059e-05
-4.07176e-07
-1.16433e-05
-4.20968e-07
-1.12126e-05
-4.3582e-07
-1.07655e-05
-4.51918e-07
-1.03007e-05
-4.6954e-07
-9.81609e-06
-4.89039e-07
-9.3095e-06
-5.1085e-07
-8.77802e-06
-5.35535e-07
-8.21807e-06
-5.63777e-07
-7.62541e-06
-5.96251e-07
-6.99536e-06
-6.33398e-07
-6.32301e-06
-6.75428e-07
-5.60377e-06
-7.22027e-07
-4.8346e-06
-7.71652e-07
-4.01635e-06
-8.2038e-07
-3.15847e-06
-8.59638e-07
-2.2878e-06
-8.71994e-07
-1.46586e-06
-8.22826e-07
-7.9848e-07
-6.67831e-07
-3.9548e-07
-4.03178e-07
-2.91013e-07
-1.05153e-07
-5.3993e-07
2.46184e-07
-1.43344e-06
8.87887e-07
-3.72612e-06
2.28932e-06
-9.29364e-06
5.56686e-06
1.54899e-05
-2.47837e-05
-3.02554e-05
-1.55898e-08
-3.02244e-05
-7.87088e-08
-3.01805e-05
-1.13174e-07
-3.01289e-05
-1.32164e-07
-3.00723e-05
-1.43959e-07
-3.00122e-05
-1.52145e-07
-2.99496e-05
-1.5826e-07
-2.98849e-05
-1.63265e-07
-2.98185e-05
-1.67653e-07
-2.97504e-05
-1.71744e-07
-2.96807e-05
-1.75705e-07
-2.96094e-05
-1.79636e-07
-2.95364e-05
-1.836e-07
-2.94617e-05
-1.8762e-07
-2.93852e-05
-1.91722e-07
-2.9307e-05
-1.95901e-07
-2.92269e-05
-2.00174e-07
-2.91448e-05
-2.04522e-07
-2.90608e-05
-2.08959e-07
-2.89748e-05
-2.13426e-07
-2.88867e-05
-2.17893e-07
-2.87967e-05
-2.22445e-07
-2.87045e-05
-2.27173e-07
-2.86102e-05
-2.3197e-07
-2.85136e-05
-2.36833e-07
-2.84149e-05
-2.41758e-07
-2.83139e-05
-2.46745e-07
-2.82106e-05
-2.51796e-07
-2.8105e-05
-2.56918e-07
-2.79971e-05
-2.62108e-07
-2.78867e-05
-2.67382e-07
-2.77739e-05
-2.72739e-07
-2.76586e-05
-2.78193e-07
-2.75409e-05
-2.8375e-07
-2.74205e-05
-2.89432e-07
-2.72975e-05
-2.95244e-07
-2.71718e-05
-3.01184e-07
-2.70434e-05
-3.07285e-07
-2.69122e-05
-3.1356e-07
-2.67782e-05
-3.2002e-07
-2.66412e-05
-3.26693e-07
-2.65011e-05
-3.33586e-07
-2.6358e-05
-3.40718e-07
-2.62116e-05
-3.48104e-07
-2.60619e-05
-3.55762e-07
-2.59087e-05
-3.63697e-07
-2.57519e-05
-3.71921e-07
-2.55913e-05
-3.80448e-07
-2.54268e-05
-3.89274e-07
-2.52584e-05
-3.98165e-07
-2.50862e-05
-4.07067e-07
-2.49106e-05
-4.16022e-07
-2.4732e-05
-4.24955e-07
-2.45501e-05
-4.33916e-07
-2.43646e-05
-4.42797e-07
-2.41757e-05
-4.5163e-07
-2.39832e-05
-4.6055e-07
-2.37872e-05
-4.69638e-07
-2.35875e-05
-4.7895e-07
-2.33842e-05
-4.88513e-07
-2.3177e-05
-4.98364e-07
-2.2966e-05
-5.0853e-07
-2.27511e-05
-5.19018e-07
-2.25322e-05
-5.29859e-07
-2.23092e-05
-5.41094e-07
-2.20821e-05
-5.52787e-07
-2.18507e-05
-5.65001e-07
-2.16148e-05
-5.77823e-07
-2.13743e-05
-5.91312e-07
-2.11289e-05
-6.05551e-07
-2.08783e-05
-6.20641e-07
-2.06222e-05
-6.36685e-07
-2.03601e-05
-6.53807e-07
-2.00915e-05
-6.7216e-07
-1.98158e-05
-6.91931e-07
-1.95323e-05
-7.13347e-07
-1.924e-05
-7.3668e-07
-1.89381e-05
-7.62258e-07
-1.86254e-05
-7.90537e-07
-1.83004e-05
-8.22079e-07
-1.79616e-05
-8.57522e-07
-1.76071e-05
-8.97632e-07
-1.72351e-05
-9.43298e-07
-1.68432e-05
-9.95439e-07
-1.64292e-05
-1.05464e-06
-1.59906e-05
-1.12101e-06
-1.55259e-05
-1.19374e-06
-1.50345e-05
-1.27001e-06
-1.45185e-05
-1.34348e-06
-1.39839e-05
-1.40138e-06
-1.34436e-05
-1.41984e-06
-1.29169e-05
-1.35753e-06
-1.24373e-05
-1.15616e-06
-1.20882e-05
-7.6151e-07
-1.2104e-05
-9.78768e-08
-1.26222e-05
7.57871e-07
-1.39831e-05
2.2432e-06
-1.67007e-05
5.00413e-06
-2.18137e-05
1.06793e-05
2.65469e-05
-3.28708e-05
-3.32559e-05
-3.93016e-08
-3.32345e-05
-1.19819e-07
-3.32033e-05
-1.64763e-07
-3.31656e-05
-1.90593e-07
-3.31238e-05
-2.06923e-07
-3.30791e-05
-2.18298e-07
-3.30324e-05
-2.26775e-07
-3.29841e-05
-2.33718e-07
-3.29345e-05
-2.39767e-07
-3.28836e-05
-2.45407e-07
-3.28315e-05
-2.50832e-07
-3.27781e-05
-2.56222e-07
-3.27236e-05
-2.6163e-07
-3.26677e-05
-2.67125e-07
-3.26105e-05
-2.72719e-07
-3.25519e-05
-2.78436e-07
-3.24917e-05
-2.8428e-07
-3.24301e-05
-2.9026e-07
-3.23668e-05
-2.96381e-07
-3.23017e-05
-3.0259e-07
-3.22349e-05
-3.08819e-07
-3.21663e-05
-3.15052e-07
-3.20962e-05
-3.21321e-07
-3.20245e-05
-3.27603e-07
-3.19512e-05
-3.33922e-07
-3.18764e-05
-3.40292e-07
-3.18e-05
-3.46705e-07
-3.1722e-05
-3.5317e-07
-3.16424e-05
-3.59686e-07
-3.15613e-05
-3.66253e-07
-3.14786e-05
-3.72883e-07
-3.13943e-05
-3.79575e-07
-3.13085e-05
-3.86345e-07
-3.12211e-05
-3.93191e-07
-3.11322e-05
-4.00133e-07
-3.10417e-05
-4.07191e-07
-3.09498e-05
-4.14337e-07
-3.08564e-05
-4.21609e-07
-3.07616e-05
-4.2902e-07
-3.06653e-05
-4.36571e-07
-3.05678e-05
-4.44293e-07
-3.04688e-05
-4.52184e-07
-3.03686e-05
-4.60264e-07
-3.02672e-05
-4.68539e-07
-3.01647e-05
-4.77027e-07
-3.0061e-05
-4.85725e-07
-2.99564e-05
-4.94641e-07
-2.98508e-05
-5.03754e-07
-2.97445e-05
-5.13021e-07
-2.96373e-05
-5.22374e-07
-2.95294e-05
-5.31708e-07
-2.94211e-05
-5.40818e-07
-2.93124e-05
-5.4972e-07
-2.92035e-05
-5.58679e-07
-2.9094e-05
-5.67699e-07
-2.89841e-05
-5.76676e-07
-2.88738e-05
-5.85648e-07
-2.87632e-05
-5.94665e-07
-2.86525e-05
-6.03754e-07
-2.85419e-05
-6.12953e-07
-2.84314e-05
-6.22296e-07
-2.83213e-05
-6.31778e-07
-2.82118e-05
-6.41387e-07
-2.8103e-05
-6.51112e-07
-2.79954e-05
-6.60984e-07
-2.7889e-05
-6.71039e-07
-2.77843e-05
-6.81312e-07
-2.76816e-05
-6.91875e-07
-2.75811e-05
-7.02792e-07
-2.74832e-05
-7.14137e-07
-2.73882e-05
-7.26012e-07
-2.72964e-05
-7.38527e-07
-2.72081e-05
-7.51827e-07
-2.71236e-05
-7.66105e-07
-2.70431e-05
-7.81602e-07
-2.69666e-05
-7.98624e-07
-2.68943e-05
-8.17545e-07
-2.68259e-05
-8.38794e-07
-2.67614e-05
-8.62973e-07
-2.67002e-05
-8.90832e-07
-2.66417e-05
-9.23173e-07
-2.65854e-05
-9.60902e-07
-2.65303e-05
-1.00501e-06
-2.64756e-05
-1.05646e-06
-2.64204e-05
-1.11591e-06
-2.63638e-05
-1.18338e-06
-2.63055e-05
-1.25756e-06
-2.62461e-05
-1.33476e-06
-2.61875e-05
-1.4071e-06
-2.61342e-05
-1.45956e-06
-2.60928e-05
-1.46576e-06
-2.60718e-05
-1.38271e-06
-2.60841e-05
-1.14736e-06
-2.61677e-05
-6.8052e-07
-2.63579e-05
9.07643e-08
-2.68571e-05
1.25605e-06
-2.7868e-05
3.25314e-06
-2.97808e-05
6.9163e-06
-3.33175e-05
1.42157e-05
3.1162e-05
-3.79328e-05
-3.59992e-05
-6.38791e-08
-3.59927e-05
-1.50607e-07
-3.59805e-05
-2.01971e-07
-3.59637e-05
-2.32854e-07
-3.59438e-05
-2.52683e-07
-3.59218e-05
-2.66406e-07
-3.58985e-05
-2.76538e-07
-3.58743e-05
-2.8473e-07
-3.58493e-05
-2.91766e-07
-3.58238e-05
-2.9825e-07
-3.57977e-05
-3.04411e-07
-3.57711e-05
-3.10482e-07
-3.5744e-05
-3.16518e-07
-3.57165e-05
-3.22614e-07
-3.56885e-05
-3.28773e-07
-3.566e-05
-3.35036e-07
-3.56311e-05
-3.41394e-07
-3.56016e-05
-3.47873e-07
-3.55717e-05
-3.54453e-07
-3.55413e-05
-3.6105e-07
-3.55104e-05
-3.67695e-07
-3.54789e-05
-3.744e-07
-3.54469e-05
-3.81069e-07
-3.54144e-05
-3.87696e-07
-3.53814e-05
-3.94311e-07
-3.53479e-05
-4.00931e-07
-3.5314e-05
-4.07543e-07
-3.52796e-05
-4.14156e-07
-3.5245e-05
-4.20762e-07
-3.521e-05
-4.27359e-07
-3.51747e-05
-4.33954e-07
-3.51392e-05
-4.4054e-07
-3.51035e-05
-4.47129e-07
-3.50678e-05
-4.53711e-07
-3.5032e-05
-4.60292e-07
-3.49963e-05
-4.66884e-07
-3.49608e-05
-4.73471e-07
-3.49256e-05
-4.80075e-07
-3.48908e-05
-4.86685e-07
-3.48565e-05
-4.93299e-07
-3.48229e-05
-4.9993e-07
-3.47901e-05
-5.06568e-07
-3.47584e-05
-5.13214e-07
-3.47278e-05
-5.19858e-07
-3.46987e-05
-5.26499e-07
-3.46712e-05
-5.33115e-07
-3.46456e-05
-5.39699e-07
-3.46221e-05
-5.46202e-07
-3.46012e-05
-5.52543e-07
-3.4583e-05
-5.58779e-07
-3.45673e-05
-5.65099e-07
-3.4554e-05
-5.71369e-07
-3.4543e-05
-5.77421e-07
-3.45346e-05
-5.83327e-07
-3.45291e-05
-5.89075e-07
-3.45264e-05
-5.94603e-07
-3.4527e-05
-5.99898e-07
-3.4531e-05
-6.04986e-07
-3.45387e-05
-6.09863e-07
-3.45505e-05
-6.14538e-07
-3.45666e-05
-6.19065e-07
-3.45873e-05
-6.23464e-07
-3.46129e-05
-6.27702e-07
-3.46437e-05
-6.31754e-07
-3.468e-05
-6.35646e-07
-3.4722e-05
-6.39426e-07
-3.47701e-05
-6.43159e-07
-3.48245e-05
-6.46929e-07
-3.48854e-05
-6.50834e-07
-3.4953e-05
-6.54989e-07
-3.50274e-05
-6.59547e-07
-3.51087e-05
-6.64698e-07
-3.51969e-05
-6.7067e-07
-3.52918e-05
-6.77752e-07
-3.53931e-05
-6.86304e-07
-3.55006e-05
-6.96768e-07
-3.56136e-05
-7.09679e-07
-3.57315e-05
-7.25581e-07
-3.58536e-05
-7.45215e-07
-3.59788e-05
-7.6951e-07
-3.61061e-05
-7.99372e-07
-3.62344e-05
-8.35761e-07
-3.63625e-05
-8.79692e-07
-3.64894e-05
-9.32068e-07
-3.66142e-05
-9.9335e-07
-3.67364e-05
-1.06318e-06
-3.6856e-05
-1.1397e-06
-3.69738e-05
-1.21847e-06
-3.70915e-05
-1.29069e-06
-3.72116e-05
-1.34056e-06
-3.73365e-05
-1.34175e-06
-3.74663e-05
-1.25363e-06
-3.76003e-05
-1.01398e-06
-3.77389e-05
-5.42328e-07
-3.78885e-05
2.40018e-07
-3.81677e-05
1.53509e-06
-3.8712e-05
3.79715e-06
-3.96906e-05
7.89469e-06
-4.12871e-05
1.58121e-05
3.12145e-05
-4.13398e-05
-3.88147e-05
-8.21166e-08
-3.88279e-05
-1.66269e-07
-3.88408e-05
-2.18671e-07
-3.88522e-05
-2.51492e-07
-3.88623e-05
-2.72877e-07
-3.88719e-05
-2.87475e-07
-3.88812e-05
-2.98122e-07
-3.88907e-05
-3.06476e-07
-3.89003e-05
-3.13514e-07
-3.89103e-05
-3.19805e-07
-3.89207e-05
-3.25682e-07
-3.89316e-05
-3.31338e-07
-3.89431e-05
-3.36881e-07
-3.89552e-05
-3.42374e-07
-3.89681e-05
-3.47848e-07
-3.89817e-05
-3.53317e-07
-3.89961e-05
-3.58781e-07
-3.90115e-05
-3.64244e-07
-3.90278e-05
-3.69706e-07
-3.90453e-05
-3.75046e-07
-3.90639e-05
-3.8035e-07
-3.90836e-05
-3.85785e-07
-3.91042e-05
-3.91274e-07
-3.91257e-05
-3.96698e-07
-3.91481e-05
-4.02044e-07
-3.91716e-05
-4.0732e-07
-3.91961e-05
-4.12511e-07
-3.92217e-05
-4.17624e-07
-3.92485e-05
-4.22643e-07
-3.92765e-05
-4.27566e-07
-3.93059e-05
-4.32391e-07
-3.93367e-05
-4.37109e-07
-3.93689e-05
-4.41723e-07
-3.94028e-05
-4.46224e-07
-3.94383e-05
-4.50618e-07
-3.94756e-05
-4.54883e-07
-3.95149e-05
-4.59024e-07
-3.95561e-05
-4.6306e-07
-3.95995e-05
-4.66964e-07
-3.96452e-05
-4.70739e-07
-3.96933e-05
-4.7439e-07
-3.97439e-05
-4.7791e-07
-3.97972e-05
-4.81296e-07
-3.98532e-05
-4.84545e-07
-3.99122e-05
-4.87655e-07
-3.99742e-05
-4.90613e-07
-4.00394e-05
-4.93421e-07
-4.01078e-05
-4.9605e-07
-4.01795e-05
-4.98461e-07
-4.02545e-05
-5.00702e-07
-4.0333e-05
-5.0287e-07
-4.04152e-05
-5.04882e-07
-4.05009e-05
-5.06646e-07
-4.05904e-05
-5.08157e-07
-4.06837e-05
-5.09406e-07
-4.0781e-05
-5.10372e-07
-4.08822e-05
-5.11054e-07
-4.09874e-05
-5.11482e-07
-4.10966e-05
-5.1167e-07
-4.12099e-05
-5.11661e-07
-4.13273e-05
-5.1153e-07
-4.14486e-05
-5.11346e-07
-4.15738e-05
-5.11094e-07
-4.17028e-05
-5.1074e-07
-4.18355e-05
-5.10332e-07
-4.19718e-05
-5.09952e-07
-4.21116e-05
-5.09699e-07
-4.22546e-05
-5.09675e-07
-4.24008e-05
-5.09998e-07
-4.25497e-05
-5.10807e-07
-4.27014e-05
-5.12265e-07
-4.28554e-05
-5.14576e-07
-4.30117e-05
-5.17981e-07
-4.31698e-05
-5.22772e-07
-4.33296e-05
-5.29314e-07
-4.34909e-05
-5.38043e-07
-4.36532e-05
-5.49554e-07
-4.38164e-05
-5.64337e-07
-4.39802e-05
-5.83103e-07
-4.41443e-05
-6.06884e-07
-4.43085e-05
-6.36558e-07
-4.44723e-05
-6.7302e-07
-4.46358e-05
-7.17237e-07
-4.47987e-05
-7.70026e-07
-4.49611e-05
-8.31708e-07
-4.51232e-05
-9.01715e-07
-4.52855e-05
-9.77983e-07
-4.54485e-05
-1.05591e-06
-4.56129e-05
-1.12675e-06
-4.57784e-05
-1.17539e-06
-4.59429e-05
-1.17752e-06
-4.61e-05
-1.0968e-06
-4.62353e-05
-8.7893e-07
-4.63288e-05
-4.48973e-07
-4.63822e-05
2.93276e-07
-4.6429e-05
1.58177e-06
-4.64918e-05
3.8598e-06
-4.65708e-05
7.9735e-06
-4.63416e-05
1.55826e-05
2.83792e-05
-4.35066e-05
-4.18389e-05
-8.82414e-08
-4.18757e-05
-1.62107e-07
-4.19183e-05
-2.09579e-07
-4.19635e-05
-2.40123e-07
-4.20102e-05
-2.60141e-07
-4.20584e-05
-2.73571e-07
-4.21078e-05
-2.83128e-07
-4.21585e-05
-2.90313e-07
-4.22104e-05
-2.96138e-07
-4.22638e-05
-3.01108e-07
-4.23185e-05
-3.05598e-07
-4.23747e-05
-3.09762e-07
-4.24324e-05
-3.13741e-07
-4.24916e-05
-3.17572e-07
-4.25523e-05
-3.21307e-07
-4.26147e-05
-3.24947e-07
-4.26788e-05
-3.28506e-07
-4.27446e-05
-3.31974e-07
-4.28121e-05
-3.35398e-07
-4.28814e-05
-3.38635e-07
-4.29525e-05
-3.41729e-07
-4.30255e-05
-3.44874e-07
-4.31003e-05
-3.48019e-07
-4.31771e-05
-3.51066e-07
-4.32558e-05
-3.53988e-07
-4.33364e-05
-3.56788e-07
-4.3419e-05
-3.59456e-07
-4.35036e-05
-3.61999e-07
-4.35902e-05
-3.64405e-07
-4.36789e-05
-3.66672e-07
-4.37697e-05
-3.68801e-07
-4.38625e-05
-3.70788e-07
-4.39574e-05
-3.7264e-07
-4.40545e-05
-3.7435e-07
-4.41537e-05
-3.75939e-07
-4.4255e-05
-3.77376e-07
-4.43585e-05
-3.78663e-07
-4.44642e-05
-3.79829e-07
-4.45721e-05
-3.8087e-07
-4.4682e-05
-3.81784e-07
-4.47942e-05
-3.82587e-07
-4.49084e-05
-3.83277e-07
-4.50248e-05
-3.8386e-07
-4.51431e-05
-3.84339e-07
-4.52636e-05
-3.84722e-07
-4.53859e-05
-3.85002e-07
-4.55102e-05
-3.8519e-07
-4.56364e-05
-3.85266e-07
-4.57643e-05
-3.85218e-07
-4.5894e-05
-3.85084e-07
-4.60253e-05
-3.84913e-07
-4.61582e-05
-3.84661e-07
-4.62926e-05
-3.84292e-07
-4.64284e-05
-3.83785e-07
-4.65655e-05
-3.83129e-07
-4.67038e-05
-3.82309e-07
-4.68432e-05
-3.81326e-07
-4.69836e-05
-3.80203e-07
-4.71249e-05
-3.78952e-07
-4.7267e-05
-3.77606e-07
-4.74098e-05
-3.76243e-07
-4.75533e-05
-3.74965e-07
-4.76972e-05
-3.73744e-07
-4.78416e-05
-3.72483e-07
-4.79865e-05
-3.71204e-07
-4.81319e-05
-3.70005e-07
-4.82776e-05
-3.68986e-07
-4.84237e-05
-3.68231e-07
-4.85701e-05
-3.67851e-07
-4.87169e-05
-3.67972e-07
-4.88642e-05
-3.68747e-07
-4.90118e-05
-3.70356e-07
-4.916e-05
-3.73039e-07
-4.93086e-05
-3.77083e-07
-4.94578e-05
-3.8285e-07
-4.96075e-05
-3.90769e-07
-4.9758e-05
-4.01425e-07
-4.99091e-05
-4.15346e-07
-5.0061e-05
-4.33096e-07
-5.02142e-05
-4.55539e-07
-5.03687e-05
-4.83635e-07
-5.05249e-05
-5.18345e-07
-5.06829e-05
-5.60595e-07
-5.0843e-05
-6.11167e-07
-5.10054e-05
-6.70354e-07
-5.11707e-05
-7.37489e-07
-5.13391e-05
-8.10512e-07
-5.15107e-05
-8.85099e-07
-5.16849e-05
-9.53215e-07
-5.18596e-05
-1.00133e-06
-5.20293e-05
-1.00841e-06
-5.2183e-05
-9.43574e-07
-5.22975e-05
-7.64826e-07
-5.23427e-05
-4.04023e-07
-5.22991e-05
2.49378e-07
-5.21362e-05
1.41862e-06
-5.17757e-05
3.49894e-06
-5.10482e-05
7.24559e-06
-4.93377e-05
1.38715e-05
2.37798e-05
-4.47393e-05
-4.49661e-05
-8.04857e-08
-4.5026e-05
-1.36648e-07
-4.50964e-05
-1.74282e-07
-4.51726e-05
-1.99078e-07
-4.52527e-05
-2.15237e-07
-4.53356e-05
-2.25809e-07
-4.54209e-05
-2.33011e-07
-4.55082e-05
-2.38103e-07
-4.55972e-05
-2.41963e-07
-4.5688e-05
-2.45022e-07
-4.57804e-05
-2.47631e-07
-4.58744e-05
-2.49913e-07
-4.59699e-05
-2.52017e-07
-4.6067e-05
-2.53967e-07
-4.61655e-05
-2.55834e-07
-4.62654e-05
-2.5761e-07
-4.63667e-05
-2.59331e-07
-4.64693e-05
-2.60973e-07
-4.65731e-05
-2.626e-07
-4.66781e-05
-2.64088e-07
-4.67844e-05
-2.65378e-07
-4.6892e-05
-2.66507e-07
-4.70012e-05
-2.67512e-07
-4.71118e-05
-2.68397e-07
-4.72239e-05
-2.69179e-07
-4.73374e-05
-2.69855e-07
-4.74524e-05
-2.70432e-07
-4.75687e-05
-2.70913e-07
-4.76862e-05
-2.71302e-07
-4.78051e-05
-2.71594e-07
-4.79252e-05
-2.71806e-07
-4.80464e-05
-2.71934e-07
-4.81686e-05
-2.72004e-07
-4.82919e-05
-2.72e-07
-4.84162e-05
-2.71957e-07
-4.85413e-05
-2.71846e-07
-4.86672e-05
-2.7169e-07
-4.87938e-05
-2.715e-07
-4.8921e-05
-2.71285e-07
-4.90487e-05
-2.71046e-07
-4.91769e-05
-2.70797e-07
-4.93055e-05
-2.70534e-07
-4.94343e-05
-2.70263e-07
-4.95634e-05
-2.69984e-07
-4.96926e-05
-2.69707e-07
-4.98219e-05
-2.69413e-07
-4.99512e-05
-2.69125e-07
-5.00805e-05
-2.68811e-07
-5.02096e-05
-2.6847e-07
-5.03385e-05
-2.68113e-07
-5.04673e-05
-2.67772e-07
-5.05957e-05
-2.67405e-07
-5.07239e-05
-2.66977e-07
-5.08518e-05
-2.66466e-07
-5.09794e-05
-2.65848e-07
-5.11066e-05
-2.65101e-07
-5.12334e-05
-2.64206e-07
-5.13599e-05
-2.6317e-07
-5.14861e-05
-2.61989e-07
-5.16121e-05
-2.60675e-07
-5.17379e-05
-2.59281e-07
-5.18634e-05
-2.57975e-07
-5.19889e-05
-2.56733e-07
-5.21142e-05
-2.553e-07
-5.22397e-05
-2.53729e-07
-5.23655e-05
-2.52122e-07
-5.24915e-05
-2.50575e-07
-5.26181e-05
-2.49173e-07
-5.27452e-05
-2.48008e-07
-5.28731e-05
-2.47197e-07
-5.30019e-05
-2.46878e-07
-5.31319e-05
-2.47225e-07
-5.3263e-05
-2.48465e-07
-5.33957e-05
-2.50874e-07
-5.35299e-05
-2.54805e-07
-5.36661e-05
-2.6068e-07
-5.38044e-05
-2.68951e-07
-5.39452e-05
-2.80258e-07
-5.40884e-05
-2.9537e-07
-5.42342e-05
-3.15009e-07
-5.43829e-05
-3.39985e-07
-5.45348e-05
-3.71193e-07
-5.46906e-05
-4.09481e-07
-5.48505e-05
-4.55634e-07
-5.5015e-05
-5.10013e-07
-5.51845e-05
-5.71956e-07
-5.53591e-05
-6.39579e-07
-5.55385e-05
-7.092e-07
-5.57209e-05
-7.74032e-07
-5.59024e-05
-8.22785e-07
-5.6075e-05
-8.38536e-07
-5.62239e-05
-7.96981e-07
-5.63227e-05
-6.68062e-07
-5.63302e-05
-3.9824e-07
-5.62006e-05
1.18441e-07
-5.58568e-05
1.07348e-06
-5.51358e-05
2.77634e-06
-5.37293e-05
5.83675e-06
-5.09132e-05
1.10522e-05
1.81563e-05
-4.52942e-05
-4.77899e-05
-6.13351e-08
-4.78624e-05
-9.66805e-08
-4.7947e-05
-1.22522e-07
-4.8039e-05
-1.39636e-07
-4.8136e-05
-1.50658e-07
-4.82362e-05
-1.57675e-07
-4.83388e-05
-1.62212e-07
-4.8443e-05
-1.65203e-07
-4.85487e-05
-1.67263e-07
-4.86554e-05
-1.68729e-07
-4.87632e-05
-1.6985e-07
-4.88718e-05
-1.7073e-07
-4.89812e-05
-1.71482e-07
-4.90913e-05
-1.72127e-07
-4.9202e-05
-1.72727e-07
-4.93134e-05
-1.73272e-07
-4.94252e-05
-1.73799e-07
-4.95376e-05
-1.74271e-07
-4.96506e-05
-1.74645e-07
-4.9764e-05
-1.74951e-07
-4.98777e-05
-1.75299e-07
-4.99915e-05
-1.75596e-07
-5.01054e-05
-1.75815e-07
-5.02194e-05
-1.75963e-07
-5.03333e-05
-1.76082e-07
-5.04471e-05
-1.76164e-07
-5.05608e-05
-1.76225e-07
-5.06742e-05
-1.76256e-07
-5.07874e-05
-1.76276e-07
-5.09003e-05
-1.76252e-07
-5.10129e-05
-1.76226e-07
-5.1125e-05
-1.76167e-07
-5.12367e-05
-1.76131e-07
-5.1348e-05
-1.76068e-07
-5.14587e-05
-1.76031e-07
-5.1569e-05
-1.7598e-07
-5.16786e-05
-1.75929e-07
-5.17878e-05
-1.75891e-07
-5.18963e-05
-1.75856e-07
-5.20043e-05
-1.75825e-07
-5.21117e-05
-1.75813e-07
-5.22186e-05
-1.75797e-07
-5.2325e-05
-1.75781e-07
-5.24308e-05
-1.75756e-07
-5.25362e-05
-1.75728e-07
-5.26411e-05
-1.75671e-07
-5.27457e-05
-1.75595e-07
-5.285e-05
-1.75482e-07
-5.29539e-05
-1.75319e-07
-5.30576e-05
-1.751e-07
-5.31611e-05
-1.74833e-07
-5.32646e-05
-1.74494e-07
-5.3368e-05
-1.74042e-07
-5.34715e-05
-1.73455e-07
-5.35751e-05
-1.72706e-07
-5.36789e-05
-1.7177e-07
-5.3783e-05
-1.70622e-07
-5.38875e-05
-1.69254e-07
-5.39924e-05
-1.67659e-07
-5.40979e-05
-1.65836e-07
-5.42042e-05
-1.6378e-07
-5.43112e-05
-1.6177e-07
-5.4419e-05
-1.59923e-07
-5.45277e-05
-1.57606e-07
-5.46376e-05
-1.5498e-07
-5.47488e-05
-1.52194e-07
-5.48614e-05
-1.49334e-07
-5.49756e-05
-1.46474e-07
-5.50915e-05
-1.43694e-07
-5.52093e-05
-1.41096e-07
-5.53293e-05
-1.38811e-07
-5.54515e-05
-1.37001e-07
-5.55761e-05
-1.35879e-07
-5.57035e-05
-1.35709e-07
-5.58338e-05
-1.36825e-07
-5.59673e-05
-1.39635e-07
-5.61042e-05
-1.44557e-07
-5.62448e-05
-1.52247e-07
-5.63893e-05
-1.63529e-07
-5.6538e-05
-1.79108e-07
-5.66912e-05
-1.9971e-07
-5.68493e-05
-2.26142e-07
-5.70127e-05
-2.59122e-07
-5.7182e-05
-2.99456e-07
-5.73575e-05
-3.4775e-07
-5.75393e-05
-4.03399e-07
-5.77274e-05
-4.64785e-07
-5.79206e-05
-5.29191e-07
-5.81163e-05
-5.915e-07
-5.8309e-05
-6.43116e-07
-5.84887e-05
-6.71583e-07
-5.86376e-05
-6.60447e-07
-5.87291e-05
-5.8831e-07
-5.87125e-05
-4.25787e-07
-5.85192e-05
-8.45741e-08
-5.8031e-05
5.75919e-07
-5.70291e-05
1.76406e-06
-5.51047e-05
3.89927e-06
-5.15221e-05
7.45203e-06
1.19714e-05
-4.53589e-05
-4.99114e-05
-3.13031e-08
-4.99855e-05
-4.9358e-08
-5.00713e-05
-6.33827e-08
-5.01645e-05
-7.25975e-08
-5.02623e-05
-7.8556e-08
-5.03628e-05
-8.24101e-08
-5.04648e-05
-8.4953e-08
-5.05674e-05
-8.66855e-08
-5.06703e-05
-8.7928e-08
-5.07731e-05
-8.88657e-08
-5.08757e-05
-8.96267e-08
-5.09778e-05
-9.02705e-08
-5.10794e-05
-9.08629e-08
-5.11805e-05
-9.14112e-08
-5.1281e-05
-9.19529e-08
-5.13808e-05
-9.24846e-08
-5.14799e-05
-9.30184e-08
-5.15784e-05
-9.35318e-08
-5.16761e-05
-9.39563e-08
-5.17731e-05
-9.43819e-08
-5.18692e-05
-9.49805e-08
-5.19643e-05
-9.56852e-08
-5.20584e-05
-9.64022e-08
-5.21514e-05
-9.70931e-08
-5.22434e-05
-9.77716e-08
-5.23343e-05
-9.84276e-08
-5.24242e-05
-9.90693e-08
-5.25131e-05
-9.96813e-08
-5.2601e-05
-1.00272e-07
-5.26879e-05
-1.00814e-07
-5.2774e-05
-1.01329e-07
-5.28592e-05
-1.01798e-07
-5.29436e-05
-1.02256e-07
-5.30273e-05
-1.02673e-07
-5.31103e-05
-1.03073e-07
-5.31926e-05
-1.03436e-07
-5.32744e-05
-1.03755e-07
-5.33556e-05
-1.04042e-07
-5.34364e-05
-1.04286e-07
-5.35168e-05
-1.04473e-07
-5.35968e-05
-1.04646e-07
-5.36767e-05
-1.04749e-07
-5.37564e-05
-1.04795e-07
-5.38359e-05
-1.04765e-07
-5.39155e-05
-1.0467e-07
-5.39952e-05
-1.04503e-07
-5.40749e-05
-1.04225e-07
-5.4155e-05
-1.03847e-07
-5.42353e-05
-1.03354e-07
-5.4316e-05
-1.02753e-07
-5.43972e-05
-1.02018e-07
-5.44789e-05
-1.01133e-07
-5.45613e-05
-1.00068e-07
-5.46445e-05
-9.87958e-08
-5.47284e-05
-9.72962e-08
-5.48133e-05
-9.55405e-08
-5.48991e-05
-9.35037e-08
-5.4986e-05
-9.11665e-08
-5.50741e-05
-8.85118e-08
-5.51634e-05
-8.55562e-08
-5.52542e-05
-8.21911e-08
-5.53466e-05
-7.87293e-08
-5.54403e-05
-7.58457e-08
-5.55357e-05
-7.20492e-08
-5.56329e-05
-6.77577e-08
-5.57322e-05
-6.32141e-08
-5.58335e-05
-5.84974e-08
-5.59372e-05
-5.36636e-08
-5.60433e-05
-4.87755e-08
-5.61519e-05
-4.39223e-08
-5.62634e-05
-3.92234e-08
-5.63778e-05
-3.48252e-08
-5.64954e-05
-3.09261e-08
-5.66164e-05
-2.77734e-08
-5.6741e-05
-2.56784e-08
-5.68697e-05
-2.50218e-08
-5.70026e-05
-2.62472e-08
-5.714e-05
-2.99586e-08
-5.72824e-05
-3.68653e-08
-5.74302e-05
-4.76604e-08
-5.75839e-05
-6.30584e-08
-5.77441e-05
-8.38709e-08
-5.79112e-05
-1.10658e-07
-5.80861e-05
-1.4418e-07
-5.82689e-05
-1.85617e-07
-5.84597e-05
-2.344e-07
-5.86585e-05
-2.89128e-07
-5.88639e-05
-3.48375e-07
-5.90724e-05
-4.09042e-07
-5.9278e-05
-4.65437e-07
-5.94696e-05
-5.09758e-07
-5.96285e-05
-5.33315e-07
-5.97257e-05
-5.25044e-07
-5.97146e-05
-4.72876e-07
-5.95062e-05
-3.30967e-07
-5.89452e-05
-2.33577e-08
-5.77805e-05
5.5949e-07
-5.55392e-05
1.61182e-06
-5.14962e-05
3.35279e-06
5.49344e-06
-4.50814e-05
-5.08914e-05
4.3573e-09
-5.09589e-05
-3.60029e-10
-5.10372e-05
-3.19911e-09
-5.11227e-05
-4.88739e-09
-5.12122e-05
-6.35103e-09
-5.13037e-05
-7.73776e-09
-5.13959e-05
-9.09968e-09
-5.14881e-05
-1.04386e-08
-5.15797e-05
-1.17796e-08
-5.16704e-05
-1.31161e-08
-5.17601e-05
-1.44591e-08
-5.18486e-05
-1.57978e-08
-5.19358e-05
-1.71506e-08
-5.20219e-05
-1.85038e-08
-5.21066e-05
-1.98576e-08
-5.21901e-05
-2.12225e-08
-5.22724e-05
-2.25746e-08
-5.23534e-05
-2.39046e-08
-5.24333e-05
-2.51737e-08
-5.25118e-05
-2.64603e-08
-5.25893e-05
-2.78306e-08
-5.26657e-05
-2.92564e-08
-5.27411e-05
-3.06605e-08
-5.28155e-05
-3.202e-08
-5.28889e-05
-3.33222e-08
-5.29615e-05
-3.45686e-08
-5.30333e-05
-3.5753e-08
-5.31043e-05
-3.68718e-08
-5.31747e-05
-3.79037e-08
-5.32443e-05
-3.8857e-08
-5.33135e-05
-3.97126e-08
-5.3382e-05
-4.05013e-08
-5.34502e-05
-4.11964e-08
-5.35179e-05
-4.18291e-08
-5.35853e-05
-4.23679e-08
-5.36524e-05
-4.28299e-08
-5.37193e-05
-4.32112e-08
-5.37861e-05
-4.34985e-08
-5.38527e-05
-4.3688e-08
-5.39193e-05
-4.37688e-08
-5.39859e-05
-4.37691e-08
-5.40526e-05
-4.36533e-08
-5.41195e-05
-4.34171e-08
-5.41865e-05
-4.30488e-08
-5.42539e-05
-4.25506e-08
-5.43216e-05
-4.19225e-08
-5.43898e-05
-4.11192e-08
-5.44584e-05
-4.01534e-08
-5.45276e-05
-3.90123e-08
-5.45974e-05
-3.77018e-08
-5.46679e-05
-3.61912e-08
-5.47392e-05
-3.44622e-08
-5.48114e-05
-3.24928e-08
-5.48844e-05
-3.02463e-08
-5.49584e-05
-2.77167e-08
-5.50335e-05
-2.48651e-08
-5.51097e-05
-2.16692e-08
-5.5187e-05
-1.80966e-08
-5.52657e-05
-1.41216e-08
-5.53457e-05
-9.73656e-09
-5.54272e-05
-4.97173e-09
-5.55107e-05
6.06377e-10
-5.55951e-05
4.36899e-09
-5.56814e-05
9.9907e-09
-5.57696e-05
1.62525e-08
-5.586e-05
2.28056e-08
-5.59526e-05
2.96221e-08
-5.60475e-05
3.66721e-08
-5.61448e-05
4.39129e-08
-5.62448e-05
5.12712e-08
-5.63476e-05
5.86402e-08
-5.64535e-05
6.58926e-08
-5.65625e-05
7.28531e-08
-5.66751e-05
7.9293e-08
-5.67915e-05
8.49299e-08
-5.69119e-05
8.94088e-08
-5.70367e-05
9.23003e-08
-5.71661e-05
9.3057e-08
-5.73008e-05
9.10513e-08
-5.7441e-05
8.56302e-08
-5.75873e-05
7.60993e-08
-5.77402e-05
6.17138e-08
-5.79001e-05
4.17117e-08
-5.80675e-05
1.56875e-08
-5.82428e-05
-1.79838e-08
-5.84262e-05
-5.90701e-08
-5.86175e-05
-1.06466e-07
-5.88153e-05
-1.60074e-07
-5.90157e-05
-2.19149e-07
-5.92121e-05
-2.80838e-07
-5.93938e-05
-3.41741e-07
-5.95425e-05
-4.00675e-07
-5.9628e-05
-4.58617e-07
-5.96068e-05
-5.17062e-07
-5.93888e-05
-5.774e-07
-5.88123e-05
-6.35971e-07
-5.75961e-05
-6.99407e-07
-5.52422e-05
-7.87372e-07
-5.10206e-05
-9.1355e-07
-1.02694e-06
-4.45349e-05
-5.03694e-05
3.86105e-08
-5.04308e-05
4.98144e-08
-5.05048e-05
5.97331e-08
-5.05865e-05
6.60351e-08
-5.06729e-05
6.94787e-08
-5.07619e-05
7.09439e-08
-5.08522e-05
7.11638e-08
-5.09431e-05
7.06022e-08
-5.10339e-05
6.95555e-08
-5.11245e-05
6.8189e-08
-5.12146e-05
6.66317e-08
-5.13042e-05
6.49402e-08
-5.1393e-05
6.31649e-08
-5.14811e-05
6.13153e-08
-5.15684e-05
5.94352e-08
-5.1655e-05
5.75082e-08
-5.17407e-05
5.55819e-08
-5.18256e-05
5.36563e-08
-5.19096e-05
5.17601e-08
-5.19928e-05
4.98351e-08
-5.20751e-05
4.78653e-08
-5.21567e-05
4.5862e-08
-5.22374e-05
4.38866e-08
-5.23174e-05
4.19538e-08
-5.23965e-05
4.00888e-08
-5.24749e-05
3.82867e-08
-5.25526e-05
3.65612e-08
-5.26295e-05
3.49146e-08
-5.27056e-05
3.33803e-08
-5.27811e-05
3.19533e-08
-5.2856e-05
3.06597e-08
-5.29302e-05
2.94604e-08
-5.30038e-05
2.83902e-08
-5.30769e-05
2.74128e-08
-5.31494e-05
2.65707e-08
-5.32215e-05
2.58418e-08
-5.32932e-05
2.52363e-08
-5.33645e-05
2.47723e-08
-5.34354e-05
2.445e-08
-5.35061e-05
2.42677e-08
-5.35766e-05
2.42623e-08
-5.36469e-05
2.44083e-08
-5.37171e-05
2.47316e-08
-5.37872e-05
2.52391e-08
-5.38574e-05
2.59431e-08
-5.39276e-05
2.68543e-08
-5.39981e-05
2.79956e-08
-5.40687e-05
2.93718e-08
-5.41397e-05
3.09871e-08
-5.4211e-05
3.28528e-08
-5.42828e-05
3.49875e-08
-5.43551e-05
3.74133e-08
-5.4428e-05
4.01484e-08
-5.45015e-05
4.32269e-08
-5.45758e-05
4.6662e-08
-5.46509e-05
5.04952e-08
-5.47269e-05
5.47349e-08
-5.48038e-05
5.94275e-08
-5.48817e-05
6.46319e-08
-5.49608e-05
7.03084e-08
-5.50411e-05
7.64744e-08
-5.51221e-05
8.29798e-08
-5.52054e-05
8.91979e-08
-5.52901e-05
9.65109e-08
-5.53763e-05
1.04536e-07
-5.54643e-05
1.13045e-07
-5.5554e-05
1.21983e-07
-5.56457e-05
1.31315e-07
-5.57396e-05
1.41009e-07
-5.58358e-05
1.51009e-07
-5.59344e-05
1.61216e-07
-5.60357e-05
1.71528e-07
-5.61399e-05
1.81798e-07
-5.62472e-05
1.91819e-07
-5.63578e-05
2.01337e-07
-5.64722e-05
2.10029e-07
-5.65905e-05
2.17491e-07
-5.67131e-05
2.23229e-07
-5.68405e-05
2.26672e-07
-5.6973e-05
2.27205e-07
-5.71112e-05
2.24162e-07
-5.72555e-05
2.16818e-07
-5.74063e-05
2.04272e-07
-5.75636e-05
1.85843e-07
-5.77283e-05
1.60893e-07
-5.79004e-05
1.28951e-07
-5.80784e-05
8.95005e-08
-5.82597e-05
4.17232e-08
-5.84403e-05
-1.51687e-08
-5.86144e-05
-8.05824e-08
-5.87709e-05
-1.5603e-07
-5.88916e-05
-2.47422e-07
-5.89478e-05
-3.66035e-07
-5.8892e-05
-5.3223e-07
-5.86414e-05
-7.82482e-07
-5.80414e-05
-1.18523e-06
-5.6811e-05
-1.87339e-06
-5.44638e-05
-3.07223e-06
-5.02982e-05
-5.01197e-06
-7.33711e-06
-4.39211e-05
-4.86737e-05
6.38861e-08
-4.8729e-05
9.88101e-08
-4.87975e-05
1.22008e-07
-4.88746e-05
1.37065e-07
-4.89572e-05
1.4622e-07
-4.90433e-05
1.51442e-07
-4.9132e-05
1.5428e-07
-4.92222e-05
1.55578e-07
-4.93138e-05
1.55984e-07
-4.94063e-05
1.5576e-07
-4.94996e-05
1.55193e-07
-4.95936e-05
1.54351e-07
-4.96882e-05
1.53366e-07
-4.97832e-05
1.52214e-07
-4.98788e-05
1.50977e-07
-4.99748e-05
1.49645e-07
-5.00711e-05
1.48258e-07
-5.01678e-05
1.46819e-07
-5.02647e-05
1.45343e-07
-5.03618e-05
1.43788e-07
-5.04591e-05
1.42154e-07
-5.05565e-05
1.40447e-07
-5.0654e-05
1.38708e-07
-5.07515e-05
1.36953e-07
-5.08489e-05
1.35202e-07
-5.09463e-05
1.33457e-07
-5.10434e-05
1.31718e-07
-5.11404e-05
1.29996e-07
-5.1237e-05
1.28328e-07
-5.13333e-05
1.26737e-07
-5.14293e-05
1.2523e-07
-5.15248e-05
1.23785e-07
-5.16198e-05
1.22414e-07
-5.17144e-05
1.21112e-07
-5.18085e-05
1.19908e-07
-5.1902e-05
1.18798e-07
-5.19949e-05
1.17803e-07
-5.20873e-05
1.16939e-07