/*--------------------------------*- C++ -*----------------------------------*\
| =========                 |                                                 |
| \\      /  F ield         | OpenFOAM: The Open Source CFD Toolbox           |
|  \\    /   O peration     | Version:  2.1.0                                 |
|   \\  /    A nd           | Web:      www.OpenFOAM.org                      |
|    \\/     M anipulation  |                                                 |
\*---------------------------------------------------------------------------*/
FoamFile
{
    version     2.0;
    format      ascii;
    class       volScalarField;
    location    "0.3";
    object      rho;
}
// * * * * * * * * * * * * * * * * * * * * * * * * * * * * * * * * * * * * * //

dimensions      [1 -3 0 0 0 0 0];

internalField   nonuniform List<scalar> 
6400
(
994
993.645
993.281
992.906
992.519
992.12
991.709
991.285
990.849
990.4
989.939
989.466
988.981
988.485
987.978
987.46
986.933
986.396
985.85
985.296
984.734
984.164
983.589
983.008
982.421
981.83
981.236
980.638
980.038
979.436
978.833
978.23
977.626
977.024
976.423
975.824
975.227
974.634
974.043
973.457
972.876
972.299
971.728
971.162
970.603
970.05
969.505
968.966
968.435
967.911
967.395
966.888
966.388
965.898
965.414
964.938
964.47
964.008
963.554
963.108
962.669
962.238
961.814
961.398
960.99
960.589
960.196
959.811
959.434
959.066
958.705
958.352
958.008
957.672
957.344
957.026
956.716
956.416
956.126
955.847
955.58
955.327
955.092
954.878
954.692
954.544
954.446
954.421
954.503
954.757
955.302
956.395
958.593
962.994
969.64
964.422
948.981
944.914
944.623
944.593
990.371
989.892
989.394
988.885
988.366
987.835
987.293
986.74
986.177
985.602
985.018
984.425
983.823
983.212
982.595
981.97
981.34
980.704
980.064
979.419
978.772
978.122
977.469
976.816
976.162
975.509
974.856
974.205
973.555
972.909
972.265
971.626
970.99
970.36
969.734
969.114
968.5
967.892
967.291
966.697
966.11
965.531
964.96
964.397
963.842
963.296
962.759
962.23
961.711
961.202
960.702
960.21
959.726
959.25
958.783
958.324
957.873
957.43
956.996
956.57
956.152
955.741
955.339
954.944
954.557
954.178
953.806
953.441
953.084
952.735
952.393
952.059
951.732
951.414
951.103
950.801
950.508
950.224
949.948
949.683
949.428
949.183
948.95
948.729
948.521
948.327
948.147
947.982
947.831
947.691
947.556
947.409
947.217
946.922
946.449
945.805
945.024
944.659
944.599
944.585
987.472
986.908
986.319
985.721
985.114
984.497
983.871
983.235
982.59
981.937
981.276
980.609
979.935
979.256
978.572
977.885
977.194
976.502
975.808
975.114
974.42
973.727
973.036
972.347
971.661
970.978
970.299
969.625
968.956
968.292
967.635
966.984
966.341
965.704
965.076
964.455
963.843
963.24
962.645
962.059
961.483
960.915
960.358
959.81
959.271
958.743
958.224
957.715
957.216
956.726
956.247
955.777
955.317
954.866
954.425
953.995
953.574
953.164
952.763
952.372
951.991
951.619
951.257
950.904
950.561
950.226
949.901
949.586
949.279
948.981
948.693
948.414
948.145
947.885
947.634
947.394
947.163
946.943
946.733
946.533
946.344
946.166
945.999
945.842
945.696
945.561
945.436
945.321
945.216
945.119
945.03
944.949
944.875
944.809
944.751
944.705
944.646
944.602
944.586
944.577
984.581
983.941
983.274
982.599
981.918
981.229
980.532
979.828
979.118
978.402
977.681
976.955
976.226
975.493
974.759
974.024
973.289
972.554
971.82
971.089
970.36
969.636
968.915
968.2
967.49
966.786
966.09
965.401
964.72
964.047
963.383
962.729
962.084
961.449
960.824
960.21
959.607
959.015
958.434
957.864
957.306
956.759
956.224
955.701
955.19
954.69
954.203
953.727
953.264
952.812
952.372
951.946
951.532
951.131
950.743
950.368
950.005
949.656
949.319
948.995
948.684
948.386
948.1
947.826
947.565
947.317
947.081
946.858
946.647
946.449
946.262
946.088
945.926
945.776
945.638
945.51
945.394
945.289
945.194
945.108
945.032
944.964
944.905
944.853
944.808
944.77
944.737
944.709
944.685
944.665
944.649
944.635
944.624
944.615
944.607
944.6
944.591
944.583
944.577
944.571
981.694
980.99
980.26
979.523
978.782
978.034
977.282
976.526
975.765
975.001
974.235
973.467
972.699
971.931
971.164
970.399
969.636
968.877
968.122
967.371
966.627
965.889
965.158
964.436
963.722
963.018
962.324
961.64
960.967
960.306
959.656
959.018
958.393
957.781
957.182
956.596
956.023
955.465
954.92
954.39
953.874
953.372
952.886
952.413
951.956
951.514
951.088
950.676
950.28
949.899
949.534
949.184
948.849
948.53
948.227
947.938
947.665
947.406
947.162
946.933
946.718
946.516
946.329
946.154
945.993
945.844
945.707
945.582
945.467
945.363
945.269
945.184
945.108
945.04
944.98
944.926
944.879
944.837
944.801
944.769
944.741
944.716
944.695
944.677
944.661
944.648
944.636
944.626
944.617
944.609
944.603
944.598
944.593
944.589
944.586
944.583
944.58
944.576
944.573
944.57
978.993
978.251
977.483
976.712
975.938
975.161
974.382
973.601
972.821
972.041
971.262
970.486
969.713
968.944
968.18
967.422
966.671
965.927
965.192
964.465
963.748
963.042
962.347
961.664
960.993
960.334
959.689
959.058
958.44
957.837
957.248
956.674
956.114
955.57
955.042
954.529
954.031
953.549
953.082
952.631
952.196
951.776
951.372
950.984
950.61
950.252
949.909
949.581
949.268
948.969
948.684
948.413
948.156
947.911
947.68
947.461
947.254
947.059
946.876
946.703
946.541
946.388
946.246
946.113
945.988
945.872
945.763
945.663
945.569
945.482
945.401
945.326
945.256
945.192
945.132
945.077
945.026
944.979
944.935
944.895
944.858
944.825
944.794
944.765
944.739
944.715
944.693
944.674
944.656
944.64
944.627
944.615
944.606
944.599
944.594
944.59
944.587
944.585
944.583
944.584
977.038
976.303
975.55
974.796
974.043
973.291
972.542
971.797
971.056
970.321
969.592
968.871
968.158
967.453
966.759
966.075
965.402
964.741
964.091
963.455
962.831
962.221
961.625
961.044
960.477
959.924
959.387
958.865
958.357
957.865
957.387
956.924
956.476
956.043
955.623
955.218
954.826
954.448
954.082
953.73
953.389
953.061
952.743
952.437
952.141
951.856
951.58
951.313
951.055
950.805
950.563
950.328
950.1
949.879
949.664
949.456
949.252
949.054
948.862
948.674
948.491
948.312
948.138
947.968
947.802
947.641
947.484
947.33
947.181
947.035
946.894
946.756
946.622
946.492
946.366
946.244
946.126
946.011
945.9
945.792
945.689
945.589
945.493
945.4
945.311
945.225
945.143
945.065
944.991
944.923
944.86
944.805
944.758
944.721
944.694
944.678
944.665
944.657
944.655
944.662
976.683
976.021
975.351
974.683
974.021
973.365
972.718
972.078
971.448
970.828
970.219
969.621
969.036
968.463
967.904
967.357
966.824
966.305
965.8
965.308
964.831
964.368
963.919
963.484
963.063
962.655
962.261
961.88
961.511
961.155
960.81
960.476
960.154
959.841
959.539
959.245
958.96
958.684
958.415
958.153
957.897
957.648
957.404
957.164
956.93
956.699
956.472
956.248
956.027
955.808
955.591
955.376
955.162
954.949
954.736
954.524
954.312
954.1
953.888
953.676
953.462
953.248
953.033
952.818
952.601
952.383
952.163
951.943
951.722
951.499
951.275
951.05
950.824
950.596
950.367
950.137
949.906
949.673
949.439
949.202
948.962
948.72
948.475
948.226
947.973
947.717
947.457
947.193
946.928
946.664
946.403
946.151
945.914
945.7
945.516
945.379
945.273
945.193
945.146
945.148
978.578
978.051
977.522
977.001
976.489
975.987
975.496
975.016
974.547
974.091
973.647
973.216
972.799
972.393
972.002
971.623
971.257
970.904
970.564
970.236
969.921
969.616
969.323
969.039
968.766
968.501
968.245
967.997
967.757
967.525
967.298
967.079
966.865
966.656
966.452
966.253
966.057
965.866
965.678
965.493
965.311
965.131
964.953
964.778
964.603
964.431
964.259
964.088
963.917
963.747
963.577
963.408
963.237
963.067
962.895
962.723
962.55
962.375
962.199
962.022
961.842
961.661
961.476
961.289
961.099
960.906
960.709
960.509
960.304
960.094
959.88
959.661
959.436
959.204
958.966
958.72
958.466
958.203
957.929
957.644
957.345
957.031
956.701
956.35
955.977
955.579
955.152
954.693
954.2
953.671
953.106
952.507
951.878
951.227
950.566
949.918
949.375
948.9
948.53
948.34
982.812
982.453
982.097
981.748
981.409
981.078
980.757
980.444
980.142
979.848
979.564
979.289
979.023
978.765
978.517
978.277
978.044
977.82
977.603
977.394
977.191
976.995
976.805
976.621
976.443
976.27
976.102
975.939
975.781
975.627
975.478
975.332
975.19
975.052
974.918
974.787
974.659
974.534
974.411
974.292
974.175
974.061
973.949
973.84
973.732
973.627
973.524
973.423
973.323
973.226
973.13
973.035
972.942
972.85
972.76
972.671
972.583
972.497
972.412
972.328
972.246
972.164
972.084
972.005
971.925
971.846
971.766
971.686
971.605
971.524
971.441
971.357
971.271
971.183
971.093
971
970.904
970.803
970.699
970.589
970.473
970.352
970.223
970.086
969.94
969.781
969.6
969.393
969.154
968.878
968.559
968.19
967.764
967.273
966.703
966.038
965.256
964.47
963.775
963.333
987.919
987.702
987.486
987.275
987.069
986.869
986.675
986.485
986.301
986.123
985.949
985.781
985.617
985.458
985.304
985.156
985.011
984.871
984.735
984.605
984.478
984.355
984.237
984.123
984.013
983.907
983.805
983.708
983.614
983.524
983.439
983.357
983.279
983.205
983.134
983.068
983.005
982.946
982.891
982.839
982.791
982.747
982.706
982.669
982.635
982.604
982.578
982.554
982.534
982.517
982.504
982.495
982.489
982.486
982.487
982.492
982.5
982.512
982.529
982.549
982.573
982.601
982.634
982.671
982.714
982.764
982.819
982.881
982.95
983.027
983.111
983.204
983.306
983.417
983.539
983.67
983.813
983.968
984.135
984.315
984.507
984.713
984.932
985.164
985.41
985.672
985.958
986.271
986.614
986.99
987.397
987.837
988.317
988.84
989.411
990.032
990.701
991.409
992.125
992.79
991.981
991.857
991.735
991.618
991.504
991.396
991.291
991.192
991.095
991.004
990.915
990.832
990.751
990.675
990.602
990.533
990.467
990.405
990.347
990.292
990.24
990.191
990.146
990.104
990.065
990.029
989.997
989.967
989.94
989.917
989.897
989.88
989.865
989.854
989.846
989.842
989.84
989.842
989.847
989.855
989.867
989.882
989.9
989.922
989.948
989.977
990.01
990.046
990.087
990.131
990.18
990.232
990.289
990.35
990.415
990.485
990.559
990.638
990.722
990.811
990.906
991.006
991.112
991.224
991.343
991.468
991.6
991.74
991.887
992.042
992.205
992.377
992.558
992.747
992.946
993.154
993.371
993.598
993.834
994.078
994.331
994.592
994.86
995.134
995.413
995.695
995.98
996.264
996.545
996.824
997.106
997.391
997.673
997.95
998.219
998.476
998.716
998.933
999.118
999.26
994.851
994.781
994.714
994.652
994.593
994.539
994.488
994.441
994.397
994.357
994.321
994.288
994.258
994.231
994.208
994.188
994.171
994.158
994.147
994.14
994.136
994.134
994.136
994.14
994.147
994.157
994.17
994.186
994.204
994.225
994.249
994.275
994.304
994.335
994.369
994.406
994.445
994.487
994.531
994.578
994.628
994.681
994.735
994.793
994.853
994.916
994.982
995.05
995.121
995.194
995.27
995.349
995.431
995.515
995.603
995.693
995.786
995.881
995.98
996.081
996.186
996.293
996.402
996.515
996.63
996.747
996.867
996.989
997.114
997.24
997.369
997.499
997.63
997.763
997.896
998.029
998.163
998.296
998.427
998.557
998.685
998.809
998.93
999.046
999.157
999.262
999.36
999.451
999.534
999.609
999.674
999.73
999.78
999.824
999.862
999.893
999.92
999.94
999.955
999.966
996.8
996.761
996.725
996.694
996.665
996.64
996.618
996.599
996.583
996.57
996.56
996.552
996.547
996.545
996.545
996.548
996.554
996.562
996.573
996.587
996.603
996.621
996.642
996.666
996.691
996.719
996.75
996.782
996.817
996.854
996.893
996.933
996.976
997.021
997.068
997.116
997.166
997.218
997.271
997.326
997.382
997.44
997.499
997.559
997.62
997.683
997.746
997.81
997.875
997.941
998.007
998.074
998.141
998.209
998.277
998.346
998.414
998.482
998.551
998.619
998.687
998.754
998.821
998.887
998.953
999.017
999.08
999.142
999.203
999.262
999.32
999.376
999.43
999.482
999.532
999.58
999.625
999.668
999.708
999.746
999.781
999.813
999.843
999.869
999.893
999.914
999.932
999.947
999.96
999.97
999.978
999.984
999.988
999.992
999.994
999.996
999.997
999.998
999.999
999.999
998.026
998.005
997.986
997.971
997.958
997.948
997.941
997.935
997.932
997.931
997.933
997.936
997.941
997.949
997.959
997.97
997.984
997.999
998.017
998.036
998.057
998.08
998.105
998.131
998.159
998.189
998.22
998.252
998.286
998.321
998.358
998.395
998.434
998.473
998.514
998.555
998.597
998.64
998.683
998.726
998.77
998.814
998.859
998.903
998.948
998.992
999.036
999.08
999.123
999.166
999.209
999.25
999.292
999.332
999.371
999.41
999.447
999.484
999.519
999.553
999.586
999.618
999.648
999.677
999.705
999.731
999.756
999.78
999.802
999.823
999.843
999.861
999.877
999.893
999.907
999.92
999.932
999.943
999.952
999.96
999.968
999.974
999.98
999.984
999.988
999.991
999.994
999.996
999.997
999.998
999.999
999.999
1000
1000
1000
1000
1000
1000
1000
1000
998.776
998.764
998.754
998.747
998.742
998.739
998.737
998.738
998.739
998.743
998.748
998.754
998.762
998.772
998.782
998.795
998.808
998.824
998.84
998.857
998.876
998.896
998.917
998.939
998.962
998.986
999.011
999.037
999.063
999.09
999.117
999.145
999.174
999.202
999.231
999.261
999.29
999.32
999.349
999.378
999.407
999.436
999.465
999.493
999.521
999.548
999.575
999.601
999.626
999.65
999.674
999.697
999.719
999.741
999.761
999.78
999.799
999.816
999.833
999.849
999.863
999.877
999.89
999.902
999.913
999.923
999.932
999.941
999.948
999.955
999.962
999.967
999.972
999.977
999.981
999.984
999.987
999.99
999.992
999.994
999.995
999.996
999.997
999.998
999.999
999.999
999.999
1000
1000
1000
1000
1000
1000
1000
1000
1000
1000
1000
1000
1000
999.243
999.236
999.231
999.228
999.226
999.225
999.225
999.227
999.23
999.233
999.238
999.244
999.251
999.258
999.267
999.277
999.287
999.299
999.311
999.325
999.339
999.353
999.369
999.385
999.401
999.418
999.436
999.454
999.472
999.491
999.51
999.529
999.548
999.568
999.587
999.606
999.625
999.644
999.663
999.682
999.7
999.718
999.735
999.752
999.768
999.784
999.8
999.815
999.829
999.842
999.855
999.868
999.879
999.89
999.901
999.911
999.92
999.928
999.936
999.943
999.95
999.956
999.961
999.966
999.971
999.975
999.978
999.982
999.985
999.987
999.989
999.991
999.993
999.994
999.995
999.996
999.997
999.998
999.998
999.999
999.999
999.999
1000
1000
1000
1000
1000
1000
1000
1000
1000
1000
1000
1000
1000
1000
1000
1000
1000
1000
999.544
999.54
999.537
999.536
999.535
999.534
999.535
999.536
999.538
999.541
999.544
999.548
999.553
999.558
999.564
999.57
999.578
999.585
999.594
999.602
999.612
999.621
999.631
999.642
999.653
999.664
999.676
999.687
999.699
999.711
999.724
999.736
999.748
999.76
999.772
999.784
999.796
999.808
999.819
999.83
999.841
999.852
999.862
999.872
999.882
999.891
999.9
999.908
999.916
999.924
999.931
999.937
999.943
999.949
999.955
999.96
999.964
999.969
999.972
999.976
999.979
999.982
999.984
999.987
999.989
999.99
999.992
999.993
999.995
999.996
999.996
999.997
999.998
999.998
999.999
999.999
999.999
999.999
1000
1000
1000
1000
1000
1000
1000
1000
1000
1000
1000
1000
1000
1000
1000
1000
1000
1000
1000
1000
1000
1000
999.742
999.74
999.738
999.737
999.736
999.736
999.736
999.737
999.738
999.739
999.741
999.744
999.746
999.749
999.753
999.757
999.761
999.765
999.77
999.776
999.781
999.787
999.793
999.799
999.806
999.812
999.819
999.826
999.833
999.84
999.848
999.855
999.862
999.869
999.876
999.883
999.89
999.897
999.903
999.91
999.916
999.922
999.928
999.933
999.938
999.944
999.948
999.953
999.957
999.961
999.965
999.969
999.972
999.975
999.978
999.981
999.983
999.985
999.987
999.989
999.99
999.992
999.993
999.994
999.995
999.996
999.997
999.997
999.998
999.998
999.999
999.999
999.999
999.999
999.999
1000
1000
1000
1000
1000
1000
1000
1000
1000
1000
1000
1000
1000
1000
1000
1000
1000
1000
1000
1000
1000
1000
1000
1000
1000
999.894
999.892
999.891
999.89
999.89
999.889
999.889
999.889
999.889
999.89
999.89
999.891
999.892
999.893
999.894
999.896
999.898
999.899
999.901
999.903
999.906
999.908
999.911
999.913
999.916
999.919
999.922
999.925
999.928
999.931
999.934
999.937
999.94
999.943
999.946
999.95
999.953
999.955
999.958
999.961
999.964
999.967
999.969
999.972
999.974
999.976
999.978
999.98
999.982
999.984
999.986
999.987
999.988
999.99
999.991
999.992
999.993
999.994
999.995
999.996
999.996
999.997
999.997
999.998
999.998
999.998
999.999
999.999
999.999
999.999
999.999
1000
1000
1000
1000
1000
1000
1000
1000
1000
1000
1000
1000
1000
1000
1000
1000
1000
1000
1000
1000
1000
1000
1000
1000
1000
1000
1000
1000
1000
944.587
944.561
944.557
944.556
944.557
944.558
944.559
944.561
944.565
944.571
944.58
944.594
944.617
944.652
944.709
944.802
944.955
945.22
945.713
946.767
944.577
944.56
944.557
944.557
944.558
944.56
944.563
944.567
944.573
944.583
944.598
944.621
944.657
944.712
944.798
944.936
945.164
945.562
946.325
948.125
944.569
944.559
944.558
944.559
944.561
944.565
944.57
944.578
944.59
944.607
944.633
944.671
944.728
944.816
944.951
945.165
945.522
946.158
947.443
950.784
944.565
944.561
944.562
944.565
944.57
944.578
944.588
944.603
944.625
944.657
944.702
944.767
944.863
945.007
945.226
945.577
946.167
947.25
949.556
956.012
944.568
944.569
944.574
944.582
944.594
944.61
944.632
944.663
944.706
944.765
944.847
944.962
945.129
945.373
945.746
946.34
947.353
949.248
953.411
965.393
944.59
944.6
944.615
944.636
944.664
944.701
944.751
944.817
944.903
945.016
945.169
945.377
945.67
946.095
946.736
947.753
949.475
952.668
959.643
978.735
944.692
944.726
944.771
944.828
944.902
944.993
945.108
945.248
945.419
945.634
945.913
946.285
946.796
947.523
948.6
950.278
953.047
958.019
968.228
991.069
945.246
945.358
945.493
945.653
945.839
946.049
946.285
946.547
946.854
947.233
947.713
948.338
949.176
950.342
952.039
954.62
958.754
965.835
978.619
997.459
948.517
948.811
949.131
949.479
949.84
950.182
950.532
950.906
951.364
951.918
952.609
953.477
954.628
956.204
958.541
962.094
967.693
976.438
988.76
999.246
963.464
963.874
964.311
964.759
965.193
965.56
965.946
966.404
966.919
967.488
968.16
968.949
969.984
971.352
973.481
976.827
981.983
988.832
996.003
999.297
993.163
993.139
993.145
993.179
993.271
993.505
993.792
994.095
994.416
994.779
995.173
995.639
996.153
996.777
997.337
997.829
998.197
998.705
999.541
999.839
999.31
999.286
999.267
999.251
999.247
999.267
999.305
999.362
999.42
999.482
999.545
999.614
999.681
999.754
999.812
999.856
999.883
999.915
999.975
999.967
999.967
999.964
999.96
999.956
999.953
999.95
999.95
999.953
999.957
999.963
999.969
999.975
999.98
999.985
999.989
999.992
999.994
999.996
999.999
999.995
999.999
999.999
999.999
999.999
999.998
999.998
999.998
999.998
999.998
999.998
999.998
999.999
999.999
999.999
999.999
1000
1000
1000
1000
1000
1000
1000
1000
1000
1000
1000
1000
1000
1000
1000
1000
1000
1000
1000
1000
1000
1000
1000
1000
1000
1000
1000
1000
1000
1000
1000
1000
1000
1000
1000
1000
1000
1000
1000
1000
1000
1000
1000
1000
1000
1000
1000
1000
1000
1000
1000
1000
1000
1000
1000
1000
1000
1000
1000
1000
1000
1000
1000
1000
1000
1000
1000
1000
1000
1000
1000
1000
1000
1000
1000
1000
1000
1000
1000
1000
1000
1000
1000
1000
1000
1000
1000
1000
1000
1000
1000
1000
1000
1000
1000
1000
1000
1000
1000
1000
1000
1000
1000
1000
1000
1000
1000
1000
1000
1000
1000
1000
1000
1000
1000
1000
1000
1000
1000
1000
1000
1000
1000
1000
1000
944.555
944.555
944.555
944.555
944.555
944.555
944.555
944.555
944.555
944.555
944.555
944.555
944.555
944.555
944.555
944.555
944.555
944.555
944.555
944.555
944.555
944.555
944.555
944.555
944.555
944.555
944.555
944.555
944.555
944.555
944.555
944.555
944.555
944.555
944.555
944.555
944.555
944.555
944.555
944.555
944.555
944.555
944.555
944.555
944.555
944.555
944.555
944.555
944.555
944.555
944.555
944.555
944.555
944.555
944.555
944.555
944.555
944.555
944.555
944.555
944.555
944.555
944.555
944.555
944.555
944.555
944.555
944.555
944.555
944.555
944.555
944.555
944.555
944.555
944.555
944.555
944.555
944.555
944.555
944.555
944.555
944.555
944.555
944.555
944.555
944.555
944.555
944.555
944.555
944.555
944.555
944.555
944.555
944.555
944.555
944.555
944.555
944.555
944.555
944.555
944.555
944.555
944.555
944.555
944.555
944.555
944.555
944.555
944.555
944.555
944.555
944.555
944.555
944.555
944.555
944.555
944.555
944.555
944.555
944.555
944.555
944.555
944.555
944.555
944.555
944.555
944.555
944.555
944.555
944.555
944.555
944.555
944.555
944.555
944.555
944.555
944.555
944.555
944.555
944.555
944.555
944.555
944.555
944.555
944.555
944.555
944.555
944.555
944.555
944.555
944.555
944.555
944.555
944.555
944.555
944.555
944.555
944.555
944.555
944.555
944.555
944.555
944.555
944.555
944.555
944.555
944.555
944.555
944.555
944.555
944.555
944.555
944.555
944.555
944.555
944.555
944.555
944.555
944.555
944.555
944.555
944.555
944.555
944.555
944.555
944.555
944.555
944.555
944.555
944.555
944.555
944.555
944.555
944.555
944.555
944.555
944.555
944.555
944.555
944.555
944.555
944.555
944.555
944.555
944.555
944.555
944.555
944.555
944.555
944.555
944.555
944.555
944.555
944.555
944.555
944.555
944.555
944.555
944.555
944.555
944.555
944.555
944.555
944.555
944.555
944.555
944.555
944.555
944.555
944.555
944.555
944.555
944.555
944.555
944.555
944.555
944.555
944.555
944.555
944.555
944.555
944.555
944.555
944.555
944.555
944.555
944.555
944.555
944.555
944.555
944.555
944.555
944.555
944.555
944.555
944.555
944.555
944.555
944.555
944.555
944.555
944.555
944.555
944.555
944.555
944.555
944.555
944.555
944.555
944.555
944.555
944.555
944.555
944.555
944.555
944.555
944.555
944.555
944.555
944.555
944.555
944.555
944.555
944.555
944.555
944.555
944.555
944.555
944.555
944.555
944.555
944.555
944.555
944.555
944.555
944.555
944.555
944.555
944.555
944.555
944.555
944.555
944.555
944.555
944.555
944.555
944.555
944.555
944.555
944.555
944.555
944.555
944.555
944.555
944.555
944.555
944.555
944.555
944.555
944.555
944.555
944.555
944.555
944.555
944.555
944.555
944.555
944.555
944.555
944.555
944.555
944.555
944.555
944.555
944.555
944.555
944.555
944.555
944.555
944.555
944.555
944.555
944.555
944.555
944.555
944.555
944.555
944.555
944.555
944.555
944.555
944.555
944.555
944.555
944.555
944.555
944.555
944.555
944.555
944.555
944.555
944.555
944.555
944.555
944.555
944.555
944.555
944.555
944.555
944.555
944.555
944.555
944.555
944.555
944.555
944.555
944.555
944.555
944.555
944.555
944.555
944.555
944.555
944.555
944.555
944.555
944.555
944.555
944.555
944.555
944.555
944.555
944.555
944.555
944.555
944.555
944.555
944.555
944.555
944.555
944.555
944.555
944.555
944.555
944.555
944.555
944.555
944.555
944.555
944.555
944.555
944.555
944.555
944.555
944.555
944.555
944.555
944.555
944.555
944.555
944.555
944.555
944.555
944.555
944.555
944.555
944.555
944.555
944.555
944.555
944.555
944.555
944.555
944.555
944.555
944.555
944.555
944.555
944.555
944.555
944.555
944.555
944.555
944.555
944.555
944.555
944.555
944.555
944.555
944.555
944.555
944.555
944.555
944.555
944.555
944.555
944.555
944.555
944.555
944.555
944.555
944.555
944.555
944.555
944.555
944.555
944.555
944.555
944.555
944.555
944.555
944.555
944.555
944.555
944.555
944.555
944.555
944.555
944.555
944.555
944.555
944.555
944.555
944.555
944.555
944.555
944.555
944.555
944.555
944.555
944.555
944.555
944.555
944.555
944.555
944.555
944.555
944.555
944.555
944.555
944.555
944.555
944.555
944.555
944.555
944.555
944.555
944.555
944.555
944.555
944.555
944.555
944.555
944.555
944.555
944.555
944.555
944.555
944.555
944.555
944.555
944.555
944.555
944.555
944.555
944.555
944.555
944.555
944.555
944.555
944.555
944.555
944.555
944.555
944.555
944.555
944.555
944.555
944.555
944.555
944.555
944.555
944.555
944.555
944.555
944.555
944.555
944.555
944.555
944.555
944.555
944.555
944.555
944.555
944.555
944.555
944.555
944.555
944.555
944.555
944.555
944.555
944.555
944.555
944.555
944.555
944.555
944.555
944.555
944.555
944.555
944.555
944.555
944.555
944.555
944.555
944.555
944.555
944.555
944.555
944.555
944.555
944.555
944.555
944.555
944.555
944.555
944.555
944.555
944.555
944.555
944.555
944.555
944.555
944.555
944.555
944.555
944.555
944.555
944.555
944.555
944.555
944.555
944.555
944.555
944.555
944.555
944.555
944.555
944.555
944.555
944.555
944.555
944.555
944.555
944.555
944.555
944.555
944.555
944.555
944.555
944.555
944.555
944.555
944.555
944.555
944.555
944.555
944.555
944.555
944.555
944.555
944.555
944.555
944.555
944.555
944.555
944.555
944.555
944.555
944.555
944.555
944.555
944.555
944.555
944.555
944.555
944.555
944.555
944.555
944.555
944.555
944.555
944.555
944.555
944.555
944.555
944.555
944.555
944.555
944.555
944.555
944.555
944.555
944.555
944.555
944.555
944.555
944.555
944.555
944.555
944.555
944.555
944.555
944.555
944.555
944.555
944.555
944.555
944.555
944.555
944.555
944.555
944.555
944.555
944.555
944.555
944.555
944.555
944.555
944.555
944.555
944.555
944.555
944.555
944.555
944.555
944.555
944.555
944.555
944.555
944.555
944.555
944.555
944.555
944.555
944.555
944.555
944.555
944.555
944.555
944.555
944.555
944.555
944.555
944.555
944.555
944.555
944.555
944.555
944.555
944.555
944.555
944.555
944.555
944.555
944.555
944.555
944.555
944.555
944.555
944.555
944.555
944.555
944.555
944.555
944.555
944.555
944.555
944.555
944.555
944.555
944.555
944.555
944.555
944.555
944.555
944.555
944.555
944.555
944.555
944.555
944.555
944.555
944.555
944.555
944.555
944.555
944.555
944.555
944.555
944.555
944.555
944.555
944.555
944.555
944.555
944.555
944.555
944.555
944.555
944.555
944.555
944.555
944.555
944.555
944.555
944.555
944.555
944.555
944.555
944.555
944.555
944.555
944.555
944.555
944.555
944.555
944.555
944.555
944.555
944.555
944.555
944.555
944.555
944.555
944.555
944.555
944.555
944.555
944.555
944.555
944.555
944.555
944.555
944.555
944.555
944.555
944.555
944.555
944.555
944.555
944.555
944.555
944.555
944.555
944.555
944.555
944.555
944.555
944.555
944.555
944.555
944.555
944.555
944.555
944.555
944.555
944.555
944.555
944.555
944.555
944.555
944.555
944.555
944.555
944.555
944.555
944.555
944.555
944.555
944.555
944.555
944.555
944.555
944.555
944.555
944.555
944.555
944.555
944.555
944.555
944.555
944.555
944.555
944.555
944.555
944.555
944.555
944.555
944.555
944.555
944.555
944.555
944.555
944.555
944.555
944.555
944.555
944.555
944.555
944.555
944.555
944.555
944.555
944.555
944.555
944.555
944.555
944.555
944.555
944.555
944.555
944.555
944.555
944.555
944.555
944.555
944.555
944.555
944.555
944.555
944.555
944.555
944.555
944.555
944.555
944.555
944.555
944.555
944.555
944.555
944.555
944.555
944.555
944.555
944.555
944.555
944.555
944.555
944.555
944.555
944.555
944.555
944.555
944.555
944.555
944.555
944.555
944.555
944.555
944.555
944.555
944.555
944.555
944.555
944.555
944.555
944.555
944.555
944.555
944.555
944.555
944.555
944.555
944.555
944.555
944.555
944.555
944.555
944.555
944.555
944.555
944.555
944.555
944.555
944.555
944.555
944.555
944.555
944.555
944.555
944.555
944.555
944.555
944.555
944.555
944.555
944.555
944.555
944.555
944.555
944.555
944.555
944.555
944.555
944.555
944.555
944.555
944.555
944.555
944.555
944.555
944.555
944.555
944.555
944.555
944.555
944.555
944.555
944.555
944.555
944.555
944.555
944.555
944.555
944.555
944.555
944.555
944.555
944.555
944.555
944.555
944.555
944.555
944.555
944.555
944.555
944.555
944.555
944.555
944.555
944.555
944.555
944.555
944.555
944.555
944.555
944.555
944.555
944.555
944.555
944.555
944.555
944.555
944.555
944.555
944.555
944.555
944.555
944.555
944.555
944.555
944.555
944.555
944.555
944.555
944.555
944.555
944.555
944.555
944.555
944.555
944.555
944.555
944.555
944.555
944.555
944.555
944.555
944.555
944.555
944.555
944.555
944.555
944.555
944.555
944.555
944.555
944.555
944.555
944.555
944.555
944.555
944.555
944.555
944.555
944.555
944.555
944.555
944.555
944.555
944.555
944.555
944.555
944.555
944.555
944.555
944.555
944.555
944.555
944.555
944.555
944.555
944.555
944.555
944.555
944.555
944.555
944.555
944.555
944.555
944.555
944.555
944.555
944.555
944.555
944.555
944.555
944.555
944.555
944.555
944.555
944.555
944.555
944.555
944.555
944.555
944.555
944.555
944.555
944.555
944.555
944.555
944.555
944.555
944.555
944.555
944.555
944.555
944.555
944.555
944.555
944.555
944.555
944.555
944.555
944.555
944.555
944.555
944.555
944.555
944.555
944.555
944.555
944.555
944.555
944.555
944.555
944.555
944.555
944.555
944.555
944.555
944.555
944.555
944.555
944.555
944.555
944.555
944.555
944.555
944.555
944.555
944.555
944.555
944.555
944.555
944.555
944.555
944.555
944.555
944.555
944.555
944.555
944.555
944.555
944.555
944.555
944.555
944.555
944.555
944.555
944.555
944.555
944.555
944.555
944.555
944.555
944.555
944.555
944.555
944.555
944.555
944.555
944.555
944.555
944.555
944.555
944.555
944.555
944.555
944.555
944.555
944.555
944.555
944.555
944.555
944.555
944.555
944.555
944.555
944.555
944.555
944.555
944.555
944.555
944.555
944.555
944.555
944.555
944.555
944.555
944.555
944.555
944.555
944.555
944.555
944.555
944.555
944.555
944.555
944.555
944.555
944.555
944.555
944.555
944.555
944.555
944.555
944.555
944.555
944.555
944.555
944.555
944.555
944.555
944.555
944.555
944.555
944.555
944.555
944.555
944.555
944.555
944.555
944.555
944.555
944.555
944.555
944.555
944.555
944.555
944.555
944.555
944.555
944.555
944.555
944.555
944.555
944.555
944.555
944.555
944.555
944.555
944.555
944.555
944.555
944.555
944.555
944.555
944.555
944.555
944.555
944.555
944.555
944.555
944.555
944.555
944.555
944.555
944.555
944.555
944.555
944.555
944.555
944.555
944.555
944.555
944.555
944.555
944.555
944.555
944.555
944.555
944.555
944.555
944.555
944.555
944.555
944.555
944.555
944.555
944.555
944.555
944.555
944.555
944.555
944.555
944.555
944.555
944.555
944.555
944.555
944.555
944.555
944.555
944.555
944.555
944.555
944.555
944.555
944.555
944.555
944.555
944.555
944.555
944.555
944.555
944.555
944.555
944.555
944.555
944.555
944.555
944.555
944.555
944.555
944.555
944.555
944.555
944.555
944.555
944.555
944.555
944.555
944.555
944.555
944.555
944.555
944.555
944.555
944.555
944.555
944.555
944.555
944.555
944.555
944.555
944.555
944.555
944.555
944.555
944.555
944.555
944.555
944.555
944.555
944.555
944.555
944.555
944.555
944.555
944.555