/*--------------------------------*- C++ -*----------------------------------*\
| =========                 |                                                 |
| \\      /  F ield         | OpenFOAM: The Open Source CFD Toolbox           |
|  \\    /   O peration     | Version:  2.1.0                                 |
|   \\  /    A nd           | Web:      www.OpenFOAM.org                      |
|    \\/     M anipulation  |                                                 |
\*---------------------------------------------------------------------------*/
FoamFile
{
    version     2.0;
    format      ascii;
    class       volScalarField;
    location    "0.3";
    object      T;
}
// * * * * * * * * * * * * * * * * * * * * * * * * * * * * * * * * * * * * * //

dimensions      [0 0 0 1 0 0 0];

internalField   nonuniform List<scalar> 
6400
(
303.433
304.045
304.674
305.321
305.989
306.679
307.391
308.126
308.883
309.662
310.464
311.286
312.13
312.995
313.879
314.783
315.705
316.644
317.601
318.573
319.559
320.559
321.572
322.597
323.631
324.675
325.726
326.784
327.848
328.916
329.987
331.06
332.135
333.209
334.282
335.353
336.421
337.485
338.544
339.597
340.643
341.682
342.712
343.733
344.743
345.743
346.732
347.709
348.673
349.625
350.563
351.488
352.398
353.294
354.177
355.047
355.905
356.75
357.583
358.402
359.209
360.002
360.782
361.548
362.301
363.041
363.766
364.478
365.175
365.858
366.527
367.181
367.82
368.444
369.052
369.644
370.22
370.779
371.32
371.84
372.338
372.81
373.25
373.649
373.996
374.274
374.456
374.504
374.35
373.876
372.857
370.82
366.735
358.614
346.488
355.993
384.737
392.463
393.02
393.076
309.712
310.545
311.412
312.297
313.202
314.127
315.074
316.041
317.028
318.034
319.059
320.102
321.161
322.235
323.324
324.427
325.541
326.667
327.802
328.945
330.096
331.253
332.415
333.58
334.748
335.917
337.087
338.255
339.421
340.584
341.743
342.896
344.044
345.184
346.316
347.44
348.555
349.659
350.753
351.835
352.905
353.963
355.008
356.038
357.055
358.057
359.044
360.016
360.971
361.91
362.833
363.742
364.636
365.517
366.382
367.234
368.07
368.892
369.7
370.493
371.272
372.037
372.788
373.525
374.248
374.958
375.654
376.337
377.006
377.662
378.304
378.932
379.546
380.145
380.73
381.299
381.852
382.389
382.908
383.409
383.891
384.354
384.795
385.213
385.607
385.975
386.316
386.629
386.915
387.18
387.436
387.716
388.08
388.64
389.539
390.765
392.254
392.951
393.065
393.092
314.762
315.748
316.778
317.825
318.891
319.974
321.076
322.196
323.333
324.486
325.654
326.835
328.03
329.235
330.451
331.674
332.905
334.141
335.382
336.625
337.868
339.112
340.354
341.595
342.832
344.065
345.293
346.514
347.727
348.932
350.127
351.311
352.485
353.646
354.795
355.931
357.053
358.161
359.253
360.331
361.393
362.438
363.468
364.481
365.477
366.456
367.418
368.363
369.291
370.201
371.095
371.971
372.829
373.671
374.495
375.3
376.088
376.857
377.609
378.343
379.06
379.759
380.441
381.105
381.753
382.383
382.996
383.593
384.173
384.735
385.281
385.809
386.319
386.812
387.287
387.744
388.182
388.601
389
389.38
389.739
390.078
390.396
390.695
390.972
391.23
391.468
391.687
391.889
392.073
392.242
392.397
392.538
392.665
392.775
392.862
392.976
393.06
393.091
393.107
319.827
320.953
322.127
323.316
324.519
325.738
326.971
328.219
329.48
330.754
332.038
333.332
334.635
335.945
337.26
338.579
339.9
341.223
342.545
343.865
345.182
346.495
347.801
349.1
350.391
351.672
352.943
354.201
355.447
356.679
357.897
359.099
360.285
361.454
362.606
363.74
364.856
365.952
367.029
368.086
369.124
370.14
371.137
372.112
373.066
373.999
374.911
375.801
376.67
377.517
378.342
379.144
379.923
380.678
381.409
382.116
382.8
383.46
384.096
384.709
385.298
385.863
386.405
386.924
387.418
387.89
388.338
388.762
389.163
389.54
389.894
390.226
390.534
390.82
391.084
391.326
391.548
391.749
391.931
392.094
392.239
392.368
392.481
392.58
392.665
392.739
392.802
392.856
392.901
392.938
392.97
392.996
393.017
393.035
393.05
393.063
393.08
393.096
393.108
393.118
324.915
326.16
327.454
328.761
330.078
331.408
332.748
334.099
335.459
336.826
338.2
339.579
340.961
342.345
343.73
345.113
346.494
347.871
349.242
350.607
351.963
353.31
354.645
355.967
357.275
358.567
359.843
361.102
362.343
363.564
364.765
365.945
367.104
368.241
369.354
370.445
371.511
372.553
373.569
374.561
375.527
376.466
377.379
378.265
379.124
379.956
380.759
381.535
382.282
383.001
383.691
384.352
384.985
385.589
386.164
386.711
387.23
387.721
388.184
388.62
389.029
389.411
389.768
390.1
390.407
390.691
390.952
391.191
391.409
391.607
391.786
391.948
392.093
392.223
392.338
392.441
392.531
392.611
392.68
392.741
392.795
392.841
392.881
392.916
392.946
392.972
392.995
393.014
393.031
393.045
393.057
393.068
393.077
393.084
393.091
393.096
393.102
393.109
393.115
393.12
329.702
331.023
332.39
333.765
335.15
336.54
337.937
339.338
340.743
342.148
343.553
344.956
346.355
347.749
349.136
350.514
351.883
353.24
354.584
355.913
357.227
358.523
359.801
361.059
362.296
363.511
364.704
365.873
367.017
368.137
369.231
370.3
371.341
372.356
373.343
374.302
375.233
376.136
377.011
377.857
378.674
379.463
380.223
380.955
381.659
382.334
382.981
383.601
384.194
384.759
385.298
385.811
386.299
386.762
387.201
387.617
388.009
388.379
388.728
389.057
389.365
389.655
389.926
390.18
390.417
390.638
390.844
391.037
391.215
391.382
391.536
391.679
391.812
391.935
392.048
392.153
392.251
392.34
392.423
392.5
392.57
392.634
392.694
392.748
392.798
392.844
392.885
392.923
392.957
392.987
393.012
393.034
393.052
393.065
393.075
393.082
393.088
393.092
393.095
393.094
333.185
334.497
335.844
337.194
338.545
339.896
341.244
342.587
343.925
345.254
346.573
347.882
349.177
350.458
351.722
352.97
354.199
355.409
356.598
357.766
358.911
360.033
361.13
362.202
363.249
364.27
365.264
366.231
367.172
368.086
368.973
369.834
370.668
371.476
372.258
373.014
373.746
374.454
375.137
375.798
376.436
377.052
377.647
378.222
378.777
379.314
379.834
380.336
380.822
381.293
381.749
382.192
382.622
383.039
383.445
383.84
384.224
384.598
384.963
385.318
385.665
386.003
386.333
386.655
386.969
387.276
387.574
387.865
388.149
388.425
388.694
388.956
389.21
389.457
389.697
389.93
390.155
390.374
390.585
390.79
390.987
391.177
391.361
391.537
391.707
391.871
392.027
392.176
392.316
392.447
392.566
392.672
392.761
392.832
392.884
392.915
392.938
392.954
392.958
392.944
333.818
335
336.201
337.397
338.585
339.763
340.929
342.081
343.218
344.338
345.439
346.521
347.582
348.622
349.639
350.634
351.604
352.551
353.473
354.371
355.245
356.093
356.916
357.714
358.487
359.236
359.961
360.663
361.342
361.999
362.635
363.25
363.846
364.424
364.984
365.527
366.055
366.567
367.066
367.552
368.027
368.49
368.944
369.388
369.825
370.254
370.676
371.093
371.506
371.914
372.318
372.72
373.12
373.518
373.915
374.311
374.708
375.104
375.502
375.9
376.299
376.701
377.103
377.508
377.916
378.325
378.737
379.151
379.567
379.986
380.408
380.832
381.258
381.687
382.118
382.552
382.989
383.429
383.872
384.32
384.772
385.231
385.695
386.167
386.646
387.132
387.626
388.125
388.628
389.131
389.627
390.106
390.557
390.966
391.316
391.576
391.778
391.931
392.021
392.018
330.441
331.38
332.321
333.251
334.164
335.062
335.941
336.802
337.641
338.46
339.257
340.032
340.784
341.513
342.219
342.903
343.563
344.201
344.816
345.409
345.98
346.531
347.063
347.578
348.074
348.555
349.02
349.47
349.906
350.33
350.742
351.142
351.532
351.913
352.284
352.648
353.004
353.354
353.697
354.035
354.368
354.697
355.022
355.344
355.663
355.979
356.294
356.607
356.92
357.232
357.543
357.855
358.167
358.481
358.796
359.112
359.431
359.751
360.075
360.402
360.733
361.067
361.407
361.751
362.102
362.458
362.822
363.192
363.57
363.957
364.353
364.759
365.176
365.604
366.045
366.501
366.972
367.46
367.968
368.498
369.053
369.636
370.252
370.904
371.599
372.342
373.139
373.997
374.918
375.909
376.968
378.092
379.274
380.499
381.745
382.965
383.992
384.89
385.59
385.95
322.941
323.575
324.204
324.82
325.42
326.005
326.574
327.128
327.664
328.185
328.69
329.178
329.651
330.109
330.551
330.978
331.392
331.791
332.177
332.551
332.913
333.263
333.602
333.93
334.249
334.558
334.858
335.149
335.432
335.708
335.975
336.236
336.49
336.737
336.978
337.213
337.443
337.667
337.886
338.1
338.31
338.515
338.716
338.912
339.105
339.294
339.48
339.662
339.841
340.016
340.189
340.359
340.527
340.692
340.854
341.014
341.172
341.328
341.481
341.632
341.781
341.928
342.072
342.215
342.359
342.502
342.646
342.791
342.936
343.083
343.232
343.384
343.539
343.697
343.86
344.029
344.203
344.384
344.573
344.772
344.981
345.201
345.435
345.682
345.945
346.234
346.562
346.938
347.371
347.871
348.451
349.121
349.895
350.789
351.827
353.04
354.469
355.906
357.18
357.991
313.981
314.361
314.738
315.107
315.466
315.816
316.157
316.488
316.81
317.123
317.428
317.723
318.01
318.288
318.558
318.819
319.073
319.319
319.557
319.787
320.01
320.225
320.433
320.633
320.827
321.013
321.192
321.364
321.529
321.687
321.838
321.983
322.12
322.251
322.375
322.492
322.602
322.706
322.804
322.895
322.979
323.058
323.13
323.196
323.255
323.309
323.356
323.398
323.433
323.462
323.486
323.503
323.514
323.518
323.516
323.508
323.493
323.472
323.443
323.408
323.365
323.315
323.258
323.191
323.115
323.028
322.931
322.821
322.699
322.564
322.415
322.251
322.072
321.876
321.663
321.43
321.179
320.906
320.613
320.297
319.958
319.597
319.212
318.804
318.374
317.913
317.412
316.864
316.263
315.605
314.895
314.125
313.288
312.376
311.382
310.303
309.141
307.913
306.672
305.522
306.921
307.135
307.347
307.55
307.747
307.934
308.116
308.289
308.456
308.615
308.768
308.913
309.053
309.185
309.312
309.432
309.546
309.653
309.755
309.851
309.941
310.025
310.104
310.177
310.245
310.307
310.364
310.415
310.461
310.502
310.537
310.567
310.592
310.611
310.625
310.633
310.636
310.633
310.624
310.61
310.59
310.564
310.531
310.493
310.449
310.398
310.341
310.277
310.207
310.13
310.045
309.954
309.856
309.75
309.636
309.515
309.386
309.249
309.104
308.949
308.785
308.611
308.427
308.233
308.027
307.81
307.581
307.339
307.084
306.816
306.533
306.236
305.923
305.596
305.252
304.893
304.518
304.127
303.72
303.298
302.862
302.413
301.951
301.48
301
300.515
300.026
299.539
299.056
298.577
298.094
297.606
297.123
296.649
296.19
295.751
295.34
294.969
294.654
294.412
301.968
302.087
302.203
302.31
302.411
302.504
302.592
302.673
302.748
302.817
302.88
302.937
302.989
303.034
303.074
303.109
303.138
303.161
303.179
303.192
303.199
303.202
303.199
303.191
303.179
303.162
303.14
303.113
303.081
303.045
303.005
302.96
302.91
302.856
302.797
302.734
302.666
302.594
302.517
302.436
302.351
302.261
302.166
302.067
301.963
301.855
301.742
301.625
301.503
301.377
301.246
301.11
300.969
300.824
300.674
300.52
300.36
300.196
300.026
299.852
299.673
299.489
299.301
299.108
298.911
298.71
298.504
298.294
298.081
297.864
297.644
297.422
297.197
296.97
296.742
296.514
296.286
296.059
295.833
295.611
295.393
295.181
294.975
294.777
294.588
294.409
294.241
294.086
293.944
293.817
293.705
293.61
293.525
293.45
293.386
293.331
293.287
293.252
293.226
293.208
298.618
298.685
298.747
298.801
298.85
298.893
298.93
298.963
298.99
299.013
299.031
299.044
299.053
299.057
299.056
299.051
299.041
299.026
299.008
298.984
298.957
298.925
298.889
298.849
298.805
298.757
298.705
298.649
298.59
298.527
298.46
298.39
298.317
298.24
298.16
298.077
297.992
297.903
297.812
297.718
297.621
297.523
297.422
297.319
297.214
297.107
296.999
296.889
296.778
296.665
296.552
296.437
296.322
296.206
296.09
295.973
295.856
295.739
295.622
295.506
295.39
295.274
295.16
295.047
294.936
294.826
294.718
294.612
294.509
294.408
294.309
294.214
294.122
294.033
293.948
293.867
293.789
293.716
293.647
293.583
293.523
293.468
293.418
293.372
293.332
293.297
293.266
293.24
293.219
293.201
293.187
293.177
293.17
293.164
293.16
293.157
293.155
293.153
293.152
293.151
296.519
296.556
296.588
296.614
296.635
296.652
296.665
296.674
296.68
296.681
296.679
296.673
296.664
296.651
296.635
296.615
296.592
296.565
296.535
296.502
296.466
296.427
296.385
296.34
296.292
296.241
296.188
296.133
296.075
296.015
295.953
295.889
295.823
295.755
295.686
295.615
295.544
295.471
295.397
295.323
295.248
295.172
295.096
295.02
294.945
294.869
294.794
294.719
294.645
294.571
294.499
294.428
294.358
294.289
294.222
294.156
294.092
294.03
293.97
293.912
293.855
293.801
293.75
293.7
293.653
293.608
293.565
293.525
293.487
293.452
293.418
293.387
293.359
293.332
293.308
293.286
293.266
293.248
293.232
293.217
293.205
293.194
293.185
293.177
293.17
293.165
293.161
293.158
293.155
293.153
293.152
293.151
293.151
293.151
293.15
293.15
293.15
293.15
293.15
293.15
295.237
295.258
295.275
295.287
295.296
295.301
295.304
295.303
295.3
295.294
295.286
295.275
295.261
295.245
295.227
295.206
295.182
295.157
295.129
295.099
295.067
295.032
294.997
294.959
294.919
294.878
294.836
294.793
294.748
294.702
294.655
294.607
294.559
294.51
294.46
294.41
294.36
294.31
294.26
294.21
294.16
294.111
294.062
294.014
293.967
293.921
293.875
293.831
293.788
293.746
293.705
293.666
293.628
293.592
293.557
293.524
293.493
293.463
293.435
293.408
293.383
293.36
293.338
293.318
293.299
293.282
293.266
293.251
293.238
293.226
293.215
293.206
293.197
293.19
293.183
293.177
293.172
293.168
293.164
293.161
293.158
293.156
293.155
293.153
293.152
293.152
293.151
293.151
293.15
293.15
293.15
293.15
293.15
293.15
293.15
293.15
293.15
293.15
293.15
293.15
294.44
294.452
294.461
294.467
294.47
294.472
294.471
294.468
294.464
294.457
294.449
294.439
294.428
294.414
294.399
294.383
294.365
294.345
294.324
294.301
294.278
294.253
294.226
294.199
294.171
294.142
294.112
294.081
294.05
294.018
293.985
293.953
293.92
293.887
293.854
293.821
293.789
293.756
293.724
293.693
293.662
293.631
293.602
293.573
293.545
293.517
293.491
293.466
293.442
293.418
293.396
293.375
293.355
293.337
293.319
293.302
293.287
293.273
293.259
293.247
293.236
293.225
293.216
293.208
293.2
293.193
293.187
293.181
293.176
293.172
293.168
293.165
293.162
293.16
293.158
293.156
293.155
293.154
293.153
293.152
293.152
293.151
293.151
293.151
293.15
293.15
293.15
293.15
293.15
293.15
293.15
293.15
293.15
293.15
293.15
293.15
293.15
293.15
293.15
293.15
293.927
293.933
293.938
293.941
293.943
293.943
293.943
293.94
293.937
293.933
293.927
293.92
293.912
293.903
293.893
293.882
293.87
293.857
293.843
293.828
293.812
293.795
293.778
293.76
293.742
293.723
293.703
293.683
293.663
293.642
293.621
293.6
293.579
293.559
293.538
293.517
293.497
293.477
293.458
293.439
293.42
293.402
293.385
293.368
293.351
293.336
293.321
293.307
293.293
293.28
293.268
293.257
293.246
293.236
293.227
293.219
293.211
293.204
293.197
293.191
293.186
293.181
293.177
293.173
293.169
293.166
293.164
293.161
293.159
293.158
293.156
293.155
293.154
293.153
293.152
293.152
293.151
293.151
293.151
293.151
293.15
293.15
293.15
293.15
293.15
293.15
293.15
293.15
293.15
293.15
293.15
293.15
293.15
293.15
293.15
293.15
293.15
293.15
293.15
293.15
293.589
293.593
293.596
293.598
293.599
293.6
293.599
293.598
293.596
293.594
293.591
293.587
293.582
293.577
293.571
293.565
293.558
293.55
293.541
293.533
293.523
293.513
293.503
293.492
293.481
293.47
293.458
293.446
293.434
293.422
293.41
293.398
293.385
293.373
293.361
293.349
293.338
293.326
293.315
293.304
293.294
293.283
293.273
293.264
293.255
293.246
293.238
293.23
293.223
293.216
293.209
293.203
293.198
293.192
293.187
293.183
293.179
293.175
293.172
293.169
293.166
293.164
293.162
293.16
293.158
293.157
293.156
293.155
293.154
293.153
293.152
293.152
293.151
293.151
293.151
293.151
293.15
293.15
293.15
293.15
293.15
293.15
293.15
293.15
293.15
293.15
293.15
293.15
293.15
293.15
293.15
293.15
293.15
293.15
293.15
293.15
293.15
293.15
293.15
293.15
293.331
293.334
293.336
293.337
293.338
293.339
293.339
293.339
293.338
293.338
293.337
293.336
293.334
293.332
293.33
293.327
293.325
293.322
293.318
293.315
293.311
293.307
293.302
293.298
293.293
293.288
293.283
293.278
293.273
293.268
293.262
293.257
293.252
293.246
293.241
293.236
293.231
293.226
293.221
293.216
293.212
293.207
293.203
293.199
293.195
293.191
293.187
293.184
293.181
293.178
293.175
293.172
293.17
293.167
293.165
293.163
293.162
293.16
293.159
293.158
293.156
293.156
293.155
293.154
293.153
293.153
293.152
293.152
293.151
293.151
293.151
293.151
293.151
293.15
293.15
293.15
293.15
293.15
293.15
293.15
293.15
293.15
293.15
293.15
293.15
293.15
293.15
293.15
293.15
293.15
293.15
293.15
293.15
293.15
293.15
293.15
293.15
293.15
293.15
293.15
393.089
393.138
393.146
393.147
393.146
393.144
393.142
393.137
393.13
393.119
393.101
393.074
393.031
392.964
392.855
392.678
392.386
391.88
390.941
388.935
393.107
393.14
393.145
393.145
393.143
393.14
393.135
393.127
393.114
393.095
393.067
393.023
392.955
392.85
392.685
392.422
391.987
391.229
389.774
386.356
393.122
393.141
393.143
393.141
393.137
393.13
393.12
393.105
393.082
393.049
393
392.928
392.818
392.651
392.394
391.985
391.305
390.092
387.65
381.331
393.13
393.138
393.136
393.13
393.12
393.106
393.086
393.057
393.015
392.955
392.869
392.744
392.561
392.287
391.868
391.2
390.076
388.016
383.648
371.532
393.125
393.123
393.113
393.098
393.076
393.045
393.002
392.943
392.861
392.749
392.592
392.371
392.054
391.588
390.878
389.746
387.821
384.231
376.393
354.216
393.083
393.064
393.035
392.996
392.942
392.87
392.775
392.65
392.485
392.268
391.978
391.58
391.021
390.212
388.993
387.062
383.801
377.787
364.79
330.162
392.889
392.823
392.737
392.627
392.487
392.312
392.094
391.826
391.5
391.092
390.56
389.851
388.879
387.499
385.458
382.285
377.076
367.799
349.05
308.501
391.831
391.617
391.36
391.055
390.701
390.3
389.851
389.353
388.77
388.05
387.139
385.953
384.368
382.165
378.97
374.132
366.435
353.409
330.369
297.49
385.616
385.059
384.453
383.796
383.112
382.468
381.806
381.103
380.239
379.197
377.899
376.27
374.117
371.174
366.832
360.269
350.024
334.258
312.515
294.435
357.751
356.999
356.199
355.379
354.585
353.914
353.208
352.372
351.434
350.396
349.174
347.741
345.865
343.392
339.556
333.563
324.406
312.389
299.987
294.349
304.878
304.919
304.908
304.85
304.691
304.287
303.791
303.269
302.717
302.091
301.413
300.613
299.729
298.659
297.699
296.857
296.227
295.359
293.932
293.424
294.326
294.367
294.4
294.426
294.435
294.399
294.334
294.237
294.138
294.032
293.926
293.808
293.693
293.569
293.47
293.396
293.349
293.295
293.193
293.207
293.206
293.211
293.218
293.224
293.23
293.234
293.235
293.23
293.223
293.213
293.203
293.193
293.184
293.176
293.169
293.164
293.161
293.157
293.152
293.159
293.151
293.152
293.152
293.152
293.153
293.153
293.154
293.154
293.154
293.153
293.153
293.152
293.152
293.151
293.151
293.151
293.15
293.15
293.15
293.151
293.15
293.15
293.15
293.15
293.15
293.15
293.15
293.15
293.15
293.15
293.15
293.15
293.15
293.15
293.15
293.15
293.15
293.15
293.15
293.15
293.15
293.15
293.15
293.15
293.15
293.15
293.15
293.15
293.15
293.15
293.15
293.15
293.15
293.15
293.15
293.15
293.15
293.15
293.15
293.15
293.15
293.15
293.15
293.15
293.15
293.15
293.15
293.15
293.15
293.15
293.15
293.15
293.15
293.15
293.15
293.15
293.15
293.15
293.15
293.15
293.15
293.15
293.15
293.15
293.15
293.15
293.15
293.15
293.15
293.15
293.15
293.15
293.15
293.15
293.15
293.15
293.15
293.15
293.15
293.15
293.15
293.15
293.15
293.15
293.15
293.15
293.15
293.15
293.15
293.15
293.15
293.15
293.15
293.15
293.15
293.15
293.15
293.15
293.15
293.15
293.15
293.15
293.15
293.15
293.15
293.15
293.15
293.15
293.15
293.15
293.15
293.15
293.15
293.15
293.15
293.15
293.15
293.15
293.15
293.15
393.15
393.15
393.15
393.15
393.15
393.15
393.15
393.15
393.15
393.15
393.15
393.15
393.15
393.15
393.15
393.15
393.15
393.15
393.15
393.15
393.15
393.15
393.15
393.15
393.15
393.15
393.15
393.15
393.15
393.15
393.15
393.15
393.15
393.15
393.15
393.15
393.15
393.15
393.15
393.15
393.15
393.15
393.15
393.15
393.15
393.15
393.15
393.15
393.15
393.15
393.15
393.15
393.15
393.15
393.15
393.15
393.15
393.15
393.15
393.15
393.15
393.15
393.15
393.15
393.15
393.15
393.15
393.15
393.15
393.15
393.15
393.15
393.15
393.15
393.15
393.15
393.15
393.15
393.15
393.15
393.15
393.15
393.15
393.15
393.15
393.15
393.15
393.15
393.15
393.15
393.15
393.15
393.15
393.15
393.15
393.15
393.15
393.15
393.15
393.15
393.15
393.15
393.15
393.15
393.15
393.15
393.15
393.15
393.15
393.15
393.15
393.15
393.15
393.15
393.15
393.15
393.15
393.15
393.15
393.15
393.15
393.15
393.15
393.15
393.15
393.15
393.15
393.15
393.15
393.15
393.15
393.15
393.15
393.15
393.15
393.15
393.15
393.15
393.15
393.15
393.15
393.15
393.15
393.15
393.15
393.15
393.15
393.15
393.15
393.15
393.15
393.15
393.15
393.15
393.15
393.15
393.15
393.15
393.15
393.15
393.15
393.15
393.15
393.15
393.15
393.15
393.15
393.15
393.15
393.15
393.15
393.15
393.15
393.15
393.15
393.15
393.15
393.15
393.15
393.15
393.15
393.15
393.15
393.15
393.15
393.15
393.15
393.15
393.15
393.15
393.15
393.15
393.15
393.15
393.15
393.15
393.15
393.15
393.15
393.15
393.15
393.15
393.15
393.15
393.15
393.15
393.15
393.15
393.15
393.15
393.15
393.15
393.15
393.15
393.15
393.15
393.15
393.15
393.15
393.15
393.15
393.15
393.15
393.15
393.15
393.15
393.15
393.15
393.15
393.15
393.15
393.15
393.15
393.15
393.15
393.15
393.15
393.15
393.15
393.15
393.15
393.15
393.15
393.15
393.15
393.15
393.15
393.15
393.15
393.15
393.15
393.15
393.15
393.15
393.15
393.15
393.15
393.15
393.15
393.15
393.15
393.15
393.15
393.15
393.15
393.15
393.15
393.15
393.15
393.15
393.15
393.15
393.15
393.15
393.15
393.15
393.15
393.15
393.15
393.15
393.15
393.15
393.15
393.15
393.15
393.15
393.15
393.15
393.15
393.15
393.15
393.15
393.15
393.15
393.15
393.15
393.15
393.15
393.15
393.15
393.15
393.15
393.15
393.15
393.15
393.15
393.15
393.15
393.15
393.15
393.15
393.15
393.15
393.15
393.15
393.15
393.15
393.15
393.15
393.15
393.15
393.15
393.15
393.15
393.15
393.15
393.15
393.15
393.15
393.15
393.15
393.15
393.15
393.15
393.15
393.15
393.15
393.15
393.15
393.15
393.15
393.15
393.15
393.15
393.15
393.15
393.15
393.15
393.15
393.15
393.15
393.15
393.15
393.15
393.15
393.15
393.15
393.15
393.15
393.15
393.15
393.15
393.15
393.15
393.15
393.15
393.15
393.15
393.15
393.15
393.15
393.15
393.15
393.15
393.15
393.15
393.15
393.15
393.15
393.15
393.15
393.15
393.15
393.15
393.15
393.15
393.15
393.15
393.15
393.15
393.15
393.15
393.15
393.15
393.15
393.15
393.15
393.15
393.15
393.15
393.15
393.15
393.15
393.15
393.15
393.15
393.15
393.15
393.15
393.15
393.15
393.15
393.15
393.15
393.15
393.15
393.15
393.15
393.15
393.15
393.15
393.15
393.15
393.15
393.15
393.15
393.15
393.15
393.15
393.15
393.15
393.15
393.15
393.15
393.15
393.15
393.15
393.15
393.15
393.15
393.15
393.15
393.15
393.15
393.15
393.15
393.15
393.15
393.15
393.15
393.15
393.15
393.15
393.15
393.15
393.15
393.15
393.15
393.15
393.15
393.15
393.15
393.15
393.15
393.15
393.15
393.15
393.15
393.15
393.15
393.15
393.15
393.15
393.15
393.15
393.15
393.15
393.15
393.15
393.15
393.15
393.15
393.15
393.15
393.15
393.15
393.15
393.15
393.15
393.15
393.15
393.15
393.15
393.15
393.15
393.15
393.15
393.15
393.15
393.15
393.15
393.15
393.15
393.15
393.15
393.15
393.15
393.15
393.15
393.15
393.15
393.15
393.15
393.15
393.15
393.15
393.15
393.15
393.15
393.15
393.15
393.15
393.15
393.15
393.15
393.15
393.15
393.15
393.15
393.15
393.15
393.15
393.15
393.15
393.15
393.15
393.15
393.15
393.15
393.15
393.15
393.15
393.15
393.15
393.15
393.15
393.15
393.15
393.15
393.15
393.15
393.15
393.15
393.15
393.15
393.15
393.15
393.15
393.15
393.15
393.15
393.15
393.15
393.15
393.15
393.15
393.15
393.15
393.15
393.15
393.15
393.15
393.15
393.15
393.15
393.15
393.15
393.15
393.15
393.15
393.15
393.15
393.15
393.15
393.15
393.15
393.15
393.15
393.15
393.15
393.15
393.15
393.15
393.15
393.15
393.15
393.15
393.15
393.15
393.15
393.15
393.15
393.15
393.15
393.15
393.15
393.15
393.15
393.15
393.15
393.15
393.15
393.15
393.15
393.15
393.15
393.15
393.15
393.15
393.15
393.15
393.15
393.15
393.15
393.15
393.15
393.15
393.15
393.15
393.15
393.15
393.15
393.15
393.15
393.15
393.15
393.15
393.15
393.15
393.15
393.15
393.15
393.15
393.15
393.15
393.15
393.15
393.15
393.15
393.15
393.15
393.15
393.15
393.15
393.15
393.15
393.15
393.15
393.15
393.15
393.15
393.15
393.15
393.15
393.15
393.15
393.15
393.15
393.15
393.15
393.15
393.15
393.15
393.15
393.15
393.15
393.15
393.15
393.15
393.15
393.15
393.15
393.15
393.15
393.15
393.15
393.15
393.15
393.15
393.15
393.15
393.15
393.15
393.15
393.15
393.15
393.15
393.15
393.15
393.15
393.15
393.15
393.15
393.15
393.15
393.15
393.15
393.15
393.15
393.15
393.15
393.15
393.15
393.15
393.15
393.15
393.15
393.15
393.15
393.15
393.15
393.15
393.15
393.15
393.15
393.15
393.15
393.15
393.15
393.15
393.15
393.15
393.15
393.15
393.15
393.15
393.15
393.15
393.15
393.15
393.15
393.15
393.15
393.15
393.15
393.15
393.15
393.15
393.15
393.15
393.15
393.15
393.15
393.15
393.15
393.15
393.15
393.15
393.15
393.15
393.15
393.15
393.15
393.15
393.15
393.15
393.15
393.15
393.15
393.15
393.15
393.15
393.15
393.15
393.15
393.15
393.15
393.15
393.15
393.15
393.15
393.15
393.15
393.15
393.15
393.15
393.15
393.15
393.15
393.15
393.15
393.15
393.15
393.15
393.15
393.15
393.15
393.15
393.15
393.15
393.15
393.15
393.15
393.15
393.15
393.15
393.15
393.15
393.15
393.15
393.15
393.15
393.15
393.15
393.15
393.15
393.15
393.15
393.15
393.15
393.15
393.15
393.15
393.15
393.15
393.15
393.15
393.15
393.15
393.15
393.15
393.15
393.15
393.15
393.15
393.15
393.15
393.15
393.15
393.15
393.15
393.15
393.15
393.15
393.15
393.15
393.15
393.15
393.15
393.15
393.15
393.15
393.15
393.15
393.15
393.15
393.15
393.15
393.15
393.15
393.15
393.15
393.15
393.15
393.15
393.15
393.15
393.15
393.15
393.15
393.15
393.15
393.15
393.15
393.15
393.15
393.15
393.15
393.15
393.15
393.15
393.15
393.15
393.15
393.15
393.15
393.15
393.15
393.15
393.15
393.15
393.15
393.15
393.15
393.15
393.15
393.15
393.15
393.15
393.15
393.15
393.15
393.15
393.15
393.15
393.15
393.15
393.15
393.15
393.15
393.15
393.15
393.15
393.15
393.15
393.15
393.15
393.15
393.15
393.15
393.15
393.15
393.15
393.15
393.15
393.15
393.15
393.15
393.15
393.15
393.15
393.15
393.15
393.15
393.15
393.15
393.15
393.15
393.15
393.15
393.15
393.15
393.15
393.15
393.15
393.15
393.15
393.15
393.15
393.15
393.15
393.15
393.15
393.15
393.15
393.15
393.15
393.15
393.15
393.15
393.15
393.15
393.15
393.15
393.15
393.15
393.15
393.15
393.15
393.15
393.15
393.15
393.15
393.15
393.15
393.15
393.15
393.15
393.15
393.15
393.15
393.15
393.15
393.15
393.15
393.15
393.15
393.15
393.15
393.15
393.15
393.15
393.15
393.15
393.15
393.15
393.15
393.15
393.15
393.15
393.15
393.15
393.15
393.15
393.15
393.15
393.15
393.15
393.15
393.15
393.15
393.15
393.15
393.15
393.15
393.15
393.15
393.15
393.15
393.15
393.15
393.15
393.15
393.15
393.15
393.15
393.15
393.15
393.15
393.15
393.15
393.15
393.15
393.15
393.15
393.15
393.15
393.15
393.15
393.15
393.15
393.15
393.15
393.15
393.15
393.15
393.15
393.15
393.15
393.15
393.15
393.15
393.15
393.15
393.15
393.15
393.15
393.15
393.15
393.15
393.15
393.15
393.15
393.15
393.15
393.15
393.15
393.15
393.15
393.15
393.15
393.15
393.15
393.15
393.15
393.15
393.15
393.15
393.15
393.15
393.15
393.15
393.15
393.15
393.15
393.15
393.15
393.15
393.15
393.15
393.15
393.15
393.15
393.15
393.15
393.15
393.15
393.15
393.15
393.15
393.15
393.15
393.15
393.15
393.15
393.15
393.15
393.15
393.15
393.15
393.15
393.15
393.15
393.15
393.15
393.15
393.15
393.15
393.15
393.15
393.15
393.15
393.15
393.15
393.15
393.15
393.15
393.15
393.15
393.15
393.15
393.15
393.15
393.15
393.15
393.15
393.15
393.15
393.15
393.15
393.15
393.15
393.15
393.15
393.15
393.15
393.15
393.15
393.15
393.15
393.15
393.15
393.15
393.15
393.15
393.15
393.15
393.15
393.15
393.15
393.15
393.15
393.15
393.15
393.15
393.15
393.15
393.15
393.15
393.15
393.15
393.15
393.15
393.15
393.15
393.15
393.15
393.15
393.15
393.15
393.15
393.15
393.15
393.15
393.15
393.15
393.15
393.15
393.15
393.15
393.15
393.15
393.15
393.15
393.15
393.15
393.15
393.15
393.15
393.15
393.15
393.15
393.15
393.15
393.15
393.15
393.15
393.15
393.15
393.15
393.15
393.15
393.15
393.15
393.15
393.15
393.15
393.15
393.15
393.15
393.15
393.15
393.15
393.15
393.15
393.15
393.15
393.15
393.15
393.15
393.15
393.15
393.15
393.15
393.15
393.15
393.15
393.15
393.15
393.15
393.15
393.15
393.15
393.15
393.15
393.15
393.15
393.15
393.15
393.15
393.15
393.15
393.15
393.15
393.15
393.15
393.15
393.15
393.15
393.15
393.15
393.15
393.15
393.15
393.15
393.15
393.15
393.15
393.15
393.15
393.15
393.15
393.15
393.15
393.15
393.15
393.15
393.15
393.15
393.15
393.15
393.15
393.15
393.15
393.15
393.15
393.15
393.15
393.15
393.15
393.15
393.15
393.15
393.15
393.15
393.15
393.15
393.15
393.15
393.15
393.15
393.15
393.15
393.15
393.15
393.15
393.15
393.15
393.15
393.15
393.15
393.15
393.15
393.15
393.15
393.15
393.15
393.15
393.15
393.15
393.15
393.15
393.15
393.15
393.15
393.15
393.15
393.15
393.15
393.15
393.15
393.15
393.15
393.15
393.15
393.15
393.15
393.15
393.15
393.15
393.15
393.15
393.15
393.15
393.15
393.15
393.15
393.15
393.15
393.15
393.15
393.15
393.15
393.15
393.15
393.15
393.15
393.15
393.15
393.15
393.15
393.15
393.15
393.15
393.15
393.15
393.15
393.15
393.15
393.15
393.15
393.15
393.15
393.15
393.15
393.15
393.15
393.15
393.15
393.15
393.15
393.15
393.15
393.15
393.15
393.15
393.15
393.15
393.15
393.15
393.15
393.15
393.15
393.15
393.15
393.15
393.15
393.15
393.15
393.15
393.15
393.15
393.15
393.15
393.15
393.15
393.15
393.15
393.15
393.15
393.15
393.15
393.15
393.15
393.15
393.15
393.15
393.15
393.15
393.15
393.15
393.15
393.15
393.15
393.15
393.15
393.15
393.15
393.15
393.15
393.15
393.15
393.15
393.15
393.15
393.15
393.15
393.15
393.15
393.15
393.15
393.15
393.15
393.15
393.15
393.15
393.15
393.15
393.15
393.15
393.15
393.15
393.15
393.15
393.15
393.15
393.15
393.15
393.15
393.15
393.15
393.15
393.15
393.15
393.15
393.15
393.15
393.15
393.15
393.15
393.15
393.15
393.15
393.15
393.15
393.15
393.15
393.15
393.15
393.15
393.15
393.15
393.15
393.15
393.15
393.15
393.15
393.15