/*--------------------------------*- C++ -*----------------------------------*\
| =========                 |                                                 |
| \\      /  F ield         | OpenFOAM: The Open Source CFD Toolbox           |
|  \\    /   O peration     | Version:  2.1.0                                 |
|   \\  /    A nd           | Web:      www.OpenFOAM.org                      |
|    \\/     M anipulation  |                                                 |
\*---------------------------------------------------------------------------*/
FoamFile
{
    version     2.0;
    format      ascii;
    class       volVectorField;
    location    "0.3";
    object      U;
}
// * * * * * * * * * * * * * * * * * * * * * * * * * * * * * * * * * * * * * //

dimensions      [0 1 -1 0 0 0 0];

internalField   nonuniform List<vector> 
6400
(
(-1.24984 -2.47781e-06 0)
(-1.24931 -0.000411268 0)
(-1.24769 -0.0006785 0)
(-1.2452 -0.000815521 0)
(-1.24231 -0.000896227 0)
(-1.23915 -0.000951377 0)
(-1.23583 -0.000992062 0)
(-1.23237 -0.00102518 0)
(-1.2288 -0.00105401 0)
(-1.22513 -0.00108086 0)
(-1.22138 -0.0011068 0)
(-1.21754 -0.00113256 0)
(-1.2136 -0.00115854 0)
(-1.20958 -0.00118492 0)
(-1.20546 -0.00121188 0)
(-1.20125 -0.0012394 0)
(-1.19693 -0.00126761 0)
(-1.19251 -0.00129643 0)
(-1.18799 -0.00132594 0)
(-1.18336 -0.00135578 0)
(-1.17861 -0.00138604 0)
(-1.17375 -0.00141717 0)
(-1.16877 -0.0014497 0)
(-1.16367 -0.00148298 0)
(-1.15844 -0.00151695 0)
(-1.15307 -0.00155151 0)
(-1.14756 -0.00158668 0)
(-1.14192 -0.00162245 0)
(-1.13614 -0.00165891 0)
(-1.13021 -0.00169603 0)
(-1.12412 -0.00173395 0)
(-1.11789 -0.00177262 0)
(-1.11149 -0.00181219 0)
(-1.10494 -0.00185269 0)
(-1.09821 -0.00189429 0)
(-1.09132 -0.00193699 0)
(-1.08425 -0.00198086 0)
(-1.07699 -0.00202616 0)
(-1.06954 -0.00207298 0)
(-1.0619 -0.00212139 0)
(-1.05405 -0.0021716 0)
(-1.046 -0.00222361 0)
(-1.03772 -0.00227754 0)
(-1.02922 -0.00233345 0)
(-1.02047 -0.0023914 0)
(-1.01149 -0.00245133 0)
(-1.00225 -0.00251322 0)
(-0.992756 -0.00257712 0)
(-0.98299 -0.00264275 0)
(-0.972953 -0.00270837 0)
(-0.962637 -0.00277716 0)
(-0.952025 -0.00285175 0)
(-0.941098 -0.00292822 0)
(-0.929865 -0.0030029 0)
(-0.918328 -0.00307443 0)
(-0.906498 -0.00314486 0)
(-0.894375 -0.00321615 0)
(-0.881956 -0.00328912 0)
(-0.869231 -0.00336426 0)
(-0.856193 -0.00344138 0)
(-0.842832 -0.0035211 0)
(-0.829138 -0.00360396 0)
(-0.815099 -0.00368998 0)
(-0.8007 -0.00377959 0)
(-0.785927 -0.003873 0)
(-0.770764 -0.00397093 0)
(-0.755192 -0.00407396 0)
(-0.73919 -0.0041826 0)
(-0.722736 -0.00429708 0)
(-0.705804 -0.00441792 0)
(-0.68837 -0.00454572 0)
(-0.670405 -0.00468104 0)
(-0.651878 -0.00482457 0)
(-0.632754 -0.00497717 0)
(-0.612997 -0.00513997 0)
(-0.592562 -0.00531439 0)
(-0.571401 -0.00550224 0)
(-0.549457 -0.00570588 0)
(-0.526659 -0.00592883 0)
(-0.502923 -0.00617555 0)
(-0.478145 -0.00645157 0)
(-0.452194 -0.006764 0)
(-0.424908 -0.0071215 0)
(-0.396094 -0.00753264 0)
(-0.365528 -0.00800302 0)
(-0.33297 -0.00853531 0)
(-0.298183 -0.00912556 0)
(-0.260976 -0.0097542 0)
(-0.221295 -0.0103715 0)
(-0.179398 -0.0108685 0)
(-0.13619 -0.0110237 0)
(-0.0938762 -0.0103977 0)
(-0.0566345 -0.00842914 0)
(-0.0298506 -0.00507559 0)
(-0.0171161 -0.00131847 0)
(-0.0206993 0.00309558 0)
(-0.0494564 0.0112628 0)
(-0.129587 0.0291521 0)
(-0.329207 0.0711043 0)
(-0.948477 0.198894 0)
(-1.5135 -0.000198524 0)
(-1.51128 -0.00139357 0)
(-1.51011 -0.00208922 0)
(-1.50771 -0.00246251 0)
(-1.50503 -0.00269007 0)
(-1.5021 -0.00284716 0)
(-1.49904 -0.00296402 0)
(-1.49586 -0.00305948 0)
(-1.49258 -0.003143 0)
(-1.48922 -0.00322081 0)
(-1.48577 -0.00329612 0)
(-1.48225 -0.00337087 0)
(-1.47864 -0.00344625 0)
(-1.47495 -0.00352271 0)
(-1.47117 -0.00360079 0)
(-1.4673 -0.00368039 0)
(-1.46334 -0.00376184 0)
(-1.45929 -0.00384484 0)
(-1.45514 -0.00392963 0)
(-1.45089 -0.00401511 0)
(-1.44653 -0.00410101 0)
(-1.44208 -0.00418882 0)
(-1.43753 -0.00428019 0)
(-1.43286 -0.00437319 0)
(-1.42809 -0.00446767 0)
(-1.42321 -0.00456351 0)
(-1.41822 -0.00466074 0)
(-1.41311 -0.00475935 0)
(-1.40789 -0.00485952 0)
(-1.40255 -0.0049612 0)
(-1.39709 -0.00506471 0)
(-1.39152 -0.00517 0)
(-1.38581 -0.00527739 0)
(-1.37999 -0.00538699 0)
(-1.37403 -0.00549921 0)
(-1.36795 -0.00561417 0)
(-1.36173 -0.00573187 0)
(-1.35538 -0.00585299 0)
(-1.34889 -0.00597778 0)
(-1.34226 -0.00610647 0)
(-1.33548 -0.00623959 0)
(-1.32856 -0.00637724 0)
(-1.32148 -0.00651978 0)
(-1.31424 -0.00666746 0)
(-1.30684 -0.00682054 0)
(-1.29926 -0.00697906 0)
(-1.29151 -0.00714313 0)
(-1.28358 -0.00731299 0)
(-1.27545 -0.00748832 0)
(-1.26712 -0.00766442 0)
(-1.25861 -0.00784378 0)
(-1.24992 -0.00802949 0)
(-1.24106 -0.0082168 0)
(-1.23205 -0.00840281 0)
(-1.22287 -0.00858475 0)
(-1.21351 -0.00876502 0)
(-1.20397 -0.00894727 0)
(-1.19426 -0.00913329 0)
(-1.18437 -0.00932429 0)
(-1.17429 -0.00952042 0)
(-1.16403 -0.00972274 0)
(-1.15358 -0.00993215 0)
(-1.14293 -0.0101487 0)
(-1.13208 -0.0103733 0)
(-1.12104 -0.0106066 0)
(-1.10979 -0.0108502 0)
(-1.09832 -0.0111053 0)
(-1.08664 -0.0113737 0)
(-1.07473 -0.0116563 0)
(-1.06258 -0.0119546 0)
(-1.05018 -0.0122705 0)
(-1.03751 -0.012606 0)
(-1.02456 -0.0129631 0)
(-1.01129 -0.0133448 0)
(-0.997683 -0.0137545 0)
(-0.983702 -0.0141964 0)
(-0.969308 -0.0146759 0)
(-0.954455 -0.0151993 0)
(-0.939088 -0.0157759 0)
(-0.923144 -0.0164173 0)
(-0.906549 -0.0171368 0)
(-0.889218 -0.0179512 0)
(-0.871056 -0.0188802 0)
(-0.851958 -0.0199439 0)
(-0.831809 -0.0211553 0)
(-0.810494 -0.0225185 0)
(-0.787913 -0.0240195 0)
(-0.764009 -0.0256041 0)
(-0.73882 -0.0271438 0)
(-0.71255 -0.0283713 0)
(-0.685668 -0.0287697 0)
(-0.658979 -0.0273876 0)
(-0.633826 -0.022937 0)
(-0.613154 -0.0146725 0)
(-0.605273 -0.00255362 0)
(-0.618666 0.0126956 0)
(-0.666178 0.0394813 0)
(-0.76957 0.091801 0)
(-0.971887 0.204139 0)
(-1.45994 0.52614 0)
(-1.66407 -0.00068675 0)
(-1.66111 -0.00248087 0)
(-1.66092 -0.00347276 0)
(-1.6592 -0.00403266 0)
(-1.65722 -0.00438397 0)
(-1.65506 -0.0046283 0)
(-1.65278 -0.00481053 0)
(-1.65041 -0.00495974 0)
(-1.64796 -0.00509005 0)
(-1.64545 -0.00521155 0)
(-1.64287 -0.00532874 0)
(-1.64024 -0.00544512 0)
(-1.63753 -0.00556214 0)
(-1.63478 -0.00568092 0)
(-1.63195 -0.00580199 0)
(-1.62906 -0.00592555 0)
(-1.62608 -0.00605187 0)
(-1.62305 -0.00618083 0)
(-1.61992 -0.00631266 0)
(-1.61671 -0.00644597 0)
(-1.61341 -0.00657954 0)
(-1.61003 -0.00671418 0)
(-1.60656 -0.00685145 0)
(-1.60302 -0.00698975 0)
(-1.59939 -0.00712933 0)
(-1.59569 -0.00727034 0)
(-1.59191 -0.00741265 0)
(-1.58805 -0.00755641 0)
(-1.58411 -0.00770169 0)
(-1.58009 -0.00784847 0)
(-1.576 -0.00799709 0)
(-1.57182 -0.00814752 0)
(-1.56757 -0.00830014 0)
(-1.56324 -0.00845499 0)
(-1.55883 -0.0086126 0)
(-1.55435 -0.00877332 0)
(-1.54979 -0.00893671 0)
(-1.54516 -0.00910372 0)
(-1.54045 -0.00927462 0)
(-1.53568 -0.0094496 0)
(-1.53083 -0.00962939 0)
(-1.52592 -0.00981404 0)
(-1.52094 -0.010004 0)
(-1.5159 -0.0101997 0)
(-1.5108 -0.0104014 0)
(-1.50564 -0.0106092 0)
(-1.50044 -0.0108233 0)
(-1.49518 -0.0110438 0)
(-1.48988 -0.0112699 0)
(-1.48453 -0.011498 0)
(-1.47917 -0.0117262 0)
(-1.47376 -0.0119523 0)
(-1.46834 -0.0121756 0)
(-1.4629 -0.0124 0)
(-1.45744 -0.0126242 0)
(-1.45195 -0.0128472 0)
(-1.44645 -0.0130714 0)
(-1.44093 -0.0132982 0)
(-1.43539 -0.0135288 0)
(-1.42986 -0.013764 0)
(-1.42433 -0.0140045 0)
(-1.41882 -0.0142508 0)
(-1.41333 -0.0145027 0)
(-1.40787 -0.0147605 0)
(-1.40246 -0.0150251 0)
(-1.39711 -0.0152977 0)
(-1.39184 -0.0155796 0)
(-1.38665 -0.0158728 0)
(-1.38157 -0.0161786 0)
(-1.37661 -0.0164992 0)
(-1.37179 -0.0168371 0)
(-1.36712 -0.0171948 0)
(-1.36262 -0.0175758 0)
(-1.3583 -0.0179844 0)
(-1.35417 -0.0184259 0)
(-1.35025 -0.0189069 0)
(-1.34653 -0.0194355 0)
(-1.34301 -0.0200213 0)
(-1.33969 -0.0206772 0)
(-1.33655 -0.0214199 0)
(-1.33356 -0.0222672 0)
(-1.33069 -0.02324 0)
(-1.3279 -0.0243618 0)
(-1.32516 -0.025656 0)
(-1.32241 -0.0271382 0)
(-1.31961 -0.0288096 0)
(-1.31674 -0.0306435 0)
(-1.31379 -0.0325585 0)
(-1.31083 -0.0343764 0)
(-1.30802 -0.0357494 0)
(-1.30563 -0.0360499 0)
(-1.30403 -0.0342245 0)
(-1.30378 -0.0287589 0)
(-1.30622 -0.0179856 0)
(-1.31449 -5.38208e-05 0)
(-1.33137 0.0252238 0)
(-1.36997 0.0687515 0)
(-1.44537 0.149013 0)
(-1.58855 0.310929 0)
(-1.85887 0.718812 0)
(-1.80144 -0.0012894 0)
(-1.79836 -0.00337786 0)
(-1.7993 -0.00458068 0)
(-1.79858 -0.00528906 0)
(-1.79767 -0.00574068 0)
(-1.79663 -0.00605417 0)
(-1.7955 -0.00628656 0)
(-1.79432 -0.00647557 0)
(-1.79308 -0.00663897 0)
(-1.79183 -0.00679037 0)
(-1.79053 -0.00693504 0)
(-1.78922 -0.00707818 0)
(-1.78787 -0.00722108 0)
(-1.78651 -0.00736583 0)
(-1.78512 -0.00751261 0)
(-1.78371 -0.00766223 0)
(-1.78227 -0.00781463 0)
(-1.78082 -0.00797025 0)
(-1.77933 -0.00812889 0)
(-1.77782 -0.00828886 0)
(-1.77628 -0.00844973 0)
(-1.77473 -0.0086115 0)
(-1.77314 -0.00877329 0)
(-1.77153 -0.00893474 0)
(-1.76989 -0.00909651 0)
(-1.76823 -0.00925901 0)
(-1.76655 -0.00942196 0)
(-1.76484 -0.00958559 0)
(-1.76312 -0.00974978 0)
(-1.76138 -0.00991452 0)
(-1.75962 -0.01008 0)
(-1.75785 -0.0102463 0)
(-1.75607 -0.0104135 0)
(-1.75428 -0.0105816 0)
(-1.7525 -0.0107509 0)
(-1.75071 -0.0109218 0)
(-1.74893 -0.0110938 0)
(-1.74717 -0.0112676 0)
(-1.74541 -0.0114432 0)
(-1.74369 -0.0116207 0)
(-1.74199 -0.0118005 0)
(-1.74033 -0.0119825 0)
(-1.73872 -0.012167 0)
(-1.73716 -0.0123539 0)
(-1.73567 -0.0125435 0)
(-1.73425 -0.0127353 0)
(-1.73292 -0.0129295 0)
(-1.7317 -0.0131252 0)
(-1.73059 -0.0133207 0)
(-1.7296 -0.013516 0)
(-1.72876 -0.013712 0)
(-1.72804 -0.0139047 0)
(-1.72743 -0.0140919 0)
(-1.72695 -0.014278 0)
(-1.7266 -0.0144629 0)
(-1.72639 -0.0146444 0)
(-1.72634 -0.014823 0)
(-1.72646 -0.0149995 0)
(-1.72675 -0.0151741 0)
(-1.72724 -0.0153476 0)
(-1.72794 -0.015521 0)
(-1.72886 -0.0156944 0)
(-1.73002 -0.0158673 0)
(-1.73142 -0.0160393 0)
(-1.7331 -0.016211 0)
(-1.73506 -0.0163834 0)
(-1.73731 -0.0165579 0)
(-1.73988 -0.0167362 0)
(-1.74276 -0.0169206 0)
(-1.74597 -0.0171132 0)
(-1.74952 -0.0173174 0)
(-1.75342 -0.0175368 0)
(-1.75765 -0.0177761 0)
(-1.76223 -0.0180412 0)
(-1.76714 -0.0183398 0)
(-1.77236 -0.0186812 0)
(-1.77787 -0.0190768 0)
(-1.78364 -0.0195386 0)
(-1.78964 -0.0200835 0)
(-1.79582 -0.0207326 0)
(-1.80213 -0.021507 0)
(-1.80852 -0.0224302 0)
(-1.81494 -0.0235271 0)
(-1.82131 -0.024821 0)
(-1.8276 -0.026326 0)
(-1.83377 -0.0280375 0)
(-1.83981 -0.029916 0)
(-1.84574 -0.03186 0)
(-1.85161 -0.0336609 0)
(-1.85753 -0.0349342 0)
(-1.86361 -0.0350222 0)
(-1.86992 -0.0328821 0)
(-1.87642 -0.0269516 0)
(-1.88351 -0.0152392 0)
(-1.89257 0.00414893 0)
(-1.90263 0.0348621 0)
(-1.92439 0.0880246 0)
(-1.96492 0.18485 0)
(-2.03351 0.374503 0)
(-2.13383 0.777262 0)
(-1.94206 -0.00182438 0)
(-1.93953 -0.00395898 0)
(-1.94169 -0.00525535 0)
(-1.94227 -0.00605124 0)
(-1.94286 -0.00656626 0)
(-1.94333 -0.00692019 0)
(-1.94383 -0.00717996 0)
(-1.94429 -0.00738681 0)
(-1.94477 -0.00756284 0)
(-1.94526 -0.0077226 0)
(-1.94577 -0.0078732 0)
(-1.9463 -0.00801992 0)
(-1.94686 -0.00816481 0)
(-1.94746 -0.00830984 0)
(-1.94808 -0.00845542 0)
(-1.94874 -0.00860225 0)
(-1.94944 -0.00875023 0)
(-1.95019 -0.00889973 0)
(-1.95098 -0.00905048 0)
(-1.95183 -0.00919993 0)
(-1.95273 -0.00934952 0)
(-1.95369 -0.00950151 0)
(-1.9547 -0.00965371 0)
(-1.95575 -0.0098046 0)
(-1.95685 -0.00995436 0)
(-1.958 -0.0101033 0)
(-1.95919 -0.0102511 0)
(-1.96045 -0.010398 0)
(-1.96176 -0.0105436 0)
(-1.96313 -0.0106879 0)
(-1.96457 -0.0108309 0)
(-1.96607 -0.0109725 0)
(-1.96765 -0.0111128 0)
(-1.9693 -0.0112516 0)
(-1.97103 -0.0113891 0)
(-1.97286 -0.011525 0)
(-1.97477 -0.0116594 0)
(-1.97678 -0.0117926 0)
(-1.9789 -0.0119243 0)
(-1.98113 -0.0120543 0)
(-1.98347 -0.012183 0)
(-1.98594 -0.0123101 0)
(-1.98854 -0.0124356 0)
(-1.99127 -0.0125594 0)
(-1.99415 -0.0126813 0)
(-1.99717 -0.012801 0)
(-2.00035 -0.0129183 0)
(-2.00369 -0.0130324 0)
(-2.00719 -0.0131416 0)
(-2.01086 -0.0132474 0)
(-2.0147 -0.0133531 0)
(-2.01872 -0.0134562 0)
(-2.02291 -0.0135535 0)
(-2.02729 -0.0136456 0)
(-2.03187 -0.0137325 0)
(-2.03663 -0.0138129 0)
(-2.04159 -0.0138869 0)
(-2.04675 -0.013955 0)
(-2.05211 -0.0140173 0)
(-2.05768 -0.0140746 0)
(-2.06344 -0.0141285 0)
(-2.06941 -0.01418 0)
(-2.07557 -0.0142286 0)
(-2.08193 -0.0142736 0)
(-2.08847 -0.0143158 0)
(-2.0952 -0.0143569 0)
(-2.1021 -0.014399 0)
(-2.10917 -0.0144444 0)
(-2.1164 -0.0144958 0)
(-2.12377 -0.0145564 0)
(-2.13129 -0.0146301 0)
(-2.13893 -0.0147219 0)
(-2.14669 -0.0148377 0)
(-2.15455 -0.0149847 0)
(-2.1625 -0.0151719 0)
(-2.17052 -0.0154104 0)
(-2.17861 -0.0157143 0)
(-2.18675 -0.0160964 0)
(-2.19493 -0.0165749 0)
(-2.20312 -0.0171742 0)
(-2.21133 -0.0179167 0)
(-2.21953 -0.0188255 0)
(-2.22772 -0.0199252 0)
(-2.23588 -0.0212374 0)
(-2.24401 -0.0227719 0)
(-2.25212 -0.0245168 0)
(-2.26022 -0.0264233 0)
(-2.26835 -0.0283786 0)
(-2.27651 -0.0301635 0)
(-2.28472 -0.0313922 0)
(-2.29292 -0.0314329 0)
(-2.30087 -0.0293252 0)
(-2.30806 -0.0236157 0)
(-2.31435 -0.0123651 0)
(-2.31974 0.00666216 0)
(-2.32159 0.0389068 0)
(-2.32552 0.0955609 0)
(-2.33094 0.197988 0)
(-2.32843 0.391577 0)
(-2.31041 0.743388 0)
(-2.0928 -0.00212972 0)
(-2.09141 -0.00410495 0)
(-2.09482 -0.00535349 0)
(-2.097 -0.00614565 0)
(-2.09933 -0.00666335 0)
(-2.10169 -0.00701385 0)
(-2.10415 -0.0072666 0)
(-2.10665 -0.00746101 0)
(-2.10922 -0.007622 0)
(-2.11185 -0.00776293 0)
(-2.11456 -0.00789274 0)
(-2.11733 -0.00801568 0)
(-2.12018 -0.00813493 0)
(-2.1231 -0.00825168 0)
(-2.1261 -0.00836701 0)
(-2.12918 -0.00848106 0)
(-2.13234 -0.00859406 0)
(-2.13559 -0.00870589 0)
(-2.13892 -0.00881717 0)
(-2.14234 -0.00892456 0)
(-2.14585 -0.00902966 0)
(-2.14946 -0.00913699 0)
(-2.15315 -0.00924498 0)
(-2.15694 -0.00935093 0)
(-2.16083 -0.00945433 0)
(-2.16481 -0.00955529 0)
(-2.16889 -0.00965355 0)
(-2.17308 -0.00974924 0)
(-2.17735 -0.00984204 0)
(-2.18174 -0.00993186 0)
(-2.18622 -0.0100187 0)
(-2.19081 -0.0101024 0)
(-2.19551 -0.0101832 0)
(-2.20031 -0.0102606 0)
(-2.20521 -0.0103353 0)
(-2.21023 -0.0104063 0)
(-2.21535 -0.010474 0)
(-2.22058 -0.0105387 0)
(-2.22592 -0.0106003 0)
(-2.23136 -0.0106585 0)
(-2.23692 -0.0107139 0)
(-2.24258 -0.0107661 0)
(-2.24834 -0.0108153 0)
(-2.25421 -0.0108614 0)
(-2.26018 -0.0109046 0)
(-2.26625 -0.0109446 0)
(-2.27242 -0.0109815 0)
(-2.27868 -0.0110147 0)
(-2.28503 -0.0110436 0)
(-2.29147 -0.0110694 0)
(-2.29799 -0.0110937 0)
(-2.3046 -0.011115 0)
(-2.31128 -0.0111318 0)
(-2.31804 -0.0111437 0)
(-2.32486 -0.0111504 0)
(-2.33174 -0.0111515 0)
(-2.33869 -0.0111471 0)
(-2.34568 -0.0111377 0)
(-2.35272 -0.0111238 0)
(-2.35981 -0.0111062 0)
(-2.36693 -0.0110869 0)
(-2.37409 -0.0110679 0)
(-2.38127 -0.0110489 0)
(-2.38848 -0.0110282 0)
(-2.39571 -0.0110065 0)
(-2.40297 -0.0109863 0)
(-2.41024 -0.0109699 0)
(-2.41754 -0.0109597 0)
(-2.42485 -0.0109585 0)
(-2.43218 -0.0109697 0)
(-2.43954 -0.0109972 0)
(-2.44691 -0.0110458 0)
(-2.4543 -0.0111216 0)
(-2.46172 -0.0112316 0)
(-2.46917 -0.0113851 0)
(-2.47664 -0.0115928 0)
(-2.48415 -0.0118694 0)
(-2.49168 -0.0122277 0)
(-2.49926 -0.0126836 0)
(-2.50689 -0.0132606 0)
(-2.51459 -0.0139819 0)
(-2.52236 -0.0148705 0)
(-2.53021 -0.0159501 0)
(-2.53817 -0.0172407 0)
(-2.54623 -0.0187498 0)
(-2.55442 -0.020462 0)
(-2.56275 -0.0223259 0)
(-2.57124 -0.0242299 0)
(-2.57987 -0.0259645 0)
(-2.58856 -0.0271721 0)
(-2.59711 -0.0272865 0)
(-2.6051 -0.0254693 0)
(-2.61167 -0.0205185 0)
(-2.61626 -0.0106485 0)
(-2.61792 0.00677247 0)
(-2.61198 0.037449 0)
(-2.59991 0.0918457 0)
(-2.57392 0.189942 0)
(-2.512 0.367601 0)
(-2.41555 0.651372 0)
(-2.24861 -0.00210953 0)
(-2.24851 -0.00373522 0)
(-2.25302 -0.00479928 0)
(-2.25671 -0.0054912 0)
(-2.26061 -0.00594355 0)
(-2.26471 -0.00624368 0)
(-2.2689 -0.00645324 0)
(-2.27323 -0.00660676 0)
(-2.27763 -0.00672788 0)
(-2.28214 -0.00682827 0)
(-2.28671 -0.00691704 0)
(-2.29138 -0.00699762 0)
(-2.29611 -0.00707369 0)
(-2.30093 -0.00714593 0)
(-2.30581 -0.00721596 0)
(-2.31078 -0.00728361 0)
(-2.3158 -0.00734959 0)
(-2.32091 -0.0074134 0)
(-2.32606 -0.00747649 0)
(-2.33128 -0.00753548 0)
(-2.33657 -0.00759018 0)
(-2.34192 -0.00764348 0)
(-2.34734 -0.00769522 0)
(-2.35284 -0.00774421 0)
(-2.3584 -0.00779032 0)
(-2.36405 -0.00783357 0)
(-2.36975 -0.00787392 0)
(-2.37554 -0.00791149 0)
(-2.38138 -0.00794618 0)
(-2.3873 -0.00797791 0)
(-2.39326 -0.0080069 0)
(-2.3993 -0.00803305 0)
(-2.40538 -0.00805678 0)
(-2.41153 -0.0080778 0)
(-2.41771 -0.00809681 0)
(-2.42395 -0.00811306 0)
(-2.43022 -0.00812686 0)
(-2.43654 -0.00813874 0)
(-2.44288 -0.00814874 0)
(-2.44925 -0.00815684 0)
(-2.45565 -0.00816345 0)
(-2.46207 -0.00816846 0)
(-2.4685 -0.00817206 0)
(-2.47495 -0.00817426 0)
(-2.48141 -0.00817531 0)
(-2.48787 -0.00817485 0)
(-2.49434 -0.00817334 0)
(-2.5008 -0.00817013 0)
(-2.50726 -0.00816503 0)
(-2.51371 -0.0081587 0)
(-2.52015 -0.0081521 0)
(-2.52658 -0.00814421 0)
(-2.533 -0.00813408 0)
(-2.5394 -0.00812123 0)
(-2.54578 -0.00810519 0)
(-2.55215 -0.00808551 0)
(-2.5585 -0.00806198 0)
(-2.56484 -0.00803493 0)
(-2.57116 -0.00800448 0)
(-2.57746 -0.0079712 0)
(-2.58375 -0.00793671 0)
(-2.59004 -0.00790439 0)
(-2.59631 -0.0078736 0)
(-2.60258 -0.00783993 0)
(-2.60885 -0.0078043 0)
(-2.61514 -0.00776922 0)
(-2.62143 -0.00773712 0)
(-2.62775 -0.00771013 0)
(-2.63409 -0.00769078 0)
(-2.64047 -0.0076821 0)
(-2.64688 -0.00768774 0)
(-2.65335 -0.00771212 0)
(-2.65988 -0.00776105 0)
(-2.66648 -0.0078416 0)
(-2.67315 -0.00796269 0)
(-2.67991 -0.00813495 0)
(-2.68677 -0.00837134 0)
(-2.69373 -0.00868644 0)
(-2.70084 -0.00909706 0)
(-2.70808 -0.00962293 0)
(-2.71544 -0.0102861 0)
(-2.72296 -0.0111099 0)
(-2.73066 -0.0121163 0)
(-2.73855 -0.0133249 0)
(-2.74666 -0.014744 0)
(-2.75501 -0.0163568 0)
(-2.7636 -0.018114 0)
(-2.77244 -0.0199157 0)
(-2.78146 -0.0215766 0)
(-2.79053 -0.0227866 0)
(-2.79932 -0.0230717 0)
(-2.80727 -0.0217427 0)
(-2.81333 -0.0179001 0)
(-2.81632 -0.0100246 0)
(-2.815 0.00458894 0)
(-2.80223 0.0311195 0)
(-2.77629 0.0783689 0)
(-2.72368 0.163392 0)
(-2.61586 0.311342 0)
(-2.46985 0.524295 0)
(-2.38942 -0.00177264 0)
(-2.39015 -0.00291629 0)
(-2.39518 -0.00370963 0)
(-2.39968 -0.00423343 0)
(-2.40433 -0.00457311 0)
(-2.40934 -0.00479291 0)
(-2.41435 -0.00493957 0)
(-2.41958 -0.00504052 0)
(-2.42477 -0.00511442 0)
(-2.43013 -0.00517091 0)
(-2.43545 -0.0052174 0)
(-2.4409 -0.00525681 0)
(-2.44632 -0.00529239 0)
(-2.45184 -0.00532468 0)
(-2.45733 -0.00535538 0)
(-2.46291 -0.00538423 0)
(-2.46846 -0.00541216 0)
(-2.47409 -0.00543841 0)
(-2.4797 -0.00546324 0)
(-2.48536 -0.00548551 0)
(-2.49104 -0.00550586 0)
(-2.49675 -0.00552359 0)
(-2.50243 -0.00553879 0)
(-2.50814 -0.00555162 0)
(-2.51382 -0.00556277 0)
(-2.51953 -0.00557214 0)
(-2.5252 -0.00558001 0)
(-2.53089 -0.0055863 0)
(-2.53654 -0.00559129 0)
(-2.54221 -0.00559454 0)
(-2.54783 -0.00559674 0)
(-2.55346 -0.0055975 0)
(-2.55905 -0.00559781 0)
(-2.56463 -0.00559686 0)
(-2.57017 -0.00559577 0)
(-2.57571 -0.00559365 0)
(-2.58119 -0.00559096 0)
(-2.58667 -0.00558801 0)
(-2.5921 -0.0055848 0)
(-2.59753 -0.00558134 0)
(-2.6029 -0.00557799 0)
(-2.60827 -0.00557444 0)
(-2.61359 -0.00557079 0)
(-2.6189 -0.00556693 0)
(-2.62418 -0.00556306 0)
(-2.62944 -0.00555863 0)
(-2.63467 -0.00555403 0)
(-2.6399 -0.00554866 0)
(-2.6451 -0.00554233 0)
(-2.65029 -0.00553511 0)
(-2.65547 -0.00552748 0)
(-2.66064 -0.00551864 0)
(-2.66581 -0.00550762 0)
(-2.67099 -0.00549388 0)
(-2.67616 -0.00547679 0)
(-2.68135 -0.00545576 0)
(-2.68655 -0.00543022 0)
(-2.69176 -0.00540016 0)
(-2.697 -0.00536547 0)
(-2.70226 -0.00532627 0)
(-2.70755 -0.00528314 0)
(-2.71289 -0.0052417 0)
(-2.71825 -0.00520311 0)
(-2.72367 -0.00515625 0)
(-2.72913 -0.00510379 0)
(-2.73466 -0.00504888 0)
(-2.74025 -0.00499378 0)
(-2.74593 -0.00494049 0)
(-2.75168 -0.00489116 0)
(-2.75753 -0.00484853 0)
(-2.76347 -0.00481596 0)
(-2.76952 -0.00479764 0)
(-2.77569 -0.00479909 0)
(-2.782 -0.00482706 0)
(-2.78844 -0.00489014 0)
(-2.79503 -0.00499871 0)
(-2.80179 -0.00516368 0)
(-2.80873 -0.00540122 0)
(-2.81586 -0.0057313 0)
(-2.8232 -0.00617175 0)
(-2.83074 -0.00674181 0)
(-2.83853 -0.00746278 0)
(-2.84656 -0.00835425 0)
(-2.85489 -0.00943617 0)
(-2.8635 -0.0107206 0)
(-2.87243 -0.0121918 0)
(-2.88167 -0.0138058 0)
(-2.89119 -0.0154828 0)
(-2.9009 -0.0170738 0)
(-2.91058 -0.0183302 0)
(-2.91984 -0.0188845 0)
(-2.92798 -0.0182273 0)
(-2.93387 -0.0157151 0)
(-2.9357 -0.0103121 0)
(-2.93212 0.000411257 0)
(-2.9143 0.0206086 0)
(-2.87723 0.0567547 0)
(-2.80406 0.121732 0)
(-2.66386 0.231462 0)
(-2.48834 0.377205 0)
(-2.49514 -0.00115747 0)
(-2.49645 -0.00182485 0)
(-2.50136 -0.00232303 0)
(-2.50597 -0.00265203 0)
(-2.51062 -0.00286419 0)
(-2.51569 -0.00300001 0)
(-2.52064 -0.00308841 0)
(-2.52587 -0.00314739 0)
(-2.53091 -0.00318858 0)
(-2.53614 -0.00321857 0)
(-2.54119 -0.00324199 0)
(-2.54639 -0.00326096 0)
(-2.55141 -0.00327767 0)
(-2.55654 -0.0032925 0)
(-2.56152 -0.00330667 0)
(-2.56659 -0.00332004 0)
(-2.5715 -0.00333319 0)
(-2.5765 -0.00334541 0)
(-2.58135 -0.00335528 0)
(-2.58626 -0.00336433 0)
(-2.59105 -0.00337603 0)
(-2.59587 -0.00338843 0)
(-2.60056 -0.00340001 0)
(-2.60527 -0.00341039 0)
(-2.60986 -0.00342024 0)
(-2.61447 -0.00342935 0)
(-2.61895 -0.00343803 0)
(-2.62345 -0.00344597 0)
(-2.62784 -0.0034535 0)
(-2.63224 -0.0034599 0)
(-2.63654 -0.00346591 0)
(-2.64085 -0.00347095 0)
(-2.64507 -0.00347614 0)
(-2.64929 -0.00348048 0)
(-2.65344 -0.00348495 0)
(-2.65758 -0.00348878 0)
(-2.66167 -0.00349206 0)
(-2.66576 -0.0034951 0)
(-2.6698 -0.00349765 0)
(-2.67384 -0.00349955 0)
(-2.67784 -0.00350149 0)
(-2.68185 -0.00350252 0)
(-2.68582 -0.00350284 0)
(-2.68981 -0.00350208 0)
(-2.69379 -0.00350049 0)
(-2.69777 -0.00349764 0)
(-2.70175 -0.00349316 0)
(-2.70575 -0.00348696 0)
(-2.70976 -0.0034787 0)
(-2.71378 -0.00346839 0)
(-2.71783 -0.00345581 0)
(-2.7219 -0.00344043 0)
(-2.72601 -0.00342141 0)
(-2.73015 -0.0033981 0)
(-2.73432 -0.00336991 0)
(-2.73854 -0.00333619 0)
(-2.74281 -0.00329629 0)
(-2.74713 -0.00324989 0)
(-2.7515 -0.00319667 0)
(-2.75594 -0.00313683 0)
(-2.76044 -0.00306895 0)
(-2.76502 -0.00300043 0)
(-2.76967 -0.0029412 0)
(-2.7744 -0.00286465 0)
(-2.77921 -0.00277803 0)
(-2.78413 -0.00268625 0)
(-2.78914 -0.00259136 0)
(-2.79427 -0.00249501 0)
(-2.79951 -0.00239895 0)
(-2.80488 -0.0023056 0)
(-2.81038 -0.00221807 0)
(-2.81603 -0.00214021 0)
(-2.82183 -0.00207719 0)
(-2.8278 -0.00203538 0)
(-2.83394 -0.00202284 0)
(-2.84027 -0.00204946 0)
(-2.84681 -0.00212601 0)
(-2.85357 -0.00226824 0)
(-2.86056 -0.00249533 0)
(-2.86782 -0.00282477 0)
(-2.87536 -0.00327461 0)
(-2.88321 -0.0038651 0)
(-2.89139 -0.00461225 0)
(-2.89994 -0.00553569 0)
(-2.90888 -0.00665789 0)
(-2.91821 -0.00796431 0)
(-2.92794 -0.00941721 0)
(-2.93804 -0.010965 0)
(-2.94836 -0.0125051 0)
(-2.95869 -0.0138591 0)
(-2.96857 -0.0147737 0)
(-2.97728 -0.0149349 0)
(-2.98359 -0.0139366 0)
(-2.98554 -0.011261 0)
(-2.98064 -0.00523151 0)
(-2.96187 0.00686821 0)
(-2.91808 0.0290236 0)
(-2.83247 0.0689361 0)
(-2.6732 0.135318 0)
(-2.48281 0.219037 0)
(-2.54408 -0.000335711 0)
(-2.5454 -0.000619978 0)
(-2.54984 -0.00083039 0)
(-2.55409 -0.000966384 0)
(-2.55831 -0.00105894 0)
(-2.56298 -0.0011243 0)
(-2.56744 -0.00117298 0)
(-2.57217 -0.00121128 0)
(-2.57665 -0.00124349 0)
(-2.58132 -0.00127186 0)
(-2.58572 -0.00129809 0)
(-2.59027 -0.00132282 0)
(-2.59457 -0.00134708 0)
(-2.59899 -0.00137081 0)
(-2.60318 -0.00139446 0)
(-2.60746 -0.00141813 0)
(-2.61154 -0.00144166 0)
(-2.61569 -0.00146468 0)
(-2.61964 -0.00148581 0)
(-2.62366 -0.00150719 0)
(-2.62751 -0.00153176 0)
(-2.63141 -0.00155836 -1.83185e-41)
(-2.63515 -0.00158484 0)
(-2.63894 -0.00161043 0)
(-2.64259 -0.00163516 0)
(-2.64629 -0.0016589 0)
(-2.64986 -0.00168169 0)
(-2.65347 -0.0017033 0)
(-2.65696 -0.00172355 0)
(-2.6605 -0.00174221 0)
(-2.66393 -0.00175931 0)
(-2.66741 -0.00177499 0)
(-2.6708 -0.00178937 0)
(-2.67422 -0.00180246 0)
(-2.67758 -0.00181416 0)
(-2.68095 -0.00182443 0)
(-2.68429 -0.00183316 0)
(-2.68764 -0.0018403 0)
(-2.69097 -0.00184567 0)
(-2.69431 -0.00184899 0)
(-2.69763 -0.00185111 0)
(-2.70097 -0.0018509 0)
(-2.7043 -0.00184847 0)
(-2.70766 -0.00184345 0)
(-2.71101 -0.00183598 0)
(-2.71439 -0.00182598 0)
(-2.71779 -0.00181241 0)
(-2.72121 -0.00179556 0)
(-2.72465 -0.00177506 0)
(-2.72813 -0.0017511 0)
(-2.73164 -0.00172296 0)
(-2.73518 -0.0016902 0)
(-2.73877 -0.0016522 0)
(-2.7424 -0.00160813 0)
(-2.74607 -0.00155767 0)
(-2.7498 -0.00149999 0)
(-2.75358 -0.00143448 0)
(-2.75742 -0.00136051 0)
(-2.76132 -0.00127754 0)
(-2.76529 -0.00118567 0)
(-2.76933 -0.00108394 0)
(-2.77346 -0.000970781 0)
(-2.77765 -0.000887611 0)
(-2.78192 -0.000769737 0)
(-2.78628 -0.000637667 0)
(-2.79075 -0.0004988 0)
(-2.79532 -0.000354469 0)
(-2.80001 -0.000205744 0)
(-2.80481 -5.39425e-05 0)
(-2.80975 9.89098e-05 0)
(-2.81482 0.000249987 0)
(-2.82003 0.000395874 0)
(-2.82541 0.000531905 0)
(-2.83095 0.000652136 0)
(-2.83667 0.000749152 0)
(-2.84259 0.000813768 0)
(-2.84872 0.000835077 0)
(-2.85508 0.000798704 0)
(-2.86168 0.000687949 0)
(-2.86855 0.000486002 0)
(-2.87572 0.000175259 0)
(-2.8832 -0.000263721 0)
(-2.89102 -0.000847476 -9.96203e-42)
(-2.89923 -0.00159054 0)
(-2.9078 -0.00252797 0)
(-2.91673 -0.00364975 0)
(-2.9261 -0.0049246 0)
(-2.93581 -0.00633367 -7.44519e-41)
(-2.94575 -0.00782921 0)
(-2.95564 -0.00930502 0)
(-2.96506 -0.0106217 0)
(-2.97327 -0.0116569 0)
(-2.97905 -0.0122863 0)
(-2.98051 -0.01238 -7.27633e-41)
(-2.97426 -0.0113896 0)
(-2.95485 -0.00833236 0)
(-2.90929 -0.00192603 -2.26404e-41)
(-2.81928 0.0100057 0)
(-2.65336 0.0300679 0)
(-2.45828 0.0554015 0)
(-2.51826 0.000537736 0)
(-2.51907 0.000619373 0)
(-2.52333 0.000708241 0)
(-2.52737 0.000766173 0)
(-2.53143 0.000791098 0)
(-2.53594 0.000792212 0)
(-2.5403 0.000778025 0)
(-2.54494 0.000754346 0)
(-2.54938 0.000724553 0)
(-2.55402 0.000690819 0)
(-2.55844 0.000654602 0)
(-2.56302 0.000616767 0)
(-2.5674 0.000577695 0)
(-2.57189 0.000537697 0)
(-2.57621 0.000497297 0)
(-2.58062 0.000456182 0)
(-2.58487 0.000415224 0)
(-2.58919 0.000374558 0)
(-2.59336 0.00033501 0)
(-2.59759 0.00029489 0)
(-2.60168 0.00025316 0)
(-2.60582 0.000210322 2.47232e-42)
(-2.60984 0.000168098 0)
(-2.61389 0.000126969 0)
(-2.61783 8.73975e-05 0)
(-2.62181 4.93147e-05 0)
(-2.62568 1.29563e-05 0)
(-2.62957 -2.15905e-05 0)
(-2.63337 -5.36518e-05 0)
(-2.63719 -8.33858e-05 0)
(-2.64092 -0.000110235 0)
(-2.64467 -0.000135067 0)
(-2.64834 -0.000157118 0)
(-2.65203 -0.000177226 0)
(-2.65565 -0.00019447 0)
(-2.65929 -0.00020934 0)
(-2.66287 -0.000221656 0)
(-2.66645 -0.00023103 0)
(-2.67 -0.00023741 0)
(-2.67355 -0.00024068 0)
(-2.67707 -0.000240731 0)
(-2.68059 -0.000237438 0)
(-2.6841 -0.000230424 0)
(-2.68761 -0.000219457 0)
(-2.69112 -0.000204409 0)
(-2.69463 -0.000185146 0)
(-2.69815 -0.000160817 0)
(-2.70167 -0.000131522 0)
(-2.70521 -9.70474e-05 0)
(-2.70877 -5.73241e-05 0)
(-2.71235 -1.17389e-05 0)
(-2.71595 4.02134e-05 0)
(-2.71958 9.90343e-05 0)
(-2.72325 0.00016561 0)
(-2.72694 0.000240176 0)
(-2.73067 0.000323742 0)
(-2.73445 0.000416686 0)
(-2.73827 0.000519995 0)
(-2.74214 0.000634723 0)
(-2.74607 0.000760469 0)
(-2.75005 0.000897075 0)
(-2.75409 0.00104805 0)
(-2.7582 0.00117283 0)
(-2.76239 0.00133446 0)
(-2.76667 0.00151296 0)
(-2.77102 0.00170115 0)
(-2.77547 0.00189799 0)
(-2.78 0.00210265 0)
(-2.78465 0.00231422 0)
(-2.7894 0.00253106 0)
(-2.79427 0.00275061 0)
(-2.79927 0.00297002 0)
(-2.8044 0.00318525 0)
(-2.80969 0.00339086 0)
(-2.81514 0.00358016 0)
(-2.82076 0.00374468 0)
(-2.82658 0.00387404 0)
(-2.8326 0.00395523 0)
(-2.83885 0.00397332 0)
(-2.84535 0.00391249 0)
(-2.85212 0.00375578 0)
(-2.85918 0.00348488 0)
(-2.86656 0.00307905 3.61941e-41)
(-2.87429 0.00252478 0)
(-2.88235 0.00179389 0)
(-2.89075 0.000883412 0)
(-2.8995 -0.000199241 0)
(-2.9085 -0.00146301 -1.71977e-41)
(-2.9176 -0.00290829 0)
(-2.92639 -0.00449188 0)
(-2.93464 -0.00619038 0)
(-2.94154 -0.00806313 0)
(-2.94593 -0.0102632 0)
(-2.94587 -0.0130638 -7.6782e-41)
(-2.93808 -0.0169385 0)
(-2.91659 -0.0226997 0)
(-2.87044 -0.0321042 -3.77383e-40)
(-2.78022 -0.0482392 0)
(-2.61574 -0.0742296 0)
(-2.42226 -0.105068 0)
(-2.43407 0.00128039 0)
(-2.43388 0.00185677 0)
(-2.43811 0.00227056 0)
(-2.44186 0.0025375 0)
(-2.44574 0.00269492 0)
(-2.45006 0.00277854 0)
(-2.45434 0.00281676 0)
(-2.4589 0.00282603 0)
(-2.46337 0.00281805 0)
(-2.46804 0.00279823 0)
(-2.47262 0.00277172 0)
(-2.47736 0.00274012 0)
(-2.48203 0.00270567 0)
(-2.48681 0.00266822 0)
(-2.49154 0.00262931 0)
(-2.49636 0.00258864 0)
(-2.50114 0.0025473 0)
(-2.50599 0.00250531 0)
(-2.5108 0.00246321 0)
(-2.51568 0.00241979 0)
(-2.52052 0.00237481 0)
(-2.52541 0.00232849 0)
(-2.53026 0.00228213 0)
(-2.53515 0.0022361 0)
(-2.54001 0.00219097 0)
(-2.54489 0.00214669 0)
(-2.54974 0.00210344 0)
(-2.55461 0.00206139 0)
(-2.55943 0.00202141 0)
(-2.56427 0.00198373 0)
(-2.56906 0.00194877 0)
(-2.57386 0.00191575 0)
(-2.57861 0.00188527 0)
(-2.58337 0.00185681 0)
(-2.58807 0.00183125 0)
(-2.59277 0.00180829 0)
(-2.59742 0.00178831 0)
(-2.60206 0.00177172 0)
(-2.60666 0.00175862 0)
(-2.61124 0.00174898 0)
(-2.61578 0.00174397 0)
(-2.6203 0.00174272 0)
(-2.62479 0.00174616 0)
(-2.62926 0.00175455 0)
(-2.63369 0.00176828 0)
(-2.6381 0.00178768 0)
(-2.64249 0.00181334 0)
(-2.64687 0.00184552 0)
(-2.65122 0.00188439 0)
(-2.65556 0.00193037 0)
(-2.65989 0.00198394 0)
(-2.66421 0.00204575 0)
(-2.66853 0.00211621 0)
(-2.67285 0.00219604 0)
(-2.67717 0.00228599 0)
(-2.6815 0.00238704 0)
(-2.68584 0.00249954 0)
(-2.6902 0.00262457 0)
(-2.69459 0.00276332 0)
(-2.69899 0.00291489 0)
(-2.70343 0.00307941 0)
(-2.70789 0.00325267 0)
(-2.71241 0.00342621 0)
(-2.71697 0.00362465 0)
(-2.72158 0.00384158 0)
(-2.72625 0.00407257 0)
(-2.73098 0.00431626 0)
(-2.73578 0.00457183 0)
(-2.74066 0.00483857 0)
(-2.74562 0.00511528 0)
(-2.75068 0.00539976 0)
(-2.75584 0.00568973 0)
(-2.76112 0.00598179 0)
(-2.76653 0.0062711 0)
(-2.77208 0.00655161 0)
(-2.77778 0.00681566 0)
(-2.78367 0.00705356 0)
(-2.78974 0.00725354 0)
(-2.79603 0.00740195 0)
(-2.80256 0.00748384 0)
(-2.80935 0.00748297 0)
(-2.81643 0.00738128 0)
(-2.82383 0.00715595 0)
(-2.83157 0.00679012 0)
(-2.83967 0.00626744 0)
(-2.84814 0.0055698 0)
(-2.85697 0.0046723 0)
(-2.8661 0.00353672 0)
(-2.87537 0.00213018 0)