/*--------------------------------*- C++ -*----------------------------------*\
| =========                 |                                                 |
| \\      /  F ield         | OpenFOAM: The Open Source CFD Toolbox           |
|  \\    /   O peration     | Version:  2.1.0                                 |
|   \\  /    A nd           | Web:      www.OpenFOAM.org                      |
|    \\/     M anipulation  |                                                 |
\*---------------------------------------------------------------------------*/
FoamFile
{
    version     2.0;
    format      ascii;
    class       volScalarField;
    location    "0.27";
    object      k;
}
// * * * * * * * * * * * * * * * * * * * * * * * * * * * * * * * * * * * * * //

dimensions      [0 2 -2 0 0 0 0];

internalField   nonuniform List<scalar> 
6400
(
0.0300454
0.0300817
0.030085
0.0300799
0.0300619
0.0300534
0.0300311
0.0300208
0.0299975
0.0299866
0.0299639
0.029953
0.0299312
0.0299206
0.0299012
0.0298906
0.0298746
0.029865
0.029853
0.0298452
0.0298373
0.0298321
0.0298281
0.0298256
0.029825
0.0298252
0.0298268
0.029829
0.0298326
0.0298364
0.0298414
0.0298461
0.0298516
0.0298562
0.0298607
0.0298636
0.0298649
0.0298639
0.02986
0.0298513
0.0298378
0.0298174
0.0297905
0.0297544
0.0297099
0.0296548
0.0295894
0.0295118
0.0294216
0.0293168
0.0291968
0.0290654
0.0289229
0.0287716
0.0286087
0.0284342
0.0282495
0.0280519
0.0278423
0.0276211
0.0273888
0.0271461
0.0268942
0.0266297
0.0263525
0.0260666
0.0257679
0.0254507
0.0251199
0.0247762
0.02441
0.0240303
0.0236319
0.023214
0.0227806
0.0223295
0.0218635
0.0213851
0.0208952
0.0203968
0.0198893
0.0193687
0.0188202
0.0182148
0.0175942
0.016936
0.0162224
0.0154418
0.0145525
0.0135108
0.0122449
0.0106441
0.00860893
0.0061691
0.00356162
0.00231043
0.00272423
0.00550505
0.00872619
0.00987743
0.0484242
0.0487484
0.0488981
0.0491735
0.04935
0.0496252
0.0498255
0.0500984
0.0503205
0.0505929
0.050834
0.0511082
0.0513657
0.0516439
0.0519161
0.0522009
0.0524875
0.0527822
0.0530849
0.0533937
0.0537141
0.05404
0.0543788
0.0547222
0.055079
0.0554397
0.0558142
0.056193
0.0565848
0.0569814
0.0573899
0.0578032
0.0582269
0.0586554
0.0590923
0.0595333
0.0599809
0.0604311
0.0608857
0.061341
0.0617961
0.0622464
0.0626923
0.0631286
0.0635561
0.0639701
0.0643697
0.0647514
0.0651148
0.0654609
0.0657818
0.0660823
0.0663702
0.0666452
0.0669023
0.0671417
0.067367
0.0675684
0.0677494
0.0679038
0.0680378
0.06815
0.0682481
0.0683151
0.068359
0.0683776
0.0683808
0.0683404
0.0682627
0.0681481
0.0679771
0.0677609
0.0674764
0.0671265
0.0667009
0.0661884
0.0655867
0.0648841
0.0640762
0.0631586
0.0621286
0.0609889
0.0597363
0.0583577
0.0567755
0.0550168
0.0530028
0.0507202
0.0480725
0.0450104
0.0414515
0.0373587
0.03282
0.0280887
0.0232441
0.0185524
0.0148588
0.0123418
0.0107285
0.00917919
0.0542834
0.0547638
0.0549847
0.0553883
0.0556702
0.0560628
0.0563845
0.0567734
0.0571249
0.0575159
0.0578909
0.0582877
0.0586821
0.0590871
0.059498
0.0599129
0.0603385
0.0607648
0.0612061
0.0616501
0.0621109
0.062574
0.0630538
0.0635352
0.0640327
0.0645308
0.0650434
0.0655578
0.0660858
0.0666154
0.067156
0.0676976
0.0682468
0.0687953
0.069348
0.0698977
0.0704481
0.070993
0.071534
0.0720639
0.0725841
0.0730913
0.0735845
0.0740569
0.0745096
0.0749353
0.0753296
0.0756867
0.0759976
0.0762948
0.0765635
0.0768019
0.0770076
0.0771909
0.0773371
0.0774507
0.0775406
0.0775895
0.0776126
0.0776188
0.0775803
0.0774926
0.0773778
0.077202
0.0769938
0.076733
0.0764202
0.0760601
0.0756385
0.075159
0.0746105
0.0739899
0.0732846
0.0724919
0.0715956
0.0705901
0.0694632
0.0682046
0.0668077
0.0652641
0.0635705
0.0617233
0.0597211
0.0575626
0.0552749
0.05284
0.0502698
0.0475423
0.044651
0.0415622
0.0382501
0.0346651
0.0307945
0.0266178
0.0222519
0.0179227
0.0143115
0.0113748
0.00920659
0.00705711
0.0588904
0.0594393
0.0596914
0.0601662
0.0605046
0.060964
0.0613528
0.0618062
0.062229
0.0626837
0.0631314
0.0635919
0.0640585
0.064527
0.065008
0.0654837
0.065973
0.066451
0.0669387
0.0674249
0.0679261
0.0684233
0.0689352
0.0694422
0.0699632
0.0704798
0.0710098
0.0715321
0.0720618
0.0725836
0.0731078
0.0736221
0.0741336
0.074632
0.0751225
0.0755959
0.0760558
0.0764938
0.0769145
0.0773115
0.0776804
0.0780188
0.0783326
0.0786061
0.0788502
0.0790559
0.0792217
0.0793512
0.0794313
0.0794689
0.0794798
0.0794476
0.0793431
0.0792147
0.0790169
0.0787669
0.078466
0.0780892
0.0776561
0.0771469
0.0765644
0.0759108
0.075177
0.0743602
0.0734652
0.0724781
0.0714071
0.0702469
0.0689945
0.067656
0.0662254
0.0647099
0.0631078
0.0614252
0.0596624
0.0578276
0.0559206
0.0539505
0.0519178
0.0498286
0.0476853
0.0454899
0.0432456
0.0409516
0.0386134
0.036228
0.0338109
0.0313656
0.0289002
0.0264147
0.023923
0.0214231
0.0189312
0.0164507
0.0140228
0.0117265
0.00960064
0.0077945
0.00655254
0.00597018
0.0606026
0.0611224
0.0613567
0.0618138
0.0621256
0.0625648
0.0629209
0.0633461
0.0637291
0.0641452
0.0645443
0.0649546
0.0653629
0.0657692
0.0661814
0.0665837
0.0669953
0.0673929
0.0678012
0.0681948
0.0685974
0.0689832
0.0693757
0.0697516
0.07013
0.0704894
0.0708487
0.0711868
0.0715185
0.0718272
0.0721222
0.0723904
0.0726384
0.0728544
0.0730443
0.0731967
0.0733163
0.073385
0.0734149
0.0734205
0.0733679
0.0732526
0.0731072
0.0728877
0.0726262
0.0723027
0.0719187
0.0714814
0.0709761
0.0704166
0.0697923
0.0691049
0.0683519
0.067544
0.0666686
0.0657359
0.0647425
0.0636845
0.0625727
0.0613982
0.060169
0.0588866
0.0575493
0.0561647
0.0547323
0.0532544
0.0517377
0.0501801
0.0485893
0.0469662
0.0453146
0.0436403
0.0419446
0.0402389
0.0385225
0.0368045
0.0350842
0.0333707
0.0316631
0.0299709
0.028295
0.0266447
0.0250227
0.0234369
0.0218913
0.0203913
0.0189353
0.0175184
0.0161486
0.01482
0.0135382
0.012297
0.0111037
0.00995832
0.00887776
0.00788217
0.00699017
0.00637439
0.00610857
0.00610899
0.0578453
0.0581512
0.0582904
0.0585719
0.058761
0.0590252
0.0592346
0.059477
0.0596905
0.0599104
0.0601179
0.060315
0.0605095
0.060683
0.0608583
0.061006
0.0611565
0.0612752
0.0613954
0.0614813
0.0615659
0.0616143
0.0616481
0.0616601
0.0616607
0.0616157
0.0615593
0.0614647
0.0613511
0.0611986
0.0610181
0.060796
0.0605403
0.0602389
0.0599003
0.0595126
0.0590848
0.0586062
0.0580874
0.0575194
0.0569057
0.0562444
0.0555442
0.0547933
0.0540077
0.0531766
0.0523091
0.0514049
0.0504638
0.049492
0.0484876
0.0474551
0.0463963
0.0453129
0.0442072
0.0430815
0.0419384
0.0407806
0.0396143
0.0384373
0.0372573
0.0360728
0.0348893
0.0337079
0.0325319
0.0313626
0.0302046
0.0290571
0.0279266
0.0268119
0.0257192
0.0246481
0.023603
0.0225808
0.0215856
0.0206172
0.0196781
0.0187694
0.0178919
0.0170465
0.0162294
0.0154439
0.0146871
0.0139599
0.0132603
0.0125865
0.0119378
0.0113105
0.0107044
0.0101135
0.00953806
0.00897145
0.00841671
0.00787167
0.00735131
0.00686867
0.00651971
0.00636776
0.00634371
0.00656471
0.0492815
0.0491973
0.0491651
0.0491153
0.0490848
0.0490229
0.0489773
0.0488922
0.048823
0.0487096
0.048612
0.0484679
0.0483387
0.0481621
0.0479985
0.0477875
0.0475867
0.0473393
0.0470988
0.0468132
0.0465316
0.0462072
0.045885
0.0455251
0.0451628
0.0447578
0.0443453
0.0438909
0.0434246
0.0429184
0.0423948
0.0418338
0.0412533
0.0406372
0.0400018
0.0393334
0.0386477
0.0379328
0.0372039
0.0364508
0.0356885
0.0349097
0.0341261
0.0333312
0.032537
0.0317368
0.0309415
0.0301459
0.0293588
0.0285767
0.0278066
0.0270452
0.0262992
0.0255612
0.0248403
0.0241308
0.0234404
0.0227626
0.0221035
0.0214586
0.0208337
0.020224
0.0196343
0.0190603
0.0185051
0.0179663
0.0174449
0.0169374
0.0164465
0.0159684
0.0155061
0.015055
0.0146178
0.0141894
0.0137722
0.0133613
0.0129584
0.0125584
0.01217
0.0117875
0.0114217
0.0110606
0.0107143
0.0103707
0.0100399
0.00971036
0.00939211
0.00907456
0.00876804
0.00846382
0.00817371
0.00789169
0.0076334
0.00739637
0.00720647
0.00708972
0.00704049
0.00709294
0.00742869
0.00761676
0.036285
0.0358759
0.0357041
0.0353794
0.0351812
0.034855
0.0346262
0.0342892
0.0340295
0.0336772
0.0333876
0.0330177
0.0326992
0.0323106
0.031965
0.0315571
0.0311847
0.0307567
0.0303576
0.0299085
0.0294829
0.029012
0.0285609
0.0280696
0.0275977
0.027099
0.0266173
0.0261054
0.0256091
0.0250877
0.0245811
0.0240549
0.0235449
0.0230195
0.0225126
0.0219952
0.021499
0.020997
0.0205189
0.0200392
0.0195842
0.01913
0.0187019
0.018277
0.0178792
0.0174862
0.0171207
0.0167612
0.0164283
0.0161032
0.0158029
0.0155106
0.0152423
0.0149818
0.0147439
0.0145136
0.0143042
0.0141021
0.0139189
0.0137429
0.0135841
0.0134322
0.0132954
0.0131657
0.0130486
0.012937
0.0128374
0.0127439
0.0126618
0.0125845
0.0125177
0.0124543
0.0123999
0.0123476
0.0123025
0.0122581
0.0122189
0.0121789
0.0121419
0.0121017
0.0120601
0.0120112
0.0119569
0.0118911
0.0118146
0.0117219
0.0116132
0.0114843
0.0113359
0.0111667
0.0109802
0.0107804
0.0105775
0.0103839
0.0102368
0.0101705
0.0101603
0.0103879
0.0107228
0.0108833
0.0226305
0.0220796
0.0218518
0.0214207
0.0211798
0.0207632
0.0205101
0.0201052
0.019843
0.0194491
0.0191814
0.0187991
0.0185292
0.0181587
0.0178884
0.0175299
0.0172612
0.0169148
0.0166492
0.0163149
0.0160533
0.0157317
0.015476
0.0151695
0.0149244
0.0146384
0.014406
0.0141394
0.0139218
0.0136757
0.0134737
0.0132496
0.0130654
0.0128644
0.0126996
0.0125233
0.0123806
0.0122295
0.0121101
0.0119848
0.011889
0.0117894
0.0117175
0.011643
0.0115947
0.0115449
0.0115199
0.0115003
0.0114935
0.0114927
0.0115124
0.0115363
0.0115773
0.0116231
0.011685
0.0117516
0.0118341
0.0119219
0.0120259
0.012136
0.0122617
0.0123946
0.0125415
0.0126972
0.0128656
0.013044
0.0132348
0.0134357
0.0136497
0.0138742
0.0141125
0.0143616
0.014625
0.0148996
0.015189
0.0154901
0.0158063
0.0161343
0.0164771
0.0168309
0.0171985
0.0175752
0.0179628
0.0183562
0.0187549
0.0191527
0.0195472
0.0199311
0.0202995
0.0206452
0.0209633
0.0212495
0.0215037
0.0217304
0.0219418
0.0221856
0.0225862
0.0231607
0.0239185
0.0247147
0.0143227
0.0138695
0.0136896
0.0133529
0.0131848
0.0128706
0.0127139
0.0124228
0.0122776
0.0120098
0.0118763
0.0116321
0.0115104
0.0112897
0.0111798
0.0109826
0.0108845
0.0107103
0.0106237
0.010472
0.0103967
0.0102668
0.0102025
0.0100937
0.0100401
0.00995231
0.00990928
0.00984194
0.00980923
0.00976218
0.00973987
0.00971382
0.00970234
0.00969677
0.00969593
0.00970569
0.00972595
0.00974877
0.0097871
0.00982625
0.00988037
0.00993644
0.0100073
0.01008
0.0101673
0.0102568
0.0103611
0.0104677
0.0105891
0.0107137
0.0108527
0.0109954
0.011152
0.011313
0.0114877
0.0116676
0.0118613
0.0120613
0.0122751
0.0124963
0.0127316
0.0129758
0.0132345
0.0135033
0.0137869
0.0140821
0.0143929
0.014717
0.015058
0.0154141
0.0157888
0.0161805
0.0165927
0.0170243
0.0174787
0.0179556
0.0184583
0.018987
0.0195454
0.0201338
0.0207568
0.021415
0.0221139
0.0228547
0.023644
0.0244851
0.0253849
0.026349
0.0273858
0.0285036
0.0297133
0.0310273
0.0324606
0.0340303
0.0357548
0.0376461
0.039682
0.0418388
0.0433432
0.043955
0.0167468
0.0163299
0.0161635
0.0158516
0.0156943
0.0153985
0.015248
0.014967
0.0148216
0.0145547
0.0144138
0.0141606
0.0140238
0.0137849
0.0136529
0.0134284
0.0133022
0.0130925
0.0129732
0.0127781
0.0126661
0.0124853
0.0123804
0.0122129
0.0121151
0.0119622
0.0118735
0.0117363
0.0116571
0.0115364
0.0114679
0.0113644
0.0113075
0.0112223
0.0111779
0.0111127
0.0110805
0.0110384
0.0110185
0.0110016
0.010995
0.0109936
0.0110087
0.0110278
0.0110608
0.0111003
0.0111525
0.0112112
0.0112838
0.0113621
0.0114549
0.0115531
0.0116659
0.0117841
0.0119169
0.0120555
0.0122086
0.0123681
0.0125421
0.0127234
0.012919
0.0131232
0.0133418
0.0135697
0.0138126
0.0140659
0.0143345
0.0146149
0.0149113
0.015221
0.0155475
0.015889
0.0162486
0.016625
0.0170212
0.0174367
0.0178742
0.0183339
0.0188187
0.0193291
0.0198686
0.0204378
0.0210412
0.0216797
0.0223586
0.0230792
0.0238468
0.0246644
0.0255389
0.0264783
0.027489
0.0285806
0.0297651
0.0310588
0.0324832
0.0340688
0.0358522
0.0378083
0.0394113
0.0401214
0.0277122
0.0273031
0.027134
0.0268203
0.0266436
0.0263375
0.0261484
0.0258438
0.0256396
0.0253329
0.0251131
0.0248
0.0245597
0.0242395
0.0239817
0.0236538
0.0233815
0.0230465
0.0227629
0.0224221
0.0221294
0.0217843
0.0214832
0.0211325
0.020822
0.0204675
0.0201525
0.019798
0.0194804
0.0191287
0.0188126
0.018467
0.0181554
0.0178199
0.0175172
0.0171951
0.0169043
0.0165992
0.0163236
0.0160388
0.0157816
0.0155201
0.0152847
0.0150483
0.0148366
0.0146276
0.0144421
0.0142614
0.0141034
0.0139515
0.0138213
0.0136977
0.0135947
0.0134985
0.0134222
0.0133528
0.0133021
0.0132582
0.0132316
0.013216
0.0132104
0.0132108
0.0132312
0.0132552
0.0132955
0.0133415
0.013401
0.0134674
0.0135453
0.0136305
0.013725
0.013825
0.0139325
0.0140442
0.0141616
0.014282
0.014406
0.0145316
0.0146589
0.014786
0.0149134
0.0150384
0.0151626
0.0152827
0.0154011
0.0155152
0.0156265
0.015734
0.0158377
0.0159342
0.0160262
0.0161172
0.0162141
0.0163272
0.0164795
0.0167048
0.0170637
0.0176244
0.0183876
0.0194507
0.0411498
0.0409241
0.0408321
0.0406658
0.0405667
0.0403957
0.0402795
0.0400958
0.0399558
0.0397524
0.0395853
0.0393608
0.0391625
0.0389128
0.0386838
0.0384054
0.0381453
0.0378372
0.0375448
0.0372068
0.0368812
0.0365123
0.036151
0.0357469
0.0353462
0.0349062
0.0344688
0.0339946
0.0335204
0.0330129
0.0325047
0.0319666
0.0314272
0.0308621
0.0302968
0.0297102
0.0291253
0.028524
0.0279253
0.027311
0.0267024
0.026084
0.025475
0.0248615
0.0242608
0.0236604
0.0230757
0.0224956
0.0219337
0.02138
0.0208461
0.020321
0.0198163
0.0193218
0.0188481
0.0183855
0.0179427
0.0175115
0.0171004
0.016701
0.0163208
0.0159523
0.015602
0.0152612
0.0149368
0.0146201
0.0143178
0.0140218
0.013738
0.0134575
0.0131894
0.0129275
0.0126755
0.0124284
0.0121896
0.0119546
0.0117264
0.0115011
0.0112817
0.0110644
0.0108527
0.0106424
0.0104383
0.0102356
0.0100401
0.00984766
0.00966298
0.00948305
0.00931116
0.00914788
0.00899674
0.00885515
0.00873073
0.00863417
0.00858808
0.00857614
0.0087078
0.00896692
0.00938161
0.0095636
0.0528938
0.052957
0.0529936
0.0530686
0.053128
0.0531907
0.0532489
0.053294
0.053338
0.0533604
0.0533757
0.05338
0.0533741
0.0533463
0.0533151
0.0532527
0.0531916
0.0530933
0.0529966
0.0528606
0.0527239
0.0525472
0.0523657
0.0521421
0.0519082
0.051632
0.0513431
0.0510117
0.0506639
0.0502748
0.049863
0.0494121
0.0489353
0.0484196
0.0478767
0.0472957
0.0466867
0.0460415
0.0453688
0.0446619
0.043929
0.043164
0.0423761
0.0415589
0.040722
0.0398596
0.0389818
0.0380828
0.0371729
0.0362467
0.0353139
0.034372
0.0334283
0.0324808
0.0315357
0.0305916
0.0296544
0.0287236
0.0278042
0.0268963
0.0260048
0.0251295
0.0242723
0.0234296
0.0226089
0.0218061
0.021028
0.02027
0.0195387
0.0188304
0.0181475
0.0174846
0.016846
0.0162264
0.0156292
0.0150492
0.0144888
0.0139435
0.0134149
0.0128988
0.0123963
0.0119034
0.0114208
0.0109442
0.0104751
0.0100296
0.00959311
0.00918232
0.00878721
0.00841738
0.00806455
0.0077392
0.00743592
0.00716465
0.00691774
0.006753
0.00667987
0.0066771
0.00700762
0.00719901
0.0596223
0.0599721
0.0601302
0.0604486
0.0606655
0.0609689
0.061214
0.0615022
0.0617592
0.0620316
0.06229
0.0625499
0.0628016
0.0630455
0.0632869
0.0635116
0.0637379
0.0639416
0.0641474
0.0643271
0.0645076
0.0646603
0.064811
0.0649313
0.0650446
0.0651259
0.0651969
0.0652318
0.0652473
0.0652488
0.0652087
0.0651447
0.0650461
0.064914
0.0647465
0.06454
0.0642943
0.0640056
0.0636756
0.0633041
0.0628893
0.0624283
0.0619229
0.0613694
0.060768
0.0601151
0.0594182
0.0586663
0.0578718
0.0570241
0.0561333
0.0551934
0.0542105
0.053183
0.0521139
0.0510044
0.0498558
0.0486711
0.0474513
0.0462005
0.0449196
0.0436138
0.0422864
0.0409447
0.0395897
0.0382273
0.0368608
0.0354931
0.0341303
0.0327726
0.0314275
0.0300948
0.0287817
0.027488
0.0262199
0.0249775
0.023765
0.0225827
0.0214284
0.0203032
0.0192098
0.0181472
0.0171196
0.0161241
0.0151655
0.0142383
0.0133476
0.0124875
0.0116583
0.0108597
0.0100922
0.00935559
0.00865133
0.00799436
0.00736991
0.00682183
0.00639571
0.00620358
0.0061635
0.00634918
0.0611218
0.0616121
0.0618327
0.0622626
0.0625565
0.0629703
0.0633064
0.0637089
0.0640715
0.064467
0.0648461
0.0652387
0.0656276
0.0660186
0.066413
0.0668019
0.067198
0.067584
0.0679783
0.0683597
0.0687486
0.0691233
0.0695044
0.0698702
0.0702393
0.070592
0.0709461
0.0712848
0.0716222
0.0719437
0.0722573
0.0725554
0.0728422
0.0731106
0.0733644
0.0735968
0.0738102
0.0739986
0.0741641
0.0743019
0.0744126
0.0744891
0.0745264
0.0745392
0.0745208
0.0744393
0.0743353
0.0741665
0.0739622
0.0736964
0.0733814
0.0730057
0.0725707
0.0720733
0.0715098
0.0708809
0.0701829
0.0694157
0.0685724
0.0676599
0.0666687
0.0656056
0.0644679
0.0632597
0.0619807
0.0606313
0.0592186
0.0577377
0.0562009
0.054602
0.0529531
0.0512513
0.0495052
0.0477161
0.0458895
0.0440288
0.0421379
0.0402202
0.0382866
0.0363372
0.0343791
0.0324122
0.030445
0.0284782
0.0265223
0.0245795
0.0226631
0.0207767
0.0189365
0.0171378
0.0153989
0.01373
0.0121484
0.0106737
0.00932361
0.00811076
0.00708566
0.00635177
0.00602485
0.00599534
0.0587189
0.0592127
0.0594389
0.0598612
0.0601611
0.0605684
0.0609107
0.0613113
0.0616821
0.0620823
0.0624742
0.0628789
0.063287
0.0636986
0.06412
0.0645394
0.0649716
0.0653988
0.0658392
0.0662729
0.0667189
0.0671572
0.0676062
0.0680466
0.0684939
0.0689292
0.0693664
0.0698016
0.0702417
0.0706766
0.0711158
0.0715495
0.0719858
0.0724162
0.0728477
0.0732735
0.0736992
0.0741205
0.074538
0.0749461
0.0753474
0.0757374
0.0761182
0.0764876
0.0768418
0.077178
0.0775015
0.0778
0.0780826
0.0783379
0.0785707
0.0787744
0.0789481
0.0790891
0.0791938
0.0792511
0.0792739
0.0792749
0.0791978
0.0790841
0.0789009
0.0786579
0.078342
0.0779469
0.0774698
0.0768921
0.0762292
0.0754549
0.0745811
0.0735934
0.0724904
0.0712716
0.0699305
0.0684727
0.0668946
0.0652016
0.0633962
0.0614814
0.0594639
0.0573444
0.0551294
0.0528185
0.050413
0.0479125
0.045313
0.0426155
0.039817
0.0369197
0.0339281
0.0308624
0.0277404
0.0245795
0.021421
0.0183127
0.0153655
0.0125764
0.0101647
0.00810004
0.0066298
0.00592065
0.05374
0.0541571
0.054349
0.0546967
0.054939
0.0552765
0.055551
0.055884
0.0561828
0.0565166
0.0568351
0.0571733
0.0575083
0.0578535
0.058203
0.0585565
0.0589184
0.0592807
0.0596532
0.0600237
0.0604047
0.0607825
0.0611708
0.0615563
0.0619519
0.0623451
0.0627487
0.0631529
0.0635672
0.0639824
0.0644075
0.0648337
0.0652692
0.065706
0.0661508
0.0665968
0.0670486
0.0674996
0.0679556
0.0684129
0.0688743
0.0693365
0.0698016
0.0702667
0.0707324
0.0711972
0.0716619
0.0721216
0.0725811
0.0730343
0.0734821
0.0739193
0.0743433
0.0747481
0.0751256
0.0754667
0.0757787
0.0760773
0.0763433
0.0765877
0.0767986
0.0769782
0.077125
0.0772383
0.0773268
0.0773703
0.0773851
0.0773496
0.0772351
0.0770796
0.076836
0.0765364
0.0761438
0.0756631
0.0750825
0.0743833
0.0735598
0.0725855
0.0714521
0.0701355
0.0686208
0.0668943
0.0649374
0.0627481
0.0603112
0.0576328
0.0547099
0.051551
0.0481485
0.044519
0.0406304
0.0364594
0.0320113
0.0273103
0.0225654
0.0182316
0.0144581
0.0116089
0.00944333
0.00727748
0.0475724
0.0478452
0.0479708
0.0481993
0.0483435
0.0485718
0.0487342
0.0489601
0.0491403
0.0493652
0.0495616
0.0497875
0.0499981
0.0502271
0.05045
0.0506836
0.0509172
0.0511563
0.0513992
0.0516441
0.0518946
0.0521455
0.0524033
0.0526613
0.0529275
0.0531946
0.0534709
0.0537489
0.0540361
0.0543254
0.0546236
0.0549242
0.0552332
0.0555447
0.055864
0.0561861
0.0565154
0.0568483
0.0571881
0.057532
0.0578826
0.0582374
0.0585986
0.0589643
0.0593362
0.0597135
0.0600971
0.0604862
0.0608787
0.0612722
0.0616666
0.0620592
0.0624493
0.062835
0.0632145
0.0635887
0.0639614
0.0643342
0.0647042
0.065068
0.0654233
0.0657603
0.0660713
0.0663391
0.0665971
0.0668104
0.0670174
0.0671882
0.0673301
0.0674449
0.0675016
0.0675248
0.0675174
0.06741
0.0672506
0.0669901
0.0666343
0.0661575
0.0655459
0.0647857
0.0638528
0.0627411
0.0614249
0.0599008
0.0581468
0.0561594
0.0539037
0.0513523
0.0484495
0.0450876
0.0412646
0.0369123
0.0321732
0.0272504
0.0223541
0.0180079
0.0146051
0.0121973
0.0107346
0.00922157
0.0294401
0.0294635
0.0294572
0.0294405
0.0294132
0.0293945
0.0293598
0.0293404
0.0293039
0.0292833
0.0292473
0.0292251
0.0291905
0.0291667
0.0291338
0.0291086
0.0290773
0.029051
0.0290211
0.0289941
0.0289653
0.0289377
0.0289099
0.0288824
0.0288559
0.0288293
0.0288044
0.0287791
0.0287554
0.0287309
0.0287078
0.0286837
0.0286609
0.0286367
0.0286135
0.0285889
0.0285649
0.0285396
0.0285144
0.0284877
0.0284609
0.0284323
0.0284031
0.0283719
0.0283395
0.0283049
0.0282682
0.0282283
0.0281848
0.0281368
0.0280842
0.0280262
0.0279626
0.0278933
0.0278178
0.0277363
0.0276482
0.0275525
0.0274478
0.0273305
0.0272002
0.027051
0.0268793
0.02668
0.0264735
0.0262451
0.0260091
0.0257552
0.0254881
0.0252051
0.0249012
0.0245838
0.0242461
0.0238755
0.0234871
0.0230644
0.0226111
0.0221255
0.0215995
0.0210388
0.0204343
0.0197914
0.0191046
0.0183768
0.0176048
0.0167857
0.0159036
0.0149323
0.0138012
0.0124574
0.010846
0.00890158
0.00673589
0.00469778
0.00299004
0.00229699
0.00259025
0.00526322
0.00861215
0.00983975
0.0094389
0.004649
0.00401481
0.00389083
0.00386412
0.0038889
0.00382039
0.00376712
0.00374531
0.0037381
0.00374422
0.00381144
0.00405722
0.00457012
0.00534515
0.00647904
0.00690419
0.00691451
0.00582497
0.00341052
0.00774049
0.00465663
0.00427447
0.00418098
0.0041609
0.00405206
0.00395298
0.00390891
0.00389314
0.00389201
0.00392951
0.00410046
0.00444714
0.00500489
0.00605808
0.00681316
0.0069852
0.00678524
0.00528212
0.00278371
0.00617865
0.00476913
0.0045995
0.00454058
0.00437336
0.00425352
0.00417647
0.00414423
0.0041335
0.00413407
0.00423626
0.00446764
0.00490032
0.00578097
0.0067051
0.00702381
0.00703712
0.00652173
0.0046438
0.00213456
0.00578155
0.005113
0.00503465
0.00479604
0.00462187
0.0044982
0.00443088
0.00440052
0.00439233
0.00446577
0.00465581
0.0050402
0.00581874
0.00674009
0.00713235
0.00721243
0.00698767
0.0060898
0.00388044
0.00151266
0.00591508
0.005485
0.00534434
0.00503689
0.0049109
0.00482635
0.00480168
0.0048173
0.00491629
0.00514496
0.00549709
0.00623275
0.00702557
0.0073953
0.00750618
0.00739567
0.00680635
0.00548463
0.00301874
0.000961781
0.00628415
0.00592032
0.00577863
0.00557026
0.00552688
0.00551995
0.0056235
0.00581261
0.00617577
0.00659616
0.00723483
0.00781576
0.00808937
0.00815612
0.00793714
0.00733634
0.00642866
0.00468506
0.00190553
0.000518378
0.00717532
0.00702855
0.00699845
0.00699286
0.007246
0.00752971
0.00802638
0.0086569
0.0093331
0.00957884
0.00968085
0.00967362
0.00931275
0.00879492
0.00801551
0.00710022
0.00569529
0.00349547
0.00114595
0.000244286
0.0107358
0.0111209
0.0116054
0.0122064
0.0131235
0.0140761
0.0145435
0.0146972
0.0137846
0.013171
0.0121883
0.0114039
0.010223
0.00915602
0.00784487
0.00646258
0.00444827
0.00232851
0.000692834
0.000110348
0.0249173
0.0253509
0.025536
0.0254812
0.0248152
0.0234116
0.0217929
0.0196126
0.0179247
0.0160431
0.0143154
0.0125493
0.0106779
0.00893456
0.00708904
0.00504635
0.0031088
0.00156367
0.000515304
6.66714e-05
0.0406956
0.0389293
0.0369667
0.0341989
0.0316873
0.028125
0.0256191
0.0224644
0.0201913
0.0173193
0.0151672
0.0124239
0.0102055
0.00742878
0.00532926
0.00346465
0.00217626
0.00114387
0.000465127
8.7395e-05
0.0376864
0.036143
0.0346088
0.032134
0.0300197
0.0267253
0.0244267
0.0215284
0.0194609
0.0168089
0.0148879
0.0122894
0.0103708
0.0076159
0.00564242
0.0034865
0.00219494
0.00108325
0.000399574
7.53851e-05
0.0198489
0.0207891
0.0213104
0.0215707
0.0216573
0.0209522
0.0197383
0.017953
0.0166431
0.0149215
0.0137119
0.0119503
0.0106073
0.00879231
0.00722537
0.00518277
0.0031658
0.00147472
0.000427687
5.9716e-05
0.00940529
0.0095907
0.00999803
0.0104585
0.0112438
0.0121541
0.0129439
0.0132561
0.0130907
0.0121778
0.0117393
0.0108092
0.010004
0.00894886
0.0078038
0.00646868
0.00451519
0.00232228
0.000635868
7.27398e-05
0.00683388
0.0066446
0.00658673
0.00655805
0.0067237
0.00695917
0.00737609
0.00795934
0.00874253
0.00912341
0.00931777
0.00939171
0.00912806
0.00868229
0.00793191
0.00705868
0.00566747
0.00350034
0.00109119
0.00015538
0.00610111
0.00576325
0.00563052
0.00542474
0.00537318
0.00535833
0.00543523
0.00560174
0.00595148
0.00639033
0.00706211
0.007694
0.00799591
0.00807976
0.0079135
0.00730076
0.00638592
0.0046596
0.00190628
0.000432609
0.00578096
0.00538197
0.00525215
0.00496455
0.00484566
0.0047623
0.00473594
0.00474506
0.00483968
0.00507045
0.0054368
0.00618751
0.00699381
0.00736622
0.00747501
0.00737871
0.00678883
0.00545312
0.00300809
0.000907532
0.00567347
0.00501876
0.00494779
0.00474276
0.00458126
0.004468
0.00440227
0.00437256
0.00436363
0.00444091
0.00464481
0.00503466
0.00583929
0.00675227
0.00713798
0.00721219
0.00698312
0.00607541
0.00387682
0.00150177
0.00616822
0.00472643
0.00453029
0.00446408
0.00432451
0.00421387
0.00414708
0.00411996
0.00411246
0.00412393
0.00423234
0.00447708
0.00492647
0.00581877
0.00672311
0.00702823
0.00703674
0.00651056
0.00464496
0.00215919
0.00779877
0.00464718
0.00425349
0.00414727
0.00411617
0.00402632
0.00393315
0.00389141
0.00387814
0.00387989
0.0039317
0.00410226
0.0044764
0.00505006
0.00610753
0.00683332
0.00699605
0.00678534
0.0052742
0.00282766
0.00946818
0.00464527
0.00398995
0.00386552
0.00383655
0.00385103
0.00380327
0.0037525
0.00373482
0.00373004
0.00374749
0.0038218
0.00406908
0.0046109
0.00539335
0.0065053
0.00691271
0.0069177
0.00583149
0.00346096
0.00397119
0.00375019
0.00374679
0.0037468
0.00374652
0.00374628
0.00374612
0.00374604
0.003746
0.00374598
0.00374598
0.003746
0.00374604
0.00374612
0.00374628
0.00374652
0.0037468
0.00374679
0.00375019
0.00397119
0.00441485
0.00375346
0.00374141
0.00374096
0.00374056
0.00374012
0.00373987
0.00373975
0.00373969
0.00373966
0.00373966
0.00373969
0.00373975
0.00373987
0.00374012
0.00374056
0.00374096
0.00374141
0.00375346
0.00441485
0.00485938
0.00376059
0.00373287
0.00373264
0.00373284
0.00373273
0.00373256
0.00373242
0.00373235
0.00373231
0.00373231
0.00373235
0.00373242
0.00373256
0.00373273
0.00373284
0.00373264
0.00373287
0.00376059
0.00485938
0.00530187
0.00377207
0.0037243
0.00372396
0.00372492
0.00372524
0.00372525
0.00372519
0.00372514
0.00372512
0.00372512
0.00372514
0.00372519
0.00372525
0.00372524
0.00372492
0.00372396
0.0037243
0.00377207
0.00530187
0.00573926
0.00378544
0.0037155
0.00371483
0.00371665
0.00371758
0.00371789
0.00371795
0.00371795
0.00371795
0.00371795
0.00371795
0.00371795
0.00371789
0.00371758
0.00371665
0.00371483
0.0037155
0.00378544
0.00573926
0.00617049
0.00379767
0.00370577
0.0037051
0.003708
0.00370969
0.00371043
0.0037107
0.00371078
0.0037108
0.0037108
0.00371078
0.0037107
0.00371043
0.00370969
0.003708
0.0037051
0.00370577
0.00379767
0.00617049
0.00659182
0.00380848
0.00369498
0.00369474
0.00369894
0.00370155
0.00370284
0.0037034
0.00370361
0.00370368
0.00370368
0.00370361
0.0037034
0.00370284
0.00370155
0.00369894
0.00369474
0.00369498
0.00380848
0.00659182
0.00700093
0.0038167
0.00368271
0.00368362
0.00368941
0.00369311
0.00369508
0.00369602
0.00369642
0.00369656
0.00369656
0.00369642
0.00369602
0.00369508
0.00369311
0.00368941
0.00368362
0.00368271
0.0038167
0.00700093
0.0073934
0.00382332
0.00366914
0.00367174
0.00367941
0.00368437
0.00368714
0.00368854
0.00368919
0.00368943
0.00368943
0.00368919
0.00368854
0.00368714
0.00368437
0.00367941
0.00367174
0.00366914
0.00382333
0.0073934
0.00776763
0.00382735
0.00365405
0.00365903
0.00366893
0.00367532
0.00367898
0.00368095
0.0036819
0.00368228
0.00368228
0.0036819
0.00368095
0.00367898
0.00367532
0.00366893
0.00365903
0.00365405
0.00382735
0.00776763
0.00812019
0.00383022
0.00363765
0.00364552
0.00365794
0.00366593
0.00367061
0.00367321
0.00367453
0.00367507
0.00367507
0.00367453
0.00367321
0.00367061
0.00366593
0.00365794
0.00364552
0.00363765
0.00383022
0.00812019
0.00845037
0.00383068
0.00361989
0.00363122
0.00364645
0.0036562
0.00366201
0.00366531
0.00366705
0.00366779
0.00366779
0.00366705
0.00366531
0.00366201
0.0036562
0.00364645
0.00363122
0.00361989
0.00383068
0.00845037
0.00875528
0.00383018
0.0036009
0.00361613
0.00363446
0.00364613
0.00365316
0.00365725
0.00365946
0.00366041
0.00366041
0.00365946
0.00365725
0.00365316
0.00364613
0.00363446
0.00361613
0.0036009
0.00383018
0.00875528
0.00903544
0.00382885
0.00358084
0.00360031
0.00362199
0.00363573
0.00364408
0.00364901
0.00365173
0.00365292
0.00365292
0.00365173
0.00364901
0.00364408
0.00363573
0.00362199
0.00360031
0.00358084
0.00382885
0.00903544
0.00928893
0.00382648
0.00355981
0.0035838
0.00360904
0.003625
0.00363475
0.00364059
0.00364385
0.00364531
0.00364531
0.00364385
0.00364059
0.00363475
0.003625
0.00360904
0.0035838
0.00355981
0.00382648
0.00928892
0.00951739
0.0038234
0.00353793
0.00356664
0.00359565
0.00361394
0.00362518
0.00363197
0.00363582
0.00363755
0.00363755
0.00363582
0.00363197
0.00362518
0.00361394
0.00359565
0.00356664
0.00353794
0.0038234
0.00951738
0.0097193
0.00382012
0.00351532
0.00354885
0.00358181
0.00360255
0.00361535
0.00362316
0.00362762
0.00362964
0.00362964
0.00362762
0.00362316
0.00361535
0.00360255
0.00358181
0.00354886
0.00351532
0.00382012
0.00971929
0.00989732
0.00381661
0.00349215
0.00353054
0.00356757
0.00359087
0.00360529
0.00361414
0.00361924
0.00362157
0.00362157
0.00361924
0.00361414
0.00360529
0.00359087
0.00356757
0.00353054
0.00349215
0.00381661
0.00989731
0.0100502
0.00381346
0.00346849
0.0035117
0.00355293
0.00357887
0.00359499
0.00360492
0.00361068
0.00361332
0.00361332
0.00361068
0.00360492
0.00359499
0.00357887
0.00355293
0.0035117
0.0034685
0.00381347
0.0100502
0.0101815
0.00381058
0.00344462
0.00349247
0.00353795
0.0035666
0.00358445
0.0035955
0.00360193
0.0036049
0.0036049
0.00360193
0.00359549
0.00358445
0.0035666
0.00353795
0.00349247
0.00344462
0.00381058
0.0101815
0.0102898
0.00380854
0.00342047
0.0034728
0.0035226
0.00355404
0.00357367
0.00358587
0.003593
0.0035963
0.0035963
0.003593
0.00358587
0.00357367
0.00355404
0.0035226
0.0034728
0.00342047
0.00380854
0.0102897
0.0103795
0.00380713
0.00339643
0.00345287
0.00350698
0.00354123
0.00356267
0.00357603
0.00358387
0.00358751
0.00358751
0.00358387
0.00357603
0.00356267
0.00354123
0.00350698
0.00345287
0.00339643
0.00380714
0.0103794
0.0104486
0.00380736
0.0033723
0.00343259
0.00349103
0.00352816
0.00355145
0.003566
0.00357455
0.00357853
0.00357853
0.00357455
0.003566
0.00355145
0.00352816
0.00349103
0.00343259
0.00337229