/*--------------------------------*- C++ -*----------------------------------*\
| =========                 |                                                 |
| \\      /  F ield         | OpenFOAM: The Open Source CFD Toolbox           |
|  \\    /   O peration     | Version:  2.1.0                                 |
|   \\  /    A nd           | Web:      www.OpenFOAM.org                      |
|    \\/     M anipulation  |                                                 |
\*---------------------------------------------------------------------------*/
FoamFile
{
    version     2.0;
    format      ascii;
    class       volScalarField;
    location    "0.27";
    object      nut;
}
// * * * * * * * * * * * * * * * * * * * * * * * * * * * * * * * * * * * * * //

dimensions      [0 2 -1 0 0 0 0];

internalField   nonuniform List<scalar> 
6400
(
6.84334e-06
6.861e-06
6.87264e-06
6.88755e-06
6.90131e-06
6.9185e-06
6.9333e-06
6.95154e-06
6.96726e-06
6.98632e-06
7.00309e-06
7.02301e-06
7.04078e-06
7.06158e-06
7.08072e-06
7.10236e-06
7.12312e-06
7.14581e-06
7.16835e-06
7.19237e-06
7.21684e-06
7.24253e-06
7.26909e-06
7.29668e-06
7.32538e-06
7.35499e-06
7.38571e-06
7.41733e-06
7.45017e-06
7.48391e-06
7.51892e-06
7.55485e-06
7.59205e-06
7.63016e-06
7.66944e-06
7.7096e-06
7.75068e-06
7.79261e-06
7.8353e-06
7.87834e-06
7.92182e-06
7.96524e-06
8.00876e-06
8.05178e-06
8.09451e-06
8.13645e-06
8.17776e-06
8.2179e-06
8.25671e-06
8.29371e-06
8.32862e-06
8.36242e-06
8.39523e-06
8.42767e-06
8.45889e-06
8.48891e-06
8.5181e-06
8.54575e-06
8.57205e-06
8.5972e-06
8.62138e-06
8.64484e-06
8.66809e-06
8.69002e-06
8.71073e-06
8.73163e-06
8.75147e-06
8.76841e-06
8.78422e-06
8.79933e-06
8.81042e-06
8.82088e-06
8.82902e-06
8.8347e-06
8.83982e-06
8.84384e-06
8.84846e-06
8.85537e-06
8.86602e-06
8.88305e-06
8.90803e-06
8.94151e-06
8.97928e-06
9.01007e-06
9.05737e-06
9.11453e-06
9.17642e-06
9.2399e-06
9.28035e-06
9.26049e-06
9.10092e-06
8.64385e-06
7.65048e-06
5.91736e-06
3.54836e-06
2.25147e-06
2.37235e-06
3.75561e-06
3.85907e-06
4.17004e-06
7.26926e-05
7.31285e-05
7.32169e-05
7.34998e-05
7.36027e-05
7.3841e-05
7.39667e-05
7.4177e-05
7.43221e-05
7.4514e-05
7.46726e-05
7.48521e-05
7.50186e-05
7.51896e-05
7.53603e-05
7.55263e-05
7.56994e-05
7.58638e-05
7.60402e-05
7.62076e-05
7.63881e-05
7.656e-05
7.6744e-05
7.6919e-05
7.7104e-05
7.72792e-05
7.74624e-05
7.76366e-05
7.7816e-05
7.79867e-05
7.81592e-05
7.83224e-05
7.84836e-05
7.86359e-05
7.87838e-05
7.89213e-05
7.90517e-05
7.91698e-05
7.92777e-05
7.93704e-05
7.94466e-05
7.95008e-05
7.95333e-05
7.9538e-05
7.95157e-05
7.9461e-05
7.93729e-05
7.92478e-05
7.9085e-05
7.88893e-05
7.85922e-05
7.80872e-05
7.7544e-05
7.69657e-05
7.63468e-05
7.5689e-05
7.49968e-05
7.42594e-05
7.34815e-05
7.26574e-05
7.17943e-05
7.08917e-05
6.99585e-05
6.89774e-05
6.79578e-05
6.68979e-05
6.58082e-05
6.46621e-05
6.34675e-05
6.22269e-05
6.09246e-05
5.95742e-05
5.81586e-05
5.66848e-05
5.51487e-05
5.35468e-05
5.18827e-05
5.01535e-05
4.83625e-05
4.65128e-05
4.46092e-05
4.26598e-05
4.06682e-05
3.86318e-05
3.65079e-05
3.43258e-05
3.20498e-05
2.96906e-05
2.72159e-05
2.46317e-05
2.19384e-05
1.91731e-05
1.64356e-05
1.38612e-05
1.14259e-05
9.18342e-06
7.42821e-06
6.25904e-06
5.65224e-06
6.8592e-06
0.000110967
0.000111175
0.00011126
0.00011134
0.000111417
0.000111462
0.000111535
0.000111558
0.000111625
0.000111632
0.000111686
0.000111678
0.000111717
0.000111694
0.000111713
0.000111674
0.000111671
0.000111617
0.000111594
0.000111533
0.000111498
0.00011143
0.000111383
0.000111305
0.000111242
0.000111148
0.000111062
0.00011095
0.000110841
0.000110707
0.000110571
0.000110411
0.000110242
0.000110044
0.000109828
0.00010958
0.000109307
0.000109
0.000108667
0.000108295
0.000107885
0.000107433
0.000106938
0.000106393
0.000105799
0.000105148
0.000104436
0.000103658
0.000102396
0.000101097
9.97506e-05
9.83591e-05
9.69179e-05
9.54447e-05
9.39231e-05
9.23622e-05
9.07753e-05
8.91443e-05
8.74897e-05
8.5823e-05
8.41149e-05
8.23642e-05
8.05974e-05
7.87822e-05
7.69519e-05
7.5089e-05
7.31982e-05
7.12879e-05
6.93485e-05
6.73875e-05
6.53995e-05
6.33863e-05
6.13425e-05
5.92713e-05
5.71655e-05
5.50273e-05
5.28542e-05
5.06459e-05
4.84053e-05
4.61349e-05
4.3841e-05
4.15299e-05
3.92103e-05
3.68916e-05
3.46011e-05
3.2338e-05
3.01217e-05
2.79521e-05
2.58407e-05
2.3784e-05
2.17663e-05
1.97979e-05
1.78652e-05
1.58743e-05
1.38601e-05
1.18599e-05
1.00733e-05
8.56945e-06
8.08083e-06
1.12652e-05
0.000131471
0.000131136
0.000131011
0.000130714
0.000130601
0.000130287
0.000130158
0.000129836
0.00012968
0.000129351
0.000129161
0.000128822
0.000128596
0.000128244
0.00012798
0.000127606
0.000127296
0.000126889
0.000126191
0.00012541
0.000124632
0.000123826
0.000123029
0.000122206
0.00012139
0.000120548
0.000119713
0.000118848
0.00011798
0.000117083
0.000116175
0.000115236
0.00011428
0.000113291
0.000112277
0.000111226
0.000110145
0.000109022
0.000107867
0.000106672
0.000105434
0.00010415
0.000102834
0.000101466
0.000100065
9.86224e-05
9.71404e-05
9.56257e-05
9.40737e-05
9.24884e-05
9.08943e-05
8.92758e-05
8.76016e-05
8.59292e-05
8.42118e-05
8.24725e-05
8.07161e-05
7.89213e-05
7.71123e-05
7.52732e-05
7.34116e-05
7.15339e-05
6.96356e-05
6.7719e-05
6.57922e-05
6.38476e-05
6.18966e-05
5.99388e-05
5.7976e-05
5.6017e-05
5.40608e-05
5.21164e-05
5.01857e-05
4.82761e-05
4.63899e-05
4.4535e-05
4.27119e-05
4.09272e-05
3.918e-05
3.74729e-05
3.58041e-05
3.41709e-05
3.25629e-05
3.09833e-05
2.94412e-05
2.78855e-05
2.63566e-05
2.4813e-05
2.32741e-05
2.17121e-05
2.01404e-05
1.85405e-05
1.69159e-05
1.52383e-05
1.35232e-05
1.18633e-05
1.04291e-05
9.72075e-06
1.18855e-05
1.20363e-05
0.000130512
0.000130528
0.000130167
0.000129924
0.000129129
0.000128494
0.000127594
0.000126802
0.00012588
0.000125011
0.000124083
0.000123169
0.000122233
0.000121289
0.000120344
0.000119376
0.000118417
0.000117426
0.000116457
0.000115455
0.000114465
0.000113444
0.000112438
0.000111408
0.000110385
0.000109333
0.000108285
0.000107208
0.000106127
0.000105018
0.000103896
0.000102745
0.000101575
0.000100372
9.91465e-05
9.78853e-05
9.65981e-05
9.52635e-05
9.39018e-05
9.25338e-05
9.11206e-05
8.96607e-05
8.81985e-05
8.66847e-05
8.51627e-05
8.36128e-05
8.20416e-05
8.04597e-05
7.88571e-05
7.72468e-05
7.56191e-05
7.39789e-05
7.23274e-05
7.06776e-05
6.90198e-05
6.73664e-05
6.57156e-05
6.40661e-05
6.24295e-05
6.07984e-05
5.91816e-05
5.75807e-05
5.59947e-05
5.44295e-05
5.2884e-05
5.13586e-05
4.98577e-05
4.83767e-05
4.69192e-05
4.548e-05
4.40667e-05
4.26767e-05
4.12981e-05
3.99447e-05
3.86023e-05
3.72776e-05
3.59593e-05
3.46503e-05
3.33403e-05
3.20315e-05
3.07163e-05
2.93958e-05
2.80693e-05
2.67384e-05
2.54024e-05
2.40683e-05
2.27375e-05
2.14116e-05
2.01035e-05
1.88157e-05
1.75611e-05
1.63407e-05
1.51731e-05
1.40511e-05
1.30152e-05
1.22263e-05
1.20544e-05
1.3728e-05
1.37647e-05
1.4085e-05
0.000116947
0.000116345
0.000115858
0.000115283
0.000114386
0.000113518
0.000112511
0.000111531
0.0001105
0.000109476
0.000108446
0.000107406
0.000106383
0.000105341
0.000104327
0.000103288
0.000102283
0.00010125
0.000100253
9.92229e-05
9.82192e-05
9.71836e-05
9.61589e-05
9.51307e-05
9.41117e-05
9.30507e-05
9.2e-05
9.09179e-05
8.98362e-05
8.87249e-05
8.76037e-05
8.64526e-05
8.52872e-05
8.40907e-05
8.28789e-05
8.16363e-05
8.03791e-05
7.90942e-05
7.77998e-05
7.64837e-05
7.51559e-05
7.3814e-05
7.24714e-05
7.11149e-05
6.97652e-05
6.84096e-05
6.706e-05
6.57147e-05
6.43738e-05
6.30434e-05
6.17204e-05
6.04082e-05
5.91076e-05
5.7821e-05
5.65467e-05
5.52898e-05
5.40477e-05
5.28137e-05
5.15998e-05
5.03922e-05
4.92022e-05
4.80184e-05
4.68487e-05
4.56856e-05
4.45333e-05
4.33853e-05
4.22473e-05
4.11117e-05
3.99857e-05
3.88629e-05
3.77521e-05
3.66469e-05
3.55536e-05
3.4467e-05
3.33906e-05
3.23242e-05
3.12694e-05
3.02279e-05
2.92005e-05
2.81913e-05
2.71975e-05
2.62244e-05
2.52698e-05
2.43379e-05
2.34287e-05
2.25378e-05
2.16677e-05
2.082e-05
2.00052e-05
1.92247e-05
1.84937e-05
1.78211e-05
1.72333e-05
1.67761e-05
1.65703e-05
1.65978e-05
1.6035e-05
1.57948e-05
1.577e-05
1.31891e-05
0.000100949
9.9861e-05
9.93386e-05
9.85453e-05
9.77415e-05
9.68e-05
9.5903e-05
9.49151e-05
9.39924e-05
9.29992e-05
9.20764e-05
9.1093e-05
9.01789e-05
8.921e-05
8.83063e-05
8.73521e-05
8.64572e-05
8.55145e-05
8.46234e-05
8.36884e-05
8.27982e-05
8.18705e-05
8.09897e-05
8.00826e-05
7.92031e-05
7.8292e-05
7.74075e-05
7.64911e-05
7.55934e-05
7.46666e-05
7.37488e-05
7.28049e-05
7.18655e-05
7.09019e-05
6.99408e-05
6.89571e-05
6.7975e-05
6.69755e-05
6.59859e-05
6.49724e-05
6.39729e-05
6.29602e-05
6.19599e-05
6.09513e-05
5.99557e-05
5.89558e-05
5.7968e-05
5.69803e-05
5.60032e-05
5.50305e-05
5.40689e-05
5.31138e-05
5.2171e-05
5.12291e-05
5.02972e-05
4.93706e-05
4.84552e-05
4.75467e-05
4.66503e-05
4.57628e-05
4.4891e-05
4.40302e-05
4.31885e-05
4.23597e-05
4.15489e-05
4.07565e-05
3.99856e-05
3.92336e-05
3.85054e-05
3.77983e-05
3.71137e-05
3.64496e-05
3.58077e-05
3.51847e-05
3.45815e-05
3.39939e-05
3.34209e-05
3.26692e-05
3.17697e-05
3.08601e-05
2.99721e-05
2.90762e-05
2.82026e-05
2.7322e-05
2.64634e-05
2.56007e-05
2.47638e-05
2.3927e-05
2.3119e-05
2.23201e-05
2.1561e-05
2.08238e-05
2.01453e-05
1.95134e-05
1.89699e-05
1.85841e-05
1.83273e-05
1.82365e-05
1.89224e-05
1.49004e-05
8.79281e-05
8.64909e-05
8.6062e-05
8.52191e-05
8.46242e-05
8.37535e-05
8.30992e-05
8.22466e-05
8.15804e-05
8.07644e-05
8.01063e-05
7.93277e-05
7.8685e-05
7.79384e-05
7.73128e-05
7.65906e-05
7.59782e-05
7.5268e-05
7.46601e-05
7.39621e-05
7.33413e-05
7.26415e-05
7.20134e-05
7.12059e-05
7.01519e-05
6.90337e-05
6.79974e-05
6.69017e-05
6.58866e-05
6.48201e-05
6.38311e-05
6.2801e-05
6.18484e-05
6.08621e-05
5.99525e-05
5.90173e-05
5.8161e-05
5.72852e-05
5.64904e-05
5.56838e-05
5.49517e-05
5.421e-05
5.35402e-05
5.28621e-05
5.22528e-05
5.16346e-05
5.10822e-05
5.05195e-05
5.00166e-05
4.95048e-05
4.90474e-05
4.85784e-05
4.81533e-05
4.77183e-05
4.7319e-05
4.6907e-05
4.65237e-05
4.61247e-05
4.57465e-05
4.53507e-05
4.49692e-05
4.45687e-05
4.41652e-05
4.3754e-05
4.33609e-05
4.29177e-05
4.25083e-05
4.20606e-05
4.16408e-05
4.11889e-05
4.07592e-05
4.03027e-05
3.98622e-05
3.93993e-05
3.8947e-05
3.84756e-05
3.80103e-05
3.75281e-05
3.70458e-05
3.65452e-05
3.60346e-05
3.55009e-05
3.49507e-05
3.4372e-05
3.3768e-05
3.31302e-05
3.24588e-05
3.175e-05
3.10036e-05
3.02223e-05
2.94116e-05
2.85848e-05
2.77633e-05
2.69767e-05
2.63061e-05
2.58111e-05
2.54199e-05
2.55439e-05
2.60279e-05
2.03945e-05
7.27273e-05
7.08771e-05
7.01325e-05
6.87441e-05
6.80146e-05
6.67178e-05
6.60117e-05
6.47973e-05
6.41186e-05
6.29846e-05
6.23375e-05
6.12826e-05
6.06709e-05
5.96933e-05
5.91162e-05
5.82127e-05
5.7671e-05
5.68393e-05
5.63316e-05
5.55682e-05
5.50954e-05
5.43958e-05
5.39579e-05
5.33209e-05
5.29232e-05
5.23586e-05
5.20056e-05
5.15085e-05
5.11998e-05
5.07675e-05
5.05002e-05
5.01297e-05
4.99026e-05
4.95892e-05
4.94007e-05
4.91432e-05
4.89954e-05
4.87858e-05
4.86746e-05
4.85075e-05
4.8426e-05
4.82936e-05
4.82365e-05
4.81306e-05
4.80924e-05
4.8007e-05
4.7975e-05
4.79253e-05
4.79035e-05
4.78448e-05
4.78297e-05
4.77883e-05
4.77791e-05
4.77529e-05
4.77505e-05
4.77356e-05
4.77412e-05
4.77387e-05
4.77573e-05
4.77722e-05
4.78044e-05
4.78374e-05
4.78817e-05
4.79317e-05
4.79869e-05
4.80514e-05
4.81226e-05
4.81999e-05
4.82872e-05
4.83783e-05
4.84811e-05
4.85853e-05
4.87014e-05
4.88178e-05
4.89449e-05
4.90712e-05
4.92063e-05
4.93379e-05
4.94756e-05
4.96057e-05
4.97363e-05
4.98533e-05
4.99621e-05
5.00487e-05
5.0114e-05
5.01431e-05
5.01337e-05
5.00723e-05
4.99528e-05
4.97656e-05
4.95064e-05
4.91724e-05
4.87668e-05
4.83038e-05
4.78064e-05
4.73588e-05
4.71525e-05
4.72166e-05
4.76592e-05
3.95386e-05
6.0489e-05
5.90481e-05
5.8483e-05
5.74439e-05
5.69533e-05
5.59938e-05
5.55679e-05
5.46893e-05
5.43219e-05
5.35243e-05
5.32101e-05
5.24929e-05
5.22268e-05
5.1589e-05
5.13662e-05
5.08063e-05
5.06221e-05
5.01373e-05
4.99868e-05
4.95736e-05
4.94519e-05
4.91056e-05
4.90073e-05
4.87235e-05
4.86453e-05
4.84225e-05
4.83608e-05
4.81942e-05
4.8144e-05
4.80305e-05
4.79881e-05
4.79194e-05
4.78887e-05
4.78696e-05
4.7844e-05
4.78411e-05
4.78576e-05
4.78646e-05
4.79074e-05
4.79344e-05
4.79943e-05
4.80396e-05
4.81196e-05
4.81808e-05
4.82786e-05
4.83575e-05
4.84746e-05
4.85721e-05
4.87078e-05
4.88255e-05
4.89797e-05
4.91184e-05
4.92907e-05
4.94519e-05
4.96419e-05
4.98252e-05
5.00345e-05
5.02407e-05
5.04702e-05
5.07e-05
5.09511e-05
5.12059e-05
5.14799e-05
5.17602e-05
5.20569e-05
5.23624e-05
5.2683e-05
5.3014e-05
5.3361e-05
5.37193e-05
5.40945e-05
5.44815e-05
5.48864e-05
5.53041e-05
5.5741e-05
5.61924e-05
5.6665e-05
5.7154e-05
5.76666e-05
5.81976e-05
5.87554e-05
5.93346e-05
5.99442e-05
6.05798e-05
6.12503e-05
6.19552e-05
6.27011e-05
6.34904e-05
6.43297e-05
6.52237e-05
6.61793e-05
6.7204e-05
6.83055e-05
6.94925e-05
7.07708e-05
7.21358e-05
7.35418e-05
7.4982e-05
7.5696e-05
6.60058e-05
6.45078e-05
6.30736e-05
6.25093e-05
6.14673e-05
6.09686e-05
5.9998e-05
5.95546e-05
5.86546e-05
5.82572e-05
5.74272e-05
5.70709e-05
5.63102e-05
5.59897e-05
5.52984e-05
5.50142e-05
5.43893e-05
5.41415e-05
5.35795e-05
5.33687e-05
5.28654e-05
5.26896e-05
5.22412e-05
5.20964e-05
5.16983e-05
5.15808e-05
5.12322e-05
5.1141e-05
5.0841e-05
5.07721e-05
5.0518e-05
5.04678e-05
5.02572e-05
5.02229e-05
5.00531e-05
5.00301e-05
4.99013e-05
4.98828e-05
4.98019e-05
4.978e-05
4.97386e-05
4.97206e-05
4.96937e-05
4.96933e-05
4.96814e-05
4.96911e-05
4.96994e-05
4.97279e-05
4.97498e-05
4.98011e-05
4.9839e-05
4.99098e-05
4.99668e-05
5.00545e-05
5.01313e-05
5.02353e-05
5.03317e-05
5.04516e-05
5.05672e-05
5.07076e-05
5.08451e-05
5.10065e-05
5.11672e-05
5.1351e-05
5.15347e-05
5.17411e-05
5.1949e-05
5.21778e-05
5.24102e-05
5.26624e-05
5.29203e-05
5.31967e-05
5.34802e-05
5.37814e-05
5.40912e-05
5.44189e-05
5.47572e-05
5.51141e-05
5.54841e-05
5.58744e-05
5.62801e-05
5.67093e-05
5.71566e-05
5.76311e-05
5.81277e-05
5.86553e-05
5.92097e-05
5.97976e-05
6.04181e-05
6.10785e-05
6.17858e-05
6.2543e-05
6.33571e-05
6.4236e-05
6.51924e-05
6.62425e-05
6.74136e-05
6.87466e-05
7.02161e-05
7.13411e-05
6.28604e-05
8.4244e-05
8.26214e-05
8.19664e-05
8.07588e-05
8.01014e-05
7.89697e-05
7.8302e-05
7.72324e-05
7.65489e-05
7.55314e-05
7.48313e-05
7.38662e-05
7.31435e-05
7.22008e-05
7.14894e-05
7.05702e-05
6.98675e-05
6.89711e-05
6.82828e-05
6.74104e-05
6.6739e-05
6.58927e-05
6.52378e-05
6.44162e-05
6.37751e-05
6.29809e-05
6.23597e-05
6.15987e-05
6.09966e-05
6.02733e-05
5.9697e-05
5.90138e-05
5.84663e-05
5.78276e-05
5.73142e-05
5.67224e-05
5.62443e-05
5.57021e-05
5.52612e-05
5.47699e-05
5.43653e-05
5.39233e-05
5.35574e-05
5.3162e-05
5.28295e-05
5.24735e-05
5.21719e-05
5.18501e-05
5.15766e-05
5.12832e-05
5.10311e-05
5.0759e-05
5.05219e-05
5.02608e-05
5.00229e-05
4.97799e-05
4.95629e-05
4.9314e-05
4.9102e-05
4.88782e-05
4.8663e-05
4.84218e-05
4.82258e-05
4.79982e-05
4.78037e-05
4.75883e-05
4.73959e-05
4.71902e-05
4.70013e-05
4.68054e-05
4.66202e-05
4.64252e-05
4.62358e-05
4.60341e-05
4.58328e-05
4.56173e-05
4.53975e-05
4.51618e-05
4.4918e-05
4.46555e-05
4.43832e-05
4.40916e-05
4.37908e-05
4.34694e-05
4.31389e-05
4.27912e-05
4.24342e-05
4.20645e-05
4.16859e-05
4.12899e-05
4.08856e-05
4.04782e-05
4.00815e-05
3.97113e-05
3.94044e-05
3.9207e-05
3.92179e-05
3.95519e-05
4.02546e-05
3.40958e-05
9.4752e-05
9.36311e-05
9.32155e-05
9.25252e-05
9.19432e-05
9.11752e-05
9.05257e-05
8.97398e-05
8.90651e-05
8.82818e-05
8.75997e-05
8.68297e-05
8.6141e-05
8.53801e-05
8.46897e-05
8.39323e-05
8.32403e-05
8.24853e-05
8.17904e-05
8.10389e-05
8.03426e-05
7.95928e-05
7.88794e-05
7.81081e-05
7.7369e-05
7.65834e-05
7.583e-05
7.50263e-05
7.42599e-05
7.34447e-05
7.26556e-05
7.18263e-05
7.10173e-05
7.01746e-05
6.93492e-05
6.84963e-05
6.76586e-05
6.68008e-05
6.59524e-05
6.50767e-05
6.42092e-05
6.3323e-05
6.24468e-05
6.15589e-05
6.06838e-05
5.98042e-05
5.894e-05
5.80769e-05
5.72354e-05
5.63987e-05
5.55886e-05
5.4785e-05
5.40107e-05
5.32059e-05
5.24196e-05
5.16384e-05
5.08862e-05
5.01321e-05
4.93997e-05
4.86609e-05
4.7942e-05
4.72141e-05
4.65021e-05
4.57725e-05
4.50524e-05
4.43096e-05
4.35718e-05
4.28098e-05
4.20507e-05
4.12621e-05
4.04741e-05
3.96826e-05
3.89013e-05
3.80929e-05
3.73061e-05
3.64986e-05
3.57109e-05
3.49092e-05
3.41274e-05
3.33369e-05
3.25686e-05
3.17886e-05
3.10316e-05
3.02688e-05
2.9532e-05
2.87972e-05
2.80896e-05
2.73913e-05
2.672e-05
2.60687e-05
2.54531e-05
2.48597e-05
2.43128e-05
2.38367e-05
2.34848e-05
2.31956e-05
2.32307e-05
2.35039e-05
2.4282e-05
1.88484e-05
0.000109427
0.000108587
0.000108197
0.000107606
0.000106911
0.000106123
0.000105321
0.000104458
0.000103613
0.000102721
0.000101842
0.000100949
0.000100063
9.91507e-05
9.82583e-05
9.73269e-05
9.64247e-05
9.54767e-05
9.45593e-05
9.35969e-05
9.26634e-05
9.16849e-05
9.07236e-05
8.97142e-05
8.87181e-05
8.76804e-05
8.66545e-05
8.55905e-05
8.45356e-05
8.34454e-05
8.23575e-05
8.12416e-05
8.01243e-05
7.89834e-05
7.78412e-05
7.66795e-05
7.55169e-05
7.43399e-05
7.31643e-05
7.19818e-05
7.08024e-05
6.9618e-05
6.8439e-05
6.72558e-05
6.60765e-05
6.48984e-05
6.37341e-05
6.25581e-05
6.13995e-05
6.02326e-05
5.90802e-05
5.79246e-05
5.67817e-05
5.56369e-05
5.45017e-05
5.33668e-05
5.22401e-05
5.1116e-05
5.00005e-05
4.8891e-05
4.77956e-05
4.67098e-05
4.56336e-05
4.4563e-05
4.35057e-05
4.24611e-05
4.14333e-05
4.04217e-05
3.94309e-05
3.84665e-05
3.75258e-05
3.66119e-05
3.57264e-05
3.48704e-05
3.40452e-05
3.32485e-05
3.24777e-05
3.1736e-05
3.1019e-05
3.03296e-05
2.96622e-05
2.90129e-05
2.8383e-05
2.77697e-05
2.67851e-05
2.58251e-05
2.48724e-05
2.39692e-05
2.30936e-05
2.22689e-05
2.14765e-05
2.074e-05
2.00437e-05
1.94076e-05
1.88073e-05
1.83857e-05
1.81671e-05
1.79699e-05
1.87077e-05
1.44554e-05
0.000125847
0.000125412
0.000125079
0.000124687
0.000123921
0.000123199
0.00012231
0.00012146
0.000120537
0.000119627
0.00011869
0.000117754
0.000116804
0.000115842
0.000114881
0.000113893
0.000112916
0.000111905
0.000110908
0.000109876
0.000108858
0.000107802
0.000106753
0.000105665
0.000104581
0.000103461
0.000102346
0.000101189
0.00010002
9.8846e-05
9.76292e-05
9.63969e-05
9.51374e-05
9.38537e-05
9.2547e-05
9.12141e-05
8.98591e-05
8.84791e-05
8.70806e-05
8.56664e-05
8.42375e-05
8.2793e-05
8.13385e-05
7.98721e-05
7.83968e-05
7.6912e-05
7.54282e-05
7.3935e-05
7.24493e-05
7.09596e-05
6.94798e-05
6.80029e-05
6.65374e-05
6.508e-05
6.3634e-05
6.21986e-05
6.07742e-05
5.93615e-05
5.79603e-05
5.65663e-05
5.51852e-05
5.38248e-05
5.24651e-05
5.11334e-05
4.98074e-05
4.85021e-05
4.7204e-05
4.59193e-05
4.46419e-05
4.33727e-05
4.21097e-05
4.08519e-05
3.95994e-05
3.83509e-05
3.71076e-05
3.58718e-05
3.46443e-05
3.34252e-05
3.22146e-05
3.10105e-05
2.98195e-05
2.86365e-05
2.74729e-05
2.63222e-05
2.51925e-05
2.40768e-05
2.29883e-05
2.19189e-05
2.088e-05
1.98622e-05
1.88863e-05
1.79405e-05
1.71025e-05
1.6374e-05
1.58924e-05
1.6073e-05
1.6075e-05
1.58622e-05
1.58818e-05
1.3189e-05
0.000138205
0.000138369
0.000138144
0.000138037
0.000137366
0.000136852
0.000136067
0.000135393
0.000134584
0.000133833
0.000133017
0.000132222
0.000131394
0.000130565
0.000129724
0.000128863
0.000128001
0.00012711
0.000126222
0.000125301
0.000124383
0.000123428
0.000122471
0.000121473
0.000120471
0.000119428
0.000118388
0.000117308
0.000116219
0.000115097
0.000113956
0.000112787
0.000111596
0.000110374
0.000109129
0.000107852
0.000106549
0.000105212
0.000103849
0.000102453
0.00010103
9.95719e-05
9.80763e-05
9.65661e-05
9.50357e-05
9.34486e-05
9.18606e-05
9.02235e-05
8.85784e-05
8.68984e-05
8.52039e-05
8.34864e-05
8.17532e-05
8.00059e-05
7.82455e-05
7.64772e-05
7.4701e-05
7.29164e-05
7.11203e-05
6.93216e-05
6.75155e-05
6.57115e-05
6.39094e-05
6.21165e-05
6.0334e-05
5.85649e-05
5.68155e-05
5.50828e-05
5.33769e-05
5.16921e-05
5.00365e-05
4.84062e-05
4.68046e-05
4.52283e-05
4.36732e-05
4.21489e-05
4.06504e-05
3.91562e-05
3.76898e-05
3.6223e-05
3.47703e-05
3.33069e-05
3.18438e-05
3.03607e-05
2.88647e-05
2.73435e-05
2.58068e-05
2.42479e-05
2.26806e-05
2.11039e-05
1.95312e-05
1.79606e-05
1.64067e-05
1.49244e-05
1.35398e-05
1.24694e-05
1.20842e-05
1.36105e-05
1.38473e-05
1.43373e-05
0.000135361
0.000135102
0.000135006
0.00013476
0.000134675
0.000134414
0.000134319
0.000134054
0.000133936
0.000133666
0.000133524
0.00013325
0.000133083
0.000132803
0.000132607
0.000132316
0.000132089
0.000131782
0.000131521
0.000131191
0.000130892
0.000130531
0.000130188
0.000129788
0.000129393
0.000128932
0.000128136
0.000127307
0.000126464
0.000125589
0.000124699
0.000123779
0.00012284
0.00012187
0.00012088
0.000119858
0.000118813
0.000117739
0.000116637
0.000115497
0.000114325
0.000113114
0.000111868
0.000110587
0.000109265
0.000107898
0.0001065
0.000105052
0.000103571
0.000102045
0.000100483
9.88801e-05
9.72393e-05
9.55616e-05
9.38464e-05
9.20868e-05
9.03056e-05
8.85162e-05
8.66629e-05
8.47985e-05
8.28934e-05
8.09648e-05
7.90047e-05
7.70141e-05
7.4994e-05
7.29322e-05
7.08491e-05
6.87274e-05
6.65858e-05
6.44182e-05
6.22315e-05
6.00323e-05
5.78228e-05
5.56147e-05
5.34115e-05
5.1224e-05
4.90592e-05
4.69242e-05
4.48283e-05
4.27741e-05
4.07686e-05
3.88108e-05
3.69015e-05
3.50363e-05
3.31998e-05
3.13937e-05
2.9632e-05
2.78511e-05
2.60853e-05
2.42941e-05
2.24857e-05
2.06244e-05
1.86998e-05
1.67264e-05
1.47416e-05
1.27769e-05
1.10952e-05
1.01007e-05
1.19786e-05
1.21291e-05
0.00011279
0.000113019
0.000113109
0.000113201
0.000113282
0.00011334
0.000113417
0.000113456
0.000113529
0.000113555
0.000113623
0.000113639
0.000113699
0.000113706
0.000113754
0.000113752
0.000113785
0.000113772
0.000113786
0.000113758
0.000113749
0.000113701
0.000113667
0.000113597
0.000113536
0.000113444
0.000113356
0.000113246
0.000113137
0.000113005
0.000112872
0.000112717
0.000112557
0.000112375
0.000112186
0.000111975
0.000111752
0.000111499
0.000111229
0.000110931
0.000110612
0.000110263
0.000109888
0.000109481
0.000109041
0.000108563
0.000108055
0.000107506
0.000106927
0.000106309
0.000105653
0.000104947
0.00010419
0.000103375
0.000102491
0.000101393
9.99002e-05
9.83592e-05
9.67516e-05
9.50991e-05
9.33904e-05
9.16338e-05
8.9831e-05
8.7988e-05
8.61149e-05
8.41917e-05
8.22407e-05
8.02433e-05
7.81762e-05
7.60846e-05
7.39284e-05
7.17456e-05
6.95081e-05
6.72295e-05
6.4907e-05
6.25338e-05
6.01154e-05
5.76408e-05
5.5116e-05
5.2535e-05
4.99013e-05
4.72201e-05
4.44948e-05
4.17416e-05
3.89689e-05
3.62019e-05
3.3461e-05
3.07742e-05
2.81619e-05
2.56516e-05
2.32203e-05
2.08746e-05
1.86056e-05
1.63331e-05
1.41528e-05
1.21466e-05
1.03305e-05
8.92696e-06
8.39048e-06
1.15427e-05
7.28479e-05
7.327e-05
7.33496e-05
7.36148e-05
7.37064e-05
7.39264e-05
7.40391e-05
7.42318e-05
7.43634e-05
7.45393e-05
7.46849e-05
7.48508e-05
7.50059e-05
7.51661e-05
7.53269e-05
7.54839e-05
7.56474e-05
7.5802e-05
7.59653e-05
7.61172e-05
7.62774e-05
7.64253e-05
7.6581e-05
7.67256e-05
7.68779e-05
7.70212e-05
7.71716e-05
7.73144e-05
7.74621e-05
7.76024e-05
7.77457e-05
7.78815e-05
7.80182e-05
7.81467e-05
7.82736e-05
7.83913e-05
7.85043e-05
7.86095e-05
7.87097e-05
7.88013e-05
7.88864e-05
7.89617e-05
7.90289e-05
7.90853e-05
7.91321e-05
7.9168e-05
7.91938e-05
7.92073e-05
7.92057e-05
7.91846e-05
7.91432e-05
7.90772e-05
7.89851e-05
7.88637e-05
7.87104e-05
7.85253e-05
7.83129e-05
7.80755e-05
7.78081e-05
7.7507e-05
7.71685e-05
7.67825e-05
7.63405e-05
7.56105e-05
7.4745e-05
7.37916e-05
7.27976e-05
7.17325e-05
7.06059e-05
6.94217e-05
6.81491e-05
6.68162e-05
6.54272e-05
6.39181e-05
6.23404e-05
6.06538e-05
5.88718e-05
5.69808e-05
5.49802e-05
5.28712e-05
5.06486e-05
4.83237e-05
4.5894e-05
4.33751e-05
4.07697e-05
3.80953e-05
3.53498e-05
3.25406e-05
2.96643e-05
2.66964e-05
2.36849e-05
2.06298e-05
1.76189e-05
1.47053e-05
1.1969e-05
9.61962e-06
7.80021e-06
6.54302e-06
5.87876e-06
6.76346e-06
6.81454e-06
6.83024e-06
6.84064e-06
6.85389e-06
6.86647e-06
6.88241e-06
6.89541e-06
6.91272e-06
6.92653e-06
6.94462e-06
6.95951e-06
6.97817e-06
6.99432e-06
7.01352e-06
7.03103e-06
7.0509e-06
7.06985e-06
7.09055e-06
7.11097e-06
7.13267e-06
7.15456e-06
7.17736e-06
7.20072e-06
7.2248e-06
7.24979e-06
7.27548e-06
7.30232e-06
7.32984e-06
7.35863e-06
7.3881e-06
7.4189e-06
7.45041e-06
7.48329e-06
7.51694e-06
7.55199e-06
7.5879e-06
7.62526e-06
7.66362e-06
7.70347e-06
7.74442e-06
7.78692e-06
7.83062e-06
7.87593e-06
7.92257e-06
7.97088e-06
8.02065e-06
8.0721e-06
8.12501e-06
8.17945e-06
8.23533e-06
8.29276e-06
8.35171e-06
8.41236e-06
8.47483e-06
8.5393e-06
8.60596e-06
8.67482e-06
8.74583e-06
8.81879e-06
8.89281e-06
8.96797e-06
9.04264e-06
9.11595e-06
9.18618e-06
9.26068e-06
9.33465e-06
9.41352e-06
9.49404e-06
9.57841e-06
9.6664e-06
9.75659e-06
9.8528e-06
9.95313e-06
1.00532e-05
1.01605e-05
1.02686e-05
1.03804e-05
1.0496e-05
1.06126e-05
1.0734e-05
1.08567e-05
1.09843e-05
1.11148e-05
1.12508e-05
1.13909e-05
1.15336e-05
1.16661e-05
1.17618e-05
1.17437e-05
1.15161e-05
1.09312e-05
9.75903e-06
7.92253e-06
5.75292e-06
3.65492e-06
2.64233e-06
2.56077e-06
3.92447e-06
4.02267e-06
4.33378e-06
1.09165e-05
2.06707e-06
2.59122e-06
3.50897e-06
4.53982e-06
5.61472e-06
6.49739e-06
7.31928e-06
8.11864e-06
8.86566e-06
9.5388e-06
1.02386e-05
1.12705e-05
1.2951e-05
1.51248e-05
1.76607e-05
1.75466e-05
1.5535e-05
1.03658e-05
3.99146e-06
5.85554e-06
2.17617e-06
2.46683e-06
3.17797e-06
4.05253e-06
4.87381e-06
5.67749e-06
6.52005e-06
7.37403e-06
8.24239e-06
9.1641e-06
1.02114e-05
1.1722e-05
1.37173e-05
1.66174e-05
1.81561e-05
1.74157e-05
1.47209e-05
9.66786e-06
3.95889e-06
4.92548e-06
2.68853e-06
2.89936e-06
3.4173e-06
4.01619e-06
4.70353e-06
5.45391e-06
6.27632e-06
7.16918e-06
8.27827e-06
9.3305e-06
1.07139e-05
1.25228e-05
1.52972e-05
1.77369e-05
1.8187e-05
1.70933e-05
1.40281e-05
9.0167e-06
3.80875e-06
5.04708e-06
3.43782e-06
3.63845e-06
3.8754e-06
4.35458e-06
4.9043e-06
5.63227e-06
6.52124e-06
7.6263e-06
9.27695e-06
1.08416e-05
1.2497e-05
1.51507e-05
1.78255e-05
1.89691e-05
1.86846e-05
1.70023e-05
1.33134e-05
8.1585e-06
3.20787e-06
5.68777e-06
4.48101e-06
4.62049e-06
4.62616e-06
5.17751e-06
5.64923e-06
6.51254e-06
7.71254e-06
9.39106e-06
1.25624e-05
1.42526e-05
1.64531e-05
1.88921e-05
2.01265e-05
2.02461e-05
1.91869e-05
1.65159e-05
1.26139e-05
7.09164e-06
2.27541e-06
6.89482e-06
5.97009e-06
6.03735e-06
5.98708e-06
6.70817e-06
7.62982e-06
9.13209e-06
1.12765e-05
1.5534e-05
1.87991e-05
2.04067e-05
2.18629e-05
2.27683e-05
2.26687e-05
2.16326e-05
1.90475e-05
1.60348e-05
1.1776e-05
5.19923e-06
1.36838e-06
9.0107e-06
8.57375e-06
8.78302e-06
9.30779e-06
1.09481e-05
1.33519e-05
1.66588e-05
2.14829e-05
2.81135e-05
2.89214e-05
2.87158e-05
2.81019e-05
2.68283e-05
2.46978e-05
2.15971e-05
1.85803e-05
1.49148e-05
1.01756e-05
3.83354e-06
7.00019e-07
1.45189e-05
1.5936e-05
1.71357e-05
1.94099e-05
2.29262e-05
2.72125e-05
3.27592e-05
3.96992e-05
3.93899e-05
3.71517e-05
3.39263e-05
3.12947e-05
2.78271e-05
2.4849e-05
2.09539e-05
1.71447e-05
1.28993e-05
8.46642e-06
3.01197e-06
3.30973e-07
3.23083e-05
3.52717e-05
3.65126e-05
3.89629e-05
4.34391e-05
4.77932e-05
5.1117e-05
4.70602e-05
4.35371e-05
3.97412e-05
3.60225e-05
3.23191e-05
2.82558e-05
2.34617e-05
1.86688e-05
1.40826e-05
1.05612e-05
7.74706e-06
3.15857e-06
2.03165e-07
5.26542e-05
5.55415e-05
5.58232e-05
5.73483e-05
6.22145e-05
5.88211e-05
5.47613e-05
4.98076e-05
4.59455e-05
4.0982e-05
3.71293e-05
3.19107e-05
2.71343e-05
1.98575e-05
1.42702e-05
1.03272e-05
8.74049e-06
7.75278e-06
3.76349e-06
2.64309e-07
5.02538e-05
5.30082e-05
5.34217e-05
5.50535e-05
5.99041e-05
5.73611e-05
5.34829e-05
4.87076e-05
4.50579e-05
4.02677e-05
3.67636e-05
3.16348e-05
2.77729e-05
2.06288e-05
1.5073e-05
1.04594e-05
8.58264e-06
7.27019e-06
3.2814e-06
2.28986e-07
2.78565e-05
3.07849e-05
3.21798e-05
3.46808e-05
3.9103e-05
4.37168e-05
4.91101e-05
4.52704e-05
4.22501e-05
3.81897e-05
3.54105e-05
3.12327e-05
2.82589e-05
2.3926e-05
1.93287e-05
1.45455e-05
1.04697e-05
7.00264e-06
2.48187e-06
1.82438e-07
1.30356e-05
1.39437e-05
1.49021e-05
1.69509e-05
2.01053e-05
2.41591e-05
2.94117e-05
3.63757e-05
3.956e-05
3.59287e-05
3.38227e-05
3.03919e-05
2.75296e-05
2.43709e-05
2.11784e-05
1.7338e-05
1.28775e-05
8.12467e-06
2.657e-06
2.21162e-07
8.62762e-06
8.09589e-06
8.23757e-06
8.62092e-06
1.00232e-05
1.21489e-05
1.51269e-05
1.97294e-05
2.62035e-05
2.73935e-05
2.77413e-05
2.75678e-05
2.66886e-05
2.46079e-05
2.13584e-05
1.8552e-05
1.48034e-05
9.92858e-06
3.54308e-06
4.58728e-07
6.73757e-06
5.80102e-06
5.86433e-06
5.82355e-06
6.50062e-06
7.35126e-06
8.72334e-06
1.06923e-05
1.47408e-05
1.80777e-05
1.98701e-05
2.16484e-05
2.27011e-05
2.27615e-05
2.1843e-05
1.88922e-05
1.57985e-05
1.1505e-05
5.09926e-06
1.17001e-06
5.62273e-06
4.42833e-06
4.56553e-06
4.60658e-06
5.15176e-06
5.63884e-06
6.47874e-06
7.62158e-06
9.21261e-06
1.22831e-05
1.40593e-05
1.64088e-05
1.89851e-05
2.02972e-05
2.04276e-05
1.93421e-05
1.63724e-05
1.24146e-05
6.94612e-06
2.17334e-06
5.04399e-06
3.43691e-06
3.63935e-06
3.9185e-06
4.41394e-06
4.99213e-06
5.72505e-06
6.60417e-06
7.67662e-06
9.30686e-06
1.08623e-05
1.25939e-05
1.53261e-05
1.80622e-05
1.92131e-05
1.88763e-05
1.70837e-05
1.31809e-05
8.05813e-06
3.19091e-06
5.04912e-06
2.73431e-06
2.93468e-06
3.46653e-06
4.09663e-06
4.80452e-06
5.57814e-06
6.4134e-06
7.30367e-06
8.41098e-06
9.48139e-06
1.08959e-05
1.27577e-05
1.55676e-05
1.79848e-05
1.83684e-05
1.71924e-05
1.39223e-05
8.95001e-06
3.7921e-06
6.12809e-06
2.24165e-06
2.53719e-06
3.25654e-06
4.13767e-06
4.99378e-06
5.81956e-06
6.67907e-06
7.54561e-06
8.41628e-06
9.35816e-06
1.04122e-05
1.19846e-05
1.40147e-05
1.69215e-05
1.83461e-05
1.75066e-05
1.47068e-05
9.6051e-06
3.95883e-06
1.0969e-05
2.13713e-06
2.65959e-06
3.59616e-06
4.64477e-06
5.72387e-06
6.65223e-06
7.48977e-06
8.30524e-06
9.05821e-06
9.75252e-06
1.04584e-05
1.14842e-05
1.32235e-05
1.53971e-05
1.78402e-05
1.76128e-05
1.55162e-05
1.03455e-05
3.99484e-06
1.23422e-06
0.000116557
0.000294182
0.000330906
0.00033481
0.000335356
0.000335357
0.000335342
0.000335343
0.000335345
0.000335345
0.000335343
0.000335342
0.000335357
0.000335356
0.00033481
0.000330906
0.000294182
0.000116558
1.23422e-06
1.36971e-06
6.81675e-05
0.000219586
0.000309504
0.000330909
0.000334527
0.000335273
0.000335315
0.000335296
0.000335287
0.000335287
0.000335296
0.000335315
0.000335273
0.000334527
0.000330909
0.000309504
0.000219586
6.81676e-05
1.36971e-06
1.51338e-06
5.28967e-05
0.000176461
0.000280581
0.000322148
0.000332504
0.000334604
0.0003351
0.000335168
0.000335172
0.000335172