/*--------------------------------*- C++ -*----------------------------------*\
| =========                 |                                                 |
| \\      /  F ield         | OpenFOAM: The Open Source CFD Toolbox           |
|  \\    /   O peration     | Version:  2.1.0                                 |
|   \\  /    A nd           | Web:      www.OpenFOAM.org                      |
|    \\/     M anipulation  |                                                 |
\*---------------------------------------------------------------------------*/
FoamFile
{
    version     2.0;
    format      ascii;
    class       volScalarField;
    location    "0.27";
    object      omega;
}
// * * * * * * * * * * * * * * * * * * * * * * * * * * * * * * * * * * * * * //

dimensions      [0 0 -1 0 0 0 0];

internalField   nonuniform List<scalar> 
6400
(
1576.52
1577.43
1577.52
1577.38
1576.93
1576.71
1576.15
1575.89
1575.29
1575.02
1574.44
1574.16
1573.61
1573.34
1572.84
1572.57
1572.16
1571.92
1571.61
1571.41
1571.2
1571.06
1570.95
1570.89
1570.86
1570.86
1570.9
1570.95
1571.04
1571.13
1571.25
1571.36
1571.5
1571.61
1571.72
1571.79
1571.82
1571.79
1571.69
1571.47
1571.13
1570.62
1569.94
1569.03
1567.91
1566.52
1564.87
1562.9
1560.61
1557.95
1554.9
1551.55
1547.91
1544.03
1539.85
1535.36
1530.58
1525.46
1520.01
1514.23
1508.14
1501.74
1495.08
1488.05
1480.65
1472.97
1464.91
1456.3
1447.27
1437.82
1427.69
1417.1
1405.91
1394.07
1381.69
1368.68
1355.12
1341.04
1326.48
1311.5
1296.07
1280.05
1262.95
1243.8
1223.86
1202.34
1178.58
1152.01
1120.98
1083.5
1036.14
972.947
886.12
769.214
620.386
534.451
564.331
734.19
891.359
941.187
666.15
666.613
667.852
669.029
670.492
672.054
673.62
675.39
677.059
678.972
680.758
682.79
684.706
686.849
688.905
691.162
693.367
695.749
698.116
700.635
703.174
705.852
708.575
711.427
714.347
717.396
720.532
723.795
727.162
730.656
734.269
738.016
741.898
745.911
750.057
754.338
758.756
763.31
768.006
772.845
777.832
782.965
788.252
793.691
799.29
805.05
810.979
817.076
823.352
829.782
836.387
843.193
850.215
857.481
864.983
872.752
880.804
889.156
897.834
906.865
916.279
926.111
936.395
947.17
958.438
970.127
982.239
994.887
1008.16
1022.08
1036.68
1052.04
1068.17
1085.16
1103.07
1121.98
1141.97
1163.16
1185.68
1209.7
1235.45
1262.79
1290.96
1320.54
1351.19
1382.49
1413.7
1443.9
1471.88
1496.26
1513.99
1522.16
1523.8
1509.81
1475.12
1396.86
1284.52
1149.35
1003.62
846.446
489.184
492.589
494.2
497.471
499.654
502.977
505.531
508.912
511.759
515.229
518.335
521.925
525.275
529.009
532.598
536.498
540.322
544.407
548.473
552.754
557.057
561.552
566.098
570.819
575.618
580.584
585.65
590.878
596.223
601.725
607.356
613.142
619.064
625.162
631.421
637.87
644.5
651.31
658.284
665.439
672.794
680.345
688.102
696.072
704.256
712.664
721.296
730.155
739.244
748.582
758.171
768.029
778.17
788.608
799.351
810.417
821.82
833.574
845.695
858.198
871.095
884.398
898.113
912.241
926.803
941.838
957.353
973.24
989.446
1005.94
1022.68
1039.62
1056.72
1073.94
1091.24
1108.6
1126
1143.44
1160.93
1178.5
1196.18
1213.99
1231.97
1250.19
1268.58
1286.96
1305.21
1322.77
1339.07
1352.92
1360.67
1363.49
1357.64
1332.6
1285.67
1206.71
1098.55
957.373
794.804
626.453
447.933
453.264
455.62
460.29
463.277
467.919
471.37
476.031
479.868
484.603
488.782
493.64
498.136
503.157
507.956
513.171
518.264
523.694
529.074
534.734
540.395
546.294
552.231
558.376
564.592
571.003
577.51
584.2
591.002
597.979
605.083
612.358
619.772
627.349
635.067
642.944
650.962
659.156
667.525
676.069
684.753
693.604
702.594
711.735
721.01
730.417
739.946
749.588
759.333
769.177
779.105
789.11
799.18
809.313
819.483
829.689
839.915
850.144
860.376
870.591
880.777
890.927
901.02
911.035
920.981
930.866
940.665
950.371
959.956
969.419
978.73
987.854
996.758
1005.41
1013.74
1021.71
1029.23
1036.23
1042.6
1048.22
1052.96
1056.65
1058.72
1059.55
1059.56
1056.3
1051.59
1043.41
1032.43
1017.18
997.589
972.236
940.154
899.283
847.824
783.639
708.514
626.73
551.305
496.014
444.501
450.975
453.788
459.376
462.9
468.42
472.451
477.94
482.371
487.876
492.639
498.199
503.247
508.893
514.191
519.942
525.463
531.332
537.054
543.049
548.955
555.069
561.132
567.36
573.574
579.927
586.289
592.767
599.262
605.853
612.467
619.159
625.877
632.656
639.46
646.311
653.18
660.079
666.985
673.908
680.829
687.749
694.659
701.544
708.402
715.222
721.988
728.704
735.342
741.914
748.389
754.761
761.003
767.164
773.179
779.06
784.755
790.247
795.522
800.534
805.273
809.699
813.792
817.511
820.844
823.733
826.166
828.088
829.442
830.102
830.33
829.969
828.679
826.801
824.012
820.475
815.996
810.649
804.307
796.997
788.635
779.224
768.788
757.325
744.79
731.284
716.824
701.383
685.006
667.557
648.942
628.802
606.936
582.601
555.055
524.992
493.483
464.334
443.787
432.634
442.181
448.382
451.045
456.338
459.602
464.772
468.424
473.469
477.39
482.33
486.44
491.297
495.541
500.329
504.664
509.393
513.784
518.461
522.881
527.506
531.934
536.498
540.903
545.401
549.777
554.21
558.539
562.957
567.298
571.687
576.009
580.345
584.614
588.872
593.056
597.202
601.26
605.258
609.148
612.944
616.612
620.149
623.539
626.759
629.802
632.648
635.271
637.672
639.806
641.683
643.254
644.527
645.459
646.149
646.477
646.588
646.367
645.655
644.654
643.159
641.325
639.005
636.314
633.152
629.607
625.605
621.228
616.415
611.239
605.666
599.802
593.597
587.125
580.393
573.43
566.273
558.934
551.482
543.923
536.317
528.687
521.102
513.565
506.143
498.83
491.55
484.305
477.068
469.878
462.614
455.253
447.66
439.742
431.335
422.564
413.831
406.592
403.155
402.265
402.369
418.674
423.412
425.414
429.387
431.726
435.567
438.087
441.757
444.367
447.856
450.496
453.806
456.432
459.561
462.14
465.086
467.588
470.346
472.747
475.31
477.576
479.94
482.051
484.226
486.183
488.144
489.905
491.704
493.307
494.885
496.255
497.547
498.617
499.568
500.279
500.817
501.078
501.175
501.101
500.658
500.056
499.132
497.997
496.571
494.905
492.978
490.793
488.379
485.704
482.83
479.71
476.423
472.927
469.265
465.401
461.424
457.283
453.07
448.76
444.413
440.032
435.654
431.298
426.978
422.714
418.575
414.564
410.732
407.079
403.651
400.408
397.411
394.629
392.11
389.82
387.792
385.978
384.411
383.07
381.968
381.079
380.4
379.906
379.572
379.389
379.3
379.267
379.26
379.257
379.202
379.097
378.974
378.918
379.04
379.889
381.494
384.154
388.943
392.587
393.623
374.558
377.526
378.724
381.053
382.249
384.404
385.52
387.436
388.424
390.072
390.897
392.242
392.905
393.921
394.412
395.077
395.385
395.663
395.76
395.783
395.565
395.285
394.764
394.203
393.399
392.548
391.446
390.205
388.685
387.035
385.096
383.034
380.687
378.224
375.507
372.691
369.647
366.535
363.229
359.874
356.389
352.886
349.306
345.749
342.167
338.653
335.159
331.777
328.458
325.286
322.197
319.289
316.537
313.964
311.586
309.411
307.46
305.738
304.262
303.035
302.076
301.382
301.037
300.902
300.931
301.438
301.998
302.989
304.071
305.53
307.113
309.019
311.07
313.397
315.877
318.594
321.464
324.526
327.754
331.144
334.68
338.336
342.109
345.953
349.876
353.813
357.782
361.711
365.631
369.485
373.328
377.136
380.989
384.923
389.141
394.035
399.696
406.668
411.973
414.078
311.169
311.52
311.578
311.601
311.4
311.209
310.705
310.278
309.474
308.792
307.703
306.76
305.405
304.2
302.597
301.135
299.305
297.59
295.556
293.602
291.372
289.208
286.816
284.494
282
279.58
277.009
274.507
271.911
269.379
266.804
264.305
261.818
259.42
257.073
254.834
252.69
250.677
248.797
247.071
245.509
244.12
242.917
241.905
241.092
240.483
240.123
239.964
239.93
240.208
240.696
241.405
242.31
243.401
244.709
246.182
247.881
249.732
251.814
254.04
256.498
259.098
261.926
264.901
268.107
271.46
275.022
278.75
282.678
286.786
291.093
295.595
300.299
305.209
310.328
315.667
321.225
327.016
333.034
339.294
345.793
352.538
359.53
366.767
374.245
381.96
389.902
398.045
406.374
414.848
423.447
432.143
440.949
449.869
458.971
468.459
479.004
490.521
501.866
507.465
236.782
234.885
234.079
232.451
231.503
229.858
228.799
227.152
226.015
224.381
223.197
221.593
220.392
218.839
217.649
216.165
215.014
213.619
212.531
211.241
210.239
209.076
208.183
207.163
206.394
205.531
204.903
204.214
203.747
203.25
202.964
202.711
202.602
202.566
202.657
202.874
203.227
203.674
204.292
204.994
205.866
206.838
207.967
209.212
210.597
212.104
213.744
215.51
217.4
219.428
221.575
223.855
226.25
228.768
231.411
234.171
237.063
240.07
243.214
246.475
249.88
253.405
257.08
260.882
264.842
268.936
273.198
277.605
282.191
286.938
291.875
296.991
302.31
307.83
313.57
319.537
325.745
332.207
338.938
345.955
353.275
360.919
368.907
377.266
386.022
395.207
404.856
415.007
425.71
437.012
448.982
461.688
475.226
489.697
505.219
521.878
539.584
557.985
572.596
579.106
259.609
258.903
258.577
257.888
257.416
256.65
256.034
255.172
254.417
253.447
252.56
251.475
250.472
249.282
248.17
246.895
245.694
244.356
243.086
241.71
240.392
238.994
237.644
236.234
234.875
233.49
232.171
230.844
229.597
228.362
227.232
226.125
225.146
224.209
223.423
222.693
222.131
221.647
221.344
221.188
221.136
221.228
221.534
221.971
222.59
223.349
224.27
225.352
226.577
227.977
229.512
231.216
233.064
235.066
237.222
239.521
241.987
244.588
247.342
250.239
253.282
256.477
259.816
263.312
266.957
270.764
274.725
278.856
283.148
287.621
292.265
297.101
302.122
307.351
312.781
318.436
324.313
330.436
336.804
343.444
350.359
357.575
365.102
372.967
381.187
389.788
398.792
408.228
418.132
428.549
439.522
451.103
463.371
476.417
490.367
505.369
521.512
538.456
552.435
558.777
328.952
330.46
331.038
332.104
332.624
333.515
333.944
334.624
334.944
335.395
335.597
335.742
335.774
335.724
335.458
335.181
334.655
334.147
333.362
332.621
331.581
330.602
329.306
328.062
326.491
324.98
323.165
321.402
319.368
317.366
315.134
312.927
310.528
308.156
305.635
303.146
300.551
298
295.391
292.84
290.288
287.817
285.39
283.065
280.839
278.761
276.817
275.051
273.447
272.049
270.84
269.857
269.086
268.57
268.32
268.236
268.388
268.852
269.472
270.386
271.466
272.828
274.359
276.159
278.127
280.352
282.745
285.385
288.191
291.216
294.401
297.79
301.336
305.083
308.984
313.084
317.33
321.768
326.348
331.113
336.014
341.072
346.252
351.575
357.011
362.58
368.252
374.044
379.929
385.911
391.976
398.171
404.528
411.148
418.214
426.067
435.1
445.601
456.782
462.628
380.753
383.963
385.285
387.877
389.313
391.779
393.251
395.555
397.02
399.15
400.583
402.556
403.957
405.76
407.091
408.719
409.947
411.393
412.485
413.741
414.673
415.724
416.466
417.278
417.781
418.31
418.57
418.729
418.772
418.659
418.339
417.895
417.235
416.44
415.423
414.266
412.884
411.364
409.602
407.639
405.429
403.039
400.411
397.626
394.629
391.51
388.213
384.819
381.311
377.734
374.103
370.446
366.787
363.152
359.563
356.043
352.603
349.307
346.163
343.212
340.428
337.871
335.512
333.414
331.542
329.953
328.603
327.537
326.701
326.146
325.872
325.773
325.837
326.265
326.747
327.536
328.371
329.458
330.576
331.895
333.226
334.786
336.376
338.155
339.972
341.966
344.006
346.206
348.472
350.913
353.463
356.205
359.101
362.221
365.686
369.732
374.841
381.507
386.36
388.158
416.101
420.644
422.567
426.388
428.671
432.379
434.877
438.454
441.085
444.533
447.247
450.602
453.4
456.675
459.526
462.731
465.608
468.749
471.631
474.712
477.583
480.606
483.453
486.406
489.192
492.042
494.743
497.478
500.079
502.673
505.134
507.562
509.85
512.074
514.146
516.124
517.933
519.617
521.135
522.571
523.8
524.883
525.722
526.351
526.659
526.774
526.698
526.161
525.46
524.338
522.991
521.255
519.258
516.902
514.264
511.3
508.053
504.516
500.712
496.666
492.429
488.006
483.387
478.623
473.704
468.719
463.635
458.538
453.404
448.367
443.372
438.53
433.808
429.294
424.952
420.825
416.843
413.091
409.491
406.117
402.878
399.768
396.771
393.89
391.078
388.367
385.693
383.089
380.504
377.988
375.506
373.153
370.986
369.167
367.823
367.295
367.69
371.57
374.586
375.485
431.042
436.617
439.007
443.762
446.698
451.355
454.653
459.215
462.777
467.272
471.041
475.501
479.436
483.884
487.959
492.416
496.607
501.087
505.38
509.893
514.279
518.84
523.32
527.935
532.49
537.146
541.764
546.468
551.149
555.896
560.625
565.405
570.169
574.964
579.74
584.528
589.286
594.034
598.751
603.487
608.174
612.842
617.439
621.981
626.421
630.77
634.988
639.06
642.978
646.703
650.235
653.534
656.595
659.385
661.89
664.083
665.942
667.444
668.563
669.166
669.408
669.42
668.721
667.86
666.366
664.538
662.115
659.26
655.834
651.928
647.472
642.52
637.041
631.074
624.613
617.744
610.465
602.8
594.802
586.432
577.779
568.767
559.535
549.98
540.224
530.11
519.779
509.072
498.09
486.535
474.625
462.156
449.179
436.086
422.352
409.433
397.868
391.091
388.086
386.729
429.68
435.244
437.657
442.441
445.452
450.171
453.602
458.283
462.04
466.722
470.76
475.492
479.783
484.597
489.112
494.032
498.758
503.801
508.73
513.914
519.042
524.386
529.721
535.242
540.781
546.477
552.21
558.087
564.02
570.082
576.212
582.461
588.787
595.224
601.743
608.367
615.075
621.884
628.777
635.764
642.828
649.977
657.194
664.486
671.834
679.238
686.689
694.172
701.681
709.193
716.704
724.21
731.695
739.15
746.56
753.915
761.203
768.413
775.52
782.513
789.368
796.056
802.557
808.884
814.947
820.75
826.215
831.321
836.005
840.229
843.931
847.072
849.578
851.366
852.238
852.545
852.124
850.347
847.864
843.961
839.071
832.628
824.906
815.449
804.404
791.44
776.645
759.727
740.718
719.437
695.791
669.458
640.115
607.627
572.387
534.478
496.436
460.75
435.092
418.164
433.796
438.282
440.269
444.207
446.713
450.611
453.479
457.364
460.534
464.46
467.889
471.885
475.547
479.646
483.535
487.767
491.877
496.266
500.599
505.165
509.725
514.492
519.297
524.29
529.348
534.579
539.893
545.373
550.958
556.708
562.583
568.626
574.812
581.175
587.699
594.41
601.305
608.389
615.664
623.141
630.819
638.709
646.807
655.122
663.648
672.388
681.37
690.596
700.08
709.83
719.838
730.057
740.502
751.154
762.005
773.043
784.253
795.625
807.133
818.774
830.524
842.376
854.317
866.336
878.426
890.568
902.755
914.952
927.147
939.295
951.35
963.37
975.298
987.128
998.807
1010.32
1021.56
1032.46
1042.97
1052.91
1062.2
1070.58
1077.9
1083.81
1087.49
1089.07
1089.27
1084.74
1077.04
1063.82
1045.07
1018.86
984.077
938.563
881.796
810.412
727.387
635.546
553.47
488.136
476.462
479.187
480.5
483.184
484.977
487.703
489.792
492.563
494.874
497.703
500.206
503.112
505.795
508.798
511.656
514.772
517.805
521.049
524.258
527.645
531.034
534.58
538.159
541.882
545.659
549.569
553.553
557.662
561.861
566.189
570.623
575.191
579.877
584.701
589.654
594.749
599.976
605.382
610.954
616.715
622.667
628.826
635.204
641.816
648.679
655.813
663.2
670.86
678.789
686.999
695.504
704.349
713.534
723.08
732.995
743.29
753.979
765.081
776.607
788.576
801.009
813.924
827.348
841.305
855.836
870.945
886.669
903.01
919.993
937.629
955.937
974.81
994.207
1014.07
1034.33
1054.92
1075.76
1096.79
1117.95
1139.2
1160.51
1181.88
1203.28
1224.67
1245.93
1267.26
1288.32
1308.64
1327.63
1343.95
1353.39
1356.87
1350.58
1321.94
1271.21
1196.04
1093.17
963.959
803.362
630.481
653.037
652.999
654.003
654.75
655.893
657.029
658.222
659.558
660.814
662.271
663.609
665.157
666.588
668.214
669.747
671.449
673.087
674.868
676.613
678.481
680.341
682.306
684.286
686.359
688.462
690.649
692.884
695.2
697.581
700.048
702.593
705.228
707.953
710.775
713.702
716.74
719.903
723.173
726.57
730.09
733.746
737.54
741.483
745.578
749.838
754.263
758.862
763.644
768.616
773.79
779.178
784.793
790.647
796.754
803.128
809.787
816.742
824
831.587
839.511
847.798
856.449
865.483
874.906
884.856
895.274
906.267
917.812
929.969
942.758
956.193
970.294
985.249
1001.02
1017.76
1035.46
1054.26
1074.22
1095.44
1118.02
1142.04
1167.65
1194.91
1223.92
1254.75
1286.76
1319.33
1351.15
1380.37
1404.68
1418.53
1423.61
1421.31
1405.51
1373.99
1316.18
1230.27
1120.71
997.551
848.981
1561.24
1561.84
1561.67
1561.25
1560.55
1560.08
1559.19
1558.7
1557.77
1557.24
1556.32
1555.75
1554.87
1554.26
1553.41
1552.77
1551.97
1551.29
1550.52
1549.83
1549.09
1548.38
1547.66
1546.96
1546.27
1545.59
1544.95
1544.29
1543.68
1543.05
1542.46
1541.84
1541.25
1540.62
1540.02
1539.39
1538.77
1538.12
1537.47
1536.78
1536.09
1535.35
1534.6
1533.79
1532.96
1532.06
1531.11
1530.08
1528.95
1527.71
1526.35
1524.84
1523.19
1521.38
1519.42
1517.29
1514.99
1512.48
1509.74
1506.66
1503.23
1499.29
1494.74
1489.44
1483.94
1477.83
1471.48
1464.63
1457.38
1449.66
1441.33
1432.57
1423.19
1412.83
1401.89
1389.88
1376.89
1362.83
1347.44
1330.83
1312.7
1293.13
1271.89
1248.99
1224.23
1197.4
1167.82
1134.35
1094.09
1044.24
981.12
899.082
797.861
689.163
582.711
533.461
554.838
721.016
886.279
939.608
864.641
324.294
176.53
119.624
95.2886
82.3109
75.6468
72.5739
71.5491
73.1935
79.799
95.2383
116.169
152.73
203.314
268.333
347.195
444.501
561.941
610.658
692.111
328.829
218.907
154.416
121.904
103.853
92.5294
86.9408
84.9186
86.4061
97.8118
113.123
141.105
181.046
234.291
297.583
371.729
460.925
546.358
568.492
544.154
318.808
242.642
180.455
147.585
124.974
111.2
105.103
103.287
106.969
118.052
140.501
170.988
214.972
266.426
324.459
390.094
464.904
515.023
521.237
444.53
305.171
256.298
197.863
170.762
145.556
133.316
127.458
125.711
129.069
150.453
173.849
210.202
253.172
299.858
351.687
408.019
457.418
475.632
471.548
388.369
300.616
266.471
214.731
191.973
168.032
157.955
153.686
153.055
170.654
191.759
219.01
254.203
290.484
329.824
371.51
412.11
434.808
425.676
422.686
360.202
300.325
273.735
231.353
213.486
198.786
194.615
194.273
207.538
223.791
244.795
269.477
297.636
325.889
356.455
385.161
400.833
397.847
366.502
378.827
351.951
312.057
294.888
270.627
262.901
260.16
259.736
266.627
276.001
288.832
304.167
321.101
339.274
356.102
371.138
378.219
376.569
343.514
298.927
348.97
385.36
373.077
369.036
359.526
355.105
349.643
347.591
347.191
349.952
354.52
359.259
364.404
367.377
368.467
367.51
358.947
331.042
275.029
230.027
333.404
497.687
482.656
475.239
456.401
447.539
433.302
426.334
416.756
411.712
403.691
397.402
388.295
377.901
365.479
349.022
315.13
265.472
201.841
163.145
328.165
561.628
540.31
530.676
507.72
496.72
478.145
467.832
451.023
439.463
422.607
408.496
389.333
369.323
340.453
300.819
251.295
198.968
147.543
123.589
330.655
543.544
523.586
514.675
493.23
483
465.913
456.719
441.992
431.91
417.43
404.961
388.477
370.615
345.87
309.614
260.105
205.745
148.999
121.769
329.213
456.359
445.618
440.33
424.666
417.55
406.979
401.92
396.572
393.918
390.72
387.227
382.623
375.361
365.691
353.807
325.795
276.853
210.595
172.324
327.321
357.718
342.334
337.21
329.57
326.335
323.484
322.772
325.984
330.908
338.944
347.084
355.662
363.392
367.195
368.479
363.765
339.784
285.831
239.318
328.899
336.046
296.148
278.578
253.246
244.768
241.787
241.615
250.115
260.996
275.162
292.81
311.776
332.49
352.826
371.371
380.48
381.497
352.552
307.977
338.72
346.281
287.755
261.902
220.659
203.232
188.61
184.199
183.67
197.361
214.681
236.325
262.723
291.755
321.748
354.332
386.442
404.209
405.008
373.834
369.749
373.999
288.973
255.737
206.041
184.115
161.238
151.534
147.395
146.747
164.461
185.973
214.041
250.128
287.369
327.715
370.567
414.651
439.252
433.06
417.575
428.986
293.658
245.937
189.792
163.637
139.873
128.353
122.988
121.513
125.593
146.499
170.583
207.07
250.815
298.391
351.008
408.16
460.925
481.106
470.64
531.047
307.903
233.477
173.607
141.826
120.269
107.257
101.556
99.9648
104.443
115.763
138.397
169.287
213.259
265.241
323.871
390.787
467.635
518.989
523.117
686.375
317.748
211.028
148.117
116.914
99.8392
89.4191
84.2906
82.4795
84.4183
95.9296
111.703
139.956
180.227
233.677
297
371.269
461.374
549.104
571.559
863.174
313.162
170.561
115.65
92.0089
79.5762
73.1567
70.4223
69.6128
71.8574
78.5912
94.1218
115.51
152.074
203.11
268.327
347.44
444.926
563.672
613.934
646.054
32.1746
12.7363
11.3229
11.19
11.171
11.1705
11.1708
11.1706
11.1705
11.1705
11.1706
11.1708
11.1705
11.171
11.19
11.3229
12.7363
32.1746
646.054
672.738
55.0624
17.0385
12.0869
11.3039
11.1803
11.1547
11.1529
11.1534
11.1536
11.1536
11.1534
11.1529
11.1547
11.1803
11.3039
12.0869
17.0385
55.0623
672.738
698.453
71.093
21.1541
13.3032
11.5873
11.2261
11.1552
11.1382
11.1358
11.1355
11.1355
11.1358
11.1382
11.1552
11.2261
11.5873
13.3032
21.154
71.0929
698.453
723.141
85.8531
25.1374
14.6463
12.0431
11.3371
11.1684
11.1265
11.1183
11.1171
11.1171
11.1183
11.1265
11.1684
11.3371
12.0431
14.6462
25.1374
85.853
723.141
746.743
101.867
29.2067
16.0659
12.5885
11.5234
11.2064
11.1273
11.105
11.1003
11.1003
11.105
11.1273
11.2064
11.5234
12.5885
16.0659
29.2067
101.867
746.743
769.305
118.429
33.3662
17.5403
13.197
11.7624
11.283
11.1366
11.0944
11.0843
11.0843
11.0944
11.1366
11.283
11.7624
13.197
17.5403
33.3662
118.429
769.305
790.727
134.966
37.5672
19.0509
13.8501
12.0431
11.3872
11.16
11.0918
11.0718
11.0718
11.0918
11.16
11.3872
12.0431
13.8501
19.0509
37.5673
134.966
790.727
810.986
151.254
41.7807
20.5853
14.5352
12.3571
11.5178
11.2031
11.0955
11.0625
11.0625
11.0955
11.2031
11.5178
12.3571
14.5352
20.5853
41.7808
151.254
810.986
829.957
167.081
45.9697
22.1305
15.2423
12.6969
11.6708
11.2604
11.1065
11.0594
11.0594
11.1065
11.2604
11.6708
12.6969
15.2423
22.1305
45.9698
167.081
829.957
847.651
182.399
50.1205
23.6796
15.9647
13.0568
11.8431
11.3324
11.129
11.0619
11.0619
11.129
11.3324
11.8431
13.0568
15.9647
23.6797
50.1206
182.4
847.651
863.989
197.094
54.2099
25.2245
16.6967
13.4321
12.0315
11.4179
11.1609
11.0697
11.0697
11.1609
11.4179
12.0315
13.4321
16.6967
25.2246
54.21
197.094
863.989
879.014
211.156
58.2321
26.7618
17.4346
13.8192
12.2335
11.5156
11.2021
11.0862
11.0862
11.2021
11.5156
12.2335
13.8192
17.4347
26.7619
58.2323
211.156
879.014
892.665
224.493
62.1656
28.2846
18.1745
14.215
12.4467
11.6242
11.2528
11.1113
11.1113
11.2528
11.6242
12.4467
14.215
18.1746
28.2846
62.1658
224.493
892.664
905.026
237.119
66.0091
29.7908
18.9141
14.617
12.6691
11.7427
11.3126
11.1446
11.1446
11.3126
11.7427
12.6691
14.617
18.9142
29.7909
66.0094
237.119
905.026
916.067
248.969
69.7455
31.2753
19.6506
15.023
12.899
11.8698
11.381
11.1861
11.1861
11.381
11.8698
12.899
15.023
19.6506
31.2754
69.7457
248.97
916.066
925.905
260.089
73.3778
32.7377
20.3829
15.4318
13.1351
12.0048
11.4576
11.2357
11.2357
11.4576
12.0048
13.1351
15.4318
20.3829
32.7378
73.3779
260.09
925.904
934.513
270.424
76.8907
34.1734
21.1088
15.8417
13.3762
12.1466
11.5418
11.293
11.293
11.5418
12.1466
13.3762
15.8418
21.1088
34.1734
76.8909
270.424
934.512
942.037
280.037
80.2892
35.5825
21.8276
16.2519
13.6211
12.2944
11.6331
11.3579
11.3579
11.6331
12.2944
13.6211
16.2519
21.8276
35.5826
80.2893
280.036
942.037
948.451
288.886
83.5605
36.9608
22.5375
16.661
13.8691
12.4475
11.7309
11.4299
11.4299
11.7309
12.4475
13.8691
16.661
22.5375
36.9609
83.5606
288.886
948.45
953.925
297.052
86.712
38.3096
23.2382
17.0685
14.1193
12.6053
11.8348
11.5085
11.5085
11.8348
12.6053
14.1194
17.0685
23.2383
38.3096
86.7121
297.051
953.924
958.417
304.505
89.7342
39.625
23.9283
17.4735
14.3712
12.7671
11.9442
11.5934
11.5934
11.9442
12.7671
14.3712
17.4735
23.9283
39.625
89.7342
304.505
958.416
962.121
311.327
92.6352
40.9091
24.6079
17.8756
14.6241
12.9325
12.0587
11.684
11.684
12.0587
12.9325
14.6242
17.8757
24.608
40.9092
92.6353
311.327
962.12
964.967
317.505
95.408
42.1581
25.2755
18.2742
14.8776
13.1009
12.1777
11.78
11.78
12.1777
13.1009
14.8776
18.2742
25.2756
42.1582
95.4081
317.505
964.966
967.18
323.104
98.0613
43.3748
25.9317
18.669
15.1313
13.2719
12.3009
11.8809
11.8809
12.3009
13.2719
15.1313
18.669
25.9318
43.3749
98.0615
323.104
967.179
968.649
328.145
100.59
44.5557
26.575
19.0593
15.3846
13.445
12.4277
11.9862
11.9862
12.4277
13.445
15.3846
19.0593
26.575
44.5557
100.59
328.146
968.648
969.635
332.656
103.004
45.704
27.2062
19.4452
15.6374
13.62
12.5579
12.0955
12.0955
12.5579
13.62
15.6374
19.4452
27.2063
45.7041
103.004
332.655
969.634
969.97
336.702
105.3
46.8164
27.824
19.8261
15.8892
13.7964
12.691
12.2085
12.2085
12.691
13.7964
15.8892
19.8261
27.824
46.8164
105.3
336.702
969.969
969.834
340.245
107.487
47.897
28.4295
20.202
16.14
13.974
12.8267
12.3248
12.3248
12.8267
13.974
16.14
20.2021
28.4295
47.8971
107.487
340.244
969.833
969.425
343.4
109.562
48.942
29.0213
20.5726
16.3892
14.1525
12.9646
12.4441
12.4441
12.9646
14.1525
16.3892
20.5726
29.0212
48.942
109.562
343.4
969.424
968.579
346.143
111.538
49.9562
29.6005
20.9378
16.6369
14.3316
13.1045
12.5659
12.5659
13.1045
14.3316
16.6369
20.9378
29.6005
49.9563
111.538
346.142
968.578
967.379
348.532
113.407
50.9359
30.1661
21.2973
16.8828
14.5111
13.2461
12.69
12.69
13.2461
14.5111
16.8828
21.2973
30.1661
50.9359
113.407
348.531
967.378
965.891
350.554
115.186
51.8865
30.7193
21.6514
17.1267
14.6907
13.389
12.8161
12.8161
13.389
14.6907
17.1267
21.6514
30.7193
51.8864
115.186
350.553
965.89
964.156
352.263
116.865
52.8036
31.259
21.9996
17.3685
14.8702
13.5331
12.944
12.944
13.5331
14.8702
17.3685
21.9996
31.259
52.8036
116.865
352.262
964.155
962.205
353.661
118.463
53.6936
31.7865
22.3422
17.608
15.0495
13.6782
13.0733
13.0733
13.6782
15.0495
17.608
22.3421
31.7865
53.6934
118.463
353.66
962.204
960.074
354.765
119.966
54.5515
32.3009
22.6788
17.8451
15.2284
13.8239
13.2039
13.2039
13.8239
15.2284
17.8451
22.6788
32.3008
54.5515
119.966
354.763
960.073
957.789
355.616
121.397
55.3843
32.8035
23.0098
18.0798
15.4067
13.9702
13.3355
13.3355
13.9702
15.4067
18.0798
23.0097
32.8034
55.3841
121.396
355.616
957.788
955.382
356.174
122.738
56.1871
33.2934
23.3348
18.3119
15.5842
14.1168
13.468
13.468
14.1168
15.5842
18.3119
23.3348
33.2934
56.187
122.738
356.172
955.382
952.87
356.559
124.013
56.9664
33.7719
23.6542
18.5414
15.761
14.2636
13.601
13.601
14.2635
15.761
18.5414
23.6542
33.7719
56.9662
124.013
356.558
952.869
950.287
356.612
125.206
57.718
34.2385
23.9678
18.7682
15.9367
14.4103
13.7346
13.7346
14.4103
15.9367
18.7681
23.9678
34.2384
57.7179
125.206
356.611
950.287
947.635
356.521
126.338
58.4479
34.6941
24.2758
18.9922
16.1114
14.557
13.8684
13.8684
14.557
16.1114
18.9922
24.2757
34.6941
58.4478
126.338
356.52
947.634
944.958
356.291
127.396
59.1528
35.1387
24.5781
19.2134
16.2849
14.7033
14.0024
14.0024
14.7033
16.2849
19.2134
24.5781
35.1386
59.1525
127.395
356.29
944.958
942.243
355.823
128.402
59.8375
35.5727
24.8749
19.4319
16.4571
14.8493
14.1364
14.1364
14.8493
16.4571
19.4319
24.8749
35.5726
59.8375
128.402
355.822
942.243
939.54
355.241
129.34
60.5007
35.9966
25.1664
19.6475
16.628
14.9948
14.2703
14.2703
14.9948
16.628
19.6475
25.1664
35.9964
60.5004
129.339
355.24
939.541
936.819
354.508
130.246
61.1468
36.4106
25.4525
19.8602
16.7975
15.1397
14.404
14.404
15.1397
16.7975
19.8602
25.4525
36.4106
61.1469
130.246
354.508
936.819
934.146
353.719
131.105
61.7766
36.8156
25.7336
20.0702
16.9655
15.2839
14.5373
14.5373
15.2839
16.9655
20.0702
25.7335
36.8154
61.776
131.104
353.719
934.146
931.464
352.874
131.98
62.3968
37.2117
26.0095
20.2773
17.132
15.4273
14.6702
14.6702
15.4273
17.132
20.2773
26.0096
37.2119
62.3973
131.981
352.873
931.465
928.861
352.022
132.876
63.0153
37.6006
26.2807
20.4817
17.2969
15.5699
14.8026
14.8026
15.5699
17.2969
20.4816
26.2805
37.6002
63.0144
132.874
352.022
928.861
926.332
351.165
133.818
63.636
37.9826
26.5472
20.6832
17.4603
15.7115
14.9344
14.9344
15.7116
17.4603
20.6833
26.5474
37.983
63.6369
133.82
351.165
926.332
923.874
350.422
134.847
64.2664
38.3594
26.8095
20.882
17.622
15.8522
15.0654
15.0654
15.8522
17.6219
20.8819
26.8092
38.3589
64.2651
134.845
350.422
923.874
921.482
349.754
135.968
64.9091
38.7322
27.0677
21.0783
17.7821
15.9919
15.1958
15.1958
15.9919
17.7821
21.0784
27.068
38.7328
64.9105
135.97
349.754
921.483
919.157
349.292
137.197
65.5679
39.1023
27.3223
21.2719
17.9405
16.1304
15.3253
15.3253
16.1304
17.9404
21.2717
27.3219
39.1015
65.5664
137.195
349.293
919.157
916.895
348.941
138.525
66.243
39.4704
27.5735
21.463
18.0973
16.2679
15.454
15.454
16.2679
18.0974
21.4632
27.574
39.4714
66.2449
138.527
348.942
916.895
914.695
348.851
139.945
66.9362
39.8383
27.8221
21.6518
18.2524
16.4042
15.5817
15.5817
16.4041
18.2523
21.6516
27.8215
39.8371
66.9343
139.944
348.853
914.695
912.558
348.915
141.454
67.6457
40.2052
28.0676
21.8383
18.4059
16.5393
15.7086
15.7086
16.5394
18.4061
21.8387
28.0685
40.207
67.6487
141.457
348.918
912.558
910.482
349.098
143.03
68.3743
40.5745
28.3114
22.0227
18.5577
16.6732
15.8343
15.8343
16.6731
18.5576
22.0224
28.3107
40.5731
68.3724
143.03
349.101
910.481
908.468
349.467
144.667
69.1166
40.9436
28.5529
22.2051
18.7081
16.8059
15.9591
15.9592
16.8061
18.7084
22.2056
28.554
40.9455
69.1194
144.67
349.473
908.468
906.516
349.992
146.349
69.8762
41.3159
28.7931
22.3856
18.8568
16.9373
16.0828
16.0827
16.9372
18.8566
22.3852
28.7925
41.315
69.8763
146.353
349.998
906.513
904.627
350.628
148.069
70.647
41.6889
29.0317
22.5643
19.0041
17.0676
16.2055
16.2056
17.0679
19.0045
22.5652
29.0334
41.6916
70.6504
148.071
350.634
904.625
902.797
351.375
149.813
71.434
42.0663
29.2699
22.7415
19.1498
17.1965
16.3269
16.3269
17.1965
19.1496
22.741
29.269
42.0652
71.4344
149.82
351.388
902.793
901.033
352.207
151.566
72.2244
42.4426
29.5058
22.9167
19.2941
17.3244
16.4476
16.4477
17.3248
19.2949
22.9184
29.5088
42.4476
72.2315
151.574
352.217
901.028
899.326
353.112
153.348
73.0379
42.8272
29.7433
23.0913
19.437
17.4508
16.5666
16.5666
17.4507
19.4368
23.0907
29.742
42.8256
73.0386
153.358
353.138
899.317
897.681
354.081
155.098
73.8419
43.2072
29.9774
23.2636
19.5785
17.5762
16.6851
16.6853
17.577
19.58
23.2664
29.9824
43.2157
73.8542
155.112
354.098
897.672
896.097
355.088
156.879
74.6717
43.5971
30.214
23.4356
19.7188
17.7001
16.8018
16.8018
17.7001
19.7186
23.4351
30.2131
43.5966
74.6771
156.9
355.133
896.079
894.566
356.144
158.605
75.4904
43.984
30.4485
23.606
19.8579
17.8234
16.9182
16.9186
17.8245
19.8601
23.61
30.4554
43.995
75.5049
158.622
356.174
894.552
893.105
357.203
160.348
76.3195
44.3732
30.6822
23.7747
19.9952
17.9446
17.0324
17.0325
17.9448
19.9955
23.7752
30.6835
44.3786
76.3404
160.397
357.282