/*--------------------------------*- C++ -*----------------------------------*\
| =========                 |                                                 |
| \\      /  F ield         | OpenFOAM: The Open Source CFD Toolbox           |
|  \\    /   O peration     | Version:  2.1.0                                 |
|   \\  /    A nd           | Web:      www.OpenFOAM.org                      |
|    \\/     M anipulation  |                                                 |
\*---------------------------------------------------------------------------*/
FoamFile
{
    version     2.0;
    format      ascii;
    class       volScalarField;
    location    "0.27";
    object      p;
}
// * * * * * * * * * * * * * * * * * * * * * * * * * * * * * * * * * * * * * //

dimensions      [1 -1 -2 0 0 0 0];

internalField   nonuniform List<scalar> 
6400
(
99998
99995.5
99993.7
99992.1
99990.8
99989.5
99988.2
99986.8
99985.5
99984.1
99982.7
99981.2
99979.7
99978.1
99976.5
99974.8
99973.1
99971.3
99969.4
99967.5
99965.6
99963.5
99961.4
99959.3
99957
99954.7
99952.3
99949.8
99947.3
99944.6
99941.8
99939
99936
99932.9
99929.7
99926.4
99923
99919.4
99915.7
99911.8
99907.9
99903.7
99899.4
99895
99890.4
99885.6
99880.6
99875.5
99870.1
99864.6
99858.8
99852.9
99846.8
99840.5
99833.9
99827.2
99820.2
99813
99805.6
99797.9
99789.9
99781.7
99773.2
99764.4
99755.4
99746
99736.2
99726.2
99715.7
99704.9
99693.8
99682.2
99670.1
99657.7
99644.8
99631.4
99617.5
99603.1
99588.1
99572.5
99556.2
99539.2
99521.3
99502.3
99482.1
99460.5
99437
99411.4
99383.1
99352
99318
99282.1
99246.7
99213.1
99181.6
99145.1
99087.7
98972.6
98602.2
96998.3
99996.4
99994.8
99993.2
99991.8
99990.4
99989.1
99987.8
99986.5
99985.1
99983.8
99982.3
99980.9
99979.3
99977.8
99976.1
99974.4
99972.7
99970.9
99969
99967.1
99965.1
99963.1
99961
99958.9
99956.6
99954.3
99951.9
99949.4
99946.8
99944.1
99941.4
99938.5
99935.5
99932.4
99929.2
99925.9
99922.5
99918.9
99915.2
99911.3
99907.3
99903.2
99898.9
99894.4
99889.8
99885
99880.1
99874.9
99869.6
99864
99858.3
99852.4
99846.3
99840
99833.5
99826.7
99819.8
99812.6
99805.1
99797.5
99789.5
99781.3
99772.9
99764.1
99755.1
99745.7
99736
99725.9
99715.5
99704.8
99693.6
99682
99670.1
99657.6
99644.7
99631.4
99617.5
99603.1
99588.1
99572.5
99556.2
99539.2
99521.2
99502.3
99482.1
99460.5
99437
99411.5
99383.4
99352.5
99318.8
99283.2
99247.8
99214.5
99185.4
99154.6
99103.3
99002.7
98702.7
98150.5
99995
99994.1
99992.8
99991.4
99990.1
99988.9
99987.6
99986.3
99985
99983.6
99982.2
99980.7
99979.2
99977.6
99976
99974.3
99972.5
99970.7
99968.9
99966.9
99965
99963
99960.9
99958.7
99956.5
99954.1
99951.7
99949.2
99946.7
99944
99941.2
99938.4
99935.4
99932.3
99929.1
99925.8
99922.3
99918.8
99915.1
99911.2
99907.3
99903.1
99898.9
99894.4
99889.8
99885.1
99880.1
99875
99869.7
99864.2
99858.5
99852.7
99846.6
99840.3
99833.8
99827.1
99820.2
99813
99805.6
99798
99790.1
99782
99773.5
99764.8
99755.8
99746.5
99736.9
99726.9
99716.6
99705.9
99694.8
99683.3
99671.4
99659.1
99646.3
99633
99619.3
99605
99590.1
99574.6
99558.4
99541.4
99523.6
99504.7
99484.6
99463
99439.7
99414.3
99386.6
99356.3
99323.7
99290
99257
99226.8
99201.3
99173.8
99138.3
99076.6
98921
99012
99993.1
99993.2
99992.4
99991.2
99990.1
99988.9
99987.6
99986.4
99985.1
99983.7
99982.3
99980.8
99979.3
99977.7
99976.1
99974.4
99972.7
99970.9
99969.1
99967.2
99965.2
99963.2
99961.1
99959
99956.7
99954.4
99952
99949.6
99947
99944.3
99941.6
99938.7
99935.8
99932.7
99929.5
99926.2
99922.8
99919.3
99915.6
99911.8
99907.8
99903.7
99899.5
99895.1
99890.5
99885.8
99880.9
99875.8
99870.6
99865.1
99859.5
99853.6
99847.6
99841.4
99834.9
99828.3
99821.4
99814.3
99807
99799.4
99791.5
99783.4
99775.1
99766.4
99757.5
99748.2
99738.6
99728.7
99718.4
99707.8
99696.7
99685.3
99673.4
99661.1
99648.3
99635
99621.2
99606.8
99591.8
99576.2
99559.9
99542.8
99524.7
99505.6
99485.3
99463.6
99440.2
99414.8
99387.4
99358
99327
99295.9
99267.1
99242.1
99223.1
99210.5
99205.3
99210.3
99237.5
99658.2
99991.1
99992.3
99992
99991.2
99990.2
99989.1
99987.9
99986.7
99985.4
99984
99982.7
99981.2
99979.7
99978.2
99976.5
99974.9
99973.2
99971.4
99969.6
99967.7
99965.8
99963.8
99961.7
99959.6
99957.3
99955
99952.7
99950.2
99947.7
99945
99942.3
99939.4
99936.5
99933.4
99930.3
99927
99923.6
99920.1
99916.4
99912.7
99908.7
99904.7
99900.4
99896.1
99891.5
99886.8
99881.9
99876.9
99871.7
99866.2
99860.6
99854.8
99848.8
99842.6
99836.2
99829.6
99822.7
99815.6
99808.3
99800.7
99792.9
99784.8
99776.4
99767.8
99758.8
99749.5
99739.9
99729.9
99719.6
99708.9
99697.8
99686.3
99674.3
99661.9
99649
99635.6
99621.7
99607.2
99592.1
99576.3
99559.8
99542.4
99524.2
99504.9
99484.3
99462.4
99439
99413.8
99387
99358.7
99329.8
99302.3
99278.9
99261.4
99253.8
99263.6
99300.8
99393.2
99591.8
100168
99989.2
99991.3
99991.6
99991.2
99990.4
99989.4
99988.3
99987.2
99985.9
99984.6
99983.2
99981.8
99980.3
99978.7
99977.1
99975.5
99973.8
99972
99970.2
99968.3
99966.4
99964.4
99962.3
99960.2
99958
99955.7
99953.3
99950.9
99948.3
99945.7
99943
99940.1
99937.2
99934.2
99931
99927.8
99924.4
99920.9
99917.2
99913.4
99909.5
99905.4
99901.2
99896.8
99892.3
99887.6
99882.7
99877.7
99872.4
99867
99861.4
99855.6
99849.6
99843.4
99836.9
99830.3
99823.4
99816.3
99808.9
99801.3
99793.5
99785.3
99777
99768.3
99759.3
99750
99740.3
99730.3
99720
99709.2
99698.1
99686.5
99674.5
99662
99649
99635.5
99621.5
99606.9
99591.6
99575.6
99558.9
99541.4
99522.8
99503.3
99482.5
99460.5
99437
99412
99385.8
99358.8
99332.3
99308.5
99291.1
99282.3
99289.5
99326.1
99412.7
99597.7
99932.4
100567
99987.4
99990.5
99991.3
99991.2
99990.6
99989.8
99988.7
99987.6
99986.4
99985.1
99983.7
99982.3
99980.8
99979.2
99977.6
99975.9
99974.2
99972.5
99970.6
99968.7
99966.8
99964.8
99962.7
99960.6
99958.4
99956.1
99953.7
99951.3
99948.7
99946.1
99943.3
99940.5
99937.6
99934.5
99931.4
99928.1
99924.7
99921.2
99917.5
99913.7
99909.8
99905.7
99901.5
99897.1
99892.5
99887.8
99882.9
99877.9
99872.6
99867.2
99861.6
99855.7
99849.7
99843.5
99837.1
99830.4
99823.5
99816.4
99809
99801.4
99793.6
99785.4
99777
99768.3
99759.3
99750
99740.4
99730.3
99720
99709.2
99698
99686.4
99674.4
99661.9
99648.8
99635.3
99621.1
99606.4
99590.9
99574.8
99557.9
99540.1
99521.3
99501.4
99480.4
99458.2
99434.7
99409.9
99384.3
99358.6
99334.3
99314
99302.2
99302.3
99325.1
99389
99524.9
99793.9
100226
100870
99986.1
99989.7
99990.9
99991
99990.6
99989.9
99988.9
99987.8
99986.6
99985.3
99983.9
99982.5
99981
99979.4
99977.8
99976.1
99974.4
99972.6
99970.8
99968.9
99966.9
99964.9
99962.9
99960.7
99958.5
99956.2
99953.8
99951.3
99948.8
99946.1
99943.4
99940.5
99937.6
99934.5
99931.3
99928.1
99924.6
99921.1
99917.4
99913.6
99909.7
99905.6
99901.3
99896.9
99892.4
99887.6
99882.7
99877.7
99872.4
99867
99861.4
99855.6
99849.6
99843.4
99836.9
99830.3
99823.4
99816.3
99809
99801.4
99793.5
99785.4
99777
99768.3
99759.4
99750
99740.4
99730.4
99720
99709.2
99698
99686.4
99674.3
99661.8
99648.7
99635
99620.8
99605.9
99590.3
99574
99556.8
99538.8
99519.7
99499.6
99478.3
99455.9
99432.3
99407.7
99382.6
99358
99335.5
99318.2
99310.9
99318.8
99354
99443.1
99621.9
99957.8
100452
101086
99985.4
99989.2
99990.5
99990.8
99990.5
99989.8
99988.9
99987.8
99986.6
99985.3
99983.9
99982.4
99980.9
99979.4
99977.7
99976.1
99974.3
99972.5
99970.7
99968.7
99966.8
99964.7
99962.7
99960.6
99958.3
99956
99953.6
99951.1
99948.6
99945.9
99943.1
99940.3
99937.3
99934.2
99931.1
99927.8
99924.3
99920.8
99917.1
99913.3
99909.3
99905.2
99901
99896.6
99892.1
99887.3
99882.5
99877.4
99872.2
99866.8
99861.2
99855.4
99849.4
99843.2
99836.8
99830.2
99823.4
99816.3
99809
99801.4
99793.6
99785.4
99777.1
99768.4
99759.4
99750.1
99740.5
99730.5
99720.1
99709.3
99698.1
99686.5
99674.4
99661.8
99648.6
99634.9
99620.5
99605.5
99589.8
99573.2
99555.9
99537.6
99518.2
99497.8
99476.3
99453.7
99430
99405.5
99380.7
99356.9
99335.8
99320.5
99316.3
99330.1
99376.1
99481.9
99691.2
100073
100602
101223
99985.1
99988.9
99990.3
99990.7
99990.4
99989.7
99988.8
99987.7
99986.5
99985.2
99983.8
99982.3
99980.8
99979.2
99977.6
99975.9
99974.2
99972.4
99970.5
99968.6
99966.5
99964.5
99962.5
99960.3
99958.1
99955.8
99953.4
99950.9
99948.4
99945.7
99942.9
99940.1
99937.1
99934
99930.9
99927.6
99924.1
99920.6
99916.9
99913.1
99909.2
99905.1
99900.9
99896.5
99891.9
99887.2
99882.4
99877.3
99872.1
99866.7
99861.2
99855.4
99849.4
99843.3
99836.9
99830.3
99823.5
99816.4
99809.1
99801.6
99793.7
99785.6
99777.3
99768.6
99759.7
99750.4
99740.7
99730.7
99720.4
99709.6
99698.4
99686.7
99674.6
99661.9
99648.7
99634.9
99620.4
99605.3
99589.4
99572.7
99555.1
99536.6
99517
99496.2
99474.5
99451.7
99427.8
99403.2
99378.7
99355.3
99334.9
99320.8
99318.1
99335
99386.8
99501.3
99725.8
100129
100676
101291
99985.1
99988.9
99990.3
99990.7
99990.4
99989.8
99988.9
99987.8
99986.5
99985.2
99983.9
99982.4
99980.9
99979.4
99977.8
99976.1
99974.4
99972.6
99970.8
99968.9
99967
99965
99962.8
99960.6
99958.3
99956
99953.6
99951.1
99948.5
99945.8
99943.1
99940.2
99937.2
99934.2
99931
99927.7
99924.2
99920.7
99917
99913.2
99909.3
99905.2
99900.9
99896.5
99892
99887.3
99882.4
99877.4
99872.2
99866.9
99861.3
99855.6
99849.6
99843.5
99837.1
99830.5
99823.7
99816.7
99809.4
99801.9
99794.1
99786.1
99777.7
99769
99760
99750.7
99741.1
99731.1
99720.7
99709.9
99698.7
99687
99674.9
99662.2
99648.9
99635
99620.5
99605.2
99589.2
99572.3
99554.5
99535.8
99516
99495.2
99473
99449.8
99425.6
99400.9
99376.3
99353
99332.8
99318.8
99316.2
99333.2
99385.3
99499.7
99723.2
100125
100671
101286
99985.5
99989.3
99990.6
99990.9
99990.6
99989.9
99988.9
99987.8
99986.6
99985.3
99984
99982.5
99981
99979.5
99977.9
99976.3
99974.6
99972.8
99971
99969.2
99967.2
99965.2
99963.1
99960.9
99958.7
99956.4
99954
99951.5
99948.9
99946.3
99943.6
99940.7
99937.8
99934.7
99931.6
99928.3
99924.9
99921.3
99917.7
99913.9
99910
99905.9
99901.7
99897.3
99892.7
99888
99883.2
99878.1
99872.9
99867.5
99861.9
99856.1
99850.1
99844
99837.6
99831
99824.2
99817.1
99809.8
99802.3
99794.5
99786.5
99778.1
99769.4
99760.5
99751.2
99741.6
99731.6
99721.2
99710.4
99699.2
99687.5
99675.2
99662.5
99649.2
99635.2
99620.6
99605.2
99589
99572
99554
99535
99515
99493.8
99471.4
99447.9
99423.4
99398.4
99373.4
99349.7
99329
99314.2
99310
99324.3
99371.3
99476
99682.3
100059
100587
101208
99986.4
99989.9
99991
99991.1
99990.6
99989.9
99988.9
99987.8
99986.6
99985.3
99983.9
99982.5
99981
99979.5
99977.9
99976.3
99974.6
99972.8
99971
99969.2
99967.2
99965.2
99963.1
99961
99958.7
99956.5
99954.1
99951.6
99949.1
99946.5
99943.7
99940.9
99938
99934.9
99931.8
99928.5
99925.1
99921.6
99918
99914.2
99910.3
99906.2
99902
99897.6
99893.1
99888.4
99883.6
99878.5
99873.3
99867.9
99862.3
99856.5
99850.6
99844.4
99838
99831.4
99824.6
99817.6
99810.3
99802.8
99795
99786.9
99778.6
99769.9
99761
99751.7
99742
99732
99721.6
99710.8
99699.6
99687.9
99675.6
99662.9
99649.5
99635.4
99620.7
99605.2
99588.9
99571.7
99553.6
99534.4
99514.1
99492.7
99470
99446.2
99421.3
99395.8
99370.3
99345.9
99324.2
99307.6
99300.4
99309.5
99346.7
99433.2
99607.5
99936.6
100427
101061
99987.8
99990.7
99991.4
99991.2
99990.6
99989.7
99988.7
99987.5
99986.3
99985
99983.6
99982.2
99980.7
99979.2
99977.6
99976
99974.3
99972.6
99970.8
99968.9
99967
99965
99962.9
99960.7
99958.5
99956.2
99953.9
99951.4
99948.9
99946.3
99943.6
99940.8
99937.8
99934.8
99931.7
99928.4
99925
99921.5
99917.9
99914.1
99910.2
99906.2
99902
99897.7
99893.1
99888.5
99883.6
99878.6
99873.4
99868.1
99862.5
99856.8
99850.8
99844.7
99838.3
99831.7
99824.9
99817.9
99810.7
99803.1
99795.4
99787.3
99779
99770.3
99761.4
99752.1
99742.5
99732.5
99722.1
99711.3
99700
99688.3
99676.1
99663.3
99649.9
99635.8
99621
99605.4
99589
99571.7
99553.4
99534
99513.5
99491.8
99468.9
99444.7
99419.5
99393.4
99367.2
99341.8
99318.7
99299.8
99288.4
99290.4
99314.3
99376.4
99506.9
99767.4
100192
100836
99989.6
99991.6
99991.8
99991.3
99990.5
99989.5
99988.3
99987.1
99985.9
99984.5
99983.1
99981.7
99980.2
99978.7
99977.1
99975.5
99973.8
99972.1
99970.3
99968.4
99966.4
99964.4
99962.3
99960.2
99958
99955.7
99953.3
99950.9
99948.3
99945.7
99943
99940.2
99937.2
99934.2
99931.1
99927.8
99924.5
99921
99917.4
99913.6
99909.7
99905.7
99901.5
99897.2
99892.7
99888
99883.2
99878.3
99873.1
99867.8
99862.2
99856.5
99850.6
99844.5
99838.2
99831.7
99824.9
99817.9
99810.7
99803.2
99795.5
99787.5
99779.2
99770.6
99761.7
99752.4
99742.8
99732.8
99722.5
99711.7
99700.5
99688.7
99676.5
99663.7
99650.3
99636.2
99621.3
99605.7
99589.2
99571.8
99553.4
99533.9
99513.2
99491.3
99468.1
99443.6
99417.9
99391.3
99364.2
99337.5
99312.7
99291.1
99274.8
99269.3
99278.2
99312.7
99393.4
99568.8
99894
100525
99991.6
99992.6
99992.2
99991.4
99990.3
99989.2
99988
99986.7
99985.4
99984.1
99982.7
99981.2
99979.7
99978.2
99976.6
99974.9
99973.2
99971.5
99969.7
99967.8
99965.8
99963.8
99961.7
99959.5
99957.3
99955
99952.6
99950.2
99947.6
99945
99942.2
99939.4
99936.4
99933.4
99930.3
99927
99923.6
99920.1
99916.4
99912.7
99908.8
99904.7
99900.5
99896.2
99891.7
99887.1
99882.3
99877.3
99872.2
99866.8
99861.3
99855.6
99849.8
99843.7
99837.4
99830.9
99824.2
99817.2
99810.1
99802.6
99794.9
99787
99778.7
99770.2
99761.3
99752.1
99742.6
99732.6
99722.3
99711.6
99700.4
99688.7
99676.5
99663.7
99650.3
99636.2
99621.4
99605.7
99589.2
99571.7
99553.2
99533.6
99512.8
99490.7
99467.3
99442.6
99416.5
99389.2
99361.2
99333.2
99306.4
99282.3
99263.3
99249.2
99243.4
99251.1
99282.4
99364.9
99551.6
100119
99993.6
99993.6
99992.7
99991.5
99990.3
99989
99987.8
99986.5
99985.1
99983.8
99982.3
99980.9
99979.4
99977.8
99976.2
99974.6
99972.9
99971.1
99969.3
99967.4
99965.4
99963.3
99961.2
99959
99956.8
99954.5
99952.1
99949.6
99947
99944.3
99941.6
99938.7
99935.7
99932.7
99929.5
99926.2
99922.8
99919.3
99915.6
99911.8
99907.9
99903.8
99899.6
99895.2
99890.7
99886
99881.2
99876.2
99871
99865.7
99860.1
99854.4
99848.5
99842.4
99836.1
99829.6
99822.9
99815.9
99808.8
99801.3
99793.6
99785.6
99777.4
99768.9
99760
99750.8
99741.3
99731.4
99721.1
99710.4
99699.3
99687.6
99675.5
99662.7
99649.4
99635.3
99620.5
99604.9
99588.4
99570.9
99552.4
99532.8
99511.9
99489.7
99466.2
99441.3
99414.9
99387.1
99358.3
99329
99300.3
99273.8
99251.1
99231.7
99214.3
99199.8
99189.1
99184.7
99198.4
99603.5
99995.4
99994.4
99993.1
99991.7
99990.4
99989.1
99987.8
99986.4
99985.1
99983.7
99982.3
99980.8
99979.3
99977.8
99976.1
99974.5
99972.8
99971
99969.1
99967.2
99965.2
99963.2
99961.1
99958.9
99956.6
99954.2
99951.8
99949.3
99946.7
99944
99941.3
99938.4
99935.4
99932.3
99929.2
99925.8
99922.4
99918.9
99915.2
99911.4
99907.4
99903.3
99899.1
99894.7
99890.1
99885.4
99880.6
99875.5
99870.3
99864.9
99859.4
99853.6
99847.7
99841.5
99835.2
99828.6
99821.8
99814.8
99807.6
99800.1
99792.3
99784.3
99776
99767.4
99758.5
99749.3
99739.7
99729.8
99719.4
99708.7
99697.5
99685.8
99673.6
99660.8
99647.4
99633.3
99618.4
99602.8
99586.2
99568.7
99550.2
99530.5
99509.6
99487.3
99463.7
99438.7
99412.1
99384
99354.7
99324.5
99294.4
99266.1
99240.8
99219.1
99194.5
99164.8
99124.5
99054.2
98884.8
98950.3
99996.9
99995.2
99993.6
99992.1
99990.6
99989.3
99988
99986.6
99985.3
99983.9
99982.5
99981
99979.5
99977.9
99976.3
99974.7
99972.9
99971.2
99969.3
99967.4
99965.4
99963.4
99961.2
99959
99956.8
99954.4
99952
99949.5
99946.9
99944.2
99941.5
99938.6
99935.6
99932.5
99929.3
99926
99922.6
99919
99915.3
99911.5
99907.5
99903.4
99899.2
99894.8
99890.2
99885.5
99880.6
99875.6
99870.4
99865
99859.4
99853.6
99847.7
99841.5
99835.1
99828.5
99821.6
99814.6
99807.3
99799.8
99792
99784
99775.6
99767
99758
99748.7
99739.1
99729.1
99718.7
99707.9
99696.6
99684.8
99672.5
99659.7
99646.1
99631.9
99616.9
99601.1
99584.4
99566.7
99547.9
99528
99506.8
99484.3
99460.4
99434.9
99407.9
99379.3
99349.2
99318
99286.6
99256.4
99228.5
99203.9
99180.8
99147
99090.8
98982
98668.6
98075.3
99998.5
99995.9
99994
99992.4
99991
99989.7
99988.3
99987
99985.7
99984.3
99982.8
99981.4
99979.9
99978.3
99976.7
99975.1
99973.3
99971.6
99969.7
99967.8
99965.8
99963.8
99961.7
99959.5
99957.2
99954.9
99952.4
99949.9
99947.4
99944.7
99941.9
99939.1
99936.1
99933
99929.8
99926.5
99923.1
99919.5
99915.8
99912
99908.1
99904
99899.7
99895.3
99890.8
99886.1
99881.2
99876.2
99871
99865.6
99860
99854.3
99848.3
99842.2
99835.8
99829.2
99822.4
99815.3
99808.1
99800.5
99792.8
99784.7
99776.3
99767.7
99758.7
99749.4
99739.7
99729.7
99719.3
99708.5
99697.2
99685.4
99673.1
99660.2
99646.7
99632.4
99617.4
99601.5
99584.8
99567
99548.2
99528.2
99507
99484.4
99460.4
99434.9
99407.7
99379
99348.7
99317.3
99285.9
99255.9
99227.8
99202.1
99167.8
99129.3
99069.6
98949.7
98568.2
96903.2
100573
101847
102389
102698
102909
103068
103192
103292
103374
103441
103497
103542
103578
103607
103630
103647
103658
103664
103665
103661
100527
101552
102185
102584
102851
103042
103186
103299
103389
103461
103519
103566
103602
103631
103653
103668
103677
103681
103680
103672
100814
101583
102127
102524
102810
103020
103179
103301
103398
103474
103534
103582
103619
103647
103668
103681
103689
103692
103690
103678
101090
101716
102177
102537
102814
103026
103189
103316
103416
103494
103555
103603
103639
103665
103684
103695
103701
103702
103699
103683
101327
101857
102261
102586
102846
103051
103212
103339
103440
103518
103578
103625
103659
103684
103700
103709
103713
103712
103707
103686
101526
101989
102351
102649
102891
103087
103244
103369
103467
103544
103603
103648
103680
103702
103716
103722
103724
103721
103713
103688
101687
102102
102434
102711
102940
103127
103278
103399
103495
103570
103628
103670
103700
103720
103730
103734
103733
103729
103718
103689
101809
102190
102502
102765
102983
103163
103310
103428
103522
103596
103651
103692
103719
103736
103744
103745
103742
103735
103721
103691
101890
102251
102551
102804
103017
103193
103337
103453
103546
103618
103673
103711
103737
103750
103755
103754
103749
103740
103723
103694
101934
102285
102580
102829
103039
103213
103356
103471
103563
103634
103688
103725
103749
103761
103764
103761
103755
103744
103724
103699
101930
102282
102576
102825
103035
103209
103353
103468
103561
103632
103685
103723
103747
103759
103763
103760
103754
103743
103725
103698
101877
102239
102540
102794
103007
103184
103329
103446
103539
103612
103667
103707
103733
103747
103753
103752
103747
103739
103723
103697
101789
102172
102485
102749
102969
103151
103298
103418
103513
103588
103645
103686
103715
103732
103741
103743
103740
103733
103720
103696
101660
102077
102411
102691
102922
103111
103264
103387
103485
103561
103620
103664
103695
103715
103727
103732
103731
103727
103716
103693
101492
101958
102323
102624
102869
103068
103227
103354
103455
103533
103594
103640
103674
103697
103712
103719
103721
103719
103712
103689
101288
101822
102229
102558
102821
103029
103193
103323
103426
103506
103569
103617
103653
103679
103696
103706
103710
103710
103705
103687
101047
101676
102141
102506
102787
103003
103169
103299
103401
103482
103545
103594
103632
103660
103680
103692
103699
103700
103697
103684
100766
101539
102089
102491
102782
102996
103158
103284
103383
103462
103524
103574
103612
103642
103663
103678
103686
103690
103688
103679
100473
101505
102146
102551
102823
103018
103166
103282
103374
103448
103509
103557
103595
103626
103648
103664
103674
103679
103678
103672
100517
101803
102352
102667
102882
103044
103172
103275
103359
103428
103486
103532
103571
103601
103625
103643
103655
103661
103663
103660
103502
103500
103499
103499
103498
103497
103497
103496
103496
103496
103496
103496
103496
103497
103497
103498
103499
103499
103500
103502
103499
103497
103497
103496
103496
103496
103496
103495
103495
103495
103495
103495
103495
103496
103496
103496
103496
103497
103497
103499
103498
103496
103496
103496
103496
103496
103496
103496
103496
103496
103496
103496
103496
103496
103496
103496
103496
103496
103496
103498
103498
103497
103497
103496
103496
103496
103496
103496
103496
103496
103496
103496
103496
103496
103496
103496
103496
103497
103497
103498
103498
103496
103496
103496
103496
103496
103496
103496
103496
103496
103496
103496
103496
103496
103496
103496
103496
103496
103496
103498
103497
103496
103496
103495
103495
103495
103495
103495
103495
103495
103495
103495
103495
103495
103495
103495
103495
103496
103496
103497
103497
103495
103495
103495
103495
103495
103495
103495
103495
103495
103495
103495
103495
103495
103495
103495
103495
103495
103495
103497
103496
103495
103494
103494
103494
103494
103494
103494
103494
103494
103494
103494
103494
103494
103494
103494
103494
103494
103495
103496
103496
103494
103494
103494
103494
103493
103493
103493
103493
103493
103493
103493
103493
103493
103493
103494
103494
103494
103494
103496
103495
103493
103493
103493
103493
103493
103493
103493
103493
103493
103493
103493
103493
103493
103493
103493
103493
103493
103493
103495
103494
103492
103492
103492
103492
103492
103492
103492
103492
103492
103492
103492
103492
103492
103492
103492
103492
103492
103492
103494
103493
103492
103492
103492
103491
103491
103491
103491
103491
103491
103491
103491
103491
103491
103491
103491
103492
103492
103492
103493
103493
103491
103491
103491
103491
103491
103491
103491
103491
103491
103491
103491
103491
103491
103491
103491
103491
103491
103491
103493
103492
103490
103490
103490
103490
103490
103490
103490
103490
103490
103490
103490
103490
103490
103490
103490
103490
103490
103490
103492
103491
103490
103489
103489
103489
103489
103489
103489
103489
103489
103489
103489
103489
103489
103489
103489
103489
103489
103490
103491
103490
103489
103489
103489
103489
103488
103488
103488
103488
103488
103488
103488
103488
103488
103488
103489
103489
103489
103489
103490
103490
103488
103488
103488
103488
103488
103488
103488
103488
103488
103488
103488
103488
103488
103488
103488
103488
103488
103488
103490
103489
103487
103487
103487
103487
103487
103487
103487
103487
103487
103487
103487
103487
103487
103487
103487
103487
103487
103487
103489
103488
103486
103486
103486
103486
103486
103486
103486
103486
103486
103486
103486
103486
103486
103486
103486
103486
103486
103486
103488
103487
103486
103486
103485
103485
103485
103485
103485
103485
103485
103485
103485
103485
103485
103485
103485
103485
103486
103486
103487
103486
103485
103485
103485
103485
103485
103485
103484
103484
103484
103484
103484
103484
103485
103485
103485
103485
103485
103485
103486
103485
103484
103484
103484
103484
103484
103484
103484
103484
103484
103484
103484
103484
103484
103484
103484
103484
103484
103484
103485
103485
103483
103483
103483
103483
103483
103483
103483
103483
103483
103483
103483
103483
103483
103483
103483
103483
103483
103483
103485
103484
103482
103482
103482
103482
103482
103482
103482
103482
103482
103482
103482
103482
103482
103482
103482
103482
103482
103482
103484
103483
103482
103482
103481
103481
103481
103481
103481
103481
103481
103481
103481
103481
103481
103481
103481
103481
103482
103482
103483
103482
103481
103481
103481
103481
103481
103481
103480
103480
103480
103480
103480
103480
103481
103481
103481
103481
103481
103481
103482
103481
103480
103480
103480
103480
103480
103480
103480
103480
103480
103480
103480
103480
103480
103480
103480
103480
103480
103480
103481
103480
103479
103479
103479
103479
103479
103479
103479
103479
103479
103479
103479
103479
103479
103479
103479
103479
103479
103479
103480
103479
103478
103478
103478
103478
103478
103478
103478
103478
103478
103478
103478
103478
103478
103478
103478
103478
103478
103478
103479
103479
103478
103478
103477
103477
103477
103477
103477
103477
103477
103477
103477
103477
103477
103477
103477
103477
103478
103478
103479
103478
103477
103477
103477
103477
103477
103477
103476
103476
103476
103476
103476
103476
103477
103477
103477
103477
103477
103477
103478
103477
103476
103476
103476
103476
103476
103476
103476
103476
103476
103476
103476
103476
103476
103476
103476
103476
103476
103476
103477
103476
103475
103475
103475
103475
103475
103475
103475
103475
103475
103475
103475
103475
103475
103475
103475
103475
103475
103475
103476
103475
103474
103474
103474
103474
103474
103474
103474
103474
103474
103474
103474
103474
103474
103474
103474
103474
103474
103474
103475
103474
103474
103474
103473
103473
103473
103473
103473
103473
103473
103473
103473
103473
103473
103473
103473
103473
103474
103474
103474
103474
103473
103473
103473
103473
103473
103473
103473
103473
103473
103473
103473
103473
103473
103473
103473
103473
103473
103473
103474
103473
103472
103472
103472
103472
103472
103472
103472
103472
103472
103472
103472
103472
103472
103472
103472
103472
103472
103472
103473
103472
103471
103471
103471
103471
103471
103471
103471
103471
103471
103471
103471
103471
103471
103471
103471
103471
103471
103471
103472
103471
103471
103470
103470
103470
103470
103470
103470
103470
103470
103470
103470
103470
103470
103470
103470
103470
103470
103471
103471
103470
103470
103470
103470
103470
103470
103469
103469
103469
103469
103469
103469
103469
103469
103470
103470
103470
103470
103470
103470
103469
103469
103469
103469
103469
103469
103469
103469
103469
103469
103469
103469
103469
103469
103469
103469
103469
103469
103469
103469
103469
103468
103468
103468
103468
103468
103468
103468
103468
103468
103468
103468
103468
103468
103468
103468
103468
103468
103468
103469
103468
103467
103467
103467
103467
103467
103467
103467
103467
103467
103467
103467
103467
103467
103467
103467
103467
103467
103467
103468
103467
103467
103467
103467
103467
103466
103466
103466
103466
103466
103466
103466
103466
103466
103466
103467
103467
103467
103467
103467
103466
103466
103466
103466
103466
103466
103466
103466
103466
103466
103466
103466
103466
103466
103466
103466
103466
103466
103466
103466
103466
103465
103465
103465
103465
103465
103465
103465
103465
103465
103465
103465
103465
103465
103465
103465
103465
103465
103465
103466
103465
103465
103464
103464
103464
103464
103464
103464
103464
103464
103464
103464
103464
103464
103464
103464
103464
103464
103465
103465
103464
103464
103464
103464
103464
103464
103464
103463
103463
103463
103463
103463
103463
103464
103464
103464
103464
103464
103464
103464
103463
103463
103463
103463
103463
103463
103463
103463
103463
103463
103463
103463
103463
103463
103463
103463
103463
103463
103463
103463
103463
103462
103462
103462
103462
103462
103462
103462
103462
103462
103462
103462
103462
103462
103462
103462
103462
103462
103462
103463
103462
103462
103462
103461
103461
103461
103461
103461
103461
103461
103461
103461
103461
103461
103461
103461
103461
103462
103462
103462
103461
103461
103461
103461
103461
103461
103461
103461
103461
103461
103461
103461
103461
103461
103461
103461
103461
103461
103461
103461
103460
103460
103460
103460
103460
103460
103460
103460
103460
103460
103460
103460
103460
103460
103460
103460
103460
103460
103460
103460
103460
103459
103459
103459
103459
103459
103459
103459
103459
103459
103459
103459
103459
103459
103459
103459
103459
103459
103460
103460
103459
103459
103459
103459
103459
103459
103459
103459
103459
103459
103459
103459
103459
103459
103459
103459
103459
103459
103459
103459
103458
103458
103458
103458
103458
103458
103458
103458
103458
103458
103458
103458
103458
103458
103458
103458
103458
103458
103458
103458
103458
103457
103457
103457
103457
103457
103457
103457
103457
103457
103457
103457
103457
103457
103457
103457
103457
103457
103457
103458
103457
103457
103457
103457
103457
103457
103456
103456
103456
103456
103456
103456
103456
103457
103457
103457
103457
103457
103457
103457
103456
103456
103456
103456
103456
103456
103456
103456
103456
103456
103456
103456
103456
103456
103456
103456
103456
103456
103456
103456
103455
103455
103455
103455
103455
103455
103455
103455
103455
103455
103455
103455
103455
103455
103455
103455
103455
103455
103455
103455
103455
103455
103455
103455
103455
103454
103454
103454
103454
103454
103454
103454
103454
103454
103455
103455
103455
103455
103455
103455
103454
103454
103454
103454
103454
103454
103454
103454
103454
103454
103454
103454
103454
103454
103454
103454
103454
103454
103454
103454
103453
103453
103453
103453
103453
103453
103453
103453
103453
103453
103453
103453
103453
103453
103453
103453
103453
103453
103453
103453
103453
103453
103453
103453
103453
103452
103452
103452
103452
103452
103452
103452
103452
103453
103453
103453
103453
103453
103453
103453
103452
103452
103452
103452
103452
103452
103452
103452
103452
103452
103452
103452
103452
103452
103452
103452
103452
103452
103452
103452
103451
103451
103451
103451
103451
103451
103451
103451
103451
103451
103451
103451
103451
103451
103451
103451
103451
103451
103451
103451
103451
103451
103451
103451
103451
103451
103451
103450
103450
103450
103451
103451
103451
103451
103451
103451
103451
103451
103451
103451
103450
103450
103450
103450
103450
103450
103450
103450
103450
103450
103450
103450
103450
103450
103450
103450
103450
103450
103450
103450
103449
103449
103449
103449
103449
103449
103449
103449
103449
103449
103449
103449
103449
103449
103449
103449
103449
103449
103450
103450
103449
103449
103449
103449
103449
103449
103449
103449
103449
103449
103449
103449
103449
103449
103449
103449
103449
103449
103449
103449
103448
103448
103448
103448
103448
103448
103448
103448
103448
103448
103448
103448
103448
103448
103448
103448
103448
103448
103448
103448
103447
103447
103447
103447
103447
103447
103447
103447
103447
103447
103447
103447
103447
103447
103448
103448
103448
103448
103448
103448
103447
103447
103447
103447
103447
103447
103447
103447
103447
103447
103447
103447
103447
103447
103447
103447
103447
103447
103447
103447
103446
103446
103446
103446
103446
103446
103446
103446
103446
103446
103446
103446
103446
103446
103446
103446
103447
103447
103447
103447
103445
103445
103445
103445
103445
103445
103445
103445
103445
103445
103445
103446
103446
103446
103446
103446
103446
103446
103446
103446
103444
103444
103444
103444
103444
103444
103445
103445
103445
103445
103445
103445
103445
103445
103445
103445
103446
103446
103446
103446
103444
103444
103444
103444
103444
103444
103444
103444
103444
103444
103444
103444
103445
103445
103445