/*--------------------------------*- C++ -*----------------------------------*\
| =========                 |                                                 |
| \\      /  F ield         | OpenFOAM: The Open Source CFD Toolbox           |
|  \\    /   O peration     | Version:  2.1.0                                 |
|   \\  /    A nd           | Web:      www.OpenFOAM.org                      |
|    \\/     M anipulation  |                                                 |
\*---------------------------------------------------------------------------*/
FoamFile
{
    version     2.0;
    format      ascii;
    class       surfaceScalarField;
    location    "0.27";
    object      phi;
}
// * * * * * * * * * * * * * * * * * * * * * * * * * * * * * * * * * * * * * //

dimensions      [0 3 -1 0 0 0 0];

internalField   nonuniform List<scalar> 
12460
(
-2.4639e-05
-2.0259e-09
-2.4604e-05
-3.6182e-08
-2.45472e-05
-5.80978e-08
-2.44796e-05
-6.90331e-08
-2.44058e-05
-7.52893e-08
-2.43281e-05
-7.93593e-08
-2.42476e-05
-8.22135e-08
-2.41651e-05
-8.44002e-08
-2.40809e-05
-8.62157e-08
-2.39953e-05
-8.78276e-08
-2.39083e-05
-8.93316e-08
-2.382e-05
-9.07694e-08
-2.37305e-05
-9.21753e-08
-2.36398e-05
-9.35512e-08
-2.35479e-05
-9.49128e-08
-2.34548e-05
-9.62629e-08
-2.33606e-05
-9.76273e-08
-2.32652e-05
-9.89611e-08
-2.31687e-05
-1.0035e-07
-2.30709e-05
-1.01888e-07
-2.29715e-05
-1.03595e-07
-2.28706e-05
-1.05464e-07
-2.27679e-05
-1.07477e-07
-2.26633e-05
-1.09588e-07
-2.25568e-05
-1.11789e-07
-2.24483e-05
-1.14078e-07
-2.23376e-05
-1.16469e-07
-2.22247e-05
-1.18963e-07
-2.21095e-05
-1.21579e-07
-2.19918e-05
-1.24317e-07
-2.18715e-05
-1.27192e-07
-2.17484e-05
-1.30203e-07
-2.16225e-05
-1.3336e-07
-2.14936e-05
-1.36667e-07
-2.13614e-05
-1.40135e-07
-2.12259e-05
-1.43765e-07
-2.10868e-05
-1.47563e-07
-2.0944e-05
-1.51535e-07
-2.07972e-05
-1.55689e-07
-2.06464e-05
-1.60011e-07
-2.04913e-05
-1.645e-07
-2.03317e-05
-1.6916e-07
-2.01675e-05
-1.73971e-07
-1.99985e-05
-1.78918e-07
-1.98246e-05
-1.8399e-07
-1.96457e-05
-1.89159e-07
-1.94616e-05
-1.94443e-07
-1.92724e-05
-1.99652e-07
-1.9078e-05
-2.04979e-07
-1.8878e-05
-2.10633e-07
-1.86725e-05
-2.16228e-07
-1.84617e-05
-2.21556e-07
-1.82459e-05
-2.2667e-07
-1.80251e-05
-2.31727e-07
-1.77993e-05
-2.36803e-07
-1.75683e-05
-2.41976e-07
-1.7332e-05
-2.47261e-07
-1.70904e-05
-2.52672e-07
-1.68431e-05
-2.58253e-07
-1.65902e-05
-2.6399e-07
-1.63313e-05
-2.69884e-07
-1.60662e-05
-2.76012e-07
-1.57948e-05
-2.82393e-07
-1.55166e-05
-2.89051e-07
-1.52314e-05
-2.96039e-07
-1.49388e-05
-3.03373e-07
-1.46383e-05
-3.11125e-07
-1.43296e-05
-3.19326e-07
-1.40121e-05
-3.27989e-07
-1.36853e-05
-3.37137e-07
-1.33488e-05
-3.46808e-07
-1.30018e-05
-3.57045e-07
-1.26439e-05
-3.67902e-07
-1.22743e-05
-3.79462e-07
-1.18922e-05
-3.91828e-07
-1.14966e-05
-4.05145e-07
-1.10865e-05
-4.19598e-07
-1.06603e-05
-4.35449e-07
-1.02165e-05
-4.53036e-07
-9.75271e-06
-4.72768e-07
-9.26643e-06
-4.9515e-07
-8.75431e-06
-5.20803e-07
-8.21237e-06
-5.50418e-07
-7.63599e-06
-5.84596e-07
-7.02026e-06
-6.23648e-07
-6.3601e-06
-6.67734e-07
-5.65074e-06
-7.16505e-07
-4.88896e-06
-7.68443e-07
-4.07528e-06
-8.19763e-07
-3.21856e-06
-8.62129e-07
-2.34468e-06
-8.78494e-07
-1.51392e-06
-8.34463e-07
-8.33608e-07
-6.82979e-07
-4.1852e-07
-4.16637e-07
-3.01519e-07
-1.17941e-07
-5.46278e-07
2.42389e-07
-1.44039e-06
8.86076e-07
-3.73288e-06
2.28347e-06
-9.2925e-06
5.55547e-06
1.54669e-05
-2.47613e-05
-2.97766e-05
-1.81977e-08
-2.97312e-05
-8.44291e-08
-2.96725e-05
-1.20014e-07
-2.96058e-05
-1.39096e-07
-2.95342e-05
-1.50466e-07
-2.94595e-05
-1.57926e-07
-2.93827e-05
-1.6317e-07
-2.93043e-05
-1.67194e-07
-2.92247e-05
-1.70537e-07
-2.9144e-05
-1.73508e-07
-2.90624e-05
-1.76286e-07
-2.89799e-05
-1.78951e-07
-2.88965e-05
-1.81567e-07
-2.88122e-05
-1.84136e-07
-2.87271e-05
-1.86691e-07
-2.86412e-05
-1.89218e-07
-2.85545e-05
-1.91794e-07
-2.8467e-05
-1.94282e-07
-2.83788e-05
-1.96828e-07
-2.82897e-05
-1.99644e-07
-2.81996e-05
-2.02745e-07
-2.81085e-05
-2.0613e-07
-2.80162e-05
-2.09756e-07
-2.79226e-05
-2.13537e-07
-2.78279e-05
-2.17452e-07
-2.77317e-05
-2.21513e-07
-2.76343e-05
-2.2574e-07
-2.75353e-05
-2.30142e-07
-2.74348e-05
-2.3475e-07
-2.73328e-05
-2.3957e-07
-2.72289e-05
-2.44623e-07
-2.71233e-05
-2.49916e-07
-2.70157e-05
-2.55462e-07
-2.6906e-05
-2.61267e-07
-2.67942e-05
-2.67341e-07
-2.668e-05
-2.73683e-07
-2.65634e-05
-2.80299e-07
-2.64443e-05
-2.87198e-07
-2.63225e-05
-2.94397e-07
-2.61979e-05
-3.01873e-07
-2.60704e-05
-3.09612e-07
-2.59398e-05
-3.17638e-07
-2.5806e-05
-3.25923e-07
-2.56689e-05
-3.34444e-07
-2.55283e-05
-3.432e-07
-2.53842e-05
-3.52144e-07
-2.52365e-05
-3.61305e-07
-2.50849e-05
-3.7045e-07
-2.49299e-05
-3.79458e-07
-2.47717e-05
-3.88381e-07
-2.46106e-05
-3.97115e-07
-2.44464e-05
-4.05636e-07
-2.42791e-05
-4.13975e-07
-2.41087e-05
-4.22215e-07
-2.39354e-05
-4.30414e-07
-2.3759e-05
-4.38684e-07
-2.35796e-05
-4.47034e-07
-2.33972e-05
-4.55504e-07
-2.32117e-05
-4.64167e-07
-2.30232e-05
-4.73045e-07
-2.28315e-05
-4.82177e-07
-2.26364e-05
-4.91613e-07
-2.24381e-05
-5.01357e-07
-2.22362e-05
-5.11459e-07
-2.20308e-05
-5.21987e-07
-2.18217e-05
-5.32981e-07
-2.16088e-05
-5.44532e-07
-2.13918e-05
-5.56708e-07
-2.11705e-05
-5.69581e-07
-2.09447e-05
-5.83213e-07
-2.07139e-05
-5.977e-07
-2.04779e-05
-6.13147e-07
-2.0236e-05
-6.29691e-07
-1.99878e-05
-6.47512e-07
-1.97324e-05
-6.6683e-07
-1.94692e-05
-6.87918e-07
-1.9197e-05
-7.11108e-07
-1.89148e-05
-7.36837e-07
-1.86212e-05
-7.65642e-07
-1.83147e-05
-7.98139e-07
-1.79934e-05
-8.35045e-07
-1.76554e-05
-8.77203e-07
-1.72985e-05
-9.25546e-07
-1.69202e-05
-9.80948e-07
-1.65177e-05
-1.04385e-06
-1.60886e-05
-1.11429e-06
-1.5631e-05
-1.19141e-06
-1.51441e-05
-1.27241e-06
-1.46298e-05
-1.35102e-06
-1.40942e-05
-1.41462e-06
-1.35501e-05
-1.43953e-06
-1.30173e-05
-1.3843e-06
-1.25276e-05
-1.18976e-06
-1.21654e-05
-7.95566e-07
-1.21534e-05
-1.44905e-07
-1.26551e-05
7.32145e-07
-1.40042e-05
2.22411e-06
-1.67112e-05
4.98169e-06
-2.18103e-05
1.06508e-05
2.65028e-05
-3.2848e-05
-3.26985e-05
-4.15988e-08
-3.26617e-05
-1.26077e-07
-3.26144e-05
-1.72383e-07
-3.25609e-05
-1.9811e-07
-3.25037e-05
-2.13601e-07
-3.24442e-05
-2.23748e-07
-3.23832e-05
-2.30793e-07
-3.23213e-05
-2.36174e-07
-3.22588e-05
-2.40577e-07
-3.21959e-05
-2.44488e-07
-3.21325e-05
-2.48113e-07
-3.20688e-05
-2.51615e-07
-3.20048e-05
-2.55051e-07
-3.19404e-05
-2.58474e-07
-3.18757e-05
-2.61907e-07
-3.18106e-05
-2.65373e-07
-3.1745e-05
-2.68948e-07
-3.16789e-05
-2.72545e-07
-3.16123e-05
-2.76169e-07
-3.15453e-05
-2.79948e-07
-3.1478e-05
-2.83994e-07
-3.14102e-05
-2.8839e-07
-3.1342e-05
-2.93086e-07
-3.12733e-05
-2.97951e-07
-3.12042e-05
-3.02954e-07
-3.11345e-05
-3.08134e-07
-3.10643e-05
-3.13518e-07
-3.09935e-05
-3.1912e-07
-3.09221e-05
-3.24973e-07
-3.08499e-05
-3.31088e-07
-3.0777e-05
-3.37485e-07
-3.07033e-05
-3.44173e-07
-3.06287e-05
-3.51165e-07
-3.05531e-05
-3.58464e-07
-3.04766e-05
-3.66076e-07
-3.0399e-05
-3.73995e-07
-3.03202e-05
-3.82217e-07
-3.02403e-05
-3.90736e-07
-3.01592e-05
-3.99573e-07
-3.00769e-05
-4.08695e-07
-2.99934e-05
-4.18053e-07
-2.99087e-05
-4.27678e-07
-2.98227e-05
-4.37526e-07
-2.97355e-05
-4.4755e-07
-2.96472e-05
-4.57748e-07
-2.95579e-05
-4.68037e-07
-2.94676e-05
-4.7836e-07
-2.93764e-05
-4.88622e-07
-2.92844e-05
-4.98697e-07
-2.91917e-05
-5.08396e-07
-2.90986e-05
-5.17736e-07
-2.90051e-05
-5.26883e-07
-2.89109e-05
-5.35852e-07
-2.88164e-05
-5.44599e-07
-2.87215e-05
-5.53156e-07
-2.86265e-05
-5.61603e-07
-2.85315e-05
-5.6994e-07
-2.84366e-05
-5.78227e-07
-2.83421e-05
-5.86513e-07
-2.82481e-05
-5.94827e-07
-2.81547e-05
-6.03241e-07
-2.80621e-05
-6.11774e-07
-2.79705e-05
-6.204e-07
-2.78801e-05
-6.29153e-07
-2.7791e-05
-6.38076e-07
-2.77037e-05
-6.47213e-07
-2.76182e-05
-6.56619e-07
-2.75349e-05
-6.66352e-07
-2.7454e-05
-6.76501e-07
-2.73758e-05
-6.8713e-07
-2.73005e-05
-6.98344e-07
-2.72284e-05
-7.10254e-07
-2.71596e-05
-7.23032e-07
-2.70944e-05
-7.36902e-07
-2.70327e-05
-7.52147e-07
-2.69746e-05
-7.69129e-07
-2.69201e-05
-7.88273e-07
-2.68688e-05
-8.1015e-07
-2.68203e-05
-8.35479e-07
-2.67741e-05
-8.65063e-07
-2.67294e-05
-8.99798e-07
-2.66851e-05
-9.40711e-07
-2.66403e-05
-9.88888e-07
-2.65937e-05
-1.0453e-06
-2.65439e-05
-1.11051e-06
-2.64899e-05
-1.18439e-06
-2.64311e-05
-1.26553e-06
-2.63679e-05
-1.35013e-06
-2.63025e-05
-1.43021e-06
-2.62393e-05
-1.49071e-06
-2.61856e-05
-1.50521e-06
-2.61503e-05
-1.43056e-06
-2.61462e-05
-1.20324e-06
-2.62096e-05
-7.39813e-07
-2.63937e-05
3.38519e-08
-2.68873e-05
1.22162e-06
-2.7885e-05
3.21794e-06
-2.97852e-05
6.87852e-06
-3.33085e-05
1.41718e-05
3.11036e-05
-3.79111e-05
-3.53734e-05
-6.47831e-08
-3.53507e-05
-1.55902e-07
-3.53224e-05
-2.08453e-07
-3.52899e-05
-2.38845e-07
-3.5255e-05
-2.57327e-07
-3.52188e-05
-2.69278e-07
-3.51821e-05
-2.77396e-07
-3.51454e-05
-2.83438e-07
-3.51089e-05
-2.88231e-07
-3.50728e-05
-2.92392e-07
-3.50372e-05
-2.96156e-07
-3.50022e-05
-2.99747e-07
-3.49679e-05
-3.03217e-07
-3.49343e-05
-3.06655e-07
-3.49014e-05
-3.10071e-07
-3.48693e-05
-3.13515e-07
-3.48381e-05
-3.16965e-07
-3.48077e-05
-3.20502e-07
-3.47781e-05
-3.24194e-07
-3.47491e-05
-3.28056e-07
-3.47208e-05
-3.32225e-07
-3.46932e-05
-3.36815e-07
-3.46661e-05
-3.41753e-07
-3.46395e-05
-3.46832e-07
-3.46136e-05
-3.52011e-07
-3.45884e-05
-3.57366e-07
-3.45637e-05
-3.62925e-07
-3.45396e-05
-3.68703e-07
-3.45161e-05
-3.74732e-07
-3.44931e-05
-3.81019e-07
-3.44708e-05
-3.87582e-07
-3.44489e-05
-3.94423e-07
-3.44276e-05
-4.01546e-07
-3.44068e-05
-4.08949e-07
-3.43866e-05
-4.16628e-07
-3.4367e-05
-4.24567e-07
-3.43479e-05
-4.3275e-07
-3.43295e-05
-4.4115e-07
-3.43119e-05
-4.49752e-07
-3.4295e-05
-4.58524e-07
-3.4279e-05
-4.67424e-07
-3.4264e-05
-4.76427e-07
-3.42501e-05
-4.85461e-07
-3.42376e-05
-4.94471e-07
-3.42265e-05
-5.03412e-07
-3.42173e-05
-5.12183e-07
-3.421e-05
-5.2068e-07
-3.42049e-05
-5.28838e-07
-3.42021e-05
-5.36831e-07
-3.42012e-05
-5.44565e-07
-3.42024e-05
-5.51818e-07
-3.42058e-05
-5.58644e-07
-3.42116e-05
-5.65042e-07
-3.42201e-05
-5.70951e-07
-3.42315e-05
-5.76405e-07
-3.4246e-05
-5.81451e-07
-3.42639e-05
-5.86082e-07
-3.42854e-05
-5.9036e-07
-3.43108e-05
-5.9431e-07
-3.43404e-05
-5.97948e-07
-3.43745e-05
-6.01351e-07
-3.44134e-05
-6.04576e-07
-3.44572e-05
-6.07602e-07
-3.45062e-05
-6.10446e-07
-3.45607e-05
-6.13158e-07
-3.46209e-05
-6.15798e-07
-3.4687e-05
-6.18455e-07
-3.47592e-05
-6.21213e-07
-3.48377e-05
-6.24187e-07
-3.49225e-05
-6.27497e-07
-3.50136e-05
-6.31309e-07
-3.51111e-05
-6.35816e-07
-3.52148e-05
-6.41276e-07
-3.53246e-05
-6.48015e-07
-3.54399e-05
-6.5646e-07
-3.55605e-05
-6.67129e-07
-3.56856e-05
-6.80583e-07
-3.58144e-05
-6.97546e-07
-3.5946e-05
-7.18931e-07
-3.60793e-05
-7.45689e-07
-3.62132e-05
-7.78803e-07
-3.63463e-05
-8.19359e-07
-3.64775e-05
-8.68469e-07
-3.66055e-05
-9.27029e-07
-3.67296e-05
-9.95331e-07
-3.68492e-05
-1.07282e-06
-3.69645e-05
-1.15752e-06
-3.70764e-05
-1.24484e-06
-3.71866e-05
-1.32583e-06
-3.72981e-05
-1.38455e-06
-3.74134e-05
-1.39452e-06
-3.75333e-05
-1.3148e-06
-3.76568e-05
-1.08329e-06
-3.77845e-05
-6.15009e-07
-3.79248e-05
1.71671e-07
-3.81892e-05
1.48389e-06
-3.87212e-05
3.74799e-06
-3.96884e-05
7.84377e-06
-4.12739e-05
1.57557e-05
3.11457e-05
-4.13181e-05
-3.81314e-05
-8.07994e-08
-3.8129e-05
-1.68507e-07
-3.81272e-05
-2.21335e-07
-3.81248e-05
-2.53023e-07
-3.81221e-05
-2.72477e-07
-3.81199e-05
-2.84761e-07
-3.81185e-05
-2.92869e-07
-3.81183e-05
-2.98581e-07
-3.81193e-05
-3.02894e-07
-3.81219e-05
-3.06409e-07
-3.81261e-05
-3.09446e-07
-3.81321e-05
-3.12198e-07
-3.81399e-05
-3.1476e-07
-3.81496e-05
-3.17189e-07
-3.81615e-05
-3.19514e-07
-3.81755e-05
-3.2176e-07
-3.81918e-05
-3.23903e-07
-3.82105e-05
-3.2604e-07
-3.82315e-05
-3.28426e-07
-3.82547e-05
-3.3117e-07
-3.82799e-05
-3.34368e-07
-3.83068e-05
-3.38103e-07
-3.83356e-05
-3.42232e-07
-3.83663e-05
-3.46419e-07
-3.83988e-05
-3.50639e-07
-3.84333e-05
-3.55005e-07
-3.84697e-05
-3.59524e-07
-3.85081e-05
-3.64212e-07
-3.85485e-05
-3.69105e-07
-3.85909e-05
-3.74201e-07
-3.86352e-05
-3.79514e-07
-3.86817e-05
-3.85037e-07
-3.87302e-05
-3.90766e-07
-3.87808e-05
-3.96684e-07
-3.88337e-05
-4.02778e-07
-3.88887e-05
-4.09021e-07
-3.89461e-05
-4.15385e-07
-3.90058e-05
-4.21854e-07
-3.90679e-05
-4.28379e-07
-3.91326e-05
-4.34908e-07
-3.91998e-05
-4.41433e-07
-3.92698e-05
-4.47907e-07
-3.93425e-05
-4.54252e-07
-3.94181e-05
-4.60425e-07
-3.94966e-05
-4.66367e-07
-3.95782e-05
-4.71986e-07
-3.96628e-05
-4.77217e-07
-3.97504e-05
-4.82016e-07
-3.98412e-05
-4.86445e-07
-3.99353e-05
-4.90433e-07
-4.00328e-05
-4.93817e-07
-4.01337e-05
-4.96582e-07
-4.02381e-05
-4.98752e-07
-4.03461e-05
-5.00293e-07
-4.04578e-05
-5.0124e-07
-4.05732e-05
-5.01653e-07
-4.06924e-05
-5.0155e-07
-4.08153e-05
-5.01007e-07
-4.09421e-05
-5.00075e-07
-4.10725e-05
-4.98816e-07
-4.12067e-05
-4.97344e-07
-4.13444e-05
-4.95751e-07
-4.14856e-05
-4.94048e-07
-4.16301e-05
-4.92247e-07
-4.17778e-05
-4.90422e-07
-4.19285e-05
-4.88677e-07
-4.20821e-05
-4.87132e-07
-4.22383e-05
-4.85896e-07
-4.2397e-05
-4.85108e-07
-4.25579e-05
-4.84914e-07
-4.27207e-05
-4.85498e-07
-4.28852e-05
-4.87079e-07
-4.30511e-05
-4.89937e-07
-4.32182e-05
-4.94409e-07
-4.33861e-05
-5.00932e-07
-4.35544e-05
-5.10075e-07
-4.3723e-05
-5.22375e-07
-4.38915e-05
-5.38522e-07
-4.40595e-05
-5.59501e-07
-4.42267e-05
-5.86277e-07
-4.43929e-05
-6.19769e-07
-4.45577e-05
-6.61009e-07
-4.4721e-05
-7.11067e-07
-4.48826e-05
-7.70783e-07
-4.50425e-05
-8.4025e-07
-4.52011e-05
-9.18644e-07
-4.53589e-05
-1.00378e-06
-4.55166e-05
-1.09087e-06
-4.56748e-05
-1.17097e-06
-4.58336e-05
-1.22877e-06
-4.59912e-05
-1.2397e-06
-4.61415e-05
-1.16704e-06
-4.62704e-05
-9.56669e-07
-4.63567e-05
-5.30645e-07
-4.64019e-05
2.15014e-07
-4.64387e-05
1.51908e-06
-4.64918e-05
3.79945e-06
-4.65617e-05
7.91199e-06
-4.63242e-05
1.55164e-05
2.83022e-05
-4.34837e-05
-4.11214e-05
-8.41894e-08
-4.11451e-05
-1.58829e-07
-4.11762e-05
-2.05259e-07
-4.12114e-05
-2.33797e-07
-4.12495e-05
-2.51309e-07
-4.12902e-05
-2.62028e-07
-4.13333e-05
-2.68755e-07
-4.13787e-05
-2.731e-07
-4.14266e-05
-2.76069e-07
-4.1477e-05
-2.78203e-07
-4.15299e-05
-2.7985e-07
-4.15853e-05
-2.8117e-07
-4.16433e-05
-2.82275e-07
-4.1704e-05
-2.83206e-07
-4.17673e-05
-2.84001e-07
-4.18333e-05
-2.84676e-07
-4.19021e-05
-2.85256e-07
-4.19735e-05
-2.85837e-07
-4.20477e-05
-2.86611e-07
-4.21246e-05
-2.87704e-07
-4.22042e-05
-2.89306e-07
-4.22862e-05
-2.91573e-07
-4.23707e-05
-2.94318e-07
-4.24577e-05
-2.96948e-07
-4.25474e-05
-2.99469e-07
-4.26396e-05
-3.0211e-07
-4.27345e-05
-3.04822e-07
-4.2832e-05
-3.07634e-07
-4.29322e-05
-3.10582e-07
-4.30351e-05
-3.13665e-07
-4.31406e-05
-3.16895e-07
-4.32488e-05
-3.2026e-07
-4.33596e-05
-3.23758e-07
-4.34732e-05
-3.27368e-07
-4.35894e-05
-3.31078e-07
-4.37082e-05
-3.34864e-07
-4.38297e-05
-3.38704e-07
-4.39538e-05
-3.42596e-07
-4.40804e-05
-3.46508e-07
-4.42096e-05
-3.5037e-07
-4.43412e-05
-3.54183e-07
-4.44752e-05
-3.57936e-07
-4.46115e-05
-3.61564e-07
-4.475e-05
-3.65032e-07
-4.48906e-05
-3.68291e-07
-4.50331e-05
-3.71266e-07
-4.51774e-05
-3.73914e-07
-4.53234e-05
-3.76201e-07
-4.54709e-05
-3.78126e-07
-4.56199e-05
-3.79633e-07
-4.57703e-05
-3.80634e-07
-4.59218e-05
-3.81112e-07
-4.60743e-05
-3.81081e-07
-4.62277e-05
-3.80521e-07
-4.63819e-05
-3.79469e-07
-4.65366e-05
-3.77967e-07
-4.66919e-05
-3.76058e-07
-4.68476e-05
-3.73809e-07
-4.70036e-05
-3.7127e-07
-4.71597e-05
-3.68506e-07
-4.7316e-05
-3.65639e-07
-4.74722e-05
-3.62786e-07
-4.76282e-05
-3.59948e-07
-4.77841e-05
-3.57079e-07
-4.79399e-05
-3.54231e-07
-4.80954e-05
-3.51532e-07
-4.82507e-05
-3.49097e-07
-4.84057e-05
-3.47025e-07
-4.85605e-05
-3.45449e-07
-4.87151e-05
-3.44506e-07
-4.88695e-05
-3.44367e-07
-4.90237e-05
-3.45243e-07
-4.91778e-05
-3.47418e-07
-4.93317e-05
-3.51227e-07
-4.94856e-05
-3.57101e-07
-4.96394e-05
-3.65604e-07
-4.97932e-05
-3.77298e-07
-4.99471e-05
-3.9277e-07
-5.01013e-05
-4.12842e-07
-5.0256e-05
-4.38508e-07
-5.04115e-05
-4.70778e-07
-5.0568e-05
-5.10648e-07
-5.07255e-05
-5.59128e-07
-5.08844e-05
-6.17108e-07
-5.10449e-05
-6.84589e-07
-5.12076e-05
-7.60483e-07
-5.13728e-05
-8.42688e-07
-5.15409e-05
-9.26694e-07
-5.17112e-05
-1.00419e-06
-5.18819e-05
-1.06141e-06
-5.20475e-05
-1.07703e-06
-5.21976e-05
-1.01969e-06
-5.23096e-05
-8.47167e-07
-5.23512e-05
-4.91272e-07
-5.22997e-05
1.6153e-07
-5.21322e-05
1.34968e-06
-5.17653e-05
3.43047e-06
-5.10315e-05
7.17563e-06
-4.93154e-05
1.37969e-05
2.36955e-05
-4.47137e-05
-4.42664e-05
-7.36352e-08
-4.43164e-05
-1.26461e-07
-4.43792e-05
-1.61378e-07
-4.44496e-05
-1.83421e-07
-4.45252e-05
-1.96814e-07
-4.46048e-05
-2.04676e-07
-4.46877e-05
-2.09228e-07
-4.47735e-05
-2.11784e-07
-4.4862e-05
-2.13192e-07
-4.49532e-05
-2.13905e-07
-4.50468e-05
-2.14222e-07
-4.51428e-05
-2.1427e-07
-4.52413e-05
-2.14148e-07
-4.5342e-05
-2.13877e-07
-4.5445e-05
-2.13498e-07
-4.55503e-05
-2.13012e-07
-4.56577e-05
-2.12471e-07
-4.57672e-05
-2.11949e-07
-4.58788e-05
-2.11609e-07
-4.59925e-05
-2.11582e-07
-4.6108e-05
-2.12157e-07
-4.62252e-05
-2.13596e-07
-4.63438e-05
-2.15673e-07
-4.64639e-05
-2.17543e-07
-4.65855e-05
-2.19034e-07
-4.67091e-05
-2.2035e-07
-4.68345e-05
-2.21616e-07
-4.69619e-05
-2.22904e-07
-4.70912e-05
-2.24277e-07
-4.72223e-05
-2.25731e-07
-4.73552e-05
-2.27297e-07
-4.74898e-05
-2.28962e-07
-4.76262e-05
-2.30749e-07
-4.77642e-05
-2.32634e-07
-4.79037e-05
-2.34626e-07
-4.80446e-05
-2.36719e-07
-4.81867e-05
-2.38911e-07
-4.83301e-05
-2.41195e-07
-4.84745e-05
-2.43568e-07
-4.86197e-05
-2.4599e-07
-4.87656e-05
-2.48461e-07
-4.89121e-05
-2.50969e-07
-4.90589e-05
-2.53469e-07
-4.92059e-05
-2.55926e-07
-4.93529e-05
-2.58294e-07
-4.94998e-05
-2.60497e-07
-4.96464e-05
-2.62505e-07
-4.97926e-05
-2.64267e-07
-4.99382e-05
-2.65739e-07
-5.00833e-05
-2.66867e-07
-5.02276e-05
-2.67586e-07
-5.03712e-05
-2.67855e-07
-5.05139e-05
-2.67671e-07
-5.06557e-05
-2.67017e-07
-5.07967e-05
-2.65916e-07
-5.09367e-05
-2.64388e-07
-5.10758e-05
-2.6247e-07
-5.1214e-05
-2.6021e-07
-5.13513e-05
-2.57652e-07
-5.14878e-05
-2.54833e-07
-5.16237e-05
-2.5186e-07
-5.17588e-05
-2.48914e-07
-5.18932e-05
-2.45982e-07
-5.20272e-05
-2.42872e-07
-5.21608e-05
-2.39681e-07
-5.22942e-05
-2.36532e-07
-5.24274e-05
-2.33535e-07
-5.25608e-05
-2.30791e-07
-5.26943e-05
-2.28411e-07
-5.28282e-05
-2.26528e-07
-5.29626e-05
-2.25304e-07
-5.30978e-05
-2.24944e-07
-5.32338e-05
-2.25718e-07
-5.33709e-05
-2.27957e-07
-5.35092e-05
-2.32087e-07
-5.36491e-05
-2.38574e-07
-5.37907e-05
-2.48037e-07
-5.39341e-05
-2.61252e-07
-5.40795e-05
-2.78983e-07
-5.42269e-05
-3.02052e-07
-5.43768e-05
-3.31415e-07
-5.45296e-05
-3.67977e-07
-5.46858e-05
-4.12632e-07
-5.48458e-05
-4.66458e-07
-5.50097e-05
-5.29508e-07
-5.51783e-05
-6.00313e-07
-5.53519e-05
-6.77184e-07
-5.553e-05
-7.56256e-07
-5.5711e-05
-8.30386e-07
-5.58913e-05
-8.87989e-07
-5.60627e-05
-9.11897e-07
-5.62109e-05
-8.7735e-07
-5.63104e-05
-7.53053e-07
-5.63186e-05
-4.8774e-07
-5.61793e-05
1.81348e-08
-5.58366e-05
1.00297e-06
-5.51122e-05
2.70139e-06
-5.37019e-05
5.75914e-06
-5.08828e-05
1.0969e-05
1.80633e-05
-4.52623e-05
-4.7197e-05
-5.1917e-08
-4.72622e-05
-8.10098e-08
-4.73416e-05
-1.02833e-07
-4.743e-05
-1.16927e-07
-4.75243e-05
-1.25374e-07
-4.76228e-05
-1.30126e-07
-4.77244e-05
-1.32627e-07
-4.78284e-05
-1.338e-07
-4.79344e-05
-1.34206e-07
-4.80421e-05
-1.34174e-07
-4.81513e-05
-1.33898e-07
-4.8262e-05
-1.33456e-07
-4.8374e-05
-1.32906e-07
-4.84872e-05
-1.32246e-07
-4.86016e-05
-1.31503e-07
-4.87171e-05
-1.30664e-07
-4.88336e-05
-1.29792e-07
-4.89511e-05
-1.28936e-07
-4.90696e-05
-1.28236e-07
-4.91889e-05
-1.27811e-07
-4.93091e-05
-1.28018e-07
-4.94299e-05
-1.29262e-07
-4.95511e-05
-1.31221e-07
-4.96728e-05
-1.32902e-07
-4.97948e-05
-1.34253e-07
-4.99171e-05
-1.35329e-07
-5.00398e-05
-1.36305e-07
-5.01627e-05
-1.37262e-07
-5.02859e-05
-1.38294e-07
-5.04092e-05
-1.39388e-07
-5.05326e-05
-1.40599e-07
-5.06561e-05
-1.41901e-07
-5.07796e-05
-1.43344e-07
-5.0903e-05
-1.44899e-07
-5.10262e-05
-1.4658e-07
-5.11491e-05
-1.48401e-07
-5.12718e-05
-1.50355e-07
-5.1394e-05
-1.52433e-07
-5.15158e-05
-1.54636e-07
-5.16371e-05
-1.56938e-07
-5.17578e-05
-1.59323e-07
-5.1878e-05
-1.61774e-07
-5.19974e-05
-1.64252e-07
-5.21162e-05
-1.66707e-07
-5.22344e-05
-1.69092e-07
-5.23518e-05
-1.71334e-07
-5.24685e-05
-1.73383e-07
-5.25846e-05
-1.75191e-07
-5.27e-05
-1.76686e-07
-5.28148e-05
-1.778e-07
-5.29291e-05
-1.78475e-07
-5.30429e-05
-1.78664e-07
-5.31564e-05
-1.78355e-07
-5.32694e-05
-1.77532e-07
-5.33823e-05
-1.76214e-07
-5.34949e-05
-1.74419e-07
-5.36074e-05
-1.72172e-07
-5.372e-05
-1.69516e-07
-5.38326e-05
-1.6649e-07
-5.39454e-05
-1.63118e-07
-5.40587e-05
-1.59451e-07
-5.41723e-05
-1.55795e-07
-5.42863e-05
-1.5223e-07
-5.4401e-05
-1.482e-07
-5.45165e-05
-1.43942e-07
-5.4633e-05
-1.39607e-07
-5.47507e-05
-1.35292e-07
-5.48697e-05
-1.31091e-07
-5.49901e-05
-1.27099e-07
-5.51122e-05
-1.2344e-07
-5.52362e-05
-1.20267e-07
-5.53622e-05
-1.17777e-07
-5.54904e-05
-1.16229e-07
-5.56211e-05
-1.15943e-07
-5.57544e-05
-1.17325e-07
-5.58907e-05
-1.20824e-07
-5.60302e-05
-1.27064e-07
-5.6173e-05
-1.36865e-07
-5.63195e-05
-1.50993e-07
-5.64698e-05
-1.70191e-07
-5.66243e-05
-1.9533e-07
-5.67835e-05
-2.27229e-07
-5.69481e-05
-2.66512e-07
-5.71185e-05
-3.14601e-07
-5.72945e-05
-3.72038e-07
-5.74769e-05
-4.36424e-07
-5.76657e-05
-5.06956e-07
-5.78598e-05
-5.80754e-07
-5.80565e-05
-6.52188e-07
-5.82505e-05
-7.12338e-07
-5.84321e-05
-7.48512e-07
-5.85832e-05
-7.4401e-07
-5.8678e-05
-6.75485e-07
-5.86638e-05
-5.18371e-07
-5.84807e-05
-1.80233e-07
-5.79842e-05
4.91818e-07
-5.69803e-05
1.68166e-06
-5.50549e-05
3.81407e-06
-5.14723e-05
7.36014e-06
1.18694e-05
-4.53094e-05
-4.95013e-05
-2.06949e-08
-4.95697e-05
-3.10548e-08
-4.96512e-05
-4.07211e-08
-4.97412e-05
-4.70969e-08
-4.98365e-05
-5.09736e-08
-4.9935e-05
-5.32202e-08
-5.00355e-05
-5.44864e-08
-5.01372e-05
-5.52118e-08
-5.02394e-05
-5.56429e-08
-5.0342e-05
-5.59253e-08
-5.04447e-05
-5.61332e-08
-5.05473e-05
-5.62797e-08
-5.06498e-05
-5.63662e-08
-5.07521e-05
-5.63729e-08
-5.08542e-05
-5.6297e-08
-5.09559e-05
-5.61259e-08
-5.10573e-05
-5.58989e-08
-5.11584e-05
-5.56678e-08
-5.1259e-05
-5.5532e-08
-5.13594e-05
-5.56039e-08
-5.14594e-05
-5.62219e-08
-5.15588e-05
-5.81222e-08
-5.16571e-05
-6.108e-08
-5.17547e-05
-6.34794e-08
-5.18517e-05
-6.54135e-08
-5.19479e-05
-6.70906e-08
-5.20433e-05
-6.86519e-08
-5.2138e-05
-7.01649e-08
-5.22319e-05
-7.17037e-08
-5.23251e-05
-7.32653e-08
-5.24175e-05
-7.48887e-08
-5.25093e-05
-7.6558e-08
-5.26004e-05
-7.83105e-08
-5.26908e-05
-8.01275e-08
-5.27806e-05
-8.20237e-08
-5.28699e-05
-8.39921e-08
-5.29586e-05
-8.60521e-08
-5.30469e-05
-8.81684e-08
-5.31348e-05
-9.03599e-08
-5.32223e-05
-9.25929e-08
-5.33095e-05
-9.4848e-08
-5.33965e-05
-9.71095e-08
-5.34833e-05
-9.93441e-08
-5.35699e-05
-1.015e-07
-5.36566e-05
-1.03529e-07
-5.37432e-05
-1.05386e-07
-5.38299e-05
-1.06986e-07
-5.39168e-05
-1.08287e-07
-5.40038e-05
-1.09225e-07
-5.40911e-05
-1.09726e-07
-5.41788e-05
-1.09725e-07
-5.42669e-05
-1.09186e-07
-5.43555e-05
-1.08086e-07
-5.44446e-05
-1.06415e-07
-5.45344e-05
-1.04193e-07
-5.46249e-05
-1.01444e-07
-5.47162e-05
-9.81853e-08
-5.48084e-05
-9.44557e-08
-5.49015e-05
-9.02897e-08
-5.49957e-05
-8.57159e-08
-5.50911e-05
-8.06743e-08
-5.51879e-05
-7.55686e-08
-5.52857e-05
-7.091e-08
-5.53849e-05
-6.53365e-08
-5.54859e-05
-5.93896e-08
-5.55886e-05
-5.32809e-08
-5.56932e-05
-4.7095e-08
-5.57998e-05
-4.09038e-08
-5.59087e-05
-3.47907e-08
-5.60199e-05
-2.88639e-08
-5.61337e-05
-2.32689e-08
-5.62503e-05
-1.81902e-08
-5.63698e-05
-1.38699e-08
-5.64926e-05
-1.06144e-08
-5.66188e-05
-8.80347e-09
-5.67487e-05
-8.90217e-09
-5.68826e-05
-1.15085e-08
-5.70209e-05
-1.73379e-08
-5.7164e-05
-2.71113e-08
-5.73123e-05
-4.15818e-08
-5.74663e-05
-6.155e-08
-5.76265e-05
-8.79086e-08
-5.77938e-05
-1.20759e-07
-5.79691e-05
-1.6173e-07
-5.81512e-05
-2.13254e-07
-5.83417e-05
-2.70278e-07
-5.85404e-05
-3.33894e-07
-5.87457e-05
-4.02432e-07
-5.89545e-05
-4.72001e-07
-5.91607e-05
-5.36492e-07
-5.93535e-05
-5.88114e-07
-5.95144e-05
-6.17609e-07
-5.9613e-05
-6.13807e-07
-5.96061e-05
-5.64613e-07
-5.94054e-05
-4.22949e-07
-5.88463e-05
-1.10227e-07
-5.7681e-05
4.72418e-07
-5.54414e-05
1.52494e-06
-5.1402e-05
3.26156e-06
5.39737e-06
-4.49921e-05
-5.07235e-05
1.58098e-08
-5.07849e-05
1.65857e-08
-5.08578e-05
1.77802e-08
-5.0938e-05
1.83636e-08
-5.10226e-05
1.83491e-08
-5.11094e-05
1.79037e-08
-5.1197e-05
1.71318e-08
-5.12848e-05
1.61286e-08
-5.13722e-05
1.49454e-08
-5.1459e-05
1.36554e-08
-5.15448e-05
1.22883e-08
-5.16298e-05
1.09105e-08
-5.17138e-05
9.57797e-09
-5.17967e-05
8.32086e-09
-5.18787e-05
7.18075e-09
-5.19596e-05
6.16065e-09
-5.20396e-05
5.25517e-09
-5.21186e-05
4.40441e-09
-5.21968e-05
3.55082e-09
-5.2274e-05
2.58828e-09
-5.23507e-05
1.29822e-09
-5.24264e-05
-1.54736e-09
-5.25005e-05
-6.15029e-09
-5.25735e-05
-9.54647e-09
-5.26459e-05
-1.20258e-08
-5.27177e-05
-1.41893e-08
-5.27891e-05
-1.61877e-08
-5.28598e-05
-1.81116e-08
-5.29301e-05
-1.99791e-08
-5.29999e-05
-2.18215e-08
-5.30694e-05
-2.36329e-08
-5.31385e-05
-2.54327e-08
-5.32074e-05
-2.72145e-08
-5.3276e-05
-2.89898e-08
-5.33445e-05
-3.0776e-08
-5.3413e-05
-3.25468e-08
-5.34814e-05
-3.43315e-08
-5.35499e-05
-3.61006e-08
-5.36185e-05
-3.78668e-08
-5.36874e-05
-3.96076e-08
-5.37565e-05
-4.1305e-08
-5.38259e-05
-4.29401e-08
-5.38956e-05
-4.44922e-08
-5.39658e-05
-4.59121e-08
-5.40365e-05
-4.71586e-08
-5.41077e-05
-4.81911e-08
-5.41794e-05
-4.8927e-08
-5.42517e-05
-4.93177e-08
-5.43247e-05
-4.93011e-08
-5.43984e-05
-4.88014e-08
-5.44729e-05
-4.7752e-08
-5.45481e-05
-4.61193e-08
-5.46242e-05
-4.38787e-08
-5.47012e-05
-4.10194e-08
-5.47792e-05
-3.75631e-08
-5.48582e-05
-3.35457e-08
-5.49382e-05
-2.89695e-08
-5.50194e-05
-2.38683e-08
-5.51017e-05
-1.82803e-08
-5.51853e-05
-1.22178e-08
-5.52702e-05
-5.67699e-09
-5.53568e-05
1.49069e-09
-5.54443e-05
7.11231e-09
-5.55335e-05
1.46111e-08
-5.56246e-05
2.25343e-08
-5.57176e-05
3.06644e-08
-5.58126e-05
3.89624e-08
-5.59097e-05
4.73871e-08
-5.60092e-05
5.58683e-08
-5.61111e-05
6.4319e-08
-5.62157e-05
7.2604e-08
-5.63232e-05
8.05552e-08
-5.64337e-05
8.7951e-08
-5.65476e-05
9.4507e-08
-5.6665e-05
9.98658e-08
-5.67863e-05
1.03582e-07
-5.69118e-05
1.05103e-07
-5.70418e-05
1.0379e-07
-5.71767e-05
9.8963e-08
-5.73171e-05
8.99043e-08
-5.74632e-05
7.58324e-08
-5.76158e-05
5.60205e-08
-5.77746e-05
2.95582e-08
-5.79423e-05
-2.23453e-09
-5.81157e-05
-4.79539e-08
-5.8298e-05
-9.62831e-08
-5.84883e-05
-1.52144e-07
-5.86848e-05
-2.14968e-07
-5.88838e-05
-2.82609e-07
-5.90792e-05
-3.51643e-07
-5.92599e-05
-4.19225e-07
-5.94076e-05
-4.83445e-07
-5.94921e-05
-5.45235e-07
-5.94702e-05
-6.05686e-07
-5.92533e-05
-6.63739e-07
-5.86758e-05
-7.18626e-07
-5.74594e-05
-7.81017e-07
-5.51075e-05
-8.66275e-07
-5.08923e-05
-9.90327e-07
-1.09939e-06
-4.44185e-05
-5.03569e-05
5.0628e-08
-5.04128e-05
6.41941e-08
-5.04805e-05
7.67521e-08
-5.05557e-05
8.46371e-08
-5.06354e-05
8.89037e-08
-5.07177e-05
9.07119e-08
-5.08011e-05
9.09222e-08
-5.0885e-05
9.01359e-08
-5.09689e-05
8.87098e-08
-5.10525e-05
8.69115e-08
-5.11357e-05
8.48872e-08
-5.12182e-05
8.27599e-08
-5.13002e-05
8.06351e-08
-5.13815e-05
7.85585e-08
-5.14622e-05
7.65948e-08
-5.15421e-05
7.47485e-08
-5.16214e-05
7.30273e-08
-5.17e-05
7.13705e-08
-5.17779e-05
6.97242e-08
-5.1855e-05
6.79502e-08
-5.19313e-05
6.57013e-08
-5.20069e-05
6.22474e-08
-5.20829e-05
5.78517e-08
-5.21584e-05
5.41053e-08
-5.22334e-05
5.10445e-08
-5.23078e-05
4.83289e-08
-5.23816e-05
4.58562e-08
-5.2455e-05
4.35222e-08
-5.2528e-05
4.13156e-08
-5.26005e-05
3.91852e-08
-5.26727e-05
3.71541e-08
-5.27446e-05
3.51857e-08
-5.28163e-05
3.33057e-08
-5.28877e-05
3.14831e-08
-5.2959e-05
2.97237e-08
-5.30301e-05
2.80262e-08
-5.31012e-05
2.63966e-08
-5.31723e-05
2.48257e-08
-5.32434e-05
2.33357e-08
-5.33145e-05
2.19273e-08
-5.33858e-05
2.06155e-08
-5.34573e-05
1.94217e-08
-5.3529e-05
1.83679e-08
-5.36009e-05
1.74888e-08
-5.36732e-05
1.68246e-08
-5.37458e-05
1.6422e-08
-5.38187e-05
1.63444e-08
-5.3892e-05
1.66545e-08
-5.39658e-05
1.74202e-08
-5.40401e-05
1.87208e-08
-5.41149e-05
2.06266e-08
-5.41903e-05
2.31689e-08
-5.42664e-05
2.63761e-08
-5.43432e-05
3.02575e-08
-5.44208e-05
3.47903e-08
-5.44992e-05
3.99374e-08
-5.45785e-05
4.56944e-08
-5.46587e-05
5.20334e-08
-5.474e-05
5.89237e-08
-5.48223e-05
6.63271e-08
-5.49057e-05
7.42543e-08
-5.49898e-05
8.24875e-08
-5.50761e-05
9.05459e-08
-5.51637e-05
9.96756e-08
-5.52526e-05
1.09375e-07
-5.53432e-05
1.19459e-07
-5.54355e-05
1.2987e-07
-5.55296e-05
1.40562e-07
-5.56258e-05
1.51479e-07
-5.57241e-05
1.62552e-07
-5.58248e-05
1.73664e-07
-5.59281e-05
1.84656e-07
-5.60341e-05
1.95342e-07
-5.61432e-05
2.05456e-07
-5.62555e-05
2.14667e-07
-5.63714e-05
2.2256e-07
-5.64912e-05
2.28623e-07
-5.66152e-05
2.32271e-07
-5.67439e-05
2.32866e-07
-5.68777e-05
2.29711e-07
-5.7017e-05
2.22075e-07
-5.71624e-05
2.09162e-07
-5.73141e-05
1.90092e-07
-5.7471e-05
1.64414e-07
-5.76375e-05
1.29845e-07
-5.781e-05
8.93351e-08
-5.79879e-05
4.08571e-08
-5.81693e-05
-1.60048e-08
-5.83512e-05
-8.06553e-08
-5.85271e-05
-1.53272e-07
-5.86856e-05
-2.35344e-07
-5.88088e-05
-3.31695e-07
-5.88678e-05
-4.54173e-07
-5.88154e-05
-6.22062e-07
-5.85683e-05
-8.70332e-07
-5.79719e-05
-1.26968e-06
-5.67473e-05
-1.95496e-06
-5.44072e-05
-3.15016e-06
-5.02512e-05
-5.08541e-06
-7.40337e-06
-4.38858e-05
-4.86603e-05
7.66665e-08
-4.87126e-05
1.11937e-07
-4.87774e-05
1.36777e-07
-4.88504e-05
1.52742e-07
-4.89286e-05
1.62099e-07
-4.901e-05
1.67069e-07
-4.90936e-05
1.69287e-07
-4.91787e-05
1.6978e-07
-4.92646e-05
1.69228e-07
-4.93513e-05
1.68034e-07
-4.94386e-05
1.66495e-07
-4.95264e-05
1.64744e-07
-4.96145e-05
1.62937e-07
-4.9703e-05
1.61143e-07
-4.97919e-05
1.59429e-07
-4.9881e-05
1.57811e-07
-4.99704e-05
1.5629e-07
-5.006e-05
1.54821e-07
-5.01499e-05
1.53335e-07
-5.02398e-05
1.51685e-07
-5.03299e-05
1.49536e-07
-5.04204e-05
1.46466e-07
-5.05116e-05
1.42798e-07
-5.06032e-05
1.39477e-07
-5.0695e-05
1.36621e-07
-5.07869e-05
1.34058e-07
-5.0879e-05
1.31721e-07
-5.09711e-05
1.29526e-07
-5.10632e-05
1.27445e-07
-5.11555e-05
1.25433e-07
-5.12477e-05
1.23508e-07
-5.13399e-05
1.21638e-07
-5.14321e-05
1.19845e-07
-5.15243e-05
1.18098e-07
-5.16164e-05
1.16419e-07
-5.17084e-05
1.14782e-07
-5.18004e-05
1.13224e-07
-5.18922e-05