/*--------------------------------*- C++ -*----------------------------------*\
| =========                 |                                                 |
| \\      /  F ield         | OpenFOAM: The Open Source CFD Toolbox           |
|  \\    /   O peration     | Version:  2.1.0                                 |
|   \\  /    A nd           | Web:      www.OpenFOAM.org                      |
|    \\/     M anipulation  |                                                 |
\*---------------------------------------------------------------------------*/
FoamFile
{
    version     2.0;
    format      ascii;
    class       volScalarField;
    location    "0.27";
    object      rho;
}
// * * * * * * * * * * * * * * * * * * * * * * * * * * * * * * * * * * * * * //

dimensions      [1 -3 0 0 0 0 0];

internalField   nonuniform List<scalar> 
6400
(
999.539
999.492
999.44
999.386
999.326
999.263
999.194
999.12
999.04
998.954
998.862
998.763
998.657
998.544
998.423
998.293
998.155
998.008
997.852
997.686
997.509
997.322
997.124
996.915
996.694
996.461
996.215
995.957
995.686
995.403
995.106
994.796
994.472
994.135
993.785
993.422
993.045
992.655
992.253
991.839
991.413
990.975
990.527
990.068
989.598
989.12
988.633
988.137
987.633
987.121
986.603
986.078
985.546
985.006
984.46
983.908
983.349
982.786
982.216
981.642
981.063
980.48
979.892
979.301
978.707
978.11
977.51
976.909
976.307
975.704
975.101
974.499
973.896
973.295
972.694
972.093
971.492
970.891
970.29
969.689
969.089
968.492
967.903
967.328
966.775
966.256
965.791
965.405
965.144
965.085
965.37
966.285
968.422
972.824
979.477
975.966
957.073
947.205
945.491
945.18
998.995
998.902
998.8
998.692
998.576
998.451
998.318
998.176
998.023
997.861
997.688
997.505
997.309
997.102
996.883
996.651
996.405
996.146
995.873
995.585
995.282
994.964
994.631
994.282
993.916
993.534
993.136
992.721
992.29
991.842
991.378
990.897
990.4
989.887
989.358
988.814
988.255
987.682
987.095
986.494
985.881
985.257
984.621
983.974
983.319
982.654
981.981
981.302
980.616
979.922
979.222
978.516
977.805
977.088
976.366
975.64
974.909
974.175
973.438
972.698
971.955
971.211
970.465
969.718
968.97
968.222
967.475
966.728
965.984
965.241
964.502
963.766
963.034
962.307
961.586
960.871
960.162
959.461
958.768
958.085
957.413
956.754
956.11
955.483
954.876
954.292
953.735
953.205
952.703
952.227
951.767
951.299
950.779
950.126
949.244
948.136
946.735
945.638
945.224
945.057
998.434
998.296
998.146
997.985
997.814
997.631
997.436
997.229
997.008
996.774
996.526
996.263
995.985
995.691
995.381
995.055
994.713
994.353
993.976
993.581
993.168
992.737
992.286
991.817
991.33
990.823
990.298
989.754
989.191
988.611
988.012
987.396
986.762
986.112
985.445
984.763
984.067
983.356
982.632
981.895
981.146
980.387
979.617
978.838
978.051
977.257
976.456
975.649
974.836
974.019
973.198
972.374
971.549
970.721
969.894
969.066
968.239
967.414
966.59
965.769
964.952
964.14
963.332
962.53
961.734
960.946
960.166
959.395
958.634
957.884
957.146
956.42
955.707
955.01
954.328
953.663
953.017
952.39
951.785
951.202
950.644
950.112
949.608
949.133
948.688
948.274
947.891
947.538
947.214
946.919
946.649
946.403
946.177
945.969
945.777
945.602
945.397
945.191
945.046
944.941
997.751
997.56
997.351
997.129
996.893
996.643
996.377
996.094
995.795
995.479
995.144
994.791
994.419
994.028
993.616
993.185
992.732
992.259
991.765
991.25
990.713
990.154
989.574
988.973
988.351
987.707
987.044
986.36
985.656
984.934
984.193
983.434
982.658
981.866
981.058
980.237
979.402
978.554
977.696
976.827
975.949
975.063
974.171
973.273
972.37
971.464
970.556
969.646
968.737
967.829
966.925
966.026
965.133
964.247
963.369
962.5
961.642
960.796
959.963
959.144
958.341
957.554
956.784
956.034
955.305
954.596
953.911
953.249
952.613
952.002
951.419
950.863
950.336
949.837
949.369
948.93
948.52
948.141
947.79
947.469
947.176
946.909
946.669
946.452
946.259
946.087
945.934
945.798
945.678
945.573
945.479
945.396
945.322
945.254
945.191
945.132
945.065
944.993
944.921
944.847
996.923
996.669
996.392
996.099
995.788
995.458
995.109
994.74
994.351
993.939
993.506
993.051
992.572
992.071
991.546
990.996
990.423
989.826
989.204
988.558
987.889
987.195
986.479
985.74
984.98
984.198
983.395
982.573
981.732
980.874
979.999
979.108
978.203
977.285
976.355
975.415
974.467
973.511
972.55
971.585
970.618
969.65
968.683
967.719
966.759
965.806
964.861
963.926
963.003
962.093
961.198
960.32
959.46
958.621
957.802
957.007
956.235
955.489
954.769
954.077
953.413
952.779
952.174
951.599
951.055
950.541
950.058
949.606
949.182
948.788
948.423
948.085
947.773
947.486
947.223
946.983
946.764
946.565
946.384
946.219
946.071
945.936
945.815
945.705
945.605
945.515
945.434
945.36
945.293
945.233
945.178
945.129
945.084
945.043
945.005
944.969
944.932
944.893
944.85
944.802
995.958
995.635
995.285
994.915
994.523
994.108
993.671
993.211
992.726
992.217
991.683
991.125
990.541
989.932
989.298
988.639
987.955
987.247
986.515
985.759
984.981
984.181
983.359
982.518
981.659
980.782
979.888
978.98
978.058
977.125
976.181
975.228
974.269
973.304
972.337
971.367
970.398
969.431
968.469
967.512
966.564
965.625
964.698
963.785
962.887
962.006
961.144
960.301
959.48
958.682
957.908
957.159
956.436
955.739
955.069
954.427
953.813
953.227
952.668
952.138
951.635
951.158
950.709
950.284
949.885
949.51
949.158
948.828
948.52
948.231
947.961
947.71
947.475
947.256
947.053
946.863
946.686
946.522
946.368
946.226
946.093
945.97
945.855
945.748
945.648
945.555
945.468
945.387
945.312
945.243
945.18
945.123
945.072
945.028
944.99
944.958
944.928
944.9
944.875
944.858
994.994
994.613
994.201
993.768
993.311
992.831
992.327
991.799
991.247
990.671
990.072
989.449
988.802
988.133
987.442
986.729
985.996
985.242
984.47
983.681
982.875
982.054
981.219
980.371
979.513
978.646
977.771
976.89
976.005
975.117
974.229
973.341
972.456
971.575
970.7
969.832
968.974
968.126
967.29
966.468
965.66
964.867
964.092
963.334
962.594
961.873
961.172
960.49
959.829
959.187
958.566
957.965
957.384
956.823
956.281
955.758
955.255
954.769
954.301
953.85
953.416
952.998
952.596
952.209
951.836
951.476
951.13
950.797
950.476
950.167
949.869
949.582
949.305
949.039
948.782
948.534
948.295
948.064
947.842
947.628
947.421
947.222
947.03
946.844
946.664
946.49
946.322
946.16
946.005
945.857
945.719
945.592
945.478
945.381
945.302
945.245
945.2
945.168
945.156
945.183
994.372
993.97
993.541
993.091
992.621
992.13
991.62
991.089
990.539
989.97
989.382
988.777
988.155
987.516
986.863
986.196
985.516
984.824
984.121
983.41
982.691
981.965
981.234
980.499
979.762
979.024
978.286
977.551
976.819
976.092
975.37
974.656
973.95
973.253
972.567
971.891
971.226
970.574
969.934
969.307
968.693
968.092
967.505
966.931
966.37
965.822
965.287
964.764
964.253
963.754
963.266
962.789
962.323
961.867
961.421
960.983
960.555
960.135
959.724
959.319
958.922
958.531
958.147
957.768
957.394
957.025
956.661
956.301
955.945
955.593
955.244
954.898
954.554
954.213
953.873
953.536
953.199
952.864
952.528
952.192
951.853
951.513
951.169
950.821
950.469
950.111
949.748
949.379
949.007
948.633
948.261
947.898
947.55
947.228
946.943
946.715
946.546
946.426
946.377
946.452
994.48
994.117
993.734
993.335
992.923
992.496
992.056
991.603
991.137
990.66
990.172
989.674
989.167
988.651
988.128
987.598
987.063
986.524
985.982
985.437
984.891
984.346
983.801
983.257
982.716
982.178
981.644
981.114
980.589
980.07
979.557
979.051
978.553
978.062
977.578
977.103
976.635
976.176
975.725
975.282
974.847
974.421
974.002
973.591
973.187
972.791
972.402
972.02
971.644
971.275
970.913
970.556
970.205
969.86
969.52
969.186
968.856
968.531
968.21
967.893
967.58
967.27
966.963
966.658
966.356
966.054
965.754
965.455
965.156
964.857
964.557
964.255
963.952
963.645
963.336
963.022
962.702
962.376
962.042
961.699
961.344
960.975
960.59
960.186
959.759
959.305
958.821
958.303
957.748
957.154
956.521
955.849
955.143
954.41
953.662
952.925
952.298
951.793
951.452
951.408
995.53
995.264
994.986
994.7
994.405
994.102
993.793
993.475
993.152
992.822
992.486
992.145
991.799
991.449
991.095
990.738
990.379
990.017
989.654
989.29
988.926
988.562
988.199
987.836
987.475
987.115
986.757
986.402
986.05
985.701
985.356
985.015
984.679
984.346
984.019
983.697
983.38
983.068
982.762
982.461
982.165
981.876
981.592
981.314
981.041
980.774
980.513
980.258
980.008
979.764
979.525
979.292
979.065
978.843
978.626
978.415
978.21
978.009
977.815
977.625
977.441
977.262
977.089
976.919
976.753
976.591
976.433
976.277
976.125
975.974
975.827
975.681
975.537
975.394
975.252
975.11
974.968
974.826
974.683
974.539
974.392
974.243
974.092
973.937
973.777
973.602
973.41
973.195
972.953
972.678
972.366
972.012
971.609
971.15
970.625
970.019
969.313
968.61
968.047
967.825
997.055
996.894
996.725
996.552
996.375
996.192
996.006
995.815
995.62
995.422
995.219
995.014
994.805
994.593
994.379
994.162
993.943
993.722
993.499
993.276
993.051
992.826
992.6
992.374
992.149
991.924
991.7
991.478
991.257
991.039
990.823
990.61
990.399
990.192
989.989
989.789
989.593
989.402
989.215
989.032
988.855
988.682
988.515
988.353
988.196
988.045
987.899
987.759
987.625
987.497
987.374
987.258
987.147
987.043
986.945
986.852
986.767
986.687
986.614
986.546
986.486
986.431
986.383
986.343
986.31
986.285
986.269
986.261
986.263
986.273
986.294
986.324
986.365
986.416
986.479
986.554
986.641
986.741
986.853
986.978
987.116
987.267
987.43
987.605
987.792
988
988.23
988.486
988.769
989.076
989.412
989.779
990.182
990.626
991.115
991.652
992.237
992.865
993.512
994.133
998.239
998.149
998.054
997.958
997.86
997.759
997.656
997.551
997.444
997.336
997.226
997.114
997
996.885
996.769
996.652
996.534
996.416
996.297
996.177
996.058
995.939
995.819
995.701
995.582
995.465
995.348
995.233
995.118
995.006
994.895
994.787
994.68
994.576
994.475
994.377
994.281
994.189
994.1
994.015
993.934
993.856
993.783
993.713
993.648
993.588
993.532
993.481
993.434
993.393
993.357
993.326
993.3
993.28
993.266
993.258
993.256
993.26
993.27
993.287
993.311
993.341
993.379
993.424
993.477
993.537
993.606
993.683
993.768
993.861
993.964
994.076
994.197
994.327
994.467
994.617
994.776
994.944
995.121
995.307
995.501
995.702
995.91
996.123
996.34
996.56
996.782
997.002
997.222
997.446
997.674
997.903
998.13
998.354
998.573
998.783
998.98
999.159
999.312
999.432
998.99
998.94
998.889
998.837
998.784
998.73
998.675
998.62
998.564
998.507
998.45
998.392
998.334
998.275
998.216
998.157
998.099
998.04
997.982
997.924
997.866
997.81
997.754
997.699
997.645
997.592
997.54
997.49
997.441
997.394
997.349
997.306
997.265
997.226
997.189
997.155
997.124
997.095
997.069
997.046
997.026
997.009
996.995
996.985
996.978
996.974
996.973
996.976
996.982
996.992
997.005
997.022
997.043
997.067
997.096
997.128
997.163
997.203
997.247
997.295
997.346
997.401
997.46
997.523
997.59
997.66
997.733
997.81
997.891
997.974
998.06
998.149
998.24
998.333
998.428
998.524
998.621
998.719
998.816
998.913
999.008
999.102
999.193
999.28
999.363
999.442
999.516
999.584
999.645
999.701
999.749
999.792
999.83
999.864
999.894
999.918
999.939
999.955
999.967
999.975
999.442
999.415
999.388
999.361
999.333
999.305
999.277
999.249
999.221
999.192
999.164
999.135
999.107
999.078
999.05
999.022
998.995
998.967
998.941
998.915
998.89
998.865
998.842
998.819
998.797
998.777
998.757
998.739
998.722
998.707
998.693
998.68
998.67
998.661
998.654
998.649
998.646
998.644
998.645
998.648
998.653
998.66
998.669
998.679
998.692
998.707
998.724
998.742
998.763
998.785
998.809
998.834
998.861
998.89
998.92
998.952
998.985
999.019
999.054
999.09
999.127
999.165
999.204
999.243
999.282
999.322
999.362
999.401
999.441
999.48
999.518
999.556
999.593
999.629
999.664
999.698
999.73
999.761
999.79
999.817
999.842
999.866
999.887
999.906
999.923
999.938
999.951
999.962
999.971
999.978
999.984
999.988
999.991
999.994
999.996
999.997
999.998
999.999
999.999
999.999
999.695
999.681
999.667
999.653
999.639
999.625
999.611
999.597
999.584
999.57
999.556
999.543
999.53
999.516
999.504
999.491
999.479
999.467
999.456
999.446
999.436
999.426
999.417
999.409
999.402
999.395
999.389
999.384
999.38
999.377
999.375
999.374
999.374
999.375
999.378
999.381
999.385
999.391
999.398
999.405
999.414
999.424
999.435
999.447
999.46
999.473
999.488
999.503
999.518
999.535
999.552
999.569
999.587
999.605
999.623
999.642
999.661
999.679
999.698
999.716
999.735
999.753
999.77
999.787
999.804
999.82
999.836
999.851
999.865
999.879
999.892
999.904
999.915
999.926
999.935
999.944
999.953
999.96
999.967
999.972
999.978
999.982
999.986
999.989
999.992
999.994
999.996
999.997
999.998
999.999
999.999
999.999
1000
1000
1000
1000
1000
1000
1000
1000
999.833
999.826
999.818
999.811
999.804
999.797
999.79
999.784
999.777
999.77
999.764
999.758
999.752
999.746
999.74
999.735
999.73
999.725
999.72
999.716
999.713
999.709
999.706
999.704
999.702
999.7
999.699
999.698
999.698
999.699
999.7
999.701
999.704
999.706
999.71
999.714
999.718
999.723
999.729
999.735
999.741
999.748
999.756
999.764
999.772
999.78
999.789
999.798
999.808
999.817
999.826
999.836
999.845
999.855
999.864
999.873
999.882
999.891
999.899
999.908
999.916
999.923
999.931
999.937
999.944
999.95
999.956
999.961
999.966
999.97
999.974
999.978
999.981
999.984
999.987
999.989
999.991
999.993
999.994
999.996
999.997
999.997
999.998
999.999
999.999
999.999
1000
1000
1000
1000
1000
1000
1000
1000
1000
1000
1000
1000
1000
1000
999.909
999.905
999.901
999.898
999.894
999.891
999.887
999.884
999.881
999.877
999.874
999.871
999.869
999.866
999.863
999.861
999.859
999.857
999.855
999.853
999.852
999.851
999.85
999.849
999.849
999.849
999.849
999.85
999.85
999.851
999.853
999.854
999.856
999.859
999.861
999.864
999.867
999.87
999.874
999.878
999.882
999.886
999.89
999.895
999.899
999.904
999.909
999.914
999.919
999.924
999.928
999.933
999.938
999.943
999.947
999.951
999.956
999.96
999.963
999.967
999.97
999.974
999.977
999.979
999.982
999.984
999.986
999.988
999.99
999.992
999.993
999.994
999.995
999.996
999.997
999.998
999.998
999.999
999.999
999.999
999.999
1000
1000
1000
1000
1000
1000
1000
1000
1000
1000
1000
1000
1000
1000
1000
1000
1000
1000
1000
999.952
999.95
999.948
999.946
999.945
999.943
999.941
999.939
999.938
999.936
999.935
999.933
999.932
999.931
999.93
999.929
999.928
999.927
999.926
999.925
999.925
999.924
999.924
999.924
999.924
999.924
999.925
999.925
999.926
999.927
999.928
999.929
999.93
999.931
999.933
999.935
999.936
999.938
999.94
999.942
999.944
999.947
999.949
999.951
999.954
999.956
999.959
999.961
999.964
999.966
999.969
999.971
999.973
999.975
999.978
999.98
999.982
999.984
999.985
999.987
999.988
999.99
999.991
999.992
999.993
999.994
999.995
999.996
999.997
999.997
999.998
999.998
999.999
999.999
999.999
999.999
999.999
1000
1000
1000
1000
1000
1000
1000
1000
1000
1000
1000
1000
1000
1000
1000
1000
1000
1000
1000
1000
1000
1000
1000
999.977
999.976
999.975
999.974
999.973
999.972
999.972
999.971
999.97
999.969
999.969
999.968
999.967
999.967
999.966
999.966
999.965
999.965
999.965
999.964
999.964
999.964
999.964
999.964
999.964
999.964
999.965
999.965
999.965
999.966
999.966
999.967
999.967
999.968
999.969
999.97
999.971
999.971
999.972
999.973
999.974
999.976
999.977
999.978
999.979
999.98
999.981
999.983
999.984
999.985
999.986
999.987
999.988
999.989
999.99
999.991
999.992
999.993
999.994
999.995
999.995
999.996
999.996
999.997
999.997
999.998
999.998
999.998
999.999
999.999
999.999
999.999
999.999
1000
1000
1000
1000
1000
1000
1000
1000
1000
1000
1000
1000
1000
1000
1000
1000
1000
1000
1000
1000
1000
1000
1000
1000
1000
1000
1000
999.993
999.992
999.992
999.992
999.991
999.991
999.991
999.99
999.99
999.99
999.99
999.989
999.989
999.989
999.989
999.989
999.989
999.988
999.988
999.988
999.988
999.988
999.988
999.988
999.988
999.988
999.988
999.988
999.989
999.989
999.989
999.989
999.989
999.989
999.99
999.99
999.99
999.991
999.991
999.991
999.992
999.992
999.992
999.993
999.993
999.993
999.994
999.994
999.995
999.995
999.995
999.996
999.996
999.996
999.997
999.997
999.997
999.998
999.998
999.998
999.998
999.999
999.999
999.999
999.999
999.999
999.999
999.999
1000
1000
1000
1000
1000
1000
1000
1000
1000
1000
1000
1000
1000
1000
1000
1000
1000
1000
1000
1000
1000
1000
1000
1000
1000
1000
1000
1000
1000
1000
1000
1000
945.098
944.697
944.623
944.612
944.616
944.626
944.643
944.667
944.702
944.754
944.832
944.948
945.123
945.391
945.802
946.432
947.408
948.962
951.556
956.375
944.949
944.676
944.627
944.624
944.635
944.654
944.681
944.72
944.775
944.855
944.971
945.142
945.393
945.765
946.319
947.148
948.412
950.401
953.744
960.309
944.825
944.664
944.641
944.65
944.671
944.704
944.75
944.813
944.902
945.027
945.203
945.454
945.814
946.332
947.081
948.181
949.836
952.436
956.875
966.088
944.751
944.675
944.677
944.704
944.745
944.802
944.881
944.987
945.131
945.327
945.596
945.967
946.482
947.201
948.218
949.688
951.881
955.327
961.309
974.061
944.748
944.736
944.769
944.826
944.904
945.007
945.143
945.323
945.558
945.867
946.275
946.819
947.549
948.544
949.924
951.89
954.794
959.337
967.229
983.533
944.868
944.918
945.003
945.118
945.267
945.457
945.697
946.001
946.382
946.858
947.465
948.246
949.267
950.624
952.473
955.066
958.839
964.621
974.409
992.14
945.302
945.446
945.634
945.868
946.154
946.501
946.916
947.411
947.994
948.696
949.562
950.646
952.025
953.825
956.23
959.543
964.246
971.246
982.303
997.332
946.772
947.096
947.48
947.927
948.439
949.015
949.657
950.369
951.183
952.148
953.306
954.719
956.48
958.731
961.689
965.682
971.232
979.134
989.952
999.297
951.933
952.508
953.142
953.832
954.563
955.3
956.085
956.938
957.932
959.078
960.422
962.011
963.961
966.408
969.648
974.016
979.962
987.598
995.64
999.781
968.272
968.865
969.503
970.166
970.833
971.469
972.158
972.935
973.79
974.721
975.777
976.976
978.437
980.237
982.704
986.071
990.415
995.092
998.714
999.825
994.525
994.545
994.594
994.669
994.796
995.046
995.329
995.627
995.934
996.274
996.631
997.042
997.478
997.99
998.443
998.834
999.145
999.502
999.872
999.966
999.48
999.465
999.455
999.448
999.45
999.473
999.507
999.555
999.602
999.652
999.701
999.754
999.804
999.857
999.898
999.928
999.948
999.968
999.993
999.994
999.977
999.974
999.972
999.97
999.967
999.966
999.966
999.969
999.972
999.976
999.98
999.985
999.988
999.992
999.994
999.996
999.997
999.999
1000
999.999
999.999
999.999
999.999
999.999
999.999
999.999
999.999
999.999
999.999
999.999
999.999
999.999
999.999
1000
1000
1000
1000
1000
1000
1000
1000
1000
1000
1000
1000
1000
1000
1000
1000
1000
1000
1000
1000
1000
1000
1000
1000
1000
1000
1000
1000
1000
1000
1000
1000
1000
1000
1000
1000
1000
1000
1000
1000
1000
1000
1000
1000
1000
1000
1000
1000
1000
1000
1000
1000
1000
1000
1000
1000
1000
1000
1000
1000
1000
1000
1000
1000
1000
1000
1000
1000
1000
1000
1000
1000
1000
1000
1000
1000
1000
1000
1000
1000
1000
1000
1000
1000
1000
1000
1000
1000
1000
1000
1000
1000
1000
1000
1000
1000
1000
1000
1000
1000
1000
1000
1000
1000
1000
1000
1000
1000
1000
1000
1000
1000
1000
1000
1000
1000
1000
1000
1000
1000
1000
1000
1000
1000
1000
1000
1000
944.555
944.555
944.555
944.555
944.555
944.555
944.555
944.555
944.555
944.555
944.555
944.555
944.555
944.555
944.555
944.555
944.555
944.555
944.555
944.555
944.555
944.555
944.555
944.555
944.555
944.555
944.555
944.555
944.555
944.555
944.555
944.555
944.555
944.555
944.555
944.555
944.555
944.555
944.555
944.555
944.555
944.555
944.555
944.555
944.555
944.555
944.555
944.555
944.555
944.555
944.555
944.555
944.555
944.555
944.555
944.555
944.555
944.555
944.555
944.555
944.555
944.555
944.555
944.555
944.555
944.555
944.555
944.555
944.555
944.555
944.555
944.555
944.555
944.555
944.555
944.555
944.555
944.555
944.555
944.555
944.555
944.555
944.555
944.555
944.555
944.555
944.555
944.555
944.555
944.555
944.555
944.555
944.555
944.555
944.555
944.555
944.555
944.555
944.555
944.555
944.555
944.555
944.555
944.555
944.555
944.555
944.555
944.555
944.555
944.555
944.555
944.555
944.555
944.555
944.555
944.555
944.555
944.555
944.555
944.555
944.555
944.555
944.555
944.555
944.555
944.555
944.555
944.555
944.555
944.555
944.555
944.555
944.555
944.555
944.555
944.555
944.555
944.555
944.555
944.555
944.555
944.555
944.555
944.555
944.555
944.555
944.555
944.555
944.555
944.555
944.555
944.555
944.555
944.555
944.555
944.555
944.555
944.555
944.555
944.555
944.555
944.555
944.555
944.555
944.555
944.555
944.555
944.555
944.555
944.555
944.555
944.555
944.555
944.555
944.555
944.555
944.555
944.555
944.555
944.555
944.555
944.555
944.555
944.555
944.555
944.555
944.555
944.555
944.555
944.555
944.555
944.555
944.555
944.555
944.555
944.555
944.555
944.555
944.555
944.555
944.555
944.555
944.555
944.555
944.555
944.555
944.555
944.555
944.555
944.555
944.555
944.555
944.555
944.555
944.555
944.555
944.555
944.555
944.555
944.555
944.555
944.555
944.555
944.555
944.555
944.555
944.555
944.555
944.555
944.555
944.555
944.555
944.555
944.555
944.555
944.555
944.555
944.555
944.555
944.555
944.555
944.555
944.555
944.555
944.555
944.555
944.555
944.555
944.555
944.555
944.555
944.555
944.555
944.555
944.555
944.555
944.555
944.555
944.555
944.555
944.555
944.555
944.555
944.555
944.555
944.555
944.555
944.555
944.555
944.555
944.555
944.555
944.555
944.555
944.555
944.555
944.555
944.555
944.555
944.555
944.555
944.555
944.555
944.555
944.555
944.555
944.555
944.555
944.555
944.555
944.555
944.555
944.555
944.555
944.555
944.555
944.555
944.555
944.555
944.555
944.555
944.555
944.555
944.555
944.555
944.555
944.555
944.555
944.555
944.555
944.555
944.555
944.555
944.555
944.555
944.555
944.555
944.555
944.555
944.555
944.555
944.555
944.555
944.555
944.555
944.555
944.555
944.555
944.555
944.555
944.555
944.555
944.555
944.555
944.555
944.555
944.555
944.555
944.555
944.555
944.555
944.555
944.555
944.555
944.555
944.555
944.555
944.555
944.555
944.555
944.555
944.555
944.555
944.555
944.555
944.555
944.555
944.555
944.555
944.555
944.555
944.555
944.555
944.555
944.555
944.555
944.555
944.555
944.555
944.555
944.555
944.555
944.555
944.555
944.555
944.555
944.555
944.555
944.555
944.555
944.555
944.555
944.555
944.555
944.555
944.555
944.555
944.555
944.555
944.555
944.555
944.555
944.555
944.555
944.555
944.555
944.555
944.555
944.555
944.555
944.555
944.555
944.555
944.555
944.555
944.555
944.555
944.555
944.555
944.555
944.555
944.555
944.555
944.555
944.555
944.555
944.555
944.555
944.555
944.555
944.555
944.555
944.555
944.555
944.555
944.555
944.555
944.555
944.555
944.555
944.555
944.555
944.555
944.555
944.555
944.555
944.555
944.555
944.555
944.555
944.555
944.555
944.555
944.555
944.555
944.555
944.555
944.555
944.555
944.555
944.555
944.555
944.555
944.555
944.555
944.555
944.555
944.555
944.555
944.555
944.555
944.555
944.555
944.555
944.555
944.555
944.555
944.555
944.555
944.555
944.555
944.555
944.555
944.555
944.555
944.555
944.555
944.555
944.555
944.555
944.555
944.555
944.555
944.555
944.555
944.555
944.555
944.555
944.555
944.555
944.555
944.555
944.555
944.555
944.555
944.555
944.555
944.555
944.555
944.555
944.555
944.555
944.555
944.555
944.555
944.555
944.555
944.555
944.555
944.555
944.555
944.555
944.555
944.555
944.555
944.555
944.555
944.555
944.555
944.555
944.555
944.555
944.555
944.555
944.555
944.555
944.555
944.555
944.555
944.555
944.555
944.555
944.555
944.555
944.555
944.555
944.555
944.555
944.555
944.555
944.555
944.555
944.555
944.555
944.555
944.555
944.555
944.555
944.555
944.555
944.555
944.555
944.555
944.555
944.555
944.555
944.555
944.555
944.555
944.555
944.555
944.555
944.555
944.555
944.555
944.555
944.555
944.555
944.555
944.555
944.555
944.555
944.555
944.555
944.555
944.555
944.555
944.555
944.555
944.555
944.555
944.555
944.555
944.555
944.555
944.555
944.555
944.555
944.555
944.555
944.555
944.555
944.555
944.555
944.555
944.555
944.555
944.555
944.555
944.555
944.555
944.555
944.555
944.555
944.555
944.555
944.555
944.555
944.555
944.555
944.555
944.555
944.555
944.555
944.555
944.555
944.555
944.555
944.555
944.555
944.555
944.555
944.555
944.555
944.555
944.555
944.555
944.555
944.555
944.555
944.555
944.555
944.555
944.555
944.555
944.555
944.555
944.555
944.555
944.555
944.555
944.555
944.555
944.555
944.555
944.555
944.555
944.555
944.555
944.555
944.555
944.555
944.555
944.555
944.555
944.555
944.555
944.555
944.555
944.555
944.555
944.555
944.555
944.555
944.555
944.555
944.555
944.555
944.555
944.555
944.555
944.555
944.555
944.555
944.555
944.555
944.555
944.555
944.555
944.555
944.555
944.555
944.555
944.555
944.555
944.555
944.555
944.555
944.555
944.555
944.555
944.555
944.555
944.555
944.555
944.555
944.555
944.555
944.555
944.555
944.555
944.555
944.555
944.555
944.555
944.555
944.555
944.555
944.555
944.555
944.555
944.555
944.555
944.555
944.555
944.555
944.555
944.555
944.555
944.555
944.555
944.555
944.555
944.555
944.555
944.555
944.555
944.555
944.555
944.555
944.555
944.555
944.555
944.555
944.555
944.555
944.555
944.555
944.555
944.555
944.555
944.555
944.555
944.555
944.555
944.555
944.555
944.555
944.555
944.555
944.555
944.555
944.555
944.555
944.555
944.555
944.555
944.555
944.555
944.555
944.555
944.555
944.555
944.555
944.555
944.555
944.555
944.555
944.555
944.555
944.555
944.555
944.555
944.555
944.555
944.555
944.555
944.555
944.555
944.555
944.555
944.555
944.555
944.555
944.555
944.555
944.555
944.555
944.555
944.555
944.555
944.555
944.555
944.555
944.555
944.555
944.555
944.555
944.555
944.555
944.555
944.555
944.555
944.555
944.555
944.555
944.555
944.555
944.555
944.555
944.555
944.555
944.555
944.555
944.555
944.555
944.555
944.555
944.555
944.555
944.555
944.555
944.555
944.555
944.555
944.555
944.555
944.555
944.555
944.555
944.555
944.555
944.555
944.555
944.555
944.555
944.555
944.555
944.555
944.555
944.555
944.555
944.555
944.555
944.555
944.555
944.555
944.555
944.555
944.555
944.555
944.555
944.555
944.555
944.555
944.555
944.555
944.555
944.555
944.555
944.555
944.555
944.555
944.555
944.555
944.555
944.555
944.555
944.555
944.555
944.555
944.555
944.555
944.555
944.555
944.555
944.555
944.555
944.555
944.555
944.555
944.555
944.555
944.555
944.555
944.555
944.555
944.555
944.555
944.555
944.555
944.555
944.555
944.555
944.555
944.555
944.555
944.555
944.555
944.555
944.555
944.555
944.555
944.555
944.555
944.555
944.555
944.555
944.555
944.555
944.555
944.555
944.555
944.555
944.555
944.555
944.555
944.555
944.555
944.555
944.555
944.555
944.555
944.555
944.555
944.555
944.555
944.555
944.555
944.555
944.555
944.555
944.555
944.555
944.555
944.555
944.555
944.555
944.555
944.555
944.555
944.555
944.555
944.555
944.555
944.555
944.555
944.555
944.555
944.555
944.555
944.555
944.555
944.555
944.555
944.555
944.555
944.555
944.555
944.555
944.555
944.555
944.555
944.555
944.555
944.555
944.555
944.555
944.555
944.555
944.555
944.555
944.555
944.555
944.555
944.555
944.555
944.555
944.555
944.555
944.555
944.555
944.555
944.555
944.555
944.555
944.555
944.555
944.555
944.555
944.555
944.555
944.555
944.555
944.555
944.555
944.555
944.555
944.555
944.555
944.555
944.555
944.555
944.555
944.555
944.555
944.555
944.555
944.555
944.555
944.555
944.555
944.555
944.555
944.555
944.555
944.555
944.555
944.555
944.555
944.555
944.555
944.555
944.555
944.555
944.555
944.555
944.555
944.555
944.555
944.555
944.555
944.555
944.555
944.555
944.555
944.555
944.555
944.555
944.555
944.555
944.555
944.555
944.555
944.555
944.555
944.555
944.555
944.555
944.555
944.555
944.555
944.555
944.555
944.555
944.555
944.555
944.555
944.555
944.555
944.555
944.555
944.555
944.555
944.555
944.555
944.555
944.555
944.555
944.555
944.555
944.555
944.555
944.555
944.555
944.555
944.555
944.555
944.555
944.555
944.555
944.555
944.555
944.555
944.555
944.555
944.555
944.555
944.555
944.555
944.555
944.555
944.555
944.555
944.555
944.555
944.555
944.555
944.555
944.555
944.555
944.555
944.555
944.555
944.555
944.555
944.555
944.555
944.555
944.555
944.555
944.555
944.555
944.555
944.555
944.555
944.555
944.555
944.555
944.555
944.555
944.555
944.555
944.555
944.555
944.555
944.555
944.555
944.555
944.555
944.555
944.555
944.555
944.555
944.555
944.555
944.555
944.555
944.555
944.555
944.555
944.555
944.555
944.555
944.555
944.555
944.555
944.555
944.555
944.555
944.555
944.555
944.555
944.555
944.555
944.555
944.555
944.555
944.555
944.555
944.555
944.555
944.555
944.555
944.555
944.555
944.555
944.555
944.555
944.555
944.555
944.555
944.555
944.555
944.555
944.555
944.555
944.555
944.555
944.555
944.555
944.555
944.555
944.555
944.555
944.555
944.555
944.555
944.555
944.555
944.555
944.555
944.555
944.555
944.555
944.555
944.555
944.555
944.555
944.555
944.555
944.555
944.555
944.555
944.555
944.555
944.555
944.555
944.555
944.555
944.555
944.555
944.555
944.555
944.555
944.555
944.555
944.555
944.555
944.555
944.555
944.555
944.555
944.555
944.555
944.555
944.555
944.555
944.555
944.555
944.555
944.555
944.555
944.555
944.555
944.555
944.555
944.555
944.555
944.555
944.555
944.555
944.555
944.555
944.555
944.555
944.555
944.555
944.555
944.555
944.555
944.555
944.555
944.555
944.555
944.555
944.555
944.555
944.555
944.555
944.555
944.555
944.555
944.555
944.555
944.555
944.555
944.555
944.555
944.555
944.555
944.555
944.555
944.555
944.555
944.555
944.555
944.555
944.555
944.555
944.555
944.555
944.555
944.555
944.555
944.555
944.555
944.555
944.555
944.555
944.555
944.555
944.555
944.555
944.555
944.555
944.555
944.555
944.555
944.555
944.555
944.555
944.555
944.555
944.555
944.555
944.555
944.555
944.555
944.555
944.555
944.555
944.555
944.555
944.555
944.555
944.555
944.555
944.555
944.555
944.555
944.555
944.555
944.555
944.555
944.555
944.555
944.555
944.555
944.555
944.555
944.555
944.555
944.555
944.555
944.555
944.555
944.555
944.555
944.555
944.555
944.555
944.555
944.555
944.555
944.555
944.555
944.555
944.555
944.555
944.555
944.555
944.555
944.555
944.555
944.555
944.555
944.555
944.555
944.555
944.555
944.555
944.555
944.555