/*--------------------------------*- C++ -*----------------------------------*\
| =========                 |                                                 |
| \\      /  F ield         | OpenFOAM: The Open Source CFD Toolbox           |
|  \\    /   O peration     | Version:  2.1.0                                 |
|   \\  /    A nd           | Web:      www.OpenFOAM.org                      |
|    \\/     M anipulation  |                                                 |
\*---------------------------------------------------------------------------*/
FoamFile
{
    version     2.0;
    format      ascii;
    class       volScalarField;
    location    "0.27";
    object      T;
}
// * * * * * * * * * * * * * * * * * * * * * * * * * * * * * * * * * * * * * //

dimensions      [0 0 0 1 0 0 0];

internalField   nonuniform List<scalar> 
6400
(
293.936
294.017
294.104
294.197
294.298
294.407
294.524
294.651
294.787
294.934
295.091
295.26
295.441
295.634
295.841
296.063
296.299
296.55
296.817
297.102
297.404
297.724
298.063
298.422
298.801
299.201
299.622
300.065
300.53
301.018
301.528
302.062
302.619
303.199
303.803
304.431
305.081
305.754
306.449
307.167
307.905
308.664
309.442
310.24
311.055
311.888
312.737
313.602
314.481
315.375
316.281
317.2
318.134
319.08
320.039
321.011
321.994
322.988
323.992
325.007
326.031
327.064
328.106
329.155
330.211
331.274
332.342
333.414
334.49
335.568
336.647
337.728
338.808
339.889
340.971
342.053
343.137
344.223
345.31
346.399
347.486
348.569
349.639
350.686
351.693
352.639
353.49
354.194
354.671
354.779
354.259
352.587
348.696
340.738
328.843
335.101
369.557
388.102
391.362
391.956
294.863
295.023
295.196
295.381
295.58
295.793
296.02
296.264
296.524
296.801
297.097
297.412
297.746
298.101
298.477
298.875
299.296
299.741
300.21
300.704
301.225
301.771
302.346
302.948
303.578
304.236
304.924
305.64
306.386
307.161
307.966
308.799
309.662
310.553
311.473
312.42
313.395
314.395
315.421
316.471
317.545
318.641
319.757
320.894
322.048
323.22
324.407
325.609
326.823
328.052
329.295
330.55
331.817
333.095
334.384
335.683
336.991
338.307
339.631
340.963
342.301
343.644
344.993
346.345
347.701
349.059
350.418
351.778
353.136
354.493
355.846
357.194
358.537
359.874
361.202
362.521
363.83
365.126
366.409
367.675
368.923
370.149
371.349
372.519
373.652
374.743
375.787
376.78
377.721
378.615
379.481
380.361
381.341
382.573
384.238
386.336
388.994
391.083
391.872
392.19
295.821
296.057
296.315
296.59
296.883
297.196
297.529
297.884
298.262
298.663
299.089
299.54
300.018
300.522
301.055
301.615
302.205
302.825
303.474
304.155
304.868
305.614
306.392
307.204
308.049
308.927
309.839
310.785
311.763
312.775
313.819
314.895
316.003
317.141
318.309
319.506
320.731
321.982
323.259
324.56
325.884
327.229
328.594
329.977
331.377
332.793
334.224
335.667
337.122
338.587
340.062
341.546
343.035
344.529
346.027
347.527
349.028
350.529
352.03
353.527
355.021
356.509
357.991
359.464
360.928
362.381
363.821
365.247
366.656
368.048
369.421
370.772
372.099
373.401
374.676
375.92
377.132
378.309
379.447
380.543
381.594
382.597
383.549
384.447
385.289
386.074
386.8
387.47
388.084
388.646
389.158
389.627
390.056
390.452
390.818
391.151
391.543
391.936
392.211
392.413
296.99
297.317
297.675
298.055
298.459
298.888
299.345
299.829
300.343
300.887
301.462
302.07
302.71
303.385
304.095
304.84
305.621
306.439
307.295
308.188
309.119
310.089
311.097
312.144
313.228
314.351
315.51
316.707
317.94
319.207
320.51
321.845
323.213
324.611
326.039
327.494
328.976
330.482
332.011
333.561
335.129
336.715
338.315
339.929
341.554
343.187
344.828
346.474
348.124
349.773
351.418
353.058
354.69
356.312
357.923
359.518
361.097
362.657
364.196
365.711
367.201
368.662
370.092
371.489
372.851
374.174
375.456
376.696
377.89
379.037
380.135
381.181
382.176
383.116
384.002
384.833
385.607
386.327
386.991
387.601
388.158
388.664
389.121
389.533
389.901
390.229
390.52
390.778
391.006
391.207
391.385
391.544
391.686
391.815
391.935
392.048
392.176
392.314
392.451
392.592
298.408
298.844
299.318
299.822
300.356
300.922
301.522
302.157
302.829
303.537
304.284
305.071
305.898
306.765
307.675
308.627
309.621
310.659
311.741
312.866
314.034
315.245
316.498
317.792
319.126
320.5
321.913
323.362
324.847
326.366
327.917
329.498
331.108
332.743
334.403
336.084
337.783
339.499
341.228
342.968
344.716
346.468
348.222
349.974
351.721
353.46
355.187
356.9
358.595
360.268
361.916
363.536
365.126
366.681
368.199
369.678
371.115
372.506
373.85
375.145
376.388
377.579
378.715
379.795
380.82
381.788
382.699
383.554
384.354
385.099
385.792
386.432
387.024
387.568
388.067
388.523
388.94
389.319
389.663
389.975
390.258
390.514
390.746
390.956
391.145
391.317
391.472
391.612
391.74
391.855
391.959
392.054
392.14
392.218
392.29
392.358
392.429
392.504
392.587
392.678
300.064
300.618
301.22
301.857
302.532
303.246
304
304.795
305.632
306.512
307.436
308.404
309.417
310.475
311.578
312.726
313.918
315.155
316.436
317.759
319.125
320.531
321.976
323.459
324.977
326.529
328.112
329.725
331.365
333.029
334.714
336.419
338.139
339.871
341.613
343.362
345.113
346.864
348.61
350.349
352.077
353.79
355.485
357.159
358.807
360.427
362.016
363.571
365.089
366.567
368.003
369.395
370.741
372.04
373.289
374.49
375.639
376.738
377.785
378.782
379.728
380.625
381.472
382.272
383.026
383.734
384.4
385.024
385.608
386.155
386.666
387.144
387.589
388.004
388.391
388.752
389.088
389.401
389.692
389.963
390.216
390.451
390.67
390.874
391.064
391.242
391.407
391.561
391.704
391.835
391.955
392.064
392.161
392.246
392.319
392.38
392.437
392.49
392.538
392.571
301.72
302.377
303.085
303.833
304.622
305.451
306.323
307.236
308.192
309.191
310.232
311.316
312.441
313.608
314.814
316.061
317.345
318.666
320.021
321.41
322.83
324.279
325.755
327.256
328.777
330.319
331.876
333.447
335.028
336.617
338.211
339.806
341.399
342.987
344.568
346.138
347.694
349.234
350.754
352.253
353.727
355.176
356.596
357.987
359.346
360.672
361.964
363.222
364.445
365.632
366.783
367.898
368.977
370.021
371.03
372.004
372.945
373.852
374.727
375.57
376.383
377.167
377.922
378.65
379.351
380.027
380.678
381.306
381.911
382.495
383.057
383.6
384.123
384.627
385.113
385.582
386.035
386.472
386.893
387.299
387.691
388.07
388.435
388.789
389.131
389.461
389.781
390.089
390.385
390.665
390.928
391.171
391.387
391.573
391.724
391.832
391.918
391.979
392.002
391.95
302.792
303.485
304.225
305.001
305.814
306.662
307.547
308.467
309.421
310.41
311.432
312.486
313.57
314.684
315.826
316.994
318.186
319.401
320.635
321.887
323.155
324.436
325.728
327.03
328.337
329.648
330.959
332.269
333.575
334.874
336.165
337.444
338.711
339.964
341.2
342.418
343.617
344.796
345.954
347.09
348.204
349.295
350.363
351.409
352.432
353.432
354.41
355.367
356.303
357.218
358.113
358.989
359.846
360.685
361.507
362.313
363.104
363.879
364.641
365.389
366.125
366.849
367.563
368.266
368.96
369.646
370.323
370.993
371.657
372.314
372.966
373.613
374.255
374.893
375.528
376.161
376.791
377.421
378.051
378.683
379.319
379.959
380.606
381.261
381.926
382.601
383.287
383.983
384.688
385.395
386.099
386.788
387.448
388.059
388.6
389.034
389.355
389.583
389.675
389.534
302.606
303.232
303.892
304.579
305.292
306.03
306.791
307.576
308.382
309.21
310.058
310.924
311.806
312.705
313.617
314.542
315.476
316.42
317.369
318.324
319.282
320.241
321.199
322.156
323.11
324.06
325.004
325.942
326.871
327.791
328.7
329.599
330.486
331.36
332.221
333.069
333.904
334.724
335.531
336.324
337.103
337.868
338.62
339.358
340.084
340.797
341.498
342.187
342.864
343.53
344.185
344.83
345.464
346.089
346.705
347.311
347.91
348.5
349.083
349.659
350.228
350.793
351.352
351.907
352.46
353.009
353.557
354.104
354.651
355.198
355.748
356.3
356.856
357.418
357.986
358.563
359.15
359.749
360.363
360.996
361.65
362.33
363.04
363.787
364.577
365.417
366.314
367.274
368.303
369.407
370.586
371.838
373.155
374.525
375.924
377.306
378.483
379.433
380.074
380.156
300.798
301.256
301.734
302.227
302.735
303.256
303.791
304.338
304.897
305.467
306.047
306.637
307.236
307.842
308.456
309.075
309.699
310.327
310.958
311.592
312.226
312.86
313.493
314.126
314.757
315.386
316.012
316.633
317.25
317.861
318.466
319.065
319.656
320.24
320.815
321.383
321.941
322.491
323.031
323.562
324.083
324.595
325.096
325.588
326.071
326.543
327.006
327.459
327.901
328.335
328.758
329.172
329.576
329.971
330.356
330.732
331.097
331.454
331.801
332.138
332.467
332.785
333.095
333.398
333.694
333.983
334.267
334.545
334.817
335.086
335.35
335.611
335.869
336.125
336.38
336.634
336.888
337.142
337.399
337.658
337.92
338.187
338.46
338.738
339.025
339.339
339.685
340.072
340.507
341.002
341.563
342.202
342.928
343.757
344.707
345.803
347.082
348.357
349.379
349.784
298.181
298.458
298.747
299.043
299.349
299.661
299.982
300.309
300.644
300.985
301.333
301.687
302.046
302.411
302.78
303.154
303.532
303.913
304.297
304.683
305.071
305.46
305.85
306.241
306.631
307.02
307.407
307.792
308.174
308.553
308.928
309.298
309.664
310.023
310.377
310.724
311.065
311.398
311.723
312.041
312.35
312.651
312.942
313.225
313.499
313.762
314.017
314.261
314.495
314.72
314.934
315.137
315.33
315.513
315.685
315.846
315.996
316.135
316.264
316.381
316.488
316.583
316.667
316.738
316.796
316.839
316.867
316.881
316.878
316.86
316.824
316.771
316.7
316.609
316.499
316.368
316.215
316.041
315.845
315.626
315.385
315.121
314.836
314.53
314.204
313.842
313.44
312.994
312.5
311.964
311.381
310.742
310.041
309.27
308.422
307.491
306.478
305.393
304.276
303.205
296.155
296.31
296.471
296.636
296.804
296.976
297.152
297.332
297.515
297.7
297.89
298.081
298.276
298.473
298.672
298.872
299.075
299.278
299.482
299.687
299.892
300.097
300.302
300.506
300.709
300.911
301.112
301.311
301.507
301.7
301.891
302.078
302.261
302.44
302.614
302.784
302.948
303.107
303.26
303.407
303.547
303.681
303.808
303.927
304.04
304.144
304.241
304.329
304.409
304.48
304.543
304.596
304.64
304.675
304.699
304.714
304.718
304.711
304.693
304.663
304.622
304.569
304.504
304.426
304.335
304.231
304.113
303.981
303.834
303.672
303.495
303.302
303.093
302.869
302.628
302.37
302.097
301.807
301.502
301.182
300.849
300.503
300.146
299.78
299.407
299.03
298.65
298.273
297.896
297.513
297.122
296.73
296.341
295.958
295.584
295.226
294.89
294.584
294.323
294.119
294.873
294.957
295.045
295.134
295.224
295.316
295.41
295.504
295.6
295.697
295.795
295.894
295.994
296.094
296.194
296.295
296.395
296.496
296.595
296.694
296.792
296.889
296.985
297.079
297.171
297.262
297.35
297.437
297.52
297.601
297.678
297.752
297.823
297.889
297.952
298.01
298.064
298.113
298.158
298.197
298.231
298.26
298.284
298.302
298.315
298.321
298.322
298.318
298.307
298.29
298.267
298.238
298.203
298.161
298.112
298.057
297.996
297.928
297.853
297.771
297.683
297.589
297.487
297.38
297.266
297.146
297.02
296.888
296.751
296.609
296.461
296.31
296.154
295.995
295.832
295.668
295.502
295.335
295.169
295.004
294.841
294.681
294.526
294.377
294.235
294.101
293.975
293.86
293.754
293.66
293.578
293.505
293.439
293.381
293.331
293.289
293.254
293.227
293.206
293.192
294.102
294.147
294.193
294.24
294.287
294.334
294.382
294.43
294.479
294.527
294.576
294.625
294.673
294.722
294.77
294.818
294.865
294.911
294.956
295.001
295.044
295.085
295.126
295.164
295.201
295.237
295.27
295.301
295.33
295.356
295.38
295.401
295.419
295.434
295.446
295.455
295.46
295.462
295.461
295.456
295.448
295.436
295.421
295.403
295.381
295.356
295.327
295.295
295.26
295.223
295.182
295.138
295.092
295.043
294.991
294.938
294.881
294.823
294.763
294.701
294.638
294.573
294.508
294.441
294.374
294.306
294.238
294.171
294.103
294.037
293.971
293.907
293.843
293.782
293.722
293.665
293.61
293.558
293.508
293.462
293.419
293.379
293.342
293.31
293.281
293.255
293.233
293.215
293.199
293.187
293.177
293.17
293.165
293.161
293.158
293.155
293.153
293.152
293.151
293.151
293.67
293.693
293.717
293.741
293.765
293.789
293.812
293.836
293.86
293.883
293.906
293.929
293.952
293.974
293.996
294.017
294.038
294.058
294.077
294.095
294.112
294.128
294.143
294.157
294.17
294.181
294.191
294.199
294.206
294.211
294.215
294.217
294.216
294.215
294.211
294.205
294.198
294.188
294.177
294.163
294.148
294.132
294.113
294.093
294.071
294.048
294.023
293.998
293.971
293.943
293.914
293.884
293.854
293.823
293.792
293.76
293.728
293.697
293.665
293.633
293.602
293.572
293.542
293.512
293.484
293.456
293.43
293.404
293.38
293.357
293.335
293.314
293.295
293.277
293.26
293.245
293.231
293.218
293.207
293.197
293.188
293.18
293.174
293.168
293.164
293.16
293.157
293.155
293.153
293.152
293.151
293.151
293.151
293.15
293.15
293.15
293.15
293.15
293.15
293.15
293.435
293.447
293.46
293.472
293.484
293.496
293.507
293.519
293.53
293.541
293.552
293.563
293.573
293.583
293.593
293.602
293.611
293.619
293.626
293.633
293.64
293.645
293.65
293.655
293.658
293.661
293.663
293.664
293.664
293.663
293.661
293.659
293.655
293.65
293.645
293.638
293.63
293.622
293.612
293.602
293.591
293.579
293.566
293.553
293.539
293.524
293.509
293.494
293.478
293.462
293.446
293.43
293.414
293.398
293.382
293.366
293.351
293.336
293.321
293.307
293.294
293.281
293.268
293.257
293.246
293.235
293.225
293.217
293.208
293.201
293.194
293.187
293.182
293.177
293.172
293.168
293.165
293.162
293.16
293.157
293.156
293.154
293.153
293.152
293.152
293.151
293.151
293.15
293.15
293.15
293.15
293.15
293.15
293.15
293.15
293.15
293.15
293.15
293.15
293.15
293.305
293.312
293.318
293.324
293.33
293.336
293.342
293.348
293.353
293.359
293.364
293.369
293.374
293.378
293.383
293.387
293.391
293.394
293.397
293.4
293.402
293.404
293.406
293.407
293.407
293.407
293.407
293.406
293.405
293.403
293.401
293.398
293.395
293.391
293.387
293.382
293.377
293.371
293.365
293.359
293.352
293.345
293.337
293.329
293.322
293.313
293.305
293.297
293.289
293.28
293.272
293.264
293.256
293.248
293.24
293.233
293.226
293.219
293.212
293.206
293.2
293.195
293.19
293.185
293.181
293.177
293.173
293.17
293.167
293.164
293.162
293.16
293.158
293.157
293.155
293.154
293.153
293.152
293.152
293.151
293.151
293.151
293.15
293.15
293.15
293.15
293.15
293.15
293.15
293.15
293.15
293.15
293.15
293.15
293.15
293.15
293.15
293.15
293.15
293.15
293.232
293.235
293.238
293.241
293.244
293.247
293.25
293.253
293.256
293.258
293.261
293.263
293.266
293.268
293.27
293.272
293.273
293.275
293.276
293.277
293.278
293.279
293.279
293.279
293.279
293.279
293.278
293.277
293.276
293.275
293.273
293.271
293.269
293.267
293.264
293.261
293.258
293.255
293.252
293.248
293.245
293.241
293.237
293.233
293.229
293.224
293.22
293.216
293.212
293.208
293.204
293.199
293.196
293.192
293.188
293.185
293.181
293.178
293.175
293.172
293.17
293.167
293.165
293.163
293.161
293.16
293.158
293.157
293.156
293.155
293.154
293.153
293.152
293.152
293.152
293.151
293.151
293.151
293.15
293.15
293.15
293.15
293.15
293.15
293.15
293.15
293.15
293.15
293.15
293.15
293.15
293.15
293.15
293.15
293.15
293.15
293.15
293.15
293.15
293.15
293.189
293.191
293.193
293.194
293.196
293.197
293.198
293.2
293.201
293.202
293.203
293.205
293.206
293.207
293.207
293.208
293.209
293.21
293.21
293.211
293.211
293.211
293.211
293.211
293.211
293.211
293.21
293.21
293.209
293.208
293.208
293.207
293.206
293.204
293.203
293.202
293.2
293.199
293.197
293.195
293.193
293.192
293.19
293.188
293.186
293.184
293.182
293.18
293.178
293.176
293.174
293.172
293.17
293.168
293.167
293.165
293.163
293.162
293.161
293.159
293.158
293.157
293.156
293.155
293.154
293.154
293.153
293.153
293.152
293.152
293.151
293.151
293.151
293.151
293.151
293.15
293.15
293.15
293.15
293.15
293.15
293.15
293.15
293.15
293.15
293.15
293.15
293.15
293.15
293.15
293.15
293.15
293.15
293.15
293.15
293.15
293.15
293.15
293.15
293.15
293.163
293.163
293.164
293.164
293.165
293.165
293.166
293.166
293.167
293.167
293.168
293.168
293.168
293.169
293.169
293.169
293.169
293.17
293.17
293.17
293.17
293.17
293.17
293.17
293.17
293.17
293.17
293.17
293.17
293.169
293.169
293.169
293.168
293.168
293.168
293.167
293.167
293.166
293.166
293.165
293.164
293.164
293.163
293.163
293.162
293.161
293.161
293.16
293.159
293.159
293.158
293.157
293.157
293.156
293.156
293.155
293.155
293.154
293.154
293.153
293.153
293.152
293.152
293.152
293.151
293.151
293.151
293.151
293.151
293.151
293.15
293.15
293.15
293.15
293.15
293.15
293.15
293.15
293.15
293.15
293.15
293.15
293.15
293.15
293.15
293.15
293.15
293.15
293.15
293.15
293.15
293.15
293.15
293.15
293.15
293.15
293.15
293.15
293.15
293.15
392.112
392.878
393.018
393.041
393.033
393.013
392.981
392.935
392.868
392.769
392.621
392.4
392.064
391.553
390.771
389.572
387.716
384.771
379.877
370.854
392.397
392.919
393.012
393.017
392.996
392.96
392.909
392.835
392.729
392.576
392.354
392.029
391.55
390.841
389.786
388.21
385.813
382.052
375.77
363.558
392.635
392.941
392.986
392.969
392.927
392.865
392.778
392.656
392.487
392.249
391.912
391.433
390.747
389.761
388.337
386.251
383.119
378.222
369.925
352.946
392.775
392.92
392.915
392.865
392.787
392.677
392.528
392.325
392.05
391.676
391.163
390.456
389.476
388.11
386.18
383.399
379.266
372.809
361.713
338.512
392.781
392.804
392.74
392.632
392.484
392.286
392.026
391.684
391.236
390.647
389.871
388.836
387.448
385.563
382.953
379.249
373.804
365.356
350.865
321.67
392.552
392.457
392.294
392.074
391.79
391.428
390.97
390.392
389.667
388.761
387.609
386.127
384.196
381.633
378.154
373.297
366.277
355.629
337.888
306.646
391.724
391.448
391.09
390.645
390.1
389.441
388.651
387.711
386.605
385.275
383.638
381.592
378.994
375.618
371.125
364.975
356.315
343.582
323.839
297.707
388.925
388.31
387.58
386.732
385.762
384.672
383.459
382.114
380.579
378.764
376.591
373.945
370.661
366.478
361.013
353.688
343.607
329.453
310.44
294.349
379.169
378.088
376.898
375.605
374.239
372.86
371.397
369.808
367.96
365.837
363.351
360.42
356.839
352.363
346.473
338.595
327.982
314.542
300.609
293.523
348.971
347.894
346.736
345.536
344.329
343.181
341.938
340.538
339.002
337.33
335.439
333.296
330.693
327.496
323.133
317.214
309.637
301.553
295.344
293.448
302.529
302.494
302.409
302.28
302.062
301.632
301.145
300.633
300.105
299.521
298.908
298.205
297.457
296.582
295.807
295.139
294.607
293.999
293.368
293.207
294.037
294.062
294.079
294.09
294.087
294.049
293.99
293.909
293.828
293.743
293.66
293.569
293.483
293.393
293.324
293.272
293.239
293.204
293.162
293.16
293.19
293.194
293.198
293.202
293.206
293.208
293.208
293.204
293.198
293.19
293.183
293.176
293.17
293.164
293.16
293.157
293.154
293.153
293.15
293.151
293.151
293.151
293.151
293.151
293.152
293.152
293.152
293.152
293.152
293.152
293.152
293.151
293.151
293.151
293.15
293.15
293.15
293.15
293.15
293.15
293.15
293.15
293.15
293.15
293.15
293.15
293.15
293.15
293.15
293.15
293.15
293.15
293.15
293.15
293.15
293.15
293.15
293.15
293.15
293.15
293.15
293.15
293.15
293.15
293.15
293.15
293.15
293.15
293.15
293.15
293.15
293.15
293.15
293.15
293.15
293.15
293.15
293.15
293.15
293.15
293.15
293.15
293.15
293.15
293.15
293.15
293.15
293.15
293.15
293.15
293.15
293.15
293.15
293.15
293.15
293.15
293.15
293.15
293.15
293.15
293.15
293.15
293.15
293.15
293.15
293.15
293.15
293.15
293.15
293.15
293.15
293.15
293.15
293.15
293.15
293.15
293.15
293.15
293.15
293.15
293.15
293.15
293.15
293.15
293.15
293.15
293.15
293.15
293.15
293.15
293.15
293.15
293.15
293.15
293.15
293.15
293.15
293.15
293.15
293.15
293.15
293.15
293.15
293.15
293.15
293.15
293.15
293.15
293.15
293.15
293.15
293.15
293.15
293.15
293.15
293.15
293.15
293.15
293.15
293.15
393.15
393.15
393.15
393.15
393.15
393.15
393.15
393.15
393.15
393.15
393.15
393.15
393.15
393.15
393.15
393.15
393.15
393.15
393.15
393.15
393.15
393.15
393.15
393.15
393.15
393.15
393.15
393.15
393.15
393.15
393.15
393.15
393.15
393.15
393.15
393.15
393.15
393.15
393.15
393.15
393.15
393.15
393.15
393.15
393.15
393.15
393.15
393.15
393.15
393.15
393.15
393.15
393.15
393.15
393.15
393.15
393.15
393.15
393.15
393.15
393.15
393.15
393.15
393.15
393.15
393.15
393.15
393.15
393.15
393.15
393.15
393.15
393.15
393.15
393.15
393.15
393.15
393.15
393.15
393.15
393.15
393.15
393.15
393.15
393.15
393.15
393.15
393.15
393.15
393.15
393.15
393.15
393.15
393.15
393.15
393.15
393.15
393.15
393.15
393.15
393.15
393.15
393.15
393.15
393.15
393.15
393.15
393.15
393.15
393.15
393.15
393.15
393.15
393.15
393.15
393.15
393.15
393.15
393.15
393.15
393.15
393.15
393.15
393.15
393.15
393.15
393.15
393.15
393.15
393.15
393.15
393.15
393.15
393.15
393.15
393.15
393.15
393.15
393.15
393.15
393.15
393.15
393.15
393.15
393.15
393.15
393.15
393.15
393.15
393.15
393.15
393.15
393.15
393.15
393.15
393.15
393.15
393.15
393.15
393.15
393.15
393.15
393.15
393.15
393.15
393.15
393.15
393.15
393.15
393.15
393.15
393.15
393.15
393.15
393.15
393.15
393.15
393.15
393.15
393.15
393.15
393.15
393.15
393.15
393.15
393.15
393.15
393.15
393.15
393.15
393.15
393.15
393.15
393.15
393.15
393.15
393.15
393.15
393.15
393.15
393.15
393.15
393.15
393.15
393.15
393.15
393.15
393.15
393.15
393.15
393.15
393.15
393.15
393.15
393.15
393.15
393.15
393.15
393.15
393.15
393.15
393.15
393.15
393.15
393.15
393.15
393.15
393.15
393.15
393.15
393.15
393.15
393.15
393.15
393.15
393.15
393.15
393.15
393.15
393.15
393.15
393.15
393.15
393.15
393.15
393.15
393.15
393.15
393.15
393.15
393.15
393.15
393.15
393.15
393.15
393.15
393.15
393.15
393.15
393.15
393.15
393.15
393.15
393.15
393.15
393.15
393.15
393.15
393.15
393.15
393.15
393.15
393.15
393.15
393.15
393.15
393.15
393.15
393.15
393.15
393.15
393.15
393.15
393.15
393.15
393.15
393.15
393.15
393.15
393.15
393.15
393.15
393.15
393.15
393.15
393.15
393.15
393.15
393.15
393.15
393.15
393.15
393.15
393.15
393.15
393.15
393.15
393.15
393.15
393.15
393.15
393.15
393.15
393.15
393.15
393.15
393.15
393.15
393.15
393.15
393.15
393.15
393.15
393.15
393.15
393.15
393.15
393.15
393.15
393.15
393.15
393.15
393.15
393.15
393.15
393.15
393.15
393.15
393.15
393.15
393.15
393.15
393.15
393.15
393.15
393.15
393.15
393.15
393.15
393.15
393.15
393.15
393.15
393.15
393.15
393.15
393.15
393.15
393.15
393.15
393.15
393.15
393.15
393.15
393.15
393.15
393.15
393.15
393.15
393.15
393.15
393.15
393.15
393.15
393.15
393.15
393.15
393.15
393.15
393.15
393.15
393.15
393.15
393.15
393.15
393.15
393.15
393.15
393.15
393.15
393.15
393.15
393.15
393.15
393.15
393.15
393.15
393.15
393.15
393.15
393.15
393.15
393.15
393.15
393.15
393.15
393.15
393.15
393.15
393.15
393.15
393.15
393.15
393.15
393.15
393.15
393.15
393.15
393.15
393.15
393.15
393.15
393.15
393.15
393.15
393.15
393.15
393.15
393.15
393.15
393.15
393.15
393.15
393.15
393.15
393.15
393.15
393.15
393.15
393.15
393.15
393.15
393.15
393.15
393.15
393.15
393.15
393.15
393.15
393.15
393.15
393.15
393.15
393.15
393.15
393.15
393.15
393.15
393.15
393.15
393.15
393.15
393.15
393.15
393.15
393.15
393.15
393.15
393.15
393.15
393.15
393.15
393.15
393.15
393.15
393.15
393.15
393.15
393.15
393.15
393.15
393.15
393.15
393.15
393.15
393.15
393.15
393.15
393.15
393.15
393.15
393.15
393.15
393.15
393.15
393.15
393.15
393.15
393.15
393.15
393.15
393.15
393.15
393.15
393.15
393.15
393.15
393.15
393.15
393.15
393.15
393.15
393.15
393.15
393.15
393.15
393.15
393.15
393.15
393.15
393.15
393.15
393.15
393.15
393.15
393.15
393.15
393.15
393.15
393.15
393.15
393.15
393.15
393.15
393.15
393.15
393.15
393.15
393.15
393.15
393.15
393.15
393.15
393.15
393.15
393.15
393.15
393.15
393.15
393.15
393.15
393.15
393.15
393.15
393.15
393.15
393.15
393.15
393.15
393.15
393.15
393.15
393.15
393.15
393.15
393.15
393.15
393.15
393.15
393.15
393.15
393.15
393.15
393.15
393.15
393.15
393.15
393.15
393.15
393.15
393.15
393.15
393.15
393.15
393.15
393.15
393.15
393.15
393.15
393.15
393.15
393.15
393.15
393.15
393.15
393.15
393.15
393.15
393.15
393.15
393.15
393.15
393.15
393.15
393.15
393.15
393.15
393.15
393.15
393.15
393.15
393.15
393.15
393.15
393.15
393.15
393.15
393.15
393.15
393.15
393.15
393.15
393.15
393.15
393.15
393.15
393.15
393.15
393.15
393.15
393.15
393.15
393.15
393.15
393.15
393.15
393.15
393.15
393.15
393.15
393.15
393.15
393.15
393.15
393.15
393.15
393.15
393.15
393.15
393.15
393.15
393.15
393.15
393.15
393.15
393.15
393.15
393.15
393.15
393.15
393.15
393.15
393.15
393.15
393.15
393.15
393.15
393.15
393.15
393.15
393.15
393.15
393.15
393.15
393.15
393.15
393.15
393.15
393.15
393.15
393.15
393.15
393.15
393.15
393.15
393.15
393.15
393.15
393.15
393.15
393.15
393.15
393.15
393.15
393.15
393.15
393.15
393.15
393.15
393.15
393.15
393.15
393.15
393.15
393.15
393.15
393.15
393.15
393.15
393.15
393.15
393.15
393.15
393.15
393.15
393.15
393.15
393.15
393.15
393.15
393.15
393.15
393.15
393.15
393.15
393.15
393.15
393.15
393.15
393.15
393.15
393.15
393.15
393.15
393.15
393.15
393.15
393.15
393.15
393.15
393.15
393.15
393.15
393.15
393.15
393.15
393.15
393.15
393.15
393.15
393.15
393.15
393.15
393.15
393.15
393.15
393.15
393.15
393.15
393.15
393.15
393.15
393.15
393.15
393.15
393.15
393.15
393.15
393.15
393.15
393.15
393.15
393.15
393.15
393.15
393.15
393.15
393.15
393.15
393.15
393.15
393.15
393.15
393.15
393.15
393.15
393.15
393.15
393.15
393.15
393.15
393.15
393.15
393.15
393.15
393.15
393.15
393.15
393.15
393.15
393.15
393.15
393.15
393.15
393.15
393.15
393.15
393.15
393.15
393.15
393.15
393.15
393.15
393.15
393.15
393.15
393.15
393.15
393.15
393.15
393.15
393.15
393.15
393.15
393.15
393.15
393.15
393.15
393.15
393.15
393.15
393.15
393.15
393.15
393.15
393.15
393.15
393.15
393.15
393.15
393.15
393.15
393.15
393.15
393.15
393.15
393.15
393.15
393.15
393.15
393.15
393.15
393.15
393.15
393.15
393.15
393.15
393.15
393.15
393.15
393.15
393.15
393.15
393.15
393.15
393.15
393.15
393.15
393.15
393.15
393.15
393.15
393.15
393.15
393.15
393.15
393.15
393.15
393.15
393.15
393.15
393.15
393.15
393.15
393.15
393.15
393.15
393.15
393.15
393.15
393.15
393.15
393.15
393.15
393.15
393.15
393.15
393.15
393.15
393.15
393.15
393.15
393.15
393.15
393.15
393.15
393.15
393.15
393.15
393.15
393.15
393.15
393.15
393.15
393.15
393.15
393.15
393.15
393.15
393.15
393.15
393.15
393.15
393.15
393.15
393.15
393.15
393.15
393.15
393.15
393.15
393.15
393.15
393.15
393.15
393.15
393.15
393.15
393.15
393.15
393.15
393.15
393.15
393.15
393.15
393.15
393.15
393.15
393.15
393.15
393.15
393.15
393.15
393.15
393.15
393.15
393.15
393.15
393.15
393.15
393.15
393.15
393.15
393.15
393.15
393.15
393.15
393.15
393.15
393.15
393.15
393.15
393.15
393.15
393.15
393.15
393.15
393.15
393.15
393.15
393.15
393.15
393.15
393.15
393.15
393.15
393.15
393.15
393.15
393.15
393.15
393.15
393.15
393.15
393.15
393.15
393.15
393.15
393.15
393.15
393.15
393.15
393.15
393.15
393.15
393.15
393.15
393.15
393.15
393.15
393.15
393.15
393.15
393.15
393.15
393.15
393.15
393.15
393.15
393.15
393.15
393.15
393.15
393.15
393.15
393.15
393.15
393.15
393.15
393.15
393.15
393.15
393.15
393.15
393.15
393.15
393.15
393.15
393.15
393.15
393.15
393.15
393.15
393.15
393.15
393.15
393.15
393.15
393.15
393.15
393.15
393.15
393.15
393.15
393.15
393.15
393.15
393.15
393.15
393.15
393.15
393.15
393.15
393.15
393.15
393.15
393.15
393.15
393.15
393.15
393.15
393.15
393.15
393.15
393.15
393.15
393.15
393.15
393.15
393.15
393.15
393.15
393.15
393.15
393.15
393.15
393.15
393.15
393.15
393.15
393.15
393.15
393.15
393.15
393.15
393.15
393.15
393.15
393.15
393.15
393.15
393.15
393.15
393.15
393.15
393.15
393.15
393.15
393.15
393.15
393.15
393.15
393.15
393.15
393.15
393.15
393.15
393.15
393.15
393.15
393.15
393.15
393.15
393.15
393.15
393.15
393.15
393.15
393.15
393.15
393.15
393.15
393.15
393.15
393.15
393.15
393.15
393.15
393.15
393.15
393.15
393.15
393.15
393.15
393.15
393.15
393.15
393.15
393.15
393.15
393.15
393.15
393.15
393.15
393.15
393.15
393.15
393.15
393.15
393.15
393.15
393.15
393.15
393.15
393.15
393.15
393.15
393.15
393.15
393.15
393.15
393.15
393.15
393.15
393.15
393.15
393.15
393.15
393.15
393.15
393.15
393.15
393.15
393.15
393.15
393.15
393.15
393.15
393.15
393.15
393.15
393.15
393.15
393.15
393.15
393.15
393.15
393.15
393.15
393.15
393.15
393.15
393.15
393.15
393.15
393.15
393.15
393.15
393.15
393.15
393.15
393.15
393.15
393.15
393.15
393.15
393.15
393.15
393.15
393.15
393.15
393.15
393.15
393.15
393.15
393.15
393.15
393.15
393.15
393.15
393.15
393.15
393.15
393.15
393.15
393.15
393.15
393.15
393.15
393.15
393.15
393.15
393.15
393.15
393.15
393.15
393.15
393.15
393.15
393.15
393.15
393.15
393.15
393.15
393.15
393.15
393.15
393.15
393.15
393.15
393.15
393.15
393.15
393.15
393.15
393.15
393.15
393.15
393.15
393.15
393.15
393.15
393.15
393.15
393.15
393.15
393.15
393.15
393.15
393.15
393.15
393.15
393.15
393.15
393.15
393.15
393.15
393.15
393.15
393.15
393.15
393.15
393.15
393.15
393.15
393.15
393.15
393.15
393.15
393.15
393.15
393.15
393.15
393.15
393.15
393.15
393.15
393.15
393.15
393.15
393.15
393.15
393.15
393.15
393.15
393.15
393.15
393.15
393.15
393.15
393.15
393.15
393.15
393.15
393.15
393.15
393.15
393.15
393.15
393.15
393.15
393.15
393.15
393.15
393.15
393.15
393.15
393.15
393.15
393.15
393.15
393.15
393.15
393.15
393.15
393.15
393.15
393.15
393.15
393.15
393.15
393.15
393.15
393.15
393.15
393.15
393.15
393.15
393.15
393.15
393.15
393.15
393.15
393.15
393.15
393.15
393.15
393.15
393.15
393.15
393.15
393.15
393.15
393.15
393.15
393.15
393.15
393.15
393.15
393.15
393.15
393.15
393.15
393.15
393.15
393.15
393.15
393.15
393.15
393.15
393.15
393.15
393.15
393.15
393.15
393.15
393.15
393.15
393.15
393.15
393.15
393.15
393.15
393.15
393.15
393.15
393.15
393.15
393.15
393.15
393.15
393.15
393.15
393.15
393.15
393.15
393.15
393.15
393.15
393.15
393.149
393.15
393.15
393.15
393.15
393.15
393.15
393.15
393.15
393.15
393.15
393.15
393.15
393.15
393.15
393.15
393.15
393.15
393.15
393.149
393.149
393.15
393.15
393.15
393.15
393.15
393.15
393.15
393.15
393.15
393.15
393.15
393.15
393.15
393.15
393.15
393.15
393.15
393.15
393.149
393.148
393.15
393.15
393.15
393.15
393.15
393.15
393.15
393.15
393.15
393.15
393.15
393.15
393.15
393.15
393.15
393.15
393.15
393.15
393.148
393.147
393.149
393.15
393.15
393.15
393.15
393.15
393.15
393.15
393.15