/*--------------------------------*- C++ -*----------------------------------*\
| =========                 |                                                 |
| \\      /  F ield         | OpenFOAM: The Open Source CFD Toolbox           |
|  \\    /   O peration     | Version:  2.1.0                                 |
|   \\  /    A nd           | Web:      www.OpenFOAM.org                      |
|    \\/     M anipulation  |                                                 |
\*---------------------------------------------------------------------------*/
FoamFile
{
    version     2.0;
    format      ascii;
    class       volVectorField;
    location    "0.27";
    object      U;
}
// * * * * * * * * * * * * * * * * * * * * * * * * * * * * * * * * * * * * * //

dimensions      [0 1 -1 0 0 0 0];

internalField   nonuniform List<vector> 
6400
(
(-1.23203 -2.55892e-05 0)
(-1.23099 -0.000457364 0)
(-1.22877 -0.000734392 0)
(-1.22566 -0.000872619 0)
(-1.22213 -0.000951691 0)
(-1.21834 -0.00100313 0)
(-1.21439 -0.00103919 0)
(-1.21032 -0.00106681 0)
(-1.20615 -0.00108974 0)
(-1.2019 -0.00111009 0)
(-1.19759 -0.00112907 0)
(-1.1932 -0.00114722 0)
(-1.18876 -0.00116496 0)
(-1.18425 -0.00118231 0)
(-1.17969 -0.00119948 0)
(-1.17506 -0.0012165 0)
(-1.17038 -0.0012337 0)
(-1.16564 -0.00125051 0)
(-1.16084 -0.00126801 0)
(-1.15599 -0.00128739 0)
(-1.15106 -0.00130891 0)
(-1.14605 -0.00133246 0)
(-1.14096 -0.00135783 0)
(-1.13578 -0.00138444 0)
(-1.1305 -0.00141218 0)
(-1.12512 -0.00144101 0)
(-1.11964 -0.00147114 0)
(-1.11405 -0.00150256 0)
(-1.10835 -0.00153552 0)
(-1.10253 -0.00157002 0)
(-1.09658 -0.00160623 0)
(-1.09049 -0.00164417 0)
(-1.08427 -0.00168393 0)
(-1.0779 -0.00172558 0)
(-1.07137 -0.00176927 0)
(-1.06468 -0.00181498 0)
(-1.05781 -0.00186282 0)
(-1.05076 -0.00191285 0)
(-1.04353 -0.00196516 0)
(-1.03609 -0.00201958 0)
(-1.02844 -0.00207611 0)
(-1.02057 -0.00213479 0)
(-1.01248 -0.00219537 0)
(-1.00415 -0.00225764 0)
(-0.995576 -0.00232149 0)
(-0.986755 -0.00238655 0)
(-0.97768 -0.00245306 0)
(-0.968348 -0.00251862 0)
(-0.958758 -0.00258562 0)
(-0.948898 -0.00265674 0)
(-0.938759 -0.00272709 0)
(-0.928354 -0.00279405 0)
(-0.91769 -0.00285829 0)
(-0.906774 -0.00292181 0)
(-0.895608 -0.00298556 0)
(-0.884187 -0.00305053 0)
(-0.872506 -0.0031169 0)
(-0.860559 -0.00318485 0)
(-0.848337 -0.00325493 0)
(-0.835832 -0.00332699 0)
(-0.823035 -0.00340101 0)
(-0.809938 -0.00347797 0)
(-0.796525 -0.00355813 0)
(-0.782785 -0.00364176 0)
(-0.768701 -0.00372956 0)
(-0.754256 -0.00382172 0)
(-0.739429 -0.00391914 0)
(-0.7242 -0.00402223 0)
(-0.708544 -0.00413114 0)
(-0.692437 -0.00424619 0)
(-0.675854 -0.00436781 0)
(-0.658767 -0.00449659 0)
(-0.641146 -0.00463319 0)
(-0.622958 -0.00477866 0)
(-0.604165 -0.0049343 0)
(-0.584723 -0.00510196 0)
(-0.56458 -0.00528395 0)
(-0.543673 -0.0054836 0)
(-0.521923 -0.00570518 0)
(-0.499234 -0.00595385 0)
(-0.475484 -0.006236 0)
(-0.450524 -0.00655947 0)
(-0.424174 -0.00693301 0)
(-0.396217 -0.00736423 0)
(-0.366417 -0.00785709 0)
(-0.334522 -0.00841363 0)
(-0.300287 -0.00902948 0)
(-0.263513 -0.00968543 0)
(-0.224132 -0.0103335 0)
(-0.182379 -0.0108682 0)
(-0.139119 -0.0110732 0)
(-0.0965045 -0.010513 0)
(-0.0587166 -0.00859347 0)
(-0.0313055 -0.00522789 0)
(-0.0179596 -0.00147374 0)
(-0.0210908 0.00303378 0)
(-0.0497049 0.0112026 0)
(-0.129969 0.0290573 0)
(-0.329375 0.0709484 0)
(-0.947699 0.198581 0)
(-1.48983 -0.000254171 0)
(-1.48701 -0.00151059 0)
(-1.48507 -0.00222965 0)
(-1.48194 -0.00260512 0)
(-1.4785 -0.00282563 0)
(-1.47483 -0.00296986 0)
(-1.47105 -0.00307117 0)
(-1.46717 -0.00314883 0)
(-1.46322 -0.00321335 0)
(-1.45921 -0.00327065 0)
(-1.45516 -0.00332419 0)
(-1.45105 -0.00337548 0)
(-1.4469 -0.00342576 0)
(-1.44271 -0.00347508 0)
(-1.43848 -0.00352403 0)
(-1.4342 -0.00357249 0)
(-1.42989 -0.00362173 0)
(-1.42553 -0.00366949 0)
(-1.42114 -0.00371864 0)
(-1.41671 -0.00377302 0)
(-1.41223 -0.00383307 0)
(-1.4077 -0.0038987 0)
(-1.40311 -0.00396914 0)
(-1.39847 -0.00404274 0)
(-1.39376 -0.00411914 0)
(-1.38898 -0.00419844 0)
(-1.38414 -0.0042811 0)
(-1.37923 -0.00436723 0)
(-1.37425 -0.00445745 0)
(-1.36918 -0.00455186 0)
(-1.36404 -0.00465089 0)
(-1.3588 -0.00475461 0)
(-1.35347 -0.00486331 0)
(-1.34804 -0.00497712 0)
(-1.3425 -0.00509631 0)
(-1.33685 -0.00522086 0)
(-1.33108 -0.00535093 0)
(-1.32519 -0.00548672 0)
(-1.31916 -0.00562851 0)
(-1.313 -0.00577588 0)
(-1.3067 -0.0059286 0)
(-1.30025 -0.00608706 0)
(-1.29364 -0.00625063 0)
(-1.28687 -0.00641884 0)
(-1.27992 -0.00659157 0)
(-1.27281 -0.00676785 0)
(-1.26551 -0.0069483 0)
(-1.25802 -0.00712761 0)
(-1.25037 -0.00730661 0)
(-1.24253 -0.00748861 0)
(-1.23455 -0.00766751 0)
(-1.22642 -0.00784052 0)
(-1.21813 -0.0080086 0)
(-1.20969 -0.00817474 0)
(-1.2011 -0.00834065 0)
(-1.19236 -0.00850866 0)
(-1.18346 -0.0086791 0)
(-1.17442 -0.00885264 0)
(-1.16522 -0.00903076 0)
(-1.15587 -0.00921355 0)
(-1.14637 -0.00940152 0)
(-1.1367 -0.00959626 0)
(-1.12686 -0.00979805 0)
(-1.11686 -0.0100078 0)
(-1.10667 -0.0102271 0)
(-1.09631 -0.0104566 0)
(-1.08576 -0.0106984 0)
(-1.07501 -0.0109537 0)
(-1.06406 -0.0112236 0)
(-1.05288 -0.0115091 0)
(-1.04147 -0.011812 0)
(-1.0298 -0.0121341 0)
(-1.01785 -0.0124779 0)
(-1.00559 -0.0128467 0)
(-0.993005 -0.0132444 0)
(-0.98004 -0.0136765 0)
(-0.966655 -0.0141493 0)
(-0.952796 -0.0146718 0)
(-0.938402 -0.0152548 0)
(-0.923399 -0.0159113 0)
(-0.907705 -0.0166566 0)
(-0.891224 -0.0175092 0)
(-0.873852 -0.0184895 0)
(-0.85547 -0.019616 0)
(-0.835949 -0.0208984 0)
(-0.815161 -0.0223392 0)
(-0.792994 -0.0239237 0)
(-0.769379 -0.0255979 0)
(-0.744346 -0.0272361 0)
(-0.718092 -0.0285758 0)
(-0.691088 -0.0291071 0)
(-0.66415 -0.0278799 0)
(-0.638588 -0.0235597 0)
(-0.617336 -0.0152782 0)
(-0.60841 -0.00331375 0)
(-0.620715 0.0123283 0)
(-0.667493 0.0392375 0)
(-0.77041 0.0914483 0)
(-0.972081 0.203631 0)
(-1.45912 0.52529 0)
(-1.63649 -0.000748247 0)
(-1.63291 -0.00263094 0)
(-1.63187 -0.00365395 0)
(-1.62937 -0.00421376 0)
(-1.6266 -0.00454929 0)
(-1.62369 -0.00476922 0)
(-1.62067 -0.00492268 0)
(-1.61761 -0.00504009 0)
(-1.61449 -0.00513678 0)
(-1.61137 -0.00522266 0)
(-1.6082 -0.00530255 0)
(-1.60503 -0.00537949 0)
(-1.60183 -0.005455 0)
(-1.59863 -0.00552977 0)
(-1.59539 -0.00560447 0)
(-1.59215 -0.00567925 0)
(-1.58888 -0.00575598 0)
(-1.58559 -0.00583191 0)
(-1.58227 -0.00590887 0)
(-1.57893 -0.00599112 0)
(-1.57557 -0.00608025 0)
(-1.5722 -0.00617728 0)
(-1.5688 -0.00628109 0)
(-1.56538 -0.00638893 0)
(-1.56193 -0.00650015 0)
(-1.55846 -0.00661541 0)
(-1.55496 -0.00673529 0)
(-1.55144 -0.00686007 0)
(-1.54788 -0.00699057 0)
(-1.54429 -0.00712697 0)
(-1.54066 -0.00726982 0)
(-1.537 -0.00741929 0)
(-1.53329 -0.0075757 0)
(-1.52954 -0.00773919 0)
(-1.52573 -0.00790993 0)
(-1.52188 -0.00808787 0)
(-1.51797 -0.00827302 0)
(-1.51401 -0.00846541 0)
(-1.50998 -0.00866551 0)
(-1.5059 -0.00887265 0)
(-1.50175 -0.00908601 0)
(-1.49755 -0.00930632 0)
(-1.49328 -0.00953265 0)
(-1.48895 -0.00976413 0)
(-1.48456 -0.0100008 0)
(-1.48012 -0.0102409 0)
(-1.47563 -0.0104842 0)
(-1.47108 -0.0107265 0)
(-1.46651 -0.0109651 0)
(-1.4619 -0.011198 0)
(-1.45725 -0.011424 0)
(-1.45259 -0.0116451 0)
(-1.4479 -0.0118617 0)
(-1.44318 -0.0120743 0)
(-1.43845 -0.0122841 0)
(-1.4337 -0.0124935 0)
(-1.42895 -0.0127026 0)
(-1.4242 -0.0129126 0)
(-1.41947 -0.013125 0)
(-1.41476 -0.0133405 0)
(-1.41007 -0.0135606 0)
(-1.40542 -0.0137859 0)
(-1.40082 -0.0140164 0)
(-1.39627 -0.014253 0)
(-1.39178 -0.014497 0)
(-1.38737 -0.0147497 0)
(-1.38305 -0.0150127 0)
(-1.37883 -0.0152877 0)
(-1.37473 -0.0155766 0)
(-1.37075 -0.015881 0)
(-1.36692 -0.0162035 0)
(-1.36323 -0.0165467 0)
(-1.35971 -0.0169146 0)
(-1.35636 -0.017312 0)
(-1.35319 -0.0177453 0)
(-1.35019 -0.0182225 0)
(-1.34738 -0.0187529 0)
(-1.34473 -0.0193492 0)
(-1.34224 -0.0200271 0)
(-1.33987 -0.0208042 0)
(-1.3376 -0.0217008 0)
(-1.33538 -0.0227401 0)
(-1.33315 -0.0239474 0)
(-1.33086 -0.0253456 0)
(-1.32845 -0.0269473 0)
(-1.32586 -0.0287512 0)
(-1.32304 -0.0307285 0)
(-1.31998 -0.0327965 0)
(-1.31676 -0.0347768 0)
(-1.31353 -0.0363227 0)
(-1.31058 -0.0368078 0)
(-1.30831 -0.0351752 0)
(-1.30729 -0.0298928 0)
(-1.30878 -0.0191637 0)
(-1.31646 -0.00135493 0)
(-1.33303 0.0244753 0)
(-1.37114 0.0680787 0)
(-1.44591 0.148263 0)
(-1.58843 0.310025 0)
(-1.85798 0.717537 0)
(-1.77044 -0.00132959 0)
(-1.76674 -0.00352241 0)
(-1.76679 -0.0047571 0)
(-1.76529 -0.00545807 0)
(-1.7636 -0.00588237 0)
(-1.76184 -0.00615835 0)
(-1.76001 -0.00634766 0)
(-1.75818 -0.00649029 0)
(-1.75634 -0.00660505 0)
(-1.75454 -0.0067058 0)
(-1.75274 -0.00679798 0)
(-1.75098 -0.00688649 0)
(-1.74924 -0.00697266 0)
(-1.74755 -0.00705827 0)
(-1.74588 -0.00714373 0)
(-1.74426 -0.00722997 0)
(-1.74267 -0.00731762 0)
(-1.74112 -0.00740666 0)
(-1.73963 -0.00749808 0)
(-1.73817 -0.0075936 0)
(-1.73674 -0.00769629 0)
(-1.73534 -0.00780861 0)
(-1.73397 -0.00792904 0)
(-1.73263 -0.00805335 0)
(-1.73132 -0.00818065 0)
(-1.73004 -0.00831234 0)
(-1.72879 -0.00844916 0)
(-1.72757 -0.00859145 0)
(-1.72638 -0.00874003 0)
(-1.72522 -0.0088951 0)
(-1.72409 -0.00905717 0)
(-1.72298 -0.00922636 0)
(-1.7219 -0.00940288 0)
(-1.72085 -0.00958677 0)
(-1.71983 -0.00977801 0)
(-1.71883 -0.00997638 0)
(-1.71787 -0.0101816 0)
(-1.71693 -0.0103933 0)
(-1.71603 -0.0106115 0)
(-1.71516 -0.0108354 0)
(-1.71434 -0.0110639 0)
(-1.71357 -0.011297 0)
(-1.71285 -0.0115334 0)
(-1.71219 -0.0117717 0)
(-1.7116 -0.0120113 0)
(-1.71109 -0.01225 0)
(-1.71068 -0.0124857 0)
(-1.71036 -0.0127164 0)
(-1.71018 -0.0129428 0)
(-1.71008 -0.0131612 0)
(-1.71009 -0.0133692 0)
(-1.7102 -0.0135693 0)
(-1.71044 -0.013762 0)
(-1.7108 -0.0139457 0)
(-1.71129 -0.0141214 0)
(-1.71194 -0.0142906 0)
(-1.71275 -0.0144533 0)
(-1.71374 -0.0146109 0)
(-1.71491 -0.0147643 0)
(-1.71629 -0.0149142 0)
(-1.71788 -0.0150624 0)
(-1.71971 -0.0152098 0)
(-1.72177 -0.0153557 0)
(-1.7241 -0.0155009 0)
(-1.72669 -0.0156465 0)
(-1.72956 -0.0157937 0)
(-1.73271 -0.0159444 0)
(-1.73617 -0.0161003 0)
(-1.73994 -0.0162639 0)
(-1.74402 -0.0164375 0)
(-1.74842 -0.0166245 0)
(-1.75314 -0.0168287 0)
(-1.75817 -0.0170555 0)
(-1.76351 -0.0173116 0)
(-1.76913 -0.0176061 0)
(-1.77503 -0.0179498 0)
(-1.78117 -0.0183551 0)
(-1.78752 -0.0188383 0)
(-1.79403 -0.0194196 0)
(-1.80065 -0.0201211 0)
(-1.80733 -0.0209662 0)
(-1.81401 -0.0219813 0)
(-1.82061 -0.0231938 0)
(-1.82709 -0.024627 0)
(-1.83339 -0.0262916 0)
(-1.83949 -0.0281789 0)
(-1.84535 -0.0302463 0)
(-1.85102 -0.0323892 0)
(-1.85656 -0.0343959 0)
(-1.86208 -0.0358797 0)
(-1.8677 -0.0361801 0)
(-1.87351 -0.0342487 0)
(-1.8795 -0.0285187 0)
(-1.88592 -0.0168894 0)
(-1.89478 0.00258421 0)
(-1.90405 0.0337926 0)
(-1.92516 0.0869731 0)
(-1.96509 0.183745 0)
(-2.03311 0.373257 0)
(-2.13285 0.775685 0)
(-1.90819 -0.00181925 0)
(-1.90506 -0.0040529 0)
(-1.90637 -0.00536931 0)
(-1.90625 -0.00614484 0)
(-1.90616 -0.00661885 0)
(-1.90603 -0.00692166 0)
(-1.90595 -0.00712449 0)
(-1.90591 -0.00727144 0)
(-1.90593 -0.00738532 0)
(-1.90602 -0.00748133 0)
(-1.90619 -0.00756642 0)
(-1.90645 -0.00764579 0)
(-1.90679 -0.00772129 0)
(-1.90723 -0.00779472 0)
(-1.90776 -0.0078666 0)
(-1.90842 -0.00793784 0)
(-1.90917 -0.00800787 0)
(-1.91004 -0.0080789 0)
(-1.91104 -0.00815499 0)
(-1.91215 -0.00823766 0)
(-1.91335 -0.00832987 0)
(-1.91466 -0.00843405 0)
(-1.91605 -0.00854752 0)
(-1.91754 -0.00866349 0)
(-1.91912 -0.00878113 0)
(-1.9208 -0.0089028 0)
(-1.92257 -0.00902895 0)
(-1.92444 -0.00915997 0)
(-1.92641 -0.0092967 0)
(-1.92848 -0.00943921 0)
(-1.93064 -0.00958789 0)
(-1.93292 -0.00974269 0)
(-1.93529 -0.0099036 0)
(-1.93777 -0.0100704 0)
(-1.94036 -0.0102429 0)
(-1.94305 -0.0104204 0)
(-1.94586 -0.0106026 0)
(-1.94879 -0.0107888 0)
(-1.95184 -0.0109783 0)
(-1.95501 -0.0111699 0)
(-1.95831 -0.0113631 0)
(-1.96174 -0.0115569 0)
(-1.96531 -0.0117496 0)
(-1.96902 -0.0119398 0)
(-1.97287 -0.0121262 0)
(-1.97687 -0.0123064 0)
(-1.98103 -0.0124784 0)
(-1.98533 -0.0126406 0)
(-1.9898 -0.0127961 0)
(-1.99442 -0.0129428 0)
(-1.99921 -0.0130759 0)
(-2.00417 -0.0131959 0)
(-2.00931 -0.0133029 0)
(-2.01462 -0.013396 0)
(-2.02011 -0.0134758 0)
(-2.02579 -0.0135437 0)
(-2.03166 -0.0136 0)
(-2.03771 -0.0136462 0)
(-2.04395 -0.0136833 0)
(-2.05038 -0.0137123 0)
(-2.057 -0.0137356 0)
(-2.0638 -0.0137551 0)
(-2.07077 -0.0137706 0)
(-2.07791 -0.0137825 0)
(-2.08522 -0.0137923 0)
(-2.09268 -0.0138022 0)
(-2.10028 -0.0138147 0)
(-2.10803 -0.0138322 0)
(-2.1159 -0.013858 0)
(-2.12389 -0.0138955 0)
(-2.13198 -0.0139488 0)
(-2.14017 -0.0140233 0)
(-2.14843 -0.0141257 0)
(-2.15675 -0.0142642 0)
(-2.16512 -0.0144497 0)
(-2.17353 -0.0146957 0)
(-2.18195 -0.0150161 0)
(-2.19038 -0.0154283 0)
(-2.19879 -0.0159561 0)
(-2.20717 -0.0166235 0)
(-2.21551 -0.0174541 0)
(-2.22378 -0.0184745 0)
(-2.23199 -0.0197118 0)
(-2.24011 -0.0211877 0)
(-2.24814 -0.0229069 0)
(-2.25611 -0.0248523 0)
(-2.26401 -0.0269716 0)
(-2.27189 -0.029148 0)
(-2.27976 -0.0311578 0)
(-2.28765 -0.0326112 0)
(-2.29551 -0.0328711 0)
(-2.30312 -0.0309684 0)
(-2.30997 -0.0254535 0)
(-2.31572 -0.0142935 0)
(-2.32115 0.00483128 0)
(-2.3223 0.0374855 0)
(-2.32575 0.0941961 0)
(-2.3307 0.196589 0)
(-2.32776 0.390057 0)
(-2.30933 0.741586 0)
(-2.05721 -0.00206222 0)
(-2.05529 -0.00409104 0)
(-2.05799 -0.00533154 0)
(-2.05964 -0.00608425 0)
(-2.06151 -0.00654632 0)
(-2.06347 -0.00683387 0)
(-2.06557 -0.0070194 0)
(-2.06778 -0.00714518 0)
(-2.07012 -0.00723631 0)
(-2.07258 -0.00730703 0)
(-2.07516 -0.00736569 0)
(-2.07787 -0.0074167 0)
(-2.0807 -0.00746266 0)
(-2.08367 -0.00750477 0)
(-2.08677 -0.00754391 0)
(-2.09001 -0.00758055 0)
(-2.09337 -0.00761472 0)
(-2.09688 -0.00764883 0)
(-2.10052 -0.00768845 0)
(-2.1043 -0.00773651 0)
(-2.10821 -0.00779663 0)
(-2.11225 -0.00787178 0)
(-2.11641 -0.00795784 0)
(-2.1207 -0.00804318 0)
(-2.12512 -0.00812754 0)
(-2.12967 -0.00821522 0)
(-2.13434 -0.00830571 0)
(-2.13916 -0.00839959 0)
(-2.1441 -0.00849772 0)
(-2.14918 -0.00860008 0)
(-2.15439 -0.00870699 0)
(-2.15973 -0.00881821 0)
(-2.16521 -0.00893367 0)
(-2.17082 -0.0090529 0)
(-2.17656 -0.00917556 0)
(-2.18244 -0.00930104 0)
(-2.18845 -0.0094287 0)
(-2.19459 -0.0095583 0)
(-2.20086 -0.00968882 0)
(-2.20725 -0.00981877 0)
(-2.21377 -0.00994802 0)
(-2.22042 -0.0100759 0)
(-2.22718 -0.0102005 0)
(-2.23405 -0.0103209 0)
(-2.24102 -0.0104358 0)
(-2.2481 -0.0105431 0)
(-2.25527 -0.0106414 0)
(-2.26253 -0.0107297 0)
(-2.26987 -0.0108088 0)
(-2.27728 -0.0108771 0)
(-2.28477 -0.0109315 0)
(-2.29232 -0.0109716 0)
(-2.29992 -0.0109978 0)
(-2.30757 -0.0110095 0)
(-2.31526 -0.0110075 0)
(-2.32298 -0.0109932 0)
(-2.33073 -0.0109674 0)
(-2.33851 -0.0109318 0)
(-2.3463 -0.0108876 0)
(-2.3541 -0.0108366 0)
(-2.36191 -0.0107816 0)
(-2.36972 -0.0107253 0)
(-2.37753 -0.0106678 0)
(-2.38533 -0.0106087 0)
(-2.39312 -0.0105495 0)
(-2.4009 -0.0104933 0)
(-2.40867 -0.0104429 0)
(-2.41642 -0.0104009 0)
(-2.42417 -0.0103708 0)
(-2.43191 -0.010356 0)
(-2.43963 -0.010361 0)
(-2.44734 -0.0103912 0)
(-2.45505 -0.0104536 0)
(-2.46275 -0.0105567 0)
(-2.47045 -0.0107112 0)
(-2.47814 -0.0109313 0)
(-2.48583 -0.0112307 0)
(-2.49352 -0.0116254 0)
(-2.50123 -0.0121379 0)
(-2.50895 -0.0127926 0)
(-2.51671 -0.0136138 0)
(-2.52451 -0.0146266 0)
(-2.53236 -0.0158571 0)
(-2.54027 -0.0173268 0)
(-2.54825 -0.0190369 0)
(-2.55633 -0.0209634 0)
(-2.56452 -0.0230528 0)
(-2.57284 -0.0251889 0)
(-2.58128 -0.0271564 0)
(-2.58977 -0.0285919 0)
(-2.59812 -0.0289229 0)
(-2.60592 -0.0272993 0)
(-2.61233 -0.0225194 0)
(-2.61653 -0.0127591 0)
(-2.61841 0.00469797 0)
(-2.61188 0.0358074 0)
(-2.59955 0.0902419 0)
(-2.57324 0.18831 0)
(-2.51102 0.36586 0)
(-2.41431 0.649387 0)
(-2.21388 -0.00197259 0)
(-2.21336 -0.00356567 0)
(-2.21735 -0.00458235 0)
(-2.2207 -0.00521455 0)
(-2.22434 -0.00560082 0)
(-2.22824 -0.00583306 0)
(-2.23229 -0.00597403 0)
(-2.23652 -0.0060603 0)
(-2.24087 -0.00611501 0)
(-2.24538 -0.00615061 0)
(-2.24998 -0.00617518 0)
(-2.25474 -0.0061923 0)
(-2.25959 -0.00620461 0)
(-2.26458 -0.00621287 0)
(-2.26966 -0.00621811 0)
(-2.27488 -0.00622049 0)
(-2.28018 -0.00622101 0)
(-2.28562 -0.00622177 0)
(-2.29114 -0.00622724 0)
(-2.29678 -0.00624059 0)
(-2.3025 -0.00626784 0)
(-2.30833 -0.00631419 0)
(-2.31421 -0.00637452 0)
(-2.32018 -0.00643081 0)
(-2.32623 -0.00648099 0)
(-2.33237 -0.00653045 0)
(-2.33858 -0.00658018 0)
(-2.34491 -0.00663142 0)
(-2.35132 -0.00668541 0)
(-2.35784 -0.0067421 0)
(-2.36443 -0.00680202 0)
(-2.37113 -0.00686484 0)
(-2.3779 -0.00693083 0)
(-2.38476 -0.00699943 0)
(-2.3917 -0.00707061 0)
(-2.39871 -0.007144 0)
(-2.40579 -0.00721928 0)
(-2.41293 -0.00729634 0)
(-2.42012 -0.00737473 0)
(-2.42737 -0.00745312 0)
(-2.43464 -0.00753148 0)
(-2.44196 -0.00760954 0)
(-2.44928 -0.00768594 0)
(-2.45663 -0.00775977 0)
(-2.46398 -0.00782988 0)
(-2.47133 -0.00789436 0)
(-2.47867 -0.0079523 0)
(-2.48599 -0.00800265 0)
(-2.49328 -0.00804487 0)
(-2.50055 -0.00807755 0)
(-2.50778 -0.0080988 0)
(-2.51498 -0.00810788 0)
(-2.52214 -0.00810495 0)
(-2.52925 -0.00808954 0)
(-2.53632 -0.0080624 0)
(-2.54335 -0.00802432 0)
(-2.55032 -0.00797628 0)
(-2.55725 -0.00791975 0)
(-2.56414 -0.00785587 0)
(-2.57099 -0.00778592 0)
(-2.5778 -0.00771279 0)
(-2.58457 -0.00764018 0)
(-2.59131 -0.00756795 0)
(-2.59802 -0.00749311 0)
(-2.60471 -0.00741753 0)
(-2.61139 -0.00734435 0)
(-2.61805 -0.00727635 0)
(-2.62472 -0.00721607 0)
(-2.63139 -0.00716653 0)
(-2.63808 -0.00713112 0)
(-2.64478 -0.00711399 0)
(-2.65152 -0.00712033 0)
(-2.6583 -0.00715709 0)
(-2.66513 -0.00723258 0)
(-2.67201 -0.00735752 0)
(-2.67897 -0.00754475 0)
(-2.68599 -0.00780907 0)
(-2.69312 -0.00816757 0)
(-2.70035 -0.00864006 0)
(-2.70768 -0.00924922 0)
(-2.71511 -0.0100196 0)
(-2.72269 -0.0109749 0)
(-2.73041 -0.012139 0)
(-2.73832 -0.0135364 0)
(-2.74641 -0.0151678 0)
(-2.75472 -0.0170012 0)
(-2.76327 -0.0189892 0)
(-2.77205 -0.021027 0)
(-2.78101 -0.0229217 0)
(-2.79 -0.0243562 0)
(-2.79874 -0.0248501 0)
(-2.80665 -0.0237021 0)
(-2.8127 -0.0199943 0)
(-2.81544 -0.0122353 0)
(-2.8145 0.00223721 0)
(-2.80117 0.0293804 0)
(-2.7752 0.0765853 0)
(-2.72242 0.161566 0)
(-2.61444 0.309404 0)
(-2.46828 0.52213 0)
(-2.35993 -0.00156879 0)
(-2.36042 -0.00259235 0)
(-2.36504 -0.00330132 0)
(-2.3693 -0.00375287 0)
(-2.37381 -0.00402576 0)
(-2.37869 -0.00418338 0)
(-2.38364 -0.00427146 0)
(-2.38884 -0.00431805 0)
(-2.39404 -0.00434069 0)
(-2.39942 -0.00434917 0)
(-2.40481 -0.00434966 0)
(-2.41035 -0.00434471 0)
(-2.41587 -0.00433629 0)
(-2.42154 -0.0043246 0)
(-2.4272 -0.00431056 0)
(-2.43298 -0.00429395 0)
(-2.43875 -0.00427625 0)
(-2.44463 -0.00425899 0)
(-2.4505 -0.00424594 0)
(-2.45647 -0.00424025 0)
(-2.46244 -0.00424997 0)
(-2.46849 -0.00428344 0)
(-2.4745 -0.00433384 0)
(-2.48058 -0.00437818 0)
(-2.48668 -0.00441372 0)
(-2.49281 -0.00444362 0)
(-2.49892 -0.00447165 0)
(-2.50507 -0.00449969 0)
(-2.51121 -0.00452973 0)
(-2.51739 -0.00456154 0)
(-2.52354 -0.00459622 0)
(-2.52973 -0.00463327 0)
(-2.53589 -0.00467356 0)
(-2.54208 -0.0047165 0)
(-2.54823 -0.00476233 0)
(-2.5544 -0.00481117 0)
(-2.56053 -0.0048629 0)
(-2.56666 -0.00491733 0)
(-2.57275 -0.00497441 0)
(-2.57884 -0.00503334 0)
(-2.58488 -0.00509392 0)
(-2.59091 -0.00515579 0)
(-2.59689 -0.00521789 0)
(-2.60286 -0.00527917 0)
(-2.60877 -0.00533845 0)
(-2.61467 -0.0053939 0)
(-2.62051 -0.00544449 0)
(-2.62634 -0.00548899 0)
(-2.63212 -0.00552597 0)
(-2.63788 -0.00555387 0)
(-2.6436 -0.00557119 0)
(-2.64931 -0.00557682 0)
(-2.65499 -0.00557055 0)
(-2.66065 -0.00555199 0)
(-2.6663 -0.00552166 0)
(-2.67194 -0.00548004 0)
(-2.67756 -0.00542789 0)
(-2.68319 -0.00536637 0)
(-2.68882 -0.0052965 0)
(-2.69446 -0.00521905 0)
(-2.70011 -0.00513599 0)
(-2.70578 -0.00505341 0)
(-2.71147 -0.00497216 0)
(-2.71719 -0.00488285 0)
(-2.72294 -0.00478969 0)
(-2.72875 -0.0046961 0)
(-2.7346 -0.00460464 0)
(-2.74052 -0.00451776 0)
(-2.7465 -0.00443804 0)
(-2.75257 -0.0043687 0)
(-2.75872 -0.00431367 0)
(-2.76497 -0.00427798 0)
(-2.77132 -0.00426823 0)
(-2.7778 -0.00429259 0)
(-2.7844 -0.00436145 0)
(-2.79114 -0.00448626 0)
(-2.79803 -0.00468258 0)
(-2.80509 -0.00497038 0)
(-2.81232 -0.00536877 0)
(-2.81974 -0.00589738 0)
(-2.82736 -0.00657909 0)
(-2.83521 -0.00743545 0)
(-2.84331 -0.00848546 0)
(-2.85168 -0.00976044 0)
(-2.86034 -0.0112679 0)
(-2.8693 -0.0129595 0)
(-2.87857 -0.0148039 0)
(-2.88813 -0.016717 0)
(-2.89788 -0.018539 0)
(-2.90762 -0.0200133 0)
(-2.91696 -0.0207667 0)
(-2.9252 -0.0202807 0)
(-2.93124 -0.0178718 0)
(-2.93306 -0.0125931 0)
(-2.92997 -0.00204267 0)
(-2.9123 0.0186744 0)
(-2.87486 0.0547909 0)
(-2.80162 0.119709 0)
(-2.66142 0.2293 0)
(-2.48586 0.374808 0)
(-2.47473 -0.000907138 0)
(-2.47589 -0.00140015 0)
(-2.48046 -0.00179364 0)
(-2.48486 -0.00204945 0)
(-2.48938 -0.00220344 0)
(-2.49433 -0.00229091 0)
(-2.49921 -0.00233796 0)
(-2.50436 -0.00236169 0)
(-2.50937 -0.00237213 0)
(-2.51457 -0.00237526 0)
(-2.51962 -0.00237438 0)
(-2.52483 -0.00237068 0)
(-2.52989 -0.00236486 0)
(-2.53508 -0.00235666 0)
(-2.54012 -0.0023464 0)
(-2.54528 -0.00233374 0)
(-2.5503 -0.00231996 0)
(-2.55542 -0.00230633 0)
(-2.56041 -0.00229582 0)
(-2.56549 -0.00229136 0)
(-2.57045 -0.00230162 0)
(-2.57548 -0.00234087 0)
(-2.58038 -0.00240229 0)
(-2.58531 -0.00245323 0)
(-2.59015 -0.00249421 0)
(-2.59501 -0.00252854 0)
(-2.59977 -0.00256016 0)
(-2.60455 -0.00259093 0)
(-2.60924 -0.00262296 0)
(-2.61394 -0.00265605 0)
(-2.61856 -0.00269137 0)
(-2.62319 -0.00272841 0)
(-2.62774 -0.00276823 0)
(-2.63229 -0.00281027 0)
(-2.63679 -0.00285487 0)
(-2.64128 -0.00290211 0)
(-2.64571 -0.00295216 0)
(-2.65015 -0.00300446 0)
(-2.65454 -0.00305927 0)
(-2.65894 -0.00311582 0)
(-2.6633 -0.00317369 0)
(-2.66766 -0.00323247 0)
(-2.67199 -0.00329123 0)
(-2.67634 -0.00334873 0)
(-2.68066 -0.00340378 0)
(-2.68501 -0.00345488 0)
(-2.68933 -0.00350038 0)
(-2.69368 -0.00353909 0)
(-2.69802 -0.00356938 0)
(-2.70238 -0.00358943 0)
(-2.70675 -0.00359775 0)
(-2.71115 -0.00359325 0)
(-2.71556 -0.00357552 0)
(-2.72001 -0.00354422 0)
(-2.72448 -0.00349986 0)
(-2.72899 -0.00344294 0)
(-2.73353 -0.003374 0)
(-2.73812 -0.00329406 0)
(-2.74275 -0.00320405 0)
(-2.74744 -0.0031046 0)
(-2.75217 -0.0029956 0)
(-2.75698 -0.00288594 0)
(-2.76184 -0.00278304 0)
(-2.76677 -0.00266285 0)
(-2.77177 -0.00253513 0)
(-2.77687 -0.00240442 0)
(-2.78205 -0.00227298 0)
(-2.78733 -0.00214288 0)
(-2.79271 -0.00201635 0)
(-2.79822 -0.0018963 0)
(-2.80384 -0.00178645 0)
(-2.8096 -0.00169158 0)
(-2.81551 -0.00161793 0)
(-2.82157 -0.00157335 0)
(-2.82779 -0.00156765 0)
(-2.8342 -0.00161228 0)
(-2.84079 -0.0017225 0)
(-2.8476 -0.00191752 0)
(-2.85463 -0.00221591 0)
(-2.86192 -0.00263641 0)
(-2.86947 -0.00319993 0)
(-2.87733 -0.00392791 0)
(-2.88552 -0.00482937 0)
(-2.89408 -0.00594255 0)
(-2.903 -0.00730499 0)
(-2.91232 -0.00882328 0)
(-2.92204 -0.0105013 0)
(-2.93213 -0.0122823 0)
(-2.94246 -0.0140477 0)
(-2.9528 -0.0156095 0)
(-2.96273 -0.0167121 0)
(-2.97151 -0.0170311 0)
(-2.97792 -0.0161354 0)
(-2.98001 -0.0135666 0)
(-2.97525 -0.00758179 0)
(-2.95688 0.00471896 0)
(-2.9133 0.0268859 0)
(-2.82758 0.0667534 0)
(-2.66851 0.132977 0)
(-2.47815 0.216477 0)
(-2.53567 -6.06727e-05 0)
(-2.53697 -0.00018036 0)
(-2.54102 -0.000286112 0)
(-2.54496 -0.0003584 0)
(-2.54896 -0.000406946 0)
(-2.55336 -0.000440521 0)
(-2.5576 -0.000465933 0)
(-2.5621 -0.000487487 0)
(-2.56637 -0.000507614 0)
(-2.57083 -0.000527226 0)
(-2.57504 -0.000546867 0)
(-2.57941 -0.000565879 0)
(-2.58354 -0.000583574 0)
(-2.58781 -0.000599333 0)
(-2.59184 -0.000612593 0)
(-2.596 -0.000623167 0)
(-2.59994 -0.000631606 0)
(-2.60399 -0.000639313 0)
(-2.60785 -0.000648242 0)
(-2.6118 -0.000661132 0)
(-2.61559 -0.000684932 0)
(-2.61946 -0.000744212 -8.74817e-42)
(-2.62315 -0.000838687 0)
(-2.62687 -0.000911085 0)
(-2.63046 -0.000966187 0)
(-2.63411 -0.00101413 0)
(-2.63765 -0.00105856 0)
(-2.64124 -0.00110146 0)
(-2.64474 -0.00114397 0)
(-2.64827 -0.00118644 0)
(-2.65173 -0.00122931 0)
(-2.65521 -0.00127259 0)
(-2.65864 -0.00131669 0)
(-2.66209 -0.00136151 0)
(-2.66551 -0.00140746 0)
(-2.66895 -0.00145411 0)
(-2.67236 -0.00150207 0)
(-2.67579 -0.00155054 0)
(-2.67921 -0.00159991 0)
(-2.68266 -0.00164948 0)
(-2.6861 -0.00169878 0)
(-2.68957 -0.00174738 0)
(-2.69304 -0.0017946 0)
(-2.69655 -0.00183918 0)
(-2.70006 -0.00188001 0)
(-2.70361 -0.00191601 0)
(-2.70718 -0.00194509 0)
(-2.71079 -0.00196611 0)
(-2.71441 -0.00197752 0)
(-2.71809 -0.00197742 0)
(-2.72178 -0.00196419 0)
(-2.72553 -0.00193693 0)
(-2.72931 -0.00189508 0)
(-2.73314 -0.00183835 0)
(-2.73701 -0.00176728 0)
(-2.74094 -0.00168261 0)
(-2.74492 -0.00158459 0)
(-2.74895 -0.00147412 0)
(-2.75303 -0.00135212 0)
(-2.75718 -0.00121908 0)
(-2.7614 -0.00107422 0)
(-2.76569 -0.000920699 0)
(-2.77003 -0.000792133 0)
(-2.77445 -0.000628626 0)
(-2.77896 -0.000455148 0)
(-2.78356 -0.00027706 0)
(-2.78826 -9.5902e-05 0)
(-2.79306 8.69154e-05 0)
(-2.79798 0.000269477 0)
(-2.80301 0.000449343 0)
(-2.80818 0.000623012 0)
(-2.81348 0.000786082 0)
(-2.81893 0.000932762 0)
(-2.82454 0.00105568 0)
(-2.83032 0.00114563 0)
(-2.83629 0.00119124 0)
(-2.84246 0.00117815 0)
(-2.84885 0.00108944 0)
(-2.85547 0.000907644 0)
(-2.86236 0.00061437 0)
(-2.86952 0.000189873 0)
(-2.87699 -0.00038606 0)
(-2.88478 -0.00112613 -1.32376e-41)
(-2.893 -0.00203393 0)
(-2.90146 -0.00324761 0)
(-2.91036 -0.0045622 0)
(-2.91967 -0.00605312 0)
(-2.92932 -0.00769257 -9.04257e-41)
(-2.93919 -0.00940551 0)
(-2.94903 -0.0110731 0)
(-2.95839 -0.0125633 0)
(-2.96655 -0.0137375 0)
(-2.97229 -0.0144695 0)
(-2.9737 -0.0146243 -8.5954e-41)
(-2.96746 -0.0136073 0)
(-2.94793 -0.0104411 0)
(-2.9026 -0.0040288 -4.73584e-41)
(-2.81253 0.00793079 0)
(-2.64688 0.0279499 0)
(-2.4519 0.053255 0)
(-2.51756 0.000830428 0)
(-2.51845 0.00100992 0)
(-2.52229 0.00118191 0)
(-2.52597 0.00128784 0)
(-2.52973 0.00134104 0)
(-2.53388 0.00135813 0)
(-2.53792 0.00135114 0)
(-2.5422 0.00132881 0)
(-2.5463 0.00129622 0)
(-2.55058 0.00125765 0)
(-2.55466 0.00121529 0)
(-2.55889 0.00117151 0)
(-2.56292 0.00112832 0)
(-2.56708 0.00108668 0)
(-2.57106 0.00104791 0)
(-2.57514 0.00101211 0)
(-2.57906 0.000979301 0)
(-2.58307 0.000947988 0)
(-2.58692 0.000916764 0)
(-2.59085 0.00088259 0)
(-2.59463 0.000838381 0)
(-2.59849 0.000759694 8.93016e-42)
(-2.60222 0.000647292 0)
(-2.60606 0.000558078 0)
(-2.60977 0.000488878 0)
(-2.61355 0.000427941 0)
(-2.61722 0.0003721 0)
(-2.62094 0.000318928 0)
(-2.62456 0.000268054 0)
(-2.62823 0.000218447 0)
(-2.63182 0.00017047 0)
(-2.63545 0.000123424 0)
(-2.63901 7.77084e-05 0)
(-2.64261 3.2792e-05 0)
(-2.64616 -1.14675e-05 0)
(-2.64974 -5.47598e-05 0)
(-2.65328 -9.73741e-05 0)
(-2.65685 -0.000139059 0)
(-2.66039 -0.000179693 0)
(-2.66396 -0.000218988 0)
(-2.66751 -0.000256533 0)
(-2.67109 -0.000291823 0)
(-2.67466 -0.000324324 0)
(-2.67826 -0.000352989 0)
(-2.68186 -0.000376803 0)
(-2.68548 -0.00039467 0)
(-2.68911 -0.000404774 0)
(-2.69278 -0.00040572 0)
(-2.69645 -0.000395886 0)
(-2.70016 -0.000373331 0)
(-2.70388 -0.000336351 0)
(-2.70764 -0.000284132 0)
(-2.71142 -0.000216014 0)
(-2.71525 -0.000131747 0)
(-2.71911 -3.18854e-05 0)
(-2.72301 8.26557e-05 0)
(-2.72695 0.000211795 0)
(-2.73094 0.000354757 0)
(-2.73497 0.000510685 0)
(-2.73906 0.000678943 0)
(-2.74321 0.000859714 0)
(-2.7474 0.00105211 0)
(-2.75166 0.00122307 0)
(-2.75601 0.0014308 0)
(-2.76042 0.00165095 0)
(-2.76491 0.00187847 0)
(-2.76948 0.00211216 0)
(-2.77414 0.00235094 0)
(-2.7789 0.00259322 0)
(-2.78376 0.00283707 0)
(-2.78873 0.00307932 0)
(-2.79384 0.00331589 0)
(-2.79907 0.00354168 0)
(-2.80445 0.00374985 0)
(-2.80998 0.00393179 0)
(-2.81569 0.00407677 0)
(-2.82158 0.0041715 0)
(-2.82767 0.00420072 0)
(-2.83399 0.004148 0)
(-2.84055 0.00399569 0)
(-2.84738 0.00372495 0)
(-2.8545 0.00331681 0)
(-2.86193 0.00274894 3.23136e-41)
(-2.8697 0.00203214 0)
(-2.87774 0.00103098 0)
(-2.88622 -7.68237e-05 0)
(-2.895 -0.0013777 0)
(-2.90403 -0.00286962 -3.37322e-41)
(-2.91304 -0.00451812 0)
(-2.92197 -0.00628277 0)
(-2.93032 -0.00814682 0)
(-2.93734 -0.0101469 0)
(-2.94185 -0.0124424 0)
(-2.94194 -0.0152882 -8.98557e-41)
(-2.93433 -0.0191083 0)
(-2.91303 -0.024779 0)
(-2.86711 -0.03413 -4.01196e-40)
(-2.77723 -0.0501802 0)
(-2.6132 -0.076079 0)
(-2.4201 -0.106762 0)
(-2.4333 0.00159012 0)
(-2.43329 0.00220015 0)
(-2.43721 0.00266734 0)
(-2.44074 0.0029653 0)
(-2.44443 0.00313549 0)
(-2.44851 0.00322018 0)
(-2.45255 0.00325051 0)
(-2.45684 0.00324686 0)
(-2.46105 0.00322214 0)
(-2.46543 0.00318478 0)
(-2.46972 0.00314026 0)
(-2.47415 0.00309182 0)
(-2.4785 0.00304271 0)
(-2.48296 0.00299438 0)
(-2.48735 0.00294843 0)
(-2.49185 0.00290518 0)
(-2.49627 0.00286468 0)
(-2.50078 0.00282566 0)
(-2.50523 0.00278655 0)
(-2.50976 0.00274379 0)
(-2.51422 0.00268887 0)
(-2.51878 0.00260741 0)
(-2.52328 0.0025067 0)
(-2.52789 0.00241845 0)
(-2.53244 0.00234456 0)
(-2.53707 0.00227866 0)
(-2.54163 0.0022186 0)
(-2.54627 0.00216205 0)
(-2.55085 0.00210852 0)
(-2.55548 0.0020568 0)
(-2.56007 0.0020074 0)
(-2.56471 0.00195949 0)
(-2.56929 0.00191363 0)
(-2.57392 0.00186906 0)
(-2.57851 0.00182613 0)
(-2.58313 0.00178451 0)
(-2.58772 0.00174471 0)
(-2.59232 0.00170625 0)
(-2.5969 0.00166994 0)
(-2.6015 0.00163553 0)
(-2.60606 0.00160356 0)
(-2.61064 0.00157457 0)
(-2.6152 0.00154922 0)
(-2.61977 0.00152832 0)
(-2.62431 0.00151301 0)
(-2.62886 0.0015045 0)
(-2.6334 0.00150435 0)
(-2.63794 0.00151426 0)
(-2.64247 0.00153592 0)
(-2.647 0.00157132 0)
(-2.65153 0.00162216 0)
(-2.65607 0.00168926 0)
(-2.66059 0.00177333 0)
(-2.66514 0.00187446 0)
(-2.66967 0.00199239 0)
(-2.67422 0.00212664 0)
(-2.67877 0.00227695 0)
(-2.68335 0.00244267 0)
(-2.68793 0.00262328 0)
(-2.69254 0.00281777 0)
(-2.69717 0.00302569 0)
(-2.70183 0.00324217 0)
(-2.70652 0.00346076 0)
(-2.71127 0.00370335 0)
(-2.71605 0.00396133 0)
(-2.72089 0.00423079 0)
(-2.72577 0.00451036 0)
(-2.73073 0.00479895 0)
(-2.73576 0.00509532 0)
(-2.74086 0.00539794 0)
(-2.74606 0.00570411 0)
(-2.75135 0.00601016 0)
(-2.75676 0.00631172 0)
(-2.76229 0.00660252 0)
(-2.76795 0.00687458 0)
(-2.77377 0.00711791 0)
(-2.77976 0.00732026 0)
(-2.78595 0.00746759 0)
(-2.79234 0.00754437 0)
(-2.79897 0.0075336 0)
(-2.80586 0.0074173 0)
(-2.81304 0.00717567 0)
(-2.82053 0.00678685 0)
(-2.82835 0.0062344 0)
(-2.83654 0.0054792 0)
(-2.84511 0.00456109 0)
(-2.85403 0.0034299 0)