/*--------------------------------*- C++ -*----------------------------------*\
| =========                 |                                                 |
| \\      /  F ield         | OpenFOAM: The Open Source CFD Toolbox           |
|  \\    /   O peration     | Version:  2.1.0                                 |
|   \\  /    A nd           | Web:      www.OpenFOAM.org                      |
|    \\/     M anipulation  |                                                 |
\*---------------------------------------------------------------------------*/
FoamFile
{
    version     2.0;
    format      ascii;
    class       volScalarField;
    location    "0.19";
    object      C0;
}
// * * * * * * * * * * * * * * * * * * * * * * * * * * * * * * * * * * * * * //

dimensions      [0 0 0 0 0 0 0];

internalField   nonuniform List<scalar> 
6400
(
1.00709e-09
1.16184e-09
1.37994e-09
1.6454e-09
1.96056e-09
2.33268e-09
2.77108e-09
3.28672e-09
3.89227e-09
4.60232e-09
5.4336e-09
6.40532e-09
7.53949e-09
8.86126e-09
1.03993e-08
1.21864e-08
1.42598e-08
1.66618e-08
1.94404e-08
2.26502e-08
2.63526e-08
3.06172e-08
3.55227e-08
4.11575e-08
4.76212e-08
5.50256e-08
6.34964e-08
7.31743e-08
8.4217e-08
9.68007e-08
1.11122e-07
1.27401e-07
1.45882e-07
1.66837e-07
1.9057e-07
2.17416e-07
2.4775e-07
2.81985e-07
3.20579e-07
3.64041e-07
4.12931e-07
4.6787e-07
5.29542e-07
5.98703e-07
6.76187e-07
7.6291e-07
8.59886e-07
9.68227e-07
1.08916e-06
1.22403e-06
1.37434e-06
1.54169e-06
1.72791e-06
1.93495e-06
2.16499e-06
2.42041e-06
2.70385e-06
3.01818e-06
3.36656e-06
3.75248e-06
4.17976e-06
4.65261e-06
5.17565e-06
5.75394e-06
6.39309e-06
7.09921e-06
7.87908e-06
8.7401e-06
9.69046e-06
1.07392e-05
1.18961e-05
1.31721e-05
1.45793e-05
1.61309e-05
1.78413e-05
1.97267e-05
2.18048e-05
2.40952e-05
2.66194e-05
2.94014e-05
3.24677e-05
3.58479e-05
3.9575e-05
4.36859e-05
4.82227e-05
5.32335e-05
5.87745e-05
6.49123e-05
7.17286e-05
7.93266e-05
8.78433e-05
9.74692e-05
0.000108483
0.000121305
0.00013655
0.000155095
0.000178038
0.000206701
0.000241882
0.000281237
1.0961e-09
1.26717e-09
1.50552e-09
1.7947e-09
2.13766e-09
2.54238e-09
3.01897e-09
3.57929e-09
4.23704e-09
5.00796e-09
5.91013e-09
6.96428e-09
8.19414e-09
9.62681e-09
1.12932e-08
1.32286e-08
1.54731e-08
1.80722e-08
2.10776e-08
2.45477e-08
2.85487e-08
3.31554e-08
3.84519e-08
4.45332e-08
5.15061e-08
5.94903e-08
6.86203e-08
7.90469e-08
9.09386e-08
1.04484e-07
1.19893e-07
1.374e-07
1.57267e-07
1.79783e-07
2.05273e-07
2.34094e-07
2.66645e-07
3.03366e-07
3.44745e-07
3.91322e-07
4.43694e-07
5.0252e-07
5.68527e-07
6.42518e-07
7.25378e-07
8.1808e-07
9.21697e-07
1.03741e-06
1.16652e-06
1.31045e-06
1.47078e-06
1.64923e-06
1.8477e-06
2.06829e-06
2.31328e-06
2.58519e-06
2.8868e-06
3.22113e-06
3.59154e-06
4.0017e-06
4.45562e-06
4.95775e-06
5.51295e-06
6.12657e-06
6.80448e-06
7.55316e-06
8.3797e-06
9.29193e-06
1.02984e-05
1.14087e-05
1.26331e-05
1.39831e-05
1.54714e-05
1.71119e-05
1.89198e-05
2.09121e-05
2.31075e-05
2.55265e-05
2.8192e-05
3.11293e-05
3.43666e-05
3.79352e-05
4.18702e-05
4.62114e-05
5.10039e-05
5.62995e-05
6.21588e-05
6.86534e-05
7.58708e-05
8.39199e-05
9.29418e-05
0.000103125
0.000114735
0.000128154
0.00014394
0.00016285
0.000185658
0.000212964
0.00024422
0.000275779
1.25633e-09
1.45515e-09
1.72925e-09
2.0607e-09
2.45333e-09
2.91634e-09
3.46127e-09
4.10159e-09
4.85282e-09
5.73282e-09
6.76207e-09
7.96404e-09
9.36556e-09
1.09973e-08
1.28941e-08
1.50959e-08
1.76478e-08
2.06012e-08
2.40141e-08
2.79525e-08
3.24907e-08
3.77126e-08
4.37127e-08
5.05976e-08
5.84867e-08
6.75144e-08
7.7831e-08
8.9605e-08
1.03024e-07
1.183e-07
1.35665e-07
1.55382e-07
1.7774e-07
2.03064e-07
2.31711e-07
2.64079e-07
3.0061e-07
3.41791e-07
3.88162e-07
4.4032e-07
4.98925e-07
5.64703e-07
6.38456e-07
7.21068e-07
8.13512e-07
9.16858e-07
1.03229e-06
1.16109e-06
1.30469e-06
1.46466e-06
1.64271e-06
1.84072e-06
2.06078e-06
2.30514e-06
2.57632e-06
2.87703e-06
3.2103e-06
3.57942e-06
3.988e-06
4.44001e-06
4.93981e-06
5.49218e-06
6.10236e-06
6.77612e-06
7.51978e-06
8.34028e-06
9.24525e-06
1.02431e-05
1.13429e-05
1.2555e-05
1.38904e-05
1.53613e-05
1.69813e-05
1.87651e-05
2.07291e-05
2.28913e-05
2.52716e-05
2.78918e-05
3.07763e-05
3.39521e-05
3.7449e-05
4.13007e-05
4.55446e-05
5.02232e-05
5.53848e-05
6.10847e-05
6.73872e-05
7.43682e-05
8.21181e-05
9.07472e-05
0.000100393
0.000111229
0.000123482
0.000137446
0.000153489
0.000172012
0.000193279
0.000217155
0.00024241
0.000265678
1.47851e-09
1.7151e-09
2.03841e-09
2.42823e-09
2.88951e-09
3.43314e-09
4.07259e-09
4.82355e-09
5.7041e-09
6.73499e-09
7.94004e-09
9.34648e-09
1.09854e-08
1.28925e-08
1.5108e-08
1.76781e-08
2.0655e-08
2.40981e-08
2.80744e-08
3.26599e-08
3.79402e-08
4.40118e-08
5.09835e-08
5.89775e-08
6.8131e-08
7.85977e-08
9.05499e-08
1.0418e-07
1.19703e-07
1.37359e-07
1.57414e-07
1.80166e-07
2.05944e-07
2.35116e-07
2.68088e-07
3.0531e-07
3.4728e-07
3.94548e-07
4.47724e-07
5.07478e-07
5.74551e-07
6.49759e-07
7.33998e-07
8.28257e-07
9.33622e-07
1.05129e-06
1.18256e-06
1.32888e-06
1.49182e-06
1.67312e-06
1.87467e-06
2.09854e-06
2.34702e-06
2.62259e-06
2.92799e-06
3.2662e-06
3.6405e-06
4.05448e-06
4.51204e-06
5.0175e-06
5.57554e-06
6.19131e-06
6.87045e-06
7.61911e-06
8.44406e-06
9.35268e-06
1.03531e-05
1.14541e-05
1.26654e-05
1.39978e-05
1.54628e-05
1.70732e-05
1.88432e-05
2.0788e-05
2.29246e-05
2.52714e-05
2.78489e-05
3.06796e-05
3.3788e-05
3.72016e-05
4.09507e-05
4.5069e-05
4.95941e-05
5.45684e-05
6.00397e-05
6.60623e-05
7.26988e-05
8.00211e-05
8.81131e-05
9.70729e-05
0.000107015
0.000118074
0.000130403
0.000144164
0.000159504
0.000176474
0.000195013
0.000214639
0.000234085
0.000250706
1.75181e-09
2.03473e-09
2.41834e-09
2.87977e-09
3.42532e-09
4.06789e-09
4.82334e-09
5.71008e-09
6.74927e-09
7.96524e-09
9.38582e-09
1.10428e-08
1.29727e-08
1.52168e-08
1.78224e-08
2.0843e-08
2.43395e-08
2.83808e-08
3.30449e-08
3.84197e-08
4.46045e-08
5.17111e-08
5.9865e-08
6.92074e-08
7.98963e-08
9.21088e-08
1.06043e-07
1.21919e-07
1.39985e-07
1.60513e-07
1.8381e-07
2.10215e-07
2.40102e-07
2.73889e-07
3.12038e-07
3.55057e-07
4.0351e-07
4.58018e-07
5.19266e-07
5.88008e-07
6.65073e-07
7.51373e-07
8.4791e-07
9.55782e-07
1.07619e-06
1.21047e-06
1.36005e-06
1.52651e-06
1.7116e-06
1.9172e-06
2.14539e-06
2.39841e-06
2.67873e-06
2.98906e-06
3.33232e-06
3.71172e-06
4.13077e-06
4.59327e-06
5.10339e-06
5.66566e-06
6.28501e-06
6.96683e-06
7.71699e-06
8.54188e-06
9.44846e-06
1.04443e-05
1.15378e-05
1.27377e-05
1.40541e-05
1.54975e-05
1.70796e-05
1.88131e-05
2.07118e-05
2.27909e-05
2.50666e-05
2.75571e-05
3.02818e-05
3.3262e-05
3.65212e-05
4.00849e-05
4.39812e-05
4.82411e-05
5.28987e-05
5.79919e-05
6.35632e-05
6.96598e-05
7.63349e-05
8.36478e-05
9.16652e-05
0.00010046
0.000110113
0.000120704
0.000132307
0.000144975
0.000158701
0.000173359
0.000188747
0.000204327
0.000218988
0.00023052
2.05977e-09
2.39507e-09
2.84647e-09
3.38834e-09
4.02853e-09
4.7822e-09
5.66784e-09
6.70686e-09
7.92389e-09
9.34715e-09
1.1009e-08
1.29462e-08
1.52011e-08
1.78215e-08
2.0862e-08
2.43844e-08
2.84589e-08
3.31649e-08
3.8592e-08
4.48414e-08
5.20269e-08
6.02764e-08
6.97339e-08
8.05602e-08
9.29359e-08
1.07062e-07
1.23165e-07
1.41494e-07
1.62329e-07
1.85979e-07
2.1279e-07
2.43142e-07
2.77458e-07
3.16205e-07
3.59898e-07
4.09107e-07
4.64457e-07
5.26638e-07
5.96407e-07
6.74597e-07
7.62119e-07
8.59974e-07
9.69256e-07
1.09116e-06
1.227e-06
1.3782e-06
1.54632e-06
1.73305e-06
1.94026e-06
2.16995e-06
2.42432e-06
2.70575e-06
3.01684e-06
3.3604e-06
3.7395e-06
4.15746e-06
4.61787e-06
5.12466e-06
5.68207e-06
6.29468e-06
6.96748e-06
7.70587e-06
8.51568e-06
9.40323e-06
1.03754e-05
1.14395e-05
1.26036e-05
1.38764e-05
1.52671e-05
1.67859e-05
1.84438e-05
2.02524e-05
2.22244e-05
2.43737e-05
2.67149e-05
2.9264e-05
3.20382e-05
3.5056e-05
3.83373e-05
4.19037e-05
4.57784e-05
4.99864e-05
5.45551e-05
5.95139e-05
6.4895e-05
7.07336e-05
7.70679e-05
8.3939e-05
9.13905e-05
9.94675e-05
0.000108213
0.000117664
0.000127841
0.000138735
0.000150286
0.000162335
0.000174628
0.000186685
0.000197521
0.000205125
2.37681e-09
2.7663e-09
3.28728e-09
3.91154e-09
4.64857e-09
5.51582e-09
6.53442e-09
7.72879e-09
9.12699e-09
1.07612e-08
1.26681e-08
1.48896e-08
1.74737e-08
2.04745e-08
2.39539e-08
2.79819e-08
3.26376e-08
3.80105e-08
4.42016e-08
5.13246e-08
5.95073e-08
6.88931e-08
7.96429e-08
9.19366e-08
1.05975e-07
1.21983e-07
1.4021e-07
1.60933e-07
1.84463e-07
2.11139e-07
2.41342e-07
2.75491e-07
3.14047e-07
3.57521e-07
4.06475e-07
4.61526e-07
5.23352e-07
5.92698e-07
6.70378e-07
7.57285e-07
8.54394e-07
9.62768e-07
1.08357e-06
1.21806e-06
1.36763e-06
1.53375e-06
1.71807e-06
1.92234e-06
2.14848e-06
2.39857e-06
2.67484e-06
2.97972e-06
3.31584e-06
3.68604e-06
4.09337e-06
4.54113e-06
5.03289e-06
5.57249e-06
6.16404e-06
6.81199e-06
7.52113e-06
8.29658e-06
9.14386e-06
1.00689e-05
1.1078e-05
1.21779e-05
1.3376e-05
1.468e-05
1.60983e-05
1.76396e-05
1.93134e-05
2.11298e-05
2.30995e-05
2.52338e-05
2.75447e-05
3.00451e-05
3.27483e-05
3.56687e-05
3.88211e-05
4.22213e-05
4.58857e-05
4.98316e-05
5.40768e-05
5.864e-05
6.35408e-05
6.87997e-05
7.44379e-05
8.04771e-05
8.69386e-05
9.38422e-05
0.000101203
0.00010903
0.000117318
0.000126043
0.000135151
0.000144531
0.000153903
0.000162868
0.000170545
0.000175101
2.66705e-09
3.10635e-09
3.69068e-09
4.38975e-09
5.21456e-09
6.18459e-09
7.32329e-09
8.65772e-09
1.02189e-08
1.20425e-08
1.4169e-08
1.66447e-08
1.95222e-08
2.28615e-08
2.67303e-08
3.12055e-08
3.6374e-08
4.23336e-08
4.91948e-08
5.70816e-08
6.61332e-08
7.65058e-08
8.83738e-08
1.01932e-07
1.17399e-07
1.35015e-07
1.5505e-07
1.77803e-07
2.03604e-07
2.3282e-07
2.65854e-07
3.03152e-07
3.45206e-07
3.92554e-07
4.4579e-07
5.05563e-07
5.72585e-07
6.47633e-07
7.31557e-07
8.25281e-07
9.29815e-07
1.04625e-06
1.17579e-06
1.31971e-06
1.47942e-06
1.65642e-06
1.85237e-06
2.06901e-06
2.30827e-06
2.57219e-06
2.86298e-06
3.18301e-06
3.53484e-06
3.92121e-06
4.34503e-06
4.80946e-06
5.31786e-06
5.87379e-06
6.4811e-06
7.14386e-06
7.86642e-06
8.65339e-06
9.50967e-06
1.04405e-05
1.14513e-05
1.25479e-05
1.37365e-05
1.50236e-05
1.64159e-05
1.79205e-05
1.95448e-05
2.12967e-05
2.31841e-05
2.52154e-05
2.73992e-05
2.97442e-05
3.22595e-05
3.49542e-05
3.78376e-05
4.09187e-05
4.42068e-05
4.77104e-05
5.14379e-05
5.53963e-05
5.95929e-05
6.40337e-05
6.87238e-05
7.3668e-05
7.8869e-05
8.43272e-05
9.00394e-05
9.59974e-05
0.000102186
0.000108584
0.000115162
0.000121872
0.000128457
0.000134585
0.000139525
0.000141751
2.88847e-09
3.36586e-09
3.99815e-09
4.75367e-09
5.64457e-09
6.69179e-09
7.92046e-09
9.35955e-09
1.10423e-08
1.30065e-08
1.52957e-08
1.7959e-08
2.10526e-08
2.464e-08
2.87934e-08
3.35943e-08
3.91346e-08
4.55179e-08
5.28608e-08
6.12942e-08
7.09647e-08
8.20364e-08
9.46926e-08
1.09138e-07
1.25599e-07
1.44329e-07
1.65608e-07
1.89746e-07
2.17087e-07
2.4801e-07
2.82931e-07
3.2231e-07
3.66651e-07
4.16507e-07
4.72483e-07
5.35242e-07
6.05504e-07
6.84058e-07
7.71758e-07
8.69534e-07
9.78395e-07
1.09943e-06
1.23383e-06
1.38286e-06
1.54789e-06
1.73041e-06
1.93201e-06
2.15439e-06
2.39938e-06
2.66895e-06
2.96519e-06
3.29032e-06
3.64674e-06
4.03697e-06
4.4637e-06
4.92979e-06
5.43826e-06
5.9923e-06
6.59529e-06
7.25077e-06
7.96247e-06
8.7343e-06
9.57034e-06
1.04749e-05
1.14523e-05
1.25072e-05
1.36444e-05
1.48687e-05
1.61852e-05
1.75988e-05
1.91149e-05
2.07385e-05
2.24748e-05
2.43288e-05
2.63054e-05
2.84094e-05
3.06451e-05
3.30164e-05
3.55267e-05
3.81788e-05
4.09747e-05
4.39153e-05
4.70007e-05
5.02302e-05
5.35999e-05
5.71037e-05
6.07321e-05
6.44775e-05
6.8328e-05
7.22709e-05
7.62897e-05
8.03646e-05
8.44725e-05
8.85882e-05
9.26867e-05
9.67447e-05
0.000100679
0.000104131
0.000106627
0.000107112
3.00172e-09
3.49853e-09
4.15502e-09
4.93888e-09
5.8628e-09
6.94845e-09
8.22171e-09
9.71243e-09
1.14548e-08
1.34877e-08
1.58559e-08
1.86098e-08
2.1807e-08
2.55128e-08
2.98009e-08
3.47548e-08
4.04683e-08
4.70474e-08
5.46109e-08
6.3292e-08
7.32401e-08
8.46217e-08
9.76229e-08
1.12451e-07
1.29335e-07
1.48531e-07
1.70322e-07
1.9502e-07
2.22969e-07
2.5455e-07
2.9018e-07
3.30317e-07
3.75464e-07
4.26169e-07
4.83033e-07
5.46709e-07
6.17908e-07
6.97402e-07
7.86029e-07
8.84693e-07
9.94374e-07
1.11613e-06
1.25109e-06
1.40047e-06
1.5656e-06
1.74786e-06
1.94875e-06
2.16987e-06
2.41293e-06
2.67972e-06
2.97216e-06
3.29227e-06
3.64219e-06
4.02419e-06
4.44061e-06
4.89395e-06
5.38681e-06
5.92188e-06
6.50198e-06
7.13003e-06
7.80904e-06
8.5421e-06
9.33238e-06
1.01831e-05
1.10976e-05
1.2079e-05
1.31307e-05
1.42559e-05
1.54578e-05
1.67394e-05
1.81036e-05
1.95529e-05
2.10898e-05
2.2716e-05
2.44332e-05
2.62421e-05
2.8143e-05
3.01353e-05
3.22173e-05
3.43865e-05
3.6639e-05
3.89695e-05
4.13715e-05
4.38365e-05
4.63543e-05
4.89132e-05
5.14999e-05
5.40928e-05
5.66675e-05
5.9204e-05
6.16768e-05
6.40577e-05
6.63147e-05
6.84116e-05
7.03079e-05
7.19574e-05
7.3304e-05
7.42775e-05
7.45832e-05
7.37602e-05
2.98219e-09
3.47534e-09
4.12712e-09
4.90533e-09
5.82249e-09
6.90008e-09
8.16372e-09
9.64299e-09
1.13717e-08
1.33885e-08
1.57374e-08
1.84686e-08
2.16388e-08
2.53125e-08
2.95627e-08
3.44716e-08
4.01321e-08
4.66484e-08
5.41377e-08
6.27311e-08
7.25756e-08
8.3835e-08
9.66919e-08
1.11349e-07
1.28033e-07
1.46993e-07
1.68504e-07
1.92873e-07
2.20435e-07
2.5156e-07
2.86653e-07
3.26159e-07
3.70563e-07
4.20395e-07
4.76232e-07
5.38703e-07
6.08487e-07
6.86321e-07
7.73002e-07
8.69387e-07
9.764e-07
1.09503e-06
1.22635e-06
1.37148e-06
1.53164e-06
1.70811e-06
1.90227e-06
2.11557e-06
2.34953e-06
2.60576e-06
2.88597e-06
3.19192e-06
3.52548e-06
3.88856e-06
4.28318e-06
4.7114e-06
5.17535e-06
5.67721e-06
6.21922e-06
6.80361e-06
7.43267e-06
8.10865e-06
8.83381e-06
9.61033e-06
1.04403e-05
1.13258e-05
1.22687e-05
1.32707e-05
1.43332e-05
1.54574e-05
1.6644e-05
1.78935e-05
1.92058e-05
2.05801e-05
2.20151e-05
2.35085e-05
2.50573e-05
2.66574e-05
2.83034e-05
2.9989e-05
3.17063e-05
3.34459e-05
3.5197e-05
3.69469e-05
3.86815e-05
4.03848e-05
4.20389e-05
4.36237e-05
4.51181e-05
4.6488e-05
4.77017e-05
4.87299e-05
4.95389e-05
5.00892e-05
5.03365e-05
5.02327e-05
4.97307e-05
4.87923e-05
4.73979e-05
4.56375e-05
2.83407e-09
3.30131e-09
3.92044e-09
4.66011e-09
5.53202e-09
6.55655e-09
7.75813e-09
9.1649e-09
1.08091e-08
1.27276e-08
1.49622e-08
1.75608e-08
2.05775e-08
2.40738e-08
2.81191e-08
3.27918e-08
3.81804e-08
4.43841e-08
5.15146e-08
5.96967e-08
6.90702e-08
7.97909e-08
9.20326e-08
1.05988e-07
1.21872e-07
1.3992e-07
1.60396e-07
1.83587e-07
2.09813e-07
2.39421e-07
2.72795e-07
3.10352e-07
3.52551e-07
3.99888e-07
4.52903e-07
5.12184e-07
5.78363e-07
6.52128e-07
7.34213e-07
8.25413e-07
9.26575e-07
1.03861e-06
1.16248e-06
1.29922e-06
1.44993e-06
1.61575e-06
1.79791e-06
1.99768e-06
2.21641e-06
2.4555e-06
2.7164e-06
3.00063e-06
3.30974e-06
3.64533e-06
4.00903e-06
4.4025e-06
4.82741e-06
5.28543e-06
5.77821e-06
6.30738e-06
6.87452e-06
7.48112e-06
8.1286e-06
8.8182e-06
9.55105e-06
1.0328e-05
1.11499e-05
1.20169e-05
1.29291e-05
1.38862e-05
1.48873e-05
1.5931e-05
1.70154e-05
1.81377e-05
1.92945e-05
2.04815e-05
2.16933e-05
2.29237e-05
2.41651e-05
2.54088e-05
2.66449e-05
2.78621e-05
2.90477e-05
3.01877e-05
3.12667e-05
3.22681e-05
3.31738e-05
3.39645e-05
3.46198e-05
3.5117e-05
3.54278e-05
3.55151e-05
3.53551e-05
3.49194e-05
3.41785e-05
3.31089e-05
3.17054e-05
3.00055e-05
2.81354e-05
2.63761e-05
2.58722e-09
3.01169e-09
3.57662e-09
4.25226e-09
5.04897e-09
5.98535e-09
7.0838e-09
8.37017e-09
9.87403e-09
1.16292e-08
1.36742e-08
1.60529e-08
1.88152e-08
2.20174e-08
2.57235e-08
3.00056e-08
3.4945e-08
4.06331e-08
4.71726e-08
5.46783e-08
6.3279e-08
7.3118e-08
8.43551e-08
9.71677e-08
1.11753e-07
1.28329e-07
1.47135e-07
1.68439e-07
1.9253e-07
2.1973e-07
2.50389e-07
2.84891e-07
3.23651e-07
3.67126e-07
4.15808e-07
4.7023e-07
5.30967e-07
5.98641e-07
6.73918e-07
7.5751e-07
8.50181e-07
9.52742e-07
1.06606e-06
1.19103e-06
1.32864e-06
1.47989e-06
1.64584e-06
1.8276e-06
2.02631e-06
2.24317e-06
2.4794e-06
2.73625e-06
3.015e-06
3.31692e-06
3.64331e-06
3.99544e-06
4.37458e-06
4.78193e-06
5.21865e-06
5.68583e-06
6.18445e-06
6.71537e-06
7.27928e-06
7.87671e-06
8.50794e-06
9.173e-06
9.87164e-06
1.06032e-05
1.13667e-05
1.21607e-05
1.29831e-05
1.38313e-05
1.47022e-05
1.55918e-05
1.64954e-05
1.74074e-05
1.83214e-05
1.923e-05
2.01247e-05
2.09961e-05
2.18338e-05
2.26262e-05
2.33609e-05
2.40244e-05
2.46026e-05
2.50806e-05
2.54429e-05
2.56737e-05
2.5757e-05
2.56766e-05
2.54162e-05
2.49563e-05
2.42705e-05
2.33509e-05
2.21902e-05
2.07924e-05
1.9187e-05
1.7449e-05
1.57324e-05
1.43083e-05
2.28236e-09
2.65442e-09
3.15239e-09
3.74878e-09
4.45233e-09
5.27945e-09
6.24998e-09
7.38686e-09
8.71635e-09
1.02685e-08
1.20775e-08
1.41825e-08
1.66276e-08
1.94631e-08
2.27458e-08
2.65401e-08
3.09182e-08
3.59615e-08
4.17617e-08
4.8421e-08
5.60541e-08
6.47888e-08
7.47677e-08
8.61489e-08
9.91081e-08
1.1384e-07
1.30558e-07
1.495e-07
1.70925e-07
1.95118e-07
2.22392e-07
2.53087e-07
2.87576e-07
3.2626e-07
3.69579e-07
4.18003e-07
4.72044e-07
5.32248e-07
5.99202e-07
6.73535e-07
7.55915e-07
8.47051e-07
9.47694e-07
1.05864e-06
1.18071e-06
1.31478e-06
1.46176e-06
1.62259e-06
1.79822e-06
1.98965e-06
2.19789e-06
2.42396e-06
2.66887e-06
2.93364e-06
3.21926e-06
3.52669e-06
3.85684e-06
4.21056e-06
4.58861e-06
4.99164e-06
5.42017e-06
5.87459e-06
6.35508e-06
6.86159e-06
7.39384e-06
7.95127e-06
8.53298e-06
9.13768e-06
9.76369e-06
1.04089e-05
1.10705e-05
1.17453e-05
1.24296e-05
1.31186e-05
1.38073e-05
1.44897e-05
1.51589e-05
1.58074e-05
1.6427e-05
1.70084e-05
1.75418e-05
1.80167e-05
1.8422e-05
1.87462e-05
1.89774e-05
1.9104e-05
1.91143e-05
1.89973e-05
1.87428e-05
1.83421e-05
1.77884e-05
1.70771e-05
1.61978e-05
1.51494e-05
1.39435e-05
1.26015e-05
1.11671e-05
9.71655e-06
8.37451e-06
7.33415e-06
1.96037e-09
2.27748e-09
2.70465e-09
3.21708e-09
3.82187e-09
4.53306e-09
5.36778e-09
6.34583e-09
7.48991e-09
8.82598e-09
1.03837e-08
1.21966e-08
1.43033e-08
1.67471e-08
1.95772e-08
2.28494e-08
2.66262e-08
3.09784e-08
3.59851e-08
4.17353e-08
4.83284e-08
5.58754e-08
6.44999e-08
7.43393e-08
8.55461e-08
9.8289e-08
1.12754e-07
1.29147e-07
1.47694e-07
1.68641e-07
1.92261e-07
2.18848e-07
2.48726e-07
2.82242e-07
3.19777e-07
3.61739e-07
4.08568e-07
4.60738e-07
5.18754e-07
5.83156e-07
6.54518e-07
7.33448e-07
8.20587e-07
9.1661e-07
1.02222e-06
1.13815e-06
1.26517e-06
1.40405e-06
1.5556e-06
1.72063e-06
1.89996e-06
2.09441e-06
2.30479e-06
2.53188e-06
2.77644e-06
3.03918e-06
3.32074e-06
3.62169e-06
3.94251e-06
4.28355e-06
4.64501e-06
5.02694e-06
5.42919e-06
5.85138e-06
6.29288e-06
6.75276e-06
7.22978e-06
7.72233e-06
8.22839e-06
8.74553e-06
9.27079e-06
9.80074e-06
1.03314e-05
1.08581e-05
1.13757e-05
1.18784e-05
1.23598e-05
1.28128e-05
1.32297e-05
1.36024e-05
1.39222e-05
1.41802e-05
1.4367e-05
1.44736e-05
1.44909e-05
1.44104e-05
1.42242e-05
1.3926e-05
1.35109e-05
1.29764e-05
1.23232e-05
1.15552e-05
1.06802e-05
9.69938e-06
8.63281e-06
7.50799e-06
6.36772e-06
5.27324e-06
4.30821e-06
3.58833e-06
1.65431e-09
1.91957e-09
2.27941e-09
2.7119e-09
3.22261e-09
3.82336e-09
4.52864e-09
5.35524e-09
6.32244e-09
7.45227e-09
8.76988e-09
1.03039e-08
1.2087e-08
1.4156e-08
1.65528e-08
1.93248e-08
2.25254e-08
2.62145e-08
3.04597e-08
3.53368e-08
4.09303e-08
4.73349e-08
5.46559e-08
6.30105e-08
7.25285e-08
8.33539e-08
9.56453e-08
1.09578e-07
1.25344e-07
1.43155e-07
1.63241e-07
1.85855e-07
2.1127e-07
2.39784e-07
2.7172e-07
3.07424e-07
3.47271e-07
3.91662e-07
4.41025e-07
4.95818e-07
5.56526e-07
6.2366e-07
6.9776e-07
7.79393e-07
8.69148e-07
9.67637e-07
1.07549e-06
1.19336e-06
1.3219e-06
1.46177e-06
1.61363e-06
1.77815e-06
1.95596e-06
2.14767e-06
2.35385e-06
2.57502e-06
2.81165e-06
3.0641e-06
3.33266e-06
3.61747e-06
3.91856e-06
4.23578e-06
4.56879e-06
4.91704e-06
5.27973e-06
5.65582e-06
6.04393e-06
6.44238e-06
6.8491e-06
7.26163e-06
7.67711e-06
8.0922e-06
8.5031e-06
8.90552e-06
9.29469e-06
9.66533e-06
1.00117e-05
1.03274e-05
1.06061e-05
1.08405e-05
1.10235e-05
1.11478e-05
1.1206e-05
1.11911e-05
1.10963e-05
1.09159e-05
1.06451e-05
1.02808e-05
9.82181e-06
9.26978e-06
8.62976e-06
7.91084e-06
7.12641e-06
6.28815e-06
5.41181e-06
4.52415e-06
3.66116e-06
2.86741e-06
2.19466e-06
1.70462e-06
1.38677e-09
1.60692e-09
1.90788e-09
2.27043e-09
2.69887e-09
3.20302e-09
3.79509e-09
4.48925e-09
5.30173e-09
6.25114e-09
7.35872e-09
8.64865e-09
1.01485e-08
1.18894e-08
1.39068e-08
1.62407e-08
1.89363e-08
2.20443e-08
2.56219e-08
2.97333e-08
3.445e-08
3.98521e-08
4.60288e-08
5.30795e-08
6.1114e-08
7.02542e-08
8.06347e-08
9.24037e-08
1.05724e-07
1.20775e-07
1.37752e-07
1.56867e-07
1.78354e-07
2.02463e-07
2.29467e-07
2.59659e-07
2.93356e-07
3.30895e-07
3.72638e-07
4.18969e-07
4.70295e-07
5.27047e-07
5.89676e-07
6.58656e-07
7.34477e-07
8.17647e-07
9.08691e-07
1.00814e-06
1.11653e-06
1.23441e-06
1.36232e-06
1.50076e-06
1.65027e-06
1.8113e-06
1.9843e-06
2.16965e-06
2.36768e-06
2.57864e-06
2.80267e-06
3.03982e-06
3.28999e-06
3.55295e-06
3.82829e-06
4.11541e-06
4.41347e-06
4.72143e-06
5.03795e-06
5.36142e-06
5.6899e-06
6.02113e-06
6.35247e-06
6.6809e-06
7.00303e-06
7.31507e-06
7.6128e-06
7.89165e-06
8.14665e-06
8.3725e-06
8.56363e-06
8.71424e-06
8.81845e-06
8.87036e-06
8.86423e-06
8.79468e-06
8.65687e-06
8.44681e-06
8.16163e-06
7.80007e-06
7.36289e-06
6.85351e-06
6.27856e-06
5.64838e-06
4.97698e-06
4.2823e-06
3.57588e-06
2.87954e-06
2.22198e-06
1.63583e-06
1.15466e-06
8.10955e-07
1.17172e-09
1.35556e-09
1.60909e-09
1.91537e-09
2.27765e-09
2.70418e-09
3.2053e-09
3.79305e-09
4.48126e-09
5.28578e-09
6.22469e-09
7.31862e-09
8.59101e-09
1.00685e-08
1.17813e-08
1.37636e-08
1.60538e-08
1.86954e-08
2.17372e-08
2.52339e-08
2.92468e-08
3.38444e-08
3.91028e-08
4.5107e-08
5.1951e-08
5.9739e-08
6.85862e-08
7.86194e-08
8.99781e-08
1.02815e-07
1.17298e-07
1.33608e-07
1.51944e-07
1.72522e-07
1.95573e-07
2.21349e-07
2.50119e-07
2.8217e-07
3.17812e-07
3.5737e-07
4.01192e-07
4.49642e-07
5.03103e-07
5.61974e-07
6.26671e-07
6.97622e-07
7.75264e-07
8.60044e-07
9.5241e-07
1.05281e-06
1.16168e-06
1.27946e-06
1.40655e-06
1.54333e-06
1.69015e-06
1.84729e-06
2.01499e-06
2.19343e-06
2.38267e-06
2.58269e-06
2.79336e-06
3.0144e-06
3.24538e-06
3.48571e-06
3.73459e-06
3.99105e-06
4.25384e-06
4.5215e-06
4.79229e-06
5.06417e-06
5.33483e-06
5.60161e-06
5.86157e-06
6.11143e-06
6.3476e-06
6.56617e-06
6.76297e-06
6.93358e-06
7.0734e-06
7.17769e-06
7.24168e-06
7.26067e-06
7.23015e-06
7.14597e-06
7.0045e-06
6.80286e-06
6.53919e-06
6.213e-06
5.82553e-06
5.38025e-06
4.88346e-06
4.3447e-06
3.77647e-06
3.19458e-06
2.61287e-06
2.04563e-06
1.51582e-06
1.04937e-06
6.72896e-07
4.08636e-07
1.01805e-09
1.17549e-09
1.39492e-09
1.66087e-09
1.97581e-09
2.34682e-09
2.78292e-09
3.29464e-09
3.89409e-09
4.59514e-09
5.41365e-09
6.3677e-09
7.47786e-09
8.76751e-09
1.02632e-08
1.19948e-08
1.39962e-08
1.63056e-08
1.89659e-08
2.20252e-08
2.55375e-08
2.95628e-08
3.41684e-08
3.9429e-08
4.54274e-08
5.22555e-08
6.00146e-08
6.88166e-08
7.87842e-08
9.00523e-08
1.02768e-07
1.17092e-07
1.33199e-07
1.51279e-07
1.71536e-07
1.94191e-07
2.19481e-07
2.4766e-07
2.78999e-07
3.13784e-07
3.5232e-07
3.94926e-07
4.41939e-07
4.93708e-07
5.50594e-07
6.12972e-07
6.81222e-07
7.55731e-07
8.36886e-07
9.25074e-07
1.02067e-06
1.12405e-06
1.23554e-06
1.35547e-06
1.48412e-06
1.62173e-06
1.76848e-06
1.92449e-06
2.0898e-06
2.26436e-06
2.448e-06
2.64044e-06
2.84128e-06
3.04993e-06
3.26566e-06
3.48756e-06
3.71451e-06
3.94517e-06
4.17796e-06
4.41108e-06
4.64246e-06
4.86976e-06
5.0904e-06
5.30151e-06
5.5e-06
5.6825e-06
5.84546e-06
5.98513e-06
6.09764e-06
6.17905e-06
6.22543e-06
6.23292e-06
6.19787e-06
6.11698e-06
5.98738e-06
5.80686e-06
5.57403e-06
5.28859e-06
4.95161e-06
4.56588e-06
4.13651e-06
3.67134e-06
3.18071e-06
2.67626e-06
2.17346e-06
1.68188e-06
1.21929e-06
8.07838e-07
4.72904e-07
2.37695e-07
9.33406e-10
1.07549e-09
1.2758e-09
1.51936e-09
1.80807e-09
2.14836e-09
2.54851e-09
3.01822e-09
3.56867e-09
4.21264e-09
4.96478e-09
5.84178e-09
6.86265e-09
8.04897e-09
9.42526e-09
1.10192e-08
1.28622e-08
1.49895e-08
1.74407e-08
2.02606e-08
2.34989e-08
2.72115e-08
3.14606e-08
3.63154e-08
4.18528e-08
4.8158e-08
5.53249e-08
6.34573e-08
7.26692e-08
8.30855e-08
9.48431e-08
1.08091e-07
1.22991e-07
1.3972e-07
1.58468e-07
1.79438e-07
2.02852e-07
2.28945e-07
2.57969e-07
2.90188e-07
3.25887e-07
3.65361e-07
4.08921e-07
4.56891e-07
5.09606e-07
5.67412e-07
6.3066e-07
6.99707e-07
7.74911e-07
8.56625e-07
9.45199e-07
1.04096e-06
1.14424e-06
1.2553e-06
1.37442e-06
1.50181e-06
1.63761e-06
1.78194e-06
1.93482e-06
2.09618e-06
2.26585e-06
2.44357e-06
2.62893e-06
2.82138e-06
3.02024e-06
3.22464e-06
3.43351e-06
3.64562e-06
3.8595e-06
4.07345e-06
4.28556e-06
4.49368e-06
4.69543e-06
4.88818e-06
5.0691e-06
5.23514e-06
5.38306e-06
5.5095e-06
5.61097e-06
5.68396e-06
5.72495e-06
5.73055e-06
5.69753e-06
5.62298e-06
5.50442e-06
5.3399e-06
5.1282e-06
4.869e-06
4.56305e-06
4.21245e-06
3.82108e-06
3.39548e-06
2.94512e-06
2.4811e-06
2.01675e-06
1.5615e-06
1.12941e-06
7.38506e-07
4.11676e-07
1.74915e-07
0.000312082
0.000311333
0.000305951
0.000299214
0.000292039
0.000284784
0.000277621
0.000270632
0.000263833
0.000257189
0.00025062
0.000244016
0.000237247
0.000230171
0.000222661
0.000214636
0.000206127
0.000197402
0.000189195
0.000183191
0.000296831
0.000295837
0.000289718
0.000282025
0.000273962
0.000265972
0.000258227
0.000250784
0.000243629
0.000236698
0.000229891
0.000223081
0.000216128
0.000208889
0.000201239
0.000193114
0.000184573
0.000175923
0.000167949
0.000162343
0.000279452
0.000277277
0.000270572
0.000262333
0.000253769
0.000245365
0.000237304
0.00022963
0.000222309
0.00021526
0.000208369
0.0002015
0.000194508
0.000187253
0.00017962
0.000171563
0.000163165
0.00015476
0.00014715
0.000141963
0.000258759
0.000255306
0.000248191
0.000239793
0.000231152
0.00022272
0.000214673
0.000207049
0.000199805
0.000192854
0.000186075
0.000179332
0.000172483
0.000165395
0.00015797
0.000150176
0.000142118
0.000134149
0.000127065
0.000122395
0.000234104
0.00022971
0.000222513
0.000214351
0.00020605
0.000197986
0.000190309
0.000183046
0.000176156
0.00016955
0.000163112
0.000156713
0.00015022
0.000143514
0.00013651
0.000129196
0.000121693
0.000114369
0.000107995
0.000103946
0.000205436
0.000200623
0.000193772
0.000186253
0.000178689
0.000171368
0.000164404
0.000157816
0.000151561
0.000145559
0.000139705
0.000133884
0.000127977
0.000121881
0.000115527
0.000108918
0.000102192
9.57215e-05
9.02375e-05
8.68829e-05
0.000173328
0.000168656
0.000162588
0.000156094
0.000149617
0.000143363
0.000137414
0.000131778
0.000126416
0.000121261
0.000116223
0.000111205
0.000106107
0.000100843
9.53592e-05
8.96732e-05
8.39342e-05
7.85054e-05
7.40483e-05
7.14139e-05
0.000139001
0.00013496
0.000130037
0.000124865
0.000119739
0.000114794
0.000110085
0.000105611
0.000101342
9.72215e-05
9.31835e-05
8.9152e-05
8.50492e-05
8.08062e-05
7.63835e-05
7.18082e-05
6.72284e-05
6.29818e-05
5.96122e-05
5.76738e-05
0.000104274
0.000101197
9.76377e-05
9.39543e-05
9.03165e-05
8.6803e-05
8.34425e-05
8.02352e-05
7.71586e-05
7.41764e-05
7.12433e-05
6.83072e-05
6.5314e-05
6.22154e-05
5.89846e-05
5.56484e-05
5.23398e-05
4.93366e-05
4.70263e-05
4.57193e-05
7.13695e-05
6.93903e-05
6.72342e-05
6.50334e-05
6.28576e-05
6.07438e-05
5.87058e-05
5.67439e-05
5.48458e-05
5.29931e-05
5.11615e-05
4.93241e-05
4.74524e-05
4.55217e-05
4.3519e-05
4.14631e-05
3.94474e-05
3.76472e-05
3.62912e-05
3.55371e-05
4.37982e-05
4.27863e-05
4.18095e-05
4.08355e-05
3.98666e-05
3.89071e-05
3.79592e-05
3.70225e-05
3.60935e-05
3.51678e-05
3.424e-05
3.33051e-05
3.2361e-05
3.1408e-05
3.0455e-05
2.95225e-05
2.86462e-05
2.78861e-05
2.73325e-05
2.70434e-05
2.51701e-05
2.47595e-05
2.44599e-05
2.41831e-05
2.39027e-05
2.361e-05
2.33022e-05
2.29788e-05
2.26405e-05
2.22902e-05
2.19317e-05
2.15713e-05
2.12191e-05
2.08881e-05
2.05958e-05
2.03614e-05
2.01981e-05
2.01056e-05
2.00767e-05
2.01032e-05
1.35638e-05
1.34665e-05
1.34901e-05
1.3542e-05
1.35904e-05
1.36232e-05
1.36351e-05
1.36253e-05
1.35964e-05
1.35536e-05
1.35043e-05
1.34586e-05
1.34302e-05
1.34359e-05
1.34945e-05
1.36232e-05
1.38289e-05
1.4094e-05
1.43656e-05
1.45703e-05
6.87229e-06
6.90133e-06
7.03522e-06
7.19633e-06
7.35725e-06
7.50655e-06
7.63931e-06
7.75454e-06
7.85442e-06
7.94372e-06
8.03018e-06
8.12397e-06
8.23788e-06
8.38748e-06
8.58974e-06
8.85971e-06
9.20297e-06
9.60205e-06
9.99585e-06
1.02751e-05
3.28725e-06
3.34382e-06
3.48234e-06
3.6448e-06
3.81031e-06
3.96974e-06
4.119e-06
4.2571e-06
4.38562e-06
4.50835e-06
4.63153e-06
4.76341e-06
4.91446e-06
5.09716e-06
5.32516e-06
5.6109e-06
5.95983e-06
6.35881e-06
6.75538e-06
7.03366e-06
1.49486e-06
1.53909e-06
1.64385e-06
1.76854e-06
1.8982e-06
2.02605e-06
2.14895e-06
2.26604e-06
2.37837e-06
2.48869e-06
2.60143e-06
2.7227e-06
2.86022e-06
3.02321e-06
3.22193e-06
3.46593e-06
3.76025e-06
4.09649e-06
4.43559e-06
4.68072e-06
6.54696e-07
6.77957e-07
7.44832e-07
8.27539e-07
9.15561e-07
1.0041e-06
1.09095e-06
1.17553e-06
1.2585e-06
1.34169e-06
1.42807e-06
1.52178e-06
1.62816e-06
1.75366e-06
1.90554e-06
2.09082e-06
2.31365e-06
2.56923e-06
2.83073e-06
3.02653e-06
2.83107e-07
2.89265e-07
3.27026e-07
3.76721e-07
4.30927e-07
4.86464e-07
5.41979e-07
5.9714e-07
6.52383e-07
7.08852e-07
7.68417e-07
8.33726e-07
9.08253e-07
9.96298e-07
1.1028e-06
1.23268e-06
1.38916e-06
1.56969e-06
1.75693e-06
1.90154e-06
1.25669e-07
1.21813e-07
1.41216e-07
1.68825e-07
1.99682e-07
2.3192e-07
2.64813e-07
2.98201e-07
3.32351e-07
3.67939e-07
4.06082e-07
4.48392e-07
4.97024e-07
5.54708e-07
6.24669e-07
7.10254e-07
8.13876e-07
9.34424e-07
1.06127e-06
1.16193e-06
5.78504e-08
5.17811e-08
6.11683e-08
7.54395e-08
9.18235e-08
1.09368e-07
1.27707e-07
1.46763e-07
1.66687e-07
1.87857e-07
2.10909e-07
2.36779e-07
2.66741e-07
3.02444e-07
3.45901e-07
3.99306e-07
4.64469e-07
5.41292e-07
6.24069e-07
6.92696e-07
0.001
0.001
0.001
0.001
0.001
0.001
0.001
0.001
0.001
0.001
0.001
0.001
0.001
0.001
0.001
0.001
0.001
0.001
0.001
0.001
0.001
0.001
0.001
0.001
0.001
0.001
0.001
0.001
0.001
0.001
0.001
0.001
0.001
0.001
0.001
0.001
0.001
0.001
0.001
0.001
0.001
0.001
0.001
0.001
0.001
0.001
0.001
0.001
0.001
0.001
0.001
0.001
0.001
0.001
0.001
0.001
0.001
0.001
0.001
0.001
0.001
0.001
0.001
0.001
0.001
0.001
0.001
0.001
0.001
0.001
0.001
0.001
0.001
0.001
0.001
0.001
0.001
0.001
0.001
0.001
0.001
0.001
0.001
0.001
0.001
0.001
0.001
0.001
0.001
0.001
0.001
0.001
0.001
0.001
0.001
0.001
0.001
0.001
0.001
0.001
0.001
0.001