/*--------------------------------*- C++ -*----------------------------------*\
| =========                 |                                                 |
| \\      /  F ield         | OpenFOAM: The Open Source CFD Toolbox           |
|  \\    /   O peration     | Version:  2.1.0                                 |
|   \\  /    A nd           | Web:      www.OpenFOAM.org                      |
|    \\/     M anipulation  |                                                 |
\*---------------------------------------------------------------------------*/
FoamFile
{
    version     2.0;
    format      ascii;
    class       volScalarField;
    location    "0.19";
    object      C2;
}
// * * * * * * * * * * * * * * * * * * * * * * * * * * * * * * * * * * * * * //

dimensions      [0 0 0 0 0 0 0];

internalField   nonuniform List<scalar> 
6400
(
1.77149e-08
2.02982e-08
2.39162e-08
2.82841e-08
3.34232e-08
3.94345e-08
4.64493e-08
5.46206e-08
6.41224e-08
7.51525e-08
8.79348e-08
1.02722e-07
1.19799e-07
1.39486e-07
1.62144e-07
1.88175e-07
2.18029e-07
2.52209e-07
2.91275e-07
3.35846e-07
3.86611e-07
4.4433e-07
5.09841e-07
5.84066e-07
6.68017e-07
7.62802e-07
8.69628e-07
9.89813e-07
1.12478e-06
1.27609e-06
1.4454e-06
1.63452e-06
1.84537e-06
2.08001e-06
2.34066e-06
2.62963e-06
2.94942e-06
3.30261e-06
3.69194e-06
4.12027e-06
4.59057e-06
5.10589e-06
5.66939e-06
6.28429e-06
6.95383e-06
7.68131e-06
8.46997e-06
9.32303e-06
1.02436e-05
1.12347e-05
1.22992e-05
1.34395e-05
1.46579e-05
1.59565e-05
1.73365e-05
1.8799e-05
2.03442e-05
2.19718e-05
2.36806e-05
2.54684e-05
2.73321e-05
2.92674e-05
3.1269e-05
3.33299e-05
3.54418e-05
3.75949e-05
3.97777e-05
4.1977e-05
4.41776e-05
4.63626e-05
4.85132e-05
5.06085e-05
5.26257e-05
5.45402e-05
5.63253e-05
5.7953e-05
5.93933e-05
6.06152e-05
6.15864e-05
6.22741e-05
6.26448e-05
6.26655e-05
6.23037e-05
6.15287e-05
6.03123e-05
5.86303e-05
5.6464e-05
5.38018e-05
5.06419e-05
4.69947e-05
4.28859e-05
3.83609e-05
3.3491e-05
2.83864e-05
2.32071e-05
1.81397e-05
1.33068e-05
8.86923e-06
5.07162e-06
2.2336e-06
1.9213e-08
2.20587e-08
2.59985e-08
3.07392e-08
3.6311e-08
4.28251e-08
5.04233e-08
5.92705e-08
6.95543e-08
8.14876e-08
9.5311e-08
1.11297e-07
1.2975e-07
1.51017e-07
1.75483e-07
2.03581e-07
2.35795e-07
2.72663e-07
3.14785e-07
3.62827e-07
4.17525e-07
4.79695e-07
5.50233e-07
6.30128e-07
7.20462e-07
8.2242e-07
9.37296e-07
1.0665e-06
1.21155e-06
1.37411e-06
1.55597e-06
1.75904e-06
1.98539e-06
2.23722e-06
2.51688e-06
2.82687e-06
3.16984e-06
3.54856e-06
3.96595e-06
4.42507e-06
4.92909e-06
5.48128e-06
6.08502e-06
6.74375e-06
7.46096e-06
8.24016e-06
9.08485e-06
9.99848e-06
1.09844e-05
1.20458e-05
1.31858e-05
1.44071e-05
1.57122e-05
1.71032e-05
1.85815e-05
2.01484e-05
2.18041e-05
2.35484e-05
2.538e-05
2.72966e-05
2.92951e-05
3.1371e-05
3.35186e-05
3.57306e-05
3.79982e-05
4.03111e-05
4.26569e-05
4.50218e-05
4.73895e-05
4.97421e-05
5.20593e-05
5.43191e-05
5.6497e-05
5.85665e-05
6.04992e-05
6.22648e-05
6.38311e-05
6.51645e-05
6.62303e-05
6.69925e-05
6.74148e-05
6.74608e-05
6.70944e-05
6.62811e-05
6.49887e-05
6.31887e-05
6.08581e-05
5.79818e-05
5.45552e-05
5.0588e-05
4.61096e-05
4.11753e-05
3.58756e-05
3.03448e-05
2.47652e-05
1.9357e-05
1.42499e-05
9.64057e-06
5.80042e-06
3.02176e-06
2.1908e-08
2.51985e-08
2.9706e-08
3.51113e-08
4.14569e-08
4.88707e-08
5.75139e-08
6.75728e-08
7.92594e-08
9.28138e-08
1.08508e-07
1.26648e-07
1.47579e-07
1.7169e-07
1.99414e-07
2.31241e-07
2.67712e-07
3.09435e-07
3.57082e-07
4.11403e-07
4.73223e-07
5.43458e-07
6.23114e-07
7.13299e-07
8.15227e-07
9.30228e-07
1.05975e-06
1.20537e-06
1.3688e-06
1.55189e-06
1.75665e-06
1.98523e-06
2.23993e-06
2.52323e-06
2.83775e-06
3.1863e-06
3.57184e-06
3.99749e-06
4.46652e-06
4.98236e-06
5.54858e-06
6.16885e-06
6.84698e-06
7.58685e-06
8.3924e-06
9.26761e-06
1.02164e-05
1.12428e-05
1.23505e-05
1.35433e-05
1.48247e-05
1.61978e-05
1.76655e-05
1.92303e-05
2.08941e-05
2.26583e-05
2.45235e-05
2.64895e-05
2.85551e-05
3.07183e-05
3.29757e-05
3.53225e-05
3.77528e-05
4.02586e-05
4.28308e-05
4.54579e-05
4.81267e-05
5.08219e-05
5.35259e-05
5.62188e-05
5.88786e-05
6.14806e-05
6.39979e-05
6.64012e-05
6.86585e-05
7.0736e-05
7.25976e-05
7.42052e-05
7.55192e-05
7.64984e-05
7.71008e-05
7.72836e-05
7.70037e-05
7.62191e-05
7.4889e-05
7.29764e-05
7.0449e-05
6.72829e-05
6.34661e-05
5.90041e-05
5.39271e-05
4.83001e-05
4.22341e-05
3.58963e-05
2.95162e-05
2.33721e-05
1.76038e-05
1.24509e-05
8.20045e-06
5.13669e-06
2.56397e-08
2.95345e-08
3.48221e-08
4.11446e-08
4.85592e-08
5.72169e-08
6.73055e-08
7.9041e-08
9.26692e-08
1.08468e-07
1.26753e-07
1.47877e-07
1.72241e-07
2.00293e-07
2.32537e-07
2.69533e-07
3.11912e-07
3.60371e-07
4.1569e-07
4.78729e-07
5.50444e-07
6.31887e-07
7.2422e-07
8.28716e-07
9.46776e-07
1.07993e-06
1.22984e-06
1.39833e-06
1.58737e-06
1.79909e-06
2.03578e-06
2.29994e-06
2.59421e-06
2.92144e-06
3.28467e-06
3.68711e-06
4.13218e-06
4.62348e-06
5.16479e-06
5.76007e-06
6.41344e-06
7.12918e-06
7.91169e-06
8.76548e-06
9.69515e-06
1.07054e-05
1.18007e-05
1.29859e-05
1.42654e-05
1.56436e-05
1.71248e-05
1.87127e-05
2.04109e-05
2.22226e-05
2.41502e-05
2.61957e-05
2.83602e-05
3.06439e-05
3.3046e-05
3.55646e-05
3.81965e-05
4.0937e-05
4.37797e-05
4.67166e-05
4.97379e-05
5.28313e-05
5.59828e-05
5.91756e-05
6.23907e-05
6.56064e-05
6.87983e-05
7.19395e-05
7.49999e-05
7.7947e-05
8.0745e-05
8.33558e-05
8.57385e-05
8.78497e-05
8.96437e-05
9.10728e-05
9.20872e-05
9.26357e-05
9.26658e-05
9.21242e-05
9.0958e-05
8.91161e-05
8.65514e-05
8.32238e-05
7.91055e-05
7.41874e-05
6.84893e-05
6.20718e-05
5.50512e-05
4.76134e-05
4.00273e-05
3.26213e-05
2.55842e-05
1.92191e-05
1.38894e-05
9.99743e-06
3.02222e-08
3.48567e-08
4.10994e-08
4.85462e-08
5.72721e-08
6.74563e-08
7.93187e-08
9.31121e-08
1.09123e-07
1.27678e-07
1.49142e-07
1.7393e-07
2.02507e-07
2.35397e-07
2.73186e-07
3.16528e-07
3.66156e-07
4.22882e-07
4.87612e-07
5.61349e-07
6.45202e-07
7.40396e-07
8.48278e-07
9.70331e-07
1.10818e-06
1.26359e-06
1.43852e-06
1.63506e-06
1.8555e-06
2.10232e-06
2.37818e-06
2.68598e-06
3.02878e-06
3.4099e-06
3.83287e-06
4.30142e-06
4.81954e-06
5.39141e-06
6.02144e-06
6.71425e-06
7.47466e-06
8.30768e-06
9.21847e-06
1.02123e-05
1.12947e-05
1.24711e-05
1.3747e-05
1.51279e-05
1.66194e-05
1.82267e-05
1.99549e-05
2.1809e-05
2.37933e-05
2.5912e-05
2.81685e-05
3.05655e-05
3.31051e-05
3.57884e-05
3.86152e-05
4.15843e-05
4.46931e-05
4.79374e-05
5.13112e-05
5.48068e-05
5.84142e-05
6.21214e-05
6.59137e-05
6.97739e-05
7.36823e-05
7.76161e-05
8.15494e-05
8.54535e-05
8.92963e-05
9.30423e-05
9.66527e-05
0.000100086
0.000103295
0.000106234
0.000108848
0.000111084
0.000112883
0.000114184
0.000114923
0.000115033
0.000114444
0.000113085
0.000110887
0.000107785
0.000103722
9.86578e-05
9.25806e-05
8.552e-05
7.75652e-05
6.88849e-05
5.97479e-05
5.05259e-05
4.15097e-05
3.30981e-05
2.58394e-05
2.04565e-05
3.5378e-08
4.08482e-08
4.81639e-08
5.68731e-08
6.70717e-08
7.89703e-08
9.28247e-08
1.08928e-07
1.27615e-07
1.4926e-07
1.74291e-07
2.03187e-07
2.36488e-07
2.74799e-07
3.18798e-07
3.69244e-07
4.26982e-07
4.92954e-07
5.68205e-07
6.53893e-07
7.51299e-07
8.61838e-07
9.87064e-07
1.12869e-06
1.28858e-06
1.46879e-06
1.67155e-06
1.8993e-06
2.15466e-06
2.4405e-06
2.75989e-06
3.11615e-06
3.51284e-06
3.95378e-06
4.44304e-06
4.98495e-06
5.58409e-06
6.24533e-06
6.97378e-06
7.77479e-06
8.65398e-06
9.61718e-06
1.06704e-05
1.18199e-05
1.30721e-05
1.44334e-05
1.59105e-05
1.75099e-05
1.92382e-05
2.1102e-05
2.31076e-05
2.5261e-05
2.7568e-05
3.00341e-05
3.26639e-05
3.54617e-05
3.84309e-05
4.15738e-05
4.48919e-05
4.83854e-05
5.2053e-05
5.5892e-05
5.98977e-05
6.40637e-05
6.83814e-05
7.28399e-05
7.74256e-05
8.21223e-05
8.6911e-05
9.17694e-05
9.66721e-05
0.00010159
0.000106491
0.000111338
0.000116091
0.000120706
0.000125133
0.000129321
0.000133211
0.000136741
0.000139847
0.000142455
0.00014449
0.000145869
0.000146504
0.0001463
0.000145161
0.000142985
0.000139676
0.000135143
0.000129319
0.000122169
0.00011371
0.000104038
9.33498e-05
8.20314e-05
7.05125e-05
5.93061e-05
4.92604e-05
4.16505e-05
4.06826e-08
4.70178e-08
5.54354e-08
6.5439e-08
7.7147e-08
9.08016e-08
1.06695e-07
1.25163e-07
1.46584e-07
1.71388e-07
2.0006e-07
2.33145e-07
2.71259e-07
3.15089e-07
3.65407e-07
4.23073e-07
4.89048e-07
5.644e-07
6.50316e-07
7.48108e-07
8.59229e-07
9.85281e-07
1.12803e-06
1.2894e-06
1.47152e-06
1.67671e-06
1.9075e-06
2.16663e-06
2.4571e-06
2.78212e-06
3.14521e-06
3.5501e-06
4.00085e-06
4.50177e-06
5.05749e-06
5.67294e-06
6.35332e-06
7.10419e-06
7.93138e-06
8.84103e-06
9.83957e-06
1.09337e-05
1.21305e-05
1.3437e-05
1.48608e-05
1.64095e-05
1.80909e-05
1.99128e-05
2.18832e-05
2.401e-05
2.6301e-05
2.87641e-05
3.14066e-05
3.42356e-05
3.72578e-05
4.04795e-05
4.39059e-05
4.75419e-05
5.13911e-05
5.5456e-05
5.9738e-05
6.42369e-05
6.89509e-05
7.38763e-05
7.90074e-05
8.43363e-05
8.98524e-05
9.55425e-05
0.000101391
0.000107377
0.00011348
0.000119672
0.000125924
0.0001322
0.000138462
0.000144664
0.000150758
0.00015669
0.000162398
0.000167816
0.000172872
0.000177486
0.000181571
0.000185033
0.000187765
0.00018965
0.000190562
0.000190362
0.000188906
0.000186046
0.000181641
0.000175563
0.00016772
0.000158072
0.000146655
0.000133708
0.00011986
0.00010568
9.23493e-05
8.18594e-05
4.55451e-08
5.26777e-08
6.21022e-08
7.32861e-08
8.63688e-08
1.01621e-07
1.19369e-07
1.39982e-07
1.63884e-07
1.91549e-07
2.23516e-07
2.60389e-07
3.02848e-07
3.51655e-07
4.07664e-07
4.71828e-07
5.45207e-07
6.28982e-07
7.24464e-07
8.33103e-07
9.56504e-07
1.09643e-06
1.25484e-06
1.43386e-06
1.63583e-06
1.86331e-06
2.11909e-06
2.40621e-06
2.72797e-06
3.08794e-06
3.48997e-06
3.93824e-06
4.4372e-06
4.99167e-06
5.60677e-06
6.28799e-06
7.04114e-06
7.87242e-06
8.78837e-06
9.79589e-06
1.09022e-05
1.2115e-05
1.34422e-05
1.4892e-05
1.6473e-05
1.81941e-05
2.00643e-05
2.2093e-05
2.42896e-05
2.66638e-05
2.92252e-05
3.19833e-05
3.49479e-05
3.81282e-05
4.15334e-05
4.51722e-05
4.9053e-05
5.31834e-05
5.75704e-05
6.222e-05
6.71373e-05
7.23261e-05
7.77889e-05
8.35266e-05
8.95381e-05
9.58206e-05
0.000102369
0.000109174
0.000116228
0.000123515
0.000131019
0.000138721
0.000146596
0.000154613
0.00016274
0.000170935
0.000179154
0.000187345
0.000195448
0.000203397
0.000211115
0.00021852
0.000225517
0.000232013
0.000237883
0.000242997
0.000247211
0.000250354
0.000252243
0.000252676
0.000251442
0.000248324
0.000243105
0.000235576
0.000225543
0.000212902
0.00019831
0.000182335
0.000166284
0.000152733
4.9276e-08
5.70239e-08
6.72188e-08
7.93037e-08
9.34346e-08
1.09904e-07
1.29062e-07
1.51307e-07
1.77091e-07
2.06927e-07
2.4139e-07
2.8113e-07
3.26875e-07
3.79444e-07
4.3975e-07
5.08814e-07
5.87775e-07
6.77897e-07
7.80584e-07
8.9739e-07
1.03004e-06
1.18041e-06
1.35061e-06
1.54291e-06
1.75984e-06
2.00413e-06
2.27878e-06
2.58705e-06
2.93249e-06
3.31895e-06
3.75058e-06
4.23188e-06
4.76767e-06
5.36316e-06
6.02392e-06
6.75591e-06
7.56548e-06
8.4594e-06
9.44485e-06
1.05294e-05
1.17212e-05
1.30286e-05
1.44604e-05
1.60261e-05
1.77352e-05
1.9598e-05
2.16248e-05
2.38265e-05
2.62142e-05
2.87993e-05
3.15935e-05
3.46086e-05
3.78566e-05
4.13495e-05
4.50994e-05
4.91181e-05
5.34175e-05
5.8009e-05
6.29037e-05
6.8112e-05
7.36439e-05
7.95085e-05
8.57139e-05
9.22674e-05
9.91743e-05
0.000106439
0.000114063
0.000122047
0.000130388
0.000139083
0.000148123
0.000157496
0.000167188
0.000177182
0.000187452
0.000197971
0.000208702
0.000219604
0.000230627
0.000241713
0.000252793
0.000263786
0.000274597
0.000285112
0.000295217
0.000304787
0.000313684
0.000321718
0.000328694
0.000334377
0.000338519
0.000340846
0.00034106
0.000338837
0.000333804
0.000325537
0.000313832
0.000299563
0.000283467
0.00026791
5.12285e-08
5.93008e-08
6.98991e-08
8.24552e-08
9.7134e-08
1.1424e-07
1.34134e-07
1.57232e-07
1.84001e-07
2.14971e-07
2.50741e-07
2.91982e-07
3.3945e-07
3.93993e-07
4.56558e-07
5.28204e-07
6.10111e-07
7.03591e-07
8.10101e-07
9.31256e-07
1.06884e-06
1.22482e-06
1.40137e-06
1.60087e-06
1.82594e-06
2.07945e-06
2.36451e-06
2.68454e-06
3.04325e-06
3.44468e-06
3.89319e-06
4.39351e-06
4.95074e-06
5.57037e-06
6.25831e-06
7.02088e-06
7.86487e-06
8.79752e-06
9.82653e-06
1.09601e-05
1.2207e-05
1.35763e-05
1.50778e-05
1.67218e-05
1.8519e-05
2.04806e-05
2.26186e-05
2.49452e-05
2.74731e-05
3.02157e-05
3.31867e-05
3.64003e-05
3.98709e-05
4.36134e-05
4.76431e-05
5.19753e-05
5.66257e-05
6.16099e-05
6.69437e-05
7.26428e-05
7.87227e-05
8.51986e-05
9.20852e-05
9.93964e-05
0.000107146
0.000115348
0.000124012
0.000133149
0.000142767
0.000152874
0.000163474
0.00017457
0.00018616
0.000198242
0.000210806
0.000223841
0.000237328
0.000251243
0.000265555
0.000280221
0.000295193
0.000310405
0.00032578
0.000341224
0.000356627
0.000371855
0.000386747
0.000401168
0.000414961
0.000427885
0.000439698
0.000450123
0.000458857
0.00046557
0.000469885
0.000471357
0.000469422
0.000463312
0.000453108
0.000439156
5.09926e-08
5.90274e-08
6.95805e-08
8.20849e-08
9.6705e-08
1.13744e-07
1.33565e-07
1.5658e-07
1.83257e-07
2.14127e-07
2.49787e-07
2.90911e-07
3.38254e-07
3.92665e-07
4.55096e-07
5.26608e-07
6.08385e-07
7.01745e-07
8.08155e-07
9.29238e-07
1.06679e-06
1.22281e-06
1.39947e-06
1.59919e-06
1.82462e-06
2.07866e-06
2.36448e-06
2.68557e-06
3.04569e-06
3.44897e-06
3.89988e-06
4.40326e-06
4.96436e-06
5.58884e-06
6.28281e-06
7.05283e-06
7.90596e-06
8.84976e-06
9.89232e-06
1.10423e-05
1.23089e-05
1.37018e-05
1.52316e-05
1.69092e-05
1.87463e-05
2.07552e-05
2.29488e-05
2.53409e-05
2.79456e-05
3.07781e-05
3.38539e-05
3.71894e-05
4.08017e-05
4.47082e-05
4.89274e-05
5.34782e-05
5.838e-05
6.36529e-05
6.93175e-05
7.53947e-05
8.1906e-05
8.88731e-05
9.63181e-05
0.000104263
0.000112731
0.000121743
0.000131322
0.000141489
0.000152267
0.000163675
0.000175732
0.000188458
0.00020187
0.000215982
0.000230807
0.000246354
0.000262628
0.00027963
0.000297355
0.000315789
0.000334911
0.000354688
0.000375075
0.000396009
0.000417412
0.00043918
0.00046119
0.000483294
0.00050531
0.000527118
0.000548536
0.00056931
0.000589171
0.000607833
0.000624978
0.000640204
0.00065291
0.000662061
0.000665758
0.000660146
4.86243e-08
5.62696e-08
6.63393e-08
7.82809e-08
9.2249e-08
1.08534e-07
1.27485e-07
1.49499e-07
1.75028e-07
2.04582e-07
2.38738e-07
2.78147e-07
3.2354e-07
3.75739e-07
4.35665e-07
5.04348e-07
5.82938e-07
6.72719e-07
7.75116e-07
8.91714e-07
1.02427e-06
1.17472e-06
1.34522e-06
1.53813e-06
1.75605e-06
2.00185e-06
2.27865e-06
2.5899e-06
2.93932e-06
3.33103e-06
3.76946e-06
4.25945e-06
4.80626e-06
5.41557e-06
6.09352e-06
6.84676e-06
7.68243e-06
8.60824e-06
9.63245e-06
1.07639e-05
1.20122e-05
1.33873e-05
1.49003e-05
1.65625e-05
1.83863e-05
2.03847e-05
2.25716e-05
2.49617e-05
2.75705e-05
3.04143e-05
3.35104e-05
3.68771e-05
4.05334e-05
4.44995e-05
4.87964e-05
5.34461e-05
5.84718e-05
6.38973e-05
6.97479e-05
7.60497e-05
8.28296e-05
9.01158e-05
9.79376e-05
0.000106325
0.000115309
0.000124922
0.000135196
0.000146166
0.000157866
0.000170331
0.000183597
0.000197699
0.000212675
0.000228561
0.000245392
0.000263204
0.000282029
0.0003019
0.000322844
0.000344885
0.000368041
0.000392322
0.000417728
0.000444247
0.000471848
0.000500482
0.000530078
0.000560537
0.000591729
0.0006235
0.000655706
0.000688246
0.000720854
0.00075325
0.000785107
0.000815945
0.000844913
0.000870287
0.000888404
0.000891919
4.4599e-08
5.15845e-08
6.08274e-08
7.1803e-08
8.46488e-08
9.96333e-08
1.17079e-07
1.37356e-07
1.60884e-07
1.88138e-07
2.19655e-07
2.56044e-07
2.97987e-07
3.46254e-07
4.01705e-07
4.65309e-07
5.38145e-07
6.21421e-07
7.16479e-07
8.24816e-07
9.48092e-07
1.08815e-06
1.24701e-06
1.42695e-06
1.63042e-06
1.86017e-06
2.11919e-06
2.41077e-06
2.73852e-06
3.10639e-06
3.51866e-06
3.98004e-06
4.49562e-06
5.07095e-06
5.71205e-06
6.42544e-06
7.21817e-06
8.09785e-06
9.0727e-06
1.01516e-05
1.13439e-05
1.26601e-05
1.41109e-05
1.57081e-05
1.74644e-05
1.93931e-05
2.15086e-05
2.38261e-05
2.63618e-05
2.91332e-05
3.21585e-05
3.54574e-05
3.90503e-05
4.29594e-05
4.72076e-05
5.18197e-05
5.68213e-05
6.22399e-05
6.81042e-05
7.44446e-05
8.1293e-05
8.8683e-05
9.66501e-05
0.000105231
0.000114465
0.000124394
0.000135059
0.000146505
0.000158781
0.000171934
0.000186016
0.000201081
0.000217185
0.000234384
0.000252739
0.000272313
0.000293168
0.000315369
0.000338982
0.000364073
0.000390705
0.00041894
0.000448835
0.000480438
0.000513788
0.000548908
0.000585801
0.000624442
0.000664777
0.000706708
0.000750098
0.000794794
0.000840677
0.000887399
0.00093453
0.0009814
0.00102682
0.00106844
0.00110146
0.00111621
3.95771e-08
4.57426e-08
5.39489e-08
6.37098e-08
7.51416e-08
8.84838e-08
1.04026e-07
1.22101e-07
1.43087e-07
1.67413e-07
1.95563e-07
2.28087e-07
2.65602e-07
3.08806e-07
3.58481e-07
4.15506e-07
4.80863e-07
5.55653e-07
6.41103e-07
7.3858e-07
8.49606e-07
9.7587e-07
1.11924e-06
1.2818e-06
1.46583e-06
1.67386e-06
1.90868e-06
2.17334e-06
2.4712e-06
2.80596e-06
3.18163e-06
3.60265e-06
4.07381e-06
4.60037e-06
5.18803e-06
5.84302e-06
6.57206e-06
7.38246e-06
8.28213e-06
9.27963e-06
1.03842e-05
1.16058e-05
1.29551e-05
1.44438e-05
1.60842e-05
1.78898e-05
1.98747e-05
2.20544e-05
2.44454e-05
2.70652e-05
2.99326e-05
3.30677e-05
3.6492e-05
4.02284e-05
4.43014e-05
4.87368e-05
5.35623e-05
5.88075e-05
6.45037e-05
7.06842e-05
7.73843e-05
8.46418e-05
9.24966e-05
0.000100991
0.000110171
0.000120083
0.000130778
0.000142311
0.000154739
0.000168122
0.000182524
0.000198015
0.000214667
0.000232557
0.000251767
0.000272382
0.000294496
0.000318203
0.000343608
0.000370816
0.000399938
0.000431091
0.000464392
0.000499959
0.000537909
0.000578353
0.000621388
0.000667094
0.00071552
0.00076667
0.000820481
0.000876815
0.000935508
0.000996259
0.0010585
0.00112134
0.00118321
0.00124131
0.00129021
0.00131905
3.42303e-08
3.95274e-08
4.66254e-08
5.50842e-08
6.49983e-08
7.65755e-08
9.00691e-08
1.05771e-07
1.24011e-07
1.45168e-07
1.69668e-07
1.97994e-07
2.3069e-07
2.68372e-07
3.1173e-07
3.61543e-07
4.18682e-07
4.84123e-07
5.58956e-07
6.444e-07
7.41812e-07
8.527e-07
9.78742e-07
1.1218e-06
1.28392e-06
1.46739e-06
1.67473e-06
1.90869e-06
2.17233e-06
2.46899e-06
2.80236e-06
3.17647e-06
3.59573e-06
4.06496e-06
4.58944e-06
5.17489e-06
5.82758e-06
6.55431e-06
7.36247e-06
8.26008e-06
9.25584e-06
1.03592e-05
1.15802e-05
1.29301e-05
1.44206e-05
1.60646e-05
1.78759e-05
1.98695e-05
2.20614e-05
2.44687e-05
2.71102e-05
3.00056e-05
3.31763e-05
3.66454e-05
4.04374e-05
4.45786e-05
4.90973e-05
5.40239e-05
5.93907e-05
6.52324e-05
7.15861e-05
7.84916e-05
8.59915e-05
9.41311e-05
0.000102959
0.000112528
0.000122893
0.000134115
0.000146256
0.000159387
0.000173581
0.000188916
0.000205477
0.000223357
0.000242652
0.000263469
0.000285922
0.000310132
0.000336233
0.000364365
0.000394681
0.000427345
0.000462532
0.000500426
0.000541223
0.000585126
0.000632341
0.000683071
0.000737509
0.000795816
0.000858095
0.000924358
0.000994464
0.0010682
0.00114501
0.00122384
0.00130283
0.00137871
0.00144556
0.00149196
2.91114e-08
3.35817e-08
3.96158e-08
4.68224e-08
5.5276e-08
6.51532e-08
7.66717e-08
9.00826e-08
1.05672e-07
1.23764e-07
1.44729e-07
1.68984e-07
1.97001e-07
2.29312e-07
2.66518e-07
3.09295e-07
3.58401e-07
4.14687e-07
4.79106e-07
5.5272e-07
6.36719e-07
7.32425e-07
8.41312e-07
9.65015e-07
1.10535e-06
1.26432e-06
1.44416e-06
1.64731e-06
1.87649e-06
2.13467e-06
2.42515e-06
2.75152e-06
3.11774e-06
3.52814e-06
3.98747e-06
4.50092e-06
5.07414e-06
5.71332e-06
6.42519e-06
7.21709e-06
8.09697e-06
9.07352e-06
1.01561e-05
1.1355e-05
1.26812e-05
1.41466e-05
1.57643e-05
1.75483e-05
1.95136e-05
2.16767e-05
2.40552e-05
2.66681e-05
2.9536e-05
3.26809e-05
3.61268e-05
3.98992e-05
4.40259e-05
4.85365e-05
5.3463e-05
5.884e-05
6.47044e-05
7.1096e-05
7.80577e-05
8.56356e-05
9.38793e-05
0.000102842
0.000112582
0.000123161
0.000134645
0.000147107
0.000160624
0.000175282
0.00019117
0.000208388
0.000227043
0.000247252
0.000269141
0.000292849
0.000318527
0.000346339
0.000376466
0.000409106
0.000444476
0.000482813
0.000524378
0.000569453
0.000618347
0.000671392
0.000728941
0.000791357
0.000859
0.000932185
0.00101111
0.00109577
0.00118593
0.0012807
0.00137816
0.00147456
0.00156315
0.00163155
2.4607e-08
2.83521e-08
3.34477e-08
3.95491e-08
4.67134e-08
5.50896e-08
6.48637e-08
7.62504e-08
8.94951e-08
1.04877e-07
1.22712e-07
1.43359e-07
1.67226e-07
1.94771e-07
2.26511e-07
2.63032e-07
3.04987e-07
3.53114e-07
4.08238e-07
4.71282e-07
5.4328e-07
6.25383e-07
7.18873e-07
8.25179e-07
9.45887e-07
1.08276e-06
1.23773e-06
1.41298e-06
1.61087e-06
1.83405e-06
2.0854e-06
2.36812e-06
2.68571e-06
3.04203e-06
3.44129e-06
3.88812e-06
4.38759e-06
4.94523e-06
5.56708e-06
6.25975e-06
7.03043e-06
7.88695e-06
8.83784e-06
9.89237e-06
1.10606e-05
1.23535e-05
1.37829e-05
1.53618e-05
1.7104e-05
1.90246e-05
2.11401e-05
2.34682e-05
2.60279e-05
2.884e-05
3.19268e-05
3.53125e-05
3.90231e-05
4.30869e-05
4.75343e-05
5.2398e-05
5.77136e-05
6.35191e-05
6.9856e-05
7.67687e-05
8.43054e-05
9.25181e-05
0.000101463
0.000111201
0.000121798
0.000133326
0.000145861
0.000159488
0.000174298
0.00019039
0.000207874
0.000226867
0.0002475
0.000269915
0.00029427
0.000320736
0.000349508
0.000380796
0.00041484
0.000451904
0.000492287
0.000536322
0.000584391
0.000636922
0.000694409
0.00075741
0.000826568
0.000902607
0.00098629
0.0010783
0.00117907
0.0012885
0.00140532
0.00152577
0.00164177
0.00173825
2.09645e-08
2.41209e-08
2.84547e-08
3.36599e-08
3.9779e-08
4.69387e-08
5.52987e-08
6.50444e-08
7.63878e-08
8.95701e-08
1.04866e-07
1.22586e-07
1.43082e-07
1.66755e-07
1.94053e-07
2.25485e-07
2.61622e-07
3.03105e-07
3.50657e-07
4.05083e-07
4.67288e-07
5.3828e-07
6.19185e-07
7.11257e-07
8.15892e-07
9.34637e-07
1.06921e-06
1.22153e-06
1.39368e-06
1.58801e-06
1.80709e-06
2.05373e-06
2.33108e-06
2.64255e-06
2.99192e-06
3.38333e-06
3.82129e-06
4.31079e-06
4.85725e-06
5.46661e-06
6.14535e-06
6.90056e-06
7.73994e-06
8.67189e-06
9.70557e-06
1.08509e-05
1.21188e-05
1.35208e-05
1.50699e-05
1.67798e-05
1.86655e-05
2.07433e-05
2.30308e-05
2.55471e-05
2.83129e-05
3.13504e-05
3.46839e-05
3.83395e-05
4.23456e-05
4.67327e-05
5.15338e-05
5.67847e-05
6.2524e-05
6.87935e-05
7.56383e-05
8.31075e-05
9.12539e-05
0.000100135
0.000109813
0.000120355
0.000131835
0.000144332
0.000157934
0.000172734
0.000188837
0.000206356
0.000225415
0.000246153
0.00026872
0.000293286
0.000320039
0.000349187
0.000380969
0.000415652
0.000453541
0.000494985
0.000540392
0.000590239
0.000645093
0.000705642
0.000772742
0.000847475
0.000931193
0.00102547
0.00113203
0.00125206
0.00138631
0.0015325
0.00168198
0.0018149
1.83477e-08
2.10728e-08
2.48547e-08
2.94131e-08
3.47789e-08
4.1062e-08
4.84032e-08
5.69669e-08
6.69407e-08
7.85389e-08
9.20051e-08
1.07616e-07
1.25685e-07
1.46567e-07
1.70664e-07
1.98428e-07
2.3037e-07
2.67063e-07
3.09153e-07
3.57361e-07
4.12498e-07
4.7547e-07
5.47287e-07
6.29077e-07
7.22095e-07
8.27738e-07
9.47557e-07
1.08327e-06
1.23679e-06
1.41021e-06
1.60587e-06
1.82634e-06
2.07445e-06
2.35331e-06
2.66636e-06
3.01737e-06
3.41047e-06
3.85019e-06
4.34151e-06
4.88985e-06
5.50116e-06
6.18192e-06
6.93922e-06
7.7808e-06
8.71505e-06
9.75115e-06
1.08991e-05
1.21697e-05
1.35747e-05
1.51269e-05
1.68403e-05
1.87299e-05
2.0812e-05
2.31043e-05
2.5626e-05
2.83978e-05
3.14424e-05
3.4784e-05
3.84489e-05
4.24657e-05
4.68651e-05
5.16805e-05
5.69477e-05
6.27058e-05
6.89971e-05
7.5867e-05
8.33652e-05
9.1545e-05
0.000100464
0.000110186
0.000120779
0.000132316
0.00014488
0.000158557
0.000173443
0.000189646
0.000207279
0.00022647
0.000247362
0.00027011
0.00029489
0.000321898
0.000351357
0.000383519
0.000418674
0.000457158
0.000499368
0.000545778
0.00059697
0.000653675
0.000716844
0.000787761
0.000868142
0.000960212
0.0010668
0.00119086
0.00133576
0.00150314
0.00168725
0.00186527
1.68999e-08
1.93717e-08
2.28421e-08
2.70389e-08
3.19847e-08
3.77794e-08
4.45536e-08
5.24594e-08
6.16714e-08
7.23888e-08
8.48382e-08
9.92771e-08
1.15998e-07
1.35331e-07
1.57651e-07
1.8338e-07
2.12995e-07
2.47031e-07
2.86093e-07
3.30854e-07
3.82075e-07
4.40602e-07
5.07384e-07
5.83477e-07
6.70061e-07
7.68446e-07
8.80089e-07
1.00661e-06
1.1498e-06
1.31163e-06
1.49432e-06
1.70027e-06
1.93217e-06
2.19294e-06
2.48584e-06
2.81442e-06
3.1826e-06
3.59466e-06
4.05531e-06
4.56969e-06
5.14345e-06
5.78272e-06
6.49425e-06
7.28535e-06
8.16403e-06
9.139e-06
1.02197e-05
1.14166e-05
1.27407e-05
1.42043e-05
1.58206e-05
1.7604e-05
1.957e-05
2.17355e-05
2.41188e-05
2.67397e-05
2.96198e-05
3.27821e-05
3.62518e-05
4.00561e-05
4.42242e-05
4.8788e-05
5.37818e-05
5.92427e-05
6.52111e-05
7.17304e-05
7.88477e-05
8.66138e-05
9.50839e-05
0.000104318
0.00011438
0.000125341
0.000137277
0.000150272
0.000164416
0.000179808
0.000196559
0.000214789
0.000234629
0.000256229
0.000279754
0.000305388
0.000333341
0.000363853
0.000397197
0.000433697
0.000473731
0.000517763
0.000566374
0.00062032
0.000680623
0.000748677
0.000826303
0.000915812
0.00102018
0.00114313
0.00128976
0.00146573
0.00167222
0.00189195
7.74438e-07
7.08725e-07
8.40044e-07
1.03258e-06
1.24898e-06
1.47516e-06
1.70461e-06
1.93465e-06
2.16575e-06
2.40156e-06
2.64908e-06
2.91886e-06
3.22515e-06
3.58593e-06
4.02255e-06
4.55775e-06
5.20973e-06
5.97688e-06
6.80083e-06
7.48087e-06
1.65415e-06
1.62358e-06
1.8838e-06
2.24348e-06
2.63696e-06
3.03768e-06
3.43372e-06
3.82071e-06
4.20012e-06
4.57893e-06
4.96963e-06
5.39033e-06
5.86474e-06
6.422e-06
7.09549e-06
7.91892e-06
8.9158e-06
1.00743e-05
1.12896e-05
1.22474e-05
3.64775e-06
3.74832e-06
4.23233e-06
4.8544e-06
5.51823e-06
6.18006e-06
6.81931e-06
7.42886e-06
8.01186e-06
8.58066e-06
9.15628e-06
9.76826e-06
1.04543e-05
1.12593e-05
1.22333e-05
1.34247e-05
1.48638e-05
1.65251e-05
1.82433e-05
1.95587e-05
8.20842e-06
8.51702e-06
9.33413e-06
1.0323e-05
1.13511e-05
1.23545e-05
1.33018e-05
1.41824e-05
1.5002e-05
1.57808e-05
1.65522e-05
1.73618e-05
1.82667e-05
1.93332e-05
2.06337e-05
2.22355e-05
2.41767e-05
2.64106e-05
2.86919e-05
3.03831e-05
1.81462e-05
1.86863e-05
1.9899e-05
2.1311e-05
2.27403e-05
2.41005e-05
2.53489e-05
2.64722e-05
2.74803e-05
2.84039e-05
2.92924e-05
3.02122e-05
3.12449e-05
3.24845e-05
3.40316e-05
3.59768e-05
3.83649e-05
4.11172e-05
4.38902e-05
4.58747e-05
3.84607e-05
3.90993e-05
4.05997e-05
4.2316e-05
4.40051e-05
4.55555e-05
4.69148e-05
4.80685e-05
4.90324e-05
4.98496e-05
5.05881e-05
5.13368e-05
5.22056e-05
5.33208e-05
5.48165e-05
5.68101e-05
5.93503e-05
6.23184e-05
6.52688e-05
6.73159e-05
7.71532e-05
7.74281e-05
7.87367e-05
8.02594e-05
8.16921e-05
8.29012e-05
8.38263e-05
8.44546e-05
8.48076e-05
8.49397e-05
8.4935e-05
8.49011e-05
8.49726e-05
8.5308e-05
8.60767e-05
8.74254e-05
8.94101e-05
9.18805e-05
9.43386e-05
9.60348e-05
0.000145476
0.000144398
0.000144418
0.000144615
0.000144655
0.000144399
0.000143786
0.000142804
0.00014148
0.000139871
0.000138057
0.000136151
0.000134296
0.000132669
0.000131471
0.000130884
0.000130996
0.000131683
0.000132562
0.000133305
0.000256802
0.000252745
0.000249565
0.000246451
0.000243136
0.000239515
0.000235547
0.000231216
0.000226537
0.000221542
0.000216285
0.000210845
0.000205339
0.000199927
0.000194819
0.000190254
0.000186418
0.000183397
0.000181226
0.000180246
0.000423431
0.000414265
0.000405159
0.000395878
0.000386405
0.000376741
0.000366879
0.000356801
0.00034649
0.000335922
0.000325078
0.000313948
0.000302552
0.000290963
0.000279352
0.000268038
0.000257474
0.000248319
0.000241363
0.000237712
0.000641454
0.000625507
0.000607892
0.00058963
0.000571205
0.00055286
0.000534682
0.000516665
0.000498739
0.000480786
0.000462656
0.000444184
0.000425199
0.000405596
0.000385391
0.000364896
0.000345015
0.000327324
0.000313723
0.000306265
0.00087169
0.000849558
0.000823707
0.000796539
0.000769169
0.000742118
0.000715586
0.000689585
0.000663998
0.000638604
0.000613132
0.000587264
0.000560668
0.000533071
0.000504378
0.000474893
0.000445716
0.000419094
0.000398216
0.000386306
0.00109835
0.00107177
0.00103903
0.00100408
0.000968747
0.000933861
0.000899785
0.000866579
0.000834078
0.000801982
0.000769904
0.000737396
0.000703991
0.000669278
0.000633058
0.000595591
0.000558014
0.000522876
0.000494456
0.000477776
0.00130886
0.00128041
0.00124291
0.00120207
0.00116049
0.00111939
0.00107929
0.00104029
0.00100222
0.000964744
0.00092737
0.000889544
0.000850693
0.0008103
0.000768061
0.000724144
0.000679631
0.000637155
0.000601676
0.000580199
0.00149522
0.00146791
0.00142817
0.00138371
0.00133802
0.00129271
0.00124847
0.00120548
0.00116357
0.00112236
0.0010813
0.00103977
0.000997107
0.000952719
0.000906206
0.000857628
0.000807949
0.000759774
0.000718402
0.000692683
0.00165387
0.00163065
0.00159119
0.00154544
0.00149786
0.00145048
0.00140414
0.00135908
0.00131513
0.0012719
0.00122883
0.00118525
0.00114045
0.00109377
0.00104473
0.000993288
0.000940263
0.000888138
0.00084231
0.000812752
0.00178496
0.00176823
0.00173112
0.00168621
0.0016389
0.00159155
0.0015451
0.00149981
0.00145554
0.0014119
0.00136835
0.00132423
0.00127881
0.00123139
0.00118142
0.00112875
0.00107408
0.0010197
0.000970946
0.000938352
0.00189156
0.00188249
0.00184906
0.00180676
0.00176173
0.00171638
0.00167165
0.00162779
0.00158468
0.001542
0.00149926
0.00145585
0.00141105
0.00136418
0.00131462
0.00126214
0.00120727
0.00115213
0.00110186
0.00106718
0.00197909
0.00197657
0.00194722
0.00190912
0.00186822
0.00182663
0.00178515
0.00174404
0.00170328
0.00166263
0.00162169
0.00157992
0.0015367
0.00149135
0.00144325
0.00139208
0.00133822
0.00128353
0.00123286
0.00119691
0.00205511
0.00205374
0.0020287
0.00199642
0.00196122
0.00192469
0.00188756
0.00185015
0.00181256
0.00177467
0.00173621
0.00169676
0.00165576
0.00161262
0.00156673
0.00151772
0.0014658
0.00141254
0.00136226
0.00132524
1.17081e-67
1.16633e-67
1.1599e-67
1.15396e-67
1.15065e-67
1.15176e-67
1.1587e-67
1.17247e-67
1.19366e-67
1.22245e-67
1.2586e-67
1.30141e-67
1.34977e-67
1.40211e-67
1.4564e-67
1.51015e-67
1.56043e-67
1.60386e-67
1.63676e-67
1.65525e-67
7.71063e-67
7.67067e-67
7.61923e-67
7.57234e-67
7.54415e-67
7.54655e-67
7.58888e-67
7.67771e-67
7.81691e-67
8.00763e-67
8.24829e-67
8.53439e-67
8.8586e-67
9.21065e-67
9.57727e-67
9.94214e-67
1.02857e-66
1.05857e-66
1.08173e-66
1.0955e-66
3.94813e-66
3.92053e-66
3.88764e-66
3.85817e-66
3.83936e-66
3.83724e-66
3.85657e-66
3.90071e-66
3.97168e-66
4.07009e-66
4.19515e-66
4.3446e-66
4.5147e-66
4.70022e-66
4.89436e-66
5.08875e-66
5.27338e-66
5.43683e-66
5.56633e-66
5.64789e-66
1.96489e-65
1.9473e-65
1.92741e-65
1.90983e-65