/*--------------------------------*- C++ -*----------------------------------*\
| =========                 |                                                 |
| \\      /  F ield         | OpenFOAM: The Open Source CFD Toolbox           |
|  \\    /   O peration     | Version:  2.1.0                                 |
|   \\  /    A nd           | Web:      www.OpenFOAM.org                      |
|    \\/     M anipulation  |                                                 |
\*---------------------------------------------------------------------------*/
FoamFile
{
    version     2.0;
    format      ascii;
    class       volScalarField;
    location    "0.19";
    object      k;
}
// * * * * * * * * * * * * * * * * * * * * * * * * * * * * * * * * * * * * * //

dimensions      [0 2 -2 0 0 0 0];

internalField   nonuniform List<scalar> 
6400
(
0.0297675
0.0297888
0.029781
0.02976
0.029732
0.0297064
0.0296704
0.0296423
0.0296019
0.0295717
0.0295287
0.0294955
0.0294512
0.0294142
0.0293692
0.0293285
0.0292825
0.0292388
0.0291916
0.0291455
0.0290972
0.0290494
0.029
0.0289505
0.0288998
0.0288487
0.0287965
0.0287436
0.0286897
0.028635
0.0285791
0.0285224
0.0284644
0.0284054
0.0283449
0.0282833
0.0282198
0.0281547
0.028087
0.0280168
0.0279427
0.0278651
0.0277825
0.027695
0.027601
0.0275007
0.0273925
0.0272763
0.0271507
0.0270155
0.0268684
0.0267067
0.0265295
0.0263445
0.0261507
0.0259475
0.025736
0.0255142
0.0252844
0.0250453
0.0247973
0.0245393
0.0242714
0.0239924
0.0237037
0.0234021
0.0230841
0.0227548
0.0224062
0.0220441
0.021662
0.0212646
0.0208477
0.0204147
0.019964
0.0194989
0.0190201
0.0185315
0.0180344
0.0175315
0.0170207
0.0164935
0.015929
0.0153626
0.0147749
0.014161
0.0135081
0.0127934
0.0119926
0.0110665
0.00996847
0.00862185
0.00694311
0.00491051
0.00269883
0.0016852
0.00210889
0.00427686
0.00656717
0.00739003
0.0482027
0.0484318
0.0485394
0.048734
0.0488582
0.0490529
0.0491922
0.0493834
0.0495363
0.0497243
0.0498885
0.0500743
0.0502472
0.0504319
0.0506113
0.0507958
0.0509799
0.0511652
0.051353
0.0515403
0.0517321
0.0519239
0.0521211
0.0523188
0.0525226
0.0527271
0.052938
0.05315
0.0533683
0.0535881
0.0538139
0.0540419
0.0542756
0.0545124
0.0547549
0.0550012
0.0552532
0.0555098
0.0557721
0.0560391
0.0563089
0.0565814
0.056855
0.0571286
0.0574006
0.0576692
0.0579324
0.0581879
0.058434
0.0586709
0.0589012
0.0591132
0.059306
0.059491
0.0596696
0.0598359
0.0599911
0.0601289
0.06025
0.0603577
0.0604495
0.0605241
0.0605807
0.0606107
0.0606227
0.0606215
0.060572
0.0604994
0.0603778
0.060217
0.0599995
0.0597278
0.0593884
0.0589803
0.0584928
0.0579242
0.0572668
0.0565197
0.055679
0.0547466
0.0537246
0.0526096
0.0513908
0.0500092
0.0484761
0.046737
0.0447755
0.0425326
0.0399776
0.0370653
0.0337899
0.0301528
0.0262106
0.0221518
0.0180473
0.0141475
0.011134
0.00906472
0.00776985
0.00661364
0.0540092
0.0543612
0.0545248
0.0548199
0.055028
0.055313
0.0555475
0.0558263
0.056079
0.0563552
0.056621
0.056897
0.0571722
0.0574493
0.057731
0.0580098
0.0582957
0.058576
0.058864
0.0591455
0.0594345
0.0597186
0.060012
0.0603007
0.0605974
0.06089
0.0611907
0.0614889
0.0617937
0.062097
0.0624057
0.0627136
0.0630256
0.0633367
0.0636499
0.0639624
0.0642754
0.064587
0.064897
0.065205
0.0655113
0.0658141
0.0661121
0.0664029
0.0666845
0.0669536
0.0672069
0.0674396
0.0676424
0.0678081
0.0679673
0.0681022
0.0682246
0.0683255
0.068409
0.0684707
0.0685114
0.0685305
0.0685362
0.0685039
0.0684408
0.0683413
0.0682062
0.0680299
0.0678129
0.0675489
0.0672359
0.0668728
0.0664497
0.0659668
0.065412
0.0647837
0.0640689
0.063264
0.0623567
0.0613422
0.0602105
0.0589573
0.0575762
0.0560653
0.0544221
0.0526474
0.0507421
0.0487298
0.0466016
0.044372
0.0420301
0.0395759
0.0369888
0.0342504
0.0313205
0.0281697
0.024766
0.0211337
0.0173389
0.0136228
0.010528
0.00807266
0.00627258
0.0045103
0.0585428
0.058935
0.059117
0.059459
0.0597055
0.0600327
0.0603127
0.0606302
0.0609297
0.0612425
0.0615537
0.0618647
0.062183
0.0624937
0.0628155
0.063126
0.0634476
0.0637563
0.0640737
0.0643763
0.0646827
0.0649705
0.0652715
0.0655606
0.0658586
0.0661473
0.0664392
0.0667222
0.0670059
0.0672807
0.0675538
0.0678172
0.0680768
0.0683268
0.0685685
0.0687999
0.0690205
0.0692289
0.0694237
0.0696041
0.0697674
0.0699137
0.0700397
0.0701459
0.0702282
0.0702844
0.070311
0.0703193
0.0702971
0.0702404
0.0701575
0.0700372
0.069884
0.0696899
0.0694556
0.0691748
0.0688453
0.0684615
0.0680201
0.0675201
0.0669562
0.066326
0.065625
0.0648508
0.0639998
0.0630703
0.0620607
0.0609702
0.0597983
0.0585461
0.0572137
0.0558042
0.054319
0.0527612
0.0511342
0.0494406
0.047684
0.0458667
0.0439921
0.0420623
0.0400801
0.0380481
0.0359698
0.0338514
0.0316937
0.0295029
0.0272761
0.0250349
0.0228058
0.020594
0.0183751
0.0161718
0.0140297
0.0119646
0.00993124
0.00804271
0.00630313
0.00485586
0.00388916
0.00344947
0.0602538
0.0606016
0.06076
0.0610712
0.0612856
0.0615794
0.0618207
0.0620977
0.0623508
0.0626137
0.0628697
0.06312
0.0633728
0.0636117
0.0638559
0.0640839
0.064315
0.0645292
0.064745
0.064943
0.0651413
0.0653214
0.0655016
0.0656621
0.0658195
0.0659562
0.0660871
0.066197
0.0662975
0.0663761
0.0664417
0.0664817
0.0665008
0.0665058
0.066481
0.0664304
0.0663511
0.0662426
0.0661014
0.0659274
0.0657166
0.0654693
0.0651815
0.0648532
0.064481
0.0640653
0.063603
0.0630951
0.0625376
0.0619326
0.0612777
0.0605736
0.0598187
0.0590135
0.0581572
0.0572507
0.0562946
0.0552919
0.0542406
0.053144
0.0520007
0.0508145
0.0495842
0.048314
0.0470034
0.045657
0.0442749
0.042861
0.041416
0.0399435
0.0384442
0.036922
0.0353778
0.033812
0.0322269
0.0306322
0.0290261
0.027419
0.0258094
0.0242092
0.022618
0.021055
0.0195231
0.0180353
0.0165788
0.015171
0.0138292
0.0125896
0.0114132
0.0102677
0.00911603
0.00803585
0.00715262
0.00634331
0.00540744
0.00459177
0.0039958
0.00360747
0.00345546
0.00346924
0.0576369
0.0577764
0.0578431
0.0579842
0.0580829
0.0582073
0.0583115
0.0584128
0.0585085
0.0585845
0.0586633
0.0587126
0.0587658
0.058791
0.0588067
0.05881
0.0587966
0.0587596
0.0587121
0.0586363
0.0585499
0.0584326
0.0583032
0.058141
0.0579642
0.0577527
0.0575232
0.0572582
0.0569717
0.0566484
0.0563034
0.0559234
0.0555182
0.0550775
0.0546071
0.0541014
0.053564
0.0529911
0.0523851
0.0517442
0.0510699
0.0503615
0.0496201
0.0488457
0.0480395
0.0472024
0.046335
0.0454392
0.0445151
0.0435656
0.0425903
0.0415925
0.040572
0.039532
0.0384724
0.0373967
0.0363
0.035191
0.0340683
0.032936
0.0317939
0.0306452
0.0294903
0.0283321
0.0271717
0.026012
0.0248541
0.0237005
0.0225526
0.0214136
0.0202852
0.0191704
0.0180698
0.0170135
0.0159905
0.0150154
0.0140736
0.0131817
0.0123191
0.0115132
0.0107385
0.0100267
0.00934045
0.00871047
0.00810461
0.00755791
0.00704207
0.00657477
0.00612279
0.00570219
0.00530338
0.00494232
0.00460717
0.00428652
0.00398976
0.00375089
0.0035995
0.0035376
0.00354281
0.00367288
0.0494015
0.0491776
0.0490856
0.0489192
0.0488175
0.0486393
0.0485122
0.0483102
0.0481502
0.0479187
0.0477219
0.0474576
0.0472217
0.0469229
0.0466456
0.0463121
0.0459919
0.0456217
0.0452594
0.0448519
0.044448
0.0440034
0.0435589
0.0430776
0.0425945
0.0420754
0.0415477
0.0409865
0.0404146
0.0398117
0.0391968
0.0385535
0.0378972
0.037215
0.0365194
0.0358006
0.035069
0.0343169
0.0335529
0.0327715
0.0319803
0.0311763
0.0303643
0.0295426
0.0287151
0.0278813
0.0270441
0.0262041
0.0253631
0.0245229
0.0236841
0.0228494
0.0220189
0.0211952
0.020378
0.0195703
0.0187877
0.0180166
0.0172672
0.0165337
0.0158215
0.0151289
0.0144574
0.0138085
0.0131796
0.0125742
0.0119891
0.0114296
0.0108908
0.0103794
0.00988826
0.00942586
0.00898278
0.00857086
0.00817757
0.00781427
0.00746665
0.00714634
0.00684153
0.00656208
0.006295
0.00605047
0.0058142
0.00559724
0.00538756
0.0051944
0.0050067
0.00483119
0.00465983
0.0044995
0.00434655
0.00420559
0.0040778
0.00396635
0.00388409
0.00384468
0.0038303
0.00389475
0.00407152
0.00416929
0.0365459
0.0360303
0.0358133
0.0353985
0.0351468
0.0347285
0.0344378
0.0340066
0.0336765
0.0332273
0.0328593
0.0323894
0.0319853
0.0314933
0.0310547
0.03054
0.0300684
0.029531
0.029028
0.0284687
0.027937
0.0273564
0.0267977
0.0261965
0.0256125
0.0249973
0.0244079
0.0237926
0.0232027
0.0225925
0.0220046
0.0213994
0.0208176
0.0202234
0.0196533
0.0190751
0.0185218
0.017964
0.0174317
0.0168984
0.0163897
0.015882
0.0153984
0.0149189
0.014463
0.0140136
0.0135875
0.0131698
0.0127749
0.0123903
0.0120274
0.0116764
0.0113453
0.0110281
0.0107296
0.0104454
0.0101811
0.00993009
0.00969674
0.00947619
0.00927137
0.00907877
0.00890016
0.00873326
0.00857924
0.0084376
0.00830692
0.00818778
0.00807747
0.00797855
0.00788609
0.00780452
0.00772723
0.00765968
0.00759461
0.00753752
0.00748115
0.00743077
0.00738013
0.00733349
0.00728478
0.00723766
0.0071863
0.00713344
0.00707209
0.00700401
0.00692314
0.00683089
0.00672252
0.00659993
0.00646241
0.0063145
0.00616174
0.00601434
0.00589314
0.00583604
0.00582254
0.0059435
0.00615984
0.00627205
0.0224709
0.0218184
0.0215472
0.0210276
0.0207339
0.0202253
0.0199106
0.0194096
0.0190779
0.0185841
0.0182401
0.0177544
0.0174026
0.0169268
0.0165716
0.0161079
0.0157534
0.0153041
0.0149542
0.0145212
0.014179
0.0137646
0.0134335
0.0130405
0.0127238
0.0123566
0.0120622
0.0117244
0.0114534
0.0111455
0.0108984
0.0106205
0.0103978
0.0101501
0.00995202
0.00973413
0.00956066
0.00937173
0.0092224
0.00906144
0.00893549
0.00880155
0.00869839
0.00859048
0.00850963
0.00842668
0.00836773
0.00830862
0.00827084
0.0082352
0.00821765
0.00820808
0.00820551
0.00821443
0.00823473
0.00826242
0.00830207
0.00834792
0.00840617
0.00846993
0.00854598
0.00862732
0.00872065
0.0088194
0.00892954
0.00904527
0.00917203
0.00930488
0.00944854
0.00959897
0.00976013
0.00992889
0.0101091
0.0102979
0.0104984
0.0107083
0.0109303
0.011162
0.0114049
0.0116574
0.01192
0.0121911
0.0124703
0.0127553
0.0130458
0.0133381
0.0136289
0.0139083
0.0141745
0.0144171
0.0146331
0.0148141
0.0149594
0.0150683
0.0151493
0.0152316
0.0153875
0.0157635
0.0162542
0.016679
0.0128866
0.0123181
0.0120911
0.0116601
0.0114446
0.0110371
0.0108337
0.0104521
0.0102618
0.00990807
0.00973181
0.0094073
0.00924582
0.00895137
0.00880509
0.00854101
0.00841006
0.00817625
0.00806059
0.00785675
0.00775621
0.00758186
0.00749616
0.0073505
0.00727924
0.00716136
0.00710402
0.00701244
0.00696826
0.00690154
0.0068698
0.00682665
0.0068067
0.00678609
0.00677776
0.00677457
0.00677836
0.0067918
0.00681112
0.00683795
0.00687194
0.00691199
0.00695987
0.00701306
0.00707441
0.00714067
0.0072153
0.00729464
0.00738247
0.00747504
0.00757604
0.00768211
0.00779622
0.00791628
0.00804398
0.0081781
0.00831991
0.00846872
0.00862544
0.00878961
0.00896216
0.00914267
0.00933215
0.00953026
0.0097383
0.00995569
0.010184
0.0104228
0.0106737
0.0109365
0.0112129
0.0115028
0.0118083
0.0121293
0.0124679
0.0128245
0.0132012
0.0135985
0.014019
0.0144635
0.0149346
0.0154337
0.0159634
0.0165256
0.017123
0.0177579
0.0184342
0.0191602
0.0199386
0.020783
0.0216964
0.0226941
0.0237837
0.024983
0.0263044
0.0277626
0.0293451
0.0309552
0.032158
0.0326555
0.0143149
0.0137251
0.0134878
0.0130359
0.0128047
0.0123733
0.012149
0.0117396
0.0115235
0.0111377
0.0109319
0.0105708
0.0103775
0.0100423
0.0098632
0.00955456
0.0093908
0.00910888
0.00896121
0.00870602
0.00857499
0.0083468
0.00823276
0.0080324
0.00793295
0.00776114
0.00767611
0.00753238
0.0074615
0.00734517
0.0072881
0.00719829
0.00715458
0.00708997
0.00705891
0.00701821
0.00699921
0.00698242
0.00697602
0.00697442
0.00698437
0.00699966
0.00702514
0.00705525
0.00709558
0.00714011
0.00719473
0.00725346
0.007322
0.00739474
0.00747691
0.00756359
0.00765924
0.00775988
0.00786903
0.00798372
0.00810653
0.00823515
0.00837149
0.00851424
0.00866462
0.00882227
0.00898739
0.00916043
0.00934112
0.00953038
0.00972761
0.00993408
0.010149
0.010374
0.0106081
0.010853
0.0111078
0.0113743
0.0116518
0.0119419
0.0122442
0.0125601
0.0128896
0.0132342
0.0135942
0.0139713
0.0143664
0.0147817
0.0152189
0.0156807
0.0161703
0.0166918
0.0172487
0.0178429
0.0184844
0.0191828
0.0199474
0.020795
0.0217449
0.0228268
0.0240776
0.0255015
0.0268391
0.0274691
0.0255351
0.0248987
0.0246331
0.0241276
0.0238375
0.0233412
0.0230253
0.0225333
0.0221929
0.0217001
0.0213363
0.0208418
0.02046
0.0199653
0.0195707
0.0190777
0.0186748
0.018186
0.0177792
0.0172973
0.0168908
0.0164188
0.0160166
0.0155576
0.0151637
0.0147204
0.0143371
0.0139118
0.0135427
0.0131386
0.0127871
0.0124071
0.0120815
0.0117324
0.0114333
0.0111158
0.0108435
0.0105579
0.0103127
0.0100588
0.00984082
0.00961833
0.00942737
0.00923504
0.00907057
0.00890705
0.00876831
0.0086323
0.00851821
0.00840831
0.00831762
0.0082323
0.0081637
0.00810144
0.00805346
0.00801225
0.00798315
0.00796271
0.00795298
0.00794944
0.00795205
0.00796708
0.00798462
0.00801279
0.00804318
0.00808283
0.00812406
0.00817234
0.00822054
0.00827431
0.00832655
0.0083827
0.0084357
0.00849077
0.00854108
0.00859138
0.0086356
0.00867759
0.00871227
0.00874262
0.00876501
0.00878176
0.00879006
0.00879351
0.00879393
0.00878563
0.00877757
0.00876671
0.00876161
0.00875965
0.00876144
0.00877606
0.00880838
0.00886234
0.00895751
0.0091091
0.00936579
0.00976324
0.010313
0.0107233
0.0396285
0.039198
0.0390172
0.0386745
0.0384642
0.0381164
0.0378701
0.0375064
0.0372225
0.0368377
0.0365164
0.0361075
0.035749
0.0353141
0.0349189
0.0344567
0.0340254
0.0335351
0.0330684
0.0325492
0.0320477
0.0314997
0.0309641
0.0303874
0.0298186
0.0292142
0.0286149
0.0279844
0.0273562
0.0267004
0.0260449
0.0253649
0.0247024
0.0240223
0.0233587
0.0226839
0.0220248
0.0213565
0.0207046
0.0200492
0.019411
0.0187741
0.0181556
0.0175424
0.0169473
0.016359
0.0157895
0.0152297
0.0146892
0.0141609
0.0136523
0.0131579
0.0126837
0.0122255
0.0117872
0.0113665
0.0109652
0.0105834
0.0102215
0.00987861
0.00955284
0.0092452
0.00895148
0.00867488
0.00840912
0.00815926
0.00791694
0.0076933
0.00747609
0.00727619
0.00708012
0.00689973
0.00672148
0.00655635
0.00639256
0.00623876
0.0060864
0.00594196
0.00579968
0.00566299
0.00552892
0.00539925
0.0052745
0.00515508
0.00504246
0.00493467
0.00483491
0.00474131
0.0046602
0.00458821
0.00453159
0.00448318
0.00444972
0.0044345
0.00443144
0.00447907
0.00458858
0.00479079
0.00504899
0.00516056
0.0518526
0.05173
0.0516807
0.0515974
0.0515459
0.0514486
0.0513769
0.0512536
0.0511535
0.0510022
0.0508723
0.0506902
0.0505261
0.0503105
0.0501089
0.0498576
0.0496157
0.0493262
0.0490419
0.0487138
0.048385
0.0480151
0.0476414
0.047229
0.0468096
0.0463543
0.045889
0.0453908
0.0448803
0.0443396
0.0437853
0.0432035
0.0426002
0.0419694
0.0413169
0.0406377
0.0399368
0.0392106
0.0384627
0.037691
0.0368984
0.0360837
0.0352493
0.0343947
0.0335235
0.0326363
0.0317349
0.0308202
0.029894
0.0289573
0.028012
0.0270595
0.0261015
0.0251401
0.0241764
0.0232133
0.0222512
0.0213027
0.0203793
0.0194775
0.0186016
0.0177497
0.0169201
0.0161198
0.0153425
0.0145988
0.0138786
0.0131937
0.0125308
0.0119052
0.0113008
0.0107331
0.0101872
0.00967792
0.00919465
0.00874201
0.00831191
0.00790724
0.00752833
0.00717091
0.00683729
0.00651496
0.00621456
0.00592636
0.00566701
0.00541738
0.00518719
0.00495412
0.00474221
0.00454002
0.00437573
0.00421341
0.00406907
0.00391967
0.00382051
0.00375827
0.00373532
0.00377473
0.00397801
0.00411212
0.0590035
0.0591992
0.0592896
0.0594757
0.059604
0.0597749
0.0599147
0.0600656
0.0602034
0.0603334
0.0604608
0.0605691
0.06068
0.0607652
0.0608546
0.0609149
0.0609786
0.0610112
0.0610364
0.0610446
0.061045
0.0610123
0.0609742
0.0609045
0.0608246
0.0607138
0.0605885
0.060432
0.0602567
0.0600494
0.0598193
0.059556
0.0592656
0.0589411
0.0585861
0.0581954
0.0577716
0.0573157
0.056824
0.0562962
0.055733
0.0551311
0.054493
0.0538156
0.0531015
0.0523486
0.0515589
0.0507316
0.0498682
0.0489691
0.0480354
0.0470685
0.0460692
0.04504
0.0439811
0.042896
0.0417847
0.040649
0.0394852
0.0382992
0.0370897
0.0358649
0.0346247
0.033374
0.0321124
0.0308444
0.0295688
0.0282916
0.0270129
0.02574
0.0244707
0.0232095
0.0219537
0.0207113
0.0195326
0.0183904
0.0173092
0.0162436
0.015241
0.014261
0.013358
0.0124703
0.0116387
0.010803
0.0100317
0.00929617
0.00865792
0.00802774
0.00739623
0.00669675
0.0061228
0.00572087
0.00529305
0.00468678
0.00424302
0.00394923
0.0037175
0.00362373
0.00361832
0.0037375
0.0607773
0.0611414
0.0613061
0.0616278
0.0618493
0.0621548
0.0624051
0.0626962
0.062961
0.0632407
0.0635114
0.0637818
0.0640526
0.0643146
0.0645816
0.064835
0.0650949
0.0653387
0.0655883
0.0658226
0.0660589
0.0662794
0.0665006
0.0667061
0.0669105
0.0671005
0.0672868
0.0674582
0.0676229
0.0677719
0.0679111
0.0680335
0.0681423
0.0682326
0.068307
0.0683614
0.0683903
0.0684015
0.0683989
0.0683548
0.0682943
0.0681956
0.068071
0.0679076
0.0677111
0.0674733
0.0671963
0.0668746
0.0665082
0.0660936
0.0656293
0.0651137
0.0645448
0.0639229
0.0632443
0.0625108
0.06172
0.0608732
0.0599684
0.0590085
0.0579914
0.0569225
0.0557999
0.0546283
0.053406
0.0521389
0.050825
0.0494703
0.0480736
0.0466415
0.0451742
0.0436777
0.0421508
0.0405988
0.0390126
0.0373991
0.0357551
0.0340983
0.0324271
0.0307366
0.0290171
0.0272677
0.0255376
0.0238448
0.0221371
0.0202807
0.0183465
0.0166504
0.0154645
0.0138862
0.0115091
0.0100028
0.00925482
0.00805026
0.00630333
0.00517422
0.00453506
0.00387706
0.00363211
0.00359647
0.0585434
0.0589326
0.0591121
0.0594459
0.0596859
0.0600051
0.060277
0.0605873
0.0608783
0.0611847
0.0614879
0.0617936
0.0621049
0.0624119
0.0627285
0.0630375
0.0633575
0.0636684
0.0639898
0.0643016
0.0646214
0.0649314
0.0652457
0.0655482
0.0658492
0.0661444
0.0664433
0.0667378
0.0670341
0.0673268
0.0676203
0.0679111
0.0682025
0.068491
0.0687755
0.0690556
0.0693306
0.069601
0.0698643
0.0701191
0.0703674
0.0706042
0.0708326
0.0710475
0.0712508
0.0714383
0.0716104
0.071764
0.0718981
0.0720106
0.0720998
0.0721616
0.0721916
0.0722015
0.0721821
0.0721241
0.0720315
0.0718986
0.07172
0.0714949
0.0712139
0.070877
0.0704723
0.0700036
0.0694622
0.0688491
0.0681545
0.0673772
0.0665143
0.0655605
0.0645167
0.0633803
0.0621531
0.0608356
0.0594296
0.057938
0.0563625
0.054707
0.0529715
0.0511606
0.0492692
0.0472922
0.0452231
0.0430696
0.0408334
0.0384856
0.0359838
0.0333407
0.0306324
0.0278738
0.024867
0.0217435
0.0186974
0.0156722
0.0127296
0.0100871
0.00777016
0.00582858
0.00444677
0.00378384
0.053679
0.054013
0.054168
0.0544455
0.0546414
0.054909
0.0551298
0.0553917
0.0556299
0.05589
0.0561412
0.0564021
0.0566631
0.0569267
0.0571952
0.0574623
0.0577367
0.0580075
0.0582863
0.0585605
0.0588421
0.0591193
0.0594027
0.0596827
0.0599688
0.0602548
0.0605471
0.0608406
0.0611397
0.0614406
0.0617463
0.0620539
0.0623646
0.0626773
0.0629942
0.0633137
0.0636369
0.0639629
0.0642917
0.064623
0.064957
0.0652923
0.0656296
0.065967
0.0663047
0.0666433
0.0669819
0.0673196
0.0676544
0.0679843
0.0683052
0.0686144
0.0689055
0.0691732
0.0694031
0.0696368
0.0698436
0.0700429
0.0702164
0.0703774
0.070515
0.0706416
0.0707524
0.0708397
0.0708858
0.0709044
0.0709047
0.0708369
0.0707445
0.0705874
0.0703874
0.0701185
0.0697858
0.069368
0.0688637
0.0682524
0.0675259
0.0666633
0.0656526
0.0644736
0.0631137
0.0615547
0.0597851
0.0577912
0.055569
0.0531132
0.0504193
0.0474793
0.0442905
0.0408589
0.0371421
0.033099
0.0287458
0.0241282
0.0195518
0.0153504
0.0118149
0.00922887
0.00728697
0.00526163
0.047601
0.0478117
0.0479108
0.0480847
0.0481984
0.0483721
0.0484996
0.0486705
0.0488109
0.04898
0.0491311
0.0492999
0.0494596
0.049629
0.0497955
0.0499663
0.0501381
0.0503108
0.0504864
0.0506615
0.0508403
0.0510184
0.0512006
0.0513828
0.0515701
0.0517586
0.0519523
0.0521483
0.0523492
0.0525529
0.0527612
0.0529729
0.053189
0.0534093
0.0536343
0.0538642
0.054099
0.0543391
0.0545844
0.0548354
0.0550922
0.0553551
0.0556246
0.055901
0.056185
0.0564741
0.0567682
0.0570662
0.057367
0.0576693
0.0579716
0.0582732
0.0585723
0.0588694
0.059166
0.0594715
0.0597723
0.0600793
0.0603759
0.060668
0.0609367
0.0611783
0.0614123
0.0616299
0.061842
0.0620408
0.0622269
0.0623899
0.0625389
0.0626555
0.0627394
0.0627774
0.0627871
0.0627239
0.0625946
0.0623773
0.0620665
0.0616387
0.0610849
0.060382
0.0595186
0.0584729
0.0572327
0.0557786
0.0541013
0.0521682
0.0499559
0.0474098
0.044471
0.041022
0.0370323
0.0325374
0.0278242
0.0230532
0.0186908
0.0147805
0.0118183
0.00976692
0.00855023
0.00729137
0.0292788
0.0292949
0.0292782
0.0292557
0.0292216
0.0291929
0.0291526
0.0291198
0.029077
0.0290415
0.0289967
0.028959
0.0289129
0.0288724
0.0288255
0.0287819
0.0287341
0.028688
0.0286389
0.0285907
0.0285404
0.0284905
0.028439
0.0283879
0.0283356
0.0282835
0.0282303
0.0281772
0.028123
0.0280688
0.0280135
0.0279583
0.0279019
0.0278457
0.0277883
0.027731
0.0276726
0.0276141
0.0275546
0.0274948
0.027434
0.0273727
0.0273101
0.0272465
0.0271811
0.0271137
0.0270437
0.0269709
0.0268946
0.0268146
0.0267307
0.0266426
0.0265503
0.026454
0.026354
0.0262492
0.0261365
0.0260168
0.025884
0.025739
0.0255749
0.0253928
0.0252057
0.0250062
0.0248027
0.0245869
0.0243635
0.0241285
0.023883
0.0236226
0.0233479
0.0230568
0.0227495
0.0224159
0.0220619
0.0216778
0.0212669
0.0208211
0.0203427
0.0198247
0.0192686
0.0186689
0.0180255
0.0173334
0.0165888
0.0157764
0.0148798
0.0138573
0.0126411
0.0111758
0.00935417
0.00727634
0.00529663
0.00354619
0.00239457
0.0017962
0.00207717
0.00433591
0.00702244
0.00801172
0.007036
0.00245394
0.00219416
0.0021578
0.0021033
0.00195617
0.00184642
0.00179733
0.00174648
0.00168774
0.00161608
0.00158247
0.00157206
0.001617
0.00187885
0.0026913
0.00439809
0.0051581
0.00512263
0.00312551
0.00516927
0.00246864
0.00229266
0.00223358
0.00211264
0.00193686
0.00185218
0.00180309
0.00174782
0.00168112
0.00161757
0.00159524
0.00160363
0.00172348
0.00216841
0.00328882
0.00473284
0.00511221
0.00482634
0.00258072
0.00368886
0.0025318
0.00242099
0.00230218
0.00208841
0.00194264
0.00187172
0.00182042
0.00175718
0.00168878
0.00164693
0.00164361
0.00171116
0.00197756
0.00269124
0.00415543
0.00493144
0.00504911
0.00447927
0.00204301
0.00329278
0.00269018
0.00257231
0.00226737
0.0021001
0.0019774
0.00192142
0.00186399
0.00179513
0.00175293
0.00174237
0.00179964
0.00199982
0.00251858
0.00366141
0.00468988
0.00499037
0.00494819
0.00400298
0.00154337
0.00330054
0.00278152
0.00260955
0.00230099
0.00218056
0.00208653
0.00204301
0.00198572
0.00196003
0.00197139
0.00204472
0.00224337
0.00269787
0.00367008
0.00460182
0.00497191
0.0050226
0.00475362
0.00335585
0.00110574
0.00333672
0.00287667
0.002704
0.00248354
0.00241837
0.00238137
0.0023745
0.00238749
0.00249913
0.00266753
0.00292656
0.0034257
0.004218
0.00482278
0.00508896
0.00514898
0.00498114
0.00437266
0.00254737
0.00073312
0.00353349
0.00333186
0.00324868
0.003214
0.00330331
0.00342481
0.00362284
0.00392173
0.0042912
0.00445228
0.00489744
0.00516362
0.00542666
0.00552097
0.00551213
0.00528533
0.00480436
0.00374935
0.00170077
0.000439056
0.0059064
0.00605736
0.00632004
0.00657995
0.00692814
0.0071338
0.00720207
0.00722036
0.00707946
0.00701282
0.00697741
0.00679744
0.00669928
0.00632299
0.00594931
0.00519508
0.00437089
0.00280588
0.0010476
0.000239309
0.0165142
0.0164762
0.0163376
0.0155669
0.0147549
0.0137034
0.0128919
0.0120005
0.0112609
0.0104952
0.00975639
0.00895882
0.00809841
0.00708686
0.00594173
0.00479916
0.0034349
0.00186296
0.000684823
0.000132917
0.0296883
0.0279157
0.0261131
0.0236972
0.0220613
0.0199672
0.0185617
0.0167272
0.0154519
0.0137462
0.0124556
0.0106749
0.0092061
0.00714771
0.00541143
0.00360404
0.00225626
0.00113261
0.000426562
8.81421e-05
0.0260153
0.0244844
0.0232424
0.0211656
0.0200056
0.0181962
0.0172002
0.0156354
0.0147255
0.0132757
0.0122996
0.0107833
0.00954264
0.00780044
0.0061557
0.00437387
0.00257827
0.00122063
0.000386215
7.2202e-05
0.0107432
0.0111717
0.0114515
0.0115464
0.0113971
0.011162
0.0107263
0.0104645
0.0100622
0.00983313
0.0093899
0.00905623
0.00839503
0.0077561
0.00660178
0.00564735
0.00415629
0.00213943
0.000643397
9.72251e-05
0.00467935
0.00464707
0.004751
0.00493669
0.00521622
0.00557017
0.00596043
0.00613215
0.00644242
0.00656329
0.00680102
0.00690424
0.00693916
0.00682297
0.00654534
0.00591379
0.00508271
0.00337222
0.00112443
0.000198179
0.00357056
0.00327993
0.00314433
0.00302882
0.00301163
0.0030203
0.0031548
0.00336144
0.00371495
0.00410958
0.00458227
0.00529327
0.00573767
0.00595825
0.00601669
0.00595397
0.00547324
0.00440426
0.00191834
0.00041576
0.0034511
0.00303604
0.00287282
0.00261297
0.00252221
0.00242254
0.00238445
0.00237018
0.00244534
0.00258528
0.00282035
0.00328178
0.00429398
0.00519332
0.00559699
0.00568859
0.00561081
0.0050221
0.00297032
0.0007548
0.00339036
0.00294148
0.00280249
0.00250867
0.00237661
0.00225224
0.00217876
0.00209661
0.00206544
0.00206444
0.0021275
0.00231997
0.00278629
0.00379592
0.0050434
0.00554532
0.00562293
0.00536915
0.00384238
0.00117721
0.00344647
0.00281988
0.0027147
0.00249892
0.00232632
0.00220032
0.00212172
0.00202641
0.00195002
0.00191025
0.00190112
0.00195222
0.0021524
0.00269248
0.003905
0.00517036
0.0055524
0.00553794
0.00452506
0.00167316
0.00411102
0.00275091
0.00258912
0.00250534
0.00232345
0.00218754
0.00210733
0.00201579
0.00193175
0.00186502
0.00183488
0.00183297
0.00190124
0.0021785
0.00294352
0.00455201
0.00547266
0.00561589
0.00498814
0.00223924
0.0057672
0.00274014
0.0025046
0.00240633
0.00233505
0.00218624
0.00210519
0.00201967
0.00193907
0.00186233
0.00181623
0.00180073
0.00181411
0.00194491
0.00240201
0.00360076
0.00522458
0.00565566
0.00536629
0.00284809
0.0076903
0.00276876
0.00243332
0.00235584
0.00229945
0.00219942
0.00211291
0.00204309
0.00197588
0.00189324
0.00181905
0.00179453
0.00179213
0.00185439
0.00213659
0.00297598
0.00482938
0.00567408
0.00565039
0.00345283
0.0039713
0.00375019
0.00374679
0.0037468
0.00374652
0.00374628
0.00374612
0.00374604
0.003746
0.00374598
0.00374598
0.003746
0.00374604
0.00374612
0.00374628
0.00374652
0.0037468
0.00374679
0.00375019
0.0039713
0.00441462
0.00375346
0.0037414
0.00374095
0.00374056
0.00374012
0.00373987
0.00373975
0.00373969
0.00373966
0.00373966
0.00373969
0.00373975
0.00373987
0.00374012
0.00374056
0.00374095
0.0037414
0.00375346
0.00441462
0.0048592
0.00376058
0.00373287
0.00373264
0.00373285
0.00373274
0.00373256
0.00373242
0.00373235
0.00373231
0.00373231
0.00373235
0.00373242
0.00373256
0.00373274
0.00373285
0.00373264
0.00373287
0.00376058
0.0048592
0.00530233
0.00377208
0.0037243
0.00372396
0.00372492
0.00372524
0.00372525
0.00372519
0.00372514
0.00372512
0.00372512
0.00372514
0.00372519
0.00372525
0.00372524
0.00372492
0.00372396
0.0037243
0.00377208
0.00530233
0.00573961
0.00378542
0.00371549
0.00371482
0.00371665
0.00371757
0.00371789
0.00371795
0.00371795
0.00371795
0.00371795
0.00371795
0.00371795
0.00371789
0.00371757
0.00371665
0.00371482
0.00371549
0.00378542
0.00573961
0.00616997
0.00379767
0.00370578
0.0037051
0.003708
0.00370969
0.00371043
0.0037107
0.00371078
0.0037108
0.0037108
0.00371078
0.0037107
0.00371043
0.00370969
0.003708
0.0037051
0.00370578
0.00379767
0.00616997
0.00659141
0.00380855
0.00369502
0.00369476
0.00369895
0.00370155
0.00370284
0.0037034
0.00370361
0.00370368
0.00370368
0.00370361
0.0037034
0.00370284
0.00370155
0.00369895
0.00369476
0.00369502
0.00380855
0.00659141
0.00700139
0.00381668
0.0036827
0.00368361
0.00368941
0.00369311
0.00369508
0.00369602
0.00369642
0.00369656
0.00369656
0.00369642
0.00369602
0.00369508
0.00369311
0.00368941
0.00368361
0.0036827
0.00381668
0.00700139
0.00739379
0.00382324
0.0036691
0.00367172
0.00367941
0.00368437
0.00368713
0.00368854
0.00368919
0.00368943
0.00368943
0.00368919
0.00368854
0.00368713
0.00368437
0.00367941
0.00367172
0.0036691
0.00382324
0.00739379
0.0077673
0.00382738
0.00365405
0.00365903
0.00366893
0.00367531
0.00367898
0.00368094
0.0036819
0.00368228
0.00368228
0.0036819
0.00368094
0.00367898
0.00367531
0.00366893
0.00365903
0.00365405
0.00382738
0.0077673
0.00811983
0.00383029
0.0036377
0.00364555
0.00365795
0.00366593
0.00367061
0.00367321
0.00367453
0.00367507
0.00367507
0.00367453
0.00367321
0.00367061
0.00366593
0.00365795
0.00364555
0.0036377
0.00383029
0.00811983
0.00845052
0.00383068
0.00361989
0.00363122
0.00364645
0.0036562
0.00366201
0.00366531
0.00366705
0.00366779
0.00366779
0.00366705
0.00366531
0.00366201
0.0036562
0.00364645
0.00363122
0.00361989
0.00383069
0.00845051
0.00875555
0.00383016
0.0036009
0.00361613
0.00363446
0.00364613
0.00365316
0.00365725
0.00365946
0.00366041
0.00366041
0.00365946
0.00365725
0.00365316
0.00364613
0.00363446
0.00361613
0.0036009
0.00383017
0.00875554
0.00903542
0.00382876
0.00358078
0.00360028
0.00362197
0.00363572
0.00364407
0.00364901
0.00365173
0.00365292
0.00365292
0.00365173
0.00364901
0.00364407
0.00363572
0.00362197
0.00360028
0.00358078
0.00382876
0.00903541
0.00928875
0.00382648
0.00355983
0.0035838
0.00360904
0.003625
0.00363475
0.00364059
0.00364385
0.00364531
0.00364531
0.00364385
0.00364059
0.00363475
0.003625
0.00360904
0.00358381
0.00355983
0.00382648
0.00928874
0.0095174
0.00382346
0.00353795
0.00356665
0.00359566
0.00361394
0.00362518
0.00363197
0.00363582
0.00363755
0.00363755
0.00363582
0.00363197
0.00362518
0.00361394
0.00359566
0.00356665
0.00353795
0.00382346
0.00951739
0.00971942
0.0038202
0.00351539
0.00354889
0.00358183
0.00360256
0.00361536
0.00362316
0.00362762
0.00362964
0.00362964
0.00362762
0.00362316
0.00361536
0.00360256
0.00358183
0.00354889
0.00351538
0.00382019
0.00971942
0.00989735
0.0038165
0.00349206
0.0035305
0.00356756
0.00359086
0.00360529
0.00361414
0.00361924
0.00362157
0.00362157
0.00361924
0.00361414
0.00360529
0.00359086
0.00356756
0.00353051
0.00349207
0.00381649
0.00989734
0.0100501
0.00381343
0.00346851
0.0035117
0.00355293
0.00357887
0.00359498
0.00360492
0.00361068
0.00361332
0.00361332
0.00361068
0.00360492
0.00359498
0.00357887
0.00355293
0.0035117
0.0034685
0.00381342
0.0100501
0.0101815
0.00381061
0.00344457
0.00349245
0.00353794
0.0035666
0.00358444
0.00359549
0.00360193
0.0036049
0.0036049
0.00360193
0.00359549
0.00358444
0.0035666
0.00353794
0.00349245
0.00344458
0.00381061
0.0101815
0.0102898
0.00380859
0.00342057
0.00347285
0.00352263
0.00355405
0.00357368
0.00358587
0.003593
0.0035963
0.0035963
0.003593
0.00358587
0.00357368
0.00355405
0.00352263
0.00347285
0.00342058
0.00380859
0.0102898
0.0103795
0.00380712
0.00339637
0.00345285
0.00350697
0.00354123
0.00356267
0.00357603
0.00358387
0.00358751