/*--------------------------------*- C++ -*----------------------------------*\
| =========                 |                                                 |
| \\      /  F ield         | OpenFOAM: The Open Source CFD Toolbox           |
|  \\    /   O peration     | Version:  2.1.0                                 |
|   \\  /    A nd           | Web:      www.OpenFOAM.org                      |
|    \\/     M anipulation  |                                                 |
\*---------------------------------------------------------------------------*/
FoamFile
{
    version     2.0;
    format      ascii;
    class       volScalarField;
    location    "0.19";
    object      nut;
}
// * * * * * * * * * * * * * * * * * * * * * * * * * * * * * * * * * * * * * //

dimensions      [0 2 -1 0 0 0 0];

internalField   nonuniform List<scalar> 
6400
(
6.83298e-06
6.84766e-06
6.85705e-06
6.86862e-06
6.8804e-06
6.89406e-06
6.90618e-06
6.92093e-06
6.93341e-06
6.94889e-06
6.96188e-06
6.97774e-06
6.99152e-06
7.00758e-06
7.02228e-06
7.0386e-06
7.05423e-06
7.07098e-06
7.08755e-06
7.10497e-06
7.1225e-06
7.14078e-06
7.15932e-06
7.17855e-06
7.19819e-06
7.21846e-06
7.23924e-06
7.26064e-06
7.28262e-06
7.30524e-06
7.32848e-06
7.35243e-06
7.37703e-06
7.40241e-06
7.42848e-06
7.45537e-06
7.48294e-06
7.51132e-06
7.54031e-06
7.56998e-06
7.60005e-06
7.63068e-06
7.6615e-06
7.69265e-06
7.72378e-06
7.75495e-06
7.78584e-06
7.81645e-06
7.84649e-06
7.87583e-06
7.90388e-06
7.92982e-06
7.9533e-06
7.97657e-06
7.99934e-06
8.02141e-06
8.0431e-06
8.06377e-06
8.08419e-06
8.10397e-06
8.12317e-06
8.14151e-06
8.15895e-06
8.17508e-06
8.19042e-06
8.20378e-06
8.21391e-06
8.2225e-06
8.22658e-06
8.22814e-06
8.22462e-06
8.21756e-06
8.20525e-06
8.18888e-06
8.16766e-06
8.14301e-06
8.11516e-06
8.08601e-06
8.0567e-06
8.02912e-06
8.00349e-06
7.9773e-06
7.94181e-06
7.91667e-06
7.89513e-06
7.87798e-06
7.86164e-06
7.8353e-06
7.78339e-06
7.67243e-06
7.44645e-06
6.99312e-06
6.13199e-06
4.67179e-06
2.67336e-06
1.64048e-06
1.84836e-06
2.96937e-06
2.99661e-06
3.25724e-06
7.25117e-05
7.28638e-05
7.29231e-05
7.31363e-05
7.32026e-05
7.33733e-05
7.34546e-05
7.35977e-05
7.36909e-05
7.38148e-05
7.39149e-05
7.40243e-05
7.41261e-05
7.42243e-05
7.43234e-05
7.44121e-05
7.45056e-05
7.45856e-05
7.46717e-05
7.4744e-05
7.48224e-05
7.48888e-05
7.49604e-05
7.50208e-05
7.50852e-05
7.51394e-05
7.51961e-05
7.5243e-05
7.52907e-05
7.53287e-05
7.53655e-05
7.53924e-05
7.54157e-05
7.54285e-05
7.54384e-05
7.54387e-05
7.54341e-05
7.54205e-05
7.54007e-05
7.53715e-05
7.53312e-05
7.52778e-05
7.52098e-05
7.51238e-05
7.50188e-05
7.48907e-05
7.47379e-05
7.45563e-05
7.43444e-05
7.41013e-05
7.38339e-05
7.35264e-05
7.30237e-05
7.24008e-05
7.17436e-05
7.10479e-05
7.03172e-05
6.95452e-05
6.87343e-05
6.78889e-05
6.70072e-05
6.60888e-05
6.51334e-05
6.41328e-05
6.30975e-05
6.20331e-05
6.09052e-05
5.97416e-05
5.85188e-05
5.72495e-05
5.59204e-05
5.45379e-05
5.3094e-05
5.15936e-05
5.00332e-05
4.84178e-05
4.67475e-05
4.50283e-05
4.32638e-05
4.14617e-05
3.96296e-05
3.77701e-05
3.5881e-05
3.39277e-05
3.19274e-05
2.98544e-05
2.7712e-05
2.54807e-05
2.31644e-05
2.07661e-05
1.83193e-05
1.58686e-05
1.34903e-05
1.12891e-05
9.24498e-06
7.37532e-06
5.89562e-06
4.85648e-06
4.29376e-06
5.24362e-06
0.000110673
0.000110768
0.000110801
0.000110787
0.000110798
0.000110751
0.000110745
0.000110673
0.00011065
0.000110558
0.000110514
0.000110402
0.000110334
0.000110202
0.000110107
0.000109952
0.000109827
0.000109647
0.000109488
0.000109281
0.000109087
0.000108854
0.000108633
0.000108376
0.000108125
0.000107843
0.000107563
0.000107255
0.000106946
0.000106612
0.000106272
0.00010591
0.000105539
0.000105147
0.000104736
0.000104302
0.000103846
0.000103362
0.000102852
0.000102313
0.000101752
0.000101163
0.000100548
9.98965e-05
9.92104e-05
9.84821e-05
9.771e-05
9.68871e-05
9.60036e-05
9.47056e-05
9.33067e-05
9.18617e-05
9.03946e-05
8.88942e-05
8.73669e-05
8.58094e-05
8.42259e-05
8.26187e-05
8.09997e-05
7.93421e-05
7.76576e-05
7.59433e-05
7.42033e-05
7.24352e-05
7.06433e-05
6.88253e-05
6.69836e-05
6.51213e-05
6.32334e-05
6.1325e-05
5.93898e-05
5.74318e-05
5.54449e-05
5.34331e-05
5.13929e-05
4.93276e-05
4.72363e-05
4.51235e-05
4.29919e-05
4.0848e-05
3.86978e-05
3.65499e-05
3.44134e-05
3.23118e-05
3.02468e-05
2.82356e-05
2.62795e-05
2.43871e-05
2.25544e-05
2.07743e-05
1.90255e-05
1.73316e-05
1.56131e-05
1.38652e-05
1.20355e-05
1.02005e-05
8.46041e-06
6.94557e-06
6.24678e-06
7.98083e-06
0.000131181
0.000130709
0.000130522
0.000130109
0.000129909
0.00012948
0.000129247
0.000128806
0.000128531
0.000128076
0.000127757
0.000127285
0.000126919
0.000126426
0.000126014
0.000125494
0.000125031
0.000124478
0.000123961
0.000123366
0.000122786
0.000121813
0.00012082
0.000119786
0.000118751
0.000117684
0.000116609
0.000115504
0.000114388
0.000113244
0.000112085
0.0001109
0.000109698
0.000108471
0.000107223
0.000105951
0.000104657
0.000103338
0.000101996
0.00010063
9.92386e-05
9.78238e-05
9.63834e-05
9.49204e-05
9.34319e-05
9.19176e-05
9.03764e-05
8.88261e-05
8.72521e-05
8.56591e-05
8.40544e-05
8.2429e-05
8.07924e-05
7.91377e-05
7.74674e-05
7.57765e-05
7.40668e-05
7.23364e-05
7.05861e-05
6.88193e-05
6.70353e-05
6.52364e-05
6.34226e-05
6.15961e-05
5.97586e-05
5.79135e-05
5.60641e-05
5.42143e-05
5.23679e-05
5.05299e-05
4.87043e-05
4.6897e-05
4.51105e-05
4.33503e-05
4.16199e-05
3.99227e-05
3.82612e-05
3.66375e-05
3.50521e-05
3.35041e-05
3.19913e-05
3.05044e-05
2.90449e-05
2.76229e-05
2.61951e-05
2.47855e-05
2.33594e-05
2.1934e-05
2.04941e-05
1.90464e-05
1.757e-05
1.60761e-05
1.45575e-05
1.30145e-05
1.14256e-05
9.89908e-06
8.54351e-06
7.7894e-06
7.72677e-06
7.4752e-06
0.000130988
0.000130787
0.000130431
0.000130044
0.000129221
0.000128458
0.000127501
0.000126581
0.000125573
0.00012457
0.000123531
0.000122472
0.000121403
0.000120301
0.000119198
0.00011806
0.000116919
0.000115743
0.000114565
0.000113353
0.000112137
0.000110896
0.000109653
0.000108376
0.000107096
0.000105786
0.000104472
0.000103131
0.000101785
0.000100415
9.9038e-05
9.76368e-05
9.62218e-05
9.48047e-05
9.33661e-05
9.19141e-05
9.04483e-05
8.89703e-05
8.7479e-05
8.59772e-05
8.44629e-05
8.29397e-05
8.14059e-05
7.98652e-05
7.83164e-05
7.67636e-05
7.52063e-05
7.3649e-05
7.20889e-05
7.05329e-05
6.89761e-05
6.74201e-05
6.58639e-05
6.43105e-05
6.27616e-05
6.12166e-05
5.96801e-05
5.81545e-05
5.66396e-05
5.51396e-05
5.36547e-05
5.21887e-05
5.07412e-05
4.93151e-05
4.79103e-05
4.65295e-05
4.5172e-05
4.38387e-05
4.25281e-05
4.12352e-05
3.99644e-05
3.87224e-05
3.74774e-05
3.62536e-05
3.50249e-05
3.38097e-05
3.25843e-05
3.13615e-05
3.01234e-05
2.88784e-05
2.76169e-05
2.6351e-05
2.50728e-05
2.37905e-05
2.2493e-05
2.11949e-05
1.99064e-05
1.86545e-05
1.74265e-05
1.62219e-05
1.50266e-05
1.3704e-05
1.26635e-05
1.17164e-05
1.0495e-05
9.42108e-06
8.71725e-06
8.33586e-06
8.28918e-06
8.47608e-06
0.000117262
0.000116439
0.000115934
0.000115199
0.000114244
0.000113219
0.000112122
0.000110978
0.000109827
0.000108628
0.000107448
0.000106218
0.000105013
0.00010377
0.000102533
0.000101291
0.000100046
9.87825e-05
9.7531e-05
9.62595e-05
9.50021e-05
9.37278e-05
9.24658e-05
9.1183e-05
8.99092e-05
8.86092e-05
8.73158e-05
8.59982e-05
8.46821e-05
8.33448e-05
8.20128e-05
8.06671e-05
7.93258e-05
7.79742e-05
7.66251e-05
7.52705e-05
7.39191e-05
7.2566e-05
7.12178e-05
6.98724e-05
6.85336e-05
6.72012e-05
6.58779e-05
6.45642e-05
6.32618e-05
6.19718e-05
6.06949e-05
5.94326e-05
5.81839e-05
5.6951e-05
5.57325e-05
5.45306e-05
5.33428e-05
5.2171e-05
5.10107e-05
4.9864e-05
4.87366e-05
4.76164e-05
4.65155e-05
4.542e-05
4.43382e-05
4.32596e-05
4.21892e-05
4.1118e-05
4.00499e-05
3.89794e-05
3.79088e-05
3.68328e-05
3.57533e-05
3.46671e-05
3.35776e-05
3.24793e-05
3.11491e-05
2.97159e-05
2.83248e-05
2.69968e-05
2.57055e-05
2.44766e-05
2.3272e-05
2.2139e-05
2.10294e-05
2.00019e-05
1.89844e-05
1.80382e-05
1.71003e-05
1.62424e-05
1.54101e-05
1.46435e-05
1.38784e-05
1.31543e-05
1.24523e-05
1.18101e-05
1.12047e-05
1.06199e-05
1.00841e-05
9.66313e-06
9.4237e-06
9.33162e-06
9.36382e-06
9.71489e-06
0.000100474
9.91731e-05
9.86008e-05
9.76336e-05
9.67393e-05
9.56196e-05
9.46054e-05
9.34303e-05
9.23637e-05
9.1171e-05
9.00782e-05
8.88816e-05
8.77739e-05
8.65793e-05
8.54623e-05
8.42751e-05
8.31515e-05
8.19739e-05
8.08505e-05
7.96846e-05
7.85654e-05
7.74132e-05
7.63019e-05
7.51693e-05
7.40718e-05
7.29497e-05
7.18596e-05
7.07549e-05
6.9675e-05
6.8585e-05
6.75189e-05
6.6448e-05
6.53963e-05
6.43414e-05
6.3302e-05
6.22611e-05
6.12319e-05
6.01976e-05
5.91768e-05
5.81601e-05
5.71414e-05
5.61303e-05
5.51174e-05
5.41096e-05
5.3099e-05
5.20914e-05
5.108e-05
5.00701e-05
4.90548e-05
4.80401e-05
4.70197e-05
4.59997e-05
4.49739e-05
4.39483e-05
4.29207e-05
4.15843e-05
4.02968e-05
3.90271e-05
3.77938e-05
3.65838e-05
3.5404e-05
3.42512e-05
3.31244e-05
3.2028e-05
3.09525e-05
2.99069e-05
2.88787e-05
2.78829e-05
2.69033e-05
2.59606e-05
2.50322e-05
2.41447e-05
2.32719e-05
2.24472e-05
2.16371e-05
2.08752e-05
2.01247e-05
1.94202e-05
1.8732e-05
1.80875e-05
1.74546e-05
1.68621e-05
1.62756e-05
1.57259e-05
1.51835e-05
1.46746e-05
1.41724e-05
1.36969e-05
1.32291e-05
1.27883e-05
1.23659e-05
1.19733e-05
1.16132e-05
1.12963e-05
1.10382e-05
1.08732e-05
1.07625e-05
1.08095e-05
1.12255e-05
1.14836e-05
8.57458e-05
8.41397e-05
8.36231e-05
8.26038e-05
8.18905e-05
8.08363e-05
8.0045e-05
7.89995e-05
7.81755e-05
7.71555e-05
7.63186e-05
7.53261e-05
7.44834e-05
7.35146e-05
7.26683e-05
7.17155e-05
7.08678e-05
6.99234e-05
6.90741e-05
6.81286e-05
6.72751e-05
6.63386e-05
6.54624e-05
6.45238e-05
6.34515e-05
6.20419e-05
6.07451e-05
5.9382e-05
5.81268e-05
5.68163e-05
5.56072e-05
5.43528e-05
5.3196e-05
5.20035e-05
5.09047e-05
4.97777e-05
4.87398e-05
4.76791e-05
4.67021e-05
4.57092e-05
4.47931e-05
4.38618e-05
4.30017e-05
4.21306e-05
4.13247e-05
4.05114e-05
3.97577e-05
3.89993e-05
3.82945e-05
3.75879e-05
3.69279e-05
3.62692e-05
3.56495e-05
3.5034e-05
3.44525e-05
3.38773e-05
3.33343e-05
3.27952e-05
3.22812e-05
3.17699e-05
3.12786e-05
3.07895e-05
3.03163e-05
2.98462e-05
2.93907e-05
2.89399e-05
2.85051e-05
2.80961e-05
2.76688e-05
2.72779e-05
2.68702e-05
2.64956e-05
2.61046e-05
2.57417e-05
2.53635e-05
2.50078e-05
2.46372e-05
2.42835e-05
2.39169e-05
2.35626e-05
2.31945e-05
2.28328e-05
2.24549e-05
2.20758e-05
2.16724e-05
2.12558e-05
2.08072e-05
2.03346e-05
1.9825e-05
1.92855e-05
1.87145e-05
1.81247e-05
1.75292e-05
1.69535e-05
1.64498e-05
1.61005e-05
1.58448e-05
1.59206e-05
1.63515e-05
1.66062e-05
6.97799e-05
6.7648e-05
6.67812e-05
6.51552e-05
6.42553e-05
6.27105e-05
6.18143e-05
6.03335e-05
5.9446e-05
5.80301e-05
5.71582e-05
5.5809e-05
5.49594e-05
5.36791e-05
5.2858e-05
5.16485e-05
5.08615e-05
4.97255e-05
4.8977e-05
4.79154e-05
4.72064e-05
4.62208e-05
4.55575e-05
4.46482e-05
4.40349e-05
4.32077e-05
4.26588e-05
4.19172e-05
4.14307e-05
4.0772e-05
4.03447e-05
3.97653e-05
3.93929e-05
3.88866e-05
3.85627e-05
3.8123e-05
3.78435e-05
3.7465e-05
3.72249e-05
3.69002e-05
3.66936e-05
3.64161e-05
3.62381e-05
3.60018e-05
3.58488e-05
3.56484e-05
3.5518e-05
3.53485e-05
3.52283e-05
3.50917e-05
3.50095e-05
3.49018e-05
3.4813e-05
3.47219e-05
3.4667e-05
3.45963e-05
3.45626e-05
3.4512e-05
3.44989e-05
3.44692e-05
3.4475e-05
3.44662e-05
3.44897e-05
3.45012e-05
3.45403e-05
3.45696e-05
3.46239e-05
3.46709e-05
3.47392e-05
3.4804e-05
3.48866e-05
3.49687e-05
3.50687e-05
3.51707e-05
3.52887e-05
3.541e-05
3.55442e-05
3.56805e-05
3.58246e-05
3.59684e-05
3.61151e-05
3.62573e-05
3.63957e-05
3.65229e-05
3.66394e-05
3.67353e-05
3.68055e-05
3.68283e-05
3.68047e-05
3.67146e-05
3.65578e-05
3.63209e-05
3.60089e-05
3.56233e-05
3.51858e-05
3.47492e-05
3.44426e-05
3.45189e-05
3.48477e-05
3.43288e-05
5.37403e-05
5.19017e-05
5.11723e-05
4.98019e-05
4.91476e-05
4.78517e-05
4.72647e-05
4.60514e-05
4.55282e-05
4.44035e-05
4.39408e-05
4.29094e-05
4.25036e-05
4.15685e-05
4.12158e-05
4.03779e-05
4.00738e-05
3.93325e-05
3.90723e-05
3.84261e-05
3.82052e-05
3.76522e-05
3.74656e-05
3.70021e-05
3.68449e-05
3.64667e-05
3.63339e-05
3.60347e-05
3.5921e-05
3.5694e-05
3.55943e-05
3.54234e-05
3.53416e-05
3.52407e-05
3.51726e-05
3.51066e-05
3.50523e-05
3.5024e-05
3.50015e-05
3.49946e-05
3.50006e-05
3.50153e-05
3.50464e-05
3.50825e-05
3.5137e-05
3.51942e-05
3.52709e-05
3.53491e-05
3.54472e-05
3.55468e-05
3.5665e-05
3.57848e-05
3.59216e-05
3.60627e-05
3.6219e-05
3.63797e-05
3.65552e-05
3.67355e-05
3.69302e-05
3.71295e-05
3.73434e-05
3.75617e-05
3.77946e-05
3.80323e-05
3.82855e-05
3.85436e-05
3.88175e-05
3.90977e-05
3.93941e-05
3.96984e-05
4.00192e-05
4.03496e-05
4.06978e-05
4.10573e-05
4.14357e-05
4.18271e-05
4.22394e-05
4.26674e-05
4.31166e-05
4.35836e-05
4.40732e-05
4.45829e-05
4.51164e-05
4.56718e-05
4.62516e-05
4.68542e-05
4.74833e-05
4.8149e-05
4.8849e-05
4.96012e-05
5.04006e-05
5.12628e-05
5.21872e-05
5.31876e-05
5.42653e-05
5.54232e-05
5.66299e-05
5.77686e-05
5.84269e-05
5.86342e-05
5.58957e-05
5.39859e-05
5.32247e-05
5.17913e-05
5.10934e-05
4.97335e-05
4.90936e-05
4.78152e-05
4.72302e-05
4.60385e-05
4.55114e-05
4.44069e-05
4.39395e-05
4.2923e-05
4.25157e-05
4.15871e-05
4.12384e-05
4.03959e-05
4.01028e-05
3.93439e-05
3.91031e-05
3.84267e-05
3.82343e-05
3.76423e-05
3.74822e-05
3.69763e-05
3.68428e-05
3.64196e-05
3.63071e-05
3.59622e-05
3.58656e-05
3.55943e-05
3.5509e-05
3.53049e-05
3.52264e-05
3.5076e-05
3.50036e-05
3.49252e-05
3.48594e-05
3.47941e-05
3.47545e-05
3.47208e-05
3.47069e-05
3.46956e-05
3.47052e-05
3.47156e-05
3.47473e-05
3.47792e-05
3.48319e-05
3.48848e-05
3.49574e-05
3.50312e-05
3.51227e-05
3.52173e-05
3.5327e-05
3.54402e-05
3.55681e-05
3.56987e-05
3.58423e-05
3.59893e-05
3.61479e-05
3.63115e-05
3.64847e-05
3.66635e-05
3.68508e-05
3.70438e-05
3.72443e-05
3.74506e-05
3.76637e-05
3.78831e-05
3.81097e-05
3.83425e-05
3.85812e-05
3.88261e-05
3.90766e-05
3.93331e-05
3.95952e-05
3.98628e-05
4.01362e-05
4.04151e-05
4.07008e-05
4.09932e-05
4.12946e-05
4.16056e-05
4.19296e-05
4.22684e-05
4.26272e-05
4.30095e-05
4.34203e-05
4.3857e-05
4.43338e-05
4.48593e-05
4.54434e-05
4.61018e-05
4.68549e-05
4.77292e-05
4.87657e-05
4.99653e-05
5.11111e-05
5.16382e-05
7.62366e-05
7.40591e-05
7.31695e-05
7.14988e-05
7.05615e-05
6.89807e-05
6.79992e-05
6.65022e-05
6.5486e-05
6.40305e-05
6.30218e-05
6.16108e-05
6.06105e-05
5.92472e-05
5.82627e-05
5.69509e-05
5.59891e-05
5.47317e-05
5.37984e-05
5.25983e-05
5.16996e-05
5.056e-05
4.97017e-05
4.86254e-05
4.7811e-05
4.68006e-05
4.6029e-05
4.50855e-05
4.43606e-05
4.34852e-05
4.28106e-05
4.20047e-05
4.13942e-05
4.06669e-05
4.01167e-05
3.94648e-05
3.89701e-05
3.83899e-05
3.79451e-05
3.74314e-05
3.70321e-05
3.65791e-05
3.62221e-05
3.58219e-05
3.55017e-05
3.51466e-05
3.48582e-05
3.45414e-05
3.42795e-05
3.39952e-05
3.37552e-05
3.34985e-05
3.32683e-05
3.30347e-05
3.2841e-05
3.26172e-05
3.24332e-05
3.22364e-05
3.20722e-05
3.18916e-05
3.17247e-05
3.15718e-05
3.14185e-05
3.12764e-05
3.11334e-05
3.10001e-05
3.08645e-05
3.07334e-05
3.05953e-05
3.0458e-05
3.0309e-05
3.01579e-05
2.99911e-05
2.98185e-05
2.96268e-05
2.94252e-05
2.92024e-05
2.89655e-05
2.87061e-05
2.84292e-05
2.81305e-05
2.78141e-05
2.74794e-05
2.71328e-05
2.6786e-05
2.64173e-05
2.6058e-05
2.56945e-05
2.53538e-05
2.50226e-05
2.47065e-05
2.44258e-05
2.41885e-05
2.39983e-05
2.38935e-05
2.38945e-05
2.40925e-05
2.45478e-05
2.53505e-05
2.60407e-05
8.95301e-05
8.80615e-05
8.75418e-05
8.65778e-05
8.58454e-05
8.48201e-05
8.39986e-05
8.29653e-05
8.21076e-05
8.10894e-05
8.02206e-05
7.92236e-05
7.8351e-05
7.73745e-05
7.65006e-05
7.55414e-05
7.46662e-05
7.37205e-05
7.28431e-05
7.19061e-05
7.10235e-05
7.00913e-05
6.92005e-05
6.82645e-05
6.73667e-05
6.64162e-05
6.55129e-05
6.45555e-05
6.36262e-05
6.26548e-05
6.16974e-05
6.02232e-05
5.88244e-05
5.73955e-05
5.6038e-05
5.46607e-05
5.33506e-05
5.20282e-05
5.07706e-05
4.95094e-05
4.831e-05
4.71119e-05
4.59718e-05
4.48385e-05
4.37566e-05
4.26819e-05
4.16538e-05
4.06363e-05
3.96609e-05
3.86984e-05
3.77736e-05
3.68637e-05
3.59873e-05
3.51276e-05
3.4297e-05
3.34848e-05
3.26961e-05
3.19266e-05
3.11785e-05
3.04506e-05
2.97375e-05
2.90427e-05
2.83546e-05
2.76833e-05
2.70122e-05
2.63567e-05
2.56951e-05
2.50618e-05
2.44245e-05
2.38175e-05
2.31982e-05
2.26154e-05
2.20304e-05
2.14603e-05
2.08956e-05
2.03443e-05
1.9801e-05
1.92709e-05
1.87527e-05
1.82456e-05
1.77534e-05
1.72727e-05
1.68082e-05
1.63594e-05
1.59323e-05
1.55198e-05
1.51331e-05
1.47648e-05
1.44341e-05
1.41283e-05
1.3866e-05
1.36237e-05
1.34233e-05
1.3273e-05
1.31447e-05
1.31452e-05
1.3291e-05
1.36633e-05
1.42771e-05
1.45684e-05
0.00010516
0.000103992
0.000103473
0.000102611
0.000101747
0.000100702
9.9706e-05
9.8583e-05
9.75254e-05
9.63725e-05
9.52885e-05
9.41217e-05
9.30191e-05
9.1844e-05
9.07264e-05
8.95459e-05
8.84157e-05
8.72318e-05
8.60926e-05
8.49097e-05
8.37627e-05
8.25818e-05
8.14323e-05
8.02559e-05
7.91067e-05
7.79371e-05
7.67927e-05
7.56343e-05
7.44978e-05
7.33535e-05
7.22337e-05
7.11014e-05
6.99851e-05
6.88688e-05
6.7763e-05
6.66574e-05
6.55618e-05
6.44726e-05
6.33907e-05
6.23144e-05
6.12431e-05
6.01757e-05
5.91092e-05
5.80424e-05
5.6987e-05
5.59263e-05
5.48682e-05
5.38068e-05
5.27449e-05
5.16778e-05
5.06071e-05
4.95294e-05
4.84454e-05
4.73528e-05
4.6252e-05
4.5142e-05
4.39029e-05
4.23688e-05
4.08848e-05
3.94388e-05
3.80375e-05
3.66768e-05
3.5349e-05
3.40672e-05
3.28143e-05
3.16122e-05
3.04354e-05
2.931e-05
2.8203e-05
2.71498e-05
2.61099e-05
2.51223e-05
2.4149e-05
2.32275e-05
2.23279e-05
2.14685e-05
2.063e-05
1.98292e-05
1.90619e-05
1.83254e-05
1.7622e-05
1.69299e-05
1.62783e-05
1.56475e-05
1.50791e-05
1.45254e-05
1.40118e-05
1.34873e-05
1.3018e-05
1.25735e-05
1.22222e-05
1.18678e-05
1.15578e-05
1.12343e-05
1.10306e-05
1.08921e-05
1.08396e-05
1.08833e-05
1.13997e-05
1.17745e-05
0.000122207
0.000121475
0.000121027
0.000120388
0.000119483
0.000118535
0.000117483
0.000116404
0.000115293
0.000114151
0.000113008
0.000111827
0.00011066
0.00010945
0.000108261
0.00010703
0.00010582
0.000104571
0.000103328
0.000102076
0.000100833
9.9558e-05
9.83014e-05
9.70205e-05
9.57548e-05
9.44694e-05
9.31913e-05
9.1894e-05
9.05998e-05
8.92898e-05
8.79839e-05
8.66579e-05
8.53305e-05
8.39881e-05
8.26385e-05
8.12756e-05
7.99069e-05
7.85352e-05
7.71582e-05
7.57782e-05
7.43977e-05
7.30152e-05
7.16356e-05
7.0257e-05
6.88846e-05
6.75167e-05
6.61576e-05
6.48067e-05
6.34671e-05
6.21391e-05
6.08245e-05
5.95242e-05
5.82387e-05
5.69689e-05
5.57139e-05
5.44764e-05
5.3254e-05
5.20429e-05
5.08396e-05
4.96468e-05
4.84681e-05
4.72996e-05
4.61432e-05
4.49969e-05
4.3858e-05
4.27234e-05
4.15902e-05
4.04569e-05
3.9322e-05
3.8185e-05
3.70439e-05
3.58969e-05
3.47421e-05
3.32296e-05
3.16587e-05
3.0139e-05
2.87066e-05
2.72828e-05
2.59466e-05
2.46301e-05
2.3424e-05
2.22186e-05
2.10814e-05
1.99102e-05
1.88393e-05
1.78184e-05
1.69492e-05
1.60466e-05
1.51071e-05
1.40399e-05
1.32264e-05
1.27129e-05
1.21072e-05
1.11004e-05
1.04435e-05
1.00595e-05
9.78161e-06
9.74403e-06
9.82901e-06
1.02232e-05
0.000135339
0.000135216
0.000134909
0.000134601
0.000133836
0.000133146
0.000132247
0.000131397
0.000130448
0.000129514
0.000128534
0.000127543
0.000126535
0.0001255
0.000124462
0.000123389
0.000122317
0.000121208
0.000120101
0.000118961
0.000117817
0.00011664
0.00011546
0.000114248
0.000113037
0.0001118
0.000110555
0.000109286
0.000108008
0.000106708
0.000105398
0.000104065
0.000102719
0.000101353
9.99739e-05
9.85771e-05
9.71573e-05
9.57287e-05
9.42985e-05
9.28315e-05
9.13648e-05
8.98722e-05
8.83733e-05
8.68544e-05
8.53262e-05
8.37818e-05
8.22272e-05
8.06596e-05
7.90826e-05
7.74958e-05
7.59015e-05
7.43016e-05
7.26979e-05
7.10927e-05
6.94869e-05
6.78813e-05
6.62741e-05
6.46656e-05
6.30573e-05
6.14527e-05
5.98516e-05
5.82618e-05
5.66835e-05
5.51228e-05
5.35793e-05
5.20583e-05
5.05585e-05
4.9085e-05
4.76357e-05
4.62153e-05
4.48218e-05
4.34577e-05
4.21205e-05
4.08072e-05
3.95042e-05
3.82193e-05
3.6956e-05
3.56938e-05
3.44488e-05
3.3195e-05
3.19326e-05
3.06444e-05
2.93574e-05
2.80681e-05
2.67534e-05
2.53356e-05
2.38512e-05
2.21695e-05
2.11045e-05
1.95059e-05
1.67429e-05
1.51677e-05
1.4723e-05
1.35381e-05
1.13246e-05
1.00187e-05
9.51915e-06
8.81844e-06
8.78186e-06
9.02332e-06
0.000133703
0.000133311
0.000133155
0.000132796
0.000132629
0.000132255
0.000132056
0.000131667
0.000131428
0.000131025
0.000130744
0.000130325
0.000130003
0.000129567
0.000129205
0.000128747
0.000128345
0.000127862
0.000127417
0.000126902
0.00012641
0.000125858
0.000125313
0.000124712
0.000123909
0.000122922
0.000121921
0.000120893
0.000119852
0.00011879
0.000117714
0.000116618
0.000115509
0.000114381
0.000113233
0.000112065
0.000110875
0.000109666
0.000108434
0.000107178
0.000105901
0.000104598
0.000103274
0.000101923
0.000100549
9.91481e-05
9.77222e-05
9.62689e-05
9.47895e-05
9.32832e-05
9.17509e-05
9.01901e-05
8.85986e-05
8.69927e-05
8.53702e-05
8.37165e-05
8.2043e-05
8.0347e-05
7.86287e-05
7.6892e-05
7.51316e-05
7.33529e-05
7.15463e-05
6.97199e-05
6.78695e-05
6.60014e-05
6.41114e-05
6.22047e-05
6.02837e-05
5.83497e-05
5.6409e-05
5.44648e-05
5.25244e-05
5.05906e-05
4.86696e-05
4.67672e-05
4.48885e-05
4.30399e-05
4.12261e-05
3.94522e-05
3.7718e-05
3.60211e-05
3.43586e-05
3.27321e-05
3.11403e-05
2.95524e-05
2.79654e-05
2.63806e-05
2.47632e-05
2.31457e-05
2.14196e-05
1.96188e-05
1.771e-05
1.57106e-05
1.36577e-05
1.16842e-05
9.8802e-06
8.68652e-06
8.49447e-06
8.1799e-06
0.000111897
0.000112033
0.000112083
0.000112096
0.000112124
0.000112101
0.000112115
0.000112068
0.000112067
0.000112001
0.000111983
0.000111901
0.000111862
0.000111764
0.000111702
0.000111587
0.0001115
0.000111365
0.000111251
0.000111094
0.000110949
0.000110768
0.000110592
0.000110384
0.000110178
0.000109949
0.00010972
0.000109471
0.000109219
0.000108948
0.000108672
0.000108378
0.000108075
0.000107756
0.000107428
0.00010708
0.000106718
0.000106336
0.000105937
0.000105516
0.000105075
0.000104609
0.000104119
0.0001036
0.000103051
0.000102476
0.000101875
0.000101245
0.000100587
9.98977e-05
9.91651e-05
9.83887e-05
9.7559e-05
9.66713e-05
9.53132e-05
9.39036e-05
9.24356e-05
9.09396e-05
8.93964e-05
8.78261e-05
8.62175e-05
8.45909e-05
8.29382e-05
8.12522e-05
7.95155e-05
7.77486e-05
7.59647e-05
7.41142e-05
7.22485e-05
7.03307e-05
6.83883e-05
6.64016e-05
6.43813e-05
6.2314e-05
6.02063e-05
5.80491e-05
5.58447e-05
5.35859e-05
5.12746e-05
4.89075e-05
4.64886e-05
4.40194e-05
4.15076e-05
3.89616e-05
3.63989e-05
3.38377e-05
3.12994e-05
2.88034e-05
2.63749e-05
2.4036e-05
2.17466e-05
1.9511e-05
1.73226e-05
1.51248e-05
1.30236e-05
1.10468e-05
9.23951e-06
7.78251e-06
7.02635e-06
8.87741e-06
7.26194e-05
7.29652e-05
7.30469e-05
7.32443e-05
7.3326e-05
7.34859e-05
7.35779e-05
7.37148e-05
7.38157e-05
7.39377e-05
7.40441e-05
7.41554e-05
7.42639e-05
7.4367e-05
7.4474e-05
7.45705e-05
7.46734e-05
7.47637e-05
7.48606e-05
7.49448e-05
7.50345e-05
7.51127e-05
7.51951e-05
7.52678e-05
7.53442e-05
7.54129e-05
7.54838e-05
7.55479e-05
7.56125e-05
7.56706e-05
7.57275e-05
7.57778e-05
7.58251e-05
7.58655e-05
7.59014e-05
7.59324e-05
7.59587e-05
7.5979e-05
7.59941e-05
7.60024e-05
7.60049e-05
7.6e-05
7.5989e-05
7.59703e-05
7.59457e-05
7.59105e-05
7.58645e-05
7.58051e-05
7.57304e-05
7.56378e-05
7.55243e-05
7.53886e-05
7.52277e-05
7.50414e-05
7.48304e-05
7.46086e-05
7.43564e-05
7.40875e-05
7.37812e-05
7.34444e-05
7.30553e-05
7.23915e-05
7.164e-05
7.08347e-05
6.99906e-05
6.91003e-05
6.8165e-05
6.7173e-05
6.61356e-05
6.50332e-05
6.38674e-05
6.26267e-05
6.13315e-05
5.99407e-05
5.84665e-05
5.68949e-05
5.52289e-05
5.34569e-05
5.1582e-05
4.95974e-05
4.75077e-05
4.53112e-05
4.30151e-05
4.06232e-05
3.81476e-05
3.55868e-05
3.29491e-05
3.02285e-05
2.74276e-05
2.45233e-05
2.15454e-05
1.85327e-05
1.56204e-05
1.28283e-05
1.03767e-05
8.23424e-06
6.59471e-06
5.44335e-06
4.79833e-06
5.36599e-06
6.80873e-06
6.82288e-06
6.83078e-06
6.84243e-06
6.85327e-06
6.8667e-06
6.87833e-06
6.89252e-06
6.90497e-06
6.91976e-06
6.93287e-06
6.94821e-06
6.96208e-06
6.97781e-06
6.99258e-06
7.00869e-06
7.02434e-06
7.04098e-06
7.0575e-06
7.07484e-06
7.09228e-06
7.11049e-06
7.12894e-06
7.14817e-06
7.16778e-06
7.18815e-06
7.20898e-06
7.2306e-06
7.25274e-06
7.27571e-06
7.29925e-06
7.32371e-06
7.34879e-06
7.3749e-06
7.4017e-06
7.42964e-06
7.45836e-06
7.48829e-06
7.51914e-06
7.55124e-06
7.58441e-06
7.6189e-06
7.65455e-06
7.69157e-06
7.72975e-06
7.76919e-06
7.8098e-06
7.85164e-06
7.89465e-06
7.93891e-06
7.98445e-06
8.03143e-06
8.07996e-06
8.13031e-06
8.18263e-06
8.23688e-06
8.2922e-06
8.34907e-06
8.40581e-06
8.46299e-06
8.51855e-06
8.57297e-06
8.63103e-06
8.69044e-06
8.75453e-06
8.82091e-06
8.89184e-06
8.96643e-06
9.04596e-06
9.12955e-06
9.2184e-06
9.31265e-06
9.41365e-06
9.5185e-06
9.63104e-06
9.74862e-06
9.87434e-06
1.00062e-05
1.0147e-05
1.02953e-05
1.04539e-05
1.06216e-05
1.08006e-05
1.09895e-05
1.1187e-05
1.13818e-05
1.15565e-05
1.16626e-05
1.16044e-05
1.12387e-05
1.01799e-05
8.74894e-06
6.79731e-06
4.68011e-06
3.1169e-06
2.17886e-06
2.13834e-06
3.32631e-06
3.3432e-06
3.58906e-06
9.05379e-06
1.13165e-06
1.44371e-06
1.977e-06
2.5153e-06
2.89178e-06
3.24851e-06
3.66359e-06
4.03363e-06
4.32517e-06
4.49317e-06
4.6693e-06
4.86174e-06
5.34448e-06
6.89157e-06
9.54509e-06
1.23626e-05
1.14019e-05
9.11095e-06
3.75672e-06
4.25819e-06
1.28863e-06
1.38584e-06
1.74361e-06
2.1104e-06
2.39721e-06
2.75965e-06
3.15324e-06
3.51561e-06
3.83117e-06
4.07911e-06
4.41283e-06
4.90579e-06
6.14207e-06
8.44995e-06
1.13756e-05
1.26816e-05
1.09389e-05
8.88212e-06
3.77363e-06
3.69248e-06
1.73389e-06
1.80112e-06
1.89268e-06
2.05228e-06
2.27794e-06
2.58892e-06
2.95068e-06
3.32928e-06
3.77934e-06
4.13608e-06
4.70362e-06
5.75839e-06
7.6958e-06
1.05355e-05
1.31056e-05
1.25594e-05
1.07493e-05
8.70954e-06
3.74387e-06
4.02107e-06
2.38238e-06
2.42713e-06
2.23283e-06
2.36071e-06
2.47054e-06
2.79175e-06
3.19402e-06
3.73346e-06
4.48785e-06
5.03834e-06
6.21642e-06
7.96331e-06
1.07617e-05
1.28857e-05
1.34715e-05
1.21814e-05
1.07128e-05
8.34692e-06
3.25451e-06
4.65152e-06
3.23415e-06
3.22625e-06
2.87412e-06
3.12131e-06
3.13901e-06
3.54322e-06
4.12439e-06
5.03122e-06
6.46599e-06
7.96394e-06
9.69389e-06
1.21875e-05
1.36186e-05
1.43778e-05
1.34737e-05
1.2073e-05
1.08132e-05
7.69152e-06
2.53564e-06
5.54754e-06
4.41222e-06
4.36462e-06
3.93909e-06
4.30644e-06
4.64707e-06
5.46366e-06
6.74414e-06
9.31863e-06
1.19942e-05
1.38801e-05
1.45007e-05
1.53612e-05
1.53749e-05
1.44754e-05
1.32837e-05
1.22828e-05
1.07658e-05
6.64327e-06
1.82938e-06
7.12228e-06
6.40425e-06
6.41746e-06
6.42299e-06
7.395e-06
8.96114e-06
1.13264e-05
1.51919e-05
1.80784e-05
1.73837e-05
1.76228e-05
1.71199e-05
1.65102e-05
1.56858e-05
1.48093e-05
1.38404e-05
1.25388e-05
1.04809e-05
5.28113e-06
1.18507e-06
1.14285e-05
1.21506e-05
1.29861e-05
1.5007e-05
1.80338e-05
2.20171e-05
2.27757e-05
2.23642e-05
2.15237e-05
2.06656e-05
2.00696e-05
1.89658e-05
1.83221e-05
1.71337e-05
1.60855e-05
1.42257e-05
1.27245e-05
9.45652e-06
4.07805e-06
6.86815e-07
2.80127e-05
3.08659e-05
3.23593e-05
3.48687e-05
3.44707e-05
3.27424e-05
3.11499e-05
2.94422e-05
2.78882e-05
2.63148e-05
2.4756e-05
2.30828e-05
2.13442e-05
1.92507e-05
1.67266e-05
1.38018e-05
1.13015e-05
8.0653e-06
3.52526e-06
3.95487e-07
4.90736e-05
5.20406e-05
5.04813e-05
4.76116e-05
4.5174e-05
4.23226e-05
4.01034e-05
3.7335e-05
3.52233e-05
3.24018e-05
3.01945e-05
2.69855e-05
2.43847e-05
2.02708e-05
1.47642e-05
1.0588e-05
8.51453e-06
6.5202e-06
2.8954e-06
2.66501e-07
4.50821e-05
4.8112e-05
4.65413e-05
4.38363e-05
4.21193e-05
3.93891e-05
3.78059e-05
3.52143e-05
3.37027e-05
3.1137e-05
2.94714e-05
2.66417e-05
2.44203e-05
2.10561e-05
1.64218e-05
1.21014e-05
9.25304e-06
6.70388e-06
2.63131e-06
2.19574e-07
2.10178e-05
2.37307e-05
2.53203e-05
2.85157e-05
2.92417e-05
2.87611e-05
2.76718e-05
2.68694e-05
2.56969e-05
2.49358e-05
2.37329e-05
2.28591e-05
2.13245e-05
2.00835e-05
1.74528e-05
1.54324e-05
1.25106e-05
8.58149e-06
3.16846e-06
2.92981e-07
9.79929e-06
9.83386e-06
1.01933e-05
1.13528e-05
1.36076e-05
1.70404e-05
2.11097e-05
2.08903e-05
2.09514e-05
2.02198e-05
1.99154e-05
1.92102e-05
1.84886e-05
1.77185e-05
1.68233e-05
1.51779e-05
1.37159e-05
1.05093e-05
4.12357e-06
5.76548e-07
6.83303e-06
6.02014e-06
5.95663e-06
5.74218e-06
6.41248e-06
7.429e-06
9.20815e-06
1.22826e-05
1.71894e-05
1.71015e-05
1.7133e-05
1.77585e-05
1.72818e-05
1.64203e-05
1.54166e-05
1.47389e-05
1.34105e-05
1.14685e-05
5.57473e-06
1.12973e-06
5.43136e-06
4.30371e-06
4.25346e-06
3.85121e-06
4.18819e-06
4.40858e-06
5.06917e-06
6.11477e-06
7.97859e-06
1.04401e-05
1.27519e-05
1.42104e-05
1.55863e-05
1.61823e-05
1.53351e-05
1.39465e-05
1.30591e-05
1.15989e-05
7.28125e-06
1.8733e-06
4.5489e-06
3.19239e-06
3.20071e-06
2.92237e-06
3.17785e-06
3.21173e-06
3.59306e-06
4.12722e-06
4.97038e-06
5.96768e-06
7.32128e-06
9.25551e-06
1.20215e-05
1.38413e-05
1.52328e-05
1.43777e-05
1.28122e-05
1.1548e-05
8.29255e-06
2.65993e-06
4.00673e-06
2.36296e-06
2.41063e-06
2.34163e-06
2.51061e-06
2.66559e-06
2.97452e-06
3.3521e-06
3.8741e-06
4.61645e-06
4.99549e-06
6.07966e-06
7.91782e-06
1.09083e-05
1.33701e-05
1.42618e-05
1.29361e-05
1.13856e-05
8.95516e-06
3.44986e-06
3.93795e-06
1.79699e-06
1.84833e-06
2.03033e-06
2.27584e-06
2.57032e-06
2.91202e-06
3.24268e-06
3.59323e-06
4.03065e-06
4.39525e-06
4.88478e-06
5.88899e-06
7.89763e-06
1.09325e-05
1.38586e-05
1.335e-05
1.13766e-05
9.07141e-06
3.9474e-06
4.77872e-06
1.39831e-06
1.52008e-06
1.90433e-06
2.36615e-06
2.73939e-06
3.1588e-06
3.53333e-06
3.87376e-06
4.18657e-06
4.47546e-06
4.80825e-06
5.2651e-06
6.43681e-06
8.80391e-06
1.19429e-05
1.34793e-05
1.15756e-05
9.314e-06
3.98624e-06
9.57756e-06
1.28679e-06
1.62757e-06
2.19785e-06
2.79717e-06
3.29561e-06
3.74346e-06
4.1567e-06
4.51275e-06
4.76185e-06
4.94071e-06
5.1525e-06
5.35713e-06
5.81643e-06
7.2865e-06
1.00065e-05
1.30472e-05
1.20559e-05
9.56332e-06
3.96537e-06
1.23425e-06
0.000116555
0.000294174
0.000330905
0.00033481
0.000335356
0.000335357
0.000335342
0.000335343
0.000335345
0.000335345
0.000335343
0.000335342
0.000335357
0.000335356
0.00033481
0.000330905
0.000294174
0.000116555
1.23425e-06
1.36964e-06
6.81701e-05
0.000219593
0.000309508
0.000330909
0.000334527
0.000335273
0.000335315
0.000335296
0.000335287
0.000335287
0.000335296
0.000335315
0.000335273
0.000334527
0.000330909
0.000309508
0.000219594
6.81703e-05
1.36964e-06
1.51332e-06
5.29012e-05
0.000176473
0.000280589
0.000322152
0.000332504
0.000334604
0.000335101
0.000335168