/*--------------------------------*- C++ -*----------------------------------*\
| =========                 |                                                 |
| \\      /  F ield         | OpenFOAM: The Open Source CFD Toolbox           |
|  \\    /   O peration     | Version:  2.1.0                                 |
|   \\  /    A nd           | Web:      www.OpenFOAM.org                      |
|    \\/     M anipulation  |                                                 |
\*---------------------------------------------------------------------------*/
FoamFile
{
    version     2.0;
    format      ascii;
    class       volScalarField;
    location    "0.19";
    object      omega;
}
// * * * * * * * * * * * * * * * * * * * * * * * * * * * * * * * * * * * * * //

dimensions      [0 0 -1 0 0 0 0];

internalField   nonuniform List<scalar> 
6400
(
1569.54
1570.08
1569.88
1569.35
1568.65
1568
1567.09
1566.38
1565.35
1564.59
1563.5
1562.66
1561.53
1560.6
1559.45
1558.42
1557.25
1556.13
1554.93
1553.75
1552.52
1551.3
1550.03
1548.77
1547.47
1546.16
1544.82
1543.46
1542.08
1540.67
1539.23
1537.77
1536.27
1534.74
1533.18
1531.59
1529.94
1528.25
1526.5
1524.67
1522.74
1520.72
1518.56
1516.28
1513.82
1511.19
1508.35
1505.29
1501.97
1498.4
1494.5
1490.21
1485.48
1480.53
1475.33
1469.86
1464.14
1458.12
1451.86
1445.31
1438.49
1431.36
1423.92
1416.13
1408.02
1399.5
1390.46
1381.03
1370.99
1360.47
1349.29
1337.56
1325.14
1312.12
1298.42
1284.14
1269.26
1253.9
1238.08
1221.87
1205.17
1187.69
1168.69
1149.31
1128.84
1107.06
1083.42
1056.93
1026.44
990.011
945.002
886.69
808.128
701.326
562.531
485.854
519.285
664.504
789.294
829.517
664.757
664.69
665.624
666.345
667.438
668.539
669.696
670.991
672.217
673.636
674.945
676.457
677.861
679.452
680.96
682.628
684.243
685.992
687.717
689.557
691.398
693.346
695.315
697.39
699.506
701.724
703.999
706.378
708.83
711.39
714.039
716.809
719.687
722.702
725.823
729.084
732.47
736.004
739.676
743.505
747.484
751.635
755.952
760.46
765.15
770.045
775.141
780.456
785.991
791.766
797.752
803.972
810.416
817.162
824.205
831.561
839.25
847.286
855.7
864.508
873.743
883.431
893.61
904.32
915.518
927.15
939.198
951.94
965.261
979.303
994.049
1009.59
1025.97
1043.25
1061.49
1080.8
1101.26
1122.98
1146.1
1170.83
1196.81
1223.46
1251.41
1280.1
1309.26
1338.21
1366.28
1392.65
1416.52
1437.04
1452.47
1459.72
1461.24
1447.52
1410.6
1327.39
1206.86
1061.53
906.043
751.733
488.006
490.767
492.095
494.822
496.65
499.436
501.582
504.426
506.816
509.736
512.343
515.362
518.171
521.309
524.317
527.592
530.798
534.224
537.63
541.224
544.834
548.613
552.429
556.4
560.436
564.618
568.884
573.295
577.805
582.46
587.228
592.142
597.178
602.361
607.714
613.241
618.951
624.859
630.975
637.311
643.835
650.577
657.516
664.716
672.152
679.856
687.821
696.064
704.582
713.382
722.48
731.879
741.595
751.65
762.056
772.826
783.972
795.507
807.444
819.791
832.558
845.747
859.362
873.396
887.875
902.815
918.234
933.888
949.872
966.051
982.436
998.942
1015.55
1032.2
1048.88
1065.57
1082.25
1098.94
1115.66
1132.42
1149.25
1166.17
1183.23
1200.37
1217.47
1234.44
1250.89
1266.46
1280.31
1290.79
1295.72
1296.88
1285.37
1258.63
1208.22
1128.16
1016.05
873.201
715.246
565.141
446.276
450.887
452.929
456.995
459.595
463.643
466.646
470.709
474.046
478.172
481.804
486.034
489.941
494.31
498.482
503.02
507.454
512.187
516.884
521.832
526.79
531.965
537.186
542.601
548.089
553.757
559.522
565.46
571.513
577.738
584.092
590.619
597.29
604.137
611.125
618.284
625.589
633.059
640.673
648.449
656.406
664.543
672.872
681.33
689.952
698.704
707.595
716.609
725.742
734.982
744.326
753.759
763.28
772.88
782.555
792.295
802.09
811.929
821.803
831.697
841.599
851.492
861.359
871.175
880.953
890.684
900.344
909.913
919.376
928.7
937.878
946.854
955.583
964.043
972.137
979.83
986.995
993.56
999.374
1004.32
1008.24
1010.62
1011.65
1011.8
1009.1
1004.78
997.455
987.53
973.898
956.628
934.836
908.069
874.526
833.139
782.24
720.08
648.359
571.776
503.337
461.455
442.697
448.409
450.891
455.848
458.973
463.878
467.458
472.342
476.285
481.191
485.438
490.405
494.919
499.975
504.729
509.896
514.869
520.163
525.338
530.767
536.132
541.697
547.242
552.948
558.658
564.502
570.363
576.338
582.34
588.438
594.567
600.774
607.01
613.309
619.628
625.996
632.376
638.788
645.201
651.631
658.048
664.459
670.838
677.204
683.529
689.821
696.059
702.249
708.373
714.434
720.424
726.337
732.159
737.879
743.484
748.964
754.308
759.506
764.533
769.353
773.951
778.284
782.337
786.063
789.441
792.422
794.981
797.066
798.647
799.51
799.862
799.882
798.704
797.074
794.287
790.793
786.121
780.535
773.729
765.84
756.745
746.56
735.166
722.646
708.917
694.124
678.291
661.652
644.174
625.924
606.661
586.387
564.82
541.403
515.242
487.393
458.379
432.765
416.864
409.298
441.689
447.237
449.621
454.39
457.34
462.018
465.34
469.926
473.515
478.033
481.821
486.295
490.235
494.683
498.739
503.172
507.313
511.735
515.94
520.351
524.601
529.001
533.282
537.671
541.967
546.338
550.628
554.965
559.226
563.505
567.735
571.981
576.161
580.331
584.419
588.472
592.424
596.315
600.093
603.779
607.326
610.763
614.036
617.175
620.127
622.919
625.502
627.894
630.055
631.994
633.674
635.099
636.238
637.088
637.54
637.726
637.74
637.251
636.561
635.383
633.91
631.946
629.622
626.796
623.561
619.815
615.629
610.924
605.757
600.062
593.913
587.236
580.106
572.537
564.542
556.193
547.493
538.544
529.351
520.043
510.644
501.29
492.008
482.891
473.947
465.32
456.978
448.991
441.175
433.484
425.895
418.482
411.181
403.631
395.649
388.165
381.963
379.098
378.351
378.067
421.688
426.002
427.832
431.498
433.688
437.265
439.666
443.127
445.655
448.998
451.598
454.826
457.46
460.574
463.206
466.207
468.81
471.688
474.238
476.982
479.456
482.05
484.413
486.847
489.069
491.309
493.32
495.317
497.082
498.801
500.339
501.831
503.107
504.293
505.236
506.055
506.609
506.941
507.071
507.082
506.684
506.175
505.296
504.26
502.872
501.296
499.382
497.258
494.809
492.138
489.156
485.948
482.448
478.727
474.767
470.618
466.233
461.643
456.878
451.942
446.885
441.704
436.458
431.138
425.8
420.444
415.156
409.915
404.811
399.814
395.022
390.391
385.993
381.823
377.942
374.332
371.018
367.984
365.232
362.796
360.65
358.821
357.236
355.926
354.83
353.972
353.271
352.721
352.242
351.844
351.495
351.246
351.134
351.121
351.877
353.593
355.894
360.308
362.704
363.066
381.897
384.705
385.85
388.111
389.319
391.448
392.631
394.577
395.677
397.41
398.388
399.887
400.708
401.956
402.59
403.54
404.001
404.605
404.882
405.083
405.138
405.09
404.743
404.366
403.655
402.91
401.808
400.67
399.173
397.641
395.715
393.714
391.337
388.885
386.081
383.206
380.014
376.77
373.253
369.694
365.897
362.092
358.089
354.111
349.985
345.916
341.757
337.694
333.598
329.635
325.7
321.936
318.246
314.784
311.432
308.332
305.423
302.791
300.384
298.276
296.413
294.866
293.576
292.608
291.904
291.556
291.419
291.421
291.934
292.491
293.488
294.56
296.01
297.559
299.431
301.407
303.653
306.001
308.573
311.235
314.073
316.986
320.033
323.134
326.317
329.511
332.729
335.924
339.094
342.222
345.315
348.391
351.513
354.756
358.25
362.475
367.474
373.322
376.715
377.693
322.025
322.529
322.654
322.73
322.679
322.518
322.103
321.705
320.929
320.248
319.116
318.127
316.644
315.334
313.511
311.875
309.731
307.771
305.332
303.059
300.362
297.802
294.868
292.073
288.947
285.981
282.761
279.704
276.448
273.361
270.132
267.079
263.95
261.018
258.074
255.335
252.637
250.146
247.748
245.566
243.516
241.694
240.035
238.612
237.376
236.383
235.591
235.049
234.779
234.677
234.726
235.176
235.703
236.578
237.538
238.824
240.204
241.885
243.665
245.725
247.889
250.313
252.848
255.626
258.525
261.654
264.905
268.377
271.985
275.801
279.768
283.936
288.266
292.796
297.501
302.41
307.513
312.833
318.355
324.1
330.056
336.238
342.631
349.24
356.06
363.085
370.294
377.653
385.128
392.681
400.272
407.868
415.438
422.989
430.55
438.33
446.757
456.664
466.435
471.633
239.793
237.335
236.282
234.129
232.862
230.653
229.212
226.967
225.394
223.137
221.476
219.236
217.53
215.34
213.634
211.527
209.864
207.875
206.299
204.464
203.015
201.365
200.081
198.651
197.564
196.381
195.52
194.602
193.988
193.353
193.003
192.716
192.598
192.564
192.7
192.971
193.378
193.919
194.595
195.4
196.338
197.399
198.59
199.902
201.338
202.893
204.568
206.36
208.267
210.287
212.422
214.675
217.034
219.514
222.093
224.798
227.599
230.532
233.561
236.728
239.993
243.404
246.918
250.583
254.36
258.297
262.355
266.583
270.946
275.489
280.187
285.08
290.145
295.424
300.898
306.606
312.532
318.71
325.142
331.856
338.859
346.179
353.827
361.833
370.215
379.003
388.226
397.937
408.167
419.002
430.479
442.701
455.737
469.715
484.738
500.921
518.191
535.848
550.397
556.937
256.101
254.235
253.412
251.7
250.613
248.793
247.465
245.521
243.986
241.921
240.201
238.045
236.177
233.962
231.99
229.748
227.72
225.49
223.456
221.28
219.292
217.213
215.324
213.387
211.645
209.895
208.347
206.822
205.511
204.247
203.206
202.232
201.486
200.821
200.387
200.086
199.957
199.925
200.119
200.448
200.963
201.598
202.414
203.347
204.453
205.674
207.059
208.557
210.21
211.976
213.886
215.91
218.071
220.343
222.748
225.273
227.916
230.685
233.564
236.577
239.699
242.961
246.333
249.851
253.485
257.273
261.184
265.258
269.465
273.842
278.358
283.054
287.908
292.956
298.179
303.61
309.234
315.084
321.148
327.457
334.004
340.819
347.901
355.281
362.963
370.98
379.344
388.096
397.25
406.843
416.937
427.622
438.951
451.066
464.089
478.256
493.74
510.385
525.114
531.954
334.946
336.201
336.658
337.455
337.826
338.373
338.611
338.835
338.896
338.902
338.554
338.281
337.566
336.983
335.904
334.984
333.544
332.276
330.479
328.857
326.71
324.739
322.256
319.949
317.158
314.534
311.48
308.565
305.287
302.14
298.69
295.376
291.865
288.5
285.002
281.662
278.252
275.016
271.779
268.727
265.738
262.946
260.266
257.805
255.496
253.426
251.542
249.912
248.493
247.338
246.41
245.751
245.39
245.241
245.226
245.645
246.141
247.01
247.971
249.265
250.658
252.348
254.138
256.193
258.345
260.736
263.217
265.911
268.687
271.663
274.722
277.961
281.274
284.749
288.289
291.974
295.715
299.583
303.499
307.522
311.583
315.731
319.878
324.092
328.303
332.571
336.847
341.19
345.573
350.07
354.621
359.295
364.156
369.29
374.892
381.221
388.743
397.723
406.816
411.789
388.109
391.331
392.656
395.277
396.724
399.222
400.71
403.041
404.53
406.706
408.175
410.187
411.586
413.414
414.701
416.327
417.464
418.866
419.82
420.975
421.713
422.597
423.085
423.639
423.899
424.035
424.063
423.872
423.484
422.933
422.135
421.181
419.934
418.54
416.838
414.994
412.832
410.479
407.806
404.956
401.8
398.502
394.928
391.235
387.309
383.277
379.065
374.781
370.371
365.929
361.423
356.935
352.448
348.03
343.68
339.451
335.366
331.491
327.839
324.414
321.239
318.332
315.697
313.361
311.308
309.57
308.111
306.973
306.09
305.497
305.202
305.09
305.101
305.511
305.929
306.66
307.378
308.338
309.271
310.375
311.429
312.589
313.804
315.115
316.493
317.961
319.492
321.122
322.86
324.753
326.814
329.072
331.493
334.098
337.128
340.738
345.238
350.632
353.642
354.23
422.431
426.914
428.816
432.618
434.905
438.615
441.137
444.734
447.412
450.925
453.734
457.173
460.067
463.436
466.378
469.68
472.64
475.87
478.821
481.974
484.891
487.955
490.815
493.777
496.558
499.396
502.077
504.769
507.315
509.839
512.218
514.548
516.686
518.746
520.604
522.352
523.9
525.396
526.665
527.818
528.722
529.46
529.903
530.111
530.164
529.88
529.332
528.486
527.352
525.907
524.156
522.082
519.688
516.965
513.916
510.534
506.828
502.792
498.458
493.867
489.032
483.949
478.657
473.176
467.556
461.81
456.002
450.142
444.308
438.502
432.818
427.232
421.847
416.657
411.801
407.202
402.903
398.768
394.942
391.309
387.997
384.819
381.77
378.74
375.819
372.96
370.202
367.316
364.281
361.077
358.016
355.028
352.062
348.903
346.355
345.047
344.601
346.839
348.957
349.238
436.907
442.333
444.665
449.327
452.228
456.813
460.097
464.611
468.178
472.651
476.438
480.893
484.855
489.312
493.414
497.882
502.096
506.583
510.888
515.397
519.774
524.303
528.736
533.283
537.759
542.323
546.833
551.406
555.936
560.509
565.044
569.607
574.128
578.662
583.149
587.629
592.057
596.495
600.866
605.214
609.48
613.691
617.802
621.83
625.738
629.525
633.172
636.668
639.997
643.147
646.103
648.851
651.374
653.658
655.684
657.435
658.896
660.031
660.749
661.082
661.17
660.836
660.164
659.086
657.619
655.697
653.349
650.51
647.219
643.416
639.149
634.36
629.088
623.279
616.975
610.184
602.971
595.377
587.399
579.006
570.269
561.255
552.085
542.589
532.49
521.719
510.816
500.278
489.586
476.98
462.923
450.007
437.181
422.216
406.284
392.589
380.05
371.892
368.127
365.591
434.801
440.16
442.489
447.127
450.065
454.663
458.033
462.614
466.324
470.927
474.924
479.591
483.847
488.611
493.105
497.993
502.713
507.735
512.661
517.828
522.95
528.27
533.58
539.057
544.548
550.183
555.851
561.644
567.479
573.427
579.425
585.524
591.676
597.919
604.216
610.594
617.024
623.526
630.073
636.679
643.323
650.013
656.732
663.483
670.252
677.04
683.829
690.616
697.383
704.12
710.833
717.51
724.145
730.732
737.262
743.738
750.143
756.473
762.706
768.838
774.841
780.711
786.431
791.965
797.291
802.372
807.184
811.687
815.854
819.642
823.028
825.959
828.414
830.332
831.451
831.939
832.02
830.908
829.144
826.21
822.272
816.968
810.367
802.262
792.674
781.045
767.219
751.05
732.757
711.9
687.402
659.482
628.597
594.638
556.605
516.456
476.415
439.653
413.593
398.575
437.861
442.068
443.935
447.647
450.02
453.707
456.451
460.155
463.207
466.971
470.294
474.151
477.718
481.697
485.497
489.622
493.649
497.946
502.209
506.701
511.206
515.911
520.663
525.597
530.6
535.773
541.035
546.459
551.99
557.684
563.501
569.485
575.607
581.904
588.355
594.977
601.759
608.718
615.844
623.152
630.631
638.293
646.128
654.14
662.317
670.698
679.273
688.06
697.061
706.297
715.689
725.271
735.008
744.915
754.962
765.159
775.478
785.921
796.468
807.119
817.861
828.694
839.61
850.604
861.664
872.779
883.93
895.099
906.26
917.38
928.546
939.678
950.82
961.92
972.978
983.964
994.83
1005.49
1015.91
1025.93
1035.49
1044.39
1052.42
1059.22
1064.53
1067.43
1068.52
1067.19
1059.98
1048.39
1031.04
1006.53
970.21
922.676
863.055
789.388
701.874
607.272
523.49
462.577
479.719
482.116
483.284
485.706
487.328
489.819
491.725
494.27
496.399
499.012
501.337
504.036
506.544
509.347
512.032
514.956
517.817
520.877
523.918
527.128
530.351
533.723
537.134
540.683
544.29
548.026
551.834
555.769
559.792
563.942
568.19
572.567
577.049
581.66
586.384
591.276
596.308
601.516
606.886
612.447
618.195
624.155
630.33
636.748
643.419
650.331
657.494
664.915
672.597
680.539
688.803
697.381
706.296
715.55
725.152
735.13
745.481
756.234
767.396
778.997
791.049
803.585
816.635
830.21
844.339
859.027
874.3
890.165
906.645
923.763
941.468
959.58
978.215
997.237
1016.65
1036.37
1056.37
1076.59
1097.01
1117.61
1138.39
1159.33
1180.41
1201.63
1223.09
1244.64
1266.18
1287.2
1306.87
1323.97
1333.8
1337.34
1328.75
1295.97
1241.33
1161.49
1053.81
920.258
759.726
592.699
655.486
655.267
655.89
656.498
657.317
658.25
659.16
660.255
661.253
662.45
663.538
664.818
665.999
667.352
668.63
670.055
671.432
672.93
674.406
675.984
677.559
679.225
680.903
682.667
684.459
686.336
688.258
690.268
692.335
694.495
696.725
699.055
701.469
703.999
706.631
709.37
712.216
715.185
718.272
721.495
724.85
728.356
732.01
735.827
739.805
743.956
748.284
752.801
757.515
762.44
767.589
772.97
778.6
784.492
790.668
797.113
803.862
810.923
818.309
826.04
834.118
842.565
851.491
860.861
870.755
881.155
892.137
903.705
915.916
928.762
942.171
956.422
971.458
987.382
1004.25
1022.12
1041.07
1061.19
1082.56
1105.27
1129.44
1155.14
1182.51
1211.67
1242.04
1273.19
1304.21
1333.53
1359.04
1375.63
1382.47
1383.13
1371.87
1353.34
1320.49
1264.39
1177.78
1064.03
934.959
784.9
1557.15
1557.56
1557.13
1556.56
1555.69
1554.96
1553.93
1553.1
1552
1551.1
1549.95
1548.99
1547.81
1546.77
1545.56
1544.45
1543.22
1542.03
1540.77
1539.53
1538.23
1536.94
1535.61
1534.29
1532.94
1531.59
1530.21
1528.84
1527.43
1526.02
1524.58
1523.15
1521.68
1520.21
1518.71
1517.22
1515.69
1514.16
1512.6
1511.03
1509.43
1507.82
1506.17
1504.5
1502.77
1500.99
1499.14
1497.21
1495.19
1493.07
1490.84
1488.49
1486.03
1483.46
1480.78
1477.97
1474.95
1471.72
1468.14
1464.22
1459.77
1454.81
1449.7
1444.23
1438.63
1432.67
1426.47
1419.92
1413.05
1405.72
1397.95
1389.67
1380.87
1371.26
1360.98
1349.74
1337.61
1324.33
1309.92
1294.15
1276.99
1258.23
1237.79
1215.41
1190.87
1163.5
1132.53
1096.14
1051.21
994.402
918.89
824.347
722.854
619.416
540.666
494.833
516.855
668.025
811.857
858.74
777.133
307.086
171.732
115.523
89.6787
71.5836
58.9948
53.7005
50.2691
49.2484
51.3906
61.0683
78.7384
110.031
166.548
249.594
347.86
452.388
561.107
591.939
628.735
309.181
206.434
146.995
112.737
87.7377
74.2308
64.6363
60.2943
59.1015
63.2791
76.8661
98.5899
139.06
201.522
284.173
373.205
467.343
543.377
554.241
505.941
301.631
230.475
167.506
129.736
103.828
86.8221
78.3949
75.0012
74.5957
81.6288
98.5546
127.465
173.909
240.554
317.073
392.648
469.716
514.295
514.326
422.791
288.785
240.167
176.44
146.97
119.045
105.2
96.9477
93.6914
93.1254
105.718
130.388
165.919
220.177
284.144
348.133
409.671
461.894
479.576
474.225
368.821
278.472
242.818
188.037
164.149
137.331
125.351
118.467
116.345
123.999
147.626
176.81
218.626
269.491
320.064
369.007
416.02
439.613
436.305
436.081
333.861
272.51
245.574
200.129
180.974
161.942
155.11
153.232
161.512
180
206.116
236.244
274.587
313.678
351.559
387.616
405.538
406.162
383.451
400.747
319.601
278.385
259.196
230.513
219.727
214.787
214.731
223.98
237.366
256.118
277.903
301.615
328.686
351.972
372.209
381.876
383.16
357.732
322.047
370.488
344.173
328.257
322.274
316.808
315.221
315.155
316.217
322.853
328.915
339.347
347.661
358.405
365.64
369.039
369.855
365.189
341.502
296.713
256.888
348.433
463.683
454.007
449.415
434.572
428.041
418.523
413.864
407.594
403.788
398.832
394.103
388.117
379.419
368.134
355.227
326.667
283.952
230.985
194.262
336.085
543.536
525.225
517.282
497.72
488.362
471.786
462.847
448.029
438.685
424.242
412.513
395.58
377.536
352.612
318.243
272.871
223.59
173.709
147.324
330.738
521.835
505.934
499.394
482.832
474.976
461.961
454.96
444.008
436.922
426.364
417.34
404.753
390.767
370.459
339.577
293.531
241.219
182.078
146.777
328.827
403.612
399.9
398.865
393.608
389.755
388.094
387.626
389.458
391.571
394.337
395.648
396.175
393.68
386.193
378.266
355.143
310.009
249.307
203.063
331.847
317.316
294.353
284.649
274.238
272.572
275.965
282.355
293.54
307.494
324.597
341.496
359.405
375.32
385.076
389.063
389.631
367.833
320.88
272.685
343.733
308.343
266.688
247.042
215.379
202.448
193.639
191.948
200.126
216.119
240.306
267.452
298.07
332.006
362.859
390.274
403.961
408.13
384.03
344.114
368.017
323.568
263.829
237.756
193.871
175.219
154.984
147.066
143.988
147.673
166.677
196.848
230.943
275.497
320.926
364.978
407.886
429.649
432.979
407.941
402.926
355.358
269.147
235.063
183.539
160.799
134.942
123.275
116.353
113.995
117.001
139.74
171.793
216.968
274.245
331.088
385.688
438.873
464.943
463.353
442.571
408.771
277.012
229.733
171.439
144.222
117.384
103.165
95.9539
93.0972
92.803
102.402
126.57
164.265
221.741
292.069
362.533
429.218
486.399
505.302
484.992
501.811
290.884
219.573
160.489
127.668
104.969
87.7432
79.0562
75.4236
74.843
81.4731
96.8843
126.167
175.08
245.465
328.461
409.936
493.637
538.833
529.269
643.471
300.546
198.554
138.427
107.117
87.0578
75.521
66.7349
62.6288
61.3141
64.1243
76.7439
98.2965
139.409
205.044
292.804
387.6
488.583
566.511
573.077
802.949
301.377
164.8
109.405
84.1573
70.203
60.0606
55.549
52.8179
51.9752
54.0731
61.7053
79.1314
110.902
168.354
255.648
359.573
470.646
583.922
613.497
646.061
32.1752
12.7367
11.3229
11.19
11.171
11.1705
11.1708
11.1706
11.1705
11.1705
11.1706
11.1708
11.1705
11.171
11.19
11.3229
12.7367
32.1752
646.061
672.724
55.0602
17.0379
12.0868
11.3039
11.1803
11.1547
11.1529
11.1534
11.1536
11.1536
11.1534
11.1529
11.1547
11.1803
11.3039
12.0868
17.0379
55.06
672.724
698.443
71.0868
21.1527
13.3029
11.5872
11.2261
11.1552
11.1382
11.1358
11.1355
11.1355
11.1358
11.1382
11.1552
11.2261
11.5872
13.3029
21.1527
71.0867
698.443
723.167
85.8685
25.1403
14.6471
12.0434
11.3372
11.1684
11.1265
11.1183
11.1171
11.1171
11.1183
11.1265
11.1684
11.3372
12.0434
14.6471
25.1403
85.8683
723.167
746.761
101.88
29.2093
16.0667
12.5887
11.5235
11.2064
11.1273
11.105
11.1003
11.1003
11.105
11.1273
11.2064
11.5235
12.5887
16.0667
29.2093
101.88
746.761
769.277
118.409
33.3622
17.5392
13.1966
11.7622
11.2829
11.1365
11.0944
11.0843
11.0843
11.0944
11.1365
11.2829
11.7622
13.1966
17.5392
33.3622
118.409
769.277
790.707
134.948
37.5629
19.0496
13.8496
12.0429
11.3871
11.16
11.0918
11.0718
11.0718
11.0918
11.16
11.3871
12.0429
13.8496
19.0496
37.5629
134.948
790.708
811.01
151.27
41.7836
20.586
14.5355
12.3572
11.5178
11.2031
11.0955
11.0625
11.0625
11.0955
11.2031
11.5178
12.3572
14.5355
20.586
41.7836
151.271
811.01
829.975
167.099
45.9744
22.1321
15.243
12.6972
11.671
11.2605
11.1066
11.0594
11.0594
11.1066
11.2605
11.671
12.6972
15.243
22.1321
45.9745
167.099
829.975
847.634
182.389
50.1191
23.6794
15.9647
13.0568
11.8431
11.3325
11.1291
11.0619
11.0619
11.1291
11.3325
11.8431
13.0568
15.9647
23.6795
50.1193
182.39
847.634
863.972
197.076
54.2054
25.2231
16.6961
13.4318
12.0314
11.4179
11.1608
11.0697
11.0697
11.1608
11.4179
12.0314
13.4318
16.6961
25.2232
54.2055
197.076
863.972
879.021
211.158
58.2312
26.7612
17.4343
13.819
12.2334
11.5155
11.2021
11.0862
11.0862
11.2021
11.5155
12.2334
13.819
17.4343
26.7612
58.2314
211.159
879.021
892.676
224.503
62.1686
28.2855
18.1749
14.2151
12.4468
11.6243
11.2528
11.1113
11.1113
11.2528
11.6243
12.4468
14.2151
18.1749
28.2856
62.1687
224.503
892.676
905.024
237.124
66.011
29.7916
18.9145
14.6172
12.6692
11.7427
11.3126
11.1446
11.1446
11.3126
11.7427
12.6692
14.6172
18.9145
29.7916
66.011
237.124
905.024
916.059
248.962
69.7441
31.2751
19.6506
15.0231
12.899
11.8699
11.381
11.1861
11.1861
11.381
11.8699
12.899
15.0231
19.6506
31.2751
69.744
248.961
916.058
925.905
260.087
73.3759
32.7369
20.3825
15.4316
13.135
12.0047
11.4575
11.2356
11.2356
11.4575
12.0047
13.135
15.4316
20.3825
32.7368
73.3758
260.086
925.905
934.518
270.424
76.8912
34.1735
21.1088
15.8417
13.3761
12.1465
11.5417
11.293
11.293
11.5417
12.1465
13.3761
15.8417
21.1087
34.1734
76.891
270.424
934.518
942.038
280.044
80.2909
35.5829
21.8278
16.252
13.6212
12.2944
11.6331
11.3579
11.3579
11.6331
12.2944
13.6212
16.2519
21.8277
35.5828
80.2905
280.043
942.038
948.448
288.883
83.5609
36.9614
22.5378
16.6611
13.8692
12.4476
11.731
11.4299
11.4299
11.731
12.4476
13.8692
16.6611
22.5377
36.9612
83.5606
288.882
948.448
953.926
297.054
86.7116
38.3092
23.2381
17.0684
14.1193
12.6053
11.8348
11.5085
11.5085
11.8348
12.6053
14.1193
17.0684
23.238
38.309
86.7112
297.053
953.926
958.418
304.5
89.7334
39.6249
23.9282
17.4734
14.3711
12.7671
11.9442
11.5934
11.5934
11.9442
12.7671
14.3711
17.4734
23.9282
39.6248
89.7331
304.499
958.418
962.121
311.331
92.6354
40.9089
24.6078
17.8756
14.6241
12.9325
12.0587
11.684
11.684
12.0587
12.9325
14.6241
17.8755
24.6077
40.9087
92.6352
311.332
962.121
964.966
317.502
95.4081
42.1584
25.2756
18.2742
14.8776
13.1009
12.1777
11.78
11.78
12.1777
13.1009
14.8776
18.2742
25.2757
42.1584
95.4081
317.501
964.967
967.181
323.108
98.0614
43.3748
25.9317
18.669
15.1313
13.2719
12.3009
11.8809
11.8809
12.3009
13.2719
15.1313
18.669
25.9317
43.3746
98.0613
323.109
967.181
968.649
328.142
100.59
44.5556
26.575
19.0593
15.3846
13.445
12.4277
11.9862
11.9862
12.4277
13.445
15.3846
19.0593
26.575
44.5556
100.59
328.142
968.649
969.635
332.658
103.003
45.7033
27.2059
19.445
15.6373
13.6199
12.5579
12.0955
12.0955
12.5579
13.62
15.6373
19.4451
27.2059
45.7034
103.003
332.659
969.636
969.971
336.695
105.299
46.8163
27.824
19.826
15.8892
13.7964
12.691
12.2085
12.2085
12.691
13.7964
15.8892
19.826
27.824
46.8163
105.299
336.696
969.971
969.835
340.249
107.487
47.8966
28.4293
20.202
16.1399
13.974
12.8267
12.3248
12.3248
12.8267
13.974
16.1399
20.202
28.4294
47.8967
107.487
340.249
969.835
969.426
343.396
109.561
48.9418
29.0212
20.5726
16.3892
14.1525
12.9646
12.4441
12.4441
12.9646
14.1525
16.3893
20.5726
29.0213
48.9419
109.561
343.397
969.426
968.581
346.146
111.536
49.9556
29.6003
20.9377
16.6369
14.3316
13.1045
12.5659
12.5659
13.1045
14.3316
16.6369
20.9377
29.6003
49.9556
111.536
346.147
968.581
967.381
348.528
113.405
50.935
30.1657
21.2971
16.8827
14.511
13.246
12.69
12.69
13.246
14.511
16.8827
21.2971
30.1656
50.9349
113.405
348.526
967.381
965.893
350.551
115.185
51.8858
30.719
21.6512
17.1266
14.6906
13.389
12.8161
12.8161
13.389
14.6906
17.1266
21.6512
30.719
51.8858
115.185
350.551
965.894
964.158
352.263
116.864
52.803
31.2587
21.9995
17.3684
14.8702
13.5331
12.944
12.944
13.5331
14.8702
17.3684
21.9994
31.2586
52.8028
116.863
352.262
964.159
962.208
353.665
118.461
53.6924
31.7861
22.342
17.6079
15.0495
13.6782
13.0733
13.0733
13.6782
15.0495
17.6079
22.342
31.7861
53.6923
118.461
353.665
962.209
960.078
354.761
119.964
54.5506
32.3004
22.6786
17.845
15.2283
13.8239
13.2039
13.2039
13.8239
15.2283
17.845
22.6785
32.3004
54.5504
119.964
354.76
960.078
957.793
355.615
121.392
55.3822
32.8026
23.0093
18.0796
15.4065
13.9701
13.3355
13.3355
13.9701
15.4065
18.0796
23.0093
32.8026
55.3823
121.393
355.616
957.793
955.387
356.172
122.733
56.1847
33.2923
23.3343
18.3116
15.5841
14.1167
13.4679
13.4679
14.1167
15.5841
18.3116
23.3342
33.2922
56.1845
122.733
356.171
955.388
952.877
356.558
124.01
56.9647
33.7712
23.6538
18.5411
15.7608
14.2635
13.601
13.601
14.2635
15.7608
18.5411
23.6538
33.7711
56.9646
124.01
356.559
952.877
950.294
356.613
125.201
57.7156
34.2375
23.9673
18.7679
15.9366
14.4102
13.7345
13.7345
14.4102
15.9366
18.7679
23.9673
34.2375
57.7157
125.201
356.613
950.295
947.644
356.522
126.331
58.4441
34.6925
24.275
18.9918
16.1112
14.5568
13.8683
13.8683
14.5568
16.1112
18.9918
24.2749
34.6924
58.4439
126.331
356.522
947.644
944.969
356.292
127.386
59.1478
35.1364
24.577
19.2129
16.2845
14.7031
14.0023
14.0023
14.7031
16.2845
19.2128
24.577
35.1363
59.1477
127.386
356.292
944.969
942.255
355.824
128.392
59.8325
35.5703
24.8737
19.4312
16.4567
14.8491
14.1362
14.1362
14.849
16.4567
19.4312
24.8737
35.5702
59.8323
128.391
355.822
942.256
939.556
355.227
129.325
60.4938
35.9935
25.165
19.6467
16.6275
14.9945
14.2701
14.2701
14.9945
16.6275
19.6467
25.1649
35.9934
60.4935
129.324
355.231
939.556
936.838
354.509
130.23
61.1386
36.4069
25.4507
19.8593
16.7969
15.1393
14.4037
14.4037
15.1393
16.7969
19.8592
25.4506
36.4067
61.138
130.228
354.506
936.839
934.167
353.71
131.079
61.7643
36.8102
25.731
20.0689
16.9648
15.2835
14.537
14.537
15.2834
16.9647
20.0688
25.7309
36.81
61.7638
131.078
353.708
934.169
931.492
352.87
131.952
62.3823
37.2052
26.0063
20.2757
17.1311
15.4268
14.6698
14.6698
15.4267
17.131
20.2756
26.0061
37.2048
62.3813
131.95
352.873
931.493
928.896
351.988
132.837
62.9964
37.5922
26.2767
20.4796
17.2958
15.5692
14.8021
14.8021
15.5692
17.2957
20.4794
26.2764
37.5915
62.995
132.834
351.982
928.898
926.377
351.129
133.765
63.6103
37.9713
26.542
20.6805
17.4588
15.7106
14.9337
14.9337
15.7106
17.4587
20.6803
26.5416
37.9707
63.6092
133.763
351.128
926.379
923.93
350.353
134.775
64.2322
38.3445
26.8024
20.8784
17.62
15.851
15.0645
15.0645
15.8509
17.6199
20.8782
26.802
38.3438
64.2305
134.771
350.349
923.933
921.555
349.688
135.878
64.8654
38.7129
27.0585
21.0735
17.7794
15.9903
15.1946
15.1945
15.9902
17.7793
21.0732
27.058
38.7117
64.8626
135.872
349.683
921.559
919.251
349.15
137.072
65.5089
39.0766
27.3102
21.2657
17.9371
16.1284
15.3238
15.3238
16.1283
17.9369
21.2654
27.3095
39.0752
65.506
137.067
349.148
919.257
917.02
348.802
138.367
66.1665
39.4369
27.5579
21.4551
18.093
16.2654
15.4522
15.4521
16.2653
18.0928
21.4547
27.5572
39.4356
66.164
138.363
348.794
917.027
914.858
348.56
139.749
66.8397
39.7953
27.8019
21.6417
18.247
16.401
15.5794
15.5794
16.4008
18.2467
21.6412
27.801
39.7936
66.8362
139.742
348.55
914.866
912.767
348.578
141.199
67.5228
40.1507
28.0419
21.8252
18.3988
16.5351
15.7055
15.7054
16.5349
18.3984
21.8245
28.0406
40.1482
67.517
141.186
348.567
912.777
910.749
348.679
142.692
68.2095
40.5016
28.2772
22.0053
18.5483
16.6675
15.8301
15.83
16.6672
18.5478
22.0046
28.2757
40.4987
68.203
142.678
348.666
910.761
908.809
348.901
144.231
68.9038
40.8494
28.5084
22.1823
18.6955
16.7983
15.9534
15.9534
16.798
18.6951
22.1815
28.5069
40.8465
68.8976
144.219
348.884
908.825
906.948
349.262
145.818
69.6094
41.1962
28.7365
22.3566
18.8408
16.9276
16.0756
16.0755
16.9273
18.8403
22.3556
28.7347
41.1925
69.6014
145.801
349.238
906.966
905.166
349.719
147.417
70.3169
41.5402
28.9611
22.5282
18.9842
17.0556
16.1966
16.1965
17.0552
18.9835
22.5269
28.9588
41.5353
70.3059
147.394
349.691
905.187
903.465
350.241
149.003
71.0167
41.878
29.181
22.6963
19.1252
17.1818
16.3162
16.316
17.1814
19.1244
22.6949
29.1783
41.8728
71.0051
148.979
350.213
903.491
901.849
350.823
150.587
71.7108
42.2092
29.3952
22.8604
19.2632
17.3058
16.4338
16.4337
17.3053
19.2624
22.8589
29.3924
42.2036
71.6981
150.559
350.783
901.88
900.316
351.439
152.161
72.3986
42.5335
29.6034
23.0197
19.3977
17.4269
16.549
16.5489
17.4264
19.3968
23.0181
29.6003
42.5272
72.3843
152.13
351.4
900.35
898.862
352.105
153.713
73.076
42.8499
29.8052
23.1742
19.5285
17.5451
16.6616
16.6615
17.5446
19.5275
23.1723
29.8014
42.842
73.0568
153.667
352.049
898.902
897.485
352.766
155.195
73.7268
43.1541
29.9995
23.3238
19.6559
17.6608
16.7721
16.7719
17.6603
19.6548
23.3218
29.9956
43.1458
73.7076
155.154
352.716
897.531
896.182
353.46
156.637
74.3518
43.4449
30.1863
23.4688
19.7803
17.7744
16.8809
16.8808
17.7739
19.7793
23.4669
30.1826
43.4371
74.3333
156.593
353.387
896.236
894.953
354.128
158.051
74.9566
43.7232
30.3656
23.6091
19.9018
17.886
16.9882
16.988
17.8856
19.901
23.6076
30.3625
43.7167