/*--------------------------------*- C++ -*----------------------------------*\
| =========                 |                                                 |
| \\      /  F ield         | OpenFOAM: The Open Source CFD Toolbox           |
|  \\    /   O peration     | Version:  2.1.0                                 |
|   \\  /    A nd           | Web:      www.OpenFOAM.org                      |
|    \\/     M anipulation  |                                                 |
\*---------------------------------------------------------------------------*/
FoamFile
{
    version     2.0;
    format      ascii;
    class       volScalarField;
    location    "0.19";
    object      p;
}
// * * * * * * * * * * * * * * * * * * * * * * * * * * * * * * * * * * * * * //

dimensions      [1 -1 -2 0 0 0 0];

internalField   nonuniform List<scalar> 
6400
(
99998.2
99995.7
99993.9
99992.4
99991
99989.6
99988.2
99986.9
99985.4
99984
99982.4
99980.8
99979.2
99977.5
99975.7
99973.9
99972
99970
99967.9
99965.8
99963.6
99961.4
99959
99956.6
99954.2
99951.6
99948.9
99946.2
99943.4
99940.5
99937.6
99934.5
99931.3
99928.1
99924.7
99921.3
99917.7
99914.1
99910.3
99906.4
99902.4
99898.3
99894.1
99889.7
99885.2
99880.5
99875.7
99870.7
99865.5
99860.2
99854.7
99849
99843.1
99837.1
99830.8
99824.3
99817.6
99810.7
99803.6
99796.2
99788.5
99780.6
99772.4
99763.8
99755
99745.9
99736.4
99726.5
99716.3
99705.8
99694.8
99683.4
99671.6
99659.4
99646.8
99633.8
99620.3
99606.4
99592
99577.2
99561.9
99545.9
99529.4
99512.1
99493.8
99474.3
99453.4
99430.6
99405.6
99377.8
99347.2
99314.6
99282
99251
99221.9
99188.2
99135.7
99027.5
98674.4
97133.2
99996.6
99995.1
99993.5
99992
99990.6
99989.3
99987.9
99986.5
99985.1
99983.6
99982.1
99980.5
99978.8
99977.1
99975.3
99973.5
99971.6
99969.6
99967.6
99965.4
99963.2
99961
99958.6
99956.2
99953.7
99951.2
99948.5
99945.8
99943
99940.1
99937.1
99934
99930.9
99927.6
99924.3
99920.8
99917.3
99913.6
99909.8
99906
99902
99897.8
99893.6
99889.2
99884.7
99880
99875.2
99870.2
99865
99859.7
99854.2
99848.6
99842.7
99836.7
99830.4
99824
99817.3
99810.4
99803.3
99795.9
99788.2
99780.3
99772.2
99763.7
99754.9
99745.8
99736.3
99726.5
99716.4
99705.8
99694.9
99683.6
99671.9
99659.7
99647.2
99634.2
99620.7
99606.9
99592.5
99577.7
99562.4
99546.5
99530
99512.6
99494.4
99475
99454.1
99431.4
99406.4
99378.9
99348.6
99316.3
99283.5
99252.6
99225.2
99196
99149.3
99055.9
98770.9
98243.9
99995.2
99994.3
99993
99991.7
99990.4
99989.1
99987.7
99986.3
99984.9
99983.4
99981.9
99980.3
99978.7
99977
99975.2
99973.3
99971.4
99969.5
99967.4
99965.3
99963.1
99960.8
99958.5
99956.1
99953.6
99951
99948.4
99945.6
99942.8
99940
99937
99933.9
99930.8
99927.5
99924.2
99920.7
99917.2
99913.5
99909.8
99905.9
99901.9
99897.8
99893.6
99889.2
99884.7
99880.1
99875.3
99870.3
99865.2
99859.9
99854.5
99848.9
99843.1
99837.1
99830.8
99824.4
99817.8
99810.9
99803.8
99796.5
99788.9
99781.1
99772.9
99764.5
99755.8
99746.7
99737.4
99727.7
99717.6
99707.2
99696.3
99685.1
99673.5
99661.5
99649.1
99636.2
99622.9
99609.2
99595
99580.3
99565
99549.2
99532.7
99515.4
99497.2
99477.7
99456.9
99434.2
99409.5
99382.3
99353
99322.2
99291.8
99263.7
99239.7
99214.7
99183.1
99127.2
98982
99077.9
99993.5
99993.5
99992.7
99991.5
99990.3
99989.1
99987.8
99986.4
99985
99983.6
99982
99980.5
99978.8
99977.1
99975.3
99973.5
99971.6
99969.6
99967.6
99965.5
99963.3
99961.1
99958.8
99956.4
99953.9
99951.3
99948.7
99946
99943.2
99940.3
99937.4
99934.3
99931.2
99928
99924.6
99921.2
99917.7
99914.1
99910.3
99906.5
99902.5
99898.4
99894.2
99889.9
99885.4
99880.8
99876.1
99871.2
99866.1
99860.9
99855.5
99849.9
99844.1
99838.2
99832
99825.6
99819.1
99812.3
99805.2
99798
99790.4
99782.6
99774.6
99766.2
99757.5
99748.6
99739.2
99729.6
99719.6
99709.2
99698.4
99687.3
99675.7
99663.7
99651.2
99638.4
99625
99611.2
99596.9
99582
99566.6
99550.6
99533.8
99516.3
99497.7
99478
99457
99434.3
99409.7
99383.3
99355.3
99327
99300.7
99277.9
99261.6
99250.3
99247.9
99256.6
99288.6
99704.2
99991.5
99992.6
99992.3
99991.5
99990.4
99989.3
99988
99986.7
99985.4
99983.9
99982.4
99980.9
99979.2
99977.5
99975.8
99974
99972.1
99970.1
99968.1
99966
99963.9
99961.7
99959.4
99957
99954.6
99952
99949.4
99946.7
99944
99941.1
99938.2
99935.1
99932
99928.8
99925.5
99922.1
99918.6
99915
99911.3
99907.5
99903.5
99899.5
99895.3
99891
99886.5
99881.9
99877.2
99872.3
99867.3
99862.1
99856.7
99851.1
99845.3
99839.4
99833.3
99826.9
99820.3
99813.5
99806.5
99799.3
99791.7
99783.9
99775.9
99767.5
99758.8
99749.8
99740.5
99730.8
99720.8
99710.4
99699.6
99688.3
99676.7
99664.6
99652.1
99639.2
99625.7
99611.8
99597.3
99582.3
99566.7
99550.4
99533.3
99515.5
99496.6
99476.7
99455.4
99432.7
99408.5
99383
99356.9
99331.8
99310.9
99295.3
99288.9
99300.7
99339.8
99433
99631.2
100197
99989.6
99991.7
99992
99991.5
99990.7
99989.7
99988.5
99987.2
99985.9
99984.5
99983
99981.5
99979.8
99978.2
99976.4
99974.6
99972.8
99970.8
99968.8
99966.7
99964.6
99962.4
99960.1
99957.7
99955.3
99952.8
99950.2
99947.5
99944.8
99941.9
99939
99936
99932.9
99929.7
99926.4
99923
99919.5
99915.9
99912.1
99908.3
99904.4
99900.3
99896.1
99891.8
99887.3
99882.7
99877.9
99873
99868
99862.7
99857.3
99851.8
99846
99840
99833.8
99827.5
99820.9
99814.1
99807
99799.8
99792.2
99784.4
99776.4
99768
99759.3
99750.3
99741
99731.3
99721.2
99710.8
99700
99688.8
99677.1
99665
99652.5
99639.4
99625.9
99611.8
99597.2
99582
99566.1
99549.5
99532.1
99513.9
99494.7
99474.3
99452.8
99430.1
99406.3
99381.8
99357.8
99336.2
99321
99313.7
99320.9
99359.6
99446.8
99629.2
99959
100581
99988
99991
99991.7
99991.5
99990.9
99990
99988.9
99987.7
99986.4
99985
99983.6
99982
99980.4
99978.7
99977
99975.2
99973.3
99971.4
99969.4
99967.3
99965.1
99962.9
99960.6
99958.3
99955.8
99953.3
99950.7
99948
99945.2
99942.4
99939.4
99936.4
99933.3
99930.1
99926.8
99923.4
99919.8
99916.2
99912.5
99908.6
99904.7
99900.6
99896.4
99892
99887.6
99882.9
99878.2
99873.2
99868.2
99862.9
99857.5
99851.9
99846.1
99840.2
99834
99827.6
99821
99814.2
99807.2
99799.9
99792.4
99784.6
99776.5
99768.1
99759.5
99750.5
99741.1
99731.5
99721.4
99711.1
99700.3
99689
99677.3
99665.2
99652.6
99639.5
99625.8
99611.6
99596.8
99581.3
99565.2
99548.2
99530.5
99511.9
99492.2
99471.5
99449.7
99427
99403.5
99380
99357.9
99339.6
99329.5
99330.9
99353
99418.3
99553.3
99816.6
100239
100871
99986.7
99990.2
99991.4
99991.5
99991
99990.2
99989.2
99988
99986.7
99985.3
99983.8
99982.3
99980.7
99979
99977.2
99975.4
99973.5
99971.6
99969.6
99967.5
99965.3
99963.1
99960.8
99958.4
99956
99953.5
99950.8
99948.1
99945.4
99942.5
99939.5
99936.5
99933.4
99930.1
99926.8
99923.4
99919.8
99916.2
99912.4
99908.6
99904.6
99900.5
99896.3
99891.9
99887.4
99882.8
99878
99873.1
99868
99862.7
99857.3
99851.7
99845.9
99840
99833.8
99827.5
99820.9
99814.1
99807.1
99799.8
99792.3
99784.6
99776.5
99768.1
99759.5
99750.5
99741.2
99731.6
99721.6
99711.2
99700.5
99689.2
99677.5
99665.4
99652.7
99639.5
99625.8
99611.4
99596.4
99580.8
99564.4
99547.1
99528.9
99509.9
99489.8
99468.7
99446.6
99423.7
99400.4
99377.7
99357.2
99341.6
99335.6
99344.9
99381.1
99468.8
99644.5
99971.8
100454
101075
99986
99989.7
99991.1
99991.3
99991
99990.2
99989.2
99988
99986.7
99985.3
99983.8
99982.3
99980.7
99979
99977.2
99975.4
99973.5
99971.5
99969.5
99967.4
99965.2
99963
99960.6
99958.3
99955.8
99953.3
99950.6
99947.9
99945.1
99942.2
99939.2
99936.2
99933
99929.8
99926.4
99923
99919.4
99915.8
99912
99908.1
99904.1
99900
99895.8
99891.4
99887
99882.3
99877.6
99872.6
99867.6
99862.3
99856.9
99851.4
99845.6
99839.7
99833.5
99827.2
99820.7
99813.9
99806.9
99799.7
99792.2
99784.5
99776.6
99768.2
99759.6
99750.7
99741.4
99731.8
99721.8
99711.4
99700.6
99689.5
99677.9
99665.8
99653.1
99639.9
99626
99611.6
99596.4
99580.5
99563.8
99546.2
99527.7
99508.1
99487.5
99465.9
99443.5
99420.4
99397.2
99375
99355.6
99341.9
99338.7
99353.5
99400.1
99504
99708.6
100079
100594
101202
99985.8
99989.5
99990.9
99991.2
99990.8
99990.1
99989.1
99987.9
99986.6
99985.2
99983.7
99982.1
99980.4
99978.7
99976.9
99975
99973.1
99971.1
99969
99966.9
99964.7
99962.4
99960.1
99957.7
99955.2
99952.6
99950
99947.3
99944.5
99941.6
99938.6
99935.6
99932.4
99929.2
99925.9
99922.4
99918.9
99915.3
99911.6
99907.7
99903.7
99899.7
99895.4
99891.1
99886.6
99882
99877.3
99872.4
99867.3
99862.1
99856.7
99851.2
99845.5
99839.5
99833.4
99827.1
99820.6
99813.9
99806.9
99799.7
99792.3
99784.5
99776.5
99768.3
99759.8
99751
99741.8
99732.2
99722.3
99711.9
99701.2
99690.1
99678.4
99666.3
99653.6
99640.3
99626.4
99611.8
99596.5
99580.3
99563.3
99545.4
99526.5
99506.5
99485.4
99463.3
99440.4
99416.9
99393.6
99371.6
99352.7
99339.9
99338.2
99355.7
99407.5
99519.7
99738.1
100129
100659
101260
99985.9
99989.6
99990.9
99991.2
99990.9
99990.1
99989.1
99987.9
99986.6
99985.2
99983.7
99982.1
99980.4
99978.7
99976.9
99975.1
99973.1
99971.1
99969.1
99967
99964.8
99962.5
99960.1
99957.7
99955.2
99952.7
99950
99947.3
99944.5
99941.6
99938.7
99935.6
99932.5
99929.2
99925.9
99922.5
99918.9
99915.3
99911.6
99907.7
99903.8
99899.7
99895.5
99891.1
99886.7
99882.1
99877.3
99872.4
99867.4
99862.2
99856.8
99851.2
99845.5
99839.6
99833.5
99827.3
99820.8
99814.1
99807.1
99799.9
99792.5
99784.8
99776.9
99768.7
99760.2
99751.4
99742.2
99732.7
99722.8
99712.5
99701.8
99690.7
99679.1
99667
99654.2
99640.9
99626.9
99612.1
99596.6
99580.3
99563
99544.7
99525.3
99504.9
99483.3
99460.7
99437.2
99413.3
99389.6
99367.3
99348.3
99335.5
99333.8
99351.3
99402.7
99514.2
99731
100120
100647
101247
99986.3
99990
99991.2
99991.4
99991
99990.2
99989.2
99988
99986.7
99985.3
99983.8
99982.2
99980.6
99978.9
99977.1
99975.3
99973.4
99971.4
99969.3
99967.2
99965
99962.8
99960.5
99958.1
99955.6
99953.1
99950.4
99947.7
99944.9
99942
99939.1
99936
99932.9
99929.6
99926.3
99922.9
99919.3
99915.7
99911.9
99908.1
99904.1
99900
99895.8
99891.4
99886.9
99882.3
99877.6
99872.7
99867.6
99862.4
99857
99851.5
99845.8
99839.9
99833.8
99827.5
99821
99814.3
99807.4
99800.3
99792.9
99785.2
99777.3
99769.1
99760.7
99751.9
99742.8
99733.3
99723.5
99713.2
99702.5
99691.4
99679.8
99667.7
99654.9
99641.5
99627.4
99612.6
99596.9
99580.3
99562.7
99544.1
99524.4
99503.4
99481.3
99458.1
99434
99409.5
99385.3
99362.4
99342.6
99328.9
99325.7
99340.3
99386.3
99488
99687.6
100051
100561
101168
99987.2
99990.6
99991.6
99991.6
99991.1
99990.2
99989.1
99987.9
99986.6
99985.2
99983.7
99982.1
99980.5
99978.8
99977
99975.2
99973.3
99971.4
99969.3
99967.2
99965.1
99962.8
99960.5
99958.1
99955.7
99953.1
99950.5
99947.8
99945
99942.2
99939.2
99936.2
99933.1
99929.8
99926.5
99923.1
99919.6
99915.9
99912.2
99908.4
99904.4
99900.3
99896.1
99891.8
99887.3
99882.7
99877.9
99873
99868
99862.8
99857.4
99851.9
99846.2
99840.3
99834.2
99827.9
99821.5
99814.8
99807.9
99800.7
99793.4
99785.7
99777.8
99769.7
99761.2
99752.5
99743.4
99734
99724.2
99714
99703.3
99692.2
99680.6
99668.5
99655.7
99642.3
99628.1
99613.1
99597.3
99580.5
99562.7
99543.7
99523.6
99502.2
99479.6
99455.8
99431
99405.7
99380.7
99357
99336.1
99320.6
99314.4
99323.8
99360
99443.6
99611.5
99928.3
100402
101022
99988.7
99991.4
99992
99991.7
99991
99990
99988.9
99987.7
99986.3
99984.9
99983.4
99981.8
99980.2
99978.5
99976.7
99974.9
99973
99971.1
99969
99967
99964.8
99962.6
99960.3
99957.9
99955.4
99952.9
99950.3
99947.6
99944.8
99942
99939
99936
99932.9
99929.6
99926.3
99922.9
99919.4
99915.8
99912.1
99908.3
99904.3
99900.3
99896.1
99891.7
99887.3
99882.7
99878
99873.1
99868.1
99862.9
99857.5
99852
99846.3
99840.5
99834.4
99828.2
99821.8
99815.1
99808.2
99801.1
99793.8
99786.2
99778.3
99770.2
99761.8
99753.1
99744.1
99734.7
99724.9
99714.8
99704.2
99693.1
99681.6
99669.4
99656.6
99643.2
99628.9
99613.9
99597.9
99581
99562.9
99543.7
99523.2
99501.4
99478.3
99453.9
99428.4
99402.3
99376.2
99351.4
99328.9
99311.1
99301.1
99303.5
99326.5
99386
99511.2
99761.2
100172
100800
99990.4
99992.3
99992.3
99991.7
99990.8
99989.7
99988.5
99987.2
99985.8
99984.4
99982.8
99981.3
99979.6
99977.9
99976.2
99974.3
99972.4
99970.5
99968.5
99966.4
99964.2
99962
99959.7
99957.3
99954.9
99952.3
99949.7
99947
99944.3
99941.4
99938.5
99935.5
99932.3
99929.1
99925.8
99922.4
99918.9
99915.3
99911.6
99907.8
99903.9
99899.8
99895.7
99891.4
99886.9
99882.4
99877.7
99872.8
99867.8
99862.6
99857.3
99851.8
99846.2
99840.3
99834.3
99828.1
99821.7
99815.1
99808.2
99801.2
99793.9
99786.3
99778.6
99770.5
99762.1
99753.5
99744.5
99735.2
99725.5
99715.4
99704.8
99693.8
99682.3
99670.2
99657.4
99643.9
99629.7
99614.6
99598.6
99581.5
99563.3
99543.8
99523.1
99500.9
99477.3
99452.4
99426.2
99399.1
99371.9
99345.6
99321.5
99301.1
99286.9
99281.6
99289.9
99322.5
99399.3
99566.8
99880.4
100496
99992.3
99993.2
99992.7
99991.7
99990.6
99989.4
99988.1
99986.7
99985.3
99983.9
99982.3
99980.7
99979.1
99977.4
99975.6
99973.7
99971.8
99969.9
99967.8
99965.7
99963.5
99961.3
99959
99956.6
99954.2
99951.6
99949
99946.3
99943.5
99940.7
99937.7
99934.7
99931.5
99928.3
99925
99921.6
99918.1
99914.5
99910.8
99907
99903
99899
99894.8
99890.5
99886.1
99881.5
99876.8
99872
99867
99861.9
99856.6
99851.1
99845.5
99839.7
99833.7
99827.5
99821.1
99814.6
99807.8
99800.8
99793.5
99786
99778.3
99770.3
99762
99753.4
99744.5
99735.2
99725.6
99715.5
99705
99694.1
99682.6
99670.5
99657.7
99644.3
99630.1
99614.9
99598.8
99581.7
99563.4
99543.7
99522.8
99500.3
99476.4
99451
99424.1
99396.2
99367.8
99339.9
99313.9
99291.2
99273.3
99261
99255.1
99261.6
99290.5
99368.1
99546.8
100099
99994.3
99994.1
99993.1
99991.9
99990.6
99989.2
99987.9
99986.5
99985
99983.5
99982
99980.4
99978.7
99977
99975.2
99973.3
99971.4
99969.4
99967.4
99965.3
99963.1
99960.8
99958.5
99956.1
99953.6
99951
99948.4
99945.7
99942.9
99940
99937
99934
99930.8
99927.6
99924.2
99920.8
99917.3
99913.7
99909.9
99906.1
99902.1
99898
99893.8
99889.5
99885.1
99880.5
99875.8
99870.9
99865.9
99860.8
99855.4
99850
99844.3
99838.5
99832.5
99826.4
99820
99813.4
99806.6
99799.6
99792.4
99784.9
99777.2
99769.2
99761
99752.4
99743.5
99734.3
99724.7
99714.8
99704.3
99693.4
99682
99670
99657.3
99643.9
99629.7
99614.6
99598.5
99581.3
99562.9
99543.2
99522
99499.4
99475.2
99449.3
99421.9
99393.3
99363.8
99334.4
99306.7
99281.8
99261.2
99243.9
99226.2
99211.3
99199.4
99192.9
99203
99595.8
99996
99994.9
99993.5
99992.1
99990.7
99989.3
99987.9
99986.5
99985
99983.5
99981.9
99980.3
99978.6
99976.9
99975.1
99973.2
99971.3
99969.3
99967.3
99965.1
99962.9
99960.6
99958.3
99955.9
99953.4
99950.8
99948.1
99945.4
99942.6
99939.7
99936.7
99933.6
99930.5
99927.2
99923.9
99920.4
99916.9
99913.2
99909.5
99905.6
99901.6
99897.5
99893.3
99889
99884.5
99879.9
99875.1
99870.3
99865.2
99860
99854.7
99849.2
99843.5
99837.6
99831.6
99825.3
99818.9
99812.3
99805.5
99798.4
99791.2
99783.7
99775.9
99767.9
99759.6
99751
99742.1
99732.9
99723.3
99713.3
99702.8
99691.9
99680.4
99668.4
99655.7
99642.3
99628
99612.9
99596.8
99579.5
99561.1
99541.3
99520.1
99497.3
99472.9
99446.9
99419.1
99389.9
99359.7
99329.2
99300.1
99273.6
99250.9
99232
99206.6
99177.2
99136.8
99066.3
98897.9
98956.5
99997.4
99995.7
99994
99992.4
99990.9
99989.5
99988.1
99986.7
99985.2
99983.7
99982.1
99980.5
99978.8
99977.1
99975.3
99973.4
99971.5
99969.5
99967.4
99965.3
99963.1
99960.8
99958.5
99956.1
99953.6
99951
99948.3
99945.6
99942.8
99939.9
99936.9
99933.8
99930.7
99927.4
99924
99920.6
99917
99913.4
99909.6
99905.8
99901.8
99897.7
99893.4
99889.1
99884.6
99880
99875.2
99870.3
99865.2
99860
99854.7
99849.1
99843.4
99837.5
99831.4
99825.2
99818.7
99812.1
99805.2
99798.2
99790.9
99783.3
99775.5
99767.4
99759.1
99750.5
99741.5
99732.2
99722.6
99712.5
99702
99691
99679.5
99667.4
99654.6
99641.1
99626.7
99611.5
99595.2
99577.8
99559.1
99539.1
99517.6
99494.6
99469.9
99443.4
99415.1
99385.3
99354.1
99322.5
99291.8
99263.4
99237.2
99214.4
99194
99160.2
99104.4
98996.4
98687.5
98098.3
99998.8
99996.3
99994.4
99992.8
99991.3
99989.9
99988.5
99987
99985.6
99984.1
99982.5
99980.9
99979.2
99977.5
99975.7
99973.8
99971.9
99969.9
99967.9
99965.7
99963.5
99961.3
99958.9
99956.5
99954
99951.4
99948.8
99946.1
99943.3
99940.4
99937.4
99934.3
99931.1
99927.9
99924.5
99921.1
99917.6
99913.9
99910.1
99906.3
99902.3
99898.2
99894
99889.6
99885.1
99880.5
99875.8
99870.9
99865.8
99860.6
99855.3
99849.7
99844
99838.1
99832.1
99825.8
99819.4
99812.7
99805.9
99798.8
99791.5
99783.9
99776.1
99768
99759.7
99751.1
99742.1
99732.8
99723.2
99713.1
99702.6
99691.6
99680.1
99668
99655.2
99641.6
99627.3
99612
99595.7
99578.2
99559.6
99539.5
99518
99494.9
99470.1
99443.5
99415.2
99385.2
99353.9
99322.2
99291.8
99263.6
99238.2
99212
99181.7
99139.8
99081.5
98964
98589.9
96948.2
100607
101838
102364
102662
102865
103016
103135
103231
103309
103374
103428
103473
103509
103539
103563
103580
103592
103599
103600
103595
100559
101553
102166
102551
102807
102990
103128
103236
103323
103393
103450
103496
103534
103564
103586
103603
103613
103617
103616
103606
100835
101582
102109
102492
102767
102968
103120
103238
103331
103406
103466
103514
103552
103581
103603
103618
103626
103629
103627
103612
101099
101708
102154
102502
102768
102972
103129
103252
103349
103426
103487
103535
103573
103601
103620
103633
103640
103641
103637
103617
101325
101840
102231
102545
102795
102993
103149
103273
103371
103449
103511
103558
103594
103621
103638
103649
103653
103652
103645
103620
101513
101962
102313
102602
102836
103026
103178
103300
103398
103475
103536
103582
103617
103641
103656
103663
103665
103662
103652
103622
101664
102067
102389
102658
102880
103062
103210
103329
103426
103502
103561
103606
103639
103660
103672
103676
103676
103671
103657
103624
101777
102147
102451
102706
102919
103095
103239
103357
103452
103528
103586
103629
103659
103677
103686
103688
103685
103678
103660
103625
101851
102201
102494
102741
102948
103121
103264
103381
103475
103549
103606
103648
103676
103692
103699
103698
103693
103683
103662
103629
101885
102227
102515
102759
102965
103136
103278
103394
103488
103562
103618
103660
103687
103702
103707
103705
103698
103687
103663
103634
101874
102217
102505
102750
102956
103128
103271
103388
103482
103557
103614
103656
103683
103699
103704
103702
103695
103684
103663
103632
101821
102174
102468
102717
102927
103102
103247
103365
103461
103537
103596
103639
103668
103686
103693
103693
103688
103678
103660
103631
101733
102107
102414
102672
102889
103068
103216
103337
103434
103512
103572
103618
103649
103669
103680
103682
103680
103672
103657
103630
101607
102014
102341
102615
102842
103029
103181
103305
103405
103484
103546
103593
103627
103651
103664
103670
103669
103665
103653
103628
101444
101900
102256
102551
102792
102987
103145
103272
103374
103455
103519
103568
103604
103630
103647
103656
103658
103655
103647
103619
101246
101769
102166
102488
102746
102950
103113
103242
103345
103427
103492
103543
103581
103609
103629
103640
103645
103645
103640
103616
101012
101628
102083
102440
102715
102926
103090
103219
103321
103402
103467
103518
103558
103588
103610
103624
103632
103633
103630
103612
100738
101496
102034
102427
102711
102921
103080
103204
103303
103382
103445
103496
103537
103568
103592
103608
103618
103621
103620
103607
100451
101463
102091
102487
102752
102943
103089
103203
103294
103368
103429
103478
103518
103550
103575
103593
103604
103609
103608
103600
100493
101754
102292
102600
102811
102970
103095
103196
103279
103348
103406
103453
103493
103525
103550
103569
103582
103590
103591
103588
103433
103431
103431
103430
103429
103428
103428
103428
103427
103427
103427
103427
103428
103428
103428
103429
103430
103431
103431
103433
103430
103428
103428
103427
103427
103427
103427
103427
103426
103426
103426
103426
103427
103427
103427
103427
103427
103428
103428
103430
103430
103427
103427
103427
103427
103427
103427
103427
103427
103427
103427
103427
103427
103427
103427
103427
103427
103427
103427
103430
103430
103428
103428
103428
103428
103428
103428
103428
103428
103428
103428
103428
103428
103428
103428
103428
103428
103428
103428
103430
103429
103428
103427
103427
103427
103427
103427
103427
103427
103427
103427
103427
103427
103427
103427
103427
103427
103427
103427
103429
103429
103427
103427
103427
103427
103426
103426
103426
103426
103426
103426
103426
103426
103426
103426
103427
103427
103427
103427
103429
103428
103426
103426
103426
103426
103426
103426
103426
103426
103426
103426
103426
103426
103426
103426
103426
103426
103426
103426
103428
103427
103426
103426
103425
103425
103425
103425
103425
103425
103425
103425
103425
103425
103425
103425
103425
103425
103426
103426
103427
103427
103425
103425
103425
103425
103425
103425
103425
103425
103425
103425
103425
103425
103425
103425
103425
103425
103425
103425
103427
103426
103424
103424
103424
103424
103424
103424
103424
103424
103424
103424
103424
103424
103424
103424
103424
103424
103424
103424
103426
103425
103424
103424
103423
103423
103423
103423
103423
103423
103423
103423
103423
103423
103423
103423
103423
103423
103424
103424
103425
103425
103423
103423
103423
103423
103423
103423
103422
103422
103422
103422
103422
103422
103423
103423
103423
103423
103423
103423
103425
103424
103422
103422
103422
103422
103422
103422
103422
103422
103422
103422
103422
103422
103422
103422
103422
103422
103422
103422
103424
103423
103422
103421
103421
103421
103421
103421
103421
103421
103421
103421
103421
103421
103421
103421
103421
103421
103421
103422
103423
103422
103421
103421
103421
103420
103420
103420
103420
103420
103420
103420
103420
103420
103420
103420
103420
103421
103421
103421
103422
103422
103420
103420
103420
103420
103420
103420
103420
103420
103420
103420
103420
103420
103420
103420
103420
103420
103420
103420
103422
103421
103419
103419
103419
103419
103419
103419
103419
103419
103419
103419
103419
103419
103419
103419
103419
103419
103419
103419
103421
103420
103418
103418
103418
103418
103418
103418
103418
103418
103418
103418
103418
103418
103418
103418
103418
103418
103418
103418
103420
103419
103418
103418
103417
103417
103417
103417
103417
103417
103417
103417
103417
103417
103417
103417
103417
103417
103418
103418
103419
103418
103417
103417
103417
103417
103417
103416
103416
103416
103416
103416
103416
103416
103416
103417
103417
103417
103417
103417
103418
103417
103416
103416
103416
103416
103416
103416
103416
103416
103416
103416
103416
103416
103416
103416
103416
103416
103416
103416
103417
103417
103415
103415
103415
103415
103415
103415
103415
103415
103415
103415
103415
103415
103415
103415
103415
103415
103415
103415
103417
103416
103414
103414
103414
103414
103414
103414
103414
103414
103414
103414
103414
103414
103414
103414
103414
103414
103414
103414
103416
103415
103414
103414
103413
103413
103413
103413
103413
103413
103413
103413
103413
103413
103413
103413
103413
103413
103414
103414
103415
103414
103413
103413
103413
103413
103413
103413
103412
103412
103412
103412
103412
103412
103413
103413
103413
103413
103413
103413
103414
103413
103412
103412
103412
103412
103412
103412
103412
103412
103412
103412
103412
103412
103412
103412
103412
103412
103412
103412
103413
103412
103411
103411
103411
103411
103411
103411
103411
103411
103411
103411
103411
103411
103411
103411
103411
103411
103411
103411
103412
103411
103410
103410
103410
103410
103410
103410
103410
103410
103410
103410
103410
103410
103410
103410
103410
103410
103410
103410
103411
103411
103410
103410
103409
103409
103409
103409
103409
103409
103409
103409
103409
103409
103409
103409
103409
103409
103410
103410
103411
103410
103409
103409
103409
103409
103409
103409
103408
103408
103408
103408
103408
103408
103409
103409
103409
103409
103409
103409
103410
103409
103408
103408
103408
103408
103408
103408
103408
103408
103408
103408
103408
103408
103408
103408
103408
103408
103408
103408
103409
103408
103407
103407
103407
103407
103407
103407
103407
103407
103407
103407
103407
103407
103407
103407
103407
103407
103407
103407
103408
103407
103406
103406
103406
103406
103406
103406
103406
103406
103406
103406
103406
103406
103406
103406
103406
103406
103406
103406
103407
103406
103406
103406
103405
103405
103405
103405
103405
103405
103405
103405
103405
103405
103405
103405
103405
103405
103406
103406
103406
103406
103405
103405
103405
103405
103405
103405
103405
103404
103404
103404
103404
103405
103405
103405
103405
103405
103405
103405
103406
103405
103404
103404
103404
103404
103404
103404
103404
103404
103404
103404
103404
103404
103404
103404
103404
103404
103404
103404
103405
103404
103403
103403
103403
103403
103403
103403
103403
103403
103403
103403
103403
103403
103403
103403
103403
103403
103403
103403
103404
103403
103403
103402
103402
103402
103402
103402
103402
103402
103402
103402
103402
103402
103402
103402
103402
103402
103402
103403
103403
103402
103402
103402
103402
103402
103401
103401
103401
103401
103401
103401
103401
103401
103401
103401
103402
103402
103402
103402
103402
103401
103401
103401
103401
103401
103401
103401
103401
103401
103401
103401
103401
103401
103401
103401
103401
103401
103401
103401
103401
103401
103400
103400
103400
103400
103400
103400
103400
103400
103400
103400
103400
103400
103400
103400
103400
103400
103400
103400
103401
103400
103399
103399
103399
103399
103399
103399
103399
103399
103399
103399
103399
103399
103399
103399
103399
103399
103399
103399
103400
103399
103399
103399
103399
103398
103398
103398
103398
103398
103398
103398
103398
103398
103398
103398
103398
103399
103399
103399
103399
103398
103398
103398
103398
103398
103398
103398
103398
103398
103398
103398
103398
103398
103398
103398
103398
103398
103398
103398
103398
103398
103397
103397
103397
103397
103397
103397
103397
103397
103397
103397
103397
103397
103397
103397
103397
103397
103397
103397
103398
103397
103396
103396
103396
103396
103396
103396
103396
103396
103396
103396
103396
103396
103396
103396
103396
103396
103396
103396
103397
103396
103396
103396
103396
103396
103395
103395
103395
103395
103395
103395
103395
103395
103395
103395
103396
103396
103396
103396
103396
103395
103395
103395
103395
103395
103395
103395
103395
103395
103395
103395
103395
103395
103395
103395
103395
103395
103395
103395
103395
103395
103394
103394
103394
103394
103394
103394
103394
103394
103394
103394
103394
103394
103394
103394
103394
103394
103394
103394
103395
103394
103394
103393
103393
103393
103393
103393
103393
103393
103393
103393
103393
103393
103393
103393
103393
103393
103393
103394
103394
103393
103393
103393
103393
103393
103393
103393
103393
103393
103393
103393
103393
103393
103393
103393
103393
103393
103393
103393
103393
103392
103392
103392
103392
103392
103392
103392
103392
103392
103392
103392
103392
103392
103392
103392
103392
103392
103392
103392
103392
103392
103391
103391
103391
103391
103391
103391
103391
103391
103391
103391
103391
103391
103391
103391
103391
103391
103391
103391
103392
103391
103391
103391
103391
103391
103390
103390
103390
103390
103390
103390
103390
103390
103390
103390
103391
103391
103391
103391
103391
103390
103390
103390
103390
103390
103390
103390
103390
103390
103390
103390
103390
103390
103390
103390
103390
103390
103390
103390
103390
103389
103389
103389
103389
103389
103389
103389
103389
103389
103389
103389
103389
103389
103389
103389
103389
103389
103389
103389
103389
103389
103389
103389
103388
103388
103388
103388
103388
103388
103388
103388
103388
103388
103388
103388
103388
103388
103389
103389
103389
103388
103388
103388
103388
103388
103388
103388
103388
103388
103388
103388
103388
103388
103388
103388
103388
103388
103388
103388
103388
103387
103387
103387
103387
103387
103387
103387
103387
103387
103387
103387
103387
103387
103387
103387
103387
103387
103387
103387
103387
103387
103387
103387
103386
103386
103386
103386
103386
103386
103386
103386
103386
103386
103386
103386
103386
103386
103387
103387
103387
103386
103386
103386
103386
103386
103386
103386
103386
103386
103386
103386
103386
103386
103386
103386
103386
103386
103386
103386
103386
103385
103385
103385
103385
103385
103385
103385
103385
103385
103385
103385
103385
103385
103385
103385
103385
103385
103385
103385
103385
103385
103385
103385
103385
103384
103384
103384
103384
103384
103384
103384
103384
103384
103384
103385
103385
103385
103385
103385
103385
103384
103384
103384
103384
103384
103384
103384
103384
103384
103384
103384
103384
103384
103384
103384
103384
103384
103384
103384
103384
103383
103383
103383
103383
103383
103383
103383
103383
103383
103383
103383
103383
103383
103383
103383
103383
103383
103383
103383
103383
103383
103383
103383
103383
103383
103383
103383
103383
103383
103383
103383
103383
103383
103383
103383
103383
103383
103383
103383
103383
103382
103382
103382
103382
103382
103382
103382
103382
103382
103382
103382
103382
103382
103382
103382
103382
103382
103382
103382
103382
103381
103381
103381
103381
103381
103381
103381
103381
103381
103381
103381
103381
103381
103381
103381
103381
103381
103381
103382
103382
103381
103381
103381
103381
103381
103381
103381
103381
103381
103381
103381
103381
103381
103381
103381
103381
103381
103381
103381
103381
103380
103380
103380
103380
103380
103380
103380
103380
103380
103380
103380
103380
103380
103380
103380
103380
103380
103380
103380
103380
103380
103380
103379
103379
103380
103380
103380
103380
103380
103380
103380
103380
103380
103380
103380
103380
103380
103380
103380
103380
103379
103379
103379
103379
103379
103379
103379
103379
103379
103379
103379
103379
103379
103379
103379
103379
103379
103379
103379
103379
103378
103378
103378
103378
103378
103378
103378
103378
103378
103378
103379
103379
103379
103379
103379
103379
103379
103379
103379
103379
103378
103378
103378
103378
103378
103378
103378
103378
103378
103378
103378
103378
103378
103378
103378
103378
103378
103378
103378
103378
103377
103377
103377
103377
103377
103377
103377
103377
103377
103377
103377
103378
103378
103378
103378
103378
103378
103378
103378
103378
103376
103376
103376
103376
103376
103376
103377
103377
103377
103377
103377
103377
103377
103377
103377
103377
103377
103377
103377
103377
103376
103376
103376
103376
103376
103376
103376
103376
103376
103376
103376
103377
103377
103377
103377
103377
103377
103377
103377