/*--------------------------------*- C++ -*----------------------------------*\
| =========                 |                                                 |
| \\      /  F ield         | OpenFOAM: The Open Source CFD Toolbox           |
|  \\    /   O peration     | Version:  2.1.0                                 |
|   \\  /    A nd           | Web:      www.OpenFOAM.org                      |
|    \\/     M anipulation  |                                                 |
\*---------------------------------------------------------------------------*/
FoamFile
{
    version     2.0;
    format      ascii;
    class       surfaceScalarField;
    location    "0.19";
    object      phi;
}
// * * * * * * * * * * * * * * * * * * * * * * * * * * * * * * * * * * * * * //

dimensions      [0 3 -1 0 0 0 0];

internalField   nonuniform List<scalar> 
12460
(
-2.44358e-05
-2.31415e-09
-2.44008e-05
-3.49608e-08
-2.43447e-05
-5.61661e-08
-2.42777e-05
-6.69952e-08
-2.42043e-05
-7.33794e-08
-2.41266e-05
-7.76633e-08
-2.40458e-05
-8.07944e-08
-2.39625e-05
-8.3282e-08
-2.38771e-05
-8.54246e-08
-2.37897e-05
-8.73734e-08
-2.37005e-05
-8.9233e-08
-2.36095e-05
-9.10423e-08
-2.35166e-05
-9.28432e-08
-2.3422e-05
-9.46379e-08
-2.33255e-05
-9.64501e-08
-2.32273e-05
-9.82681e-08
-2.31272e-05
-1.00109e-07
-2.30252e-05
-1.01959e-07
-2.29214e-05
-1.03838e-07
-2.28156e-05
-1.05739e-07
-2.2708e-05
-1.07628e-07
-2.25984e-05
-1.0955e-07
-2.24869e-05
-1.11589e-07
-2.23732e-05
-1.13687e-07
-2.22573e-05
-1.15845e-07
-2.21393e-05
-1.18066e-07
-2.20189e-05
-1.20366e-07
-2.18961e-05
-1.22739e-07
-2.1771e-05
-1.25194e-07
-2.16432e-05
-1.2773e-07
-2.15129e-05
-1.30353e-07
-2.13798e-05
-1.33064e-07
-2.12439e-05
-1.35875e-07
-2.11051e-05
-1.38785e-07
-2.09633e-05
-1.41808e-07
-2.08184e-05
-1.44952e-07
-2.06702e-05
-1.4823e-07
-2.05185e-05
-1.51651e-07
-2.03633e-05
-1.55225e-07
-2.02043e-05
-1.58971e-07
-2.00414e-05
-1.62899e-07
-1.98744e-05
-1.67009e-07
-1.97031e-05
-1.71303e-07
-1.95273e-05
-1.75786e-07
-1.93469e-05
-1.80458e-07
-1.91616e-05
-1.85311e-07
-1.89712e-05
-1.90341e-07
-1.87757e-05
-1.95563e-07
-1.85749e-05
-2.00788e-07
-1.83687e-05
-2.06171e-07
-1.81567e-05
-2.12014e-07
-1.79386e-05
-2.18116e-07
-1.77144e-05
-2.24188e-07
-1.74844e-05
-2.30004e-07
-1.72488e-05
-2.35618e-07
-1.70076e-05
-2.41196e-07
-1.67608e-05
-2.4684e-07
-1.65082e-05
-2.52574e-07
-1.62498e-05
-2.58387e-07
-1.59855e-05
-2.64285e-07
-1.57153e-05
-2.70292e-07
-1.54389e-05
-2.7641e-07
-1.51562e-05
-2.82649e-07
-1.48672e-05
-2.89035e-07
-1.45716e-05
-2.95597e-07
-1.42693e-05
-3.02348e-07
-1.39601e-05
-3.09283e-07
-1.36437e-05
-3.16372e-07
-1.33202e-05
-3.2361e-07
-1.29892e-05
-3.30992e-07
-1.26507e-05
-3.38524e-07
-1.23045e-05
-3.46262e-07
-1.19503e-05
-3.54302e-07
-1.15877e-05
-3.62713e-07
-1.12162e-05
-3.71537e-07
-1.08354e-05
-3.8089e-07
-1.04446e-05
-3.9097e-07
-1.00426e-05
-4.02068e-07
-9.62819e-06
-4.14585e-07
-9.19932e-06
-4.29038e-07
-8.75344e-06
-4.46076e-07
-8.28719e-06
-4.66477e-07
-7.79638e-06
-4.9107e-07
-7.27613e-06
-5.20553e-07
-6.72085e-06
-5.55624e-07
-6.12446e-06
-5.96792e-07
-5.48091e-06
-6.44007e-07
-4.78531e-06
-6.9613e-07
-4.03603e-06
-7.49878e-07
-3.23881e-06
-7.97898e-07
-2.41431e-06
-8.25234e-07
-1.61362e-06
-8.01447e-07
-9.34887e-07
-6.79451e-07
-4.99881e-07
-4.35546e-07
-3.65289e-07
-1.3481e-07
-6.02621e-07
2.37575e-07
-1.47741e-06
8.74358e-07
-3.69561e-06
2.21229e-06
-9.01629e-06
5.30432e-06
1.47313e-05
-2.37766e-05
-2.95566e-05
-1.86013e-08
-2.95089e-05
-8.26219e-08
-2.94477e-05
-1.17316e-07
-2.93785e-05
-1.36222e-07
-2.93041e-05
-1.47807e-07
-2.92261e-05
-1.55644e-07
-2.91455e-05
-1.6138e-07
-2.90629e-05
-1.6594e-07
-2.89784e-05
-1.69867e-07
-2.88924e-05
-1.73442e-07
-2.88047e-05
-1.7686e-07
-2.87156e-05
-1.80192e-07
-2.86249e-05
-1.8352e-07
-2.85327e-05
-1.86844e-07
-2.84389e-05
-1.90212e-07
-2.83436e-05
-1.936e-07
-2.82467e-05
-1.97036e-07
-2.81481e-05
-2.00494e-07
-2.8048e-05
-2.03991e-07
-2.79462e-05
-2.07542e-07
-2.78428e-05
-2.11023e-07
-2.77378e-05
-2.14499e-07
-2.76312e-05
-2.18177e-07
-2.7523e-05
-2.21916e-07
-2.74131e-05
-2.25729e-07
-2.73016e-05
-2.29635e-07
-2.71883e-05
-2.33659e-07
-2.70732e-05
-2.37796e-07
-2.69564e-05
-2.42056e-07
-2.68376e-05
-2.46438e-07
-2.6717e-05
-2.50953e-07
-2.65945e-05
-2.55604e-07
-2.647e-05
-2.60414e-07
-2.63434e-05
-2.65383e-07
-2.62147e-05
-2.70526e-07
-2.60838e-05
-2.75855e-07
-2.59506e-05
-2.81383e-07
-2.58151e-05
-2.87124e-07
-2.56773e-05
-2.93089e-07
-2.55369e-05
-2.99298e-07
-2.53941e-05
-3.05777e-07
-2.52485e-05
-3.1254e-07
-2.51002e-05
-3.19601e-07
-2.49491e-05
-3.26976e-07
-2.47949e-05
-3.3467e-07
-2.46375e-05
-3.42684e-07
-2.44768e-05
-3.51033e-07
-2.43126e-05
-3.59736e-07
-2.41448e-05
-3.68593e-07
-2.39736e-05
-3.77472e-07
-2.37992e-05
-3.86383e-07
-2.36221e-05
-3.95262e-07
-2.34422e-05
-4.04132e-07
-2.32593e-05
-4.12896e-07
-2.30734e-05
-4.21514e-07
-2.28846e-05
-4.30096e-07
-2.26927e-05
-4.38737e-07
-2.24979e-05
-4.47456e-07
-2.23e-05
-4.5625e-07
-2.20993e-05
-4.65105e-07
-2.18956e-05
-4.74011e-07
-2.16892e-05
-4.82949e-07
-2.148e-05
-4.91927e-07
-2.12682e-05
-5.00992e-07
-2.10537e-05
-5.10171e-07
-2.08367e-05
-5.19459e-07
-2.06173e-05
-5.28863e-07
-2.03955e-05
-5.3836e-07
-2.01714e-05
-5.47949e-07
-1.99451e-05
-5.57642e-07
-1.97164e-05
-5.67476e-07
-1.94855e-05
-5.77562e-07
-1.92521e-05
-5.88123e-07
-1.90159e-05
-5.99335e-07
-1.87767e-05
-6.11311e-07
-1.8534e-05
-6.24268e-07
-1.82871e-05
-6.38565e-07
-1.80354e-05
-6.54696e-07
-1.77777e-05
-6.73312e-07
-1.75127e-05
-6.95224e-07
-1.72387e-05
-7.21408e-07
-1.69537e-05
-7.53032e-07
-1.66552e-05
-7.91407e-07
-1.63403e-05
-8.37673e-07
-1.60056e-05
-8.92873e-07
-1.56476e-05
-9.57693e-07
-1.52632e-05
-1.03184e-06
-1.485e-05
-1.11327e-06
-1.44079e-05
-1.19658e-06
-1.39406e-05
-1.2705e-06
-1.34584e-05
-1.31357e-06
-1.2979e-05
-1.28797e-06
-1.25304e-05
-1.13636e-06
-1.21859e-05
-7.89969e-07
-1.21362e-05
-1.96718e-07
-1.25805e-05
6.67e-07
-1.38121e-05
2.08802e-06
-1.63332e-05
4.71105e-06
-2.11481e-05
1.0091e-05
2.52182e-05
-3.16751e-05
-3.24669e-05
-4.21081e-08
-3.24252e-05
-1.2433e-07
-3.23728e-05
-1.69727e-07
-3.23137e-05
-1.95275e-07
-3.22505e-05
-2.11056e-07
-3.21844e-05
-2.217e-07
-3.21164e-05
-2.29398e-07
-3.20468e-05
-2.3549e-07
-3.1976e-05
-2.40669e-07
-3.19041e-05
-2.45379e-07
-3.18311e-05
-2.49847e-07
-3.17571e-05
-2.54216e-07
-3.1682e-05
-2.58569e-07
-3.16059e-05
-2.62939e-07
-3.15288e-05
-2.67375e-07
-3.14505e-05
-2.71872e-07
-3.13711e-05
-2.76451e-07
-3.12905e-05
-2.81113e-07
-3.12086e-05
-2.85865e-07
-3.11254e-05
-2.90744e-07
-3.10408e-05
-2.95636e-07
-3.09548e-05
-3.00458e-07
-3.08677e-05
-3.05281e-07
-3.07796e-05
-3.10066e-07
-3.06904e-05
-3.14883e-07
-3.06003e-05
-3.19795e-07
-3.05091e-05
-3.24832e-07
-3.04169e-05
-3.29985e-07
-3.03237e-05
-3.35261e-07
-3.02295e-05
-3.40657e-07
-3.01343e-05
-3.46181e-07
-3.0038e-05
-3.51831e-07
-2.99408e-05
-3.57637e-07
-2.98426e-05
-3.63594e-07
-2.97434e-05
-3.69713e-07
-2.96433e-05
-3.76003e-07
-2.95422e-05
-3.82475e-07
-2.94402e-05
-3.89139e-07
-2.93373e-05
-3.96003e-07
-2.92335e-05
-4.03073e-07
-2.91289e-05
-4.10372e-07
-2.90235e-05
-4.17911e-07
-2.89175e-05
-4.25698e-07
-2.88107e-05
-4.33746e-07
-2.87033e-05
-4.42055e-07
-2.85954e-05
-4.50617e-07
-2.8487e-05
-4.59432e-07
-2.83784e-05
-4.68444e-07
-2.82694e-05
-4.77584e-07
-2.81601e-05
-4.8676e-07
-2.80508e-05
-4.95736e-07
-2.79417e-05
-5.04445e-07
-2.78328e-05
-5.13081e-07
-2.77241e-05
-5.21705e-07
-2.76154e-05
-5.30214e-07
-2.7507e-05
-5.38621e-07
-2.73989e-05
-5.46964e-07
-2.72913e-05
-5.55204e-07
-2.71844e-05
-5.63315e-07
-2.70784e-05
-5.71261e-07
-2.69736e-05
-5.78986e-07
-2.68704e-05
-5.86428e-07
-2.6769e-05
-5.93556e-07
-2.667e-05
-6.00411e-07
-2.65735e-05
-6.07002e-07
-2.64802e-05
-6.13262e-07
-2.63904e-05
-6.19167e-07
-2.63047e-05
-6.24672e-07
-2.62236e-05
-6.29745e-07
-2.61477e-05
-6.34372e-07
-2.60776e-05
-6.38588e-07
-2.60138e-05
-6.42493e-07
-2.59568e-05
-6.46435e-07
-2.59069e-05
-6.50705e-07
-2.58645e-05
-6.55477e-07
-2.58298e-05
-6.61043e-07
-2.58029e-05
-6.67913e-07
-2.57836e-05
-6.76784e-07
-2.57717e-05
-6.88562e-07
-2.57664e-05
-7.04358e-07
-2.57667e-05
-7.2547e-07
-2.57715e-05
-7.53405e-07
-2.5779e-05
-7.89842e-07
-2.57872e-05
-8.36387e-07
-2.57936e-05
-8.94396e-07
-2.57957e-05
-9.64642e-07
-2.57913e-05
-1.04662e-06
-2.57789e-05
-1.13749e-06
-2.57584e-05
-1.23039e-06
-2.57321e-05
-1.31179e-06
-2.57054e-05
-1.35702e-06
-2.56859e-05
-1.32597e-06
-2.56844e-05
-1.15822e-06
-2.57294e-05
-7.66843e-07
-2.58794e-05
-6.99295e-08
-2.63073e-05
1.07018e-06
-2.72077e-05
2.96139e-06
-2.89592e-05
6.43222e-06
-3.22642e-05
1.33612e-05
2.95318e-05
-3.66274e-05
-3.51263e-05
-6.54853e-08
-3.50959e-05
-1.5469e-07
-3.50592e-05
-2.06424e-07
-3.50178e-05
-2.36679e-07
-3.49734e-05
-2.55507e-07
-3.4927e-05
-2.68037e-07
-3.48795e-05
-2.76918e-07
-3.48312e-05
-2.83803e-07
-3.47824e-05
-2.8952e-07
-3.47331e-05
-2.94638e-07
-3.46835e-05
-2.99416e-07
-3.46337e-05
-3.04048e-07
-3.45836e-05
-3.08624e-07
-3.45334e-05
-3.13191e-07
-3.4483e-05
-3.17804e-07
-3.44324e-05
-3.22469e-07
-3.43816e-05
-3.27191e-07
-3.43307e-05
-3.31991e-07
-3.42798e-05
-3.36859e-07
-3.42287e-05
-3.41758e-07
-3.41777e-05
-3.46702e-07
-3.41264e-05
-3.51685e-07
-3.40751e-05
-3.56596e-07
-3.40238e-05
-3.61404e-07
-3.39725e-05
-3.66175e-07
-3.39213e-05
-3.71006e-07
-3.38702e-05
-3.75936e-07
-3.38192e-05
-3.80942e-07
-3.37685e-05
-3.86021e-07
-3.3718e-05
-3.91164e-07
-3.36678e-05
-3.96375e-07
-3.3618e-05
-4.01639e-07
-3.35686e-05
-4.06974e-07
-3.35199e-05
-4.12379e-07
-3.34717e-05
-4.17861e-07
-3.34243e-05
-4.23419e-07
-3.33777e-05
-4.29051e-07
-3.33321e-05
-4.34762e-07
-3.32876e-05
-4.40554e-07
-3.32443e-05
-4.46417e-07
-3.32023e-05
-4.52357e-07
-3.31619e-05
-4.58365e-07
-3.31232e-05
-4.64427e-07
-3.30864e-05
-4.70541e-07
-3.30518e-05
-4.76691e-07
-3.30196e-05
-4.82849e-07
-3.29901e-05
-4.8899e-07
-3.29636e-05
-4.95017e-07
-3.29404e-05
-5.00902e-07
-3.29204e-05
-5.0684e-07
-3.29034e-05
-5.12788e-07
-3.28895e-05
-5.18534e-07
-3.28786e-05
-5.24085e-07
-3.2871e-05
-5.29433e-07
-3.2867e-05
-5.3444e-07
-3.28667e-05
-5.39139e-07
-3.28704e-05
-5.4356e-07
-3.28784e-05
-5.476e-07
-3.28909e-05
-5.51184e-07
-3.29083e-05
-5.54265e-07
-3.2931e-05
-5.56789e-07
-3.29594e-05
-5.58663e-07
-3.29939e-05
-5.59827e-07
-3.30348e-05
-5.60334e-07
-3.30825e-05
-5.60236e-07
-3.31375e-05
-5.59467e-07
-3.31999e-05
-5.57993e-07
-3.32704e-05
-5.55779e-07
-3.33491e-05
-5.52835e-07
-3.34363e-05
-5.4916e-07
-3.35324e-05
-5.44856e-07
-3.36376e-05
-5.40069e-07
-3.37518e-05
-5.35344e-07
-3.38749e-05
-5.31221e-07
-3.40065e-05
-5.27998e-07
-3.41462e-05
-5.26084e-07
-3.42933e-05
-5.26193e-07
-3.4447e-05
-5.2922e-07
-3.46062e-05
-5.36299e-07
-3.47696e-05
-5.48743e-07
-3.49358e-05
-5.68052e-07
-3.51032e-05
-5.95894e-07
-3.52699e-05
-6.34088e-07
-3.54341e-05
-6.84247e-07
-3.55943e-05
-7.47595e-07
-3.57491e-05
-8.24672e-07
-3.58973e-05
-9.14492e-07
-3.60389e-05
-1.01353e-06
-3.61744e-05
-1.114e-06
-3.63053e-05
-1.20145e-06
-3.64336e-05
-1.25084e-06
-3.65604e-05
-1.22276e-06
-3.66836e-05
-1.05993e-06
-3.68047e-05
-6.71989e-07
-3.69147e-05
1.28236e-08
-3.71594e-05
1.28614e-06
-3.76303e-05
3.40126e-06
-3.85049e-05
7.27255e-06
-3.9963e-05
1.478e-05
2.94429e-05
-3.99284e-05
-3.78588e-05
-8.19612e-08
-3.78452e-05
-1.68274e-07
-3.78311e-05
-2.20497e-07
-3.78157e-05
-2.52112e-07
-3.77993e-05
-2.7192e-07
-3.77825e-05
-2.848e-07
-3.77657e-05
-2.93691e-07
-3.77493e-05
-3.00284e-07
-3.77332e-05
-3.05568e-07
-3.77177e-05
-3.10103e-07
-3.77029e-05
-3.14224e-07
-3.76889e-05
-3.18104e-07
-3.76756e-05
-3.21865e-07
-3.76633e-05
-3.25538e-07
-3.76519e-05
-3.29181e-07
-3.76416e-05
-3.3279e-07
-3.76324e-05
-3.36378e-07
-3.76245e-05
-3.39934e-07
-3.76179e-05
-3.4345e-07
-3.76128e-05
-3.46859e-07
-3.76093e-05
-3.50198e-07
-3.76073e-05
-3.53627e-07
-3.76068e-05
-3.57139e-07
-3.76076e-05
-3.60563e-07
-3.76099e-05
-3.63868e-07
-3.76138e-05
-3.6717e-07
-3.76192e-05
-3.70525e-07
-3.76263e-05
-3.7388e-07
-3.76351e-05
-3.77224e-07
-3.76457e-05
-3.80538e-07
-3.76583e-05
-3.83818e-07
-3.76729e-05
-3.87057e-07
-3.76896e-05
-3.90258e-07
-3.77086e-05
-3.93417e-07
-3.77299e-05
-3.96549e-07
-3.77537e-05
-3.99641e-07
-3.77801e-05
-4.02688e-07
-3.78091e-05
-4.05689e-07
-3.78411e-05
-4.08653e-07
-3.7876e-05
-4.11554e-07
-3.7914e-05
-4.14404e-07
-3.79552e-05
-4.17195e-07
-3.79998e-05
-4.19916e-07
-3.80478e-05
-4.22564e-07
-3.80994e-05
-4.25133e-07
-3.81548e-05
-4.27605e-07
-3.82139e-05
-4.29961e-07
-3.82769e-05
-4.32145e-07
-3.83438e-05
-4.34166e-07
-3.84148e-05
-4.36128e-07
-3.84898e-05
-4.37983e-07
-3.8569e-05
-4.39601e-07
-3.86524e-05
-4.40952e-07
-3.87402e-05
-4.4206e-07
-3.88324e-05
-4.42687e-07
-3.89291e-05
-4.42929e-07
-3.90303e-05
-4.42936e-07
-3.91361e-05
-4.4253e-07
-3.92464e-05
-4.41677e-07
-3.93612e-05
-4.40342e-07
-3.94806e-05
-4.38487e-07
-3.96045e-05
-4.36018e-07
-3.97329e-05
-4.32848e-07
-3.98658e-05
-4.29069e-07
-4.00031e-05
-4.24833e-07
-4.01447e-05
-4.20056e-07
-4.02904e-05
-4.14695e-07
-4.04403e-05
-4.08709e-07
-4.05942e-05
-4.02122e-07
-4.0752e-05
-3.94939e-07
-4.09138e-05
-3.87171e-07
-4.10794e-05
-3.78992e-07
-4.12489e-05
-3.70918e-07
-4.14226e-05
-3.63277e-07
-4.16004e-05
-3.56562e-07
-4.17821e-05
-3.51436e-07
-4.19674e-05
-3.48734e-07
-4.21559e-05
-3.49453e-07
-4.23469e-05
-3.54798e-07
-4.25399e-05
-3.66176e-07
-4.27342e-05
-3.85147e-07
-4.29291e-05
-4.13422e-07
-4.31237e-05
-4.52916e-07
-4.33173e-05
-5.05222e-07
-4.35092e-05
-5.71422e-07
-4.36988e-05
-6.52007e-07
-4.38856e-05
-7.45823e-07
-4.40695e-05
-8.49096e-07
-4.42502e-05
-9.53903e-07
-4.44277e-05
-1.04602e-06
-4.45997e-05
-1.10211e-06
-4.47606e-05
-1.08656e-06
-4.48988e-05
-9.47627e-07
-4.49903e-05
-6.07599e-07
-4.5035e-05
2.92249e-08
-4.50557e-05
1.27687e-06
-4.50802e-05
3.39352e-06
-4.51048e-05
7.26138e-06
-4.48163e-05
1.44501e-05
2.65712e-05
-4.19971e-05
-4.08175e-05
-8.5819e-08
-4.0826e-05
-1.59779e-07
-4.08407e-05
-2.05823e-07
-4.08585e-05
-2.34292e-07
-4.08784e-05
-2.52042e-07
-4.09e-05
-2.63198e-07
-4.09231e-05
-2.70518e-07
-4.09479e-05
-2.75544e-07
-4.09742e-05
-2.79267e-07
-4.10021e-05
-2.82193e-07
-4.10316e-05
-2.84677e-07
-4.10629e-05
-2.86869e-07
-4.10958e-05
-2.88892e-07
-4.11306e-05
-2.90781e-07
-4.11672e-05
-2.92582e-07
-4.12057e-05
-2.94284e-07
-4.12462e-05
-2.95917e-07
-4.12886e-05
-2.97458e-07
-4.13332e-05
-2.98899e-07
-4.13798e-05
-3.00211e-07
-4.14286e-05
-3.01446e-07
-4.14796e-05
-3.02655e-07
-4.15328e-05
-3.03885e-07
-4.15884e-05
-3.05e-07
-4.16464e-05
-3.05863e-07
-4.17069e-05
-3.06672e-07
-4.17699e-05
-3.07521e-07
-4.18355e-05
-3.08317e-07
-4.19036e-05
-3.09066e-07
-4.19744e-05
-3.09747e-07
-4.20479e-05
-3.10363e-07
-4.21241e-05
-3.10915e-07
-4.22029e-05
-3.1142e-07
-4.22845e-05
-3.1187e-07
-4.23688e-05
-3.1229e-07
-4.24558e-05
-3.12681e-07
-4.25455e-05
-3.13049e-07
-4.26378e-05
-3.13392e-07
-4.27328e-05
-3.1373e-07
-4.28303e-05
-3.14053e-07
-4.29304e-05
-3.14374e-07
-4.3033e-05
-3.14694e-07
-4.3138e-05
-3.15014e-07
-4.32454e-05
-3.15333e-07
-4.3355e-05
-3.15656e-07
-4.34669e-05
-3.15965e-07
-4.35808e-05
-3.16246e-07
-4.36967e-05
-3.16466e-07
-4.38145e-05
-3.16642e-07
-4.39342e-05
-3.16812e-07
-4.40556e-05
-3.16937e-07
-4.41787e-05
-3.1693e-07
-4.43035e-05
-3.16759e-07
-4.44297e-05
-3.16441e-07
-4.45573e-05
-3.15764e-07
-4.46865e-05
-3.14598e-07
-4.48173e-05
-3.13011e-07
-4.49499e-05
-3.11007e-07
-4.50842e-05
-3.086e-07
-4.52202e-05
-3.0576e-07
-4.53578e-05
-3.02442e-07
-4.54971e-05
-2.98538e-07
-4.56381e-05
-2.93856e-07
-4.5781e-05
-2.88477e-07
-4.59257e-05
-2.82731e-07
-4.60722e-05
-2.76426e-07
-4.62206e-05
-2.69487e-07
-4.63711e-05
-2.61838e-07
-4.65237e-05
-2.53504e-07
-4.66785e-05
-2.44526e-07
-4.68359e-05
-2.3471e-07
-4.69961e-05
-2.24167e-07
-4.71589e-05
-2.14091e-07
-4.73241e-05
-2.04635e-07
-4.74917e-05
-1.96116e-07
-4.76617e-05
-1.89212e-07
-4.78342e-05
-1.84801e-07
-4.80089e-05
-1.83956e-07
-4.81857e-05
-1.87938e-07
-4.83645e-05
-1.98236e-07
-4.85448e-05
-2.16442e-07
-4.87266e-05
-2.44155e-07
-4.89096e-05
-2.83407e-07
-4.90933e-05
-3.35865e-07
-4.92778e-05
-4.02329e-07
-4.94627e-05
-4.83415e-07
-4.96481e-05
-5.77967e-07
-4.98335e-05
-6.82252e-07
-5.00182e-05
-7.88877e-07
-5.02002e-05
-8.84866e-07
-5.03745e-05
-9.49909e-07
-5.0531e-05
-9.53398e-07
-5.06512e-05
-8.52121e-07
-5.06993e-05
-5.85397e-07
-5.06591e-05
-3.80969e-08
-5.04775e-05
1.0664e-06
-5.00983e-05
2.98316e-06
-4.93544e-05
6.48308e-06
-4.76521e-05
1.27083e-05
2.20257e-05
-4.31514e-05
-4.39524e-05
-7.5482e-08
-4.39844e-05
-1.27772e-07
-4.4028e-05
-1.6228e-07
-4.40782e-05
-1.84005e-07
-4.4133e-05
-1.9726e-07
-4.41911e-05
-2.0511e-07
-4.42519e-05
-2.09745e-07
-4.4315e-05
-2.12439e-07
-4.43802e-05
-2.14018e-07
-4.44475e-05
-2.14918e-07
-4.45168e-05
-2.15443e-07
-4.45879e-05
-2.15722e-07
-4.46609e-05
-2.15866e-07
-4.47358e-05
-2.15903e-07
-4.48125e-05
-2.15881e-07
-4.4891e-05
-2.15779e-07
-4.49713e-05
-2.15632e-07
-4.50533e-05
-2.15421e-07
-4.51371e-05
-2.1515e-07
-4.52225e-05
-2.14795e-07
-4.53095e-05
-2.14417e-07
-4.53982e-05
-2.14019e-07
-4.54884e-05
-2.13652e-07
-4.55802e-05
-2.13223e-07
-4.56735e-05
-2.12549e-07
-4.57686e-05
-2.11632e-07
-4.58655e-05
-2.106e-07
-4.59643e-05
-2.09491e-07
-4.6065e-05
-2.08378e-07
-4.61676e-05
-2.07249e-07
-4.62718e-05
-2.06114e-07
-4.63778e-05
-2.04963e-07
-4.64854e-05
-2.03839e-07
-4.65946e-05
-2.02736e-07
-4.67052e-05
-2.01693e-07
-4.68172e-05
-2.00706e-07
-4.69305e-05
-1.99801e-07
-4.7045e-05
-1.98973e-07
-4.71606e-05
-1.98236e-07
-4.72772e-05
-1.97585e-07
-4.73946e-05
-1.97038e-07
-4.75128e-05
-1.96584e-07
-4.76318e-05
-1.96228e-07
-4.77513e-05
-1.95959e-07
-4.78714e-05
-1.95778e-07
-4.79919e-05
-1.9566e-07
-4.81129e-05
-1.95593e-07
-4.82341e-05
-1.95542e-07
-4.83556e-05
-1.95514e-07
-4.84773e-05
-1.95515e-07
-4.85992e-05
-1.95504e-07
-4.87213e-05
-1.95395e-07
-4.88436e-05
-1.95148e-07
-4.89661e-05
-1.94662e-07
-4.90887e-05
-1.93915e-07
-4.92113e-05
-1.92894e-07
-4.93339e-05
-1.91458e-07
-4.94565e-05
-1.89561e-07
-4.95793e-05
-1.87209e-07
-4.97021e-05
-1.84374e-07
-4.98252e-05
-1.81003e-07
-4.99486e-05
-1.77008e-07
-5.00724e-05
-1.72067e-07
-5.01971e-05
-1.66107e-07
-5.03224e-05
-1.59937e-07
-5.04485e-05
-1.53134e-07
-5.05755e-05
-1.45567e-07
-5.07036e-05
-1.37181e-07
-5.08329e-05
-1.27988e-07
-5.09634e-05
-1.18053e-07
-5.10954e-05
-1.07246e-07
-5.12295e-05
-9.49591e-08
-5.13654e-05
-8.36461e-08
-5.15027e-05
-7.31295e-08
-5.16417e-05
-6.34831e-08
-5.17825e-05
-5.52896e-08
-5.19254e-05
-4.94073e-08
-5.20705e-05
-4.69146e-08
-5.2218e-05
-4.9097e-08
-5.23681e-05
-5.74514e-08
-5.2521e-05
-7.36719e-08
-5.26769e-05
-9.90376e-08
-5.28361e-05
-1.35762e-07
-5.29984e-05
-1.85866e-07
-5.31644e-05
-2.49486e-07
-5.33342e-05
-3.27729e-07
-5.35074e-05
-4.19704e-07
-5.36836e-05
-5.21982e-07
-5.38611e-05
-6.28325e-07
-5.40362e-05
-7.27725e-07
-5.42017e-05
-8.03474e-07
-5.4344e-05
-8.31353e-07
-5.4441e-05
-7.76586e-07
-5.44491e-05
-6.00071e-07
-5.43294e-05
-1.81896e-07
-5.39678e-05
6.79161e-07
-5.32459e-05
2.23369e-06
-5.18593e-05
5.06622e-06
-4.9112e-05
9.92715e-06
1.65408e-05
-4.36609e-05
-4.69366e-05
-5.33361e-08
-4.6983e-05
-8.13636e-08
-4.70429e-05
-1.02319e-07
-4.71113e-05
-1.15619e-07
-4.71852e-05
-1.23337e-07
-4.72629e-05
-1.27421e-07
-4.73434e-05
-1.29283e-07
-4.7426e-05
-1.29834e-07
-4.75104e-05
-1.29613e-07
-4.75964e-05
-1.28954e-07
-4.76838e-05
-1.28054e-07
-4.77725e-05
-1.27016e-07
-4.78624e-05
-1.25909e-07
-4.79536e-05
-1.24755e-07
-4.80459e-05
-1.23589e-07
-4.81392e-05
-1.22389e-07
-4.82337e-05
-1.21192e-07
-4.83292e-05
-1.19963e-07
-4.84256e-05
-1.18732e-07
-4.85229e-05
-1.17465e-07
-4.86211e-05
-1.16216e-07
-4.87202e-05
-1.14969e-07
-4.88201e-05
-1.13716e-07
-4.8921e-05
-1.12358e-07
-4.90225e-05
-1.1101e-07
-4.91245e-05
-1.09623e-07
-4.9227e-05
-1.08198e-07
-4.93297e-05
-1.06743e-07
-4.94327e-05
-1.05375e-07
-4.95359e-05
-1.04062e-07
-4.96393e-05
-1.02823e-07
-4.97426e-05
-1.0161e-07
-4.9846e-05
-1.00501e-07
-4.99493e-05
-9.94724e-08
-5.00525e-05
-9.85723e-08
-5.01555e-05
-9.77778e-08
-5.02582e-05
-9.71266e-08
-5.03606e-05
-9.66042e-08
-5.04627e-05
-9.62078e-08
-5.05645e-05
-9.59339e-08
-5.06658e-05
-9.57884e-08
-5.07668e-05
-9.57636e-08
-5.08673e-05
-9.58501e-08
-5.09674e-05
-9.60333e-08
-5.1067e-05
-9.63064e-08
-5.11663e-05
-9.66411e-08
-5.12651e-05
-9.70182e-08
-5.13635e-05
-9.74091e-08
-5.14615e-05
-9.78008e-08
-5.15592e-05
-9.81833e-08
-5.16566e-05
-9.85174e-08
-5.17537e-05
-9.87214e-08
-5.18507e-05
-9.87443e-08
-5.19474e-05
-9.84632e-08
-5.20441e-05
-9.79174e-08
-5.21405e-05
-9.71632e-08
-5.22368e-05
-9.60165e-08
-5.23329e-05
-9.43533e-08
-5.24289e-05
-9.21334e-08
-5.25251e-05
-8.93217e-08
-5.26215e-05
-8.58642e-08
-5.27181e-05
-8.1706e-08
-5.28152e-05
-7.65214e-08
-5.29134e-05
-6.95285e-08
-5.30124e-05
-6.27842e-08
-5.31123e-05
-5.52641e-08
-5.32133e-05
-4.67621e-08
-5.33157e-05
-3.72585e-08
-5.34195e-05
-2.68035e-08
-5.35251e-05
-1.54014e-08
-5.36317e-05
-3.7803e-09
-5.37416e-05
1.14918e-08
-5.38537e-05
2.45927e-08
-5.39679e-05
3.69739e-08
-5.40847e-05
4.87966e-08
-5.42043e-05
5.94058e-08
-5.4327e-05
6.7933e-08
-5.4453e-05
7.33224e-08
-5.45826e-05
7.4322e-08
-5.47163e-05
6.94856e-08
-5.48544e-05
5.72372e-08
-5.49971e-05
3.5877e-08
-5.51452e-05
3.94645e-09
-5.52988e-05
-4.11637e-08
-5.54585e-05
-9.9366e-08
-5.5624e-05
-1.72544e-07
-5.57944e-05
-2.60237e-07
-5.5969e-05
-3.59088e-07
-5.61451e-05
-4.64765e-07
-5.63179e-05
-5.68384e-07
-5.64782e-05
-6.57516e-07
-5.66103e-05
-7.14676e-07
-5.66872e-05
-7.16214e-07
-5.66706e-05
-6.34375e-07
-5.64828e-05
-3.88907e-07
-5.59907e-05
1.66589e-07
-5.50067e-05
1.22801e-06
-5.31329e-05
3.16908e-06
-4.96702e-05
6.43924e-06
1.05873e-05
-4.37388e-05
-4.93775e-05
-2.11718e-08
-4.94297e-05
-2.91596e-08
-4.94946e-05
-3.74053e-08
-4.95678e-05
-4.24558e-08
-4.96461e-05
-4.50385e-08
-4.97275e-05
-4.60016e-08
-4.98108e-05
-4.59787e-08
-4.98953e-05
-4.54074e-08
-4.99804e-05
-4.45213e-08
-5.00658e-05
-4.34961e-08
-5.01515e-05
-4.24066e-08
-5.02372e-05
-4.13113e-08
-5.03229e-05
-4.0227e-08
-5.04084e-05
-3.917e-08
-5.04939e-05
-3.81448e-08
-5.05791e-05
-3.71455e-08
-5.06641e-05
-3.61793e-08
-5.07489e-05
-3.52303e-08
-5.08333e-05
-3.43104e-08
-5.09174e-05
-3.34088e-08
-5.1001e-05
-3.25449e-08
-5.10843e-05
-3.17114e-08
-5.11671e-05
-3.08818e-08
-5.12495e-05
-2.99962e-08
-5.13313e-05
-2.924e-08
-5.14123e-05
-2.86148e-08
-5.14924e-05
-2.80762e-08
-5.15716e-05
-2.75634e-08
-5.16499e-05
-2.71496e-08
-5.17271e-05
-2.68032e-08
-5.18035e-05
-2.65112e-08
-5.18789e-05
-2.61999e-08
-5.19535e-05
-2.59542e-08
-5.20272e-05
-2.57657e-08
-5.21001e-05
-2.56743e-08
-5.21723e-05
-2.56441e-08
-5.22438e-05
-2.57164e-08
-5.23145e-05
-2.58659e-08
-5.23847e-05
-2.60835e-08
-5.24544e-05
-2.63698e-08
-5.25235e-05
-2.6721e-08
-5.25922e-05
-2.71337e-08
-5.26606e-05
-2.75903e-08
-5.27286e-05
-2.80793e-08
-5.27965e-05
-2.85859e-08
-5.28642e-05
-2.9087e-08
-5.29318e-05
-2.95531e-08
-5.29994e-05
-2.99735e-08
-5.30671e-05
-3.03217e-08
-5.31349e-05
-3.05649e-08
-5.3203e-05
-3.06604e-08
-5.32715e-05
-3.05593e-08
-5.33403e-05
-3.02003e-08
-5.34097e-05
-2.9497e-08
-5.34795e-05
-2.84517e-08
-5.35501e-05
-2.70425e-08
-5.36214e-05
-2.5129e-08
-5.36937e-05
-2.26053e-08
-5.3767e-05
-1.94271e-08
-5.38415e-05
-1.55519e-08
-5.39171e-05
-1.09488e-08
-5.3994e-05
-5.55806e-09
-5.40718e-05
3.3666e-10
-5.41525e-05
1.02028e-08
-5.42346e-05
1.82267e-08
-5.43183e-05
2.73587e-08
-5.44041e-05
3.77099e-08
-5.4492e-05
4.9226e-08
-5.45822e-05
6.19008e-08
-5.46748e-05
7.54768e-08
-5.47707e-05
9.02927e-08
-5.48682e-05
1.07074e-07
-5.49692e-05
1.23376e-07
-5.50739e-05
1.39335e-07
-5.51825e-05
1.54847e-07
-5.52952e-05
1.69321e-07
-5.54122e-05
1.81925e-07
-5.55337e-05
1.91628e-07
-5.56601e-05
1.97195e-07
-5.57915e-05
1.97191e-07
-5.59284e-05
1.90081e-07
-5.60707e-05
1.73792e-07
-5.62184e-05
1.46955e-07
-5.63727e-05
1.081e-07
-5.65332e-05
5.56991e-08
-5.67003e-05
-1.10729e-08
-5.68742e-05
-9.24414e-08
-5.70531e-05
-1.86779e-07
-5.7233e-05
-2.91818e-07
-5.74086e-05
-4.00273e-07
-5.75695e-05
-5.04655e-07
-5.76985e-05
-5.94365e-07
-5.7767e-05
-6.57177e-07
-5.77355e-05
-6.76287e-07
-5.75191e-05
-6.16784e-07
-5.69587e-05
-4.06705e-07
-5.58054e-05
6.10292e-08
-5.36237e-05
9.73306e-07
-4.97243e-05
2.52579e-06
4.43668e-06
-4.35841e-05
-5.0829e-05
1.76866e-08
-5.0879e-05
2.08643e-08
-5.09401e-05
2.36746e-08
-5.10082e-05
2.56467e-08
-5.10802e-05
2.6964e-08
-5.11541e-05
2.78591e-08
-5.12285e-05
2.84312e-08
-5.13027e-05
2.87871e-08
-5.13762e-05
2.8984e-08
-5.14487e-05
2.90483e-08
-5.15201e-05
2.90142e-08
-5.15904e-05
2.89004e-08
-5.16593e-05
2.87347e-08
-5.1727e-05
2.85238e-08
-5.17934e-05
2.82923e-08
-5.18586e-05
2.80411e-08
-5.19226e-05
2.77941e-08
-5.19854e-05
2.75467e-08
-5.2047e-05
2.73194e-08
-5.21075e-05
2.70936e-08
-5.2167e-05
2.68885e-08
-5.22254e-05
2.66888e-08
-5.22828e-05
2.65381e-08
-5.23392e-05
2.6422e-08
-5.23947e-05
2.62808e-08
-5.24494e-05
2.60874e-08
-5.25034e-05
2.58885e-08
-5.25567e-05
2.56901e-08
-5.26093e-05
2.54738e-08
-5.26613e-05
2.5199e-08
-5.27128e-05
2.49632e-08
-5.27638e-05
2.48354e-08
-5.28146e-05
2.47531e-08
-5.2865e-05
2.46532e-08
-5.29152e-05
2.45261e-08
-5.29653e-05
2.43848e-08
-5.30152e-05
2.42146e-08
-5.30652e-05
2.40368e-08
-5.31151e-05
2.38524e-08
-5.31652e-05
2.36657e-08
-5.32154e-05
2.34783e-08
-5.32659e-05
2.3296e-08
-5.33167e-05
2.31325e-08
-5.33678e-05
2.30024e-08
-5.34194e-05
2.29183e-08
-5.34715e-05
2.29034e-08
-5.35241e-05
2.29865e-08
-5.35773e-05
2.3177e-08
-5.36313e-05
2.35045e-08
-5.3686e-05
2.40113e-08
-5.37415e-05
2.47339e-08
-5.37979e-05
2.57166e-08
-5.38553e-05
2.70219e-08
-5.39137e-05
2.87094e-08
-5.39732e-05
3.08044e-08
-5.40338e-05
3.33665e-08
-5.40957e-05
3.65274e-08
-5.4159e-05
4.03894e-08
-5.42237e-05
4.49862e-08
-5.429e-05
5.03614e-08
-5.43578e-05
5.65775e-08
-5.44274e-05
6.35521e-08
-5.44994e-05
7.19071e-08
-5.4572e-05
8.23677e-08
-5.46471e-05
9.27925e-08
-5.47246e-05
1.04232e-07
-5.48044e-05
1.16931e-07
-5.48868e-05
1.30933e-07
-5.49719e-05
1.46221e-07
-5.50599e-05
1.62721e-07
-5.51512e-05
1.80695e-07
-5.52451e-05
2.00081e-07
-5.53425e-05
2.19748e-07
-5.54438e-05
2.39489e-07
-5.55491e-05
2.59022e-07
-5.56587e-05
2.77756e-07
-5.5773e-05
2.94892e-07
-5.58922e-05
3.09434e-07
-5.60167e-05
3.20182e-07
-5.61468e-05
3.25746e-07
-5.62829e-05
3.2453e-07
-5.64256e-05
3.14724e-07
-5.65752e-05
2.9474e-07
-5.67319e-05
2.629e-07
-5.68952e-05
2.16942e-07
-5.70648e-05
1.56499e-07
-5.72404e-05
8.09428e-08
-5.74199e-05
-9.4293e-09
-5.76009e-05
-1.13037e-07
-5.77769e-05
-2.2655e-07
-5.79368e-05
-3.47006e-07
-5.80628e-05
-4.70595e-07
-5.81269e-05
-5.95426e-07
-5.80839e-05
-7.21756e-07
-5.78536e-05
-8.4961e-07
-5.72743e-05
-9.88791e-07
-5.60693e-05
-1.14742e-06
-5.3765e-05
-1.33463e-06
-4.96735e-05
-1.56864e-06
-1.78507e-06
-4.34525e-05
-5.06103e-05
5.53843e-08
-5.06605e-05
7.10857e-08
-5.07221e-05
8.52782e-08
-5.07909e-05
9.44683e-08
-5.08639e-05
9.99402e-08
-5.0939e-05
1.02951e-07
-5.10149e-05
1.04354e-07
-5.10909e-05
1.04768e-07
-5.11664e-05
1.04538e-07
-5.12413e-05
1.03894e-07
-5.13152e-05
1.02971e-07
-5.13882e-05
1.01872e-07
-5.14601e-05
1.00656e-07
-5.1531e-05
9.93665e-08
-5.16007e-05
9.80397e-08
-5.16694e-05
9.66912e-08
-5.17369e-05
9.53545e-08
-5.18034e-05
9.40292e-08
-5.18688e-05
9.27434e-08
-5.19332e-05
9.14752e-08
-5.19966e-05
9.0257e-08
-5.2059e-05
8.90652e-08
-5.21204e-05
8.7957e-08
-5.21808e-05
8.68782e-08
-5.22404e-05
8.5855e-08
-5.22992e-05
8.48259e-08
-5.23571e-05
8.38571e-08
-5.24143e-05
8.29007e-08
-5.24709e-05
8.20018e-08
-5.25267e-05
8.09884e-08
-5.25818e-05
8.00823e-08
-5.26364e-05
7.94044e-08
-5.26905e-05
7.88676e-08
-5.27442e-05
7.83261e-08
-5.27975e-05
7.78335e-08
-5.28505e-05
7.73604e-08
-5.29032e-05
7.69606e-08
-5.29558e-05
7.66163e-08
-5.30083e-05
7.63209e-08
-5.30607e-05
7.60899e-08
-5.31132e-05
7.59304e-08
-5.31658e-05
7.58493e-08
-5.32185e-05
7.58532e-08
-5.32715e-05
7.59609e-08
-5.33248e-05
7.61818e-08
-5.33785e-05
7.65412e-08
-5.34326e-05
7.70636e-08
-5.34872e-05
7.77657e-08
-5.35425e-05
7.8676e-08
-5.35983e-05
7.98342e-08
-5.36549e-05
8.12744e-08
-5.37123e-05
8.30438e-08
-5.37706e-05
8.52028e-08
-5.38298e-05
8.78014e-08
-5.38899e-05
9.08738e-08
-5.39511e-05
9.44854e-08
-5.40135e-05
9.87984e-08
-5.40772e-05
1.03932e-07
-5.41422e-05
1.09889e-07
-5.42087e-05
1.16703e-07
-5.42767e-05
1.24425e-07
-5.43465e-05
1.33151e-07
-5.44181e-05
1.43336e-07
-5.4491e-05
1.55052e-07
-5.45659e-05
1.67498e-07
-5.4643e-05
1.81093e-07
-5.47223e-05
1.96042e-07
-5.48041e-05
2.12423e-07
-5.48884e-05
2.30246e-07
-5.49755e-05
2.49538e-07
-5.50656e-05
2.704e-07
-5.51584e-05
2.92596e-07
-5.52545e-05
3.15534e-07
-5.53544e-05
3.38951e-07
-5.54582e-05
3.62477e-07
-5.55663e-05
3.85504e-07
-5.56791e-05
4.07261e-07
-5.57969e-05
4.26796e-07
-5.59201e-05
4.42959e-07
-5.60492e-05
4.54386e-07
-5.61845e-05
4.59509e-07
-5.63268e-05
4.56613e-07
-5.64765e-05
4.44006e-07
-5.66337e-05
4.19766e-07
-5.6799e-05
3.81876e-07
-5.69719e-05
3.29051e-07
-5.71502e-05
2.5897e-07
-5.73317e-05
1.71755e-07
-5.75124e-05
6.75331e-08
-5.76867e-05
-5.23774e-08
-5.78451e-05
-1.88543e-07
-5.79697e-05
-3.45809e-07
-5.8033e-05
-5.31806e-07
-5.79899e-05
-7.64297e-07
-5.77578e-05
-1.081e-06
-5.7189e-05
-1.55663e-06
-5.60116e-05
-2.32353e-06
-5.37448e-05
-3.59972e-06
-4.97062e-05
-5.60527e-06
-7.95358e-06
-4.35353e-05
-4.88767e-05
8.35655e-08
-4.8926e-05
1.20383e-07
-4.89876e-05
1.46917e-07
-4.90574e-05
1.64273e-07
-4.91325e-05
1.74992e-07
-4.92108e-05
1.81316e-07
-4.92914e-05
1.8491e-07
-4.93734e-05
1.86781e-07
-4.94564e-05
1.87576e-07
-4.95402e-05
1.87687e-07
-4.96246e-05
1.87355e-07
-4.97095e-05
1.8673e-07
-4.97947e-05
1.8591e-07
-4.98803e-05
1.84954e-07
-4.99662e-05
1.83907e-07
-5.00523e-05
1.82793e-07
-5.01386e-05
1.81642e-07
-5.0225e-05
1.80466e-07
-5.03115e-05
1.79281e-07
-5.03981e-05
1.78073e-07
-5.04847e-05
1.76864e-07
-5.05713e-05
1.75643e-07
-5.06578e-05
1.74443e-07
-5.07442e-05
1.73224e-07
-5.08303e-05
1.72033e-07
-5.09163e-05
1.70818e-07
-5.10021e-05
1.69627e-07
-5.10876e-05
1.6841e-07
-5.11728e-05
1.6721e-07
-5.12577e-05
1.65879e-07
-5.13422e-05
1.64558e-07
-5.14261e-05
1.63263e-07
-5.15091e-05
1.61931e-07
-5.15913e-05
1.60515e-07
-5.16726e-05
1.59143e-07
-5.17531e-05
1.57795e-07
-5.18327e-05
1.5655e-07
-5.19114e-05
1.55367e-07
-5.19894e-05
1.5427e-07
-5.20666e-05
1.5327e-07
-5.2143e-05
1.52392e-07