/*--------------------------------*- C++ -*----------------------------------*\
| =========                 |                                                 |
| \\      /  F ield         | OpenFOAM: The Open Source CFD Toolbox           |
|  \\    /   O peration     | Version:  2.1.0                                 |
|   \\  /    A nd           | Web:      www.OpenFOAM.org                      |
|    \\/     M anipulation  |                                                 |
\*---------------------------------------------------------------------------*/
FoamFile
{
    version     2.0;
    format      ascii;
    class       volScalarField;
    location    "0.19";
    object      rho;
}
// * * * * * * * * * * * * * * * * * * * * * * * * * * * * * * * * * * * * * //

dimensions      [1 -3 0 0 0 0 0];

internalField   nonuniform List<scalar> 
6400
(
1000
1000
1000
1000
1000
1000
1000
1000
1000
1000
1000
1000
1000
1000
1000
1000
1000
1000
1000
1000
1000
1000
1000
1000
1000
1000
1000
1000
1000
1000
1000
1000
1000
1000
1000
1000
1000
1000
1000
1000
1000
1000
1000
1000
1000
1000
1000
999.999
999.999
999.999
999.999
999.999
999.999
999.999
999.998
999.998
999.998
999.997
999.997
999.996
999.995
999.995
999.994
999.993
999.991
999.99
999.988
999.986
999.984
999.982
999.979
999.975
999.971
999.966
999.961
999.955
999.948
999.94
999.93
999.919
999.905
999.89
999.872
999.851
999.826
999.797
999.763
999.724
999.68
999.632
999.583
999.541
999.525
999.568
999.694
999.661
998.618
995.366
991.132
988.198
1000
1000
1000
1000
1000
1000
1000
1000
1000
1000
1000
1000
1000
1000
1000
1000
1000
1000
1000
1000
1000
1000
1000
1000
1000
1000
1000
1000
1000
1000
1000
1000
1000
1000
1000
1000
1000
1000
1000
1000
999.999
999.999
999.999
999.999
999.999
999.999
999.998
999.998
999.998
999.997
999.997
999.996
999.995
999.994
999.993
999.992
999.991
999.989
999.987
999.985
999.982
999.979
999.975
999.971
999.966
999.96
999.953
999.945
999.936
999.926
999.913
999.899
999.882
999.862
999.839
999.812
999.781
999.744
999.702
999.652
999.593
999.525
999.445
999.351
999.242
999.115
998.968
998.797
998.599
998.369
998.1
997.778
997.374
996.829
996.047
994.906
993.397
991.48
989.338
987.443
1000
1000
1000
1000
1000
1000
1000
1000
1000
1000
1000
1000
1000
1000
1000
1000
1000
1000
1000
1000
1000
1000
1000
1000
1000
1000
1000
1000
1000
1000
1000
1000
1000
1000
1000
999.999
999.999
999.999
999.999
999.999
999.999
999.998
999.998
999.998
999.997
999.997
999.996
999.995
999.994
999.993
999.992
999.99
999.989
999.986
999.984
999.981
999.978
999.974
999.969
999.963
999.957
999.949
999.94
999.93
999.918
999.903
999.887
999.867
999.845
999.818
999.787
999.751
999.709
999.661
999.603
999.537
999.459
999.369
999.263
999.14
998.998
998.833
998.642
998.422
998.17
997.882
997.554
997.184
996.767
996.3
995.778
995.195
994.542
993.808
992.977
992.038
990.964
989.734
988.392
987.074
1000
1000
1000
1000
1000
1000
1000
1000
1000
1000
1000
1000
1000
1000
1000
1000
1000
1000
1000
1000
1000
1000
1000
1000
1000
1000
1000
1000
1000
1000
1000
999.999
999.999
999.999
999.999
999.999
999.999
999.998
999.998
999.998
999.997
999.997
999.996
999.995
999.994
999.993
999.991
999.99
999.988
999.985
999.983
999.979
999.975
999.971
999.966
999.959
999.952
999.943
999.933
999.921
999.907
999.891
999.872
999.849
999.824
999.794
999.759
999.718
999.672
999.617
999.555
999.483
999.4
999.306
999.197
999.073
998.933
998.773
998.593
998.39
998.163
997.91
997.629
997.318
996.977
996.603
996.196
995.754
995.278
994.764
994.214
993.624
992.994
992.323
991.608
990.85
990.025
989.13
988.186
987.263
1000
1000
1000
1000
1000
1000
1000
1000
1000
1000
1000
1000
1000
1000
1000
1000
1000
1000
1000
1000
1000
1000
1000
1000
1000
1000
1000
1000
999.999
999.999
999.999
999.999
999.999
999.999
999.998
999.998
999.997
999.997
999.996
999.995
999.994
999.993
999.992
999.99
999.988
999.986
999.983
999.98
999.976
999.971
999.966
999.96
999.952
999.944
999.934
999.922
999.908
999.892
999.874
999.852
999.827
999.799
999.766
999.728
999.685
999.635
999.579
999.515
999.443
999.361
999.269
999.165
999.05
998.92
998.777
998.617
998.441
998.247
998.035
997.802
997.548
997.273
996.975
996.653
996.308
995.937
995.541
995.118
994.668
994.191
993.684
993.149
992.586
991.995
991.378
990.741
990.072
989.383
988.702
988.117
1000
1000
1000
1000
1000
1000
1000
1000
1000
1000
1000
1000
1000
1000
1000
1000
1000
1000
1000
1000
1000
1000
1000
1000
1000
999.999
999.999
999.999
999.999
999.999
999.999
999.998
999.998
999.997
999.997
999.996
999.995
999.994
999.993
999.992
999.99
999.988
999.986
999.983
999.98
999.976
999.972
999.966
999.96
999.953
999.945
999.935
999.924
999.911
999.897
999.88
999.86
999.838
999.813
999.784
999.751
999.714
999.672
999.624
999.571
999.512
999.446
999.372
999.29
999.199
999.099
998.988
998.866
998.733
998.588
998.43
998.258
998.071
997.87
997.652
997.419
997.168
996.9
996.613
996.307
995.981
995.633
995.264
994.872
994.456
994.015
993.55
993.061
992.549
992.019
991.477
990.929
990.393
989.916
989.615
1000
1000
1000
1000
1000
1000
1000
1000
1000
1000
1000
1000
1000
1000
1000
1000
1000
1000
1000
1000
1000
1000
1000
999.999
999.999
999.999
999.999
999.999
999.998
999.998
999.998
999.997
999.997
999.996
999.995
999.994
999.993
999.992
999.99
999.988
999.986
999.984
999.981
999.977
999.973
999.969
999.963
999.957
999.95
999.942
999.933
999.922
999.91
999.896
999.88
999.862
999.842
999.82
999.794
999.766
999.734
999.698
999.659
999.615
999.566
999.512
999.453
999.388
999.316
999.238
999.152
999.059
998.957
998.846
998.726
998.596
998.456
998.305
998.142
997.967
997.78
997.579
997.364
997.134
996.888
996.626
996.345
996.046
995.727
995.387
995.025
994.64
994.234
993.808
993.365
992.913
992.471
992.061
991.74
991.639
1000
1000
1000
1000
1000
1000
1000
1000
1000
1000
1000
1000
1000
1000
1000
1000
1000
1000
1000
1000
1000
1000
999.999
999.999
999.999
999.999
999.999
999.998
999.998
999.998
999.997
999.997
999.996
999.996
999.995
999.994
999.993
999.991
999.99
999.988
999.986
999.984
999.981
999.978
999.975
999.971
999.966
999.961
999.955
999.948
999.941
999.932
999.923
999.912
999.9
999.887
999.872
999.856
999.837
999.817
999.794
999.769
999.741
999.711
999.677
999.64
999.6
999.556
999.507
999.454
999.396
999.333
999.265
999.19
999.109
999.021
998.927
998.824
998.713
998.594
998.465
998.327
998.178
998.019
997.848
997.665
997.467
997.254
997.025
996.779
996.513
996.228
995.922
995.597
995.253
994.896
994.555
994.249
994.037
994.033
1000
1000
1000
1000
1000
1000
1000
1000
1000
1000
1000
1000
1000
1000
1000
1000
1000
1000
1000
1000
1000
1000
999.999
999.999
999.999
999.999
999.999
999.999
999.998
999.998
999.998
999.997
999.997
999.996
999.996
999.995
999.994
999.993
999.992
999.991
999.99
999.988
999.987
999.985
999.982
999.98
999.977
999.974
999.97
999.966
999.961
999.956
999.951
999.944
999.937
999.929
999.92
999.911
999.9
999.888
999.875
999.861
999.845
999.828
999.809
999.788
999.765
999.74
999.713
999.683
999.651
999.616
999.578
999.537
999.492
999.444
999.393
999.337
999.277
999.212
999.143
999.068
998.987
998.9
998.807
998.707
998.6
998.484
998.359
998.223
998.074
997.912
997.736
997.544
997.334
997.108
996.874
996.674
996.54
996.554
1000
1000
1000
1000
1000
1000
1000
1000
1000
1000
1000
1000
1000
1000
1000
1000
1000
1000
1000
1000
1000
1000
1000
1000
999.999
999.999
999.999
999.999
999.999
999.999
999.999
999.998
999.998
999.998
999.998
999.997
999.997
999.996
999.996
999.995
999.994
999.993
999.992
999.991
999.99
999.989
999.987
999.985
999.984
999.981
999.979
999.976
999.973
999.97
999.966
999.962
999.958
999.953
999.947
999.941
999.935
999.928
999.92
999.911
999.902
999.892
999.881
999.869
999.856
999.842
999.826
999.81
999.793
999.774
999.755
999.734
999.712
999.688
999.663
999.637
999.61
999.581
999.551
999.519
999.485
999.449
999.412
999.373
999.332
999.289
999.244
999.196
999.146
999.092
999.035
998.974
998.908
998.836
998.789
998.8
1000
1000
1000
1000
1000
1000
1000
1000
1000
1000
1000
1000
1000
1000
1000
1000
1000
1000
1000
1000
1000
1000
1000
1000
1000
1000
1000
1000
1000
999.999
999.999
999.999
999.999
999.999
999.999
999.999
999.998
999.998
999.998
999.998
999.997
999.997
999.996
999.996
999.995
999.995
999.994
999.993
999.992
999.991
999.99
999.989
999.988
999.986
999.985
999.983
999.981
999.979
999.976
999.974
999.971
999.968
999.965
999.961
999.958
999.954
999.949
999.945
999.94
999.935
999.929
999.924
999.918
999.911
999.905
999.899
999.892
999.885
999.879
999.872
999.866
999.86
999.854
999.848
999.843
999.838
999.833
999.829
999.825
999.822
999.82
999.819
999.82
999.822
999.827
999.833
999.842
999.854
999.87
999.887
1000
1000
1000
1000
1000
1000
1000
1000
1000
1000
1000
1000
1000
1000
1000
1000
1000
1000
1000
1000
1000
1000
1000
1000
1000
1000
1000
1000
1000
1000
1000
1000
1000
1000
1000
999.999
999.999
999.999
999.999
999.999
999.999
999.999
999.999
999.998
999.998
999.998
999.998
999.997
999.997
999.997
999.996
999.996
999.995
999.995
999.994
999.994
999.993
999.992
999.992
999.991
999.99
999.989
999.988
999.987
999.986
999.985
999.984
999.982
999.981
999.98
999.979
999.977
999.976
999.975
999.974
999.973
999.972
999.971
999.97
999.97
999.97
999.97
999.97
999.97
999.971
999.972
999.973
999.974
999.975
999.976
999.978
999.979
999.981
999.983
999.985
999.987
999.989
999.991
999.993
999.994
1000
1000
1000
1000
1000
1000
1000
1000
1000
1000
1000
1000
1000
1000
1000
1000
1000
1000
1000
1000
1000
1000
1000
1000
1000
1000
1000
1000
1000
1000
1000
1000
1000
1000
1000
1000
1000
1000
1000
1000
1000
1000
1000
1000
999.999
999.999
999.999
999.999
999.999
999.999
999.999
999.999
999.999
999.999
999.998
999.998
999.998
999.998
999.998
999.998
999.998
999.997
999.997
999.997
999.997
999.997
999.996
999.996
999.996
999.996
999.996
999.996
999.995
999.995
999.995
999.995
999.995
999.995
999.996
999.996
999.996
999.996
999.996
999.997
999.997
999.997
999.998
999.998
999.998
999.999
999.999
999.999
999.999
999.999
999.999
1000
1000
1000
1000
1000
1000
1000
1000
1000
1000
1000
1000
1000
1000
1000
1000
1000
1000
1000
1000
1000
1000
1000
1000
1000
1000
1000
1000
1000
1000
1000
1000
1000
1000
1000
1000
1000
1000
1000
1000
1000
1000
1000
1000
1000
1000
1000
1000
1000
1000
1000
1000
1000
1000
1000
1000
1000
1000
1000
1000
1000
1000
1000
1000
1000
999.999
999.999
999.999
999.999
999.999
999.999
999.999
999.999
999.999
999.999
999.999
999.999
999.999
999.999
999.999
999.999
999.999
999.999
999.999
1000
1000
1000
1000
1000
1000
1000
1000
1000
1000
1000
1000
1000
1000
1000
1000
1000
1000
1000
1000
1000
1000
1000
1000
1000
1000
1000
1000
1000
1000
1000
1000
1000
1000
1000
1000
1000
1000
1000
1000
1000
1000
1000
1000
1000
1000
1000
1000
1000
1000
1000
1000
1000
1000
1000
1000
1000
1000
1000
1000
1000
1000
1000
1000
1000
1000
1000
1000
1000
1000
1000
1000
1000
1000
1000
1000
1000
1000
1000
1000
1000
1000
1000
1000
1000
1000
1000
1000
1000
1000
1000
1000
1000
1000
1000
1000
1000
1000
1000
1000
1000
1000
1000
1000
1000
1000
1000
1000
1000
1000
1000
1000
1000
1000
1000
1000
1000
1000
1000
1000
1000
1000
1000
1000
1000
1000
1000
1000
1000
1000
1000
1000
1000
1000
1000
1000
1000
1000
1000
1000
1000
1000
1000
1000
1000
1000
1000
1000
1000
1000
1000
1000
1000
1000
1000
1000
1000
1000
1000
1000
1000
1000
1000
1000
1000
1000
1000
1000
1000
1000
1000
1000
1000
1000
1000
1000
1000
1000
1000
1000
1000
1000
1000
1000
1000
1000
1000
1000
1000
1000
1000
1000
1000
1000
1000
1000
1000
1000
1000
1000
1000
1000
1000
1000
1000
1000
1000
1000
1000
1000
1000
1000
1000
1000
1000
1000
1000
1000
1000
1000
1000
1000
1000
1000
1000
1000
1000
1000
1000
1000
1000
1000
1000
1000
1000
1000
1000
1000
1000
1000
1000
1000
1000
1000
1000
1000
1000
1000
1000
1000
1000
1000
1000
1000
1000
1000
1000
1000
1000
1000
1000
1000
1000
1000
1000
1000
1000
1000
1000
1000
1000
1000
1000
1000
1000
1000
1000
1000
1000
1000
1000
1000
1000
1000
1000
1000
1000
1000
1000
1000
1000
1000
1000
1000
1000
1000
1000
1000
1000
1000
1000
1000
1000
1000
1000
1000
1000
1000
1000
1000
1000
1000
1000
1000
1000
1000
1000
1000
1000
1000
1000
1000
1000
1000
1000
1000
1000
1000
1000
1000
1000
1000
1000
1000
1000
1000
1000
1000
1000
1000
1000
1000
1000
1000
1000
1000
1000
1000
1000
1000
1000
1000
1000
1000
1000
1000
1000
1000
1000
1000
1000
1000
1000
1000
1000
1000
1000
1000
1000
1000
1000
1000
1000
1000
1000
1000
1000
1000
1000
1000
1000
1000
1000
1000
1000
1000
1000
1000
1000
1000
1000
1000
1000
1000
1000
1000
1000
1000
1000
1000
1000
1000
1000
1000
1000
1000
1000
1000
1000
1000
1000
1000
1000
1000
1000
1000
1000
1000
1000
1000
1000
1000
1000
1000
1000
1000
1000
1000
1000
1000
1000
1000
1000
1000
1000
1000
1000
1000
1000
1000
1000
1000
1000
1000
1000
1000
1000
1000
1000
1000
1000
1000
1000
1000
1000
1000
1000
1000
1000
1000
1000
1000
1000
1000
1000
1000
1000
1000
1000
1000
1000
1000
1000
1000
1000
1000
1000
1000
1000
1000
1000
1000
1000
1000
1000
1000
1000
1000
1000
1000
1000
1000
1000
1000
1000
1000
1000
1000
1000
1000
1000
1000
1000
1000
1000
1000
1000
1000
1000
1000
1000
1000
1000
1000
1000
1000
1000
1000
1000
1000
1000
1000
1000
1000
1000
1000
1000
1000
1000
1000
1000
1000
1000
1000
1000
1000
1000
1000
1000
1000
1000
1000
1000
1000
1000
1000
1000
1000
1000
1000
1000
1000
1000
1000
1000
1000
1000
1000
1000
1000
1000
1000
1000
1000
1000
1000
1000
1000
1000
1000
1000
1000
1000
1000
1000
1000
1000
1000
1000
1000
1000
1000
1000
1000
1000
1000
1000
1000
1000
1000
1000
1000
1000
1000
1000
1000
1000
1000
1000
1000
1000
1000
1000
1000
1000
1000
1000
1000
1000
1000
1000
1000
1000
1000
1000
1000
1000
1000
1000
1000
1000
986.865
983.24
983.042
983.81
984.671
985.411
985.988
986.414
986.722
986.958
987.169
987.413
987.759
988.299
989.149
990.438
992.255
994.572
997.128
999.361
986.028
983.957
984.233
985.114
985.982
986.699
987.253
987.67
987.988
988.254
988.515
988.825
989.251
989.872
990.781
992.061
993.747
995.777
997.888
999.599
985.858
985.057
985.65
986.55
987.373
988.042
988.564
988.971
989.304
989.604
989.917
990.293
990.787
991.466
992.39
993.608
995.12
996.843
998.528
999.772
986.508
986.537
987.276
988.117
988.855
989.458
989.943
990.341
990.689
991.024
991.385
991.812
992.352
993.047
993.938
995.045
996.351
997.757
999.045
999.886
987.883
988.329
989.069
989.802
990.437
990.968
991.413
991.801
992.161
992.521
992.912
993.363
993.907
994.573
995.383
996.341
997.416
998.508
999.439
999.951
989.783
990.346
990.995
991.601
992.13
992.588
992.993
993.363
993.718
994.077
994.464
994.899
995.404
995.996
996.686
997.468
998.299
999.092
999.712
999.983
992.009
992.519
993.037
993.513
993.94
994.323
994.671
994.998
995.316
995.64
995.986
996.365
996.791
997.272
997.812
998.396
998.987
999.514
999.879
999.995
994.414
994.796
995.168
995.512
995.825
996.111
996.378
996.634
996.886
997.143
997.411
997.697
998.009
998.351
998.721
999.107
999.48
999.786
999.961
999.999
996.813
997.038
997.256
997.459
997.649
997.826
997.997
998.16
998.32
998.48
998.642
998.812
998.992
999.184
999.389
999.599
999.791
999.931
999.991
1000
998.903
998.984
999.064
999.141
999.215
999.284
999.349
999.409
999.467
999.522
999.577
999.633
999.692
999.755
999.822
999.891
999.951
999.987
999.999
1000
999.906
999.913
999.92
999.928
999.935
999.942
999.948
999.954
999.959
999.965
999.97
999.976
999.981
999.986
999.991
999.995
999.998
1000
1000
1000
999.995
999.996
999.996
999.996
999.997
999.997
999.997
999.998
999.998
999.998
999.999
999.999
999.999
999.999
1000
1000
1000
1000
1000
1000
1000
1000
1000
1000
1000
1000
1000
1000
1000
1000
1000
1000
1000
1000
1000
1000
1000
1000
1000
1000
1000
1000
1000
1000
1000
1000
1000
1000
1000
1000
1000
1000
1000
1000
1000
1000
1000
1000
1000
1000
1000
1000
1000
1000
1000
1000
1000
1000
1000
1000
1000
1000
1000
1000
1000
1000
1000
1000
1000
1000
1000
1000
1000
1000
1000
1000
1000
1000
1000
1000
1000
1000
1000
1000
1000
1000
1000
1000
1000
1000
1000
1000
1000
1000
1000
1000
1000
1000
1000
1000
1000
1000
1000
1000
1000
1000
1000
1000
1000
1000
1000
1000
1000
1000
1000
1000
1000
1000
1000
1000
1000
1000
1000
1000
1000
1000
1000
1000
1000
1000
1000
1000
1000
1000
1000
1000
1000
1000
1000
1000
1000
1000
1000
1000
1000
1000
1000
1000
1000
1000
1000
1000
1000
1000
1000
1000
1000
1000
1000
1000
1000
1000
1000
1000
1000
1000
1000
1000
1000
1000
944.555
944.555
944.555
944.555
944.555
944.555
944.555
944.555
944.555
944.555
944.555
944.555
944.555
944.555
944.555
944.555
944.555
944.555
944.555
944.555
944.555
944.555
944.555
944.555
944.555
944.555
944.555
944.555
944.555
944.555
944.555
944.555
944.555
944.555
944.555
944.555
944.555
944.555
944.555
944.555
944.555
944.555
944.555
944.555
944.555
944.555
944.555
944.555
944.555
944.555
944.555
944.555
944.555
944.555
944.555
944.555
944.555
944.555
944.555
944.555
944.555
944.555
944.555
944.555
944.555
944.555
944.555
944.555
944.555
944.555
944.555
944.555
944.555
944.555
944.555
944.555
944.555
944.555
944.555
944.555
944.555
944.555
944.555
944.555
944.555
944.555
944.555
944.555
944.555
944.555
944.555
944.555
944.555
944.555
944.555
944.555
944.555
944.555
944.555
944.555
944.555
944.555
944.555
944.555
944.555
944.555
944.555
944.555
944.555
944.555
944.555
944.555
944.555
944.555
944.555
944.555
944.555
944.555
944.555
944.555
944.555
944.555
944.555
944.555
944.555
944.555
944.555
944.555
944.555
944.555
944.555
944.555
944.555
944.555
944.555
944.555
944.555
944.555
944.555
944.555
944.555
944.555
944.555
944.555
944.555
944.555
944.555
944.555
944.555
944.555
944.555
944.555
944.555
944.555
944.555
944.555
944.555
944.555
944.555
944.555
944.555
944.555
944.555
944.555
944.555
944.555
944.555
944.555
944.555
944.555
944.555
944.555
944.555
944.555
944.555
944.555
944.555
944.555
944.555
944.555
944.555
944.555
944.555
944.555
944.555
944.555
944.555
944.555
944.555
944.555
944.555
944.555
944.555
944.555
944.555
944.555
944.555
944.555
944.555
944.555
944.555
944.555
944.555
944.555
944.555
944.555
944.555
944.555
944.555
944.555
944.555
944.555
944.555
944.555
944.555
944.555
944.555
944.555
944.555
944.555
944.555
944.555
944.555
944.555
944.555
944.555
944.555
944.555
944.555
944.555
944.555
944.555
944.555
944.555
944.555
944.555
944.555
944.555
944.555
944.555
944.555
944.555
944.555
944.555
944.555
944.555
944.555
944.555
944.555
944.555
944.555
944.555
944.555
944.555
944.555
944.555
944.555
944.555
944.555
944.555
944.555
944.555
944.555
944.555
944.555
944.555
944.555
944.555
944.555
944.555
944.555
944.555
944.555
944.555
944.555
944.555
944.555
944.555
944.555
944.555
944.555
944.555
944.555
944.555
944.555
944.555
944.555
944.555
944.555
944.555
944.555
944.555
944.555
944.555
944.555
944.555
944.555
944.555
944.555
944.555
944.555
944.555
944.555
944.555
944.555
944.555
944.555
944.555
944.555
944.555
944.555
944.555
944.555
944.555
944.555
944.555
944.555
944.555
944.555
944.555
944.555
944.555
944.555
944.555
944.555
944.555
944.555
944.555
944.555
944.555
944.555
944.555
944.555
944.555
944.555
944.555
944.555
944.555
944.555
944.555
944.555
944.555
944.555
944.555
944.555
944.555
944.555
944.555
944.555
944.555
944.555
944.555
944.555
944.555
944.555
944.555
944.555
944.555
944.555
944.555
944.555
944.555
944.555
944.555
944.555
944.555
944.555
944.555
944.555
944.555
944.555
944.555
944.555
944.555
944.555
944.555
944.555
944.555
944.555
944.555
944.555
944.555
944.555
944.555
944.555
944.555
944.555
944.555
944.555
944.555
944.555
944.555
944.555
944.555
944.555
944.555
944.555
944.555
944.555
944.555
944.555
944.555
944.555
944.555
944.555
944.555
944.555
944.555
944.555
944.555
944.555
944.555
944.555
944.555
944.555
944.555
944.555
944.555
944.555
944.555
944.555
944.555
944.555
944.555
944.555
944.555
944.555
944.555
944.555
944.555
944.555
944.555
944.555
944.555
944.555
944.555
944.555
944.555
944.555
944.555
944.555
944.555
944.555
944.555
944.555
944.555
944.555
944.555
944.555
944.555
944.555
944.555
944.555
944.555
944.555
944.555
944.555
944.555
944.555
944.555
944.555
944.555
944.555
944.555
944.555
944.555
944.555
944.555
944.555
944.555
944.555
944.555
944.555
944.555
944.555
944.555
944.555
944.555
944.555
944.555
944.555
944.555
944.555
944.555
944.555
944.555
944.555
944.555
944.555
944.555
944.555
944.555
944.555
944.555
944.555
944.555
944.555
944.555
944.555
944.555
944.555
944.555
944.555
944.555
944.555
944.555
944.555
944.555
944.555
944.555
944.555
944.555
944.555
944.555
944.555
944.555
944.555
944.555
944.555
944.555
944.555
944.555
944.555
944.555
944.555
944.555
944.555
944.555
944.555
944.555
944.555
944.555
944.555
944.555
944.555
944.555
944.555
944.555
944.555
944.555
944.555
944.555
944.555
944.555
944.555
944.555
944.555
944.555
944.555
944.555
944.555
944.555
944.555
944.555
944.555
944.555
944.555
944.555
944.555
944.555
944.555
944.555
944.555
944.555
944.555
944.555
944.555
944.555
944.555
944.555
944.555
944.555
944.555
944.555
944.555
944.555
944.555
944.555
944.555
944.555
944.555
944.555
944.555
944.555
944.555
944.555
944.555
944.555
944.555
944.555
944.555
944.555
944.555
944.555
944.555
944.555
944.555
944.555
944.555
944.555
944.555
944.555
944.555
944.555
944.555
944.555
944.555
944.555
944.555
944.555
944.555
944.555
944.555
944.555
944.555
944.555
944.555
944.555
944.555
944.555
944.555
944.555
944.555
944.555
944.555
944.555
944.555
944.555
944.555
944.555
944.555
944.555
944.555
944.555
944.555
944.555
944.555
944.555
944.555
944.555
944.555
944.555
944.555
944.555
944.555
944.555
944.555
944.555
944.555
944.555
944.555
944.555
944.555
944.555
944.555
944.555
944.555
944.555
944.555
944.555
944.555
944.555
944.555
944.555
944.555
944.555
944.555
944.555
944.555
944.555
944.555
944.555
944.555
944.555
944.555
944.555
944.555
944.555
944.555
944.555
944.555
944.555
944.555
944.555
944.555
944.555
944.555
944.555
944.555
944.555
944.555
944.555
944.555
944.555
944.555
944.555
944.555
944.555
944.555
944.555
944.555
944.555
944.555
944.555
944.555
944.555
944.555
944.555
944.555
944.555
944.555
944.555
944.555
944.555
944.555
944.555
944.555
944.555
944.555
944.555
944.555
944.555
944.555
944.555
944.555
944.555
944.555
944.555
944.555
944.555
944.555
944.555
944.555
944.555
944.555
944.555
944.555
944.555
944.555
944.555
944.555
944.555
944.555
944.555
944.555
944.555
944.555
944.555
944.555
944.555
944.555
944.555
944.555
944.555
944.555
944.555
944.555
944.555
944.555
944.555
944.555
944.555
944.555
944.555
944.555
944.555
944.555
944.555
944.555
944.555
944.555
944.555
944.555
944.555
944.555
944.555
944.555
944.555
944.555
944.555
944.555
944.555
944.555
944.555
944.555
944.555
944.555
944.555
944.555
944.555
944.555
944.555
944.555
944.555
944.555
944.555
944.555
944.555
944.555
944.555
944.555
944.555
944.555
944.555
944.555
944.555
944.555
944.555
944.555
944.555
944.555
944.555
944.555
944.555
944.555
944.555
944.555
944.555
944.555
944.555
944.555
944.555
944.555
944.555
944.555
944.555
944.555
944.555
944.555
944.555
944.555
944.555
944.555
944.555
944.555
944.555
944.555
944.555
944.555
944.555
944.555
944.555
944.555
944.555
944.555
944.555
944.555
944.555
944.555
944.555
944.555
944.555
944.555
944.555
944.555
944.555
944.555
944.555
944.555
944.555
944.555
944.555
944.555
944.555
944.555
944.555
944.555
944.555
944.555
944.555
944.555
944.555
944.555
944.555
944.555
944.555
944.555
944.555
944.555
944.555
944.555
944.555
944.555
944.555
944.555
944.555
944.555
944.555
944.555
944.555
944.555
944.555
944.555
944.555
944.555
944.555
944.555
944.555
944.555
944.555
944.555
944.555
944.555
944.555
944.555
944.555
944.555
944.555
944.555
944.555
944.555
944.555
944.555
944.555
944.555
944.555
944.555
944.555
944.555
944.555
944.555
944.555
944.555
944.555
944.555
944.555
944.555
944.555
944.555
944.555
944.555
944.555
944.555
944.555
944.555
944.555
944.555
944.555
944.555
944.555
944.555
944.555
944.555
944.555
944.555
944.555
944.555
944.555
944.555
944.555
944.555
944.555
944.555
944.555
944.555
944.555
944.555
944.555
944.555
944.555
944.555
944.555
944.555
944.555
944.555
944.555
944.555
944.555
944.555
944.555
944.555
944.555
944.555
944.555
944.555
944.555
944.555
944.555
944.555
944.555
944.556
944.555
944.555
944.555
944.555
944.555
944.555
944.555
944.555
944.555
944.555
944.555
944.555
944.555
944.555
944.555
944.555
944.555
944.555
944.556
944.557
944.555
944.555
944.555
944.555
944.555
944.555
944.555
944.555
944.555
944.555
944.555
944.555
944.555
944.555
944.555
944.555
944.555
944.555
944.557
944.559
944.555
944.555
944.555
944.555
944.555
944.555
944.555
944.555
944.555
944.555
944.555
944.555
944.555
944.555
944.555
944.555
944.555
944.555
944.559
944.562
944.556
944.555
944.555
944.555
944.555
944.555
944.555
944.555
944.555
944.555
944.555
944.555
944.555
944.555
944.555
944.555
944.555
944.556
944.562
944.566
944.557
944.556
944.555
944.555
944.555
944.555
944.555
944.555
944.555
944.555
944.555
944.555
944.555
944.555
944.555
944.555
944.556
944.557
944.566
944.574
944.559
944.556
944.556
944.556
944.556
944.556
944.556
944.556
944.556
944.556
944.556
944.556
944.556
944.556
944.556
944.556
944.556
944.559
944.574
944.585
944.561
944.557
944.556
944.556
944.556
944.556
944.557
944.557
944.557
944.557
944.557
944.557
944.556
944.556
944.556
944.556
944.557
944.561
944.585
944.603
944.565
944.559
944.557
944.557
944.557
944.557
944.557
944.558
944.558
944.558
944.558
944.557
944.557
944.557
944.557
944.557
944.559
944.565
944.603
944.629
944.571
944.561
944.559
944.559
944.559
944.559
944.559
944.559
944.559
944.559
944.559
944.559
944.559
944.559
944.559
944.559
944.561
944.571
944.628
944.666
944.58
944.564
944.561
944.561
944.561
944.561
944.561
944.561
944.561
944.561
944.561
944.561
944.561
944.561
944.561
944.561
944.564
944.58
944.666
944.72
944.592
944.569
944.564
944.563
944.563
944.564
944.564
944.564
944.564
944.564
944.564
944.564
944.564
944.563
944.563
944.564
944.569
944.592
944.72
944.796
944.611
944.576
944.569
944.568
944.568
944.568
944.568
944.568
944.569
944.569
944.568
944.568
944.568
944.568
944.568
944.569
944.576
944.611
944.795
944.9
944.637
944.587
944.576
944.574
944.573
944.574
944.574
944.575
944.575
944.575
944.575
944.574
944.574
944.573
944.574
944.576
944.587
944.637
944.899
945.041
944.673
944.601
944.585
944.582
944.582
944.582
944.583
944.583
944.583
944.583
944.583
944.583
944.582
944.582
944.582
944.585
944.601
944.673
945.04
945.228
944.722
944.622
944.599
944.594
944.593
944.594
944.595
944.595
944.596
944.596
944.595
944.595
944.594
944.593
944.594
944.599
944.622
944.722
945.227
945.472
944.788
944.65
944.617
944.61
944.61
944.61
944.611
944.612
944.612
944.612
944.612
944.611
944.61
944.61
944.61
944.617
944.65
944.788
945.472
945.786
944.875
944.687
944.643
944.633
944.632
944.632
944.633
944.634
944.635
944.635
944.634
944.633
944.632
944.632
944.633
944.643
944.687
944.875
945.786
946.183
944.989
944.738
944.677
944.664
944.661
944.662
944.664
944.665
944.666
944.666
944.665
944.664
944.662
944.662
944.664
944.677
944.738
944.99
946.184
946.678
945.136
944.805
944.723
944.705
944.702
944.703
944.704
944.706
944.707
944.707
944.706
944.704
944.703
944.702
944.705
944.724
944.805
945.137
946.68
947.285
945.322
944.892
944.784
944.759
944.755
944.756
944.758
944.76
944.761
944.761
944.76
944.758
944.756
944.755
944.76
944.785
944.893
945.324
947.289
948.018
945.555
945.004
944.864
944.831
944.825
944.826
944.829
944.831
944.832
944.833
944.831
944.829
944.827
944.826
944.832
944.865
945.005
945.559
948.025
948.89
945.844
945.146
944.968
944.925
944.917
944.918
944.921
944.924
944.925
944.926
944.924
944.921
944.918
944.918
944.926
944.969
945.149
945.849
948.901
949.913
946.195
945.326
945.1
945.046
945.035
945.036
945.04
945.043
945.045
945.045
945.044
945.04
945.037
945.036
945.047
945.103
945.331
946.205
949.93
951.096
946.619
945.55
945.269
945.2
945.186
945.187
945.191
945.196
945.198
945.198
945.196
945.192
945.188
945.188
945.202
945.273
945.558
946.634
951.12
952.444
947.123
945.827
945.48
945.395
945.377
945.378
945.383
945.388
945.391
945.392
945.389
945.384
945.379
945.379
945.398
945.486
945.839
947.148
952.479
953.959
947.719
946.165
945.743
945.638
945.616
945.617
945.623
945.629
945.633
945.633
945.63
945.625
945.619
945.619
945.643
945.751
946.182
947.755
954.009
955.638
948.415
946.575
946.067
945.94
945.913
945.913
945.921
945.928
945.932
945.933
945.929
945.923
945.917
945.917
945.947
946.078
946.597
948.465
955.707
957.474
949.221
947.066
946.462
946.31
946.276
946.277
946.286
946.294
946.3
946.3
946.296
946.289
946.282
946.283
946.319
946.477
947.096
949.288
957.567
959.456
950.144
947.649
946.939
946.758
946.718
946.718
946.729
946.739
946.746
946.747
946.742
946.734
946.725
946.727
946.771
946.959
947.689
950.232
959.576
961.565
951.191
948.334
947.508
947.296
947.25
947.25
947.262
947.274
947.282
947.283
947.278
947.268
947.259
947.262
947.314
947.536
948.388
951.305
961.718
963.782
952.366
949.13
948.181
947.936
947.881
947.882
947.897
947.911
947.92
947.922
947.916
947.905
947.895
947.899
947.96
948.219
949.204
952.516
963.972
966.078
953.67
950.046
948.967
948.687
948.625
948.627
948.644
948.662
948.673
948.675
948.669
948.657
948.644
948.65
948.72
949.019
950.147
953.868
966.317
968.427
955.102
951.089
949.875
949.56
949.492
949.495
949.517
949.537
949.551
949.554
949.547
949.533
949.519
949.525
949.606
949.949
951.228
955.366
968.726
970.797
956.655
952.261
950.914
950.564
950.491
950.497
950.523
950.548
950.565
950.569
950.562
950.546
950.53
950.536
950.628
951.016
952.455
957.01
971.175
973.157
958.32
953.564
952.088
951.706
951.63
951.64
951.673
951.704
951.724
951.73
951.722
951.703
951.685
951.691
951.794
952.229
953.833
958.799
973.636
975.473
960.085
954.996
953.399
952.99
952.913
952.931
952.972
953.01
953.034
953.042
953.034
953.013
952.991
952.996
953.109
953.595
955.366
960.728
976.084
977.71
961.933
956.549
954.846
954.417
954.345
954.373
954.424
954.47
954.5
954.511
954.502
954.478
954.452
954.455
954.578
955.114
957.056
962.79
978.492
979.837
963.844
958.214
956.425
955.985
955.921
955.963
956.026
956.082
956.12
956.136
956.127
956.1
956.069
956.069
956.201