/*--------------------------------*- C++ -*----------------------------------*\
| =========                 |                                                 |
| \\      /  F ield         | OpenFOAM: The Open Source CFD Toolbox           |
|  \\    /   O peration     | Version:  2.1.0                                 |
|   \\  /    A nd           | Web:      www.OpenFOAM.org                      |
|    \\/     M anipulation  |                                                 |
\*---------------------------------------------------------------------------*/
FoamFile
{
    version     2.0;
    format      ascii;
    class       volScalarField;
    location    "0.19";
    object      T;
}
// * * * * * * * * * * * * * * * * * * * * * * * * * * * * * * * * * * * * * //

dimensions      [0 0 0 1 0 0 0];

internalField   nonuniform List<scalar> 
6400
(
293.15
293.15
293.15
293.15
293.15
293.15
293.15
293.15
293.15
293.15
293.15
293.15
293.15
293.15
293.15
293.15
293.15
293.15
293.15
293.15
293.15
293.15
293.15
293.15
293.15
293.15
293.15
293.15
293.15
293.15
293.15
293.15
293.15
293.15
293.15
293.15
293.15
293.15
293.15
293.15
293.15
293.15
293.15
293.15
293.151
293.151
293.151
293.151
293.151
293.151
293.151
293.152
293.152
293.152
293.153
293.153
293.154
293.155
293.156
293.157
293.158
293.159
293.161
293.163
293.165
293.167
293.17
293.173
293.177
293.181
293.187
293.192
293.199
293.207
293.216
293.227
293.239
293.253
293.269
293.289
293.311
293.337
293.368
293.404
293.447
293.496
293.554
293.62
293.695
293.777
293.861
293.932
293.959
293.886
293.672
293.728
295.508
301.081
308.391
313.494
293.15
293.15
293.15
293.15
293.15
293.15
293.15
293.15
293.15
293.15
293.15
293.15
293.15
293.15
293.15
293.15
293.15
293.15
293.15
293.15
293.15
293.15
293.15
293.15
293.15
293.15
293.15
293.15
293.15
293.15
293.15
293.15
293.15
293.15
293.15
293.15
293.15
293.151
293.151
293.151
293.151
293.151
293.151
293.152
293.152
293.152
293.153
293.153
293.154
293.155
293.156
293.157
293.158
293.16
293.161
293.164
293.166
293.169
293.172
293.176
293.181
293.186
293.192
293.2
293.208
293.218
293.23
293.243
293.259
293.277
293.298
293.323
293.352
293.385
293.424
293.47
293.523
293.586
293.658
293.744
293.843
293.96
294.096
294.256
294.442
294.658
294.91
295.202
295.54
295.933
296.392
296.944
297.636
298.568
299.91
301.871
304.473
307.787
311.508
314.812
293.15
293.15
293.15
293.15
293.15
293.15
293.15
293.15
293.15
293.15
293.15
293.15
293.15
293.15
293.15
293.15
293.15
293.15
293.15
293.15
293.15
293.15
293.15
293.15
293.15
293.15
293.15
293.15
293.15
293.15
293.15
293.15
293.15
293.151
293.151
293.151
293.151
293.151
293.152
293.152
293.152
293.153
293.153
293.154
293.155
293.156
293.157
293.158
293.16
293.162
293.164
293.166
293.169
293.173
293.177
293.182
293.188
293.195
293.203
293.213
293.224
293.237
293.252
293.27
293.29
293.315
293.343
293.376
293.415
293.46
293.512
293.574
293.645
293.729
293.826
293.939
294.072
294.226
294.406
294.616
294.859
295.141
295.467
295.843
296.274
296.767
297.327
297.961
298.675
299.477
300.373
301.375
302.499
303.764
305.198
306.822
308.683
310.82
313.157
315.457
293.15
293.15
293.15
293.15
293.15
293.15
293.15
293.15
293.15
293.15
293.15
293.15
293.15
293.15
293.15
293.15
293.15
293.15
293.15
293.15
293.15
293.15
293.15
293.15
293.15
293.15
293.15
293.15
293.15
293.151
293.151
293.151
293.151
293.151
293.152
293.152
293.152
293.153
293.153
293.154
293.155
293.156
293.157
293.159
293.16
293.162
293.165
293.167
293.171
293.175
293.18
293.185
293.192
293.2
293.209
293.22
293.232
293.247
293.264
293.285
293.309
293.336
293.369
293.407
293.451
293.502
293.561
293.63
293.71
293.802
293.908
294.031
294.172
294.334
294.519
294.73
294.97
295.243
295.551
295.897
296.285
296.718
297.199
297.731
298.316
298.957
299.655
300.413
301.233
302.116
303.065
304.081
305.168
306.329
307.567
308.88
310.314
311.87
313.515
315.126
293.15
293.15
293.15
293.15
293.15
293.15
293.15
293.15
293.15
293.15
293.15
293.15
293.15
293.15
293.15
293.15
293.15
293.15
293.15
293.15
293.15
293.15
293.15
293.15
293.15
293.151
293.151
293.151
293.151
293.151
293.151
293.152
293.152
293.153
293.153
293.154
293.155
293.156
293.157
293.158
293.16
293.162
293.164
293.167
293.17
293.174
293.179
293.184
293.191
293.199
293.208
293.218
293.231
293.246
293.263
293.283
293.307
293.334
293.365
293.402
293.444
293.493
293.549
293.614
293.687
293.772
293.868
293.977
294.1
294.24
294.397
294.573
294.771
294.991
295.236
295.508
295.809
296.141
296.505
296.903
297.337
297.808
298.319
298.87
299.463
300.099
300.78
301.507
302.281
303.104
303.977
304.9
305.874
306.897
307.965
309.07
310.231
311.43
312.616
313.635
293.15
293.15
293.15
293.15
293.15
293.15
293.15
293.15
293.15
293.15
293.15
293.15
293.15
293.15
293.15
293.15
293.15
293.15
293.15
293.15
293.15
293.15
293.15
293.151
293.151
293.151
293.151
293.151
293.152
293.152
293.153
293.153
293.154
293.155
293.156
293.157
293.158
293.16
293.162
293.164
293.167
293.17
293.174
293.179
293.184
293.191
293.198
293.207
293.218
293.23
293.244
293.26
293.279
293.301
293.326
293.355
293.388
293.426
293.469
293.519
293.575
293.638
293.709
293.79
293.88
293.982
294.095
294.221
294.361
294.516
294.687
294.876
295.083
295.311
295.559
295.829
296.124
296.442
296.787
297.159
297.558
297.988
298.448
298.94
299.465
300.025
300.621
301.256
301.931
302.647
303.407
304.209
305.054
305.938
306.855
307.793
308.743
309.674
310.503
311.026
293.15
293.15
293.15
293.15
293.15
293.15
293.15
293.15
293.15
293.15
293.15
293.15
293.15
293.15
293.15
293.15
293.15
293.15
293.15
293.15
293.151
293.151
293.151
293.151
293.151
293.151
293.152
293.152
293.153
293.153
293.154
293.155
293.156
293.157
293.158
293.16
293.162
293.164
293.167
293.17
293.173
293.178
293.183
293.188
293.195
293.203
293.212
293.223
293.235
293.249
293.265
293.283
293.304
293.327
293.354
293.385
293.419
293.458
293.501
293.549
293.604
293.664
293.732
293.807
293.89
293.981
294.082
294.194
294.316
294.45
294.596
294.755
294.929
295.118
295.323
295.545
295.784
296.042
296.321
296.62
296.941
297.285
297.653
298.047
298.468
298.918
299.399
299.912
300.46
301.045
301.668
302.33
303.029
303.764
304.529
305.309
306.073
306.783
307.337
307.513
293.15
293.15
293.15
293.15
293.15
293.15
293.15
293.15
293.15
293.15
293.15
293.15
293.15
293.15
293.15
293.15
293.15
293.15
293.15
293.151
293.151
293.151
293.151
293.151
293.151
293.152
293.152
293.153
293.153
293.154
293.154
293.155
293.156
293.158
293.159
293.161
293.162
293.165
293.167
293.17
293.174
293.178
293.182
293.187
293.193
293.2
293.208
293.217
293.227
293.238
293.251
293.265
293.281
293.299
293.32
293.342
293.368
293.396
293.427
293.462
293.501
293.544
293.591
293.643
293.7
293.763
293.832
293.908
293.99
294.081
294.179
294.287
294.404
294.531
294.669
294.819
294.981
295.156
295.345
295.549
295.769
296.005
296.259
296.531
296.823
297.138
297.476
297.84
298.232
298.655
299.111
299.601
300.125
300.684
301.275
301.889
302.477
303.004
303.37
303.376
293.15
293.15
293.15
293.15
293.15
293.15
293.15
293.15
293.15
293.15
293.15
293.15
293.15
293.15
293.15
293.15
293.15
293.15
293.15
293.151
293.151
293.151
293.151
293.151
293.151
293.152
293.152
293.152
293.153
293.153
293.154
293.154
293.155
293.156
293.157
293.158
293.16
293.161
293.163
293.165
293.167
293.17
293.173
293.176
293.18
293.184
293.189
293.195
293.201
293.208
293.216
293.225
293.234
293.245
293.257
293.271
293.286
293.302
293.32
293.34
293.363
293.387
293.414
293.444
293.476
293.512
293.55
293.593
293.639
293.69
293.744
293.804
293.869
293.939
294.015
294.097
294.185
294.281
294.383
294.493
294.612
294.74
294.877
295.025
295.184
295.355
295.538
295.736
295.95
296.183
296.437
296.714
297.016
297.345
297.703
298.09
298.492
298.835
299.065
299.041
293.15
293.15
293.15
293.15
293.15
293.15
293.15
293.15
293.15
293.15
293.15
293.15
293.15
293.15
293.15
293.15
293.15
293.15
293.15
293.15
293.15
293.151
293.151
293.151
293.151
293.151
293.151
293.151
293.152
293.152
293.152
293.153
293.153
293.154
293.154
293.155
293.156
293.156
293.157
293.159
293.16
293.161
293.163
293.165
293.167
293.169
293.172
293.175
293.178
293.182
293.186
293.19
293.195
293.201
293.207
293.214
293.222
293.23
293.239
293.25
293.261
293.273
293.287
293.301
293.317
293.335
293.354
293.374
293.396
293.42
293.446
293.473
293.503
293.534
293.568
293.604
293.642
293.682
293.724
293.768
293.815
293.864
293.916
293.97
294.028
294.088
294.153
294.22
294.289
294.362
294.439
294.52
294.606
294.698
294.795
294.899
295.013
295.134
295.215
295.197
293.15
293.15
293.15
293.15
293.15
293.15
293.15
293.15
293.15
293.15
293.15
293.15
293.15
293.15
293.15
293.15
293.15
293.15
293.15
293.15
293.15
293.15
293.15
293.15
293.15
293.151
293.151
293.151
293.151
293.151
293.151
293.151
293.152
293.152
293.152
293.152
293.153
293.153
293.154
293.154
293.155
293.155
293.156
293.157
293.158
293.159
293.16
293.162
293.163
293.165
293.167
293.169
293.171
293.173
293.176
293.179
293.182
293.186
293.19
293.194
293.199
293.204
293.21
293.216
293.222
293.229
293.236
293.244
293.253
293.261
293.271
293.28
293.29
293.301
293.312
293.323
293.334
293.345
293.357
293.368
293.379
293.389
293.399
293.409
293.418
293.427
293.435
293.442
293.449
293.454
293.457
293.458
293.457
293.453
293.446
293.434
293.419
293.398
293.372
293.342
293.15
293.15
293.15
293.15
293.15
293.15
293.15
293.15
293.15
293.15
293.15
293.15
293.15
293.15
293.15
293.15
293.15
293.15
293.15
293.15
293.15
293.15
293.15
293.15
293.15
293.15
293.15
293.15
293.15
293.15
293.15
293.151
293.151
293.151
293.151
293.151
293.151
293.151
293.151
293.152
293.152
293.152
293.152
293.153
293.153
293.153
293.154
293.154
293.155
293.156
293.156
293.157
293.158
293.159
293.159
293.16
293.162
293.163
293.164
293.165
293.167
293.169
293.17
293.172
293.174
293.176
293.178
293.18
293.182
293.184
293.186
293.188
293.191
293.193
293.195
293.196
293.198
293.199
293.2
293.201
293.202
293.202
293.201
293.201
293.199
293.198
293.196
293.194
293.192
293.19
293.188
293.185
293.183
293.179
293.176
293.173
293.169
293.166
293.163
293.16
293.15
293.15
293.15
293.15
293.15
293.15
293.15
293.15
293.15
293.15
293.15
293.15
293.15
293.15
293.15
293.15
293.15
293.15
293.15
293.15
293.15
293.15
293.15
293.15
293.15
293.15
293.15
293.15
293.15
293.15
293.15
293.15
293.15
293.15
293.15
293.15
293.15
293.15
293.15
293.151
293.151
293.151
293.151
293.151
293.151
293.151
293.151
293.151
293.151
293.152
293.152
293.152
293.152
293.152
293.153
293.153
293.153
293.153
293.154
293.154
293.154
293.155
293.155
293.155
293.156
293.156
293.156
293.157
293.157
293.157
293.157
293.158
293.158
293.158
293.158
293.158
293.158
293.158
293.158
293.157
293.157
293.157
293.156
293.156
293.155
293.154
293.154
293.153
293.153
293.152
293.152
293.152
293.151
293.151
293.151
293.151
293.151
293.15
293.15
293.15
293.15
293.15
293.15
293.15
293.15
293.15
293.15
293.15
293.15
293.15
293.15
293.15
293.15
293.15
293.15
293.15
293.15
293.15
293.15
293.15
293.15
293.15
293.15
293.15
293.15
293.15
293.15
293.15
293.15
293.15
293.15
293.15
293.15
293.15
293.15
293.15
293.15
293.15
293.15
293.15
293.15
293.15
293.15
293.15
293.15
293.15
293.15
293.15
293.15
293.15
293.15
293.151
293.151
293.151
293.151
293.151
293.151
293.151
293.151
293.151
293.151
293.151
293.151
293.151
293.151
293.151
293.151
293.151
293.151
293.151
293.151
293.151
293.151
293.151
293.151
293.151
293.151
293.151
293.151
293.151
293.151
293.151
293.151
293.15
293.15
293.15
293.15
293.15
293.15
293.15
293.15
293.15
293.15
293.15
293.15
293.15
293.15
293.15
293.15
293.15
293.15
293.15
293.15
293.15
293.15
293.15
293.15
293.15
293.15
293.15
293.15
293.15
293.15
293.15
293.15
293.15
293.15
293.15
293.15
293.15
293.15
293.15
293.15
293.15
293.15
293.15
293.15
293.15
293.15
293.15
293.15
293.15
293.15
293.15
293.15
293.15
293.15
293.15
293.15
293.15
293.15
293.15
293.15
293.15
293.15
293.15
293.15
293.15
293.15
293.15
293.15
293.15
293.15
293.15
293.15
293.15
293.15
293.15
293.15
293.15
293.15
293.15
293.15
293.15
293.15
293.15
293.15
293.15
293.15
293.15
293.15
293.15
293.15
293.15
293.15
293.15
293.15
293.15
293.15
293.15
293.15
293.15
293.15
293.15
293.15
293.15
293.15
293.15
293.15
293.15
293.15
293.15
293.15
293.15
293.15
293.15
293.15
293.15
293.15
293.15
293.15
293.15
293.15
293.15
293.15
293.15
293.15
293.15
293.15
293.15
293.15
293.15
293.15
293.15
293.15
293.15
293.15
293.15
293.15
293.15
293.15
293.15
293.15
293.15
293.15
293.15
293.15
293.15
293.15
293.15
293.15
293.15
293.15
293.15
293.15
293.15
293.15
293.15
293.15
293.15
293.15
293.15
293.15
293.15
293.15
293.15
293.15
293.15
293.15
293.15
293.15
293.15
293.15
293.15
293.15
293.15
293.15
293.15
293.15
293.15
293.15
293.15
293.15
293.15
293.15
293.15
293.15
293.15
293.15
293.15
293.15
293.15
293.15
293.15
293.15
293.15
293.15
293.15
293.15
293.15
293.15
293.15
293.15
293.15
293.15
293.15
293.15
293.15
293.15
293.15
293.15
293.15
293.15
293.15
293.15
293.15
293.15
293.15
293.15
293.15
293.15
293.15
293.15
293.15
293.15
293.15
293.15
293.15
293.15
293.15
293.15
293.15
293.15
293.15
293.15
293.15
293.15
293.15
293.15
293.15
293.15
293.15
293.15
293.15
293.15
293.15
293.15
293.15
293.15
293.15
293.15
293.15
293.15
293.15
293.15
293.15
293.15
293.15
293.15
293.15
293.15
293.15
293.15
293.15
293.15
293.15
293.15
293.15
293.15
293.15
293.15
293.15
293.15
293.15
293.15
293.15
293.15
293.15
293.15
293.15
293.15
293.15
293.15
293.15
293.15
293.15
293.15
293.15
293.15
293.15
293.15
293.15
293.15
293.15
293.15
293.15
293.15
293.15
293.15
293.15
293.15
293.15
293.15
293.15
293.15
293.15
293.15
293.15
293.15
293.15
293.15
293.15
293.15
293.15
293.15
293.15
293.15
293.15
293.15
293.15
293.15
293.15
293.15
293.15
293.15
293.15
293.15
293.15
293.15
293.15
293.15
293.15
293.15
293.15
293.15
293.15
293.15
293.15
293.15
293.15
293.15
293.15
293.15
293.15
293.15
293.15
293.15
293.15
293.15
293.15
293.15
293.15
293.15
293.15
293.15
293.15
293.15
293.15
293.15
293.15
293.15
293.15
293.15
293.15
293.15
293.15
293.15
293.15
293.15
293.15
293.15
293.15
293.15
293.15
293.15
293.15
293.15
293.15
293.15
293.15
293.15
293.15
293.15
293.15
293.15
293.15
293.15
293.15
293.15
293.15
293.15
293.15
293.15
293.15
293.15
293.15
293.15
293.15
293.15
293.15
293.15
293.15
293.15
293.15
293.15
293.15
293.15
293.15
293.15
293.15
293.15
293.15
293.15
293.15
293.15
293.15
293.15
293.15
293.15
293.15
293.15
293.15
293.15
293.15
293.15
293.15
293.15
293.15
293.15
293.15
293.15
293.15
293.15
293.15
293.15
293.15
293.15
293.15
293.15
293.15
293.15
293.15
293.15
293.15
293.15
293.15
293.15
293.15
293.15
293.15
293.15
293.15
293.15
293.15
293.15
293.15
293.15
293.15
293.15
293.15
293.15
293.15
293.15
293.15
293.15
293.15
293.15
293.15
293.15
293.15
293.15
293.15
293.15
293.15
293.15
293.15
293.15
293.15
293.15
293.15
293.15
293.15
293.15
293.15
293.15
293.15
293.15
293.15
293.15
293.15
293.15
293.15
293.15
293.15
293.15
293.15
293.15
293.15
293.15
293.15
293.15
293.15
293.15
293.15
293.15
293.15
293.15
293.15
293.15
293.15
293.15
293.15
293.15
293.15
293.15
293.15
293.15
293.15
293.15
293.15
293.15
293.15
293.15
293.15
293.15
293.15
293.15
293.15
293.15
293.15
293.15
293.15
293.15
293.15
293.15
293.15
293.15
293.15
293.15
293.15
293.15
293.15
293.15
293.15
293.15
293.15
293.15
293.15
293.15
293.15
293.15
293.15
293.15
293.15
293.15
293.15
293.15
293.15
293.15
293.15
293.15
293.15
293.15
293.15
293.15
293.15
293.15
293.15
293.15
293.15
293.15
293.15
293.15
293.15
293.15
293.15
293.15
293.15
293.15
293.15
293.15
293.15
293.15
293.15
293.15
293.15
293.15
293.15
293.15
293.15
293.15
293.15
293.15
293.15
293.15
293.15
293.15
293.15
293.15
293.15
293.15
293.15
293.15
293.15
293.15
293.15
293.15
293.15
293.15
293.15
293.15
293.15
293.15
293.15
293.15
293.15
293.15
293.15
293.15
293.15
315.822
322.185
322.535
321.182
319.667
318.369
317.357
316.611
316.071
315.66
315.29
314.864
314.26
313.318
311.837
309.596
306.446
302.447
298.057
294.24
317.288
320.923
320.437
318.89
317.368
316.113
315.144
314.416
313.86
313.396
312.941
312.4
311.659
310.578
309
306.782
303.868
300.375
296.756
293.834
317.585
318.99
317.949
316.374
314.934
313.766
312.856
312.146
311.567
311.044
310.5
309.848
308.989
307.813
306.212
304.109
301.504
298.545
295.662
293.538
316.447
316.396
315.104
313.636
312.348
311.298
310.456
309.764
309.16
308.579
307.953
307.213
306.279
305.077
303.54
301.633
299.39
296.979
294.778
293.344
314.044
313.265
311.975
310.7
309.597
308.677
307.904
307.232
306.609
305.986
305.311
304.532
303.593
302.446
301.052
299.405
297.563
295.696
294.107
293.233
310.734
309.755
308.628
307.579
306.663
305.87
305.17
304.531
303.919
303.3
302.633
301.884
301.016
299.998
298.814
297.475
296.053
294.698
293.64
293.179
306.872
305.989
305.094
304.272
303.536
302.876
302.276
301.714
301.167
300.609
300.016
299.365
298.635
297.81
296.886
295.887
294.878
293.978
293.357
293.158
302.718
302.061
301.421
300.83
300.293
299.8
299.342
298.904
298.472
298.031
297.572
297.081
296.548
295.964
295.332
294.672
294.036
293.515
293.217
293.151
298.597
298.21
297.837
297.489
297.165
296.861
296.57
296.29
296.016
295.744
295.466
295.176
294.869
294.541
294.192
293.834
293.506
293.268
293.166
293.15
295.02
294.883
294.746
294.615
294.489
294.37
294.26
294.157
294.059
293.964
293.871
293.775
293.675
293.568
293.454
293.336
293.234
293.172
293.152
293.15
293.309
293.299
293.286
293.273
293.261
293.249
293.239
293.229
293.219
293.21
293.201
293.192
293.183
293.174
293.165
293.158
293.153
293.151
293.15
293.15
293.158
293.157
293.157
293.156
293.156
293.155
293.155
293.154
293.154
293.153
293.152
293.152
293.151
293.151
293.151
293.15
293.15
293.15
293.15
293.15
293.15
293.15
293.15
293.15
293.15
293.15
293.15
293.15
293.15
293.15
293.15
293.15
293.15
293.15
293.15
293.15
293.15
293.15
293.15
293.15
293.15
293.15
293.15
293.15
293.15
293.15
293.15
293.15
293.15
293.15
293.15
293.15
293.15
293.15
293.15
293.15
293.15
293.15
293.15
293.15
293.15
293.15
293.15
293.15
293.15
293.15
293.15
293.15
293.15
293.15
293.15
293.15
293.15
293.15
293.15
293.15
293.15
293.15
293.15
293.15
293.15
293.15
293.15
293.15
293.15
293.15
293.15
293.15
293.15
293.15
293.15
293.15
293.15
293.15
293.15
293.15
293.15
293.15
293.15
293.15
293.15
293.15
293.15
293.15
293.15
293.15
293.15
293.15
293.15
293.15
293.15
293.15
293.15
293.15
293.15
293.15
293.15
293.15
293.15
293.15
293.15
293.15
293.15
293.15
293.15
293.15
293.15
293.15
293.15
293.15
293.15
293.15
293.15
293.15
293.15
293.15
293.15
293.15
293.15
293.15
293.15
293.15
293.15
293.15
293.15
293.15
293.15
293.15
293.15
293.15
293.15
293.15
293.15
293.15
293.15
293.15
293.15
293.15
293.15
293.15
293.15
293.15
293.15
293.15
293.15
293.15
293.15
293.15
293.15
293.15
293.15
293.15
293.15
293.15
293.15
293.15
293.15
293.15
293.15
293.15
393.15
393.15
393.15
393.15
393.15
393.15
393.15
393.15
393.15
393.15
393.15
393.15
393.15
393.15
393.15
393.15
393.15
393.15
393.15
393.15
393.15
393.15
393.15
393.15
393.15
393.15
393.15
393.15
393.15
393.15
393.15
393.15
393.15
393.15
393.15
393.15
393.15
393.15
393.15
393.15
393.15
393.15
393.15
393.15
393.15
393.15
393.15
393.15
393.15
393.15
393.15
393.15
393.15
393.15
393.15
393.15
393.15
393.15
393.15
393.15
393.15
393.15
393.15
393.15
393.15
393.15
393.15
393.15
393.15
393.15
393.15
393.15
393.15
393.15
393.15
393.15
393.15
393.15
393.15
393.15
393.15
393.15
393.15
393.15
393.15
393.15
393.15
393.15
393.15
393.15
393.15
393.15
393.15
393.15
393.15
393.15
393.15
393.15
393.15
393.15
393.15
393.15
393.15
393.15
393.15
393.15
393.15
393.15
393.15
393.15
393.15
393.15
393.15
393.15
393.15
393.15
393.15
393.15
393.15
393.15
393.15
393.15
393.15
393.15
393.15
393.15
393.15
393.15
393.15
393.15
393.15
393.15
393.15
393.15
393.15
393.15
393.15
393.15
393.15
393.15
393.15
393.15
393.15
393.15
393.15
393.15
393.15
393.15
393.15
393.15
393.15
393.15
393.15
393.15
393.15
393.15
393.15
393.15
393.15
393.15
393.15
393.15
393.15
393.15
393.15
393.15
393.15
393.15
393.15
393.15
393.15
393.15
393.15
393.15
393.15
393.15
393.15
393.15
393.15
393.15
393.15
393.15
393.15
393.15
393.15
393.15
393.15
393.15
393.15
393.15
393.15
393.15
393.15
393.15
393.15
393.15
393.15
393.15
393.15
393.15
393.15
393.15
393.15
393.15
393.15
393.15
393.15
393.15
393.15
393.15
393.15
393.15
393.15
393.15
393.15
393.15
393.15
393.15
393.15
393.15
393.15
393.15
393.15
393.15
393.15
393.15
393.15
393.15
393.15
393.15
393.15
393.15
393.15
393.15
393.15
393.15
393.15
393.15
393.15
393.15
393.15
393.15
393.15
393.15
393.15
393.15
393.15
393.15
393.15
393.15
393.15
393.15
393.15
393.15
393.15
393.15
393.15
393.15
393.15
393.15
393.15
393.15
393.15
393.15
393.15
393.15
393.15
393.15
393.15
393.15
393.15
393.15
393.15
393.15
393.15
393.15
393.15
393.15
393.15
393.15
393.15
393.15
393.15
393.15
393.15
393.15
393.15
393.15
393.15
393.15
393.15
393.15
393.15
393.15
393.15
393.15
393.15
393.15
393.15
393.15
393.15
393.15
393.15
393.15
393.15
393.15
393.15
393.15
393.15
393.15
393.15
393.15
393.15
393.15
393.15
393.15
393.15
393.15
393.15
393.15
393.15
393.15
393.15
393.15
393.15
393.15
393.15
393.15
393.15
393.15
393.15
393.15
393.15
393.15
393.15
393.15
393.15
393.15
393.15
393.15
393.15
393.15
393.15
393.15
393.15
393.15
393.15
393.15
393.15
393.15
393.15
393.15
393.15
393.15
393.15
393.15
393.15
393.15
393.15
393.15
393.15
393.15
393.15
393.15
393.15
393.15
393.15
393.15
393.15
393.15
393.15
393.15
393.15
393.15
393.15
393.15
393.15
393.15
393.15
393.15
393.15
393.15
393.15
393.15
393.15
393.15
393.15
393.15
393.15
393.15
393.15
393.15
393.15
393.15
393.15
393.15
393.15
393.15
393.15
393.15
393.15
393.15
393.15
393.15
393.15
393.15
393.15
393.15
393.15
393.15
393.15
393.15
393.15
393.15
393.15
393.15
393.15
393.15
393.15
393.15
393.15
393.15
393.15
393.15
393.15
393.15
393.15
393.15
393.15
393.15
393.15
393.15
393.15
393.15
393.15
393.15
393.15
393.15
393.15
393.15
393.15
393.15
393.15
393.15
393.15
393.15
393.15
393.15
393.15
393.15
393.15
393.15
393.15
393.15
393.15
393.15
393.15
393.15
393.15
393.15
393.15
393.15
393.15
393.15
393.15
393.15
393.15
393.15
393.15
393.15
393.15
393.15
393.15
393.15
393.15
393.15
393.15
393.15
393.15
393.15
393.15
393.15
393.15
393.15
393.15
393.15
393.15
393.15
393.15
393.15
393.15
393.15
393.15
393.15
393.15
393.15
393.15
393.15
393.15
393.15
393.15
393.15
393.15
393.15
393.15
393.15
393.15
393.15
393.15
393.15
393.15
393.15
393.15
393.15
393.15
393.15
393.15
393.15
393.15
393.15
393.15
393.15
393.15
393.15
393.15
393.15
393.15
393.15
393.15
393.15
393.15
393.15
393.15
393.15
393.15
393.15
393.15
393.15
393.15
393.15
393.15
393.15
393.15
393.15
393.15
393.15
393.15
393.15
393.15
393.15
393.15
393.15
393.15
393.15
393.15
393.15
393.15
393.15
393.15
393.15
393.15
393.15
393.15
393.15
393.15
393.15
393.15
393.15
393.15
393.15
393.15
393.15
393.15
393.15
393.15
393.15
393.15
393.15
393.15
393.15
393.15
393.15
393.15
393.15
393.15
393.15
393.15
393.15
393.15
393.15
393.15
393.15
393.15
393.15
393.15
393.15
393.15
393.15
393.15
393.15
393.15
393.15
393.15
393.15
393.15
393.15
393.15
393.15
393.15
393.15
393.15
393.15
393.15
393.15
393.15
393.15
393.15
393.15
393.15
393.15
393.15
393.15
393.15
393.15
393.15
393.15
393.15
393.15
393.15
393.15
393.15
393.15
393.15
393.15
393.15
393.15
393.15
393.15
393.15
393.15
393.15
393.15
393.15
393.15
393.15
393.15
393.15
393.15
393.15
393.15
393.15
393.15
393.15
393.15
393.15
393.15
393.15
393.15
393.15
393.15
393.15
393.15
393.15
393.15
393.15
393.15
393.15
393.15
393.15
393.15
393.15
393.15
393.15
393.15
393.15
393.15
393.15
393.15
393.15
393.15
393.15
393.15
393.15
393.15
393.15
393.15
393.15
393.15
393.15
393.15
393.15
393.15
393.15
393.15
393.15
393.15
393.15
393.15
393.15
393.15
393.15
393.15
393.15
393.15
393.15
393.15
393.15
393.15
393.15
393.15
393.15
393.15
393.15
393.15
393.15
393.15
393.15
393.15
393.15
393.15
393.15
393.15
393.15
393.15
393.15
393.15
393.15
393.15
393.15
393.15
393.15
393.15
393.15
393.15
393.15
393.15
393.15
393.15
393.15
393.15
393.15
393.15
393.15
393.15
393.15
393.15
393.15
393.15
393.15
393.15
393.15
393.15
393.15
393.15
393.15
393.15
393.15
393.15
393.15
393.15
393.15
393.15
393.15
393.15
393.15
393.15
393.15
393.15
393.15
393.15
393.15
393.15
393.15
393.15
393.15
393.15
393.15
393.15
393.15
393.15
393.15
393.15
393.15
393.15
393.15
393.15
393.15
393.15
393.15
393.15
393.15
393.15
393.15
393.15
393.15
393.15
393.15
393.15
393.15
393.15
393.15
393.15
393.15
393.15
393.15
393.15
393.15
393.15
393.15
393.15
393.15
393.15
393.15
393.15
393.15
393.15
393.15
393.15
393.15
393.15
393.15
393.15
393.15
393.15
393.15
393.15
393.15
393.15
393.15
393.15
393.15
393.15
393.15
393.15
393.15
393.15
393.15
393.15
393.15
393.15
393.15
393.15
393.15
393.15
393.15
393.15
393.15
393.15
393.15
393.15
393.15
393.15
393.15
393.15
393.15
393.15
393.15
393.15
393.15
393.15
393.15
393.15
393.15
393.15
393.15
393.15
393.15
393.15
393.15
393.15
393.15
393.15
393.15
393.15
393.15
393.15
393.15
393.15
393.15
393.15
393.15
393.15
393.15
393.15
393.15
393.15
393.15
393.15
393.15
393.15
393.15
393.15
393.15
393.15
393.15
393.15
393.15
393.15
393.15
393.15
393.15
393.15
393.15
393.15
393.15
393.15
393.15
393.15
393.15
393.15
393.15
393.15
393.15
393.15
393.15
393.15
393.15
393.15
393.15
393.15
393.15
393.15
393.15
393.15
393.15
393.15
393.15
393.15
393.15
393.15
393.15
393.15
393.15
393.15
393.15
393.15
393.15
393.15
393.15
393.15
393.149
393.15
393.15
393.15
393.15
393.15
393.15
393.15
393.15
393.15
393.15
393.15
393.15
393.15
393.15
393.15
393.15
393.15
393.15
393.149
393.149
393.15
393.15
393.15
393.15
393.15
393.15
393.15
393.15
393.15
393.15
393.15
393.15
393.15
393.15
393.15
393.15
393.15
393.15
393.149
393.147
393.149
393.15
393.15
393.15
393.15
393.15
393.15
393.15
393.15
393.15
393.15
393.15
393.15
393.15
393.15
393.15
393.15
393.149
393.147
393.145
393.149
393.15
393.15
393.15
393.15
393.15
393.15
393.15
393.15
393.15
393.15
393.15
393.15
393.15
393.15
393.15
393.15
393.149
393.145
393.142
393.148
393.149
393.149
393.149
393.149
393.149
393.149
393.149
393.149
393.149
393.149
393.149
393.149
393.149
393.149
393.149
393.149
393.148
393.142
393.137
393.147
393.149
393.149
393.149
393.149
393.149
393.149
393.149
393.149
393.149
393.149
393.149
393.149
393.149
393.149
393.149
393.149
393.147
393.137
393.128
393.145
393.148
393.149
393.149
393.149
393.149
393.148
393.148
393.148
393.148
393.148
393.148
393.149
393.149
393.149
393.149
393.148
393.145
393.128
393.113
393.142
393.147
393.148
393.148
393.148
393.148
393.148
393.148
393.148
393.148
393.148
393.148
393.148
393.148
393.148
393.148
393.147
393.142
393.114
393.091
393.137
393.145
393.147
393.147
393.147
393.147
393.146
393.146
393.146
393.146
393.146
393.146
393.147
393.147
393.147
393.147
393.145
393.137
393.092
393.058
393.13
393.142
393.145
393.145
393.145
393.145
393.145
393.144
393.144
393.144
393.144
393.145
393.145
393.145
393.145
393.145
393.142
393.13
393.058
393.009
393.119
393.138
393.142
393.143
393.142
393.142
393.142
393.142
393.142
393.142
393.142
393.142
393.142
393.142
393.143
393.142
393.138
393.119
393.009
392.937
393.102
393.132
393.138
393.139
393.139
393.138
393.138
393.138
393.138
393.138
393.138
393.138
393.138
393.139
393.139
393.138
393.132
393.102
392.937
392.834
393.078
393.122
393.132
393.133
393.133
393.133
393.132
393.132
393.132
393.132
393.132
393.132
393.133
393.133
393.133
393.132
393.122
393.078
392.834
392.689
393.043
393.108
393.123
393.125
393.125
393.125
393.124
393.124
393.123
393.123
393.124
393.124
393.125
393.125
393.125
393.123
393.108
393.043
392.69
392.491
392.993
393.089
393.11
393.114
393.114
393.113
393.112
393.112
393.112
393.112
393.112
393.112
393.113
393.114
393.114
393.11
393.089
392.993
392.491
392.222
392.925
393.061
393.091
393.098
393.098
393.097
393.096
393.095
393.095
393.095
393.095
393.096
393.097
393.098
393.098
393.091
393.061
392.925
392.223
391.865
392.831
393.022
393.066
393.075
393.076
393.075
393.074
393.072
393.072
393.072
393.072
393.073
393.075
393.076
393.075
393.066
393.022
392.831
391.866
391.399
392.705
392.969
393.03
393.043
393.045
393.044
393.042
393.041
393.04
393.04
393.041
393.042
393.044
393.045
393.043
393.03
392.969
392.705
391.399
390.801
392.538
392.897
392.982
393
393.003
393.002
392.999
392.998
392.997
392.997
392.998
392.999
393.002
393.003
393
392.981
392.896
392.538
390.8
390.044
392.32
392.8
392.916
392.942
392.946
392.944
392.942
392.939
392.938
392.938
392.939
392.942
392.944
392.946
392.941
392.915
392.799
392.319
390.042
389.102
392.04
392.673
392.828
392.863
392.869
392.867
392.864
392.861
392.86
392.86
392.861
392.864
392.867
392.869
392.863
392.827
392.672
392.038
389.098
387.949
391.685
392.507
392.711
392.759
392.767
392.765
392.761
392.758
392.756
392.756
392.758
392.761
392.765
392.767
392.758
392.71
392.505
391.681
387.942
386.559
391.24
392.293
392.559
392.621
392.633
392.631
392.626
392.622
392.619
392.619
392.621
392.626
392.63
392.632
392.62
392.557
392.289
391.234
386.546
384.906
390.691
392.02
392.361
392.443
392.458
392.456
392.45
392.445
392.442
392.442
392.444
392.449
392.455
392.457
392.44
392.358
392.014
390.68
384.886
382.972
390.021
391.677
392.108
392.212
392.233
392.231
392.224
392.217
392.213
392.213
392.216
392.222
392.229
392.231
392.209
392.103
391.668
390.003
382.941
380.741
389.215
391.25
391.787
391.918
391.945
391.943
391.934
391.926
391.921
391.921
391.925
391.932
391.94
391.941
391.913
391.779
391.235
389.186
380.695
378.206
388.257
390.723
391.384
391.547
391.58
391.579
391.568
391.559
391.553
391.552
391.557
391.566
391.575
391.576
391.54
391.373
390.7
388.209
378.139
375.365
387.126
390.078
390.882
391.082
391.124
391.123
391.111
391.099
391.092
391.091
391.097
391.107
391.118
391.118
391.073
390.867
390.047
387.057
375.271
372.227
385.806
389.299
390.265
390.507
390.559
390.558
390.544
390.53
390.521
390.521
390.527
390.539
390.552
390.55
390.494
390.244
389.256
385.711
372.098
368.808
384.28
388.365
389.513
389.803
389.866
389.866
389.849
389.832
389.822
389.821
389.829
389.843
389.857
389.854
389.785
389.484
388.308
384.154
368.636