/*--------------------------------*- C++ -*----------------------------------*\
| =========                 |                                                 |
| \\      /  F ield         | OpenFOAM: The Open Source CFD Toolbox           |
|  \\    /   O peration     | Version:  2.1.0                                 |
|   \\  /    A nd           | Web:      www.OpenFOAM.org                      |
|    \\/     M anipulation  |                                                 |
\*---------------------------------------------------------------------------*/
FoamFile
{
    version     2.0;
    format      ascii;
    class       volVectorField;
    location    "0.19";
    object      U;
}
// * * * * * * * * * * * * * * * * * * * * * * * * * * * * * * * * * * * * * //

dimensions      [0 1 -1 0 0 0 0];

internalField   nonuniform List<vector> 
6400
(
(-1.22191 -2.92371e-05 0)
(-1.22083 -0.000442042 0)
(-1.21862 -0.000710171 0)
(-1.21555 -0.000847109 0)
(-1.21205 -0.000927843 0)
(-1.20827 -0.000982021 0)
(-1.20431 -0.00102162 0)
(-1.20021 -0.00105309 0)
(-1.19599 -0.00108019 0)
(-1.19167 -0.00110484 0)
(-1.18726 -0.00112837 0)
(-1.18275 -0.00115126 0)
(-1.17815 -0.00117404 0)
(-1.17346 -0.00119674 0)
(-1.16869 -0.00121967 0)
(-1.16382 -0.00124267 0)
(-1.15886 -0.00126597 0)
(-1.15381 -0.00128936 0)
(-1.14866 -0.00131314 0)
(-1.14342 -0.00133719 0)
(-1.13809 -0.00136109 0)
(-1.13266 -0.00138541 0)
(-1.12713 -0.00141121 0)
(-1.1215 -0.00143775 0)
(-1.11576 -0.00146505 0)
(-1.10991 -0.00149315 0)
(-1.10395 -0.00152225 0)
(-1.09787 -0.00155228 0)
(-1.09168 -0.00158335 0)
(-1.08535 -0.00161542 0)
(-1.0789 -0.00164862 0)
(-1.07232 -0.00168293 0)
(-1.06559 -0.0017185 0)
(-1.05873 -0.00175532 0)
(-1.05171 -0.00179357 0)
(-1.04454 -0.00183336 0)
(-1.03721 -0.00187484 0)
(-1.02972 -0.00191814 0)
(-1.02204 -0.00196338 0)
(-1.01419 -0.00201078 0)
(-1.00614 -0.0020605 0)
(-0.997894 -0.00211252 0)
(-0.989436 -0.00216687 0)
(-0.980759 -0.00222362 0)
(-0.971852 -0.00228276 0)
(-0.962708 -0.00234419 0)
(-0.953317 -0.00240786 0)
(-0.943669 -0.00247396 0)
(-0.933761 -0.00254011 0)
(-0.923587 -0.00260822 0)
(-0.913132 -0.00268217 0)
(-0.902377 -0.00275939 0)
(-0.891321 -0.00283621 0)
(-0.879968 -0.0029098 0)
(-0.868327 -0.00298083 0)
(-0.856408 -0.00305141 0)
(-0.844207 -0.00312281 0)
(-0.831722 -0.00319538 0)
(-0.818949 -0.00326894 0)
(-0.805883 -0.00334358 0)
(-0.792519 -0.0034196 0)
(-0.778852 -0.00349703 0)
(-0.764877 -0.003576 0)
(-0.750586 -0.00365685 0)
(-0.735971 -0.00373993 0)
(-0.721023 -0.00382542 0)
(-0.705734 -0.00391324 0)
(-0.690095 -0.00400303 0)
(-0.674097 -0.00409472 0)
(-0.657734 -0.00418824 0)
(-0.640999 -0.00428368 0)
(-0.623882 -0.00438174 0)
(-0.606372 -0.00448366 0)
(-0.58845 -0.00459028 0)
(-0.570098 -0.00470216 0)
(-0.551292 -0.00482075 0)
(-0.532001 -0.00494857 0)
(-0.512181 -0.00508932 0)
(-0.491772 -0.00524805 0)
(-0.470689 -0.00543137 0)
(-0.448821 -0.00564745 0)
(-0.426017 -0.00590622 0)
(-0.40209 -0.00621817 0)
(-0.376814 -0.00659219 0)
(-0.349926 -0.00703717 0)
(-0.321135 -0.00755962 0)
(-0.290138 -0.00815898 0)
(-0.256662 -0.00882094 0)
(-0.220543 -0.0095039 0)
(-0.181885 -0.0101147 0)
(-0.141347 -0.0104633 0)
(-0.100722 -0.0101631 0)
(-0.0637352 -0.00861574 0)
(-0.0358838 -0.00552089 0)
(-0.0216374 -0.00170755 0)
(-0.0242061 0.00300862 0)
(-0.052036 0.0110815 0)
(-0.129691 0.0281047 0)
(-0.321064 0.0676369 0)
(-0.908736 0.188882 0)
(-1.47889 -0.000262872 0)
(-1.47597 -0.00147291 0)
(-1.4739 -0.00217204 0)
(-1.47064 -0.00254403 0)
(-1.46706 -0.00276887 0)
(-1.46325 -0.00292054 0)
(-1.45929 -0.00303149 0)
(-1.45521 -0.00311967 0)
(-1.45103 -0.00319562 0)
(-1.44677 -0.00326473 0)
(-1.44242 -0.00333076 0)
(-1.43801 -0.00339509 0)
(-1.43351 -0.00345927 0)
(-1.42894 -0.00352331 0)
(-1.42429 -0.00358813 0)
(-1.41956 -0.00365326 0)
(-1.41475 -0.00371929 0)
(-1.40987 -0.0037857 0)
(-1.4049 -0.00385296 0)
(-1.39985 -0.00392117 0)
(-1.39472 -0.00398835 0)
(-1.38952 -0.00405586 0)
(-1.38423 -0.00412734 0)
(-1.37886 -0.00420032 0)
(-1.3734 -0.00427497 0)
(-1.36787 -0.00435157 0)
(-1.36224 -0.00443064 0)
(-1.35654 -0.00451201 0)
(-1.35074 -0.00459596 0)
(-1.34485 -0.00468243 0)
(-1.33887 -0.00477166 0)
(-1.33279 -0.00486369 0)
(-1.32661 -0.00495896 0)
(-1.32033 -0.00505744 0)
(-1.31395 -0.00515951 0)
(-1.30746 -0.00526541 0)
(-1.30086 -0.00537547 0)
(-1.29414 -0.00548998 0)
(-1.28731 -0.00560922 0)
(-1.28035 -0.00573363 0)
(-1.27327 -0.00586369 0)
(-1.26606 -0.00599958 0)
(-1.25872 -0.0061415 0)
(-1.25123 -0.0062897 0)
(-1.2436 -0.00644426 0)
(-1.23581 -0.00660509 0)
(-1.22785 -0.00677232 0)
(-1.21973 -0.0069464 0)
(-1.21143 -0.00712245 0)
(-1.20296 -0.0073007 0)
(-1.19432 -0.00748502 0)
(-1.18552 -0.00767216 0)
(-1.1766 -0.00785886 0)
(-1.16753 -0.00804112 0)
(-1.15831 -0.00821907 0)
(-1.14895 -0.00839613 0)
(-1.13943 -0.00857476 0)
(-1.12976 -0.00875554 0)
(-1.11995 -0.00893824 0)
(-1.10998 -0.00912279 0)
(-1.09987 -0.00930935 0)
(-1.08962 -0.00949772 0)
(-1.07923 -0.00968811 0)
(-1.0687 -0.00988146 0)
(-1.05805 -0.0100784 0)
(-1.04726 -0.0102792 0)
(-1.03635 -0.0104837 0)
(-1.02532 -0.0106914 0)
(-1.01417 -0.0109021 0)
(-1.00291 -0.0111159 0)
(-0.991535 -0.0113335 0)
(-0.980045 -0.0115568 0)
(-0.968437 -0.01179 0)
(-0.956698 -0.012036 0)
(-0.944814 -0.0122969 0)
(-0.932765 -0.0125769 0)
(-0.920526 -0.0128828 0)
(-0.908061 -0.0132246 0)
(-0.895324 -0.0136154 0)
(-0.882256 -0.0140718 0)
(-0.868781 -0.0146143 0)
(-0.854807 -0.0152673 0)
(-0.84022 -0.0160575 0)
(-0.824883 -0.017008 0)
(-0.80864 -0.0181408 0)
(-0.791321 -0.0194709 0)
(-0.772759 -0.0209941 0)
(-0.752817 -0.0226705 0)
(-0.731432 -0.0243914 0)
(-0.708693 -0.0259236 0)
(-0.684948 -0.0268108 0)
(-0.660894 -0.0261989 0)
(-0.63769 -0.0227805 0)
(-0.617899 -0.0153887 0)
(-0.608425 -0.00415844 0)
(-0.618399 0.0113989 0)
(-0.660623 0.0373028 0)
(-0.755748 0.0870923 0)
(-0.945283 0.193377 0)
(-1.40681 0.499973 0)
(-1.62499 -0.000759773 0)
(-1.62123 -0.00258685 0)
(-1.61992 -0.00358752 0)
(-1.61715 -0.00414298 0)
(-1.61409 -0.0044849 0)
(-1.61087 -0.00471582 0)
(-1.60751 -0.00488362 0)
(-1.60408 -0.00501668 0)
(-1.60057 -0.0051304 0)
(-1.59701 -0.00523389 0)
(-1.59337 -0.00533235 0)
(-1.58971 -0.00542854 0)
(-1.58597 -0.00552444 0)
(-1.5822 -0.00562053 0)
(-1.57836 -0.00571799 0)
(-1.57448 -0.00581646 0)
(-1.57054 -0.00591657 0)
(-1.56654 -0.00601799 0)
(-1.56247 -0.00612103 0)
(-1.55835 -0.00622632 0)
(-1.55415 -0.00633092 0)
(-1.54989 -0.00643456 0)
(-1.54556 -0.00654069 0)
(-1.54118 -0.00664713 0)
(-1.53675 -0.00675488 0)
(-1.53227 -0.00686497 0)
(-1.52773 -0.0069781 0)
(-1.52315 -0.00709409 0)
(-1.51851 -0.00721314 0)
(-1.51383 -0.00733523 0)
(-1.50909 -0.00746059 0)
(-1.50431 -0.0075892 0)
(-1.49947 -0.00772176 0)
(-1.49458 -0.00785819 0)
(-1.48965 -0.0079988 0)
(-1.48467 -0.00814389 0)
(-1.47963 -0.00829373 0)
(-1.47456 -0.00844864 0)
(-1.46943 -0.00860885 0)
(-1.46427 -0.00877468 0)
(-1.45906 -0.00894676 0)
(-1.45381 -0.00912537 0)
(-1.44852 -0.00931081 0)
(-1.4432 -0.00950343 0)
(-1.43785 -0.00970331 0)
(-1.43247 -0.00991036 0)
(-1.42706 -0.0101248 0)
(-1.42163 -0.0103461 0)
(-1.41618 -0.0105709 0)
(-1.41073 -0.0107967 0)
(-1.40527 -0.0110204 0)
(-1.39981 -0.0112405 0)
(-1.39436 -0.0114595 0)
(-1.38892 -0.011677 0)
(-1.38349 -0.0118914 0)
(-1.37806 -0.012104 0)
(-1.37265 -0.0123166 0)
(-1.36725 -0.0125289 0)
(-1.36189 -0.0127405 0)
(-1.35657 -0.0129509 0)
(-1.3513 -0.0131591 0)
(-1.3461 -0.0133642 0)
(-1.34099 -0.0135659 0)
(-1.33597 -0.0137652 0)
(-1.33109 -0.0139627 0)
(-1.32634 -0.0141573 0)
(-1.32176 -0.014349 0)
(-1.31738 -0.0145367 0)
(-1.31321 -0.0147201 0)
(-1.30928 -0.0148992 0)
(-1.30563 -0.0150748 0)
(-1.30228 -0.0152496 0)
(-1.29926 -0.0154307 0)
(-1.29659 -0.0156239 0)
(-1.29429 -0.0158328 0)
(-1.29236 -0.0160638 0)
(-1.29082 -0.0163277 0)
(-1.28967 -0.0166393 0)
(-1.28889 -0.0170183 0)
(-1.28845 -0.0174885 0)
(-1.28833 -0.0180785 0)
(-1.28846 -0.0188217 0)
(-1.28876 -0.0197553 0)
(-1.28915 -0.0209139 0)
(-1.28952 -0.0223272 0)
(-1.28973 -0.0240135 0)
(-1.28966 -0.0259627 0)
(-1.28924 -0.0281135 0)
(-1.2884 -0.0303128 0)
(-1.28722 -0.0322503 0)
(-1.28587 -0.0333496 0)
(-1.28467 -0.0326378 0)
(-1.2841 -0.0286454 0)
(-1.28516 -0.0194271 0)
(-1.29137 -0.00330661 0)
(-1.30563 0.0217495 0)
(-1.3395 0.0631553 0)
(-1.40788 0.1393 0)
(-1.54082 0.292929 0)
(-1.79495 0.682097 0)
(-1.75823 -0.0013449 0)
(-1.75422 -0.00348581 0)
(-1.75384 -0.00469907 0)
(-1.75191 -0.0053962 0)
(-1.74976 -0.00582851 0)
(-1.74751 -0.00611802 0)
(-1.74515 -0.00632507 0)
(-1.74277 -0.00648715 0)
(-1.74033 -0.0066232 0)
(-1.73789 -0.00674596 0)
(-1.73541 -0.00686139 0)
(-1.73293 -0.00697381 0)
(-1.73043 -0.0070853 0)
(-1.72793 -0.00719691 0)
(-1.7254 -0.0073099 0)
(-1.72289 -0.00742432 0)
(-1.72034 -0.00754048 0)
(-1.71781 -0.00765864 0)
(-1.71526 -0.0077788 0)
(-1.71271 -0.00790092 0)
(-1.71014 -0.00802379 0)
(-1.7076 -0.0081464 0)
(-1.70504 -0.00826813 0)
(-1.70247 -0.00838813 0)
(-1.6999 -0.00850807 0)
(-1.69734 -0.00862994 0)
(-1.69478 -0.00875464 0)
(-1.69224 -0.00888174 0)
(-1.68969 -0.00901128 0)
(-1.68716 -0.00914316 0)
(-1.68464 -0.00927747 0)
(-1.68214 -0.00941405 0)
(-1.67966 -0.00955346 0)
(-1.67721 -0.00969565 0)
(-1.67479 -0.00984082 0)
(-1.6724 -0.0099891 0)
(-1.67005 -0.0101406 0)
(-1.66775 -0.0102955 0)
(-1.66549 -0.0104539 0)
(-1.6633 -0.0106157 0)
(-1.66116 -0.0107814 0)
(-1.6591 -0.010951 0)
(-1.65713 -0.0111243 0)
(-1.65524 -0.0113015 0)
(-1.65346 -0.0114825 0)
(-1.65179 -0.0116667 0)
(-1.65024 -0.0118538 0)
(-1.64884 -0.012042 0)
(-1.64759 -0.0122299 0)
(-1.64652 -0.0124189 0)
(-1.6456 -0.0126055 0)
(-1.64482 -0.0127863 0)
(-1.6442 -0.0129636 0)
(-1.64374 -0.0131382 0)
(-1.64345 -0.0133071 0)
(-1.64335 -0.0134709 0)
(-1.64343 -0.0136303 0)
(-1.64372 -0.0137836 0)
(-1.64423 -0.0139295 0)
(-1.64498 -0.0140671 0)
(-1.64599 -0.0141948 0)
(-1.64726 -0.0143108 0)
(-1.64884 -0.0144139 0)
(-1.65072 -0.0145053 0)
(-1.65294 -0.0145857 0)
(-1.6555 -0.0146535 0)
(-1.65844 -0.0147079 0)
(-1.66176 -0.014748 0)
(-1.66549 -0.0147734 0)
(-1.66964 -0.0147839 0)
(-1.67422 -0.0147814 0)
(-1.67925 -0.0147687 0)
(-1.68474 -0.0147572 0)
(-1.69067 -0.0147572 0)
(-1.69704 -0.0147747 0)
(-1.70382 -0.0148185 0)
(-1.71099 -0.0149038 0)
(-1.71851 -0.0150506 0)
(-1.72633 -0.0152843 0)
(-1.7344 -0.0156354 0)
(-1.74264 -0.0161387 0)
(-1.75097 -0.016834 0)
(-1.75932 -0.0177648 0)
(-1.7676 -0.0189714 0)
(-1.77571 -0.020486 0)
(-1.78358 -0.0223247 0)
(-1.79115 -0.0244691 0)
(-1.79839 -0.0268394 0)
(-1.8053 -0.0292528 0)
(-1.81193 -0.0313596 0)
(-1.81837 -0.0325394 0)
(-1.82469 -0.0318 0)
(-1.83084 -0.0276729 0)
(-1.83687 -0.0179458 0)
(-1.84494 -0.000701897 0)
(-1.85295 0.0294335 0)
(-1.87187 0.0794468 0)
(-1.90777 0.171066 0)
(-1.97019 0.351049 0)
(-2.06152 0.735072 0)
(-1.89477 -0.00184265 0)
(-1.89118 -0.00403498 0)
(-1.89187 -0.00533364 0)
(-1.89113 -0.00610658 0)
(-1.89036 -0.00658934 0)
(-1.88953 -0.00690686 0)
(-1.8887 -0.00712901 0)
(-1.88787 -0.00729748 0)
(-1.88706 -0.00743505 0)
(-1.88628 -0.00755577 0)
(-1.88551 -0.00766709 0)
(-1.8848 -0.00777356 0)
(-1.88411 -0.00787786 0)
(-1.88348 -0.00798094 0)
(-1.88288 -0.00808424 0)
(-1.88234 -0.00818776 0)
(-1.88185 -0.00829173 0)
(-1.88142 -0.00839627 0)
(-1.88106 -0.00850118 0)
(-1.88077 -0.00860511 0)
(-1.88054 -0.00870874 0)
(-1.88042 -0.00881396 0)
(-1.88035 -0.00891931 0)
(-1.88036 -0.00902229 0)
(-1.88044 -0.0091233 0)
(-1.88059 -0.00922503 0)
(-1.88082 -0.00932867 0)
(-1.88114 -0.00943325 0)
(-1.88153 -0.00953861 0)
(-1.88202 -0.00964438 0)
(-1.8826 -0.00975057 0)
(-1.88328 -0.00985691 0)
(-1.88406 -0.00996367 0)
(-1.88495 -0.0100707 0)
(-1.88596 -0.0101785 0)
(-1.88709 -0.0102866 0)
(-1.88834 -0.0103951 0)
(-1.88973 -0.0105039 0)
(-1.89126 -0.0106134 0)
(-1.89293 -0.0107229 0)
(-1.89475 -0.0108326 0)
(-1.89673 -0.0109425 0)
(-1.89888 -0.0110522 0)
(-1.90119 -0.0111615 0)
(-1.90368 -0.0112703 0)
(-1.90636 -0.011378 0)
(-1.90922 -0.0114839 0)
(-1.91228 -0.0115863 0)
(-1.91552 -0.0116848 0)
(-1.91897 -0.0117831 0)
(-1.92262 -0.0118801 0)
(-1.92647 -0.0119716 0)
(-1.93054 -0.0120573 0)
(-1.93482 -0.0121374 0)
(-1.93932 -0.0122072 0)
(-1.94404 -0.0122682 0)
(-1.94899 -0.0123227 0)
(-1.95416 -0.0123673 0)
(-1.95956 -0.0124006 0)
(-1.96519 -0.0124215 0)
(-1.97105 -0.0124289 0)
(-1.97713 -0.0124205 0)
(-1.98344 -0.0123945 0)
(-1.98997 -0.0123526 0)
(-1.99673 -0.0122974 0)
(-2.0037 -0.0122271 0)
(-2.01088 -0.0121408 0)
(-2.01827 -0.0120374 0)
(-2.02586 -0.0119174 0)
(-2.03366 -0.0117808 0)
(-2.04164 -0.0116292 0)
(-2.04982 -0.0114664 0)
(-2.05821 -0.0113057 0)
(-2.06679 -0.011158 0)
(-2.07558 -0.0110331 0)
(-2.08456 -0.0109446 0)
(-2.09374 -0.0109116 0)
(-2.10308 -0.0109578 0)
(-2.11257 -0.0111125 0)
(-2.12217 -0.0114096 0)
(-2.13185 -0.0118873 0)
(-2.14158 -0.0125878 0)
(-2.15132 -0.0135577 0)
(-2.16103 -0.014837 0)
(-2.17067 -0.0164545 0)
(-2.1802 -0.0184231 0)
(-2.18961 -0.020716 0)
(-2.19886 -0.023242 0)
(-2.20796 -0.025805 0)
(-2.21688 -0.0280468 0)
(-2.22556 -0.029364 0)
(-2.23382 -0.0288201 0)
(-2.24116 -0.0250542 0)
(-2.24682 -0.0159698 0)
(-2.25295 0.000526582 0)
(-2.25334 0.0319944 0)
(-2.2556 0.084813 0)
(-2.25871 0.181382 0)
(-2.25341 0.364667 0)
(-2.231 0.698907 0)
(-2.04232 -0.00209709 0)
(-2.03975 -0.00409986 0)
(-2.04163 -0.00532789 0)
(-2.04245 -0.00607874 0)
(-2.04341 -0.00654816 0)
(-2.04445 -0.00684857 0)
(-2.04557 -0.00705123 0)
(-2.04677 -0.00719647 0)
(-2.04805 -0.00730909 0)
(-2.04941 -0.00740236 0)
(-2.05084 -0.00748497 0)
(-2.05237 -0.00756087 0)
(-2.05396 -0.0076332 0)
(-2.05566 -0.00770272 0)
(-2.05744 -0.0077708 0)
(-2.05933 -0.00783719 0)
(-2.0613 -0.00790244 0)
(-2.06337 -0.00796614 0)
(-2.06555 -0.00802808 0)
(-2.06783 -0.00808703 0)
(-2.07021 -0.00814417 0)
(-2.07271 -0.00820205 0)
(-2.07531 -0.00826122 0)
(-2.07803 -0.00831784 0)
(-2.08087 -0.00836977 0)
(-2.08384 -0.00842097 0)
(-2.08692 -0.00847331 0)
(-2.09014 -0.00852499 0)
(-2.09348 -0.00857593 0)
(-2.09696 -0.00862562 0)
(-2.10056 -0.00867408 0)
(-2.1043 -0.00872119 0)
(-2.10818 -0.00876725 0)
(-2.11219 -0.00881208 0)
(-2.11633 -0.00885617 0)
(-2.12062 -0.0088994 0)
(-2.12503 -0.00894175 0)
(-2.12958 -0.00898323 0)
(-2.13427 -0.00902415 0)
(-2.13908 -0.00906409 0)
(-2.14402 -0.00910335 0)
(-2.14909 -0.00914185 0)
(-2.15428 -0.00917948 0)
(-2.15959 -0.00921617 0)
(-2.16501 -0.00925191 0)
(-2.17055 -0.00928626 0)
(-2.17619 -0.00931882 0)
(-2.18194 -0.00934846 0)
(-2.18778 -0.00937551 0)
(-2.19372 -0.00940174 0)
(-2.19975 -0.00942608 0)
(-2.20586 -0.0094458 0)
(-2.21206 -0.00946017 0)
(-2.21833 -0.00946965 0)
(-2.22467 -0.00946866 0)
(-2.2311 -0.00945675 0)
(-2.2376 -0.00943662 0)
(-2.24418 -0.00940616 0)
(-2.25085 -0.00936507 0)
(-2.25761 -0.00931257 0)
(-2.26445 -0.00924761 0)
(-2.27137 -0.00916769 0)
(-2.27838 -0.00906931 0)
(-2.28548 -0.00895462 0)
(-2.29267 -0.00882968 0)
(-2.29994 -0.00869102 0)
(-2.30732 -0.00853715 0)
(-2.31479 -0.00836663 0)
(-2.32237 -0.00818007 0)
(-2.33005 -0.00797803 0)
(-2.33786 -0.00775822 0)
(-2.34578 -0.00752419 0)
(-2.35387 -0.00729742 0)
(-2.36207 -0.00708383 0)
(-2.3704 -0.00689352 0)
(-2.37884 -0.0067432 0)
(-2.3874 -0.00665431 0)
(-2.39608 -0.00665266 0)
(-2.40487 -0.00676911 0)
(-2.41376 -0.0070398 0)
(-2.42274 -0.00750411 0)
(-2.43179 -0.00820339 0)
(-2.44092 -0.00918693 0)
(-2.45008 -0.0104955 0)
(-2.45929 -0.0121525 0)
(-2.46852 -0.0141718 0)
(-2.47778 -0.0165245 0)
(-2.48703 -0.0191168 0)
(-2.49626 -0.0217575 0)
(-2.50539 -0.0241069 0)
(-2.51424 -0.0256201 0)
(-2.52244 -0.0254703 0)
(-2.52921 -0.0224723 0)
(-2.53327 -0.014899 0)
(-2.53619 -0.000115708 0)
(-2.52942 0.029249 0)
(-2.5163 0.0796007 0)
(-2.48945 0.171567 0)
(-2.42767 0.338996 0)
(-2.32998 0.606932 0)
(-2.19855 -0.00201586 0)
(-2.19725 -0.00359348 0)
(-2.20027 -0.00460006 0)
(-2.20265 -0.00522726 0)
(-2.20526 -0.00561463 0)
(-2.20811 -0.00585205 0)
(-2.21106 -0.00600136 0)
(-2.21418 -0.00609772 0)
(-2.21737 -0.00616386 0)
(-2.22071 -0.00621154 0)
(-2.2241 -0.00624904 0)
(-2.22763 -0.00627978 0)
(-2.23121 -0.00630672 0)
(-2.23493 -0.00633064 0)
(-2.2387 -0.00635274 0)
(-2.2426 -0.00637259 0)
(-2.24655 -0.00639102 0)
(-2.25062 -0.00640747 0)
(-2.25476 -0.00642195 0)
(-2.259 -0.00643373 0)
(-2.2633 -0.00644428 0)
(-2.2677 -0.00645425 0)
(-2.27216 -0.00646487 0)
(-2.27672 -0.00647327 0)
(-2.28133 -0.00647545 0)
(-2.28606 -0.00647391 0)
(-2.29085 -0.00647143 0)
(-2.29575 -0.0064673 0)
(-2.30073 -0.00646255 0)
(-2.30582 -0.00645674 0)
(-2.31098 -0.00645005 0)
(-2.31625 -0.00644233 0)
(-2.32158 -0.00643438 0)
(-2.327 -0.00642601 0)
(-2.3325 -0.00641803 0)
(-2.33807 -0.00641036 0)
(-2.3437 -0.00640345 0)
(-2.34939 -0.00639718 0)
(-2.35514 -0.00639201 0)
(-2.36095 -0.00638772 0)
(-2.3668 -0.00638471 0)
(-2.37269 -0.00638286 0)
(-2.37862 -0.00638225 0)
(-2.38458 -0.00638271 0)
(-2.39057 -0.00638435 0)
(-2.39659 -0.00638658 0)
(-2.40262 -0.00638913 0)
(-2.40868 -0.00639113 0)
(-2.41474 -0.00639287 0)
(-2.42082 -0.00639491 0)
(-2.42691 -0.00639626 0)
(-2.43301 -0.00639473 0)
(-2.43912 -0.00638945 0)
(-2.44524 -0.00637934 0)
(-2.45135 -0.00636153 0)
(-2.4575 -0.00633426 0)
(-2.46363 -0.00629656 0)
(-2.46976 -0.00624789 0)
(-2.47589 -0.0061885 0)
(-2.48203 -0.00611766 0)
(-2.48818 -0.00603416 0)
(-2.49434 -0.00593555 0)
(-2.50052 -0.00581539 0)
(-2.50674 -0.00567376 0)
(-2.51299 -0.00552494 0)
(-2.51927 -0.00536123 0)
(-2.5256 -0.00518004 0)
(-2.53198 -0.00497972 0)
(-2.53841 -0.00476078 0)
(-2.5449 -0.00452448 0)
(-2.55147 -0.00426682 0)
(-2.55812 -0.00398155 0)
(-2.56487 -0.00371428 0)
(-2.5717 -0.00346469 0)
(-2.57861 -0.00323766 0)
(-2.58561 -0.00304895 0)
(-2.5927 -0.00292026 0)
(-2.5999 -0.00287845 0)
(-2.60722 -0.00295536 0)
(-2.61466 -0.00318829 0)
(-2.62224 -0.00361831 0)
(-2.62996 -0.00428137 0)
(-2.63784 -0.00523049 0)
(-2.64588 -0.00651184 0)
(-2.65409 -0.00813708 0)
(-2.66248 -0.0101277 0)
(-2.67105 -0.0124583 0)
(-2.67977 -0.0150391 0)
(-2.68859 -0.0177001 0)
(-2.69737 -0.0201416 0)
(-2.70583 -0.0219013 0)
(-2.71344 -0.0222943 0)
(-2.7193 -0.0203469 0)
(-2.7217 -0.0148135 0)
(-2.72106 -0.00275734 0)
(-2.70844 0.0217895 0)
(-2.6817 0.0651435 0)
(-2.62955 0.144236 0)
(-2.52464 0.282747 0)
(-2.37986 0.482115 0)
(-2.34729 -0.00160932 0)
(-2.34699 -0.00261266 0)
(-2.3506 -0.0033055 0)
(-2.35389 -0.00374302 0)
(-2.35737 -0.00400494 0)
(-2.36124 -0.00415394 0)
(-2.36513 -0.004235 0)
(-2.36927 -0.00427544 0)
(-2.37338 -0.0042923 0)
(-2.3777 -0.00429521 0)
(-2.38198 -0.00429041 0)
(-2.38643 -0.00428083 0)
(-2.39085 -0.00426869 0)
(-2.39542 -0.00425463 0)
(-2.39997 -0.00423967 0)
(-2.40465 -0.00422331 0)
(-2.40931 -0.00420642 0)
(-2.41409 -0.00418832 0)
(-2.41885 -0.00416946 0)
(-2.42373 -0.00414911 0)
(-2.42859 -0.00412868 0)
(-2.43355 -0.00410804 0)
(-2.4385 -0.00408771 0)
(-2.44353 -0.0040653 0)
(-2.44856 -0.00404 0)
(-2.45369 -0.00401121 0)
(-2.45878 -0.00398052 0)
(-2.46393 -0.00394849 0)
(-2.46905 -0.00391751 0)
(-2.47423 -0.003887 0)
(-2.47937 -0.00385736 0)
(-2.48456 -0.00382783 0)
(-2.48971 -0.00379993 0)
(-2.49489 -0.00377332 0)
(-2.50004 -0.00374905 0)
(-2.50521 -0.0037268 0)
(-2.51034 -0.00370737 0)
(-2.51548 -0.0036905 0)
(-2.52058 -0.00367634 0)
(-2.52569 -0.0036648 0)
(-2.53076 -0.00365615 0)
(-2.53582 -0.00365018 0)
(-2.54085 -0.00364681 0)
(-2.54587 -0.00364574 0)
(-2.55086 -0.0036469 0)
(-2.55584 -0.00364961 0)
(-2.56078 -0.00365348 0)
(-2.56572 -0.00365773 0)
(-2.57063 -0.00366227 0)
(-2.57552 -0.00366706 0)
(-2.58039 -0.0036711 0)
(-2.58526 -0.00367228 0)
(-2.59011 -0.00366948 0)
(-2.59495 -0.00365988 0)
(-2.59978 -0.00364371 0)
(-2.60462 -0.00362151 0)
(-2.60943 -0.00358921 0)
(-2.61424 -0.0035447 0)
(-2.61904 -0.00348755 0)
(-2.62385 -0.00341697 0)
(-2.62866 -0.00333162 0)
(-2.63349 -0.00322974 0)
(-2.63833 -0.0031032 0)
(-2.64322 -0.00294132 0)
(-2.64814 -0.00277994 0)
(-2.65312 -0.00260094 0)
(-2.65814 -0.00240013 0)
(-2.66322 -0.00217655 0)
(-2.66838 -0.00193101 0)
(-2.67361 -0.00166433 0)
(-2.67894 -0.00138403 0)
(-2.68434 -0.00103954 0)
(-2.68989 -0.000734359 0)
(-2.69554 -0.000448111 0)
(-2.70132 -0.000179699 0)
(-2.70723 5.54122e-05 0)
(-2.71328 0.000235646 0)
(-2.7195 0.000334329 0)
(-2.72589 0.000319759 0)
(-2.73247 0.00015515 0)
(-2.73927 -0.00020036 0)
(-2.74629 -0.000784026 0)
(-2.75362 -0.00164172 0)
(-2.76113 -0.00283124 0)
(-2.76896 -0.00435318 0)
(-2.77708 -0.00624493 0)
(-2.78547 -0.00848984 0)
(-2.79408 -0.011003 0)
(-2.80283 -0.0136526 0)
(-2.81152 -0.01619 0)
(-2.81979 -0.0182514 0)
(-2.82703 -0.019316 0)
(-2.83215 -0.018654 0)
(-2.83342 -0.0154303 0)
(-2.8292 -0.00714551 0)
(-2.81304 0.0105497 0)
(-2.77557 0.043232 0)
(-2.70418 0.102893 0)
(-2.5691 0.204587 0)
(-2.39697 0.339429 0)
(-2.46887 -0.000930724 0)
(-2.46937 -0.00138073 0)
(-2.47305 -0.00174558 0)
(-2.47663 -0.00197488 0)
(-2.48029 -0.00210358 0)
(-2.4844 -0.00216665 0)
(-2.4884 -0.00218963 0)
(-2.49271 -0.00218939 0)
(-2.49684 -0.00217555 0)
(-2.50121 -0.00215452 0)
(-2.50539 -0.00212965 0)
(-2.50977 -0.00210301 0)
(-2.51396 -0.00207562 0)
(-2.51833 -0.00204801 0)
(-2.52252 -0.00202061 0)
(-2.52687 -0.00199315 0)
(-2.53105 -0.0019661 0)
(-2.53536 -0.0019389 0)
(-2.53952 -0.00191202 0)
(-2.5438 -0.00188493 0)
(-2.54793 -0.00185851 0)
(-2.55216 -0.00183252 0)
(-2.55626 -0.00180649 0)
(-2.56044 -0.00177845 0)
(-2.56449 -0.00175215 0)
(-2.56862 -0.00172697 0)
(-2.5726 -0.00170241 0)
(-2.57662 -0.0016778 0)
(-2.58052 -0.00165551 0)
(-2.58444 -0.00163475 0)
(-2.58825 -0.0016156 0)
(-2.59208 -0.00159654 0)
(-2.5958 -0.00157959 0)
(-2.59953 -0.00156437 0)
(-2.60318 -0.00155196 0)
(-2.60682 -0.00154164 0)
(-2.6104 -0.00153439 0)
(-2.61397 -0.00152972 0)
(-2.61748 -0.00152747 0)
(-2.62099 -0.00152761 0)
(-2.62444 -0.00153017 0)
(-2.6279 -0.001535 0)
(-2.63132 -0.00154178 0)
(-2.63474 -0.00155016 0)
(-2.63812 -0.00155989 0)
(-2.64152 -0.00157032 0)
(-2.6449 -0.00158084 0)
(-2.64829 -0.00159096 0)
(-2.65166 -0.00160019 0)
(-2.65506 -0.00160799 0)
(-2.65845 -0.00161334 0)
(-2.66187 -0.0016146 0)
(-2.6653 -0.00161038 0)
(-2.66875 -0.00159805 0)
(-2.67223 -0.00157815 0)
(-2.67574 -0.00155108 0)
(-2.67929 -0.0015128 0)
(-2.68288 -0.00146044 0)
(-2.68652 -0.00139295 0)
(-2.69022 -0.00130935 0)
(-2.69396 -0.00120859 0)
(-2.69778 -0.00108923 0)
(-2.70166 -0.000950749 0)
(-2.70561 -0.000740013 0)
(-2.70968 -0.000555428 0)
(-2.71383 -0.000347297 0)
(-2.71806 -0.000111662 0)
(-2.72241 0.000151046 0)
(-2.72686 0.000440124 0)
(-2.73143 0.000752291 0)
(-2.73615 0.00108271 0)
(-2.74098 0.00148324 0)
(-2.74594 0.0018507 0)
(-2.75108 0.00220487 0)
(-2.75641 0.00254649 0)
(-2.76194 0.00285997 0)
(-2.76768 0.00312409 0)
(-2.77365 0.00331277 0)
(-2.77984 0.00339496 0)
(-2.78628 0.00333468 0)
(-2.79299 0.00309307 0)
(-2.79997 0.00262298 0)
(-2.80728 0.00188909 0)
(-2.81479 0.000840375 0)
(-2.82267 -0.000541129 0)
(-2.83095 -0.0022892 0)
(-2.83938 -0.00440069 0)
(-2.84819 -0.00681337 0)
(-2.85714 -0.00944516 0)
(-2.866 -0.0120941 0)
(-2.87436 -0.0145116 0)
(-2.88155 -0.0163473 0)
(-2.8864 -0.0171535 0)
(-2.88714 -0.0163743 0)
(-2.88085 -0.0125736 0)
(-2.86213 -0.00302617 0)
(-2.81958 0.0160732 0)
(-2.73524 0.0517449 0)
(-2.58203 0.112125 0)
(-2.39628 0.188158 0)
(-2.54106 -4.34648e-05 0)
(-2.54208 -0.000103614 0)
(-2.54542 -0.000171539 0)
(-2.54879 -0.000210011 0)
(-2.55214 -0.000225822 0)
(-2.55594 -0.000226672 0)
(-2.55949 -0.000219232 0)
(-2.56335 -0.000207645 0)
(-2.5669 -0.000194106 0)
(-2.57069 -0.000180492 0)
(-2.57416 -0.000167299 0)
(-2.57783 -0.000155034 0)
(-2.58118 -0.000143551 0)
(-2.58472 -0.00013298 0)
(-2.58796 -0.000123058 0)
(-2.59136 -0.000113711 0)
(-2.59448 -0.000104719 0)
(-2.59775 -9.59552e-05 0)
(-2.60077 -8.72976e-05 0)
(-2.60391 -7.88545e-05 0)
(-2.60682 -7.06191e-05 0)
(-2.60985 -6.27001e-05 -7.37036e-43)
(-2.61267 -5.4213e-05 0)
(-2.61559 -4.45973e-05 0)
(-2.61832 -3.69089e-05 0)
(-2.62114 -3.15111e-05 0)
(-2.6238 -2.72617e-05 0)
(-2.62653 -2.33299e-05 0)
(-2.62913 -2.08585e-05 0)
(-2.63179 -1.99627e-05 0)
(-2.63434 -1.92578e-05 0)
(-2.63693 -1.69624e-05 0)
(-2.63945 -1.49179e-05 0)
(-2.642 -1.38089e-05 0)
(-2.6445 -1.42517e-05 0)
(-2.64702 -1.56394e-05 0)
(-2.64951 -1.86668e-05 0)
(-2.65201 -2.27541e-05 0)
(-2.65451 -2.77766e-05 0)
(-2.65701 -3.36843e-05 0)
(-2.65952 -4.04129e-05 0)
(-2.66204 -4.78452e-05 0)
(-2.66456 -5.55921e-05 0)
(-2.66712 -6.33251e-05 0)
(-2.66968 -7.07035e-05 0)
(-2.67228 -7.71465e-05 0)
(-2.67489 -8.1929e-05 0)
(-2.67754 -8.47964e-05 0)
(-2.68022 -8.50495e-05 0)
(-2.68294 -8.17506e-05 0)
(-2.68569 -7.39076e-05 0)
(-2.68849 -6.03585e-05 0)
(-2.69133 -3.95534e-05 0)
(-2.69423 -9.67005e-06 0)
(-2.69717 2.95774e-05 0)
(-2.70018 7.92096e-05 0)
(-2.70324 0.000142625 0)
(-2.70637 0.000222426 0)
(-2.70957 0.000319585 0)
(-2.71285 0.000435179 0)
(-2.7162 0.000570373 0)
(-2.71964 0.000724885 0)
(-2.72318 0.000902943 0)
(-2.72679 0.00115691 0)
(-2.73048 0.00138741 0)
(-2.7343 0.00164443 0)
(-2.73823 0.00193241 0)
(-2.74229 0.00225121 0)
(-2.74647 0.00260053 0)
(-2.7508 0.00297625 0)
(-2.75529 0.00338585 0)
(-2.75991 0.00383763 0)
(-2.7647 0.00428693 0)
(-2.76966 0.00473286 0)
(-2.77483 0.00517059 0)
(-2.7802 0.00558533 0)
(-2.7858 0.00595675 0)
(-2.79164 0.00625951 0)
(-2.79772 0.00646321 0)
(-2.80409 0.00653257 0)
(-2.81074 0.00642848 0)
(-2.81771 0.00610248 0)
(-2.82501 0.00551765 6.48597e-41)
(-2.83267 0.00463477 0)
(-2.84068 0.00340645 0)
(-2.8491 0.00181774 0)
(-2.85765 -0.000142088 0)
(-2.86666 -0.00244876 -2.87851e-41)
(-2.87553 -0.00505377 0)
(-2.88443 -0.00782465 0)
(-2.8928 -0.0106312 0)
(-2.8999 -0.0132935 0)
(-2.90458 -0.0156356 0)
(-2.90499 -0.0174514 -1.0257e-40)
(-2.89792 -0.018307 0)
(-2.87737 -0.0174317 0)
(-2.83329 -0.013597 -1.59833e-40)
(-2.7443 -0.00456353 0)
(-2.58388 0.0119218 0)
(-2.39359 0.0332061 0)
(-2.53018 0.000913106 0)
(-2.53112 0.00114922 0)
(-2.5345 0.00136173 0)
(-2.53791 0.00150125 0)
(-2.5413 0.0015861 0)
(-2.54515 0.00163492 0)
(-2.54878 0.00165958 0)
(-2.55272 0.00166922 0)
(-2.55637 0.00166877 0)
(-2.56026 0.00166152 0)
(-2.56385 0.00164955 0)
(-2.56765 0.00163439 0)
(-2.57115 0.0016171 0)
(-2.57484 0.00159834 0)
(-2.57824 0.00157885 0)
(-2.58181 0.00155885 0)
(-2.58511 0.00153904 0)
(-2.58856 0.00151938 0)
(-2.59176 0.00150045 0)
(-2.5951 0.00148177 0)
(-2.5982 0.00146397 0)
(-2.60143 0.00144658 1.70044e-41)
(-2.60445 0.00143083 0)
(-2.60757 0.00141589 0)
(-2.6105 0.00140132 0)
(-2.61352 0.00138604 0)
(-2.61638 0.00137143 0)
(-2.61932 0.001357 0)
(-2.62211 0.00134305 0)
(-2.62496 0.00132694 0)
(-2.6277 0.00131266 0)
(-2.63047 0.00130258 0)
(-2.63316 0.00129482 0)
(-2.63588 0.00128679 0)
(-2.63853 0.00127903 0)
(-2.64121 0.00127133 0)
(-2.64384 0.00126419 0)
(-2.64648 0.00125765 0)
(-2.6491 0.00125164 0)
(-2.65173 0.0012464 0)
(-2.65435 0.00124205 0)
(-2.65698 0.00123874 0)
(-2.65961 0.00123673 0)
(-2.66226 0.00123644 0)
(-2.66491 0.00123813 0)
(-2.66759 0.00124242 0)
(-2.67028 0.00124997 0)
(-2.673 0.0012611 0)
(-2.67574 0.00127655 0)
(-2.67852 0.00129733 0)
(-2.68133 0.00132434 0)
(-2.68419 0.00135871 0)
(-2.68708 0.00140197 0)
(-2.69001 0.0014555 0)
(-2.69299 0.00152004 0)
(-2.69603 0.00159715 0)
(-2.69912 0.00169051 0)
(-2.70227 0.00180287 0)
(-2.70549 0.0019347 0)
(-2.70878 0.00208696 0)
(-2.71214 0.00226107 0)
(-2.71559 0.00245718 0)
(-2.71912 0.00268877 0)
(-2.72273 0.00296579 0)
(-2.72643 0.00325148 0)
(-2.73023 0.00356418 0)
(-2.73414 0.00390953 0)
(-2.73817 0.00428904 0)
(-2.74232 0.00470261 0)
(-2.74661 0.00514966 0)
(-2.75103 0.00563472 0)
(-2.7556 0.00615407 0)
(-2.76033 0.00668618 0)
(-2.76523 0.00722516 0)
(-2.77032 0.0077629 0)
(-2.77562 0.00828439 0)
(-2.78114 0.00877002 0)
(-2.7869 0.00919547 0)
(-2.79293 0.00953138 0)
(-2.79923 0.00974335 0)
(-2.80584 0.00979186 0)
(-2.81278 0.0096329 0)
(-2.82008 0.00922551 1.08445e-40)
(-2.82775 0.00852473 0)
(-2.83581 0.00747718 0)
(-2.84426 0.00606222 0)
(-2.85305 0.00424313 0)
(-2.86218 0.00202491 2.38027e-41)
(-2.87118 -0.000571204 0)
(-2.88009 -0.00348658 0)
(-2.88828 -0.0066908 0)
(-2.89533 -0.0101971 0)
(-2.89999 -0.0140769 0)
(-2.90042 -0.018555 -1.09056e-40)
(-2.89343 -0.0241025 0)
(-2.8732 -0.0317757 0)
(-2.82917 -0.0433352 -5.09402e-40)
(-2.74243 -0.0616561 0)
(-2.58415 -0.0897859 0)
(-2.39617 -0.122147 0)
(-2.44401 0.00173583 0)
(-2.44417 0.0023919 0)
(-2.44777 0.00290071 0)
(-2.45119 0.0032324 0)
(-2.45469 0.00343468 0)
(-2.45864 0.00355133 0)
(-2.46251 0.00361375 0)
(-2.46667 0.00364234 0)
(-2.4707 0.00364938 0)
(-2.47496 0.00364275 0)
(-2.47908 0.00362707 0)
(-2.4834 0.00360556 0)
(-2.48757 0.00358012 0)
(-2.49192 0.00355207 0)
(-2.49613 0.00352241 0)
(-2.5005 0.00349166 0)
(-2.50474 0.00346058 0)
(-2.50912 0.00342934 0)
(-2.51339 0.00339846 0)
(-2.51778 0.00336754 0)
(-2.52205 0.00333721 0)
(-2.52643 0.00330708 0)
(-2.5307 0.00327822 0)
(-2.53508 0.00324952 0)
(-2.53934 0.00322185 0)
(-2.54369 0.00319381 0)
(-2.54794 0.00316681 0)
(-2.55227 0.00313966 0)
(-2.5565 0.00311342 0)
(-2.56078 0.00308413 0)
(-2.56497 0.00305628 0)
(-2.56922 0.0030316 0)
(-2.57337 0.00300821 0)
(-2.57753 0.00298372 0)
(-2.58159 0.00296038 0)
(-2.58566 0.0029376 0)
(-2.58964 0.00291702 0)
(-2.59361 0.00289791 0)
(-2.59752 0.00288047 0)
(-2.60141 0.00286508 0)
(-2.60524 0.00285208 0)
(-2.60905 0.00284159 0)
(-2.61282 0.00283395 0)
(-2.61657 0.00282958 0)
(-2.62028 0.00282881 0)
(-2.62398 0.00283224 0)
(-2.62765 0.00284058 0)
(-2.63131 0.00285424 0)
(-2.63495 0.00287401 0)
(-2.63859 0.00290083 0)
(-2.64221 0.00293566 0)
(-2.64584 0.00297952 0)
(-2.64946 0.00303388 0)
(-2.6531 0.00310034 0)
(-2.65673 0.00317957 0)
(-2.66038 0.00327272 0)
(-2.66404 0.00338478 0)
(-2.66773 0.00351942 0)
(-2.67144 0.003676 0)
(-2.67518 0.00385473 0)
(-2.67897 0.00405761 0)
(-2.68279 0.00428786 0)
(-2.68667 0.00455457 0)
(-2.69059 0.00485811 0)
(-2.69457 0.00518471 0)
(-2.69861 0.0055422 0)
(-2.70273 0.00593513 0)
(-2.70693 0.00636574 0)
(-2.71122 0.00683467 0)
(-2.71561 0.00734296 0)
(-2.72011 0.007892 0)
(-2.72472 0.00847562 0)
(-2.72946 0.00908226 0)
(-2.73434 0.00970608 0)
(-2.73939 0.0103375 0)
(-2.74462 0.0109607 0)
(-2.75005 0.0115569 0)
(-2.7557 0.0121031 0)
(-2.7616 0.0125713 0)
(-2.76777 0.0129278 0)
(-2.77423 0.013134 0)
(-2.78103 0.0131476 0)
(-2.78818 0.0129254 0)
(-2.79571 0.0124183 0)
(-2.80365 0.0115748 0)
(-2.81199 0.0103524 0)
(-2.82071 0.0086922 0)
(-2.82971 0.00656598 0)