/*--------------------------------*- C++ -*----------------------------------*\
| =========                 |                                                 |
| \\      /  F ield         | OpenFOAM: The Open Source CFD Toolbox           |
|  \\    /   O peration     | Version:  2.1.0                                 |
|   \\  /    A nd           | Web:      www.OpenFOAM.org                      |
|    \\/     M anipulation  |                                                 |
\*---------------------------------------------------------------------------*/
FoamFile
{
    version     2.0;
    format      ascii;
    class       volScalarField;
    location    "0.49";
    object      C1;
}
// * * * * * * * * * * * * * * * * * * * * * * * * * * * * * * * * * * * * * //

dimensions      [0 0 0 0 0 0 0];

internalField   nonuniform List<scalar> 
6400
(
5.21069e-05
5.11102e-05
5.00687e-05
4.90223e-05
4.79766e-05
4.69339e-05
4.58952e-05
4.48613e-05
4.38329e-05
4.28102e-05
4.17936e-05
4.07835e-05
3.978e-05
3.87835e-05
3.77942e-05
3.68123e-05
3.58382e-05
3.4872e-05
3.39141e-05
3.29646e-05
3.2024e-05
3.10923e-05
3.017e-05
2.92573e-05
2.83545e-05
2.7462e-05
2.65799e-05
2.57086e-05
2.48484e-05
2.39995e-05
2.31623e-05
2.23369e-05
2.15238e-05
2.07232e-05
1.99354e-05
1.91606e-05
1.83991e-05
1.76513e-05
1.69172e-05
1.61974e-05
1.54918e-05
1.4801e-05
1.41249e-05
1.3464e-05
1.28184e-05
1.21883e-05
1.15739e-05
1.09755e-05
1.03932e-05
9.82722e-06
9.27768e-06
8.74477e-06
8.22868e-06
7.72954e-06
7.24744e-06
6.78245e-06
6.33463e-06
5.90404e-06
5.49077e-06
5.09484e-06
4.71625e-06
4.35492e-06
4.01079e-06
3.68372e-06
3.37357e-06
3.08016e-06
2.80325e-06
2.54261e-06
2.29793e-06
2.06891e-06
1.85518e-06
1.65637e-06
1.47205e-06
1.3018e-06
1.14513e-06
1.00156e-06
8.70575e-07
7.51632e-07
6.44178e-07
5.47646e-07
4.6145e-07
3.84995e-07
3.17677e-07
2.58888e-07
2.08013e-07
1.64442e-07
1.2757e-07
9.68023e-08
7.15543e-08
5.1253e-08
3.53337e-08
2.32384e-08
1.44254e-08
8.36593e-09
4.50405e-09
2.24894e-09
9.41916e-10
2.9675e-10
6.68079e-11
1.21956e-11
5.88359e-05
5.78224e-05
5.67477e-05
5.56572e-05
5.45607e-05
5.34626e-05
5.23654e-05
5.12706e-05
5.01791e-05
4.90915e-05
4.80083e-05
4.69299e-05
4.58566e-05
4.47886e-05
4.37263e-05
4.26698e-05
4.16196e-05
4.05758e-05
3.95387e-05
3.85085e-05
3.74855e-05
3.647e-05
3.54622e-05
3.44624e-05
3.34711e-05
3.24883e-05
3.15147e-05
3.05504e-05
2.95958e-05
2.86511e-05
2.77168e-05
2.67931e-05
2.58805e-05
2.49791e-05
2.40894e-05
2.32117e-05
2.23464e-05
2.14937e-05
2.0654e-05
1.98276e-05
1.9015e-05
1.82164e-05
1.74321e-05
1.66626e-05
1.5908e-05
1.51688e-05
1.44453e-05
1.37378e-05
1.30465e-05
1.23719e-05
1.1714e-05
1.10733e-05
1.04501e-05
9.84457e-06
9.2571e-06
8.68797e-06
8.13744e-06
7.60578e-06
7.09322e-06
6.59998e-06
6.12624e-06
5.67211e-06
5.23765e-06
4.82292e-06
4.42789e-06
4.05253e-06
3.69675e-06
3.36041e-06
3.04333e-06
2.74529e-06
2.46603e-06
2.20521e-06
1.96247e-06
1.73741e-06
1.52958e-06
1.33846e-06
1.16353e-06
1.0042e-06
8.59856e-07
7.29852e-07
6.13505e-07
5.1011e-07
4.18938e-07
3.3925e-07
2.70293e-07
2.11315e-07
1.61563e-07
1.20291e-07
8.67609e-08
6.02267e-08
3.99276e-08
2.5067e-08
1.47927e-08
8.18501e-09
4.2721e-09
2.19069e-09
1.00874e-09
4.07587e-10
1.50032e-10
5.83799e-11
7.36694e-05
7.26081e-05
7.14587e-05
7.02756e-05
6.90751e-05
6.78651e-05
6.66501e-05
6.54326e-05
6.42143e-05
6.29961e-05
6.17786e-05
6.05625e-05
5.93481e-05
5.81356e-05
5.69255e-05
5.5718e-05
5.45133e-05
5.33118e-05
5.21136e-05
5.09189e-05
4.97281e-05
4.85413e-05
4.73589e-05
4.61811e-05
4.50082e-05
4.38405e-05
4.26784e-05
4.15222e-05
4.03725e-05
3.92295e-05
3.80938e-05
3.69657e-05
3.58456e-05
3.47339e-05
3.3631e-05
3.25375e-05
3.14536e-05
3.038e-05
2.9317e-05
2.82651e-05
2.72248e-05
2.61967e-05
2.51812e-05
2.41788e-05
2.31902e-05
2.22157e-05
2.1256e-05
2.03116e-05
1.93831e-05
1.8471e-05
1.75759e-05
1.66984e-05
1.58391e-05
1.49986e-05
1.41775e-05
1.33766e-05
1.25966e-05
1.18381e-05
1.11017e-05
1.03879e-05
9.69727e-06
9.03037e-06
8.38762e-06
7.7694e-06
7.17607e-06
6.60794e-06
6.06524e-06
5.54815e-06
5.05681e-06
4.59127e-06
4.1515e-06
3.73741e-06
3.34883e-06
2.98551e-06
2.64712e-06
2.33325e-06
2.0434e-06
1.777e-06
1.53342e-06
1.31193e-06
1.11174e-06
9.32021e-07
7.71868e-07
6.30355e-07
5.06525e-07
3.99398e-07
3.07985e-07
2.31284e-07
1.68274e-07
1.17892e-07
7.89894e-08
5.02845e-08
3.03136e-08
1.74239e-08
9.8425e-09
5.6204e-09
3.04257e-09
1.57065e-09
8.0765e-10
4.65564e-10
9.75577e-05
9.64193e-05
9.51648e-05
9.38564e-05
9.25162e-05
9.11562e-05
8.97829e-05
8.84004e-05
8.70109e-05
8.56159e-05
8.42163e-05
8.28127e-05
8.14056e-05
7.99953e-05
7.85821e-05
7.71664e-05
7.57483e-05
7.4328e-05
7.29058e-05
7.14817e-05
7.0056e-05
6.86289e-05
6.72007e-05
6.57716e-05
6.43419e-05
6.29118e-05
6.14818e-05
6.00521e-05
5.86232e-05
5.71957e-05
5.57698e-05
5.43462e-05
5.29252e-05
5.15073e-05
5.00929e-05
4.86826e-05
4.7277e-05
4.58766e-05
4.44819e-05
4.30936e-05
4.17124e-05
4.03389e-05
3.89738e-05
3.76178e-05
3.62717e-05
3.49364e-05
3.36125e-05
3.23011e-05
3.10029e-05
2.9719e-05
2.84503e-05
2.71979e-05
2.59629e-05
2.47462e-05
2.35488e-05
2.2372e-05
2.12168e-05
2.00845e-05
1.89762e-05
1.7893e-05
1.68362e-05
1.58067e-05
1.48057e-05
1.38341e-05
1.2893e-05
1.19833e-05
1.11059e-05
1.02615e-05
9.45079e-06
8.67451e-06
7.93315e-06
7.22714e-06
6.5568e-06
5.92233e-06
5.3238e-06
4.76115e-06
4.23418e-06
3.74257e-06
3.28586e-06
2.86349e-06
2.47477e-06
2.11892e-06
1.79506e-06
1.5023e-06
1.23968e-06
1.00628e-06
8.01142e-07
6.23359e-07
4.72011e-07
3.46118e-07
2.44518e-07
1.65702e-07
1.0762e-07
6.76043e-08
4.23175e-08
2.65966e-08
1.61966e-08
9.69599e-09
5.96902e-09
4.19296e-09
0.00013157
0.000130345
0.000128982
0.000127547
0.000126067
0.000124555
0.000123021
0.00012147
0.000119905
0.000118327
0.000116738
0.000115139
0.000113529
0.00011191
0.000110281
0.000108644
0.000106996
0.00010534
0.000103675
0.000102001
0.000100319
9.86271e-05
9.69272e-05
9.5219e-05
9.3503e-05
9.17793e-05
9.00481e-05
8.83097e-05
8.65643e-05
8.48123e-05
8.30541e-05
8.129e-05
7.95205e-05
7.77459e-05
7.59667e-05
7.41835e-05
7.23966e-05
7.06067e-05
6.88144e-05
6.70204e-05
6.52253e-05
6.34298e-05
6.16348e-05
5.9841e-05
5.80494e-05
5.6261e-05
5.44766e-05
5.26973e-05
5.09243e-05
4.91588e-05
4.74019e-05
4.5655e-05
4.39195e-05
4.21964e-05
4.04872e-05
3.87935e-05
3.71168e-05
3.54588e-05
3.38213e-05
3.22061e-05
3.06149e-05
2.90496e-05
2.75118e-05
2.60033e-05
2.45258e-05
2.30811e-05
2.16707e-05
2.02963e-05
1.89594e-05
1.76616e-05
1.64041e-05
1.51883e-05
1.40154e-05
1.28864e-05
1.18023e-05
1.07639e-05
9.77187e-06
8.82673e-06
7.92887e-06
7.07861e-06
6.27616e-06
5.52156e-06
4.81487e-06
4.15618e-06
3.54564e-06
2.98357e-06
2.47048e-06
2.00714e-06
1.59465e-06
1.23426e-06
9.27169e-07
6.73985e-07
4.74108e-07
3.25175e-07
2.22524e-07
1.52238e-07
1.02098e-07
6.82319e-08
4.73701e-08
3.73417e-08
0.000176878
0.000175595
0.000174165
0.000172652
0.000171085
0.000169477
0.00016784
0.000166178
0.000164496
0.000162795
0.000161076
0.000159341
0.000157589
0.000155821
0.000154037
0.000152237
0.000150422
0.00014859
0.000146743
0.000144879
0.000142999
0.000141103
0.000139191
0.000137263
0.000135319
0.000133359
0.000131384
0.000129392
0.000127385
0.000125362
0.000123324
0.000121271
0.000119202
0.000117119
0.000115021
0.000112909
0.000110782
0.000108642
0.000106488
0.000104321
0.000102142
9.99503e-05
9.77472e-05
9.55329e-05
9.33082e-05
9.10736e-05
8.88299e-05
8.65778e-05
8.43181e-05
8.20518e-05
7.97798e-05
7.75031e-05
7.52228e-05
7.29398e-05
7.06552e-05
6.83704e-05
6.60869e-05
6.38063e-05
6.15304e-05
5.92611e-05
5.70003e-05
5.47498e-05
5.25118e-05
5.02882e-05
4.8081e-05
4.58924e-05
4.37247e-05
4.15798e-05
3.94603e-05
3.73682e-05
3.53059e-05
3.32756e-05
3.12797e-05
2.93203e-05
2.73996e-05
2.55198e-05
2.36828e-05
2.18905e-05
2.01448e-05
1.84476e-05
1.68008e-05
1.52062e-05
1.36659e-05
1.21823e-05
1.07582e-05
9.39718e-06
8.10391e-06
6.88435e-06
5.74626e-06
4.69941e-06
3.7552e-06
2.92581e-06
2.22264e-06
1.65403e-06
1.22445e-06
9.05159e-07
6.60398e-07
4.82762e-07
3.66478e-07
3.1057e-07
0.000234537
0.00023328
0.000231886
0.000230413
0.000228883
0.00022731
0.000225705
0.000224072
0.000222416
0.000220737
0.000219037
0.000217317
0.000215577
0.000213817
0.000212037
0.000210238
0.000208419
0.00020658
0.00020472
0.00020284
0.000200938
0.000199016
0.000197071
0.000195105
0.000193117
0.000191107
0.000189075
0.000187021
0.000184945
0.000182845
0.000180723
0.000178578
0.00017641
0.000174218
0.000172002
0.000169763
0.000167499
0.000165211
0.000162898
0.00016056
0.000158197
0.000155808
0.000153393
0.000150953
0.000148486
0.000145993
0.000143473
0.000140925
0.000138351
0.000135749
0.00013312
0.000130463
0.000127778
0.000125066
0.000122325
0.000119557
0.000116761
0.000113937
0.000111088
0.000108213
0.000105313
0.00010239
9.94449e-05
9.6478e-05
9.3491e-05
9.04851e-05
8.74618e-05
8.44227e-05
8.13695e-05
7.8304e-05
7.5228e-05
7.21435e-05
6.90524e-05
6.59568e-05
6.28587e-05
5.97599e-05
5.66622e-05
5.35676e-05
5.04776e-05
4.73938e-05
4.43175e-05
4.12499e-05
3.81929e-05
3.5149e-05
3.21218e-05
2.91169e-05
2.61428e-05
2.32117e-05
2.03418e-05
1.75597e-05
1.49006e-05
1.24089e-05
1.01367e-05
8.13827e-06
6.47476e-06
5.1448e-06
4.05124e-06
3.19984e-06
2.60861e-06
2.32047e-06
0.000304922
0.000303838
0.00030265
0.000301399
0.000300099
0.000298764
0.000297399
0.00029601
0.000294599
0.000293167
0.000291716
0.000290245
0.000288755
0.000287246
0.000285719
0.000284174
0.00028261
0.000281026
0.000279423
0.000277799
0.000276155
0.000274489
0.000272802
0.000271094
0.000269363
0.00026761
0.000265835
0.000264036
0.000262213
0.000260366
0.000258494
0.000256596
0.000254672
0.000252722
0.000250744
0.000248737
0.000246702
0.000244636
0.000242539
0.00024041
0.000238248
0.000236052
0.000233821
0.000231553
0.000229248
0.000226903
0.000224518
0.000222092
0.000219622
0.000217107
0.000214547
0.000211939
0.000209282
0.000206573
0.000203811
0.000200994
0.000198121
0.00019519
0.0001922
0.00018915
0.000186039
0.000182866
0.000179629
0.000176327
0.000172959
0.000169523
0.000166019
0.000162444
0.000158799
0.00015508
0.000151288
0.00014742
0.000143474
0.000139449
0.000135342
0.00013115
0.000126869
0.000122496
0.000118026
0.000113454
0.000108773
0.000103972
9.904e-05
9.39674e-05
8.87431e-05
8.33575e-05
7.78045e-05
7.20823e-05
6.61988e-05
6.01806e-05
5.40762e-05
4.79618e-05
4.19457e-05
3.61675e-05
3.08172e-05
2.62116e-05
2.21624e-05
1.87715e-05
1.626e-05
1.49845e-05
0.000386767
0.00038604
0.000385254
0.000384429
0.000383576
0.000382701
0.000381807
0.000380896
0.000379971
0.000379033
0.000378081
0.000377116
0.000376137
0.000375147
0.000374144
0.00037313
0.000372103
0.000371063
0.000370009
0.000368942
0.00036786
0.000366764
0.000365653
0.000364526
0.000363385
0.000362227
0.000361052
0.00035986
0.00035865
0.000357422
0.000356176
0.000354909
0.000353622
0.000352314
0.000350985
0.000349632
0.000348256
0.000346855
0.000345428
0.000343975
0.000342493
0.000340983
0.000339443
0.000337871
0.000336266
0.000334626
0.000332951
0.000331238
0.000329486
0.000327693
0.000325857
0.000323977
0.000322051
0.000320075
0.000318048
0.000315965
0.000313825
0.000311625
0.000309364
0.000307039
0.000304648
0.000302187
0.000299654
0.000297045
0.000294357
0.000291587
0.00028873
0.000285782
0.000282739
0.000279596
0.000276348
0.00027299
0.000269515
0.000265917
0.000262188
0.000258313
0.000254272
0.000250053
0.000245645
0.000241035
0.000236212
0.000231154
0.000225816
0.000220161
0.000214146
0.00020772
0.00020083
0.000193412
0.000185395
0.000176731
0.000167389
0.000157365
0.000146688
0.00013543
0.00012373
0.000112019
0.000101387
9.1718e-05
8.39628e-05
7.96795e-05
0.000476472
0.00047625
0.000476015
0.000475773
0.000475526
0.000475275
0.000475019
0.000474759
0.000474495
0.000474227
0.000473955
0.00047368
0.000473401
0.000473118
0.000472834
0.000472547
0.000472258
0.000471965
0.000471669
0.000471369
0.000471066
0.000470758
0.000470447
0.000470132
0.000469813
0.000469489
0.000469161
0.000468828
0.000468489
0.000468146
0.000467797
0.000467443
0.000467083
0.000466717
0.000466345
0.000465967
0.000465581
0.000465188
0.000464789
0.000464381
0.000463965
0.000463541
0.000463109
0.000462667
0.000462216
0.000461756
0.000461286
0.000460805
0.000460315
0.000459814
0.000459302
0.00045878
0.000458248
0.000457706
0.000457153
0.000456588
0.000456012
0.000455423
0.000454821
0.000454207
0.000453579
0.000452937
0.00045228
0.000451606
0.000450916
0.000450206
0.000449475
0.000448722
0.000447942
0.000447133
0.00044629
0.000445409
0.000444485
0.00044351
0.000442476
0.00044138
0.000440221
0.000438985
0.000437658
0.000436217
0.000434637
0.000432896
0.000430988
0.000428894
0.000426595
0.000424072
0.000421304
0.000418276
0.0004148
0.000410755
0.00040604
0.000400539
0.000394114
0.000386596
0.000377749
0.000367273
0.000355198
0.00034286
0.000331714
0.000324434
0.000568284
0.000568668
0.000569064
0.000569467
0.000569878
0.000570294
0.000570717
0.000571146
0.000571582
0.000572023
0.000572471
0.000572925
0.000573386
0.000573853
0.000574328
0.00057481
0.0005753
0.000575797
0.000576302
0.000576815
0.000577335
0.000577864
0.000578401
0.000578946
0.0005795
0.000580064
0.000580637
0.000581219
0.000581812
0.000582415
0.000583028
0.000583653
0.00058429
0.000584938
0.000585599
0.000586273
0.000586961
0.000587662
0.000588379
0.000589111
0.000589859
0.000590623
0.000591406
0.000592207
0.000593027
0.000593868
0.00059473
0.000595614
0.000596522
0.000597454
0.000598411
0.000599396
0.000600409
0.00060145
0.000602522
0.000603626
0.000604764
0.00060594
0.000607158
0.00060842
0.000609731
0.000611094
0.000612513
0.000613993
0.000615538
0.000617153
0.000618845
0.000620619
0.000622482
0.000624443
0.000626508
0.000628688
0.000630991
0.000633429
0.000636011
0.000638751
0.000641659
0.000644748
0.00064803
0.000651514
0.000655214
0.000659137
0.000663296
0.000667695
0.000672339
0.00067723
0.000682365
0.000687745
0.000693516
0.000699792
0.000706669
0.000714218
0.000722353
0.000731107
0.00074049
0.000750455
0.000760822
0.000771082
0.00078001
0.000785311
0.000654513
0.000655357
0.000656256
0.000657192
0.000658155
0.000659141
0.000660145
0.000661166
0.000662202
0.000663252
0.000664316
0.000665395
0.000666487
0.000667595
0.000668718
0.000669857
0.000671011
0.000672181
0.000673368
0.00067457
0.000675789
0.000677025
0.000678278
0.000679548
0.000680836
0.000682143
0.000683469
0.000684813
0.000686178
0.000687563
0.000688969
0.000690396
0.000691846
0.000693319
0.000694816
0.000696337
0.000697884
0.000699457
0.000701057
0.000702685
0.000704343
0.000706031
0.00070775
0.000709503
0.000711289
0.000713111
0.00071497
0.000716868
0.000718807
0.000720787
0.000722812
0.000724884
0.000727004
0.000729176
0.0007314
0.000733681
0.000736021
0.000738423
0.000740893
0.000743436
0.000746054
0.000748754
0.000751541
0.000754419
0.000757396
0.000760475
0.000763666
0.000766974
0.000770407
0.000773973
0.00077768
0.000781536
0.000785552
0.000789735
0.000794094
0.000798639
0.000803378
0.000808318
0.000813467
0.00081883
0.000824411
0.000830212
0.000836232
0.000842469
0.000848917
0.000855567
0.000862408
0.000869423
0.00087659
0.000883878
0.000891239
0.000898665
0.000906311
0.000914036
0.000921706
0.000929187
0.000936262
0.000942567
0.000947478
0.00094998
0.000730557
0.000731681
0.000732904
0.000734188
0.000735515
0.000736875
0.000738263
0.000739673
0.000741104
0.000742554
0.000744023
0.00074551
0.000747015
0.000748539
0.000750082
0.000751644
0.000753226
0.000754827
0.000756448
0.000758089
0.00075975
0.000761431
0.000763132
0.000764854
0.000766597
0.000768362
0.000770148
0.000771956
0.000773787
0.00077564
0.000777516
0.000779416
0.00078134
0.000783289
0.000785262
0.000787261
0.000789286
0.000791338
0.000793417
0.000795523
0.000797659
0.000799824
0.000802018
0.000804244
0.000806502
0.000808793
0.000811117
0.000813477
0.000815873
0.000818306
0.000820778
0.000823291
0.000825845
0.000828442
0.000831084
0.000833772
0.000836508
0.000839295
0.000842134
0.00084503
0.000847983
0.000850997
0.000854074
0.000857216
0.000860427
0.000863709
0.000867064
0.000870495
0.000874004
0.000877594
0.000881266
0.000885023
0.000888865
0.000892794
0.000896809
0.00090091
0.000905094
0.000909358
0.000913698
0.000918106
0.000922574
0.000927092
0.000931646
0.00093622
0.000940799
0.00094536
0.000949883
0.000954339
0.000958701
0.000962935
0.000967002
0.000970862
0.000974465
0.000977875
0.000981037
0.000983906
0.000986421
0.000988498
0.000990001
0.000990706
0.000794214
0.000795448
0.000796809
0.000798242
0.000799725
0.000801246
0.000802796
0.000804369
0.000805963
0.000807577
0.000809208
0.000810857
0.000812523
0.000814207
0.00081591
0.00081763
0.000819369
0.000821125
0.0008229
0.000824694
0.000826505
0.000828336
0.000830184
0.000832051
0.000833937
0.000835842
0.000837765
0.000839708
0.000841669
0.000843649
0.000845648
0.000847666
0.000849704
0.00085176
0.000853836
0.000855931
0.000858045
0.000860179
0.000862331
0.000864503
0.000866694
0.000868904
0.000871134
0.000873382
0.00087565
0.000877938
0.000880245
0.000882571
0.000884917
0.000887282
0.000889667
0.000892072
0.000894497
0.000896942
0.000899406
0.00090189
0.000904395
0.000906919
0.000909464
0.00091203
0.000914617
0.000917225
0.000919854
0.000922503
0.000925173
0.000927862
0.000930569
0.000933295
0.000936037
0.000938794
0.000941564
0.000944344
0.000947133
0.000949927
0.000952721
0.000955511
0.000958292
0.000961057
0.0009638
0.000966511
0.000969182
0.000971804
0.000974365
0.000976854
0.00097926
0.00098157
0.000983772
0.000985853
0.0009878
0.000989601
0.000991241
0.000992707
0.000993987
0.000995086
0.000996045
0.000996858
0.000997523
0.000998035
0.000998385
0.000998543
0.000845337
0.00084656
0.000847916
0.000849345
0.000850822
0.000852333
0.000853868
0.000855423
0.000856994
0.00085858
0.00086018
0.000861793
0.000863419
0.000865058
0.000866711
0.000868376
0.000870055
0.000871747
0.000873451
0.000875169
0.0008769
0.000878643
0.0008804
0.000882169
0.00088395
0.000885744
0.00088755
0.000889368
0.000891198
0.00089304
0.000894893
0.000896758
0.000898634
0.00090052
0.000902417
0.000904324
0.000906241
0.000908166
0.000910101
0.000912044
0.000913996
0.000915954
0.00091792
0.000919892
0.000921869
0.000923852
0.000925839
0.00092783
0.000929825
0.000931821
0.000933819
0.000935818
0.000937816
0.000939814
0.000941809
0.000943801
0.000945789
0.000947772
0.000949749
0.000951719
0.000953681
0.000955634
0.000957576
0.000959506
0.000961422
0.000963323
0.000965207
0.000967071
0.000968915
0.000970736
0.000972531
0.000974298
0.000976034
0.000977737
0.000979402
0.000981026
0.000982607
0.000984139
0.000985619
0.000987042
0.000988404
0.000989701
0.000990928
0.000992082
0.000993158
0.000994153
0.000995065
0.00099589
0.000996628
0.000997278
0.000997839
0.000998311
0.000998697
0.000999
0.000999246
0.000999441
0.00099959
0.000999698
0.000999767
0.000999799
0.000884913
0.000886067
0.000887344
0.000888683
0.00089006
0.000891462
0.000892881
0.000894313
0.000895755
0.000897205
0.000898663
0.000900127
0.000901599
0.000903077
0.000904562
0.000906054
0.000907552
0.000909056
0.000910567
0.000912084
0.000913607
0.000915135
0.000916669
0.000918209
0.000919754
0.000921303
0.000922858
0.000924416
0.000925979
0.000927545
0.000929115
0.000930688
0.000932263
0.000933841
0.00093542
0.000937
0.000938581
0.000940162
0.000941743
0.000943323
0.000944902
0.000946478
0.000948051
0.000949621
0.000951186
0.000952747
0.000954301
0.000955849
0.000957389
0.000958921
0.000960443
0.000961954
0.000963454
0.000964941
0.000966414
0.000967872
0.000969314
0.000970738
0.000972144
0.000973531
0.000974896
0.000976239
0.000977559
0.000978853
0.000980122
0.000981362
0.000982573
0.000983754
0.000984902
0.000986017
0.000987096
0.000988139
0.000989144
0.000990109
0.000991033
0.000991915
0.000992752
0.000993545
0.000994291
0.000994989
0.000995639
0.000996239
0.00099679
0.000997291
0.000997742
0.000998145
0.000998499
0.000998806
0.000999069
0.000999289
0.000999469
0.000999612
0.000999721
0.000999801
0.00099986
0.000999904
0.000999935
0.000999956
0.000999969
0.000999975
0.000914259
0.000915333
0.00091651
0.000917731
0.000918978
0.000920238
0.000921507
0.000922782
0.000924059
0.000925339
0.00092662
0.000927902
0.000929185
0.000930469
0.000931752
0.000933036
0.000934321
0.000935605
0.000936889
0.000938173
0.000939456
0.000940739
0.00094202
0.000943301
0.00094458
0.000945857
0.000947132
0.000948406
0.000949676
0.000950944
0.000952209
0.000953469
0.000954726
0.000955978
0.000957225
0.000958466
0.000959702
0.000960931
0.000962153
0.000963367
0.000964574
0.000965772
0.000966961
0.00096814
0.00096931
0.000970468
0.000971614
0.000972748
0.00097387
0.000974977
0.000976071
0.000977149
0.000978211
0.000979257
0.000980285
0.000981294
0.000982284
0.000983254
0.000984203
0.00098513
0.000986034
0.000986915
0.000987772
0.000988604
0.00098941
0.000990189
0.000990941
0.000991664
0.000992358
0.000993023
0.000993657
0.000994261
0.000994833
0.000995373
0.000995881
0.000996356
0.000996799
0.000997209
0.000997587
0.000997932
0.000998246
0.000998528
0.00099878
0.000999002
0.000999196
0.000999363
0.000999505
0.000999624
0.000999721
0.000999798
0.000999858
0.000999903
0.000999936
0.000999958
0.000999972
0.000999983
0.000999989
0.000999993
0.000999996
0.000999997
0.000934632
0.000935644
0.000936734
0.000937849
0.000938976
0.000940108
0.000941241
0.000942372
0.000943501
0.000944627
0.000945749
0.000946867
0.00094798
0.00094909
0.000950195
0.000951295
0.000952391
0.000953482
0.000954567
0.000955648
0.000956723
0.000957793
0.000958856
0.000959914
0.000960966
0.000962011
0.000963049
0.00096408
0.000965105
0.000966121
0.00096713
0.000968131
0.000969122
0.000970105
0.000971079
0.000972043
0.000972997
0.000973941
0.000974874
0.000975796
0.000976706
0.000977604
0.000978491
0.000979364
0.000980224
0.000981071
0.000981904
0.000982723
0.000983527
0.000984315
0.000985088
0.000985845
0.000986586
0.000987309
0.000988015
0.000988704
0.000989374
0.000990025
0.000990658
0.00099127
0.000991863
0.000992436
0.000992988
0.000993519
0.000994028
0.000994516
0.000994982
0.000995426
0.000995848
0.000996247
0.000996624
0.000996979
0.000997311
0.000997621
0.000997908
0.000998174
0.000998418
0.000998641
0.000998843
0.000999025
0.000999187
0.000999331
0.000999457
0.000999565
0.000999658
0.000999737
0.000999801
0.000999854
0.000999896
0.000999928
0.000999952
0.000999969
0.000999981
0.000999989
0.000999993
0.000999996
0.000999998
0.000999999
0.000999999
0.001
0.000947122
0.000948103
0.000949137
0.000950181
0.000951225
0.000952266
0.000953303
0.000954334
0.000955358
0.000956375
0.000957385
0.000958388
0.000959383
0.000960371
0.000961351
0.000962323
0.000963287
0.000964243
0.000965191
0.00096613
0.000967061
0.000967983
0.000968897
0.000969801
0.000970696
0.000971582
0.000972458
0.000973325
0.000974181
0.000975027
0.000975862
0.000976686
0.0009775
0.000978302
0.000979092
0.000979871
0.000980638
0.000981392
0.000982134
0.000982863
0.000983579
0.000984281
0.000984971
0.000985646
0.000986307
0.000986954
0.000987586
0.000988204
0.000988807
0.000989395
0.000989967
0.000990524
0.000991064
0.00099159
0.000992098
0.000992591
0.000993068
0.000993527
0.00099397
0.000994396
0.000994806
0.000995198
0.000995573
0.000995932
0.000996273
0.000996597
0.000996904
0.000997194
0.000997468
0.000997725
0.000997965
0.000998189
0.000998397
0.00099859
0.000998767
0.000998929
0.000999077
0.000999211
0.000999332
0.000999439
0.000999535
0.000999618
0.000999691
0.000999754
0.000999807
0.000999851
0.000999888
0.000999918
0.000999941
0.00099996
0.000999973
0.000999983
0.00099999
0.000999994
0.000999997
0.000999998
0.000999999
0.001
0.001
0.001
0.000952692
0.000953667
0.00095468
0.000955693
0.000956701
0.000957701
0.000958694
0.000959678
0.000960653
0.00096162
0.000962578
0.000963526
0.000964465
0.000965395
0.000966316
0.000967227
0.000968129
0.000969021
0.000969903
0.000970776
0.000971638
0.000972491
0.000973333
0.000974164
0.000974985
0.000975795
0.000976594
0.000977382
0.000978159
0.000978924
0.000979677
0.000980418
0.000981147
0.000981864
0.000982568
0.00098326
0.000983939
0.000984605
0.000985257
0.000985896
0.000986522
0.000987134
0.000987732
0.000988315
0.000988885
0.00098944
0.000989981
0.000990507
0.000991018
0.000991515
0.000991996
0.000992463
0.000992914
0.00099335
0.000993771
0.000994177
0.000994568
0.000994943
0.000995302
0.000995647
0.000995976
0.00099629
0.000996589
0.000996873
0.000997142
0.000997397
0.000997637
0.000997863
0.000998074
0.000998272
0.000998456
0.000998628
0.000998786
0.000998932
0.000999065
0.000999187
0.000999298
0.000999399
0.000999489
0.000999569
0.00099964
0.000999702
0.000999757
0.000999804
0.000999844
0.000999878
0.000999906
0.000999929
0.000999948
0.000999963
0.000999974
0.000999983
0.000999989
0.000999993
0.000999996
0.000999998
0.000999999
0.001
0.001
0.001
3.04013e-12
6.28575e-12
1.29204e-11
2.45543e-11
4.41363e-11
7.6402e-11
1.29039e-10
2.14796e-10
3.55328e-10
5.88399e-10
9.81714e-10
1.66027e-09
2.8621e-09
5.05502e-09
9.1884e-09
1.72445e-08
3.34454e-08
6.67144e-08
1.33904e-07
2.48222e-07
3.44342e-11
5.8505e-11
1.03256e-10
1.7729e-10
2.95036e-10
4.78769e-10
7.63665e-10
1.20671e-09
1.90282e-09
3.01472e-09
4.82966e-09
7.86998e-09
1.31147e-08
2.24559e-08
3.96601e-08
7.24122e-08
1.36629e-07
2.64636e-07
5.13569e-07
9.12921e-07
3.94286e-10
5.91444e-10
9.13183e-10
1.40449e-09
2.13516e-09
3.20622e-09
4.77131e-09
7.07245e-09
1.05029e-08
1.57206e-08
2.3859e-08
3.69267e-08
5.85868e-08
9.57171e-08
1.61591e-07
2.82442e-07
5.10705e-07
9.48218e-07
1.76134e-06
2.97343e-06
4.11956e-09
5.61936e-09
7.83938e-09
1.09593e-08
1.52817e-08
2.12202e-08
2.93784e-08
4.0681e-08
5.65971e-08
7.95283e-08
1.13505e-07
1.65476e-07
2.47719e-07
3.82519e-07
6.1144e-07
1.01364e-06
1.74061e-06
3.07041e-06
5.40814e-06
8.5585e-06
3.88199e-08
4.8999e-08
6.29626e-08
8.12118e-08
1.04829e-07
1.35256e-07
1.74543e-07
2.25774e-07
2.93782e-07
3.86318e-07
5.16132e-07
7.04586e-07
9.88142e-07
1.43077e-06
2.14736e-06
3.34708e-06
5.40898e-06
8.97656e-06
1.48237e-05
2.17564e-05
3.27266e-07
3.87339e-07
4.64909e-07
5.60179e-07
6.76077e-07
8.16548e-07
9.8728e-07
1.19694e-06
1.45913e-06
1.79551e-06
2.24163e-06
2.8549e-06
3.73032e-06
5.02906e-06
7.02786e-06
1.0204e-05
1.53625e-05
2.37147e-05
3.61785e-05
4.89318e-05
2.42838e-06
2.72575e-06
3.09197e-06
3.51861e-06
4.00971e-06
4.57213e-06
5.21733e-06
5.96445e-06
6.84484e-06
7.91093e-06
9.24762e-06
1.09869e-05
1.33419e-05
1.66626e-05
2.15191e-05
2.88298e-05
3.9984e-05
5.66482e-05
7.85484e-05
9.77757e-05
1.54396e-05
1.66003e-05
1.79795e-05
1.95147e-05
2.11948e-05
2.30176e-05
2.49944e-05
2.7154e-05
2.95595e-05
3.23204e-05
3.55942e-05
3.96268e-05
4.48153e-05
5.17922e-05
6.15321e-05
7.54415e-05
9.52754e-05
0.000121984
0.000151815
0.00017444
8.07104e-05
8.3846e-05
8.7479e-05
9.1354e-05
9.5384e-05
9.95065e-05
0.000103721
0.000108069
0.000112679
0.000117679
0.000123253
0.000129723
0.000137651
0.000147872
0.000161683
0.000180574
0.000205598
0.000234971
0.00026192
0.00027975
0.00032442
0.000328129
0.000332383
0.000336681
0.000340829
0.000344662
0.000348227
0.000351575
0.000354707
0.000357571
0.000360289
0.000362932
0.000365943
0.000369597
0.000374821
0.000382169
0.000391593
0.00040064
0.000405644
0.000407577
0.000784338
0.000780813
0.000776705
0.000772327
0.000767759
0.000763047
0.000758058
0.000752634
0.000746656
0.000739961
0.00073234
0.000723384
0.000712482
0.000698708
0.000680629
0.000657055
0.000628225
0.000596573
0.000566388
0.000544306
0.000948843
0.000946444
0.000943628
0.00094053
0.000937174
0.00093356
0.000929646
0.000925351
0.000920508
0.000914915
0.000908308
0.000900252
0.00089004
0.000876619
0.000858378
0.000833237
0.000799077
0.000756073
0.000710497
0.000674329
0.000990283
0.000989438
0.00098842
0.000987255
0.000985937
0.000984447
0.000982757
0.000980816
0.000978541
0.000975805
0.000972411
0.000968063
0.000962284
0.00095432
0.000942975
0.000926424
0.000902089
0.000867467
0.000824755
0.00078691
0.000998444
0.000998228
0.000997958
0.000997634
0.000997249
0.00099679
0.000996242
0.000995577
0.000994756
0.000993717
0.000992359
0.000990525
0.000987958
0.000984237
0.000978652
0.000970021
0.000956431
0.000935218
0.000905219
0.000875348
0.000999782
0.000999738
0.000999679
0.000999605
0.000999511
0.000999393
0.000999244
0.000999052
0.000998802
0.000998467
0.000998004
0.000997345
0.000996373
0.000994889
0.000992542
0.000988712
0.000982308
0.000971577
0.000954763
0.000936147
0.000999973
0.000999965
0.000999954
0.000999939
0.000999919
0.000999893
0.000999857
0.000999808
0.00099974
0.000999644
0.000999505
0.000999296
0.000998971
0.00099845
0.000997583
0.000996096
0.000993475
0.000988818
0.000980933
0.00097105
0.000999997
0.000999996
0.000999994
0.000999991
0.000999987
0.000999982
0.000999974
0.000999963
0.000999946
0.000999922
0.000999884
0.000999824
0.000999727
0.000999563
0.000999279
0.000998768
0.000997824
0.000996062
0.000992895
0.00098846
0.001
0.001
0.000999999
0.000999999
0.000999998
0.000999997
0.000999995
0.000999993
0.000999989
0.000999984
0.000999974
0.000999959
0.000999932
0.000999886
0.000999802
0.000999646
0.000999345
0.000998759
0.000997652
0.000995963
0.001
0.001
0.001
0.001
0.001
0.001
0.000999999
0.000999999
0.000999998
0.000999997
0.000999995
0.000999991
0.000999984
0.000999972
0.00099995
0.000999907
0.000999822
0.000999649
0.000999309
0.000998758
0.001
0.001
0.001
0.001
0.001
0.001
0.001
0.001
0.001
0.000999999
0.000999999
0.000999998
0.000999996
0.000999994
0.000999988
0.000999978
0.000999956
0.000999911
0.000999819
0.000999663
1.2118e-139
1.5256e-139
2.49653e-139
4.84846e-139
1.00673e-138
2.11589e-138
4.40741e-138
9.02775e-138
1.81185e-137
3.55403e-137
6.79677e-137
1.26249e-136
2.27174e-136
3.94632e-136
6.58891e-136
1.05128e-135
1.59044e-135
2.25632e-135
2.95208e-135
3.46594e-135
2.8797e-138
3.52789e-138
5.66112e-138
1.09277e-137
2.27187e-137
4.79321e-137
1.00314e-136
2.06539e-136
4.16823e-136
8.22482e-136
1.58302e-135
2.96009e-135
5.36395e-135
9.38762e-135
1.57999e-134
2.54308e-134
3.88461e-134
5.57055e-134
7.37707e-134
8.78415e-134
6.31051e-137
7.48976e-137
1.17349e-136
2.24755e-136
4.67803e-136
9.912e-136
2.08534e-135
4.3182e-135
8.76831e-135
1.74156e-134
3.37554e-134
6.35895e-134
1.16143e-133
2.04989e-133
3.48144e-133
5.65863e-133
8.73713e-133