/*--------------------------------*- C++ -*----------------------------------*\
| =========                 |                                                 |
| \\      /  F ield         | OpenFOAM: The Open Source CFD Toolbox           |
|  \\    /   O peration     | Version:  2.1.0                                 |
|   \\  /    A nd           | Web:      www.OpenFOAM.org                      |
|    \\/     M anipulation  |                                                 |
\*---------------------------------------------------------------------------*/
FoamFile
{
    version     2.0;
    format      ascii;
    class       volScalarField;
    location    "0.49";
    object      k;
}
// * * * * * * * * * * * * * * * * * * * * * * * * * * * * * * * * * * * * * //

dimensions      [0 2 -2 0 0 0 0];

internalField   nonuniform List<scalar> 
6400
(
0.0327677
0.0328069
0.0328103
0.0328043
0.0327819
0.0327711
0.032741
0.0327266
0.0326931
0.0326763
0.0326409
0.032621
0.0325847
0.0325609
0.0325238
0.0324958
0.0324578
0.0324257
0.0323863
0.0323502
0.0323092
0.0322695
0.0322269
0.0321841
0.0321398
0.0320946
0.0320486
0.032001
0.031953
0.0319028
0.0318525
0.0317998
0.0317468
0.0316912
0.0316352
0.0315765
0.0315171
0.0314549
0.0313916
0.031325
0.0312564
0.0311836
0.0311078
0.0310269
0.0309418
0.0308505
0.0307534
0.030649
0.0305374
0.0304174
0.0302887
0.0301505
0.0300022
0.029841
0.0296638
0.0294693
0.0292534
0.0290363
0.0288002
0.0285611
0.0283051
0.0280447
0.0277705
0.0274896
0.0271948
0.0268916
0.0265743
0.0262469
0.0259023
0.0255423
0.025166
0.0247704
0.0243567
0.023922
0.0234677
0.0229922
0.0224974
0.0219836
0.0214534
0.0209092
0.0203535
0.0197877
0.019208
0.0185967
0.0179213
0.0172246
0.0164733
0.0156482
0.0147155
0.0136226
0.0122974
0.010629
0.00853574
0.00605397
0.00339605
0.00235675
0.00274586
0.00552284
0.0087617
0.00991657
0.0518732
0.0522115
0.0523664
0.0526501
0.0528255
0.0531069
0.0533012
0.0535764
0.0537885
0.0540582
0.0542854
0.0545513
0.0547908
0.0550546
0.0553035
0.0555664
0.0558223
0.0560849
0.0563455
0.0566081
0.0568718
0.0571346
0.0574005
0.0576646
0.0579337
0.0582017
0.0584759
0.0587494
0.0590298
0.0593099
0.0595969
0.059884
0.0601777
0.0604721
0.0607728
0.0610749
0.061383
0.0616935
0.0620103
0.0623302
0.0626568
0.0629843
0.0633161
0.0636484
0.0639823
0.0643151
0.0646461
0.0649732
0.0652945
0.0656083
0.0659123
0.0662057
0.0664912
0.0667704
0.0670304
0.067273
0.0674791
0.0676935
0.0678796
0.0680607
0.0682131
0.068353
0.0684691
0.0685739
0.0686507
0.0687094
0.0687371
0.0687466
0.0687231
0.0686525
0.0685417
0.0683746
0.0681493
0.0678536
0.0674804
0.0670196
0.0664621
0.0658
0.0650244
0.0641307
0.0631132
0.0619729
0.0607121
0.0593288
0.0577884
0.056013
0.0539928
0.0516539
0.0489444
0.0457863
0.0421281
0.0379264
0.0332448
0.028353
0.0233621
0.0186232
0.0149772
0.012396
0.0107889
0.00922048
0.0576488
0.0581511
0.0583797
0.058795
0.0590773
0.0594772
0.0597926
0.0601824
0.0605213
0.060906
0.0612624
0.0616455
0.0620154
0.0623991
0.0627794
0.0631652
0.0635533
0.0639417
0.0643353
0.0647256
0.0651221
0.0655129
0.0659095
0.0662988
0.0666946
0.067085
0.067484
0.0678786
0.068281
0.0686799
0.0690854
0.0694881
0.0698961
0.0703016
0.0707114
0.0711189
0.0715291
0.0719364
0.0723442
0.0727482
0.0731508
0.0735503
0.0739461
0.0743373
0.0747216
0.0750984
0.0754637
0.0758162
0.0761501
0.0764619
0.0767447
0.0769895
0.0771935
0.0773914
0.0775535
0.0777007
0.077816
0.0779137
0.0779786
0.0780176
0.078033
0.0780338
0.0779704
0.0778856
0.0777415
0.0775632
0.0773248
0.0770418
0.0766947
0.0762916
0.0758159
0.075269
0.0746354
0.0739117
0.0730821
0.0721402
0.07107
0.0698644
0.0685083
0.0669961
0.0653158
0.063465
0.0614356
0.0592274
0.0568395
0.0543024
0.0515936
0.0487321
0.0456847
0.0424508
0.0389798
0.0352496
0.0312298
0.0269256
0.0224487
0.0180984
0.014425
0.011466
0.00928354
0.00710579
0.0619445
0.0625072
0.0627633
0.0632444
0.0635783
0.064039
0.0644152
0.0648622
0.0652646
0.0657042
0.0661237
0.0665603
0.0669914
0.0674277
0.067867
0.0683043
0.0687489
0.0691873
0.0696347
0.0700734
0.070521
0.0709582
0.0714025
0.0718345
0.0722665
0.0726799
0.0731004
0.0735107
0.0739242
0.0743279
0.0747319
0.0751256
0.0755169
0.0758971
0.076272
0.0766344
0.0769888
0.0773287
0.0776592
0.0779726
0.0782694
0.0785508
0.0788102
0.0790517
0.079267
0.0794602
0.0796234
0.0797597
0.0798618
0.0799256
0.0799539
0.0799602
0.0799147
0.0798357
0.0797056
0.0795348
0.0793074
0.0790304
0.078689
0.078287
0.0778113
0.077265
0.0766384
0.075935
0.0751411
0.0742628
0.0732863
0.0722187
0.0710487
0.0697835
0.0684148
0.0669505
0.0653854
0.0637283
0.0619758
0.0601377
0.0582116
0.0562079
0.0541244
0.0519712
0.0497459
0.0474577
0.045104
0.0426929
0.0402237
0.0377036
0.0351327
0.032536
0.0299103
0.0272736
0.024628
0.0219901
0.0193656
0.0167761
0.0142539
0.0118791
0.00969964
0.00786228
0.00658651
0.00598988
0.0631782
0.0637157
0.0639554
0.0644212
0.0647317
0.0651751
0.065523
0.065946
0.0663138
0.0667206
0.0670978
0.0674912
0.067871
0.0682527
0.0686297
0.0689998
0.0693696
0.0697266
0.070085
0.0704271
0.0707701
0.0710948
0.0714187
0.0717233
0.0720229
0.072306
0.0725824
0.0728418
0.0730916
0.0733219
0.0735393
0.0737345
0.0739132
0.0740668
0.0741998
0.0743045
0.0743844
0.0744243
0.0744401
0.0744362
0.074372
0.0742876
0.074147
0.0739744
0.0737459
0.0734766
0.0731496
0.072775
0.0723404
0.0718529
0.0713041
0.0706984
0.0700277
0.0692987
0.068503
0.0676467
0.0667269
0.0657462
0.0647011
0.0635954
0.0624258
0.0611974
0.0599072
0.0585615
0.0571576
0.0557025
0.0541943
0.0526406
0.0510397
0.0493998
0.0477197
0.0460074
0.0442629
0.0424945
0.040705
0.0389042
0.037092
0.0352775
0.0334622
0.031655
0.0298585
0.0280824
0.026331
0.0246132
0.0229341
0.0213013
0.0197206
0.0181832
0.0167005
0.0152666
0.0138902
0.0125657
0.011303
0.0101002
0.00897483
0.00794324
0.00703094
0.00639863
0.0061245
0.00612126
0.0597933
0.060129
0.060279
0.0605818
0.0607786
0.0610613
0.0612743
0.0615309
0.0617439
0.061973
0.062176
0.0623773
0.0625631
0.0627354
0.062898
0.0630392
0.0631729
0.0632799
0.0633797
0.0634493
0.0635074
0.063535
0.0635461
0.0635417
0.0634987
0.0634389
0.0633458
0.0632275
0.0630835
0.0629108
0.0627104
0.0624772
0.0622138
0.0619144
0.0615821
0.0612111
0.0608049
0.0603579
0.0598747
0.0593488
0.0587825
0.0581761
0.0575268
0.0568381
0.056106
0.0553353
0.0545222
0.0536717
0.0527808
0.0518543
0.0508902
0.0498929
0.0488612
0.0477998
0.046708
0.0455905
0.0444467
0.0432813
0.0420946
0.0408942
0.039679
0.0384554
0.037223
0.0359877
0.0347496
0.0335145
0.0322828
0.0310598
0.0298464
0.0286475
0.0274643
0.0263014
0.0251598
0.0240435
0.0229513
0.0218854
0.0208482
0.0198416
0.0188685
0.0179299
0.0170266
0.016154
0.0153171
0.0145109
0.013739
0.0129961
0.0122845
0.0115986
0.0109398
0.0103015
0.0096851
0.00908392
0.00850114
0.00793452
0.00739713
0.00689981
0.00653553
0.00637725
0.00635068
0.00656772
0.050788
0.0507616
0.0507534
0.0507497
0.0507445
0.0507259
0.0507037
0.0506579
0.0506091
0.0505301
0.0504493
0.050334
0.0502174
0.0500638
0.0499082
0.0497143
0.0495173
0.0492817
0.049042
0.0487641
0.0484811
0.0481615
0.0478356
0.0474749
0.0470995
0.0466921
0.0462672
0.045812
0.0453382
0.0448351
0.0443126
0.0437617
0.0431914
0.0425941
0.0419779
0.0413362
0.0406769
0.0399942
0.0392955
0.0385759
0.0378424
0.0370916
0.0363311
0.0355571
0.0347762
0.0339859
0.0331919
0.0323927
0.0315932
0.0307926
0.0299952
0.0292008
0.0284133
0.0276325
0.026862
0.0261018
0.0253517
0.024615
0.0238918
0.0231819
0.022487
0.0218075
0.0211444
0.020498
0.0198689
0.0192566
0.0186633
0.0180861
0.0175257
0.0169807
0.0164515
0.0159364
0.0154355
0.014947
0.0144705
0.0140045
0.013548
0.0130995
0.0126573
0.0122193
0.0117991
0.01139
0.0109969
0.0106134
0.0102438
0.00988236
0.00953309
0.00919101
0.00886078
0.00853903
0.00823209
0.00793927
0.00766974
0.00742694
0.0072302
0.0070998
0.00704632
0.00709021
0.00743082
0.00762302
0.03794
0.0375911
0.0374438
0.0371671
0.0369915
0.0367085
0.0364989
0.0361989
0.035954
0.0356315
0.0353511
0.0350035
0.0346887
0.0343153
0.0339671
0.0335668
0.0331862
0.0327593
0.0323479
0.0318949
0.031454
0.0309755
0.0305063
0.030004
0.0295173
0.0290046
0.0285062
0.0279872
0.0274767
0.0269485
0.026431
0.0258999
0.0253814
0.024853
0.0243392
0.023819
0.0233151
0.0228079
0.0223188
0.021829
0.0213588
0.0208902
0.0204406
0.0199946
0.0195684
0.0191476
0.0187469
0.0183531
0.0179794
0.0176136
0.0172676
0.0169298
0.0166112
0.0163029
0.0160125
0.0157331
0.0154702
0.0152189
0.0149821
0.0147565
0.0145442
0.0143427
0.0141533
0.0139741
0.0138061
0.0136479
0.0134981
0.0133584
0.0132278
0.0131061
0.0129921
0.0128859
0.0127859
0.0126922
0.0126034
0.0125194
0.0124387
0.0123613
0.0122852
0.0122105
0.0121354
0.0120568
0.0119743
0.0118845
0.0117867
0.0116774
0.0115558
0.0114186
0.0112661
0.0110973
0.0109153
0.0107239
0.0105323
0.0103517
0.0102244
0.0101693
0.0101637
0.0104114
0.010774
0.0109525
0.0250106
0.0244812
0.0242609
0.0238426
0.0236009
0.023192
0.0229291
0.0225256
0.0222443
0.0218451
0.0215498
0.0211545
0.0208492
0.0204579
0.0201456
0.0197591
0.0194433
0.0190635
0.0187478
0.0183769
0.0180646
0.0177048
0.0173991
0.0170533
0.0167611
0.0164349
0.0161584
0.0158529
0.0155939
0.0153109
0.0150713
0.0148121
0.0145934
0.0143591
0.0141621
0.0139534
0.0137787
0.0135959
0.0134435
0.0132868
0.013157
0.0130256
0.0129184
0.0128119
0.0127275
0.0126453
0.0125835
0.0125252
0.012486
0.0124523
0.0124358
0.0124285
0.0124275
0.0124447
0.0124676
0.012506
0.0125514
0.0126111
0.0126793
0.0127612
0.0128523
0.0129567
0.013071
0.0131982
0.0133357
0.0134862
0.0136475
0.0138215
0.0140065
0.0142043
0.0144136
0.0146361
0.0148706
0.0151187
0.0153793
0.0156537
0.0159408
0.0162417
0.0165554
0.0168826
0.017222
0.0175734
0.0179346
0.0183046
0.0186803
0.0190592
0.0194368
0.0198086
0.0201689
0.0205127
0.0208351
0.0211333
0.0214072
0.0216615
0.0219116
0.022207
0.0226524
0.0232684
0.024094
0.0250008
0.0177262
0.0171936
0.0169778
0.0165664
0.01635
0.0159579
0.0157429
0.0153716
0.0151605
0.0148115
0.0146069
0.0142809
0.0140853
0.0137832
0.0135988
0.013321
0.0131497
0.0128965
0.0127399
0.0125117
0.012371
0.0121678
0.0120441
0.0118657
0.0117597
0.0116057
0.0115175
0.0113872
0.0113169
0.01121
0.0111568
0.011075
0.0110353
0.0109795
0.010953
0.0109231
0.01091
0.0109041
0.0109037
0.010918
0.0109384
0.0109698
0.0110091
0.0110582
0.0111162
0.011183
0.0112597
0.0113445
0.0114399
0.011543
0.0116572
0.0117793
0.0119125
0.0120543
0.012207
0.012369
0.012542
0.0127252
0.0129195
0.0131248
0.0133418
0.0135706
0.0138118
0.014066
0.0143337
0.0146154
0.0149117
0.0152234
0.0155512
0.015896
0.0162586
0.0166402
0.0170417
0.0174645
0.0179099
0.0183795
0.018875
0.0193982
0.019951
0.0205358
0.0211549
0.021811
0.0225077
0.0232484
0.0240372
0.0248788
0.0257786
0.0267428
0.0277794
0.0288969
0.030106
0.031419
0.0328505
0.0344176
0.0361386
0.0380244
0.0400816
0.0422692
0.0437969
0.0444198
0.0204052
0.0198528
0.0196264
0.0191942
0.0189606
0.018545
0.0183063
0.0179079
0.017667
0.0172864
0.0170462
0.0166851
0.0164488
0.0161087
0.0158796
0.0155613
0.0153423
0.0150464
0.0148396
0.0145665
0.0143739
0.014124
0.0139471
0.0137206
0.0135606
0.0133576
0.0132152
0.0130355
0.0129114
0.0127549
0.0126492
0.0125158
0.0124287
0.0123182
0.0122494
0.0121618
0.0121114
0.0120469
0.0120147
0.011976
0.011958
0.0119473
0.0119442
0.0119511
0.0119712
0.0119982
0.0120383
0.0120852
0.0121452
0.0122122
0.0122923
0.0123797
0.0124802
0.0125883
0.0127096
0.0128387
0.012981
0.0131317
0.0132957
0.0134686
0.0136547
0.013851
0.0140605
0.0142815
0.0145162
0.0147633
0.0150248
0.0153
0.0155905
0.015896
0.0162181
0.0165565
0.0169131
0.0172879
0.0176827
0.018098
0.0185357
0.0189966
0.0194828
0.0199955
0.0205372
0.0211095
0.0217154
0.0223571
0.023038
0.0237611
0.0245307
0.0253505
0.0262255
0.0271603
0.0281614
0.0292371
0.0304058
0.0316784
0.0330819
0.0346406
0.036394
0.038313
0.0398618
0.0405424
0.0307404
0.0302059
0.0299807
0.0295525
0.0293001
0.0288779
0.028598
0.028177
0.0278729
0.0274492
0.0271182
0.0266889
0.0263358
0.0259023
0.0255331
0.0250971
0.0247172
0.0242808
0.0238946
0.0234603
0.0230719
0.0226428
0.0222563
0.0218354
0.0214545
0.0210448
0.0206729
0.0202773
0.0199175
0.0195385
0.0191937
0.0188337
0.0185065
0.0181673
0.0178591
0.0175416
0.0172539
0.0169598
0.0166942
0.0164247
0.016182
0.0159386
0.0157203
0.0155039
0.0153108
0.0151214
0.0149538
0.0147912
0.014649
0.0145126
0.0143956
0.0142852
0.0141932
0.0141086
0.0140415
0.0139816
0.0139381
0.0139019
0.0138822
0.0138727
0.0138703
0.0138818
0.0139037
0.0139368
0.0139805
0.0140345
0.0140988
0.0141726
0.0142563
0.0143474
0.0144469
0.0145529
0.014666
0.0147841
0.0149077
0.0150346
0.0151651
0.0152969
0.0154301
0.0155622
0.0156932
0.0158206
0.0159442
0.0160615
0.0161723
0.0162745
0.0163681
0.0164515
0.0165261
0.0165911
0.0166499
0.0167023
0.0167479
0.0168107
0.0169063
0.0170827
0.0173943
0.01792
0.0186484
0.0196925
0.0437063
0.0433771
0.0432383
0.0429742
0.0428066
0.0425335
0.0423291
0.042036
0.0417936
0.041475
0.0411952
0.0408481
0.0405312
0.0401541
0.039801
0.0393941
0.0390057
0.0385691
0.0381465
0.0376806
0.0372255
0.0367316
0.0362462
0.0357263
0.035213
0.0346696
0.0341317
0.0335677
0.0330091
0.0324282
0.031853
0.0312595
0.0306726
0.030071
0.029478
0.028874
0.0282743
0.0276673
0.0270679
0.0264649
0.0258725
0.0252799
0.0247005
0.024124
0.0235628
0.0230072
0.0224687
0.0219381
0.021426
0.0209219
0.0204367
0.0199607
0.0195034
0.0190556
0.0186256
0.0182061
0.0178036
0.0174109
0.0170371
0.0166734
0.016327
0.0159909
0.0156706
0.0153587
0.0150606
0.0147698
0.0144904
0.0142158
0.0139497
0.0136918
0.0134417
0.0131978
0.0129605
0.0127275
0.0124998
0.0122747
0.0120538
0.0118339
0.0116174
0.011401
0.0111872
0.0109733
0.0107621
0.0105514
0.0103441
0.0101389
0.00993578
0.00973625
0.00954152
0.00935437
0.00917773
0.00901621
0.00887512
0.00875949
0.00870206
0.00868306
0.00879123
0.00905083
0.00945274
0.00963091
0.0553262
0.0553239
0.0553318
0.0553437
0.0553494
0.05535
0.0553372
0.0553046
0.0552644
0.0551965
0.0551285
0.055026
0.0549249
0.0547851
0.0546465
0.0544673
0.0542875
0.0540663
0.0538418
0.0535757
0.0533035
0.05299
0.0526676
0.052306
0.0519311
0.0515175
0.0510897
0.0506232
0.0501412
0.0496212
0.0490844
0.0485109
0.0479198
0.0472936
0.0466495
0.0459724
0.0452776
0.0445518
0.0438089
0.0430377
0.0422504
0.0414378
0.0406113
0.0397625
0.0389028
0.0380244
0.0371383
0.0362376
0.0353329
0.0344198
0.033507
0.0325906
0.0316789
0.0307681
0.0298666
0.0289708
0.0280887
0.0272171
0.0263624
0.0255221
0.0246984
0.0238882
0.023098
0.0223243
0.0215731
0.0208401
0.0201316
0.0194439
0.0187818
0.018137
0.017516
0.0169119
0.0163298
0.0157633
0.0152164
0.0146831
0.0141664
0.0136611
0.0131695
0.0126866
0.0122141
0.0117472
0.0112874
0.0108304
0.0103772
0.00994588
0.00952694
0.00913053
0.00874719
0.00838724
0.00804278
0.00772511
0.00742705
0.00716703
0.00692872
0.00677091
0.00670131
0.00670026
0.00703212
0.00722034
0.0620384
0.0623558
0.0624982
0.0627821
0.0629718
0.0632365
0.0634422
0.0636834
0.0638904
0.0641081
0.0643077
0.0645016
0.0646867
0.0648558
0.0650209
0.0651635
0.0653038
0.0654175
0.0655282
0.0656096
0.0656861
0.0657313
0.0657599
0.0657696
0.0657666
0.0657232
0.0656703
0.0655785
0.0654717
0.0653262
0.0651607
0.0649555
0.0647253
0.0644536
0.0641525
0.0638082
0.0634371
0.063022
0.062575
0.0620838
0.0615562
0.0609811
0.0603694
0.0597079
0.0590089
0.0582597
0.0574722
0.0566356
0.0557607
0.0548388
0.0538799
0.0528768
0.0518389
0.0507606
0.0496504
0.0485043
0.0473306
0.0461259
0.0448988
0.0436465
0.0423819
0.0410993
0.0398108
0.0385114
0.0372125
0.0359099
0.034614
0.0333212
0.0320413
0.0307708
0.0295193
0.0282833
0.0270716
0.025881
0.0247193
0.023583
0.0224749
0.0213906
0.0203362
0.0193083
0.0183117
0.0173441
0.0164088
0.0155041
0.0146324
0.0137909
0.0129739
0.0121845
0.0114175
0.0106767
0.00995761
0.00926378
0.00859363
0.00795449
0.00736089
0.00681243
0.00640054
0.00621286
0.00617436
0.00636106
0.0636029
0.0640839
0.0642997
0.0647165
0.064999
0.0653952
0.0657124
0.0660908
0.0664264
0.0667913
0.0671355
0.0674897
0.0678363
0.068181
0.0685253
0.0688606
0.0691991
0.0695245
0.0698538
0.0701675
0.0704844
0.0707841
0.0710852
0.0713696
0.0716514
0.0719148
0.072175
0.0724155
0.0726516
0.0728692
0.0730783
0.0732674
0.0734445
0.0735995
0.0737385
0.0738541
0.0739514
0.0740216
0.0740618
0.0740778
0.0740788
0.0740262
0.0739557
0.0738351
0.0736863
0.0734864
0.0732501
0.0729599
0.0726261
0.0722347
0.0717935
0.0712913
0.0707341
0.0701145
0.0694354
0.0686891
0.0678846
0.0670093
0.0660753
0.0650696
0.064006
0.0628752
0.0616881
0.0604355
0.0591299
0.0577627
0.0563462
0.0548737
0.0533568
0.0517907
0.0501859
0.0485392
0.0468599
0.045146
0.0434054
0.0416373
0.039853
0.0380539
0.0362444
0.0344268
0.0326043
0.0307806
0.0289586
0.0271436
0.0253387
0.023551
0.0217853
0.0200496
0.0183511
0.0166775
0.0150564
0.0134825
0.0119845
0.0105646
0.00927251
0.00807905
0.00708166
0.00635304
0.00603096
0.00600402
0.061227
0.0617258
0.0619537
0.0623761
0.0626735
0.063077
0.0634117
0.0638029
0.0641602
0.0645452
0.0649171
0.0652997
0.0656813
0.0660637
0.0664517
0.0668352
0.0672274
0.0676122
0.0680069
0.0683928
0.0687882
0.069174
0.0695679
0.0699515
0.0703402
0.0707173
0.0710951
0.0714572
0.0718134
0.0721693
0.0725225
0.0728725
0.0732211
0.0735657
0.0739104
0.0742468
0.0745793
0.0749026
0.0752198
0.075528
0.0758273
0.0761124
0.0763892
0.076648
0.0768957
0.0771221
0.077334
0.0775215
0.0776901
0.0778313
0.0779482
0.0780337
0.0780799
0.0780979
0.078098
0.0780327
0.077951
0.0778041
0.0776262
0.0773799
0.0770892
0.0767239
0.0762998
0.0757909
0.0752114
0.0745444
0.0737934
0.0729492
0.07201
0.0709712
0.06983
0.0685861
0.0672369
0.0657857
0.0642309
0.0625787
0.0608286
0.0589863
0.0570529
0.0550326
0.0529263
0.0507358
0.0484602
0.0460988
0.0436487
0.0411075
0.0384745
0.0357458
0.0329291
0.0300452
0.0270952
0.0240984
0.0210812
0.0180878
0.0152253
0.01251
0.0101201
0.00808744
0.00662559
0.00592611
0.0562069
0.0566389
0.0568371
0.057194
0.0574402
0.0577837
0.0580587
0.0583934
0.0586884
0.0590187
0.0593286
0.0596577
0.0599789
0.0603092
0.0606394
0.0609721
0.0613092
0.061645
0.0619876
0.0623266
0.0626732
0.0630149
0.0633638
0.0637072
0.0640569
0.064401
0.0647504
0.065095
0.0654461
0.0657969
0.0661529
0.0665097
0.0668705
0.0672317
0.0675951
0.0679606
0.0683296
0.0686998
0.0690728
0.0694469
0.0698225
0.0701987
0.0705759
0.0709521
0.0713286
0.0717022
0.0720759
0.0724461
0.0728132
0.0731723
0.0735239
0.0738609
0.0741816
0.0744791
0.0747432
0.0749608
0.0751848
0.075367
0.0755428
0.0756788
0.0758011
0.0758877
0.0759612
0.0760001
0.0760163
0.0760047
0.0759284
0.075821
0.0756499
0.0754325
0.075148
0.0748038
0.0743759
0.0738713
0.0732643
0.0725561
0.0717208
0.0707541
0.069631
0.0683439
0.0668705
0.0652028
0.0633236
0.0612272
0.0589043
0.0563527
0.0535684
0.0505516
0.0473185
0.0438487
0.040125
0.0361084
0.0318037
0.0272184
0.0225266
0.0182184
0.0144578
0.0116234
0.00943571
0.00727226
0.0498867
0.0501734
0.0503052
0.0505435
0.0506922
0.0509287
0.0510933
0.0513245
0.0515042
0.051731
0.0519239
0.0521478
0.0523516
0.0525744
0.052787
0.0530098
0.0532289
0.0534526
0.0536766
0.0539013
0.0541287
0.0543546
0.0545843
0.0548113
0.0550428
0.0552716
0.0555054
0.0557376
0.0559763
0.0562146
0.0564592
0.0567046
0.0569558
0.0572086
0.0574668
0.0577279
0.057994
0.0582636
0.0585388
0.0588179
0.0591027
0.0593922
0.0596878
0.0599889
0.0602969
0.0606111
0.0609297
0.0612514
0.0615754
0.0618997
0.0622238
0.0625449
0.0628627
0.0631743
0.0634803
0.063784
0.064094
0.0643943
0.0646975
0.0649821
0.0652556
0.0654915
0.0657076
0.0659058
0.0660842
0.0662499
0.0663902
0.066516
0.0666099
0.0666731
0.0667
0.0667039
0.0666344
0.0665175
0.0663186
0.0660438
0.0656653
0.0651806
0.0645651
0.0638118
0.0628992
0.0618191
0.0605535
0.0590964
0.0574384
0.0555704
0.0534572
0.0510853
0.0482813
0.0450496
0.0412792
0.036951
0.0322312
0.0273612
0.0224856
0.0180666
0.0146154
0.012239
0.0107424
0.00922538
0.031123
0.0311494
0.0311459
0.0311269
0.0311002
0.0310789
0.0310428
0.0310203
0.0309806
0.030956
0.030915
0.0308876
0.0308462
0.0308154
0.0307736
0.0307392
0.0306967
0.0306586
0.030615
0.0305734
0.0305282
0.0304834
0.0304364
0.0303887
0.0303399
0.0302898
0.0302394
0.0301875
0.0301357
0.0300821
0.0300288
0.0299735
0.0299183
0.0298613
0.0298042
0.0297453
0.0296862
0.0296255
0.0295644
0.0295017
0.0294384
0.0293735
0.0293076
0.0292398
0.0291705
0.0290985
0.0290235
0.0289448
0.0288622
0.028775
0.0286829
0.0285853
0.0284824
0.0283737
0.0282596
0.0281404
0.0280144
0.0278781
0.0277316
0.0275683
0.0273886
0.0271839
0.0269648
0.0267358
0.026495
0.0262454
0.0259835
0.0257118
0.0254251
0.0251263
0.0248121
0.0244827
0.0241281
0.0237576
0.0233581
0.0229369
0.0224839
0.0220036
0.0214891
0.0209435
0.0203624
0.0197483
0.019099
0.0184168
0.0176989
0.016938
0.016108
0.015151
0.0140552
0.0127792
0.0112218
0.00930912
0.00711018
0.00498431
0.00301677
0.00232223
0.00260814
0.00528041
0.00862448
0.00984824
0.00947217
0.00467545
0.00403038
0.00390133
0.00387302
0.00389705
0.00381776
0.00378069
0.00376598
0.00376303
0.00378542
0.00385677
0.00413388
0.00471696
0.00547399
0.0065518
0.00692002
0.00690159
0.00576395
0.00340276
0.00777606
0.00468051
0.00428943
0.00419008
0.00416617
0.00404596
0.00396684
0.00393219
0.00392035
0.00392279
0.00397617
0.00416383
0.00455799
0.00514207
0.00622038
0.00686866
0.00700451
0.00675932
0.00519308
0.00278254
0.00621349
0.00478472
0.00460502
0.00454118
0.00436895
0.00426775
0.0042
0.00417289
0.00416486
0.00417783
0.00430542
0.00456701
0.00505162
0.00599241
0.00679672
0.00704969
0.00703854
0.00647807
0.00456238
0.00215022
0.0057952
0.00511608
0.00503432
0.00479457
0.00463718
0.00452194
0.00446458
0.00444045
0.00443824
0.00454013
0.00476585
0.00519806
0.00606657
0.00686974
0.00719497
0.00725487
0.00697758
0.0060258
0.00378255
0.00154408
0.00591783
0.00548167
0.00534358
0.00505437
0.00493982
0.00486749
0.00484961
0.00488372
0.00500288
0.00528678
0.00568713
0.00651193
0.00718467
0.00748897
0.00757528
0.00739525
0.00678047
0.00540281
0.00293218
0.00101465
0.00628474
0.00593526
0.00580179
0.00561768
0.00558576
0.0055951
0.00572211
0.00595468
0.00637553
0.00689964
0.00752048
0.00800174
0.00820691
0.00825007
0.00796273
0.00732491
0.00636945
0.00458343
0.00189172
0.000561026
0.00721717
0.0070915
0.0070761
0.00710567
0.00738111
0.00770507
0.00825418
0.0089558
0.00963013
0.00983058
0.0098953
0.00975178
0.00942407
0.00883802
0.00801646
0.00707542
0.00563736
0.00346962
0.00114789
0.000251395
0.0108599
0.0113
0.0118051
0.0124648
0.0134241
0.0144102
0.0148904
0.0150406
0.0140088
0.0134127
0.0123198
0.0115303
0.0103072
0.00917418
0.00784071
0.00644269
0.00445064
0.00224858
0.000646912
9.16736e-05
0.0252567
0.0257375
0.0259406
0.0259407
0.0252449
0.023884
0.0222255
0.0199572
0.018215
0.0162723
0.0144702
0.012664
0.0107281
0.00894241
0.00708405
0.00504071
0.00296861
0.00131599
0.000390858
3.94068e-05
0.0411639
0.0393825
0.0374108
0.034617
0.032076
0.0284853
0.0258634
0.0226911
0.0203106
0.0174289
0.0151769
0.0124445
0.0101176
0.00732508
0.00513287
0.00309983
0.00185366
0.000856872
0.00033249
6.07455e-05
0.0379908
0.0364551
0.0348545
0.0323772
0.0302083
0.0269026
0.0244871
0.0215808
0.0194197
0.0167627
0.014774
0.0121806
0.0102298
0.00743382
0.0053841
0.00308435
0.00177829
0.000726221
0.000240759
4.75616e-05
0.0200812
0.0210038
0.0215148
0.0217678
0.0218501
0.0211291
0.0199262
0.0180575
0.0167582
0.0149653
0.0137674
0.0119415
0.0106063
0.00878862
0.00721059
0.00517291
0.00295892
0.00116299
0.00028519
3.37712e-05
0.00947155
0.00967021
0.0100773
0.0105438
0.0113358
0.0122511
0.0130389
0.0133493
0.0131655
0.0122425
0.0117941
0.0108633
0.0100316
0.0089765
0.00781813
0.00648699
0.00455491
0.00224059
0.00056627
4.55205e-05
0.00684807
0.00666653
0.00661168
0.00658526
0.0067565
0.00699678
0.00742423
0.00801747
0.00879668
0.00916668
0.00934308
0.00941021
0.00914936
0.00870831
0.00794728
0.0070707
0.00567239
0.00352653
0.00107138
0.000126998
0.00610545
0.00576946
0.00563783
0.00543552
0.00538547
0.00537161
0.00545298
0.00562686
0.00598745
0.00644193
0.00713121
0.00772877
0.00801598
0.00809442
0.00792658
0.00731029
0.00638985
0.00465202
0.00191315
0.000435056
0.00578598
0.00538291
0.00525322
0.00496878
0.00485201
0.00476955
0.00474362
0.00475539
0.00485463
0.00509693
0.00547598
0.00624694
0.00702897
0.00738843
0.00749149
0.00738722
0.00679449
0.00545418
0.00300646
0.000934901
0.00568113
0.00502085
0.00494895
0.00474293
0.00458551
0.00447332
0.00440758
0.00437797
0.0043694
0.0044526
0.00466683
0.00506626
0.00588561
0.00677874
0.00715367
0.00722424
0.00698917
0.00607126
0.00385837
0.00151218
0.00618018
0.00473051
0.00453191
0.00446444
0.00432388
0.00421897
0.00415399
0.00412728
0.00411937
0.00412837
0.00424291
0.0044971
0.00495699
0.00585823
0.00674321
0.00703806
0.00704404
0.00651449
0.00463926
0.0021573
0.00780328
0.00465328
0.00425638
0.0041481
0.00411554
0.00402176
0.00393541
0.00389772
0.00388554
0.00388771
0.00393723
0.00410975
0.0044991
0.00507907
0.00613708
0.00684619
0.0070025
0.00678687
0.00525736
0.00281669
0.00947295
0.00465259
0.00399486
0.00386834
0.0038386
0.00385251
0.00379719
0.00375422
0.00373927
0.00373614
0.00375855
0.00382637
0.00407907
0.00464068
0.00542
0.00652211
0.00691892
0.00692008
0.00582732
0.00344955
0.00397118
0.00375019
0.00374679
0.0037468
0.00374652
0.00374628
0.00374612
0.00374604
0.003746
0.00374598
0.00374598
0.003746
0.00374604
0.00374612
0.00374628
0.00374652
0.0037468
0.00374679
0.00375019
0.00397117
0.00441489
0.00375346
0.00374141
0.00374096
0.00374056
0.00374012
0.00373987
0.00373975
0.00373969
0.00373966
0.00373966
0.00373969
0.00373975
0.00373987
0.00374012
0.00374056
0.00374096
0.00374141
0.00375346
0.00441489
0.0048594
0.00376059
0.00373287
0.00373264
0.00373284
0.00373273
0.00373256
0.00373242
0.00373235
0.00373231
0.00373231
0.00373235
0.00373242
0.00373256
0.00373273
0.00373284
0.00373264
0.00373287
0.00376059
0.00485939
0.00530178
0.00377206
0.0037243
0.00372396
0.00372492
0.00372524
0.00372525
0.00372519
0.00372514
0.00372512
0.00372512
0.00372514
0.00372519
0.00372525
0.00372524
0.00372492
0.00372396
0.0037243
0.00377206
0.00530179
0.00573924
0.00378544
0.0037155
0.00371483
0.00371665
0.00371758
0.00371789
0.00371795
0.00371795
0.00371795
0.00371795
0.00371795
0.00371795
0.00371789
0.00371758
0.00371665
0.00371483
0.00371551
0.00378544
0.00573924
0.00617058
0.00379767
0.00370577
0.0037051
0.003708
0.00370969
0.00371043
0.0037107
0.00371078
0.0037108
0.0037108
0.00371078
0.0037107
0.00371043
0.00370969
0.003708
0.0037051
0.00370577
0.00379767
0.00617059
0.00659185
0.00380847
0.00369498
0.00369474
0.00369894
0.00370155
0.00370284
0.0037034
0.00370361
0.00370368
0.00370368
0.00370361
0.0037034
0.00370284
0.00370155
0.00369894
0.00369474
0.00369498
0.00380847
0.00659185
0.00700084
0.00381671
0.00368272
0.00368362
0.00368941
0.00369311
0.00369508
0.00369602
0.00369642
0.00369656
0.00369656
0.00369642
0.00369602
0.00369508
0.00369311
0.00368941
0.00368362
0.00368272
0.00381671
0.00700084
0.00739336
0.00382333
0.00366915
0.00367174
0.00367942
0.00368437
0.00368714
0.00368854
0.00368919
0.00368943
0.00368943
0.00368919
0.00368854
0.00368714
0.00368437
0.00367942
0.00367174
0.00366915
0.00382334
0.00739335
0.00776768
0.00382735
0.00365405
0.00365903
0.00366893
0.00367532
0.00367898
0.00368095
0.0036819
0.00368228
0.00368228
0.0036819
0.00368095
0.00367898
0.00367532
0.00366893
0.00365903
0.00365404
0.00382735
0.00776768
0.00812024
0.00383021
0.00363764
0.00364552
0.00365794
0.00366592
0.00367061
0.00367321
0.00367453
0.00367507
0.00367507
0.00367453
0.00367321
0.00367061
0.00366592
0.00365794
0.00364552
0.00363765
0.00383021
0.00812023
0.00845034
0.00383068
0.00361989
0.00363122
0.00364645
0.0036562
0.00366201
0.00366531
0.00366705
0.00366779
0.00366779
0.00366705
0.00366531
0.00366201
0.0036562
0.00364645
0.00363121
0.00361988
0.00383069
0.00845034
0.00875525
0.00383018
0.0036009
0.00361613
0.00363446
0.00364613
0.00365316
0.00365725
0.00365946
0.00366041
0.00366041
0.00365946
0.00365725
0.00365316
0.00364613
0.00363446
0.00361613
0.00360091
0.00383019
0.00875524
0.00903545
0.00382886
0.00358085
0.00360032
0.00362199
0.00363573
0.00364408
0.00364901
0.00365173
0.00365292
0.00365292
0.00365173
0.00364901
0.00364408
0.00363573
0.00362199
0.00360032
0.00358084
0.00382886
0.00903544
0.00928895
0.00382647
0.00355981
0.00358379
0.00360904
0.003625
0.00363475
0.00364059
0.00364385
0.00364531
0.00364531
0.00364385
0.00364059
0.00363475
0.003625
0.00360904
0.0035838
0.00355982
0.00382648
0.00928894
0.00951739
0.0038234
0.00353794
0.00356664
0.00359565
0.00361394
0.00362518
0.00363197
0.00363582
0.00363755
0.00363755
0.00363582
0.00363197
0.00362518
0.00361394
0.00359565
0.00356663
0.00353793
0.00382339
0.00951738
0.00971929
0.00382011
0.00351531
0.00354885
0.00358181
0.00360255
0.00361535
0.00362316
0.00362762
0.00362964
0.00362964
0.00362762
0.00362316
0.00361535
0.00360255
0.00358181
0.00354886
0.00351532
0.00382012
0.00971928
0.00989731
0.00381663
0.00349216
0.00353055
0.00356758
0.00359087
0.00360529
0.00361414
0.00361924
0.00362157
0.00362157
0.00361924
0.00361414
0.00360529
0.00359087
0.00356757
0.00353054
0.00349215
0.00381662
0.0098973
0.0100502
0.00381347
0.00346849
0.0035117
0.00355293
0.00357887
0.00359499
0.00360492
0.00361068
0.00361332
0.00361332
0.00361068
0.00360492
0.00359499
0.00357888
0.00355293
0.00351171
0.00346851
0.00381348
0.0100502
0.0101815
0.00381057
0.00344463
0.00349248
0.00353795
0.0035666
0.00358445
0.0035955
0.00360193
0.0036049
0.0036049
0.00360193
0.00359549
0.00358445
0.0035666
0.00353795
0.00349247
0.00344461
0.00381057
0.0101815
0.0102898
0.00380853
0.00342045
0.00347279
0.0035226
0.00355404
0.00357367
0.00358587
0.003593
0.0035963
0.0035963
0.003593
0.00358587
0.00357367
0.00355404
0.00352261
0.0034728
0.00342048
0.00380854
0.0102897
0.0103794
0.00380714
0.00339644
0.00345288
0.00350698
0.00354123
0.00356267
0.00357603
0.00358387
0.00358751
0.00358751
0.00358387
0.00357603
0.00356267
0.00354123
0.00350697
0.00345286
0.00339641
0.00380714
0.0103794
0.0104486
0.00380736
0.00337228
0.00343258
0.00349103
0.00352816
0.00355145
0.003566
0.00357455
0.00357853
0.00357853
0.00357455
0.003566
0.00355145
0.00352816
0.00349104